/*--------------------------------*- C++ -*----------------------------------*\
  =========                 |
  \\      /  F ield         | OpenFOAM: The Open Source CFD Toolbox
   \\    /   O peration     | Website:  https://openfoam.org
    \\  /    A nd           | Version:  9
     \\/     M anipulation  |
\*---------------------------------------------------------------------------*/
FoamFile
{
    format      ascii;
    class       volVectorField;
    location    "0.002";
    object      ddt0(rho,U);
}
// * * * * * * * * * * * * * * * * * * * * * * * * * * * * * * * * * * * * * //

dimensions      [1 -2 -2 0 0 0 0];

internalField   nonuniform List<vector> 
100
(
(-1.45519e-09 0 0)
(-4.36557e-10 0 0)
(1.74623e-09 0 0)
(1.45519e-09 0 0)
(7.27596e-10 0 0)
(-2.47383e-09 0 0)
(-1.30967e-09 0 0)
(-2.91038e-10 0 0)
(1.30967e-09 0 0)
(-2.24554e-23 0 0)
(-2.18279e-09 0 0)
(9.14483e-31 0 0)
(0 0 0)
(5.82077e-10 0 0)
(-4.36557e-10 0 0)
(-1.45519e-10 0 0)
(1.4282e-41 0 0)
(0 0 0)
(5.82077e-10 0 0)
(-4.36557e-10 0 0)
(0 0 0)
(4.36557e-10 0 0)
(8.73115e-09 0 0)
(6.82485e-08 0 0)
(5.20231e-07 0 0)
(4.08196e-06 0 0)
(2.90289e-05 0 0)
(0.000207594 0 0)
(0.00134192 0 0)
(0.00861976 0 0)
(0.0500901 0 0)
(0.285302 0 0)
(1.47055 0 0)
(7.30356 0 0)
(32.7858 0 0)
(138.724 0 0)
(527.498 0 0)
(1830.03 0 0)
(5574.91 0 0)
(13820.8 0 0)
(27280.6 0 0)
(43802.4 0 0)
(56538.7 0 0)
(57703.4 0 0)
(49062.5 0 0)
(36334 0 0)
(21367.6 0 0)
(12421.5 0 0)
(10949.3 0 0)
(3094.8 0 0)
(-1946.85 0 0)
(-4551.54 0 0)
(4878.87 0 0)
(22485.9 0 0)
(41823.7 0 0)
(44605.5 0 0)
(21788.9 0 0)
(12589.5 0 0)
(10307.3 0 0)
(20802.9 0 0)
(80603 0 0)
(214179 0 0)
(80157.7 0 0)
(10280 0 0)
(1306.95 0 0)
(154.05 0 0)
(17.8515 0 0)
(2.05194 0 0)
(0.234029 0 0)
(0.026661 0 0)
(0.0030439 0 0)
(0.000347225 0 0)
(3.95018e-05 0 0)
(4.43724e-06 0 0)
(4.91546e-07 0 0)
(5.28416e-08 0 0)
(5.45697e-09 0 0)
(4.72937e-10 0 0)
(9.37241e-27 0 0)
(-9.85767e-36 0 0)
(-1.98034e-35 0 0)
(4.11768e-27 0 0)
(1.30703e-35 0 0)
(-1.35495e-36 0 0)
(-9.85767e-36 0 0)
(-1.98034e-35 0 0)
(4.11768e-27 0 0)
(7.26431e-35 0 0)
(-8.07146e-36 0 0)
(1.81899e-11 0 0)
(-1.25128e-24 0 0)
(-9.09495e-11 0 0)
(-3.63798e-11 0 0)
(1.09139e-10 0 0)
(7.27596e-11 0 0)
(-7.27596e-11 0 0)
(-7.27596e-11 0 0)
(-3.63798e-11 0 0)
(5.45697e-11 0 0)
(5.45697e-11 0 0)
)
;

boundaryField
{
    sides
    {
        type            calculated;
        value           nonuniform List<vector> 2((5.45697e-11 0 0) (-1.45519e-09 0 0));
    }
    empty
    {
        type            empty;
    }
}


// ************************************************************************* //
