/*--------------------------------*- C++ -*----------------------------------*\
  =========                 |
  \\      /  F ield         | OpenFOAM: The Open Source CFD Toolbox
   \\    /   O peration     | Website:  https://openfoam.org
    \\  /    A nd           | Version:  9
     \\/     M anipulation  |
\*---------------------------------------------------------------------------*/
FoamFile
{
    format      ascii;
    class       volScalarField;
    location    "0.002";
    object      ddt0(p);
}
// * * * * * * * * * * * * * * * * * * * * * * * * * * * * * * * * * * * * * //

dimensions      [1 -1 -3 0 0 0 0];

internalField   nonuniform List<scalar> 
100
(
-9.82002e-09
5.11377e-15
-1.52755e-06
1.62061e-06
-4.9844e-07
5.87385e-10
5.11377e-15
2.19464e-08
0
8.30946e-08
0
1.77167e-15
6.97388e-16
1.77167e-15
-1.32871e-15
1.07116e-06
1.77167e-15
6.97388e-16
1.77167e-15
1.77167e-15
-1.19018e-06
1.77167e-15
-2.23954e-09
-2.66483e-05
-0.000193046
-0.0013587
-0.0102865
-0.0701917
-0.476936
-2.94457
-17.8687
-98.5765
-526.628
-2556.02
-11792.3
-49266.9
-190934
-663061
-2.05066e+06
-5.45706e+06
-1.0638e+07
-1.77341e+07
-2.35813e+07
-2.56916e+07
-2.31474e+07
-1.82645e+07
-1.3572e+07
-9.24454e+06
-5.08714e+06
-2.54295e+06
-908019
-1.24009e+06
901712
2.97101e+06
2.92587e+06
-634950
-648681
137479
148925
2.13348e+06
1.27266e+07
7.45178e+07
1.72941e+07
3.23428e+06
397012
47029
5471.53
626.75
71.4691
8.14641
0.9294
0.10615
0.0120492
0.00135532
0.000149587
1.63101e-05
1.43811e-06
-2.0008e-15
-6.56936e-16
0
-6.56936e-16
-6.56936e-16
-2.0008e-15
-6.56936e-16
0
-6.56936e-16
-6.56936e-16
-2.0008e-15
-6.56936e-16
0
6.68941e-16
3.71634e-16
1.00066e-15
1.11949e-15
-6.91216e-08
6.68941e-16
3.71634e-16
1.00066e-15
1.11949e-15
0
)
;

boundaryField
{
    sides
    {
        type            calculated;
        value           nonuniform List<scalar> 2(0 -9.82002e-09);
    }
    empty
    {
        type            empty;
    }
}


// ************************************************************************* //
