/*--------------------------------*- C++ -*----------------------------------*\
  =========                 |
  \\      /  F ield         | OpenFOAM: The Open Source CFD Toolbox
   \\    /   O peration     | Website:  https://openfoam.org
    \\  /    A nd           | Version:  9
     \\/     M anipulation  |
\*---------------------------------------------------------------------------*/
FoamFile
{
    format      ascii;
    class       volVectorField;
    location    "0.002";
    object      U_0;
}
// * * * * * * * * * * * * * * * * * * * * * * * * * * * * * * * * * * * * * //

dimensions      [0 1 -1 0 0 0 0];

internalField   nonuniform List<vector> 
100
(
(-1.05213e-12 0 0)
(1.16391e-12 0 0)
(-1.0165e-13 0 0)
(-7.61611e-14 0 0)
(2.34802e-12 0 0)
(-2.14426e-12 0 0)
(4.04606e-14 0 0)
(-4.85066e-13 0 0)
(4.09519e-13 0 0)
(-7.47293e-27 0 0)
(-2.02096e-12 0 0)
(-3.60844e-15 0 0)
(0 0 0)
(1.1438e-12 0 0)
(-1.13282e-12 0 0)
(-1.09789e-14 0 0)
(4.76065e-31 0 0)
(0 0 0)
(1.15032e-12 0 0)
(-1.13428e-12 0 0)
(0 0 0)
(5.98847e-15 0 0)
(5.3474e-13 0 0)
(5.84122e-12 0 0)
(3.84581e-11 0 0)
(3.17437e-10 0 0)
(2.34645e-09 0 0)
(1.76492e-08 0 0)
(1.19334e-07 0 0)
(8.11082e-07 0 0)
(4.95945e-06 0 0)
(3.01059e-05 0 0)
(0.000164579 0 0)
(0.000879616 0 0)
(0.00423512 0 0)
(0.0195547 0 0)
(0.0811946 0 0)
(0.315062 0 0)
(1.08848 0 0)
(3.32598 0 0)
(8.47385 0 0)
(18.5076 0 0)
(34.8994 0 0)
(57.8803 0 0)
(85.8969 0 0)
(115.659 0 0)
(146.236 0 0)
(176.1 0 0)
(203.756 0 0)
(228.513 0 0)
(249.933 0 0)
(269.276 0 0)
(284.998 0 0)
(293.793 0 0)
(297.002 0 0)
(297.577 0 0)
(295.611 0 0)
(289.958 0 0)
(282.129 0 0)
(272.357 0 0)
(249.828 0 0)
(174.002 0 0)
(50.5414 0 0)
(6.63833 0 0)
(0.812904 0 0)
(0.095042 0 0)
(0.0109038 0 0)
(0.00124471 0 0)
(0.000141899 0 0)
(1.61835e-05 0 0)
(1.84807e-06 0 0)
(2.09826e-07 0 0)
(2.36365e-08 0 0)
(2.61002e-09 0 0)
(2.82614e-10 0 0)
(2.93029e-11 0 0)
(2.73497e-12 0 0)
(1.49789e-13 0 0)
(-1.45873e-15 0 0)
(1.45873e-15 0 0)
(1.02111e-14 0 0)
(-1.31286e-14 0 0)
(2.91746e-15 0 0)
(-1.45873e-15 0 0)
(1.45873e-15 0 0)
(1.02111e-14 0 0)
(-1.31286e-14 0 0)
(7.29366e-15 0 0)
(-5.83493e-15 0 0)
(2.77927e-13 0 0)
(-6.59383e-27 0 0)
(-1.42902e-12 0 0)
(-5.73358e-13 0 0)
(1.14679e-12 0 0)
(1.14672e-12 0 0)
(-5.77811e-13 0 0)
(-1.1438e-12 0 0)
(-5.719e-13 0 0)
(8.55662e-13 0 0)
(8.58579e-13 0 0)
)
;

boundaryField
{
    sides
    {
        type            zeroGradient;
    }
    empty
    {
        type            empty;
    }
}


// ************************************************************************* //
