/*--------------------------------*- C++ -*----------------------------------*\
  =========                 |
  \\      /  F ield         | OpenFOAM: The Open Source CFD Toolbox
   \\    /   O peration     | Website:  https://openfoam.org
    \\  /    A nd           | Version:  9
     \\/     M anipulation  |
\*---------------------------------------------------------------------------*/
FoamFile
{
    format      ascii;
    class       volScalarField;
    location    "0.048";
    object      ddt0(rho,K);
}
// * * * * * * * * * * * * * * * * * * * * * * * * * * * * * * * * * * * * * //

dimensions      [1 -1 -3 0 0 0 0];

internalField   nonuniform List<scalar> 
10000
(
51.0247
48.609
45.8935
43.6801
41.662
39.6095
37.4973
35.3583
33.2102
31.0532
28.884
26.7015
24.5056
22.297
20.0758
17.8424
15.597
13.3401
11.0717
8.79187
6.49988
4.19522
1.87766
-0.452798
-2.79618
-5.15256
-7.52197
-9.90426
-12.2994
-14.7074
-17.1288
-19.5635
-22.0111
-24.4711
-26.9432
-29.4277
-31.9252
-34.4362
-36.9603
-39.4972
-42.0466
-44.6085
-47.1832
-49.7706
-52.3702
-54.9815
-57.6048
-60.2406
-62.8898
-65.5523
-68.2281
-70.9172
-73.6205
-76.3392
-79.0742
-81.8251
-84.5904
-87.3686
-90.1584
-92.9599
-95.7735
-98.5993
-101.436
-104.284
-107.141
-110.009
-112.89
-115.787
-118.701
-121.632
-124.579
-127.541
-130.517
-133.509
-136.518
-139.542
-142.579
-145.627
-148.684
-151.75
-154.827
-157.916
-161.021
-164.141
-167.276
-170.424
-173.586
-176.763
-179.957
-183.17
-186.401
-189.649
-192.909
-196.178
-199.455
-202.743
-206.045
-209.363
-212.699
-216.052
-219.42
-222.801
-226.194
-229.601
-233.025
-236.468
-239.931
-243.409
-246.9
-250.399
-253.904
-257.417
-260.943
-264.487
-268.053
-271.642
-275.252
-278.879
-282.518
-286.168
-289.831
-293.508
-297.204
-300.919
-304.653
-308.401
-312.16
-315.927
-319.699
-323.48
-327.273
-331.084
-334.919
-338.781
-342.671
-346.586
-350.519
-354.464
-358.416
-362.373
-366.335
-370.309
-374.301
-378.316
-382.357
-386.421
-390.504
-394.598
-398.702
-402.812
-406.931
-411.064
-415.216
-419.391
-423.592
-427.82
-432.072
-436.346
-440.635
-444.934
-449.24
-453.55
-457.866
-462.196
-466.547
-470.925
-475.334
-479.772
-484.233
-488.71
-493.198
-497.692
-502.19
-506.694
-511.207
-515.734
-520.283
-524.862
-529.475
-534.128
-538.818
-543.537
-548.276
-553.021
-557.766
-562.505
-567.24
-571.976
-576.718
-581.476
-586.257
-591.069
-595.921
-600.816
-605.756
-610.735
-615.743
-620.766
-625.796
-630.825
-635.852
-640.878
-645.904
-650.938
-655.983
-661.047
-666.137
-671.265
-676.435
-681.65
-686.905
-692.191
-697.5
-702.824
-708.16
-713.503
-718.851
-724.203
-729.558
-734.916
-740.282
-745.667
-751.082
-756.532
-762.018
-767.538
-773.091
-778.675
-784.289
-789.933
-795.608
-801.31
-807.032
-812.766
-818.509
-824.264
-830.034
-835.816
-841.606
-847.401
-853.2
-859.005
-864.82
-870.658
-876.532
-882.447
-888.399
-894.388
-900.418
-906.496
-912.623
-918.796
-925.009
-931.252
-937.513
-943.782
-950.06
-956.354
-962.67
-968.999
-975.328
-981.656
-987.992
-994.341
-1000.71
-1007.09
-1013.5
-1019.91
-1026.32
-1032.73
-1039.16
-1045.62
-1052.12
-1058.66
-1065.23
-1071.85
-1078.52
-1085.26
-1092.07
-1098.96
-1105.9
-1112.88
-1119.87
-1126.89
-1133.97
-1141.11
-1148.28
-1155.46
-1162.67
-1169.91
-1177.18
-1184.48
-1191.84
-1199.24
-1206.62
-1213.97
-1221.33
-1228.74
-1236.2
-1243.65
-1251.1
-1258.6
-1266.08
-1273.55
-1281.1
-1288.7
-1296.36
-1303.96
-1311.53
-1319.22
-1326.95
-1334.66
-1342.46
-1350.27
-1358.05
-1365.79
-1373.89
-1381.78
-1389.56
-1397.46
-1405.38
-1413.35
-1421.31
-1429.27
-1437.3
-1445.37
-1453.38
-1461.33
-1469.33
-1477.4
-1485.5
-1493.63
-1501.81
-1509.99
-1518.18
-1526.45
-1534.8
-1543.18
-1551.56
-1559.99
-1568.48
-1577.02
-1585.64
-1594.36
-1603.13
-1611.94
-1620.82
-1629.79
-1638.83
-1647.92
-1657.06
-1666.24
-1675.46
-1684.73
-1694.07
-1703.48
-1712.92
-1722.39
-1731.89
-1741.42
-1750.97
-1760.56
-1770.16
-1779.76
-1789.35
-1798.91
-1808.48
-1818.04
-1827.64
-1837.27
-1845.76
-1854.16
-1864.52
-1876.44
-1887.87
-1897.26
-1906.37
-1916.94
-1927.19
-1936.67
-1946.77
-1957.26
-1967.3
-1977.4
-1987.81
-1998.2
-2008.52
-2018.96
-2029.51
-2040.06
-2050.58
-2061.15
-2071.85
-2082.6
-2093.33
-2104.07
-2114.92
-2125.88
-2136.87
-2147.85
-2158.89
-2170
-2181.2
-2192.4
-2203.6
-2214.87
-2226.22
-2237.61
-2249.01
-2260.49
-2272.05
-2283.64
-2295.25
-2306.94
-2318.72
-2330.56
-2342.4
-2354.27
-2366.22
-2378.23
-2390.27
-2402.34
-2414.47
-2426.69
-2438.96
-2451.25
-2463.61
-2476.06
-2488.58
-2501.12
-2513.69
-2526.35
-2539.07
-2551.81
-2564.59
-2577.46
-2590.41
-2603.37
-2616.38
-2629.48
-2642.67
-2655.89
-2669.17
-2682.52
-2695.92
-2709.38
-2722.89
-2736.46
-2750.08
-2763.77
-2777.53
-2791.33
-2805.19
-2819.15
-2833.16
-2847.24
-2861.38
-2875.6
-2889.89
-2904.21
-2918.6
-2933.05
-2947.58
-2962.16
-2976.79
-2991.51
-3006.3
-3021.15
-3036.07
-3051.05
-3066.13
-3081.29
-3096.5
-3111.78
-3127.11
-3142.53
-3158.01
-3173.57
-3189.2
-3204.87
-3220.63
-3236.46
-3252.37
-3268.37
-3284.45
-3300.61
-3316.85
-3333.14
-3349.5
-3365.93
-3382.43
-3399.02
-3415.69
-3432.45
-3449.28
-3466.19
-3483.18
-3500.23
-3517.38
-3534.61
-3551.93
-3569.34
-3586.82
-3604.38
-3622.04
-3639.75
-3657.54
-3675.41
-3693.36
-3711.42
-3729.57
-3747.79
-3766.12
-3784.52
-3803.02
-3821.6
-3840.26
-3859.02
-3877.88
-3896.82
-3915.85
-3934.95
-3954.13
-3973.41
-3992.79
-4012.27
-4031.86
-4051.52
-4071.29
-4091.15
-4111.08
-4131.14
-4151.29
-4171.53
-4191.88
-4212.3
-4232.82
-4253.45
-4274.16
-4294.98
-4315.91
-4336.93
-4358.07
-4379.3
-4400.61
-4422.05
-4443.59
-4465.22
-4486.98
-4508.83
-4530.77
-4552.83
-4574.97
-4597.21
-4619.58
-4642.04
-4664.62
-4687.32
-4710.12
-4733.04
-4756.07
-4779.2
-4802.46
-4825.82
-4849.27
-4872.86
-4896.55
-4920.34
-4944.26
-4968.27
-4992.4
-5016.66
-5041.02
-5065.5
-5090.13
-5114.86
-5139.71
-5164.68
-5189.76
-5214.96
-5240.27
-5265.67
-5291.22
-5316.89
-5342.65
-5368.56
-5394.6
-5420.74
-5447.02
-5473.43
-5499.95
-5526.62
-5553.4
-5580.29
-5607.33
-5634.49
-5661.75
-5689.17
-5716.7
-5744.33
-5772.11
-5800.02
-5828.05
-5856.22
-5884.52
-5912.95
-5941.53
-5970.23
-5999.04
-6028.01
-6057.09
-6086.28
-6115.63
-6145.09
-6174.66
-6204.39
-6234.26
-6264.24
-6294.37
-6324.64
-6355.03
-6385.57
-6416.25
-6447.05
-6478
-6509.09
-6540.29
-6571.65
-6603.14
-6634.73
-6666.49
-6698.39
-6730.39
-6762.55
-6794.87
-6827.28
-6859.85
-6892.59
-6925.42
-6958.39
-6991.53
-7024.77
-7058.12
-7091.65
-7125.29
-7159.04
-7192.97
-7227.03
-7261.2
-7295.54
-7330.03
-7364.61
-7399.36
-7434.26
-7469.27
-7504.41
-7539.71
-7575.12
-7610.66
-7646.35
-7682.16
-7718.09
-7754.19
-7790.41
-7826.74
-7863.24
-7899.86
-7936.59
-7973.47
-8010.48
-8047.59
-8084.83
-8122.22
-8159.71
-8197.33
-8235.1
-8272.98
-8310.97
-8349.11
-8387.37
-8425.73
-8464.24
-8502.87
-8541.6
-8580.47
-8619.47
-8658.55
-8697.76
-8737.12
-8776.56
-8816.11
-8855.82
-8895.62
-8935.5
-8975.53
-9015.67
-9055.87
-9096.2
-9136.65
-9177.15
-9217.78
-9258.54
-9299.35
-9340.27
-9381.33
-9422.46
-9463.65
-9504.99
-9546.41
-9587.87
-9629.46
-9671.14
-9712.87
-9754.7
-9796.64
-9838.62
-9880.69
-9922.86
-9965.1
-10007.4
-10049.8
-10092.3
-10134.8
-10177.3
-10220
-10262.7
-10305.5
-10348.3
-10391.2
-10434.1
-10477
-10520.1
-10563.1
-10606.2
-10649.4
-10692.6
-10735.8
-10779.1
-10822.4
-10865.7
-10909.1
-10952.5
-10995.9
-11039.3
-11082.8
-11126.3
-11169.7
-11213.2
-11256.7
-11300.2
-11343.7
-11387.3
-11430.8
-11474.3
-11517.9
-11561.4
-11604.9
-11648.3
-11691.8
-11735.2
-11778.6
-11822
-11865.3
-11908.6
-11951.9
-11995.2
-12038.4
-12081.5
-12124.7
-12167.8
-12210.8
-12253.7
-12296.7
-12339.5
-12382.3
-12425
-12467.7
-12510.3
-12552.8
-12595.3
-12637.6
-12679.9
-12722.1
-12764.2
-12806.2
-12848.2
-12890
-12931.7
-12973.3
-13014.9
-13056.3
-13097.6
-13138.8
-13179.9
-13220.9
-13261.7
-13302.5
-13343.1
-13383.5
-13423.9
-13464.1
-13504.1
-13544
-13583.8
-13623.5
-13663
-13702.3
-13741.6
-13780.6
-13819.5
-13858.3
-13896.9
-13935.3
-13973.6
-14011.7
-14049.7
-14087.4
-14125
-14162.5
-14199.7
-14236.7
-14273.7
-14310.4
-14346.8
-14383.2
-14419.4
-14455.3
-14491.1
-14526.7
-14562.1
-14597.2
-14632.3
-14667.1
-14701.7
-14736.1
-14770.4
-14804.4
-14838.2
-14871.9
-14905.3
-14938.5
-14971.5
-15004.3
-15036.9
-15069.3
-15101.4
-15133.4
-15165.2
-15196.7
-15228
-15259.2
-15290.1
-15320.7
-15351.2
-15381.5
-15411.6
-15441.4
-15471.1
-15500.5
-15529.7
-15558.7
-15587.5
-15616.1
-15644.4
-15672.6
-15700.6
-15728.3
-15755.8
-15783.1
-15810.2
-15837
-15863.7
-15890.2
-15916.4
-15942.4
-15968.3
-15994
-16019.4
-16044.6
-16069.6
-16094.5
-16119.1
-16143.5
-16167.8
-16191.8
-16215.6
-16239.2
-16262.7
-16286
-16309
-16331.9
-16354.6
-16377
-16399.2
-16421.4
-16443.3
-16465
-16486.5
-16507.9
-16529.1
-16550.1
-16570.9
-16591.6
-16612.1
-16632.4
-16652.5
-16672.6
-16692.3
-16712
-16731.5
-16750.9
-16770
-16789
-16807.9
-16826.6
-16845.1
-16863.5
-16881.8
-16899.9
-16917.8
-16935.6
-16953.3
-16970.8
-16988.1
-17005.3
-17022.5
-17039.4
-17056.2
-17072.9
-17089.5
-17105.9
-17122.2
-17138.4
-17154.5
-17170.4
-17186.3
-17202
-17217.7
-17233.1
-17248.5
-17263.8
-17279
-17294
-17309
-17323.9
-17338.6
-17353.2
-17367.7
-17382.2
-17396.5
-17410.7
-17424.9
-17439
-17452.9
-17466.8
-17480.6
-17494.3
-17507.9
-17521.4
-17534.9
-17548.3
-17561.6
-17574.9
-17588.1
-17601.2
-17614.2
-17627.2
-17640.1
-17652.9
-17665.7
-17678.3
-17691
-17703.6
-17716
-17728.5
-17740.9
-17753.2
-17765.4
-17777.7
-17789.9
-17802
-17813.9
-17826
-17837.9
-17849.8
-17861.6
-17873.4
-17885.2
-17896.9
-17908.5
-17920.2
-17931.9
-17943.4
-17954.9
-17966.4
-17977.9
-17989.3
-18000.6
-18012
-18023.4
-18034.6
-18045.8
-18057
-18068.3
-18079.4
-18090.4
-18101.6
-18112.7
-18123.6
-18134.6
-18145.6
-18156.6
-18167.5
-18178.3
-18189.3
-18200.1
-18210.9
-18221.7
-18232.6
-18243.4
-18254.1
-18264.8
-18275.6
-18286.3
-18297
-18307.7
-18318.4
-18329.1
-18339.7
-18350.3
-18360.9
-18371.5
-18382.1
-18392.6
-18403.2
-18413.8
-18424.2
-18434.7
-18445.3
-18455.8
-18466.2
-18476.7
-18487.1
-18497.6
-18508
-18518.4
-18528.9
-18539.3
-18549.7
-18560.1
-18570.5
-18581
-18591.3
-18601.7
-18612.1
-18622.5
-18632.9
-18643.2
-18653.6
-18664
-18674.4
-18684.7
-18695
-18705.4
-18715.7
-18726
-18736.3
-18746.7
-18757.1
-18767.3
-18777.6
-18788
-18798.3
-18808.5
-18818.8
-18829.2
-18839.5
-18849.8
-18860
-18870.4
-18880.7
-18891
-18901.3
-18911.6
-18922
-18932.2
-18942.5
-18952.8
-18963.2
-18973.5
-18983.7
-18994
-19004.4
-19014.7
-19024.9
-19035.3
-19045.6
-19055.9
-19066.2
-19076.5
-19086.8
-19097.1
-19107.4
-19117.7
-19128
-19138.3
-19148.6
-19158.9
-19169.2
-19179.6
-19189.9
-19200.1
-19210.5
-19220.9
-19231.2
-19241.5
-19251.8
-19262.2
-19272.5
-19282.8
-19293.2
-19303.6
-19313.9
-19324.2
-19334.5
-19344.9
-19355.3
-19365.6
-19375.9
-19386.3
-19396.7
-19407
-19417.3
-19427.7
-19438.1
-19448.4
-19458.7
-19469.1
-19479.6
-19489.9
-19500.2
-19510.6
-19521.1
-19531.5
-19541.8
-19552.2
-19562.6
-19573.1
-19583.4
-19593.8
-19604.2
-19614.7
-19625.1
-19635.4
-19645.8
-19656.3
-19666.7
-19677.1
-19687.5
-19698
-19708.4
-19718.8
-19729.2
-19739.7
-19750.1
-19760.5
-19770.9
-19781.4
-19791.9
-19802.3
-19812.7
-19823.2
-19833.7
-19844.2
-19854.6
-19865
-19875.5
-19886
-19896.5
-19906.9
-19917.4
-19928
-19938.4
-19948.8
-19959.3
-19969.9
-19980.4
-19990.8
-20001.3
-20011.9
-20022.4
-20032.8
-20043.3
-20053.8
-20064.4
-20074.9
-20085.3
-20095.9
-20106.5
-20117
-20127.4
-20138
-20148.6
-20159.1
-20169.6
-20180.1
-20190.7
-20201.3
-20211.8
-20222.3
-20232.9
-20243.5
-20254.1
-20264.6
-20275.1
-20285.8
-20296.4
-20306.9
-20317.4
-20328
-20338.7
-20349.2
-20359.7
-20370.3
-20381
-20391.6
-20402.1
-20412.7
-20423.3
-20434
-20444.6
-20455.1
-20465.7
-20476.4
-20487.1
-20497.6
-20508.2
-20518.9
-20529.6
-20540.2
-20550.7
-20561.4
-20572.1
-20582.8
-20593.3
-20604
-20614.7
-20625.4
-20636
-20646.6
-20657.3
-20668
-20678.6
-20689.2
-20699.9
-20710.6
-20721.3
-20731.9
-20742.6
-20753.3
-20764.1
-20774.7
-20785.3
-20796
-20806.8
-20817.5
-20828.2
-20838.8
-20849.6
-20860.4
-20871
-20881.7
-20892.4
-20903.2
-20914
-20924.6
-20935.3
-20946.1
-20956.9
-20967.6
-20978.2
-20989
-20999.8
-21010.6
-21021.2
-21032
-21042.8
-21053.6
-21064.3
-21075
-21085.8
-21096.7
-21107.4
-21118.1
-21128.9
-21139.7
-21150.6
-21161.3
-21172
-21182.8
-21193.7
-21204.5
-21215.2
-21226
-21236.9
-21247.7
-21258.5
-21269.2
-21280.1
-21291
-21301.8
-21312.5
-21323.3
-21334.2
-21345.1
-21355.9
-21366.7
-21377.5
-21388.4
-21399.3
-21410.1
-21420.9
-21431.8
-21442.7
-21453.5
-21464.3
-21475.2
-21486.1
-21497
-21507.9
-21518.7
-21529.6
-21540.6
-21551.4
-21562.2
-21573.1
-21584.1
-21595
-21605.9
-21616.7
-21627.6
-21638.6
-21649.5
-21660.3
-21671.2
-21682.2
-21693.2
-21704
-21714.9
-21725.8
-21736.8
-21747.8
-21758.7
-21769.5
-21780.5
-21791.5
-21802.5
-21813.3
-21824.3
-21835.3
-21846.3
-21857.2
-21868.1
-21879.1
-21890.2
-21901.2
-21912
-21923
-21934
-21945.1
-21956
-21966.9
-21977.9
-21989
-22000
-22010.9
-22021.9
-22032.9
-22044
-22055
-22065.9
-22076.9
-22088
-22099.1
-22110.1
-22121
-22132
-22143.2
-22154.2
-22165.2
-22176.2
-22187.2
-22198.4
-22209.5
-22220.4
-22231.4
-22242.5
-22253.7
-22264.7
-22275.7
-22286.7
-22297.9
-22309
-22320
-22331
-22342.1
-22353.3
-22364.4
-22375.4
-22386.4
-22397.6
-22408.7
-22419.8
-22430.8
-22441.9
-22453.1
-22464.3
-22475.3
-22486.4
-22497.5
-22508.7
-22519.9
-22530.9
-22542
-22553.2
-22564.4
-22575.5
-22586.6
-22597.7
-22608.9
-22620.1
-22631.2
-22642.3
-22653.4
-22664.7
-22675.9
-22687
-22698.1
-22709.2
-22720.5
-22731.7
-22742.8
-22753.9
-22765.1
-22776.4
-22787.6
-22798.7
-22809.9
-22821.1
-22832.4
-22843.6
-22854.7
-22865.9
-22877.2
-22888.4
-22899.6
-22910.7
-22921.9
-22933.3
-22944.5
-22955.7
-22966.8
-22978.1
-22989.4
-23000.7
-23011.8
-23023
-23034.3
-23045.6
-23056.9
-23068
-23079.2
-23090.6
-23101.9
-23113.1
-23124.3
-23135.6
-23146.9
-23158.2
-23169.5
-23180.7
-23191.9
-23203.3
-23214.6
-23225.9
-23237.1
-23248.4
-23259.8
-23271.1
-23282.3
-23293.6
-23304.9
-23316.3
-23327.6
-23338.9
-23350.1
-23361.5
-23372.9
-23384.2
-23395.5
-23406.8
-23418.1
-23429.5
-23440.9
-23452.1
-23463.4
-23474.8
-23486.2
-23497.6
-23508.8
-23520.2
-23531.6
-23543
-23554.3
-23565.6
-23577
-23588.4
-23599.8
-23611.2
-23622.5
-23633.9
-23645.3
-23656.7
-23668.1
-23679.4
-23690.8
-23702.3
-23713.7
-23725
-23736.4
-23747.8
-23759.3
-23770.7
-23782.1
-23793.4
-23804.9
-23816.4
-23827.8
-23839.2
-23850.5
-23862
-23873.5
-23885
-23896.3
-23907.7
-23919.2
-23930.7
-23942.2
-23953.5
-23965
-23976.5
-23988
-23999.4
-24010.8
-24022.3
-24033.8
-24045.3
-24056.8
-24068.2
-24079.6
-24091.2
-24102.7
-24114.2
-24125.6
-24137.1
-24148.6
-24160.2
-24171.7
-24183.1
-24194.6
-24206.1
-24217.7
-24229.2
-24240.6
-24252.1
-24263.7
-24275.3
-24286.8
-24298.2
-24309.7
-24321.3
-24332.9
-24344.4
-24355.9
-24367.4
-24379
-24390.6
-24402.1
-24413.6
-24425.2
-24436.8
-24448.4
-24459.9
-24471.4
-24483
-24494.6
-24506.2
-24517.8
-24529.3
-24540.9
-24552.5
-24564.1
-24575.7
-24587.2
-24598.8
-24610.4
-24622.1
-24633.7
-24645.2
-24656.8
-24668.5
-24680.1
-24691.7
-24703.3
-24714.9
-24726.5
-24738.2
-24749.8
-24761.4
-24773
-24784.7
-24796.4
-24808
-24819.6
-24831.2
-24842.9
-24854.6
-24866.2
-24877.8
-24889.5
-24901.2
-24912.9
-24924.5
-24936.2
-24947.8
-24959.5
-24971.2
-24982.9
-24994.5
-25006.2
-25017.9
-25029.7
-25041.4
-25053
-25064.7
-25076.4
-25088.1
-25099.9
-25111.5
-25123.2
-25134.9
-25146.7
-25158.4
-25170.1
-25181.8
-25193.5
-25205.3
-25217.1
-25228.8
-25240.5
-25252.2
-25264
-25275.8
-25287.5
-25299.2
-25311
-25322.8
-25334.6
-25346.3
-25358
-25369.8
-25381.6
-25393.4
-25405.2
-25416.9
-25428.6
-25440.5
-25452.3
-25464.1
-25475.8
-25487.6
-25499.4
-25511.3
-25523.1
-25534.8
-25546.6
-25558.5
-25570.3
-25582.2
-25593.9
-25605.7
-25617.6
-25629.4
-25641.3
-25653.1
-25664.9
-25676.7
-25688.6
-25700.5
-25712.3
-25724.1
-25736
-25747.9
-25759.8
-25771.6
-25783.4
-25795.3
-25807.2
-25819.1
-25831
-25842.8
-25854.7
-25866.6
-25878.5
-25890.4
-25902.2
-25914.1
-25926
-25938
-25949.9
-25961.8
-25973.7
-25985.6
-25997.5
-26009.5
-26021.4
-26033.3
-26045.2
-26057.1
-26069.1
-26081
-26092.9
-26104.9
-26116.8
-26128.8
-26140.8
-26152.7
-26164.6
-26176.6
-26188.6
-26200.6
-26212.5
-26224.5
-26236.5
-26248.5
-26260.5
-26272.4
-26284.4
-26296.4
-26308.4
-26320.4
-26332.4
-26344.3
-26356.4
-26368.4
-26380.4
-26392.4
-26404.4
-26416.4
-26428.5
-26440.5
-26452.6
-26464.5
-26476.6
-26488.6
-26500.7
-26512.8
-26524.8
-26536.8
-26548.8
-26560.9
-26573
-26585.1
-26597.1
-26609.1
-26621.2
-26633.4
-26645.4
-26657.5
-26669.5
-26681.6
-26693.8
-26705.9
-26717.9
-26730
-26742.1
-26754.2
-26766.4
-26778.5
-26790.5
-26802.6
-26814.8
-26826.9
-26839.1
-26851.2
-26863.3
-26875.4
-26887.6
-26899.7
-26911.9
-26924
-26936.1
-26948.3
-26960.5
-26972.6
-26984.8
-26996.9
-27009.1
-27021.3
-27033.5
-27045.6
-27057.8
-27070
-27082.2
-27094.4
-27106.6
-27118.8
-27131
-27143.2
-27155.4
-27167.6
-27179.8
-27192
-27204.3
-27216.5
-27228.7
-27240.9
-27253.1
-27265.4
-27277.7
-27289.9
-27302.1
-27314.3
-27326.6
-27338.9
-27351.1
-27363.4
-27375.6
-27387.9
-27400.2
-27412.5
-27424.7
-27437
-27449.2
-27461.6
-27473.9
-27486.2
-27498.4
-27510.7
-27523
-27535.3
-27547.7
-27560
-27572.2
-27584.5
-27596.9
-27609.2
-27621.6
-27633.9
-27646.2
-27658.5
-27670.9
-27683.2
-27695.6
-27707.9
-27720.2
-27732.6
-27745
-27757.3
-27769.7
-27782
-27794.4
-27806.8
-27819.2
-27831.5
-27843.9
-27856.3
-27868.7
-27881.1
-27893.5
-27905.9
-27918.3
-27930.7
-27943.1
-27955.5
-27967.9
-27980.3
-27992.7
-28005.2
-28017.6
-28030
-28042.4
-28054.9
-28067.3
-28079.8
-28092.2
-28104.6
-28117.1
-28129.5
-28142
-28154.5
-28166.9
-28179.4
-28191.8
-28204.3
-28216.8
-28229.3
-28241.8
-28254.2
-28266.7
-28279.2
-28291.7
-28304.2
-28316.7
-28329.2
-28341.7
-28354.3
-28366.8
-28379.2
-28391.8
-28404.3
-28416.8
-28429.4
-28441.9
-28454.4
-28466.9
-28479.5
-28492
-28504.6
-28517.1
-28529.7
-28542.2
-28554.8
-28567.4
-28579.9
-28592.5
-28605
-28617.6
-28630.2
-28642.8
-28655.3
-28667.9
-28680.5
-28693.1
-28705.7
-28718.3
-28730.9
-28743.5
-28756.1
-28768.7
-28781.3
-28793.9
-28806.5
-28819.2
-28831.8
-28844.4
-28857
-28869.7
-28882.3
-28895
-28907.6
-28920.2
-28932.9
-28945.5
-28958.2
-28970.9
-28983.5
-28996.2
-29008.8
-29021.5
-29034.2
-29046.9
-29059.5
-29072.2
-29084.9
-29097.5
-29110.3
-29123
-29135.6
-29148.3
-29161
-29173.7
-29186.4
-29199.1
-29211.8
-29224.6
-29237.3
-29250
-29262.7
-29275.4
-29288.2
-29300.9
-29313.6
-29326.4
-29339.1
-29351.9
-29364.6
-29377.4
-29390.1
-29402.9
-29415.6
-29428.4
-29441.1
-29453.9
-29466.7
-29479.4
-29492.2
-29505
-29517.8
-29530.6
-29543.4
-29556.1
-29568.9
-29581.7
-29594.5
-29607.3
-29620.1
-29632.9
-29645.7
-29658.5
-29671.3
-29684.2
-29697
-29709.8
-29722.6
-29735.4
-29748.3
-29761.1
-29774
-29786.8
-29799.6
-29812.5
-29825.3
-29838.2
-29851
-29863.9
-29876.7
-29889.6
-29902.5
-29915.4
-29928.2
-29941.1
-29954
-29966.8
-29979.7
-29992.6
-30005.5
-30018.4
-30031.3
-30044.2
-30057.1
-30070
-30082.9
-30095.8
-30108.7
-30121.6
-30134.5
-30147.4
-30160.3
-30173.3
-30186.2
-30199.1
-30212.1
-30225
-30237.9
-30250.9
-30263.8
-30276.8
-30289.7
-30302.7
-30315.6
-30328.6
-30341.6
-30354.5
-30367.5
-30380.4
-30393.4
-30406.4
-30419.4
-30432.4
-30445.3
-30458.3
-30471.3
-30484.3
-30497.3
-30510.3
-30523.3
-30536.3
-30549.3
-30562.3
-30575.3
-30588.3
-30601.3
-30614.4
-30627.4
-30640.4
-30653.4
-30666.5
-30679.5
-30692.5
-30705.6
-30718.6
-30731.7
-30744.7
-30757.8
-30770.8
-30783.9
-30796.9
-30810
-30823.1
-30836.1
-30849.2
-30862.3
-30875.3
-30888.4
-30901.5
-30914.6
-30927.7
-30940.8
-30953.9
-30966.9
-30980
-30993.2
-31006.3
-31019.4
-31032.5
-31045.6
-31058.7
-31071.8
-31085
-31098.1
-31111.2
-31124.3
-31137.5
-31150.6
-31163.7
-31176.9
-31190
-31203.2
-31216.3
-31229.5
-31242.6
-31255.8
-31268.9
-31282.1
-31295.3
-31308.5
-31321.6
-31334.8
-31348
-31361.2
-31374.3
-31387.5
-31400.7
-31413.9
-31427.1
-31440.3
-31453.5
-31466.7
-31479.9
-31493.1
-31506.3
-31519.6
-31532.8
-31546
-31559.2
-31572.5
-31585.7
-31598.9
-31612.2
-31625.4
-31638.6
-31651.9
-31665.1
-31678.4
-31691.7
-31704.9
-31718.2
-31731.4
-31744.7
-31758
-31771.2
-31784.5
-31797.8
-31811
-31824.3
-31837.6
-31850.9
-31864.2
-31877.5
-31890.8
-31904.1
-31917.4
-31930.7
-31944
-31957.3
-31970.6
-31984
-31997.3
-32010.6
-32024
-32037.3
-32050.6
-32063.9
-32077.3
-32090.6
-32104
-32117.3
-32130.7
-32144
-32157.4
-32170.7
-32184.1
-32197.5
-32210.8
-32224.2
-32237.6
-32251
-32264.3
-32277.7
-32291.1
-32304.5
-32317.9
-32331.3
-32344.7
-32358.1
-32371.5
-32384.9
-32398.3
-32411.7
-32425.1
-32438.6
-32452
-32465.4
-32478.9
-32492.3
-32505.7
-32519.1
-32532.6
-32546
-32559.5
-32572.9
-32586.4
-32599.8
-32613.3
-32626.8
-32640.2
-32653.7
-32667.2
-32680.6
-32694.1
-32707.6
-32721.1
-32734.6
-32748
-32761.5
-32775
-32788.5
-32802
-32815.5
-32829
-32842.6
-32856.1
-32869.6
-32883.1
-32896.6
-32910.2
-32923.7
-32937.2
-32950.8
-32964.3
-32977.8
-32991.4
-33004.9
-33018.5
-33032
-33045.6
-33059.1
-33072.7
-33086.3
-33099.8
-33113.4
-33127
-33140.6
-33154.1
-33167.7
-33181.3
-33194.9
-33208.5
-33222.1
-33235.7
-33249.3
-33262.9
-33276.5
-33290.1
-33303.7
-33317.4
-33331
-33344.6
-33358.2
-33371.9
-33385.5
-33399.1
-33412.8
-33426.4
-33440.1
-33453.7
-33467.4
-33481
-33494.7
-33508.4
-33522
-33535.7
-33549.4
-33563
-33576.7
-33590.4
-33604.1
-33617.8
-33631.5
-33645.2
-33658.9
-33672.6
-33686.3
-33700
-33713.7
-33727.4
-33741.1
-33754.8
-33768.6
-33782.3
-33796
-33809.7
-33823.5
-33837.2
-33851
-33864.7
-33878.5
-33892.2
-33906
-33919.7
-33933.5
-33947.3
-33961
-33974.8
-33988.6
-34002.3
-34016.1
-34029.9
-34043.7
-34057.5
-34071.3
-34085.1
-34098.9
-34112.7
-34126.5
-34140.3
-34154.1
-34167.9
-34181.8
-34195.6
-34209.4
-34223.3
-34237.1
-34250.9
-34264.8
-34278.6
-34292.5
-34306.3
-34320.2
-34334
-34347.9
-34361.7
-34375.6
-34389.5
-34403.4
-34417.2
-34431.1
-34445
-34458.9
-34472.8
-34486.7
-34500.6
-34514.5
-34528.4
-34542.3
-34556.2
-34570.1
-34584
-34597.9
-34611.9
-34625.8
-34639.7
-34653.7
-34667.6
-34681.5
-34695.5
-34709.4
-34723.4
-34737.3
-34751.3
-34765.3
-34779.2
-34793.2
-34807.2
-34821.1
-34835.1
-34849.1
-34863.1
-34877.1
-34891.1
-34905
-34919
-34933
-34947.1
-34961.1
-34975.1
-34989.1
-35003.1
-35017.1
-35031.1
-35045.2
-35059.2
-35073.2
-35087.3
-35101.3
-35115.4
-35129.4
-35143.5
-35157.5
-35171.6
-35185.6
-35199.7
-35213.8
-35227.8
-35241.9
-35256
-35270.1
-35284.2
-35298.3
-35312.3
-35326.4
-35340.5
-35354.7
-35368.8
-35382.9
-35397
-35411.1
-35425.2
-35439.3
-35453.5
-35467.6
-35481.7
-35495.9
-35510
-35524.1
-35538.3
-35552.4
-35566.6
-35580.7
-35594.9
-35609.1
-35623.2
-35637.4
-35651.6
-35665.8
-35679.9
-35694.1
-35708.3
-35722.5
-35736.7
-35750.9
-35765.1
-35779.3
-35793.5
-35807.7
-35821.9
-35836.1
-35850.4
-35864.6
-35878.8
-35893
-35907.3
-35921.5
-35935.7
-35950
-35964.2
-35978.5
-35992.7
-36007
-36021.3
-36035.5
-36049.8
-36064.1
-36078.3
-36092.6
-36106.9
-36121.2
-36135.5
-36149.8
-36164
-36178.3
-36192.6
-36206.9
-36221.3
-36235.6
-36249.9
-36264.2
-36278.5
-36292.8
-36307.2
-36321.5
-36335.8
-36350.2
-36364.5
-36378.8
-36393.2
-36407.5
-36421.9
-36436.2
-36450.6
-36465
-36479.3
-36493.7
-36508.1
-36522.4
-36536.8
-36551.2
-36565.6
-36580
-36594.4
-36608.8
-36623.2
-36637.6
-36652
-36666.4
-36680.8
-36695.2
-36709.6
-36724.1
-36738.5
-36752.9
-36767.4
-36781.8
-36796.2
-36810.7
-36825.1
-36839.6
-36854
-36868.5
-36882.9
-36897.4
-36911.8
-36926.3
-36940.8
-36955.3
-36969.7
-36984.2
-36998.7
-37013.2
-37027.7
-37042.2
-37056.7
-37071.2
-37085.7
-37100.2
-37114.7
-37129.2
-37143.7
-37158.2
-37172.8
-37187.3
-37201.8
-37216.3
-37230.9
-37245.4
-37260
-37274.5
-37289.1
-37303.6
-37318.2
-37332.7
-37347.3
-37361.8
-37376.4
-37391
-37405.6
-37420.1
-37434.7
-37449.3
-37463.9
-37478.5
-37493.1
-37507.7
-37522.3
-37536.9
-37551.5
-37566.1
-37580.7
-37595.3
-37610
-37624.6
-37639.2
-37653.8
-37668.5
-37683.1
-37697.7
-37712.4
-37727
-37741.7
-37756.3
-37771
-37785.6
-37800.3
-37815
-37829.6
-37844.3
-37859
-37873.7
-37888.3
-37903
-37917.7
-37932.4
-37947.1
-37961.8
-37976.5
-37991.2
-38005.9
-38020.6
-38035.3
-38050
-38064.8
-38079.5
-38094.2
-38108.9
-38123.7
-38138.4
-38153.1
-38167.9
-38182.6
-38197.4
-38212.1
-38226.9
-38241.6
-38256.4
-38271.2
-38285.9
-38300.7
-38315.5
-38330.3
-38345
-38359.8
-38374.6
-38389.4
-38404.2
-38419
-38433.8
-38448.6
-38463.4
-38478.2
-38493
-38507.9
-38522.7
-38537.5
-38552.3
-38567.2
-38582
-38596.8
-38611.7
-38626.5
-38641.3
-38656.2
-38671.1
-38685.9
-38700.8
-38715.6
-38730.5
-38745.4
-38760.2
-38775.1
-38790
-38804.9
-38819.8
-38834.6
-38849.5
-38864.4
-38879.3
-38894.2
-38909.1
-38924
-38938.9
-38953.9
-38968.8
-38983.7
-38998.6
-39013.5
-39028.5
-39043.4
-39058.3
-39073.3
-39088.2
-39103.2
-39118.1
-39133.1
-39148
-39163
-39178
-39192.9
-39207.9
-39222.9
-39237.8
-39252.8
-39267.8
-39282.8
-39297.8
-39312.8
-39327.7
-39342.8
-39357.8
-39372.8
-39387.8
-39402.8
-39417.8
-39432.8
-39447.8
-39462.9
-39477.9
-39492.9
-39508
-39523
-39538
-39553.1
-39568.1
-39583.2
-39598.2
-39613.3
-39628.4
-39643.4
-39658.5
-39673.6
-39688.6
-39703.7
-39718.8
-39733.9
-39749
-39764.1
-39779.1
-39794.2
-39809.3
-39824.5
-39839.6
-39854.7
-39869.8
-39884.9
-39900
-39915.1
-39930.3
-39945.4
-39960.5
-39975.7
-39990.8
-40005.9
-40021.1
-40036.2
-40051.4
-40066.6
-40081.7
-40096.9
-40112
-40127.2
-40142.4
-40157.6
-40172.7
-40187.9
-40203.1
-40218.3
-40233.5
-40248.7
-40263.9
-40279.1
-40294.3
-40309.5
-40324.7
-40339.9
-40355.2
-40370.4
-40385.6
-40400.8
-40416.1
-40431.3
-40446.5
-40461.8
-40477
-40492.3
-40507.5
-40522.8
-40538.1
-40553.3
-40568.6
-40583.8
-40599.1
-40614.4
-40629.7
-40645
-40660.2
-40675.5
-40690.8
-40706.1
-40721.4
-40736.7
-40752
-40767.3
-40782.7
-40798
-40813.3
-40828.6
-40843.9
-40859.3
-40874.6
-40889.9
-40905.3
-40920.6
-40936
-40951.3
-40966.7
-40982
-40997.4
-41012.8
-41028.1
-41043.5
-41058.9
-41074.3
-41089.6
-41105
-41120.4
-41135.8
-41151.2
-41166.6
-41182
-41197.4
-41212.8
-41228.2
-41243.6
-41259.1
-41274.5
-41289.9
-41305.3
-41320.8
-41336.2
-41351.6
-41367.1
-41382.5
-41398
-41413.4
-41428.9
-41444.3
-41459.8
-41475.3
-41490.7
-41506.2
-41521.7
-41537.1
-41552.6
-41568.1
-41583.6
-41599.1
-41614.6
-41630.1
-41645.6
-41661.1
-41676.6
-41692.1
-41707.6
-41723.2
-41738.7
-41754.2
-41769.7
-41785.3
-41800.8
-41816.4
-41831.9
-41847.5
-41863
-41878.6
-41894.1
-41909.7
-41925.2
-41940.8
-41956.4
-41972
-41987.5
-42003.1
-42018.7
-42034.3
-42049.9
-42065.5
-42081.1
-42096.7
-42112.3
-42127.9
-42143.5
-42159.1
-42174.7
-42190.4
-42206
-42221.6
-42237.3
-42252.9
-42268.5
-42284.2
-42299.8
-42315.5
-42331.1
-42346.8
-42362.5
-42378.1
-42393.8
-42409.5
-42425.1
-42440.8
-42456.5
-42472.2
-42487.9
-42503.6
-42519.3
-42535
-42550.7
-42566.4
-42582.1
-42597.8
-42613.5
-42629.2
-42645
-42660.7
-42676.4
-42692.2
-42707.9
-42723.6
-42739.4
-42755.1
-42770.9
-42786.6
-42802.4
-42818.2
-42833.9
-42849.7
-42865.5
-42881.3
-42897
-42912.8
-42928.6
-42944.4
-42960.2
-42976
-42991.8
-43007.6
-43023.4
-43039.2
-43055
-43070.8
-43086.7
-43102.5
-43118.3
-43134.2
-43150
-43165.8
-43181.7
-43197.5
-43213.4
-43229.2
-43245.1
-43261
-43276.8
-43292.7
-43308.6
-43324.4
-43340.3
-43356.2
-43372.1
-43388
-43403.9
-43419.8
-43435.7
-43451.6
-43467.5
-43483.4
-43499.3
-43515.2
-43531.1
-43547.1
-43563
-43578.9
-43594.9
-43610.8
-43626.8
-43642.7
-43658.7
-43674.6
-43690.6
-43706.5
-43722.5
-43738.5
-43754.4
-43770.4
-43786.4
-43802.4
-43818.4
-43834.3
-43850.3
-43866.3
-43882.3
-43898.3
-43914.3
-43930.4
-43946.4
-43962.4
-43978.4
-43994.4
-44010.5
-44026.5
-44042.5
-44058.6
-44074.6
-44090.7
-44106.7
-44122.8
-44138.8
-44154.9
-44170.9
-44187
-44203.1
-44219.2
-44235.2
-44251.3
-44267.4
-44283.5
-44299.6
-44315.7
-44331.8
-44347.9
-44364
-44380.1
-44396.2
-44412.3
-44428.5
-44444.6
-44460.7
-44476.9
-44493
-44509.1
-44525.3
-44541.4
-44557.6
-44573.7
-44589.9
-44606
-44622.2
-44638.4
-44654.6
-44670.7
-44686.9
-44703.1
-44719.3
-44735.5
-44751.7
-44767.9
-44784.1
-44800.3
-44816.5
-44832.7
-44848.9
-44865.1
-44881.3
-44897.6
-44913.8
-44930
-44946.3
-44962.5
-44978.8
-44995
-45011.3
-45027.5
-45043.8
-45060
-45076.3
-45092.6
-45108.8
-45125.1
-45141.4
-45157.7
-45174
-45190.3
-45206.6
-45222.9
-45239.2
-45255.5
-45271.8
-45288.1
-45304.4
-45320.7
-45337.1
-45353.4
-45369.7
-45386.1
-45402.4
-45418.7
-45435.1
-45451.4
-45467.8
-45484.1
-45500.5
-45516.9
-45533.2
-45549.6
-45566
-45582.4
-45598.7
-45615.1
-45631.5
-45647.9
-45664.3
-45680.7
-45697.1
-45713.5
-45729.9
-45746.3
-45762.8
-45779.2
-45795.6
-45812
-45828.5
-45844.9
-45861.3
-45877.8
-45894.2
-45910.7
-45927.1
-45943.6
-45960.1
-45976.5
-45993
-46009.5
-46025.9
-46042.4
-46058.9
-46075.4
-46091.9
-46108.4
-46124.9
-46141.4
-46157.9
-46174.4
-46190.9
-46207.4
-46223.9
-46240.5
-46257
-46273.5
-46290.1
-46306.6
-46323.1
-46339.7
-46356.2
-46372.8
-46389.3
-46405.9
-46422.5
-46439
-46455.6
-46472.2
-46488.8
-46505.3
-46521.9
-46538.5
-46555.1
-46571.7
-46588.3
-46604.9
-46621.5
-46638.1
-46654.7
-46671.4
-46688
-46704.6
-46721.2
-46737.9
-46754.5
-46771.1
-46787.8
-46804.4
-46821.1
-46837.7
-46854.4
-46871
-46887.7
-46904.4
-46921.1
-46937.7
-46954.4
-46971.1
-46987.8
-47004.5
-47021.2
-47037.9
-47054.6
-47071.3
-47088
-47104.7
-47121.4
-47138.1
-47154.8
-47171.6
-47188.3
-47205
-47221.8
-47238.5
-47255.3
-47272
-47288.8
-47305.5
-47322.3
-47339
-47355.8
-47372.6
-47389.3
-47406.1
-47422.9
-47439.7
-47456.5
-47473.3
-47490.1
-47506.9
-47523.7
-47540.5
-47557.3
-47574.1
-47590.9
-47607.7
-47624.5
-47641.4
-47658.2
-47675
-47691.9
-47708.7
-47725.6
-47742.4
-47759.3
-47776.1
-47793
-47809.9
-47826.7
-47843.6
-47860.5
-47877.3
-47894.2
-47911.1
-47928
-47944.9
-47961.8
-47978.7
-47995.6
-48012.5
-48029.4
-48046.3
-48063.2
-48080.2
-48097.1
-48114
-48131
-48147.9
-48164.8
-48181.8
-48198.7
-48215.7
-48232.6
-48249.6
-48266.5
-48283.5
-48300.5
-48317.4
-48334.4
-48351.4
-48368.4
-48385.4
-48402.4
-48419.4
-48436.4
-48453.4
-48470.4
-48487.4
-48504.4
-48521.4
-48538.4
-48555.4
-48572.5
-48589.5
-48606.5
-48623.6
-48640.6
-48657.7
-48674.7
-48691.8
-48708.8
-48725.9
-48742.9
-48760
-48777.1
-48794.1
-48811.2
-48828.3
-48845.4
-48862.5
-48879.6
-48896.7
-48913.8
-48930.9
-48948
-48965.1
-48982.2
-48999.3
-49016.4
-49033.6
-49050.7
-49067.8