/*--------------------------------*- C++ -*----------------------------------*\
  =========                 |
  \\      /  F ield         | OpenFOAM: The Open Source CFD Toolbox
   \\    /   O peration     | Website:  https://openfoam.org
    \\  /    A nd           | Version:  9
     \\/     M anipulation  |
\*---------------------------------------------------------------------------*/
FoamFile
{
    format      ascii;
    class       volScalarField;
    location    "0.048";
    object      ddt0(p);
}
// * * * * * * * * * * * * * * * * * * * * * * * * * * * * * * * * * * * * * //

dimensions      [1 -1 -3 0 0 0 0];

internalField   nonuniform List<scalar> 
10000
(
-282327
-282323
-282318
-282314
-282310
-282306
-282302
-282298
-282293
-282288
-282283
-282278
-282273
-282268
-282263
-282257
-282252
-282247
-282241
-282236
-282230
-282225
-282219
-282213
-282207
-282201
-282195
-282189
-282182
-282175
-282169
-282162
-282155
-282149
-282142
-282135
-282128
-282121
-282114
-282106
-282099
-282091
-282083
-282075
-282068
-282059
-282051
-282043
-282035
-282027
-282019
-282010
-282002
-281993
-281985
-281976
-281967
-281958
-281948
-281939
-281930
-281920
-281910
-281901
-281891
-281881
-281871
-281862
-281852
-281842
-281832
-281821
-281811
-281800
-281789
-281779
-281767
-281756
-281745
-281734
-281723
-281711
-281700
-281688
-281677
-281665
-281654
-281642
-281630
-281617
-281605
-281593
-281580
-281567
-281555
-281542
-281529
-281516
-281503
-281490
-281477
-281463
-281450
-281436
-281422
-281408
-281395
-281381
-281366
-281352
-281338
-281324
-281309
-281295
-281280
-281265
-281250
-281235
-281219
-281204
-281188
-281172
-281157
-281141
-281125
-281109
-281093
-281077
-281061
-281045
-281029
-281012
-280995
-280978
-280961
-280944
-280926
-280909
-280891
-280873
-280855
-280838
-280820
-280802
-280784
-280766
-280748
-280729
-280711
-280692
-280673
-280654
-280634
-280615
-280595
-280576
-280556
-280537
-280517
-280497
-280477
-280456
-280436
-280415
-280395
-280374
-280353
-280331
-280310
-280289
-280268
-280246
-280225
-280203
-280182
-280160
-280137
-280115
-280092
-280069
-280046
-280023
-279999
-279976
-279953
-279929
-279906
-279882
-279859
-279835
-279811
-279787
-279763
-279738
-279713
-279688
-279663
-279637
-279612
-279586
-279561
-279535
-279509
-279483
-279456
-279430
-279404
-279377
-279350
-279323
-279296
-279269
-279241
-279214
-279186
-279159
-279131
-279103
-279074
-279045
-279017
-278987
-278958
-278928
-278898
-278868
-278838
-278808
-278778
-278749
-278719
-278689
-278658
-278628
-278597
-278566
-278534
-278502
-278470
-278437
-278405
-278372
-278339
-278307
-278274
-278241
-278207
-278174
-278141
-278107
-278073
-278039
-278004
-277970
-277935
-277900
-277865
-277830
-277795
-277759
-277723
-277686
-277650
-277613
-277576
-277538
-277500
-277462
-277425
-277387
-277350
-277312
-277274
-277236
-277197
-277159
-277120
-277080
-277040
-276999
-276958
-276917
-276876
-276836
-276794
-276753
-276711
-276669
-276628
-276586
-276544
-276501
-276458
-276414
-276371
-276328
-276285
-276241
-276196
-276151
-276107
-276061
-276016
-275971
-275925
-275878
-275830
-275783
-275739
-275691
-275644
-275598
-275550
-275504
-275456
-275409
-275363
-275311
-275265
-275216
-275167
-275119
-275070
-275020
-274972
-274924
-274875
-274824
-274775
-274726
-274677
-274628
-274579
-274529
-274478
-274428
-274378
-274327
-274274
-274221
-274167
-274112
-274057
-274002
-273946
-273889
-273831
-273773
-273714
-273654
-273593
-273532
-273469
-273406
-273342
-273279
-273215
-273151
-273086
-273022
-272958
-272894
-272830
-272765
-272701
-272636
-272572
-272509
-272445
-272381
-272322
-272306
-272208
-272127
-272025
-271975
-271927
-271844
-271773
-271717
-271646
-271572
-271508
-271440
-271367
-271298
-271229
-271157
-271086
-271015
-270942
-270868
-270796
-270723
-270648
-270573
-270498
-270423
-270348
-270271
-270195
-270118
-270041
-269963
-269884
-269805
-269726
-269647
-269566
-269485
-269404
-269323
-269241
-269158
-269076
-268993
-268909
-268825
-268740
-268655
-268570
-268483
-268396
-268309
-268222
-268133
-268045
-267956
-267867
-267777
-267686
-267596
-267504
-267412
-267319
-267226
-267133
-267038
-266943
-266848
-266753
-266657
-266560
-266463
-266366
-266267
-266168
-266069
-265969
-265868
-265767
-265665
-265563
-265460
-265357
-265253
-265148
-265044
-264938
-264832
-264725
-264617
-264509
-264401
-264291
-264181
-264071
-263960
-263848
-263735
-263623
-263509
-263395
-263280
-263165
-263049
-262932
-262815
-262697
-262578
-262458
-262338
-262217
-262096
-261974
-261851
-261728
-261604
-261479
-261353
-261227
-261100
-260972
-260844
-260715
-260585
-260455
-260324
-260192
-260059
-259926
-259792
-259657
-259521
-259385
-259248
-259110
-258971
-258831
-258691
-258550
-258408
-258266
-258122
-257978
-257833
-257687
-257541
-257394
-257246
-257097
-256947
-256796
-256644
-256491
-256338
-256184
-256030
-255874
-255717
-255560
-255401
-255242
-255082
-254921
-254760
-254597
-254433
-254268
-254103
-253937
-253769
-253601
-253432
-253262
-253091
-252919
-252747
-252573
-252399
-252223
-252046
-251869
-251690
-251510
-251330
-251148
-250966
-250783
-250598
-250413
-250227
-250040
-249851
-249662
-249472
-249280
-249088
-248895
-248700
-248504
-248308
-248110
-247912
-247712
-247512
-247310
-247107
-246904
-246699
-246493
-246285
-246077
-245868
-245657
-245446
-245233
-245020
-244805
-244589
-244372
-244155
-243935
-243715
-243494
-243272
-243048
-242823
-242598
-242371
-242142
-241913
-241683
-241451
-241219
-240985
-240750
-240514
-240277
-240039
-239799
-239558
-239316
-239073
-238829
-238583
-238337
-238089
-237840
-237590
-237338
-237086
-236833
-236578
-236322
-236065
-235807
-235547
-235287
-235025
-234762
-234498
-234232
-233966
-233698
-233429
-233159
-232888
-232616
-232342
-232067
-231791
-231514
-231236
-230956
-230675
-230393
-230110
-229826
-229541
-229254
-228967
-228678
-228388
-228097
-227805
-227512
-227218
-226922
-226626
-226328
-226029
-225729
-225428
-225126
-224823
-224519
-224213
-223907
-223599
-223291
-222981
-222670
-222358
-222045
-221732
-221417
-221101
-220784
-220466
-220147
-219828
-219507
-219185
-218863
-218539
-218215
-217889
-217563
-217236
-216908
-216579
-216249
-215919
-215588
-215256
-214923
-214589
-214254
-213919
-213582
-213245
-212908
-212569
-212230
-211891
-211550
-211209
-210868
-210526
-210183
-209839
-209495
-209151
-208806
-208460
-208114
-207768
-207421
-207074
-206726
-206378
-206029
-205681
-205332
-204982
-204632
-204282
-203932
-203581
-203230
-202879
-202528
-202177
-201825
-201474
-201122
-200771
-200419
-200068
-199716
-199365
-199013
-198662
-198310
-197959
-197608
-197257
-196907
-196557
-196207
-195858
-195508
-195160
-194811
-194463
-194115
-193768
-193421
-193075
-192729
-192384
-192040
-191696
-191352
-191010
-190668
-190327
-189986
-189647
-189308
-188970
-188633
-188297
-187962
-187628
-187295
-186962
-186631
-186301
-185972
-185644
-185318
-184992
-184668
-184345
-184023
-183702
-183383
-183065
-182749
-182433
-182120
-181807
-181497
-181187
-180879
-180573
-180268
-179965
-179663
-179363
-179065
-178768
-178473
-178180
-177889
-177599
-177311
-177025
-176741
-176459
-176179
-175900
-175624
-175349
-175076
-174805
-174537
-174270
-174005
-173742
-173481
-173222
-172966
-172711
-172458
-172208
-171960
-171714
-171470
-171228
-170988
-170751
-170516
-170283
-170052
-169824
-169598
-169374
-169152
-168933
-168715
-168500
-168287
-168077
-167869
-167663
-167459
-167258
-167059
-166862
-166667
-166475
-166285
-166098
-165912
-165730
-165549
-165371
-165194
-165021
-164849
-164680
-164513
-164348
-164185
-164025
-163867
-163711
-163558
-163406
-163257
-163110
-162965
-162823
-162682
-162544
-162408
-162274
-162142
-162013
-161885
-161760
-161637
-161515
-161396
-161279
-161164
-161051
-160940
-160831
-160724
-160618
-160515
-160414
-160314
-160217
-160121
-160027
-159935
-159845
-159757
-159670
-159585
-159503
-159422
-159342
-159265
-159189
-159114
-159042
-158971
-158902
-158834
-158768
-158703
-158640
-158579
-158519
-158460
-158403
-158347
-158293
-158240
-158188
-158138
-158090
-158042
-157996
-157952
-157908
-157866
-157826
-157786
-157748
-157711
-157675
-157641
-157607
-157575
-157544
-157513
-157484
-157456
-157429
-157403
-157378
-157354
-157331
-157309
-157288
-157267
-157248
-157229
-157212
-157195
-157179
-157164
-157150
-157137
-157124
-157112
-157101
-157091
-157082
-157073
-157066
-157058
-157052
-157046
-157041
-157036
-157032
-157028
-157026
-157023
-157022
-157020
-157020
-157020
-157020
-157021
-157022
-157024
-157027
-157030
-157033
-157037
-157041
-157046
-157051
-157057
-157063
-157070
-157077
-157084
-157092
-157100
-157108
-157117
-157126
-157135
-157145
-157155
-157165
-157176
-157187
-157198
-157209
-157221
-157233
-157245
-157257
-157270
-157283
-157296
-157309
-157323
-157337
-157351
-157365
-157380
-157395
-157409
-157425
-157440
-157455
-157471
-157487
-157503
-157519
-157535
-157551
-157568
-157584
-157601
-157618
-157635
-157652
-157669
-157687
-157704
-157721
-157739
-157757
-157774
-157792
-157810
-157829
-157847
-157865
-157884
-157902
-157921
-157940
-157959
-157978
-157996
-158015
-158034
-158054
-158073
-158092
-158111
-158130
-158150
-158169
-158189
-158208
-158228
-158247
-158267
-158286
-158306
-158326
-158345
-158365
-158385
-158405
-158425
-158445
-158465
-158485
-158505
-158525
-158545
-158566
-158586
-158606
-158626
-158647
-158667
-158687
-158707
-158728
-158748
-158768
-158789
-158809
-158829
-158850
-158870
-158890
-158911
-158931
-158952
-158972
-158993
-159013
-159034
-159054
-159075
-159095
-159116
-159137
-159157
-159178
-159199
-159219
-159240
-159261
-159281
-159302
-159322
-159343
-159364
-159384
-159405
-159426
-159446
-159467
-159487
-159508
-159529
-159549
-159570
-159591
-159611
-159632
-159653
-159673
-159694
-159715
-159736
-159756
-159777
-159798
-159819
-159839
-159860
-159881
-159902
-159922
-159943
-159964
-159984
-160005
-160026
-160047
-160067
-160088
-160109
-160129
-160150
-160171
-160192
-160212
-160233
-160254
-160274
-160295
-160316
-160337
-160358
-160378
-160399
-160420
-160441
-160462
-160482
-160503
-160524
-160545
-160565
-160586
-160607
-160628
-160648
-160669
-160690
-160710
-160731
-160752
-160773
-160793
-160814
-160835
-160855
-160876
-160897
-160918
-160939
-160959
-160980
-161001
-161022
-161043
-161063
-161084
-161105
-161126
-161146
-161167
-161188
-161209
-161230
-161250
-161271
-161292
-161313
-161333
-161354
-161375
-161395
-161416
-161437
-161458
-161478
-161499
-161520
-161541
-161562
-161582
-161603
-161624
-161645
-161666
-161686
-161707
-161728
-161749
-161770
-161790
-161811
-161832
-161853
-161874
-161894
-161915
-161936
-161957
-161977
-161998
-162019
-162040
-162060
-162081
-162102
-162123
-162143
-162164
-162185
-162206
-162227
-162247
-162268
-162289
-162310
-162331
-162352
-162372
-162393
-162414
-162435
-162456
-162476
-162497
-162518
-162539
-162559
-162580
-162601
-162622
-162643
-162663
-162684
-162705
-162726
-162746
-162767
-162788
-162809
-162830
-162851
-162871
-162892
-162913
-162934
-162955
-162976
-162996
-163017
-163038
-163059
-163080
-163100
-163121
-163142
-163163
-163184
-163204
-163225
-163246
-163267
-163287
-163308
-163329
-163350
-163371
-163391
-163412
-163433
-163454
-163475
-163496
-163516
-163537
-163558
-163579
-163600
-163621
-163641
-163662
-163683
-163704
-163725
-163745
-163766
-163787
-163808
-163829
-163849
-163870
-163891
-163912
-163933
-163953
-163974
-163995
-164016
-164037
-164058
-164078
-164099
-164120
-164141
-164162
-164183
-164203
-164224
-164245
-164266
-164287
-164308
-164328
-164349
-164370
-164391
-164412
-164433
-164453
-164474
-164495
-164516
-164537
-164557
-164578
-164599
-164620
-164641
-164662
-164682
-164703
-164724
-164745
-164766
-164787
-164807
-164828
-164849
-164870
-164891
-164912
-164933
-164953
-164974
-164995
-165016
-165037
-165058
-165079
-165099
-165120
-165141
-165162
-165183
-165204
-165224
-165245
-165266
-165287
-165308
-165329
-165350
-165370
-165391
-165412
-165433
-165454
-165475
-165496
-165517
-165538
-165558
-165579
-165600
-165621
-165642
-165663
-165684
-165705
-165725
-165746
-165767
-165788
-165809
-165830
-165851
-165872
-165893
-165913
-165934
-165955
-165976
-165997
-166018
-166039
-166060
-166081
-166102
-166123
-166144
-166165
-166185
-166206
-166227
-166248
-166269
-166290
-166311
-166332
-166353
-166374
-166395
-166416
-166437
-166458
-166479
-166500
-166521
-166541
-166562
-166583
-166604
-166625
-166646
-166667
-166688
-166709
-166730
-166751
-166772
-166793
-166814
-166835
-166856
-166877
-166898
-166919
-166940
-166961
-166982
-167003
-167024
-167045
-167067
-167088
-167109
-167130
-167151
-167172
-167193
-167214
-167235
-167256
-167277
-167298
-167319
-167340
-167361
-167382
-167403
-167424
-167446
-167467
-167488
-167509
-167530
-167551
-167572
-167593
-167614
-167635
-167657
-167678
-167699
-167720
-167741
-167762
-167783
-167804
-167826
-167847
-167868
-167889
-167910
-167931
-167953
-167974
-167995
-168016
-168037
-168058
-168080
-168101
-168122
-168143
-168164
-168185
-168207
-168228
-168249
-168270
-168291
-168313
-168334
-168355
-168376
-168398
-168419
-168440
-168461
-168483
-168504
-168525
-168546
-168568
-168589
-168610
-168631
-168653
-168674
-168695
-168716
-168738
-168759
-168780
-168801
-168823
-168844
-168865
-168887
-168908
-168929
-168951
-168972
-168993
-169015
-169036
-169057
-169078
-169100
-169121
-169142
-169164
-169185
-169207
-169228
-169249
-169271
-169292
-169313
-169335
-169356
-169377
-169399
-169420
-169442
-169463
-169484
-169506
-169527
-169548
-169570
-169591
-169613
-169634
-169655
-169677
-169698
-169720
-169741
-169763
-169784
-169805
-169827
-169848
-169870
-169891
-169913
-169934
-169955
-169977
-169998
-170020
-170041
-170063
-170084
-170106
-170127
-170149
-170170
-170192
-170213
-170235
-170256
-170277
-170299
-170320
-170342
-170363
-170385
-170406
-170428
-170449
-170471
-170493
-170514
-170536
-170557
-170579
-170600
-170622
-170643
-170665
-170686
-170708
-170729
-170751
-170772
-170794
-170815
-170837
-170858
-170880
-170902
-170923
-170945
-170966
-170988
-171009
-171031
-171053
-171074
-171096
-171117
-171139
-171160
-171182
-171204
-171225
-171247
-171268
-171290
-171311
-171333
-171355
-171376
-171398
-171419
-171441
-171463
-171484
-171506
-171527
-171549
-171571
-171592
-171614
-171636
-171657
-171679
-171700
-171722
-171744
-171765
-171787
-171808
-171830
-171852
-171873
-171895
-171917
-171938
-171960
-171982
-172003
-172025
-172046
-172068
-172090
-172111
-172133
-172155
-172176
-172198
-172220
-172241
-172263
-172285
-172306
-172328
-172349
-172371
-172393
-172414
-172436
-172458
-172479
-172501
-172523
-172544
-172566
-172588
-172609
-172631
-172653
-172674
-172696
-172718
-172739
-172761
-172783
-172804
-172826
-172848
-172869
-172891
-172913
-172934
-172956
-172978
-172999
-173021
-173043
-173064
-173086
-173108
-173130
-173151
-173173
-173195
-173216
-173238
-173260
-173281
-173303
-173325
-173346
-173368
-173390
-173411
-173433
-173455
-173476
-173498
-173520
-173541
-173563
-173585
-173607
-173628
-173650
-173672
-173693
-173715
-173737
-173758
-173780
-173802
-173823
-173845
-173867
-173888
-173910
-173932
-173954
-173975
-173997
-174019
-174040
-174062
-174084
-174105
-174127
-174149
-174170
-174192
-174214
-174235
-174257
-174279
-174301
-174322
-174344
-174366
-174387
-174409
-174431
-174452
-174474
-174496
-174517
-174539
-174561
-174582
-174604
-174626
-174648
-174669
-174691
-174713
-174734
-174756
-174778
-174799
-174821
-174843
-174864
-174886
-174908
-174929
-174951
-174973
-174995
-175016
-175038
-175060
-175081
-175103
-175125
-175146
-175168
-175190
-175211
-175233
-175255
-175276
-175298
-175320
-175342
-175363
-175385
-175407
-175428
-175450
-175472
-175493
-175515
-175537
-175559
-175580
-175602
-175624
-175645
-175667
-175689
-175710
-175732
-175754
-175776
-175797
-175819
-175841
-175862
-175884
-175906
-175927
-175949
-175971
-175993
-176014
-176036
-176058
-176079
-176101
-176123
-176145
-176166
-176188
-176210
-176231
-176253
-176275
-176297
-176318
-176340
-176362
-176384
-176405
-176427
-176449
-176470
-176492
-176514
-176536
-176557
-176579
-176601
-176623
-176644
-176666
-176688
-176710
-176731
-176753
-176775
-176797
-176818
-176840
-176862
-176884
-176905
-176927
-176949
-176971
-176993
-177014
-177036
-177058
-177080
-177101
-177123
-177145
-177167
-177189
-177210
-177232
-177254
-177276
-177298
-177319
-177341
-177363
-177385
-177407
-177428
-177450
-177472
-177494
-177516
-177537
-177559
-177581
-177603
-177625
-177647
-177668
-177690
-177712
-177734
-177756
-177778
-177800
-177821
-177843
-177865
-177887
-177909
-177931
-177953
-177975
-177996
-178018
-178040
-178062
-178084
-178106
-178128
-178150
-178172
-178193
-178215
-178237
-178259
-178281
-178303
-178325
-178347
-178369
-178391
-178413
-178435
-178457
-178478
-178500
-178522
-178544
-178566
-178588
-178610
-178632
-178654
-178676
-178698
-178720
-178742
-178764
-178786
-178808
-178830
-178852
-178874
-178896
-178918
-178940
-178962
-178984
-179006
-179028
-179050
-179072
-179094
-179116
-179138
-179160
-179182
-179204
-179226
-179248
-179271
-179293
-179315
-179337
-179359
-179381
-179403
-179425
-179447
-179469
-179491
-179513
-179536
-179558
-179580
-179602
-179624
-179646
-179668
-179690
-179712
-179735
-179757
-179779
-179801
-179823
-179845
-179867
-179890
-179912
-179934
-179956
-179978
-180000
-180023
-180045
-180067
-180089
-180111
-180133
-180156
-180178
-180200
-180222
-180244
-180267
-180289
-180311
-180333
-180356
-180378
-180400
-180422
-180445
-180467
-180489
-180511
-180533
-180556
-180578
-180600
-180623
-180645
-180667
-180689
-180712
-180734
-180756
-180778
-180801
-180823
-180845
-180868
-180890
-180912
-180935
-180957
-180979
-181001
-181024
-181046
-181068
-181091
-181113
-181135
-181158
-181180
-181202
-181225
-181247
-181270
-181292
-181314
-181337
-181359
-181381
-181404
-181426
-181449
-181471
-181493
-181516
-181538
-181560
-181583
-181605
-181628
-181650
-181673
-181695
-181717
-181740
-181762
-181785
-181807
-181829
-181852
-181874
-181897
-181919
-181942
-181964
-181987
-182009
-182032
-182054
-182076
-182099
-182121
-182144
-182166
-182189
-182211
-182234
-182256
-182279
-182301
-182324
-182346
-182369
-182391
-182414
-182436
-182459
-182481
-182504
-182526
-182549
-182571
-182594
-182617
-182639
-182662
-182684
-182707
-182729
-182752
-182774
-182797
-182820
-182842
-182865
-182887
-182910
-182932
-182955
-182978
-183000
-183023
-183045
-183068
-183090
-183113
-183136
-183158
-183181
-183203
-183226
-183249
-183271
-183294
-183317
-183339
-183362
-183384
-183407
-183430
-183452
-183475
-183498
-183520
-183543
-183566
-183588
-183611
-183634
-183656
-183679
-183702
-183724
-183747
-183770
-183792
-183815
-183838
-183860
-183883
-183906
-183928
-183951
-183974
-183996
-184019
-184042
-184065
-184087
-184110
-184133
-184155
-184178
-184201
-184223
-184246
-184269
-184292
-184314
-184337
-184360
-184383
-184405
-184428
-184451
-184474
-184496
-184519
-184542
-184565
-184587
-184610
-184633
-184656
-184678
-184701
-184724
-184747
-184769
-184792
-184815
-184838
-184860
-184883
-184906
-184929
-184952
-184974
-184997
-185020
-185043
-185065
-185088
-185111
-185134
-185157
-185179
-185202
-185225
-185248
-185271
-185294
-185316
-185339
-185362
-185385
-185408
-185430
-185453
-185476
-185499
-185522
-185545
-185567
-185590
-185613
-185636
-185659
-185681
-185704
-185727
-185750
-185773
-185796
-185819
-185841
-185864
-185887
-185910
-185933
-185956
-185978
-186001
-186024
-186047
-186070
-186093
-186116
-186138
-186161
-186184
-186207
-186230
-186253
-186276
-186299
-186321
-186344
-186367
-186390
-186413
-186436
-186459
-186481
-186504
-186527
-186550
-186573
-186596
-186619
-186642
-186665
-186687
-186710
-186733
-186756
-186779
-186802
-186825
-186848
-186871
-186894
-186916
-186939
-186962
-186985
-187008
-187031
-187054
-187077
-187100
-187123
-187145
-187168
-187191
-187214
-187237
-187260
-187283
-187306
-187329
-187352
-187375
-187398
-187420
-187443
-187466
-187489
-187512
-187535
-187558
-187581
-187604
-187627
-187650
-187673
-187696
-187718
-187741
-187764
-187787
-187810
-187833
-187856
-187879
-187902
-187925
-187948
-187971
-187994
-188017
-188040
-188063
-188086
-188109
-188132
-188155
-188177
-188200
-188223
-188246
-188269
-188292
-188315
-188338
-188361
-188384
-188407
-188430
-188453
-188476
-188499
-188522
-188545
-188568
-188591
-188614
-188637
-188660
-188683
-188706
-188729
-188752
-188775
-188798
-188821
-188844
-188867
-188890
-188913
-188936
-188959
-188982
-189005
-189028
-189051
-189074
-189097
-189120
-189143
-189166
-189189
-189212
-189235
-189258
-189281
-189304
-189327
-189350
-189373
-189396
-189419
-189442
-189465
-189488
-189511
-189535
-189558
-189581
-189604
-189627
-189650
-189673
-189696
-189719
-189742
-189765
-189788
-189811
-189834
-189857
-189880
-189904
-189927
-189950
-189973
-189996
-190019
-190042
-190065
-190088
-190111
-190134
-190158
-190181
-190204
-190227
-190250
-190273
-190296
-190319
-190342
-190366
-190389
-190412
-190435
-190458
-190481
-190504
-190527
-190551
-190574
-190597
-190620
-190643
-190666
-190690
-190713
-190736
-190759
-190782
-190805
-190828
-190852
-190875
-190898
-190921
-190944
-190968
-190991
-191014
-191037
-191060
-191083
-191107
-191130
-191153
-191176
-191199
-191223
-191246
-191269
-191292
-191316
-191339
-191362
-191385
-191409
-191432
-191455
-191478
-191501
-191525
-191548
-191571
-191594
-191618
-191641
-191664
-191688
-191711
-191734
-191757
-191781
-191804
-191827
-191850
-191874
-191897
-191920
-191944
-191967
-191990
-192014
-192037
-192060
-192083
-192107
-192130
-192153
-192177
-192200
-192223
-192247
-192270
-192293
-192317
-192340
-192363
-192387
-192410
-192433
-192457
-192480
-192503
-192527
-192550
-192574
-192597
-192620
-192644
-192667
-192690
-192714
-192737
-192761
-192784
-192807
-192831
-192854
-192878
-192901
-192924
-192948
-192971
-192995
-193018
-193042
-193065
-193088
-193112
-193135
-193159
-193182
-193206
-193229
-193253
-193276
-193299
-193323
-193346
-193370
-193393
-193417
-193440
-193464
-193487
-193511
-193534
-193558
-193581
-193605
-193628
-193652
-193675
-193699
-193722
-193746
-193769
-193793
-193816
-193840
-193863
-193887
-193910
-193934
-193957
-193981
-194004
-194028
-194052
-194075
-194099
-194122
-194146
-194169
-194193
-194216
-194240
-194264
-194287
-194311
-194334
-194358
-194381
-194405
-194429
-194452
-194476
-194499
-194523
-194547
-194570
-194594
-194617
-194641
-194665
-194688
-194712
-194736
-194759
-194783
-194807
-194830
-194854
-194877
-194901
-194925
-194948
-194972
-194996
-195019
-195043
-195067
-195090
-195114
-195138
-195161
-195185
-195209
-195232
-195256
-195280
-195304
-195327
-195351
-195375
-195398
-195422
-195446
-195469
-195493
-195517
-195541
-195564
-195588
-195612
-195635
-195659
-195683
-195707
-195730
-195754
-195778
-195802
-195825
-195849
-195873
-195897
-195920
-195944
-195968
-195992
-196016
-196039
-196063
-196087
-196111
-196134
-196158
-196182
-196206
-196230
-196253
-196277
-196301
-196325
-196349
-196372
-196396
-196420
-196444
-196468
-196492
-196515
-196539
-196563
-196587
-196611
-196635
-196658
-196682
-196706
-196730
-196754
-196778
-196802
-196825
-196849
-196873
-196897
-196921
-196945
-196969
-196993
-197016
-197040
-197064
-197088
-197112
-197136
-197160
-197184
-197208
-197232
-197255
-197279
-197303
-197327
-197351
-197375
-197399
-197423
-197447
-197471
-197495
-197519
-197543
-197567
-197590
-197614
-197638
-197662
-197686
-197710
-197734
-197758
-197782
-197806
-197830
-197854
-197878
-197902
-197926
-197950
-197974
-197998
-198022
-198046
-198070
-198094
-198118
-198142
-198166
-198190
-198214
-198238
-198262
-198286
-198310
-198334
-198358
-198382
-198406
-198430
-198454
-198478
-198502
-198526
-198550
-198574
-198598
-198622
-198646
-198670
-198695
-198719
-198743
-198767
-198791
-198815
-198839
-198863
-198887
-198911
-198935
-198959
-198983
-199007
-199032
-199056
-199080
-199104
-199128
-199152
-199176
-199200
-199224
-199248
-199273
-199297
-199321
-199345
-199369
-199393
-199417
-199441
-199466
-199490
-199514
-199538
-199562
-199586
-199610
-199635
-199659
-199683
-199707
-199731
-199755
-199779
-199804
-199828
-199852
-199876
-199900
-199924
-199949
-199973
-199997
-200021
-200045
-200069
-200094
-200118
-200142
-200166
-200190
-200215
-200239
-200263
-200287
-200311
-200336
-200360
-200384
-200408
-200433
-200457
-200481
-200505
-200529
-200554
-200578
-200602
-200626
-200651
-200675
-200699
-200723
-200748
-200772
-200796
-200820
-200845
-200869
-200893
-200917
-200942
-200966
-200990
-201014
-201039
-201063
-201087
-201112
-201136
-201160
-201184
-201209
-201233
-201257
-201282
-201306
-201330
-201354
-201379
-201403
-201427
-201452
-201476
-201500
-201525
-201549
-201573
-201598
-201622
-201646
-201671
-201695
-201719
-201743
-201768
-201792
-201817
-201841
-201865
-201890
-201914
-201938
-201963
-201987
-202011
-202036
-202060
-202084
-202109
-202133
-202157
-202182
-202206
-202231
-202255
-202279
-202304
-202328
-202352
-202377
-202401
-202426
-202450
-202474
-202499
-202523
-202548
-202572
-202596
-202621
-202645
-202670
-202694
-202719
-202743
-202767
-202792
-202816
-202841
-202865
-202890
-202914
-202938
-202963
-202987
-203012
-203036
-203061
-203085
-203109
-203134
-203158
-203183
-203207
-203232
-203256
-203281
-203305
-203330
-203354
-203379
-203403
-203428
-203452
-203477
-203501
-203525
-203550
-203574
-203599
-203623
-203648
-203672
-203697
-203721
-203746
-203770
-203795
-203820
-203844
-203869
-203893
-203918
-203942
-203967
-203991
-204016
-204040
-204065
-204089
-204114
-204138
-204163
-204187
-204212
-204237
-204261
-204286
-204310
-204335
-204359
-204384
-204409
-204433
-204458
-204482
-204507
-204531
-204556
-204581
-204605
-204630
-204654
-204679
-204704
-204728
-204753
-204777
-204802
-204827
-204851
-204876
-204900
-204925
-204950
-204974
-204999
-205023
-205048
-205073
-205097
-205122
-205147
-205171
-205196
-205221
-205245
-205270
-205294
-205319
-205344
-205368
-205393
-205418
-205442
-205467
-205492
-205516
-205541
-205566
-205590
-205615
-205640
-205665
-205689
-205714
-205739
-205763
-205788
-205813
-205837
-205862
-205887
-205912
-205936
-205961
-205986
-206010
-206035
-206060
-206085
-206109
-206134
-206159
-206184
-206208
-206233
-206258
-206283
-206307
-206332
-206357
-206382
-206406
-206431
-206456
-206481
-206505
-206530
-206555
-206580
-206605
-206629
-206654
-206679
-206704
-206729
-206753
-206778
-206803
-206828
-206853
-206877
-206902
-206927
-206952
-206977
-207002
-207026
-207051
-207076
-207101
-207126
-207151
-207175
-207200
-207225
-207250
-207275
-207300
-207325
-207349
-207374
-207399
-207424
-207449
-207474
-207499
-207524
-207548
-207573
-207598
-207623
-207648
-207673
-207698
-207723
-207748
-207773
-207797
-207822
-207847
-207872
-207897
-207922
-207947
-207972
-207997
-208022
-208047
-208072
-208097
-208122
-208147
-208172
-208197
-208221
-208246
-208271
-208296
-208321
-208346
-208371
-208396
-208421
-208446
-208471
-208496
-208521
-208546
-208571
-208596
-208621
-208646
-208671
-208696
-208721
-208746
-208771
-208796
-208821
-208847
-208872
-208897
-208922
-208947
-208972
-208997
-209022
-209047
-209072
-209097
-209122
-209147
-209172
-209197
-209222
-209247
-209273
-209298
-209323
-209348
-209373
-209398
-209423
-209448
-209473
-209498
-209524
-209549
-209574
-209599
-209624
-209649
-209674
-209699
-209725
-209750
-209775
-209800
-209825
-209850
-209875
-209901
-209926
-209951
-209976
-210001
-210026
-210052
-210077
-210102
-210127
-210152
-210177
-210203
-210228
-210253
-210278
-210303
-210329
-210354
-210379
-210404
-210429
-210455
-210480
-210505
-210530
-210556
-210581
-210606
-210631
-210657
-210682
-210707
-210732
-210758
-210783
-210808
-210833
-210859
-210884
-210909
-210934
-210960
-210985
-211010
-211035
-211061
-211086
-211111
-211137
-211162
-211187
-211213
-211238
-211263
-211288
-211314
-211339
-211364
-211390
-211415
-211440
-211466
-211491
-211516
-211542
-211567
-211592
-211618
-211643
-211668
-211694
-211719
-211745
-211770
-211795
-211821
-211846
-211871
-211897
-211922
-211947
-211973
-211998
-212024
-212049
-212074
-212100
-212125
-212151
-212176
-212201
-212227
-212252
-212278
-212303
-212328
-212354
-212379
-212405
-212430
-212456
-212481
-212507
-212532
-212557
-212583
-212608
-212634
-212659
-212685
-212710
-212736
-212761
-212786
-212812
-212837
-212863
-212888
-212914
-212939
-212965
-212990
-213016
-213041
-213067
-213092
-213118
-213143
-213169
-213194
-213220
-213245
-213271
-213296
-213322
-213347
-213373
-213398
-213424
-213450
-213475
-213501
-213526
-213552
-213577
-213603
-213628
-213654
-213679
-213705
-213731
-213756
-213782
-213807
-213833
-213858
-213884
-213910
-213935
-213961
-213986
-214012
-214037
-214063
-214089
-214114
-214140
-214165
-214191
-214217
-214242
-214268
-214294
-214319
-214345
-214370
-214396
-214422
-214447
-214473
-214499
-214524
-214550
-214575
-214601
-214627
-214652
-214678
-214704
-214729
-214755
-214781
-214806
-214832
-214858
-214883
-214909
-214935
-214960
-214986
-215012
-215037
-215063
-215089
-215115
-215140
-215166
-215192
-215217
-215243
-215269
-215295
-215320
-215346
-215372
-215397
-215423
-215449
-215475
-215500
-215526
-215552
-215578
-215603
-215629
-215655
-215681
-215706
-215732
-215758
-215784
-215809
-215835
-215861
-215887
-215912
-215938
-215964
-215990
-216016
-216041
-216067
-216093
-216119
-216145
-216170
-216196
-216222
-216248
-216274
-216299
-216325
-216351
-216377
-216403
-216429
-216454
-216480
-216506
-216532
-216558
-216584
-216609
-216635
-216661
-216687
-216713
-216739
-216765
-216790
-216816
-216842
-216868
-216894
-216920
-216946
-216972
-216997
-217023
-217049
-217075
-217101
-217127
-217153
-217179
-217205
-217231
-217256
-217282
-217308
-217334
-217360
-217386
-217412
-217438
-217464
-217490
-217516
-217542
-217568
-217594
-217620
-217646
-217671
-217697