/*--------------------------------*- C++ -*----------------------------------*\
  =========                 |
  \\      /  F ield         | OpenFOAM: The Open Source CFD Toolbox
   \\    /   O peration     | Website:  https://openfoam.org
    \\  /    A nd           | Version:  9
     \\/     M anipulation  |
\*---------------------------------------------------------------------------*/
FoamFile
{
    format      ascii;
    class       surfaceScalarField;
    location    "0.048";
    object      ddtCorrDdt0(phi);
}
// * * * * * * * * * * * * * * * * * * * * * * * * * * * * * * * * * * * * * //

dimensions      [1 0 -2 0 0 0 0];

internalField   nonuniform List<scalar> 
9999
(
-49.7889
-50.9793
-52.1694
-53.3593
-54.5491
-55.7391
-56.9294
-58.1202
-59.3114
-60.503
-61.6949
-62.8873
-64.0799
-65.2728
-66.4659
-67.6589
-68.8519
-70.0445
-71.2368
-72.4289
-73.6212
-74.8138
-76.0068
-77.2
-78.3935
-79.5874
-80.7817
-81.9763
-83.1711
-84.3661
-85.5618
-86.758
-87.9544
-89.1507
-90.3468
-91.5432
-92.7401
-93.9377
-95.1355
-96.3333
-97.531
-98.7289
-99.9273
-101.126
-102.324
-103.522
-104.72
-105.918
-107.117
-108.316
-109.516
-110.716
-111.917
-113.119
-114.324
-115.529
-116.735
-117.941
-119.146
-120.351
-121.556
-122.761
-123.966
-125.169
-126.371
-127.573
-128.776
-129.981
-131.188
-132.397
-133.607
-134.816
-136.027
-137.239
-138.453
-139.668
-140.884
-142.098
-143.309
-144.519
-145.729
-146.94
-148.154
-149.368
-150.583
-151.797
-153.011
-154.226
-155.444
-156.665
-157.889
-159.114
-160.337
-161.557
-162.775
-163.993
-165.212
-166.435
-167.661
-168.888
-170.114
-171.339
-172.563
-173.787
-175.014
-176.245
-177.48
-178.716
-179.95
-181.18
-182.407
-183.631
-184.857
-186.087
-187.322
-188.562
-189.805
-191.047
-192.287
-193.525
-194.761
-195.999
-197.24
-198.485
-199.734
-200.984
-202.233
-203.477
-204.717
-205.953
-207.19
-208.429
-209.675
-210.929
-212.19
-213.454
-214.719
-215.98
-217.236
-218.486
-219.733
-220.981
-222.234
-223.494
-224.761
-226.032
-227.305
-228.574
-229.839
-231.098
-232.354
-233.609
-234.869
-236.134
-237.407
-238.688
-239.974
-241.263
-242.55
-243.833
-245.108
-246.377
-247.643
-248.909
-250.181
-251.461
-252.75
-254.048
-255.35
-256.653
-257.953
-259.246
-260.533
-261.813
-263.089
-264.365
-265.645
-266.934
-268.234
-269.547
-270.87
-272.2
-273.53
-274.855
-276.172
-277.478
-278.774
-280.062
-281.347
-282.633
-283.924
-285.226
-286.54
-287.869
-289.212
-290.564
-291.92
-293.274
-294.622
-295.961
-297.29
-298.608
-299.92
-301.226
-302.532
-303.841
-305.159
-306.489
-307.834
-309.193
-310.563
-311.94
-313.32
-314.699
-316.074
-317.443
-318.803
-320.154
-321.496
-322.83
-324.161
-325.493
-326.832
-328.179
-329.536
-330.905
-332.284
-333.673
-335.072
-336.48
-337.894
-339.311
-340.728
-342.139
-343.545
-344.945
-346.339
-347.725
-349.103
-350.474
-351.839
-353.2
-354.561
-355.929
-357.306
-358.696
-360.096
-361.508
-362.934
-364.376
-365.832
-367.299
-368.774
-370.254
-371.732
-373.207
-374.677
-376.146
-377.612
-379.069
-380.515
-381.952
-383.382
-384.806
-386.228
-387.646
-389.062
-390.473
-391.877
-393.278
-394.686
-396.103
-397.529
-398.963
-400.407
-401.865
-403.342
-404.838
-406.353
-407.89
-409.44
-410.993
-412.552
-414.123
-415.71
-417.31
-418.911
-420.513
-422.123
-423.738
-425.352
-426.976
-428.611
-430.239
-431.852
-433.452
-435.052
-436.665
-438.269
-439.855
-441.448
-443.038
-444.606
-446.181
-447.769
-449.365
-450.969
-452.531
-454.113
-455.741
-457.333
-458.955
-460.589
-462.203
-463.809
-465.446
-467.144
-468.704
-470.299
-471.894
-473.499
-475.11
-476.706
-478.308
-479.93
-481.543
-483.126
-484.704
-486.3
-487.904
-489.507
-491.119
-492.734
-494.34
-495.952
-497.586
-499.229
-500.866
-502.504
-504.152
-505.808
-507.474
-509.16
-510.86
-512.563
-514.273
-515.999
-517.74
-519.49
-521.246
-523.009
-524.775
-526.546
-528.328
-530.122
-531.923
-533.726
-535.53
-537.336
-539.144
-540.955
-542.769
-544.58
-546.382
-548.176
-549.963
-551.746
-553.527
-555.314
-557.112
-558.58
-560.201
-562.261
-564.616
-566.605
-568.01
-569.875
-571.953
-573.655
-575.362
-577.347
-579.22
-580.988
-582.876
-584.782
-586.647
-588.511
-590.42
-592.325
-594.224
-596.107
-598.018
-599.946
-601.872
-603.78
-605.702
-607.648
-609.61
-611.56
-613.51
-615.47
-617.448
-619.432
-621.404
-623.377
-625.368
-627.368
-629.363
-631.363
-633.379
-635.404
-637.426
-639.449
-641.491
-643.55
-645.604
-647.652
-649.711
-651.782
-653.858
-655.931
-658.008
-660.099
-662.204
-664.305
-666.409
-668.528
-670.663
-672.799
-674.933
-677.075
-679.231
-681.39
-683.545
-685.71
-687.892
-690.077
-692.26
-694.453
-696.663
-698.879
-701.096
-703.325
-705.561
-707.802
-710.048
-712.301
-714.56
-716.827
-719.102
-721.384
-723.67
-725.967
-728.276
-730.59
-732.91
-735.241
-737.585
-739.932
-742.281
-744.639
-747.007
-749.383
-751.762
-754.149
-756.549
-758.957
-761.371
-763.791
-766.224
-768.67
-771.123
-773.582
-776.046
-778.519
-781.003
-783.496
-785.997
-788.503
-791.016
-793.54
-796.072
-798.616
-801.171
-803.736
-806.312
-808.895
-811.483
-814.08
-816.683
-819.298
-821.923
-824.558
-827.205
-829.86
-832.524
-835.197
-837.877
-840.571
-843.275
-845.99
-848.717
-851.451
-854.196
-856.951
-859.711
-862.48
-865.258
-868.049
-870.854
-873.669
-876.494
-879.331
-882.176
-885.035
-887.902
-890.778
-893.669
-896.57
-899.482
-902.403
-905.33
-908.269
-911.222
-914.186
-917.165
-920.154
-923.153
-926.166
-929.186
-932.219
-935.267
-938.326
-941.397
-944.478
-947.567
-950.671
-953.787
-956.912
-960.052
-963.204
-966.369
-969.548
-972.734
-975.934
-979.15
-982.375
-985.615
-988.869
-992.132
-995.41
-998.697
-1001.99
-1005.31
-1008.63
-1011.97
-1015.32
-1018.69
-1022.07
-1025.47
-1028.87
-1032.29
-1035.73
-1039.17
-1042.63
-1046.11
-1049.59
-1053.09
-1056.6
-1060.13
-1063.67
-1067.22
-1070.79
-1074.37
-1077.97
-1081.59
-1085.21
-1088.85
-1092.51
-1096.18
-1099.85
-1103.55
-1107.26
-1110.98
-1114.71
-1118.47
-1122.24
-1126.02
-1129.81
-1133.63
-1137.45
-1141.3
-1145.15
-1149.03
-1152.92
-1156.81
-1160.73
-1164.66
-1168.61
-1172.56
-1176.54
-1180.53
-1184.54
-1188.56
-1192.6
-1196.65
-1200.72
-1204.81
-1208.91
-1213.02
-1217.15
-1221.29
-1225.45
-1229.62
-1233.81
-1238.02
-1242.23
-1246.47
-1250.72
-1254.99
-1259.27
-1263.57
-1267.89
-1272.22
-1276.57
-1280.93
-1285.31
-1289.7
-1294.11
-1298.53
-1302.98
-1307.43
-1311.9
-1316.39
-1320.89
-1325.41
-1329.95
-1334.5
-1339.06
-1343.65
-1348.24
-1352.85
-1357.48
-1362.12
-1366.77
-1371.44
-1376.13
-1380.83
-1385.54
-1390.28
-1395.03
-1399.79
-1404.58
-1409.37
-1414.18
-1419.01
-1423.85
-1428.7
-1433.57
-1438.46
-1443.35
-1448.26
-1453.19
-1458.13
-1463.09
-1468.07
-1473.05
-1478.05
-1483.07
-1488.09
-1493.13
-1498.18
-1503.25
-1508.33
-1513.42
-1518.53
-1523.65
-1528.78
-1533.93
-1539.09
-1544.26
-1549.45
-1554.64
-1559.85
-1565.07
-1570.31
-1575.55
-1580.81
-1586.08
-1591.36
-1596.66
-1601.96
-1607.28
-1612.6
-1617.94
-1623.29
-1628.64
-1634.01
-1639.39
-1644.76
-1650.16
-1655.57
-1660.97
-1666.4
-1671.83
-1677.27
-1682.71
-1688.17
-1693.63
-1699.1
-1704.58
-1710.07
-1715.55
-1721.05
-1726.56
-1732.07
-1737.58
-1743.11
-1748.64
-1754.17
-1759.71
-1765.26
-1770.8
-1776.36
-1781.91
-1787.47
-1793.03
-1798.6
-1804.16
-1809.72
-1815.3
-1820.87
-1826.43
-1832.01
-1837.59
-1843.16
-1848.73
-1854.32
-1859.89
-1865.46
-1871.03
-1876.6
-1882.17
-1887.73
-1893.3
-1898.86
-1904.41
-1909.97
-1915.52
-1921.06
-1926.61
-1932.15
-1937.68
-1943.2
-1948.73
-1954.24
-1959.74
-1965.24
-1970.73
-1976.21
-1981.68
-1987.15
-1992.6
-1998.05
-2003.49
-2008.91
-2014.32
-2019.73
-2025.13
-2030.51
-2035.87
-2041.24
-2046.58
-2051.91
-2057.23
-2062.54
-2067.82
-2073.09
-2078.36
-2083.6
-2088.83
-2094.04
-2099.24
-2104.42
-2109.58
-2114.73
-2119.85
-2124.96
-2130.05
-2135.12
-2140.17
-2145.2
-2150.22
-2155.21
-2160.17
-2165.12
-2170.05
-2174.95
-2179.83
-2184.7
-2189.53
-2194.34
-2199.13
-2203.9
-2208.64
-2213.36
-2218.06
-2222.73
-2227.37
-2231.99
-2236.59
-2241.16
-2245.7
-2250.22
-2254.71
-2259.17
-2263.6
-2268.02
-2272.4
-2276.74
-2281.07
-2285.37
-2289.63
-2293.86
-2298.08
-2302.26
-2306.4
-2310.52
-2314.62
-2318.67
-2322.7
-2326.71
-2330.68
-2334.62
-2338.53
-2342.42
-2346.27
-2350.08
-2353.88
-2357.64
-2361.36
-2365.05
-2368.72
-2372.36
-2375.95
-2379.52
-2383.06
-2386.57
-2390.03
-2393.48
-2396.9
-2400.27
-2403.62
-2406.94
-2410.23
-2413.47
-2416.7
-2419.9
-2423.06
-2426.18
-2429.28
-2432.35
-2435.38
-2438.38
-2441.36
-2444.3
-2447.21
-2450.08
-2452.94
-2455.75
-2458.53
-2461.29
-2464.02
-2466.71
-2469.37
-2472.01
-2474.62
-2477.19
-2479.74
-2482.26
-2484.75
-2487.21
-2489.64
-2492.05
-2494.42
-2496.77
-2499.09
-2501.38
-2503.64
-2505.87
-2508.09
-2510.27
-2512.41
-2514.53
-2516.64
-2518.71
-2520.75
-2522.77
-2524.77
-2526.73
-2528.67
-2530.6
-2532.49
-2534.36
-2536.2
-2538.03
-2539.83
-2541.6
-2543.35
-2545.09
-2546.8
-2548.48
-2550.14
-2551.79
-2553.41
-2555
-2556.58
-2558.14
-2559.66
-2561.17
-2562.67
-2564.14
-2565.58
-2567.01
-2568.43
-2569.82
-2571.19
-2572.54
-2573.89
-2575.2
-2576.5
-2577.79
-2579.06
-2580.31
-2581.54
-2582.77
-2583.98
-2585.16
-2586.32
-2587.49
-2588.63
-2589.75
-2590.86
-2591.96
-2593.05
-2594.1
-2595.15
-2596.2
-2597.23
-2598.23
-2599.22
-2600.22
-2601.19
-2602.14
-2603.09
-2604.03
-2604.95
-2605.85
-2606.76
-2607.66
-2608.53
-2609.4
-2610.26
-2611.12
-2611.96
-2612.78
-2613.61
-2614.43
-2615.23
-2616.01
-2616.8
-2617.58
-2618.34
-2619.09
-2619.85
-2620.6
-2621.32
-2622.04
-2622.76
-2623.48
-2624.17
-2624.86
-2625.56
-2626.24
-2626.9
-2627.57
-2628.24
-2628.89
-2629.53
-2630.17
-2630.82
-2631.46
-2632.07
-2632.7
-2633.32
-2633.94
-2634.53
-2635.14
-2635.74
-2636.34
-2636.91
-2637.49
-2638.08
-2638.66
-2639.22
-2639.78
-2640.35
-2640.91
-2641.45
-2642
-2642.56
-2643.1
-2643.62
-2644.16
-2644.7
-2645.22
-2645.74
-2646.26
-2646.79
-2647.31
-2647.81
-2648.33
-2648.85
-2649.36
-2649.85
-2650.36
-2650.87
-2651.37
-2651.86
-2652.35
-2652.85
-2653.34
-2653.82
-2654.3
-2654.8
-2655.28
-2655.75
-2656.22
-2656.71
-2657.19
-2657.65
-2658.12
-2658.6
-2659.06
-2659.52
-2659.98
-2660.46
-2660.92
-2661.37
-2661.83
-2662.3
-2662.77
-2663.21
-2663.67
-2664.14
-2664.6
-2665.04
-2665.49
-2665.95
-2666.41
-2666.85
-2667.3
-2667.76
-2668.21
-2668.65
-2669.09
-2669.54
-2670
-2670.43
-2670.87
-2671.32
-2671.77
-2672.2
-2672.63
-2673.08
-2673.53
-2673.97
-2674.39
-2674.84
-2675.29
-2675.72
-2676.15
-2676.59
-2677.04
-2677.48
-2677.91
-2678.35
-2678.8
-2679.24
-2679.66
-2680.09
-2680.54
-2680.98
-2681.4
-2681.83
-2682.28
-2682.72
-2683.14
-2683.57
-2684.01
-2684.45
-2684.88
-2685.3
-2685.74
-2686.18
-2686.61
-2687.03
-2687.46
-2687.91
-2688.34
-2688.76
-2689.19
-2689.64
-2690.08
-2690.5
-2690.93
-2691.37
-2691.81
-2692.23
-2692.66
-2693.1
-2693.54
-2693.96
-2694.38
-2694.82
-2695.26
-2695.69
-2696.11
-2696.54
-2696.99
-2697.42
-2697.84
-2698.27
-2698.71
-2699.14
-2699.56
-2699.99
-2700.43
-2700.87
-2701.29
-2701.71
-2702.15
-2702.59
-2703.02
-2703.44
-2703.88
-2704.32
-2704.75
-2705.17
-2705.6
-2706.05
-2706.48
-2706.9
-2707.33
-2707.77
-2708.21
-2708.63
-2709.05
-2709.5
-2709.94
-2710.36
-2710.78
-2711.22
-2711.66
-2712.09
-2712.51
-2712.94
-2713.38
-2713.82
-2714.24
-2714.67
-2715.11
-2715.55
-2715.98
-2716.4
-2716.84
-2717.28
-2717.71
-2718.13
-2718.57
-2719.01
-2719.45
-2719.87
-2720.3
-2720.74
-2721.18
-2721.61
-2722.03
-2722.47
-2722.91
-2723.34
-2723.76
-2724.19
-2724.64
-2725.07
-2725.49
-2725.92
-2726.37
-2726.81
-2727.23
-2727.65
-2728.1
-2728.54
-2728.97
-2729.39
-2729.83
-2730.28
-2730.72
-2731.14
-2731.56
-2732.01
-2732.45
-2732.88
-2733.3
-2733.74
-2734.19
-2734.62
-2735.04
-2735.47
-2735.92
-2736.36
-2736.78
-2737.21
-2737.65
-2738.1
-2738.53
-2738.95
-2739.38
-2739.83
-2740.27
-2740.69
-2741.12
-2741.57
-2742.01
-2742.44
-2742.86
-2743.3
-2743.75
-2744.19
-2744.61
-2745.04
-2745.49
-2745.93
-2746.36
-2746.78
-2747.23
-2747.68
-2748.11
-2748.53
-2748.96
-2749.41
-2749.85
-2750.27
-2750.7
-2751.15
-2751.6
-2752.02
-2752.45
-2752.89
-2753.34
-2753.77
-2754.2
-2754.63
-2755.08
-2755.52
-2755.95
-2756.38
-2756.82
-2757.27
-2757.71
-2758.13
-2758.56
-2759.01
-2759.46
-2759.88
-2760.31
-2760.75
-2761.21
-2761.64
-2762.06
-2762.5
-2762.95
-2763.39
-2763.82
-2764.24
-2764.69
-2765.14
-2765.58
-2766
-2766.43
-2766.88
-2767.33
-2767.76
-2768.18
-2768.63
-2769.08
-2769.52
-2769.94
-2770.38
-2770.83
-2771.28
-2771.71
-2772.13
-2772.57
-2773.03
-2773.47
-2773.89
-2774.32
-2774.77
-2775.22
-2775.65
-2776.08
-2776.52
-2776.98
-2777.42
-2777.84
-2778.27
-2778.72
-2779.17
-2779.61
-2780.03
-2780.47
-2780.93
-2781.37
-2781.8
-2782.23
-2782.68
-2783.13
-2783.57
-2783.99
-2784.43
-2784.89
-2785.33
-2785.76
-2786.19
-2786.64
-2787.09
-2787.53
-2787.96
-2788.39
-2788.85
-2789.3
-2789.73
-2790.15
-2790.6
-2791.05
-2791.5
-2791.92
-2792.36
-2792.81
-2793.26
-2793.7
-2794.12
-2794.57
-2795.02
-2795.47
-2795.9
-2796.33
-2796.78
-2797.24
-2797.68
-2798.1
-2798.54
-2798.99
-2799.45
-2799.88
-2800.31
-2800.75
-2801.21
-2801.66
-2802.09
-2802.52
-2802.97
-2803.42
-2803.86
-2804.29
-2804.73
-2805.18
-2805.64
-2806.07
-2806.5
-2806.94
-2807.4
-2807.85
-2808.28
-2808.71
-2809.16
-2809.62
-2810.07
-2810.49
-2810.93
-2811.39
-2811.84
-2812.28
-2812.71
-2813.15
-2813.61
-2814.06
-2814.49
-2814.92
-2815.37
-2815.83
-2816.28
-2816.7
-2817.14
-2817.6
-2818.05
-2818.49
-2818.92
-2819.36
-2819.82
-2820.27
-2820.71
-2821.14
-2821.59
-2822.05
-2822.5
-2822.93
-2823.36
-2823.82
-2824.28
-2824.72
-2825.15
-2825.59
-2826.05
-2826.5
-2826.94
-2827.37
-2827.82
-2828.28
-2828.73
-2829.16
-2829.59
-2830.04
-2830.5
-2830.95
-2831.38
-2831.82
-2832.27
-2832.73
-2833.17
-2833.61
-2834.05
-2834.51
-2834.96
-2835.4
-2835.83
-2836.28
-2836.74
-2837.19
-2837.63
-2838.06
-2838.51
-2838.98
-2839.42
-2839.85
-2840.29
-2840.75
-2841.21
-2841.65
-2842.08
-2842.52
-2842.98
-2843.44
-2843.88
-2844.31
-2844.76
-2845.22
-2845.67
-2846.11
-2846.54
-2846.99
-2847.45
-2847.91
-2848.34
-2848.78
-2849.23
-2849.69
-2850.14
-2850.58
-2851.01
-2851.47
-2851.93
-2852.38
-2852.81
-2853.25
-2853.71
-2854.17
-2854.61
-2855.04
-2855.49
-2855.94
-2856.4
-2856.85
-2857.28
-2857.72
-2858.18
-2858.64
-2859.08
-2859.52
-2859.96
-2860.42
-2860.88
-2861.32
-2861.75
-2862.21
-2862.67
-2863.12
-2863.56
-2863.99
-2864.45
-2864.91
-2865.36
-2865.79
-2866.23
-2866.69
-2867.15
-2867.6
-2868.03
-2868.47
-2868.93
-2869.39
-2869.84
-2870.27
-2870.72
-2871.18
-2871.63
-2872.08
-2872.51
-2872.96
-2873.42
-2873.88
-2874.32
-2874.76
-2875.2
-2875.66
-2876.12
-2876.56
-2877
-2877.45
-2877.91
-2878.37
-2878.81
-2879.24
-2879.69
-2880.15
-2880.61
-2881.05
-2881.49
-2881.94
-2882.4
-2882.86
-2883.3
-2883.73
-2884.18
-2884.65
-2885.1
-2885.54
-2885.98
-2886.43
-2886.89
-2887.35
-2887.79
-2888.23
-2888.68
-2889.14
-2889.6
-2890.04
-2890.47
-2890.93
-2891.39
-2891.84
-2892.28
-2892.72
-2893.17
-2893.64
-2894.09
-2894.53
-2894.97
-2895.42
-2895.89
-2896.34
-2896.78
-2897.22
-2897.68
-2898.14
-2898.59
-2899.03
-2899.47
-2899.93
-2900.39
-2900.84
-2901.28
-2901.72
-2902.18
-2902.64
-2903.09
-2903.53
-2903.98
-2904.43
-2904.89
-2905.35
-2905.79
-2906.23
-2906.68
-2907.15
-2907.6
-2908.04
-2908.48
-2908.94
-2909.4
-2909.85
-2910.29
-2910.74
-2911.19
-2911.66
-2912.11
-2912.55
-2912.99
-2913.45
-2913.91
-2914.37
-2914.81
-2915.25
-2915.7
-2916.17
-2916.62
-2917.06
-2917.51
-2917.96
-2918.42
-2918.88
-2919.32
-2919.76
-2920.22
-2920.68
-2921.14
-2921.58
-2922.02
-2922.48
-2922.94
-2923.4
-2923.84
-2924.29
-2924.74
-2925.2
-2925.66
-2926.1
-2926.55
-2927
-2927.46
-2927.92
-2928.37
-2928.81
-2929.26
-2929.72
-2930.18
-2930.63
-2931.08
-2931.52
-2931.98
-2932.44
-2932.9
-2933.34
-2933.79
-2934.24
-2934.71
-2935.16
-2935.61
-2936.05
-2936.51
-2936.97
-2937.43
-2937.87
-2938.32
-2938.77
-2939.24
-2939.69
-2940.14
-2940.59
-2941.04
-2941.5
-2941.96
-2942.41
-2942.86
-2943.31
-2943.77
-2944.23
-2944.68
-2945.13
-2945.58
-2946.04
-2946.5
-2946.96
-2947.4
-2947.85
-2948.31
-2948.78
-2949.23
-2949.67
-2950.12
-2950.58
-2951.05
-2951.5
-2951.95
-2952.4
-2952.86
-2953.32
-2953.78
-2954.23
-2954.67
-2955.13
-2955.59
-2956.05
-2956.51
-2956.95
-2957.41
-2957.87
-2958.33
-2958.78
-2959.23
-2959.69
-2960.15
-2960.61
-2961.06
-2961.51
-2961.97
-2962.43
-2962.89
-2963.35
-2963.8
-2964.25
-2964.71
-2965.17
-2965.63
-2966.08
-2966.53
-2966.99
-2967.45
-2967.91
-2968.37
-2968.82
-2969.27
-2969.74
-2970.2
-2970.65
-2971.1
-2971.56
-2972.02
-2972.49
-2972.94
-2973.39
-2973.85
-2974.31
-2974.77
-2975.23
-2975.68
-2976.14
-2976.6
-2977.06
-2977.52
-2977.98
-2978.43
-2978.89
-2979.35
-2979.82
-2980.27
-2980.72
-2981.18
-2981.64
-2982.11
-2982.57
-2983.02
-2983.47
-2983.94
-2984.4
-2984.86
-2985.32
-2985.77
-2986.23
-2986.7
-2987.16
-2987.62
-2988.07
-2988.53
-2988.99
-2989.46
-2989.92
-2990.37
-2990.83
-2991.29
-2991.76
-2992.22
-2992.68
-2993.13
-2993.6
-2994.06
-2994.53
-2994.98
-2995.44
-2995.9
-2996.37
-2996.83
-2997.29
-2997.75
-2998.21
-2998.67
-2999.14
-2999.6
-3000.06
-3000.51
-3000.98
-3001.45
-3001.91
-3002.37
-3002.83
-3003.29
-3003.76
-3004.22
-3004.68
-3005.14
-3005.6
-3006.07
-3006.53
-3007
-3007.46
-3007.91
-3008.38
-3008.85
-3009.31
-3009.77
-3010.23
-3010.69
-3011.16
-3011.63
-3012.09
-3012.55
-3013.01
-3013.48
-3013.95
-3014.42
-3014.87
-3015.33
-3015.8
-3016.27
-3016.74
-3017.2
-3017.66
-3018.12
-3018.59
-3019.06
-3019.53
-3019.99
-3020.45
-3020.91
-3021.38
-3021.85
-3022.31
-3022.78
-3023.24
-3023.71
-3024.18
-3024.64
-3025.11
-3025.57
-3026.04
-3026.51
-3026.97
-3027.44
-3027.9
-3028.37
-3028.84
-3029.31
-3029.77
-3030.23
-3030.7
-3031.17
-3031.64
-3032.11
-3032.57
-3033.04
-3033.51
-3033.98
-3034.44
-3034.91
-3035.37
-3035.84
-3036.31
-3036.78
-3037.25
-3037.71
-3038.18
-3038.65
-3039.12
-3039.59
-3040.06
-3040.52
-3040.99
-3041.46
-3041.94
-3042.4
-3042.86
-3043.33
-3043.8
-3044.28
-3044.75
-3045.21
-3045.68
-3046.15
-3046.62
-3047.09
-3047.56
-3048.03
-3048.49
-3048.97
-3049.44
-3049.91
-3050.38
-3050.84
-3051.31
-3051.79
-3052.26
-3052.73
-3053.2
-3053.66
-3054.14
-3054.61
-3055.08
-3055.55
-3056.02
-3056.49
-3056.96
-3057.43
-3057.9
-3058.37
-3058.84
-3059.32
-3059.79
-3060.26
-3060.73
-3061.2
-3061.67
-3062.15
-3062.62
-3063.09
-3063.56
-3064.03
-3064.5
-3064.98
-3065.45
-3065.92
-3066.38
-3066.86
-3067.34
-3067.81
-3068.28
-3068.75
-3069.22
-3069.69
-3070.17
-3070.64
-3071.11
-3071.58
-3072.05
-3072.53
-3073.01
-3073.48
-3073.95
-3074.42
-3074.89
-3075.37
-3075.84
-3076.31
-3076.78
-3077.26
-3077.73
-3078.21
-3078.68
-3079.15
-3079.62
-3080.1
-3080.57
-3081.05
-3081.52
-3081.99
-3082.47
-3082.94
-3083.42
-3083.89
-3084.36
-3084.84
-3085.31
-3085.79
-3086.26
-3086.73
-3087.21
-3087.68
-3088.16
-3088.63
-3089.11
-3089.58
-3090.05
-3090.53
-3091.01
-3091.48
-3091.95
-3092.42
-3092.9
-3093.38
-3093.86
-3094.33
-3094.8
-3095.27
-3095.75
-3096.23
-3096.71
-3097.18
-3097.65
-3098.12
-3098.6
-3099.08
-3099.56
-3100.03
-3100.5
-3100.98
-3101.46
-3101.93
-3102.41
-3102.88
-3103.36
-3103.83
-3104.31
-3104.79
-3105.27
-3105.74
-3106.21
-3106.69
-3107.17
-3107.65
-3108.12
-3108.6
-3109.07
-3109.55
-3110.03
-3110.5
-3110.98
-3111.45
-3111.93
-3112.41
-3112.88
-3113.36
-3113.84
-3114.31
-3114.79
-3115.27
-3115.74
-3116.22
-3116.7
-3117.17
-3117.65
-3118.13
-3118.61
-3119.08
-3119.56
-3120.04
-3120.52
-3120.99
-3121.47
-3121.94
-3122.42
-3122.9
-3123.38
-3123.86
-3124.33
-3124.81
-3125.29
-3125.77
-3126.25
-3126.72
-3127.2
-3127.67
-3128.15
-3128.63
-3129.11
-3129.59
-3130.07
-3130.54
-3131.02
-3131.5
-3131.98
-3132.46
-3132.93
-3133.41
-3133.89
-3134.37
-3134.85
-3135.33
-3135.81
-3136.28
-3136.76
-3137.24
-3137.72
-3138.2
-3138.68
-3139.16
-3139.64
-3140.11
-3140.59
-3141.07
-3141.55
-3142.03
-3142.51
-3142.99
-3143.47
-3143.95
-3144.43
-3144.91
-3145.39
-3145.86
-3146.34
-3146.82
-3147.3
-3147.78
-3148.26
-3148.74
-3149.22
-3149.7
-3150.18
-3150.66
-3151.14
-3151.62
-3152.1
-3152.58
-3153.06
-3153.54
-3154.02
-3154.5
-3154.98
-3155.46
-3155.94
-3156.42
-3156.9
-3157.38
-3157.86
-3158.34
-3158.82
-3159.3
-3159.78
-3160.26
-3160.74
-3161.22
-3161.71
-3162.19
-3162.67
-3163.15
-3163.63
-3164.11
-3164.59
-3165.07
-3165.55
-3166.03
-3166.52
-3167
-3167.48
-3167.96
-3168.44
-3168.92
-3169.4
-3169.89
-3170.37
-3170.85
-3171.33
-3171.81
-3172.29
-3172.78
-3173.26
-3173.74
-3174.22
-3174.7
-3175.19
-3175.67
-3176.15
-3176.63
-3177.11
-3177.59
-3178.08
-3178.56
-3179.05
-3179.53
-3180.01
-3180.49
-3180.97
-3181.46
-3181.94
-3182.42
-3182.9
-3183.39
-3183.87
-3184.35
-3184.84
-3185.32
-3185.8
-3186.28
-3186.77
-3187.25
-3187.74
-3188.22
-3188.7
-3189.18
-3189.67
-3190.15
-3190.64
-3191.12
-3191.6
-3192.09
-3192.57
-3193.05
-3193.54
-3194.02
-3194.51
-3194.99
-3195.48
-3195.96
-3196.44
-3196.93
-3197.41
-3197.9
-3198.38
-3198.86
-3199.35
-3199.83
-3200.32
-3200.8
-3201.29
-3201.77
-3202.26
-3202.74
-3203.22
-3203.71
-3204.2
-3204.68
-3205.16
-3205.65
-3206.13
-3206.62
-3207.11
-3207.59
-3208.08
-3208.56
-3209.05
-3209.53
-3210.02
-3210.51
-3210.99
-3211.48
-3211.96
-3212.45
-3212.93
-3213.42
-3213.91
-3214.39
-3214.88
-3215.36
-3215.85
-3216.34
-3216.82
-3217.31
-3217.8
-3218.28
-3218.77
-3219.26
-3219.74
-3220.23
-3220.72
-3221.2
-3221.69
-3222.18
-3222.66
-3223.15
-3223.64
-3224.13
-3224.61
-3225.1
-3225.59
-3226.07
-3226.56
-3227.05
-3227.54
-3228.03
-3228.51
-3229
-3229.49
-3229.98
-3230.47
-3230.95
-3231.44
-3231.93
-3232.42
-3232.91
-3233.4
-3233.88
-3234.37
-3234.86
-3235.35
-3235.84
-3236.33
-3236.81
-3237.3
-3237.79
-3238.28
-3238.77
-3239.26
-3239.75
-3240.24
-3240.73
-3241.22
-3241.71
-3242.2
-3242.68
-3243.17
-3243.66
-3244.15
-3244.64
-3245.13
-3245.62
-3246.11
-3246.6
-3247.1
-3247.59
-3248.08
-3248.56
-3249.05
-3249.55
-3250.04
-3250.53
-3251.02
-3251.51
-3252
-3252.49
-3252.98
-3253.47
-3253.96
-3254.45
-3254.94
-3255.44
-3255.93
-3256.42
-3256.91
-3257.4
-3257.89
-3258.39
-3258.88
-3259.37
-3259.86
-3260.35
-3260.85
-3261.34
-3261.83
-3262.32
-3262.81
-3263.31
-3263.8
-3264.29
-3264.79
-3265.28
-3265.77
-3266.26
-3266.76
-3267.25
-3267.74
-3268.24
-3268.73
-3269.22
-3269.71
-3270.21
-3270.7
-3271.2
-3271.69
-3272.18
-3272.68
-3273.17
-3273.66
-3274.16
-3274.65
-3275.15
-3275.64
-3276.13
-3276.63
-3277.12
-3277.62
-3278.11
-3278.61
-3279.1
-3279.6
-3280.09
-3280.59
-3281.08
-3281.58
-3282.07
-3282.57
-3283.06
-3283.56
-3284.05
-3284.55
-3285.05
-3285.54
-3286.04
-3286.53
-3287.03
-3287.52
-3288.02
-3288.52
-3289.01
-3289.51
-3290.01
-3290.5
-3291
-3291.5
-3291.99
-3292.49
-3292.99
-3293.48
-3293.98
-3294.48
-3294.97
-3295.47
-3295.97
-3296.46
-3296.96
-3297.46
-3297.96
-3298.46
-3298.95
-3299.45
-3299.95
-3300.45
-3300.95
-3301.44
-3301.94
-3302.44
-3302.94
-3303.44
-3303.93
-3304.43
-3304.93
-3305.43
-3305.93
-3306.43
-3306.93
-3307.43
-3307.93
-3308.42
-3308.92
-3309.42
-3309.92
-3310.42
-3310.92
-3311.42
-3311.92
-3312.42
-3312.92
-3313.42
-3313.92
-3314.42
-3314.92
-3315.42
-3315.92
-3316.42
-3316.92
-3317.42
-3317.92
-3318.42
-3318.92
-3319.42
-3319.92
-3320.42
-3320.93
-3321.43
-3321.93
-3322.43
-3322.93
-3323.43
-3323.93
-3324.43
-3324.94
-3325.44
-3325.94
-3326.44
-3326.94
-3327.44
-3327.95
-3328.45
-3328.95
-3329.45
-3329.95
-3330.46
-3330.96
-3331.46
-3331.96
-3332.47
-3332.97
-3333.47
-3333.97
-3334.48
-3334.98
-3335.48
-3335.99
-3336.49
-3336.99
-3337.5
-3338
-3338.5
-3339.01
-3339.51
-3340.01
-3340.52
-3341.02
-3341.52
-3342.03
-3342.53
-3343.03
-3343.54
-3344.04
-3344.55
-3345.05
-3345.56
-3346.06
-3346.56
-3347.07
-3347.57
-3348.08
-3348.58
-3349.09
-3349.59
-3350.1
-3350.6
-3351.11
-3351.61
-3352.12
-3352.62
-3353.13
-3353.63
-3354.14
-3354.64
-3355.15
-3355.65
-3356.16
-3356.67
-3357.17
-3357.68
-3358.18
-3358.69
-3359.19
-3359.7
-3360.21
-3360.71
-3361.22
-3361.73
-3362.23
-3362.74
-3363.24
-3363.75
-3364.26
-3364.76
-3365.27
-3365.78
-3366.28
-3366.79
-3367.3
-3367.8
-3368.31
-3368.82
-3369.33
-3369.83
-3370.34
-3370.85
-3371.35
-3371.86
-3372.37
-3372.88
-3373.39
-3373.89
-3374.4
-3374.91
-3375.42
-3375.92
-3376.43
-3376.94
-3377.45
-3377.96
-3378.46
-3378.97
-3379.48
-3379.99
-3380.5
-3381.01
-3381.51
-3382.02
-3382.53
-3383.04
-3383.55
-3384.06
-3384.57
-3385.08
-3385.59
-3386.1
-3386.6
-3387.11
-3387.62
-3388.13
-3388.64
-3389.15
-3389.66
-3390.17
-3390.68
-3391.19
-3391.7
-3392.21
-3392.72
-3393.23
-3393.74
-3394.25
-3394.76
-3395.27
-3395.78
-3396.29
-3396.8
-3397.31
-3397.82
-3398.33
-3398.84
-3399.35
-3399.86
-3400.37
-3400.88
-3401.39
-3401.9
-3402.41
-3402.93
-3403.44
-3403.95
-3404.46
-3404.97
-3405.48
-3405.99
-3406.5
-3407.01
-3407.53
-3408.04
-3408.55
-3409.06
-3409.57
-3410.08
-3410.6
-3411.11
-3411.62
-3412.13
-3412.64
-3413.16
-3413.67
-3414.18
-3414.69
-3415.2
-3415.72
-3416.23
-3416.74
-3417.26
-3417.77
-3418.28
-3418.79
-3419.3
-3419.82
-3420.33
-3420.84
-3421.36
-3421.87
-3422.38
-3422.9
-3423.41
-3423.92
-3424.44
-3424.95
-3425.46
-3425.98
-3426.49
-3427
-3427.52
-3428.03
-3428.54
-3429.06
-3429.57
-3430.08
-3430.6
-3431.11
-3431.63
-3432.14
-3432.66
-3433.17
-3433.68
-3434.2
-3434.71
-3435.23
-3435.74
-3436.26
-3436.77
-3437.29
-3437.8
-3438.31
-3438.83
-3439.34
-3439.86
-3440.37
-3440.89
-3441.4
-3441.92
-3442.43
-3442.95
-3443.47
-3443.98
-3444.5
-3445.01
-3445.53
-3446.04
-3446.56
-3447.08
-3447.59
-3448.11
-3448.62
-3449.14
-3449.65
-3450.17
-3450.69
-3451.2
-3451.72
-3452.24
-3452.75
-3453.27
-3453.79
-3454.3
-3454.82
-3455.34
-3455.85
-3456.37
-3456.89
-3457.4
-3457.92
-3458.44
-3458.95
-3459.47
-3459.99
-3460.51
-3461.02
-3461.54
-3462.06
-3462.58
-3463.09
-3463.61
-3464.13
-3464.65
-3465.16
-3465.68
-3466.2
-3466.72
-3467.24
-3467.75
-3468.27
-3468.79
-3469.31
-3469.83
-3470.35
-3470.86
-3471.38
-3471.9
-3472.42
-3472.94
-3473.46
-3473.98
-3474.49
-3475.01
-3475.53
-3476.05
-3476.57
-3477.09
-3477.61
-3478.13
-3478.65
-3479.17
-3479.69
-3480.21
-3480.73
-3481.24
-3481.76
-3482.28
-3482.8
-3483.32
-3483.84
-3484.36
-3484.88
-3485.4
-3485.92
-3486.44
-3486.96
-3487.49
-3488.01
-3488.53
-3489.05
-3489.57
-3490.09
-3490.61
-3491.13
-3491.65
-3492.17
-3492.69
-3493.21
-3493.73
-3494.26
-3494.78
-3495.3
-3495.82
-3496.34
-3496.86
-3497.38
-3497.91
-3498.43
-3498.95
-3499.47
-3499.99
-3500.51
-3501.04
-3501.56
-3502.08
-3502.6
-3503.13
-3503.65
-3504.17
-3504.69
-3505.21
-3505.74
-3506.26
-3506.78
-3507.31
-3507.83
-3508.35
-3508.87
-3509.4
-3509.92
-3510.44
-3510.97
-3511.49
-3512.01
-3512.54
-3513.06
-3513.58
-3514.1
-3514.63
-3515.15
-3515.68
-3516.2
-3516.72
-3517.25
-3517.77
-3518.29
-3518.82
-3519.34
-3519.87
-3520.39
-3520.92
-3521.44
-3521.96
-3522.49
-3523.01
-3523.54
-3524.06
-3524.59
-3525.11
-3525.64
-3526.16
-3526.69
-3527.21
-3527.74
-3528.26
-3528.79
-3529.31
-3529.84
-3530.36
-3530.89
-3531.42
-3531.94
-3532.47
-3532.99
-3533.52
-3534.04
-3534.57
-3535.1
-3535.62
-3536.15
-3536.68
-3537.2
-3537.73
-3538.25
-3538.78
-3539.31
-3539.83
-3540.36
-3540.89
-3541.41
-3541.94
-3542.47
-3542.99
-3543.52
-3544.05
-3544.58
-3545.1
-3545.63
-3546.16
-3546.69
-3547.21
-3547.74
-3548.27
-3548.8
-3549.32
-3549.85
-3550.38
-3550.91
-3551.44
-3551.96
-3552.49
-3553.02
-3553.55
-3554.08
-3554.61
-3555.13
-3555.66
-3556.19
-3556.72
-3557.25
-3557.78
-3558.31
-3558.84
-3559.36
-3559.89
-3560.42
-3560.95
-3561.48
-3562.01
-3562.54
-3563.07
-3563.6
-3564.13
-3564.66
-3565.19
-3565.72
-3566.25
-3566.78
-3567.31
-3567.84
-3568.37
-3568.9
-3569.43
-3569.96
-3570.49
-3571.02
-3571.55
-3572.08
-3572.61
-3573.14
-3573.67
-3574.2
-3574.74
-3575.27
-3575.8
-3576.33
-3576.86
-3577.39
-3577.92
-3578.45
-3578.99
-3579.52
-3580.05
-3580.58
-3581.11
-3581.64
-3582.18
-3582.71
-3583.24
-3583.77
-3584.31
-3584.84
-3585.37
-3585.9
-3586.43
-3586.97
-3587.5
-3588.03
-3588.57
-3589.1
-3589.63
-3590.16
-3590.7
-3591.23
-3591.76
-3592.3
-3592.83
-3593.36
-3593.9
-3594.43
-3594.96
-3595.5
-3596.03
-3596.57
-3597.1
-3597.63
-3598.17
-3598.7
-3599.24
-3599.77
-3600.3
-3600.84
-3601.37
-3601.91
-3602.44
-3602.98
-3603.51
-3604.05
-3604.58
-3605.12
-3605.65
-3606.19
-3606.72
-3607.26
-3607.79
-3608.33
-3608.86
-3609.4
-3609.93
-3610.47
-3611
-3611.54
-3612.08
-3612.61
-3613.15
-3613.68
-3614.22
-3614.76
-3615.29
-3615.83
-3616.36
-3616.9
-3617.44
-3617.97
-3618.51
-3619.05
-3619.58
-3620.12
-3620.66
-3621.2
-3621.73
-3622.27
-3622.81
-3623.34
-3623.88
-3624.42
-3624.96
-3625.49
-3626.03
-3626.57
-3627.11
-3627.64
-3628.18
-3628.72
-3629.26
-3629.8
-3630.33
-3630.87
-3631.41
-3631.95
-3632.49
-3633.03
-3633.57
-3634.1
-3634.64
-3635.18
-3635.72
-3636.26
-3636.8
-3637.34
-3637.88
-3638.42
-3638.96
-3639.49
-3640.03
-3640.57
-3641.11
-3641.65
-3642.19
-3642.73
-3643.27
-3643.81
-3644.35
-3644.89
-3645.43
-3645.97
-3646.51
-3647.05
-3647.59
-3648.13
-3648.67
-3649.21
-3649.76
-3650.3
-3650.84
-3651.38
-3651.92
-3652.46
-3653
-3653.54
-3654.08
-3654.62
-3655.17
-3655.71
-3656.25
-3656.79
-3657.33
-3657.87
-3658.42
-3658.96
-3659.5
-3660.04
-3660.58
-3661.13
-3661.67
-3662.21
-3662.75
-3663.29
-3663.84
-3664.38
-3664.92
-3665.47
-3666.01
-3666.55
-3667.09
-3667.64
-3668.18
-3668.72
-3669.27
-3669.81
-3670.35
-3670.9
-3671.44
-3671.98
-3672.53
-3673.07
-3673.61
-3674.16
-3674.7
-3675.24
-3675.79
-3676.33
-3676.88
-3677.42
-3677.97
-3678.51
-3679.05
-3679.6
-3680.14
-3680.69
-3681.23
-3681.78
-3682.32
-3682.87
-3683.41
-3683.96
-3684.5
-3685.05
-3685.59
-3686.14
-3686.68
-3687.23
-3687.77
-3688.32
-3688.86
-3689.41
-3689.96
-3690.5
-3691.05
-3691.59
-3692.14
-3692.69
-3693.23
-3693.78
-3694.32
-3694.87
-3695.42
-3695.96
-3696.51
-3697.06
-3697.6
-3698.15
-3698.7
-3699.24
-3699.79
-3700.34
-3700.88
-3701.43
-3701.98
-3702.53
-3703.07
-3703.62
-3704.17
-3704.71
-3705.26
-3705.81
-3706.36
-3706.91
-3707.45
-3708
-3708.55
-3709.1
-3709.65
-3710.19
-3710.74
-3711.29
-3711.84
-3712.39
-3712.94
-3713.48
-3714.03
-3714.58
-3715.13
-3715.68
-3716.23
-3716.78
-3717.33
-3717.88
-3718.42
-3718.97
-3719.52
-3720.07
-3720.62
-3721.17
-3721.72
-3722.27
-3722.82
-3723.37
-3723.92
-3724.47
-3725.02
-3725.57
-3726.12
-3726.67
-3727.22
-3727.77
-3728.32
-3728.87
-3729.42
-3729.97
-3730.52
-3731.07
-3731.62
-3732.17
-3732.72
-3733.28
-3733.83
-3734.38
-3734.93
-3735.48
-3736.03
-3736.58
-3737.13
-3737.68
-3738.24
-3738.79
-3739.34
-3739.89
-3740.44
-3740.99
-3741.55
-3742.1
-3742.65
-3743.2
-3743.75
-3744.31
-3744.86
-3745.41
-3745.96
-3746.52
-3747.07
-3747.62
-3748.17
-3748.73
-3749.28
-3749.83
-3750.39
-3750.94
-3751.49
-3752.04
-3752.6