/*--------------------------------*- C++ -*----------------------------------*\
  =========                 |
  \\      /  F ield         | OpenFOAM: The Open Source CFD Toolbox
   \\    /   O peration     | Website:  https://openfoam.org
    \\  /    A nd           | Version:  9
     \\/     M anipulation  |
\*---------------------------------------------------------------------------*/
FoamFile
{
    format      ascii;
    class       volScalarField;
    location    "0.048";
    object      rho;
}
// * * * * * * * * * * * * * * * * * * * * * * * * * * * * * * * * * * * * * //

dimensions      [1 -3 0 0 0 0 0];

internalField   nonuniform List<scalar> 
10000
(
0.170069
0.170067
0.170064
0.170061
0.170059
0.170056
0.170053
0.17005
0.170048
0.170045
0.170042
0.170039
0.170037
0.170034
0.170031
0.170028
0.170025
0.170023
0.17002
0.170017
0.170014
0.170012
0.170009
0.170006
0.170003
0.17
0.169998
0.169995
0.169992
0.169989
0.169987
0.169984
0.169981
0.169978
0.169976
0.169973
0.16997
0.169967
0.169965
0.169962
0.169959
0.169956
0.169954
0.169951
0.169948
0.169945
0.169943
0.16994
0.169937
0.169934
0.169932
0.169929
0.169926
0.169923
0.169921
0.169918
0.169915
0.169912
0.16991
0.169907
0.169904
0.169902
0.169899
0.169896
0.169893
0.169891
0.169888
0.169885
0.169883
0.16988
0.169877
0.169875
0.169872
0.169869
0.169866
0.169864
0.169861
0.169858
0.169856
0.169853
0.16985
0.169848
0.169845
0.169842
0.16984
0.169837
0.169834
0.169832
0.169829
0.169826
0.169824
0.169821
0.169818
0.169816
0.169813
0.16981
0.169808
0.169805
0.169802
0.1698
0.169797
0.169795
0.169792
0.169789
0.169787
0.169784
0.169781
0.169779
0.169776
0.169774
0.169771
0.169768
0.169766
0.169763
0.16976
0.169758
0.169755
0.169753
0.16975
0.169747
0.169745
0.169742
0.16974
0.169737
0.169734
0.169732
0.169729
0.169727
0.169724
0.169722
0.169719
0.169717
0.169714
0.169711
0.169709
0.169706
0.169704
0.169701
0.169699
0.169696
0.169694
0.169691
0.169688
0.169686
0.169683
0.169681
0.169678
0.169676
0.169673
0.169671
0.169668
0.169666
0.169663
0.169661
0.169658
0.169656
0.169653
0.169651
0.169648
0.169646
0.169643
0.169641
0.169638
0.169636
0.169633
0.169631
0.169628
0.169626
0.169623
0.169621
0.169618
0.169616
0.169613
0.169611
0.169609
0.169606
0.169604
0.169601
0.169599
0.169596
0.169594
0.169591
0.169589
0.169586
0.169584
0.169582
0.169579
0.169577
0.169575
0.169572
0.16957
0.169567
0.169565
0.169562
0.16956
0.169557
0.169555
0.169553
0.16955
0.169548
0.169546
0.169544
0.169541
0.169539
0.169537
0.169534
0.169532
0.169529
0.169527
0.169524
0.169522
0.16952
0.169517
0.169515
0.169513
0.16951
0.169508
0.169506
0.169504
0.169502
0.169499
0.169497
0.169495
0.169492
0.16949
0.169488
0.169485
0.169483
0.16948
0.169478
0.169476
0.169473
0.169471
0.169469
0.169467
0.169465
0.169463
0.169461
0.169459
0.169457
0.169454
0.169452
0.16945
0.169448
0.169445
0.169443
0.169441
0.169438
0.169436
0.169434
0.169431
0.169429
0.169427
0.169425
0.169422
0.16942
0.169418
0.169416
0.169415
0.169413
0.169411
0.169409
0.169407
0.169405
0.169403
0.169401
0.169399
0.169397
0.169395
0.169393
0.169391
0.169389
0.169386
0.169384
0.169382
0.169379
0.169377
0.169374
0.169372
0.16937
0.169367
0.169365
0.169363
0.169361
0.169358
0.169356
0.169355
0.169353
0.169351
0.169349
0.169348
0.169347
0.169345
0.169344
0.169343
0.169342
0.169341
0.16934
0.169339
0.169339
0.169338
0.169337
0.169337
0.169336
0.169335
0.169335
0.169334
0.169334
0.169333
0.169333
0.169332
0.169332
0.169331
0.169331
0.16933
0.16933
0.16933
0.16933
0.16933
0.169329
0.169329
0.169329
0.169329
0.169329
0.169328
0.169328
0.169328
0.169328
0.169328
0.169328
0.169327
0.169327
0.169327
0.169327
0.169327
0.169327
0.169327
0.169326
0.169326
0.169326
0.169326
0.169326
0.169326
0.169326
0.169326
0.169326
0.169325
0.169325
0.169325
0.169325
0.169325
0.169325
0.169325
0.169325
0.169325
0.169325
0.169325
0.169325
0.169325
0.169325
0.169324
0.169324
0.169324
0.169324
0.169324
0.169324
0.169324
0.169324
0.169324
0.169324
0.169324
0.169324
0.169324
0.169324
0.169324
0.169324
0.169324
0.169324
0.169324
0.169325
0.169325
0.169325
0.169325
0.169325
0.169325
0.169325
0.169325
0.169325
0.169325
0.169325
0.169325
0.169325
0.169326
0.169326
0.169326
0.169326
0.169326
0.169326
0.169326
0.169326
0.169327
0.169327
0.169327
0.169327
0.169327
0.169327
0.169327
0.169328
0.169328
0.169328
0.169328
0.169328
0.169329
0.169329
0.169329
0.169329
0.16933
0.16933
0.16933
0.16933
0.169331
0.169331
0.169331
0.169331
0.169332
0.169332
0.169332
0.169332
0.169333
0.169333
0.169333
0.169334
0.169334
0.169334
0.169335
0.169335
0.169335
0.169336
0.169336
0.169336
0.169337
0.169337
0.169338
0.169338
0.169338
0.169339
0.169339
0.16934
0.16934
0.16934
0.169341
0.169341
0.169342
0.169342
0.169343
0.169343
0.169344
0.169344
0.169345
0.169345
0.169346
0.169346
0.169347
0.169347
0.169348
0.169348
0.169349
0.169349
0.16935
0.16935
0.169351
0.169352
0.169352
0.169353
0.169353
0.169354
0.169355
0.169355
0.169356
0.169356
0.169357
0.169358
0.169358
0.169359
0.16936
0.16936
0.169361
0.169362
0.169363
0.169363
0.169364
0.169365
0.169365
0.169366
0.169367
0.169368
0.169369
0.169369
0.16937
0.169371
0.169372
0.169373
0.169373
0.169374
0.169375
0.169376
0.169377
0.169378
0.169379
0.169379
0.16938
0.169381
0.169382
0.169383
0.169384
0.169385
0.169386
0.169387
0.169388
0.169389
0.16939
0.169391
0.169392
0.169393
0.169394
0.169395
0.169396
0.169397
0.169398
0.169399
0.1694
0.169401
0.169403
0.169404
0.169405
0.169406
0.169407
0.169408
0.169409
0.169411
0.169412
0.169413
0.169414
0.169416
0.169417
0.169418
0.169419
0.169421
0.169422
0.169423
0.169424
0.169426
0.169427
0.169428
0.16943
0.169431
0.169433
0.169434
0.169435
0.169437
0.169438
0.16944
0.169441
0.169442
0.169444
0.169445
0.169447
0.169448
0.16945
0.169451
0.169453
0.169455
0.169456
0.169458
0.169459
0.169461
0.169463
0.169464
0.169466
0.169468
0.169469
0.169471
0.169473
0.169474
0.169476
0.169478
0.16948
0.169481
0.169483
0.169485
0.169487
0.169489
0.16949
0.169492
0.169494
0.169496
0.169498
0.1695
0.169502
0.169504
0.169506
0.169508
0.16951
0.169512
0.169514
0.169516
0.169518
0.16952
0.169522
0.169524
0.169526
0.169528
0.16953
0.169532
0.169534
0.169537
0.169539
0.169541
0.169543
0.169546
0.169548
0.16955
0.169552
0.169555
0.169557
0.169559
0.169562
0.169564
0.169566
0.169569
0.169571
0.169574
0.169576
0.169579
0.169581
0.169584
0.169586
0.169589
0.169591
0.169594
0.169596
0.169599
0.169602
0.169604
0.169607
0.16961
0.169612
0.169615
0.169618
0.169621
0.169623
0.169626
0.169629
0.169632
0.169635
0.169638
0.16964
0.169643
0.169646
0.169649
0.169652
0.169655
0.169658
0.169661
0.169664
0.169667
0.16967
0.169674
0.169677
0.16968
0.169683
0.169686
0.169689
0.169693
0.169696
0.169699
0.169702
0.169706
0.169709
0.169712
0.169716
0.169719
0.169722
0.169726
0.169729
0.169733
0.169736
0.16974
0.169743
0.169747
0.16975
0.169754
0.169758
0.169761
0.169765
0.169769
0.169772
0.169776
0.16978
0.169783
0.169787
0.169791
0.169795
0.169799
0.169803
0.169807
0.16981
0.169814
0.169818
0.169822
0.169826
0.16983
0.169834
0.169838
0.169843
0.169847
0.169851
0.169855
0.169859
0.169863
0.169868
0.169872
0.169876
0.16988
0.169885
0.169889
0.169893
0.169898
0.169902
0.169907
0.169911
0.169915
0.16992
0.169924
0.169929
0.169934
0.169938
0.169943
0.169947
0.169952
0.169957
0.169961
0.169966
0.169971
0.169976
0.16998
0.169985
0.16999
0.169995
0.17
0.170005
0.17001
0.170015
0.17002
0.170025
0.17003
0.170035
0.17004
0.170045
0.17005
0.170055
0.17006
0.170065
0.170071
0.170076
0.170081
0.170086
0.170092
0.170097
0.170102
0.170108
0.170113
0.170118
0.170124
0.170129
0.170135
0.17014
0.170146
0.170151
0.170157
0.170162
0.170168
0.170174
0.170179
0.170185
0.170191
0.170196
0.170202
0.170208
0.170214
0.170219
0.170225
0.170231
0.170237
0.170243
0.170249
0.170254
0.17026
0.170266
0.170272
0.170278
0.170284
0.17029
0.170296
0.170302
0.170309
0.170315
0.170321
0.170327
0.170333
0.170339
0.170345
0.170352
0.170358
0.170364
0.17037
0.170377
0.170383
0.170389
0.170396
0.170402
0.170409
0.170415
0.170421
0.170428
0.170434
0.170441
0.170447
0.170454
0.17046
0.170467
0.170473
0.17048
0.170486
0.170493
0.1705
0.170506
0.170513
0.17052
0.170526
0.170533
0.17054
0.170546
0.170553
0.17056
0.170567
0.170574
0.17058
0.170587
0.170594
0.170601
0.170608
0.170615
0.170621
0.170628
0.170635
0.170642
0.170649
0.170656
0.170663
0.17067
0.170677
0.170684
0.170691
0.170698
0.170705
0.170712
0.170719
0.170726
0.170733
0.17074
0.170748
0.170755
0.170762
0.170769
0.170776
0.170783
0.17079
0.170798
0.170805
0.170812
0.170819
0.170826
0.170834
0.170841
0.170848
0.170855
0.170863
0.17087
0.170877
0.170884
0.170892
0.170899
0.170906
0.170914
0.170921
0.170928
0.170936
0.170943
0.17095
0.170958
0.170965
0.170972
0.17098
0.170987
0.170995
0.171002
0.171009
0.171017
0.171024
0.171032
0.171039
0.171047
0.171054
0.171062
0.171069
0.171076
0.171084
0.171091
0.171099
0.171106
0.171114
0.171121
0.171129
0.171136
0.171144
0.171151
0.171159
0.171167
0.171174
0.171182
0.171189
0.171197
0.171204
0.171212
0.171219
0.171227
0.171235
0.171242
0.17125
0.171257
0.171265
0.171272
0.17128
0.171288
0.171295
0.171303
0.17131
0.171318
0.171326
0.171333
0.171341
0.171349
0.171356
0.171364
0.171371
0.171379
0.171387
0.171394
0.171402
0.17141
0.171417
0.171425
0.171433
0.17144
0.171448
0.171456
0.171463
0.171471
0.171479
0.171486
0.171494
0.171502
0.171509
0.171517
0.171525
0.171532
0.17154
0.171548
0.171555
0.171563
0.171571
0.171578
0.171586
0.171594
0.171601
0.171609
0.171617
0.171625
0.171632
0.17164
0.171648
0.171655
0.171663
0.171671
0.171678
0.171686
0.171694
0.171702
0.171709
0.171717
0.171725
0.171732
0.17174
0.171748
0.171756
0.171763
0.171771
0.171779
0.171787
0.171794
0.171802
0.17181
0.171817
0.171825
0.171833
0.171841
0.171848
0.171856
0.171864
0.171872
0.171879
0.171887
0.171895
0.171903
0.17191
0.171918
0.171926
0.171934
0.171941
0.171949
0.171957
0.171965
0.171972
0.17198
0.171988
0.171996
0.172003
0.172011
0.172019
0.172027
0.172034
0.172042
0.17205
0.172058
0.172065
0.172073
0.172081
0.172089
0.172096
0.172104
0.172112
0.17212
0.172127
0.172135
0.172143
0.172151
0.172158
0.172166
0.172174
0.172182
0.17219
0.172197
0.172205
0.172213
0.172221
0.172228
0.172236
0.172244
0.172252
0.172259
0.172267
0.172275
0.172283
0.172291
0.172298
0.172306
0.172314
0.172322
0.172329
0.172337
0.172345
0.172353
0.172361
0.172368
0.172376
0.172384
0.172392
0.172399
0.172407
0.172415
0.172423
0.172431
0.172438
0.172446
0.172454
0.172462
0.172469
0.172477
0.172485
0.172493
0.172501
0.172508
0.172516
0.172524
0.172532
0.17254
0.172547
0.172555
0.172563
0.172571
0.172579
0.172586
0.172594
0.172602
0.17261
0.172617
0.172625
0.172633
0.172641
0.172649
0.172656
0.172664
0.172672
0.17268
0.172688
0.172695
0.172703
0.172711
0.172719
0.172727
0.172734
0.172742
0.17275
0.172758
0.172766
0.172774
0.172781
0.172789
0.172797
0.172805
0.172813
0.17282
0.172828
0.172836
0.172844
0.172852
0.172859
0.172867
0.172875
0.172883
0.172891
0.172898
0.172906
0.172914
0.172922
0.17293
0.172938
0.172945
0.172953
0.172961
0.172969
0.172977
0.172984
0.172992
0.173
0.173008
0.173016
0.173024
0.173031
0.173039
0.173047
0.173055
0.173063
0.17307
0.173078
0.173086
0.173094
0.173102
0.17311
0.173117
0.173125
0.173133
0.173141
0.173149
0.173157
0.173164
0.173172
0.17318
0.173188
0.173196
0.173204
0.173211
0.173219
0.173227
0.173235
0.173243
0.173251
0.173258
0.173266
0.173274
0.173282
0.17329
0.173298
0.173305
0.173313
0.173321
0.173329
0.173337
0.173345
0.173352
0.17336
0.173368
0.173376
0.173384
0.173392
0.1734
0.173407
0.173415
0.173423
0.173431
0.173439
0.173447
0.173454
0.173462
0.17347
0.173478
0.173486
0.173494
0.173502
0.173509
0.173517
0.173525
0.173533
0.173541
0.173549
0.173556
0.173564
0.173572
0.17358
0.173588
0.173596
0.173604
0.173611
0.173619
0.173627
0.173635
0.173643
0.173651
0.173659
0.173666
0.173674
0.173682
0.17369
0.173698
0.173706
0.173714
0.173722
0.173729
0.173737
0.173745
0.173753
0.173761
0.173769
0.173777
0.173784
0.173792
0.1738
0.173808
0.173816
0.173824
0.173832
0.17384
0.173847
0.173855
0.173863
0.173871
0.173879
0.173887
0.173895
0.173903
0.17391
0.173918
0.173926
0.173934
0.173942
0.17395
0.173958
0.173966
0.173973
0.173981
0.173989
0.173997
0.174005
0.174013
0.174021
0.174029
0.174036
0.174044
0.174052
0.17406
0.174068
0.174076
0.174084
0.174092
0.1741
0.174107
0.174115
0.174123
0.174131
0.174139
0.174147
0.174155
0.174163
0.174171
0.174178
0.174186
0.174194
0.174202
0.17421
0.174218
0.174226
0.174234
0.174242
0.17425
0.174257
0.174265
0.174273
0.174281
0.174289
0.174297
0.174305
0.174313
0.174321
0.174329
0.174336
0.174344
0.174352
0.17436
0.174368
0.174376
0.174384
0.174392
0.1744
0.174408
0.174415
0.174423
0.174431
0.174439
0.174447
0.174455
0.174463
0.174471
0.174479
0.174487
0.174495
0.174502
0.17451
0.174518
0.174526
0.174534
0.174542
0.17455
0.174558
0.174566
0.174574
0.174582
0.17459
0.174597
0.174605
0.174613
0.174621
0.174629
0.174637
0.174645
0.174653
0.174661
0.174669
0.174677
0.174685
0.174692
0.1747
0.174708
0.174716
0.174724
0.174732
0.17474
0.174748
0.174756
0.174764
0.174772
0.17478
0.174788
0.174796
0.174803
0.174811
0.174819
0.174827
0.174835
0.174843
0.174851
0.174859
0.174867
0.174875
0.174883
0.174891
0.174899
0.174907
0.174915
0.174922
0.17493
0.174938
0.174946
0.174954
0.174962
0.17497
0.174978
0.174986
0.174994
0.175002
0.17501
0.175018
0.175026
0.175034
0.175042
0.17505
0.175058
0.175065
0.175073
0.175081
0.175089
0.175097
0.175105
0.175113
0.175121
0.175129
0.175137
0.175145
0.175153
0.175161
0.175169
0.175177
0.175185
0.175193
0.175201
0.175209
0.175217
0.175224
0.175232
0.17524
0.175248
0.175256
0.175264
0.175272
0.17528
0.175288
0.175296
0.175304
0.175312
0.17532
0.175328
0.175336
0.175344
0.175352
0.17536
0.175368
0.175376
0.175384
0.175392
0.1754
0.175408
0.175416
0.175424
0.175432
0.175439
0.175447
0.175455
0.175463
0.175471
0.175479
0.175487
0.175495
0.175503
0.175511
0.175519
0.175527
0.175535
0.175543
0.175551
0.175559
0.175567
0.175575
0.175583
0.175591
0.175599
0.175607
0.175615
0.175623
0.175631
0.175639
0.175647
0.175655
0.175663
0.175671
0.175679
0.175687
0.175695
0.175703
0.175711
0.175719
0.175727
0.175735
0.175743
0.175751
0.175759
0.175767
0.175775
0.175783
0.175791
0.175799
0.175807
0.175815
0.175823
0.175831
0.175839
0.175847
0.175855
0.175863
0.175871
0.175879
0.175887
0.175895
0.175903
0.175911
0.175919
0.175927
0.175935
0.175943
0.175951
0.175959
0.175967
0.175975
0.175983
0.175991
0.175999
0.176007
0.176015
0.176023
0.176031
0.176039
0.176047
0.176055
0.176063
0.176071
0.176079
0.176087
0.176095
0.176103
0.176111
0.176119
0.176127
0.176135
0.176143
0.176151
0.176159
0.176167
0.176175
0.176183
0.176191
0.176199
0.176207
0.176215
0.176223
0.176231
0.176239
0.176247
0.176255
0.176263
0.176271
0.176279
0.176287
0.176295
0.176303
0.176311
0.176319
0.176327
0.176335
0.176343
0.176351
0.176359
0.176367
0.176375
0.176383
0.176391
0.176399
0.176407
0.176415
0.176423
0.176431
0.176439
0.176447
0.176455
0.176463
0.176472
0.17648
0.176488
0.176496
0.176504
0.176512
0.17652
0.176528
0.176536
0.176544
0.176552
0.17656
0.176568
0.176576
0.176584
0.176592
0.1766
0.176608
0.176616
0.176624
0.176632
0.17664
0.176648
0.176656
0.176664
0.176672
0.17668
0.176689
0.176697
0.176705
0.176713
0.176721
0.176729
0.176737
0.176745
0.176753
0.176761
0.176769
0.176777
0.176785
0.176793
0.176801
0.176809
0.176817
0.176825
0.176833
0.176841
0.176849
0.176858
0.176866
0.176874
0.176882
0.17689
0.176898
0.176906
0.176914
0.176922
0.17693
0.176938
0.176946
0.176954
0.176962
0.17697
0.176978
0.176986
0.176995
0.177003
0.177011
0.177019
0.177027
0.177035
0.177043
0.177051
0.177059
0.177067
0.177075
0.177083
0.177091
0.177099
0.177107
0.177115
0.177124
0.177132
0.17714
0.177148
0.177156
0.177164
0.177172
0.17718
0.177188
0.177196
0.177204
0.177212
0.17722
0.177228
0.177237
0.177245
0.177253
0.177261
0.177269
0.177277
0.177285
0.177293
0.177301
0.177309
0.177317
0.177325
0.177334
0.177342
0.17735
0.177358
0.177366
0.177374
0.177382
0.17739
0.177398
0.177406
0.177414
0.177422
0.177431
0.177439
0.177447
0.177455
0.177463
0.177471
0.177479
0.177487
0.177495
0.177503
0.177511
0.177519
0.177528
0.177536
0.177544
0.177552
0.17756
0.177568
0.177576
0.177584
0.177592
0.1776
0.177609
0.177617
0.177625
0.177633
0.177641
0.177649
0.177657
0.177665
0.177673
0.177681
0.17769
0.177698
0.177706
0.177714
0.177722
0.17773
0.177738
0.177746
0.177754
0.177762
0.177771
0.177779
0.177787
0.177795
0.177803
0.177811
0.177819
0.177827
0.177835
0.177844
0.177852
0.17786
0.177868
0.177876
0.177884
0.177892
0.1779
0.177908
0.177917
0.177925
0.177933
0.177941
0.177949
0.177957
0.177965
0.177973
0.177981
0.17799
0.177998
0.178006
0.178014
0.178022
0.17803
0.178038
0.178046
0.178055
0.178063
0.178071
0.178079
0.178087
0.178095
0.178103
0.178111
0.17812
0.178128
0.178136
0.178144
0.178152
0.17816
0.178168
0.178176
0.178185
0.178193
0.178201
0.178209
0.178217
0.178225
0.178233
0.178242
0.17825
0.178258
0.178266
0.178274
0.178282
0.17829
0.178298
0.178307
0.178315
0.178323
0.178331
0.178339
0.178347
0.178355
0.178364
0.178372
0.17838
0.178388
0.178396
0.178404
0.178412
0.178421
0.178429
0.178437
0.178445
0.178453
0.178461
0.178469
0.178478
0.178486
0.178494
0.178502
0.17851
0.178518
0.178526
0.178535
0.178543
0.178551
0.178559
0.178567
0.178575
0.178584
0.178592
0.1786
0.178608
0.178616
0.178624
0.178632
0.178641
0.178649
0.178657
0.178665
0.178673
0.178681
0.17869
0.178698
0.178706
0.178714
0.178722
0.17873
0.178739
0.178747
0.178755
0.178763
0.178771
0.178779
0.178788
0.178796
0.178804
0.178812
0.17882
0.178828
0.178837
0.178845
0.178853
0.178861
0.178869
0.178877
0.178886
0.178894
0.178902
0.17891
0.178918
0.178926
0.178935
0.178943
0.178951
0.178959
0.178967
0.178975
0.178984
0.178992
0.179
0.179008
0.179016
0.179025
0.179033
0.179041
0.179049
0.179057
0.179065
0.179074
0.179082
0.17909
0.179098
0.179106
0.179115
0.179123
0.179131
0.179139
0.179147
0.179155
0.179164
0.179172
0.17918
0.179188
0.179196
0.179205
0.179213
0.179221
0.179229
0.179237
0.179246
0.179254
0.179262
0.17927
0.179278
0.179287
0.179295
0.179303
0.179311
0.179319
0.179327
0.179336
0.179344
0.179352
0.17936
0.179368
0.179377
0.179385
0.179393
0.179401
0.179409
0.179418
0.179426
0.179434
0.179442
0.179451
0.179459
0.179467
0.179475
0.179483
0.179492
0.1795
0.179508
0.179516
0.179524
0.179533
0.179541
0.179549
0.179557
0.179565
0.179574
0.179582
0.17959
0.179598
0.179606
0.179615
0.179623
0.179631
0.179639
0.179648
0.179656
0.179664
0.179672
0.17968
0.179689
0.179697
0.179705
0.179713
0.179722
0.17973
0.179738
0.179746
0.179754
0.179763
0.179771
0.179779
0.179787
0.179796
0.179804
0.179812
0.17982
0.179828
0.179837
0.179845
0.179853
0.179861
0.17987
0.179878
0.179886
0.179894
0.179902
0.179911
0.179919
0.179927
0.179935
0.179944
0.179952
0.17996
0.179968
0.179977
0.179985
0.179993
0.180001
0.18001
0.180018
0.180026
0.180034
0.180042
0.180051
0.180059
0.180067
0.180075
0.180084
0.180092
0.1801
0.180108
0.180117
0.180125
0.180133
0.180141
0.18015
0.180158
0.180166
0.180174
0.180183
0.180191
0.180199
0.180207
0.180216
0.180224
0.180232
0.18024
0.180249
0.180257
0.180265
0.180273
0.180282
0.18029
0.180298
0.180306
0.180315
0.180323
0.180331
0.180339
0.180348
0.180356
0.180364
0.180372
0.180381
0.180389
0.180397
0.180405
0.180414
0.180422
0.18043
0.180439
0.180447
0.180455
0.180463
0.180472
0.18048
0.180488
0.180496
0.180505
0.180513
0.180521
0.180529
0.180538
0.180546
0.180554
0.180563
0.180571
0.180579
0.180587
0.180596
0.180604
0.180612
0.18062
0.180629
0.180637
0.180645
0.180654
0.180662
0.18067
0.180678
0.180687
0.180695
0.180703
0.180711
0.18072
0.180728
0.180736
0.180745
0.180753
0.180761
0.180769
0.180778
0.180786
0.180794
0.180803
0.180811
0.180819
0.180827
0.180836
0.180844
0.180852
0.180861
0.180869
0.180877
0.180885
0.180894
0.180902
0.18091
0.180919
0.180927
0.180935
0.180943
0.180952
0.18096
0.180968
0.180977
0.180985
0.180993
0.181001
0.18101
0.181018
0.181026
0.181035
0.181043
0.181051
0.18106
0.181068
0.181076
0.181084
0.181093
0.181101
0.181109
0.181118
0.181126
0.181134
0.181143
0.181151
0.181159
0.181167
0.181176
0.181184
0.181192
0.181201
0.181209
0.181217
0.181226
0.181234
0.181242
0.181251
0.181259
0.181267
0.181275
0.181284
0.181292
0.1813
0.181309
0.181317
0.181325
0.181334
0.181342
0.18135
0.181359
0.181367
0.181375
0.181384
0.181392
0.1814
0.181408
0.181417
0.181425
0.181433
0.181442
0.18145
0.181458
0.181467
0.181475
0.181483
0.181492
0.1815
0.181508
0.181517
0.181525
0.181533
0.181542
0.18155
0.181558
0.181567
0.181575
0.181583
0.181592
0.1816
0.181608
0.181617
0.181625
0.181633
0.181642
0.18165
0.181658
0.181667
0.181675
0.181683
0.181692
0.1817
0.181708
0.181717
0.181725
0.181733
0.181742
0.18175
0.181758
0.181767
0.181775
0.181783
0.181792
0.1818
0.181808
0.181817
0.181825
0.181833
0.181842
0.18185
0.181858
0.181867
0.181875
0.181883
0.181892
0.1819
0.181908
0.181917
0.181925
0.181933
0.181942
0.18195
0.181959
0.181967
0.181975
0.181984
0.181992
0.182
0.182009
0.182017
0.182025
0.182034
0.182042
0.18205
0.182059
0.182067
0.182075
0.182084
0.182092
0.182101
0.182109
0.182117
0.182126
0.182134
0.182142
0.182151
0.182159
0.182167
0.182176
0.182184
0.182192
0.182201
0.182209
0.182218
0.182226
0.182234
0.182243
0.182251
0.182259
0.182268
0.182276
0.182284
0.182293
0.182301
0.18231
0.182318
0.182326
0.182335
0.182343
0.182351
0.18236
0.182368
0.182377
0.182385
0.182393
0.182402
0.18241
0.182418
0.182427
0.182435
0.182444
0.182452
0.18246
0.182469
0.182477
0.182485
0.182494
0.182502
0.182511
0.182519
0.182527
0.182536
0.182544
0.182552
0.182561
0.182569
0.182578
0.182586
0.182594
0.182603
0.182611
0.18262
0.182628
0.182636
0.182645
0.182653
0.182661
0.18267
0.182678
0.182687
0.182695
0.182703
0.182712
0.18272
0.182729
0.182737
0.182745
0.182754
0.182762
0.182771
0.182779
0.182787
0.182796
0.182804
0.182813
0.182821
0.182829
0.182838
0.182846
0.182855
0.182863
0.182871
0.18288
0.182888
0.182897
0.182905
0.182913
0.182922
0.18293
0.182939
0.182947
0.182955
0.182964
0.182972
0.182981
0.182989
0.182997
0.183006
0.183014
0.183023
0.183031
0.183039
0.183048
0.183056
0.183065
0.183073
0.183081
0.18309
0.183098
0.183107
0.183115
0.183124
0.183132
0.18314
0.183149
0.183157
0.183166
0.183174
0.183182
0.183191
0.183199
0.183208
0.183216
0.183225
0.183233
0.183241
0.18325
0.183258
0.183267
0.183275
0.183284
0.183292
0.1833
0.183309
0.183317
0.183326
0.183334
0.183342
0.183351
0.183359
0.183368
0.183376
0.183385
0.183393
0.183401
0.18341
0.183418
0.183427
0.183435
0.183444
0.183452
0.183461
0.183469
0.183477
0.183486
0.183494
0.183503
0.183511
0.18352
0.183528
0.183536
0.183545
0.183553
0.183562
0.18357
0.183579
0.183587
0.183596
0.183604
0.183612
0.183621
0.183629
0.183638
0.183646
0.183655
0.183663
0.183672
0.18368
0.183688
0.183697
0.183705
0.183714
0.183722
0.183731
0.183739
0.183748
0.183756
0.183764
0.183773
0.183781
0.18379
0.183798
0.183807
0.183815
0.183824
0.183832
0.183841
0.183849
0.183857
0.183866
0.183874
0.183883
0.183891
0.1839
0.183908
0.183917
0.183925
0.183934
0.183942
0.18395
0.183959
0.183967
0.183976
0.183984
0.183993
0.184001
0.18401
0.184018
0.184027
0.184035
0.184044
0.184052
0.184061
0.184069
0.184077
0.184086
0.184094
0.184103
0.184111
0.18412
0.184128
0.184137
0.184145
0.184154
0.184162
0.184171
0.184179
0.184188
0.184196
0.184205
0.184213
0.184221
0.18423
0.184238
0.184247
0.184255
0.184264
0.184272
0.184281
0.184289
0.184298
0.184306
0.184315
0.184323
0.184332
0.18434
0.184349
0.184357
0.184366
0.184374
0.184383
0.184391
0.1844
0.184408
0.184417
0.184425
0.184434
0.184442
0.184451
0.184459
0.184468
0.184476
0.184485
0.184493
0.184501
0.18451
0.184518
0.184527
0.184535
0.184544
0.184552
0.184561
0.184569
0.184578
0.184586
0.184595
0.184603
0.184612
0.18462
0.184629
0.184637
0.184646
0.184654
0.184663
0.184671
0.18468
0.184688
0.184697
0.184705
0.184714
0.184722
0.184731
0.184739
0.184748
0.184757
0.184765
0.184774
0.184782
0.184791
0.184799
0.184808
0.184816
0.184825
0.184833
0.184842
0.18485
0.184859
0.184867
0.184876
0.184884
0.184893
0.184901
0.18491
0.184918
0.184927
0.184935
0.184944
0.184952
0.184961
0.184969
0.184978
0.184986
0.184995
0.185003
0.185012
0.18502
0.185029
0.185038
0.185046
0.185055
0.185063
0.185072
0.18508
0.185089
0.185097
0.185106
0.185114
0.185123
0.185131
0.18514
0.185148
0.185157
0.185165
0.185174
0.185182
0.185191
0.1852
0.185208
0.185217
0.185225
0.185234
0.185242
0.185251
0.185259
0.185268
0.185276
0.185285
0.185293
0.185302
0.185311
0.185319
0.185328
0.185336
0.185345
0.185353
0.185362
0.18537
0.185379
0.185387
0.185396
0.185404
0.185413
0.185422
0.18543
0.185439
0.185447
0.185456
0.185464
0.185473
0.185481
0.18549
0.185498
0.185507
0.185516
0.185524
0.185533
0.185541
0.18555
0.185558
0.185567
0.185575
0.185584
0.185593
0.185601
0.18561
0.185618
0.185627
0.185635
0.185644
0.185652
0.185661
0.18567
0.185678
0.185687
0.185695
0.185704
0.185712
0.185721
0.18573
0.185738
0.185747
0.185755
0.185764
0.185772
0.185781
0.185789
0.185798
0.185807
0.185815
0.185824
0.185832
0.185841
0.185849
0.185858
0.185867
0.185875
0.185884
0.185892
0.185901
0.185909
0.185918
0.185927
0.185935
0.185944
0.185952
0.185961
0.185969
0.185978
0.185987
0.185995
0.186004
0.186012
0.186021
0.186029
0.186038
0.186047
0.186055
0.186064
0.186072
0.186081
0.18609
0.186098
0.186107
0.186115
0.186124
0.186132
0.186141
0.18615
0.186158
0.186167
0.186175
0.186184
0.186193
0.186201
0.18621
0.186218
0.186227
0.186236
0.186244
0.186253
0.186261
0.18627
0.186279
0.186287
0.186296
0.186304
0.186313
0.186321
0.18633
0.186339
0.186347
0.186356
0.186364
0.186373
0.186382
0.18639
0.186399
0.186407
0.186416
0.186425
0.186433
0.186442
0.18645
0.186459
0.186468
0.186476
0.186485
0.186493
0.186502
0.186511
0.186519
0.186528
0.186537
0.186545
0.186554
0.186562
0.186571
0.18658
0.186588
0.186597
0.186605
0.186614
0.186623
0.186631
0.18664
0.186648
0.186657
0.186666
0.186674
0.186683
0.186692
0.1867
0.186709
0.186717
0.186726
0.186735
0.186743
0.186752
0.186761
0.186769
0.186778
0.186786
0.186795
0.186804
0.186812
0.186821
0.186829
0.186838
0.186847
0.186855
0.186864
0.186873
0.186881
0.18689
0.186898
0.186907
0.186916
0.186924
0.186933
0.186942
0.18695
0.186959
0.186968
0.186976
0.186985
0.186993
0.187002
0.187011
0.187019
0.187028
0.187037
0.187045
0.187054
0.187063
0.187071
0.18708
0.187088
0.187097
0.187106
0.187114
0.187123
0.187132
0.18714
0.187149
0.187158
0.187166
0.187175
0.187183
0.187192
0.187201
0.187209
0.187218
0.187227
0.187235
0.187244
0.187253
0.187261
0.18727
0.187279
0.187287
0.187296
0.187305
0.187313
0.187322
0.187331
0.187339
0.187348
0.187356
0.187365
0.187374
0.187382
0.187391
0.1874
0.187408
0.187417
0.187426
0.187434
0.187443
0.187452
0.18746
0.187469
0.187478
0.187486
0.187495
0.187504
0.187512
0.187521
0.18753
0.187538
0.187547
0.187556
0.187564
0.187573
0.187582
0.18759
0.187599
0.187608
0.187616
0.187625
0.187634
0.187642
0.187651
0.18766
0.187668
0.187677
0.187686
0.187694
0.187703
0.187712
0.18772
0.187729
0.187738
0.187746
0.187755
0.187764
0.187772
0.187781
0.18779
0.187798
0.187807
0.187816
0.187824
0.187833
0.187842
0.187851
0.187859
0.187868
0.187877
0.187885
0.187894
0.187903
0.187911
0.18792
0.187929
0.187937
0.187946
0.187955
0.187963
0.187972
0.187981
0.187989
0.187998
0.188007
0.188016
0.188024
0.188033
0.188042
0.18805
0.188059
0.188068
0.188076
0.188085
0.188094
0.188102
0.188111
0.18812
0.188129
0.188137
0.188146
0.188155
0.188163
0.188172
0.188181
0.188189
0.188198
0.188207
0.188216
0.188224
0.188233
0.188242
0.18825
0.188259
0.188268
0.188276
0.188285
0.188294
0.188303
0.188311
0.18832
0.188329
0.188337
0.188346
0.188355
0.188364
0.188372
0.188381
0.18839
0.188398
0.188407
0.188416
0.188425
0.188433
0.188442
0.188451
0.188459
0.188468
0.188477
0.188486
0.188494
0.188503
0.188512
0.18852
0.188529
0.188538
0.188547
0.188555
0.188564
0.188573
0.188581
0.18859
0.188599
0.188608
0.188616
0.188625
0.188634
0.188643
0.188651
0.18866
0.188669
0.188677
0.188686
0.188695
0.188704
0.188712
0.188721
0.18873
0.188739
0.188747
0.188756
0.188765
0.188773
0.188782
0.188791
0.1888
0.188808
0.188817
0.188826
0.188835
0.188843
0.188852
0.188861
0.18887
0.188878
0.188887
0.188896
0.188904
0.188913
0.188922
0.188931
0.188939
0.188948
0.188957
0.188966
0.188974
0.188983
0.188992
0.189001
0.189009
0.189018
0.189027
0.189036
0.189044
0.189053
0.189062
0.189071
0.189079
0.189088
0.189097
0.189106
0.189114
0.189123
0.189132
0.189141
0.189149
0.189158
0.189167
0.189176
0.189184
0.189193
0.189202
0.189211
0.189219
0.189228
0.189237
0.189246
0.189254
0.189263
0.189272
0.189281
0.18929
0.189298
0.189307
0.189316
0.189325
0.189333
0.189342
0.189351
0.18936
0.189368
0.189377
0.189386
0.189395
0.189403
0.189412
0.189421
0.18943
0.189439
0.189447
0.189456
0.189465
0.189474
0.189482
0.189491
0.1895
0.189509
0.189517
0.189526
0.189535
0.189544
0.189553
0.189561
0.18957
0.189579
0.189588
0.189596
0.189605
0.189614
0.189623
0.189632
0.18964
0.189649
0.189658
0.189667
0.189676
0.189684
0.189693
0.189702
0.189711
0.189719
0.189728
0.189737
0.189746
0.189755
0.189763
0.189772
0.189781
0.18979
0.189799
0.189807
0.189816
0.189825
0.189834
0.189842
0.189851
0.18986
0.189869
0.189878
0.189886
0.189895
0.189904
0.189913
0.189922
0.18993
0.189939
0.189948
0.189957
0.189966
0.189974
0.189983
0.189992
0.190001
0.19001
0.190018
0.190027
0.190036
0.190045
0.190054
0.190062
0.190071
0.19008
0.190089
0.190098
0.190106
0.190115
0.190124
0.190133
0.190142
0.190151
0.190159
0.190168
0.190177
0.190186
0.190195
0.190203
0.190212
0.190221
0.19023
0.190239
0.190247
0.190256
0.190265
0.190274
0.190283
0.190292
0.1903
0.190309
0.190318
0.190327
0.190336
0.190344
0.190353
0.190362
0.190371
0.19038
0.190389
0.190397
0.190406
0.190415
0.190424
0.190433
0.190441
0.19045
0.190459
0.190468
0.190477
0.190486
0.190494
0.190503
0.190512
0.190521
0.19053
0.190539
0.190547
0.190556
0.190565
0.190574
0.190583
0.190592
0.1906
0.190609
0.190618
0.190627
0.190636
0.190645
0.190653
0.190662
0.190671
0.19068
0.190689
0.190698
0.190706
0.190715
0.190724
0.190733
0.190742
0.190751
0.19076
0.190768