/*--------------------------------*- C++ -*----------------------------------*\
  =========                 |
  \\      /  F ield         | OpenFOAM: The Open Source CFD Toolbox
   \\    /   O peration     | Website:  https://openfoam.org
    \\  /    A nd           | Version:  9
     \\/     M anipulation  |
\*---------------------------------------------------------------------------*/
FoamFile
{
    format      ascii;
    class       volVectorField;
    location    "0.048";
    object      U;
}
// * * * * * * * * * * * * * * * * * * * * * * * * * * * * * * * * * * * * * //

dimensions      [0 1 -1 0 0 0 0];

internalField   nonuniform List<vector> 
10000
(
(8.78444 0 0)
(8.81041 0 0)
(8.84334 0 0)
(8.87035 0 0)
(8.89391 0 0)
(8.9173 0 0)
(8.94128 0 0)
(8.96555 0 0)
(8.9898 0 0)
(9.014 0 0)
(9.03817 0 0)
(9.06235 0 0)
(9.08653 0 0)
(9.11071 0 0)
(9.13489 0 0)
(9.15907 0 0)
(9.18326 0 0)
(9.20744 0 0)
(9.23162 0 0)
(9.2558 0 0)
(9.27998 0 0)
(9.30416 0 0)
(9.32834 0 0)
(9.35252 0 0)
(9.3767 0 0)
(9.40087 0 0)
(9.42505 0 0)
(9.44923 0 0)
(9.47341 0 0)
(9.49759 0 0)
(9.52176 0 0)
(9.54594 0 0)
(9.57011 0 0)
(9.59429 0 0)
(9.61847 0 0)
(9.64264 0 0)
(9.66682 0 0)
(9.69099 0 0)
(9.71516 0 0)
(9.73934 0 0)
(9.76351 0 0)
(9.78768 0 0)
(9.81185 0 0)
(9.83603 0 0)
(9.8602 0 0)
(9.88437 0 0)
(9.90854 0 0)
(9.93271 0 0)
(9.95688 0 0)
(9.98104 0 0)
(10.0052 0 0)
(10.0294 0 0)
(10.0535 0 0)
(10.0777 0 0)
(10.1019 0 0)
(10.126 0 0)
(10.1502 0 0)
(10.1744 0 0)
(10.1985 0 0)
(10.2227 0 0)
(10.2469 0 0)
(10.271 0 0)
(10.2952 0 0)
(10.3193 0 0)
(10.3435 0 0)
(10.3677 0 0)
(10.3918 0 0)
(10.416 0 0)
(10.4401 0 0)
(10.4643 0 0)
(10.4884 0 0)
(10.5126 0 0)
(10.5368 0 0)
(10.5609 0 0)
(10.5851 0 0)
(10.6092 0 0)
(10.6334 0 0)
(10.6575 0 0)
(10.6817 0 0)
(10.7058 0 0)
(10.73 0 0)
(10.7541 0 0)
(10.7782 0 0)
(10.8024 0 0)
(10.8265 0 0)
(10.8507 0 0)
(10.8748 0 0)
(10.899 0 0)
(10.9231 0 0)
(10.9472 0 0)
(10.9714 0 0)
(10.9955 0 0)
(11.0197 0 0)
(11.0438 0 0)
(11.0679 0 0)
(11.0921 0 0)
(11.1162 0 0)
(11.1403 0 0)
(11.1645 0 0)
(11.1886 0 0)
(11.2127 0 0)
(11.2369 0 0)
(11.261 0 0)
(11.2851 0 0)
(11.3092 0 0)
(11.3334 0 0)
(11.3575 0 0)
(11.3816 0 0)
(11.4057 0 0)
(11.4298 0 0)
(11.454 0 0)
(11.4781 0 0)
(11.5022 0 0)
(11.5263 0 0)
(11.5504 0 0)
(11.5745 0 0)
(11.5987 0 0)
(11.6228 0 0)
(11.6469 0 0)
(11.671 0 0)
(11.6951 0 0)
(11.7192 0 0)
(11.7433 0 0)
(11.7674 0 0)
(11.7915 0 0)
(11.8156 0 0)
(11.8397 0 0)
(11.8638 0 0)
(11.8879 0 0)
(11.912 0 0)
(11.9361 0 0)
(11.9602 0 0)
(11.9843 0 0)
(12.0084 0 0)
(12.0325 0 0)
(12.0566 0 0)
(12.0806 0 0)
(12.1047 0 0)
(12.1288 0 0)
(12.1529 0 0)
(12.177 0 0)
(12.2011 0 0)
(12.2251 0 0)
(12.2492 0 0)
(12.2733 0 0)
(12.2974 0 0)
(12.3214 0 0)
(12.3455 0 0)
(12.3696 0 0)
(12.3936 0 0)
(12.4177 0 0)
(12.4418 0 0)
(12.4658 0 0)
(12.4899 0 0)
(12.514 0 0)
(12.538 0 0)
(12.5621 0 0)
(12.5861 0 0)
(12.6102 0 0)
(12.6342 0 0)
(12.6583 0 0)
(12.6823 0 0)
(12.7064 0 0)
(12.7304 0 0)
(12.7545 0 0)
(12.7785 0 0)
(12.8025 0 0)
(12.8266 0 0)
(12.8506 0 0)
(12.8747 0 0)
(12.8987 0 0)
(12.9227 0 0)
(12.9467 0 0)
(12.9708 0 0)
(12.9948 0 0)
(13.0188 0 0)
(13.0428 0 0)
(13.0669 0 0)
(13.0909 0 0)
(13.1149 0 0)
(13.1389 0 0)
(13.1629 0 0)
(13.1869 0 0)
(13.2109 0 0)
(13.235 0 0)
(13.259 0 0)
(13.283 0 0)
(13.307 0 0)
(13.331 0 0)
(13.355 0 0)
(13.379 0 0)
(13.4029 0 0)
(13.4269 0 0)
(13.4509 0 0)
(13.4749 0 0)
(13.4989 0 0)
(13.5229 0 0)
(13.5469 0 0)
(13.5708 0 0)
(13.5948 0 0)
(13.6188 0 0)
(13.6428 0 0)
(13.6667 0 0)
(13.6907 0 0)
(13.7147 0 0)
(13.7386 0 0)
(13.7626 0 0)
(13.7865 0 0)
(13.8105 0 0)
(13.8344 0 0)
(13.8584 0 0)
(13.8823 0 0)
(13.9063 0 0)
(13.9302 0 0)
(13.9542 0 0)
(13.9781 0 0)
(14.002 0 0)
(14.026 0 0)
(14.0499 0 0)
(14.0738 0 0)
(14.0978 0 0)
(14.1217 0 0)
(14.1456 0 0)
(14.1695 0 0)
(14.1934 0 0)
(14.2174 0 0)
(14.2413 0 0)
(14.2652 0 0)
(14.2891 0 0)
(14.313 0 0)
(14.3369 0 0)
(14.3608 0 0)
(14.3847 0 0)
(14.4086 0 0)
(14.4325 0 0)
(14.4564 0 0)
(14.4802 0 0)
(14.5041 0 0)
(14.528 0 0)
(14.5519 0 0)
(14.5757 0 0)
(14.5996 0 0)
(14.6235 0 0)
(14.6473 0 0)
(14.6712 0 0)
(14.6951 0 0)
(14.7189 0 0)
(14.7428 0 0)
(14.7666 0 0)
(14.7905 0 0)
(14.8143 0 0)
(14.8382 0 0)
(14.862 0 0)
(14.8858 0 0)
(14.9097 0 0)
(14.9335 0 0)
(14.9573 0 0)
(14.9811 0 0)
(15.005 0 0)
(15.0288 0 0)
(15.0526 0 0)
(15.0764 0 0)
(15.1002 0 0)
(15.124 0 0)
(15.1478 0 0)
(15.1716 0 0)
(15.1954 0 0)
(15.2192 0 0)
(15.243 0 0)
(15.2668 0 0)
(15.2905 0 0)
(15.3143 0 0)
(15.3381 0 0)
(15.3619 0 0)
(15.3856 0 0)
(15.4094 0 0)
(15.4331 0 0)
(15.4569 0 0)
(15.4807 0 0)
(15.5044 0 0)
(15.5282 0 0)
(15.5519 0 0)
(15.5756 0 0)
(15.5994 0 0)
(15.6231 0 0)
(15.6468 0 0)
(15.6705 0 0)
(15.6943 0 0)
(15.718 0 0)
(15.7417 0 0)
(15.7654 0 0)
(15.7891 0 0)
(15.8128 0 0)
(15.8365 0 0)
(15.8602 0 0)
(15.8839 0 0)
(15.9076 0 0)
(15.9313 0 0)
(15.9549 0 0)
(15.9786 0 0)
(16.0023 0 0)
(16.0259 0 0)
(16.0496 0 0)
(16.0732 0 0)
(16.0969 0 0)
(16.1205 0 0)
(16.1442 0 0)
(16.1678 0 0)
(16.1915 0 0)
(16.2151 0 0)
(16.2387 0 0)
(16.2623 0 0)
(16.286 0 0)
(16.3096 0 0)
(16.3332 0 0)
(16.3568 0 0)
(16.3804 0 0)
(16.404 0 0)
(16.4276 0 0)
(16.4512 0 0)
(16.4748 0 0)
(16.4983 0 0)
(16.5219 0 0)
(16.5455 0 0)
(16.569 0 0)
(16.5926 0 0)
(16.6162 0 0)
(16.6397 0 0)
(16.6633 0 0)
(16.6868 0 0)
(16.7103 0 0)
(16.7339 0 0)
(16.7574 0 0)
(16.7809 0 0)
(16.8045 0 0)
(16.828 0 0)
(16.8515 0 0)
(16.875 0 0)
(16.8985 0 0)
(16.922 0 0)
(16.9455 0 0)
(16.969 0 0)
(16.9924 0 0)
(17.0159 0 0)
(17.0394 0 0)
(17.0629 0 0)
(17.0863 0 0)
(17.1098 0 0)
(17.1332 0 0)
(17.1567 0 0)
(17.1801 0 0)
(17.2035 0 0)
(17.227 0 0)
(17.2504 0 0)
(17.2738 0 0)
(17.2972 0 0)
(17.3206 0 0)
(17.344 0 0)
(17.3674 0 0)
(17.3908 0 0)
(17.4142 0 0)
(17.4376 0 0)
(17.4609 0 0)
(17.4843 0 0)
(17.5076 0 0)
(17.531 0 0)
(17.5543 0 0)
(17.5777 0 0)
(17.601 0 0)
(17.6243 0 0)
(17.6477 0 0)
(17.671 0 0)
(17.6943 0 0)
(17.7176 0 0)
(17.7409 0 0)
(17.7642 0 0)
(17.7875 0 0)
(17.8108 0 0)
(17.834 0 0)
(17.8573 0 0)
(17.8805 0 0)
(17.9038 0 0)
(17.927 0 0)
(17.9503 0 0)
(17.9735 0 0)
(17.9967 0 0)
(18.02 0 0)
(18.0432 0 0)
(18.0664 0 0)
(18.0896 0 0)
(18.1128 0 0)
(18.136 0 0)
(18.1592 0 0)
(18.1823 0 0)
(18.2055 0 0)
(18.2287 0 0)
(18.2518 0 0)
(18.2749 0 0)
(18.2981 0 0)
(18.3212 0 0)
(18.3443 0 0)
(18.3675 0 0)
(18.3906 0 0)
(18.4137 0 0)
(18.4368 0 0)
(18.4599 0 0)
(18.4829 0 0)
(18.506 0 0)
(18.5291 0 0)
(18.5521 0 0)
(18.5752 0 0)
(18.5982 0 0)
(18.6213 0 0)
(18.6443 0 0)
(18.6673 0 0)
(18.6903 0 0)
(18.7133 0 0)
(18.7363 0 0)
(18.7593 0 0)
(18.7823 0 0)
(18.8053 0 0)
(18.8282 0 0)
(18.8512 0 0)
(18.8741 0 0)
(18.8971 0 0)
(18.92 0 0)
(18.9429 0 0)
(18.9658 0 0)
(18.9887 0 0)
(19.0116 0 0)
(19.0345 0 0)
(19.0574 0 0)
(19.0803 0 0)
(19.1032 0 0)
(19.126 0 0)
(19.1489 0 0)
(19.1717 0 0)
(19.1945 0 0)
(19.2173 0 0)
(19.2401 0 0)
(19.2629 0 0)
(19.2857 0 0)
(19.3085 0 0)
(19.3313 0 0)
(19.3541 0 0)
(19.3768 0 0)
(19.3996 0 0)
(19.4223 0 0)
(19.445 0 0)
(19.4678 0 0)
(19.4905 0 0)
(19.5132 0 0)
(19.5358 0 0)
(19.5585 0 0)
(19.5812 0 0)
(19.6039 0 0)
(19.6265 0 0)
(19.6491 0 0)
(19.6718 0 0)
(19.6944 0 0)
(19.717 0 0)
(19.7396 0 0)
(19.7622 0 0)
(19.7848 0 0)
(19.8073 0 0)
(19.8299 0 0)
(19.8525 0 0)
(19.875 0 0)
(19.8975 0 0)
(19.92 0 0)
(19.9425 0 0)
(19.965 0 0)
(19.9875 0 0)
(20.01 0 0)
(20.0325 0 0)
(20.0549 0 0)
(20.0773 0 0)
(20.0998 0 0)
(20.1222 0 0)
(20.1446 0 0)
(20.167 0 0)
(20.1894 0 0)
(20.2118 0 0)
(20.2341 0 0)
(20.2565 0 0)
(20.2788 0 0)
(20.3011 0 0)
(20.3234 0 0)
(20.3457 0 0)
(20.368 0 0)
(20.3903 0 0)
(20.4126 0 0)
(20.4348 0 0)
(20.4571 0 0)
(20.4793 0 0)
(20.5015 0 0)
(20.5237 0 0)
(20.5459 0 0)
(20.5681 0 0)
(20.5903 0 0)
(20.6124 0 0)
(20.6346 0 0)
(20.6567 0 0)
(20.6788 0 0)
(20.7009 0 0)
(20.723 0 0)
(20.7451 0 0)
(20.7671 0 0)
(20.7892 0 0)
(20.8112 0 0)
(20.8333 0 0)
(20.8553 0 0)
(20.8773 0 0)
(20.8992 0 0)
(20.9212 0 0)
(20.9432 0 0)
(20.9651 0 0)
(20.987 0 0)
(21.009 0 0)
(21.0309 0 0)
(21.0527 0 0)
(21.0746 0 0)
(21.0965 0 0)
(21.1183 0 0)
(21.1401 0 0)
(21.1619 0 0)
(21.1837 0 0)
(21.2055 0 0)
(21.2273 0 0)
(21.249 0 0)
(21.2708 0 0)
(21.2925 0 0)
(21.3142 0 0)
(21.3359 0 0)
(21.3576 0 0)
(21.3792 0 0)
(21.4009 0 0)
(21.4225 0 0)
(21.4441 0 0)
(21.4657 0 0)
(21.4873 0 0)
(21.5089 0 0)
(21.5304 0 0)
(21.552 0 0)
(21.5735 0 0)
(21.595 0 0)
(21.6165 0 0)
(21.6379 0 0)
(21.6594 0 0)
(21.6808 0 0)
(21.7022 0 0)
(21.7237 0 0)
(21.745 0 0)
(21.7664 0 0)
(21.7878 0 0)
(21.8091 0 0)
(21.8304 0 0)
(21.8517 0 0)
(21.873 0 0)
(21.8942 0 0)
(21.9155 0 0)
(21.9367 0 0)
(21.9579 0 0)
(21.9791 0 0)
(22.0003 0 0)
(22.0214 0 0)
(22.0426 0 0)
(22.0637 0 0)
(22.0848 0 0)
(22.1059 0 0)
(22.1269 0 0)
(22.148 0 0)
(22.169 0 0)
(22.19 0 0)
(22.211 0 0)
(22.232 0 0)
(22.2529 0 0)
(22.2738 0 0)
(22.2947 0 0)
(22.3156 0 0)
(22.3365 0 0)
(22.3573 0 0)
(22.3782 0 0)
(22.399 0 0)
(22.4198 0 0)
(22.4405 0 0)
(22.4613 0 0)
(22.482 0 0)
(22.5027 0 0)
(22.5234 0 0)
(22.5441 0 0)
(22.5647 0 0)
(22.5853 0 0)
(22.6059 0 0)
(22.6265 0 0)
(22.6471 0 0)
(22.6676 0 0)
(22.6881 0 0)
(22.7086 0 0)
(22.7291 0 0)
(22.7495 0 0)
(22.7699 0 0)
(22.7903 0 0)
(22.8107 0 0)
(22.8311 0 0)
(22.8514 0 0)
(22.8717 0 0)
(22.892 0 0)
(22.9123 0 0)
(22.9325 0 0)
(22.9528 0 0)
(22.973 0 0)
(22.9931 0 0)
(23.0133 0 0)
(23.0334 0 0)
(23.0535 0 0)
(23.0736 0 0)
(23.0937 0 0)
(23.1137 0 0)
(23.1337 0 0)
(23.1537 0 0)
(23.1737 0 0)
(23.1936 0 0)
(23.2135 0 0)
(23.2334 0 0)
(23.2533 0 0)
(23.2731 0 0)
(23.2929 0 0)
(23.3127 0 0)
(23.3324 0 0)
(23.3522 0 0)
(23.3719 0 0)
(23.3916 0 0)
(23.4112 0 0)
(23.4309 0 0)
(23.4505 0 0)
(23.4701 0 0)
(23.4896 0 0)
(23.5091 0 0)
(23.5286 0 0)
(23.5481 0 0)
(23.5676 0 0)
(23.587 0 0)
(23.6064 0 0)
(23.6257 0 0)
(23.6451 0 0)
(23.6644 0 0)
(23.6837 0 0)
(23.7029 0 0)
(23.7222 0 0)
(23.7414 0 0)
(23.7605 0 0)
(23.7797 0 0)
(23.7988 0 0)
(23.8179 0 0)
(23.837 0 0)
(23.856 0 0)
(23.875 0 0)
(23.894 0 0)
(23.9129 0 0)
(23.9318 0 0)
(23.9507 0 0)
(23.9696 0 0)
(23.9884 0 0)
(24.0072 0 0)
(24.026 0 0)
(24.0447 0 0)
(24.0635 0 0)
(24.0821 0 0)
(24.1008 0 0)
(24.1194 0 0)
(24.138 0 0)
(24.1566 0 0)
(24.1751 0 0)
(24.1936 0 0)
(24.2121 0 0)
(24.2305 0 0)
(24.2489 0 0)
(24.2673 0 0)
(24.2857 0 0)
(24.304 0 0)
(24.3223 0 0)
(24.3405 0 0)
(24.3587 0 0)
(24.3769 0 0)
(24.3951 0 0)
(24.4132 0 0)
(24.4313 0 0)
(24.4494 0 0)
(24.4674 0 0)
(24.4854 0 0)
(24.5034 0 0)
(24.5213 0 0)
(24.5393 0 0)
(24.5571 0 0)
(24.575 0 0)
(24.5928 0 0)
(24.6106 0 0)
(24.6283 0 0)
(24.646 0 0)
(24.6637 0 0)
(24.6813 0 0)
(24.699 0 0)
(24.7165 0 0)
(24.7341 0 0)
(24.7516 0 0)
(24.7691 0 0)
(24.7865 0 0)
(24.8039 0 0)
(24.8213 0 0)
(24.8387 0 0)
(24.856 0 0)
(24.8733 0 0)
(24.8905 0 0)
(24.9077 0 0)
(24.9249 0 0)
(24.942 0 0)
(24.9592 0 0)
(24.9762 0 0)
(24.9933 0 0)
(25.0103 0 0)
(25.0273 0 0)
(25.0442 0 0)
(25.0611 0 0)
(25.078 0 0)
(25.0948 0 0)
(25.1116 0 0)
(25.1284 0 0)
(25.1452 0 0)
(25.1619 0 0)
(25.1785 0 0)
(25.1952 0 0)
(25.2118 0 0)
(25.2283 0 0)
(25.2449 0 0)
(25.2614 0 0)
(25.2778 0 0)
(25.2942 0 0)
(25.3106 0 0)
(25.327 0 0)
(25.3433 0 0)
(25.3596 0 0)
(25.3759 0 0)
(25.3921 0 0)
(25.4083 0 0)
(25.4244 0 0)
(25.4405 0 0)
(25.4566 0 0)
(25.4727 0 0)
(25.4887 0 0)
(25.5047 0 0)
(25.5206 0 0)
(25.5365 0 0)
(25.5524 0 0)
(25.5683 0 0)
(25.5841 0 0)
(25.5998 0 0)
(25.6156 0 0)
(25.6313 0 0)
(25.647 0 0)
(25.6626 0 0)
(25.6782 0 0)
(25.6938 0 0)
(25.7093 0 0)
(25.7248 0 0)
(25.7403 0 0)
(25.7557 0 0)
(25.7711 0 0)
(25.7865 0 0)
(25.8018 0 0)
(25.8171 0 0)
(25.8324 0 0)
(25.8476 0 0)
(25.8629 0 0)
(25.878 0 0)
(25.8932 0 0)
(25.9083 0 0)
(25.9233 0 0)
(25.9384 0 0)
(25.9534 0 0)
(25.9684 0 0)
(25.9833 0 0)
(25.9982 0 0)
(26.0131 0 0)
(26.0279 0 0)
(26.0427 0 0)
(26.0575 0 0)
(26.0723 0 0)
(26.087 0 0)
(26.1017 0 0)
(26.1163 0 0)
(26.1309 0 0)
(26.1455 0 0)
(26.1601 0 0)
(26.1746 0 0)
(26.1891 0 0)
(26.2036 0 0)
(26.218 0 0)
(26.2325 0 0)
(26.2468 0 0)
(26.2612 0 0)
(26.2755 0 0)
(26.2898 0 0)
(26.304 0 0)
(26.3183 0 0)
(26.3325 0 0)
(26.3467 0 0)
(26.3608 0 0)
(26.3749 0 0)
(26.389 0 0)
(26.4031 0 0)
(26.4171 0 0)
(26.4311 0 0)
(26.4451 0 0)
(26.459 0 0)
(26.4729 0 0)
(26.4868 0 0)
(26.5007 0 0)
(26.5145 0 0)
(26.5283 0 0)
(26.5421 0 0)
(26.5559 0 0)
(26.5696 0 0)
(26.5833 0 0)
(26.597 0 0)
(26.6106 0 0)
(26.6243 0 0)
(26.6379 0 0)
(26.6514 0 0)
(26.665 0 0)
(26.6785 0 0)
(26.692 0 0)
(26.7055 0 0)
(26.719 0 0)
(26.7324 0 0)
(26.7458 0 0)
(26.7592 0 0)
(26.7726 0 0)
(26.7859 0 0)
(26.7992 0 0)
(26.8125 0 0)
(26.8258 0 0)
(26.839 0 0)
(26.8523 0 0)
(26.8655 0 0)
(26.8787 0 0)
(26.8918 0 0)
(26.905 0 0)
(26.9181 0 0)
(26.9312 0 0)
(26.9443 0 0)
(26.9573 0 0)
(26.9704 0 0)
(26.9834 0 0)
(26.9964 0 0)
(27.0094 0 0)
(27.0223 0 0)
(27.0353 0 0)
(27.0482 0 0)
(27.0611 0 0)
(27.074 0 0)
(27.0869 0 0)
(27.0997 0 0)
(27.1126 0 0)
(27.1254 0 0)
(27.1382 0 0)
(27.151 0 0)
(27.1637 0 0)
(27.1765 0 0)
(27.1892 0 0)
(27.2019 0 0)
(27.2146 0 0)
(27.2273 0 0)
(27.24 0 0)
(27.2526 0 0)
(27.2653 0 0)
(27.2779 0 0)
(27.2905 0 0)
(27.3031 0 0)
(27.3157 0 0)
(27.3283 0 0)
(27.3408 0 0)
(27.3534 0 0)
(27.3659 0 0)
(27.3784 0 0)
(27.3909 0 0)
(27.4034 0 0)
(27.4159 0 0)
(27.4283 0 0)
(27.4408 0 0)
(27.4532 0 0)
(27.4656 0 0)
(27.4781 0 0)
(27.4905 0 0)
(27.5029 0 0)
(27.5152 0 0)
(27.5276 0 0)
(27.54 0 0)
(27.5523 0 0)
(27.5647 0 0)
(27.577 0 0)
(27.5893 0 0)
(27.6016 0 0)
(27.6139 0 0)
(27.6262 0 0)
(27.6385 0 0)
(27.6507 0 0)
(27.663 0 0)
(27.6753 0 0)
(27.6875 0 0)
(27.6997 0 0)
(27.712 0 0)
(27.7242 0 0)
(27.7364 0 0)
(27.7486 0 0)
(27.7608 0 0)
(27.773 0 0)
(27.7851 0 0)
(27.7973 0 0)
(27.8095 0 0)
(27.8216 0 0)
(27.8338 0 0)
(27.8459 0 0)
(27.8581 0 0)
(27.8702 0 0)
(27.8823 0 0)
(27.8944 0 0)
(27.9065 0 0)
(27.9186 0 0)
(27.9307 0 0)
(27.9428 0 0)
(27.9549 0 0)
(27.967 0 0)
(27.9791 0 0)
(27.9911 0 0)
(28.0032 0 0)
(28.0153 0 0)
(28.0273 0 0)
(28.0394 0 0)
(28.0514 0 0)
(28.0634 0 0)
(28.0755 0 0)
(28.0875 0 0)
(28.0995 0 0)
(28.1116 0 0)
(28.1236 0 0)
(28.1356 0 0)
(28.1476 0 0)
(28.1596 0 0)
(28.1716 0 0)
(28.1836 0 0)
(28.1956 0 0)
(28.2076 0 0)
(28.2196 0 0)
(28.2316 0 0)
(28.2436 0 0)
(28.2555 0 0)
(28.2675 0 0)
(28.2795 0 0)
(28.2914 0 0)
(28.3034 0 0)
(28.3154 0 0)
(28.3273 0 0)
(28.3393 0 0)
(28.3513 0 0)
(28.3632 0 0)
(28.3752 0 0)
(28.3871 0 0)
(28.399 0 0)
(28.411 0 0)
(28.4229 0 0)
(28.4349 0 0)
(28.4468 0 0)
(28.4587 0 0)
(28.4707 0 0)
(28.4826 0 0)
(28.4945 0 0)
(28.5065 0 0)
(28.5184 0 0)
(28.5303 0 0)
(28.5422 0 0)
(28.5542 0 0)
(28.5661 0 0)
(28.578 0 0)
(28.5899 0 0)
(28.6018 0 0)
(28.6138 0 0)
(28.6257 0 0)
(28.6376 0 0)
(28.6495 0 0)
(28.6614 0 0)
(28.6733 0 0)
(28.6852 0 0)
(28.6971 0 0)
(28.709 0 0)
(28.7209 0 0)
(28.7328 0 0)
(28.7447 0 0)
(28.7566 0 0)
(28.7685 0 0)
(28.7804 0 0)
(28.7923 0 0)
(28.8042 0 0)
(28.8161 0 0)
(28.828 0 0)
(28.8399 0 0)
(28.8518 0 0)
(28.8637 0 0)
(28.8756 0 0)
(28.8875 0 0)
(28.8994 0 0)
(28.9113 0 0)
(28.9232 0 0)
(28.9351 0 0)
(28.947 0 0)
(28.9589 0 0)
(28.9708 0 0)
(28.9826 0 0)
(28.9945 0 0)
(29.0064 0 0)
(29.0183 0 0)
(29.0302 0 0)
(29.0421 0 0)
(29.054 0 0)
(29.0659 0 0)
(29.0778 0 0)
(29.0896 0 0)
(29.1015 0 0)
(29.1134 0 0)
(29.1253 0 0)
(29.1372 0 0)
(29.1491 0 0)
(29.161 0 0)
(29.1729 0 0)
(29.1848 0 0)
(29.1966 0 0)
(29.2085 0 0)
(29.2204 0 0)
(29.2323 0 0)
(29.2442 0 0)
(29.2561 0 0)
(29.268 0 0)
(29.2799 0 0)
(29.2917 0 0)
(29.3036 0 0)
(29.3155 0 0)
(29.3274 0 0)
(29.3393 0 0)
(29.3512 0 0)
(29.3631 0 0)
(29.375 0 0)
(29.3868 0 0)
(29.3987 0 0)
(29.4106 0 0)
(29.4225 0 0)
(29.4344 0 0)
(29.4463 0 0)
(29.4582 0 0)
(29.4701 0 0)
(29.482 0 0)
(29.4938 0 0)
(29.5057 0 0)
(29.5176 0 0)
(29.5295 0 0)
(29.5414 0 0)
(29.5533 0 0)
(29.5652 0 0)
(29.5771 0 0)
(29.589 0 0)
(29.6009 0 0)
(29.6128 0 0)
(29.6246 0 0)
(29.6365 0 0)
(29.6484 0 0)
(29.6603 0 0)
(29.6722 0 0)
(29.6841 0 0)
(29.696 0 0)
(29.7079 0 0)
(29.7198 0 0)
(29.7317 0 0)
(29.7436 0 0)
(29.7555 0 0)
(29.7674 0 0)
(29.7793 0 0)
(29.7912 0 0)
(29.8031 0 0)
(29.815 0 0)
(29.8269 0 0)
(29.8387 0 0)
(29.8506 0 0)
(29.8625 0 0)
(29.8744 0 0)
(29.8863 0 0)
(29.8982 0 0)
(29.9101 0 0)
(29.922 0 0)
(29.9339 0 0)
(29.9458 0 0)
(29.9577 0 0)
(29.9696 0 0)
(29.9815 0 0)
(29.9934 0 0)
(30.0053 0 0)
(30.0172 0 0)
(30.0291 0 0)
(30.041 0 0)
(30.0529 0 0)
(30.0648 0 0)
(30.0767 0 0)
(30.0886 0 0)
(30.1005 0 0)
(30.1125 0 0)
(30.1244 0 0)
(30.1363 0 0)
(30.1482 0 0)
(30.1601 0 0)
(30.172 0 0)
(30.1839 0 0)
(30.1958 0 0)
(30.2077 0 0)
(30.2196 0 0)
(30.2315 0 0)
(30.2434 0 0)
(30.2553 0 0)
(30.2672 0 0)
(30.2791 0 0)
(30.291 0 0)
(30.303 0 0)
(30.3149 0 0)
(30.3268 0 0)
(30.3387 0 0)
(30.3506 0 0)
(30.3625 0 0)
(30.3744 0 0)
(30.3863 0 0)
(30.3982 0 0)
(30.4101 0 0)
(30.4221 0 0)
(30.434 0 0)
(30.4459 0 0)
(30.4578 0 0)
(30.4697 0 0)
(30.4816 0 0)
(30.4935 0 0)
(30.5054 0 0)
(30.5174 0 0)
(30.5293 0 0)
(30.5412 0 0)
(30.5531 0 0)
(30.565 0 0)
(30.5769 0 0)
(30.5889 0 0)
(30.6008 0 0)
(30.6127 0 0)
(30.6246 0 0)
(30.6365 0 0)
(30.6484 0 0)
(30.6604 0 0)
(30.6723 0 0)
(30.6842 0 0)
(30.6961 0 0)
(30.708 0 0)
(30.72 0 0)
(30.7319 0 0)
(30.7438 0 0)
(30.7557 0 0)
(30.7676 0 0)
(30.7796 0 0)
(30.7915 0 0)
(30.8034 0 0)
(30.8153 0 0)
(30.8272 0 0)
(30.8392 0 0)
(30.8511 0 0)
(30.863 0 0)
(30.8749 0 0)
(30.8869 0 0)
(30.8988 0 0)
(30.9107 0 0)
(30.9226 0 0)
(30.9346 0 0)
(30.9465 0 0)
(30.9584 0 0)
(30.9703 0 0)
(30.9823 0 0)
(30.9942 0 0)
(31.0061 0 0)
(31.0181 0 0)
(31.03 0 0)
(31.0419 0 0)
(31.0538 0 0)
(31.0658 0 0)
(31.0777 0 0)
(31.0896 0 0)
(31.1016 0 0)
(31.1135 0 0)
(31.1254 0 0)
(31.1373 0 0)
(31.1493 0 0)
(31.1612 0 0)
(31.1731 0 0)
(31.1851 0 0)
(31.197 0 0)
(31.2089 0 0)
(31.2209 0 0)
(31.2328 0 0)
(31.2447 0 0)
(31.2567 0 0)
(31.2686 0 0)
(31.2805 0 0)
(31.2925 0 0)
(31.3044 0 0)
(31.3164 0 0)
(31.3283 0 0)
(31.3402 0 0)
(31.3522 0 0)
(31.3641 0 0)
(31.376 0 0)
(31.388 0 0)
(31.3999 0 0)
(31.4118 0 0)
(31.4238 0 0)
(31.4357 0 0)
(31.4477 0 0)
(31.4596 0 0)
(31.4715 0 0)
(31.4835 0 0)
(31.4954 0 0)
(31.5074 0 0)
(31.5193 0 0)
(31.5312 0 0)
(31.5432 0 0)
(31.5551 0 0)
(31.5671 0 0)
(31.579 0 0)
(31.591 0 0)
(31.6029 0 0)
(31.6148 0 0)
(31.6268 0 0)
(31.6387 0 0)
(31.6507 0 0)
(31.6626 0 0)
(31.6746 0 0)
(31.6865 0 0)
(31.6985 0 0)
(31.7104 0 0)
(31.7223 0 0)
(31.7343 0 0)
(31.7462 0 0)
(31.7582 0 0)
(31.7701 0 0)
(31.7821 0 0)
(31.794 0 0)
(31.806 0 0)
(31.8179 0 0)
(31.8299 0 0)
(31.8418 0 0)
(31.8538 0 0)
(31.8657 0 0)
(31.8777 0 0)
(31.8896 0 0)
(31.9016 0 0)
(31.9135 0 0)
(31.9255 0 0)
(31.9374 0 0)
(31.9494 0 0)
(31.9613 0 0)
(31.9733 0 0)
(31.9852 0 0)
(31.9972 0 0)
(32.0091 0 0)
(32.0211 0 0)
(32.033 0 0)
(32.045 0 0)
(32.057 0 0)
(32.0689 0 0)
(32.0809 0 0)
(32.0928 0 0)
(32.1048 0 0)
(32.1167 0 0)
(32.1287 0 0)
(32.1406 0 0)
(32.1526 0 0)
(32.1646 0 0)
(32.1765 0 0)
(32.1885 0 0)
(32.2004 0 0)
(32.2124 0 0)
(32.2244 0 0)
(32.2363 0 0)
(32.2483 0 0)
(32.2602 0 0)
(32.2722 0 0)
(32.2841 0 0)
(32.2961 0 0)
(32.3081 0 0)
(32.32 0 0)
(32.332 0 0)
(32.344 0 0)
(32.3559 0 0)
(32.3679 0 0)
(32.3798 0 0)
(32.3918 0 0)
(32.4038 0 0)
(32.4157 0 0)
(32.4277 0 0)
(32.4397 0 0)
(32.4516 0 0)
(32.4636 0 0)
(32.4756 0 0)
(32.4875 0 0)
(32.4995 0 0)
(32.5114 0 0)
(32.5234 0 0)
(32.5354 0 0)
(32.5473 0 0)
(32.5593 0 0)
(32.5713 0 0)
(32.5833 0 0)
(32.5952 0 0)
(32.6072 0 0)
(32.6192 0 0)
(32.6311 0 0)
(32.6431 0 0)
(32.6551 0 0)
(32.667 0 0)
(32.679 0 0)
(32.691 0 0)
(32.7029 0 0)
(32.7149 0 0)
(32.7269 0 0)
(32.7389 0 0)
(32.7508 0 0)
(32.7628 0 0)
(32.7748 0 0)
(32.7867 0 0)
(32.7987 0 0)
(32.8107 0 0)
(32.8227 0 0)
(32.8346 0 0)
(32.8466 0 0)
(32.8586 0 0)
(32.8706 0 0)
(32.8825 0 0)
(32.8945 0 0)
(32.9065 0 0)
(32.9185 0 0)
(32.9304 0 0)
(32.9424 0 0)
(32.9544 0 0)
(32.9664 0 0)
(32.9783 0 0)
(32.9903 0 0)
(33.0023 0 0)
(33.0143 0 0)
(33.0263 0 0)
(33.0382 0 0)
(33.0502 0 0)
(33.0622 0 0)
(33.0742 0 0)
(33.0862 0 0)
(33.0981 0 0)
(33.1101 0 0)
(33.1221 0 0)
(33.1341 0 0)
(33.1461 0 0)
(33.158 0 0)
(33.17 0 0)
(33.182 0 0)
(33.194 0 0)
(33.206 0 0)
(33.2179 0 0)
(33.2299 0 0)
(33.2419 0 0)
(33.2539 0 0)
(33.2659 0 0)
(33.2779 0 0)
(33.2899 0 0)
(33.3018 0 0)
(33.3138 0 0)
(33.3258 0 0)
(33.3378 0 0)
(33.3498 0 0)
(33.3618 0 0)
(33.3738 0 0)
(33.3857 0 0)
(33.3977 0 0)
(33.4097 0 0)
(33.4217 0 0)
(33.4337 0 0)
(33.4457 0 0)
(33.4577 0 0)
(33.4697 0 0)
(33.4816 0 0)
(33.4936 0 0)
(33.5056 0 0)
(33.5176 0 0)
(33.5296 0 0)
(33.5416 0 0)
(33.5536 0 0)
(33.5656 0 0)
(33.5776 0 0)
(33.5896 0 0)
(33.6015 0 0)
(33.6135 0 0)
(33.6255 0 0)
(33.6375 0 0)
(33.6495 0 0)
(33.6615 0 0)
(33.6735 0 0)
(33.6855 0 0)
(33.6975 0 0)
(33.7095 0 0)
(33.7215 0 0)
(33.7335 0 0)
(33.7455 0 0)
(33.7575 0 0)
(33.7695 0 0)
(33.7815 0 0)
(33.7935 0 0)
(33.8055 0 0)
(33.8175 0 0)
(33.8294 0 0)
(33.8414 0 0)
(33.8534 0 0)
(33.8654 0 0)
(33.8774 0 0)
(33.8894 0 0)
(33.9014 0 0)
(33.9134 0 0)
(33.9254 0 0)
(33.9374 0 0)
(33.9494 0 0)
(33.9614 0 0)
(33.9734 0 0)
(33.9854 0 0)
(33.9974 0 0)
(34.0094 0 0)
(34.0214 0 0)
(34.0334 0 0)
(34.0454 0 0)
(34.0574 0 0)
(34.0695 0 0)
(34.0815 0 0)
(34.0935 0 0)
(34.1055 0 0)
(34.1175 0 0)
(34.1295 0 0)
(34.1415 0 0)
(34.1535 0 0)
(34.1655 0 0)
(34.1775 0 0)
(34.1895 0 0)
(34.2015 0 0)
(34.2135 0 0)
(34.2255 0 0)
(34.2375 0 0)
(34.2495 0 0)
(34.2615 0 0)
(34.2735 0 0)
(34.2855 0 0)
(34.2976 0 0)
(34.3096 0 0)
(34.3216 0 0)
(34.3336 0 0)
(34.3456 0 0)
(34.3576 0 0)
(34.3696 0 0)
(34.3816 0 0)
(34.3936 0 0)
(34.4056 0 0)
(34.4176 0 0)
(34.4297 0 0)
(34.4417 0 0)
(34.4537 0 0)
(34.4657 0 0)
(34.4777 0 0)
(34.4897 0 0)
(34.5017 0 0)
(34.5137 0 0)
(34.5258 0 0)
(34.5378 0 0)
(34.5498 0 0)
(34.5618 0 0)
(34.5738 0 0)
(34.5858 0 0)
(34.5978 0 0)
(34.6099 0 0)
(34.6219 0 0)
(34.6339 0 0)
(34.6459 0 0)
(34.6579 0 0)
(34.6699 0 0)
(34.682 0 0)
(34.694 0 0)
(34.706 0 0)
(34.718 0 0)
(34.73 0 0)
(34.742 0 0)
(34.7541 0 0)
(34.7661 0 0)
(34.7781 0 0)
(34.7901 0 0)
(34.8021 0 0)
(34.8142 0 0)
(34.8262 0 0)
(34.8382 0 0)
(34.8502 0 0)
(34.8622 0 0)
(34.8743 0 0)
(34.8863 0 0)
(34.8983 0 0)
(34.9103 0 0)
(34.9223 0 0)
(34.9344 0 0)
(34.9464 0 0)
(34.9584 0 0)
(34.9704 0 0)
(34.9825 0 0)
(34.9945 0 0)
(35.0065 0 0)
(35.0185 0 0)
(35.0306 0 0)
(35.0426 0 0)
(35.0546 0 0)
(35.0666 0 0)
(35.0787 0 0)
(35.0907 0 0)
(35.1027 0 0)
(35.1147 0 0)
(35.1268 0 0)
(35.1388 0 0)
(35.1508 0 0)
(35.1629 0 0)
(35.1749 0 0)
(35.1869 0 0)
(35.1989 0 0)
(35.211 0 0)
(35.223 0 0)
(35.235 0 0)
(35.2471 0 0)
(35.2591 0 0)
(35.2711 0 0)
(35.2831 0 0)
(35.2952 0 0)
(35.3072 0 0)
(35.3192 0 0)
(35.3313 0 0)
(35.3433 0 0)
(35.3553 0 0)
(35.3674 0 0)
(35.3794 0 0)
(35.3914 0 0)
(35.4035 0 0)
(35.4155 0 0)
(35.4275 0 0)
(35.4396 0 0)
(35.4516 0 0)
(35.4636 0 0)
(35.4757 0 0)
(35.4877 0 0)
(35.4997 0 0)
(35.5118 0 0)
(35.5238 0 0)
(35.5359 0 0)
(35.5479 0 0)
(35.5599 0 0)
(35.572 0 0)
(35.584 0 0)
(35.596 0 0)
(35.6081 0 0)
(35.6201 0 0)
(35.6322 0 0)
(35.6442 0 0)
(35.6562 0 0)
(35.6683 0 0)
(35.6803 0 0)
(35.6924 0 0)
(35.7044 0 0)
(35.7164 0 0)
(35.7285 0 0)
(35.7405 0 0)
(35.7526 0 0)
(35.7646 0 0)
(35.7766 0 0)
(35.7887 0 0)
(35.8007 0 0)
(35.8128 0 0)
(35.8248 0 0)
(35.8369 0 0)
(35.8489 0 0)
(35.8609 0 0)
(35.873 0 0)
(35.885 0 0)
(35.8971 0 0)
(35.9091 0 0)
(35.9212 0 0)
(35.9332 0 0)
(35.9453 0 0)
(35.9573 0 0)
(35.9694 0 0)
(35.9814 0 0)
(35.9935 0 0)
(36.0055 0 0)
(36.0175 0 0)
(36.0296 0 0)
(36.0416 0 0)
(36.0537 0 0)
(36.0657 0 0)
(36.0778 0 0)
(36.0898 0 0)
(36.1019 0 0)
(36.1139 0 0)
(36.126 0 0)
(36.138 0 0)
(36.1501 0 0)
(36.1621 0 0)
(36.1742 0 0)
(36.1863 0 0)
(36.1983 0 0)
(36.2104 0 0)
(36.2224 0 0)
(36.2345 0 0)
(36.2465 0 0)
(36.2586 0 0)
(36.2706 0 0)
(36.2827 0 0)
(36.2947 0 0)
(36.3068 0 0)
(36.3188 0 0)
(36.3309 0 0)
(36.343 0 0)
(36.355 0 0)
(36.3671 0 0)
(36.3791 0 0)
(36.3912 0 0)
(36.4032 0 0)
(36.4153 0 0)
(36.4273 0 0)
(36.4394 0 0)
(36.4515 0 0)
(36.4635 0 0)
(36.4756 0 0)
(36.4876 0 0)
(36.4997 0 0)
(36.5118 0 0)
(36.5238 0 0)
(36.5359 0 0)
(36.5479 0 0)
(36.56 0 0)
(36.5721 0 0)
(36.5841 0 0)
(36.5962 0 0)
(36.6082 0 0)
(36.6203 0 0)
(36.6324 0 0)
(36.6444 0 0)
(36.6565 0 0)
(36.6686 0 0)
(36.6806 0 0)
(36.6927 0 0)
(36.7048 0 0)
(36.7168 0 0)
(36.7289 0 0)
(36.7409 0 0)
(36.753 0 0)
(36.7651 0 0)
(36.7771 0 0)
(36.7892 0 0)
(36.8013 0 0)
(36.8133 0 0)
(36.8254 0 0)
(36.8375 0 0)
(36.8495 0 0)
(36.8616 0 0)
(36.8737 0 0)
(36.8857 0 0)
(36.8978 0 0)
(36.9099 0 0)
(36.922 0 0)
(36.934 0 0)
(36.9461 0 0)
(36.9582 0 0)
(36.9702 0 0)
(36.9823 0 0)
(36.9944 0 0)
(37.0064 0 0)
(37.0185 0 0)
(37.0306 0 0)
(37.0427 0 0)
(37.0547 0 0)
(37.0668 0 0)
(37.0789 0 0)
(37.091 0 0)
(37.103 0 0)
(37.1151 0 0)
(37.1272 0 0)
(37.1393 0 0)
(37.1513 0 0)
(37.1634 0 0)
(37.1755 0 0)
(37.1876 0 0)
(37.1996 0 0)
(37.2117 0 0)
(37.2238 0 0)
(37.2359 0 0)
(37.2479 0 0)
(37.26 0 0)
(37.2721 0 0)
(37.2842 0 0)
(37.2962 0 0)
(37.3083 0 0)
(37.3204 0 0)
(37.3325 0 0)
(37.3446 0 0)
(37.3566 0 0)
(37.3687 0 0)
(37.3808 0 0)
(37.3929 0 0)
(37.405 0 0)
(37.417 0 0)
(37.4291 0 0)
(37.4412 0 0)
(37.4533 0 0)
(37.4654 0 0)
(37.4775 0 0)
(37.4895 0 0)
(37.5016 0 0)
(37.5137 0 0)
(37.5258 0 0)
(37.5379 0 0)
(37.55 0 0)
(37.562 0 0)
(37.5741 0 0)
(37.5862 0 0)
(37.5983 0 0)
(37.6104 0 0)
(37.6225 0 0)
(37.6346 0 0)
(37.6466 0 0)
(37.6587 0 0)
(37.6708 0 0)
(37.6829 0 0)
(37.695 0 0)
(37.7071 0 0)
(37.7192 0 0)
(37.7313 0 0)
(37.7433 0 0)
(37.7554 0 0)
(37.7675 0 0)
(37.7796 0 0)
(37.7917 0 0)
(37.8038 0 0)
(37.8159 0 0)
(37.828 0 0)
(37.8401 0 0)
(37.8521 0 0)
(37.8642 0 0)
(37.8763 0 0)
(37.8884 0 0)
(37.9005 0 0)
(37.9126 0 0)
(37.9247 0 0)
(37.9368 0 0)
(37.9489 0 0)
(37.961 0 0)
(37.9731 0 0)
(37.9852 0 0)
(37.9973 0 0)
(38.0094 0 0)
(38.0215 0 0)
(38.0336 0 0)
(38.0456 0 0)
(38.0577 0 0)
(38.0698 0 0)
(38.0819 0 0)
(38.094 0 0)
(38.1061 0 0)
(38.1182 0 0)
(38.1303 0 0)
(38.1424 0 0)
(38.1545 0 0)
(38.1666 0 0)
(38.1787 0 0)
(38.1908 0 0)
(38.2029 0 0)
(38.215 0 0)
(38.2271 0 0)
(38.2392 0 0)
(38.2513 0 0)
(38.2634 0 0)
(38.2755 0 0)
(38.2876 0 0)
(38.2997 0 0)
(38.3118 0 0)
(38.3239 0 0)
(38.336 0 0)
(38.3481 0 0)
(38.3602 0 0)
(38.3723 0 0)
(38.3844 0 0)
(38.3965 0 0)
(38.4086 0 0)
(38.4207 0 0)
(38.4329 0 0)
(38.445 0 0)
(38.4571 0 0)
(38.4692 0 0)
(38.4813 0 0)
(38.4934 0 0)
(38.5055 0 0)
(38.5176 0 0)
(38.5297 0 0)
(38.5418 0 0)
(38.5539 0 0)
(38.566 0 0)
(38.5781 0 0)
(38.5902 0 0)
(38.6023 0 0)
(38.6144 0 0)
(38.6266 0 0)
(38.6387 0 0)
(38.6508 0 0)
(38.6629 0 0)
(38.675 0 0)
(38.6871 0 0)
(38.6992 0 0)
(38.7113 0 0)
(38.7234 0 0)
(38.7355 0 0)
(38.7477 0 0)
(38.7598 0 0)
(38.7719 0 0)
(38.784 0 0)
(38.7961 0 0)
(38.8082 0 0)
(38.8203 0 0)
(38.8324 0 0)
(38.8446 0 0)
(38.8567 0 0)
(38.8688 0 0)
(38.8809 0 0)
(38.893 0 0)
(38.9051 0 0)
(38.9172 0 0)
(38.9294 0 0)
(38.9415 0 0)
(38.9536 0 0)
(38.9657 0 0)
(38.9778 0 0)
(38.9899 0 0)
(39.0021 0 0)
(39.0142 0 0)
(39.0263 0 0)
(39.0384 0 0)
(39.0505 0 0)
(39.0626 0 0)
(39.0748 0 0)
(39.0869 0 0)
(39.099 0 0)
(39.1111 0 0)
(39.1232 0 0)
(39.1354 0 0)
(39.1475 0 0)
(39.1596 0 0)
(39.1717 0 0)
(39.1838 0 0)
(39.196 0 0)
(39.2081 0 0)
(39.2202 0 0)
(39.2323 0 0)
(39.2444 0 0)
(39.2566 0 0)
(39.2687 0 0)
(39.2808 0 0)
(39.2929 0 0)
(39.3051 0 0)
(39.3172 0 0)
(39.3293 0 0)
(39.3414 0 0)
(39.3536 0 0)
(39.3657 0 0)
(39.3778 0 0)
(39.3899 0 0)
(39.4021 0 0)
(39.4142 0 0)
(39.4263 0 0)
(39.4384 0 0)
(39.4506 0 0)
(39.4627 0 0)
(39.4748 0 0)
(39.4869 0 0)
(39.4991 0 0)
(39.5112 0 0)
(39.5233 0 0)
(39.5355 0 0)
(39.5476 0 0)
(39.5597 0 0)
(39.5718 0 0)
(39.584 0 0)
(39.5961 0 0)
(39.6082 0 0)
(39.6204 0 0)
(39.6325 0 0)
(39.6446 0 0)
(39.6567 0 0)
(39.6689 0 0)
(39.681 0 0)
(39.6931 0 0)
(39.7053 0 0)
(39.7174 0 0)
(39.7295 0 0)
(39.7417 0 0)
(39.7538 0 0)
(39.7659 0 0)
(39.7781 0 0)
(39.7902 0 0)
(39.8023 0 0)
(39.8145 0 0)
(39.8266 0 0)
(39.8387 0 0)
(39.8509 0 0)
(39.863 0 0)
(39.8751 0 0)
(39.8873 0 0)
(39.8994 0 0)
(39.9115 0 0)
(39.9237 0 0)
(39.9358 0 0)
(39.948 0 0)
(39.9601 0 0)
(39.9722 0 0)
(39.9844 0 0)
(39.9965 0 0)
(40.0086 0 0)
(40.0208 0 0)
(40.0329 0 0)
(40.0451 0 0)
(40.0572 0 0)
(40.0693 0 0)
(40.0815 0 0)
(40.0936 0 0)
(40.1058 0 0)
(40.1179 0 0)
(40.13 0 0)
(40.1422 0 0)
(40.1543 0 0)
(40.1665 0 0)
(40.1786 0 0)
(40.1907 0 0)
(40.2029 0 0)
(40.215 0 0)
(40.2272 0 0)
(40.2393 0 0)
(40.2515 0 0)
(40.2636 0 0)
(40.2757 0 0)
(40.2879 0 0)
(40.3 0 0)
(40.3122 0 0)
(40.3243 0 0)
(40.3365 0 0)
(40.3486 0 0)
(40.3607 0 0)
(40.3729 0 0)
(40.385 0 0)
(40.3972 0 0)
(40.4093 0 0)
(40.4215 0 0)
(40.4336 0 0)
(40.4458 0 0)
(40.4579 0 0)
(40.4701 0 0)
(40.4822 0 0)
(40.4944 0 0)
(40.5065 0 0)
(40.5187 0 0)
(40.5308 0 0)
(40.543 0 0)
(40.5551 0 0)
(40.5672 0 0)
(40.5794 0 0)
(40.5915 0 0)
(40.6037 0 0)
(40.6158 0 0)
(40.628 0 0)
(40.6401 0 0)
(40.6523 0 0)
(40.6644 0 0)
(40.6766 0 0)
(40.6888 0 0)
(40.7009 0 0)
(40.7131 0 0)
(40.7252 0 0)
(40.7374 0 0)
(40.7495 0 0)
(40.7617 0 0)
(40.7738 0 0)
(40.786 0 0)
(40.7981 0 0)
(40.8103 0 0)
(40.8224 0 0)
(40.8346 0 0)
(40.8467 0 0)
(40.8589 0 0)
(40.8711 0 0)
(40.8832 0 0)
(40.8954 0 0)
(40.9075 0 0)
(40.9197 0 0)
(40.9318 0 0)
(40.944 0 0)
(40.9561 0 0)
(40.9683 0 0)
(40.9805 0 0)
(40.9926 0 0)
(41.0048 0 0)
(41.0169 0 0)
(41.0291 0 0)
(41.0413 0 0)
(41.0534 0 0)
(41.0656 0 0)
(41.0777 0 0)
(41.0899 0 0)
(41.102 0 0)
(41.1142 0 0)
(41.1264 0 0)
(41.1385 0 0)
(41.1507 0 0)
(41.1629 0 0)
(41.175 0 0)
(41.1872 0 0)
(41.1993 0 0)
(41.2115 0 0)
(41.2237 0 0)
(41.2358 0 0)
(41.248 0 0)
(41.2602 0 0)
(41.2723 0 0)
(41.2845 0 0)
(41.2966 0 0)
(41.3088 0 0)
(41.321 0 0)
(41.3331 0 0)
(41.3453 0 0)
(41.3575 0 0)
(41.3696 0 0)
(41.3818 0 0)
(41.394 0 0)
(41.4061 0 0)
(41.4183 0 0)
(41.4305 0 0)
(41.4426 0 0)
(41.4548 0 0)
(41.467 0 0)
(41.4791 0 0)
(41.4913 0 0)
(41.5035 0 0)
(41.5156 0 0)
(41.5278 0 0)
(41.54 0 0)
(41.5521 0 0)
(41.5643 0 0)
(41.5765 0 0)
(41.5886 0 0)
(41.6008 0 0)
(41.613 0 0)
(41.6252 0 0)
(41.6373 0 0)
(41.6495 0 0)
(41.6617 0 0)
(41.6738 0 0)
(41.686 0 0)
(41.6982 0 0)
(41.7104 0 0)
(41.7225 0 0)
(41.7347 0 0)
(41.7469 0 0)
(41.759 0 0)
(41.7712 0 0)
(41.7834 0 0)
(41.7956 0 0)
(41.8077 0 0)
(41.8199 0 0)
(41.8321 0 0)
(41.8443 0 0)
(41.8564 0 0)
(41.8686 0 0)
(41.8808 0 0)
(41.893 0 0)
(41.9051 0 0)
(41.9173 0 0)
(41.9295 0 0)
(41.9417 0 0)
(41.9539 0 0)
(41.966 0 0)
(41.9782 0 0)
(41.9904 0 0)
(42.0026 0 0)
(42.0147 0 0)
(42.0269 0 0)
(42.0391 0 0)
(42.0513 0 0)
(42.0635 0 0)
(42.0756 0 0)
(42.0878 0 0)
(42.1 0 0)
(42.1122 0 0)
(42.1244 0 0)
(42.1365 0 0)
(42.1487 0 0)
(42.1609 0 0)