/*--------------------------------*- C++ -*----------------------------------*\
  =========                 |
  \\      /  F ield         | OpenFOAM: The Open Source CFD Toolbox
   \\    /   O peration     | Website:  https://openfoam.org
    \\  /    A nd           | Version:  9
     \\/     M anipulation  |
\*---------------------------------------------------------------------------*/
FoamFile
{
    format      ascii;
    class       volScalarField;
    location    "0.037";
    object      ddt0(p);
}
// * * * * * * * * * * * * * * * * * * * * * * * * * * * * * * * * * * * * * //

dimensions      [1 -1 -3 0 0 0 0];

internalField   nonuniform List<scalar> 
1000
(
-636165
-636010
-635826
-635667
-635523
-635382
-635246
-635110
-634971
-634827
-634679
-634525
-634368
-634212
-634065
-633926
-633787
-633646
-633502
-633355
-633200
-633040
-632885
-632738
-632595
-632449
-632304
-632158
-632004
-631842
-631684
-631538
-631393
-631242
-631092
-630947
-630797
-630632
-630466
-630311
-630173
-630036
-629889
-629739
-629547
-629366
-629230
-629076
-628911
-628769
-628608
-628467
-628298
-628149
-628009
-627802
-627661
-627520
-627360
-627176
-626992
-626839
-626700
-626540
-626374
-626208
-626038
-625869
-625703
-625542
-625382
-625222
-625061
-624889
-624716
-624545
-624374
-624210
-624047
-623880
-623712
-623538
-623361
-623188
-623016
-622846
-622681
-622513
-622339
-622166
-621988
-621805
-621628
-621452
-621274
-621101
-620929
-620751
-620571
-620394
-620210
-620027
-619849
-619669
-619486
-619305
-619124
-618936
-618747
-618564
-618378
-618188
-618004
-617821
-617632
-617440
-617252
-617060
-616863
-616669
-616480
-616286
-616090
-615899
-615707
-615508
-615308
-615110
-614911
-614707
-614504
-614305
-614103
-613896
-613691
-613488
-613281
-613070
-612862
-612656
-612446
-612232
-612020
-611809
-611593
-611373
-611155
-610938
-610718
-610495
-610273
-610053
-609831
-609603
-609375
-609149
-608920
-608686
-608450
-608218
-607986
-607748
-607507
-607269
-607031
-606788
-606540
-606293
-606047
-605799
-605545
-605290
-605036
-604782
-604522
-604259
-603995
-603734
-603469
-603198
-602926
-602655
-602383
-602106
-601824
-601541
-601258
-600973
-600682
-600387
-600092
-599797
-599499
-599195
-598888
-598582
-598274
-597960
-597641
-597320
-596998
-596674
-596343
-596007
-595669
-595331
-594989
-594640
-594286
-593930
-593573
-593211
-592843
-592468
-592092
-591713
-591330
-590940
-590543
-590142
-589740
-589332
-588917
-588494
-588067
-587638
-587203
-586762
-586311
-585854
-585393
-584933
-584462
-583960
-583467
-583023
-582503
-581864
-581489
-580946
-580363
-579750
-579455
-578740
-577887
-577666
-577119
-576224
-575696
-575448
-574270
-573942
-573279
-572705
-571721
-571331
-570882
-569759
-569089
-568731
-567787
-566912
-566871
-565489
-564867
-564600
-563346
-562727
-562313
-561567
-561245
-561258
-560437
-558152
-557909
-555323
-554213
-553280
-552203
-551102
-550135
-549205
-548094
-547108
-546124
-544979
-543848
-542746
-541584
-540424
-539293
-538120
-536901
-535658
-534388
-533096
-531790
-530457
-529096
-527725
-526347
-524944
-523512
-522057
-520594
-519125
-517646
-516143
-514612
-513057
-511482
-509892
-508286
-506671
-505048
-503421
-501789
-500152
-498506
-496847
-495174
-493489
-491796
-490101
-488408
-486720
-485039
-483363
-481694
-480032
-478378
-476734
-475101
-473480
-471875
-470287
-468717
-467168
-465641
-464142
-462673
-461239
-459842
-458483
-457160
-455873
-454622
-453407
-452228
-451088
-449987
-448931
-447921
-446962
-446054
-445199
-444397
-443644
-442941
-442286
-441680
-441121
-440610
-440146
-439729
-439360
-439040
-438769
-438545
-438366
-438230
-438134
-438075
-438053
-438067
-438117
-438203
-438324
-438479
-438670
-438893
-439146
-439426
-439729
-440053
-440397
-440759
-441140
-441540
-441959
-442395
-442846
-443313
-443796
-444292
-444801
-445321
-445850
-446386
-446929
-447478
-448033
-448593
-449157
-449727
-450302
-450884
-451473
-452068
-452668
-453272
-453878
-454486
-455096
-455708
-456322
-456939
-457557
-458178
-458801
-459427
-460056
-460688
-461321
-461954
-462586
-463218
-463850
-464482
-465116
-465752
-466390
-467029
-467671
-468315
-468961
-469608
-470256
-470902
-471547
-472191
-472836
-473481
-474128
-474775
-475423
-476073
-476724
-477377
-478032
-478689
-479345
-480002
-480657
-481313
-481969
-482626
-483283
-483942
-484601
-485262
-485924
-486589
-487256
-487924
-488592
-489261
-489929
-490597
-491265
-491933
-492603
-493272
-493942
-494613
-495284
-495957
-496631
-497306
-497981
-498656
-499331
-500007
-500683
-501362
-502042
-502723
-503405
-504088
-504772
-505457
-506144
-506831
-507518
-508204
-508890
-509575
-510261
-510948
-511635
-512324
-513014
-513705
-514398
-515092
-515788
-516486
-517184
-517883
-518582
-519280
-519980
-520679
-521380
-522082
-522785
-523489
-524193
-524899
-525607
-526315
-527025
-527735
-528445
-529155
-529864
-530574
-531286
-531998
-532711
-533425
-534139
-534855
-535573
-536292
-537012
-537734
-538455
-539177
-539899
-540622
-541346
-542071
-542797
-543524
-544252
-544981
-545712
-546444
-547178
-547913
-548648
-549385
-550121
-550858
-551596
-552335
-553076
-553817
-554559
-555301
-556044
-556789
-557534
-558281
-559029
-559778
-560527
-561277
-562027
-562779
-563532
-564287
-565043
-565800
-566557
-567315
-568074
-568835
-569597
-570359
-571121
-571884
-572647
-573411
-574177
-574944
-575712
-576481
-577251
-578022
-578794
-579568
-580344
-581121
-581898
-582676
-583454
-584234
-585015
-585797
-586581
-587365
-588150
-588936
-589723
-590512
-591302
-592092
-592884
-593675
-594467
-595261
-596055
-596851
-597648
-598446
-599245
-600044
-600845
-601648
-602452
-603257
-604064
-604871
-605678
-606486
-607295
-608107
-608919
-609732
-610545
-611360
-612176
-612992
-613812
-614631
-615454
-616275
-617098
-617922
-618746
-619574
-620400
-621232
-622059
-622891
-623722
-624555
-625391
-626225
-627065
-627900
-628742
-629579
-630420
-631262
-632104
-632950
-633792
-634641
-635483
-636334
-637179
-638032
-638883
-639734
-640590
-641440
-642300
-643151
-644014
-644870
-645732
-646593
-647453
-648319
-649179
-650049
-650912
-651784
-652652
-653521
-654394
-655263
-656139
-657010
-657888
-658761
-659640
-660514
-661393
-662272
-663150
-664032
-664911
-665796
-666674
-667562
-668441
-669328
-670212
-671096
-671985
-672867
-673756
-674639
-675528
-676411
-677302
-678184
-679075
-679959
-680844
-681733
-682611
-683502
-684379
-685266
-686144
-687025
-687905
-688778
-689659
-690528
-691405
-692272
-693142
-694009
-694869
-695736
-696588
-697447
-698297
-699146
-699991
-700830
-701669
-702496
-703327
-704144
-704962
-705772
-706573
-707375
-708158
-708949
-709717
-710486
-711248
-711990
-712739
-713465
-714187
-714899
-715598
-716286
-716965
-717631
-718281
-718926
-719550
-720163
-720767
-721348
-721919
-722477
-723014
-723535
-724049
-724534
-725007
-725469
-725903
-726322
-726731
-727112
-727473
-727832
-728151
-728459
-728760
-729022
-729276
-729516
-729726
-729921
-730106
-730263
-730403
-730533
-730642
-730732
-730812
-730878
-730922
-730959
-730987
-730994
-730997
-730993
-730976
-730953
-730929
-730896
-730859
-730827
-730792
-730756
-730729
-730705
-730685
-730680
-730684
-730698
-730732
-730782
-730848
-730941
-731057
-731196
-731368
-731570
-731805
-732075
-732385
-732737
-733127
-733563
-734051
-734580
-735161
-735801
-736488
-737230
-738034
-738894
-739810
-740791
-741831
-742933
-744097
-745323
-746613
-747969
-749379
-750861
-752402
-754003
-755661
-757392
-759167
-761006
-762900
-764854
-766846
-768906
-771005
-773153
-775340
-777582
-779851
-782162
-784506
-786889
-789290
-791724
-794182
-796661
-799154
-801665
-804192
-806723
-809264
-811809
-814357
-816901
-819445
-821985
-824514
-827034
-829546
-832042
-834524
-836989
-839438
-841867
-844277
-846666
-849032
-851375
-853698
-855994
-858263
-860509
-862733
-864925
-867091
-869232
-871347
-873432
-875490
-877521
-879525
-881501
-883450
-885371
-887267
-889136
-890981
-892799
-894594
-896366
-898114
-899836
-901512
-903392
-904750
-906518
-908162
-909974
-911273
-912853
-914541
-916169
-917568
-918996
-920632
-922070
-923586
-924878
-926393
-927669
-929098
-930250
-931769
-932861
-933858
-935314
-935829
-936841
-937755
-938178
-938664
-939166
-938984
-939051
-938827
-938131
-937133
-936214
-934688
-932916
-931161
-928905
-926359
-923730
-920740
-917685
-914664
-911430
-908273
-905246
-902228
-899538
-897162
-895032
-893352
-892094
-891202
-890878
-890930
-891546
-892636
-894186
-896146
-898479
-901149
-904100
-907287
-910654
-914161
-917764
-921434
-925135
-928847
-932546
-936217
-939844
-943424
-946947
-950412
-953815
-957161
-960446
-963675
-966840
-969947
-973033
-975926
)
;

boundaryField
{
    sides
    {
        type            calculated;
        value           nonuniform List<scalar> 2(-975926 -636165);
    }
    empty
    {
        type            empty;
    }
}


// ************************************************************************* //
