/*--------------------------------*- C++ -*----------------------------------*\
  =========                 |
  \\      /  F ield         | OpenFOAM: The Open Source CFD Toolbox
   \\    /   O peration     | Website:  https://openfoam.org
    \\  /    A nd           | Version:  9
     \\/     M anipulation  |
\*---------------------------------------------------------------------------*/
FoamFile
{
    format      ascii;
    class       volVectorField;
    location    "0.037";
    object      ddt0(rho,U);
}
// * * * * * * * * * * * * * * * * * * * * * * * * * * * * * * * * * * * * * //

dimensions      [1 -2 -2 0 0 0 0];

internalField   nonuniform List<vector> 
1000
(
(-52.6854 0 0)
(-59.0377 0 0)
(-65.7289 0 0)
(-71.0918 0 0)
(-76.0726 0 0)
(-81.1769 0 0)
(-86.3753 0 0)
(-91.5572 0 0)
(-96.7134 0 0)
(-101.89 0 0)
(-107.104 0 0)
(-112.322 0 0)
(-117.5 0 0)
(-122.621 0 0)
(-127.718 0 0)
(-132.848 0 0)
(-138.046 0 0)
(-143.292 0 0)
(-148.527 0 0)
(-153.697 0 0)
(-158.79 0 0)
(-163.825 0 0)
(-168.846 0 0)
(-173.91 0 0)
(-179.069 0 0)
(-184.329 0 0)
(-189.645 0 0)
(-194.956 0 0)
(-200.214 0 0)
(-205.375 0 0)
(-210.395 0 0)
(-215.281 0 0)
(-220.104 0 0)
(-224.943 0 0)
(-229.845 0 0)
(-234.855 0 0)
(-240.024 0 0)
(-245.374 0 0)
(-250.86 0 0)
(-256.409 0 0)
(-261.968 0 0)
(-267.522 0 0)
(-273.045 0 0)
(-278.53 0 0)
(-283.991 0 0)
(-289.332 0 0)
(-294.516 0 0)
(-299.68 0 0)
(-304.883 0 0)
(-310.139 0 0)
(-315.475 0 0)
(-321.385 0 0)
(-327.019 0 0)
(-332.172 0 0)
(-337.508 0 0)
(-342.663 0 0)
(-347.807 0 0)
(-353.078 0 0)
(-358.266 0 0)
(-363.384 0 0)
(-368.402 0 0)
(-373.784 0 0)
(-378.762 0 0)
(-384.275 0 0)
(-389.187 0 0)
(-394.444 0 0)
(-399.734 0 0)
(-404.56 0 0)
(-410.138 0 0)
(-415.036 0 0)
(-420.252 0 0)
(-425.747 0 0)
(-430.477 0 0)
(-435.996 0 0)
(-441.14 0 0)
(-445.926 0 0)
(-451.608 0 0)
(-456.519 0 0)
(-461.512 0 0)
(-467.246 0 0)
(-471.977 0 0)
(-477.074 0 0)
(-482.775 0 0)
(-487.393 0 0)
(-492.561 0 0)
(-498.327 0 0)
(-502.937 0 0)
(-508.076 0 0)
(-513.925 0 0)
(-518.528 0 0)
(-523.468 0 0)
(-529.404 0 0)
(-534.133 0 0)
(-538.802 0 0)
(-544.822 0 0)
(-549.893 0 0)
(-554.249 0 0)
(-560.138 0 0)
(-565.694 0 0)
(-569.841 0 0)
(-575.245 0 0)
(-581.333 0 0)
(-585.69 0 0)
(-590.357 0 0)
(-596.674 0 0)
(-601.761 0 0)
(-605.773 0 0)
(-611.599 0 0)
(-617.643 0 0)
(-621.708 0 0)
(-626.435 0 0)
(-632.932 0 0)
(-638.022 0 0)
(-641.863 0 0)
(-647.621 0 0)
(-653.955 0 0)
(-658.124 0 0)
(-662.413 0 0)
(-668.85 0 0)
(-674.531 0 0)
(-678.258 0 0)
(-683.281 0 0)
(-689.96 0 0)
(-694.935 0 0)
(-698.653 0 0)
(-704.328 0 0)
(-710.854 0 0)
(-715.284 0 0)
(-719.219 0 0)
(-725.295 0 0)
(-731.578 0 0)
(-735.689 0 0)
(-739.894 0 0)
(-746.22 0 0)
(-752.246 0 0)
(-756.221 0 0)
(-760.613 0 0)
(-767.056 0 0)
(-772.937 0 0)
(-776.828 0 0)
(-781.344 0 0)
(-787.835 0 0)
(-793.684 0 0)
(-797.55 0 0)
(-802.029 0 0)
(-808.526 0 0)
(-814.482 0 0)
(-818.348 0 0)
(-822.66 0 0)
(-829.116 0 0)
(-835.331 0 0)
(-839.32 0 0)
(-843.329 0 0)
(-849.599 0 0)
(-856.176 0 0)
(-860.485 0 0)
(-864.096 0 0)
(-869.922 0 0)
(-876.871 0 0)
(-881.786 0 0)
(-885.117 0 0)
(-890.19 0 0)
(-897.305 0 0)
(-903.118 0 0)
(-906.531 0 0)
(-910.647 0 0)
(-917.396 0 0)
(-924.174 0 0)
(-928.291 0 0)
(-931.586 0 0)
(-937.316 0 0)
(-944.659 0 0)
(-950.075 0 0)
(-953.233 0 0)
(-957.548 0 0)
(-964.54 0 0)
(-971.342 0 0)
(-975.398 0 0)
(-978.632 0 0)
(-984.294 0 0)
(-991.703 0 0)
(-997.409 0 0)
(-1000.71 0 0)
(-1004.72 0 0)
(-1011.4 0 0)
(-1018.52 0 0)
(-1023.16 0 0)
(-1026.33 0 0)
(-1031.3 0 0)
(-1038.55 0 0)
(-1045.01 0 0)
(-1048.87 0 0)
(-1052.31 0 0)
(-1058.19 0 0)
(-1065.64 0 0)
(-1071.4 0 0)
(-1074.75 0 0)
(-1078.63 0 0)
(-1085.22 0 0)
(-1092.69 0 0)
(-1097.85 0 0)
(-1100.89 0 0)
(-1105.15 0 0)
(-1112.26 0 0)
(-1119.73 0 0)
(-1124.5 0 0)
(-1127.35 0 0)
(-1131.82 0 0)
(-1139.23 0 0)
(-1146.79 0 0)
(-1151.45 0 0)
(-1154.19 0 0)
(-1158.66 0 0)
(-1166.15 0 0)
(-1173.86 0 0)
(-1178.69 0 0)
(-1181.48 0 0)
(-1185.76 0 0)
(-1193.08 0 0)
(-1200.92 0 0)
(-1206.15 0 0)
(-1209.13 0 0)
(-1213.17 0 0)
(-1220.18 0 0)
(-1228.1 0 0)
(-1233.8 0 0)
(-1237.03 0 0)
(-1240.85 0 0)
(-1247.52 0 0)
(-1255.57 0 0)
(-1261.77 0 0)
(-1265.22 0 0)
(-1268.72 0 0)
(-1275 0 0)
(-1283.25 0 0)
(-1290.16 0 0)
(-1294.08 0 0)
(-1297.2 0 0)
(-1302.41 0 0)
(-1310.5 0 0)
(-1319.13 0 0)
(-1323.79 0 0)
(-1326.44 0 0)
(-1330.97 0 0)
(-1337.36 0 0)
(-1346.97 0 0)
(-1353.87 0 0)
(-1357.43 0 0)
(-1360.61 0 0)
(-1365.91 0 0)
(-1372.88 0 0)
(-1383.74 0 0)
(-1388.22 0 0)
(-1391.45 0 0)
(-1396.08 0 0)
(-1401.61 0 0)
(-1410.11 0 0)
(-1419.42 0 0)
(-1422.62 0 0)
(-1426.65 0 0)
(-1432.45 0 0)
(-1437.77 0 0)
(-1447.34 0 0)
(-1454.79 0 0)
(-1457.98 0 0)
(-1463.05 0 0)
(-1468.52 0 0)
(-1474.64 0 0)
(-1482.33 0 0)
(-1488.94 0 0)
(-1492.12 0 0)
(-1498.38 0 0)
(-1503.54 0 0)
(-1509.84 0 0)
(-1521.12 0 0)
(-1527.8 0 0)
(-1534.69 0 0)
(-1541.53 0 0)
(-1547.38 0 0)
(-1553.97 0 0)
(-1561.57 0 0)
(-1569.1 0 0)
(-1575.1 0 0)
(-1580.82 0 0)
(-1587.17 0 0)
(-1594.03 0 0)
(-1601.45 0 0)
(-1608.65 0 0)
(-1614.77 0 0)
(-1620.76 0 0)
(-1627.79 0 0)
(-1635.56 0 0)
(-1643.48 0 0)
(-1650.58 0 0)
(-1656.78 0 0)
(-1663 0 0)
(-1670.16 0 0)
(-1678.16 0 0)
(-1686.26 0 0)
(-1693.72 0 0)
(-1700.24 0 0)
(-1706.44 0 0)
(-1713.41 0 0)
(-1721.57 0 0)
(-1730.15 0 0)
(-1738.08 0 0)
(-1744.99 0 0)
(-1751.56 0 0)
(-1758.62 0 0)
(-1766.8 0 0)
(-1775.41 0 0)
(-1783.22 0 0)
(-1790.2 0 0)
(-1797 0 0)
(-1804.5 0 0)
(-1812.86 0 0)
(-1821.55 0 0)
(-1829.63 0 0)
(-1836.77 0 0)
(-1843.62 0 0)
(-1851.08 0 0)
(-1859.54 0 0)
(-1868.44 0 0)
(-1876.91 0 0)
(-1884.12 0 0)
(-1890.58 0 0)
(-1897.58 0 0)
(-1905.74 0 0)
(-1914.67 0 0)
(-1923.43 0 0)
(-1931.16 0 0)
(-1937.89 0 0)
(-1944.61 0 0)
(-1952.23 0 0)
(-1960.63 0 0)
(-1968.99 0 0)
(-1976.67 0 0)
(-1983.48 0 0)
(-1989.93 0 0)
(-1997 0 0)
(-2005.13 0 0)
(-2013.54 0 0)
(-2021.08 0 0)
(-2027.5 0 0)
(-2033.47 0 0)
(-2039.83 0 0)
(-2047.31 0 0)
(-2055.53 0 0)
(-2063.27 0 0)
(-2069.76 0 0)
(-2075.33 0 0)
(-2080.72 0 0)
(-2086.68 0 0)
(-2093.73 0 0)
(-2101.24 0 0)
(-2107.85 0 0)
(-2113.28 0 0)
(-2118.37 0 0)
(-2123.85 0 0)
(-2130.02 0 0)
(-2136.74 0 0)
(-2143.1 0 0)
(-2148.18 0 0)
(-2152.44 0 0)
(-2156.93 0 0)
(-2162.19 0 0)
(-2168.31 0 0)
(-2174.76 0 0)
(-2180.35 0 0)
(-2184.42 0 0)
(-2187.93 0 0)
(-2192.01 0 0)
(-2196.85 0 0)
(-2202.43 0 0)
(-2208.14 0 0)
(-2212.86 0 0)
(-2216.32 0 0)
(-2219.67 0 0)
(-2223.86 0 0)
(-2228.75 0 0)
(-2233.83 0 0)
(-2238.56 0 0)
(-2242.27 0 0)
(-2245.08 0 0)
(-2248.25 0 0)
(-2252.67 0 0)
(-2257.87 0 0)
(-2262.85 0 0)
(-2266.98 0 0)
(-2270.09 0 0)
(-2272.63 0 0)
(-2275.66 0 0)
(-2279.86 0 0)
(-2284.8 0 0)
(-2289.4 0 0)
(-2293.15 0 0)
(-2296.26 0 0)
(-2299.25 0 0)
(-2302.78 0 0)
(-2307.17 0 0)
(-2311.98 0 0)
(-2316.17 0 0)
(-2319.19 0 0)
(-2321.54 0 0)
(-2324.38 0 0)
(-2328.35 0 0)
(-2333.16 0 0)
(-2337.98 0 0)
(-2342.13 0 0)
(-2345.31 0 0)
(-2347.87 0 0)
(-2350.68 0 0)
(-2354.46 0 0)
(-2359.15 0 0)
(-2363.85 0 0)
(-2367.7 0 0)
(-2370.59 0 0)
(-2373.28 0 0)
(-2376.7 0 0)
(-2381.14 0 0)
(-2386.14 0 0)
(-2390.68 0 0)
(-2394.15 0 0)
(-2396.86 0 0)
(-2399.54 0 0)
(-2402.86 0 0)
(-2407.04 0 0)
(-2411.88 0 0)
(-2416.61 0 0)
(-2420.4 0 0)
(-2423.23 0 0)
(-2425.98 0 0)
(-2429.66 0 0)
(-2434.26 0 0)
(-2439.01 0 0)
(-2443.19 0 0)
(-2446.65 0 0)
(-2449.51 0 0)
(-2452.36 0 0)
(-2456 0 0)
(-2460.69 0 0)
(-2465.79 0 0)
(-2470.3 0 0)
(-2473.79 0 0)
(-2476.67 0 0)
(-2479.64 0 0)
(-2483.28 0 0)
(-2487.75 0 0)
(-2492.59 0 0)
(-2496.99 0 0)
(-2500.45 0 0)
(-2503.26 0 0)
(-2506.31 0 0)
(-2510.25 0 0)
(-2515.12 0 0)
(-2520.2 0 0)
(-2524.65 0 0)
(-2528.11 0 0)
(-2530.92 0 0)
(-2533.97 0 0)
(-2537.81 0 0)
(-2542.46 0 0)
(-2547.37 0 0)
(-2551.82 0 0)
(-2555.46 0 0)
(-2558.49 0 0)
(-2561.72 0 0)
(-2565.73 0 0)
(-2570.54 0 0)
(-2575.5 0 0)
(-2580.01 0 0)
(-2583.73 0 0)
(-2586.77 0 0)
(-2589.76 0 0)
(-2593.41 0 0)
(-2598.11 0 0)
(-2603.33 0 0)
(-2608.14 0 0)
(-2611.86 0 0)
(-2614.87 0 0)
(-2617.99 0 0)
(-2621.93 0 0)
(-2626.8 0 0)
(-2632 0 0)
(-2636.74 0 0)
(-2640.5 0 0)
(-2643.53 0 0)
(-2646.67 0 0)
(-2650.6 0 0)
(-2655.38 0 0)
(-2660.43 0 0)
(-2665.1 0 0)
(-2669.09 0 0)
(-2672.5 0 0)
(-2675.87 0 0)
(-2679.7 0 0)
(-2684.28 0 0)
(-2689.39 0 0)
(-2694.4 0 0)
(-2698.67 0 0)
(-2702.06 0 0)
(-2705.18 0 0)
(-2708.81 0 0)
(-2713.4 0 0)
(-2718.58 0 0)
(-2723.61 0 0)
(-2727.89 0 0)
(-2731.44 0 0)
(-2734.77 0 0)
(-2738.51 0 0)
(-2742.95 0 0)
(-2748.03 0 0)
(-2753.2 0 0)
(-2757.86 0 0)
(-2761.74 0 0)
(-2765.03 0 0)
(-2768.51 0 0)
(-2772.71 0 0)
(-2777.8 0 0)
(-2783.11 0 0)
(-2787.95 0 0)
(-2791.93 0 0)
(-2795.28 0 0)
(-2798.75 0 0)
(-2802.89 0 0)
(-2807.86 0 0)
(-2813.16 0 0)
(-2818.18 0 0)
(-2822.43 0 0)
(-2826.02 0 0)
(-2829.55 0 0)
(-2833.6 0 0)
(-2838.43 0 0)
(-2843.68 0 0)
(-2848.8 0 0)
(-2853.26 0 0)
(-2857.03 0 0)
(-2860.58 0 0)
(-2864.42 0 0)
(-2869.02 0 0)
(-2874.19 0 0)
(-2879.44 0 0)
(-2884.16 0 0)
(-2888.02 0 0)
(-2891.46 0 0)
(-2895.12 0 0)
(-2899.65 0 0)
(-2904.97 0 0)
(-2910.47 0 0)
(-2915.42 0 0)
(-2919.47 0 0)
(-2923.08 0 0)
(-2926.84 0 0)
(-2931.36 0 0)
(-2936.53 0 0)
(-2941.91 0 0)
(-2947.01 0 0)
(-2951.49 0 0)
(-2955.45 0 0)
(-2959.26 0 0)
(-2963.39 0 0)
(-2968.08 0 0)
(-2973.4 0 0)
(-2978.84 0 0)
(-2983.87 0 0)
(-2988.13 0 0)
(-2991.79 0 0)
(-2995.53 0 0)
(-3000 0 0)
(-3005.34 0 0)
(-3011.08 0 0)
(-3016.47 0 0)
(-3020.9 0 0)
(-3024.57 0 0)
(-3028.14 0 0)
(-3032.43 0 0)
(-3037.7 0 0)
(-3043.55 0 0)
(-3049.1 0 0)
(-3053.73 0 0)
(-3057.45 0 0)
(-3060.96 0 0)
(-3065.18 0 0)
(-3070.4 0 0)
(-3076.35 0 0)
(-3082.07 0 0)
(-3086.82 0 0)
(-3090.62 0 0)
(-3094.07 0 0)
(-3098.21 0 0)
(-3103.44 0 0)
(-3109.44 0 0)
(-3115.37 0 0)
(-3120.28 0 0)
(-3124.3 0 0)
(-3127.75 0 0)
(-3131.89 0 0)
(-3137.03 0 0)
(-3142.96 0 0)
(-3148.95 0 0)
(-3153.92 0 0)
(-3158.15 0 0)
(-3161.72 0 0)
(-3166 0 0)
(-3171.04 0 0)
(-3176.94 0 0)
(-3182.83 0 0)
(-3187.89 0 0)
(-3192.21 0 0)
(-3196 0 0)
(-3200.22 0 0)
(-3205.36 0 0)
(-3211.06 0 0)
(-3217.08 0 0)
(-3222.21 0 0)
(-3226.67 0 0)
(-3230.67 0 0)
(-3234.71 0 0)
(-3240.04 0 0)
(-3245.44 0 0)
(-3251.75 0 0)
(-3256.78 0 0)
(-3261.53 0 0)
(-3265.46 0 0)
(-3269.58 0 0)
(-3274.89 0 0)
(-3280.32 0 0)
(-3286.95 0 0)
(-3291.89 0 0)
(-3297 0 0)
(-3300.51 0 0)
(-3304.79 0 0)
(-3309.82 0 0)
(-3315.33 0 0)
(-3322.39 0 0)
(-3327.1 0 0)
(-3333.11 0 0)
(-3335.79 0 0)
(-3340.87 0 0)
(-3345.08 0 0)
(-3351 0 0)
(-3358.19 0 0)
(-3362.69 0 0)
(-3369.68 0 0)
(-3371.26 0 0)
(-3377.37 0 0)
(-3380.31 0 0)
(-3386.95 0 0)
(-3393.81 0 0)
(-3398.65 0 0)
(-3406.36 0 0)
(-3407.54 0 0)
(-3414.74 0 0)
(-3416.14 0 0)
(-3424.22 0 0)
(-3429.06 0 0)
(-3435.71 0 0)
(-3442.39 0 0)
(-3444.22 0 0)
(-3452.33 0 0)
(-3451.69 0 0)
(-3462.57 0 0)
(-3463.62 0 0)
(-3474.2 0 0)
(-3477.48 0 0)
(-3482.74 0 0)
(-3488.88 0 0)
(-3489.43 0 0)
(-3500.08 0 0)
(-3499.77 0 0)
(-3512.33 0 0)
(-3512.86 0 0)
(-3521.78 0 0)
(-3524.77 0 0)
(-3528.6 0 0)
(-3536.51 0 0)
(-3537.87 0 0)
(-3549.33 0 0)
(-3550.13 0 0)
(-3560.16 0 0)
(-3562 0 0)
(-3568.06 0 0)
(-3573.42 0 0)
(-3577.21 0 0)
(-3585.79 0 0)
(-3588.9 0 0)
(-3597.86 0 0)
(-3599.68 0 0)
(-3608.13 0 0)
(-3609.7 0 0)
(-3617.52 0 0)
(-3622.13 0 0)
(-3627.87 0 0)
(-3635.49 0 0)
(-3638.69 0 0)
(-3647.07 0 0)
(-3648.18 0 0)
(-3658.27 0 0)
(-3658.43 0 0)
(-3669.38 0 0)
(-3672.18 0 0)
(-3678.61 0 0)
(-3686.23 0 0)
(-3687.53 0 0)
(-3697.14 0 0)
(-3698.41 0 0)
(-3707.76 0 0)
(-3710.02 0 0)
(-3720.52 0 0)
(-3721.05 0 0)
(-3732.21 0 0)
(-3733.1 0 0)
(-3740.44 0 0)
(-3747.55 0 0)
(-3748.53 0 0)
(-3761.64 0 0)
(-3760.05 0 0)
(-3772.68 0 0)
(-3773.17 0 0)
(-3781.53 0 0)
(-3786.61 0 0)
(-3789.84 0 0)
(-3800.61 0 0)
(-3800.32 0 0)
(-3812.93 0 0)
(-3813.47 0 0)
(-3822.68 0 0)
(-3827.52 0 0)
(-3830.62 0 0)
(-3842 0 0)
(-3840.54 0 0)
(-3853.65 0 0)
(-3855.17 0 0)
(-3863.17 0 0)
(-3869.04 0 0)
(-3873.86 0 0)
(-3881.76 0 0)
(-3883.39 0 0)
(-3895.53 0 0)
(-3895.12 0 0)
(-3906.12 0 0)
(-3910.59 0 0)
(-3915.59 0 0)
(-3925.13 0 0)
(-3924.92 0 0)
(-3939.96 0 0)
(-3935.53 0 0)
(-3950.1 0 0)
(-3954.19 0 0)
(-3955.34 0 0)
(-3971.52 0 0)
(-3968.21 0 0)
(-3979.61 0 0)
(-3985.41 0 0)
(-3989.61 0 0)
(-3997.18 0 0)
(-4004.25 0 0)
(-4009.47 0 0)
(-4015.18 0 0)
(-4025.67 0 0)
(-4026.79 0 0)
(-4036.4 0 0)
(-4044.27 0 0)
(-4046.23 0 0)
(-4056.17 0 0)
(-4063.55 0 0)
(-4066.73 0 0)
(-4074.66 0 0)
(-4085.8 0 0)
(-4084.71 0 0)
(-4096.49 0 0)
(-4105.24 0 0)
(-4105.44 0 0)
(-4116.42 0 0)
(-4126.26 0 0)
(-4126.18 0 0)
(-4135.67 0 0)
(-4150.06 0 0)
(-4143.89 0 0)
(-4159.27 0 0)
(-4170.17 0 0)
(-4165.35 0 0)
(-4181.32 0 0)
(-4190.02 0 0)
(-4189.26 0 0)
(-4201.09 0 0)
(-4211.96 0 0)
(-4212.59 0 0)
(-4222.02 0 0)
(-4233.45 0 0)
(-4236.94 0 0)
(-4243.3 0 0)
(-4254.95 0 0)
(-4261.76 0 0)
(-4264.44 0 0)
(-4277.69 0 0)
(-4284.91 0 0)
(-4287.59 0 0)
(-4300.07 0 0)
(-4307.87 0 0)
(-4312.2 0 0)
(-4321.82 0 0)
(-4331.89 0 0)
(-4336.37 0 0)
(-4344.29 0 0)
(-4355.94 0 0)
(-4360.22 0 0)
(-4367.71 0 0)
(-4379.41 0 0)
(-4384.41 0 0)
(-4391.52 0 0)
(-4403.04 0 0)
(-4408.71 0 0)
(-4415.2 0 0)
(-4427.1 0 0)
(-4432.81 0 0)
(-4438.84 0 0)
(-4450.89 0 0)
(-4456.9 0 0)
(-4462.99 0 0)
(-4473.84 0 0)
(-4481.09 0 0)
(-4487.89 0 0)
(-4495.97 0 0)
(-4504.86 0 0)
(-4513.11 0 0)
(-4518.01 0 0)
(-4527.75 0 0)
(-4537.89 0 0)
(-4540.75 0 0)
(-4549.95 0 0)
(-4561.57 0 0)
(-4564.21 0 0)
(-4572.05 0 0)
(-4583.45 0 0)
(-4588.02 0 0)
(-4594.16 0 0)
(-4604.48 0 0)
(-4610.17 0 0)
(-4617.75 0 0)
(-4624.07 0 0)
(-4631.92 0 0)
(-4639.41 0 0)
(-4646.87 0 0)
(-4649.59 0 0)
(-4662.81 0 0)
(-4666.38 0 0)
(-4672.34 0 0)
(-4678.25 0 0)
(-4691.9 0 0)
(-4688.42 0 0)
(-4701.26 0 0)
(-4706.25 0 0)
(-4715.03 0 0)
(-4713.36 0 0)
(-4730.93 0 0)
(-4729.7 0 0)
(-4737.92 0 0)
(-4741.65 0 0)
(-4756.07 0 0)
(-4752.21 0 0)
(-4762.72 0 0)
(-4768.85 0 0)
(-4777.71 0 0)
(-4776.65 0 0)
(-4787.21 0 0)
(-4793.72 0 0)
(-4798.75 0 0)
(-4802.44 0 0)
(-4810.56 0 0)
(-4817.65 0 0)
(-4820.27 0 0)
(-4828.3 0 0)
(-4833.92 0 0)
(-4840.12 0 0)
(-4844.05 0 0)
(-4852.07 0 0)
(-4858.5 0 0)
(-4862.03 0 0)
(-4868.32 0 0)
(-4876.52 0 0)
(-4880.84 0 0)
(-4886.88 0 0)
(-4892.32 0 0)
(-4899.41 0 0)
(-4905.15 0 0)
(-4911.53 0 0)
(-4916.8 0 0)
(-4922.81 0 0)
(-4929.4 0 0)
(-4937.54 0 0)
(-4941.07 0 0)
(-4946.74 0 0)
(-4955.4 0 0)
(-4962.76 0 0)
(-4965.54 0 0)
(-4972.61 0 0)
(-4981.07 0 0)
(-4987.76 0 0)
(-4991.56 0 0)
(-4998.86 0 0)
(-5006.55 0 0)
(-5013.7 0 0)
(-5018.52 0 0)
(-5025.54 0 0)
(-5032.27 0 0)
(-5040.04 0 0)
(-5046.45 0 0)
(-5053.28 0 0)
(-5058.05 0 0)
(-5066.43 0 0)
(-5075.27 0 0)
(-5081.83 0 0)
(-5084.65 0 0)
(-5093.1 0 0)
(-5103.49 0 0)
(-5111.51 0 0)
(-5112.93 0 0)
(-5120.18 0 0)
(-5131.06 0 0)
(-5140.65 0 0)
(-5142.92 0 0)
(-5148.64 0 0)
(-5159.21 0 0)
(-5169.08 0 0)
(-5172.57 0 0)
(-5177.9 0 0)
(-5187.94 0 0)
(-5198.25 0 0)
(-5203.22 0 0)
(-5207.21 0 0)
(-5215.83 0 0)
(-5227.33 0 0)
(-5235.19 0 0)
(-5239.67 0 0)
(-5244.17 0 0)
(-5255.04 0 0)
(-5265.43 0 0)
(-5275.08 0 0)
(-5278.43 0 0)
(-5283.79 0 0)
(-5294.57 0 0)
(-5305.88 0 0)
(-5315.64 0 0)
(-5323.93 0 0)
(-5327.57 0 0)
(-5337.28 0 0)
(-5349.72 0 0)
(-5360.63 0 0)
(-5371.54 0 0)
(-5381.02 0 0)
(-5388.65 0 0)
(-5398.57 0 0)
(-5411.81 0 0)
(-5424.37 0 0)
(-5437.75 0 0)
(-5448.67 0 0)
(-5459.58 0 0)
(-5470.37 0 0)
(-5483.8 0 0)
(-5496.3 0 0)
(-5510.74 0 0)
(-5522.45 0 0)
(-5534.35 0 0)
(-5545.06 0 0)
(-5557.06 0 0)
(-5568.44 0 0)
(-5580.86 0 0)
(-5591.73 0 0)
(-5601.79 0 0)
(-5611.6 0 0)
(-5619.51 0 0)
(-5630.59 0 0)
(-5638.2 0 0)
(-5648.03 0 0)
(-5654.5 0 0)
(-5662.26 0 0)
(-5668.19 0 0)
(-5678.43 0 0)
(-5684.16 0 0)
(-5691.38 0 0)
(-5696.96 0 0)
(-5704.62 0 0)
(-5709.2 0 0)
(-5718.14 0 0)
(-5724.37 0 0)
(-5731.44 0 0)
(-5735.94 0 0)
(-5744.03 0 0)
(-5749.68 0 0)
(-5758.16 0 0)
(-5764.11 0 0)
(-5772.19 0 0)
(-5777.12 0 0)
(-5785.08 0 0)
(-5791.19 0 0)
(-5799.76 0 0)
(-5805.85 0 0)
(-5814.67 0 0)
(-5823.77 0 0)
)
;

boundaryField
{
    sides
    {
        type            calculated;
        value           nonuniform List<vector> 2((-5823.77 0 0) (-52.6854 0 0));
    }
    empty
    {
        type            empty;
    }
}


// ************************************************************************* //
