/*--------------------------------*- C++ -*----------------------------------*\
  =========                 |
  \\      /  F ield         | OpenFOAM: The Open Source CFD Toolbox
   \\    /   O peration     | Website:  https://openfoam.org
    \\  /    A nd           | Version:  9
     \\/     M anipulation  |
\*---------------------------------------------------------------------------*/
FoamFile
{
    format      ascii;
    class       volScalarField;
    location    "0.037";
    object      p;
}
// * * * * * * * * * * * * * * * * * * * * * * * * * * * * * * * * * * * * * //

dimensions      [1 -1 -2 0 0 0 0];

internalField   nonuniform List<scalar> 
1000
(
14195
14193
14189.7
14186.8
14184.3
14181.9
14179.4
14176.9
14174.3
14171.8
14169.3
14166.8
14164.3
14161.8
14159.3
14156.8
14154.3
14151.8
14149.3
14146.8
14144.3
14141.8
14139.3
14136.8
14134.4
14131.9
14129.4
14126.9
14124.4
14122
14119.5
14117
14114.5
14112.1
14109.6
14107.1
14104.7
14102.2
14099.8
14097.3
14094.9
14092.4
14089.9
14087.5
14085
14082.6
14080.2
14077.7
14075.3
14072.8
14070.4
14068
14065.5
14063.1
14060.7
14058.2
14055.8
14053.4
14051
14048.5
14046.1
14043.7
14041.3
14038.9
14036.5
14034.1
14031.6
14029.2
14026.8
14024.4
14022
14019.6
14017.2
14014.8
14012.4
14010
14007.7
14005.3
14002.9
14000.5
13998.1
13995.7
13993.4
13991
13988.6
13986.2
13983.9
13981.5
13979.1
13976.8
13974.4
13972.1
13969.7
13967.3
13965
13962.6
13960.3
13958
13955.6
13953.3
13950.9
13948.6
13946.3
13943.9
13941.6
13939.3
13937
13934.7
13932.3
13930
13927.7
13925.4
13923.1
13920.8
13918.5
13916.2
13913.9
13911.6
13909.4
13907.1
13904.8
13902.5
13900.2
13898
13895.7
13893.4
13891.2
13888.9
13886.7
13884.4
13882.2
13879.9
13877.7
13875.5
13873.2
13871
13868.8
13866.6
13864.4
13862.2
13860
13857.8
13855.6
13853.4
13851.2
13849
13846.8
13844.6
13842.5
13840.3
13838.2
13836
13833.9
13831.7
13829.6
13827.4
13825.3
13823.2
13821.1
13819
13816.9
13814.8
13812.7
13810.6
13808.5
13806.4
13804.3
13802.3
13800.2
13798.2
13796.1
13794.1
13792.1
13790.1
13788
13786
13784
13782
13780.1
13778.1
13776.1
13774.2
13772.2
13770.3
13768.3
13766.4
13764.5
13762.6
13760.7
13758.8
13756.9
13755.1
13753.2
13751.4
13749.5
13747.7
13745.9
13744.1
13742.3
13740.5
13738.7
13737
13735.2
13733.5
13731.8
13730.1
13728.4
13726.7
13725
13723.4
13721.7
13720.1
13718.5
13716.9
13715.3
13713.7
13712.2
13710.7
13709.1
13707.6
13706.2
13704.7
13703.2
13701.8
13700.4
13699
13697.7
13696.3
13695
13693.7
13692.4
13691.1
13689.9
13688.7
13687.5
13686.3
13685.1
13684
13682.9
13681.9
13680.8
13679.8
13678.8
13677.8
13676.9
13676
13675.2
13674.3
13673.5
13672.7
13672
13671.3
13670.6
13670
13669.4
13668.8
13668.3
13667.8
13667.4
13667
13666.6
13666.3
13666
13665.8
13665.5
13665.4
13665.3
13665.2
13665.1
13665.2
13665.2
13665.2
13665.3
13665.5
13665.7
13666
13666.4
13666.9
13667.5
13668.1
13668.8
13669.6
13670.4
13671.3
13672.3
13673.3
13674.4
13675.5
13676.8
13678.1
13679.5
13681
13682.5
13684.1
13685.9
13687.7
13689.6
13691.6
13693.6
13695.8
13698.1
13700.4
13702.9
13705.4
13708.1
13710.8
13713.7
13716.7
13719.8
13723
13726.3
13729.7
13733.2
13736.8
13740.6
13744.5
13748.5
13752.6
13756.9
13761.2
13765.7
13770.3
13775.1
13780
13785
13790.1
13795.4
13800.8
13806.3
13811.9
13817.7
13823.6
13829.7
13835.9
13842.2
13848.6
13855.2
13861.9
13868.7
13875.7
13882.8
13890
13897.3
13904.8
13912.3
13920
13927.8
13935.8
13943.8
13952
13960.2
13968.6
13977.1
13985.6
13994.3
14003.1
14012
14020.9
14030
14039.1
14048.3
14057.6
14067
14076.4
14085.9
14095.5
14105.2
14114.9
14124.7
14134.5
14144.4
14154.3
14164.3
14174.4
14184.5
14194.6
14204.8
14215
14225.3
14235.5
14245.9
14256.2
14266.6
14277
14287.5
14297.9
14308.4
14319
14329.5
14340.1
14350.6
14361.3
14371.9
14382.5
14393.2
14403.8
14414.5
14425.2
14436
14446.7
14457.4
14468.2
14479
14489.8
14500.6
14511.4
14522.2
14533
14543.9
14554.7
14565.6
14576.5
14587.3
14598.2
14609.2
14620.1
14631
14641.9
14652.9
14663.9
14674.8
14685.8
14696.8
14707.8
14718.8
14729.8
14740.9
14751.9
14763
14774
14785.1
14796.2
14807.2
14818.3
14829.5
14840.6
14851.7
14862.8
14874
14885.1
14896.3
14907.5
14918.7
14929.9
14941.1
14952.3
14963.5
14974.7
14986
14997.2
15008.5
15019.8
15031.1
15042.4
15053.7
15065
15076.3
15087.6
15099
15110.3
15121.7
15133.1
15144.4
15155.8
15167.2
15178.6
15190.1
15201.5
15212.9
15224.4
15235.8
15247.3
15258.8
15270.3
15281.8
15293.3
15304.8
15316.3
15327.9
15339.4
15351
15362.6
15374.1
15385.7
15397.3
15409
15420.6
15432.2
15443.9
15455.5
15467.2
15478.8
15490.5
15502.2
15513.9
15525.7
15537.4
15549.1
15560.9
15572.6
15584.4
15596.2
15608
15619.8
15631.6
15643.4
15655.2
15667.1
15678.9
15690.8
15702.7
15714.5
15726.4
15738.4
15750.3
15762.2
15774.1
15786.1
15798.1
15810
15822
15834
15846
15858
15870.1
15882.1
15894.1
15906.2
15918.3
15930.4
15942.5
15954.6
15966.7
15978.8
15990.9
16003.1
16015.2
16027.4
16039.6
16051.8
16064
16076.2
16088.4
16100.7
16112.9
16125.2
16137.5
16149.7
16162
16174.3
16186.7
16199
16211.3
16223.7
16236
16248.4
16260.8
16273.2
16285.6
16298
16310.4
16322.9
16335.3
16347.8
16360.3
16372.8
16385.3
16397.8
16410.3
16422.8
16435.4
16447.9
16460.5
16473.1
16485.7
16498.3
16510.9
16523.5
16536.1
16548.8
16561.4
16574.1
16586.8
16599.5
16612.2
16624.9
16637.7
16650.4
16663.1
16675.9
16688.7
16701.5
16714.3
16727.1
16739.9
16752.7
16765.6
16778.5
16791.3
16804.2
16817.1
16830
16842.9
16855.9
16868.8
16881.8
16894.7
16907.7
16920.7
16933.7
16946.7
16959.7
16972.8
16985.8
16998.9
17011.9
17025
17038.1
17051.2
17064.4
17077.5
17090.6
17103.8
17117
17130.1
17143.3
17156.5
17169.8
17183
17196.2
17209.5
17222.8
17236
17249.3
17262.6
17275.9
17289.3
17302.6
17316
17329.3
17342.7
17356.1
17369.5
17382.9
17396.3
17409.8
17423.2
17436.7
17450.2
17463.6
17477.1
17490.7
17504.2
17517.7
17531.3
17544.8
17558.4
17572
17585.6
17599.2
17612.8
17626.4
17640.1
17653.8
17667.4
17681.1
17694.8
17708.5
17722.2
17736
17749.7
17763.5
17777.3
17791
17804.8
17818.6
17832.5
17846.3
17860.2
17874
17887.9
17901.8
17915.7
17929.6
17943.5
17957.5
17971.4
17985.4
17999.3
18013.3
18027.3
18041.3
18055.4
18069.4
18083.5
18097.5
18111.6
18125.7
18139.8
18153.9
18168.1
18182.2
18196.4
18210.6
18224.8
18239
18253.2
18267.4
18281.7
18295.9
18310.2
18324.5
18338.8
18353.1
18367.4
18381.8
18396.1
18410.5
18424.9
18439.3
18453.7
18468.2
18482.6
18497.1
18511.6
18526.1
18540.6
18555.2
18569.7
18584.3
18598.9
18613.5
18628.2
18642.8
18657.5
18672.2
18686.9
18701.7
18716.5
18731.2
18746.1
18760.9
18775.8
18790.6
18805.6
18820.5
18835.5
18850.5
18865.5
18880.6
18895.7
18910.8
18926
18941.2
18956.4
18971.7
18987
19002.3
19017.7
19033.2
19048.6
19064.2
19079.7
19095.4
19111
19126.8
19142.5
19158.4
19174.3
19190.2
19206.2
19222.3
19238.5
19254.7
19271
19287.3
19303.8
19320.3
19336.8
19353.5
19370.3
19387.1
19404
19421
19438.2
19455.4
19472.7
19490.1
19507.6
19525.2
19542.9
19560.7
19578.7
19596.7
19614.9
19633.2
19651.6
19670.1
19688.8
19707.5
19726.4
19745.5
19764.7
19784
19803.4
19823
19842.7
19862.5
19882.5
19902.6
19922.9
19943.3
19963.8
19984.5
20005.3
20026.2
20047.3
20068.5
20089.9
20111.4
20133
20154.8
20176.7
20198.7
20220.8
20243
20265.4
20287.9
20310.5
20333.2
20356
20378.8
20401.8
20424.9
20448.1
20471.3
20494.6
20518
20541.4
20564.9
20588.4
20612
20635.6
20659.3
20683
20706.6
20730.4
20754.1
20777.8
20801.5
20825.2
20848.9
20872.6
20896.2
20919.8
20943.4
20966.9
20990.4
21013.8
21037.2
21060.4
21083.7
21106.8
21129.9
21152.9
21175.8
21198.6
21221.3
21244
21266.5
21288.9
21311.3
21333.5
21355.6
21377.6
21399.6
21421.4
21443.1
21464.7
21486.2
21507.6
21528.8
21550
21571.1
21592
21612.9
21633.7
21654.3
21674.9
21695.4
21715.7
21736
21756.2
21776.3
21796.3
21816.2
21836
21855.8
21875.5
21895.1
21914.6
21934.1
21953.5
21972.8
21992.1
22011.3
22030.4
22049.5
22068.5
22087.5
22106.5
22125.4
22144.2
22163
22181.8
22200.5
22219.2
22237.8
22256.5
22275.1
22293.6
22312.2
22330.7
22349.2
22367.6
22386.1
22404.5
22423
22441.4
22459.8
22478.1
22496.5
22514.9
22533.3
22551.6
22570
22588.4
22606.8
22625.2
22643.7
22662.2
22680.8
22699.4
22718.1
22736.9
22755.8
22774.9
22794.1
22813.6
22833.2
22853.1
22873.3
22893.8
22914.7
22935.9
22957.6
22979.7
23002.2
23025.3
23048.9
23073.1
23097.8
23123.1
23148.9
23175.2
23202
23229.4
23257.2
23285.4
23314
23342.8
23372
23401.4
23430.9
23460.5
23490.2
23519.9
23549.6
23579.1
23608.6
23637.9
23667
23696
23724.7
23753.3
23781.6
23809.8
23837.7
23865.4
23892.9
23920.2
23947.3
23974.1
24000.9
24027.4
24053.7
24079.9
24105.8
24131.7
24156.6
)
;

boundaryField
{
    sides
    {
        type            zeroGradient;
    }
    empty
    {
        type            empty;
    }
}


// ************************************************************************* //
