/*--------------------------------*- C++ -*----------------------------------*\
  =========                 |
  \\      /  F ield         | OpenFOAM: The Open Source CFD Toolbox
   \\    /   O peration     | Website:  https://openfoam.org
    \\  /    A nd           | Version:  9
     \\/     M anipulation  |
\*---------------------------------------------------------------------------*/
FoamFile
{
    format      ascii;
    class       surfaceScalarField;
    location    "0.037";
    object      phi_0;
}
// * * * * * * * * * * * * * * * * * * * * * * * * * * * * * * * * * * * * * //

dimensions      [1 0 -1 0 0 0 0];

internalField   nonuniform List<scalar> 
999
(
19.526
19.8418
20.1575
20.4729
20.7883
21.1034
21.4185
21.7334
22.0481
22.3626
22.677
22.9914
23.3056
23.6196
23.9333
24.2468
24.5602
24.8736
25.187
25.5003
25.8134
26.1261
26.4384
26.7505
27.0625
27.3745
27.6867
27.999
28.3113
28.6235
28.9354
29.2468
29.5578
29.8682
30.1783
30.488
30.7977
31.1075
31.4176
31.728
32.039
32.3504
32.6622
32.9744
33.2867
33.5992
33.9116
34.224
34.5363
34.8486
35.1611
35.4744
35.7881
36.1016
36.4153
36.7288
37.0423
37.3558
37.6692
37.9825
38.2956
38.6089
38.9218
39.235
39.5479
39.8607
40.1736
40.4862
40.799
41.1116
41.424
41.7367
42.0489
42.3613
42.6737
42.9856
43.298
43.61
43.9218
44.234
44.5457
44.8573
45.1693
45.4808
45.7922
46.1041
46.4153
46.7265
47.0381
47.3492
47.6601
47.9715
48.2825
48.5931
48.9042
49.2152
49.5254
49.8361
50.1471
50.4572
50.7674
51.0783
51.3885
51.6981
52.0086
52.319
52.6284
52.9382
53.2486
53.5581
53.8672
54.1772
54.487
54.7958
55.105
55.4149
55.724
56.0324
56.3417
56.6512
56.9596
57.2679
57.577
57.886
58.1939
58.5021
58.8111
59.1195
59.427
59.735
60.0436
60.3515
60.6587
60.9665
61.2748
61.5822
61.889
62.1966
62.5045
62.8115
63.118
63.4252
63.7327
64.0393
64.3454
64.6522
64.9594
65.2657
65.5714
65.8777
66.1846
66.4906
66.7959
67.1016
67.4081
67.714
68.0188
68.3239
68.6299
68.9357
69.2403
69.5446
69.85
70.1556
70.4601
70.7638
71.0683
71.3735
71.6781
71.9815
72.285
72.5895
72.8941
73.1974
73.5001
73.8037
74.1079
74.4114
74.7137
75.0161
75.3195
75.6231
75.9255
76.2271
76.5293
76.8323
77.1349
77.4363
77.7374
78.0393
78.3417
78.6433
78.9438
79.2444
79.5459
79.8476
80.1481
80.4478
80.7479
81.049
81.3498
81.6493
81.9482
82.2478
82.5482
82.8481
83.1467
83.4448
83.7436
84.0432
84.3424
84.6401
84.9373
85.2352
85.5339
85.8323
86.1292
86.4254
86.7223
87.02
87.3175
87.6136
87.9089
88.2047
88.5013
88.7978
89.093
89.3873
89.6819
89.9773
90.2728
90.5671
90.8603
91.1535
91.4476
91.7421
92.0355
92.3276
92.6193
92.9118
93.205
93.4975
93.7888
94.079
94.3692
94.6608
94.9524
95.2427
95.5318
95.8205
96.1092
96.3993
96.6888
96.9769
97.2639
97.5508
97.8383
98.1264
98.4133
98.6992
98.9844
99.2693
99.5552
99.8409
100.125
100.409
100.692
100.975
101.259
101.542
101.825
102.107
102.389
102.67
102.951
103.231
103.51
103.789
104.066
104.344
104.621
104.898
105.174
105.449
105.724
105.998
106.272
106.545
106.818
107.09
107.361
107.632
107.902
108.172
108.441
108.709
108.977
109.244
109.51
109.776
110.041
110.305
110.568
110.83
111.092
111.354
111.615
111.874
112.132
112.39
112.648
112.905
113.16
113.415
113.668
113.921
114.174
114.426
114.676
114.926
115.174
115.422
115.669
115.916
116.161
116.406
116.649
116.891
117.133
117.374
117.615
117.854
118.092
118.33
118.566
118.803
119.038
119.272
119.505
119.738
119.97
120.201
120.432
120.662
120.891
121.118
121.346
121.573
121.8
122.026
122.251
122.476
122.699
122.923
123.146
123.369
123.591
123.813
124.034
124.255
124.476
124.696
124.916
125.136
125.355
125.574
125.793
126.012
126.231
126.45
126.669
126.887
127.105
127.323
127.541
127.76
127.978
128.196
128.414
128.632
128.851
129.07
129.288
129.507
129.725
129.944
130.163
130.382
130.602
130.821
131.041
131.26
131.48
131.7
131.921
132.142
132.362
132.583
132.804
133.026
133.247
133.47
133.692
133.914
134.136
134.359
134.582
134.806
135.029
135.254
135.478
135.702
135.926
136.15
136.376
136.601
136.827
137.053
137.278
137.505
137.731
137.959
138.186
138.414
138.641
138.868
139.096
139.325
139.554
139.783
140.012
140.242
140.471
140.701
140.932
141.163
141.394
141.625
141.856
142.087
142.319
142.551
142.784
143.017
143.25
143.483
143.716
143.95
144.184
144.418
144.653
144.888
145.123
145.358
145.593
145.829
146.066
146.303
146.54
146.776
147.013
147.251
147.489
147.727
147.966
148.204
148.443
148.682
148.921
149.161
149.402
149.642
149.883
150.123
150.364
150.605
150.847
151.089
151.332
151.574
151.817
152.059
152.303
152.546
152.791
153.035
153.28
153.524
153.769
154.014
154.259
154.506
154.752
154.998
155.245
155.491
155.738
155.986
156.234
156.482
156.731
156.979
157.228
157.477
157.726
157.976
158.227
158.477
158.728
158.978
159.229
159.481
159.733
159.985
160.237
160.49
160.743
160.995
161.249
161.503
161.757
162.012
162.266
162.521
162.776
163.031
163.287
163.543
163.8
164.056
164.313
164.57
164.827
165.085
165.343
165.602
165.861
166.119
166.378
166.638
166.897
167.158
167.418
167.679
167.94
168.201
168.462
168.723
168.986
169.248
169.511
169.774
170.037
170.3
170.564
170.828
171.093
171.358
171.623
171.888
172.153
172.419
172.685
172.952
173.219
173.487
173.754
174.021
174.289
174.557
174.826
175.095
175.365
175.634
175.904
176.174
176.444
176.715
176.986
177.258
177.53
177.801
178.073
178.346
178.618
178.892
179.166
179.44
179.713
179.987
180.262
180.537
180.812
181.088
181.364
181.64
181.917
182.193
182.47
182.748
183.026
183.304
183.583
183.861
184.14
184.419
184.699
184.979
185.26
185.54
185.821
186.102
186.383
186.665
186.947
187.23
187.513
187.795
188.079
188.362
188.646
188.931
189.216
189.501
189.786
190.071
190.357
190.643
190.93
191.217
191.504
191.791
192.079
192.367
192.655
192.944
193.234
193.523
193.813
194.102
194.393
194.683
194.975
195.267
195.558
195.85
196.142
196.434
196.727
197.021
197.315
197.609
197.903
198.197
198.492
198.787
199.083
199.379
199.675
199.972
200.268
200.566
200.863
201.161
201.459
201.758
202.057
202.356
202.656
202.955
203.255
203.556
203.857
204.158
204.459
204.761
205.063
205.366
205.668
205.972
206.276
206.579
206.884
207.188
207.493
207.798
208.104
208.41
208.716
209.022
209.329
209.636
209.944
210.252
210.56
210.869
211.177
211.487
211.796
212.107
212.417
212.727
213.039
213.35
213.662
213.973
214.286
214.598
214.911
215.224
215.539
215.852
216.166
216.481
216.796
217.112
217.427
217.744
218.06
218.377
218.694
219.011
219.329
219.646
219.965
220.283
220.603
220.922
221.241
221.562
221.881
222.203
222.523
222.845
223.167
223.488
223.811
224.133
224.456
224.779
225.103
225.426
225.75
226.075
226.399
226.725
227.049
227.375
227.701
228.026
228.354
228.679
229.006
229.334
229.661
229.988
230.316
230.644
230.972
231.301
231.63
231.959
232.288
232.617
232.947
233.277
233.606
233.936
234.267
234.596
234.927
235.258
235.588
235.919
236.251
236.581
236.912
237.245
237.575
237.907
238.239
238.569
238.901
239.234
239.564
239.896
240.229
240.56
240.891
241.223
241.555
241.886
242.218
242.549
242.88
243.212
243.544
243.874
244.205
244.537
244.867
245.198
245.529
245.86
246.19
246.521
246.851
247.181
247.512
247.841
248.171
248.501
248.831
249.16
249.49
249.82
250.149
250.478
250.808
251.137
251.466
251.795
252.124
252.453
252.783
253.112
253.441
253.771
254.1
254.43
254.759
255.09
255.419
255.749
256.08
256.411
256.742
257.073
257.405
257.737
258.069
258.402
258.735
259.069
259.403
259.738
260.073
260.409
260.745
261.083
261.42
261.759
262.098
262.438
262.778
263.12
263.462
263.805
264.149
264.494
264.839
265.186
265.533
265.882
266.231
266.581
266.933
267.285
267.638
267.992
268.348
268.704
269.061
269.419
269.779
270.139
270.5
270.863
271.226
271.59
271.956
272.322
272.69
273.058
273.427
273.798
274.169
274.541
274.914
275.289
275.664
276.04
276.417
276.795
277.174
277.553
277.933
278.315
278.697
279.08
279.464
279.849
280.234
280.62
281.007
281.395
281.784
282.173
282.563
282.953
283.345
283.737
284.13
284.523
284.917
285.312
285.708
286.104
286.5
286.897
287.296
287.694
288.093
288.492
288.893
289.294
289.695
290.097
290.5
290.903
291.306
291.71
292.115
292.52
292.926
293.331
293.737
294.145
294.553
294.96
295.367
295.775
296.184
296.592
297.001
297.409
297.817
298.225
298.633
299.04
299.447
299.853
300.257
300.662
301.065
301.467
301.868
302.267
302.665
303.061
303.456
303.849
304.241
304.632
305.021
305.409
305.796
306.182
306.567
306.952
307.337
307.721
308.106
308.49
308.876
309.262
309.649
310.036
310.426
310.816
311.207
311.6
311.995
312.39
312.787
313.186
313.586
313.988
314.391
314.795
315.201
315.608
316.016
316.426
316.837
317.249
317.663
318.077
318.493
)
;

boundaryField
{
    sides
    {
        type            calculated;
        value           nonuniform List<scalar> 2(318.91 -19.21);
    }
    empty
    {
        type            empty;
        value           nonuniform List<scalar> 0();
    }
}


// ************************************************************************* //
