/*--------------------------------*- C++ -*----------------------------------*\
  =========                 |
  \\      /  F ield         | OpenFOAM: The Open Source CFD Toolbox
   \\    /   O peration     | Website:  https://openfoam.org
    \\  /    A nd           | Version:  9
     \\/     M anipulation  |
\*---------------------------------------------------------------------------*/
FoamFile
{
    format      ascii;
    class       volScalarField;
    location    "0.037";
    object      rho_0;
}
// * * * * * * * * * * * * * * * * * * * * * * * * * * * * * * * * * * * * * //

dimensions      [1 -3 0 0 0 0 0];

internalField   nonuniform List<scalar> 
1000
(
0.249369
0.249323
0.249243
0.249168
0.249099
0.24903
0.248961
0.248892
0.248822
0.248752
0.248682
0.248613
0.248545
0.248476
0.248407
0.248336
0.248265
0.248195
0.248128
0.248062
0.247995
0.247927
0.247856
0.247784
0.247712
0.247642
0.247573
0.247508
0.247445
0.247382
0.247319
0.247254
0.247186
0.247115
0.247042
0.246967
0.246892
0.246818
0.246748
0.246681
0.24662
0.246563
0.24651
0.246462
0.246416
0.246372
0.246329
0.246286
0.246243
0.246201
0.246161
0.246124
0.24609
0.246063
0.246029
0.246003
0.245969
0.245944
0.24591
0.245884
0.24585
0.245823
0.245792
0.245761
0.245734
0.2457
0.245674
0.245642
0.245612
0.245585
0.245551
0.245524
0.245494
0.245461
0.245435
0.245403
0.245373
0.245346
0.245313
0.245284
0.245257
0.245224
0.245196
0.245168
0.245135
0.245107
0.245079
0.245046
0.245018
0.244991
0.244958
0.244929
0.244903
0.244871
0.24484
0.244815
0.244784
0.244752
0.244727
0.244698
0.244665
0.244638
0.244611
0.244579
0.244549
0.244524
0.244494
0.244461
0.244435
0.244409
0.244376
0.244346
0.244322
0.244292
0.24426
0.244233
0.244208
0.244176
0.244145
0.244121
0.244094
0.244061
0.244032
0.244008
0.243979
0.243947
0.24392
0.243896
0.243865
0.243834
0.243809
0.243784
0.243753
0.243722
0.243698
0.243672
0.243641
0.243611
0.243587
0.243561
0.24353
0.243501
0.243477
0.243451
0.243421
0.243392
0.243367
0.243342
0.243312
0.243283
0.243259
0.243234
0.243205
0.243175
0.243151
0.243127
0.243099
0.243069
0.243043
0.243021
0.242994
0.242964
0.242937
0.242915
0.24289
0.242861
0.242833
0.242809
0.242787
0.24276
0.24273
0.242705
0.242684
0.242659
0.242631
0.242603
0.242581
0.242559
0.242533
0.242504
0.24248
0.242459
0.242436
0.242409
0.242382
0.242359
0.242339
0.242315
0.242287
0.242263
0.242242
0.242221
0.242196
0.24217
0.242147
0.242127
0.242106
0.242081
0.242055
0.242034
0.242015
0.241994
0.241969
0.241945
0.241925
0.241907
0.241886
0.241861
0.241838
0.24182
0.241803
0.241782
0.241759
0.241736
0.241718
0.241702
0.241683
0.241661
0.241639
0.241622
0.241607
0.241589
0.241568
0.241548
0.241531
0.241517
0.241501
0.241481
0.241462
0.241446
0.241433
0.241419
0.241401
0.241383
0.241367
0.241356
0.241344
0.241328
0.241311
0.241296
0.241285
0.241276
0.241264
0.241249
0.241235
0.241223
0.241216
0.241208
0.241196
0.241184
0.241172
0.241165
0.24116
0.241153
0.241143
0.241134
0.241126
0.241123
0.241119
0.241113
0.241107
0.241102
0.241098
0.241097
0.241095
0.241093
0.24109
0.241088
0.241087
0.241089
0.24109
0.24109
0.24109
0.241091
0.241094
0.241099
0.241105
0.241112
0.241118
0.241125
0.241133
0.241143
0.241155
0.241166
0.241177
0.241189
0.241203
0.241218
0.241234
0.24125
0.241267
0.241285
0.241304
0.241326
0.241348
0.24137
0.241393
0.241417
0.241443
0.241471
0.2415
0.24153
0.241559
0.24159
0.241624
0.241659
0.241696
0.241733
0.241771
0.24181
0.241851
0.241895
0.241939
0.241985
0.242031
0.242079
0.24213
0.242182
0.242236
0.24229
0.242345
0.242402
0.242462
0.242524
0.242587
0.242652
0.242717
0.242783
0.242852
0.242923
0.242997
0.243071
0.243146
0.243223
0.243301
0.243382
0.243465
0.243549
0.243634
0.24372
0.243808
0.243899
0.243991
0.244085
0.24418
0.244275
0.244372
0.24447
0.244572
0.244674
0.244778
0.244882
0.244987
0.245094
0.245202
0.245312
0.245424
0.245535
0.245648
0.245761
0.245876
0.245992
0.24611
0.246228
0.246346
0.246465
0.246585
0.246706
0.246829
0.246952
0.247076
0.247199
0.247322
0.247447
0.247573
0.2477
0.247827
0.247954
0.248081
0.248209
0.248337
0.248467
0.248597
0.248726
0.248855
0.248984
0.249115
0.249246
0.249378
0.24951
0.249641
0.249772
0.249903
0.250034
0.250167
0.2503
0.250433
0.250565
0.250698
0.25083
0.250964
0.251098
0.251232
0.251366
0.251498
0.251631
0.251765
0.251899
0.252034
0.252169
0.252304
0.252438
0.252571
0.252706
0.252841
0.252976
0.253112
0.253246
0.253381
0.253516
0.253651
0.253787
0.253924
0.25406
0.254195
0.25433
0.254465
0.254601
0.254738
0.254874
0.255011
0.255147
0.255283
0.255419
0.255556
0.255693
0.255831
0.255968
0.256104
0.256241
0.256377
0.256514
0.256652
0.256791
0.256928
0.257066
0.257203
0.25734
0.257478
0.257617
0.257755
0.257894
0.258031
0.258169
0.258307
0.258445
0.258585
0.258724
0.258863
0.259002
0.25914
0.259279
0.259418
0.259557
0.259697
0.259837
0.259976
0.260115
0.260254
0.260394
0.260534
0.260675
0.260815
0.260955
0.261095
0.261234
0.261375
0.261516
0.261657
0.261798
0.261938
0.262079
0.262219
0.26236
0.262502
0.262644
0.262786
0.262927
0.263068
0.263209
0.26335
0.263493
0.263635
0.263777
0.263919
0.264061
0.264202
0.264345
0.264488
0.264631
0.264774
0.264917
0.265059
0.265201
0.265344
0.265488
0.265632
0.265775
0.265919
0.266062
0.266205
0.266348
0.266492
0.266637
0.266781
0.266926
0.26707
0.267213
0.267357
0.267502
0.267647
0.267792
0.267937
0.268082
0.268227
0.268371
0.268516
0.268662
0.268808
0.268954
0.269099
0.269245
0.26939
0.269536
0.269682
0.269829
0.269976
0.270122
0.270268
0.270414
0.270561
0.270707
0.270855
0.271002
0.271149
0.271296
0.271442
0.271589
0.271737
0.271885
0.272033
0.27218
0.272328
0.272475
0.272623
0.272771
0.272919
0.273068
0.273217
0.273365
0.273514
0.273662
0.273811
0.27396
0.274109
0.274259
0.274408
0.274557
0.274706
0.274855
0.275005
0.275155
0.275306
0.275456
0.275606
0.275756
0.275906
0.276056
0.276207
0.276358
0.276509
0.27666
0.27681
0.276961
0.277112
0.277264
0.277416
0.277567
0.277719
0.27787
0.278021
0.278173
0.278325
0.278478
0.278631
0.278783
0.278935
0.279087
0.279239
0.279392
0.279546
0.279699
0.279852
0.280005
0.280158
0.280311
0.280464
0.280618
0.280773
0.280926
0.28108
0.281233
0.281387
0.281542
0.281697
0.281851
0.282006
0.28216
0.282315
0.282469
0.282624
0.28278
0.282935
0.283091
0.283246
0.283401
0.283556
0.283712
0.283868
0.284024
0.284181
0.284336
0.284493
0.284648
0.284805
0.284962
0.285119
0.285276
0.285432
0.28559
0.285745
0.285904
0.28606
0.286219
0.286377
0.286533
0.286692
0.286847
0.287007
0.287164
0.287324
0.287482
0.28764
0.2878
0.287955
0.288117
0.288272
0.288435
0.288592
0.288753
0.288911
0.289069
0.289231
0.289386
0.289552
0.289706
0.289872
0.290027
0.29019
0.290348
0.290508
0.290672
0.290829
0.290994
0.29115
0.291315
0.291472
0.291635
0.291797
0.291956
0.292121
0.292279
0.292444
0.292602
0.292767
0.292927
0.293091
0.293253
0.293414
0.293579
0.293738
0.293904
0.294063
0.29423
0.29439
0.294555
0.294718
0.29488
0.295046
0.295206
0.295374
0.295533
0.295702
0.295862
0.296029
0.296192
0.296357
0.296522
0.296685
0.296853
0.297013
0.297185
0.297342
0.297515
0.297674
0.297844
0.298007
0.298174
0.298341
0.298505
0.298675
0.298838
0.299006
0.299173
0.299338
0.299509
0.299671
0.299844
0.300006
0.300178
0.300344
0.300512
0.300682
0.300848
0.301019
0.301186
0.301357
0.301525
0.301694
0.301866
0.302032
0.302207
0.302373
0.302548
0.302716
0.302888
0.303062
0.303228
0.303407
0.303573
0.30375
0.303922
0.304095
0.30427
0.304443
0.304619
0.304793
0.304969
0.305144
0.305321
0.305498
0.305673
0.305854
0.306031
0.306209
0.306389
0.30657
0.306749
0.306931
0.307114
0.307293
0.30748
0.307661
0.307846
0.308032
0.308219
0.308402
0.308593
0.308782
0.308968
0.309163
0.309352
0.309542
0.309738
0.309932
0.310125
0.310323
0.310521
0.310718
0.310919
0.31112
0.311321
0.311524
0.311729
0.311934
0.31214
0.312351
0.312559
0.312769
0.312983
0.313196
0.313411
0.313628
0.313846
0.314065
0.314286
0.314509
0.314732
0.314958
0.315186
0.315413
0.315643
0.315875
0.316107
0.316342
0.316579
0.316815
0.317054
0.317295
0.317536
0.317779
0.318025
0.31827
0.318518
0.318766
0.319017
0.319268
0.319519
0.319774
0.320029
0.320283
0.320541
0.320799
0.321056
0.321316
0.321577
0.321837
0.322099
0.322362
0.322624
0.322889
0.323151
0.323417
0.32368
0.323946
0.324208
0.324477
0.324738
0.325007
0.325266
0.325539
0.325793
0.326068
0.32632
0.326596
0.326843
0.327123
0.327365
0.327645
0.327885
0.328167
0.3284
0.328683
0.328914
0.329197
0.329423
0.329706
0.329929
0.33021
0.330429
0.330709
0.330927
0.331203
0.331419
0.331692
0.331906
0.332176
0.332389
0.332657
0.332865
0.333131
0.333338
0.3336
0.333805
0.334065
0.334267
0.334525
0.334725
0.33498
0.335177
0.335431
0.335626
0.335877
0.33607
0.336319
0.336511
0.336757
0.336946
0.337191
0.337379
0.337622
0.337808
0.338049
0.338234
0.338473
0.338657
0.338895
0.339077
0.339313
0.339494
0.339729
0.339909
0.340144
0.340323
0.340554
0.340733
0.340965
0.341143
0.341373
0.341549
0.34178
0.341957
0.342185
0.34236
0.34259
0.342765
0.342993
0.343167
0.343395
0.34357
0.343797
0.34397
0.344197
0.344372
0.344599
0.344772
0.344998
0.345173
0.345401
0.345576
0.345803
0.345977
0.346207
0.346384
0.346616
0.346794
0.347028
0.347209
0.347448
0.347633
0.347877
0.348067
0.348318
0.348513
0.348773
0.348977
0.349247
0.349459
0.349741
0.349962
0.350257
0.350488
0.350797
0.351038
0.35136
0.351611
0.351944
0.352204
0.352549
0.352816
0.353169
0.353441
0.353799
0.354076
0.354437
0.354716
0.355077
0.355355
0.355714
0.355992
0.356347
0.356621
0.356973
0.357242
0.357589
0.357855
0.358196
0.358457
0.358794
0.35905
0.359382
0.359634
0.359961
0.36021
0.360532
0.360777
0.361095
0.361327
0.361658
0.361834
)
;

boundaryField
{
    sides
    {
        type            calculated;
        value           nonuniform List<scalar> 2(0.361834 0.249369);
    }
    empty
    {
        type            empty;
    }
}


// ************************************************************************* //
