/*--------------------------------*- C++ -*----------------------------------*\
  =========                 |
  \\      /  F ield         | OpenFOAM: The Open Source CFD Toolbox
   \\    /   O peration     | Website:  https://openfoam.org
    \\  /    A nd           | Version:  9
     \\/     M anipulation  |
\*---------------------------------------------------------------------------*/
FoamFile
{
    format      ascii;
    class       volScalarField;
    location    "0.037";
    object      T;
}
// * * * * * * * * * * * * * * * * * * * * * * * * * * * * * * * * * * * * * //

dimensions      [0 0 0 1 0 0 0];

internalField   nonuniform List<scalar> 
1000
(
197.922
197.93
197.947
197.967
197.987
198.008
198.028
198.048
198.068
198.089
198.11
198.129
198.148
198.168
198.189
198.21
198.232
198.252
198.271
198.289
198.307
198.327
198.348
198.371
198.394
198.416
198.436
198.453
198.469
198.484
198.5
198.518
198.537
198.56
198.584
198.609
198.635
198.66
198.682
198.701
198.716
198.727
198.735
198.74
198.743
198.744
198.744
198.744
198.744
198.743
198.742
198.737
198.73
198.717
198.711
198.697
198.69
198.677
198.67
198.657
198.649
198.637
198.628
198.619
198.607
198.6
198.587
198.579
198.569
198.557
198.55
198.538
198.529
198.521
198.508
198.5
198.491
198.479
198.471
198.461
198.449
198.442
198.431
198.42
198.413
198.402
198.391
198.384
198.373
198.362
198.355
198.345
198.332
198.325
198.316
198.304
198.295
198.288
198.275
198.265
198.259
198.248
198.236
198.229
198.221
198.208
198.199
198.193
198.181
198.169
198.163
198.154
198.141
198.132
198.126
198.115
198.103
198.096
198.089
198.076
198.065
198.06
198.05
198.037
198.029
198.023
198.012
198
197.992
197.986
197.975
197.963
197.956
197.949
197.937
197.926
197.919
197.912
197.9
197.89
197.883
197.876
197.864
197.853
197.847
197.839
197.828
197.817
197.811
197.804
197.793
197.782
197.775
197.768
197.758
197.746
197.739
197.733
197.723
197.712
197.703
197.697
197.689
197.678
197.668
197.662
197.655
197.645
197.634
197.626
197.621
197.612
197.601
197.591
197.586
197.58
197.569
197.558
197.551
197.546
197.538
197.527
197.517
197.512
197.506
197.497
197.486
197.478
197.473
197.466
197.456
197.446
197.44
197.435
197.427
197.417
197.408
197.403
197.398
197.39
197.379
197.371
197.366
197.361
197.353
197.343
197.336
197.331
197.326
197.318
197.308
197.301
197.297
197.293
197.285
197.275
197.268
197.264
197.26
197.253
197.244
197.237
197.233
197.229
197.223
197.215
197.208
197.204
197.201
197.195
197.187
197.18
197.177
197.174
197.17
197.162
197.155
197.151
197.149
197.147
197.141
197.134
197.129
197.127
197.125
197.122
197.116
197.11
197.107
197.106
197.105
197.101
197.096
197.092
197.091
197.09
197.089
197.085
197.082
197.08
197.08
197.08
197.079
197.076
197.074
197.074
197.074
197.075
197.075
197.073
197.073
197.073
197.074
197.075
197.076
197.077
197.078
197.08
197.083
197.086
197.089
197.092
197.094
197.098
197.102
197.107
197.112
197.116
197.12
197.126
197.132
197.139
197.145
197.151
197.158
197.165
197.174
197.183
197.191
197.199
197.208
197.217
197.228
197.24
197.251
197.261
197.272
197.284
197.298
197.312
197.325
197.339
197.353
197.368
197.384
197.4
197.417
197.433
197.45
197.468
197.487
197.507
197.526
197.546
197.565
197.586
197.608
197.631
197.654
197.677
197.7
197.724
197.749
197.775
197.801
197.827
197.854
197.881
197.909
197.938
197.967
197.997
198.026
198.056
198.087
198.119
198.152
198.184
198.216
198.249
198.282
198.316
198.351
198.387
198.422
198.457
198.492
198.529
198.566
198.603
198.641
198.678
198.715
198.753
198.792
198.832
198.871
198.91
198.949
198.988
199.028
199.068
199.109
199.15
199.191
199.231
199.271
199.312
199.354
199.396
199.437
199.478
199.519
199.561
199.603
199.646
199.688
199.73
199.771
199.813
199.855
199.898
199.941
199.983
200.025
200.067
200.11
200.152
200.195
200.238
200.281
200.323
200.365
200.408
200.451
200.495
200.538
200.58
200.623
200.665
200.708
200.751
200.794
200.838
200.881
200.923
200.966
201.009
201.053
201.096
201.139
201.182
201.224
201.267
201.31
201.354
201.398
201.441
201.484
201.527
201.57
201.613
201.657
201.701
201.744
201.787
201.83
201.873
201.916
201.96
202.004
202.048
202.091
202.134
202.177
202.22
202.264
202.308
202.352
202.395
202.438
202.481
202.525
202.57
202.614
202.657
202.7
202.743
202.787
202.831
202.875
202.919
202.963
203.006
203.049
203.093
203.137
203.181
203.226
203.269
203.313
203.356
203.4
203.444
203.488
203.533
203.577
203.62
203.664
203.707
203.752
203.796
203.841
203.885
203.928
203.972
204.016
204.06
204.105
204.149
204.193
204.237
204.281
204.325
204.369
204.414
204.459
204.503
204.547
204.591
204.635
204.679
204.724
204.769
204.813
204.858
204.902
204.946
204.99
205.035
205.08
205.125
205.169
205.213
205.257
205.302
205.346
205.392
205.436
205.481
205.525
205.57
205.614
205.659
205.704
205.749
205.794
205.839
205.883
205.928
205.972
206.018
206.063
206.108
206.152
206.197
206.242
206.286
206.332
206.377
206.422
206.467
206.512
206.557
206.602
206.647
206.693
206.738
206.783
206.828
206.873
206.918
206.964
207.01
207.055
207.1
207.146
207.191
207.236
207.281
207.327
207.372
207.418
207.463
207.509
207.554
207.599
207.645
207.691
207.736
207.782
207.827
207.872
207.918
207.963
208.009
208.055
208.101
208.147
208.192
208.237
208.283
208.329
208.375
208.421
208.467
208.512
208.558
208.604
208.65
208.696
208.742
208.788
208.834
208.879
208.925
208.972
209.018
209.064
209.11
209.156
209.201
209.247
209.294
209.34
209.387
209.433
209.479
209.525
209.571
209.617
209.664
209.71
209.757
209.802
209.849
209.895
209.941
209.988
210.035
210.081
210.127
210.174
210.22
210.267
210.313
210.36
210.407
210.453
210.499
210.545
210.593
210.639
210.687
210.733
210.78
210.826
210.872
210.92
210.966
211.014
211.06
211.107
211.153
211.2
211.248
211.294
211.343
211.388
211.436
211.482
211.529
211.576
211.622
211.672
211.716
211.766
211.81
211.859
211.905
211.952
212.001
212.046
212.097
212.139
212.191
212.234
212.285
212.33
212.379
212.426
212.472
212.522
212.565
212.616
212.661
212.711
212.758
212.804
212.853
212.898
212.949
212.993
213.044
213.089
213.138
213.185
213.232
213.281
213.327
213.377
213.422
213.473
213.518
213.568
213.614
213.662
213.711
213.757
213.808
213.852
213.904
213.948
213.999
214.045
214.094
214.142
214.19
214.239
214.284
214.336
214.379
214.433
214.476
214.529
214.574
214.624
214.672
214.719
214.769
214.815
214.866
214.913
214.961
215.011
215.057
215.109
215.154
215.206
215.252
215.302
215.351
215.398
215.449
215.496
215.546
215.594
215.644
215.693
215.74
215.793
215.838
215.891
215.937
215.988
216.038
216.085
216.139
216.183
216.238
216.285
216.335
216.386
216.435
216.486
216.535
216.586
216.636
216.687
216.738
216.788
216.84
216.89
216.942
216.993
217.044
217.095
217.148
217.199
217.25
217.305
217.355
217.409
217.462
217.515
217.566
217.622
217.674
217.727
217.784
217.835
217.891
217.947
218
218.056
218.113
218.168
218.223
218.281
218.337
218.394
218.452
218.51
218.567
218.625
218.685
218.743
218.803
218.863
218.922
218.983
219.044
219.105
219.166
219.229
219.291
219.353
219.417
219.48
219.544
219.608
219.673
219.737
219.803
219.869
219.935
220.002
220.069
220.135
220.204
220.272
220.34
220.409
220.478
220.547
220.616
220.686
220.757
220.827
220.898
220.97
221.04
221.111
221.184
221.256
221.327
221.4
221.472
221.544
221.618
221.69
221.763
221.835
221.909
221.98
222.056
222.125
222.201
222.271
222.347
222.414
222.494
222.559
222.639
222.702
222.784
222.843
222.928
222.986
223.071
223.126
223.213
223.266
223.354
223.404
223.494
223.542
223.631
223.679
223.767
223.814
223.902
223.949
224.035
224.081
224.167
224.213
224.297
224.342
224.426
224.47
224.553
224.597
224.679
224.722
224.804
224.846
224.927
224.969
225.049
225.09
225.169
225.21
225.289
225.329
225.406
225.447
225.524
225.563
225.639
225.679
225.755
225.793
225.868
225.907
225.982
226.02
226.094
226.131
226.205
226.243
226.316
226.353
226.426
226.464
226.536
226.572
226.645
226.682
226.754
226.79
226.861
226.898
226.97
227.005
227.076
227.113
227.184
227.22
227.29
227.326
227.397
227.433
227.503
227.539
227.61
227.646
227.716
227.752
227.822
227.858
227.93
227.966
228.037
228.073
228.146
228.183
228.257
228.294
228.369
228.407
228.484
228.524
228.604
228.645
228.727
228.77
228.855
228.9
228.99
229.036
229.13
229.179
229.276
229.327
229.428
229.481
229.586
229.639
229.747
229.802
229.911
229.967
230.077
230.134
230.244
230.301
230.41
230.467
230.575
230.631
230.738
230.793
230.899
230.953
231.057
231.11
231.212
231.264
231.365
231.416
231.516
231.565
231.664
231.713
231.81
231.858
231.958
231.995
232.121
)
;

boundaryField
{
    sides
    {
        type            zeroGradient;
    }
    empty
    {
        type            empty;
    }
}


// ************************************************************************* //
