/*--------------------------------*- C++ -*----------------------------------*\
  =========                 |
  \\      /  F ield         | OpenFOAM: The Open Source CFD Toolbox
   \\    /   O peration     | Website:  https://openfoam.org
    \\  /    A nd           | Version:  9
     \\/     M anipulation  |
\*---------------------------------------------------------------------------*/
FoamFile
{
    format      ascii;
    class       volScalarField;
    location    "0.01";
    object      p;
}
// * * * * * * * * * * * * * * * * * * * * * * * * * * * * * * * * * * * * * //

dimensions      [1 -1 -2 0 0 0 0];

internalField   nonuniform List<scalar> 
10000
(
100000
100000
100000
100000
100000
100000
100000
100000
100000
100000
100000
100000
100000
100000
100000
100000
100000
100000
100000
100000
100000
100000
100000
100000
100000
100000
100000
100000
100000
100000
100000
100000
100000
100000
100000
100000
100000
100000
100000
100000
100000
100000
100000
100000
100000
100000
100000
100000
100000
100000
100000
100000
100000
100000
100000
100000
100000
100000
100000
100000
100000
100000
100000
100000
100000
100000
100000
100000
100000
100000
100000
100000
100000
100000
100000
100000
100000
100000
100000
100000
100000
100000
100000
100000
100000
100000
100000
100000
100000
100000
100000
100000
100000
100000
100000
100000
100000
100000
100000
100000
100000
100000
100000
100000
100000
100000
100000
100000
100000
100000
100000
100000
100000
100000
100000
100000
100000
100000
100000
100000
100000
100000
100000
100000
100000
100000
100000
100000
100000
100000
100000
100000
100000
100000
100000
100000
100000
100000
100000
100000
100000
100000
100000
100000
100000
100000
100000
100000
100000
100000
100000
100000
100000
100000
100000
100000
100000
100000
100000
100000
100000
100000
100000
100000
100000
100000
100000
100000
100000
100000
100000
100000
100000
100000
100000
100000
100000
100000
100000
100000
100000
100000
100000
100000
100000
100000
100000
100000
100000
100000
100000
100000
100000
100000
100000
100000
100000
100000
100000
100000
100000
100000
100000
100000
100000
100000
100000
100000
100000
100000
100000
100000
100000
100000
100000
100000
100000
100000
100000
100000
100000
100000
100000
100000
100000
100000
100000
100000
100000
100000
100000
100000
100000
100000
100000
100000
100000
100000
100000
100000
100000
100000
100000
100000
100000
100000
100000
100000
100000
100000
100000
100000
100000
100000
100000
100000
100000
100000
100000
100000
100000
100000
100000
100000
100000
100000
100000
100000
100000
100000
100000
100000
100000
100000
100000
100000
100000
100000
100000
100000
100000
100000
100000
100000
100000
100000
100000
100000
100000
100000
100000
100000
100000
100000
100000
100000
100000
100000
100000
100000
100000
100000
100000
100000
100000
100000
100000
100000
100000
100000
100000
100000
100000
100000
100000
100000
100000
100000
100000
100000
100000
100000
100000
100000
100000
100000
100000
100000
100000
100000
100000
100000
100000
100000
100000
100000
100000
100000
100000
100000
100000
100000
100000
100000
100000
100000
100000
100000
100000
100000
100000
100000
100000
100000
100000
100000
100000
100000
100000
100000
100000
100000
100000
100000
100000
100000
100000
100000
100000
100000
100000
100000
100000
100000
100000
100000
100000
100000
100000
100000
100000
100000
100000
100000
100000
100000
100000
100000
100000
100000
100000
100000
100000
100000
100000
100000
100000
100000
100000
100000
100000
100000
100000
100000
100000
100000
100000
100000
100000
100000
100000
100000
100000
100000
100000
100000
100000
100000
100000
100000
100000
100000
100000
100000
100000
100000
100000
100000
100000
100000
100000
100000
100000
100000
100000
100000
100000
100000
100000
100000
100000
100000
100000
100000
100000
100000
100000
100000
100000
100000
100000
100000
100000
100000
100000
100000
100000
100000
100000
100000
100000
100000
100000
100000
100000
100000
100000
100000
100000
100000
100000
100000
100000
100000
100000
100000
100000
100000
100000
100000
100000
100000
100000
100000
100000
100000
100000
100000
100000
100000
100000
100000
100000
100000
100000
100000
100000
100000
100000
100000
100000
100000
100000
100000
100000
100000
100000
100000
100000
100000
100000
100000
100000
100000
100000
100000
100000
100000
100000
100000
100000
100000
100000
100000
100000
100000
100000
100000
100000
100000
100000
100000
100000
100000
100000
100000
100000
100000
100000
100000
100000
100000
100000
100000
100000
100000
100000
100000
100000
100000
100000
100000
100000
100000
100000
100000
100000
100000
100000
100000
100000
100000
100000
100000
100000
100000
100000
100000
100000
100000
100000
100000
100000
100000
100000
100000
100000
100000
100000
100000
100000
100000
100000
100000
100000
100000
100000
100000
100000
100000
100000
100000
100000
100000
100000
100000
100000
100000
100000
100000
100000
100000
100000
100000
100000
100000
100000
100000
100000
100000
100000
100000
100000
100000
100000
100000
100000
100000
100000
100000
100000
100000
100000
100000
100000
100000
100000
100000
100000
100000
100000
100000
100000
100000
100000
100000
100000
100000
100000
100000
100000
100000
100000
100000
100000
100000
100000
100000
100000
100000
100000
100000
100000
100000
100000
100000
100000
100000
100000
100000
100000
100000
100000
100000
100000
100000
100000
100000
100000
100000
100000
100000
100000
100000
100000
100000
100000
100000
100000
100000
100000
100000
100000
100000
100000
100000
100000
100000
100000
100000
100000
100000
100000
100000
100000
100000
100000
100000
100000
100000
100000
100000
100000
100000
100000
100000
100000
100000
100000
100000
100000
100000
100000
100000
100000
100000
100000
100000
100000
100000
100000
100000
100000
100000
100000
100000
100000
100000
100000
100000
100000
100000
100000
100000
100000
100000
100000
100000
100000
100000
100000
100000
100000
100000
100000
100000
100000
100000
100000
100000
100000
100000
100000
100000
100000
100000
100000
100000
100000
100000
100000
100000
100000
100000
100000
100000
100000
100000
100000
100000
100000
100000
100000
100000
100000
100000
100000
100000
100000
100000
100000
100000
100000
100000
100000
100000
100000
100000
100000
100000
100000
100000
100000
100000
100000
100000
100000
100000
100000
100000
100000
100000
100000
100000
100000
100000
100000
100000
100000
100000
100000
100000
100000
100000
100000
100000
100000
100000
100000
100000
100000
100000
100000
100000
100000
100000
100000
100000
100000
100000
100000
100000
100000
100000
100000
100000
100000
100000
100000
100000
100000
100000
100000
100000
100000
100000
100000
100000
100000
100000
100000
100000
100000
100000
100000
100000
100000
100000
100000
100000
100000
100000
100000
100000
100000
100000
100000
100000
100000
100000
100000
100000
100000
100000
100000
100000
100000
100000
100000
100000
100000
100000
100000
100000
100000
100000
100000
100000
100000
100000
100000
100000
100000
100000
100000
100000
100000
100000
100000
100000
100000
100000
100000
100000
100000
100000
100000
100000
100000
100000
100000
100000
100000
100000
100000
100000
100000
100000
100000
100000
100000
100000
100000
100000
100000
100000
100000
100000
100000
100000
100000
100000
100000
100000
100000
100000
100000
100000
100000
100000
100000
100000
100000
100000
100000
100000
100000
100000
100000
100000
100000
100000
100000
100000
100000
100000
100000
100000
100000
100000
100000
100000
100000
100000
100000
100000
100000
100000
100000
100000
100000
100000
100000
100000
100000
100000
100000
100000
100000
100000
100000
100000
100000
100000
100000
100000
100000
100000
100000
100000
100000
100000
100000
100000
100000
100000
100000
100000
100000
100000
100000
100000
100000
100000
100000
100000
100000
100000
100000
100000
100000
100000
100000
100000
100000
100000
100000
100000
100000
100000
100000
100000
100000
100000
100000
100000
100000
100000
100000
100000
100000
100000
100000
100000
100000
100000
100000
100000
100000
100000
100000
100000
100000
100000
100000
100000
100000
100000
100000
100000
100000
100000
100000
100000
100000
100000
100000
100000
100000
100000
100000
100000
100000
100000
100000
100000
100000
100000
100000
100000
100000
100000
100000
100000
100000
100000
100000
100000
100000
100000
100000
100000
100000
100000
100000
100000
100000
100000
99999.9
99999.9
99999.9
99999.9
99999.9
99999.9
99999.9
99999.9
99999.9
99999.9
99999.8
99999.8
99999.8
99999.8
99999.8
99999.7
99999.7
99999.7
99999.7
99999.6
99999.6
99999.6
99999.5
99999.5
99999.4
99999.4
99999.3
99999.2
99999.1
99999.1
99999
99998.9
99998.8
99998.7
99998.5
99998.4
99998.3
99998.1
99998
99997.8
99997.6
99997.4
99997.1
99996.9
99996.6
99996.4
99996.1
99995.7
99995.4
99995
99994.6
99994.2
99993.7
99993.3
99992.7
99992.2
99991.6
99990.9
99990.3
99989.5
99988.8
99988
99987.1
99986.2
99985.2
99984.2
99983.1
99981.9
99980.7
99979.3
99978
99976.5
99975
99973.3
99971.6
99969.8
99967.9
99965.9
99963.8
99961.6
99959.3
99956.9
99954.4
99951.7
99948.9
99946
99942.9
99939.7
99936.4
99932.9
99929.3
99925.5
99921.6
99917.5
99913.2
99908.8
99904.2
99899.4
99894.4
99889.3
99884
99878.4
99872.7
99866.8
99860.7
99854.4
99847.9
99841.2
99834.2
99827.1
99819.7
99812.1
99804.3
99796.3
99788
99779.5
99770.8
99761.9
99752.7
99743.3
99733.6
99723.8
99713.6
99703.3
99692.7
99681.9
99670.8
99659.5
99648
99636.2
99624.2
99611.9
99599.5
99586.7
99573.8
99560.6
99547.1
99533.5
99519.6
99505.5
99491.1
99476.5
99461.7
99446.7
99431.4
99416
99400.3
99384.4
99368.2
99351.9
99335.3
99318.6
99301.6
99284.4
99267.1
99249.5
99231.7
99213.8
99195.6
99177.2
99158.7
99140
99121.1
99102
99082.7
99063.3
99043.7
99023.9
99004
98983.8
98963.6
98943.1
98922.5
98901.8
98880.9
98859.8
98838.6
98817.3
98795.8
98774.1
98752.4
98730.5
98708.4
98686.3
98664
98641.5
98619
98596.3
98573.5
98550.6
98527.6
98504.5
98481.2
98457.8
98434.4
98410.8
98387.1
98363.4
98339.5
98315.5
98291.4
98267.3
98243
98218.7
98194.2
98169.7
98145.1
98120.4
98095.7
98070.8
98045.9
98020.9
97995.8
97970.6
97945.4
97920.1
97894.7
97869.3
97843.8
97818.2
97792.6
97766.9
97741.1
97715.3
97689.4
97663.4
97637.4
97611.4
97585.3
97559.1
97532.9
97506.6
97480.3
97453.9
97427.5
97401.1
97374.6
97348
97321.4
97294.8
97268.1
97241.3
97214.6
97187.7
97160.9
97134
97107.1
97080.1
97053.1
97026.1
96999
96971.9
96944.7
96917.6
96890.4
96863.1
96835.9
96808.6
96781.2
96753.9
96726.5
96699.1
96671.6
96644.1
96616.7
96589.1
96561.6
96534
96506.4
96478.8
96451.2
96423.5
96395.8
96368.1
96340.4
96312.6
96284.8
96257.1
96229.2
96201.4
96173.6
96145.7
96117.8
96089.9
96062
96034.1
96006.1
95978.1
95950.2
95922.2
95894.1
95866.1
95838.1
95810
95781.9
95753.9
95725.8
95697.6
95669.5
95641.4
95613.2
95585.1
95556.9
95528.7
95500.5
95472.3
95444.1
95415.9
95387.7
95359.4
95331.2
95302.9
95274.6
95246.4
95218.1
95189.8
95161.5
95133.2
95104.9
95076.5
95048.2
95019.9
94991.5
94963.2
94934.8
94906.4
94878.1
94849.7
94821.3
94792.9
94764.5
94736.1
94707.7
94679.3
94650.9
94622.5
94594.1
94565.6
94537.2
94508.8
94480.3
94451.9
94423.4
94395
94366.5
94338.1
94309.6
94281.2
94252.7
94224.2
94195.8
94167.3
94138.8
94110.4
94081.9
94053.4
94024.9
93996.4
93968
93939.5
93911
93882.5
93854
93825.5
93797
93768.5
93740.1
93711.6
93683.1
93654.6
93626.1
93597.6
93569.1
93540.6
93512.1
93483.6
93455.1
93426.7
93398.2
93369.7
93341.2
93312.7
93284.2
93255.7
93227.2
93198.8
93170.3
93141.8
93113.3
93084.8
93056.3
93027.9
92999.4
92970.9
92942.4
92914
92885.5
92857
92828.6
92800.1
92771.6
92743.2
92714.7
92686.3
92657.8
92629.4
92600.9
92572.5
92544
92515.6
92487.2
92458.7
92430.3
92401.9
92373.4
92345
92316.6
92288.2
92259.8
92231.3
92202.9
92174.5
92146.1
92117.7
92089.3
92060.9
92032.5
92004.2
91975.8
91947.4
91919
91890.6
91862.3
91833.9
91805.6
91777.2
91748.8
91720.5
91692.1
91663.8
91635.5
91607.1
91578.8
91550.5
91522.1
91493.8
91465.5
91437.2
91408.9
91380.6
91352.3
91324
91295.7
91267.4
91239.1
91210.9
91182.6
91154.3
91126.1
91097.8
91069.5
91041.3
91013
90984.8
90956.6
90928.3
90900.1
90871.9
90843.7
90815.5
90787.2
90759
90730.8
90702.6
90674.5
90646.3
90618.1
90589.9
90561.7
90533.6
90505.4
90477.3
90449.1
90421
90392.8
90364.7
90336.6
90308.4
90280.3
90252.2
90224.1
90196
90167.9
90139.8
90111.7
90083.6
90055.6
90027.5
89999.4
89971.4
89943.3
89915.3
89887.2
89859.2
89831.1
89803.1
89775.1
89747.1
89719.1
89691
89663
89635
89607.1
89579.1
89551.1
89523.1
89495.2
89467.2
89439.2
89411.3
89383.3
89355.4
89327.5
89299.5
89271.6
89243.7
89215.8
89187.9
89160
89132.1
89104.2
89076.3
89048.4
89020.6
88992.7
88964.8
88937
88909.1
88881.3
88853.5
88825.6
88797.8
88770
88742.2
88714.4
88686.6
88658.8
88631
88603.2
88575.4
88547.7
88519.9
88492.1
88464.4
88436.7
88408.9
88381.2
88353.5
88325.7
88298
88270.3
88242.6
88214.9
88187.2
88159.5
88131.8
88104.2
88076.5
88048.9
88021.2
87993.5
87965.9
87938.3
87910.6
87883
87855.4
87827.8
87800.2
87772.6
87745
87717.4
87689.8
87662.3
87634.7
87607.1
87579.6
87552
87524.5
87497
87469.4
87441.9
87414.4
87386.9
87359.4
87331.9
87304.4
87276.9
87249.4
87222
87194.5
87167
87139.6
87112.1
87084.7
87057.3
87029.8
87002.4
86975
86947.6
86920.2
86892.8
86865.4
86838
86810.6
86783.3
86755.9
86728.6
86701.2
86673.9
86646.5
86619.2
86591.9
86564.6
86537.2
86509.9
86482.6
86455.3
86428.1
86400.8
86373.5
86346.2
86319
86291.7
86264.5
86237.3
86210
86182.8
86155.6
86128.4
86101.2
86074
86046.8
86019.6
85992.4
85965.2
85938.1
85910.9
85883.7
85856.6
85829.5
85802.3
85775.2
85748.1
85721
85693.9
85666.8
85639.7
85612.6
85585.5
85558.4
85531.3
85504.3
85477.2
85450.2
85423.1
85396.1
85369.1
85342.1
85315
85288
85261
85234
85207.1
85180.1
85153.1
85126.1
85099.2
85072.2
85045.3
85018.3
84991.4
84964.5
84937.5
84910.6
84883.7
84856.8
84829.9
84803
84776.2
84749.3
84722.4
84695.5
84668.7
84641.8
84615
84588.2
84561.3
84534.5
84507.7
84480.9
84454.1
84427.3
84400.5
84373.7
84347
84320.2
84293.4
84266.7
84239.9
84213.2
84186.5
84159.7
84133
84106.3
84079.6
84052.9
84026.2
83999.5
83972.8
83946.2
83919.5
83892.8
83866.2
83839.6
83812.9
83786.3
83759.7
83733
83706.4
83679.8
83653.2
83626.6
83600
83573.5
83546.9
83520.3
83493.8
83467.2
83440.7
83414.1
83387.6
83361.1
83334.6
83308.1
83281.6
83255.1
83228.6
83202.1
83175.6
83149.1
83122.7
83096.2
83069.8
83043.3
83016.9
82990.5
82964
82937.6
82911.2
82884.8
82858.4
82832
82805.7
82779.3
82752.9
82726.6
82700.2
82673.9
82647.5
82621.2
82594.9
82568.5
82542.2
82515.9
82489.6
82463.3
82437
82410.8
82384.5
82358.2
82332
82305.7
82279.5
82253.2
82227
82200.8
82174.5
82148.3
82122.1
82095.9
82069.7
82043.6
82017.4
81991.2
81965
81938.9
81912.7
81886.6
81860.5
81834.3
81808.2
81782.1
81756
81729.9
81703.8
81677.7
81651.6
81625.5
81599.5
81573.4
81547.4
81521.3
81495.3
81469.2
81443.2
81417.2
81391.2
81365.2
81339.2
81313.2
81287.2
81261.2
81235.2
81209.3
81183.3
81157.4
81131.4
81105.5
81079.5
81053.6
81027.7
81001.8
80975.9
80950
80924.1
80898.2
80872.3
80846.5
80820.6
80794.7
80768.9
80743
80717.2
80691.4
80665.5
80639.7
80613.9
80588.1
80562.3
80536.5
80510.8
80485
80459.2
80433.4
80407.7
80381.9
80356.2
80330.5
80304.7
80279
80253.3
80227.6
80201.9
80176.2
80150.5
80124.8
80099.2
80073.5
80047.8
80022.2
79996.5
79970.9
79945.3
79919.6
79894
79868.4
79842.8
79817.2
79791.6
79766
79740.4
79714.9
79689.3
79663.7
79638.2
79612.7
79587.1
79561.6
79536.1
79510.5
79485
79459.5
79434
79408.5
79383.1
79357.6
79332.1
79306.6
79281.2
79255.7
79230.3
79204.9
79179.4
79154
79128.6
79103.2
79077.8
79052.4
79027
79001.6
78976.2
78950.9
78925.5
78900.2
78874.8
78849.5
78824.1
78798.8
78773.5
78748.2
78722.9
78697.6
78672.3
78647
78621.7
78596.4
78571.2
78545.9
78520.7
78495.4
78470.2
78444.9
78419.7
78394.5
78369.3
78344.1
78318.9
78293.7
78268.5
78243.3
78218.1
78193
78167.8
78142.7
78117.5
78092.4
78067.3
78042.1
78017
77991.9
77966.8
77941.7
77916.6
77891.5
77866.4
77841.4
77816.3
77791.3
77766.2
77741.2
77716.1
77691.1
77666.1
77641.1
77616
77591
77566
77541.1
77516.1
77491.1
77466.1
77441.2
77416.2
77391.3
77366.3
77341.4
77316.4
77291.5
77266.6
77241.7
77216.8
77191.9
77167
77142.1
77117.3
77092.4
77067.5
77042.7
77017.8
76993
76968.1
76943.3
76918.5
76893.7
76868.9
76844.1
76819.3
76794.5
76769.7
76744.9
76720.2
76695.4
76670.6
76645.9
76621.2
76596.4
76571.7
76547
76522.3
76497.5
76472.8
76448.2
76423.5
76398.8
76374.1
76349.4
76324.8
76300.1
76275.5
76250.8
76226.2
76201.6
76177
76152.3
76127.7
76103.1
76078.5
76054
76029.4
76004.8
75980.2
75955.7
75931.1
75906.6
75882
75857.5
75833
75808.4
75783.9
75759.4
75734.9
75710.4
75685.9
75661.5
75637
75612.5
75588.1
75563.6
75539.2
75514.7
75490.3
75465.9
75441.4
75417
75392.6
75368.2
75343.8
75319.4
75295.1
75270.7
75246.3
75221.9
75197.6
75173.2
75148.9
75124.6
75100.2
75075.9
75051.6
75027.3
75003
74978.7
74954.4
74930.1
74905.9
74881.6
74857.3
74833.1
74808.8
74784.6
74760.4
74736.1
74711.9
74687.7
74663.5
74639.3
74615.1
74590.9
74566.7
74542.5
74518.4
74494.2
74470
74445.9
74421.8
74397.6
74373.5
74349.4
74325.3
74301.1
74277
74252.9
74228.9
74204.8
74180.7
74156.6
74132.6
74108.5
74084.5
74060.4
74036.4
74012.3
73988.3
73964.3
73940.3
73916.3
73892.3
73868.3
73844.3
73820.3
73796.4
73772.4
73748.5
73724.5
73700.6
73676.6
73652.7
73628.8
73604.8
73580.9
73557
73533.1
73509.2
73485.4
73461.5
73437.6
73413.7
73389.9
73366
73342.2
73318.3
73294.5
73270.7
73246.9
73223
73199.2
73175.4
73151.6
73127.9
73104.1
73080.3
73056.5
73032.8
73009
72985.3
72961.5
72937.8
72914.1
72890.3
72866.6
72842.9
72819.2
72795.5
72771.8
72748.1
72724.5
72700.8
72677.1
72653.5
72629.8
72606.2
72582.6
72558.9
72535.3
72511.7
72488.1
72464.5
72440.9
72417.3
72393.7
72370.1
72346.5
72323
72299.4
72275.9
72252.3
72228.8
72205.2
72181.7
72158.2
72134.7
72111.2
72087.7
72064.2
72040.7
72017.2
71993.7
71970.3
71946.8
71923.4
71899.9
71876.5
71853
71829.6
71806.2
71782.8
71759.4
71736
71712.6
71689.2
71665.8
71642.4
71619
71595.7
71572.3
71549
71525.6
71502.3
71478.9
71455.6
71432.3
71409
71385.7
71362.4
71339.1
71315.8
71292.5
71269.2
71246
71222.7
71199.5
71176.2
71153
71129.7
71106.5
71083.3
71060.1
71036.9
71013.7
70990.5
70967.3
70944.1
70920.9
70897.7
70874.6
70851.4
70828.3
70805.1
70782
70758.8
70735.7
70712.6
70689.5
70666.4
70643.3
70620.2
70597.1
70574
70550.9
70527.9
70504.8
70481.8
70458.7
70435.7
70412.6
70389.6
70366.6
70343.6
70320.6
70297.5
70274.5
70251.6
70228.6
70205.6
70182.6
70159.7
70136.7
70113.7
70090.8
70067.9
70044.9
70022
69999.1
69976.2
69953.2
69930.3
69907.5
69884.6
69861.7
69838.8
69815.9
69793.1
69770.2
69747.4
69724.5
69701.7
69678.8
69656
69633.2
69610.4
69587.6
69564.8
69542
69519.2
69496.4
69473.6
69450.9
69428.1
69405.4
69382.6
69359.9
69337.1
69314.4
69291.7
69268.9
69246.2
69223.5
69200.8
69178.1
69155.5
69132.8
69110.1
69087.4
69064.8
69042.1
69019.5
68996.8
68974.2
68951.6
68928.9
68906.3
68883.7
68861.1
68838.5
68815.9
68793.3
68770.8
68748.2
68725.6
68703.1
68680.5
68658
68635.4
68612.9
68590.4
68567.8
68545.3
68522.8
68500.3
68477.8
68455.3
68432.8
68410.4
68387.9
68365.4
68343
68320.5
68298.1
68275.6
68253.2
68230.8
68208.3
68185.9
68163.5
68141.1
68118.7
68096.3
68073.9
68051.6
68029.2
68006.8
67984.5
67962.1
67939.8
67917.4
67895.1
67872.8
67850.4
67828.1
67805.8
67783.5
67761.2
67738.9
67716.6
67694.4
67672.1
67649.8
67627.6
67605.3
67583.1
67560.8
67538.6
67516.4
67494.1
67471.9
67449.7
67427.5
67405.3
67383.1
67361
67338.8
67316.6
67294.4
67272.3
67250.1
67228
67205.8
67183.7
67161.6
67139.5
67117.3
67095.2
67073.1
67051
67028.9
67006.9
66984.8
66962.7
66940.6
66918.6
66896.5
66874.5
66852.4
66830.4
66808.4
66786.3
66764.3
66742.3
66720.3
66698.3
66676.3
66654.3
66632.4
66610.4
66588.4
66566.5
66544.5
66522.6
66500.6
66478.7
66456.7
66434.8
66412.9
66391
66369.1
66347.2
66325.3
66303.4
66281.5
66259.7
66237.8
66215.9
66194.1
66172.2
66150.4
66128.5
66106.7
66084.9
66063.1
66041.2
66019.4
65997.6
65975.8
65954.1
65932.3
65910.5
65888.7
65867
65845.2
65823.5
65801.7
65780
65758.2
65736.5
65714.8
65693.1
65671.4
65649.7
65628
65606.3
65584.6
65562.9
65541.2
65519.6
65497.9
65476.3
65454.6
65433
65411.3
65389.7
65368.1
65346.5
65324.9
65303.3
65281.7
65260.1
65238.5
65216.9
65195.3
65173.7
65152.2
65130.6
65109.1
65087.5
65066
65044.5
65022.9
65001.4
64979.9
64958.4
64936.9
64915.4
64893.9
64872.4
64851
64829.5
64808
64786.6
64765.1
64743.7
64722.2
64700.8
64679.4
64657.9
64636.5
64615.1
64593.7
64572.3
64550.9
64529.5
64508.1
64486.8
64465.4
64444
64422.7
64401.3
64380
64358.7
64337.3
64316
64294.7
64273.4
64252.1
64230.8
64209.5
64188.2
64166.9
64145.6
64124.3
64103.1
64081.8
64060.6
64039.3
64018.1
63996.8
63975.6
63954.4
63933.2
63912
63890.7
63869.5
63848.4
63827.2
63806
63784.8
63763.6
63742.5
63721.3
63700.2
63679
63657.9
63636.8
63615.6
63594.5
63573.4
63552.3
63531.2
63510.1
63489
63467.9
63446.8
63425.7
63404.7
63383.6
63362.6
63341.5
63320.5
63299.4
63278.4
63257.4
63236.4
63215.3
63194.3
63173.3
63152.3
63131.3
63110.4
63089.4
63068.4
63047.5
63026.5
63005.5
62984.6
62963.6
62942.7
62921.8
62900.9
62879.9
62859
62838.1
62817.2
62796.3
62775.4
62754.6
62733.7
62712.8
62691.9
62671.1
62650.2
62629.4
62608.5
62587.7
62566.9
62546.1
62525.2
62504.4
62483.6
62462.8
62442
62421.2
62400.5
62379.7
62358.9
62338.1
62317.4
62296.6
62275.9
62255.1
62234.4
62213.7
62193
62172.2
62151.5
62130.8
62110.1
62089.4
62068.7
62048.1
62027.4
62006.7
61986.1
61965.4
61944.7
61924.1
61903.5
61882.8
61862.2
61841.6
61821
61800.3
61779.7
61759.1
61738.6
61718
61697.4
61676.8
61656.2
61635.7
61615.1
61594.6
61574
61553.5
61532.9
61512.4
61491.9
61471.4
61450.9
61430.4
61409.9
61389.4
61368.9
61348.4
61327.9
61307.4
61287
61266.5
61246.1
61225.6
61205.2
61184.7
61164.3
61143.9
61123.5
61103.1
61082.7
61062.3
61041.9
61021.5
61001.1
60980.7
60960.3
60940
60919.6
60899.3
60878.9
60858.6
60838.2
60817.9
60797.6
60777.3
60757
60736.7
60716.3
60696.1
60675.8
60655.5
60635.2
60614.9
60594.7
60574.4
60554.1
60533.9
60513.7
60493.4
60473.2
60453
60432.7
60412.5
60392.3
60372.1
60351.9
60331.7
60311.5
60291.4
60271.2
60251
60230.9
60210.7
60190.6
60170.4
60150.3
60130.1
60110
60089.9
60069.8
60049.7
60029.6
60009.5
59989.4
59969.3
59949.2
59929.1
59909
59889
59868.9
59848.9
59828.8
59808.8
59788.7
59768.7
59748.7
59728.7
59708.7
59688.7
59668.7
59648.7
59628.7
59608.7
59588.7
59568.7
59548.8
59528.8
59508.9
59488.9
59469
59449
59429.1
59409.2
59389.2
59369.3
59349.4
59329.5
59309.6
59289.7
59269.8
59250
59230.1
59210.2
59190.3
59170.5
59150.6
59130.8
59111
59091.1
59071.3
59051.5
59031.6
59011.8
58992
58972.2
58952.4
58932.6
58912.9
58893.1
58873.3
58853.5
58833.8
58814
58794.3
58774.5
58754.8
58735.1
58715.3
58695.6
58675.9
58656.2
58636.5
58616.8
58597.1
58577.4
58557.7
58538
58518.4
58498.7
58479
58459.4
58439.7
58420.1
58400.5
58380.8
58361.2
58341.6
58322
58302.4
58282.8
58263.2
58243.6
58224
58204.4
58184.8
58165.3
58145.7
58126.1
58106.6
58087.1
58067.5
58048
58028.4
58008.9
57989.4
57969.9
57950.4
57930.9
57911.4
57891.9
57872.4
57852.9
57833.5
57814
57794.5
57775.1
57755.6
57736.2
57716.7
57697.3
57677.9
57658.5
57639
57619.6
57600.2
57580.8
57561.4
57542
57522.7
57503.3
57483.9
57464.5
57445.2
57425.8
57406.5
57387.1
57367.8
57348.5
57329.1
57309.8
57290.5
57271.2
57251.9
57232.6
57213.3
57194
57174.7
57155.4
57136.2
57116.9
57097.6
57078.4
57059.1
57039.9
57020.7
57001.4
56982.2
56963
56943.8
56924.5
56905.3
56886.1
56866.9
56847.8
56828.6
56809.4
56790.2
56771.1
56751.9
56732.7
56713.6
56694.5
56675.3
56656.2
56637.1
56617.9
56598.8
56579.7
56560.6
56541.5
56522.4
56503.3
56484.2
56465.2
56446.1
56427
56408
56388.9
56369.9
56350.8
56331.8
56312.7
56293.7
56274.7
56255.7
56236.7
56217.6
56198.6
56179.7
56160.7
56141.7
56122.7
56103.7
56084.8
56065.8
56046.8
56027.9
56008.9
55990
55971.1
55952.1
55933.2
55914.3
55895.4
55876.5
55857.6
55838.7
55819.8
55800.9
55782
55763.2
55744.3
55725.4
55706.6
55687.7
55668.9
55650
55631.2
55612.4
55593.5
55574.7
55555.9
55537.1
55518.3
55499.5
55480.7
55461.9
55443.1
55424.4
55405.6
55386.8
55368.1
55349.3
55330.6
55311.8
55293.1
55274.4
55255.6
55236.9
55218.2
55199.5
55180.8
55162.1
55143.4
55124.7
55106
55087.3
55068.7
55050
55031.3
55012.7
54994
54975.4
54956.7
54938.1
54919.5
54900.9
54882.2
54863.6
54845
54826.4
54807.8
54789.2
54770.6
54752.1
54733.5
54714.9
54696.4
54677.8
54659.2
54640.7
54622.2
54603.6
54585.1
54566.6
54548
54529.5
54511
54492.5
54474
54455.5
54437
54418.5
54400.1
54381.6
54363.1
54344.7
54326.2
54307.8
54289.3
54270.9
54252.4
54234
54215.6
54197.2
54178.8
54160.3
54141.9
54123.5
54105.2
54086.8
54068.4
54050
54031.6
54013.3
53994.9
53976.6
53958.2
53939.9
53921.5
53903.2
53884.9
53866.6
53848.2
53829.9
53811.6
53793.3
53775
53756.7
53738.4
53720.2
53701.9
53683.6
53665.4
53647.1
53628.9
53610.6
53592.4
53574.1
53555.9
53537.7
53519.4
53501.2
53483
53464.8
53446.6
53428.4
53410.2
53392.1
53373.9
53355.7
53337.5
53319.4
53301.2
53283.1
53264.9
53246.8
53228.6
53210.5
53192.4
53174.3
53156.2
53138
53119.9
53101.8
53083.7
53065.7
53047.6
53029.5
53011.4
52993.4
52975.3
52957.2
52939.2
52921.1
52903.1
52885.1
52867
52849
52831
52813
52795
52777
52759
52741
52723
52705
52687
52669.1
52651.1
52633.1
52615.2
52597.2
52579.3
52561.3
52543.4
52525.5
52507.6
52489.6
52471.7
52453.8
52435.9
52418
52400.1
52382.2
52364.3
52346.5
52328.6
52310.7
52292.9
52275
52257.2
52239.3
52221.5
52203.6
52185.8
52168
52150.2
52132.4
52114.5
52096.7
52078.9
52061.1
52043.4
52025.6
52007.8
51990
51972.3
51954.5
51936.7
51919
51901.2
51883.5
51865.8
51848
51830.3
51812.6
51794.9
51777.2
51759.5
51741.8
51724.1
51706.4
51688.7
51671
51653.3
51635.7
51618
51600.3
51582.7
51565
51547.4
51529.8
51512.1
51494.5
51476.9
51459.3
51441.7
51424
51406.4
51388.9
51371.3
51353.7
51336.1
51318.5
51301
51283.4
51265.8
51248.3
51230.7
51213.2
51195.6
51178.1
51160.6
51143.1
51125.5
51108
51090.5
51073
51055.5
51038
51020.5
51003.1
50985.6
50968.1
50950.6
50933.2
50915.7
50898.3
50880.8
50863.4
50845.9
50828.5
50811.1
50793.7
50776.2
50758.8
50741.4
50724
50706.6
50689.2
50671.9
50654.5
50637.1
50619.7
50602.4
50585
50567.7
50550.3
50533
50515.6
50498.3
50481
50463.6
50446.3
50429
50411.7
50394.4
50377.1
50359.8
50342.5
50325.2
50308
50290.7
50273.4
50256.2
50238.9
50221.7
50204.4
50187.2
50169.9
50152.7
50135.5
50118.3
50101
50083.8
50066.6
50049.4
50032.2
50015
49997.8
49980.7
49963.5
49946.3
49929.2
49912
49894.8
49877.7
49860.5
49843.4
49826.3
49809.1
49792
49774.9
49757.8
49740.7
49723.6
49706.5
49689.4
49672.3
49655.2
49638.1
49621
49604
49586.9
49569.8
49552.8
49535.7
49518.7
49501.7
49484.6
49467.6
49450.6
49433.6
49416.5
49399.5
49382.5
49365.5
49348.5
49331.5
49314.6
49297.6
49280.6
49263.6
49246.7
49229.7
49212.8
49195.8
49178.9
49161.9
49145
49128.1
49111.2
49094.2
49077.3
49060.4
49043.5
49026.6
49009.7
48992.8
48975.9
48959.1
48942.2
48925.3
48908.5
48891.6
48874.8
48857.9
48841.1
48824.2
48807.4
48790.6
48773.7
48756.9
48740.1
48723.3
48706.5
48689.7
48672.9
48656.1
48639.3
48622.6
48605.8
48589
48572.3
48555.5
48538.7
48522
48505.2
48488.5
48471.8
48455
48438.3
48421.6
48404.9
48388.2
48371.5
48354.8
48338.1
48321.4
48304.7
48288
48271.4
48254.7
48238
48221.4
48204.7
48188.1
48171.4
48154.8
48138.1
48121.5
48104.9
48088.3
48071.7
48055
48038.4
48021.8
48005.3
47988.7
47972.1
47955.5
47938.9
47922.4
47905.8
47889.2
47872.7
47856.1
47839.6
47823
47806.5
47790
47773.4
47756.9
47740.4
47723.9
47707.4
47690.9
47674.4
47657.9
47641.4
47624.9
47608.5
47592
47575.5
47559.1
47542.6
47526.1
47509.7
47493.3
47476.8
47460.4
47444
47427.5
47411.1
47394.7
47378.3
47361.9
47345.5
47329.1
47312.7
47296.3
47280
47263.6
47247.2
47230.8
47214.5
47198.1
47181.8
47165.4
47149.1
47132.8
47116.4
47100.1
47083.8
47067.5
47051.2
47034.9
47018.6
47002.3
46986
46969.7
46953.4
46937.1
46920.9
46904.6
46888.3
46872.1
46855.8
46839.6
46823.3
46807.1
46790.9
46774.6
46758.4
46742.2
46726
46709.8
46693.6
46677.4
46661.2
46645
46628.8
46612.6
46596.5
46580.3
46564.1
46548
46531.8
46515.7
46499.5
46483.4
46467.2
46451.1
46435
46418.9
46402.7
46386.6
46370.5
46354.4
46338.3
46322.2
46306.1
46290.1
46274
46257.9
46241.8
46225.8
46209.7
46193.7
46177.6
46161.6
46145.5
46129.5
46113.5
46097.4
46081.4
46065.4
46049.4
46033.4
46017.4
46001.4
45985.4
45969.4
45953.4
45937.5
45921.5
45905.5
45889.6
45873.6
45857.6
45841.7
45825.8
45809.8
45793.9
45778
45762
45746.1
45730.2
45714.3
45698.4
45682.5
45666.6
45650.7
45634.8
45618.9
45603.1
45587.2
45571.3
45555.5
45539.6
45523.7
45507.9
45492.1
45476.2
45460.4
45444.6
45428.7
45412.9
45397.1
45381.3
45365.5
45349.7
45333.9
45318.1
45302.3
45286.5
45270.7
45255
45239.2
45223.4
45207.7
45191.9
45176.2
45160.4
45144.7
45129
45113.2
45097.5
45081.8
45066.1
45050.4
45034.7
45019
45003.3
44987.6
44971.9
44956.2
44940.5
44924.9
44909.2
44893.5
44877.9
44862.2
44846.6
44830.9
44815.3
44799.7
44784
44768.4
44752.8
44737.2
44721.6
44706
44690.3
44674.8
44659.2
44643.6
44628
44612.4
44596.8
44581.3
44565.7
44550.1
44534.6
44519
44503.5
44488
44472.4
44456.9
44441.4
44425.8
44410.3
44394.8
44379.3
44363.8
44348.3
44332.8
44317.3
44301.8
44286.4
44270.9
44255.4
44239.9
44224.5
44209
44193.6
44178.1
44162.7
44147.3
44131.8
44116.4
44101
44085.5
44070.1
44054.7
44039.3
44023.9
44008.5
43993.1
43977.7
43962.4
43947
43931.6
43916.3
43900.9
43885.5
43870.2
43854.8
43839.5
43824.1
43808.8
43793.5
43778.2
43762.8
43747.5
43732.2
43716.9
43701.6
43686.3
43671
43655.7
43640.4
43625.2
43609.9
43594.6
43579.3
43564.1
43548.8
43533.6
43518.3
43503.1
43487.8
43472.6
43457.4
43442.2
43426.9
43411.7
43396.5
43381.3
43366.1
43350.9
43335.7
43320.5
43305.4
43290.2
43275
43259.8
43244.7
43229.5
43214.4
43199.2
43184.1
43168.9
43153.8
43138.7
43123.5
43108.4
43093.3
43078.2
43063.1
43048
43032.9
43017.8
43002.7
42987.6
42972.5
42957.4
42942.4
42927.3
42912.2
42897.2
42882.1
42867.1
42852
42837
42822
42806.9
42791.9
42776.9
42761.9
42746.8
42731.8
42716.8
42701.8
42686.8
42671.9
42656.9
42641.9
42626.9
42611.9
42597
42582
42567.1
42552.1
42537.2
42522.2
42507.3
42492.3
42477.4
42462.5
42447.6
42432.6
42417.7
42402.8
42387.9
42373
42358.1
42343.2
42328.4
42313.5
42298.6
42283.7
42268.9
42254
42239.2
42224.3
42209.5
42194.6
42179.8
42164.9
42150.1
42135.3
42120.5
42105.6
42090.8