/*--------------------------------*- C++ -*----------------------------------*\
  =========                 |
  \\      /  F ield         | OpenFOAM: The Open Source CFD Toolbox
   \\    /   O peration     | Website:  https://openfoam.org
    \\  /    A nd           | Version:  9
     \\/     M anipulation  |
\*---------------------------------------------------------------------------*/
FoamFile
{
    format      ascii;
    class       volScalarField;
    location    "0.035";
    object      mag(U);
}
// * * * * * * * * * * * * * * * * * * * * * * * * * * * * * * * * * * * * * //

dimensions      [0 1 -1 0 0 0 0];

internalField   nonuniform List<scalar> 
1000
(
15.3917
15.786
16.2458
16.623
16.9611
17.3002
17.6472
17.9972
18.3468
18.6957
19.0444
19.3932
19.7421
20.091
20.44
20.7891
21.1381
21.4872
21.8362
22.1853
22.5344
22.8835
23.2327
23.582
23.9313
24.2806
24.63
24.9794
25.3289
25.6783
26.0278
26.3772
26.7267
27.0762
27.4257
27.7753
28.1249
28.4745
28.8242
29.1739
29.5236
29.8733
30.223
30.5728
30.9226
31.2724
31.6222
31.9721
32.322
32.6719
33.0218
33.3717
33.7217
34.0717
34.4218
34.7718
35.1219
35.472
35.8221
36.1722
36.5224
36.8726
37.2228
37.573
37.9233
38.2735
38.6238
38.9741
39.3245
39.6748
40.0252
40.3756
40.726
41.0764
41.4269
41.7773
42.1278
42.4783
42.8288
43.1794
43.5299
43.8805
44.2311
44.5817
44.9323
45.2829
45.6336
45.9843
46.335
46.6856
47.0364
47.3871
47.7378
48.0886
48.4393
48.7901
49.1409
49.4917
49.8425
50.1934
50.5442
50.8951
51.2459
51.5968
51.9477
52.2986
52.6495
53.0004
53.3513
53.7022
54.0532
54.4041
54.755
55.106
55.457
55.8079
56.1589
56.5099
56.8609
57.2118
57.5628
57.9138
58.2648
58.6158
58.9668
59.3178
59.6688
60.0198
60.3708
60.7218
61.0728
61.4238
61.7748
62.1258
62.4768
62.8278
63.1788
63.5298
63.8807
64.2317
64.5827
64.9336
65.2846
65.6355
65.9864
66.3373
66.6882
67.0391
67.39
67.7409
68.0918
68.4426
68.7934
69.1443
69.4951
69.8459
70.1966
70.5474
70.8981
71.2488
71.5995
71.9502
72.3008
72.6514
73.002
73.3526
73.7032
74.0537
74.4042
74.7547
75.1051
75.4555
75.8059
76.1562
76.5065
76.8568
77.207
77.5573
77.9074
78.2575
78.6076
78.9577
79.3077
79.6576
80.0075
80.3574
80.7072
81.057
81.4067
81.7564
82.106
82.4555
82.805
83.1545
83.5039
83.8532
84.2025
84.5517
84.9008
85.2499
85.5989
85.9478
86.2966
86.6454
86.9941
87.3427
87.6913
88.0397
88.3881
88.7364
89.0846
89.4327
89.7807
90.1286
90.4765
90.8242
91.1718
91.5193
91.8667
92.214
92.5612
92.9083
93.2552
93.6021
93.9488
94.2954
94.6418
94.9881
95.3343
95.6803
96.0262
96.372
96.7176
97.0631
97.4084
97.7535
98.0985
98.4433
98.7879
99.1324
99.4766
99.8207
100.165
100.508
100.852
101.195
101.538
101.881
102.224
102.566
102.909
103.251
103.592
103.934
104.275
104.616
104.957
105.297
105.638
105.977
106.317
106.656
106.995
107.334
107.673
108.011
108.349
108.686
109.023
109.36
109.696
110.032
110.368
110.703
111.038
111.372
111.706
112.04
112.373
112.705
113.038
113.369
113.701
114.031
114.362
114.691
115.02
115.349
115.677
116.005
116.332
116.658
116.984
117.309
117.634
117.958
118.281
118.604
118.926
119.248
119.57
119.89
120.209
120.527
120.844
121.161
121.476
121.791
122.105
122.418
122.73
123.041
123.352
123.661
123.969
124.276
124.582
124.888
125.192
125.495
125.796
126.097
126.397
126.695
126.992
127.288
127.582
127.875
128.167
128.458
128.747
129.035
129.321
129.606
129.889
130.171
130.452
130.73
131.008
131.283
131.557
131.83
132.1
132.369
132.637
132.902
133.166
133.428
133.688
133.946
134.203
134.458
134.71
134.961
135.21
135.458
135.703
135.946
136.188
136.427
136.665
136.9
137.134
137.365
137.595
137.823
138.049
138.273
138.495
138.715
138.934
139.15
139.365
139.577
139.788
139.998
140.205
140.411
140.615
140.817
141.018
141.217
141.415
141.611
141.805
141.998
142.19
142.38
142.57
142.757
142.944
143.129
143.313
143.496
143.678
143.859
144.039
144.218
144.397
144.574
144.75
144.926
145.101
145.275
145.449
145.622
145.795
145.967
146.138
146.309
146.479
146.649
146.819
146.989
147.158
147.326
147.495
147.663
147.831
147.998
148.166
148.333
148.501
148.668
148.834
149.001
149.168
149.335
149.501
149.667
149.834
150
150.166
150.333
150.499
150.665
150.831
150.998
151.164
151.33
151.496
151.662
151.829
151.995
152.161
152.327
152.494
152.66
152.826
152.993
153.159
153.326
153.492
153.659
153.825
153.992
154.158
154.325
154.492
154.658
154.825
154.992
155.159
155.326
155.492
155.659
155.826
155.993
156.161
156.328
156.495
156.662
156.829
156.997
157.164
157.331
157.499
157.666
157.834
158.001
158.169
158.336
158.504
158.672
158.84
159.007
159.175
159.343
159.511
159.679
159.847
160.015
160.183
160.351
160.519
160.688
160.856
161.024
161.193
161.361
161.53
161.698
161.867
162.035
162.204
162.373
162.541
162.71
162.879
163.048
163.217
163.386
163.555
163.724
163.893
164.062
164.231
164.4
164.57
164.739
164.908
165.078
165.247
165.417
165.586
165.756
165.925
166.095
166.265
166.435
166.604
166.774
166.944
167.114
167.284
167.454
167.624
167.794
167.965
168.135
168.305
168.475
168.646
168.816
168.986
169.157
169.327
169.498
169.669
169.839
170.01
170.181
170.351
170.522
170.693
170.864
171.035
171.206
171.377
171.548
171.719
171.89
172.062
172.233
172.404
172.575
172.747
172.918
173.09
173.261
173.433
173.604
173.776
173.948
174.119
174.291
174.463
174.635
174.807
174.979
175.151
175.323
175.495
175.667
175.839
176.011
176.183
176.356
176.528
176.7
176.873
177.045
177.218
177.39
177.563
177.736
177.908
178.081
178.254
178.426
178.599
178.772
178.945
179.118
179.291
179.464
179.637
179.81
179.983
180.157
180.33
180.503
180.676
180.85
181.023
181.197
181.37
181.544
181.717
181.891
182.065
182.238
182.412
182.586
182.76
182.934
183.107
183.281
183.455
183.629
183.804
183.978
184.152
184.326
184.5
184.675
184.849
185.023
185.198
185.372
185.547
185.721
185.896
186.07
186.245
186.42
186.594
186.769
186.944
187.119
187.294
187.469
187.644
187.819
187.994
188.169
188.344
188.519
188.694
188.87
189.045
189.22
189.396
189.571
189.746
189.922
190.097
190.273
190.449
190.624
190.8
190.976
191.152
191.327
191.503
191.679
191.855
192.031
192.207
192.383
192.559
192.735
192.911
193.088
193.264
193.44
193.616
193.793
193.969
194.146
194.322
194.499
194.675
194.852
195.028
195.205
195.382
195.559
195.735
195.912
196.089
196.266
196.443
196.62
196.797
196.974
197.151
197.328
197.505
197.683
197.86
198.037
198.214
198.392
198.569
198.747
198.924
199.102
199.279
199.457
199.634
199.812
199.99
200.167
200.345
200.523
200.701
200.879
201.057
201.235
201.413
201.591
201.769
201.947
202.125
202.303
202.481
202.66
202.838
203.016
203.195
203.373
203.551
203.73
203.908
204.087
204.265
204.444
204.623
204.801
204.98
205.159
205.338
205.516
205.695
205.874
206.053
206.232
206.411
206.59
206.769
206.948
207.127
207.306
207.485
207.665
207.844
208.023
208.202
208.381
208.561
208.74
208.919
209.099
209.278
209.458
209.637
209.817
209.996
210.176
210.356
210.536
210.715
210.895
211.075
211.255
211.435
211.615
211.795
211.975
212.155
212.335
212.516
212.696
212.876
213.056
213.237
213.417
213.597
213.778
213.958
214.138
214.319
214.499
214.68
214.86
215.04
215.221
215.401
215.581
215.762
215.942
216.122
216.302
216.482
216.662
216.842
217.021
217.201
217.38
217.56
217.739
217.917
218.096
218.274
218.452
218.63
218.808
218.985
219.162
219.338
219.514
219.69
219.865
220.039
220.214
220.387
220.56
220.732
220.904
221.075
221.245
221.414
221.583
221.751
221.918
222.084
222.249
222.414
222.578
222.74
222.902
223.063
223.222
223.381
223.539
223.696
223.852
224.008
224.162
224.316
224.468
224.62
224.771
224.922
225.072
225.221
225.37
225.519
225.667
225.814
225.962
226.109
226.256
226.404
226.551
226.698
226.846
226.994
227.142
227.291
227.44
227.59
227.74
227.891
228.043
228.195
228.348
228.503
228.657
228.813
228.97
229.128
229.287
229.446
229.607
229.768
229.931
230.094
230.259
230.424
230.59
230.757
230.925
231.094
231.263
231.434
231.605
231.777
231.949
232.122
232.296
232.47
232.645
232.82
232.996
233.173
233.349
233.527
233.704
233.882
234.06
234.239
234.418
234.597
234.777
234.956
235.136
235.316
235.497
235.677
235.858
236.039
236.22
236.402
236.583
236.765
236.947
237.129
237.312
237.494
237.677
237.86
238.043
238.226
238.409
238.593
238.776
238.96
239.143
239.327
239.511
239.695
239.879
240.063
240.247
240.43
240.614
240.797
240.981
241.163
241.345
241.527
241.708
241.888
242.066
242.243
242.419
242.592
242.763
242.931
243.096
243.257
243.415
243.569
243.718
243.862
244.001
244.134
244.262
244.385
244.502
244.614
244.721
244.824
244.922
245.017
245.108
245.197
245.285
245.372
245.458
245.545
245.632
245.721
245.811
245.905
246
246.103
246.376
)
;

boundaryField
{
    sides
    {
        type            calculated;
        value           nonuniform List<scalar> 2(246.376 15.3917);
    }
    empty
    {
        type            empty;
    }
}


// ************************************************************************* //
