/*--------------------------------*- C++ -*----------------------------------*\
  =========                 |
  \\      /  F ield         | OpenFOAM: The Open Source CFD Toolbox
   \\    /   O peration     | Website:  https://openfoam.org
    \\  /    A nd           | Version:  9
     \\/     M anipulation  |
\*---------------------------------------------------------------------------*/
FoamFile
{
    format      ascii;
    class       volScalarField;
    location    "0.035";
    object      p;
}
// * * * * * * * * * * * * * * * * * * * * * * * * * * * * * * * * * * * * * //

dimensions      [1 -1 -2 0 0 0 0];

internalField   nonuniform List<scalar> 
1000
(
15292.8
15290.5
15287.4
15284.6
15282.1
15279.7
15277.2
15274.7
15272.2
15269.7
15267.3
15264.8
15262.3
15259.8
15257.3
15254.8
15252.4
15249.9
15247.4
15244.9
15242.4
15240
15237.5
15235
15232.6
15230.1
15227.6
15225.1
15222.7
15220.2
15217.8
15215.3
15212.8
15210.4
15207.9
15205.5
15203
15200.6
15198.1
15195.6
15193.2
15190.7
15188.3
15185.8
15183.4
15181
15178.5
15176.1
15173.6
15171.2
15168.7
15166.3
15163.9
15161.4
15159
15156.5
15154.1
15151.7
15149.2
15146.8
15144.4
15141.9
15139.5
15137.1
15134.7
15132.2
15129.8
15127.4
15125
15122.5
15120.1
15117.7
15115.3
15112.9
15110.5
15108
15105.6
15103.2
15100.8
15098.4
15096
15093.6
15091.2
15088.8
15086.4
15084
15081.6
15079.2
15076.8
15074.4
15072
15069.6
15067.2
15064.8
15062.4
15060
15057.6
15055.2
15052.9
15050.5
15048.1
15045.7
15043.3
15041
15038.6
15036.2
15033.8
15031.5
15029.1
15026.7
15024.4
15022
15019.6
15017.3
15014.9
15012.6
15010.2
15007.9
15005.5
15003.2
15000.8
14998.5
14996.1
14993.8
14991.4
14989.1
14986.8
14984.4
14982.1
14979.8
14977.4
14975.1
14972.8
14970.5
14968.2
14965.8
14963.5
14961.2
14958.9
14956.6
14954.3
14952
14949.7
14947.4
14945.1
14942.8
14940.5
14938.2
14936
14933.7
14931.4
14929.1
14926.9
14924.6
14922.3
14920.1
14917.8
14915.5
14913.3
14911
14908.8
14906.6
14904.3
14902.1
14899.9
14897.6
14895.4
14893.2
14891
14888.7
14886.5
14884.3
14882.1
14879.9
14877.7
14875.6
14873.4
14871.2
14869
14866.8
14864.7
14862.5
14860.4
14858.2
14856.1
14853.9
14851.8
14849.7
14847.5
14845.4
14843.3
14841.2
14839.1
14837
14834.9
14832.8
14830.7
14828.7
14826.6
14824.5
14822.5
14820.4
14818.4
14816.4
14814.3
14812.3
14810.3
14808.3
14806.3
14804.3
14802.3
14800.4
14798.4
14796.4
14794.5
14792.6
14790.6
14788.7
14786.8
14784.9
14783
14781.1
14779.3
14777.4
14775.5
14773.7
14771.9
14770.1
14768.3
14766.5
14764.7
14762.9
14761.2
14759.4
14757.7
14756
14754.2
14752.6
14750.9
14749.2
14747.6
14745.9
14744.3
14742.7
14741.1
14739.5
14738
14736.4
14734.9
14733.4
14731.9
14730.5
14729
14727.6
14726.2
14724.8
14723.4
14722
14720.7
14719.4
14718.1
14716.9
14715.6
14714.4
14713.2
14712
14710.9
14709.8
14708.7
14707.6
14706.6
14705.6
14704.6
14703.7
14702.8
14701.9
14701
14700.2
14699.4
14698.7
14697.9
14697.3
14696.6
14696
14695.4
14694.9
14694.4
14693.9
14693.5
14693.2
14692.8
14692.6
14692.3
14692.1
14692
14691.9
14691.8
14691.8
14691.8
14691.9
14692
14692.2
14692.4
14692.7
14693.1
14693.6
14694.1
14694.7
14695.3
14696.1
14696.8
14697.7
14698.6
14699.6
14700.7
14701.8
14703
14704.3
14705.7
14707.2
14708.7
14710.4
14712.1
14713.9
14715.8
14717.8
14719.9
14722
14724.3
14726.7
14729.2
14731.8
14734.5
14737.3
14740.2
14743.2
14746.4
14749.6
14753
14756.5
14760.1
14763.9
14767.7
14771.7
14775.9
14780.1
14784.5
14789
14793.7
14798.5
14803.4
14808.5
14813.7
14819
14824.5
14830.2
14836
14841.9
14848
14854.2
14860.6
14867.1
14873.8
14880.6
14887.6
14894.7
14902
14909.4
14916.9
14924.6
14932.5
14940.5
14948.6
14956.9
14965.4
14973.9
14982.6
14991.5
15000.4
15009.6
15018.8
15028.2
15037.7
15047.3
15057
15066.9
15076.9
15086.9
15097.1
15107.4
15117.8
15128.4
15139
15149.7
15160.5
15171.3
15182.3
15193.4
15204.5
15215.7
15227
15238.3
15249.8
15261.3
15272.8
15284.4
15296.1
15307.8
15319.6
15331.4
15343.3
15355.2
15367.2
15379.2
15391.2
15403.3
15415.4
15427.6
15439.8
15452
15464.3
15476.5
15488.8
15501.2
15513.5
15525.9
15538.3
15550.8
15563.2
15575.7
15588.2
15600.7
15613.2
15625.8
15638.3
15650.9
15663.5
15676.1
15688.7
15701.4
15714.1
15726.7
15739.4
15752.1
15764.9
15777.6
15790.3
15803.1
15815.9
15828.7
15841.5
15854.3
15867.1
15880
15892.8
15905.7
15918.6
15931.5
15944.4
15957.3
15970.2
15983.2
15996.1
16009.1
16022.1
16035.1
16048.1
16061.1
16074.2
16087.2
16100.3
16113.4
16126.5
16139.6
16152.7
16165.8
16179
16192.1
16205.3
16218.5
16231.7
16244.9
16258.1
16271.3
16284.6
16297.8
16311.1
16324.4
16337.7
16351
16364.3
16377.6
16391
16404.3
16417.7
16431.1
16444.5
16457.9
16471.3
16484.8
16498.2
16511.7
16525.2
16538.7
16552.2
16565.7
16579.2
16592.7
16606.3
16619.9
16633.4
16647
16660.6
16674.3
16687.9
16701.5
16715.2
16728.9
16742.6
16756.2
16770
16783.7
16797.4
16811.2
16824.9
16838.7
16852.5
16866.3
16880.1
16893.9
16907.8
16921.6
16935.5
16949.4
16963.3
16977.2
16991.1
17005.1
17019
17033
17046.9
17060.9
17074.9
17088.9
17103
17117
17131.1
17145.1
17159.2
17173.3
17187.4
17201.6
17215.7
17229.8
17244
17258.2
17272.4
17286.6
17300.8
17315
17329.3
17343.5
17357.8
17372.1
17386.4
17400.7
17415
17429.4
17443.7
17458.1
17472.5
17486.9
17501.3
17515.7
17530.2
17544.6
17559.1
17573.6
17588
17602.6
17617.1
17631.6
17646.2
17660.7
17675.3
17689.9
17704.5
17719.1
17733.7
17748.4
17763
17777.7
17792.4
17807.1
17821.8
17836.6
17851.3
17866.1
17880.8
17895.6
17910.4
17925.2
17940.1
17954.9
17969.8
17984.6
17999.5
18014.4
18029.3
18044.3
18059.2
18074.2
18089.1
18104.1
18119.1
18134.1
18149.2
18164.2
18179.3
18194.3
18209.4
18224.5
18239.6
18254.8
18269.9
18285.1
18300.2
18315.4
18330.6
18345.8
18361.1
18376.3
18391.6
18406.8
18422.1
18437.4
18452.7
18468.1
18483.4
18498.8
18514.1
18529.5
18544.9
18560.3
18575.8
18591.2
18606.7
18622.2
18637.6
18653.1
18668.7
18684.2
18699.7
18715.3
18730.9
18746.5
18762.1
18777.7
18793.3
18809
18824.7
18840.3
18856
18871.8
18887.5
18903.2
18919
18934.7
18950.5
18966.3
18982.1
18998
19013.8
19029.7
19045.5
19061.4
19077.3
19093.3
19109.2
19125.1
19141.1
19157.1
19173.1
19189.1
19205.1
19221.1
19237.2
19253.3
19269.4
19285.4
19301.6
19317.7
19333.8
19350
19366.2
19382.4
19398.6
19414.8
19431
19447.3
19463.5
19479.8
19496.1
19512.4
19528.7
19545.1
19561.4
19577.8
19594.2
19610.6
19627
19643.4
19659.9
19676.3
19692.8
19709.3
19725.8
19742.4
19758.9
19775.4
19792
19808.6
19825.2
19841.8
19858.4
19875.1
19891.8
19908.4
19925.1
19941.8
19958.6
19975.3
19992.1
20008.8
20025.6
20042.4
20059.2
20076.1
20092.9
20109.8
20126.7
20143.6
20160.5
20177.4
20194.3
20211.3
20228.3
20245.3
20262.3
20279.3
20296.3
20313.4
20330.4
20347.5
20364.6
20381.7
20398.9
20416
20433.2
20450.4
20467.6
20484.8
20502
20519.3
20536.5
20553.8
20571.1
20588.4
20605.8
20623.1
20640.5
20657.9
20675.3
20692.7
20710.1
20727.5
20745
20762.5
20780
20797.5
20815
20832.5
20850.1
20867.6
20885.2
20902.8
20920.4
20938
20955.7
20973.3
20991
21008.7
21026.4
21044.1
21061.8
21079.6
21097.4
21115.2
21133
21150.8
21168.6
21186.5
21204.4
21222.3
21240.2
21258.1
21276.1
21294
21312
21330.1
21348.1
21366.2
21384.3
21402.4
21420.5
21438.7
21456.9
21475.2
21493.4
21511.8
21530.1
21548.5
21566.9
21585.4
21603.9
21622.4
21641
21659.7
21678.4
21697.2
21716
21734.9
21753.8
21772.8
21791.9
21811.1
21830.3
21849.7
21869.1
21888.6
21908.2
21927.9
21947.6
21967.5
21987.5
22007.6
22027.8
22048.1
22068.5
22089.1
22109.7
22130.5
22151.4
22172.4
22193.5
22214.8
22236.2
22257.7
22279.3
22301
22322.9
22344.8
22366.9
22389
22411.3
22433.6
22456.1
22478.6
22501.2
22523.8
22546.5
22569.3
22592.1
22614.9
22637.8
22660.7
22683.6
22706.6
22729.5
22752.4
22775.3
22798.2
22821
22843.8
22866.6
22889.3
22911.9
22934.6
22957.1
22979.6
23002
23024.3
23046.6
23068.8
23090.9
23112.9
23134.8
23156.7
23178.5
23200.2
23221.9
23243.5
23265
23286.4
23307.8
23329.1
23350.3
23371.5
23392.6
23413.7
23434.7
23455.7
23476.7
23497.6
23518.4
23539.3
23560.1
23580.8
23601.6
23622.3
23643
23663.7
23684.4
23705.1
23725.7
23746.4
23767
23787.6
23808.3
23828.9
23849.5
23870.1
23890.7
23911.3
23931.9
23952.5
23973.1
23993.7
24014.3
24034.9
24055.5
24076.1
24096.7
24117.3
24138
24158.6
24179.2
24199.8
24220.4
24241.1
24261.7
24282.4
24303
24323.7
24344.4
24365.1
24385.9
24406.7
24427.5
24448.4
24469.3
24490.3
24511.5
24532.6
24554
24575.5
24597.2
24619
24641.2
24663.5
24686.3
24709.4
24732.9
24756.8
24781.3
24806.2
24831.8
24858
24884.8
24912.2
24940.3
24969
24998.4
25028.4
25059
25090
25121.6
25153.5
25185.8
25218.3
25250.9
25283.7
25316.4
25349.1
25381.8
25414.2
25446.5
25478.3
25510.2
25540.8
)
;

boundaryField
{
    sides
    {
        type            zeroGradient;
    }
    empty
    {
        type            empty;
    }
}


// ************************************************************************* //
