/*--------------------------------*- C++ -*----------------------------------*\
  =========                 |
  \\      /  F ield         | OpenFOAM: The Open Source CFD Toolbox
   \\    /   O peration     | Website:  https://openfoam.org
    \\  /    A nd           | Version:  9
     \\/     M anipulation  |
\*---------------------------------------------------------------------------*/
FoamFile
{
    format      ascii;
    class       volScalarField;
    location    "0.035";
    object      T;
}
// * * * * * * * * * * * * * * * * * * * * * * * * * * * * * * * * * * * * * //

dimensions      [0 0 0 1 0 0 0];

internalField   nonuniform List<scalar> 
1000
(
202.578
202.589
202.611
202.635
202.658
202.682
202.706
202.731
202.755
202.778
202.8
202.822
202.847
202.872
202.898
202.922
202.944
202.963
202.982
203.002
203.024
203.048
203.074
203.102
203.13
203.157
203.18
203.199
203.213
203.223
203.229
203.231
203.232
203.232
203.232
203.232
203.23
203.226
203.218
203.209
203.2
203.19
203.18
203.171
203.161
203.151
203.142
203.132
203.122
203.113
203.103
203.094
203.084
203.075
203.066
203.056
203.047
203.037
203.028
203.017
203.01
202.998
202.992
202.979
202.973
202.96
202.954
202.941
202.935
202.923
202.916
202.904
202.897
202.886
202.877
202.868
202.858
202.85
202.839
202.83
202.821
202.811
202.803
202.793
202.783
202.775
202.764
202.756
202.746
202.736
202.728
202.718
202.709
202.7
202.69
202.681
202.672
202.662
202.653
202.644
202.634
202.625
202.616
202.607
202.597
202.588
202.579
202.57
202.56
202.551
202.542
202.533
202.524
202.514
202.505
202.496
202.487
202.477
202.468
202.459
202.45
202.441
202.432
202.423
202.413
202.404
202.395
202.386
202.377
202.368
202.359
202.35
202.341
202.331
202.322
202.313
202.304
202.295
202.286
202.277
202.268
202.259
202.25
202.241
202.232
202.223
202.214
202.205
202.196
202.188
202.179
202.17
202.161
202.152
202.143
202.134
202.125
202.117
202.108
202.099
202.09
202.081
202.072
202.064
202.055
202.046
202.038
202.029
202.02
202.011
202.003
201.994
201.985
201.977
201.968
201.96
201.951
201.943
201.934
201.925
201.917
201.908
201.9
201.892
201.883
201.875
201.866
201.858
201.85
201.841
201.833
201.825
201.816
201.808
201.8
201.792
201.784
201.775
201.767
201.759
201.751
201.743
201.735
201.727
201.719
201.711
201.703
201.695
201.687
201.68
201.672
201.664
201.656
201.649
201.641
201.633
201.626
201.618
201.611
201.603
201.596
201.588
201.581
201.574
201.566
201.559
201.552
201.545
201.538
201.53
201.523
201.516
201.51
201.503
201.496
201.489
201.482
201.476
201.469
201.462
201.456
201.449
201.443
201.437
201.43
201.424
201.418
201.412
201.406
201.4
201.394
201.388
201.383
201.377
201.371
201.366
201.36
201.355
201.35
201.345
201.339
201.334
201.33
201.325
201.32
201.315
201.311
201.306
201.302
201.298
201.294
201.29
201.286
201.282
201.279
201.275
201.272
201.268
201.265
201.262
201.259
201.257
201.254
201.252
201.249
201.247
201.245
201.243
201.242
201.24
201.239
201.238
201.237
201.236
201.235
201.235
201.235
201.235
201.235
201.235
201.235
201.236
201.237
201.238
201.24
201.242
201.244
201.246
201.248
201.251
201.254
201.258
201.261
201.265
201.269
201.274
201.278
201.283
201.289
201.295
201.301
201.307
201.314
201.321
201.328
201.336
201.344
201.353
201.362
201.371
201.381
201.391
201.402
201.413
201.424
201.436
201.448
201.461
201.474
201.488
201.502
201.517
201.532
201.548
201.564
201.58
201.598
201.615
201.633
201.652
201.671
201.691
201.712
201.733
201.754
201.776
201.799
201.822
201.846
201.87
201.895
201.92
201.946
201.973
202
202.028
202.056
202.085
202.114
202.144
202.175
202.206
202.237
202.269
202.302
202.335
202.369
202.403
202.438
202.473
202.509
202.545
202.582
202.619
202.657
202.695
202.733
202.772
202.811
202.851
202.891
202.932
202.972
203.014
203.055
203.097
203.139
203.181
203.224
203.267
203.31
203.354
203.397
203.441
203.485
203.53
203.574
203.619
203.664
203.709
203.754
203.8
203.845
203.891
203.936
203.982
204.028
204.074
204.121
204.167
204.213
204.26
204.306
204.353
204.4
204.446
204.493
204.54
204.587
204.634
204.681
204.728
204.775
204.822
204.869
204.917
204.964
205.011
205.059
205.106
205.153
205.201
205.248
205.296
205.343
205.391
205.438
205.486
205.533
205.581
205.629
205.676
205.724
205.772
205.82
205.867
205.915
205.963
206.011
206.059
206.106
206.155
206.202
206.25
206.298
206.346
206.394
206.442
206.49
206.539
206.586
206.635
206.682
206.731
206.779
206.827
206.875
206.924
206.972
207.02
207.068
207.117
207.165
207.214
207.261
207.31
207.358
207.407
207.455
207.504
207.552
207.601
207.649
207.698
207.746
207.795
207.843
207.892
207.941
207.99
208.038
208.087
208.135
208.185
208.233
208.282
208.33
208.38
208.428
208.477
208.526
208.575
208.623
208.673
208.721
208.771
208.819
208.869
208.917
208.967
209.015
209.065
209.114
209.163
209.212
209.261
209.31
209.36
209.408
209.458
209.507
209.557
209.605
209.655
209.704
209.754
209.803
209.853
209.902
209.952
210
210.05
210.099
210.149
210.198
210.248
210.297
210.348
210.397
210.447
210.496
210.546
210.595
210.645
210.694
210.745
210.794
210.844
210.893
210.944
210.993
211.043
211.093
211.143
211.192
211.243
211.292
211.343
211.392
211.443
211.492
211.543
211.592
211.643
211.692
211.743
211.793
211.843
211.893
211.944
211.993
212.044
212.094
212.145
212.194
212.245
212.295
212.346
212.396
212.447
212.497
212.548
212.597
212.649
212.698
212.75
212.799
212.851
212.9
212.952
213.002
213.053
213.103
213.154
213.204
213.256
213.305
213.357
213.407
213.458
213.509
213.56
213.61
213.662
213.712
213.763
213.814
213.865
213.915
213.967
214.017
214.069
214.119
214.171
214.221
214.273
214.324
214.376
214.426
214.478
214.528
214.58
214.631
214.683
214.733
214.785
214.836
214.888
214.938
214.99
215.041
215.093
215.144
215.196
215.247
215.299
215.349
215.402
215.452
215.505
215.555
215.608
215.659
215.711
215.762
215.814
215.865
215.918
215.968
216.021
216.072
216.125
216.175
216.229
216.278
216.333
216.382
216.437
216.485
216.541
216.589
216.645
216.692
216.75
216.795
216.855
216.899
216.959
217.002
217.065
217.105
217.17
217.208
217.275
217.312
217.38
217.416
217.485
217.52
217.59
217.625
217.694
217.729
217.799
217.834
217.904
217.939
218.009
218.044
218.114
218.149
218.218
218.254
218.324
218.359
218.429
218.464
218.534
218.569
218.639
218.674
218.744
218.78
218.85
218.885
218.955
218.991
219.061
219.096
219.167
219.202
219.272
219.307
219.378
219.413
219.484
219.519
219.59
219.625
219.696
219.731
219.802
219.837
219.908
219.943
220.014
220.049
220.12
220.156
220.227
220.262
220.333
220.368
220.439
220.475
220.546
220.581
220.652
220.688
220.759
220.795
220.866
220.901
220.972
221.008
221.079
221.115
221.186
221.222
221.293
221.329
221.4
221.436
221.507
221.543
221.614
221.65
221.721
221.757
221.829
221.865
221.936
221.972
222.043
222.079
222.151
222.187
222.258
222.294
222.366
222.402
222.473
222.509
222.581
222.617
222.689
222.725
222.796
222.832
222.904
222.94
223.012
223.048
223.12
223.156
223.228
223.264
223.336
223.372
223.444
223.48
223.552
223.588
223.66
223.696
223.768
223.804
223.877
223.913
223.985
224.021
224.094
224.13
224.203
224.239
224.312
224.348
224.421
224.457
224.531
224.567
224.64
224.677
224.751
224.787
224.861
224.898
224.972
225.009
225.084
225.121
225.196
225.233
225.308
225.347
225.421
225.462
225.533
225.58
225.644
225.699
225.758
225.817
225.875
225.934
225.995
226.051
226.114
226.171
226.234
226.293
226.356
226.414
226.479
226.537
226.604
226.662
226.73
226.787
226.857
226.913
226.986
227.041
227.115
227.169
227.246
227.298
227.378
227.428
227.51
227.559
227.643
227.691
227.776
227.822
227.909
227.954
228.041
228.086
228.173
228.217
228.304
228.348
228.435
228.479
228.565
228.608
228.694
228.737
228.822
228.865
228.949
228.992
229.075
229.118
229.201
229.243
229.325
229.366
229.448
229.489
229.57
229.611
229.691
229.732
229.812
229.852
229.931
229.971
230.05
230.089
230.168
230.207
230.285
230.324
230.402
230.441
230.519
230.557
230.635
230.673
230.75
230.789
230.866
230.904
230.981
231.019
231.096
231.134
231.211
231.249
231.325
231.363
231.44
231.478
231.554
231.592
231.668
231.706
231.782
231.82
231.896
231.933
232.009
232.047
232.123
232.161
232.236
232.274
232.35
232.387
232.463
232.501
232.576
232.614
232.69
232.728
232.804
232.842
232.918
232.956
233.034
233.07
233.15
233.186
233.268
233.303
233.387
233.422
233.51
233.545
233.635
233.671
233.766
233.801
233.901
233.938
234.043
234.081
234.191
234.23
234.346
234.387
234.508
234.549
234.675
234.717
234.846
234.888
235.02
235.062
235.195
235.236
235.37
235.41
235.542
235.582
235.714
235.747
235.898
)
;

boundaryField
{
    sides
    {
        type            zeroGradient;
    }
    empty
    {
        type            empty;
    }
}


// ************************************************************************* //
