/*--------------------------------*- C++ -*----------------------------------*\
  =========                 |
  \\      /  F ield         | OpenFOAM: The Open Source CFD Toolbox
   \\    /   O peration     | Website:  https://openfoam.org
    \\  /    A nd           | Version:  9
     \\/     M anipulation  |
\*---------------------------------------------------------------------------*/
FoamFile
{
    format      ascii;
    class       volScalarField;
    location    "0.028";
    object      T;
}
// * * * * * * * * * * * * * * * * * * * * * * * * * * * * * * * * * * * * * //

dimensions      [0 0 0 1 0 0 0];

internalField   nonuniform List<scalar> 
10000
(
292.095
292.079
292.069
292.058
292.048
292.037
292.027
292.017
292.006
291.996
291.985
291.975
291.965
291.954
291.944
291.933
291.923
291.913
291.902
291.892
291.881
291.871
291.861
291.85
291.84
291.829
291.819
291.808
291.798
291.788
291.777
291.767
291.756
291.746
291.736
291.725
291.715
291.704
291.694
291.683
291.673
291.663
291.652
291.642
291.631
291.621
291.61
291.6
291.59
291.579
291.569
291.558
291.548
291.538
291.527
291.517
291.506
291.496
291.485
291.475
291.464
291.454
291.443
291.433
291.423
291.412
291.402
291.392
291.381
291.371
291.36
291.35
291.34
291.329
291.319
291.308
291.298
291.288
291.277
291.267
291.256
291.246
291.235
291.225
291.215
291.204
291.194
291.183
291.173
291.163
291.152
291.142
291.132
291.121
291.111
291.1
291.09
291.079
291.069
291.059
291.048
291.038
291.028
291.017
291.007
290.996
290.986
290.976
290.965
290.955
290.944
290.934
290.924
290.913
290.903
290.892
290.882
290.871
290.861
290.851
290.84
290.83
290.82
290.809
290.799
290.788
290.778
290.767
290.757
290.747
290.736
290.726
290.716
290.705
290.695
290.684
290.674
290.663
290.653
290.643
290.632
290.622
290.612
290.601
290.591
290.58
290.569
290.559
290.549
290.539
290.529
290.518
290.508
290.497
290.487
290.476
290.466
290.456
290.446
290.435
290.425
290.415
290.404
290.393
290.383
290.372
290.362
290.352
290.342
290.331
290.321
290.31
290.3
290.29
290.28
290.268
290.257
290.247
290.237
290.23
290.22
290.208
290.196
290.183
290.172
290.162
290.157
290.15
290.138
290.125
290.112
290.099
290.088
290.081
290.076
290.065
290.052
290.04
290.027
290.016
290.007
290.002
289.993
289.981
289.968
289.956
289.944
289.933
289.924
289.915
289.908
289.899
289.888
289.876
289.864
289.852
289.841
289.83
289.821
289.812
289.803
289.794
289.785
289.774
289.761
289.749
289.737
289.727
289.724
289.717
289.704
289.69
289.676
289.662
289.651
289.644
289.643
289.632
289.618
289.604
289.59
289.577
289.566
289.557
289.552
289.55
289.543
289.531
289.517
289.503
289.489
289.476
289.464
289.455
289.456
289.45
289.437
289.42
289.404
289.39
289.378
289.369
289.371
289.367
289.354
289.338
289.322
289.309
289.297
289.289
289.29
289.281
289.267
289.251
289.237
289.223
289.211
289.203
289.205
289.205
289.193
289.178
289.163
289.149
289.135
289.122
289.111
289.107
289.11
289.101
289.087
289.069
289.051
289.037
289.025
289.016
289.017
289.017
289.005
288.99
288.971
288.955
288.942
288.931
288.929
288.932
288.922
288.908
288.89
288.874
288.86
288.849
288.845
288.847
288.838
288.824
288.808
288.794
288.782
288.774
288.77
288.76
288.747
288.734
288.723
288.717
288.707
288.694
288.68
288.668
288.657
288.655
288.651
288.638
288.622
288.606
288.592
288.581
288.575
288.578
288.57
288.556
288.539
288.521
288.508
288.496
288.49
288.494
288.488
288.474
288.457
288.439
288.425
288.412
288.403
288.406
288.41
288.401
288.386
288.367
288.347
288.332
288.319
288.306
288.295
288.293
288.303
288.301
288.289
288.273
288.252
288.234
288.22
288.206
288.195
288.188
288.192
288.19
288.177
288.161
288.141
288.126
288.113
288.103
288.102
288.104
288.094
288.079
288.061
288.046
288.033
288.023
288.023
288.019
288.007
287.991
287.975
287.961
287.95
287.946
287.948
287.938
287.924
287.906
287.891
287.878
287.868
287.868
287.866
287.853
287.838
287.822
287.809
287.798
287.794
287.79
287.778
287.763
287.747
287.734
287.723
287.72
287.72
287.709
287.694
287.676
287.661
287.649
287.638
287.639
287.639
287.628
287.613
287.594
287.579
287.566
287.555
287.554
287.556
287.546
287.531
287.513
287.498
287.486
287.475
287.476
287.473
287.46
287.445
287.428
287.414
287.403
287.397
287.399
287.39
287.376
287.358
287.341
287.328
287.317
287.314
287.319
287.31
287.296
287.277
287.255
287.24
287.228
287.218
287.22
287.233
287.23
287.217
287.2
287.176
287.153
287.138
287.125
287.114
287.108
287.115
287.117
287.106
287.091
287.071
287.052
287.038
287.026
287.017
287.02
287.021
287.009
286.994
286.976
286.961
286.948
286.938
286.937
286.934
286.922
286.907
286.891
286.878
286.867
286.864
286.863
286.852
286.837
286.819
286.805
286.792
286.783
286.784
286.785
286.774
286.76
286.743
286.729
286.716
286.705
286.696
286.684
286.671
286.658
286.646
286.638
286.642
286.638
286.625
286.608
286.59
286.576
286.564
286.555
286.557
286.555
286.543
286.527
286.508
286.493
286.481
286.471
286.472
286.473
286.462
286.447
286.427
286.409
286.396
286.385
286.379
286.387
286.389
286.378
286.363
286.341
286.317
286.302
286.289
286.278
286.273
286.282
286.288
286.278
286.264
286.245
286.222
286.206
286.192
286.179
286.166
286.154
286.144
286.144
286.154
286.151
286.138
286.122
286.101
286.083
286.07
286.058
286.049
286.051
286.051
286.039
286.024
286.005
285.989
285.976
285.965
285.963
285.966
285.957
285.943
285.925
285.907
285.894
285.882
285.875
285.879
285.876
285.863
285.847
285.828
285.814
285.801
285.791
285.791
285.792
285.781
285.767
285.749
285.735
285.723
285.714
285.716
285.713
285.7
285.684
285.662
285.643
285.629
285.617
285.607
285.607
285.618
285.615
285.602
285.586
285.564
285.546
285.532
285.52
285.511
285.514
285.514
285.503
285.488
285.469
285.453
285.44
285.429
285.425
285.429
285.423
285.409
285.392
285.374
285.36
285.347
285.338
285.34
285.341
285.33
285.315
285.296
285.279
285.266
285.254
285.248
285.252
285.246
285.233
285.217
285.199
285.185
285.173
285.165
285.166
285.162
285.149
285.134
285.116
285.103
285.091
285.083
285.085
285.081
285.068
285.052
285.034
285.02
285.008
284.998
284.999
284.997
284.985
284.97
284.954
284.94
284.928
284.921
284.924
284.918
284.905
284.888
284.868
284.853
284.841
284.83
284.828
284.835
284.83
284.817
284.801
284.782
284.767
284.754
284.741
284.728
284.716
284.708
284.71
284.714
284.704
284.69
284.671
284.651
284.637
284.625
284.615
284.614
284.621
284.614
284.6
284.583
284.561
284.545
284.532
284.521
284.516
284.523
284.52
284.508
284.492
284.471
284.454
284.441
284.429
284.422
284.426
284.425
284.413
284.398
284.378
284.363
284.35
284.339
284.336
284.343
284.34
284.327
284.311
284.291
284.274
284.261
284.249
284.237
284.229
284.22
284.208
284.196
284.186
284.181
284.184
284.176
284.163
284.147
284.13
284.116
284.104
284.096
284.098
284.092
284.079
284.063
284.047
284.034
284.023
284.018
284.02
284.011
283.997
283.98
283.964
283.952
283.94
283.935
283.941
283.937
283.924
283.908
283.887
283.869
283.856
283.843
283.83
283.818
283.807
283.804
283.812
283.812
283.8
283.786
283.766
283.748
283.734
283.722
283.712
283.71
283.712
283.701
283.687
283.67
283.654
283.641
283.629
283.624
283.628
283.623
283.61
283.595
283.579
283.566
283.554
283.548
283.546
283.536
283.522
283.504
283.488
283.475
283.464
283.458
283.464
283.461
283.448
283.433
283.412
283.396
283.383
283.372
283.365
283.369
283.366
283.354
283.339
283.32
283.305
283.292
283.281
283.277
283.28
283.273
283.259
283.242
283.225
283.212
283.201
283.192
283.195
283.191
283.178
283.163
283.144
283.13
283.117
283.107
283.105
283.112
283.106
283.093
283.078
283.06
283.045
283.031
283.018
283.005
282.992
282.979
282.967
282.956
282.951
282.959
282.964
282.955
282.94
282.922
282.898
282.882
282.87
282.858
282.852
282.858
282.859
282.848
282.833
282.812
282.785
282.769
282.756
282.745
282.738
282.745
282.758
282.753
282.74
282.723
282.699
282.676
282.662
282.65
282.639
282.633
282.641
282.641
282.63
282.615
282.595
282.577
282.564
282.552
282.543
282.546
282.549
282.539
282.525
282.505
282.483
282.468
282.456
282.445
282.443
282.454
282.454
282.443
282.428
282.406
282.381
282.365
282.352
282.34
282.333
282.338
282.346
282.337
282.324
282.306
282.283
282.266
282.253
282.242
282.233
282.234
282.238
282.228
282.214
282.197
282.178
282.165
282.153
282.143
282.142
282.145
282.136
282.122
282.105
282.089
282.077
282.065
282.059
282.059
282.049
282.036
282.019
282.003
281.99
281.978
281.971
281.976
281.975
281.963
281.948
281.928
281.91
281.897
281.885
281.876
281.878
281.881
281.871
281.857
281.839
281.819
281.805
281.793
281.783
281.78
281.787
281.781
281.768
281.751
281.73
281.714
281.701
281.69
281.682
281.686
281.687
281.675
281.661
281.642
281.624
281.61
281.598
281.588
281.588
281.595
281.589
281.576
281.561
281.545
281.531
281.519
281.506
281.494
281.481
281.469
281.456
281.444
281.433
281.429
281.436
281.434
281.422
281.407
281.386
281.367
281.353
281.342
281.332
281.331
281.338
281.332
281.318
281.302
281.281
281.265
281.252
281.241
281.233
281.237
281.237
281.226
281.211
281.192
281.173
281.16
281.148
281.139
281.14
281.148
281.141
281.128
281.112
281.092
281.077
281.064
281.052
281.041
281.033
281.022
281.01
280.997
280.986
280.975
280.974
280.979
280.972
280.959
280.942
280.92
280.902
280.889
280.878
280.869
280.871
280.879
280.872
280.859
280.843
280.824
280.809
280.797
280.786
280.78
280.781
280.771
280.757
280.74
280.722
280.709
280.697
280.689
280.692
280.699
280.692
280.679
280.662
280.638
280.619
280.606
280.595
280.586
280.588
280.6
280.596
280.583
280.567
280.543
280.512
280.494
280.481
280.468
280.457
280.451
280.46
280.477
280.475
280.463
280.448
280.427
280.399
280.382
280.369
280.356
280.346
280.342
280.351
280.351
280.34
280.326
280.307
280.287
280.274
280.261
280.251
280.246
280.249
280.243
280.23
280.215
280.197
280.183
280.171
280.161
280.159
280.163
280.155
280.142
280.126
280.11
280.097
280.086
280.077
280.074
280.064
280.051
280.034
280.011
279.995
279.982
279.971
279.965
279.975
279.991
279.987
279.975
279.959
279.936
279.906
279.888
279.875
279.863
279.852
279.849
279.86
279.868
279.859
279.846
279.83
279.808
279.792
279.779
279.767
279.756
279.747
279.737
279.725
279.712
279.7
279.688
279.677
279.673
279.68
279.68
279.668
279.654
279.633
279.61
279.595
279.583
279.571
279.564
279.57
279.576
279.568
279.555
279.538
279.516
279.5
279.487
279.476
279.466
279.466
279.47
279.461
279.448
279.432
279.414
279.401
279.389
279.378
279.371
279.364
279.352
279.34
279.326
279.314
279.302
279.292
279.292
279.298
279.291
279.278
279.261
279.238
279.219
279.206
279.195
279.185
279.184
279.195
279.192
279.18
279.166
279.146
279.125
279.111
279.099
279.087
279.078
279.079
279.075
279.063
279.049
279.035
279.022
279.011
279.004
279.008
279.005
278.993
278.978
278.958
278.939
278.925
278.914
278.904
278.903
278.911
278.906
278.894
278.879
278.857
278.836
278.823
278.811
278.8
278.796
278.803
278.8
278.788
278.774
278.752
278.728
278.713
278.7
278.689
278.683
278.69
278.703
278.698
278.685
278.67
278.647
278.622
278.607
278.595
278.583
278.573
278.573
278.583
278.579
278.566
278.552
278.532
278.513
278.5
278.488
278.478
278.473
278.479
278.474
278.462
278.448
278.432
278.419
278.406
278.395
278.385
278.373
278.361
278.347
278.333
278.321
278.309
278.299
278.296
278.307
278.309
278.299
278.285
278.266
278.241
278.224
278.211
278.2
278.19
278.188
278.196
278.19
278.178
278.162
278.139
278.117
278.102
278.09
278.08
278.075
278.086
278.099
278.093
278.08
278.064
278.04
278.01
277.993
277.98
277.968
277.958
277.956
277.969
277.974
277.965
277.951
277.934
277.908
277.886
277.872
277.86
277.849
277.842
277.847
277.856
277.848
277.836
277.82
277.798
277.778
277.764
277.752
277.741
277.734
277.739
277.74
277.729
277.716
277.699
277.68
277.667
277.655
277.644
277.638
277.64
277.634
277.621
277.607
277.591
277.578
277.566
277.556
277.554
277.554
277.544
277.531
277.517
277.504
277.492
277.482
277.477
277.47
277.458
277.445
277.431
277.417
277.404
277.392
277.38
277.368
277.356
277.345
277.339
277.344
277.345
277.334
277.321
277.305
277.286
277.272
277.26
277.249
277.241
277.242
277.24
277.228
277.215
277.197
277.181
277.168
277.157
277.147
277.146
277.147
277.136
277.123
277.108
277.095
277.083
277.073
277.07
277.075
277.068
277.056
277.04
277.017
276.993
276.979
276.967
276.955
276.943
276.931
276.923
276.924
276.939
276.939
276.927
276.914
276.895
276.869
276.85
276.837
276.825
276.814
276.808
276.815
276.821
276.813
276.8
276.784
276.761
276.742
276.729
276.717
276.707
276.7
276.706
276.706
276.695
276.681
276.664
276.645
276.632
276.62
276.609
276.603
276.605
276.597
276.585
276.57
276.552
276.539
276.527
276.516
276.513
276.521
276.519
276.507
276.493
276.472
276.445
276.428
276.416
276.404
276.395
276.395
276.41
276.412
276.402
276.388
276.37
276.343
276.321
276.307
276.295
276.284
276.276
276.28
276.292
276.287
276.274
276.26
276.239
276.215
276.201
276.188
276.177
276.167
276.167
276.176
276.171
276.159
276.144
276.125
276.106
276.092
276.08
276.069
276.062
276.066
276.065
276.053
276.04
276.023
276.006
275.993
275.981
275.971
275.967
275.97
275.962
275.949
275.934
275.916
275.903
275.891
275.88
275.874
275.877
275.872
275.86
275.846
275.828
275.813
275.801
275.789
275.78
275.78
275.778
275.767
275.753
275.738
275.724
275.712
275.701
275.693
275.69
275.682
275.67
275.657
275.644
275.632
275.621
275.615
275.618
275.611
275.599
275.584
275.562
275.541
275.527
275.514
275.502
275.492
275.483
275.486
275.501
275.499
275.487
275.474
275.455
275.431
275.415
275.402
275.39
275.379
275.371
275.374
275.377
275.368
275.356
275.342
275.33
275.318
275.307
275.299
275.29
275.277
275.264
275.247
275.223
275.207
275.194
275.182
275.171
275.163
275.165
275.184
275.19
275.18
275.167
275.151
275.125
275.097
275.082
275.07
275.058
275.048
275.043
275.053
275.059
275.051
275.038
275.022
274.999
274.977
274.963
274.951
274.94
274.931
274.931
274.939
274.933
274.921
274.907
274.887
274.868
274.855
274.843
274.832
274.824
274.828
274.829
274.819
274.806
274.79
274.773
274.76
274.748
274.738
274.734
274.743
274.743
274.732
274.719
274.7
274.671
274.648
274.634
274.622
274.61
274.598
274.586
274.575
274.566
274.567
274.585
274.592
274.583
274.571
274.555
274.53
274.5
274.483
274.47
274.459
274.448
274.442
274.448
274.462
274.458
274.446
274.432
274.413
274.388
274.371
274.359
274.347
274.336
274.328
274.331
274.329
274.318
274.305
274.288
274.269
274.256
274.244
274.233
274.227
274.236
274.251
274.247
274.235
274.221
274.202
274.171
274.146
274.131
274.119
274.107
274.095
274.083
274.071
274.06
274.049
274.04
274.043
274.061
274.064
274.054
274.041
274.025
273.999
273.971
273.956
273.944
273.932
273.922
273.918
273.927
273.936
273.928
273.915
273.9
273.878
273.854
273.839
273.827
273.815
273.805
273.801
273.809
273.81
273.799
273.786
273.769
273.748
273.732
273.72
273.708
273.698
273.692
273.696
273.692
273.68
273.667
273.651
273.636
273.624
273.612
273.602
273.599
273.595
273.584
273.572
273.557
273.544
273.533
273.521
273.513
273.51
273.501
273.489
273.476
273.462
273.449
273.437
273.427
273.42
273.42
273.411
273.399
273.385
273.37
273.357
273.345
273.335
273.33
273.332
273.325
273.313
273.299
273.284
273.272
273.261
273.251
273.248
273.244
273.233
273.219
273.202
273.18
273.165
273.153
273.141
273.129
273.118
273.112
273.117
273.127
273.121
273.109
273.095
273.075
273.051
273.036
273.024
273.012
273.002
272.997
273.003
273.003
272.992
272.979
272.962
272.94
272.925
272.913
272.901
272.891
272.886
272.892
272.889
272.877
272.864
272.846
272.827
272.814
272.802
272.791
272.783
272.785
272.79
272.781
272.769
272.754
272.738
272.725
272.713
272.702
272.693
272.685
272.674
272.661
272.648
272.631
272.616
272.604
272.593
272.583
272.58
272.591
272.593
272.583
272.571
272.555
272.531
272.512
272.499
272.487
272.476
272.467
272.467
272.474
272.467
272.455
272.442
272.423
272.404
272.391
272.38
272.369
272.36
272.36
272.362
272.353
272.34
272.325
272.308
272.294
272.283
272.272
272.262
272.262
272.26
272.249
272.236
272.221
272.206
272.194
272.182
272.172
272.168
272.171
272.163
272.151
272.138
272.121
272.107
272.095
272.084
272.073
272.065
272.057
272.046
272.034
272.023
272.011
272
271.992
271.991
271.983
271.971
271.959
271.945
271.932
271.921
271.91
271.901
271.9
271.896
271.884
271.872
271.858
271.846
271.835
271.824
271.82
271.826
271.824
271.812
271.799
271.781
271.753
271.731
271.718
271.706
271.694
271.682
271.671
271.66
271.65
271.647
271.659
271.673
271.667
271.655
271.642
271.622
271.592
271.57
271.557
271.545
271.534
271.525
271.522
271.535
271.539
271.529
271.517
271.502
271.478
271.455
271.442
271.43
271.419
271.409
271.408
271.421
271.423
271.414
271.401
271.386
271.361
271.333
271.317
271.305
271.293
271.282
271.272
271.269
271.279
271.283
271.274
271.262
271.248
271.231
271.217
271.205
271.193
271.181
271.17
271.158
271.146
271.135
271.123
271.112
271.102
271.1
271.107
271.102
271.091
271.077
271.06
271.037
271.022
271.01
270.999
270.989
270.984
270.992
270.993
270.983
270.971
270.955
270.933
270.916
270.903
270.892
270.881
270.872
270.873
270.885
270.883
270.872
270.86
270.848
270.834
270.817
270.797
270.773
270.755
270.741
270.729
270.718
270.706
270.695
270.684
270.674
270.673
270.689
270.7
270.693
270.681
270.667
270.648
270.618
270.598
270.585
270.573
270.562
270.554
270.555
270.573
270.581
270.573
270.561
270.546
270.525
270.491
270.467
270.453
270.442
270.43
270.419
270.407
270.396
270.385
270.378
270.383
270.4
270.4
270.389
270.377
270.361
270.337
270.313
270.299
270.287
270.275
270.265
270.258
270.263
270.269
270.262
270.25
270.236
270.216
270.194
270.18
270.169
270.157
270.148
270.142
270.149
270.149
270.138
270.126
270.11
270.089
270.073
270.061
270.05
270.039
270.031
270.033
270.035
270.025
270.013
269.999
269.98
269.966
269.954
269.943
269.933
269.927
269.931
269.929
269.918
269.906
269.891
269.875
269.862
269.851
269.839
269.828
269.816
269.804
269.793
269.781
269.77
269.758
269.748
269.741
269.744
269.749
269.741
269.729
269.715
269.695
269.674
269.66
269.649
269.637
269.628
269.624
269.632
269.631
269.62
269.607
269.591
269.567
269.547
269.534
269.523
269.512
269.503
269.501
269.514
269.519
269.509
269.497
269.483
269.46
269.426
269.406
269.393
269.381
269.371
269.361
269.359
269.375
269.389
269.383
269.372
269.359
269.341
269.313
269.29
269.277
269.265
269.254
269.244
269.236
269.239
269.245
269.237
269.226
269.212
269.193
269.174
269.161
269.15
269.139
269.129
269.128
269.138
269.136
269.125
269.112
269.096
269.071
269.05
269.037
269.025
269.014
269.004
268.997
269
269
268.99
268.978
268.963
268.948
268.935
268.924
268.913
268.905
268.907
268.91
268.902
268.89
268.876
268.856
268.834
268.82
268.809
268.798
268.788
268.785
268.794
268.792
268.781
268.768
268.752
268.726
268.704
268.691
268.68
268.669
268.661
268.661
268.681
268.695
268.688
268.677
268.664
268.645
268.612
268.572
268.553
268.54
268.528
268.517
268.506
268.494
268.484
268.475
268.476
268.497
268.513
268.508
268.496
268.484
268.467
268.439
268.408
268.392
268.38
268.368
268.357
268.348
268.346
268.359
268.366
268.357
268.346
268.332
268.313
268.287
268.27
268.258
268.246
268.235
268.226
268.223
268.232
268.23
268.219
268.207
268.192
268.17
268.153
268.14
268.129
268.118
268.109
268.105
268.112
268.108
268.097
268.084
268.069
268.049
268.035
268.024
268.013
268.002
267.994
267.995
267.993
267.982
267.97
267.956
267.941
267.928
267.917
267.906
267.897
267.894
267.892
267.882
267.871
267.858
267.844
267.833
267.821
267.81
267.8
267.791
267.782
267.772
267.761
267.751
267.741
267.736
267.73
267.719
267.707
267.696
267.685
267.673
267.663
267.653
267.646
267.635
267.624
267.612
267.599
267.581
267.566
267.554
267.543
267.532
267.523
267.52
267.532
267.541
267.534
267.522
267.509
267.493
267.471
267.455
267.443
267.432
267.42
267.409
267.397
267.386
267.374
267.362
267.351
267.34
267.329
267.319
267.315
267.322
267.325
267.316
267.304
267.29
267.271
267.248
267.234
267.222
267.211
267.2
267.188
267.178
267.168
267.165
267.174
267.175
267.166
267.154
267.141
267.123
267.108
267.097
267.086
267.075
267.066
267.06
267.05
267.038
267.026
267.011
266.988
266.97
266.958
266.946
266.936
266.927
266.929
266.948
266.956
266.948
266.936
266.923
266.905
266.875
266.852
266.839
266.827
266.816
266.806
266.798
266.802
266.814
266.81
266.799
266.787
266.772
266.748
266.728
266.715
266.703
266.692
266.682
266.675
266.678
266.682
266.674
266.662
266.649
266.632
266.612
266.598
266.587
266.576
266.566
266.558
266.56
266.56
266.55
266.539
266.525
266.507
266.491
266.479
266.468
266.458
266.449
266.447
266.449
266.44
266.429
266.416
266.4
266.384
266.372
266.36
266.35
266.34
266.337
266.337
266.328
266.317
266.304
266.289
266.275
266.264
266.252
266.242
266.235
266.236
266.233
266.223
266.211
266.198
266.186
266.175
266.164
266.154
266.15
266.147
266.137
266.125
266.111
266.09
266.059
266.041
266.028
266.017
266.006
265.996
265.987
265.986
266.003
266.021
266.016
266.005
265.993
265.978
265.954
265.921
265.903
265.891
265.88
265.869
265.859
265.853
265.858
265.869
265.864
265.853
265.841
265.826
265.802
265.782
265.769
265.758
265.747
265.737
265.73
265.733
265.74
265.733
265.721
265.709
265.693
265.675
265.662
265.651
265.64
265.629
265.621
265.614
265.604
265.593
265.581
265.567
265.551
265.539
265.528
265.517
265.507
265.503
265.512
265.515
265.506
265.494
265.481
265.462
265.438
265.422
265.411
265.4
265.389
265.379
265.376
265.384
265.385
265.375
265.363
265.35
265.334
265.319
265.307
265.296
265.285
265.274
265.263
265.252
265.241
265.229
265.216
265.204
265.192
265.181
265.171
265.162
265.159
265.17
265.171
265.161
265.15
265.136
265.118
265.094
265.079
265.067
265.056
265.045
265.035
265.027
265.027
265.025
265.016
265.004
264.992
264.979
264.968
264.957
264.946
264.938
264.933
264.923
264.912
264.9
264.887
264.871
264.859
264.848
264.837
264.827
264.822
264.828
264.826
264.816
264.804
264.79
264.768
264.747
264.733
264.722
264.711
264.701
264.694
264.699
264.71
264.705
264.694
264.682
264.667
264.644
264.622
264.608
264.597
264.586
264.576
264.567
264.565
264.572
264.569
264.558
264.546
264.532
264.513
264.496
264.484
264.473
264.462
264.452
264.445
264.448
264.449
264.44
264.429
264.416
264.4
264.381
264.369
264.357
264.346
264.335
264.324
264.313
264.303
264.293
264.288
264.292
264.29
264.279
264.268
264.254
264.236
264.219
264.206
264.195
264.185
264.175
264.169
264.173
264.173
264.163
264.152
264.139
264.119
264.093
264.077
264.066
264.055
264.044
264.035
264.033
264.046
264.049
264.04
264.029
264.017
263.999
263.974
263.955
263.943
263.932
263.921
263.911
263.904
263.907
263.914
263.907
263.896
263.884
263.87
263.849
263.832
263.821
263.81
263.799
263.789
263.781
263.783
263.782
263.773
263.761
263.749
263.734
263.721
263.71
263.699
263.689
263.681
263.676
263.666
263.655
263.644
263.63
263.611
263.596
263.584
263.573
263.563
263.554
263.552
263.563
263.563
263.553
263.542
263.529
263.511
263.488
263.473
263.462
263.451
263.44
263.43
263.423
263.425
263.425
263.416
263.404
263.392
263.377
263.362
263.35
263.339
263.329
263.319
263.312
263.314
263.31
263.3
263.288
263.276
263.262
263.247
263.236
263.224
263.213
263.202
263.189
263.175
263.163
263.151
263.141
263.13
263.12
263.111
263.111
263.121
263.118
263.107
263.096
263.083
263.064
263.044
263.031
263.02
263.009
262.999
262.99
262.99
262.995
262.988
262.977
262.965
262.951
262.928
262.905
262.891
262.88
262.869
262.858
262.848
262.841
262.844
262.856
262.852
262.841
262.83
262.817
262.799
262.777
262.763
262.751
262.741
262.73
262.72
262.713
262.716
262.714
262.704
262.693
262.68
262.664
262.65
262.639
262.628
262.618
262.609
262.607
262.619
262.62
262.61
262.599
262.586
262.569
262.538
262.506
262.49
262.478
262.467
262.457
262.446
262.435
262.424
262.414
262.405
262.404
262.42
262.433
262.427
262.417
262.405
262.391
262.371
262.34
262.321
262.309
262.298
262.287
262.277
262.269
262.269
262.281
262.279
262.269
262.258
262.245
262.227
262.203
262.187
262.176
262.165
262.154
262.144
262.138
262.141
262.144
262.135
262.124
262.112
262.097
262.076
262.061
262.05
262.039
262.028
262.018
262.011
262.013
262.012
262.003
261.991
261.979
261.965
261.95
261.938
261.928
261.917
261.907
261.901
261.907
261.91
261.901
261.89
261.878
261.863
261.839
261.813
261.799
261.787
261.776
261.766
261.755
261.744
261.733
261.723
261.714
261.709
261.719
261.727
261.719
261.708
261.697
261.684
261.666
261.65
261.639
261.628
261.617
261.607
261.6
261.595
261.586
261.575
261.564
261.55
261.529
261.504
261.489
261.477
261.467
261.456
261.448
261.445
261.46
261.474
261.468
261.458
261.446
261.433
261.414
261.385
261.366
261.354
261.343
261.333
261.322
261.314
261.313
261.323
261.32
261.31
261.299
261.287
261.271
261.249
261.234
261.223
261.212
261.202
261.192
261.185
261.187
261.186
261.176
261.166
261.154
261.138
261.12
261.108
261.097
261.086
261.075
261.066
261.062
261.062
261.055
261.044
261.032
261.019
261.003
260.991
260.98
260.969
260.958
260.949
260.944
260.944
260.937
260.926
260.915
260.904
260.893
260.883
260.872
260.863
260.86
260.859
260.849
260.838
260.827
260.811
260.786
260.761
260.747
260.736
260.725
260.714
260.704
260.693
260.684
260.681
260.694
260.707
260.701
260.69
260.679
260.666
260.649
260.621
260.601
260.589
260.578
260.568
260.557
260.548
260.543
260.548
260.549
260.54
260.53
260.518
260.504
260.484
260.469
260.458
260.447
260.436
260.426
260.417
260.414
260.414
260.405
260.394
260.383
260.371
260.358
260.347
260.337
260.326
260.316
260.307
260.3
260.291
260.28
260.27
260.259
260.248
260.239
260.231
260.23
260.226
260.216
260.205
260.193
260.178
260.154
260.134
260.121
260.11
260.1
260.089
260.079
260.07
260.065
260.074
260.079
260.071
260.061
260.049
260.036
260.018
259.999
259.987
259.976
259.965
259.955
259.946
259.94
259.942
259.937
259.926
259.915
259.903
259.888
259.872
259.861
259.85
259.84
259.83
259.822
259.824
259.827
259.819
259.808
259.797
259.784
259.765
259.744
259.73
259.719
259.709
259.698
259.687
259.677
259.666
259.656
259.646
259.64
259.642
259.643
259.634
259.623
259.612
259.599
259.581
259.567
259.556
259.545
259.535
259.525
259.516
259.514
259.509
259.499
259.489
259.477
259.464
259.45
259.439
259.428
259.418
259.408
259.4
259.398
259.392
259.382
259.371
259.36
259.347
259.333
259.322
259.311
259.3
259.291
259.283
259.283
259.28
259.27
259.26
259.248
259.236
259.224
259.213
259.202
259.192
259.183
259.174
259.164
259.153
259.142
259.131
259.116
259.096
259.082
259.071
259.061
259.051
259.041
259.037
259.046
259.058
259.053
259.043
259.032
259.02
259.004
258.975
258.947
258.933
258.922
258.911
258.901
258.89
258.881
258.873
258.874
258.889
258.889
258.879
258.869
258.857
258.844
258.824
258.802
258.788
258.777
258.767
258.756
258.746
258.737
258.735
258.736
258.728
258.718
258.707
258.695
258.68
258.667
258.656
258.646
258.635
258.626
258.618
258.614
258.605
258.595
258.584
258.573
258.561
258.55
258.54
258.529
258.519
258.51
258.505
258.498
258.488
258.478
258.467
258.456
258.445
258.434
258.424
258.413
258.404
258.398
258.395
258.387
258.376
258.366
258.354
258.341
258.324
258.312
258.301
258.29
258.28
258.269
258.259
258.248
258.238
258.229
258.224
258.226
258.22
258.21
258.199
258.188
258.177
258.166
258.156
258.145
258.135
258.127
258.119
258.109
258.099
258.088
258.077
258.065
258.048
258.033
258.022
258.012
258.001
257.991
257.981
257.971
257.966
257.968
257.963
257.953
257.942
257.931
257.918
257.902
257.89
257.88
257.869
257.859
257.85
257.844
257.844
257.837
257.826
257.816
257.804
257.79
257.775
257.764
257.753
257.743
257.733
257.724
257.72
257.714
257.705
257.694
257.684
257.673
257.661
257.651
257.64
257.63
257.62
257.612
257.605
257.595
257.585
257.575
257.564
257.554
257.543
257.533
257.523
257.514
257.509
257.514
257.513
257.504
257.493
257.482
257.469
257.45
257.42
257.4
257.388
257.378
257.367
257.357
257.346
257.336
257.326
257.317
257.314
257.323
257.328
257.32
257.31
257.299
257.288
257.272
257.25
257.233
257.221
257.211
257.2
257.19
257.181
257.177
257.18
257.175
257.165
257.155
257.143
257.13
257.113
257.099
257.088
257.077
257.067
257.057
257.049
257.048
257.046
257.037
257.026
257.015
257.004
256.99
256.979
256.968
256.958
256.948
256.938
256.932
256.927
256.917
256.907
256.897
256.886
256.873
256.859
256.847
256.836
256.826
256.815
256.805
256.795
256.784
256.774
256.764
256.753
256.743
256.734
256.725
256.719
256.721
256.717
256.707
256.696
256.685
256.673
256.657
256.641
256.63
256.619
256.609
256.599
256.59
256.585
256.585
256.578
256.568
256.558
256.547
256.533
256.518
256.506
256.495
256.485
256.475
256.466
256.46
256.456
256.447
256.436
256.426
256.415
256.403
256.39
256.379
256.369
256.358
256.349
256.34
256.336
256.329
256.319
256.309
256.298
256.287
256.274
256.262
256.252
256.242
256.232
256.222
256.216
256.214
256.206
256.196
256.185
256.175
256.164
256.154
256.144
256.133
256.124
256.115
256.107
256.097
256.086
256.076
256.065
256.052
256.035
256.02
256.009
255.998
255.988
255.978
255.968
255.959
255.952
255.955
255.956
255.947
255.937
255.926
255.915
255.901
255.883
255.87
255.86
255.849
255.839
255.829
255.821
255.817
255.817
255.809
255.799
255.789
255.778
255.768
255.758
255.747
255.737
255.728
255.721
255.712
255.702
255.692
255.681
255.67
255.655
255.633
255.614
255.603
255.592
255.582
255.572
255.561
255.552
255.544
255.544
255.554
255.551
255.542
255.531
255.521
255.509
255.494
255.474
255.46
255.449
255.439
255.429
255.419
255.41
255.405
255.405
255.398
255.388
255.378
255.367
255.355
255.343
255.332
255.321
255.311
255.301
255.291
255.283
255.274
255.264
255.254
255.244
255.233
255.223
255.213
255.203
255.193
255.183
255.177
255.17
255.161
255.151
255.14
255.13
255.119
255.106
255.096
255.085
255.075
255.065
255.056
255.05
255.046
255.038
255.027
255.017
255.007
254.996
254.985
254.972
254.961
254.951
254.94
254.93
254.92
254.91
254.899
254.889
254.879
254.869
254.861
254.856
254.851
254.842
254.831
254.821
254.811
254.8
254.788
254.774
254.763
254.753
254.743
254.732
254.722
254.712
254.703
254.697
254.694
254.686
254.676
254.666
254.656
254.645
254.633
254.621
254.611