/*--------------------------------*- C++ -*----------------------------------*\
  =========                 |
  \\      /  F ield         | OpenFOAM: The Open Source CFD Toolbox
   \\    /   O peration     | Website:  https://openfoam.org
    \\  /    A nd           | Version:  9
     \\/     M anipulation  |
\*---------------------------------------------------------------------------*/
FoamFile
{
    format      ascii;
    class       volScalarField;
    location    "0.035";
    object      T;
}
// * * * * * * * * * * * * * * * * * * * * * * * * * * * * * * * * * * * * * //

dimensions      [0 0 0 1 0 0 0];

internalField   nonuniform List<scalar> 
100
(
283.942
282.681
281.913
281.09
280.283
279.473
278.665
277.858
277.052
276.246
275.441
274.637
273.834
273.032
272.23
271.429
270.629
269.829
269.03
268.232
267.435
266.638
265.841
265.045
264.25
263.454
262.659
261.864
261.068
260.271
259.472
258.673
257.871
257.067
256.262
255.457
254.652
253.852
253.059
252.286
251.54
250.857
250.252
249.778
249.458
249.273
249.177
249.115
249.051
248.973
248.911
248.87
248.847
248.837
248.829
248.816
248.79
248.758
248.728
248.709
248.71
248.709
248.705
248.689
248.661
248.632
248.607
248.59
248.579
248.567
248.557
248.54
248.519
248.497
248.475
248.453
248.433
248.41
248.398
248.398
248.396
248.386
248.353
248.281
248.233
248.227
248.324
248.897
249.728
250.082
250.222
250.355
250.694
251.329
251.78
251.857
251.804
251.77
251.767
251.79
)
;

boundaryField
{
    sides
    {
        type            zeroGradient;
    }
    empty
    {
        type            empty;
    }
}


// ************************************************************************* //
