/*--------------------------------*- C++ -*----------------------------------*\
  =========                 |
  \\      /  F ield         | OpenFOAM: The Open Source CFD Toolbox
   \\    /   O peration     | Website:  https://openfoam.org
    \\  /    A nd           | Version:  9
     \\/     M anipulation  |
\*---------------------------------------------------------------------------*/
FoamFile
{
    format      ascii;
    class       volVectorField;
    location    "0.035";
    object      U;
}
// * * * * * * * * * * * * * * * * * * * * * * * * * * * * * * * * * * * * * //

dimensions      [0 1 -1 0 0 0 0];

internalField   nonuniform List<vector> 
100
(
(198.607 0 0)
(202.309 0 0)
(204.466 0 0)
(206.796 0 0)
(209.084 0 0)
(211.382 0 0)
(213.678 0 0)
(215.975 0 0)
(218.271 0 0)
(220.567 0 0)
(222.863 0 0)
(225.159 0 0)
(227.455 0 0)
(229.751 0 0)
(232.046 0 0)
(234.341 0 0)
(236.636 0 0)
(238.931 0 0)
(241.225 0 0)
(243.519 0 0)
(245.812 0 0)
(248.105 0 0)
(250.397 0 0)
(252.689 0 0)
(254.979 0 0)
(257.269 0 0)
(259.558 0 0)
(261.846 0 0)
(264.133 0 0)
(266.419 0 0)
(268.703 0 0)
(270.986 0 0)
(273.267 0 0)
(275.546 0 0)
(277.822 0 0)
(280.095 0 0)
(282.363 0 0)
(284.621 0 0)
(286.859 0 0)
(289.06 0 0)
(291.173 0 0)
(293.145 0 0)
(294.853 0 0)
(296.178 0 0)
(297.047 0 0)
(297.505 0 0)
(297.702 0 0)
(297.793 0 0)
(297.89 0 0)
(298.028 0 0)
(298.115 0 0)
(298.107 0 0)
(298.034 0 0)
(297.931 0 0)
(297.818 0 0)
(297.718 0 0)
(297.654 0 0)
(297.604 0 0)
(297.545 0 0)
(297.46 0 0)
(297.348 0 0)
(297.213 0 0)
(297.074 0 0)
(296.968 0 0)
(296.9 0 0)
(296.843 0 0)
(296.783 0 0)
(296.708 0 0)
(296.609 0 0)
(296.488 0 0)
(296.357 0 0)
(296.248 0 0)
(296.163 0 0)
(296.095 0 0)
(296.036 0 0)
(295.973 0 0)
(295.881 0 0)
(295.738 0 0)
(295.576 0 0)
(295.455 0 0)
(295.37 0 0)
(295.302 0 0)
(295.228 0 0)
(295.148 0 0)
(295.137 0 0)
(295.073 0 0)
(294.7 0 0)
(292.792 0 0)
(289.992 0 0)
(288.433 0 0)
(287.802 0 0)
(287.337 0 0)
(286.247 0 0)
(284.198 0 0)
(282.87 0 0)
(282.123 0 0)
(281.776 0 0)
(281.707 0 0)
(281.71 0 0)
(281.708 0 0)
)
;

boundaryField
{
    sides
    {
        type            zeroGradient;
    }
    empty
    {
        type            empty;
    }
}


// ************************************************************************* //
