/*--------------------------------*- C++ -*----------------------------------*\
  =========                 |
  \\      /  F ield         | OpenFOAM: The Open Source CFD Toolbox
   \\    /   O peration     | Website:  https://openfoam.org
    \\  /    A nd           | Version:  9
     \\/     M anipulation  |
\*---------------------------------------------------------------------------*/
FoamFile
{
    format      ascii;
    class       volScalarField;
    location    "0.05";
    object      mag(U);
}
// * * * * * * * * * * * * * * * * * * * * * * * * * * * * * * * * * * * * * //

dimensions      [0 1 -1 0 0 0 0];

internalField   nonuniform List<scalar> 
10000
(
7.31412
7.33605
7.36313
7.38554
7.40517
7.42463
7.44458
7.46475
7.48492
7.50504
7.52514
7.54524
7.56534
7.58544
7.60554
7.62563
7.64572
7.66581
7.6859
7.70598
7.72606
7.74614
7.76622
7.78629
7.80636
7.82642
7.84649
7.86655
7.8866
7.90666
7.9267
7.94675
7.96679
7.98683
8.00686
8.02689
8.04692
8.06694
8.08695
8.10697
8.12698
8.14698
8.16698
8.18697
8.20696
8.22695
8.24693
8.2669
8.28687
8.30684
8.32679
8.34675
8.3667
8.38664
8.40658
8.42651
8.44643
8.46635
8.48627
8.50618
8.52608
8.54598
8.56587
8.58575
8.60563
8.62549
8.64536
8.66521
8.68506
8.70491
8.72474
8.74457
8.76439
8.78421
8.80401
8.82381
8.8436
8.86339
8.88316
8.90293
8.92269
8.94245
8.96219
8.98193
9.00166
9.02138
9.04109
9.06079
9.08049
9.10017
9.11985
9.13952
9.15918
9.17883
9.19847
9.2181
9.23772
9.25734
9.27694
9.29653
9.31612
9.33569
9.35525
9.37481
9.39435
9.41389
9.43341
9.45292
9.47243
9.49192
9.5114
9.53087
9.55033
9.56978
9.58922
9.60864
9.62806
9.64746
9.66686
9.68624
9.70561
9.72496
9.74431
9.76364
9.78297
9.80228
9.82157
9.84086
9.86013
9.87939
9.89864
9.91787
9.9371
9.95631
9.9755
9.99468
10.0139
10.033
10.0522
10.0713
10.0904
10.1095
10.1286
10.1477
10.1667
10.1858
10.2048
10.2238
10.2428
10.2618
10.2808
10.2997
10.3187
10.3376
10.3565
10.3754
10.3943
10.4132
10.432
10.4509
10.4697
10.4885
10.5073
10.526
10.5448
10.5635
10.5823
10.601
10.6197
10.6383
10.657
10.6756
10.6943
10.7129
10.7314
10.75
10.7686
10.7871
10.8056
10.8241
10.8426
10.8611
10.8795
10.8979
10.9164
10.9347
10.9531
10.9715
10.9898
11.0081
11.0264
11.0447
11.063
11.0812
11.0994
11.1176
11.1358
11.154
11.1721
11.1902
11.2083
11.2264
11.2445
11.2625
11.2805
11.2985
11.3165
11.3345
11.3524
11.3703
11.3882
11.4061
11.4239
11.4418
11.4596
11.4774
11.4951
11.5129
11.5306
11.5483
11.566
11.5836
11.6013
11.6189
11.6365
11.654
11.6716
11.6891
11.7066
11.724
11.7415
11.7589
11.7763
11.7937
11.8111
11.8284
11.8457
11.863
11.8802
11.8975
11.9147
11.9319
11.949
11.9662
11.9833
12.0004
12.0175
12.0345
12.0515
12.0685
12.0855
12.1024
12.1193
12.1362
12.1531
12.1699
12.1867
12.2035
12.2203
12.237
12.2537
12.2704
12.287
12.3037
12.3203
12.3369
12.3534
12.3699
12.3864
12.4029
12.4193
12.4358
12.4522
12.4685
12.4849
12.5012
12.5174
12.5337
12.5499
12.5661
12.5823
12.5985
12.6146
12.6307
12.6467
12.6628
12.6788
12.6947
12.7107
12.7266
12.7425
12.7584
12.7742
12.79
12.8058
12.8216
12.8373
12.853
12.8687
12.8843
12.8999
12.9155
12.9311
12.9466
12.9621
12.9776
12.993
13.0084
13.0238
13.0392
13.0545
13.0698
13.0851
13.1003
13.1155
13.1307
13.1459
13.161
13.1761
13.1912
13.2062
13.2212
13.2362
13.2512
13.2661
13.281
13.2959
13.3107
13.3255
13.3403
13.3551
13.3698
13.3845
13.3992
13.4138
13.4284
13.443
13.4576
13.4721
13.4866
13.5011
13.5155
13.5299
13.5443
13.5587
13.573
13.5873
13.6016
13.6159
13.6301
13.6443
13.6584
13.6726
13.6867
13.7008
13.7148
13.7289
13.7429
13.7568
13.7708
13.7847
13.7986
13.8125
13.8263
13.8401
13.8539
13.8677
13.8814
13.8951
13.9088
13.9224
13.9361
13.9497
13.9632
13.9768
13.9903
14.0038
14.0173
14.0308
14.0442
14.0576
14.071
14.0843
14.0976
14.1109
14.1242
14.1375
14.1507
14.1639
14.1771
14.1902
14.2034
14.2165
14.2296
14.2426
14.2557
14.2687
14.2817
14.2946
14.3076
14.3205
14.3334
14.3463
14.3592
14.372
14.3848
14.3976
14.4104
14.4232
14.4359
14.4486
14.4613
14.474
14.4866
14.4992
14.5119
14.5244
14.537
14.5496
14.5621
14.5746
14.5871
14.5996
14.612
14.6245
14.6369
14.6493
14.6617
14.674
14.6864
14.6987
14.711
14.7233
14.7356
14.7479
14.7601
14.7723
14.7845
14.7967
14.8089
14.8211
14.8332
14.8454
14.8575
14.8696
14.8817
14.8937
14.9058
14.9178
14.9299
14.9419
14.9539
14.9659
14.9778
14.9898
15.0017
15.0137
15.0256
15.0375
15.0494
15.0613
15.0731
15.085
15.0968
15.1087
15.1205
15.1323
15.1441
15.1559
15.1677
15.1794
15.1912
15.2029
15.2147
15.2264
15.2381
15.2498
15.2615
15.2732
15.2848
15.2965
15.3082
15.3198
15.3314
15.3431
15.3547
15.3663
15.3779
15.3895
15.4011
15.4127
15.4242
15.4358
15.4473
15.4589
15.4704
15.482
15.4935
15.505
15.5165
15.528
15.5395
15.551
15.5625
15.574
15.5854
15.5969
15.6084
15.6198
15.6313
15.6427
15.6541
15.6656
15.677
15.6884
15.6998
15.7113
15.7227
15.7341
15.7455
15.7569
15.7682
15.7796
15.791
15.8024
15.8138
15.8251
15.8365
15.8478
15.8592
15.8706
15.8819
15.8932
15.9046
15.9159
15.9273
15.9386
15.9499
15.9613
15.9726
15.9839
15.9952
16.0065
16.0178
16.0292
16.0405
16.0518
16.0631
16.0744
16.0857
16.097
16.1083
16.1196
16.1308
16.1421
16.1534
16.1647
16.176
16.1873
16.1985
16.2098
16.2211
16.2324
16.2437
16.2549
16.2662
16.2775
16.2887
16.3
16.3113
16.3225
16.3338
16.3451
16.3563
16.3676
16.3788
16.3901
16.4014
16.4126
16.4239
16.4351
16.4464
16.4576
16.4689
16.4802
16.4914
16.5027
16.5139
16.5252
16.5364
16.5477
16.5589
16.5702
16.5814
16.5927
16.6039
16.6152
16.6264
16.6377
16.6489
16.6602
16.6714
16.6827
16.6939
16.7052
16.7164
16.7277
16.7389
16.7502
16.7614
16.7727
16.7839
16.7952
16.8064
16.8177
16.8289
16.8402
16.8514
16.8627
16.8739
16.8852
16.8964
16.9077
16.9189
16.9302
16.9414
16.9527
16.964
16.9752
16.9865
16.9977
17.009
17.0202
17.0315
17.0427
17.054
17.0653
17.0765
17.0878
17.099
17.1103
17.1216
17.1328
17.1441
17.1553
17.1666
17.1779
17.1891
17.2004
17.2117
17.2229
17.2342
17.2455
17.2567
17.268
17.2793
17.2905
17.3018
17.3131
17.3243
17.3356
17.3469
17.3582
17.3694
17.3807
17.392
17.4032
17.4145
17.4258
17.4371
17.4484
17.4596
17.4709
17.4822
17.4935
17.5048
17.516
17.5273
17.5386
17.5499
17.5612
17.5724
17.5837
17.595
17.6063
17.6176
17.6289
17.6402
17.6515
17.6628
17.674
17.6853
17.6966
17.7079
17.7192
17.7305
17.7418
17.7531
17.7644
17.7757
17.787
17.7983
17.8096
17.8209
17.8322
17.8435
17.8548
17.8661
17.8774
17.8887
17.9
17.9113
17.9226
17.9339
17.9452
17.9565
17.9679
17.9792
17.9905
18.0018
18.0131
18.0244
18.0357
18.047
18.0584
18.0697
18.081
18.0923
18.1036
18.1149
18.1263
18.1376
18.1489
18.1602
18.1715
18.1829
18.1942
18.2055
18.2168
18.2282
18.2395
18.2508
18.2621
18.2735
18.2848
18.2961
18.3075
18.3188
18.3301
18.3414
18.3528
18.3641
18.3754
18.3868
18.3981
18.4095
18.4208
18.4321
18.4435
18.4548
18.4661
18.4775
18.4888
18.5002
18.5115
18.5228
18.5342
18.5455
18.5569
18.5682
18.5796
18.5909
18.6023
18.6136
18.625
18.6363
18.6477
18.659
18.6704
18.6817
18.6931
18.7044
18.7158
18.7271
18.7385
18.7498
18.7612
18.7725
18.7839
18.7953
18.8066
18.818
18.8293
18.8407
18.8521
18.8634
18.8748
18.8862
18.8975
18.9089
18.9202
18.9316
18.943
18.9543
18.9657
18.9771
18.9884
18.9998
19.0112
19.0226
19.0339
19.0453
19.0567
19.068
19.0794
19.0908
19.1022
19.1135
19.1249
19.1363
19.1477
19.1591
19.1704
19.1818
19.1932
19.2046
19.2159
19.2273
19.2387
19.2501
19.2615
19.2729
19.2842
19.2956
19.307
19.3184
19.3298
19.3412
19.3526
19.364
19.3753
19.3867
19.3981
19.4095
19.4209
19.4323
19.4437
19.4551
19.4665
19.4779
19.4893
19.5007
19.5121
19.5234
19.5348
19.5462
19.5576
19.569
19.5804
19.5918
19.6032
19.6146
19.626
19.6374
19.6488
19.6602
19.6717
19.6831
19.6945
19.7059
19.7173
19.7287
19.7401
19.7515
19.7629
19.7743
19.7857
19.7971
19.8085
19.8199
19.8314
19.8428
19.8542
19.8656
19.877
19.8884
19.8998
19.9113
19.9227
19.9341
19.9455
19.9569
19.9683
19.9798
19.9912
20.0026
20.014
20.0254
20.0369
20.0483
20.0597
20.0711
20.0825
20.094
20.1054
20.1168
20.1282
20.1397
20.1511
20.1625
20.1739
20.1854
20.1968
20.2082
20.2197
20.2311
20.2425
20.2539
20.2654
20.2768
20.2882
20.2997
20.3111
20.3225
20.334
20.3454
20.3568
20.3683
20.3797
20.3912
20.4026
20.414
20.4255
20.4369
20.4484
20.4598
20.4712
20.4827
20.4941
20.5056
20.517
20.5284
20.5399
20.5513
20.5628
20.5742
20.5857
20.5971
20.6086
20.62
20.6315
20.6429
20.6543
20.6658
20.6772
20.6887
20.7001
20.7116
20.7231
20.7345
20.746
20.7574
20.7689
20.7803
20.7918
20.8032
20.8147
20.8261
20.8376
20.8491
20.8605
20.872
20.8834
20.8949
20.9063
20.9178
20.9293
20.9407
20.9522
20.9636
20.9751
20.9866
20.998
21.0095
21.021
21.0324
21.0439
21.0554
21.0668
21.0783
21.0898
21.1012
21.1127
21.1242
21.1356
21.1471
21.1586
21.17
21.1815
21.193
21.2045
21.2159
21.2274
21.2389
21.2503
21.2618
21.2733
21.2848
21.2962
21.3077
21.3192
21.3307
21.3422
21.3536
21.3651
21.3766
21.3881
21.3995
21.411
21.4225
21.434
21.4455
21.457
21.4684
21.4799
21.4914
21.5029
21.5144
21.5259
21.5373
21.5488
21.5603
21.5718
21.5833
21.5948
21.6063
21.6178
21.6292
21.6407
21.6522
21.6637
21.6752
21.6867
21.6982
21.7097
21.7212
21.7327
21.7442
21.7556
21.7671
21.7786
21.7901
21.8016
21.8131
21.8246
21.8361
21.8476
21.8591
21.8706
21.8821
21.8936
21.9051
21.9166
21.9281
21.9396
21.9511
21.9626
21.9741
21.9856
21.9971
22.0086
22.0201
22.0316
22.0431
22.0546
22.0662
22.0777
22.0892
22.1007
22.1122
22.1237
22.1352
22.1467
22.1582
22.1697
22.1812
22.1927
22.2043
22.2158
22.2273
22.2388
22.2503
22.2618
22.2733
22.2848
22.2964
22.3079
22.3194
22.3309
22.3424
22.3539
22.3655
22.377
22.3885
22.4
22.4115
22.423
22.4346
22.4461
22.4576
22.4691
22.4806
22.4922
22.5037
22.5152
22.5267
22.5383
22.5498
22.5613
22.5728
22.5844
22.5959
22.6074
22.6189
22.6305
22.642
22.6535
22.665
22.6766
22.6881
22.6996
22.7112
22.7227
22.7342
22.7458
22.7573
22.7688
22.7803
22.7919
22.8034
22.8149
22.8265
22.838
22.8495
22.8611
22.8726
22.8842
22.8957
22.9072
22.9188
22.9303
22.9418
22.9534
22.9649
22.9765
22.988
22.9995
23.0111
23.0226
23.0342
23.0457
23.0572
23.0688
23.0803
23.0919
23.1034
23.1149
23.1265
23.138
23.1496
23.1611
23.1727
23.1842
23.1958
23.2073
23.2189
23.2304
23.242
23.2535
23.2651
23.2766
23.2882
23.2997
23.3113
23.3228
23.3344
23.3459
23.3575
23.369
23.3806
23.3921
23.4037
23.4152
23.4268
23.4383
23.4499
23.4614
23.473
23.4846
23.4961
23.5077
23.5192
23.5308
23.5423
23.5539
23.5655
23.577
23.5886
23.6001
23.6117
23.6233
23.6348
23.6464
23.6579
23.6695
23.6811
23.6926
23.7042
23.7158
23.7273
23.7389
23.7505
23.762
23.7736
23.7852
23.7967
23.8083
23.8199
23.8314
23.843
23.8546
23.8661
23.8777
23.8893
23.9008
23.9124
23.924
23.9356
23.9471
23.9587
23.9703
23.9818
23.9934
24.005
24.0166
24.0281
24.0397
24.0513
24.0629
24.0744
24.086
24.0976
24.1092
24.1207
24.1323
24.1439
24.1555
24.1671
24.1786
24.1902
24.2018
24.2134
24.225
24.2365
24.2481
24.2597
24.2713
24.2829
24.2944
24.306
24.3176
24.3292
24.3408
24.3524
24.3639
24.3755
24.3871
24.3987
24.4103
24.4219
24.4335
24.445
24.4566
24.4682
24.4798
24.4914
24.503
24.5146
24.5262
24.5378
24.5494
24.5609
24.5725
24.5841
24.5957
24.6073
24.6189
24.6305
24.6421
24.6537
24.6653
24.6769
24.6885
24.7001
24.7117
24.7233
24.7349
24.7464
24.758
24.7696
24.7812
24.7928
24.8044
24.816
24.8276
24.8392
24.8508
24.8624
24.874
24.8856
24.8972
24.9088
24.9204
24.932
24.9436
24.9553
24.9669
24.9785
24.9901
25.0017
25.0133
25.0249
25.0365
25.0481
25.0597
25.0713
25.0829
25.0945
25.1061
25.1177
25.1293
25.1409
25.1526
25.1642
25.1758
25.1874
25.199
25.2106
25.2222
25.2338
25.2454
25.2571
25.2687
25.2803
25.2919
25.3035
25.3151
25.3267
25.3384
25.35
25.3616
25.3732
25.3848
25.3964
25.408
25.4197
25.4313
25.4429
25.4545
25.4661
25.4778
25.4894
25.501
25.5126
25.5242
25.5359
25.5475
25.5591
25.5707
25.5823
25.594
25.6056
25.6172
25.6288
25.6405
25.6521
25.6637
25.6753
25.6869
25.6986
25.7102
25.7218
25.7335
25.7451
25.7567
25.7683
25.78
25.7916
25.8032
25.8148
25.8265
25.8381
25.8497
25.8614
25.873
25.8846
25.8963
25.9079
25.9195
25.9311
25.9428
25.9544
25.966
25.9777
25.9893
26.0009
26.0126
26.0242
26.0358
26.0475
26.0591
26.0708
26.0824
26.094
26.1057
26.1173
26.1289
26.1406
26.1522
26.1639
26.1755
26.1871
26.1988
26.2104
26.2221
26.2337
26.2453
26.257
26.2686
26.2803
26.2919
26.3035
26.3152
26.3268
26.3385
26.3501
26.3618
26.3734
26.385
26.3967
26.4083
26.42
26.4316
26.4433
26.4549
26.4666
26.4782
26.4899
26.5015
26.5132
26.5248
26.5365
26.5481
26.5598
26.5714
26.5831
26.5947
26.6064
26.618
26.6297
26.6413
26.653
26.6646
26.6763
26.6879
26.6996
26.7112
26.7229
26.7345
26.7462
26.7578
26.7695
26.7812
26.7928
26.8045
26.8161
26.8278
26.8394
26.8511
26.8628
26.8744
26.8861
26.8977
26.9094
26.9211
26.9327
26.9444
26.956
26.9677
26.9794
26.991
27.0027
27.0143
27.026
27.0377
27.0493
27.061
27.0727
27.0843
27.096
27.1076
27.1193
27.131
27.1426
27.1543
27.166
27.1776
27.1893
27.201
27.2126
27.2243
27.236
27.2476
27.2593
27.271
27.2826
27.2943
27.306
27.3177
27.3293
27.341
27.3527
27.3643
27.376
27.3877
27.3994
27.411
27.4227
27.4344
27.446
27.4577
27.4694
27.4811
27.4927
27.5044
27.5161
27.5278
27.5394
27.5511
27.5628
27.5745
27.5861
27.5978
27.6095
27.6212
27.6329
27.6445
27.6562
27.6679
27.6796
27.6912
27.7029
27.7146
27.7263
27.738
27.7497
27.7613
27.773
27.7847
27.7964
27.8081
27.8197
27.8314
27.8431
27.8548
27.8665
27.8782
27.8898
27.9015
27.9132
27.9249
27.9366
27.9483
27.96
27.9716
27.9833
27.995
28.0067
28.0184
28.0301
28.0418
28.0535
28.0651
28.0768
28.0885
28.1002
28.1119
28.1236
28.1353
28.147
28.1587
28.1704
28.1821
28.1937
28.2054
28.2171
28.2288
28.2405
28.2522
28.2639
28.2756
28.2873
28.299
28.3107
28.3224
28.3341
28.3458
28.3575
28.3692
28.3809
28.3926
28.4043
28.416
28.4276
28.4393
28.451
28.4627
28.4744
28.4861
28.4978
28.5095
28.5212
28.5329
28.5446
28.5563
28.568
28.5797
28.5915
28.6032
28.6149
28.6266
28.6383
28.65
28.6617
28.6734
28.6851
28.6968
28.7085
28.7202
28.7319
28.7436
28.7553
28.767
28.7787
28.7904
28.8021
28.8138
28.8256
28.8373
28.849
28.8607
28.8724
28.8841
28.8958
28.9075
28.9192
28.9309
28.9426
28.9544
28.9661
28.9778
28.9895
29.0012
29.0129
29.0246
29.0363
29.0481
29.0598
29.0715
29.0832
29.0949
29.1066
29.1183
29.1301
29.1418
29.1535
29.1652
29.1769
29.1886
29.2004
29.2121
29.2238
29.2355
29.2472
29.2589
29.2707
29.2824
29.2941
29.3058
29.3175
29.3293
29.341
29.3527
29.3644
29.3762
29.3879
29.3996
29.4113
29.423
29.4348
29.4465
29.4582
29.4699
29.4817
29.4934
29.5051
29.5168
29.5286
29.5403
29.552
29.5637
29.5755
29.5872
29.5989
29.6107
29.6224
29.6341
29.6458
29.6576
29.6693
29.681
29.6928
29.7045
29.7162
29.7279
29.7397
29.7514
29.7631
29.7749
29.7866
29.7983
29.8101
29.8218
29.8335
29.8453
29.857
29.8687
29.8805
29.8922
29.9039
29.9157
29.9274
29.9391
29.9509
29.9626
29.9744
29.9861
29.9978
30.0096
30.0213
30.033
30.0448
30.0565
30.0683
30.08
30.0917
30.1035
30.1152
30.127
30.1387
30.1504
30.1622
30.1739
30.1857
30.1974
30.2092
30.2209
30.2326
30.2444
30.2561
30.2679
30.2796
30.2914
30.3031
30.3148
30.3266
30.3383
30.3501
30.3618
30.3736
30.3853
30.3971
30.4088
30.4206
30.4323
30.4441
30.4558
30.4676
30.4793
30.4911
30.5028
30.5146
30.5263
30.5381
30.5498
30.5616
30.5733
30.5851
30.5968
30.6086
30.6203
30.6321
30.6438
30.6556
30.6673
30.6791
30.6908
30.7026
30.7144
30.7261
30.7379
30.7496
30.7614
30.7731
30.7849
30.7966
30.8084
30.8202
30.8319
30.8437
30.8554
30.8672
30.879
30.8907
30.9025
30.9142
30.926
30.9378
30.9495
30.9613
30.973
30.9848
30.9966
31.0083
31.0201
31.0318
31.0436
31.0554
31.0671
31.0789
31.0907
31.1024
31.1142
31.126
31.1377
31.1495
31.1613
31.173
31.1848
31.1965
31.2083
31.2201
31.2318
31.2436
31.2554
31.2672
31.2789
31.2907
31.3025
31.3142
31.326
31.3378
31.3495
31.3613
31.3731
31.3848
31.3966
31.4084
31.4202
31.4319
31.4437
31.4555
31.4673
31.479
31.4908
31.5026
31.5143
31.5261
31.5379
31.5497
31.5614
31.5732
31.585
31.5968
31.6085
31.6203
31.6321
31.6439
31.6556
31.6674
31.6792
31.691
31.7028
31.7145
31.7263
31.7381
31.7499
31.7617
31.7734
31.7852
31.797
31.8088
31.8206
31.8323
31.8441
31.8559
31.8677
31.8795
31.8912
31.903
31.9148
31.9266
31.9384
31.9502
31.9619
31.9737
31.9855
31.9973
32.0091
32.0209
32.0327
32.0444
32.0562
32.068
32.0798
32.0916
32.1034
32.1152
32.1269
32.1387
32.1505
32.1623
32.1741
32.1859
32.1977
32.2095
32.2213
32.233
32.2448
32.2566
32.2684
32.2802
32.292
32.3038
32.3156
32.3274
32.3392
32.351
32.3628
32.3745
32.3863
32.3981
32.4099
32.4217
32.4335
32.4453
32.4571
32.4689
32.4807
32.4925
32.5043
32.5161
32.5279
32.5397
32.5515
32.5633
32.5751
32.5869
32.5987
32.6105
32.6223
32.6341
32.6459
32.6577
32.6695
32.6813
32.6931
32.7049
32.7167
32.7285
32.7403
32.7521
32.7639
32.7757
32.7875
32.7993
32.8111
32.8229
32.8347
32.8465
32.8583
32.8701
32.8819
32.8937
32.9055
32.9173
32.9291
32.9409
32.9527
32.9646
32.9764
32.9882
33
33.0118
33.0236
33.0354
33.0472
33.059
33.0708
33.0826
33.0944
33.1062
33.1181
33.1299
33.1417
33.1535
33.1653
33.1771
33.1889
33.2007
33.2125
33.2244
33.2362
33.248
33.2598
33.2716
33.2834
33.2952
33.3071
33.3189
33.3307
33.3425
33.3543
33.3661
33.3779
33.3898
33.4016
33.4134
33.4252
33.437
33.4488
33.4607
33.4725
33.4843
33.4961
33.5079
33.5197
33.5316
33.5434
33.5552
33.567
33.5788
33.5907
33.6025
33.6143
33.6261
33.638
33.6498
33.6616
33.6734
33.6852
33.6971
33.7089
33.7207
33.7325
33.7444
33.7562
33.768
33.7798
33.7917
33.8035
33.8153
33.8271
33.839
33.8508
33.8626
33.8744
33.8863
33.8981
33.9099
33.9217
33.9336
33.9454
33.9572
33.9691
33.9809
33.9927
34.0045
34.0164
34.0282
34.04
34.0519
34.0637
34.0755
34.0873
34.0992
34.111
34.1228
34.1347
34.1465
34.1583
34.1702
34.182
34.1938
34.2057
34.2175
34.2293
34.2412
34.253
34.2648
34.2767
34.2885
34.3004
34.3122
34.324
34.3359
34.3477
34.3595
34.3714
34.3832
34.395
34.4069
34.4187
34.4306
34.4424
34.4542
34.4661
34.4779
34.4898
34.5016
34.5134
34.5253
34.5371
34.549
34.5608
34.5726
34.5845
34.5963
34.6082
34.62
34.6319
34.6437
34.6555
34.6674
34.6792
34.6911
34.7029
34.7148
34.7266
34.7385
34.7503
34.7621
34.774
34.7858
34.7977
34.8095
34.8214
34.8332
34.8451
34.8569
34.8688
34.8806
34.8925
34.9043
34.9162
34.928
34.9399
34.9517
34.9636
34.9754
34.9873
34.9991
35.011
35.0228
35.0347
35.0465
35.0584
35.0702
35.0821
35.0939
35.1058
35.1176
35.1295
35.1413
35.1532
35.165
35.1769
35.1887
35.2006
35.2125
35.2243
35.2362
35.248
35.2599
35.2717
35.2836
35.2955
35.3073
35.3192
35.331
35.3429
35.3547
35.3666
35.3785
35.3903
35.4022
35.414
35.4259
35.4378
35.4496
35.4615
35.4733
35.4852
35.4971
35.5089
35.5208
35.5326
35.5445
35.5564
35.5682
35.5801
35.592
35.6038
35.6157
35.6275
35.6394
35.6513
35.6631
35.675
35.6869
35.6987
35.7106
35.7225
35.7343
35.7462
35.7581
35.7699
35.7818
35.7937
35.8055
35.8174
35.8293
35.8411
35.853
35.8649
35.8767
35.8886
35.9005
35.9123
35.9242
35.9361
35.948
35.9598
35.9717
35.9836
35.9954
36.0073
36.0192
36.0311
36.0429
36.0548
36.0667
36.0786
36.0904
36.1023
36.1142
36.126
36.1379
36.1498
36.1617
36.1735
36.1854
36.1973
36.2092
36.2211
36.2329
36.2448
36.2567
36.2686
36.2804
36.2923
36.3042
36.3161
36.3279
36.3398
36.3517
36.3636
36.3755
36.3873
36.3992
36.4111
36.423
36.4349
36.4467
36.4586
36.4705
36.4824
36.4943
36.5062
36.518
36.5299
36.5418
36.5537
36.5656
36.5775
36.5893
36.6012
36.6131
36.625
36.6369
36.6488
36.6606
36.6725
36.6844
36.6963
36.7082
36.7201
36.732
36.7438
36.7557
36.7676
36.7795
36.7914
36.8033
36.8152
36.8271
36.839
36.8508
36.8627
36.8746
36.8865
36.8984
36.9103
36.9222
36.9341
36.946
36.9579
36.9697
36.9816
36.9935
37.0054
37.0173
37.0292
37.0411
37.053
37.0649
37.0768
37.0887
37.1006
37.1125
37.1244
37.1363
37.1481
37.16
37.1719
37.1838
37.1957
37.2076
37.2195
37.2314
37.2433
37.2552
37.2671
37.279
37.2909
37.3028
37.3147
37.3266
37.3385
37.3504
37.3623
37.3742
37.3861
37.398
37.4099
37.4218
37.4337
37.4456
37.4575
37.4694
37.4813
37.4932
37.5051
37.517
37.5289
37.5408
37.5527
37.5646
37.5765
37.5884
37.6003
37.6122
37.6242
37.6361
37.648
37.6599
37.6718
37.6837
37.6956
37.7075
37.7194
37.7313
37.7432
37.7551
37.767
37.7789
37.7908
37.8027
37.8147
37.8266
37.8385
37.8504
37.8623
37.8742
37.8861
37.898
37.9099
37.9218
37.9338
37.9457
37.9576
37.9695
37.9814
37.9933
38.0052
38.0171
38.029
38.041
38.0529
38.0648
38.0767
38.0886
38.1005
38.1124
38.1243
38.1363
38.1482
38.1601
38.172
38.1839
38.1958
38.2078
38.2197
38.2316
38.2435
38.2554
38.2673
38.2792
38.2912
38.3031
38.315
38.3269
38.3388
38.3508
38.3627
38.3746
38.3865
38.3984
38.4103
38.4223
38.4342
38.4461
38.458
38.4699
38.4819
38.4938
38.5057
38.5176
38.5295
38.5415
38.5534
38.5653
38.5772
38.5891
38.6011
38.613
38.6249
38.6368
38.6488
38.6607
38.6726
38.6845
38.6965
38.7084
38.7203
38.7322
38.7442
38.7561
38.768
38.7799
38.7919
38.8038
38.8157
38.8276
38.8396
38.8515
38.8634
38.8753
38.8873
38.8992
38.9111
38.923
38.935
38.9469
38.9588
38.9708
38.9827
38.9946
39.0065
39.0185
39.0304
39.0423
39.0543
39.0662
39.0781
39.0901
39.102
39.1139
39.1259
39.1378
39.1497
39.1616
39.1736
39.1855
39.1974
39.2094
39.2213
39.2332
39.2452
39.2571
39.2691
39.281
39.2929
39.3049
39.3168
39.3287
39.3407
39.3526
39.3645
39.3765
39.3884
39.4004
39.4123
39.4242
39.4362
39.4481
39.46
39.472
39.4839
39.4959
39.5078
39.5197
39.5317
39.5436
39.5556
39.5675
39.5795
39.5914
39.6033
39.6153
39.6272
39.6392
39.6511
39.6631
39.675
39.6869
39.6989
39.7108
39.7228
39.7347
39.7467
39.7586
39.7706
39.7825
39.7945
39.8064
39.8184
39.8303
39.8423
39.8542
39.8662
39.8781
39.8901
39.902
39.914
39.9259
39.9379
39.9498
39.9618
39.9737
39.9857
39.9976
40.0096
40.0215
40.0335
40.0454
40.0574
40.0693
40.0813
40.0932
40.1052
40.1171
40.1291
40.1411
40.153
40.165
40.1769
40.1889
40.2008
40.2128
40.2248
40.2367
40.2487
40.2606
40.2726
40.2845
40.2965
40.3085
40.3204
40.3324
40.3443
40.3563
40.3683
40.3802
40.3922
40.4041
40.4161
40.4281
40.44
40.452
40.464
40.4759
40.4879
40.4998
40.5118
40.5238
40.5357
40.5477
40.5597
40.5716
40.5836
40.5956
40.6075
40.6195
40.6315
40.6434
40.6554
40.6674
40.6793
40.6913
40.7033
40.7152
40.7272
40.7392
40.7511
40.7631
40.7751
40.787
40.799
40.811
40.8229
40.8349
40.8469
40.8588
40.8708
40.8828
40.8948
40.9067
40.9187
40.9307
40.9426
40.9546
40.9666
40.9786
40.9905
41.0025
41.0145
41.0265
41.0384
41.0504
41.0624
41.0743
41.0863
41.0983
41.1103
41.1222
41.1342
41.1462
41.1582
41.1701
41.1821
41.1941
41.2061
41.218
41.23
41.242
41.254
41.266
41.2779
41.2899
41.3019
41.3139
41.3258
41.3378
41.3498
41.3618
41.3738
41.3857
41.3977
41.4097
41.4217
41.4337
41.4456
41.4576
41.4696
41.4816
41.4936
41.5055
41.5175
41.5295
41.5415
41.5535
41.5655
41.5774
41.5894
41.6014
41.6134
41.6254
41.6374
41.6493
41.6613
41.6733
41.6853
41.6973
41.7093
41.7213
41.7332
41.7452
41.7572
41.7692
41.7812
41.7932
41.8052
41.8172
41.8291
41.8411
41.8531
41.8651
41.8771
41.8891
41.9011
41.9131
41.9251
41.937
41.949
41.961
41.973
41.985
41.997
42.009
42.021
42.033
42.045
42.057
42.0689
42.0809
42.0929
42.1049
42.1169
42.1289
42.1409
42.1529
42.1649
42.1769
42.1889
42.2009
42.2129
42.2249
42.2369
42.2489
42.2609
42.2729
42.2848
42.2968
42.3088
42.3208
42.3328
42.3448
42.3568
42.3688
42.3808
42.3928
42.4048
42.4168
42.4288
42.4408
42.4528
42.4648
42.4768
42.4888
42.5008
42.5128
42.5248
42.5368
42.5488
42.5608
42.5728
42.5848
42.5968
42.6088
42.6209
42.6329
42.6449
42.6569
42.6689
42.6809
42.6929
42.7049
42.7169
42.7289
42.7409
42.7529
42.7649
42.7769
42.7889
42.8009
42.8129
42.8249
42.837
42.849
42.861
42.873
42.885
42.897
42.909
42.921
42.933
42.945
42.957
42.9691
42.9811
42.9931
43.0051
43.0171
43.0291
43.0411
43.0531
43.0651
43.0772
43.0892
43.1012
43.1132
43.1252
43.1372
43.1492
43.1612
43.1733
43.1853
43.1973
43.2093
43.2213
43.2333
43.2453
43.2574
43.2694
43.2814
43.2934
43.3054
43.3174
43.3295
43.3415
43.3535
43.3655
43.3775
43.3896
43.4016
43.4136
43.4256
43.4376
43.4496
43.4617
43.4737
43.4857
43.4977
43.5097
43.5218
43.5338
43.5458
43.5578
43.5699
43.5819
43.5939
43.6059
43.6179
43.63
43.642
43.654
43.666
43.6781
43.6901
43.7021
43.7141
43.7262
43.7382
43.7502
43.7622
43.7743
43.7863
43.7983
43.8103
43.8224
43.8344
43.8464
43.8584
43.8705
43.8825
43.8945
43.9065
43.9186
43.9306
43.9426
43.9547
43.9667
43.9787
43.9907
44.0028
44.0148
44.0268
44.0389
44.0509
44.0629
44.075
44.087
44.099
44.1111
44.1231
44.1351
44.1471
44.1592
44.1712
44.1832
44.1953
44.2073
44.2193
44.2314
44.2434
44.2554
44.2675
44.2795
44.2916
44.3036
44.3156
44.3277
44.3397
44.3517
44.3638
44.3758
44.3878
44.3999
44.4119
44.4239
44.436
44.448
44.4601
44.4721
44.4841
44.4962
44.5082
44.5202
44.5323
44.5443
44.5564
44.5684
44.5804
44.5925
44.6045
44.6166
44.6286
44.6406
44.6527
44.6647
44.6768
44.6888
44.7009
44.7129
44.7249
44.737
44.749
44.7611
44.7731
44.7852
44.7972
44.8092
44.8213
44.8333
44.8454
44.8574
44.8695
44.8815
44.8936
44.9056
44.9176
44.9297
44.9417
44.9538
44.9658
44.9779
44.9899
45.002
45.014
45.0261
45.0381
45.0502
45.0622
45.0743
45.0863
45.0984
45.1104
45.1225
45.1345
45.1466
45.1586
45.1707
45.1827
45.1948
45.2068
45.2189
45.2309
45.243
45.255
45.2671
45.2791
45.2912
45.3032
45.3153
45.3273
45.3394
45.3514
45.3635
45.3755
45.3876
45.3996
45.4117
45.4238
45.4358
45.4479
45.4599
45.472
45.484
45.4961
45.5081
45.5202
45.5323
45.5443
45.5564
45.5684
45.5805
45.5925
45.6046
45.6167
45.6287
45.6408
45.6528
45.6649
45.677
45.689
45.7011
45.7131
45.7252
45.7373
45.7493
45.7614
45.7734
45.7855
45.7976
45.8096
45.8217
45.8337
45.8458
45.8579
45.8699
45.882
45.8941
45.9061
45.9182
45.9303
45.9423
45.9544
45.9664
45.9785
45.9906
46.0026
46.0147
46.0268
46.0388
46.0509
46.063
46.075
46.0871
46.0992
46.1112
46.1233
46.1354
46.1474
46.1595
46.1716
46.1836
46.1957
46.2078
46.2199
46.2319
46.244
46.2561
46.2681
46.2802
46.2923
46.3043
46.3164
46.3285
46.3406
46.3526
46.3647
46.3768
46.3888
46.4009
46.413
46.4251
46.4371
46.4492
46.4613
46.4734
46.4854
46.4975
46.5096
46.5217
46.5337
46.5458
46.5579
46.57
46.582
46.5941
46.6062
46.6183
46.6303
46.6424
46.6545
46.6666
46.6786
46.6907
46.7028
46.7149
46.727
46.739
46.7511
46.7632
46.7753
46.7874
46.7994
46.8115
46.8236
46.8357
46.8478
46.8598
46.8719
46.884
46.8961
46.9082
46.9202
46.9323
46.9444
46.9565
46.9686
46.9807
46.9927
47.0048
47.0169
47.029
47.0411
47.0532
47.0652
47.0773
47.0894
47.1015
47.1136
47.1257
47.1378
47.1498
47.1619
47.174
47.1861
47.1982
47.2103
47.2224
47.2345
47.2465
47.2586
47.2707
47.2828
47.2949
47.307
47.3191
47.3312
47.3432
47.3553
47.3674
47.3795
47.3916
47.4037
47.4158
47.4279
47.44
47.4521
47.4642
47.4762
47.4883
47.5004
47.5125
47.5246
47.5367
47.5488
47.5609
47.573
47.5851
47.5972
47.6093
47.6214
47.6335
47.6456
47.6577
47.6697
47.6818
47.6939
47.706
47.7181
47.7302
47.7423
47.7544
47.7665
47.7786
47.7907
47.8028
47.8149
47.827
47.8391
47.8512
47.8633
47.8754
47.8875
47.8996
47.9117
47.9238
47.9359
47.948
47.9601
47.9722
47.9843
47.9964
48.0085
48.0206
48.0327
48.0448
48.0569
48.069
48.0811
48.0932
48.1053
48.1174
48.1295
48.1416
48.1537
48.1658
48.1779
48.1901
48.2022
48.2143
48.2264
48.2385
48.2506
48.2627
48.2748
48.2869
48.299
48.3111
48.3232
48.3353
48.3474
48.3595
48.3716
48.3838
48.3959
48.408
48.4201
48.4322
48.4443
48.4564
48.4685
48.4806
48.4927
48.5049
48.517
48.5291
48.5412
48.5533
48.5654
48.5775
48.5896
48.6017
48.6139
48.626
48.6381
48.6502
48.6623
48.6744
48.6865
48.6986
48.7108
48.7229
48.735
48.7471
48.7592
48.7713
48.7834
48.7956
48.8077
48.8198
48.8319
48.844
48.8561
48.8683
48.8804
48.8925
48.9046
48.9167
48.9288
48.941
48.9531
48.9652
48.9773
48.9894
49.0016
49.0137
49.0258
49.0379
49.05
49.0622
49.0743
49.0864
49.0985
49.1106
49.1228
49.1349
49.147
49.1591
49.1712
49.1834
49.1955
49.2076
49.2197
49.2319
49.244
49.2561
49.2682
49.2804
49.2925
49.3046
49.3167
49.3289
49.341
49.3531
49.3652
49.3774
49.3895
49.4016
49.4137
49.4259
49.438
49.4501
49.4622
49.4744
49.4865
49.4986
49.5108
49.5229
49.535
49.5471
49.5593
49.5714
49.5835
49.5957
49.6078
49.6199
49.632
49.6442
49.6563
49.6684
49.6806
49.6927
49.7048
49.717
49.7291
49.7412
49.7534
49.7655
49.7776
49.7898
49.8019
49.814
49.8262
49.8383
49.8504
49.8626
49.8747
49.8868
49.899
49.9111
49.9232
49.9354
49.9475
49.9596
49.9718
49.9839
49.9961
50.0082
50.0203
50.0325
50.0446
50.0567
50.0689
50.081
50.0932
50.1053
50.1174
50.1296
50.1417
50.1538
50.166
50.1781
50.1903
50.2024
50.2145
50.2267
50.2388
50.251
50.2631
50.2753
50.2874
50.2995
50.3117
50.3238
50.336
50.3481
50.3602
50.3724
50.3845
50.3967
50.4088
50.421
50.4331
50.4453
50.4574
50.4695
50.4817
50.4938
50.506
50.5181
50.5303
50.5424
50.5546
50.5667
50.5789
50.591
50.6032
50.6153
50.6274
50.6396
50.6517
50.6639
50.676
50.6882
50.7003
50.7125
50.7246
50.7368
50.7489
50.7611
50.7732
50.7854
50.7975
50.8097
50.8218
50.834
50.8461
50.8583
50.8704
50.8826
50.8948
50.9069
50.9191
50.9312
50.9434
50.9555
50.9677
50.9798
50.992
51.0041
51.0163
51.0284
51.0406
51.0528
51.0649
51.0771
51.0892
51.1014
51.1135
51.1257
51.1378
51.15
51.1622
51.1743
51.1865
51.1986
51.2108
51.2229
51.2351
51.2473
51.2594
51.2716
51.2837
51.2959
51.3081
51.3202
51.3324
51.3445
51.3567
51.3689
51.381
51.3932
51.4053
51.4175
51.4297
51.4418
51.454
51.4662
51.4783
51.4905
51.5026
51.5148
51.527
51.5391
51.5513
51.5635
51.5756
51.5878
51.6
51.6121
51.6243
51.6364
51.6486
51.6608
51.6729
51.6851
51.6973
51.7094
51.7216
51.7338
51.7459
51.7581
51.7703
51.7824
51.7946
51.8068
51.819
51.8311
51.8433
51.8555
51.8676
51.8798
51.892
51.9041
51.9163
51.9285
51.9406
51.9528
51.965
51.9772
51.9893
52.0015
52.0137
52.0258
52.038
52.0502
52.0624
52.0745
52.0867
52.0989
52.1111
52.1232
52.1354
52.1476
52.1598
52.1719
52.1841
52.1963
52.2085
52.2206
52.2328
52.245
52.2572
52.2693
52.2815
52.2937
52.3059
52.318
52.3302
52.3424
52.3546
52.3667
52.3789
52.3911
52.4033
52.4155
52.4276
52.4398
52.452
52.4642
52.4764
52.4885
52.5007
52.5129
52.5251
52.5373
52.5494
52.5616
52.5738
52.586
52.5982
52.6103
52.6225
52.6347
52.6469
52.6591
52.6713
52.6834
52.6956
52.7078
52.72
52.7322
52.7444
52.7565
52.7687
52.7809
52.7931
52.8053
52.8175
52.8297
52.8418
52.854
52.8662
52.8784
52.8906
52.9028
52.915
52.9272
52.9393
52.9515
52.9637
52.9759
52.9881
53.0003
53.0125
53.0247
53.0368
53.049
53.0612
53.0734
53.0856
53.0978
53.11
53.1222
53.1344
53.1466
53.1588
53.1709
53.1831
53.1953
53.2075
53.2197
53.2319
53.2441
53.2563
53.2685
53.2807
53.2929
53.3051
53.3173
53.3295
53.3417
53.3538
53.366
53.3782
53.3904
53.4026
53.4148
53.427