/*--------------------------------*- C++ -*----------------------------------*\
  =========                 |
  \\      /  F ield         | OpenFOAM: The Open Source CFD Toolbox
   \\    /   O peration     | Website:  https://openfoam.org
    \\  /    A nd           | Version:  9
     \\/     M anipulation  |
\*---------------------------------------------------------------------------*/
FoamFile
{
    format      ascii;
    class       volScalarField;
    location    "0.05";
    object      rho;
}
// * * * * * * * * * * * * * * * * * * * * * * * * * * * * * * * * * * * * * //

dimensions      [1 -3 0 0 0 0 0];

internalField   nonuniform List<scalar> 
10000
(
0.160978
0.160977
0.160975
0.160972
0.16097
0.160968
0.160966
0.160964
0.160962
0.160959
0.160957
0.160955
0.160953
0.160951
0.160948
0.160946
0.160944
0.160942
0.16094
0.160938
0.160935
0.160933
0.160931
0.160929
0.160927
0.160925
0.160923
0.160921
0.160919
0.160916
0.160914
0.160912
0.16091
0.160908
0.160906
0.160904
0.160902
0.1609
0.160898
0.160896
0.160894
0.160892
0.16089
0.160889
0.160887
0.160885
0.160883
0.160881
0.160879
0.160877
0.160875
0.160873
0.160872
0.16087
0.160868
0.160866
0.160864
0.160863
0.160861
0.160859
0.160857
0.160856
0.160854
0.160852
0.16085
0.160849
0.160847
0.160845
0.160844
0.160842
0.16084
0.160839
0.160837
0.160836
0.160834
0.160832
0.160831
0.160829
0.160828
0.160826
0.160825
0.160823
0.160822
0.16082
0.160819
0.160817
0.160816
0.160814
0.160813
0.160811
0.16081
0.160809
0.160807
0.160806
0.160804
0.160803
0.160802
0.1608
0.160799
0.160798
0.160797
0.160795
0.160794
0.160793
0.160792
0.16079
0.160789
0.160788
0.160787
0.160786
0.160784
0.160783
0.160782
0.160781
0.16078
0.160779
0.160778
0.160777
0.160776
0.160775
0.160774
0.160773
0.160772
0.16077
0.160769
0.160769
0.160768
0.160767
0.160766
0.160765
0.160764
0.160763
0.160762
0.160761
0.16076
0.16076
0.160759
0.160758
0.160757
0.160757
0.160756
0.160755
0.160754
0.160754
0.160753
0.160752
0.160751
0.160751
0.16075
0.16075
0.160749
0.160748
0.160748
0.160747
0.160747
0.160746
0.160746
0.160745
0.160745
0.160744
0.160744
0.160743
0.160743
0.160742
0.160742
0.160742
0.160741
0.160741
0.160741
0.16074
0.16074
0.16074
0.160739
0.160739
0.160739
0.160738
0.160738
0.160738
0.160738
0.160738
0.160738
0.160738
0.160738
0.160738
0.160738
0.160738
0.160738
0.160737
0.160737
0.160737
0.160737
0.160737
0.160737
0.160737
0.160737
0.160737
0.160738
0.160738
0.160738
0.160738
0.160739
0.160739
0.160739
0.16074
0.16074
0.16074
0.16074
0.160741
0.160741
0.160741
0.160741
0.160742
0.160742
0.160742
0.160743
0.160743
0.160744
0.160744
0.160745
0.160745
0.160746
0.160747
0.160748
0.160749
0.16075
0.16075
0.160751
0.160752
0.160753
0.160754
0.160755
0.160755
0.160756
0.160757
0.160757
0.160758
0.160758
0.160759
0.16076
0.16076
0.160761
0.160762
0.160763
0.160763
0.160764
0.160765
0.160767
0.160768
0.160769
0.16077
0.160772
0.160774
0.160775
0.160777
0.160779
0.160781
0.160783
0.160785
0.160788
0.16079
0.160793
0.160795
0.160798
0.1608
0.160803
0.160806
0.160808
0.160811
0.160814
0.160817
0.16082
0.160822
0.160825
0.160828
0.160831
0.160835
0.160838
0.160841
0.160844
0.160847
0.160851
0.160854
0.160857
0.160861
0.160864
0.160867
0.160871
0.160874
0.160878
0.160881
0.160885
0.160888
0.160892
0.160895
0.160899
0.160902
0.160906
0.16091
0.160913
0.160917
0.160921
0.160924
0.160928
0.160932
0.160936
0.160939
0.160943
0.160947
0.160951
0.160955
0.160959
0.160963
0.160967
0.16097
0.160974
0.160978
0.160982
0.160986
0.160991
0.160995
0.160999
0.161003
0.161007
0.161011
0.161015
0.161019
0.161024
0.161028
0.161032
0.161036
0.161041
0.161045
0.161049
0.161054
0.161058
0.161063
0.161067
0.161071
0.161076
0.16108
0.161085
0.161089
0.161094
0.161098
0.161103
0.161108
0.161112
0.161117
0.161122
0.161126
0.161131
0.161136
0.16114
0.161145
0.16115
0.161155
0.16116
0.161164
0.161169
0.161174
0.161179
0.161184
0.161189
0.161194
0.161199
0.161204
0.161209
0.161214
0.161219
0.161224
0.161229
0.161234
0.161239
0.161244
0.161249
0.161254
0.16126
0.161265
0.16127
0.161275
0.161281
0.161286
0.161291
0.161296
0.161302
0.161307
0.161312
0.161318
0.161323
0.161329
0.161334
0.16134
0.161345
0.16135
0.161356
0.161361
0.161367
0.161373
0.161378
0.161384
0.161389
0.161395
0.1614
0.161406
0.161412
0.161417
0.161423
0.161429
0.161435
0.16144
0.161446
0.161452
0.161458
0.161463
0.161469
0.161475
0.161481
0.161487
0.161492
0.161498
0.161504
0.16151
0.161516
0.161522
0.161528
0.161534
0.16154
0.161546
0.161552
0.161558
0.161564
0.16157
0.161576
0.161582
0.161588
0.161594
0.1616
0.161606
0.161612
0.161619
0.161625
0.161631
0.161637
0.161643
0.161649
0.161656
0.161662
0.161668
0.161674
0.161681
0.161687
0.161693
0.161699
0.161706
0.161712
0.161718
0.161725
0.161731
0.161737
0.161744
0.16175
0.161756
0.161763
0.161769
0.161775
0.161782
0.161788
0.161795
0.161801
0.161808
0.161814
0.16182
0.161827
0.161833
0.16184
0.161846
0.161853
0.161859
0.161866
0.161872
0.161879
0.161885
0.161892
0.161899
0.161905
0.161912
0.161918
0.161925
0.161931
0.161938
0.161945
0.161951
0.161958
0.161964
0.161971
0.161978
0.161984
0.161991
0.161998
0.162004
0.162011
0.162018
0.162024
0.162031
0.162038
0.162044
0.162051
0.162058
0.162064
0.162071
0.162078
0.162085
0.162091
0.162098
0.162105
0.162112
0.162118
0.162125
0.162132
0.162139
0.162145
0.162152
0.162159
0.162166
0.162172
0.162179
0.162186
0.162193
0.1622
0.162206
0.162213
0.16222
0.162227
0.162234
0.16224
0.162247
0.162254
0.162261
0.162268
0.162275
0.162281
0.162288
0.162295
0.162302
0.162309
0.162316
0.162323
0.162329
0.162336
0.162343
0.16235
0.162357
0.162364
0.162371
0.162377
0.162384
0.162391
0.162398
0.162405
0.162412
0.162419
0.162426
0.162433
0.16244
0.162446
0.162453
0.16246
0.162467
0.162474
0.162481
0.162488
0.162495
0.162502
0.162509
0.162516
0.162523
0.16253
0.162536
0.162543
0.16255
0.162557
0.162564
0.162571
0.162578
0.162585
0.162592
0.162599
0.162606
0.162613
0.16262
0.162627
0.162634
0.162641
0.162648
0.162655
0.162662
0.162669
0.162676
0.162683
0.162689
0.162696
0.162703
0.16271
0.162717
0.162724
0.162731
0.162738
0.162745
0.162752
0.162759
0.162766
0.162773
0.16278
0.162787
0.162794
0.162801
0.162808
0.162815
0.162822
0.162829
0.162836
0.162843
0.16285
0.162857
0.162864
0.162871
0.162878
0.162885
0.162892
0.162899
0.162906
0.162913
0.16292
0.162927
0.162934
0.162941
0.162948
0.162955
0.162962
0.162969
0.162976
0.162983
0.162991
0.162998
0.163005
0.163012
0.163019
0.163026
0.163033
0.16304
0.163047
0.163054
0.163061
0.163068
0.163075
0.163082
0.163089
0.163096
0.163103
0.16311
0.163117
0.163124
0.163131
0.163138
0.163145
0.163152
0.163159
0.163166
0.163173
0.163181
0.163188
0.163195
0.163202
0.163209
0.163216
0.163223
0.16323
0.163237
0.163244
0.163251
0.163258
0.163265
0.163272
0.163279
0.163286
0.163293
0.1633
0.163308
0.163315
0.163322
0.163329
0.163336
0.163343
0.16335
0.163357
0.163364
0.163371
0.163378
0.163385
0.163392
0.163399
0.163406
0.163414
0.163421
0.163428
0.163435
0.163442
0.163449
0.163456
0.163463
0.16347
0.163477
0.163484
0.163491
0.163499
0.163506
0.163513
0.16352
0.163527
0.163534
0.163541
0.163548
0.163555
0.163562
0.163569
0.163576
0.163584
0.163591
0.163598
0.163605
0.163612
0.163619
0.163626
0.163633
0.16364
0.163647
0.163655
0.163662
0.163669
0.163676
0.163683
0.16369
0.163697
0.163704
0.163711
0.163718
0.163726
0.163733
0.16374
0.163747
0.163754
0.163761
0.163768
0.163775
0.163782
0.16379
0.163797
0.163804
0.163811
0.163818
0.163825
0.163832
0.163839
0.163846
0.163854
0.163861
0.163868
0.163875
0.163882
0.163889
0.163896
0.163903
0.163911
0.163918
0.163925
0.163932
0.163939
0.163946
0.163953
0.16396
0.163968
0.163975
0.163982
0.163989
0.163996
0.164003
0.16401
0.164018
0.164025
0.164032
0.164039
0.164046
0.164053
0.16406
0.164067
0.164075
0.164082
0.164089
0.164096
0.164103
0.16411
0.164117
0.164125
0.164132
0.164139
0.164146
0.164153
0.16416
0.164167
0.164175
0.164182
0.164189
0.164196
0.164203
0.16421
0.164218
0.164225
0.164232
0.164239
0.164246
0.164253
0.16426
0.164268
0.164275
0.164282
0.164289
0.164296
0.164303
0.164311
0.164318
0.164325
0.164332
0.164339
0.164346
0.164354
0.164361
0.164368
0.164375
0.164382
0.164389
0.164397
0.164404
0.164411
0.164418
0.164425
0.164432
0.16444
0.164447
0.164454
0.164461
0.164468
0.164475
0.164483
0.16449
0.164497
0.164504
0.164511
0.164518
0.164526
0.164533
0.16454
0.164547
0.164554
0.164562
0.164569
0.164576
0.164583
0.16459
0.164597
0.164605
0.164612
0.164619
0.164626
0.164633
0.164641
0.164648
0.164655
0.164662
0.164669
0.164677
0.164684
0.164691
0.164698
0.164705
0.164713
0.16472
0.164727
0.164734
0.164741
0.164749
0.164756
0.164763
0.16477
0.164777
0.164785
0.164792
0.164799
0.164806
0.164813
0.164821
0.164828
0.164835
0.164842
0.164849
0.164857
0.164864
0.164871
0.164878
0.164885
0.164893
0.1649
0.164907
0.164914
0.164921
0.164929
0.164936
0.164943
0.16495
0.164958
0.164965
0.164972
0.164979
0.164986
0.164994
0.165001
0.165008
0.165015
0.165023
0.16503
0.165037
0.165044
0.165051
0.165059
0.165066
0.165073
0.16508
0.165088
0.165095
0.165102
0.165109
0.165116
0.165124
0.165131
0.165138
0.165145
0.165153
0.16516
0.165167
0.165174
0.165182
0.165189
0.165196
0.165203
0.16521
0.165218
0.165225
0.165232
0.165239
0.165247
0.165254
0.165261
0.165268
0.165276
0.165283
0.16529
0.165297
0.165305
0.165312
0.165319
0.165326
0.165334
0.165341
0.165348
0.165355
0.165363
0.16537
0.165377
0.165384
0.165392
0.165399
0.165406
0.165413
0.165421
0.165428
0.165435
0.165442
0.16545
0.165457
0.165464
0.165471
0.165479
0.165486
0.165493
0.1655
0.165508
0.165515
0.165522
0.165529
0.165537
0.165544
0.165551
0.165559
0.165566
0.165573
0.16558
0.165588
0.165595
0.165602
0.165609
0.165617
0.165624
0.165631
0.165638
0.165646
0.165653
0.16566
0.165668
0.165675
0.165682
0.165689
0.165697
0.165704
0.165711
0.165718
0.165726
0.165733
0.16574
0.165748
0.165755
0.165762
0.165769
0.165777
0.165784
0.165791
0.165799
0.165806
0.165813
0.16582
0.165828
0.165835
0.165842
0.16585
0.165857
0.165864
0.165871
0.165879
0.165886
0.165893
0.165901
0.165908
0.165915
0.165922
0.16593
0.165937
0.165944
0.165952
0.165959
0.165966
0.165973
0.165981
0.165988
0.165995
0.166003
0.16601
0.166017
0.166025
0.166032
0.166039
0.166046
0.166054
0.166061
0.166068
0.166076
0.166083
0.16609
0.166098
0.166105
0.166112
0.16612
0.166127
0.166134
0.166141
0.166149
0.166156
0.166163
0.166171
0.166178
0.166185
0.166193
0.1662
0.166207
0.166215
0.166222
0.166229
0.166236
0.166244
0.166251
0.166258
0.166266
0.166273
0.16628
0.166288
0.166295
0.166302
0.16631
0.166317
0.166324
0.166332
0.166339
0.166346
0.166354
0.166361
0.166368
0.166376
0.166383
0.16639
0.166398
0.166405
0.166412
0.16642
0.166427
0.166434
0.166442
0.166449
0.166456
0.166464
0.166471
0.166478
0.166485
0.166493
0.1665
0.166507
0.166515
0.166522
0.16653
0.166537
0.166544
0.166552
0.166559
0.166566
0.166574
0.166581
0.166588
0.166596
0.166603
0.16661
0.166618
0.166625
0.166632
0.16664
0.166647
0.166654
0.166662
0.166669
0.166676
0.166684
0.166691
0.166698
0.166706
0.166713
0.16672
0.166728
0.166735
0.166742
0.16675
0.166757
0.166765
0.166772
0.166779
0.166787
0.166794
0.166801
0.166809
0.166816
0.166823
0.166831
0.166838
0.166845
0.166853
0.16686
0.166868
0.166875
0.166882
0.16689
0.166897
0.166904
0.166912
0.166919
0.166926
0.166934
0.166941
0.166949
0.166956
0.166963
0.166971
0.166978
0.166985
0.166993
0.167
0.167007
0.167015
0.167022
0.16703
0.167037
0.167044
0.167052
0.167059
0.167066
0.167074
0.167081
0.167089
0.167096
0.167103
0.167111
0.167118
0.167125
0.167133
0.16714
0.167148
0.167155
0.167162
0.16717
0.167177
0.167184
0.167192
0.167199
0.167207
0.167214
0.167221
0.167229
0.167236
0.167244
0.167251
0.167258
0.167266
0.167273
0.16728
0.167288
0.167295
0.167303
0.16731
0.167317
0.167325
0.167332
0.16734
0.167347
0.167354
0.167362
0.167369
0.167377
0.167384
0.167391
0.167399
0.167406
0.167414
0.167421
0.167428
0.167436
0.167443
0.167451
0.167458
0.167465
0.167473
0.16748
0.167488
0.167495
0.167502
0.16751
0.167517
0.167525
0.167532
0.167539
0.167547
0.167554
0.167562
0.167569
0.167576
0.167584
0.167591
0.167599
0.167606
0.167613
0.167621
0.167628
0.167636
0.167643
0.167651
0.167658
0.167665
0.167673
0.16768
0.167688
0.167695
0.167702
0.16771
0.167717
0.167725
0.167732
0.16774
0.167747
0.167754
0.167762
0.167769
0.167777
0.167784
0.167791
0.167799
0.167806
0.167814
0.167821
0.167829
0.167836
0.167843
0.167851
0.167858
0.167866
0.167873
0.167881
0.167888
0.167895
0.167903
0.16791
0.167918
0.167925
0.167933
0.16794
0.167947
0.167955
0.167962
0.16797
0.167977
0.167985
0.167992
0.167999
0.168007
0.168014
0.168022
0.168029
0.168037
0.168044
0.168052
0.168059
0.168066
0.168074
0.168081
0.168089
0.168096
0.168104
0.168111
0.168119
0.168126
0.168133
0.168141
0.168148
0.168156
0.168163
0.168171
0.168178
0.168186
0.168193
0.1682
0.168208
0.168215
0.168223
0.16823
0.168238
0.168245
0.168253
0.16826
0.168268
0.168275
0.168282
0.16829
0.168297
0.168305
0.168312
0.16832
0.168327
0.168335
0.168342
0.16835
0.168357
0.168364
0.168372
0.168379
0.168387
0.168394
0.168402
0.168409
0.168417
0.168424
0.168432
0.168439
0.168447
0.168454
0.168461
0.168469
0.168476
0.168484
0.168491
0.168499
0.168506
0.168514
0.168521
0.168529
0.168536
0.168544
0.168551
0.168559
0.168566
0.168574
0.168581
0.168588
0.168596
0.168603
0.168611
0.168618
0.168626
0.168633
0.168641
0.168648
0.168656
0.168663
0.168671
0.168678
0.168686
0.168693
0.168701
0.168708
0.168716
0.168723
0.168731
0.168738
0.168746
0.168753
0.168761
0.168768
0.168776
0.168783
0.16879
0.168798
0.168805
0.168813
0.16882
0.168828
0.168835
0.168843
0.16885
0.168858
0.168865
0.168873
0.16888
0.168888
0.168895
0.168903
0.16891
0.168918
0.168925
0.168933
0.16894
0.168948
0.168955
0.168963
0.16897
0.168978
0.168985
0.168993
0.169
0.169008
0.169015
0.169023
0.16903
0.169038
0.169045
0.169053
0.16906
0.169068
0.169075
0.169083
0.16909
0.169098
0.169105
0.169113
0.16912
0.169128
0.169135
0.169143
0.16915
0.169158
0.169165
0.169173
0.16918
0.169188
0.169196
0.169203
0.169211
0.169218
0.169226
0.169233
0.169241
0.169248
0.169256
0.169263
0.169271
0.169278
0.169286
0.169293
0.169301
0.169308
0.169316
0.169323
0.169331
0.169338
0.169346
0.169353
0.169361
0.169368
0.169376
0.169384
0.169391
0.169399
0.169406
0.169414
0.169421
0.169429
0.169436
0.169444
0.169451
0.169459
0.169466
0.169474
0.169481
0.169489
0.169496
0.169504
0.169512
0.169519
0.169527
0.169534
0.169542
0.169549
0.169557
0.169564
0.169572
0.169579
0.169587
0.169594
0.169602
0.169609
0.169617
0.169625
0.169632
0.16964
0.169647
0.169655
0.169662
0.16967
0.169677
0.169685
0.169692
0.1697
0.169708
0.169715
0.169723
0.16973
0.169738
0.169745
0.169753
0.16976
0.169768
0.169775
0.169783
0.169791
0.169798
0.169806
0.169813
0.169821
0.169828
0.169836
0.169843
0.169851
0.169859
0.169866
0.169874
0.169881
0.169889
0.169896
0.169904
0.169911
0.169919
0.169927
0.169934
0.169942
0.169949
0.169957
0.169964
0.169972
0.169979
0.169987
0.169995
0.170002
0.17001
0.170017
0.170025
0.170032
0.17004
0.170048
0.170055
0.170063
0.17007
0.170078
0.170085
0.170093
0.170101
0.170108
0.170116
0.170123
0.170131
0.170138
0.170146
0.170154
0.170161
0.170169
0.170176
0.170184
0.170191
0.170199
0.170207
0.170214
0.170222
0.170229
0.170237
0.170244
0.170252
0.17026
0.170267
0.170275
0.170282
0.17029
0.170298
0.170305
0.170313
0.17032
0.170328
0.170335
0.170343
0.170351
0.170358
0.170366
0.170373
0.170381
0.170389
0.170396
0.170404
0.170411
0.170419
0.170427
0.170434
0.170442
0.170449
0.170457
0.170464
0.170472
0.17048
0.170487
0.170495
0.170502
0.17051
0.170518
0.170525
0.170533
0.17054
0.170548
0.170556
0.170563
0.170571
0.170578
0.170586
0.170594
0.170601
0.170609
0.170616
0.170624
0.170632
0.170639
0.170647
0.170654
0.170662
0.17067
0.170677
0.170685
0.170692
0.1707
0.170708
0.170715
0.170723
0.17073
0.170738
0.170746
0.170753
0.170761
0.170769
0.170776
0.170784
0.170791
0.170799
0.170807
0.170814
0.170822
0.170829
0.170837
0.170845
0.170852
0.17086
0.170868
0.170875
0.170883
0.17089
0.170898
0.170906
0.170913
0.170921
0.170928
0.170936
0.170944
0.170951
0.170959
0.170967
0.170974
0.170982
0.170989
0.170997
0.171005
0.171012
0.17102
0.171028
0.171035
0.171043
0.17105
0.171058
0.171066
0.171073
0.171081
0.171089
0.171096
0.171104
0.171112
0.171119
0.171127
0.171134
0.171142
0.17115
0.171157
0.171165
0.171173
0.17118
0.171188
0.171195
0.171203
0.171211
0.171218
0.171226
0.171234
0.171241
0.171249
0.171257
0.171264
0.171272
0.17128
0.171287
0.171295
0.171302
0.17131
0.171318
0.171325
0.171333
0.171341
0.171348
0.171356
0.171364
0.171371
0.171379
0.171387
0.171394
0.171402
0.171409
0.171417
0.171425
0.171432
0.17144
0.171448
0.171455
0.171463
0.171471
0.171478
0.171486
0.171494
0.171501
0.171509
0.171517
0.171524
0.171532
0.17154
0.171547
0.171555
0.171563
0.17157
0.171578
0.171586
0.171593
0.171601
0.171608
0.171616
0.171624
0.171631
0.171639
0.171647
0.171654
0.171662
0.17167
0.171677
0.171685
0.171693
0.1717
0.171708
0.171716
0.171723
0.171731
0.171739
0.171746
0.171754
0.171762
0.171769
0.171777
0.171785
0.171792
0.1718
0.171808
0.171815
0.171823
0.171831
0.171839
0.171846
0.171854
0.171862
0.171869
0.171877
0.171885
0.171892
0.1719
0.171908
0.171915
0.171923
0.171931
0.171938
0.171946
0.171954
0.171961
0.171969
0.171977
0.171984
0.171992
0.172
0.172007
0.172015
0.172023
0.172031
0.172038
0.172046
0.172054
0.172061
0.172069
0.172077
0.172084
0.172092
0.1721
0.172107
0.172115
0.172123
0.17213
0.172138
0.172146
0.172154
0.172161
0.172169
0.172177
0.172184
0.172192
0.1722
0.172207
0.172215
0.172223
0.17223
0.172238
0.172246
0.172254
0.172261
0.172269
0.172277
0.172284
0.172292
0.1723
0.172307
0.172315
0.172323
0.172331
0.172338
0.172346
0.172354
0.172361
0.172369
0.172377
0.172385
0.172392
0.1724
0.172408
0.172415
0.172423
0.172431
0.172438
0.172446
0.172454
0.172462
0.172469
0.172477
0.172485
0.172492
0.1725
0.172508
0.172516
0.172523
0.172531
0.172539
0.172546
0.172554
0.172562
0.17257
0.172577
0.172585
0.172593
0.1726
0.172608
0.172616
0.172624
0.172631
0.172639
0.172647
0.172655
0.172662
0.17267
0.172678
0.172685
0.172693
0.172701
0.172709
0.172716
0.172724
0.172732
0.17274
0.172747
0.172755
0.172763
0.17277
0.172778
0.172786
0.172794
0.172801
0.172809
0.172817
0.172825
0.172832
0.17284
0.172848
0.172855
0.172863
0.172871
0.172879
0.172886
0.172894
0.172902
0.17291
0.172917
0.172925
0.172933
0.172941
0.172948
0.172956
0.172964
0.172972
0.172979
0.172987
0.172995
0.173002
0.17301
0.173018
0.173026
0.173033
0.173041
0.173049
0.173057
0.173064
0.173072
0.17308
0.173088
0.173095
0.173103
0.173111
0.173119
0.173126
0.173134
0.173142
0.17315
0.173157
0.173165
0.173173
0.173181
0.173188
0.173196
0.173204
0.173212
0.173219
0.173227
0.173235
0.173243
0.17325
0.173258
0.173266
0.173274
0.173282
0.173289
0.173297
0.173305
0.173313
0.17332
0.173328
0.173336
0.173344
0.173351
0.173359
0.173367
0.173375
0.173382
0.17339
0.173398
0.173406
0.173413
0.173421
0.173429
0.173437
0.173445
0.173452
0.17346
0.173468
0.173476
0.173483
0.173491
0.173499
0.173507
0.173514
0.173522
0.17353
0.173538
0.173546
0.173553
0.173561
0.173569
0.173577
0.173584
0.173592
0.1736
0.173608
0.173616
0.173623
0.173631
0.173639
0.173647
0.173654
0.173662
0.17367
0.173678
0.173686
0.173693
0.173701
0.173709
0.173717
0.173725
0.173732
0.17374
0.173748
0.173756
0.173763
0.173771
0.173779
0.173787
0.173795
0.173802
0.17381
0.173818
0.173826
0.173834
0.173841
0.173849
0.173857
0.173865
0.173872
0.17388
0.173888
0.173896
0.173904
0.173912
0.173919
0.173927
0.173935
0.173943
0.17395
0.173958
0.173966
0.173974
0.173982
0.17399
0.173997
0.174005
0.174013
0.174021
0.174028
0.174036
0.174044
0.174052
0.174059
0.174068
0.174075
0.174083
0.174091
0.174099
0.174106
0.174114
0.174122
0.17413
0.174138
0.174146
0.174153
0.174161
0.174169
0.174177
0.174184
0.174193
0.1742
0.174208
0.174216
0.174224
0.174231
0.174239
0.174247
0.174255
0.174262
0.174271
0.174278
0.174286
0.174294
0.174302
0.174309
0.174318
0.174325
0.174333
0.174341
0.174349
0.174356
0.174365
0.174372
0.17438
0.174388
0.174396
0.174403
0.174411
0.174419
0.174427
0.174434
0.174443
0.17445
0.174458
0.174466
0.174474
0.174481
0.17449
0.174497
0.174505
0.174513
0.174521
0.174528
0.174537
0.174544
0.174552
0.17456
0.174568
0.174575
0.174584
0.174591
0.174599
0.174607
0.174615
0.174622
0.174631
0.174638
0.174646
0.174654
0.174662
0.174669
0.174678
0.174685
0.174694
0.174701
0.174709
0.174716
0.174725
0.174732
0.174741
0.174748
0.174756
0.174763
0.174772
0.174779
0.174788
0.174795
0.174803
0.17481
0.174819
0.174826
0.174835
0.174842
0.174851
0.174857
0.174866
0.174873
0.174882
0.174889
0.174898
0.174904
0.174913
0.17492
0.174929
0.174936
0.174945
0.174952
0.17496
0.174967
0.174976
0.174983
0.174992
0.174999
0.175008
0.175014
0.175023
0.17503
0.175039
0.175046
0.175055
0.175062
0.175071
0.175077
0.175086
0.175093
0.175102
0.175109
0.175118
0.175124
0.175133
0.17514
0.175149
0.175156
0.175165
0.175172
0.175181
0.175187
0.175196
0.175203
0.175212
0.175219
0.175228
0.175235
0.175243
0.17525
0.175259
0.175266
0.175275
0.175282
0.175291
0.175298
0.175306
0.175314
0.175322
0.175329
0.175338
0.175345
0.175353
0.175361
0.175369
0.175377
0.175385
0.175393
0.175401
0.175408
0.175416
0.175424
0.175432
0.17544
0.175448
0.175456
0.175464
0.175471
0.175479
0.175487
0.175495
0.175503
0.175511
0.175519
0.175527
0.175535
0.175542
0.17555
0.175558
0.175566
0.175574
0.175582
0.17559
0.175598
0.175606
0.175613
0.175621
0.175629
0.175637
0.175645
0.175653
0.175661
0.175669
0.175677
0.175684
0.175692
0.1757
0.175708
0.175716
0.175724
0.175732
0.17574
0.175748
0.175756
0.175763
0.175771
0.175779
0.175787
0.175795
0.175803
0.175811
0.175819
0.175827
0.175835
0.175843
0.17585
0.175858
0.175866
0.175874
0.175882
0.17589
0.175898
0.175906
0.175914
0.175922
0.175929
0.175937
0.175945
0.175953
0.175961
0.175969
0.175977
0.175985
0.175993
0.176001
0.176009
0.176017
0.176024
0.176032
0.17604
0.176048
0.176056
0.176064
0.176072
0.17608
0.176088
0.176096
0.176104
0.176112
0.176119
0.176127
0.176135
0.176143
0.176151
0.176159
0.176167
0.176175
0.176183
0.176191
0.176199
0.176207
0.176215
0.176222
0.17623
0.176238
0.176246
0.176254
0.176262
0.17627
0.176278
0.176286
0.176294
0.176302
0.17631
0.176318
0.176326
0.176333
0.176341
0.176349
0.176357
0.176365
0.176373
0.176381
0.176389
0.176397
0.176405
0.176413
0.176421
0.176429
0.176437
0.176445
0.176453
0.17646
0.176468
0.176476
0.176484
0.176492
0.1765
0.176508
0.176516
0.176524
0.176532
0.17654
0.176548
0.176556
0.176564
0.176572
0.17658
0.176588
0.176595
0.176603
0.176611
0.176619
0.176627
0.176635
0.176643
0.176651
0.176659
0.176667
0.176675
0.176683
0.176691
0.176699
0.176707
0.176715
0.176723
0.176731
0.176739
0.176747
0.176755
0.176763
0.17677
0.176778
0.176786
0.176794
0.176802
0.17681
0.176818
0.176826
0.176834
0.176842
0.17685
0.176858
0.176866
0.176874
0.176882
0.17689
0.176898
0.176906
0.176914
0.176922
0.17693
0.176938
0.176946
0.176954
0.176962
0.17697
0.176978
0.176986
0.176993
0.177001
0.177009
0.177017
0.177025
0.177033
0.177041
0.177049
0.177057
0.177065
0.177073
0.177081
0.177089
0.177097
0.177105
0.177113
0.177121
0.177129
0.177137
0.177145
0.177153
0.177161
0.177169
0.177177
0.177185
0.177193
0.177201
0.177209
0.177217
0.177225
0.177233
0.177241
0.177249
0.177257
0.177265
0.177273
0.177281
0.177289
0.177297
0.177305
0.177313
0.177321
0.177329
0.177337
0.177345
0.177353
0.177361
0.177369
0.177377
0.177385
0.177393
0.177401
0.177409
0.177417
0.177425
0.177433
0.177441
0.177449
0.177457
0.177465
0.177473
0.177481
0.177489
0.177497
0.177505
0.177513
0.177521
0.177529
0.177537
0.177545
0.177553
0.177561
0.177569
0.177577
0.177585
0.177593
0.177601
0.177609
0.177617
0.177625
0.177633
0.177641
0.177649
0.177657
0.177665
0.177673
0.177681
0.177689
0.177697
0.177705
0.177713
0.177721
0.177729
0.177737
0.177745
0.177753
0.177761
0.177769
0.177777
0.177785
0.177793
0.177801
0.177809
0.177817
0.177825
0.177833
0.177841
0.177849
0.177857
0.177865
0.177873
0.177881
0.177889
0.177897
0.177905
0.177913
0.177921
0.177929
0.177937
0.177945
0.177953
0.177961
0.177969
0.177977
0.177985
0.177993
0.178001
0.178009
0.178017
0.178025
0.178033
0.178041
0.178049
0.178057
0.178065
0.178074
0.178082
0.17809
0.178098
0.178106
0.178114
0.178122
0.17813
0.178138
0.178146
0.178154
0.178162
0.17817
0.178178
0.178186
0.178194
0.178202
0.17821
0.178218
0.178226
0.178234
0.178242
0.17825
0.178258
0.178266
0.178274
0.178282
0.17829
0.178299
0.178307
0.178315
0.178323
0.178331
0.178339
0.178347
0.178355
0.178363
0.178371
0.178379
0.178387
0.178395
0.178403
0.178411
0.178419
0.178427
0.178435
0.178443
0.178451
0.178459
0.178467
0.178476
0.178484
0.178492
0.1785
0.178508
0.178516
0.178524
0.178532
0.17854
0.178548
0.178556
0.178564
0.178572
0.17858
0.178588
0.178596
0.178604
0.178612
0.178621
0.178629
0.178637
0.178645
0.178653
0.178661
0.178669
0.178677
0.178685
0.178693
0.178701
0.178709
0.178717
0.178725
0.178733
0.178741
0.17875
0.178758
0.178766
0.178774
0.178782
0.17879
0.178798
0.178806
0.178814
0.178822
0.17883
0.178838
0.178846
0.178854
0.178862
0.178871
0.178879
0.178887
0.178895
0.178903
0.178911
0.178919
0.178927
0.178935
0.178943
0.178951
0.178959
0.178967
0.178976
0.178984
0.178992
0.179
0.179008
0.179016
0.179024
0.179032
0.17904
0.179048
0.179056
0.179064
0.179073
0.179081
0.179089
0.179097
0.179105
0.179113
0.179121
0.179129
0.179137
0.179145
0.179153
0.179161
0.17917
0.179178
0.179186
0.179194
0.179202
0.17921
0.179218
0.179226
0.179234
0.179242
0.179251
0.179259
0.179267
0.179275
0.179283
0.179291
0.179299
0.179307
0.179315
0.179323
0.179331
0.17934
0.179348
0.179356
0.179364
0.179372
0.17938
0.179388
0.179396
0.179404
0.179412
0.179421
0.179429
0.179437
0.179445
0.179453
0.179461
0.179469
0.179477
0.179485
0.179494
0.179502
0.17951
0.179518
0.179526
0.179534
0.179542
0.17955
0.179558
0.179567
0.179575
0.179583
0.179591
0.179599
0.179607
0.179615
0.179623
0.179631
0.17964
0.179648
0.179656
0.179664
0.179672
0.17968
0.179688
0.179696
0.179704
0.179713
0.179721
0.179729
0.179737
0.179745
0.179753
0.179761
0.179769
0.179778
0.179786
0.179794
0.179802
0.17981
0.179818
0.179826
0.179834
0.179843
0.179851
0.179859
0.179867
0.179875
0.179883
0.179891
0.179899
0.179908
0.179916
0.179924
0.179932
0.17994
0.179948
0.179956
0.179965
0.179973
0.179981
0.179989
0.179997
0.180005
0.180013
0.180021
0.18003
0.180038
0.180046
0.180054
0.180062
0.18007
0.180078
0.180087
0.180095
0.180103
0.180111
0.180119
0.180127
0.180135
0.180144
0.180152
0.18016
0.180168
0.180176
0.180184
0.180192
0.180201
0.180209
0.180217
0.180225
0.180233
0.180241
0.180249
0.180258
0.180266
0.180274
0.180282
0.18029
0.180298
0.180306
0.180315
0.180323
0.180331
0.180339
0.180347
0.180355
0.180364
0.180372
0.18038
0.180388
0.180396
0.180404
0.180413
0.180421
0.180429
0.180437
0.180445
0.180453
0.180462
0.180469
0.180478
0.180486
0.180494
0.180502
0.180511
0.180518
0.180527
0.180535
0.180543
0.180551
0.18056
0.180567
0.180576
0.180584
0.180592
0.1806
0.180609
0.180616
0.180625
0.180632
0.180642
0.180649
0.180658
0.180665
0.180674
0.180681
0.180691
0.180698
0.180707
0.180714
0.180723
0.18073
0.18074
0.180747
0.180756
0.180763
0.180772
0.180779
0.180789
0.180796
0.180805
0.180812
0.180821
0.180829
0.180838
0.180845
0.180854
0.180861
0.180871
0.180878
0.180887
0.180894
0.180903
0.18091
0.18092
0.180927
0.180936
0.180943
0.180952
0.18096
0.180969
0.180976
0.180985
0.180992
0.181002
0.181009
0.181018
0.181025
0.181034
0.181041
0.181051
0.181058
0.181067
0.181074
0.181083
0.181091
0.1811
0.181107
0.181116
0.181123
0.181133
0.18114
0.181149
0.181156
0.181165
0.181173
0.181182
0.181189
0.181198
0.181205
0.181215
0.181222
0.181231
0.181238
0.181247
0.181255
0.181264
0.181271
0.18128
0.181287
0.181297
0.181304
0.181313
0.18132
0.18133
0.181337
0.181346
0.181353
0.181362
0.181369
0.181379
0.181386
0.181395
0.181402
0.181412
0.181419
0.181428
0.181435
0.181444
0.181452
0.181461
0.181468
0.181477
0.181484
0.181494
0.181501
0.18151
0.181517
0.181527
0.181534
0.181543
0.18155
0.18156
0.181567
0.181576
0.181583
0.181592
0.1816
0.181609
0.181616
0.181625
0.181632
0.181642
0.181649
0.181658
0.181665
0.181675
0.181682
0.181691
0.181698
0.181708
0.181715
0.181724
0.181731
0.181741
0.181748
0.181757
0.181764
0.181773
0.181781
0.18179
0.181797
0.181806
0.181814
0.181823
0.18183
0.181839
0.181846
0.181856
0.181863
0.181872
0.181879
0.181889
0.181896
0.181905
0.181912
0.181922
0.181929
0.181938
0.181945
0.181955
0.181962
0.181971
0.181978
0.181988
0.181995
0.182004
0.182011
0.182021
0.182028
0.182037
0.182044
0.182054
0.182061
0.18207
0.182077
0.182087
0.182094
0.182103
0.18211
0.18212
0.182127
0.182136
0.182143
0.182153
0.18216
0.182169
0.182176
0.182186
0.182193
0.182202
0.182209
0.182219
0.182226
0.182235
0.182242
0.182252
0.182259
0.182268
0.182275
0.182285
0.182292
0.182301
0.182308
0.182318
0.182325
0.182334
0.182341
0.182351
0.182358
0.182367
0.182375
0.182384
0.182391
0.1824
0.182408
0.182417
0.182424
0.182433
0.182441
0.18245
0.182457
0.182467
0.182474
0.182483
0.18249
0.1825
0.182507
0.182516
0.182523
0.182533
0.18254
0.182549
0.182556
0.182566
0.182573
0.182582
0.18259
0.182599
0.182606
0.182615
0.182623
0.182632
0.182639
0.182649
0.182656
0.182665
0.182672
0.182682
0.182689
0.182698
0.182705
0.182715
0.182722
0.182731
0.182739
0.182748
0.182755
0.182765
0.182772
0.182781
0.182788
0.182798
0.182805
0.182814
0.182821
0.182831
0.182838
0.182847
0.182855
0.182864
0.182871
0.182881
0.182888
0.182897
0.182904
0.182914
0.182921
0.18293
0.182938
0.182947
0.182954
0.182964
0.182971
0.18298
0.182987
0.182997
0.183004
0.183013
0.183021
0.18303
0.183037
0.183047
0.183054
0.183063
0.18307
0.18308
0.183087
0.183096
0.183104
0.183113
0.18312
0.18313
0.183137
0.183146
0.183153
0.183163
0.18317
0.183179
0.183187
0.183196
0.183203
0.183213
0.18322
0.183229
0.183237
0.183246
0.183253
0.183263
0.18327
0.183279
0.183286
0.183296
0.183303
0.183312
0.18332
0.183329
0.183336
0.183346
0.183353
0.183362
0.18337
0.183379
0.183386
0.183396
0.183403
0.183412
0.18342
0.183429
0.183436
0.183446
0.183453
0.183462
0.183469
0.183479
0.183486
0.183496