/*--------------------------------*- C++ -*----------------------------------*\
  =========                 |
  \\      /  F ield         | OpenFOAM: The Open Source CFD Toolbox
   \\    /   O peration     | Website:  https://openfoam.org
    \\  /    A nd           | Version:  9
     \\/     M anipulation  |
\*---------------------------------------------------------------------------*/
FoamFile
{
    format      ascii;
    class       volVectorField;
    location    "0.04";
    object      ddt0(rho,U);
}
// * * * * * * * * * * * * * * * * * * * * * * * * * * * * * * * * * * * * * //

dimensions      [1 -2 -2 0 0 0 0];

internalField   nonuniform List<vector> 
1000
(
(-53.3215 0 0)
(-58.0675 0 0)
(-63.3425 0 0)
(-67.5559 0 0)
(-71.4017 0 0)
(-75.3218 0 0)
(-79.3305 0 0)
(-83.3437 0 0)
(-87.3383 0 0)
(-91.3392 0 0)
(-95.3585 0 0)
(-99.375 0 0)
(-103.361 0 0)
(-107.316 0 0)
(-111.271 0 0)
(-115.258 0 0)
(-119.282 0 0)
(-123.314 0 0)
(-127.315 0 0)
(-131.267 0 0)
(-135.186 0 0)
(-139.113 0 0)
(-143.087 0 0)
(-147.127 0 0)
(-151.212 0 0)
(-155.293 0 0)
(-159.313 0 0)
(-163.24 0 0)
(-167.089 0 0)
(-170.908 0 0)
(-174.749 0 0)
(-178.652 0 0)
(-182.643 0 0)
(-186.722 0 0)
(-190.86 0 0)
(-195.005 0 0)
(-199.109 0 0)
(-203.13 0 0)
(-207.043 0 0)
(-210.854 0 0)
(-214.589 0 0)
(-218.284 0 0)
(-221.984 0 0)
(-225.737 0 0)
(-229.584 0 0)
(-233.563 0 0)
(-237.67 0 0)
(-241.862 0 0)
(-246.114 0 0)
(-250.443 0 0)
(-254.821 0 0)
(-259.189 0 0)
(-263.527 0 0)
(-267.81 0 0)
(-272.006 0 0)
(-276.113 0 0)
(-280.175 0 0)
(-284.277 0 0)
(-288.38 0 0)
(-292.378 0 0)
(-296.446 0 0)
(-300.635 0 0)
(-305.288 0 0)
(-309.74 0 0)
(-314.137 0 0)
(-317.792 0 0)
(-322.094 0 0)
(-326.153 0 0)
(-329.766 0 0)
(-334.158 0 0)
(-338.209 0 0)
(-341.883 0 0)
(-346.332 0 0)
(-350.341 0 0)
(-353.977 0 0)
(-358.419 0 0)
(-362.48 0 0)
(-366.121 0 0)
(-370.568 0 0)
(-374.682 0 0)
(-378.156 0 0)
(-382.467 0 0)
(-386.789 0 0)
(-390.275 0 0)
(-394.419 0 0)
(-399.007 0 0)
(-402.612 0 0)
(-406.417 0 0)
(-411.124 0 0)
(-415.047 0 0)
(-418.497 0 0)
(-423.042 0 0)
(-427.459 0 0)
(-430.791 0 0)
(-434.822 0 0)
(-439.667 0 0)
(-443.408 0 0)
(-446.819 0 0)
(-451.518 0 0)
(-456.008 0 0)
(-459.225 0 0)
(-463.132 0 0)
(-468.109 0 0)
(-472.019 0 0)
(-475.18 0 0)
(-479.692 0 0)
(-484.6 0 0)
(-488.018 0 0)
(-491.428 0 0)
(-496.362 0 0)
(-500.975 0 0)
(-504.102 0 0)
(-507.847 0 0)
(-513 0 0)
(-517.308 0 0)
(-520.294 0 0)
(-524.333 0 0)
(-529.568 0 0)
(-533.609 0 0)
(-536.589 0 0)
(-540.824 0 0)
(-546.083 0 0)
(-550.02 0 0)
(-553.009 0 0)
(-557.352 0 0)
(-562.615 0 0)
(-566.549 0 0)
(-569.554 0 0)
(-573.865 0 0)
(-579.141 0 0)
(-583.188 0 0)
(-586.2 0 0)
(-590.393 0 0)
(-595.685 0 0)
(-599.928 0 0)
(-602.984 0 0)
(-606.961 0 0)
(-612.227 0 0)
(-616.746 0 0)
(-619.901 0 0)
(-623.594 0 0)
(-628.744 0 0)
(-633.605 0 0)
(-636.961 0 0)
(-640.349 0 0)
(-645.253 0 0)
(-650.453 0 0)
(-654.206 0 0)
(-657.343 0 0)
(-661.815 0 0)
(-667.244 0 0)
(-671.589 0 0)
(-674.675 0 0)
(-678.518 0 0)
(-683.867 0 0)
(-688.924 0 0)
(-692.36 0 0)
(-695.573 0 0)
(-700.384 0 0)
(-705.992 0 0)
(-710.256 0 0)
(-713.234 0 0)
(-717.103 0 0)
(-722.657 0 0)
(-727.966 0 0)
(-731.479 0 0)
(-734.518 0 0)
(-739.188 0 0)
(-745.106 0 0)
(-749.865 0 0)
(-752.904 0 0)
(-756.247 0 0)
(-761.626 0 0)
(-767.747 0 0)
(-771.765 0 0)
(-774.715 0 0)
(-778.492 0 0)
(-784.413 0 0)
(-790.076 0 0)
(-794.027 0 0)
(-797.19 0 0)
(-801.329 0 0)
(-807.036 0 0)
(-812.708 0 0)
(-816.908 0 0)
(-820.098 0 0)
(-824.268 0 0)
(-829.988 0 0)
(-835.993 0 0)
(-840.094 0 0)
(-843.315 0 0)
(-847.428 0 0)
(-853.343 0 0)
(-859.671 0 0)
(-863.562 0 0)
(-866.882 0 0)
(-870.948 0 0)
(-876.946 0 0)
(-883.848 0 0)
(-887.287 0 0)
(-890.61 0 0)
(-895.185 0 0)
(-900.663 0 0)
(-907.949 0 0)
(-911.513 0 0)
(-914.956 0 0)
(-919.973 0 0)
(-924.723 0 0)
(-931.241 0 0)
(-936.643 0 0)
(-940.382 0 0)
(-944.403 0 0)
(-949.144 0 0)
(-954.817 0 0)
(-961.948 0 0)
(-965.512 0 0)
(-969.553 0 0)
(-973.355 0 0)
(-976.891 0 0)
(-982.886 0 0)
(-990.484 0 0)
(-995.095 0 0)
(-1002.36 0 0)
(-1008.56 0 0)
(-1015.17 0 0)
(-1021.23 0 0)
(-1027 0 0)
(-1031.93 0 0)
(-1036.72 0 0)
(-1042.31 0 0)
(-1048.37 0 0)
(-1054.09 0 0)
(-1059.35 0 0)
(-1064.44 0 0)
(-1069.97 0 0)
(-1076.16 0 0)
(-1082.49 0 0)
(-1088.26 0 0)
(-1093.56 0 0)
(-1099.02 0 0)
(-1105.1 0 0)
(-1111.52 0 0)
(-1117.79 0 0)
(-1123.5 0 0)
(-1129.17 0 0)
(-1135.19 0 0)
(-1141.78 0 0)
(-1148.47 0 0)
(-1154.68 0 0)
(-1160.52 0 0)
(-1166.34 0 0)
(-1172.81 0 0)
(-1179.65 0 0)
(-1186.46 0 0)
(-1192.71 0 0)
(-1198.64 0 0)
(-1204.86 0 0)
(-1211.6 0 0)
(-1218.77 0 0)
(-1225.74 0 0)
(-1232.07 0 0)
(-1238.11 0 0)
(-1244.46 0 0)
(-1251.4 0 0)
(-1258.82 0 0)
(-1265.88 0 0)
(-1272.31 0 0)
(-1278.47 0 0)
(-1284.95 0 0)
(-1292.12 0 0)
(-1299.59 0 0)
(-1306.69 0 0)
(-1313.2 0 0)
(-1319.47 0 0)
(-1326.1 0 0)
(-1333.35 0 0)
(-1340.71 0 0)
(-1347.65 0 0)
(-1354.08 0 0)
(-1360.39 0 0)
(-1367.07 0 0)
(-1374.28 0 0)
(-1381.66 0 0)
(-1388.47 0 0)
(-1394.74 0 0)
(-1400.85 0 0)
(-1407.3 0 0)
(-1414.29 0 0)
(-1421.4 0 0)
(-1428.09 0 0)
(-1434.07 0 0)
(-1439.76 0 0)
(-1445.83 0 0)
(-1452.58 0 0)
(-1459.58 0 0)
(-1466.2 0 0)
(-1472.04 0 0)
(-1477.22 0 0)
(-1482.59 0 0)
(-1488.66 0 0)
(-1495.13 0 0)
(-1501.26 0 0)
(-1506.66 0 0)
(-1511.6 0 0)
(-1516.61 0 0)
(-1522.08 0 0)
(-1527.93 0 0)
(-1533.57 0 0)
(-1538.53 0 0)
(-1543.01 0 0)
(-1547.51 0 0)
(-1552.33 0 0)
(-1557.53 0 0)
(-1562.67 0 0)
(-1567.2 0 0)
(-1571.03 0 0)
(-1574.74 0 0)
(-1578.91 0 0)
(-1583.65 0 0)
(-1588.58 0 0)
(-1592.97 0 0)
(-1596.46 0 0)
(-1599.45 0 0)
(-1602.76 0 0)
(-1606.79 0 0)
(-1611.15 0 0)
(-1615.25 0 0)
(-1618.7 0 0)
(-1621.54 0 0)
(-1624.32 0 0)
(-1627.6 0 0)
(-1631.42 0 0)
(-1635.2 0 0)
(-1638.46 0 0)
(-1641.23 0 0)
(-1643.77 0 0)
(-1646.57 0 0)
(-1649.97 0 0)
(-1653.66 0 0)
(-1656.87 0 0)
(-1659.33 0 0)
(-1661.51 0 0)
(-1663.96 0 0)
(-1667 0 0)
(-1670.59 0 0)
(-1674.07 0 0)
(-1676.8 0 0)
(-1678.83 0 0)
(-1680.84 0 0)
(-1683.28 0 0)
(-1686.31 0 0)
(-1689.81 0 0)
(-1693.13 0 0)
(-1695.59 0 0)
(-1697.46 0 0)
(-1699.58 0 0)
(-1702.28 0 0)
(-1705.42 0 0)
(-1708.67 0 0)
(-1711.49 0 0)
(-1713.62 0 0)
(-1715.58 0 0)
(-1718.03 0 0)
(-1721.03 0 0)
(-1724.25 0 0)
(-1727.32 0 0)
(-1729.8 0 0)
(-1731.61 0 0)
(-1733.49 0 0)
(-1736.18 0 0)
(-1739.53 0 0)
(-1742.93 0 0)
(-1745.94 0 0)
(-1748.29 0 0)
(-1750.07 0 0)
(-1751.94 0 0)
(-1754.6 0 0)
(-1757.95 0 0)
(-1761.27 0 0)
(-1764.08 0 0)
(-1766.4 0 0)
(-1768.47 0 0)
(-1770.71 0 0)
(-1773.56 0 0)
(-1776.94 0 0)
(-1780.13 0 0)
(-1782.63 0 0)
(-1784.64 0 0)
(-1786.67 0 0)
(-1789.2 0 0)
(-1792.35 0 0)
(-1795.9 0 0)
(-1799.19 0 0)
(-1801.71 0 0)
(-1803.57 0 0)
(-1805.41 0 0)
(-1807.89 0 0)
(-1811.08 0 0)
(-1814.58 0 0)
(-1817.85 0 0)
(-1820.49 0 0)
(-1822.55 0 0)
(-1824.58 0 0)
(-1827.18 0 0)
(-1830.44 0 0)
(-1833.85 0 0)
(-1836.79 0 0)
(-1839.13 0 0)
(-1841.23 0 0)
(-1843.57 0 0)
(-1846.47 0 0)
(-1849.88 0 0)
(-1853.43 0 0)
(-1856.55 0 0)
(-1858.88 0 0)
(-1860.73 0 0)
(-1862.82 0 0)
(-1865.62 0 0)
(-1869.07 0 0)
(-1872.63 0 0)
(-1875.73 0 0)
(-1878.24 0 0)
(-1880.4 0 0)
(-1882.76 0 0)
(-1885.65 0 0)
(-1888.98 0 0)
(-1892.32 0 0)
(-1895.22 0 0)
(-1897.64 0 0)
(-1899.74 0 0)
(-1902.06 0 0)
(-1905.06 0 0)
(-1908.76 0 0)
(-1912.55 0 0)
(-1915.64 0 0)
(-1917.91 0 0)
(-1919.88 0 0)
(-1922.22 0 0)
(-1925.12 0 0)
(-1928.51 0 0)
(-1932.04 0 0)
(-1935.3 0 0)
(-1937.97 0 0)
(-1940.19 0 0)
(-1942.56 0 0)
(-1945.55 0 0)
(-1949.09 0 0)
(-1952.64 0 0)
(-1955.74 0 0)
(-1958.24 0 0)
(-1960.37 0 0)
(-1962.66 0 0)
(-1965.53 0 0)
(-1969.07 0 0)
(-1972.86 0 0)
(-1976.29 0 0)
(-1979.1 0 0)
(-1981.41 0 0)
(-1983.72 0 0)
(-1986.47 0 0)
(-1989.78 0 0)
(-1993.36 0 0)
(-1996.7 0 0)
(-1999.55 0 0)
(-2001.96 0 0)
(-2004.34 0 0)
(-2007.11 0 0)
(-2010.5 0 0)
(-2014.28 0 0)
(-2017.94 0 0)
(-2020.97 0 0)
(-2023.36 0 0)
(-2025.54 0 0)
(-2028.09 0 0)
(-2031.27 0 0)
(-2034.89 0 0)
(-2038.56 0 0)
(-2041.79 0 0)
(-2044.5 0 0)
(-2046.87 0 0)
(-2049.48 0 0)
(-2052.7 0 0)
(-2056.41 0 0)
(-2060.16 0 0)
(-2063.4 0 0)
(-2066.1 0 0)
(-2068.49 0 0)
(-2070.97 0 0)
(-2073.88 0 0)
(-2077.33 0 0)
(-2081.1 0 0)
(-2084.73 0 0)
(-2087.87 0 0)
(-2090.48 0 0)
(-2092.94 0 0)
(-2095.73 0 0)
(-2099.08 0 0)
(-2102.85 0 0)
(-2106.56 0 0)
(-2109.8 0 0)
(-2112.42 0 0)
(-2114.72 0 0)
(-2117.32 0 0)
(-2120.57 0 0)
(-2124.45 0 0)
(-2128.39 0 0)
(-2131.88 0 0)
(-2134.69 0 0)
(-2137.12 0 0)
(-2139.76 0 0)
(-2142.86 0 0)
(-2146.5 0 0)
(-2150.25 0 0)
(-2153.78 0 0)
(-2156.86 0 0)
(-2159.54 0 0)
(-2162.13 0 0)
(-2164.98 0 0)
(-2168.4 0 0)
(-2172.23 0 0)
(-2176.11 0 0)
(-2179.56 0 0)
(-2182.43 0 0)
(-2184.97 0 0)
(-2187.7 0 0)
(-2190.96 0 0)
(-2194.7 0 0)
(-2198.55 0 0)
(-2202.08 0 0)
(-2205.13 0 0)
(-2207.8 0 0)
(-2210.47 0 0)
(-2213.49 0 0)
(-2217.02 0 0)
(-2220.9 0 0)
(-2224.78 0 0)
(-2228.25 0 0)
(-2231.18 0 0)
(-2233.87 0 0)
(-2236.68 0 0)
(-2240.01 0 0)
(-2243.83 0 0)
(-2247.82 0 0)
(-2251.5 0 0)
(-2254.66 0 0)
(-2257.38 0 0)
(-2260.04 0 0)
(-2263.12 0 0)
(-2266.76 0 0)
(-2270.74 0 0)
(-2274.72 0 0)
(-2278.16 0 0)
(-2281.17 0 0)
(-2283.88 0 0)
(-2286.81 0 0)
(-2290.25 0 0)
(-2294.05 0 0)
(-2298.12 0 0)
(-2301.77 0 0)
(-2305.15 0 0)
(-2307.99 0 0)
(-2310.85 0 0)
(-2313.94 0 0)
(-2317.49 0 0)
(-2321.48 0 0)
(-2325.42 0 0)
(-2329.07 0 0)
(-2332.17 0 0)
(-2334.93 0 0)
(-2337.88 0 0)
(-2341.27 0 0)
(-2345.25 0 0)
(-2349.43 0 0)
(-2353.18 0 0)
(-2356.63 0 0)
(-2359.3 0 0)
(-2362.41 0 0)
(-2365.5 0 0)
(-2369.35 0 0)
(-2373.4 0 0)
(-2377.17 0 0)
(-2381.04 0 0)
(-2383.87 0 0)
(-2387.18 0 0)
(-2389.88 0 0)
(-2393.4 0 0)
(-2397.12 0 0)
(-2400.96 0 0)
(-2405.29 0 0)
(-2408.39 0 0)
(-2412.24 0 0)
(-2414.46 0 0)
(-2418.12 0 0)
(-2421.16 0 0)
(-2425.3 0 0)
(-2429.82 0 0)
(-2433.2 0 0)
(-2437.78 0 0)
(-2439.5 0 0)
(-2443.7 0 0)
(-2445.74 0 0)
(-2450.2 0 0)
(-2454.48 0 0)
(-2458.05 0 0)
(-2463.42 0 0)
(-2464.65 0 0)
(-2469.71 0 0)
(-2470.57 0 0)
(-2475.59 0 0)
(-2479.09 0 0)
(-2483.16 0 0)
(-2488.8 0 0)
(-2489.98 0 0)
(-2496.01 0 0)
(-2495.47 0 0)
(-2502.06 0 0)
(-2503.23 0 0)
(-2509.6 0 0)
(-2513.32 0 0)
(-2516.4 0 0)
(-2521.75 0 0)
(-2521.13 0 0)
(-2528.43 0 0)
(-2527.77 0 0)
(-2536.02 0 0)
(-2537.79 0 0)
(-2543.11 0 0)
(-2547.03 0 0)
(-2547.91 0 0)
(-2554.15 0 0)
(-2553.74 0 0)
(-2561.79 0 0)
(-2563 0 0)
(-2569.49 0 0)
(-2572.48 0 0)
(-2574.99 0 0)
(-2579.98 0 0)
(-2580.56 0 0)
(-2587.66 0 0)
(-2589.01 0 0)
(-2595.96 0 0)
(-2598.14 0 0)
(-2602.59 0 0)
(-2605.52 0 0)
(-2608.29 0 0)
(-2613.24 0 0)
(-2615.71 0 0)
(-2622.6 0 0)
(-2623.93 0 0)
(-2630.77 0 0)
(-2631.01 0 0)
(-2636.62 0 0)
(-2638.79 0 0)
(-2643.02 0 0)
(-2648.81 0 0)
(-2650.74 0 0)
(-2658.06 0 0)
(-2657.52 0 0)
(-2664.84 0 0)
(-2664.29 0 0)
(-2671.59 0 0)
(-2673.93 0 0)
(-2679.35 0 0)
(-2683.98 0 0)
(-2686.29 0 0)
(-2691.2 0 0)
(-2692.19 0 0)
(-2698.95 0 0)
(-2699.49 0 0)
(-2708.71 0 0)
(-2709.37 0 0)
(-2715.25 0 0)
(-2719.41 0 0)
(-2718.91 0 0)
(-2727.68 0 0)
(-2726.61 0 0)
(-2735.28 0 0)
(-2738.27 0 0)
(-2742.23 0 0)
(-2747.92 0 0)
(-2747.71 0 0)
(-2755.15 0 0)
(-2754.78 0 0)
(-2763.17 0 0)
(-2765.7 0 0)
(-2770.85 0 0)
(-2776.69 0 0)
(-2776.47 0 0)
(-2784.27 0 0)
(-2783.63 0 0)
(-2790.8 0 0)
(-2794.63 0 0)
(-2798.58 0 0)
(-2805.56 0 0)
(-2805.74 0 0)
(-2813.58 0 0)
(-2812.69 0 0)
(-2820.61 0 0)
(-2822.75 0 0)
(-2828.12 0 0)
(-2834.85 0 0)
(-2834.83 0 0)
(-2844.51 0 0)
(-2842.27 0 0)
(-2850.14 0 0)
(-2853.8 0 0)
(-2856 0 0)
(-2865.44 0 0)
(-2865.53 0 0)
(-2872.95 0 0)
(-2875.74 0 0)
(-2878.94 0 0)
(-2885.35 0 0)
(-2887.39 0 0)
(-2894.14 0 0)
(-2898.79 0 0)
(-2902.72 0 0)
(-2907.22 0 0)
(-2913.03 0 0)
(-2914.3 0 0)
(-2920.85 0 0)
(-2926.29 0 0)
(-2928.59 0 0)
(-2936.32 0 0)
(-2940.32 0 0)
(-2944.17 0 0)
(-2948.71 0 0)
(-2955.12 0 0)
(-2956.87 0 0)
(-2963.91 0 0)
(-2970 0 0)
(-2972.23 0 0)
(-2980.2 0 0)
(-2983.84 0 0)
(-2988.02 0 0)
(-2993.43 0 0)
(-2999.15 0 0)
(-3002.99 0 0)
(-3008.66 0 0)
(-3016.5 0 0)
(-3017.89 0 0)
(-3025.08 0 0)
(-3032.2 0 0)
(-3032.63 0 0)
(-3040.92 0 0)
(-3048.73 0 0)
(-3048.77 0 0)
(-3058.23 0 0)
(-3066.15 0 0)
(-3065.05 0 0)
(-3075.26 0 0)
(-3082.06 0 0)
(-3081.91 0 0)
(-3092.02 0 0)
(-3098.97 0 0)
(-3100.71 0 0)
(-3108.91 0 0)
(-3116.81 0 0)
(-3119.02 0 0)
(-3125.21 0 0)
(-3134.55 0 0)
(-3137.37 0 0)
(-3142.84 0 0)
(-3153.04 0 0)
(-3156.95 0 0)
(-3161.24 0 0)
(-3170.84 0 0)
(-3176.17 0 0)
(-3179.3 0 0)
(-3188.19 0 0)
(-3195.62 0 0)
(-3198.64 0 0)
(-3206.42 0 0)
(-3215.15 0 0)
(-3218.62 0 0)
(-3224.48 0 0)
(-3233.53 0 0)
(-3238.47 0 0)
(-3242.67 0 0)
(-3252.18 0 0)
(-3258.54 0 0)
(-3262.12 0 0)
(-3270.73 0 0)
(-3278.48 0 0)
(-3280.68 0 0)
(-3289.73 0 0)
(-3296.3 0 0)
(-3300.62 0 0)
(-3307.22 0 0)
(-3316.08 0 0)
(-3318.24 0 0)
(-3327.69 0 0)
(-3331.77 0 0)
(-3339.42 0 0)
(-3342.64 0 0)
(-3352.26 0 0)
(-3354.06 0 0)
(-3363.98 0 0)
(-3365.27 0 0)
(-3376.13 0 0)
(-3376.9 0 0)
(-3386.09 0 0)
(-3388.78 0 0)
(-3397.62 0 0)
(-3397.58 0 0)
(-3408.55 0 0)
(-3410.14 0 0)
(-3415.87 0 0)
(-3420.76 0 0)
(-3428.2 0 0)
(-3428.77 0 0)
(-3436.2 0 0)
(-3441.74 0 0)
(-3444.02 0 0)
(-3449.12 0 0)
(-3454.74 0 0)
(-3458.62 0 0)
(-3461.36 0 0)
(-3467.83 0 0)
(-3470.55 0 0)
(-3475.37 0 0)
(-3478.64 0 0)
(-3482.89 0 0)
(-3487.18 0 0)
(-3490.65 0 0)
(-3493.48 0 0)
(-3498.3 0 0)
(-3502.32 0 0)
(-3504.34 0 0)
(-3507.77 0 0)
(-3514.11 0 0)
(-3514.79 0 0)
(-3517.81 0 0)
(-3523.43 0 0)
(-3526.56 0 0)
(-3527.28 0 0)
(-3532.3 0 0)
(-3536.96 0 0)
(-3538.37 0 0)
(-3540.31 0 0)
(-3546.91 0 0)
(-3548.98 0 0)
(-3550.35 0 0)
(-3555.09 0 0)
(-3559.8 0 0)
(-3560.7 0 0)
(-3564.25 0 0)
(-3568.76 0 0)
(-3572.21 0 0)
(-3573.48 0 0)
(-3578.19 0 0)
(-3582.41 0 0)
(-3584.92 0 0)
(-3586.94 0 0)
(-3592.97 0 0)
(-3595.79 0 0)
(-3598.29 0 0)
(-3601.85 0 0)
(-3607.21 0 0)
(-3609.73 0 0)
(-3612.89 0 0)
(-3616.65 0 0)
(-3621.75 0 0)
(-3624.76 0 0)
(-3628.26 0 0)
(-3632.02 0 0)
(-3637.06 0 0)
(-3640.53 0 0)
(-3644.29 0 0)
(-3647.91 0 0)
(-3653.02 0 0)
(-3656.62 0 0)
(-3660.99 0 0)
(-3664.7 0 0)
(-3669.69 0 0)
(-3673.41 0 0)
(-3678.32 0 0)
(-3682.21 0 0)
(-3687.2 0 0)
(-3690.93 0 0)
(-3695.91 0 0)
(-3700.05 0 0)
(-3705.27 0 0)
(-3709.34 0 0)
(-3714.4 0 0)
(-3718.51 0 0)
(-3723.74 0 0)
(-3728.08 0 0)
(-3733.38 0 0)
(-3737.66 0 0)
(-3742.94 0 0)
(-3747.35 0 0)
(-3752.76 0 0)
(-3757.22 0 0)
(-3762.59 0 0)
(-3767.09 0 0)
(-3772.63 0 0)
(-3777.41 0 0)
(-3783.02 0 0)
(-3787.74 0 0)
(-3793.39 0 0)
(-3798.4 0 0)
(-3804.27 0 0)
(-3809.4 0 0)
(-3815.3 0 0)
(-3820.55 0 0)
(-3826.7 0 0)
(-3832.44 0 0)
(-3838.86 0 0)
(-3844.83 0 0)
(-3851.42 0 0)
(-3857.82 0 0)
(-3864.83 0 0)
(-3871.87 0 0)
(-3879.26 0 0)
(-3886.77 0 0)
(-3894.52 0 0)
(-3902.68 0 0)
(-3910.92 0 0)
(-3919.8 0 0)
(-3928.48 0 0)
(-3937.96 0 0)
(-3947.05 0 0)
(-3957.21 0 0)
(-3966.74 0 0)
(-3977.5 0 0)
(-3987.33 0 0)
(-3998.49 0 0)
(-4008.53 0 0)
(-4019.95 0 0)
(-4030.09 0 0)
(-4041.54 0 0)
(-4051.58 0 0)
(-4062.77 0 0)
(-4072.56 0 0)
(-4083.28 0 0)
(-4092.72 0 0)
(-4102.74 0 0)
(-4111.64 0 0)
(-4120.69 0 0)
(-4129.09 0 0)
(-4136.58 0 0)
(-4145.33 0 0)
(-4151.47 0 0)
(-4158.58 0 0)
(-4163.78 0 0)
(-4170.99 0 0)
(-4175.7 0 0)
(-4181.39 0 0)
(-4185.14 0 0)
(-4190.42 0 0)
(-4194.12 0 0)
(-4199.4 0 0)
(-4201.79 0 0)
(-4205.95 0 0)
(-4209.22 0 0)
(-4213.77 0 0)
(-4216.1 0 0)
(-4220.46 0 0)
(-4222.97 0 0)
(-4227.05 0 0)
(-4229.95 0 0)
(-4234.65 0 0)
(-4237.04 0 0)
(-4241.09 0 0)
(-4244.22 0 0)
(-4249.02 0 0)
(-4251.72 0 0)
(-4256.52 0 0)
(-4259.79 0 0)
(-4264.04 0 0)
(-4267.25 0 0)
(-4272.93 0 0)
(-4276.2 0 0)
(-4280.65 0 0)
(-4284.11 0 0)
(-4289.31 0 0)
(-4293.05 0 0)
(-4298.62 0 0)
(-4302.1 0 0)
(-4306.99 0 0)
(-4310.72 0 0)
(-4316.15 0 0)
(-4320.36 0 0)
(-4326.21 0 0)
(-4329.62 0 0)
(-4334.46 0 0)
(-4338.74 0 0)
(-4344.73 0 0)
(-4348.87 0 0)
(-4354.53 0 0)
(-4358.29 0 0)
(-4363.48 0 0)
(-4368.06 0 0)
(-4374.3 0 0)
(-4378.43 0 0)
(-4384.15 0 0)
(-4388.06 0 0)
(-4394.14 0 0)
(-4400.89 0 0)
)
;

boundaryField
{
    sides
    {
        type            calculated;
        value           nonuniform List<vector> 2((-4400.89 0 0) (-53.3215 0 0));
    }
    empty
    {
        type            empty;
    }
}


// ************************************************************************* //
