/*--------------------------------*- C++ -*----------------------------------*\
  =========                 |
  \\      /  F ield         | OpenFOAM: The Open Source CFD Toolbox
   \\    /   O peration     | Website:  https://openfoam.org
    \\  /    A nd           | Version:  9
     \\/     M anipulation  |
\*---------------------------------------------------------------------------*/
FoamFile
{
    format      ascii;
    class       volScalarField;
    location    "0.04";
    object      ddt0(rho,K);
}
// * * * * * * * * * * * * * * * * * * * * * * * * * * * * * * * * * * * * * //

dimensions      [1 -1 -3 0 0 0 0];

internalField   nonuniform List<scalar> 
1000
(
268.983
195.168
114.509
47.9145
-15.6239
-82.4373
-152.441
-224.341
-297.808
-373.132
-450.415
-529.389
-609.781
-691.657
-775.381
-861.281
-949.354
-1039.26
-1130.6
-1223.21
-1317.33
-1413.41
-1511.96
-1613.18
-1716.85
-1822.23
-1928.41
-2034.87
-2141.89
-2250.38
-2361.11
-2474.53
-2591.01
-2710.68
-2833.1
-2957.44
-3082.92
-3208.86
-3334.8
-3460.85
-3587.48
-3715.26
-3844.97
-3977.43
-4113.51
-4254.07
-4398.89
-4546.38
-4695.97
-4848.84
-5004.67
-5161.91
-5320.61
-5480.35
-5640.09
-5799.81
-5960.78
-6126.2
-6294.35
-6460.05
-6628.87
-6801.16
-6985.11
-7169.97
-7352.41
-7522.44
-7708.37
-7888.91
-8063.32
-8256.66
-8444.29
-8626.47
-8826.78
-9019.05
-9205.56
-9410.92
-9610.16
-9803.28
-10015
-10219.8
-10413
-10626.7
-10842.1
-11041.6
-11258.4
-11486.4
-11694.1
-11909.1
-12145.9
-12366
-12578.1
-12817.4
-13054.4
-13268.4
-13501.9
-13755.9
-13985.1
-14209.4
-14466.5
-14719
-14942.7
-15186.4
-15457.5
-15703.5
-15934
-16201
-16478.7
-16720.4
-16965.3
-17251
-17529.2
-17771.2
-18032.7
-18332.3
-18610.4
-18856.4
-19133.3
-19443.2
-19722.1
-19975.4
-20265.7
-20585.1
-20869.4
-21130.8
-21432.5
-21760.9
-22053.3
-22322.7
-22631.8
-22969.5
-23273.5
-23550.7
-23865
-24212.5
-24530.6
-24816.9
-25133.3
-25489.3
-25824.4
-26121.3
-26437.5
-26799.5
-27153.9
-27464.9
-27780
-28144.1
-28518.7
-28850.4
-29166.1
-29526.5
-29918.4
-30277.8
-30600
-30949.4
-31349.1
-31740.8
-32082.6
-32420.5
-32813
-33233.3
-33611.3
-33949.8
-34321.1
-34750.8
-35173.8
-35538.7
-35891.3
-36302.3
-36758.6
-37176
-37536.4
-37908.2
-38360.8
-38841.5
-39243.5
-39612
-40012.8
-40499.7
-40971.4
-41392.5
-41789.9
-42212.3
-42694.9
-43185
-43642.1
-44053.9
-44483.7
-44978.4
-45506.4
-45975.4
-46398.7
-46833.6
-47356.4
-47921.8
-48392.4
-48827.6
-49268.9
-49825.6
-50440.4
-50888.6
-51323.9
-51822.4
-52382.7
-53016.4
-53472.6
-53933.3
-54497.3
-55014.3
-55605.6
-56196.3
-56699.8
-57189.1
-57718.5
-58330.5
-58997
-59487
-59999
-60469.8
-60900.9
-61525.7
-62289.7
-62932
-63731.8
-64473.1
-65184.9
-65868.2
-66533
-67154.6
-67763.9
-68416.2
-69097.1
-69764.3
-70418.9
-71072.2
-71749.5
-72464.5
-73191.8
-73897.7
-74586.2
-75286.5
-76020.1
-76775.7
-77531
-78266
-79004.6
-79765
-80556.7
-81358.1
-82142.6
-82913.8
-83688.2
-84498.2
-85330.8
-86167.1
-86982.9
-87789.7
-88614.8
-89468.2
-90346.1
-91218.8
-92066.8
-92905.8
-93764
-94653.3
-95569
-96472.1
-97349.1
-98217.9
-99105.7
-100029
-100970
-101897
-102798
-103690
-104602
-105545
-106494
-107425
-108332
-109235
-110158
-111107
-112065
-112994
-113897
-114789
-115696
-116628
-117563
-118476
-119353
-120213
-121090
-121998
-122915
-123808
-124658
-125469
-126283
-127127
-127985
-128821
-129616
-130381
-131145
-131927
-132721
-133498
-134234
-134937
-135634
-136341
-137059
-137767
-138438
-139066
-139682
-140316
-140972
-141632
-142258
-142830
-143370
-143921
-144502
-145095
-145669
-146205
-146704
-147196
-147710
-148247
-148779
-149279
-149750
-150204
-150669
-151163
-151670
-152149
-152586
-153006
-153439
-153901
-154390
-154873
-155314
-155716
-156115
-156537
-156989
-157466
-157933
-158353
-158741
-159144
-159577
-160033
-160496
-160935
-161336
-161727
-162146
-162594
-163056
-163509
-163932
-164317
-164707
-165143
-165616
-166091
-166545
-166964
-167350
-167742
-168178
-168654
-169128
-169576
-169996
-170403
-170821
-171273
-171756
-172228
-172663
-173070
-173479
-173917
-174391
-174889
-175373
-175813
-176217
-176620
-177060
-177541
-178041
-178528
-178980
-179400
-179818
-180271
-180762
-181262
-181736
-182177
-182604
-183046
-183521
-184026
-184541
-185031
-185476
-185893
-186325
-186800
-187313
-187834
-188329
-188789
-189230
-189683
-190169
-190681
-191194
-191682
-192142
-192585
-193041
-193538
-194079
-194625
-195130
-195588
-196028
-196491
-196989
-197516
-198053
-198574
-199061
-199522
-199992
-200501
-201043
-201588
-202106
-202588
-203049
-203520
-204027
-204575
-205140
-205683
-206190
-206666
-207144
-207649
-208190
-208748
-209293
-209808
-210297
-210785
-211298
-211849
-212426
-212996
-213528
-214021
-214501
-215006
-215550
-216123
-216700
-217251
-217769
-218268
-218782
-219335
-219921
-220509
-221067
-221591
-222096
-222608
-223148
-223723
-224319
-224907
-225465
-225990
-226506
-227044
-227618
-228220
-228820
-229390
-229921
-230433
-230965
-231539
-232155
-232776
-233368
-233918
-234443
-234982
-235553
-236159
-236775
-237376
-237949
-238497
-239040
-239600
-240199
-240825
-241457
-242060
-242626
-243171
-243730
-244324
-244951
-245587
-246202
-246786
-247346
-247906
-248491
-249112
-249756
-250401
-251020
-251604
-252172
-252750
-253364
-254011
-254671
-255311
-255917
-256494
-257068
-257670
-258312
-258979
-259645
-260276
-260879
-261463
-262062
-262697
-263358
-264038
-264690
-265325
-265924
-266525
-267142
-267792
-268473
-269152
-269812
-270434
-271035
-271648
-272294
-272981
-273683
-274357
-275011
-275611
-276242
-276874
-277559
-278259
-278941
-279630
-280248
-280900
-281511
-282180
-282864
-283557
-284287
-284931
-285628
-286212
-286897
-287541
-288262
-289013
-289682
-290440
-290993
-291725
-292303
-293055
-293796
-294486
-295307
-295831
-296632
-297132
-297932
-298624
-299357
-300207
-300732
-301613
-302016
-302938
-303468
-304375
-305095
-305764
-306605
-307005
-307990
-308391
-309446
-310028
-310869
-311612
-312129
-313044
-313468
-314519
-315065
-316002
-316684
-317327
-318160
-318662
-319653
-320215
-321196
-321824
-322620
-323306
-323979
-324818
-325470
-326457
-327028
-328013
-328503
-329398
-330036
-330828
-331742
-332363
-333396
-333831
-334866
-335305
-336339
-337001
-337893
-338733
-339390
-340254
-340814
-341821
-342350
-343547
-344089
-345032
-345846
-346301
-347473
-347887
-349053
-349785
-350590
-351535
-352019
-353102
-353579
-354739
-355445
-356355
-357323
-357818
-358943
-359410
-360488
-361310
-362139
-363212
-363751
-364895
-365355
-366509
-367213
-368170
-369242
-369779
-371090
-371458
-372629
-373471
-374197
-375506
-376070
-377224
-378012
-378834
-379919
-380655
-381774
-382728
-383628
-384578
-385637
-386337
-387464
-388508
-389301
-390539
-391479
-392413
-393408
-394559
-395337
-396550
-397692
-398525
-399831
-400791
-401800
-402915
-404061
-405061
-406215
-407553
-408370
-409668
-410967
-411724
-413133
-414508
-415250
-416774
-418180
-418846
-420453
-421785
-422548
-424166
-425529
-426466
-427945
-429405
-430397
-431726
-433323
-434381
-435664
-437347
-438509
-439707
-441353
-442644
-443755
-445351
-446825
-447933
-449441
-451029
-452176
-453524
-455139
-456407
-457612
-459261
-460641
-461784
-463347
-464833
-465845
-467428
-468798
-469966
-471322
-472858
-473820
-475386
-476491
-477881
-478890
-480421
-481285
-482814
-483608
-485186
-485907
-487311
-488166
-489505
-490097
-491582
-492281
-493283
-494231
-495344
-495888
-496964
-497901
-498501
-499367
-500220
-500948
-501523
-502442
-502985
-503732
-504295
-504965
-505590
-506169
-506643
-507317
-507874
-508286
-508775
-509545
-509782
-510252
-510906
-511376
-511597
-512225
-512783
-513095
-513417
-514181
-514515
-514828
-515400
-516009
-516255
-516772
-517343
-517863
-518162
-518806
-519377
-519841
-520239
-521031
-521510
-522008
-522582
-523343
-523838
-524440
-525052
-525834
-526429
-527095
-527738
-528567
-529250
-529972
-530644
-531528
-532254
-533070
-533812
-534717
-535487
-536403
-537202
-538143
-538949
-539905
-540768
-541773
-542649
-543648
-544539
-545575
-546507
-547567
-548513
-549584
-550554
-551660
-552654
-553766
-554780
-555934
-556997
-558179
-559262
-560473
-561611
-562881
-564068
-565375
-566619
-568005
-569351
-570828
-572266
-573831
-575391
-577088
-578807
-580647
-582522
-584511
-586569
-588734
-590988
-593324
-595763
-598265
-600889
-603548
-606331
-609110
-612004
-614860
-617814
-620694
-623640
-626478
-629336
-632064
-634764
-637322
-639796
-642123
-644306
-646385
-648207
-650070
-651515
-652995
-654127
-655394
-656272
-657206
-657820
-658558
-659028
-659648
-659898
-660334
-660607
-661036
-661195
-661594
-661769
-662151
-662379
-662843
-663054
-663490
-663808
-664355
-664673
-665262
-665675
-666251
-666698
-667449
-667939
-668608
-669151
-669924
-670526
-671367
-671974
-672779
-673439
-674321
-675053
-676000
-676680
-677554
-678340
-679347
-680140
-681137
-681916
-682888
-683766
-684857
-685710
-686774
-687622
-688765
-690568
)
;

boundaryField
{
    sides
    {
        type            calculated;
        value           nonuniform List<scalar> 2(-690568 268.983);
    }
    empty
    {
        type            empty;
    }
}


// ************************************************************************* //
