/*--------------------------------*- C++ -*----------------------------------*\
  =========                 |
  \\      /  F ield         | OpenFOAM: The Open Source CFD Toolbox
   \\    /   O peration     | Website:  https://openfoam.org
    \\  /    A nd           | Version:  9
     \\/     M anipulation  |
\*---------------------------------------------------------------------------*/
FoamFile
{
    format      ascii;
    class       volScalarField;
    location    "0.04";
    object      p_0;
}
// * * * * * * * * * * * * * * * * * * * * * * * * * * * * * * * * * * * * * //

dimensions      [1 -1 -2 0 0 0 0];

internalField   nonuniform List<scalar> 
1000
(
12496.9
12495.3
12492.5
12490
12487.9
12485.8
12483.7
12481.6
12479.5
12477.3
12475.2
12473.1
12471
12468.9
12466.8
12464.7
12462.6
12460.5
12458.4
12456.3
12454.2
12452.1
12450
12448
12445.9
12443.8
12441.7
12439.7
12437.6
12435.5
12433.5
12431.4
12429.4
12427.3
12425.3
12423.2
12421.2
12419.1
12417.1
12415.1
12413
12411
12409
12406.9
12404.9
12402.9
12400.9
12398.9
12396.9
12394.9
12392.9
12390.9
12388.9
12386.9
12384.9
12382.9
12380.9
12379
12377
12375
12373
12371.1
12369.1
12367.2
12365.2
12363.3
12361.3
12359.4
12357.4
12355.5
12353.6
12351.6
12349.7
12347.8
12345.9
12343.9
12342
12340.1
12338.2
12336.3
12334.4
12332.5
12330.6
12328.7
12326.9
12325
12323.1
12321.2
12319.4
12317.5
12315.7
12313.8
12312
12310.1
12308.3
12306.5
12304.6
12302.8
12301
12299.2
12297.4
12295.6
12293.8
12292
12290.2
12288.4
12286.6
12284.9
12283.1
12281.3
12279.6
12277.8
12276.1
12274.4
12272.6
12270.9
12269.2
12267.5
12265.8
12264.1
12262.4
12260.7
12259
12257.3
12255.7
12254
12252.4
12250.7
12249.1
12247.5
12245.8
12244.2
12242.6
12241
12239.4
12237.9
12236.3
12234.7
12233.2
12231.6
12230.1
12228.6
12227
12225.5
12224
12222.5
12221.1
12219.6
12218.1
12216.7
12215.3
12213.8
12212.4
12211
12209.6
12208.2
12206.9
12205.5
12204.2
12202.8
12201.5
12200.2
12198.9
12197.7
12196.4
12195.1
12193.9
12192.7
12191.5
12190.3
12189.1
12188
12186.8
12185.7
12184.6
12183.5
12182.4
12181.4
12180.3
12179.3
12178.3
12177.3
12176.4
12175.4
12174.5
12173.6
12172.7
12171.9
12171
12170.2
12169.4
12168.7
12167.9
12167.2
12166.5
12165.9
12165.2
12164.6
12164
12163.5
12163
12162.5
12162
12161.5
12161.1
12160.7
12160.4
12160.1
12159.8
12159.5
12159.3
12159.1
12158.9
12158.8
12158.7
12158.7
12158.6
12158.7
12158.7
12158.7
12158.8
12158.9
12159.1
12159.4
12159.8
12160.2
12160.7
12161.2
12161.8
12162.4
12163.1
12163.8
12164.5
12165.4
12166.2
12167.2
12168.2
12169.2
12170.3
12171.5
12172.7
12174
12175.4
12176.8
12178.3
12179.8
12181.5
12183.2
12185
12186.8
12188.7
12190.7
12192.8
12195
12197.2
12199.6
12202
12204.4
12207
12209.7
12212.4
12215.3
12218.2
12221.2
12224.4
12227.6
12230.9
12234.3
12237.8
12241.3
12245
12248.8
12252.7
12256.7
12260.8
12265
12269.3
12273.7
12278.2
12282.8
12287.5
12292.3
12297.2
12302.2
12307.3
12312.5
12317.8
12323.3
12328.8
12334.4
12340.1
12346
12351.9
12357.9
12364
12370.2
12376.5
12382.9
12389.4
12396
12402.6
12409.4
12416.2
12423.1
12430.1
12437.2
12444.4
12451.6
12458.9
12466.3
12473.7
12481.2
12488.8
12496.4
12504.1
12511.9
12519.7
12527.5
12535.5
12543.4
12551.4
12559.5
12567.6
12575.7
12583.9
12592.2
12600.4
12608.7
12617
12625.4
12633.8
12642.2
12650.6
12659.1
12667.6
12676.1
12684.7
12693.2
12701.8
12710.4
12719
12727.7
12736.3
12745
12753.7
12762.4
12771.1
12779.8
12788.5
12797.3
12806.1
12814.8
12823.6
12832.4
12841.2
12850
12858.9
12867.7
12876.6
12885.4
12894.3
12903.1
12912
12920.9
12929.8
12938.7
12947.6
12956.6
12965.5
12974.4
12983.4
12992.3
13001.3
13010.3
13019.2
13028.2
13037.2
13046.2
13055.2
13064.2
13073.3
13082.3
13091.3
13100.4
13109.4
13118.5
13127.6
13136.6
13145.7
13154.8
13163.9
13173
13182.1
13191.3
13200.4
13209.5
13218.7
13227.8
13237
13246.1
13255.3
13264.5
13273.7
13282.9
13292.1
13301.3
13310.5
13319.7
13329
13338.2
13347.4
13356.7
13366
13375.2
13384.5
13393.8
13403.1
13412.4
13421.7
13431
13440.3
13449.7
13459
13468.3
13477.7
13487.1
13496.4
13505.8
13515.2
13524.6
13534
13543.4
13552.8
13562.2
13571.7
13581.1
13590.5
13600
13609.5
13618.9
13628.4
13637.9
13647.4
13656.9
13666.4
13675.9
13685.4
13695
13704.5
13714.1
13723.6
13733.2
13742.8
13752.3
13761.9
13771.5
13781.1
13790.7
13800.4
13810
13819.6
13829.3
13838.9
13848.6
13858.3
13867.9
13877.6
13887.3
13897
13906.7
13916.5
13926.2
13935.9
13945.7
13955.4
13965.2
13975
13984.7
13994.5
14004.3
14014.1
14023.9
14033.7
14043.6
14053.4
14063.3
14073.1
14083
14092.8
14102.7
14112.6
14122.5
14132.4
14142.3
14152.2
14162.2
14172.1
14182.1
14192
14202
14211.9
14221.9
14231.9
14241.9
14251.9
14261.9
14272
14282
14292
14302.1
14312.1
14322.2
14332.3
14342.4
14352.5
14362.6
14372.7
14382.8
14392.9
14403.1
14413.2
14423.4
14433.5
14443.7
14453.9
14464.1
14474.3
14484.5
14494.7
14504.9
14515.1
14525.4
14535.6
14545.9
14556.2
14566.4
14576.7
14587
14597.3
14607.6
14617.9
14628.3
14638.6
14649
14659.3
14669.7
14680.1
14690.4
14700.8
14711.2
14721.6
14732.1
14742.5
14752.9
14763.4
14773.8
14784.3
14794.8
14805.2
14815.7
14826.2
14836.7
14847.3
14857.8
14868.3
14878.9
14889.4
14900
14910.6
14921.1
14931.7
14942.3
14952.9
14963.6
14974.2
14984.8
14995.5
15006.1
15016.8
15027.5
15038.1
15048.8
15059.5
15070.2
15081
15091.7
15102.4
15113.2
15123.9
15134.7
15145.5
15156.3
15167
15177.8
15188.7
15199.5
15210.3
15221.1
15232
15242.8
15253.7
15264.6
15275.5
15286.4
15297.3
15308.2
15319.1
15330
15341
15351.9
15362.9
15373.9
15384.8
15395.8
15406.8
15417.8
15428.8
15439.9
15450.9
15461.9
15473
15484
15495.1
15506.2
15517.3
15528.4
15539.5
15550.6
15561.7
15572.9
15584
15595.2
15606.4
15617.5
15628.7
15639.9
15651.1
15662.3
15673.5
15684.8
15696
15707.3
15718.5
15729.8
15741.1
15752.4
15763.7
15775
15786.3
15797.6
15809
15820.3
15831.7
15843.1
15854.4
15865.8
15877.2
15888.6
15900.1
15911.5
15922.9
15934.4
15945.8
15957.3
15968.8
15980.3
15991.8
16003.3
16014.8
16026.3
16037.9
16049.4
16061
16072.6
16084.2
16095.8
16107.4
16119
16130.6
16142.3
16153.9
16165.6
16177.3
16189
16200.7
16212.4
16224.1
16235.9
16247.6
16259.4
16271.2
16283
16294.8
16306.6
16318.5
16330.3
16342.2
16354.1
16366
16377.9
16389.9
16401.8
16413.8
16425.8
16437.8
16449.9
16461.9
16474
16486.1
16498.2
16510.4
16522.5
16534.7
16546.9
16559.2
16571.4
16583.7
16596.1
16608.4
16620.8
16633.2
16645.7
16658.2
16670.7
16683.2
16695.8
16708.4
16721.1
16733.8
16746.6
16759.4
16772.2
16785.1
16798
16811
16824
16837.1
16850.3
16863.5
16876.7
16890
16903.4
16916.8
16930.3
16943.9
16957.6
16971.3
16985
16998.9
17012.8
17026.8
17040.9
17055.1
17069.3
17083.7
17098.1
17112.6
17127.2
17141.9
17156.7
17171.6
17186.6
17201.7
17216.9
17232.2
17247.6
17263.1
17278.8
17294.5
17310.3
17326.3
17342.3
17358.5
17374.8
17391.2
17407.7
17424.4
17441.1
17458
17475
17492.1
17509.3
17526.6
17544.1
17561.6
17579.3
17597.1
17615
17633
17651.1
17669.3
17687.6
17706
17724.5
17743.1
17761.8
17780.6
17799.4
17818.3
17837.4
17856.4
17875.6
17894.8
17914.1
17933.4
17952.8
17972.2
17991.6
18011.1
18030.6
18050.2
18069.8
18089.3
18108.9
18128.5
18148.1
18167.7
18187.3
18206.8
18226.3
18245.8
18265.3
18284.8
18304.2
18323.5
18342.8
18362.1
18381.3
18400.4
18419.5
18438.5
18457.4
18476.3
18495.1
18513.8
18532.4
18551
18569.4
18587.8
18606.1
18624.3
18642.4
18660.4
18678.4
18696.2
18714
18731.6
18749.2
18766.7
18784.1
18801.3
18818.6
18835.7
18852.7
18869.7
18886.5
18903.3
18920
18936.6
18953.1
18969.6
18986
19002.3
19018.5
19034.7
19050.8
19066.8
19082.8
19098.7
19114.6
19130.3
19146.1
19161.7
19177.4
19192.9
19208.5
19223.9
19239.4
19254.8
19270.1
19285.4
19300.7
19315.9
19331.1
19346.3
19361.4
19376.5
19391.6
19406.7
19421.7
19436.7
19451.7
19466.7
19481.7
19496.6
19511.5
19526.4
19541.4
19556.2
19571.1
19586
19600.9
19615.8
19630.8
19645.7
19660.6
19675.6
19690.6
19705.7
19720.8
19736
19751.3
19766.6
19782
19797.6
19813.3
19829.1
19845.1
19861.3
19877.7
19894.3
19911.2
19928.3
19945.7
19963.4
19981.5
19999.8
20018.5
20037.6
20057.1
20076.9
20097.2
20117.8
20138.8
20160.1
20181.8
20203.9
20226.3
20249
20272
20295.2
20318.7
20342.3
20366.1
20390.1
20414.1
20438.2
20462.3
20486.4
20510.5
20534.5
20558.5
20582.3
20606.1
20629.7
20653.1
20676.5
20699.6
20722.6
20745.5
20768.2
20790.7
20813
20835.2
20857.2
20879.1
20900.8
20922.4
20943.8
20965.1
20986.2
21007.2
21028.1
21048.9
21069.5
21090
21110.4
21130.7
21150.9
21170.9
21190.9
21210.8
21230.5
21250.2
21269.8
21289.3
21308.7
21328
21347.2
21366.4
21385.4
21404.4
21423.3
21442.2
21460.9
21479.6
21498.2
21516.6
21535.1
21553
)
;

boundaryField
{
    sides
    {
        type            zeroGradient;
    }
    empty
    {
        type            empty;
    }
}


// ************************************************************************* //
