/*--------------------------------*- C++ -*----------------------------------*\
  =========                 |
  \\      /  F ield         | OpenFOAM: The Open Source CFD Toolbox
   \\    /   O peration     | Website:  https://openfoam.org
    \\  /    A nd           | Version:  9
     \\/     M anipulation  |
\*---------------------------------------------------------------------------*/
FoamFile
{
    format      ascii;
    class       volScalarField;
    location    "0.036";
    object      rho;
}
// * * * * * * * * * * * * * * * * * * * * * * * * * * * * * * * * * * * * * //

dimensions      [1 -3 0 0 0 0 0];

internalField   nonuniform List<scalar> 
10000
(
0.236944
0.236941
0.236936
0.236932
0.236927
0.236923
0.236918
0.236913
0.236909
0.236904
0.236899
0.236894
0.236889
0.236884
0.236879
0.236874
0.236869
0.236864
0.236858
0.236853
0.236848
0.236842
0.236837
0.236832
0.236827
0.236821
0.236816
0.23681
0.236804
0.236799
0.236793
0.236788
0.236783
0.236778
0.236773
0.236768
0.236762
0.236757
0.236751
0.236745
0.236739
0.236733
0.236727
0.236722
0.236716
0.236712
0.236707
0.236703
0.236699
0.236696
0.236693
0.23669
0.236687
0.236685
0.236683
0.23668
0.236678
0.236676
0.236674
0.236673
0.236671
0.236669
0.236668
0.236666
0.236665
0.236663
0.236662
0.23666
0.236659
0.236658
0.236657
0.236656
0.236655
0.236654
0.236653
0.236652
0.236651
0.23665
0.236649
0.236648
0.236648
0.236647
0.236647
0.236646
0.236646
0.236645
0.236645
0.236645
0.236645
0.236645
0.236644
0.236644
0.236644
0.236645
0.236645
0.236645
0.236645
0.236645
0.236646
0.236646
0.236646
0.236647
0.236647
0.236648
0.236648
0.236649
0.23665
0.23665
0.236651
0.236652
0.236652
0.236653
0.236654
0.236655
0.236656
0.236657
0.236657
0.236658
0.236659
0.23666
0.236661
0.236662
0.236663
0.236664
0.236665
0.236666
0.236667
0.236668
0.236669
0.236669
0.23667
0.236671
0.236672
0.236673
0.236674
0.236675
0.236675
0.236676
0.236677
0.236678
0.236678
0.236679
0.236679
0.23668
0.23668
0.236681
0.236681
0.236682
0.236682
0.236682
0.236683
0.236683
0.236683
0.236683
0.236683
0.236683
0.236683
0.236683
0.236682
0.236682
0.236682
0.236681
0.236681
0.23668
0.23668
0.236679
0.236679
0.236678
0.236677
0.236676
0.236675
0.236674
0.236673
0.236672
0.236671
0.23667
0.236668
0.236667
0.236666
0.236664
0.236663
0.236661
0.236659
0.236658
0.236656
0.236654
0.236653
0.236651
0.236649
0.236647
0.236645
0.236643
0.236641
0.236639
0.236637
0.236635
0.236633
0.236631
0.236629
0.236627
0.236625
0.236623
0.236621
0.236618
0.236616
0.236614
0.236612
0.23661
0.236608
0.236606
0.236603
0.236601
0.236599
0.236597
0.236595
0.236593
0.236591
0.236589
0.236587
0.236585
0.236583
0.236581
0.23658
0.236578
0.236576
0.236574
0.236573
0.236571
0.236569
0.236568
0.236566
0.236565
0.236563
0.236562
0.23656
0.236559
0.236558
0.236557
0.236556
0.236555
0.236554
0.236553
0.236552
0.236551
0.23655
0.236549
0.236549
0.236548
0.236547
0.236547
0.236546
0.236546
0.236546
0.236545
0.236545
0.236545
0.236545
0.236545
0.236545
0.236545
0.236545
0.236545
0.236545
0.236545
0.236545
0.236546
0.236546
0.236546
0.236547
0.236547
0.236548
0.236548
0.236549
0.23655
0.23655
0.236551
0.236552
0.236552
0.236553
0.236554
0.236555
0.236556
0.236556
0.236557
0.236558
0.236559
0.23656
0.236561
0.236562
0.236563
0.236563
0.236564
0.236565
0.236566
0.236567
0.236568
0.236569
0.23657
0.236571
0.236571
0.236572
0.236573
0.236574
0.236575
0.236575
0.236576
0.236577
0.236577
0.236578
0.236578
0.236579
0.236579
0.23658
0.23658
0.236581
0.236581
0.236581
0.236582
0.236582
0.236582
0.236582
0.236582
0.236582
0.236582
0.236582
0.236582
0.236581
0.236581
0.236581
0.23658
0.23658
0.236579
0.236579
0.236578
0.236577
0.236577
0.236576
0.236575
0.236574
0.236573
0.236572
0.236571
0.23657
0.236569
0.236567
0.236566
0.236565
0.236563
0.236562
0.23656
0.236559
0.236557
0.236555
0.236553
0.236552
0.23655
0.236548
0.236546
0.236544
0.236542
0.23654
0.236538
0.236536
0.236534
0.236532
0.23653
0.236528
0.236526
0.236524
0.236522
0.236519
0.236517
0.236515
0.236513
0.236511
0.236508
0.236506
0.236504
0.236502
0.2365
0.236497
0.236495
0.236493
0.236491
0.236489
0.236487
0.236485
0.236483
0.236481
0.236479
0.236477
0.236475
0.236473
0.236471
0.236469
0.236467
0.236466
0.236464
0.236462
0.23646
0.236459
0.236457
0.236456
0.236454
0.236453
0.236452
0.23645
0.236449
0.236448
0.236447
0.236445
0.236444
0.236443
0.236442
0.236441
0.236441
0.23644
0.236439
0.236438
0.236438
0.236437
0.236437
0.236436
0.236436
0.236435
0.236435
0.236435
0.236434
0.236434
0.236434
0.236434
0.236434
0.236434
0.236434
0.236434
0.236434
0.236435
0.236435
0.236435
0.236435
0.236436
0.236436
0.236436
0.236437
0.236437
0.236438
0.236438
0.236439
0.236439
0.23644
0.236441
0.236441
0.236442
0.236442
0.236443
0.236444
0.236444
0.236445
0.236446
0.236446
0.236447
0.236448
0.236449
0.236449
0.23645
0.236451
0.236451
0.236452
0.236453
0.236453
0.236454
0.236455
0.236455
0.236456
0.236456
0.236457
0.236457
0.236458
0.236458
0.236459
0.236459
0.23646
0.23646
0.23646
0.236461
0.236461
0.236461
0.236461
0.236462
0.236462
0.236462
0.236462
0.236462
0.236462
0.236462
0.236461
0.236461
0.236461
0.236461
0.23646
0.23646
0.23646
0.236459
0.236459
0.236458
0.236458
0.236457
0.236456
0.236455
0.236455
0.236454
0.236453
0.236452
0.236451
0.23645
0.236449
0.236448
0.236446
0.236445
0.236444
0.236442
0.236441
0.23644
0.236438
0.236437
0.236435
0.236433
0.236432
0.23643
0.236428
0.236427
0.236425
0.236423
0.236421
0.236419
0.236417
0.236415
0.236413
0.236411
0.23641
0.236408
0.236405
0.236403
0.236401
0.236399
0.236397
0.236395
0.236393
0.236391
0.236389
0.236387
0.236385
0.236383
0.236381
0.236379
0.236377
0.236375
0.236373
0.236371
0.23637
0.236368
0.236366
0.236364
0.236362
0.236361
0.236359
0.236357
0.236355
0.236354
0.236352
0.236351
0.236349
0.236348
0.236346
0.236345
0.236344
0.236343
0.236341
0.23634
0.236339
0.236338
0.236337
0.236336
0.236335
0.236334
0.236333
0.236332
0.236332
0.236331
0.23633
0.23633
0.236329
0.236328
0.236328
0.236328
0.236327
0.236327
0.236326
0.236326
0.236326
0.236326
0.236326
0.236325
0.236325
0.236325
0.236325
0.236325
0.236325
0.236325
0.236325
0.236325
0.236326
0.236326
0.236326
0.236326
0.236326
0.236326
0.236327
0.236327
0.236327
0.236327
0.236328
0.236328
0.236328
0.236328
0.236329
0.236329
0.236329
0.236329
0.23633
0.23633
0.23633
0.23633
0.236331
0.236331
0.236331
0.236331
0.236332
0.236332
0.236332
0.236332
0.236332
0.236332
0.236332
0.236332
0.236332
0.236332
0.236332
0.236332
0.236332
0.236332
0.236332
0.236332
0.236331
0.236331
0.236331
0.23633
0.23633
0.23633
0.236329
0.236329
0.236328
0.236328
0.236327
0.236326
0.236326
0.236325
0.236324
0.236324
0.236323
0.236322
0.236321
0.23632
0.236319
0.236318
0.236317
0.236316
0.236314
0.236313
0.236312
0.236311
0.236309
0.236308
0.236306
0.236305
0.236303
0.236302
0.2363
0.236299
0.236297
0.236296
0.236294
0.236292
0.236291
0.236289
0.236287
0.236285
0.236284
0.236282
0.23628
0.236278
0.236277
0.236275
0.236273
0.236271
0.23627
0.236268
0.236266
0.236265
0.236263
0.236261
0.23626
0.236258
0.236256
0.236255
0.236253
0.236252
0.23625
0.236249
0.236247
0.236246
0.236245
0.236243
0.236242
0.236241
0.23624
0.236238
0.236237
0.236236
0.236235
0.236234
0.236233
0.236232
0.236231
0.23623
0.23623
0.236229
0.236228
0.236227
0.236227
0.236226
0.236226
0.236225
0.236224
0.236224
0.236224
0.236223
0.236223
0.236223
0.236222
0.236222
0.236222
0.236222
0.236222
0.236221
0.236221
0.236221
0.236221
0.236221
0.236221
0.236221
0.236221
0.236221
0.236222
0.236222
0.236222
0.236222
0.236222
0.236222
0.236222
0.236222
0.236223
0.236223
0.236223
0.236223
0.236223
0.236223
0.236224
0.236224
0.236224
0.236224
0.236224
0.236224
0.236224
0.236224
0.236224
0.236224
0.236225
0.236225
0.236225
0.236224
0.236224
0.236224
0.236224
0.236224
0.236224
0.236224
0.236224
0.236223
0.236223
0.236223
0.236222
0.236222
0.236221
0.236221
0.236221
0.23622
0.236219
0.236219
0.236218
0.236217
0.236217
0.236216
0.236215
0.236214
0.236213
0.236212
0.236211
0.23621
0.236209
0.236208
0.236206
0.236205
0.236204
0.236203
0.236201
0.2362
0.236198
0.236197
0.236195
0.236194
0.236192
0.23619
0.236189
0.236187
0.236185
0.236183
0.236182
0.23618
0.236178
0.236176
0.236174
0.236172
0.23617
0.236168
0.236167
0.236165
0.236163
0.236161
0.236159
0.236157
0.236155
0.236153
0.236151
0.236149
0.236147
0.236145
0.236144
0.236142
0.23614
0.236138
0.236136
0.236134
0.236133
0.236131
0.236129
0.236128
0.236126
0.236124
0.236123
0.236121
0.23612
0.236118
0.236117
0.236115
0.236114
0.236113
0.236111
0.23611
0.236109
0.236108
0.236107
0.236105
0.236104
0.236103
0.236102
0.236102
0.236101
0.2361
0.236099
0.236098
0.236097
0.236097
0.236096
0.236096
0.236095
0.236095
0.236094
0.236094
0.236093
0.236093
0.236093
0.236092
0.236092
0.236092
0.236092
0.236091
0.236091
0.236091
0.236091
0.236091
0.236091
0.236091
0.236091
0.236091
0.236091
0.236091
0.236091
0.236092
0.236092
0.236092
0.236092
0.236092
0.236092
0.236092
0.236093
0.236093
0.236093
0.236093
0.236093
0.236094
0.236094
0.236094
0.236094
0.236095
0.236095
0.236095
0.236095
0.236096
0.236096
0.236096
0.236096
0.236096
0.236097
0.236097
0.236097
0.236097
0.236097
0.236097
0.236097
0.236097
0.236097
0.236097
0.236097
0.236097
0.236097
0.236097
0.236097
0.236097
0.236097
0.236096
0.236096
0.236096
0.236096
0.236095
0.236095
0.236094
0.236094
0.236094
0.236093
0.236092
0.236092
0.236091
0.23609
0.23609
0.236089
0.236088
0.236087
0.236086
0.236085
0.236084
0.236083
0.236082
0.236081
0.236079
0.236078
0.236077
0.236075
0.236074
0.236072
0.236071
0.236069
0.236068
0.236066
0.236064
0.236063
0.236061
0.236059
0.236057
0.236055
0.236054
0.236052
0.23605
0.236048
0.236046
0.236044
0.236042
0.23604
0.236038
0.236036
0.236034
0.236032
0.23603
0.236027
0.236025
0.236023
0.236021
0.236019
0.236017
0.236015
0.236013
0.236011
0.236008
0.236006
0.236004
0.236002
0.236
0.235998
0.235996
0.235994
0.235992
0.23599
0.235988
0.235986
0.235984
0.235983
0.235981
0.235979
0.235977
0.235975
0.235974
0.235972
0.23597
0.235969
0.235967
0.235965
0.235964
0.235962
0.235961
0.23596
0.235958
0.235957
0.235956
0.235954
0.235953
0.235952
0.235951
0.23595
0.235949
0.235948
0.235947
0.235946
0.235945
0.235944
0.235943
0.235943
0.235942
0.235941
0.235941
0.23594
0.23594
0.235939
0.235939
0.235938
0.235938
0.235938
0.235938
0.235937
0.235937
0.235937
0.235937
0.235937
0.235937
0.235936
0.235936
0.235936
0.235936
0.235936
0.235936
0.235937
0.235937
0.235937
0.235937
0.235937
0.235937
0.235937
0.235938
0.235938
0.235938
0.235938
0.235939
0.235939
0.235939
0.23594
0.23594
0.23594
0.235941
0.235941
0.235941
0.235941
0.235942
0.235942
0.235942
0.235943
0.235943
0.235943
0.235943
0.235944
0.235944
0.235944
0.235944
0.235944
0.235944
0.235944
0.235944
0.235944
0.235944
0.235944
0.235944
0.235944
0.235944
0.235944
0.235944
0.235944
0.235943
0.235943
0.235942
0.235942
0.235941
0.235941
0.23594
0.23594
0.235939
0.235938
0.235937
0.235936
0.235935
0.235934
0.235933
0.235932
0.235931
0.23593
0.235929
0.235927
0.235926
0.235925
0.235923
0.235922
0.23592
0.235919
0.235917
0.235916
0.235914
0.235912
0.235911
0.235909
0.235907
0.235906
0.235904
0.235902
0.235901
0.235899
0.235897
0.235895
0.235894
0.235892
0.23589
0.235889
0.235887
0.235885
0.235884
0.235882
0.23588
0.235879
0.235877
0.235875
0.235874
0.235872
0.23587
0.235869
0.235867
0.235866
0.235864
0.235863
0.235861
0.23586
0.235858
0.235857
0.235855
0.235853
0.235852
0.235851
0.235849
0.235848
0.235846
0.235845
0.235843
0.235842
0.23584
0.235839
0.235837
0.235836
0.235834
0.235833
0.235831
0.23583
0.235829
0.235827
0.235826
0.235824
0.235823
0.235821
0.23582
0.235819
0.235817
0.235816
0.235814
0.235813
0.235812
0.23581
0.235809
0.235807
0.235806
0.235805
0.235804
0.235802
0.235801
0.2358
0.235799
0.235797
0.235796
0.235795
0.235794
0.235793
0.235792
0.235791
0.23579
0.235789
0.235788
0.235787
0.235786
0.235785
0.235785
0.235784
0.235783
0.235782
0.235782
0.235781
0.235781
0.23578
0.23578
0.235779
0.235779
0.235778
0.235778
0.235778
0.235778
0.235777
0.235777
0.235777
0.235777
0.235777
0.235777
0.235777
0.235777
0.235777
0.235777
0.235777
0.235777
0.235778
0.235778
0.235778
0.235778
0.235778
0.235779
0.235779
0.235779
0.235779
0.23578
0.23578
0.23578
0.235781
0.235781
0.235781
0.235782
0.235782
0.235782
0.235782
0.235783
0.235783
0.235783
0.235783
0.235783
0.235784
0.235784
0.235784
0.235784
0.235784
0.235784
0.235784
0.235784
0.235783
0.235783
0.235783
0.235783
0.235782
0.235782
0.235781
0.235781
0.23578
0.235779
0.235778
0.235777
0.235776
0.235775
0.235774
0.235773
0.235771
0.23577
0.235768
0.235767
0.235765
0.235764
0.235762
0.23576
0.235758
0.235756
0.235754
0.235752
0.235749
0.235747
0.235745
0.235742
0.23574
0.235738
0.235735
0.235732
0.23573
0.235727
0.235725
0.235722
0.235719
0.235717
0.235714
0.235712
0.235709
0.235706
0.235704
0.235701
0.235699
0.235696
0.235694
0.235691
0.235689
0.235686
0.235684
0.235682
0.235679
0.235677
0.235675
0.235673
0.235671
0.235669
0.235667
0.235665
0.235663
0.235661
0.23566
0.235658
0.235657
0.235655
0.235654
0.235652
0.235651
0.23565
0.235648
0.235647
0.235646
0.235645
0.235644
0.235643
0.235642
0.235642
0.235641
0.23564
0.235639
0.235639
0.235638
0.235638
0.235637
0.235637
0.235636
0.235636
0.235636
0.235635
0.235635
0.235635
0.235635
0.235634
0.235634
0.235634
0.235634
0.235634
0.235633
0.235633
0.235633
0.235633
0.235633
0.235633
0.235632
0.235632
0.235632
0.235632
0.235631
0.235631
0.235631
0.23563
0.23563
0.23563
0.235629
0.235629
0.235628
0.235628
0.235627
0.235627
0.235626
0.235625
0.235625
0.235624
0.235623
0.235622
0.235622
0.235621
0.23562
0.235619
0.235618
0.235617
0.235616
0.235615
0.235614
0.235613
0.235612
0.235611
0.23561
0.235609
0.235608
0.235607
0.235606
0.235605
0.235604
0.235603
0.235602
0.235601
0.2356
0.235599
0.235598
0.235598
0.235597
0.235596
0.235595
0.235594
0.235593
0.235593
0.235592
0.235591
0.235591
0.23559
0.235589
0.235589
0.235588
0.235588
0.235587
0.235587
0.235586
0.235586
0.235585
0.235585
0.235585
0.235584
0.235584
0.235583
0.235583
0.235583
0.235582
0.235582
0.235582
0.235582
0.235581
0.235581
0.235581
0.23558
0.23558
0.23558
0.235579
0.235579
0.235578
0.235578
0.235577
0.235577
0.235576
0.235576
0.235575
0.235575
0.235574
0.235573
0.235572
0.235572
0.235571
0.23557
0.235569
0.235568
0.235567
0.235566
0.235564
0.235563
0.235562
0.23556
0.235559
0.235558
0.235556
0.235555
0.235553
0.235551
0.23555
0.235548
0.235546
0.235544
0.235543
0.235541
0.235539
0.235537
0.235535
0.235533
0.235531
0.235529
0.235527
0.235525
0.235524
0.235522
0.23552
0.235518
0.235516
0.235514
0.235512
0.235511
0.235509
0.235507
0.235505
0.235504
0.235502
0.235501
0.235499
0.235498
0.235496
0.235495
0.235493
0.235492
0.235491
0.23549
0.235488
0.235487
0.235486
0.235485
0.235484
0.235483
0.235482
0.235481
0.23548
0.23548
0.235479
0.235478
0.235477
0.235477
0.235476
0.235475
0.235475
0.235474
0.235474
0.235473
0.235473
0.235472
0.235472
0.235471
0.235471
0.23547
0.23547
0.235469
0.235469
0.235468
0.235468
0.235467
0.235467
0.235466
0.235466
0.235465
0.235465
0.235464
0.235463
0.235463
0.235462
0.235461
0.23546
0.235459
0.235459
0.235458
0.235457
0.235456
0.235454
0.235453
0.235452
0.235451
0.23545
0.235448
0.235447
0.235446
0.235444
0.235443
0.235441
0.23544
0.235438
0.235436
0.235435
0.235433
0.235431
0.23543
0.235428
0.235426
0.235425
0.235423
0.235421
0.23542
0.235418
0.235416
0.235415
0.235413
0.235411
0.23541
0.235408
0.235407
0.235405
0.235404
0.235402
0.235401
0.2354
0.235398
0.235397
0.235396
0.235394
0.235393
0.235392
0.235391
0.23539
0.235389
0.235388
0.235387
0.235386
0.235385
0.235384
0.235383
0.235382
0.235381
0.23538
0.23538
0.235379
0.235378
0.235378
0.235377
0.235376
0.235376
0.235375
0.235375
0.235374
0.235373
0.235373
0.235372
0.235372
0.235371
0.235371
0.235371
0.23537
0.23537
0.235369
0.235369
0.235369
0.235368
0.235368
0.235367
0.235367
0.235367
0.235366
0.235366
0.235365
0.235365
0.235365
0.235364
0.235364
0.235363
0.235363
0.235362
0.235362
0.235361
0.235361
0.23536
0.23536
0.235359
0.235359
0.235358
0.235357
0.235357
0.235356
0.235355
0.235354
0.235353
0.235352
0.235352
0.235351
0.23535
0.235349
0.235348
0.235346
0.235345
0.235344
0.235343
0.235342
0.235341
0.235339
0.235338
0.235337
0.235335
0.235334
0.235332
0.235331
0.23533
0.235328
0.235327
0.235325
0.235324
0.235322
0.235321
0.235319
0.235318
0.235316
0.235315
0.235313
0.235312
0.23531
0.235309
0.235307
0.235306
0.235304
0.235303
0.235301
0.2353
0.235298
0.235297
0.235295
0.235294
0.235293
0.235291
0.23529
0.235288
0.235287
0.235286
0.235284
0.235283
0.235281
0.23528
0.235279
0.235277
0.235276
0.235275
0.235274
0.235272
0.235271
0.23527
0.235269
0.235267
0.235266
0.235265
0.235264
0.235263
0.235262
0.235261
0.235259
0.235258
0.235257
0.235256
0.235255
0.235254
0.235254
0.235253
0.235252
0.235251
0.23525
0.235249
0.235248
0.235248
0.235247
0.235246
0.235246
0.235245
0.235244
0.235244
0.235243
0.235242
0.235242
0.235241
0.235241
0.23524
0.235239
0.235239
0.235238
0.235238
0.235237
0.235237
0.235236
0.235236
0.235235
0.235235
0.235234
0.235233
0.235233
0.235232
0.235232
0.235231
0.23523
0.23523
0.235229
0.235228
0.235227
0.235227
0.235226
0.235225
0.235224
0.235223
0.235222
0.235221
0.23522
0.235219
0.235217
0.235216
0.235215
0.235214
0.235212
0.235211
0.235209
0.235208
0.235207
0.235205
0.235203
0.235202
0.2352
0.235199
0.235197
0.235195
0.235194
0.235192
0.23519
0.235189
0.235187
0.235185
0.235184
0.235182
0.23518
0.235179
0.235177
0.235176
0.235174
0.235172
0.235171
0.235169
0.235168
0.235166
0.235165
0.235163
0.235162
0.235161
0.235159
0.235158
0.235157
0.235155
0.235154
0.235153
0.235152
0.235151
0.23515
0.235148
0.235147
0.235147
0.235146
0.235145
0.235144
0.235143
0.235142
0.235141
0.235141
0.23514
0.235139
0.235139
0.235138
0.235138
0.235137
0.235137
0.235136
0.235136
0.235136
0.235135
0.235135
0.235135
0.235134
0.235134
0.235134
0.235134
0.235133
0.235133
0.235133
0.235133
0.235133
0.235132
0.235132
0.235132
0.235132
0.235132
0.235132
0.235132
0.235131
0.235131
0.235131
0.235131
0.23513
0.23513
0.23513
0.23513
0.235129
0.235129
0.235128
0.235128
0.235128
0.235127
0.235126
0.235126
0.235125
0.235124
0.235124
0.235123
0.235122
0.235121
0.23512
0.235119
0.235118
0.235117
0.235116
0.235114
0.235113
0.235112
0.235111
0.235109
0.235108
0.235106
0.235105
0.235103
0.235102
0.2351
0.235098
0.235097
0.235095
0.235093
0.235092
0.23509
0.235088
0.235086
0.235085
0.235083
0.235081
0.23508
0.235078
0.235076
0.235074
0.235073
0.235071
0.235069
0.235068
0.235066
0.235065
0.235063
0.235061
0.23506
0.235058
0.235057
0.235055
0.235053
0.235052
0.23505
0.235049
0.235047
0.235046
0.235044
0.235043
0.235041
0.235039
0.235038
0.235036
0.235035
0.235033
0.235031
0.23503
0.235028
0.235026
0.235025
0.235023
0.235021
0.235019
0.235018
0.235016
0.235014
0.235012
0.23501
0.235009
0.235007
0.235005
0.235003
0.235001
0.234999
0.234997
0.234996
0.234994
0.234992
0.23499
0.234988
0.234987
0.234985
0.234983
0.234982
0.23498
0.234978
0.234977
0.234975
0.234974
0.234972
0.234971
0.23497
0.234968
0.234967
0.234966
0.234965
0.234964
0.234963
0.234962
0.234961
0.23496
0.234959
0.234958
0.234957
0.234957
0.234956
0.234955
0.234955
0.234954
0.234953
0.234953
0.234952
0.234952
0.234952
0.234951
0.234951
0.23495
0.23495
0.23495
0.234949
0.234949
0.234949
0.234948
0.234948
0.234948
0.234947
0.234947
0.234946
0.234946
0.234946
0.234945
0.234945
0.234944
0.234944
0.234943
0.234942
0.234942
0.234941
0.23494
0.23494
0.234939
0.234938
0.234937
0.234936
0.234935
0.234934
0.234933
0.234932
0.23493
0.234929
0.234928
0.234927
0.234925
0.234924
0.234922
0.234921
0.234919
0.234917
0.234916
0.234914
0.234912
0.234911
0.234909
0.234907
0.234905
0.234903
0.234902
0.2349
0.234898
0.234896
0.234894
0.234893
0.234891
0.234889
0.234887
0.234886
0.234884
0.234882
0.234881
0.234879
0.234877
0.234876
0.234874
0.234873
0.234872
0.23487
0.234869
0.234868
0.234866
0.234865
0.234864
0.234863
0.234862
0.234861
0.23486
0.234859
0.234858
0.234857
0.234856
0.234855
0.234854
0.234853
0.234853
0.234852
0.234851
0.23485
0.234849
0.234849
0.234848
0.234847
0.234846
0.234846
0.234845
0.234844
0.234843
0.234842
0.234841
0.23484
0.234839
0.234838
0.234837
0.234836
0.234835
0.234834
0.234833
0.234831
0.23483
0.234828
0.234827
0.234825
0.234824
0.234822
0.23482
0.234818
0.234817
0.234815
0.234813
0.234811
0.234809
0.234807
0.234805
0.234803
0.234801
0.234799
0.234797
0.234795
0.234793
0.234791
0.234789
0.234787
0.234786
0.234784
0.234782
0.23478
0.234779
0.234777
0.234776
0.234774
0.234773
0.234771
0.23477
0.234768
0.234767
0.234766
0.234765
0.234763
0.234762
0.234761
0.23476
0.234759
0.234758
0.234757
0.234756
0.234755
0.234754
0.234753
0.234752
0.234751
0.23475
0.234749
0.234748
0.234747
0.234745
0.234744
0.234743
0.234742
0.234741
0.234739
0.234738
0.234737
0.234735
0.234734
0.234732
0.23473
0.234729
0.234727
0.234725
0.234723
0.234722
0.23472
0.234718
0.234716
0.234714
0.234712
0.23471
0.234708
0.234706
0.234704
0.234702
0.2347
0.234698
0.234696
0.234694
0.234692
0.23469
0.234688
0.234686
0.234684
0.234682
0.234681
0.234679
0.234677
0.234676
0.234674
0.234673
0.234671
0.23467
0.234668
0.234667
0.234666
0.234664
0.234663
0.234662
0.23466
0.234659
0.234658
0.234657
0.234656
0.234655
0.234654
0.234653
0.234651
0.23465
0.234649
0.234648
0.234647
0.234646
0.234645
0.234644
0.234643
0.234642
0.234641
0.23464
0.234639
0.234638
0.234636
0.234635
0.234634
0.234633
0.234632
0.23463
0.234629
0.234628
0.234626
0.234625
0.234624
0.234622
0.234621
0.234619
0.234618
0.234616
0.234615
0.234613
0.234612
0.23461
0.234609
0.234607
0.234606
0.234604
0.234603
0.234601
0.234599
0.234598
0.234596
0.234595
0.234593
0.234592
0.23459
0.234588
0.234587
0.234585
0.234584
0.234582
0.234581
0.234579
0.234578
0.234576
0.234575
0.234573
0.234572
0.23457
0.234568
0.234567
0.234565
0.234564
0.234562
0.234561
0.234559
0.234558
0.234556
0.234555
0.234553
0.234551
0.23455
0.234548
0.234547
0.234545
0.234544
0.234542
0.23454
0.234539
0.234537
0.234536
0.234534
0.234533
0.234531
0.234529
0.234528
0.234526
0.234525
0.234523
0.234522
0.23452
0.234519
0.234517
0.234516
0.234514
0.234513
0.234511
0.23451
0.234508
0.234507
0.234505
0.234504
0.234502
0.234501
0.2345
0.234498
0.234497
0.234496
0.234494
0.234493
0.234492
0.23449
0.234489
0.234488
0.234487
0.234486
0.234484
0.234483
0.234482
0.234481
0.23448
0.234479
0.234478
0.234477
0.234476
0.234475
0.234474
0.234473
0.234472
0.234471
0.23447
0.234469
0.234468
0.234467
0.234466
0.234465
0.234464
0.234463
0.234462
0.234461
0.23446
0.234459
0.234458
0.234457
0.234456
0.234455
0.234454
0.234453
0.234452
0.234451
0.23445
0.234448
0.234447
0.234446
0.234445
0.234443
0.234442
0.234441
0.23444
0.234438
0.234437
0.234436
0.234434
0.234433
0.234432
0.23443
0.234429
0.234428
0.234427
0.234425
0.234424
0.234423
0.234422
0.23442
0.234419
0.234418
0.234417
0.234416
0.234415
0.234414
0.234413
0.234412
0.234411
0.23441
0.234409
0.234408
0.234407
0.234406
0.234405
0.234404
0.234403
0.234401
0.2344
0.234399
0.234398
0.234397
0.234396
0.234395
0.234393
0.234392
0.234391
0.23439
0.234388
0.234387
0.234385
0.234384
0.234383
0.234381
0.234379
0.234378
0.234376
0.234375
0.234373
0.234372
0.23437
0.234368
0.234367
0.234365
0.234364
0.234362
0.234361
0.23436
0.234358
0.234357
0.234356
0.234354
0.234353
0.234352
0.234351
0.23435
0.234349
0.234348
0.234347
0.234346
0.234345
0.234344
0.234344
0.234343
0.234342
0.234341
0.234341
0.23434
0.234339
0.234338
0.234338
0.234337
0.234336
0.234336
0.234335
0.234334
0.234334
0.234333
0.234332
0.234331
0.23433
0.234329
0.234328
0.234327
0.234326
0.234325
0.234324
0.234323
0.234321
0.23432
0.234319
0.234317
0.234316
0.234314
0.234313
0.234311
0.234309
0.234308
0.234306
0.234304
0.234303
0.234301
0.234299
0.234297
0.234296
0.234294
0.234293
0.234291
0.234289
0.234288
0.234287
0.234285
0.234284
0.234283
0.234281
0.23428
0.234279
0.234278
0.234277
0.234276
0.234275
0.234275
0.234274
0.234273
0.234273
0.234272
0.234272
0.234271
0.234271
0.23427
0.23427
0.23427
0.23427
0.234269
0.234269
0.234269
0.234269
0.234269
0.234269
0.234269
0.234269
0.234269
0.234269
0.234269
0.234269
0.234269
0.234269
0.234269
0.234268
0.234268
0.234268
0.234268
0.234268
0.234268
0.234268
0.234268
0.234268
0.234268
0.234268
0.234267
0.234267
0.234267
0.234267
0.234266
0.234266
0.234266
0.234265
0.234265
0.234264
0.234264
0.234263
0.234263
0.234262
0.234261
0.234261
0.23426
0.234259
0.234259
0.234258
0.234257
0.234256
0.234256
0.234255
0.234254
0.234253
0.234252
0.234251
0.23425
0.234249
0.234249
0.234248
0.234247
0.234246
0.234245
0.234244
0.234243
0.234242
0.234241
0.23424
0.234239
0.234238
0.234237
0.234236
0.234236
0.234235
0.234234
0.234233
0.234232
0.234231
0.23423
0.23423
0.234229
0.234228
0.234227
0.234227
0.234226
0.234225
0.234224
0.234224
0.234223
0.234222
0.234222
0.234221
0.23422
0.23422
0.234219
0.234218
0.234218
0.234217
0.234216
0.234216
0.234215
0.234215
0.234214
0.234213
0.234213
0.234212
0.234212
0.234211
0.234211
0.23421
0.234209
0.234209
0.234208
0.234208
0.234207
0.234207
0.234207
0.234206
0.234206
0.234205
0.234205
0.234204
0.234204
0.234204
0.234203
0.234203
0.234203
0.234202
0.234202
0.234202
0.234201
0.234201
0.234201
0.2342
0.2342
0.2342
0.234199
0.234199
0.234199
0.234198
0.234198
0.234198
0.234197
0.234197
0.234196
0.234196
0.234195
0.234195
0.234195
0.234194
0.234194
0.234193
0.234193
0.234193
0.234192
0.234192
0.234191
0.234191
0.234191
0.23419
0.23419
0.23419
0.234189
0.234189
0.234189
0.234188
0.234188
0.234188
0.234188
0.234188
0.234187
0.234187
0.234187
0.234187
0.234187
0.234186
0.234186
0.234186
0.234186
0.234186
0.234186
0.234186
0.234186
0.234186
0.234185
0.234185
0.234185
0.234185
0.234185
0.234185
0.234185
0.234185
0.234185
0.234185
0.234185
0.234184
0.234184
0.234184
0.234184
0.234184
0.234184
0.234183
0.234183
0.234183
0.234182
0.234182
0.234182
0.234181
0.234181
0.23418
0.234179
0.234179
0.234178
0.234177
0.234177
0.234176
0.234175
0.234174
0.234173
0.234172
0.234171
0.23417
0.234169
0.234168
0.234167
0.234166
0.234165
0.234165
0.234164
0.234163
0.234163
0.234162
0.234161
0.234161
0.23416
0.23416
0.23416
0.234159
0.234159
0.234159
0.234159
0.234159
0.234159
0.234159
0.234159
0.234159
0.234159
0.234159
0.234159
0.234159
0.234159
0.234159
0.23416
0.23416
0.23416
0.23416
0.234161
0.234161
0.234161
0.234161
0.234162
0.234162
0.234162
0.234162
0.234163
0.234163
0.234163
0.234163
0.234163
0.234164
0.234164
0.234164
0.234164
0.234164
0.234164
0.234165
0.234165
0.234165
0.234165
0.234165
0.234165
0.234165
0.234165
0.234165
0.234165
0.234165
0.234165
0.234165
0.234165
0.234165
0.234165
0.234165
0.234165
0.234165
0.234165
0.234165
0.234165
0.234165
0.234165
0.234165
0.234165
0.234165
0.234165
0.234165
0.234165
0.234165
0.234165
0.234165
0.234165
0.234165
0.234166
0.234166
0.234166
0.234166
0.234166
0.234167
0.234167
0.234167
0.234168
0.234168
0.234169
0.234169
0.23417
0.23417
0.234171
0.234172
0.234172
0.234173
0.234174
0.234175
0.234176
0.234177
0.234178
0.234179
0.23418
0.234181
0.234182
0.234183
0.234184
0.234185
0.234186
0.234187
0.234188
0.234189
0.23419
0.234191
0.234192
0.234193
0.234194
0.234194
0.234195
0.234196
0.234197
0.234198
0.234198
0.234199
0.2342
0.2342
0.234201
0.234202
0.234202
0.234203
0.234204
0.234205
0.234205
0.234206
0.234207
0.234208
0.234209
0.23421
0.234211
0.234213
0.234214
0.234215
0.234216
0.234218
0.234219
0.234221
0.234222
0.234224
0.234226
0.234227
0.234229
0.234231
0.234233
0.234235
0.234236
0.234238
0.23424
0.234242
0.234244
0.234246
0.234248
0.23425
0.234252
0.234254
0.234256
0.234258
0.23426
0.234262
0.234264
0.234265
0.234267
0.234269
0.234271
0.234273
0.234274
0.234276
0.234278
0.23428
0.234281
0.234283
0.234284
0.234286
0.234288
0.23429
0.234291
0.234293
0.234295
0.234297
0.234299
0.234301
0.234303
0.234305
0.234307
0.234309
0.234311
0.234313
0.234316
0.234318
0.23432
0.234322
0.234325
0.234327
0.234329
0.234332
0.234334
0.234336
0.234339
0.234341
0.234343
0.234345
0.234347
0.234349
0.234351
0.234353
0.234355
0.234357
0.234359
0.234361
0.234362
0.234364
0.234366
0.234367
0.234369
0.234371
0.234372
0.234374
0.234376
0.234378
0.23438
0.234382
0.234384
0.234387
0.234389
0.234391
0.234394
0.234397
0.234399
0.234402
0.234405
0.234408
0.234411
0.234414
0.234417
0.23442
0.234423
0.234426
0.234429
0.234432
0.234435
0.234438
0.234441
0.234445
0.234448
0.234451
0.234454
0.234457
0.23446
0.234463
0.234465
0.234468
0.234471
0.234474
0.234477
0.234479
0.234482
0.234485
0.234488
0.234491
0.234494
0.234497
0.2345
0.234503
0.234507
0.23451
0.234514
0.234518
0.234522
0.234526
0.23453
0.234535
0.234539
0.234544
0.234549
0.234554
0.234559
0.234564
0.234569
0.234574
0.234579
0.234585
0.23459
0.234595
0.2346
0.234605
0.23461
0.234616
0.23462
0.234625
0.23463
0.234635
0.234639
0.234644
0.234648
0.234653
0.234658
0.234663
0.234668
0.234673
0.234679
0.234685
0.234691
0.234697
0.234704
0.234711
0.234719
0.234727
0.234735
0.234744
0.234753
0.234762
0.234771
0.234781
0.234791
0.234801
0.234811
0.234822
0.234832
0.234843
0.234853
0.234864
0.234874
0.234885
0.234895
0.234906
0.234916
0.234926
0.234937
0.234947
0.234957
0.234967
0.234976
0.234986
0.234996
0.235006
0.235015
0.235025
0.235035
0.235046
0.235056
0.235066
0.235077
0.235088
0.235098
0.235109
0.235121
0.235132
0.235144
0.235155
0.235167
0.235179
0.235191
0.235203
0.235216
0.235228
0.23524
0.235253
0.235265
0.235278
0.235291
0.235303
0.235316
0.235329
0.235341
0.235354
0.235367
0.235379
0.235392
0.235405
0.235417
0.23543
0.235442
0.235454
0.235467
0.235479
0.235492
0.235504
0.235516
0.235528
0.23554
0.235552
0.235564
0.235576
0.235588
0.2356
0.235612
0.235623
0.235635
0.235647
0.235659
0.235671
0.235683
0.235695
0.235707
0.235719
0.235731
0.235743
0.235755
0.235767
0.235779
0.235791
0.235803
0.235816
0.235828
0.23584
0.235852
0.235865
0.235877
0.235889
0.235902
0.235914
0.235927
0.235939
0.235952
0.235964
0.235977
0.235989
0.236002
0.236015
0.236027
0.23604
0.236053
0.236065
0.236078
0.236091
0.236104
0.236117
0.236129
0.236142
0.236155
0.236168
0.236181
0.236194
0.236207
0.23622
0.236233
0.236246
0.236259
0.236272
0.236285
0.236298
0.236311
0.236324
0.236337
0.23635
0.236363
0.236376