/*--------------------------------*- C++ -*----------------------------------*\
  =========                 |
  \\      /  F ield         | OpenFOAM: The Open Source CFD Toolbox
   \\    /   O peration     | Website:  https://openfoam.org
    \\  /    A nd           | Version:  9
     \\/     M anipulation  |
\*---------------------------------------------------------------------------*/
FoamFile
{
    format      ascii;
    class       volScalarField;
    location    "0.035";
    object      T;
}
// * * * * * * * * * * * * * * * * * * * * * * * * * * * * * * * * * * * * * //

dimensions      [0 0 0 1 0 0 0];

internalField   nonuniform List<scalar> 
10000
(
198.444
198.445
198.448
198.452
198.455
198.458
198.461
198.464
198.467
198.47
198.473
198.476
198.479
198.481
198.484
198.487
198.491
198.493
198.496
198.499
198.502
198.504
198.507
198.51
198.514
198.517
198.519
198.522
198.524
198.527
198.529
198.532
198.534
198.537
198.54
198.543
198.546
198.55
198.553
198.555
198.558
198.56
198.562
198.563
198.564
198.565
198.566
198.566
198.567
198.567
198.567
198.567
198.567
198.567
198.567
198.567
198.567
198.567
198.566
198.566
198.566
198.566
198.566
198.565
198.565
198.565
198.565
198.565
198.564
198.564
198.564
198.564
198.564
198.564
198.563
198.563
198.563
198.563
198.563
198.563
198.563
198.563
198.562
198.562
198.562
198.562
198.562
198.562
198.562
198.562
198.562
198.562
198.561
198.561
198.561
198.561
198.561
198.561
198.561
198.561
198.561
198.561
198.561
198.561
198.56
198.56
198.56
198.56
198.56
198.56
198.56
198.56
198.56
198.56
198.56
198.559
198.559
198.559
198.559
198.559
198.559
198.559
198.559
198.558
198.558
198.558
198.558
198.558
198.558
198.557
198.557
198.557
198.557
198.557
198.556
198.556
198.556
198.556
198.556
198.555
198.555
198.555
198.555
198.554
198.554
198.554
198.554
198.553
198.553
198.553
198.553
198.552
198.552
198.552
198.551
198.551
198.551
198.551
198.55
198.55
198.55
198.549
198.549
198.549
198.548
198.548
198.548
198.547
198.547
198.547
198.546
198.546
198.546
198.545
198.545
198.545
198.544
198.544
198.544
198.543
198.543
198.543
198.542
198.542
198.542
198.541
198.541
198.541
198.54
198.54
198.54
198.539
198.539
198.539
198.539
198.538
198.538
198.538
198.537
198.537
198.537
198.537
198.536
198.536
198.536
198.536
198.535
198.535
198.535
198.535
198.535
198.534
198.534
198.534
198.534
198.534
198.534
198.533
198.533
198.533
198.533
198.533
198.533
198.533
198.532
198.532
198.532
198.532
198.532
198.532
198.532
198.532
198.532
198.532
198.532
198.532
198.532
198.532
198.532
198.531
198.531
198.531
198.531
198.531
198.531
198.531
198.531
198.531
198.531
198.531
198.531
198.531
198.531
198.531
198.531
198.531
198.531
198.531
198.531
198.531
198.531
198.531
198.531
198.531
198.531
198.531
198.531
198.531
198.531
198.531
198.53
198.53
198.53
198.53
198.53
198.53
198.53
198.53
198.529
198.529
198.529
198.529
198.529
198.529
198.528
198.528
198.528
198.528
198.527
198.527
198.527
198.527
198.526
198.526
198.526
198.525
198.525
198.525
198.524
198.524
198.524
198.523
198.523
198.523
198.522
198.522
198.521
198.521
198.521
198.52
198.52
198.519
198.519
198.519
198.518
198.518
198.517
198.517
198.516
198.516
198.515
198.515
198.514
198.514
198.514
198.513
198.513
198.512
198.512
198.511
198.511
198.51
198.51
198.509
198.509
198.508
198.508
198.508
198.507
198.507
198.506
198.506
198.505
198.505
198.505
198.504
198.504
198.503
198.503
198.503
198.502
198.502
198.502
198.501
198.501
198.501
198.5
198.5
198.5
198.5
198.499
198.499
198.499
198.499
198.498
198.498
198.498
198.498
198.498
198.498
198.497
198.497
198.497
198.497
198.497
198.497
198.497
198.497
198.497
198.497
198.497
198.497
198.497
198.497
198.497
198.497
198.497
198.497
198.497
198.497
198.497
198.497
198.497
198.497
198.497
198.497
198.497
198.497
198.497
198.497
198.497
198.498
198.498
198.498
198.498
198.498
198.498
198.498
198.498
198.498
198.498
198.499
198.499
198.499
198.499
198.499
198.499
198.499
198.499
198.499
198.499
198.499
198.499
198.499
198.499
198.499
198.499
198.499
198.499
198.499
198.499
198.499
198.499
198.498
198.498
198.498
198.498
198.498
198.498
198.497
198.497
198.497
198.497
198.496
198.496
198.496
198.495
198.495
198.495
198.494
198.494
198.494
198.493
198.493
198.492
198.492
198.492
198.491
198.491
198.49
198.49
198.489
198.489
198.488
198.487
198.487
198.486
198.486
198.485
198.485
198.484
198.483
198.483
198.482
198.482
198.481
198.48
198.48
198.479
198.478
198.478
198.477
198.476
198.476
198.475
198.475
198.474
198.473
198.473
198.472
198.471
198.471
198.47
198.47
198.469
198.468
198.468
198.467
198.467
198.466
198.466
198.465
198.465
198.464
198.464
198.463
198.463
198.462
198.462
198.462
198.461
198.461
198.46
198.46
198.46
198.459
198.459
198.459
198.458
198.458
198.458
198.458
198.458
198.457
198.457
198.457
198.457
198.457
198.457
198.457
198.457
198.456
198.456
198.456
198.456
198.456
198.456
198.456
198.456
198.457
198.457
198.457
198.457
198.457
198.457
198.457
198.457
198.457
198.458
198.458
198.458
198.458
198.458
198.458
198.459
198.459
198.459
198.459
198.459
198.46
198.46
198.46
198.46
198.461
198.461
198.461
198.461
198.461
198.462
198.462
198.462
198.462
198.462
198.463
198.463
198.463
198.463
198.463
198.463
198.463
198.464
198.464
198.464
198.464
198.464
198.464
198.464
198.464
198.464
198.464
198.464
198.464
198.464
198.464
198.464
198.463
198.463
198.463
198.463
198.463
198.463
198.462
198.462
198.462
198.461
198.461
198.461
198.46
198.46
198.46
198.459
198.459
198.458
198.458
198.457
198.457
198.456
198.456
198.455
198.454
198.454
198.453
198.453
198.452
198.451
198.451
198.45
198.449
198.448
198.448
198.447
198.446
198.446
198.445
198.444
198.443
198.442
198.442
198.441
198.44
198.439
198.439
198.438
198.437
198.436
198.436
198.435
198.434
198.433
198.433
198.432
198.431
198.43
198.43
198.429
198.428
198.427
198.427
198.426
198.425
198.425
198.424
198.424
198.423
198.422
198.422
198.421
198.421
198.42
198.42
198.419
198.419
198.418
198.418
198.417
198.417
198.417
198.416
198.416
198.416
198.415
198.415
198.415
198.414
198.414
198.414
198.414
198.414
198.413
198.413
198.413
198.413
198.413
198.413
198.413
198.413
198.413
198.413
198.413
198.413
198.413
198.413
198.413
198.413
198.413
198.413
198.413
198.414
198.414
198.414
198.414
198.414
198.414
198.414
198.415
198.415
198.415
198.415
198.415
198.416
198.416
198.416
198.416
198.416
198.417
198.417
198.417
198.417
198.418
198.418
198.418
198.418
198.418
198.419
198.419
198.419
198.419
198.419
198.419
198.42
198.42
198.42
198.42
198.42
198.42
198.42
198.42
198.42
198.42
198.42
198.42
198.42
198.42
198.42
198.42
198.42
198.42
198.42
198.42
198.42
198.42
198.42
198.42
198.419
198.419
198.419
198.419
198.418
198.418
198.418
198.418
198.417
198.417
198.416
198.416
198.416
198.415
198.415
198.414
198.414
198.413
198.413
198.412
198.412
198.411
198.41
198.41
198.409
198.409
198.408
198.407
198.407
198.406
198.405
198.404
198.404
198.403
198.402
198.402
198.401
198.4
198.399
198.399
198.398
198.397
198.396
198.396
198.395
198.394
198.393
198.393
198.392
198.391
198.39
198.39
198.389
198.388
198.388
198.387
198.386
198.386
198.385
198.384
198.384
198.383
198.383
198.382
198.381
198.381
198.38
198.38
198.379
198.379
198.378
198.378
198.377
198.377
198.376
198.376
198.376
198.375
198.375
198.375
198.374
198.374
198.374
198.373
198.373
198.373
198.373
198.372
198.372
198.372
198.372
198.372
198.372
198.372
198.371
198.371
198.371
198.371
198.371
198.371
198.371
198.371
198.371
198.371
198.371
198.371
198.371
198.371
198.371
198.371
198.371
198.371
198.371
198.371
198.371
198.371
198.371
198.371
198.371
198.371
198.372
198.372
198.372
198.372
198.372
198.372
198.372
198.372
198.372
198.372
198.372
198.372
198.372
198.372
198.372
198.372
198.372
198.372
198.372
198.372
198.372
198.372
198.372
198.372
198.372
198.372
198.372
198.372
198.372
198.371
198.371
198.371
198.371
198.371
198.371
198.37
198.37
198.37
198.37
198.369
198.369
198.369
198.368
198.368
198.368
198.367
198.367
198.366
198.366
198.366
198.365
198.365
198.364
198.364
198.363
198.363
198.362
198.362
198.361
198.36
198.36
198.359
198.359
198.358
198.357
198.357
198.356
198.356
198.355
198.354
198.354
198.353
198.352
198.352
198.351
198.351
198.35
198.349
198.349
198.348
198.347
198.347
198.346
198.346
198.345
198.345
198.344
198.343
198.343
198.342
198.342
198.341
198.341
198.34
198.34
198.34
198.339
198.339
198.338
198.338
198.337
198.337
198.337
198.336
198.336
198.336
198.335
198.335
198.335
198.335
198.334
198.334
198.334
198.334
198.333
198.333
198.333
198.333
198.333
198.333
198.332
198.332
198.332
198.332
198.332
198.332
198.332
198.332
198.332
198.332
198.332
198.332
198.332
198.332
198.332
198.332
198.332
198.332
198.332
198.332
198.332
198.332
198.332
198.332
198.332
198.332
198.332
198.332
198.332
198.332
198.332
198.332
198.332
198.332
198.332
198.332
198.332
198.332
198.332
198.332
198.332
198.332
198.332
198.331
198.331
198.331
198.331
198.331
198.331
198.331
198.331
198.331
198.33
198.33
198.33
198.33
198.329
198.329
198.329
198.329
198.328
198.328
198.328
198.327
198.327
198.326
198.326
198.326
198.325
198.325
198.324
198.324
198.323
198.323
198.322
198.321
198.321
198.32
198.32
198.319
198.318
198.318
198.317
198.316
198.316
198.315
198.314
198.314
198.313
198.312
198.312
198.311
198.31
198.31
198.309
198.308
198.307
198.307
198.306
198.305
198.305
198.304
198.303
198.302
198.302
198.301
198.3
198.3
198.299
198.298
198.298
198.297
198.296
198.296
198.295
198.295
198.294
198.294
198.293
198.292
198.292
198.291
198.291
198.29
198.29
198.289
198.289
198.289
198.288
198.288
198.287
198.287
198.287
198.286
198.286
198.286
198.285
198.285
198.285
198.285
198.284
198.284
198.284
198.284
198.284
198.284
198.284
198.283
198.283
198.283
198.283
198.283
198.283
198.283
198.283
198.283
198.283
198.283
198.283
198.283
198.283
198.283
198.283
198.283
198.283
198.283
198.283
198.284
198.284
198.284
198.284
198.284
198.284
198.284
198.284
198.284
198.285
198.285
198.285
198.285
198.285
198.285
198.285
198.285
198.286
198.286
198.286
198.286
198.286
198.286
198.286
198.286
198.286
198.286
198.286
198.286
198.286
198.286
198.286
198.286
198.286
198.286
198.286
198.286
198.286
198.286
198.286
198.286
198.286
198.285
198.285
198.285
198.285
198.285
198.284
198.284
198.284
198.283
198.283
198.282
198.282
198.281
198.281
198.28
198.28
198.279
198.279
198.278
198.278
198.277
198.276
198.276
198.275
198.274
198.274
198.273
198.272
198.271
198.271
198.27
198.269
198.268
198.267
198.267
198.266
198.265
198.264
198.263
198.262
198.261
198.261
198.26
198.259
198.258
198.257
198.256
198.255
198.254
198.253
198.253
198.252
198.251
198.25
198.249
198.248
198.247
198.247
198.246
198.245
198.244
198.243
198.243
198.242
198.241
198.24
198.24
198.239
198.238
198.238
198.237
198.236
198.236
198.235
198.235
198.234
198.234
198.233
198.233
198.232
198.232
198.231
198.231
198.23
198.23
198.23
198.229
198.229
198.229
198.229
198.228
198.228
198.228
198.228
198.228
198.227
198.227
198.227
198.227
198.227
198.227
198.227
198.227
198.227
198.227
198.227
198.227
198.227
198.227
198.227
198.227
198.228
198.228
198.228
198.228
198.228
198.228
198.228
198.228
198.229
198.229
198.229
198.229
198.229
198.23
198.23
198.23
198.23
198.23
198.23
198.231
198.231
198.231
198.231
198.231
198.231
198.232
198.232
198.232
198.232
198.232
198.232
198.232
198.232
198.232
198.232
198.232
198.232
198.232
198.232
198.232
198.232
198.232
198.232
198.232
198.232
198.232
198.232
198.231
198.231
198.231
198.231
198.23
198.23
198.23
198.229
198.229
198.228
198.228
198.227
198.227
198.226
198.226
198.225
198.225
198.224
198.223
198.223
198.222
198.221
198.221
198.22
198.219
198.219
198.218
198.217
198.216
198.216
198.215
198.214
198.214
198.213
198.212
198.211
198.211
198.21
198.209
198.209
198.208
198.207
198.207
198.206
198.205
198.205
198.204
198.203
198.203
198.202
198.201
198.201
198.2
198.2
198.199
198.198
198.198
198.197
198.197
198.196
198.196
198.195
198.195
198.194
198.194
198.193
198.193
198.192
198.192
198.191
198.191
198.19
198.19
198.189
198.189
198.188
198.188
198.187
198.187
198.187
198.186
198.186
198.185
198.185
198.184
198.184
198.183
198.183
198.182
198.182
198.182
198.181
198.181
198.18
198.18
198.179
198.179
198.179
198.178
198.178
198.177
198.177
198.177
198.176
198.176
198.176
198.175
198.175
198.175
198.174
198.174
198.174
198.174
198.173
198.173
198.173
198.173
198.172
198.172
198.172
198.172
198.172
198.171
198.171
198.171
198.171
198.171
198.171
198.171
198.171
198.171
198.171
198.17
198.17
198.17
198.17
198.17
198.17
198.17
198.17
198.17
198.17
198.17
198.17
198.17
198.17
198.17
198.17
198.171
198.171
198.171
198.171
198.171
198.171
198.171
198.171
198.171
198.171
198.171
198.171
198.171
198.171
198.171
198.171
198.171
198.171
198.17
198.17
198.17
198.17
198.17
198.17
198.17
198.169
198.169
198.169
198.169
198.168
198.168
198.168
198.167
198.167
198.166
198.166
198.165
198.165
198.164
198.164
198.163
198.163
198.162
198.161
198.16
198.16
198.159
198.158
198.157
198.156
198.156
198.155
198.154
198.153
198.152
198.151
198.15
198.149
198.148
198.147
198.146
198.146
198.145
198.144
198.143
198.142
198.141
198.14
198.139
198.138
198.137
198.137
198.136
198.135
198.134
198.133
198.133
198.132
198.131
198.131
198.13
198.129
198.129
198.128
198.127
198.127
198.126
198.126
198.125
198.125
198.124
198.124
198.123
198.123
198.123
198.122
198.122
198.122
198.121
198.121
198.121
198.121
198.12
198.12
198.12
198.12
198.119
198.119
198.119
198.119
198.119
198.119
198.119
198.118
198.118
198.118
198.118
198.118
198.118
198.118
198.118
198.117
198.117
198.117
198.117
198.117
198.117
198.117
198.117
198.116
198.116
198.116
198.116
198.116
198.115
198.115
198.115
198.115
198.114
198.114
198.114
198.113
198.113
198.113
198.112
198.112
198.112
198.111
198.111
198.111
198.11
198.11
198.109
198.109
198.109
198.108
198.108
198.107
198.107
198.107
198.106
198.106
198.105
198.105
198.105
198.104
198.104
198.104
198.103
198.103
198.103
198.102
198.102
198.102
198.102
198.101
198.101
198.101
198.101
198.1
198.1
198.1
198.1
198.1
198.1
198.099
198.099
198.099
198.099
198.099
198.099
198.099
198.099
198.099
198.098
198.098
198.098
198.098
198.098
198.098
198.098
198.098
198.098
198.098
198.098
198.098
198.097
198.097
198.097
198.097
198.097
198.097
198.097
198.096
198.096
198.096
198.096
198.095
198.095
198.095
198.094
198.094
198.094
198.093
198.093
198.092
198.092
198.091
198.091
198.09
198.089
198.089
198.088
198.087
198.087
198.086
198.085
198.085
198.084
198.083
198.082
198.082
198.081
198.08
198.079
198.079
198.078
198.077
198.076
198.075
198.075
198.074
198.073
198.072
198.072
198.071
198.07
198.07
198.069
198.068
198.068
198.067
198.067
198.066
198.065
198.065
198.064
198.064
198.063
198.063
198.062
198.062
198.062
198.061
198.061
198.061
198.06
198.06
198.06
198.059
198.059
198.059
198.059
198.058
198.058
198.058
198.058
198.058
198.058
198.057
198.057
198.057
198.057
198.057
198.057
198.057
198.056
198.056
198.056
198.056
198.056
198.056
198.056
198.055
198.055
198.055
198.055
198.054
198.054
198.054
198.054
198.053
198.053
198.053
198.052
198.052
198.052
198.051
198.051
198.05
198.05
198.049
198.049
198.048
198.048
198.047
198.047
198.046
198.045
198.045
198.044
198.043
198.043
198.042
198.042
198.041
198.04
198.04
198.039
198.038
198.038
198.037
198.036
198.036
198.035
198.035
198.034
198.034
198.033
198.032
198.032
198.031
198.031
198.03
198.03
198.029
198.029
198.029
198.028
198.028
198.027
198.027
198.027
198.026
198.026
198.025
198.025
198.025
198.024
198.024
198.024
198.024
198.023
198.023
198.023
198.023
198.022
198.022
198.022
198.022
198.021
198.021
198.021
198.021
198.021
198.02
198.02
198.02
198.02
198.02
198.02
198.019
198.019
198.019
198.019
198.019
198.019
198.018
198.018
198.018
198.018
198.018
198.018
198.018
198.017
198.017
198.017
198.017
198.017
198.016
198.016
198.016
198.016
198.015
198.015
198.015
198.015
198.014
198.014
198.014
198.013
198.013
198.012
198.012
198.012
198.011
198.011
198.01
198.01
198.009
198.009
198.008
198.008
198.007
198.007
198.006
198.006
198.005
198.005
198.004
198.004
198.003
198.003
198.002
198.002
198.001
198
198
197.999
197.999
197.998
197.998
197.997
197.997
197.996
197.996
197.995
197.995
197.994
197.993
197.993
197.992
197.992
197.991
197.991
197.99
197.99
197.989
197.989
197.988
197.988
197.987
197.987
197.986
197.986
197.985
197.985
197.984
197.984
197.983
197.983
197.982
197.982
197.981
197.981
197.981
197.98
197.98
197.979
197.979
197.979
197.978
197.978
197.978
197.977
197.977
197.977
197.976
197.976
197.976
197.975
197.975
197.975
197.975
197.974
197.974
197.974
197.974
197.973
197.973
197.973
197.973
197.973
197.972
197.972
197.972
197.972
197.972
197.971
197.971
197.971
197.971
197.971
197.97
197.97
197.97
197.97
197.969
197.969
197.969
197.968
197.968
197.968
197.967
197.967
197.967
197.966
197.966
197.966
197.965
197.965
197.964
197.964
197.963
197.963
197.962
197.962
197.961
197.961
197.96
197.959
197.959
197.958
197.958
197.957
197.956
197.956
197.955
197.954
197.954
197.953
197.953
197.952
197.951
197.951
197.95
197.95
197.949
197.948
197.948
197.947
197.947
197.946
197.946
197.945
197.945
197.944
197.944
197.943
197.943
197.942
197.942
197.941
197.941
197.941
197.94
197.94
197.939
197.939
197.939
197.938
197.938
197.938
197.938
197.937
197.937
197.937
197.937
197.936
197.936
197.936
197.936
197.936
197.936
197.935
197.935
197.935
197.935
197.935
197.935
197.935
197.935
197.934
197.934
197.934
197.934
197.934
197.934
197.934
197.934
197.934
197.934
197.934
197.934
197.934
197.933
197.933
197.933
197.933
197.933
197.933
197.933
197.933
197.932
197.932
197.932
197.932
197.931
197.931
197.931
197.931
197.93
197.93
197.93
197.929
197.929
197.928
197.928
197.927
197.927
197.926
197.926
197.925
197.925
197.924
197.924
197.923
197.922
197.922
197.921
197.921
197.92
197.919
197.919
197.918
197.917
197.917
197.916
197.915
197.915
197.914
197.914
197.913
197.912
197.912
197.911
197.911
197.91
197.909
197.909
197.908
197.908
197.907
197.907
197.906
197.905
197.905
197.904
197.904
197.903
197.903
197.902
197.901
197.901
197.9
197.9
197.899
197.899
197.898
197.897
197.897
197.896
197.895
197.895
197.894
197.894
197.893
197.892
197.892
197.891
197.89
197.889
197.889
197.888
197.887
197.887
197.886
197.885
197.884
197.884
197.883
197.882
197.882
197.881
197.88
197.88
197.879
197.878
197.878
197.877
197.877
197.876
197.876
197.875
197.875
197.874
197.874
197.873
197.873
197.873
197.872
197.872
197.872
197.871
197.871
197.871
197.87
197.87
197.87
197.87
197.87
197.869
197.869
197.869
197.869
197.869
197.869
197.868
197.868
197.868
197.868
197.868
197.868
197.868
197.868
197.867
197.867
197.867
197.867
197.867
197.867
197.867
197.866
197.866
197.866
197.866
197.866
197.865
197.865
197.865
197.864
197.864
197.864
197.863
197.863
197.863
197.862
197.862
197.861
197.861
197.86
197.86
197.859
197.859
197.858
197.857
197.857
197.856
197.856
197.855
197.854
197.854
197.853
197.852
197.852
197.851
197.85
197.849
197.849
197.848
197.847
197.847
197.846
197.845
197.845
197.844
197.844
197.843
197.842
197.842
197.841
197.841
197.84
197.84
197.839
197.839
197.838
197.838
197.837
197.837
197.836
197.836
197.836
197.835
197.835
197.835
197.834
197.834
197.834
197.833
197.833
197.833
197.833
197.832
197.832
197.832
197.831
197.831
197.831
197.831
197.83
197.83
197.83
197.829
197.829
197.829
197.828
197.828
197.827
197.827
197.827
197.826
197.826
197.825
197.824
197.824
197.823
197.823
197.822
197.821
197.821
197.82
197.819
197.818
197.818
197.817
197.816
197.815
197.815
197.814
197.813
197.812
197.811
197.811
197.81
197.809
197.809
197.808
197.807
197.807
197.806
197.805
197.805
197.804
197.804
197.803
197.803
197.802
197.802
197.802
197.801
197.801
197.8
197.8
197.8
197.799
197.799
197.798
197.798
197.798
197.797
197.797
197.797
197.796
197.796
197.796
197.795
197.795
197.794
197.794
197.794
197.793
197.793
197.792
197.792
197.791
197.79
197.79
197.789
197.789
197.788
197.787
197.786
197.786
197.785
197.784
197.783
197.783
197.782
197.781
197.78
197.78
197.779
197.778
197.777
197.776
197.776
197.775
197.774
197.774
197.773
197.772
197.772
197.771
197.77
197.77
197.769
197.769
197.768
197.767
197.767
197.766
197.766
197.765
197.765
197.764
197.764
197.764
197.763
197.763
197.762
197.762
197.762
197.761
197.761
197.76
197.76
197.76
197.759
197.759
197.758
197.758
197.758
197.757
197.757
197.756
197.756
197.756
197.755
197.755
197.754
197.754
197.753
197.753
197.752
197.752
197.751
197.751
197.75
197.75
197.749
197.749
197.748
197.747
197.747
197.746
197.746
197.745
197.745
197.744
197.743
197.743
197.742
197.742
197.741
197.74
197.74
197.739
197.739
197.738
197.738
197.737
197.736
197.736
197.735
197.735
197.734
197.734
197.733
197.732
197.732
197.731
197.731
197.73
197.73
197.729
197.728
197.728
197.727
197.727
197.726
197.726
197.725
197.724
197.724
197.723
197.723
197.722
197.721
197.721
197.72
197.72
197.719
197.719
197.718
197.717
197.717
197.716
197.716
197.715
197.714
197.714
197.713
197.713
197.712
197.712
197.711
197.71
197.71
197.709
197.709
197.708
197.708
197.707
197.707
197.706
197.706
197.705
197.705
197.704
197.704
197.703
197.703
197.702
197.702
197.701
197.701
197.7
197.7
197.699
197.699
197.699
197.698
197.698
197.698
197.697
197.697
197.696
197.696
197.696
197.695
197.695
197.695
197.694
197.694
197.694
197.693
197.693
197.693
197.692
197.692
197.691
197.691
197.691
197.69
197.69
197.689
197.689
197.689
197.688
197.688
197.687
197.687
197.686
197.686
197.685
197.685
197.684
197.684
197.683
197.683
197.682
197.682
197.681
197.681
197.68
197.68
197.679
197.679
197.678
197.678
197.677
197.677
197.677
197.676
197.676
197.675
197.675
197.675
197.674
197.674
197.673
197.673
197.673
197.672
197.672
197.672
197.671
197.671
197.67
197.67
197.67
197.669
197.669
197.668
197.668
197.667
197.667
197.666
197.666
197.665
197.665
197.664
197.664
197.663
197.662
197.662
197.661
197.661
197.66
197.659
197.659
197.658
197.657
197.657
197.656
197.656
197.655
197.655
197.654
197.654
197.653
197.653
197.652
197.652
197.651
197.651
197.651
197.65
197.65
197.65
197.649
197.649
197.649
197.648
197.648
197.648
197.648
197.647
197.647
197.647
197.647
197.646
197.646
197.646
197.646
197.645
197.645
197.645
197.644
197.644
197.644
197.643
197.643
197.643
197.642
197.642
197.641
197.641
197.64
197.639
197.639
197.638
197.638
197.637
197.636
197.636
197.635
197.634
197.634
197.633
197.632
197.632
197.631
197.63
197.63
197.629
197.629
197.628
197.628
197.627
197.627
197.626
197.626
197.625
197.625
197.625
197.624
197.624
197.624
197.623
197.623
197.623
197.623
197.622
197.622
197.622
197.622
197.622
197.622
197.622
197.622
197.622
197.622
197.622
197.621
197.621
197.621
197.621
197.621
197.621
197.621
197.621
197.621
197.621
197.621
197.621
197.621
197.621
197.621
197.621
197.621
197.621
197.621
197.621
197.621
197.62
197.62
197.62
197.62
197.62
197.62
197.62
197.619
197.619
197.619
197.619
197.618
197.618
197.618
197.618
197.617
197.617
197.617
197.616
197.616
197.616
197.615
197.615
197.615
197.614
197.614
197.614
197.613
197.613
197.613
197.612
197.612
197.612
197.611
197.611
197.61
197.61
197.61
197.609
197.609
197.609
197.608
197.608
197.607
197.607
197.607
197.606
197.606
197.606
197.606
197.605
197.605
197.605
197.604
197.604
197.604
197.603
197.603
197.603
197.603
197.602
197.602
197.602
197.602
197.601
197.601
197.601
197.601
197.6
197.6
197.6
197.6
197.599
197.599
197.599
197.599
197.598
197.598
197.598
197.598
197.598
197.597
197.597
197.597
197.597
197.597
197.596
197.596
197.596
197.596
197.596
197.596
197.595
197.595
197.595
197.595
197.595
197.595
197.594
197.594
197.594
197.594
197.594
197.594
197.594
197.593
197.593
197.593
197.593
197.593
197.593
197.592
197.592
197.592
197.592
197.592
197.591
197.591
197.591
197.591
197.591
197.59
197.59
197.59
197.59
197.59
197.59
197.589
197.589
197.589
197.589
197.589
197.589
197.589
197.589
197.588
197.588
197.588
197.588
197.588
197.588
197.588
197.588
197.588
197.588
197.588
197.588
197.587
197.587
197.587
197.587
197.587
197.587
197.587
197.587
197.587
197.587
197.587
197.587
197.587
197.587
197.587
197.587
197.586
197.586
197.586
197.586
197.586
197.586
197.586
197.586
197.585
197.585
197.585
197.585
197.585
197.584
197.584
197.584
197.583
197.583
197.583
197.582
197.582
197.581
197.581
197.581
197.58
197.58
197.579
197.579
197.579
197.578
197.578
197.578
197.577
197.577
197.577
197.577
197.577
197.577
197.576
197.576
197.576
197.576
197.576
197.576
197.576
197.576
197.576
197.576
197.576
197.576
197.576
197.576
197.576
197.576
197.576
197.576
197.576
197.576
197.577
197.577
197.577
197.577
197.577
197.577
197.577
197.577
197.577
197.577
197.577
197.577
197.577
197.577
197.577
197.577
197.577
197.577
197.577
197.577
197.577
197.577
197.577
197.577
197.577
197.577
197.577
197.577
197.577
197.577
197.577
197.577
197.577
197.577
197.577
197.577
197.577
197.576
197.576
197.576
197.576
197.576
197.576
197.576
197.576
197.576
197.576
197.576
197.576
197.576
197.576
197.576
197.576
197.576
197.576
197.576
197.576
197.576
197.577
197.577
197.577
197.577
197.577
197.577
197.577
197.578
197.578
197.578
197.578
197.579
197.579
197.579
197.579
197.58
197.58
197.58
197.581
197.581
197.582
197.582
197.582
197.583
197.583
197.583
197.584
197.584
197.584
197.584
197.585
197.585
197.585
197.585
197.586
197.586
197.586
197.586
197.586
197.587
197.587
197.587
197.587
197.587
197.587
197.588
197.588
197.588
197.588
197.589
197.589
197.589
197.59
197.59
197.591
197.591
197.591
197.592
197.592
197.593
197.593
197.594
197.595
197.595
197.596
197.596
197.597
197.598
197.598
197.599
197.6
197.6
197.601
197.602
197.602
197.603
197.604
197.604
197.605
197.606
197.606
197.607
197.607
197.608
197.609
197.609
197.61
197.61
197.611
197.611
197.612
197.612
197.613
197.613
197.614
197.614
197.615
197.615
197.616
197.617
197.617
197.618
197.619
197.619
197.62
197.621
197.621
197.622
197.623
197.624
197.625
197.625
197.626
197.627
197.628
197.629
197.629
197.63
197.631
197.632
197.632
197.633
197.634
197.634
197.635
197.635
197.636
197.636
197.637
197.637
197.638
197.638
197.639
197.639
197.64
197.64
197.641
197.641
197.642
197.643
197.643
197.644
197.645
197.646
197.647
197.648
197.648
197.649
197.65
197.651
197.652
197.653
197.654
197.656
197.657
197.658
197.659
197.66
197.661
197.662
197.663
197.664
197.665
197.666
197.667
197.668
197.669
197.67
197.671
197.672
197.673
197.674
197.674
197.675
197.676
197.677
197.678
197.679
197.68
197.681
197.682
197.683
197.684
197.686
197.687
197.688
197.69
197.691
197.693
197.694
197.696
197.698
197.7
197.701
197.703
197.705
197.707
197.709
197.711
197.713
197.715
197.716
197.718
197.72
197.722
197.724
197.725
197.727
197.728
197.73
197.731
197.732
197.734
197.735
197.737
197.739
197.74
197.742
197.744
197.747
197.749
197.752
197.754
197.757
197.76
197.763
197.767
197.77
197.774
197.777
197.781
197.785
197.789
197.792
197.796
197.8
197.804
197.808
197.811
197.815
197.819
197.822
197.826
197.83
197.833
197.836
197.84
197.843
197.847
197.85
197.853
197.856
197.86
197.863
197.867
197.87
197.874
197.877
197.881
197.885
197.889
197.893
197.897
197.901
197.905
197.909
197.913
197.918
197.922
197.926
197.931
197.935
197.94
197.944
197.949
197.953
197.958
197.962
197.967
197.971
197.975
197.98
197.984
197.989
197.993
197.998
198.002
198.006
198.011
198.015
198.019
198.023
198.028
198.032
198.036
198.04
198.044
198.049
198.053
198.057
198.061
198.065
198.069
198.074
198.078
198.082
198.086
198.09
198.094
198.099
198.103
198.107
198.111
198.116
198.12
198.124
198.128
198.133
198.137
198.141
198.146
198.15
198.154
198.159
198.163
198.167
198.172
198.176
198.181
198.185
198.19
198.194
198.198
198.203
198.207
198.212
198.216
198.221
198.225
198.23
198.234
198.239
198.243
198.248
198.253
198.257
198.262
198.266
198.271
198.275
198.28
198.285
198.289
198.294
198.298
198.303
198.308
198.312
198.317
198.322
198.326
198.331
198.336
198.34
198.345
198.35
198.354
198.359
198.364
198.368
198.373
198.378
198.382
198.387
198.392
198.397
198.401
198.406
198.411
198.416
198.421
198.425
198.43
198.435
198.44
198.445
198.449
198.454
198.459
198.464
198.469
198.474
198.478
198.483
198.488
198.493
198.498
198.503
198.508
198.513
198.517
198.522
198.527
198.532
198.537
198.542
198.547
198.552
198.557
198.562
198.567
198.572
198.577
198.581
198.586
198.591
198.596
198.601
198.606
198.611
198.616
198.621
198.626
198.631
198.636
198.641
198.646
198.651
198.656
198.661
198.666
198.671
198.676
198.681
198.686
198.691
198.696
198.701
198.706
198.711
198.716
198.721
198.726
198.731
198.736
198.741
198.747
198.752
198.757
198.762
198.767
198.772
198.777
198.782
198.787
198.792
198.797
198.802
198.807
198.812
198.817
198.822
198.827
198.832
198.837
198.842
198.847
198.852
198.857
198.862
198.867
198.872
198.877
198.883
198.888
198.893
198.898
198.903
198.908
198.913
198.918
198.923
198.928
198.933
198.938
198.943
198.948
198.953
198.958
198.963
198.968
198.973
198.978
198.983
198.988
198.993
198.998
199.003
199.008
199.013
199.018
199.023
199.028
199.033
199.039
199.044
199.049
199.054
199.059
199.064
199.069
199.074
199.079
199.084
199.089
199.094
199.099
199.104
199.109
199.114
199.119
199.124
199.129
199.134
199.139
199.144
199.149
199.154
199.159
199.164
199.169
199.174
199.179
199.184
199.189
199.194
199.199
199.204
199.209
199.214
199.219
199.224
199.229
199.234
199.239
199.244
199.249
199.254
199.259
199.264
199.269
199.274
199.279
199.284
199.289
199.294
199.299
199.304
199.309
199.314
199.319
199.324
199.329
199.334
199.339
199.344
199.349
199.354
199.359
199.364
199.369
199.375
199.379
199.385
199.389
199.395
199.399
199.405
199.409
199.415
199.419
199.425
199.429
199.435
199.439
199.445
199.449
199.455
199.459
199.465
199.469
199.475
199.479
199.485
199.489
199.495
199.499
199.505
199.509
199.516
199.519
199.526
199.529
199.536
199.539
199.546
199.549
199.556
199.559
199.566
199.569
199.576
199.58
199.586
199.59
199.596
199.6
199.607
199.61
199.617
199.62