/*--------------------------------*- C++ -*----------------------------------*\
  =========                 |
  \\      /  F ield         | OpenFOAM: The Open Source CFD Toolbox
   \\    /   O peration     | Website:  https://openfoam.org
    \\  /    A nd           | Version:  9
     \\/     M anipulation  |
\*---------------------------------------------------------------------------*/
FoamFile
{
    format      ascii;
    class       volScalarField;
    location    "0.001";
    object      ddt0(rho);
}
// * * * * * * * * * * * * * * * * * * * * * * * * * * * * * * * * * * * * * //

dimensions      [1 -3 -1 0 0 0 0];

internalField   nonuniform List<scalar> 
10000
(
-4.52741e-10
2.5563e-11
-6.9261e-10
-7.90694e-10
6.47374e-11
-4.05371e-12
-2.82914e-11
3.93891e-10
-4.32862e-10
2.20415e-10
-5.7194e-11
3.98121e-10
2.52909e-10
-2.65318e-10
7.51187e-10
-7.24049e-10
-2.13057e-10
2.73217e-10
-3.07242e-11
4.5827e-10
2.85468e-10
1.7912e-10
6.19779e-10
1.47879e-10
4.8795e-10
9.32303e-10
3.73148e-10
-2.78329e-10
2.70365e-11
-2.50639e-10
1.45458e-10
-2.18656e-10
-3.27712e-10
-4.63357e-10
4.55862e-11
9.46916e-12
-4.47378e-10
-8.71708e-10
-1.2091e-09
-2.67749e-10
-2.43262e-10
-3.70682e-10
-9.82479e-10
-6.5803e-10
-5.40177e-11
2.4868e-10
2.52466e-10
-6.88783e-11
6.52337e-11
4.69639e-11
1.97761e-10
-1.07948e-11
7.95563e-10
4.20574e-10
1.70933e-10
-6.23681e-10
-1.56006e-10
-2.06702e-10
-1.4133e-10
-5.523e-11
2.17832e-10
1.95515e-11
1.31238e-10
-1.71695e-11
1.95509e-10
1.56426e-11
-4.36644e-10
3.62691e-10
3.0786e-10
6.16643e-11
2.77587e-11
-2.49479e-10
-4.0582e-10
-4.73571e-10
-2.41374e-10
3.73771e-11
4.68068e-10
-4.95723e-10
-5.64829e-11
4.01295e-10
1.93749e-10
5.47454e-10
2.12185e-10
2.56803e-12
1.30265e-10
4.96192e-11
3.15099e-10
2.4435e-10
8.67816e-12
3.71399e-11
-2.74457e-12
-5.91743e-10
-7.97221e-10
-7.97451e-10
-2.05848e-10
5.20684e-10
4.66967e-10
1.6466e-10
-1.58177e-10
1.71138e-10
-2.19753e-11
-3.947e-12
-4.31002e-10
-3.03605e-10
-9.44765e-11
-1.19495e-09
-8.88476e-10
-1.16902e-09
-4.26902e-10
-9.1892e-11
-2.10937e-10
7.37368e-10
4.65216e-10
8.73493e-10
1.31686e-09
1.52869e-09
1.37059e-09
7.61471e-10
8.46407e-10
1.63574e-10
-1.73804e-10
9.67282e-12
-2.47793e-10
6.10611e-12
2.56738e-11
-9.4543e-10
5.36207e-11
1.33935e-11
4.82414e-10
2.68201e-10
-2.66535e-13
4.36505e-10
2.12209e-10
1.90459e-10
6.08714e-10
-3.6004e-11
4.10563e-10
-5.70265e-10
-7.07307e-10
-6.15619e-10
-8.71233e-10
-1.00148e-09
-1.17946e-09
-5.71034e-10
-2.35183e-10
-2.72757e-10
-6.58095e-10
2.46398e-10
4.33166e-10
-5.92183e-11
4.04565e-10
2.11292e-10
1.67617e-10
2.61605e-10
1.00697e-09
1.10137e-09
4.91181e-10
5.873e-10
2.60583e-10
-3.95103e-11
-2.37943e-10
-6.57087e-10
-3.27127e-11
-4.81563e-10
-6.04344e-10
-4.49914e-10
-3.78943e-10
-6.44251e-11
-1.3266e-10
3.83353e-10
4.69802e-10
4.20729e-10
-4.46526e-10
1.75031e-10
-2.90312e-10
-2.31148e-10
-7.54995e-12
-1.4891e-10
-2.44757e-10
-6.7339e-10
-2.45277e-11
1.90361e-10
2.02421e-10
-2.09487e-10
-2.23422e-10
-3.10411e-11
2.38081e-10
-1.33497e-10
1.82251e-10
2.55663e-10
2.54896e-10
-3.29963e-12
1.81071e-10
2.93915e-10
-1.73593e-10
-4.94111e-10
-4.02746e-11
-2.91482e-10
-6.50568e-10
-7.2389e-10
2.27308e-11
-7.07668e-11
-5.13459e-11
-1.97127e-10
-2.58032e-10
-6.64445e-11
4.42048e-11
2.41174e-10
6.71496e-10
4.97139e-10
7.48744e-11
4.37193e-10
3.20024e-10
-4.54199e-10
-2.42675e-10
-6.61199e-10
-2.71096e-10
-4.9767e-10
2.06104e-11
-3.56088e-10
7.27941e-10
-8.87153e-11
1.84773e-10
9.14471e-10
5.05215e-10
-8.50664e-11
5.80529e-10
6.862e-10
-6.63462e-10
2.45405e-10
-1.86455e-10
-6.89072e-10
5.93473e-11
-6.27921e-10
-2.82747e-10
-3.14539e-11
1.10973e-11
1.91843e-10
4.86756e-10
3.56807e-10
2.45527e-10
4.09082e-10
9.79135e-10
6.87495e-10
3.0087e-10
4.35767e-10
-7.37595e-12
4.10313e-11
-2.75914e-11
2.14284e-10
1.18493e-10
-6.38698e-10
-4.81041e-10
-1.99407e-10
-1.99818e-10
1.73594e-11
2.69025e-11
2.49748e-10
3.41088e-10
4.77957e-10
4.27352e-10
-2.07145e-10
-3.53119e-10
-2.9064e-12
-4.51618e-10
-1.01976e-09
-1.09079e-09
-6.94775e-10
-5.29741e-10
-4.93264e-10
-1.72803e-10
-2.73281e-10
4.38193e-10
-4.31379e-10
7.83341e-10
5.21963e-11
-8.6796e-11
1.72856e-10
3.10186e-10
1.35261e-10
2.21957e-10
-7.59771e-11
-2.44956e-10
2.57017e-10
4.30994e-10
-7.16801e-10
-6.67534e-10
-8.85116e-10
-1.04653e-09
-5.66395e-10
-2.79265e-10
-4.31255e-10
-4.07888e-10
3.14197e-11
1.5654e-10
6.78724e-10
2.38833e-10
6.35105e-10
5.05937e-10
3.77432e-10
-3.95013e-10
2.34905e-10
1.94246e-10
1.51267e-10
-2.81092e-11
2.42731e-10
2.24761e-10
7.40108e-10
6.76177e-10
7.04415e-10
1.5817e-11
-6.1145e-10
-8.03552e-11
-8.64843e-12
2.31244e-10
1.99044e-10
-4.41377e-10
1.75741e-10
-2.8198e-10
2.18577e-10
-1.83435e-10
-4.77264e-11
-2.21093e-10
-6.26248e-10
-1.96219e-10
-3.98504e-11
-1.52832e-11
1.32682e-10
-2.17171e-10
-2.44823e-11
4.40135e-10
4.48236e-10
5.14549e-10
-4.43065e-10
1.68345e-10
6.33369e-10
2.71078e-10
1.44924e-10
-8.73218e-10
-7.02044e-10
-3.75746e-10
-4.49931e-10
-8.56877e-10
-8.56117e-10
-5.63294e-10
-6.46773e-10
-5.11959e-10
-2.19071e-10
1.60193e-10
8.82133e-10
7.10724e-10
6.5177e-10
3.26425e-10
5.40082e-10
8.09124e-12
-2.05827e-10
1.17396e-10
-1.06758e-11
1.38618e-10
6.68886e-10
3.85041e-10
-2.18454e-10
5.79127e-10
6.23307e-10
6.06405e-10
5.04986e-10
-1.64177e-10
2.2728e-10
4.34366e-10
5.8811e-10
3.8799e-10
-5.19812e-10
-1.95407e-10
-6.81791e-10
-2.82946e-10
-1.45546e-11
3.46554e-11
1.26191e-12
8.3152e-11
-1.81918e-10
4.32968e-11
7.06068e-10
9.40545e-10
1.63855e-10
6.80504e-10
-1.56527e-10
2.15127e-10
-9.3884e-10
-1.27767e-09
2.49047e-10
-4.10388e-10
-1.20291e-09
-6.61946e-10
-1.93523e-10
-3.29114e-11
-3.79328e-11
-6.38311e-10
3.25464e-12
6.71855e-10
3.33824e-10
-3.83085e-11
-2.0329e-10
1.00459e-10
2.12717e-10
-2.38772e-10
-1.08044e-11
2.52039e-10
5.71851e-10
1.26508e-10
-2.61392e-10
4.3828e-10
2.39951e-12
1.59297e-10
-6.47969e-10
-2.17188e-10
-6.00829e-10
-4.68292e-10
-7.32571e-10
-4.48971e-10
-4.71219e-10
2.18211e-10
2.28179e-10
6.66999e-10
2.36676e-10
2.3362e-10
1.60533e-11
-2.73576e-10
4.84506e-11
2.9595e-10
1.90168e-10
-1.42193e-10
-5.09961e-11
4.13221e-10
-2.23197e-11
6.54529e-10
-4.59282e-11
-4.21193e-11
4.85553e-10
-4.58866e-10
-5.73974e-10
-9.00841e-10
-8.51829e-10
-1.68709e-10
-8.92333e-10
-5.91197e-10
-5.94844e-10
-9.06921e-10
-2.14308e-10
1.97413e-10
5.69367e-10
8.49062e-10
5.94922e-10
6.41784e-10
4.09961e-10
8.79162e-10
4.95323e-10
4.47712e-10
3.84429e-10
3.89549e-11
-3.79412e-11
2.48112e-10
-1.95573e-10
3.02184e-11
7.07883e-11
-4.39911e-10
5.43418e-11
-8.29879e-10
1.80874e-11
-8.55417e-12
1.98481e-10
4.94849e-11
2.00189e-10
5.90483e-10
2.13017e-10
4.95686e-10
-2.65457e-11
-1.88425e-11
-1.42913e-10
-6.79759e-10
-6.40799e-10
2.8196e-11
-6.64456e-10
-4.90158e-10
-3.72718e-10
1.86087e-10
4.10925e-10
5.75419e-11
-1.83131e-10
2.01435e-10
7.23331e-10
2.41443e-10
6.29769e-10
2.10516e-10
2.70916e-10
4.93466e-10
-2.84419e-10
2.55705e-11
2.15328e-10
-4.71275e-10
-4.28385e-10
-3.00251e-11
1.81295e-11
4.20001e-10
1.66244e-10
1.08988e-09
6.25463e-10
4.29033e-11
4.40021e-10
5.23014e-10
4.73134e-10
-5.30154e-10
-1.16058e-09
-2.05769e-10
1.66344e-11
-1.91893e-10
-6.75624e-10
-7.08751e-10
-4.42286e-10
-4.87815e-10
-2.43008e-10
-2.56558e-10
7.60445e-12
-2.55467e-11
2.41249e-10
3.95735e-10
-9.72687e-13
-3.4025e-11
-4.35846e-10
-1.9948e-10
2.83509e-12
4.70335e-10
-1.11545e-10
-2.26886e-10
-6.51745e-10
-6.50983e-10
-4.46621e-10
-2.18748e-10
-9.45117e-10
-8.07055e-10
-3.62297e-10
3.05255e-12
1.02622e-10
7.71324e-10
2.45982e-10
9.12141e-10
6.73528e-10
2.17926e-10
1.26871e-11
-4.61782e-10
-2.3785e-10
-1.23175e-10
-4.04466e-11
2.91352e-10
-2.16292e-10
1.10072e-09
1.16763e-10
-2.05485e-10
1.06601e-09
3.09911e-10
-2.56451e-10
-1.93333e-10
-6.02715e-11
-5.25108e-11
-6.4068e-10
-4.5662e-10
-6.25002e-10
-1.88116e-10
-6.8152e-10
-4.34143e-10
-8.40621e-10
-8.72207e-10
-6.55195e-10
-2.97704e-10
1.66859e-10
-6.89687e-10
1.58888e-10
1.27091e-10
6.57261e-10
6.30058e-10
6.92535e-10
-9.99401e-13
-4.1936e-11
6.72623e-10
6.42959e-10
4.57545e-10
4.36946e-10
-1.87453e-12
6.27543e-10
-9.78603e-11
-2.26721e-10
-4.42385e-10
-5.9838e-10
-2.50527e-11
1.33433e-10
6.70556e-11
-3.02786e-11
4.22684e-10
6.11689e-10
5.77973e-10
4.00667e-10
7.54308e-11
-3.926e-10
-1.79841e-10
2.78165e-10
-4.36179e-10
-2.28793e-10
-8.35849e-10
-2.92125e-10
-2.12852e-10
-1.01211e-10
6.21615e-10
-1.12627e-10
-2.77508e-11
-3.19384e-13
1.78803e-10
6.8268e-10
1.87222e-10
2.43477e-10
-3.07153e-11
-1.82198e-10
2.90881e-11
4.73887e-10
-9.63526e-12
-4.07079e-10
-1.91646e-10
-6.69041e-11
2.12291e-10
2.6341e-10
-1.8019e-10
2.59681e-10
-2.32129e-10
-5.70686e-10
-7.69819e-11
-6.91627e-10
-1.41433e-10
-3.17719e-10
-4.41946e-10
-4.92759e-11
-4.44548e-10
-2.86776e-11
-1.62064e-11
4.3455e-10
4.13259e-10
5.5863e-11
1.5671e-11
-4.51612e-11
-4.63319e-12
6.38848e-10
-3.71044e-10
8.36648e-10
-1.21499e-11
1.40978e-11
1.75807e-10
-2.64395e-11
2.34831e-10
2.11993e-10
-7.8417e-10
1.63726e-11
-7.59059e-11
-1.65484e-10
-6.40708e-10
-6.27955e-10
4.59161e-11
2.53253e-10
-1.17265e-10
-1.05747e-11
4.43805e-10
6.34877e-10
4.52009e-11
4.2074e-11
1.79629e-10
8.75202e-10
-7.15993e-10
-1.07452e-09
-1.19444e-10
-2.12247e-10
-1.85045e-10
2.56509e-10
4.07244e-10
6.66012e-10
6.86014e-10
9.36962e-10
4.58093e-10
-6.77746e-12
-2.24765e-11
-5.79439e-10
-4.45323e-10
-4.72296e-10
-8.97674e-10
-7.15721e-10
-1.09577e-09
-8.81737e-10
-7.55421e-10
-6.61824e-10
-8.83402e-11
-7.45183e-10
-5.74935e-10
-4.51236e-10
-2.65478e-10
7.64784e-12
7.67503e-10
8.894e-10
1.29499e-09
7.79384e-10
2.1775e-10
9.46109e-10
1.92961e-10
5.41515e-10
-1.04189e-12
4.19382e-10
-2.65115e-10
1.51223e-10
9.24889e-12
6.83242e-10
3.7699e-10
5.12846e-10
4.3958e-10
8.28571e-10
-2.49611e-10
3.63774e-11
7.90661e-11
8.92257e-10
-1.75655e-12
5.24006e-10
-1.55482e-10
2.35519e-10
4.39697e-11
-4.32085e-10
5.55218e-10
-6.66848e-10
8.84065e-10
2.11535e-10
-2.19333e-11
4.80131e-11
-8.0815e-11
2.8892e-10
-6.32111e-10
8.32567e-12
1.58269e-11
7.04302e-10
-1.79061e-10
-4.42383e-10
-4.77382e-10
2.04685e-10
1.73166e-11
1.56848e-10
-2.52634e-10
9.82885e-10
4.56244e-10
2.17939e-10
-6.36732e-10
-8.90405e-10
8.74236e-10
1.63976e-10
-6.51877e-10
-4.06033e-10
-2.33285e-10
1.98953e-10
3.61374e-11
2.27234e-10
-4.63535e-10
-1.965e-10
-4.12556e-10
-5.85206e-10
-4.34504e-10
5.95644e-12
-5.67499e-12
2.6553e-10
2.41836e-10
-2.65404e-10
-3.80249e-10
-8.34257e-10
2.02017e-12
4.35682e-10
2.43491e-10
4.35165e-10
4.59534e-10
1.54702e-11
2.04487e-10
4.89579e-11
-5.46864e-12
-6.09764e-10
-6.68684e-10
-4.79545e-10
-8.50973e-10
-1.30134e-09
-9.37683e-10
-2.1994e-10
-5.01966e-10
-2.00932e-11
-4.88162e-10
-3.65931e-10
-4.23194e-10
2.03547e-10
4.92264e-10
1.07316e-09
1.07166e-09
4.08897e-10
-7.74487e-11
4.04895e-10
7.53928e-10
-4.80935e-12
1.11937e-09
1.60337e-09
4.40958e-10
1.55923e-10
7.0446e-11
-4.62688e-10
-2.53272e-10
-3.53376e-10
-2.04168e-10
-2.23627e-11
1.77271e-11
-1.54533e-09
-5.85168e-10
-4.61898e-10
-6.7883e-10
-6.40154e-10
-7.24535e-10
-1.84392e-10
-6.47231e-10
-1.75167e-10
4.56712e-10
1.77022e-10
1.11944e-10
-1.87308e-10
-3.6727e-11
6.2505e-10
1.34629e-09
1.10972e-09
1.82902e-10
6.76809e-10
-4.55577e-11
-2.0757e-11
-5.54507e-11
6.52682e-10
-1.63532e-10
-1.20229e-11
-5.71354e-12
-4.30636e-10
3.07549e-10
-2.07801e-10
5.11773e-10
-9.05563e-12
-3.18784e-11
2.86594e-11
4.03067e-10
1.84411e-11
-3.49991e-10
-6.02166e-10
-6.80575e-10
-9.77459e-11
-4.8022e-10
-1.07744e-10
-2.98764e-10
1.45346e-10
-4.79097e-10
-2.39101e-10
-4.03923e-10
-4.15636e-10
4.00948e-10
2.27962e-10
2.19584e-10
6.52496e-10
8.72809e-10
8.84749e-10
1.774e-10
-4.4428e-10
-3.00909e-11
-7.54954e-10
-1.06129e-11
2.23636e-11
-4.8467e-10
-2.45975e-11
-8.21379e-10
-8.57183e-10
-3.62522e-12
-8.72281e-12
-2.29734e-10
-3.37999e-11
-4.24203e-10
-4.93195e-12
-2.46e-10
-6.40477e-10
-8.83608e-10
-4.7205e-10
-6.6682e-11
-1.48661e-10
2.80353e-10
5.7983e-10
2.62088e-11
2.31074e-12
7.13035e-10
7.33652e-10
1.8883e-11
5.24525e-10
-5.49759e-11
9.40345e-10
1.93326e-10
4.39839e-10
7.6938e-10
-2.59312e-11
3.40738e-10
-2.85953e-11
2.27276e-10
-1.11053e-10
-8.94797e-10
-6.93372e-10
-9.48546e-10
-5.46953e-10
-5.45456e-10
-2.71947e-10
-5.17282e-10
-3.75011e-10
2.37623e-10
2.01112e-10
4.02289e-10
8.06474e-10
8.42965e-10
7.35621e-10
2.6598e-10
4.43768e-10
9.0366e-10
2.59746e-10
-2.40384e-10
7.89909e-12
4.56228e-11
-4.28197e-10
-8.63648e-11
-6.80426e-10
2.73744e-10
-5.07448e-10
-5.28933e-13
1.88929e-10
-2.61407e-11
1.07259e-10
1.22391e-10
4.38226e-10
2.46325e-10
-5.64688e-10
-4.25349e-11
9.24257e-12
-9.86068e-11
-1.82521e-10
-2.30727e-10
1.58746e-10
-6.55855e-11
-4.41825e-11
-1.6862e-11
-6.49437e-10
8.93914e-11
-1.9264e-12
6.24551e-10
1.34403e-09
6.32952e-10
8.95115e-10
7.08456e-10
4.37646e-10
-2.19892e-10
2.21734e-11
3.01961e-10
-1.83211e-10
-2.85077e-10
-4.45776e-10
-2.14809e-10
-2.68296e-10
-4.92822e-10
3.75146e-10
2.05718e-10
-1.90291e-10
2.79927e-11
-1.70421e-10
-3.8709e-10
-2.42314e-10
-6.40371e-10
-5.09557e-10
-2.80284e-10
3.94736e-10
-7.21942e-10
4.66754e-10
-5.77618e-11
-2.01137e-10
-4.33155e-10
3.84275e-11
-6.4732e-14
-2.45405e-10
-2.23306e-11
1.53242e-10
2.77059e-10
-2.68733e-10
3.04896e-11
2.05938e-10
-1.68263e-10
5.73916e-10
3.04785e-11
5.14676e-10
3.55334e-11
2.35749e-10
2.76557e-10
6.27725e-10
-2.12556e-10
2.95962e-10
-4.45409e-10
-6.42153e-10
1.75092e-11
-4.10044e-10
-7.11671e-10
-6.54572e-10
-1.39898e-10
-3.19075e-11
2.31801e-11
3.07245e-10
2.52169e-10
9.91293e-11
-3.82223e-10
8.73075e-10
2.27106e-10
4.87562e-10
9.93599e-12
2.49174e-10
2.61929e-10
2.36411e-10
-1.5489e-10
4.00785e-10
-1.86734e-10
2.25543e-10
2.27339e-10
-1.7755e-10
4.28273e-10
8.19186e-12
2.58691e-10
-7.0928e-11
8.25291e-11
-8.27427e-11
-1.84588e-10
2.61281e-10
-8.88133e-10
-8.07087e-11
2.80698e-11
2.5025e-10
-4.45931e-10
-2.27866e-10
2.11589e-10
2.15152e-10
4.84474e-11
2.30109e-10
1.51428e-10
5.02707e-11
-2.72663e-10
-1.62809e-10
-2.31251e-10
-1.67283e-11
2.28472e-10
6.47195e-12
1.80084e-10
2.39887e-10
-8.76835e-12
3.23595e-11
-1.86754e-10
1.62257e-10
4.05032e-10
4.89988e-10
4.52929e-10
-4.39162e-10
-2.04775e-10
-1.43707e-10
2.66972e-10
2.12416e-10
-1.86937e-10
-2.23699e-10
-4.63266e-10
-2.12464e-10
1.91938e-10
2.20197e-10
-2.79148e-10
6.33985e-11
-1.95297e-10
3.93057e-10
1.03252e-11
2.2155e-10
2.29484e-10
4.90159e-10
2.39601e-10
4.33105e-10
1.54621e-11
2.93102e-10
6.85198e-10
-1.51636e-10
-4.10851e-10
-5.37577e-10
-4.50145e-10
-6.46508e-10
-1.0832e-09
1.98923e-10
4.50977e-11
-4.27176e-11
-8.77189e-10
-4.76601e-10
1.02663e-11
-2.50314e-10
1.72183e-10
4.85714e-10
8.24054e-10
9.06443e-10
2.91345e-10
4.0842e-11
-4.12883e-10
4.78046e-11
-1.8711e-10
-6.53745e-10
-7.99235e-10
-6.23984e-10
-2.59969e-10
-6.01184e-10
1.02517e-12
6.22414e-12
-4.46441e-11
3.92823e-10
6.40253e-10
-2.13163e-10
9.16215e-11
4.57252e-12
8.32874e-10
-2.2509e-10
5.96159e-10
2.51481e-10
5.97167e-10
7.10442e-11
4.32533e-10
-1.12686e-09
2.92332e-11
-2.18573e-10
2.47796e-11
-6.41587e-10
-9.17179e-11
-1.71498e-12
-5.77284e-10
-1.12474e-10
4.64681e-10
-1.94395e-11
-2.39382e-10
1.76332e-10
-2.20432e-10
1.63278e-10
-1.4567e-10
3.95576e-10
1.57101e-10
-1.24442e-10
-2.80618e-11
2.23403e-10
8.89282e-10
4.46647e-10
-2.63725e-10
-4.04618e-10
-8.79311e-10
-6.32549e-10
3.33915e-11
-2.8333e-10
3.52251e-11
4.90029e-10
1.86906e-10
1.77414e-10
-1.93574e-10
3.78176e-11
-4.5717e-10
4.69668e-10
3.27347e-10
4.60133e-10
4.15812e-10
4.28625e-10
7.12004e-10
5.5215e-10
2.23278e-10
-3.84553e-10
-6.97912e-10
-1.24377e-10
1.40731e-10
1.01054e-11
-2.89703e-10
2.16578e-10
-2.68899e-10
-2.30289e-10
-3.85625e-10
-4.55747e-10
-8.90134e-10
-6.75829e-10
-2.20599e-10
3.72863e-10
-5.85803e-11
3.7223e-10
9.92247e-11
-1.83706e-11
4.88291e-10
2.10197e-10
-4.53763e-10
-4.52769e-10
-9.39942e-12
3.99022e-11
-3.84833e-10
2.7974e-11
-9.29386e-11
6.49134e-10
4.72321e-10
1.91493e-10
5.71296e-10
-2.3907e-11
1.33921e-10
-1.87578e-10
6.62677e-12
1.34687e-11
7.61141e-10
-4.07079e-10
-1.07457e-09
-7.02321e-10
2.5613e-11
-8.21346e-10
-4.70406e-10
1.61886e-11
-2.63509e-10
4.58356e-11
-2.65805e-10
-3.76032e-11
-2.09754e-10
-1.49735e-10
3.18426e-11
1.51152e-11
-1.32691e-11
-4.92531e-11
5.42087e-11
-8.20378e-12
1.59893e-11
1.91018e-10
-1.31671e-10
-4.52404e-10
-2.36152e-10
-1.12654e-09
-1.76587e-12
1.96608e-10
5.72734e-11
2.01315e-10
7.10552e-10
4.40165e-11
2.56496e-10
-1.1675e-10
4.89689e-10
6.8226e-10
5.10463e-10
2.62637e-10
8.43063e-11
-2.29607e-11
-6.14231e-11
-4.48538e-10
2.38688e-10
-4.42969e-10
2.05699e-10
1.221e-11
4.99524e-11
-7.05866e-13
-7.05406e-11
-6.55764e-10
2.33549e-10
-7.44012e-11
1.98626e-10
9.46529e-12
-2.14924e-10
-7.24053e-12
2.80891e-10
2.30964e-10
2.00237e-10
4.6499e-10
-4.75312e-10
-1.87189e-10
-4.23652e-11
-1.05855e-10
-2.85865e-10
2.97721e-12
-2.64031e-10
1.63814e-12
-8.13606e-10
-8.3177e-10
1.28252e-11
3.53842e-10
2.2295e-10
-7.66029e-12
1.02598e-10
9.63332e-12
7.84014e-10
8.34166e-10
4.09445e-10
2.30107e-10
7.47652e-12
-3.93342e-10
-2.14185e-10
-7.49364e-11
-4.25242e-10
-4.17937e-10
-1.87869e-10
-4.32331e-10
3.91949e-10
7.71581e-10
6.69352e-10
4.0521e-10
5.10151e-11
1.65507e-11
9.15354e-11
-2.08441e-10
2.20066e-10
-4.15195e-10
1.39443e-10
2.79322e-10
4.79931e-12
2.47815e-10
2.76302e-10
3.04942e-10
-4.82221e-11
-1.71433e-10
-4.81501e-10
4.58015e-11
-1.70671e-10
1.35778e-10
2.13919e-11
3.58654e-10
-2.21301e-10
8.66101e-11
4.10076e-10
4.6781e-10
-5.02841e-10
-4.25271e-10
-3.69732e-10
2.97611e-11
-3.8232e-10
-7.05504e-11
9.84883e-12
1.13879e-10
2.61606e-10
1.15674e-10
2.30773e-10
-8.22053e-11
-4.76792e-10
-2.56465e-12
-1.71071e-10
-3.42111e-11
-5.02742e-10
2.66687e-11
3.58291e-10
-1.96471e-10
-1.84397e-11
-6.34025e-10
-1.62974e-11
-1.95157e-10
-6.38441e-11
3.68249e-11
3.04216e-11
-9.91548e-12
2.03434e-10
2.21676e-10
2.25399e-10
1.46123e-10
-7.42576e-11
-2.18069e-10
-1.72088e-10
-1.69012e-10
-2.97761e-10
-3.9991e-10
-1.98201e-10
3.1365e-11
-2.0933e-10
-1.97589e-10
-4.36477e-10
-2.67426e-13
9.17511e-11
6.26617e-10
2.2723e-10
5.11307e-10
4.64197e-10
7.50492e-10
-2.95845e-10
-7.39118e-10
-6.49784e-10
-1.24247e-09
-3.8707e-10
-9.38235e-10
-4.69961e-10
1.54043e-10
-3.62787e-10
-4.2425e-11
-9.57365e-12
4.81541e-10
7.9937e-10
8.04772e-10
6.37856e-10
8.3626e-10
9.1776e-10
6.47159e-10
-2.24629e-10
-7.08822e-10
-6.98114e-10
-7.81745e-10
-7.96908e-10
-2.71585e-10
6.80292e-11
5.46182e-11
-4.19936e-10
8.83504e-12
1.68436e-10
4.18005e-10
2.45722e-10
1.21912e-11
3.17014e-10
1.9307e-11
-2.46929e-10
-2.25586e-10
2.62138e-10
2.48791e-10
2.09674e-10
2.00273e-10
2.37021e-10
4.90801e-10
1.0604e-10
-5.18421e-10
-4.41133e-10
-1.96851e-10
-1.37562e-10
7.12064e-11
-4.11723e-11
4.00478e-10
4.53176e-10
2.688e-10
9.75976e-10
8.32612e-10
4.80377e-10
-3.42418e-10
-2.50342e-10
-2.51143e-10
-4.92924e-12
-1.04797e-12
-3.39899e-10
-4.30618e-10
1.9319e-10
-1.8277e-10
-6.51818e-10
-4.29107e-10
-1.1012e-09
1.452e-10
-2.28037e-10
2.40715e-11
7.60454e-10
6.42151e-10
-2.59311e-13
-1.03731e-10
3.0101e-11
-5.35763e-10
-3.16159e-10
3.32547e-11
-2.18647e-10
7.31796e-11
1.90323e-10
2.63502e-10
-2.13546e-11
2.71416e-10
-4.85357e-11
-2.30058e-10
4.75963e-10
5.94915e-11
-8.39099e-12
2.18306e-10
4.92309e-10
2.86357e-10
-3.51684e-11
1.43336e-10
4.72801e-10
8.80261e-11
-2.00641e-11
-2.41425e-10
-4.67907e-10
-3.94562e-10
1.25324e-10
2.1443e-11
-4.27403e-11
-2.22355e-10
-6.69719e-10
1.85994e-10
2.26097e-10
4.39306e-10
-1.01174e-11
4.64385e-10
1.37421e-09
6.58505e-10
8.26937e-10
8.90635e-10
4.05194e-10
1.22638e-10
3.02903e-11
-1.05815e-09
-5.50382e-10
-4.15297e-10
4.43651e-11
-6.35228e-10
-3.27348e-10
2.48556e-11
-8.86864e-10
-5.25881e-11
3.28194e-10
4.87692e-11
1.08081e-09
6.06981e-10
1.10787e-11
-2.78166e-10
-6.71314e-10
-2.63151e-10
2.75284e-10
-4.78253e-10
-1.10636e-09
7.72563e-11
-4.39691e-10
2.18253e-10
4.19459e-10
6.31025e-10
2.43977e-10
2.37094e-11
2.0945e-10
-4.58496e-11
6.23651e-10
2.53889e-10
1.53547e-10
1.89773e-10
-6.43634e-10
1.50108e-10
3.64919e-11
2.51648e-10
-2.55748e-10
1.56755e-10
8.14253e-12
5.42378e-10
1.19344e-10
2.27983e-10
9.32307e-12
-2.38284e-11
6.11914e-10
6.37705e-10
4.55537e-10
6.78624e-10
6.71993e-10
8.32782e-10
4.3138e-10
1.35185e-10
2.37332e-10
-7.21304e-10
-9.16318e-10
-1.17024e-09
1.51553e-10
-2.19768e-10
-6.32182e-10
-2.90373e-10
-2.06974e-10
-2.99141e-10
-2.36101e-10
-3.98203e-10
-3.98341e-11
6.18627e-10
3.49393e-10
-2.01639e-10
3.8298e-10
8.44196e-10
6.24518e-10
1.11129e-09
1.19041e-10
3.98318e-10
4.40389e-10
1.85164e-10
8.4591e-11
-2.79388e-10
-2.10769e-12
-3.53185e-10
-4.81979e-10
-4.27369e-10
2.38744e-10
-5.00537e-10
-1.76579e-10
-3.83335e-10
-2.2223e-10
-1.41688e-10
-3.67665e-11
-1.65026e-10
2.42965e-10
3.78475e-10
7.70385e-10
2.36724e-10
6.58547e-10
1.27779e-12
-2.61535e-10
6.57983e-10
5.3466e-10
-1.66036e-10
2.50811e-10
-4.36602e-10
1.88291e-11
-1.77814e-10
-1.7505e-10
-4.13094e-10
2.66085e-10
-4.20125e-10
4.92687e-12
-7.30648e-10
-2.13673e-10
-6.2058e-10
-4.74094e-10
-4.31846e-10
-8.91713e-12
4.1568e-11
-5.9507e-11
-4.02271e-10
-3.60198e-12
1.02822e-13
-4.38412e-10
-9.22347e-11
1.06419e-10
2.24468e-10
2.63567e-10
2.45247e-11
-2.12645e-10
2.10169e-10
2.77145e-10
-4.32549e-11
-2.24435e-10
6.31967e-11
1.92358e-10
7.27463e-10
1.97186e-10
-8.80094e-11
-2.75684e-10
-5.1544e-10
-2.7804e-10
-2.6879e-11
-3.91723e-10
-2.50433e-10
2.05617e-10
5.16696e-10
4.47123e-10
6.07534e-10
6.56943e-10
6.61481e-10
8.36483e-11
2.01606e-10
5.9139e-10
2.37039e-10
6.71881e-10
-2.04344e-10
-2.75059e-10
-2.33129e-10
1.75235e-10
-4.49583e-12
1.63538e-10
-1.5817e-11
2.42055e-11
2.60911e-10
2.00726e-10
1.71282e-10
4.46409e-10
4.46908e-10
9.48175e-10
6.76378e-10
4.1666e-10
-2.27606e-10
8.0206e-11
4.15992e-10
2.03516e-10
1.83444e-10
-2.43352e-10
2.52209e-10
-9.1795e-10
-2.12097e-10
-6.19097e-10
-2.48204e-10
-4.33116e-10
-9.28746e-10
-5.49882e-10
4.51822e-10
-2.34723e-10
-8.48426e-10
-2.07458e-11
4.5276e-10
9.45179e-10
2.67398e-10
6.74568e-10
2.3684e-10
7.6388e-10
2.20486e-10
4.26722e-10
6.37287e-10
4.15976e-10
-4.95084e-10
1.3138e-11
4.62326e-10
2.34775e-10
-4.00674e-10
2.08044e-10
5.69145e-11
-4.71759e-11
1.15797e-10
-2.15394e-10
-3.90589e-10
-7.68831e-10
-2.53724e-10
1.89257e-10
3.96689e-10
2.48243e-10
1.24384e-09
2.13593e-11
6.75617e-10
1.19152e-11
2.49276e-10
4.13935e-10
-2.5384e-10
-4.82355e-10
-2.92697e-10
-4.67523e-10
-4.78037e-10
-8.46361e-10
-2.24034e-10
-4.24821e-10
-7.91981e-10
1.34216e-12
2.04022e-10
-2.51917e-11
-3.63065e-11
-2.555e-11
-5.05667e-11
-1.80754e-11
1.77035e-10
4.4835e-10
-1.4068e-10
-2.27386e-10
-5.97393e-11
2.98309e-10
1.86306e-10
4.37122e-10
1.65017e-10
-1.22763e-11
1.65461e-10
4.19285e-11
-2.79365e-11
2.57978e-10
-6.17833e-10
-1.41196e-10
-4.7306e-10
-3.51727e-10
1.94804e-11
-6.60875e-10
2.03746e-10
-4.07872e-10
-4.09416e-10
6.49014e-10
-5.77045e-11
-1.40925e-11
2.66443e-11
2.84316e-11
3.04747e-10
-2.2427e-10
2.52525e-11
1.65871e-10
-1.87579e-10
4.10787e-10
6.6843e-10
5.23649e-10
3.80343e-10
7.073e-10
4.28937e-10
4.05519e-10
2.52046e-11
-5.14791e-11
-2.83851e-10
-2.13065e-10
-4.8422e-10
-2.55855e-10
1.34748e-10
4.10936e-10
-7.43477e-12
-3.59242e-10
1.20672e-10
-4.57429e-11
-1.63151e-10
-2.44305e-10
2.59076e-10
1.93152e-11
-4.82612e-10
-1.6855e-11
6.29618e-10
9.08167e-10
7.76057e-10
7.43686e-10
7.9367e-10
4.35649e-10
3.95345e-11
-1.69151e-11
-4.17031e-10
-1.91609e-10
-3.96945e-10
-7.00308e-10
-5.11861e-10
-6.76349e-10
-2.1382e-10
-7.16923e-10
-3.69951e-11
5.81075e-12
1.06739e-11
2.06087e-10
4.00077e-10
-2.81908e-10
6.90589e-10
5.04882e-10
1.64782e-10
-2.07162e-11
-3.30156e-10
-4.61514e-10
-6.46007e-11
2.27456e-10
-2.02231e-10
6.62457e-10
-1.58491e-10
4.15179e-11
2.21817e-10
-4.47572e-10
-6.11573e-11
4.14339e-10
-3.79314e-10
-6.14079e-10
-4.24459e-10
1.7158e-10
1.28252e-10
-4.46327e-10
-7.3099e-10
-7.28387e-10
-1.59629e-10
4.13496e-10
9.62093e-11
-1.45249e-11
2.2491e-12
2.00303e-10
5.94103e-11
4.46462e-10
4.2202e-12
6.72436e-12
2.51701e-11
-5.07146e-11
2.24853e-10
-4.29801e-10
5.14833e-10
8.38607e-10
4.89277e-10
8.41327e-12
-4.58961e-10
-3.54168e-10
-6.38609e-10
-6.56492e-10
-4.59518e-10
-5.35832e-10
-6.1037e-10
6.63846e-10
6.98062e-10
5.90768e-10
2.28138e-10
-2.39938e-10
2.72208e-10
-1.67617e-10
2.33117e-10
2.77754e-10
1.77062e-10
-1.71957e-11
4.01767e-10
4.69985e-11
-8.08875e-10
-3.69349e-10
1.54763e-10
2.20709e-10
6.44782e-11
4.40374e-10
-3.95365e-10
-3.367e-11
1.4728e-10
7.20225e-10
-1.81038e-10
2.09508e-11
4.24093e-10
6.95965e-10
1.271e-11
1.91017e-10
-2.36257e-10
-4.61845e-10
-7.15652e-10
-4.15434e-10
-6.76627e-10
2.19213e-12
2.78742e-10
1.84948e-10
2.17257e-10
4.12704e-10
8.66143e-10
1.51994e-10
-3.87452e-11
4.39352e-10
-2.34761e-10
6.22876e-10
-1.44052e-10
5.61417e-11
-2.69048e-10
-4.68303e-10
6.25714e-11
-4.20359e-10
-3.42045e-10
-7.0224e-10
-4.73663e-12
5.5791e-10
7.58381e-10
5.51981e-12
4.89637e-10
2.43699e-10
-2.74011e-10
1.39656e-11
1.5547e-10
-1.77343e-10
-7.77089e-10
-4.55654e-10
-4.3979e-10
-7.86357e-11
-1.48576e-11
-6.74606e-10
-1.7982e-10
2.55316e-10
-4.6751e-10
-4.10792e-10
-5.92886e-10
-2.71101e-10
-4.54415e-10
-1.91616e-10
-1.27105e-10
-4.1895e-10
2.32161e-11
3.61545e-11
3.31743e-11
-3.24135e-10
6.74387e-10
6.86162e-10
3.66903e-10
-3.77081e-10
-2.58659e-10
-4.42665e-10
-1.81422e-11
1.79399e-10
5.09516e-10
1.79204e-10
1.08958e-09
2.75257e-10
9.89497e-12
2.25583e-10
-3.08769e-11
-2.91553e-10
-1.36179e-11
-2.72625e-10
-4.03414e-10
2.00216e-10
-6.19634e-10
2.22645e-10
4.45269e-11
-2.14741e-10
-1.32163e-10
-4.38438e-10
8.81918e-10
4.58587e-10
7.79524e-10
5.22224e-10
-2.49309e-10
-5.07737e-10
3.05784e-11
1.96611e-10
-2.24886e-10
9.183e-12
4.16133e-10
3.30341e-10
-2.09329e-11
1.48499e-10
7.65094e-11
-6.68812e-10
-6.49549e-10
-6.6198e-10
4.08083e-10
2.80679e-10
-1.82574e-10
9.94837e-11
-3.17453e-11
2.41646e-10
-2.44233e-10
-1.76075e-10
-4.29788e-10
1.09822e-11
-1.13012e-10
-4.66004e-10
-8.92659e-11
-1.71328e-10
5.10114e-10
2.47558e-10
1.7153e-10
2.97054e-11
2.54766e-10
4.07304e-10
7.1899e-12
2.35186e-10
-2.89688e-12
2.21037e-11
-1.37237e-11
3.34601e-11
-1.73338e-10
1.88863e-10
-4.82926e-10
-3.88982e-10
2.01776e-12
-2.6899e-11
-3.77604e-11
1.82632e-10
-4.51926e-10
2.06387e-10
-1.94693e-10
6.70181e-11
-6.97185e-10
-6.55234e-10
-2.81493e-10
-7.66985e-10
2.5625e-10
5.26403e-10
2.64039e-10
4.39386e-10
4.04834e-10
-1.47702e-12
4.82398e-10
-2.81867e-11
4.1785e-10
2.62283e-10
2.32875e-10
7.00507e-10
3.65987e-11
4.07378e-10
-1.93023e-10
-1.56731e-10
1.9217e-10
3.67867e-11
-2.97444e-11
-3.10381e-10
1.63233e-10
-1.32224e-11
-1.75629e-10
-2.00977e-10
-2.6839e-10
-2.43838e-10
2.20295e-10
9.01123e-12
8.45734e-11
2.03254e-10
3.93302e-10
2.14893e-10
-6.63959e-11
-2.25608e-10
-5.89367e-10
-8.38471e-11
-3.8095e-11
1.8643e-10
-2.57389e-10
1.30472e-10
-3.15687e-11
-3.89998e-10
3.5428e-10
2.07953e-10
-4.31862e-11
-5.48069e-11
1.34496e-11
-4.13132e-10
-6.96588e-10
-4.23685e-10
-4.25505e-10
2.8378e-10
4.66062e-11
4.24192e-11
4.08874e-10
-2.31908e-10
2.83829e-10
6.73012e-11
2.34661e-10
-2.53684e-10
-5.15897e-11
-2.97018e-11
-4.08267e-10
4.65092e-11
7.00626e-11
1.36529e-11
2.3685e-11
-4.19725e-12
1.54487e-10
6.60377e-10
4.90969e-10
1.91319e-10
1.92369e-10
-5.72346e-10
-1.00027e-09
-6.81847e-10
-6.24447e-10
-7.1725e-10
-6.34106e-12
-4.54357e-10
4.69732e-10
6.26619e-10
4.69258e-10
6.50675e-10
-2.11398e-12
2.11505e-11
-4.02118e-10
-2.86961e-10
-8.78522e-10
-7.50448e-10
-4.01331e-10
2.03732e-10
-1.78442e-11
-4.62667e-10
2.67765e-10
6.65165e-10
2.0049e-10
-2.24781e-10
1.69748e-10
1.91903e-10
1.38115e-11
1.64152e-10
2.13839e-10
-3.51927e-11
-3.3173e-11
-2.20401e-10
-1.03494e-11
4.01028e-10
-5.80251e-12
-3.86827e-12
-1.20671e-11
-1.63361e-11
-4.69164e-10
-1.79618e-10
-8.4435e-10
-4.92359e-10
-8.44399e-10
-6.14731e-10
-4.20853e-10
-2.85042e-10
2.2783e-10
-2.20208e-10
-2.11696e-10
9.08091e-11
-9.51253e-12
-1.44621e-10
6.79294e-10
1.92367e-10
-1.17719e-11
4.26397e-10
1.23715e-10
-8.25812e-11
6.72559e-10
4.47092e-10
2.72381e-10
4.64232e-10
7.01487e-10
3.0739e-11
1.97198e-11
-7.28565e-10
2.26755e-10
5.42254e-12
-5.89149e-10
-2.80735e-10
-8.70796e-10
1.98312e-10
1.56348e-10
1.96982e-10
4.06961e-11
2.08124e-10
-2.44867e-10
9.05785e-12
-1.654e-10
4.60434e-10
-4.69537e-11
2.23908e-10
-4.34144e-10
-6.37421e-10
-6.83849e-10
-1.88826e-10
-1.77753e-10
-2.60011e-10
-2.90335e-10
-2.16611e-10
-4.63111e-11
-3.96614e-10
1.88835e-10
-1.70083e-10
1.22015e-11
8.0718e-10
4.79918e-10
6.70045e-10
-4.8823e-12
9.39254e-12
-1.03118e-10
-4.10125e-10
2.51053e-10
-1.64726e-11
4.24624e-10
2.18087e-10
-8.47422e-10
-3.81772e-10
-7.8202e-10
-4.29112e-10
-1.62286e-10
-4.23739e-10
-4.40987e-10
1.01594e-10
2.76677e-10
-2.36072e-10
2.88167e-10
4.28097e-10
-1.49904e-10
-4.32119e-10
-4.33999e-10
-6.42506e-10
4.10919e-10
4.7004e-10
3.17634e-10
-6.35401e-11
2.33664e-10
2.05942e-10
6.53786e-10
4.00419e-10
6.68173e-10
7.94466e-10
2.65464e-10
-2.00204e-10
-3.42023e-11
2.86164e-11
-1.79347e-10
6.1729e-10
6.09754e-10
5.96209e-10
5.66318e-11
-2.45942e-10
5.91973e-10
-3.30859e-10
-6.98252e-10
-6.1112e-10
-1.14427e-09
-6.81262e-10
-3.79903e-10
-6.10006e-10
-3.31775e-11
-1.89064e-10
7.65121e-11
-1.81893e-11
6.80844e-10
3.51143e-11
6.59421e-10
5.46511e-10
6.82669e-10
5.27187e-10
4.82777e-11
5.15535e-11
-1.94886e-10
-4.23238e-10
-2.63757e-10
-4.62813e-10
-2.38691e-10
-3.43667e-12
-8.03908e-10
-7.16869e-10
-4.99578e-10
-8.9634e-11
-3.02205e-11
-1.66941e-11
-4.44637e-10
-6.88374e-10
3.89531e-11
-8.09543e-11
4.30476e-10
2.10602e-10
1.85603e-10
-1.99813e-10
5.06503e-10
8.93802e-10
7.77351e-10
5.21256e-10
5.14962e-12
4.2483e-10
8.9398e-10
1.73457e-10
1.05337e-09
-1.47346e-10
-6.34585e-10
-6.15416e-10
2.11823e-10
-6.30913e-10
3.07601e-11
-2.36301e-10
-1.81667e-10
-5.4844e-10
-8.89084e-10
-4.45392e-10
-6.85158e-10
-5.94794e-10
-1.02734e-10
2.40241e-10
2.63532e-11
4.61399e-10
-2.32568e-10
-2.59105e-10
-4.0811e-10
5.1855e-10
6.99962e-10
3.40298e-10
2.08587e-11
2.13468e-11
-4.01078e-10
-1.20671e-10
1.44212e-10
-6.07442e-11
2.3231e-10
2.44025e-10
6.19664e-10
1.0137e-09
4.78558e-10
1.98497e-10
2.29009e-10
4.62612e-12
-8.27698e-10
-4.54387e-10
-4.98394e-10
1.34051e-10
2.654e-10
3.85215e-10
-2.36832e-10
-6.28e-10
-7.94466e-10
-2.32648e-10
-4.1586e-10
1.99727e-10
9.15146e-11
4.25295e-10
4.1448e-11
-2.28846e-10
-1.14915e-09
-4.51505e-10
-4.98622e-10
-2.72791e-11
1.61453e-11
1.32867e-10
7.71912e-12
2.35497e-10
2.56156e-10
7.85617e-10
3.94464e-10
2.41312e-10
2.14749e-10
6.01186e-10
-2.37643e-12
6.76096e-10
-1.44163e-11
-2.08347e-10
2.0288e-10
5.40412e-11
1.66286e-11
2.01564e-10