/*--------------------------------*- C++ -*----------------------------------*\
  =========                 |
  \\      /  F ield         | OpenFOAM: The Open Source CFD Toolbox
   \\    /   O peration     | Website:  https://openfoam.org
    \\  /    A nd           | Version:  9
     \\/     M anipulation  |
\*---------------------------------------------------------------------------*/
FoamFile
{
    format      ascii;
    class       surfaceScalarField;
    location    "0.001";
    object      ddtCorrDdt0(phi);
}
// * * * * * * * * * * * * * * * * * * * * * * * * * * * * * * * * * * * * * //

dimensions      [1 0 -2 0 0 0 0];

internalField   nonuniform List<scalar> 
9999
(
1.67103e-07
7.94263e-07
8.74785e-07
8.02601e-07
8.3151e-07
1.14124e-06
5.92304e-07
3.26503e-07
1.96344e-07
8.65397e-08
-6.80865e-07
-5.83851e-07
1.5161e-07
-2.12012e-07
9.49571e-07
4.25517e-07
3.86266e-07
-1.52665e-07
-1.42196e-07
-5.68533e-09
-8.80308e-08
-3.28494e-07
-8.53124e-07
-2.21033e-07
-7.31133e-07
-6.59663e-07
-2.91587e-07
-6.54586e-07
-8.34404e-07
-2.68303e-07
-3.19778e-07
-2.85364e-07
1.08056e-07
4.68522e-07
8.3518e-07
1.24471e-06
5.42714e-07
1.19685e-06
5.88044e-07
9.62706e-07
7.77274e-07
5.09062e-07
-4.5239e-07
-2.82046e-07
-3.46489e-07
-4.19075e-07
-5.71312e-07
-5.71329e-07
4.0899e-07
6.31862e-08
3.00759e-07
5.56035e-08
-4.64874e-07
3.33561e-07
-4.91109e-07
-1.57191e-07
-2.61745e-07
-2.79192e-07
2.62553e-07
-3.27873e-07
-6.20074e-07
-4.48695e-07
-2.43764e-07
3.53104e-07
-3.92258e-07
9.50339e-07
3.93916e-07
4.48972e-07
1.77925e-07
2.64465e-07
2.73631e-07
-1.36766e-07
1.04863e-06
7.86865e-07
6.89477e-08
-3.41298e-07
-9.89364e-08
7.43942e-09
-3.39978e-07
-3.85444e-07
-8.51765e-07
1.43859e-07
-3.43528e-07
-1.74372e-07
-2.75099e-08
-1.71534e-07
-6.68889e-08
1.1359e-07
2.2449e-07
2.1231e-07
1.06995e-07
3.05195e-07
2.02619e-07
7.84341e-08
-5.75485e-07
-6.95627e-08
7.56833e-07
5.85316e-07
2.60342e-07
-4.91551e-08
-6.45131e-07
-6.39306e-07
-8.78506e-07
-8.5757e-07
-6.39872e-07
-3.66274e-07
-7.75535e-07
-9.63583e-07
-2.70873e-07
-7.94647e-07
-6.29211e-07
-5.40897e-07
4.509e-08
1.02174e-07
-4.1763e-07
-1.36316e-07
-5.61339e-07
5.49346e-07
-1.34795e-07
8.28004e-08
-5.44727e-07
-3.13994e-07
6.75249e-08
-2.40434e-07
-7.1223e-07
5.04162e-08
-5.99076e-08
-2.01238e-07
5.04912e-07
5.30046e-07
9.91595e-08
7.0489e-07
-1.35004e-07
-4.6358e-07
4.8388e-07
-4.49937e-08
9.43678e-07
9.58256e-08
1.13293e-06
3.52396e-07
1.87599e-06
7.01842e-07
8.76296e-07
7.13672e-07
3.38077e-07
4.69545e-07
-4.71977e-07
-3.45218e-07
-2.9122e-07
5.11826e-08
-8.1366e-07
-1.64925e-07
-2.43876e-07
-1.00453e-06
-8.56655e-07
-2.945e-07
1.46977e-07
5.41338e-07
-1.08145e-07
1.20549e-07
-8.60549e-08
-5.92777e-07
6.73681e-07
7.80275e-07
8.51302e-08
4.45944e-07
1.16206e-06
7.6377e-07
4.37321e-07
5.67558e-07
-2.65091e-07
-1.83708e-07
-7.04116e-07
-9.22143e-07
-9.54692e-07
-8.31456e-07
-6.18805e-07
1.06348e-07
2.56504e-07
1.72973e-07
6.75974e-07
8.00126e-07
2.96967e-08
-1.17528e-07
7.23061e-08
-4.30058e-07
5.84244e-08
-1.87012e-07
-6.07371e-07
-4.96823e-07
-6.04483e-07
6.62137e-07
1.50268e-08
5.38488e-07
2.87721e-07
-3.26351e-07
5.57015e-07
2.54934e-07
3.86681e-07
3.9183e-07
4.0112e-07
3.67412e-07
1.26851e-07
-6.13821e-07
3.29597e-07
-5.49985e-08
-1.29592e-08
-4.32638e-07
-1.47719e-07
-5.33073e-08
-2.19636e-07
-2.01122e-07
5.37718e-07
3.69679e-08
4.07013e-07
4.44836e-07
2.70726e-07
-8.32542e-07
-1.98509e-07
-6.14749e-07
1.97009e-07
-4.989e-07
-2.96852e-07
-1.43957e-07
1.82314e-07
-1.12177e-08
1.79983e-07
2.81763e-07
3.77339e-07
6.95166e-07
2.36744e-07
5.2472e-07
-5.18568e-08
-3.55031e-07
-8.87757e-07
-6.3463e-07
-2.73812e-07
-7.75136e-07
8.10335e-08
-9.73391e-07
-4.51129e-07
-1.14165e-06
-5.18148e-07
-9.09695e-07
-2.42575e-07
3.83012e-07
7.21765e-08
-1.57861e-08
-2.10316e-07
9.54377e-07
3.51521e-07
1.30681e-06
7.34055e-07
6.60528e-07
2.46205e-07
4.8255e-08
-1.21509e-07
-6.19201e-07
-1.0225e-06
-2.1324e-07
-7.25094e-07
-1.14323e-07
3.03961e-07
9.44831e-07
9.52258e-07
8.54754e-07
2.12112e-07
1.07453e-06
1.16546e-06
2.71711e-07
8.51073e-07
-1.61312e-08
-6.92713e-07
-7.6927e-07
-2.4891e-07
-1.65129e-07
-2.92941e-07
-4.96463e-07
-7.84856e-08
1.4146e-07
6.20769e-08
-7.05191e-07
-1.42663e-06
-1.50553e-06
-9.15216e-07
-7.46368e-07
-1.09463e-06
-3.14641e-07
-3.16003e-07
4.78377e-07
7.22242e-07
1.14617e-06
1.28425e-06
1.54005e-06
5.39703e-07
1.70565e-06
6.42286e-07
4.31421e-07
1.45207e-07
2.64168e-07
-5.78487e-07
-2.88257e-07
-3.91609e-07
-5.47953e-07
-9.59572e-08
-1.40518e-07
-3.81036e-07
-1.79587e-07
2.41503e-07
-1.11706e-07
-5.42525e-08
-4.98854e-07
-3.21246e-07
-4.29754e-07
7.84395e-07
5.8756e-07
-2.04568e-08
-1.28705e-07
-1.83551e-07
-2.29094e-07
6.88112e-08
6.44278e-07
7.30381e-07
6.74536e-07
6.22018e-07
6.80201e-07
6.44881e-07
-2.83943e-07
-5.84264e-07
-4.88464e-07
2.53018e-07
-8.50758e-08
4.77955e-07
-6.53202e-07
2.11742e-07
5.11726e-08
-1.55406e-07
-8.57991e-07
-4.04445e-07
-9.9812e-08
-1.88176e-07
-9.46507e-07
-1.05851e-07
-1.0894e-06
-1.26498e-06
-1.61932e-06
-1.52231e-06
-4.62538e-07
-9.41147e-07
7.00891e-07
-3.03961e-07
1.01643e-06
1.31356e-06
1.73412e-06
1.35647e-06
9.75267e-07
4.30644e-07
6.32048e-07
2.93409e-07
4.32645e-07
-2.38487e-08
-5.69897e-07
1.50762e-07
-1.08919e-06
-7.2786e-07
-1.50177e-06
-8.90184e-07
-2.08926e-07
1.41791e-08
-4.2493e-07
3.8641e-07
-2.40857e-07
-2.34943e-07
9.04143e-07
-9.1557e-07
-2.16586e-07
-4.22313e-07
2.15664e-07
5.93401e-07
2.62166e-07
1.53857e-07
-4.89022e-07
8.87708e-07
-4.87448e-07
-7.22102e-07
4.02214e-07
-1.18693e-07
1.01456e-08
4.47583e-07
1.97953e-06
7.80982e-07
8.81781e-07
1.02772e-06
-2.59114e-07
4.25033e-07
2.76151e-09
-1.51295e-07
-4.35054e-07
-2.55765e-07
3.65553e-07
-1.17608e-07
-3.45502e-07
-2.83291e-07
-2.33689e-07
-6.36697e-07
-6.84063e-07
-9.45241e-07
-7.05813e-07
-6.22697e-07
-7.79999e-07
-1.72509e-08
4.67623e-07
7.82611e-07
3.06969e-07
6.93976e-07
3.45311e-07
3.56142e-07
4.39884e-07
-2.10553e-07
5.1919e-07
1.38739e-07
-2.08763e-07
1.39108e-07
-2.2739e-07
-1.4324e-07
9.91363e-08
1.10633e-07
-5.39837e-08
1.63489e-07
6.81334e-07
5.23935e-07
3.10214e-08
4.89647e-07
-3.08982e-07
-4.84308e-07
-4.68175e-07
-8.29166e-07
-1.02265e-06
-1.10613e-06
-1.59938e-06
-1.1504e-06
-1.10568e-06
-4.68373e-07
-5.93059e-07
7.73632e-07
-1.86791e-08
-4.41328e-07
3.74315e-07
4.31141e-07
7.45566e-07
1.26341e-06
1.08326e-06
1.58794e-06
1.00554e-06
6.20201e-07
4.64576e-07
-5.75674e-07
-5.92219e-07
8.79882e-09
-9.86148e-08
2.27414e-07
-5.36556e-08
2.17228e-07
7.3523e-07
1.35086e-07
1.33438e-06
2.22765e-07
2.02585e-07
-3.21284e-07
-2.24041e-07
-3.60261e-07
-6.21174e-07
-3.32464e-07
8.30261e-08
-1.24131e-07
1.84844e-07
4.81445e-07
1.09981e-06
7.53677e-08
2.69112e-07
-1.71454e-07
7.12136e-09
-2.49712e-07
-3.79817e-08
-4.0129e-07
-3.74274e-08
-4.4771e-07
-4.90575e-07
-5.53976e-07
-6.42363e-08
2.2864e-07
1.38756e-10
-2.59177e-07
-3.40529e-07
2.09202e-07
-1.70815e-07
-5.30888e-07
-2.30369e-07
4.49887e-07
-2.25201e-07
-4.01118e-07
-3.15034e-07
-1.33265e-07
5.47213e-08
-6.64716e-07
-4.2957e-07
-2.2141e-07
-5.07674e-07
-7.60378e-07
5.55234e-07
8.7616e-07
-3.99139e-07
7.31335e-07
3.7618e-07
1.14676e-06
9.42887e-07
1.5453e-06
1.76397e-06
4.92441e-07
6.64521e-07
1.57362e-07
1.28919e-07
-2.12578e-07
-8.85385e-07
-7.69225e-07
-6.04702e-07
-8.39808e-07
-3.75118e-07
-2.86692e-07
-5.2485e-07
2.21558e-07
3.37193e-07
-3.3417e-07
-4.09839e-07
-1.10327e-07
-5.76952e-07
-7.55541e-07
1.52693e-07
-7.68718e-08
-3.11094e-07
2.12373e-07
-4.2474e-08
7.4947e-07
5.09553e-07
2.72754e-07
8.13121e-07
7.50452e-07
4.76913e-07
1.24481e-07
-5.62841e-07
-2.6309e-08
-5.53954e-08
9.42403e-10
-2.08064e-07
2.26472e-07
3.50125e-07
3.65233e-07
-1.64619e-07
-2.95947e-07
8.7424e-08
-1.22613e-07
-1.19674e-06
-1.44184e-06
-1.44787e-06
-1.44296e-06
-2.08088e-06
-1.11047e-06
-6.97514e-07
-2.55501e-08
-9.38749e-07
1.10116e-06
-1.1833e-07
8.23829e-07
7.88597e-07
1.04085e-07
2.84182e-07
6.45397e-07
6.18951e-07
4.80672e-07
5.1288e-07
3.14564e-07
-1.3038e-07
7.34114e-07
4.1444e-07
3.10291e-07
-1.06435e-08
1.00236e-06
6.89808e-07
9.53105e-07
1.37041e-06
7.60222e-07
2.71847e-07
-2.63966e-07
-2.68485e-07
-1.83039e-07
-2.17368e-07
-3.50484e-07
3.15022e-07
-3.35409e-07
6.04864e-07
2.86796e-07
-1.05577e-07
-4.75739e-07
-1.25337e-08
-4.60212e-08
7.97699e-07
4.48078e-07
-3.32414e-07
-3.248e-08
-1.07538e-07
4.63299e-08
-4.00128e-07
-4.68601e-07
2.87549e-07
-1.88007e-07
3.74409e-07
-2.63885e-07
-1.26775e-07
-7.9724e-07
-6.76644e-07
-8.50669e-08
1.89742e-07
-8.38138e-08
-2.20431e-07
-4.77814e-07
4.63888e-07
-6.24323e-08
8.04186e-07
4.74888e-07
-5.88036e-08
2.32818e-07
-1.5152e-07
4.06222e-07
-4.51767e-07
3.19703e-07
1.39987e-07
2.79665e-07
2.09931e-07
2.77509e-07
3.51482e-07
5.20758e-07
3.81075e-07
5.91252e-08
-5.15773e-07
-2.27448e-07
-4.2957e-07
-3.1188e-07
-2.20635e-07
-2.63227e-07
-4.00562e-07
-3.5969e-07
8.69107e-08
-2.04692e-07
-6.03474e-07
-2.99564e-07
-3.12602e-07
-1.18912e-06
-9.96466e-07
-2.0001e-06
-2.31173e-07
-5.34194e-07
-3.80455e-07
-3.79769e-07
-1.10732e-08
-1.00481e-07
2.46581e-08
-6.41764e-08
5.99042e-07
3.572e-07
4.24543e-07
5.76612e-07
7.96811e-07
8.31678e-07
4.07301e-07
8.57469e-07
-1.45367e-07
1.31627e-07
-8.15678e-07
-3.77472e-08
-1.16616e-06
-7.19492e-07
-6.13455e-07
1.68676e-07
-7.57798e-08
1.22372e-07
-3.94031e-07
-1.28764e-07
-3.18965e-07
-8.63076e-07
-9.42333e-07
-8.92632e-07
-7.62416e-07
-6.13571e-08
-9.66517e-07
-9.92939e-07
-1.21417e-06
-1.65871e-07
-4.22313e-07
-4.74059e-07
-2.02274e-07
3.06872e-07
5.65204e-07
5.24685e-07
7.9227e-07
6.68178e-07
7.7331e-07
8.73005e-07
7.43854e-07
1.1319e-06
-2.28271e-08
1.12194e-06
1.27568e-06
-4.5235e-08
-1.80201e-07
-2.58318e-07
-4.51987e-07
-3.0925e-08
-7.39721e-07
-9.48137e-07
-3.09943e-07
-2.26325e-08
4.70653e-07
-3.91631e-07
5.05315e-07
9.18059e-07
-6.71212e-07
8.35654e-07
5.96739e-07
2.87617e-07
-6.51221e-07
-1.23196e-06
3.57714e-07
-7.98821e-08
1.72225e-07
4.4056e-07
2.84565e-07
9.64537e-08
5.05717e-08
-3.73831e-07
2.84175e-07
-1.06038e-06
7.64415e-07
-2.64496e-07
1.4519e-07
2.42248e-07
4.05949e-07
-4.14083e-07
-8.52515e-07
6.59862e-07
-3.38864e-08
-2.97195e-07
-1.04258e-06
6.86225e-07
-3.24344e-08
3.57134e-07
5.97186e-07
1.72897e-07
-8.61586e-07
-3.6556e-07
5.82617e-07
-5.0577e-07
-1.93446e-07
3.26894e-07
1.61424e-07
8.11182e-07
1.029e-06
9.55465e-07
7.57697e-07
5.61542e-07
-2.54511e-07
-7.97651e-08
-5.6347e-07
-6.06396e-07
-7.4361e-07
-2.87384e-07
-7.53958e-07
-1.31422e-07
-4.94489e-07
1.7999e-07
-4.77011e-07
5.47791e-08
7.67316e-08
-8.52055e-08
-9.46563e-08
5.58392e-07
-2.70626e-07
5.15285e-07
2.59173e-07
2.62104e-07
5.03869e-07
2.69055e-07
-7.77693e-08
-3.45309e-07
-5.56258e-07
-1.03951e-06
-1.75598e-06
-1.18482e-06
-6.11778e-07
-4.03814e-07
-1.81188e-08
1.31672e-06
6.61117e-07
7.99461e-07
2.07632e-06
1.33644e-06
6.78442e-07
6.17033e-07
7.04848e-07
4.28949e-07
-3.18385e-07
-9.76619e-07
-6.34816e-07
-4.98516e-07
-1.19493e-06
-8.60736e-07
-1.47557e-06
-8.09428e-07
-8.29665e-07
-1.01271e-06
-1.59003e-07
-1.0677e-07
9.3887e-07
7.46509e-07
7.33137e-08
-1.00043e-06
-2.8934e-07
-5.22043e-07
-1.02435e-06
-4.34818e-07
-4.01432e-07
8.08816e-07
9.27127e-07
8.11423e-07
2.55006e-07
-1.37394e-07
-6.40063e-07
5.55821e-07
-4.92056e-07
7.31783e-08
1.69076e-07
2.31844e-07
7.36883e-07
1.04252e-07
9.84304e-07
3.27456e-07
1.121e-06
9.6262e-07
-2.95731e-07
5.73683e-07
-9.12808e-07
3.90276e-08
-6.63374e-07
-2.23843e-07
-6.63399e-07
8.86044e-08
1.21289e-07
1.2918e-07
9.20345e-07
9.76274e-08
8.47446e-07
-2.62245e-07
-2.43349e-07
-1.15967e-06
1.14081e-08
-1.00336e-06
-1.78565e-07
-7.79176e-07
-1.42386e-08
4.18887e-08
-1.606e-07
-3.23895e-07
8.52122e-07
4.06649e-07
9.50247e-07
3.5169e-07
5.30126e-07
-6.00135e-08
-1.683e-08
4.75443e-07
3.07501e-07
-6.87447e-07
2.20585e-07
9.84779e-07
7.49475e-07
3.31584e-07
6.80499e-07
2.96439e-07
6.06798e-08
-4.63168e-07
7.26449e-08
3.07835e-08
-5.44529e-07
-2.14036e-07
-4.01063e-07
-5.64557e-07
1.28675e-07
2.00236e-07
-2.54628e-07
-6.85576e-07
-1.46095e-06
-1.16356e-07
1.16304e-07
2.81062e-07
-7.49318e-07
-2.33447e-07
7.06241e-07
4.44803e-07
4.81762e-07
5.86839e-07
3.80763e-07
-1.3819e-07
3.39294e-07
1.05024e-08
-3.6335e-07
5.32711e-08
-3.24394e-07
-8.99382e-07
-5.4557e-07
-1.85808e-06
-4.66231e-07
-8.18603e-08
3.00685e-07
1.62146e-07
7.47237e-07
6.59023e-07
1.01602e-07
6.82904e-07
-3.8431e-07
5.99281e-07
3.20728e-07
9.52049e-07
4.75645e-07
5.99314e-07
3.98823e-07
-2.26452e-07
-7.80019e-07
-5.09224e-07
-5.05085e-07
1.94233e-08
-5.79361e-07
-5.06842e-07
-7.4328e-07
-5.43269e-07
7.10016e-07
4.94395e-07
-4.39045e-08
-7.22321e-09
6.25569e-07
1.91454e-07
-2.86544e-07
1.07274e-07
-1.31794e-07
-6.77429e-07
-4.88789e-07
-4.95519e-07
-1.59697e-07
-2.61029e-07
-6.2573e-07
-1.21013e-07
-6.83568e-07
7.19881e-08
-3.84138e-07
-7.14747e-08
9.16124e-07
1.71524e-07
7.43553e-07
6.43806e-07
4.02031e-07
4.64856e-07
3.77366e-07
1.26279e-06
3.91756e-07
7.53399e-07
6.83896e-08
-7.30911e-07
2.98349e-07
8.23381e-07
-1.76789e-07
-9.08764e-07
2.05208e-09
-5.49579e-07
-6.6211e-07
-9.91348e-07
-4.9949e-07
-1.91418e-07
9.55859e-07
8.47044e-07
6.4302e-07
6.83116e-07
9.59926e-07
-7.41844e-08
6.97387e-07
-7.85477e-07
-5.3813e-07
-1.01597e-06
-1.09992e-06
-3.66412e-07
-7.71698e-07
2.03363e-07
-5.14002e-07
5.55669e-09
2.00879e-07
5.48685e-07
4.71281e-07
1.71018e-07
-2.21335e-07
1.35278e-07
-2.07432e-07
-1.1576e-07
4.65262e-07
1.69365e-07
-2.06364e-08
5.81859e-09
-4.37617e-07
-1.44286e-08
-2.58749e-08
-6.84153e-07
-4.23957e-07
-3.71197e-07
6.10092e-07
9.90159e-08
-3.45014e-07
-1.0866e-07
-6.53134e-09
6.48356e-07
6.28867e-07
2.43131e-07
-2.82143e-07
2.31906e-07
6.62975e-07
-8.9329e-08
-7.7704e-07
-1.85126e-07
-1.28589e-06
-4.74179e-07
2.05826e-07
7.98888e-07
5.58161e-07
4.63347e-07
4.37634e-07
-1.24664e-08
7.54761e-08
4.00912e-07
8.17395e-07
2.82933e-07
1.42177e-07
-1.63008e-07
-6.7073e-07
-7.45316e-07
-3.8315e-07
-4.25944e-07
-7.02038e-07
-5.1246e-08
2.27065e-07
3.15205e-08
1.23874e-07
6.19213e-07
6.01956e-07
3.31905e-07
-3.97119e-07
-2.5114e-07
-5.85541e-07
-7.05521e-07
-3.64428e-07
-4.60168e-07
-4.99194e-07
-9.03574e-08
-5.43328e-07
7.7219e-07
7.23795e-07
-1.62907e-07
7.8026e-08
5.63925e-07
2.05043e-07
3.8346e-09
-1.43626e-07
-3.19224e-07
-1.31137e-06
-6.18557e-07
-4.56971e-07
-8.28815e-08
5.89953e-08
4.93846e-07
1.10987e-07
-3.77308e-07
3.09774e-07
-4.30556e-07
2.36662e-07
7.00761e-08
4.40856e-07
4.16953e-07
4.04065e-07
7.64311e-07
1.78133e-07
8.60006e-07
2.11717e-07
-2.82225e-07
-1.61013e-07
3.78496e-07
-2.26955e-07
-4.87022e-08
2.75436e-07
-2.8893e-07
2.97733e-07
-3.08322e-07
-4.841e-08
-9.95544e-08
-6.8786e-07
-4.38125e-07
1.85717e-07
4.9186e-07
4.27344e-07
8.41472e-07
4.36488e-07
2.90725e-07
-3.16072e-08
-3.66709e-07
-5.30404e-07
-6.83651e-07
-7.6946e-07
-7.81582e-07
-4.54229e-07
-3.82293e-07
4.24797e-09
3.98098e-07
1.4961e-07
3.63089e-08
-2.15823e-07
9.26307e-07
1.5046e-08
-3.77656e-07
3.86694e-07
6.15252e-07
4.23421e-07
1.17331e-07
-9.69878e-08
-3.18755e-07
2.63511e-07
-3.32865e-08
-2.16465e-07
-5.91925e-08
-2.05943e-07
-3.1266e-08
1.25103e-07
-4.63588e-08
-1.99936e-07
-2.05596e-07
-1.01752e-07
-8.07748e-07
-6.39496e-07
2.48105e-07
5.43121e-07
6.86911e-07
4.49833e-07
4.53811e-07
3.21718e-07
6.39483e-07
-6.27669e-08
-4.29408e-08
6.57067e-07
6.36258e-07
1.01256e-07
-6.74933e-07
-9.50912e-07
-6.69665e-07
-5.12653e-07
-4.97696e-07
-6.65881e-07
-6.953e-07
-5.91326e-07
-3.68431e-07
-4.76625e-07
-9.29963e-07
2.94106e-07
-5.53258e-07
2.23874e-07
9.83461e-08
4.58406e-07
5.72929e-07
3.7221e-07
-1.44592e-07
-2.97013e-07
1.31512e-07
2.61378e-07
-3.08804e-08
6.51916e-07
1.28193e-07
5.30534e-07
-4.72709e-07
4.6096e-07
6.88562e-07
9.1624e-08
2.74303e-08
-5.00495e-07
2.96546e-09
1.68967e-07
-1.93417e-08
-5.80939e-08
3.22181e-07
7.61414e-07
4.94688e-08
-4.44296e-07
-3.51827e-07
-2.01005e-07
6.55741e-08
1.66008e-07
-1.04956e-07
1.5485e-07
-5.934e-08
-2.05315e-07
5.03387e-07
1.95778e-07
2.49217e-08
2.38229e-07
8.83036e-07
7.16904e-07
8.69086e-08
1.50784e-07
-1.12497e-07
1.78e-09
-1.71014e-07
-6.25186e-07
-1.75825e-07
-3.48403e-07
1.63309e-07
2.78199e-07
6.27829e-09
-1.16033e-08
5.83865e-07
-4.35681e-07
-2.29985e-07
-6.32219e-07
-1.29503e-07
-3.58753e-07
5.66123e-07
1.96298e-07
4.25822e-07
-3.91103e-08
-1.87243e-07
-6.51781e-07
1.92771e-07
-2.63345e-08
-4.34299e-07
2.76463e-07
4.49081e-07
-6.27537e-07
-3.96819e-08
2.00387e-07
-6.05988e-08
5.55192e-07
-1.80342e-08
-3.79301e-07
1.61547e-08
-6.41071e-07
2.15607e-07
-3.48935e-08
4.72626e-07
9.59282e-08
8.88177e-09
-2.785e-07
-3.21369e-08
2.14859e-07
5.83432e-08
-3.31657e-07
-2.39163e-07
-2.29428e-07
-4.26697e-07
-3.76745e-07
-1.66741e-07
3.70232e-07
4.67937e-07
9.91212e-07
5.49379e-07
3.75872e-07
7.26912e-07
7.65628e-07
-5.23966e-07
-1.63606e-07
-6.64812e-07
-1.01704e-06
-1.86403e-07
-4.17303e-07
-4.4128e-07
2.93696e-07
1.16768e-07
-5.36677e-08
4.28352e-08
6.0656e-08
2.16671e-08
-5.67453e-07
-7.18529e-07
-1.78948e-09
4.09732e-07
-3.19847e-07
-1.39197e-07
5.31402e-07
8.5356e-07
6.74936e-07
9.16807e-07
5.23092e-07
1.78695e-07
-1.58324e-07
-3.0705e-07
-5.17416e-07
-2.84314e-07
-5.66102e-07
1.85052e-07
-8.19174e-08
6.85976e-07
6.64396e-07
3.52345e-07
7.30507e-08
2.33254e-08
-1.51262e-07
-6.86414e-07
-2.18641e-07
-5.39507e-07
-6.7954e-07
-8.68942e-07
-9.16436e-07
-1.69511e-07
2.61322e-07
-3.87601e-07
9.33414e-07
9.06957e-08
3.42322e-07
-1.56858e-07
-8.77141e-08
1.855e-08
-6.93464e-07
-7.38973e-07
-5.10943e-07
-1.39048e-07
-2.5378e-07
3.0672e-07
5.58976e-07
1.98404e-07
4.90843e-07
2.79031e-07
7.59465e-07
7.2773e-07
7.18774e-07
-6.86373e-08
1.29568e-07
4.99227e-07
-2.26537e-07
-8.8638e-07
-5.66849e-07
1.65382e-07
-6.11748e-08
2.24754e-07
2.82723e-07
6.92621e-07
2.97862e-07
3.697e-07
2.40008e-07
1.17023e-07
3.43212e-08
-4.14031e-07
-5.75426e-07
-6.96143e-07
-1.08468e-06
-4.76504e-07
-5.18643e-07
-1.06849e-06
-4.49735e-07
-3.14353e-07
5.49839e-07
2.05039e-08
2.87004e-07
-3.90149e-07
-1.09426e-07
3.24583e-07
7.22889e-07
9.71659e-07
1.1268e-06
-2.43096e-07
-7.62815e-07
1.50473e-07
-8.28975e-07
-2.47541e-07
2.35407e-08
-1.04463e-06
-9.97263e-07
-2.94362e-07
6.13051e-07
8.37588e-07
8.29039e-07
1.0056e-06
1.00169e-06
4.08164e-07
2.88535e-07
1.60822e-08
-4.61575e-08
-5.03646e-07
-1.76058e-07
5.18294e-07
1.189e-07
-4.9865e-07
-6.10441e-07
1.66663e-07
-5.30666e-07
-8.41415e-08
-1.95653e-08
-1.21594e-07
-2.43257e-07
-7.87078e-08
-1.30056e-08
-2.34286e-07
4.11258e-07
-1.36684e-07
6.27393e-08
-4.36852e-07
-3.93899e-07
3.51544e-07
4.64226e-07
2.61504e-07
1.68788e-07
4.96362e-07
2.12554e-07
4.41944e-07
1.53309e-07
8.00186e-08
3.4422e-07
4.44429e-08
-4.07961e-07
-1.17291e-07
-1.13811e-06
-1.54054e-07
-6.69963e-07
-7.24376e-08
8.18837e-07
6.85203e-07
1.58224e-07
4.85587e-07
-5.18275e-07
-2.79007e-07
-2.77516e-07
-2.49824e-08
4.07551e-08
-8.57449e-07
-5.72262e-07
-5.67169e-07
-1.66483e-07
4.04949e-08
-4.18036e-08
5.90758e-07
1.03241e-06
4.88012e-07
8.41551e-07
7.98898e-07
6.31907e-07
6.83775e-07
9.24325e-07
3.51442e-07
4.89613e-07
-4.20712e-08
-1.68879e-07
-6.84194e-07
-4.52497e-07
-4.33807e-07
-3.85693e-08
-4.51414e-07
-3.39046e-07
-7.27789e-08
-1.98985e-07
-2.61621e-07
5.39698e-07
7.31923e-07
4.09014e-07
-9.17881e-08
-1.29603e-07
-2.16195e-07
-7.72458e-10
-2.85662e-08
-6.04018e-07
-1.07207e-07
-3.64575e-07
-7.8769e-07
-4.05345e-07
-5.15995e-07
3.18257e-07
6.85501e-07
4.57287e-07
1.61137e-07
-3.97998e-07
1.66273e-07
-1.68948e-07
1.40451e-07
2.67761e-07
2.53272e-07
2.03905e-07
-2.61673e-07
-5.65128e-07
-2.34038e-07
-8.52599e-08
9.84868e-09
-6.09943e-08
-2.0094e-07
1.30885e-07
-1.97664e-07
7.56193e-08
4.26753e-08
2.66516e-08
2.07379e-07
3.78394e-07
7.03906e-07
-3.19964e-07
-2.80123e-07
8.58063e-08
-6.88936e-08
-2.13116e-07
-1.84934e-07
1.64927e-07
-3.22659e-07
2.66275e-07
8.59249e-08
2.18293e-07
2.07492e-07
7.02698e-07
3.59281e-07
1.59436e-07
-4.90247e-07
1.84626e-07
3.98839e-07
7.19079e-07
-1.64254e-07
-6.97253e-07
-7.07397e-07
-2.48063e-07
-7.30291e-07
3.22563e-07
3.00392e-07
6.92623e-07
1.087e-07
1.27727e-07
-1.44443e-07
-9.56591e-08
-9.11874e-07
-2.48328e-07
-5.00699e-07
-8.77713e-07
-9.00799e-07
-6.32644e-07
-5.74903e-07
2.72746e-08
4.44046e-07
1.86509e-06
9.3079e-07
6.82271e-07
6.02157e-07
1.00855e-06
4.26782e-07
8.24919e-07
3.79272e-07
-5.8751e-08
5.85153e-07
-6.21987e-08
-3.06431e-07
-5.38587e-07
-2.41898e-07
-7.46127e-07
-4.56321e-07
-2.08361e-07
-6.26919e-07
-4.48069e-07
-2.63373e-07
-6.06161e-07
1.91981e-07
-3.25179e-07
8.6642e-08
-2.52608e-07
-7.46063e-08
7.44166e-07
3.95552e-07
2.92485e-07
5.39212e-07
1.02079e-07
3.98037e-07
-2.23899e-08
4.68072e-07
-1.44453e-08
-1.37897e-07
-1.34485e-07
-7.82262e-07
-1.07648e-06
-7.96121e-07
-9.1564e-07
-2.61705e-07
-2.78011e-07
-2.3788e-07
-4.35413e-07
2.17965e-07
3.80485e-07
5.05598e-07
7.57735e-07
-5.97004e-08
2.63828e-07
4.60522e-07
-4.30891e-07
6.59003e-07
-2.53983e-07
3.32573e-07
-7.83231e-08
5.11525e-07
1.18408e-07
2.96767e-07
1.30692e-07
4.94452e-09
5.11983e-07
6.7188e-07
7.51512e-07
-3.00467e-07
2.89215e-07
-5.94566e-07
-7.20153e-07
-9.58027e-07
-3.01903e-09
2.91632e-07
1.52038e-07
1.55842e-07
-8.45036e-08
-5.27327e-07
-5.12264e-07
-7.12701e-07
-4.08173e-07
-1.33535e-06
-6.32594e-07
-6.69712e-07
-7.31382e-08
-1.67369e-07
-1.94924e-07
2.91571e-07
4.57859e-07
7.70452e-07
1.04486e-06
1.57558e-06
8.21335e-07
3.48833e-07
4.19181e-07
3.27378e-07
5.31928e-07
-1.001e-07
-3.88363e-07
-6.13697e-07
-5.66716e-07
-1.67205e-07
-4.319e-07
-3.44447e-07
8.28596e-08
2.81292e-07
1.80541e-07
4.55038e-07
2.07457e-07
1.12483e-07
6.61318e-08
-6.08207e-07
-1.08439e-06
-7.25811e-07
-7.32928e-07
-5.95493e-07
-8.72112e-07
-2.41499e-08
1.6122e-07
5.5927e-07
1.10281e-06
7.27171e-07
2.38406e-07
3.08705e-07
1.64462e-06
9.47143e-08
4.28732e-07
-1.85695e-07
-4.27836e-07
-4.47938e-07
-3.72532e-07
-6.44009e-07
-2.13497e-07
-2.89253e-07
-2.15753e-07
-1.19857e-07
4.08759e-07
3.22958e-07
3.92088e-07
8.76363e-07
-3.17969e-08
3.84305e-07
4.06198e-07
-5.715e-07
-7.81095e-07
-7.96669e-07
-1.05411e-06
-3.45466e-07
-7.32144e-07
-3.99729e-08
-3.85177e-07
-1.61747e-07
2.32675e-08
6.08211e-07
1.95573e-07
7.70696e-07
1.01452e-06
8.17116e-07
7.73099e-07
3.27328e-07
4.49454e-07
9.68691e-08
1.87666e-07
-2.80172e-07
-6.09637e-07
-2.88413e-07
-5.40967e-08
-5.59529e-07
-1.56049e-07
-3.12745e-07
2.13785e-07
8.60349e-07
1.05594e-06
7.24577e-07
3.03838e-07
-4.52321e-08
-5.0507e-08
-1.28254e-07
4.48076e-07
1.60572e-07
2.43917e-07
-3.77626e-07
-1.15341e-08
-2.43586e-07
2.53787e-07
-9.70345e-08
-1.75718e-08
-9.59078e-08
-4.96663e-08
3.53653e-07
-1.95044e-07
-2.96013e-07
-6.18546e-07
-8.8996e-07
-8.84741e-07
-7.94223e-07
-5.44099e-07
4.0556e-08
-6.33041e-07
2.37851e-07
-3.5245e-07
1.50217e-07
1.75197e-07
2.42675e-07
5.15391e-08
5.80335e-07
-3.38721e-07
-6.50287e-07
-8.64594e-07
-3.02297e-07
-1.00449e-07
8.8439e-07
-1.74537e-09
2.7277e-08
3.89877e-07
7.52193e-07
1.16603e-06
6.01469e-07
2.14948e-08
7.733e-08
2.89095e-07
-2.40483e-07
1.94123e-08
8.79128e-08
3.10851e-07
2.10305e-07
-5.2877e-07
-2.09973e-07
-1.58544e-07
-5.21862e-07
-2.15179e-07
-8.46467e-08
4.28431e-07
3.29994e-07
1.76436e-07
2.03031e-07
-2.01488e-07
-1.36396e-07
-7.6603e-08
3.20908e-07
2.61166e-07
-2.19074e-07
-5.09437e-07
-8.21288e-08
-6.30734e-08
-1.15525e-07
-6.87945e-07
-3.50524e-07
-8.21621e-07
-8.72574e-08
-1.93841e-07
1.6354e-07
3.81882e-07
2.43253e-07
6.48502e-07
5.14869e-07
6.53745e-07
7.12044e-07
7.35424e-07
5.42803e-07
-1.0147e-08
-2.10163e-07
-4.45944e-07
-1.87523e-07
2.41183e-07
-7.09388e-07
-3.25691e-07
-5.63216e-07
-2.77128e-07
-5.08693e-07
-4.4753e-07
3.18981e-07
6.38961e-07
2.17919e-07
3.87145e-07
-5.388e-08
1.09409e-07
1.06988e-07
-5.50722e-07
-1.30526e-07
1.49852e-07
-2.18678e-07
-3.49319e-07
-7.52825e-08
3.55571e-07
3.64435e-07
4.38252e-07
-3.41942e-07
-1.14699e-07
-6.58034e-08
-1.07805e-07
1.05076e-07
7.27669e-07
5.37484e-07
5.6752e-07
7.71126e-07
6.38653e-08
3.54476e-07
3.47122e-07
-5.20223e-07
-4.81454e-07
-5.80723e-07
-5.84331e-07
-7.64118e-07
-4.89114e-07
-1.57007e-07
-4.56565e-07
-3.70096e-08
7.91446e-07
8.52045e-08
5.16573e-07
3.02545e-07
1.47041e-07
-4.23492e-08
-2.10751e-07
2.16174e-07
8.97821e-07
4.29085e-07
-3.52737e-07
-8.89752e-08
-7.6639e-07
-9.12939e-07
-8.77456e-07
-3.2885e-07
-1.96263e-07
7.91725e-09
-2.23652e-07
7.59535e-08
6.35799e-07
4.51383e-07
3.87586e-07
4.49402e-07
-3.89562e-07
2.59394e-07
-1.30886e-06
-4.22742e-07
-2.34039e-07
-5.79595e-07
-8.59205e-08
3.8354e-07
2.42588e-07
2.25854e-07
6.96066e-07
3.52945e-07
1.8642e-07
1.31908e-07
-1.51958e-07
2.85649e-08
-5.55585e-07
1.94905e-07
3.12728e-07
-5.68616e-07
-1.40004e-07
2.85353e-07
2.88583e-07
8.69887e-07
2.02492e-07
4.188e-07
-2.90642e-07
-1.7802e-07
-6.9399e-07
-4.45728e-07
1.72871e-07
1.33248e-06
3.07389e-07
7.92287e-07
2.72013e-08
-3.6182e-07
-8.47641e-07
-1.02362e-06
-7.44889e-07
-3.21188e-07
-4.38758e-07
4.10114e-08
-3.92203e-07
3.14058e-07
-1.92951e-07
-3.04726e-07
8.11887e-07
6.02738e-07
1.29332e-06
7.74908e-07
8.14963e-07
1.94693e-07
-4.41589e-07
-2.67317e-07
-4.40165e-08
-6.6625e-07
-1.8529e-07
-9.72505e-07
-6.57431e-07
-5.68807e-07
-4.15561e-07
-1.28167e-07
-2.17721e-07
1.67452e-07
3.23663e-07
8.86382e-08
-2.68444e-07
1.7437e-07
6.42055e-07
2.05506e-07
9.2246e-07
1.60378e-07
1.06795e-07
-3.74896e-07
6.51731e-07
9.33364e-07
1.06872e-07
3.50445e-07
-6.86206e-07
-4.97013e-07
-3.38175e-07
-2.58891e-07
6.99313e-08
4.76673e-08
5.49403e-07
8.07302e-07
5.24365e-07
4.20299e-07
4.62458e-07
-7.39533e-08
-3.88127e-07
-3.89491e-07
-1.246e-07
-2.81145e-07
6.34362e-08
3.14098e-07
-7.70976e-08
-1.65849e-07
-4.87752e-07
-6.04702e-07
-5.12623e-07
4.0801e-07
1.15111e-07
3.03356e-07
5.39129e-07
2.15658e-07
4.2911e-07
-3.82543e-07
-1.08023e-07
7.40908e-07
2.95359e-07
2.37496e-07
-3.90801e-07
-7.12701e-07
-9.99678e-07
-4.27055e-07
-6.93746e-07
-7.93795e-08
4.91897e-07
1.54423e-07
3.00811e-07
3.32408e-07
7.13549e-07
4.13359e-07
1.56089e-07
-1.49342e-07
-6.83144e-07
-1.79333e-07
-8.62045e-08
-2.12366e-07
-4.92173e-07
-2.7319e-07
-8.20396e-08
1.4992e-07
7.81203e-07
1.15368e-07
3.76068e-07
4.12139e-08
-1.23328e-07
2.07742e-07
-5.03285e-07
-7.43358e-07
-1.11135e-06
-9.90671e-07
-3.26813e-07
7.70477e-07
3.4925e-07
2.74341e-07
-3.83152e-08
-9.20535e-08
-2.69292e-08
-1.34404e-07
1.41272e-07
-8.17597e-07
-1.25739e-07
-2.49579e-07
1.28838e-07
-5.49467e-07
3.5101e-07
-9.53699e-09
1.90644e-07
5.00639e-07
3.33805e-07
9.23522e-07
6.44375e-07
8.24237e-07
9.11466e-07
7.732e-07
1.94006e-07
9.9641e-08
-1.74848e-07
-4.95102e-07
1.70747e-07
-4.21063e-07
-2.55951e-07
3.94862e-08
3.71279e-08
-3.6087e-09
-4.57844e-07
1.91722e-08
9.02386e-08
2.0571e-08
-1.64554e-07
-3.07397e-07
-1.06089e-07
-1.67311e-07
8.2945e-08
1.35493e-07
2.74828e-08
-4.01696e-07
5.83739e-08
2.59058e-07
1.59458e-07
2.02668e-07
2.06903e-07
1.40908e-07
2.377e-07
2.3577e-07
-2.73961e-07
-5.96049e-09
-1.27595e-07
-5.38612e-07
-6.44915e-08
-7.20914e-07
5.7443e-08
-2.15362e-07
-5.65339e-08
3.0208e-07
-4.48254e-08
-5.46053e-08
-2.38186e-07
7.4856e-07
6.14099e-07
5.49992e-08
1.58382e-07
5.65354e-07
2.10014e-07
9.62796e-08
-2.51514e-07
-8.47761e-07
-3.76893e-07
-3.49808e-07
-3.06813e-07
-2.53529e-07
-1.68428e-07
-4.5604e-07
-2.57169e-07
4.24295e-07
3.99494e-07
-6.93821e-09
4.0402e-07
6.15806e-07
3.8019e-08
2.29768e-07
-1.81622e-07
2.70008e-08
-5.47351e-07
-5.5151e-07
-5.99412e-07
-2.38174e-07
-6.65109e-07
-1.00936e-06
-3.13009e-07
-3.4938e-07
-3.57643e-07
8.01705e-07
5.28603e-07
8.96833e-07
1.24936e-06
1.22402e-06
5.515e-07
2.86229e-07
9.20212e-07
1.14621e-07
2.38611e-07
-4.88947e-07
-1.30834e-07
1.01473e-07
-4.28072e-07
-6.13785e-07
-4.31512e-07
-4.45658e-08
-2.68472e-07
5.37563e-07
-1.91874e-08
-5.24868e-07
-3.82159e-07
-4.99493e-07
-3.28066e-07
-1.63458e-07
-5.95729e-08
-5.45532e-07
-1.35688e-07
-6.60913e-07
-6.04809e-07
1.74954e-07
2.19742e-08
-4.23329e-07
-2.39912e-08
1.36069e-07
-5.4474e-08
9.03164e-07
6.4428e-07
7.12487e-07
2.65304e-07
-6.51996e-07
-2.15993e-07
-8.81859e-07
6.51327e-08
-3.47951e-07
7.01514e-07
4.57332e-07
1.03916e-06
8.55882e-07
-1.47235e-07
4.49971e-07
2.57717e-07
3.74281e-07
-2.93822e-07
1.84232e-07
-3.47811e-07
-3.76721e-07
-1.13507e-06
-8.58337e-07
-1.5723e-06
-6.63674e-07
-6.62312e-07
-6.13537e-07
2.35215e-08
2.25093e-07
3.88973e-07
6.10644e-07
3.43531e-07
3.87547e-07
4.06327e-07
7.90121e-07
6.36184e-07
6.25834e-07
-2.04356e-07
5.98805e-08
-2.24073e-07
-6.6248e-07
-6.3389e-07
-7.30469e-07
-6.10913e-07
-9.49486e-07
2.58552e-07
4.20696e-07
1.05109e-07
7.99092e-07
1.56163e-06
8.59761e-07
9.00749e-08
1.14975e-08
-4.1166e-08
3.7361e-08
-6.56731e-07
-9.21112e-07
-9.05834e-07
-1.24149e-06
-6.72311e-07
-7.72948e-07
4.5331e-08
2.00433e-08
-4.13167e-07
-8.90997e-07
-3.67322e-07
2.05745e-07
-2.96061e-07
3.96605e-08
2.56996e-07
-1.46842e-07
7.12607e-08
-3.66517e-08
-2.72924e-07
1.89372e-07
7.3242e-07
2.01457e-06
6.90147e-07
2.13249e-07
-1.61121e-07
-4.9887e-07
-2.76225e-07
-5.72289e-07
-7.16706e-07
-9.48282e-07
-2.70439e-07
3.78928e-07
-1.20764e-07
5.19752e-07
4.04352e-07
5.75969e-07
2.56159e-07
7.25501e-07
8.00612e-07
8.01254e-07
9.93206e-07
6.91226e-07
2.07483e-07
-1.53163e-08
-4.29764e-08
-2.48524e-07
-4.22675e-07
-3.74608e-07
-6.48852e-07
-6.93822e-07
3.77186e-07
6.05626e-07
-2.58933e-07
9.4811e-08
2.4282e-07
3.27276e-07
6.04709e-07
5.29557e-07
3.95333e-07
1.3664e-08
2.81939e-07
2.70287e-07
-1.86993e-08
-7.96096e-09
-2.21985e-07
-2.4336e-07
-2.54621e-07
-9.07291e-08
-1.54903e-07
-1.00823e-06
-9.79064e-07
-7.10717e-07
-6.79613e-07
-1.46274e-07
-3.92554e-07
-4.66512e-07
-3.53971e-07
2.84102e-07
-4.70082e-07
5.36994e-07
5.16794e-07
3.71223e-07
4.23559e-07
-1.41659e-07
5.59351e-07
1.30493e-07
8.96343e-07
6.27523e-07
5.76684e-07
1.48698e-07
6.6432e-08
5.07757e-08
-5.7912e-07
-7.14492e-07
-4.04945e-07
-4.72498e-08
-1.82431e-07
4.83454e-08
-4.61049e-07
2.15321e-07
1.31199e-07
3.04436e-07
1.79986e-08
5.76779e-08
2.8019e-07
-5.29875e-07
-2.0433e-07
-2.88807e-07
-6.24659e-07
-1.06485e-06
-7.66341e-07
-1.03214e-07
4.36919e-07
-5.99954e-07
2.66598e-07
6.15524e-07
9.11748e-07
8.41427e-08
8.78231e-07
-2.5743e-08
7.89861e-07
7.2282e-07
4.17245e-07
5.98567e-08
1.44724e-07
-2.2012e-07
-7.52852e-07
-1.06209e-06
-1.05672e-06
-5.07752e-07
3.10959e-07
6.28362e-07
7.22408e-07
8.76901e-07
2.69553e-07
7.22506e-07
5.37628e-07
2.96517e-07
-3.93262e-07
-2.06636e-07
-1.19844e-07
1.61836e-07
-9.55754e-08
-8.62425e-08
-9.47891e-08
2.88336e-08
-2.02471e-07
-7.85631e-08
-3.50218e-07
-4.57931e-07