/*--------------------------------*- C++ -*----------------------------------*\
  =========                 |
  \\      /  F ield         | OpenFOAM: The Open Source CFD Toolbox
   \\    /   O peration     | Website:  https://openfoam.org
    \\  /    A nd           | Version:  9
     \\/     M anipulation  |
\*---------------------------------------------------------------------------*/
FoamFile
{
    format      ascii;
    class       volVectorField;
    location    "0.001";
    object      U_0;
}
// * * * * * * * * * * * * * * * * * * * * * * * * * * * * * * * * * * * * * //

dimensions      [0 1 -1 0 0 0 0];

internalField   nonuniform List<vector> 
10000
(
(-9.46639e-13 0 0)
(-5.28982e-13 0 0)
(-1.40499e-13 0 0)
(3.92322e-13 0 0)
(7.13242e-13 0 0)
(7.72359e-13 0 0)
(6.33396e-13 0 0)
(6.38002e-13 0 0)
(6.87139e-13 0 0)
(7.67753e-15 0 0)
(-1.26679e-13 0 0)
(-5.65834e-13 0 0)
(-8.26102e-13 0 0)
(-9.98078e-13 0 0)
(-8.94432e-13 0 0)
(-1.11938e-12 0 0)
(-4.12283e-13 0 0)
(-3.63147e-13 0 0)
(-1.90403e-13 0 0)
(-7.95392e-13 0 0)
(-7.80804e-13 0 0)
(-1.48944e-12 0 0)
(-1.52092e-12 0 0)
(-1.95163e-12 0 0)
(-1.82572e-12 0 0)
(-2.56506e-12 0 0)
(-2.88445e-12 0 0)
(-2.84759e-12 0 0)
(-2.80537e-12 0 0)
(-2.90671e-12 0 0)
(-3.40038e-12 0 0)
(-2.80997e-12 0 0)
(-3.28214e-12 0 0)
(-2.84299e-12 0 0)
(-2.73857e-12 0 0)
(-2.38618e-12 0 0)
(-2.44452e-12 0 0)
(-1.8833e-12 0 0)
(-1.23378e-12 0 0)
(-4.90594e-13 0 0)
(-1.77351e-13 0 0)
(1.91938e-13 0 0)
(8.31476e-13 0 0)
(1.17159e-12 0 0)
(1.09865e-12 0 0)
(1.14933e-12 0 0)
(1.01036e-12 0 0)
(1.17773e-12 0 0)
(8.75238e-13 0 0)
(5.92705e-13 0 0)
(2.85604e-13 0 0)
(-3.56237e-13 0 0)
(-5.11323e-13 0 0)
(-1.1094e-12 0 0)
(-1.25451e-12 0 0)
(-1.21305e-12 0 0)
(-1.24913e-12 0 0)
(-8.76774e-13 0 0)
(-7.07868e-13 0 0)
(-7.73127e-13 0 0)
(-7.69288e-13 0 0)
(-1.21535e-12 0 0)
(-1.03109e-12 0 0)
(-1.13781e-12 0 0)
(-1.10173e-12 0 0)
(-1.34741e-12 0 0)
(-1.21382e-12 0 0)
(-1.55777e-12 0 0)
(-1.69673e-12 0 0)
(-1.72744e-12 0 0)
(-1.69059e-12 0 0)
(-1.07869e-12 0 0)
(-4.70632e-13 0 0)
(2.61036e-13 0 0)
(3.15546e-13 0 0)
(7.71591e-13 0 0)
(3.20153e-13 0 0)
(3.2783e-13 0 0)
(3.05566e-13 0 0)
(5.59692e-13 0 0)
(-6.98655e-14 0 0)
(-1.55086e-13 0 0)
(-3.07869e-13 0 0)
(-4.61419e-13 0 0)
(-6.60267e-14 0 0)
(-2.41074e-13 0 0)
(-1.84261e-13 0 0)
(-3.60844e-14 0 0)
(-2.61036e-13 0 0)
(-2.90978e-13 0 0)
(-3.78502e-13 0 0)
(-3.45489e-14 0 0)
(6.51054e-13 0 0)
(9.55852e-13 0 0)
(1.39885e-12 0 0)
(1.00499e-12 0 0)
(7.8234e-13 0 0)
(7.7543e-14 0 0)
(3.47024e-13 0 0)
(1.10556e-13 0 0)
(1.28982e-13 0 0)
(-1.27447e-13 0 0)
(1.12092e-13 0 0)
(2.13435e-13 0 0)
(7.96927e-13 0 0)
(9.81188e-13 0 0)
(1.97312e-12 0 0)
(2.51823e-12 0 0)
(3.45258e-12 0 0)
(3.43185e-12 0 0)
(3.63531e-12 0 0)
(3.06717e-12 0 0)
(2.77005e-12 0 0)
(1.69289e-12 0 0)
(8.09211e-13 0 0)
(-4.68329e-13 0 0)
(-1.82572e-12 0 0)
(-2.74241e-12 0 0)
(-3.29596e-12 0 0)
(-3.69059e-12 0 0)
(-3.76506e-12 0 0)
(-3.86871e-12 0 0)
(-3.61842e-12 0 0)
(-3.56775e-12 0 0)
(-2.50518e-12 0 0)
(-2.32092e-12 0 0)
(-1.47332e-12 0 0)
(-2.00614e-12 0 0)
(-1.8595e-12 0 0)
(-2.11209e-12 0 0)
(-2.30249e-12 0 0)
(-2.17811e-12 0 0)
(-2.28099e-12 0 0)
(-2.29174e-12 0 0)
(-2.77159e-12 0 0)
(-3.19385e-12 0 0)
(-3.27216e-12 0 0)
(-3.41727e-12 0 0)
(-3.24145e-12 0 0)
(-2.43915e-12 0 0)
(-1.9547e-12 0 0)
(-7.2783e-13 0 0)
(1.5048e-13 0 0)
(9.68136e-13 0 0)
(1.00268e-12 0 0)
(1.35201e-12 0 0)
(1.41497e-12 0 0)
(1.61689e-12 0 0)
(1.14933e-12 0 0)
(1.13013e-12 0 0)
(7.99998e-13 0 0)
(3.1785e-13 0 0)
(6.37235e-14 0 0)
(-2.81765e-13 0 0)
(-8.08444e-13 0 0)
(-2.22802e-12 0 0)
(-2.57504e-12 0 0)
(-3.2069e-12 0 0)
(-3.36122e-12 0 0)
(-3.5593e-12 0 0)
(-2.99731e-12 0 0)
(-3.06564e-12 0 0)
(-2.53051e-12 0 0)
(-2.1904e-12 0 0)
(-1.34587e-12 0 0)
(-7.56236e-13 0 0)
(-1.40499e-13 0 0)
(-2.34165e-13 0 0)
(2.45681e-13 0 0)
(-9.05948e-14 0 0)
(-7.29365e-14 0 0)
(-4.39155e-13 0 0)
(-4.70632e-13 0 0)
(-6.90977e-13 0 0)
(-4.72936e-13 0 0)
(-6.11131e-13 0 0)
(-1.0595e-13 0 0)
(6.37235e-14 0 0)
(3.87715e-13 0 0)
(7.23991e-13 0 0)
(1.16315e-12 0 0)
(9.16697e-13 0 0)
(5.93473e-13 0 0)
(3.20921e-13 0 0)
(2.63339e-13 0 0)
(-1.54318e-13 0 0)
(-4.76007e-13 0 0)
(-9.0518e-13 0 0)
(-9.43568e-13 0 0)
(-1.04645e-12 0 0)
(-1.75431e-12 0 0)
(-1.32744e-12 0 0)
(-1.49251e-12 0 0)
(-1.65374e-12 0 0)
(-1.71209e-12 0 0)
(-1.49481e-12 0 0)
(-1.39194e-12 0 0)
(-1.09865e-12 0 0)
(-4.35316e-13 0 0)
(-1.66602e-13 0 0)
(4.53742e-13 0 0)
(1.19002e-13 0 0)
(1.89635e-13 0 0)
(1.37428e-13 0 0)
(3.92322e-13 0 0)
(5.85028e-13 0 0)
(5.47408e-13 0 0)
(4.87523e-13 0 0)
(-1.55086e-13 0 0)
(-3.95393e-13 0 0)
(-8.31476e-13 0 0)
(-1.01574e-12 0 0)
(-1.37735e-12 0 0)
(-1.41266e-12 0 0)
(-1.05643e-12 0 0)
(-9.09019e-13 0 0)
(-5.60459e-14 0 0)
(5.1593e-13 0 0)
(6.23415e-13 0 0)
(1.14933e-12 0 0)
(6.46448e-13 0 0)
(5.66601e-13 0 0)
(1.66602e-13 0 0)
(-9.59691e-14 0 0)
(-8.75238e-13 0 0)
(-1.11554e-12 0 0)
(-1.29059e-12 0 0)
(-1.56007e-12 0 0)
(-1.47101e-12 0 0)
(-9.08251e-13 0 0)
(-8.5067e-13 0 0)
(-3.61611e-13 0 0)
(-2.61036e-13 0 0)
(4.65258e-13 0 0)
(6.0806e-13 0 0)
(7.10171e-13 0 0)
(5.51246e-13 0 0)
(6.01918e-13 0 0)
(1.07485e-14 0 0)
(-4.14586e-14 0 0)
(-5.65834e-13 0 0)
(-1.54395e-12 0 0)
(-2.12821e-12 0 0)
(-2.68944e-12 0 0)
(-3.23531e-12 0 0)
(-3.55162e-12 0 0)
(-3.63838e-12 0 0)
(-3.33972e-12 0 0)
(-3.53089e-12 0 0)
(-3.25757e-12 0 0)
(-3.62072e-12 0 0)
(-3.14548e-12 0 0)
(-2.88905e-12 0 0)
(-2.17658e-12 0 0)
(-2.17044e-12 0 0)
(-1.676e-12 0 0)
(-1.79424e-12 0 0)
(-1.4833e-12 0 0)
(-1.78502e-12 0 0)
(-1.84184e-12 0 0)
(-2.5927e-12 0 0)
(-2.48982e-12 0 0)
(-2.74241e-12 0 0)
(-2.29328e-12 0 0)
(-1.7666e-12 0 0)
(-1.27754e-12 0 0)
(-4.82916e-13 0 0)
(3.40882e-13 0 0)
(1.16007e-12 0 0)
(1.50787e-12 0 0)
(1.60844e-12 0 0)
(1.49021e-12 0 0)
(1.15009e-12 0 0)
(6.29557e-13 0 0)
(1.05182e-13 0 0)
(-3.60076e-13 0 0)
(-5.55853e-13 0 0)
(-9.8733e-13 0 0)
(-1.2929e-12 0 0)
(-1.49558e-12 0 0)
(-1.80729e-12 0 0)
(-1.73051e-12 0 0)
(-1.88099e-12 0 0)
(-1.67217e-12 0 0)
(-1.61228e-12 0 0)
(-1.33359e-12 0 0)
(-9.25142e-13 0 0)
(-3.49327e-13 0 0)
(4.2687e-13 0 0)
(1.05105e-12 0 0)
(1.7689e-12 0 0)
(2.42763e-12 0 0)
(3.0426e-12 0 0)
(3.08713e-12 0 0)
(3.08483e-12 0 0)
(2.50902e-12 0 0)
(2.24644e-12 0 0)
(1.62994e-12 0 0)
(7.96927e-13 0 0)
(5.25911e-13 0 0)
(7.42417e-13 0 0)
(5.73511e-13 0 0)
(5.22072e-13 0 0)
(6.16505e-13 0 0)
(7.05565e-13 0 0)
(4.52206e-13 0 0)
(2.67946e-13 0 0)
(-9.67368e-14 0 0)
(-7.071e-13 0 0)
(-1.35585e-12 0 0)
(-1.17543e-12 0 0)
(-1.38119e-12 0 0)
(-7.39346e-13 0 0)
(-8.48367e-13 0 0)
(-5.16698e-13 0 0)
(-1.30902e-12 0 0)
(-8.73703e-13 0 0)
(-1.13013e-12 0 0)
(-1.06564e-12 0 0)
(-9.34355e-13 0 0)
(-8.90593e-13 0 0)
(-9.02109e-13 0 0)
(-6.595e-13 0 0)
(2.68713e-14 0 0)
(9.98078e-14 0 0)
(4.56045e-13 0 0)
(6.2188e-14 0 0)
(2.94817e-13 0 0)
(-3.43953e-13 0 0)
(7.67753e-14 0 0)
(-4.59884e-13 0 0)
(-4.73703e-13 0 0)
(-1.20307e-12 0 0)
(-1.16007e-12 0 0)
(-1.19002e-12 0 0)
(-1.32591e-12 0 0)
(-1.51785e-12 0 0)
(-1.33819e-12 0 0)
(-9.66601e-13 0 0)
(-1.24376e-13 0 0)
(6.67945e-14 0 0)
(7.17849e-13 0 0)
(1.69597e-12 0 0)
(2.57888e-12 0 0)
(3.17235e-12 0 0)
(3.65143e-12 0 0)
(4.4092e-12 0 0)
(4.53742e-12 0 0)
(4.47369e-12 0 0)
(3.69673e-12 0 0)
(3.3927e-12 0 0)
(2.70095e-12 0 0)
(2.42226e-12 0 0)
(1.94318e-12 0 0)
(1.89174e-12 0 0)
(1.50249e-12 0 0)
(1.32514e-12 0 0)
(1.03186e-12 0 0)
(1.27217e-12 0 0)
(9.21303e-13 0 0)
(5.19001e-13 0 0)
(4.36084e-13 0 0)
(3.38579e-13 0 0)
(-3.32437e-13 0 0)
(-5.44337e-13 0 0)
(-1.10863e-12 0 0)
(-1.75815e-12 0 0)
(-2.3593e-12 0 0)
(-2.35623e-12 0 0)
(-3.1593e-12 0 0)
(-3.44337e-12 0 0)
(-3.86563e-12 0 0)
(-3.31976e-12 0 0)
(-3.39654e-12 0 0)
(-2.41381e-12 0 0)
(-2.476e-12 0 0)
(-2.02226e-12 0 0)
(-2.18886e-12 0 0)
(-1.74126e-12 0 0)
(-1.89328e-12 0 0)
(-1.85105e-12 0 0)
(-2.31938e-12 0 0)
(-2.91592e-12 0 0)
(-3.53013e-12 0 0)
(-3.75277e-12 0 0)
(-4.1735e-12 0 0)
(-3.90863e-12 0 0)
(-3.51631e-12 0 0)
(-2.43378e-12 0 0)
(-1.49405e-12 0 0)
(-9.45871e-13 0 0)
(-1.61996e-13 0 0)
(4.44529e-13 0 0)
(1.22917e-12 0 0)
(8.97503e-13 0 0)
(1.23301e-12 0 0)
(1.50863e-12 0 0)
(1.85105e-12 0 0)
(1.84261e-12 0 0)
(1.50326e-12 0 0)
(1.18925e-12 0 0)
(1.0119e-12 0 0)
(1.00422e-12 0 0)
(7.49327e-13 0 0)
(5.44337e-13 0 0)
(2.00383e-13 0 0)
(-1.28982e-13 0 0)
(-6.47215e-13 0 0)
(-8.36083e-13 0 0)
(-7.70056e-13 0 0)
(-8.62954e-13 0 0)
(-1.02725e-12 0 0)
(-1.13397e-12 0 0)
(-9.08251e-13 0 0)
(-6.38002e-13 0 0)
(-2.87907e-13 0 0)
(-2.75623e-13 0 0)
(3.37811e-13 0 0)
(5.25911e-13 0 0)
(1.26986e-12 0 0)
(1.59232e-12 0 0)
(1.45873e-12 0 0)
(8.7447e-13 0 0)
(3.71592e-13 0 0)
(2.47216e-13 0 0)
(1.38195e-13 0 0)
(1.03647e-13 0 0)
(4.97504e-13 0 0)
(-4.22264e-14 0 0)
(-3.82341e-13 0 0)
(-9.66601e-13 0 0)
(-1.0119e-12 0 0)
(-1.28906e-12 0 0)
(-1.6476e-12 0 0)
(-1.91324e-12 0 0)
(-1.68061e-12 0 0)
(-2.09827e-12 0 0)
(-2.10671e-12 0 0)
(-1.9762e-12 0 0)
(-1.21305e-12 0 0)
(-5.85028e-13 0 0)
(5.10556e-13 0 0)
(1.06641e-12 0 0)
(1.97236e-12 0 0)
(2.90364e-12 0 0)
(3.99231e-12 0 0)
(4.89289e-12 0 0)
(5.00344e-12 0 0)
(5.17389e-12 0 0)
(4.45297e-12 0 0)
(4.33857e-12 0 0)
(3.13704e-12 0 0)
(2.99884e-12 0 0)
(1.86103e-12 0 0)
(1.54395e-12 0 0)
(1.03954e-12 0 0)
(7.50862e-13 0 0)
(-4.06909e-14 0 0)
(-4.61419e-13 0 0)
(-8.31476e-13 0 0)
(-7.72359e-13 0 0)
(-1.04261e-12 0 0)
(-5.61227e-13 0 0)
(-6.53357e-13 0 0)
(-1.26679e-13 0 0)
(-2.36468e-13 0 0)
(4.11515e-13 0 0)
(6.36467e-13 0 0)
(7.29365e-13 0 0)
(6.98655e-13 0 0)
(-3.45489e-14 0 0)
(-2.14971e-14 0 0)
(-2.6641e-13 0 0)
(-2.04222e-13 0 0)
(-9.26677e-13 0 0)
(-1.35662e-12 0 0)
(-1.51478e-12 0 0)
(-1.09635e-12 0 0)
(-8.05373e-13 0 0)
(-4.87523e-13 0 0)
(-4.08444e-13 0 0)
(6.44912e-14 0 0)
(2.97888e-13 0 0)
(1.25374e-12 0 0)
(1.19462e-12 0 0)
(1.1071e-12 0 0)
(6.9021e-13 0 0)
(9.66601e-13 0 0)
(5.58924e-13 0 0)
(3.04798e-13 0 0)
(-3.3474e-13 0 0)
(-5.0211e-13 0 0)
(-1.11708e-12 0 0)
(-1.27831e-12 0 0)
(-1.77965e-12 0 0)
(-2.15201e-12 0 0)
(-2.4023e-12 0 0)
(-2.51132e-12 0 0)
(-2.55969e-12 0 0)
(-1.45028e-12 0 0)
(-1.29981e-12 0 0)
(-9.428e-13 0 0)
(-1.32821e-12 0 0)
(-1.4595e-12 0 0)
(-1.957e-12 0 0)
(-2.30095e-12 0 0)
(-2.76621e-12 0 0)
(-2.91976e-12 0 0)
(-3.16928e-12 0 0)
(-3.4142e-12 0 0)
(-3.92705e-12 0 0)
(-3.12015e-12 0 0)
(-2.88752e-12 0 0)
(-2.46141e-12 0 0)
(-1.76046e-12 0 0)
(-1.10173e-12 0 0)
(-4.28406e-13 0 0)
(3.89251e-13 0 0)
(1.11478e-12 0 0)
(1.11938e-12 0 0)
(1.30902e-12 0 0)
(1.13934e-12 0 0)
(9.91936e-13 0 0)
(7.40114e-13 0 0)
(7.16313e-13 0 0)
(1.76583e-13 0 0)
(6.06525e-14 0 0)
(-1.64299e-13 0 0)
(-3.9616e-13 0 0)
(-7.76198e-13 0 0)
(-1.28522e-12 0 0)
(-1.28982e-12 0 0)
(-1.38579e-12 0 0)
(-1.17006e-12 0 0)
(-6.51054e-13 0 0)
(-5.29749e-14 0 0)
(4.55277e-13 0 0)
(9.82723e-13 0 0)
(1.83109e-12 0 0)
(2.46372e-12 0 0)
(3.114e-12 0 0)
(3.09328e-12 0 0)
(2.97811e-12 0 0)
(2.14817e-12 0 0)
(1.65835e-12 0 0)
(1.28752e-12 0 0)
(8.51438e-13 0 0)
(9.01342e-13 0 0)
(8.63722e-13 0 0)
(1.11478e-12 0 0)
(1.30364e-12 0 0)
(1.0357e-12 0 0)
(8.6756e-13 0 0)
(5.10556e-13 0 0)
(-1.7428e-13 0 0)
(-1.26833e-12 0 0)
(-1.34664e-12 0 0)
(-1.66218e-12 0 0)
(-1.97082e-12 0 0)
(-1.83109e-12 0 0)
(-1.67754e-12 0 0)
(-1.53627e-12 0 0)
(-1.4165e-12 0 0)
(-1.08176e-12 0 0)
(-9.50478e-13 0 0)
(-7.38578e-13 0 0)
(-3.14779e-14 0 0)
(5.98847e-13 0 0)
(1.22994e-12 0 0)
(2.08982e-12 0 0)
(2.78694e-12 0 0)
(3.31516e-12 0 0)
(3.43032e-12 0 0)
(3.68828e-12 0 0)
(3.81803e-12 0 0)
(4.34855e-12 0 0)
(3.97158e-12 0 0)
(4.06679e-12 0 0)
(3.21228e-12 0 0)
(2.77389e-12 0 0)
(2.02994e-12 0 0)
(2.17428e-12 0 0)
(1.59923e-12 0 0)
(8.86754e-13 0 0)
(3.23224e-13 0 0)
(-3.33972e-13 0 0)
(-7.76966e-13 0 0)
(-7.66985e-13 0 0)
(-8.83683e-13 0 0)
(-7.50862e-13 0 0)
(-5.19001e-13 0 0)
(3.99231e-14 0 0)
(2.98656e-13 0 0)
(1.42802e-13 0 0)
(4.65258e-13 0 0)
(2.31861e-13 0 0)
(1.42802e-13 0 0)
(-5.25143e-13 0 0)
(-3.71592e-13 0 0)
(-4.88291e-13 0 0)
(-5.58924e-13 0 0)
(-4.52206e-13 0 0)
(-3.00959e-13 0 0)
(-6.58732e-13 0 0)
(-5.91937e-13 0 0)
(-2.60268e-13 0 0)
(7.06332e-14 0 0)
(3.87715e-13 0 0)
(8.00766e-13 0 0)
(6.55661e-13 0 0)
(4.23032e-13 0 0)
(2.68713e-13 0 0)
(5.58156e-13 0 0)
(-9.90401e-14 0 0)
(7.7543e-14 0 0)
(-4.94433e-13 0 0)
(-7.79269e-13 0 0)
(-1.76737e-12 0 0)
(-1.56468e-12 0 0)
(-1.94472e-12 0 0)
(-1.77428e-12 0 0)
(-1.91861e-12 0 0)
(-2.01228e-12 0 0)
(-2.10134e-12 0 0)
(-1.5117e-12 0 0)
(-1.45873e-12 0 0)
(-9.90401e-13 0 0)
(-1.12783e-12 0 0)
(-8.56044e-13 0 0)
(-9.02877e-13 0 0)
(-9.32819e-13 0 0)
(-8.45296e-13 0 0)
(-7.2092e-13 0 0)
(-5.25143e-13 0 0)
(-2.18042e-13 0 0)
(-4.99039e-14 0 0)
(1.54318e-13 0 0)
(4.02302e-13 0 0)
(1.00806e-12 0 0)
(7.90017e-13 0 0)
(1.04645e-12 0 0)
(7.40114e-13 0 0)
(9.28213e-13 0 0)
(8.15353e-13 0 0)
(5.81189e-13 0 0)
(1.95777e-13 0 0)
(-2.27255e-13 0 0)
(-2.64875e-13 0 0)
(-8.19192e-13 0 0)
(-9.12858e-13 0 0)
(-1.37351e-12 0 0)
(-1.66449e-12 0 0)
(-1.95547e-12 0 0)
(-1.62917e-12 0 0)
(-1.6737e-12 0 0)
(-2.19808e-12 0 0)
(-1.77735e-12 0 0)
(-2.02687e-12 0 0)
(-1.80422e-12 0 0)
(-1.67831e-12 0 0)
(-1.08176e-12 0 0)
(-4.76774e-13 0 0)
(-1.69673e-13 0 0)
(-3.44721e-13 0 0)
(-7.37043e-13 0 0)
(-8.6756e-13 0 0)
(-1.22533e-12 0 0)
(-1.73435e-12 0 0)
(-2.1927e-12 0 0)
(-2.46986e-12 0 0)
(-2.38848e-12 0 0)
(-2.59884e-12 0 0)
(-2.74472e-12 0 0)
(-2.21266e-12 0 0)
(-2.03071e-12 0 0)
(-1.76276e-12 0 0)
(-1.66295e-12 0 0)
(-1.77504e-12 0 0)
(-2.57044e-12 0 0)
(-3.14779e-12 0 0)
(-3.73358e-12 0 0)
(-4.57734e-12 0 0)
(-5.68367e-12 0 0)
(-6.40382e-12 0 0)
(-6.79e-12 0 0)
(-6.3831e-12 0 0)
(-6.25258e-12 0 0)
(-5.43492e-12 0 0)
(-5.07331e-12 0 0)
(-4.43377e-12 0 0)
(-3.8426e-12 0 0)
(-2.66717e-12 0 0)
(-1.77504e-12 0 0)
(-1.30211e-12 0 0)
(-1.03493e-12 0 0)
(-5.30517e-13 0 0)
(-9.13626e-14 0 0)
(5.36659e-13 0 0)
(8.4376e-13 0 0)
(6.82532e-13 0 0)
(4.96736e-13 0 0)
(-2.58733e-13 0 0)
(-1.22226e-12 0 0)
(-2.24952e-12 0 0)
(-2.29251e-12 0 0)
(-3.0142e-12 0 0)
(-3.26218e-12 0 0)
(-3.54011e-12 0 0)
(-3.76506e-12 0 0)
(-3.48253e-12 0 0)
(-3.42418e-12 0 0)
(-3.43493e-12 0 0)
(-3.54088e-12 0 0)
(-3.95316e-12 0 0)
(-3.97619e-12 0 0)
(-4.32782e-12 0 0)
(-4.66256e-12 0 0)
(-5.42264e-12 0 0)
(-5.63684e-12 0 0)
(-4.98579e-12 0 0)
(-5.114e-12 0 0)
(-5.30133e-12 0 0)
(-5.60843e-12 0 0)
(-5.41803e-12 0 0)
(-5.46563e-12 0 0)
(-5.16314e-12 0 0)
(-5.45565e-12 0 0)
(-5.26141e-12 0 0)
(-5.61304e-12 0 0)
(-5.4211e-12 0 0)
(-5.7021e-12 0 0)
(-5.6115e-12 0 0)
(-5.71745e-12 0 0)
(-5.49173e-12 0 0)
(-5.67983e-12 0 0)
(-5.40959e-12 0 0)
(-5.28674e-12 0 0)
(-4.86448e-12 0 0)
(-4.45757e-12 0 0)
(-4.90133e-12 0 0)
(-5.28291e-12 0 0)
(-5.1355e-12 0 0)
(-4.79001e-12 0 0)
(-4.71938e-12 0 0)
(-4.7831e-12 0 0)
(-4.70939e-12 0 0)
(-5.01803e-12 0 0)
(-5.41573e-12 0 0)
(-6.0545e-12 0 0)
(-6.06678e-12 0 0)
(-5.88022e-12 0 0)
(-5.29903e-12 0 0)
(-5.38348e-12 0 0)
(-5.78195e-12 0 0)
(-5.92859e-12 0 0)
(-5.4449e-12 0 0)
(-5.52628e-12 0 0)
(-5.34126e-12 0 0)
(-5.74433e-12 0 0)
(-5.47715e-12 0 0)
(-5.98079e-12 0 0)
(-5.18079e-12 0 0)
(-5.32436e-12 0 0)
(-4.68099e-12 0 0)
(-4.35085e-12 0 0)
(-4.04913e-12 0 0)
(-4.17197e-12 0 0)
(-3.84567e-12 0 0)
(-4.40844e-12 0 0)
(-4.01074e-12 0 0)
(-3.94011e-12 0 0)
(-3.54702e-12 0 0)
(-3.40268e-12 0 0)
(-3.95086e-12 0 0)
(-4.08061e-12 0 0)
(-4.39385e-12 0 0)
(-4.7808e-12 0 0)
(-5.15162e-12 0 0)
(-5.3474e-12 0 0)
(-5.44183e-12 0 0)
(-5.90171e-12 0 0)
(-5.11246e-12 0 0)
(-5.02571e-12 0 0)
(-4.30402e-12 0 0)
(-3.77658e-12 0 0)
(-2.38387e-12 0 0)
(-1.73435e-12 0 0)
(-9.60459e-13 0 0)
(-9.98078e-13 0 0)
(-1.58157e-13 0 0)
(-4.714e-13 0 0)
(2.28023e-13 0 0)
(4.42993e-13 0 0)
(1.0334e-12 0 0)
(3.96928e-13 0 0)
(1.75048e-13 0 0)
(-9.0518e-13 0 0)
(-1.34203e-12 0 0)
(-2.42533e-12 0 0)
(-2.07293e-12 0 0)
(-2.89136e-12 0 0)
(-3.0426e-12 0 0)
(-3.76583e-12 0 0)
(-4.06064e-12 0 0)
(-4.96275e-12 0 0)
(-5.01112e-12 0 0)
(-5.50248e-12 0 0)
(-4.84605e-12 0 0)
(-4.94126e-12 0 0)
(-4.72552e-12 0 0)
(-4.5044e-12 0 0)
(-4.25796e-12 0 0)
(-4.33627e-12 0 0)
(-3.6307e-12 0 0)
(-3.14241e-12 0 0)
(-2.56046e-12 0 0)
(-1.91861e-12 0 0)
(-1.3904e-12 0 0)
(-1.00499e-12 0 0)
(-7.40881e-13 0 0)
(-5.7044e-13 0 0)
(1.85796e-13 0 0)
(5.38195e-13 0 0)
(1.85796e-13 0 0)
(-4.60652e-14 0 0)
(-2.74088e-13 0 0)
(-3.73128e-13 0 0)
(-9.31284e-13 0 0)
(-1.71132e-12 0 0)
(-2.65028e-12 0 0)
(-3.57235e-12 0 0)
(-4.0499e-12 0 0)
(-4.6188e-12 0 0)
(-4.72321e-12 0 0)
(-4.53588e-12 0 0)
(-4.64797e-12 0 0)
(-4.93895e-12 0 0)
(-5.09788e-12 0 0)
(-4.87293e-12 0 0)
(-4.78387e-12 0 0)
(-4.41842e-12 0 0)
(-4.56966e-12 0 0)
(-4.22034e-12 0 0)
(-4.72321e-12 0 0)
(-4.67101e-12 0 0)
(-4.50978e-12 0 0)
(-4.14356e-12 0 0)
(-4.19193e-12 0 0)
(-3.95162e-12 0 0)
(-3.77197e-12 0 0)
(-3.14625e-12 0 0)
(-2.8975e-12 0 0)
(-2.13282e-12 0 0)
(-1.84875e-12 0 0)
(-1.71593e-12 0 0)
(-1.67677e-12 0 0)
(-1.86564e-12 0 0)
(-1.60844e-12 0 0)
(-1.2e-12 0 0)
(-8.64489e-13 0 0)
(-1.18695e-12 0 0)
(-1.32975e-12 0 0)
(-1.36814e-12 0 0)
(-1.84875e-12 0 0)
(-2.91362e-12 0 0)
(-3.62917e-12 0 0)
(-4.11669e-12 0 0)
(-4.26256e-12 0 0)
(-4.25258e-12 0 0)
(-3.8879e-12 0 0)
(-3.87408e-12 0 0)
(-3.97389e-12 0 0)
(-3.62763e-12 0 0)
(-3.81036e-12 0 0)
(-3.21995e-12 0 0)
(-2.8046e-12 0 0)
(-2.13589e-12 0 0)
(-1.99846e-12 0 0)
(-1.5309e-12 0 0)
(-1.31055e-12 0 0)
(-1.16161e-12 0 0)
(-8.18424e-13 0 0)
(-5.64298e-13 0 0)
(-3.51631e-13 0 0)
(1.78886e-13 0 0)
(8.1996e-13 0 0)
(8.42225e-13 0 0)
(1.17543e-12 0 0)
(9.68904e-13 0 0)
(6.04221e-13 0 0)
(6.90977e-15 0 0)
(-2.4952e-13 0 0)
(-6.0115e-13 0 0)
(-1.07485e-12 0 0)
(-1.35201e-12 0 0)
(-1.37965e-12 0 0)
(-1.97543e-12 0 0)
(-1.76506e-12 0 0)
(-2.11823e-12 0 0)
(-2.39923e-12 0 0)
(-3.0403e-12 0 0)
(-3.02725e-12 0 0)
(-3.28752e-12 0 0)
(-2.99961e-12 0 0)
(-2.93512e-12 0 0)
(-2.77696e-12 0 0)
(-2.08982e-12 0 0)
(-1.5286e-12 0 0)
(-1.11247e-12 0 0)
(-5.07484e-13 0 0)
(-5.75814e-14 0 0)
(4.96736e-13 0 0)
(5.11323e-13 0 0)
(1.15854e-12 0 0)
(9.90401e-13 0 0)
(5.60459e-13 0 0)
(-5.45104e-14 0 0)
(-6.97887e-13 0 0)
(-1.13781e-12 0 0)
(-2.19577e-12 0 0)
(-2.80306e-12 0 0)
(-3.05566e-12 0 0)
(-3.60921e-12 0 0)
(-3.7021e-12 0 0)
(-3.92705e-12 0 0)
(-4.05988e-12 0 0)
(-4.08905e-12 0 0)
(-3.80652e-12 0 0)
(-3.55853e-12 0 0)
(-3.09635e-12 0 0)
(-2.57811e-12 0 0)
(-2.33627e-12 0 0)
(-1.83416e-12 0 0)
(-2.19961e-12 0 0)
(-2.24568e-12 0 0)
(-2.75316e-12 0 0)
(-2.77619e-12 0 0)
(-3.11784e-12 0 0)
(-2.95585e-12 0 0)
(-3.21919e-12 0 0)
(-2.58579e-12 0 0)
(-2.54971e-12 0 0)
(-2.17044e-12 0 0)
(-2.26103e-12 0 0)
(-1.97312e-12 0 0)
(-1.79961e-12 0 0)
(-1.67754e-12 0 0)
(-1.56622e-12 0 0)
(-1.24453e-12 0 0)
(-1.32744e-12 0 0)
(-1.16084e-12 0 0)
(-1.0572e-12 0 0)
(-1.30134e-12 0 0)
(-2.24261e-12 0 0)
(-2.57044e-12 0 0)
(-3.73665e-12 0 0)
(-3.85949e-12 0 0)
(-4.85373e-12 0 0)
(-3.95546e-12 0 0)
(-4.56813e-12 0 0)
(-4.22494e-12 0 0)
(-4.69865e-12 0 0)
(-4.2902e-12 0 0)
(-4.77389e-12 0 0)
(-3.8403e-12 0 0)
(-3.78963e-12 0 0)
(-3.26295e-12 0 0)
(-3.68675e-12 0 0)
(-3.62993e-12 0 0)
(-3.93627e-12 0 0)
(-3.51017e-12 0 0)
(-3.05796e-12 0 0)
(-2.57811e-12 0 0)
(-2.18502e-12 0 0)
(-2.11746e-12 0 0)
(-1.40192e-12 0 0)
(-1.33743e-12 0 0)
(-1.0403e-12 0 0)
(-1.15547e-12 0 0)
(-1.1332e-12 0 0)
(-1.43186e-12 0 0)
(-1.38963e-12 0 0)
(-1.14318e-12 0 0)
(-7.20152e-13 0 0)
(-7.10939e-13 0 0)
(-8.00766e-13 0 0)
(-7.08636e-13 0 0)
(-8.69864e-13 0 0)
(-1.18464e-12 0 0)
(-1.19769e-12 0 0)
(-1.33896e-12 0 0)
(-1.6975e-12 0 0)
(-1.45182e-12 0 0)
(-1.71132e-12 0 0)
(-1.92399e-12 0 0)
(-2.39155e-12 0 0)
(-2.1712e-12 0 0)
(-2.17658e-12 0 0)
(-2.16046e-12 0 0)
(-2.67101e-12 0 0)
(-2.93358e-12 0 0)
(-2.87216e-12 0 0)
(-2.72552e-12 0 0)
(-2.5927e-12 0 0)
(-2.66103e-12 0 0)
(-2.2833e-12 0 0)
(-1.77965e-12 0 0)
(-1.20384e-12 0 0)
(-1.24069e-12 0 0)
(-1.01267e-12 0 0)
(-1.34741e-12 0 0)
(-1.28291e-12 0 0)
(-1.29904e-12 0 0)
(-1.61382e-12 0 0)
(-1.59846e-12 0 0)
(-1.99155e-12 0 0)
(-2.10287e-12 0 0)
(-2.21343e-12 0 0)
(-2.63569e-12 0 0)
(-2.81458e-12 0 0)
(-3.41112e-12 0 0)
(-3.1808e-12 0 0)
(-3.53166e-12 0 0)
(-3.14318e-12 0 0)
(-3.45565e-12 0 0)
(-3.28521e-12 0 0)
(-3.23608e-12 0 0)
(-3.114e-12 0 0)
(-3.04184e-12 0 0)
(-2.98042e-12 0 0)
(-2.76928e-12 0 0)
(-2.6426e-12 0 0)
(-2.29328e-12 0 0)
(-2.26641e-12 0 0)
(-2.39078e-12 0 0)
(-2.52437e-12 0 0)
(-2.05374e-12 0 0)
(-1.3666e-12 0 0)
(-1.28829e-12 0 0)
(-1.09789e-12 0 0)
(-6.99423e-13 0 0)
(-6.04989e-13 0 0)
(-1.99616e-14 0 0)
(-2.58733e-13 0 0)
(-4.12283e-13 0 0)
(-7.43185e-13 0 0)
(-1.05029e-12 0 0)
(-7.97695e-13 0 0)
(-8.952e-13 0 0)
(-5.72743e-13 0 0)
(-7.24758e-13 0 0)
(-4.4069e-13 0 0)
(-1.16238e-12 0 0)
(-1.15931e-12 0 0)
(-1.23148e-12 0 0)
(-1.25297e-12 0 0)
(-1.44107e-12 0 0)
(-1.47716e-12 0 0)
(-1.31746e-12 0 0)
(-1.12245e-12 0 0)
(-1.15393e-12 0 0)
(-1.88483e-12 0 0)
(-2.19193e-12 0 0)
(-2.29328e-12 0 0)
(-2.46065e-12 0 0)
(-2.68713e-12 0 0)
(-2.71631e-12 0 0)
(-2.6641e-12 0 0)
(-2.47831e-12 0 0)
(-2.1904e-12 0 0)
(-1.89481e-12 0 0)
(-1.80192e-12 0 0)
(-1.47101e-12 0 0)
(-1.71823e-12 0 0)
(-1.92476e-12 0 0)
(-2.05758e-12 0 0)
(-2.25489e-12 0 0)
(-2.0998e-12 0 0)
(-2.28176e-12 0 0)
(-1.91478e-12 0 0)
(-2.31401e-12 0 0)
(-2.32629e-12 0 0)
(-2.70402e-12 0 0)
(-3.16391e-12 0 0)
(-3.50863e-12 0 0)
(-3.5808e-12 0 0)
(-3.9616e-12 0 0)
(-3.97619e-12 0 0)
(-4.03915e-12 0 0)
(-3.55009e-12 0 0)
(-3.22763e-12 0 0)
(-2.48445e-12 0 0)
(-2.06833e-12 0 0)
(-1.68906e-12 0 0)
(-2.0023e-12 0 0)
(-1.37581e-12 0 0)
(-1.0119e-12 0 0)
(1.9117e-13 0 0)
(6.60267e-14 0 0)
(1.14472e-12 0 0)
(6.55661e-13 0 0)
(5.98847e-13 0 0)
(-4.73703e-13 0 0)
(-9.04413e-13 0 0)
(-1.78733e-12 0 0)
(-1.438e-12 0 0)
(-2.21881e-12 0 0)
(-1.65758e-12 0 0)
(-2.06756e-12 0 0)
(-1.67908e-12 0 0)
(-1.58771e-12 0 0)
(-8.64489e-13 0 0)
(-6.30325e-13 0 0)
(-3.60076e-13 0 0)
(-4.58348e-13 0 0)
(1.6046e-13 0 0)
(3.2783e-13 0 0)
(2.17274e-13 0 0)
(-3.45489e-13 0 0)
(-6.17273e-13 0 0)
(-8.06908e-13 0 0)
(-1.35969e-12 0 0)
(-1.77581e-12 0 0)
(-2.3355e-12 0 0)
(-2.25259e-12 0 0)
(-3.13473e-12 0 0)
(-3.08483e-12 0 0)
(-3.69135e-12 0 0)
(-3.19999e-12 0 0)
(-2.8783e-12 0 0)
(-2.18886e-12 0 0)
(-2.3332e-12 0 0)
(-2.04606e-12 0 0)
(-1.8856e-12 0 0)
(-1.63915e-12 0 0)
(-1.29904e-12 0 0)
(-7.66985e-13 0 0)
(-5.90402e-13 0 0)
(-9.11322e-13 0 0)
(-8.46831e-13 0 0)
(-1.13934e-12 0 0)
(-1.31362e-12 0 0)
(-1.00729e-12 0 0)
(-1.0572e-12 0 0)
(-7.36275e-13 0 0)
(-7.0019e-13 0 0)
(-6.28789e-13 0 0)
(-8.03069e-13 0 0)
(-7.47791e-13 0 0)
(-5.59692e-13 0 0)
(-9.64297e-13 0 0)
(-1.06257e-12 0 0)
(-1.57159e-12 0 0)
(-1.09789e-12 0 0)
(-4.05373e-13 0 0)
(4.476e-13 0 0)
(6.66409e-13 0 0)
(1.48176e-12 0 0)
(1.49558e-12 0 0)
(1.03032e-12 0 0)
(8.21495e-13 0 0)
(7.76198e-13 0 0)
(5.74279e-13 0 0)
(3.00959e-13 0 0)
(2.85604e-13 0 0)
(-3.0403e-13 0 0)
(-4.34548e-13 0 0)
(-1.63762e-12 0 0)
(-1.72514e-12 0 0)
(-2.85604e-12 0 0)
(-2.92821e-12 0 0)
(-3.69289e-12 0 0)
(-3.71669e-12 0 0)
(-4.22494e-12 0 0)
(-3.39961e-12 0 0)
(-3.34894e-12 0 0)
(-2.78464e-12 0 0)
(-2.68944e-12 0 0)
(-2.40383e-12 0 0)
(-2.26487e-12 0 0)
(-2.20191e-12 0 0)
(-1.94165e-12 0 0)
(-1.92629e-12 0 0)
(-1.66909e-12 0 0)
(-1.28215e-12 0 0)
(-9.23606e-13 0 0)
(-9.74278e-13 0 0)
(-9.67368e-13 0 0)
(-1.17466e-12 0 0)
(-9.55084e-13 0 0)
(-1.01804e-12 0 0)
(-8.72167e-13 0 0)
(-1.09328e-12 0 0)
(-5.71208e-13 0 0)
(-7.60843e-13 0 0)
(1.68906e-13 0 0)
(1.02111e-13 0 0)
(5.3973e-13 0 0)
(2.0499e-13 0 0)
(6.08828e-13 0 0)
(2.44145e-13 0 0)
(4.952e-13 0 0)
(-9.81188e-13 0 0)
(-1.19078e-12 0 0)
(-1.96238e-12 0 0)
(-1.9762e-12 0 0)
(-2.29021e-12 0 0)
(-1.70671e-12 0 0)
(-1.87332e-12 0 0)
(-1.78042e-12 0 0)
(-2.18042e-12 0 0)
(-2.18656e-12 0 0)
(-1.51631e-12 0 0)
(-1.11401e-12 0 0)
(-4.42226e-13 0 0)
(-1.07485e-14 0 0)
(7.7543e-13 0 0)
(8.09979e-13 0 0)
(5.25143e-13 0 0)
(3.71592e-13 0 0)
(7.06332e-14 0 0)
(-1.26679e-13 0 0)
(-3.14779e-14 0 0)
(-6.833e-14 0 0)
(3.80805e-13 0 0)
(-3.40882e-13 0 0)
(-6.90977e-15 0 0)
(1.53551e-14 0 0)
(4.53742e-13 0 0)
(-4.16122e-13 0 0)
(2.08829e-13 0 0)
(-6.31093e-13 0 0)
(-2.20345e-13 0 0)
(-1.69673e-13 0 0)
(1.0357e-12 0 0)
(1.02495e-12 0 0)
(1.87101e-12 0 0)
(1.25604e-12 0 0)
(1.13704e-12 0 0)
(9.66601e-13 0 0)
(8.45296e-13 0 0)
(3.07101e-13 0 0)
(2.01919e-13 0 0)
(4.29941e-14 0 0)
(-2.31094e-13 0 0)
(-2.99424e-13 0 0)
(-8.11515e-13 0 0)
(-1.17466e-12 0 0)
(-1.46564e-12 0 0)
(-1.30364e-12 0 0)
(-1.32514e-12 0 0)
(-5.25911e-13 0 0)
(-6.72551e-13 0 0)
(-2.87139e-13 0 0)
(-5.55853e-13 0 0)
(-6.11899e-13 0 0)
(-9.09019e-13 0 0)
(-1.17389e-12 0 0)
(-1.16007e-12 0 0)
(-7.5163e-13 0 0)
(-5.19769e-13 0 0)
(-4.36851e-13 0 0)
(-5.31285e-13 0 0)
(-3.43953e-13 0 0)
(-4.25335e-13 0 0)
(-3.07869e-13 0 0)
(-6.0806e-13 0 0)
(-6.37235e-13 0 0)
(-1.30825e-12 0 0)
(-1.07869e-12 0 0)
(-1.50019e-12 0 0)
(-1.14088e-12 0 0)
(-1.09558e-12 0 0)
(-9.45104e-13 0 0)
(-4.04606e-13 0 0)
(-3.38579e-13 0 0)
(5.54317e-13 0 0)
(5.88099e-13 0 0)
(1.13474e-12 0 0)
(1.67984e-12 0 0)
(1.7904e-12 0 0)
(1.73435e-12 0 0)
(1.47716e-12 0 0)
(1.31977e-12 0 0)
(5.7735e-13 0 0)
(4.59884e-13 0 0)
(-1.37428e-13 0 0)
(-9.19e-13 0 0)
(-1.72744e-12 0 0)
(-1.49712e-12 0 0)
(-1.88637e-12 0 0)
(-1.21996e-12 0 0)
(-1.02649e-12 0 0)
(-1.45873e-14 0 0)
(1.88099e-13 0 0)
(7.30133e-13 0 0)
(8.72935e-13 0 0)
(1.41266e-12 0 0)
(1.25988e-12 0 0)
(1.10633e-12 0 0)
(3.73896e-13 0 0)
(3.06333e-13 0 0)
(1.45873e-14 0 0)
(1.3666e-13 0 0)
(-3.22456e-14 0 0)
(1.72744e-13 0 0)
(4.57581e-13 0 0)
(4.15354e-13 0 0)
(6.51822e-13 0 0)
(2.80997e-13 0 0)
(1.76583e-14 0 0)
(-2.9712e-13 0 0)
(-3.49327e-13 0 0)
(-6.57196e-13 0 0)
(-6.29557e-13 0 0)
(-9.29748e-13 0 0)
(-7.53165e-13 0 0)
(-7.92321e-13 0 0)
(-2.01151e-13 0 0)
(-2.74855e-13 0 0)
(-3.90018e-13 0 0)
(-4.95968e-13 0 0)
(-5.76582e-13 0 0)
(-9.53549e-13 0 0)
(-1.52092e-12 0 0)
(-1.61842e-12 0 0)
(-1.48714e-12 0 0)
(-1.37197e-12 0 0)
(-8.53741e-13 0 0)
(-8.56044e-13 0 0)
(-7.49327e-13 0 0)
(-4.8522e-13 0 0)
(-5.49711e-13 0 0)
(-8.90593e-13 0 0)
(-8.53741e-13 0 0)
(-1.10633e-12 0 0)
(-1.22994e-12 0 0)
(-8.79845e-13 0 0)
(-8.85987e-13 0 0)
(-3.40114e-13 0 0)
(-7.10171e-13 0 0)
(-3.07101e-15 0 0)
(-7.83108e-14 0 0)
(6.71784e-13 0 0)
(4.5451e-13 0 0)
(5.48175e-13 0 0)
(5.14394e-13 0 0)
(1.18387e-12 0 0)
(7.05565e-13 0 0)
(1.3643e-12 0 0)
(8.39921e-13 0 0)
(1.03032e-12 0 0)
(3.46256e-13 0 0)
(5.57388e-13 0 0)
(1.53551e-14 0 0)
(2.63339e-13 0 0)
(-5.81957e-13 0 0)
(-3.05566e-13 0 0)
(-4.5451e-13 0 0)
(4.60652e-15 0 0)
(-1.63531e-13 0 0)
(1.19002e-13 0 0)
(4.25335e-13 0 0)
(9.81188e-13 0 0)
(1.15393e-12 0 0)
(1.49789e-12 0 0)
(1.82879e-12 0 0)
(1.94779e-12 0 0)
(2.27024e-12 0 0)
(2.09443e-12 0 0)
(2.29021e-12 0 0)
(1.47255e-12 0 0)
(1.16698e-12 0 0)
(3.25527e-13 0 0)
(4.99039e-14 0 0)
(-9.42032e-13 0 0)
(-7.12474e-13 0 0)
(-6.74087e-13 0 0)
(1.13627e-13 0 0)
(4.70632e-13 0 0)
(1.59385e-12 0 0)
(2.03378e-12 0 0)
(2.8261e-12 0 0)
(3.09328e-12 0 0)
(3.60613e-12 0 0)
(3.69826e-12 0 0)
(3.76122e-12 0 0)
(3.01113e-12 0 0)
(2.78464e-12 0 0)
(1.74894e-12 0 0)
(1.28138e-12 0 0)
(4.76774e-13 0 0)
(4.45297e-14 0 0)
(-1.03647e-12 0 0)
(-7.53165e-13 0 0)
(-1.0595e-12 0 0)
(-2.68713e-13 0 0)
(2.86372e-13 0 0)
(1.30441e-12 0 0)
(1.68215e-12 0 0)
(1.77812e-12 0 0)
(1.68368e-12 0 0)
(1.92322e-12 0 0)
(1.8879e-12 0 0)
(1.61151e-12 0 0)
(1.02034e-12 0 0)
(7.71591e-13 0 0)
(6.25718e-13 0 0)
(7.2783e-13 0 0)
(3.35508e-13 0 0)
(8.91361e-13 0 0)
(7.5854e-13 0 0)
(5.0902e-13 0 0)
(3.0403e-13 0 0)
(2.48752e-13 0 0)
(-7.26294e-13 0 0)
(-5.59692e-13 0 0)
(-1.27447e-12 0 0)
(-7.78501e-13 0 0)
(-1.18771e-12 0 0)
(3.83876e-14 0 0)
(-4.27638e-13 0 0)
(1.6046e-13 0 0)
(-2.46449e-13 0 0)
(-1.00576e-13 0 0)
(-5.56621e-13 0 0)
(-1.77351e-13 0 0)
(-8.64489e-13 0 0)
(-1.33205e-12 0 0)
(-2.3808e-12 0 0)
(-2.69404e-12 0 0)
(-3.29443e-12 0 0)
(-3.11784e-12 0 0)
(-2.93665e-12 0 0)
(-2.27255e-12 0 0)
(-1.94088e-12 0 0)
(-1.37428e-12 0 0)
(-9.35123e-13 0 0)
(-5.40498e-13 0 0)
(-4.95968e-13 0 0)
(-2.05758e-13 0 0)
(-1.84261e-14 0 0)
(4.77542e-13 0 0)
(9.98078e-13 0 0)
(1.0572e-12 0 0)
(1.10173e-12 0 0)
(4.75239e-13 0 0)
(5.52014e-13 0 0)
(3.37811e-14 0 0)
(4.06909e-14 0 0)
(-2.99424e-14 0 0)
(1.51247e-13 0 0)
(-2.07293e-13 0 0)
(9.21303e-14 0 0)
(2.08061e-13 0 0)
(5.06717e-13 0 0)
(9.67368e-14 0 0)
(4.7831e-13 0 0)
(-1.87332e-13 0 0)
(3.23992e-13 0 0)
(-1.62764e-13 0 0)
(-1.04414e-13 0 0)
(3.70825e-13 0 0)
(5.1593e-13 0 0)
(8.59115e-13 0 0)
(5.38195e-13 0 0)
(5.52782e-13 0 0)
(3.50863e-13 0 0)
(3.76199e-13 0 0)
(2.08061e-13 0 0)
(-1.59693e-13 0 0)
(-7.23223e-13 0 0)
(-3.29366e-13 0 0)
(-2.99424e-13 0 0)
(7.0019e-13 0 0)
(3.70057e-13 0 0)
(6.24951e-13 0 0)
(9.28981e-14 0 0)
(3.66986e-13 0 0)
(-1.2975e-13 0 0)
(6.4568e-13 0 0)
(9.68904e-13 0 0)
(1.57236e-12 0 0)
(1.65988e-12 0 0)
(1.78886e-12 0 0)
(1.58234e-12 0 0)
(1.35585e-12 0 0)
(6.26486e-13 0 0)
(-2.47984e-13 0 0)
(-1.21689e-12 0 0)
(-1.54472e-12 0 0)
(-1.53013e-12 0 0)
(-1.29136e-12 0 0)
(-6.51822e-13 0 0)
(-2.45681e-14 0 0)
(5.81957e-13 0 0)
(6.34164e-13 0 0)
(1.07101e-12 0 0)
(1.41343e-12 0 0)
(2.06295e-12 0 0)
(2.23109e-12 0 0)
(3.20921e-12 0 0)
(2.79385e-12 0 0)
(2.86679e-12 0 0)
(2.09443e-12 0 0)
(1.69366e-12 0 0)
(1.28061e-12 0 0)
(1.14549e-12 0 0)
(1.42802e-12 0 0)
(1.85182e-12 0 0)
(1.69136e-12 0 0)
(2.14357e-12 0 0)
(2.72783e-12 0 0)
(3.39807e-12 0 0)
(3.56621e-12 0 0)
(3.41343e-12 0 0)
(2.89673e-12 0 0)
(2.34932e-12 0 0)
(1.64913e-12 0 0)
(2.03838e-12 0 0)
(1.87869e-12 0 0)
(1.51785e-12 0 0)
(1.39194e-12 0 0)
(1.06411e-12 0 0)
(1.05259e-12 0 0)
(7.04029e-13 0 0)
(8.47599e-13 0 0)
(8.65257e-13 0 0)
(1.14779e-12 0 0)
(8.06908e-13 0 0)
(7.91553e-13 0 0)
(4.21496e-13 0 0)
(5.71976e-13 0 0)
(1.77351e-13 0 0)
(-3.42418e-13 0 0)
(-5.16698e-13 0 0)
(-3.7927e-13 0 0)
(-8.89825e-13 0 0)
(-1.62303e-12 0 0)
(-2.00998e-12 0 0)
(-2.38848e-12 0 0)
(-2.24414e-12 0 0)
(-2.98118e-12 0 0)
(-3.40345e-12 0 0)
(-3.92091e-12 0 0)
(-4.26947e-12 0 0)
(-3.95853e-12 0 0)
(-3.71208e-12 0 0)
(-3.1785e-12 0 0)
(-2.18963e-12 0 0)
(-2.00844e-12 0 0)
(-2.03762e-12 0 0)
(-1.32284e-12 0 0)
(-6.80997e-13 0 0)
(1.07485e-14 0 0)
(1.39731e-13 0 0)
(5.42801e-13 0 0)
(5.12091e-13 0 0)
(1.05643e-12 0 0)
(1.12169e-12 0 0)
(9.23606e-13 0 0)
(4.84452e-13 0 0)
(2.08061e-13 0 0)
(-1.84261e-13 0 0)
(-7.39346e-13 0 0)
(-1.66679e-12 0 0)
(-2.13205e-12 0 0)
(-2.39539e-12 0 0)
(-2.52437e-12 0 0)
(-2.82994e-12 0 0)
(-3.04951e-12 0 0)
(-3.10863e-12 0 0)
(-2.64875e-12 0 0)
(-2.53589e-12 0 0)
(-2.1474e-12 0 0)
(-1.90096e-12 0 0)
(-1.46334e-12 0 0)
(-1.3689e-12 0 0)
(-7.79269e-13 0 0)
(-6.91745e-13 0 0)