/*--------------------------------*- C++ -*----------------------------------*\
  =========                 |
  \\      /  F ield         | OpenFOAM: The Open Source CFD Toolbox
   \\    /   O peration     | Website:  https://openfoam.org
    \\  /    A nd           | Version:  9
     \\/     M anipulation  |
\*---------------------------------------------------------------------------*/
FoamFile
{
    format      ascii;
    class       volScalarField;
    location    "0.018";
    object      ddt0(p);
}
// * * * * * * * * * * * * * * * * * * * * * * * * * * * * * * * * * * * * * //

dimensions      [1 -1 -3 0 0 0 0];

internalField   nonuniform List<scalar> 
100
(
-5.32979e+06
-5.26867e+06
-5.25107e+06
-5.21198e+06
-5.17212e+06
-5.12994e+06
-5.0839e+06
-5.03326e+06
-4.97708e+06
-4.91435e+06
-4.84383e+06
-4.76407e+06
-4.67322e+06
-4.56975e+06
-4.45031e+06
-4.31477e+06
-4.15309e+06
-3.97397e+06
-3.76861e+06
-3.50282e+06
-3.22292e+06
-2.95013e+06
-2.65433e+06
-2.33906e+06
-2.05896e+06
-1.80506e+06
-1.57563e+06
-1.38631e+06
-1.22244e+06
-1.0814e+06
-968610
-875908
-795715
-726176
-664915
-609375
-558724
-511730
-465832
-421035
-380579
-344229
-308362
-270628
-234968
-205744
-179111
-154391
-119288
-109010
-56566.8
-86428
-43481
-33251.8
-6796.53
-34406.1
43953.4
-43613.8
6316.55
31213.8
-6426.2
37194.4
-3729.83
15294.5
11365.3
23654.4
6935.89
44530.8
-17195.1
31711.8
-106750
-7229.65
1789.9
-17051.7
374739
418336
-795663
-199772
317555
894606
-867095
-295563
-45486.6
-122760
-142328
1.50444e+06
498009
-3.05578e+06
811451
3.2051e+06
-1.53755e+06
-3.20508e+06
2.28062e+06
3.46964e+06
-4.04107e+06
-3.40324e+06
4.64948e+06
2.40931e+06
-3.66246e+06
29512
)
;

boundaryField
{
    sides
    {
        type            calculated;
        value           nonuniform List<scalar> 2(29512 -5.32979e+06);
    }
    empty
    {
        type            empty;
    }
}


// ************************************************************************* //
