/*--------------------------------*- C++ -*----------------------------------*\
  =========                 |
  \\      /  F ield         | OpenFOAM: The Open Source CFD Toolbox
   \\    /   O peration     | Website:  https://openfoam.org
    \\  /    A nd           | Version:  9
     \\/     M anipulation  |
\*---------------------------------------------------------------------------*/
FoamFile
{
    format      ascii;
    class       volScalarField;
    location    "0.018";
    object      ddt0(rho,e);
}
// * * * * * * * * * * * * * * * * * * * * * * * * * * * * * * * * * * * * * //

dimensions      [1 -1 -3 0 0 0 0];

internalField   nonuniform List<scalar> 
100
(
69327.9
58185.1
146961
173346
187603
199867
213752
228528
243351
257957
272325
286095
300376
311109
330613
324712
375093
314937
380462
403768
269356
479277
221527
531961
294284
108403
544595
288852
-37824.5
404784
463499
-65840.1
20151.5
526124
344087
-187744
-30585.7
517278
437733
-167176
-286711
287226
635010
169473
-436683
-286132
387359
628743
114393
-460152
-467300
107750
599412
349702
-183082
-433815
-450046
-5800.42
503926
194326
-40745.8
-186323
-283960
-120109
-16687.7
94038.9
50660.2
-3091.38
-67628
-232152
-55800.7
-27820.2
217.023
24704.1
-224100
-193007
99605.4
-37343.9
-266799
-429890
412993
16994.6
-112212
-124119
-98175.1
-865882
-127197
1.01502e+06
-761342
-1.60746e+06
968298
664511
-1.68916e+06
-1.42192e+06
2.12847e+06
820490
-2.49935e+06
-1.6693e+06
-4.11965e+06
-2.0197e+07
)
;

boundaryField
{
    sides
    {
        type            calculated;
        value           nonuniform List<scalar> 2(-2.0197e+07 69327.9);
    }
    empty
    {
        type            empty;
    }
}


// ************************************************************************* //
