/*--------------------------------*- C++ -*----------------------------------*\
  =========                 |
  \\      /  F ield         | OpenFOAM: The Open Source CFD Toolbox
   \\    /   O peration     | Website:  https://openfoam.org
    \\  /    A nd           | Version:  9
     \\/     M anipulation  |
\*---------------------------------------------------------------------------*/
FoamFile
{
    format      ascii;
    class       volScalarField;
    location    "0.018";
    object      rho_0;
}
// * * * * * * * * * * * * * * * * * * * * * * * * * * * * * * * * * * * * * //

dimensions      [1 -3 0 0 0 0 0];

internalField   nonuniform List<scalar> 
100
(
0.663442
0.659765
0.656949
0.654719
0.652395
0.650004
0.647565
0.645085
0.642561
0.639985
0.637349
0.634641
0.631847
0.628955
0.625929
0.622802
0.619396
0.616046
0.61192
0.6084
0.603469
0.599331
0.593844
0.588411
0.583336
0.576564
0.5705
0.564852
0.557763
0.551007
0.545317
0.538804
0.531642
0.525588
0.520142
0.513784
0.507079
0.501473
0.496605
0.491076
0.484892
0.479414
0.47514
0.470945
0.465844
0.460526
0.456276
0.45313
0.449929
0.446021
0.441911
0.438591
0.436494
0.434801
0.432663
0.430369
0.428172
0.426543
0.42609
0.425694
0.425144
0.424633
0.424091
0.423851
0.423829
0.423907
0.424026
0.424067
0.424074
0.423913
0.423824
0.423938
0.424014
0.424123
0.424165
0.42388
0.423877
0.424081
0.424136
0.423724
0.423698
0.4242
0.424278
0.424244
0.424297
0.42407
0.423092
0.424024
0.424775
0.422997
0.422032
0.423924
0.424129
0.421584
0.421364
0.424261
0.423892
0.419807
0.416632
0.392088
)
;

boundaryField
{
    sides
    {
        type            calculated;
        value           nonuniform List<scalar> 2(0.392088 0.663442);
    }
    empty
    {
        type            empty;
    }
}


// ************************************************************************* //
