/*--------------------------------*- C++ -*----------------------------------*\
  =========                 |
  \\      /  F ield         | OpenFOAM: The Open Source CFD Toolbox
   \\    /   O peration     | Website:  https://openfoam.org
    \\  /    A nd           | Version:  9
     \\/     M anipulation  |
\*---------------------------------------------------------------------------*/
FoamFile
{
    format      ascii;
    class       volScalarField;
    location    "0.017";
    object      ddt0(rho,K);
}
// * * * * * * * * * * * * * * * * * * * * * * * * * * * * * * * * * * * * * //

dimensions      [1 -1 -3 0 0 0 0];

internalField   nonuniform List<scalar> 
1000
(
2986.61
2737.61
2927.74
2547.73
2048.16
1524.48
880.15
89.9875
-826.078
-1862.1
-3020.95
-4304.37
-5711.69
-7242.76
-8897.95
-10676.3
-12577.9
-14603.7
-16752.8
-19024.8
-21420.3
-23939.8
-26582.8
-29348.5
-32236.7
-35247.8
-38381.9
-41639.1
-45019.1
-48521.6
-52146.5
-55893.6
-59762.6
-63753.4
-67865.9
-72100
-76455.3
-80931.7
-85529
-90246.9
-95085.2
-100044
-105122
-110320
-115637
-121073
-126628
-132302
-138093
-144002
-150028
-156172
-162432
-168808
-175300
-181907
-188629
-195465
-202415
-209479
-216656
-223945
-231346
-238858
-246482
-254216
-262059
-270013
-278075
-286245
-294524
-302909
-311400
-319998
-328701
-337508
-346419
-355434
-364551
-373771
-383092
-392514
-402037
-411659
-421380
-431199
-441116
-451130
-461241
-471446
-481747
-492142
-502630
-513210
-523882
-534645
-545497
-556438
-567467
-578581
-589781
-601064
-612430
-623876
-635401
-647003
-658679
-670428
-682247
-694131
-706079
-718087
-730150
-742264
-754424
-766625
-778860
-791122
-803402
-815691
-827979
-840254
-852501
-864707
-876854
-888921
-900887
-912726
-924409
-935901
-947165
-958153
-968815
-979089
-988906
-998182
-1.00682e+06
-1.01472e+06
-1.02173e+06
-1.02772e+06
-1.03251e+06
-1.03589e+06
-1.03763e+06
-1.03749e+06
-1.03517e+06
-1.03038e+06
-1.02277e+06
-1.01201e+06
-997756
-979658
-957395
-930671
-899239
-862912
-821580
-775223
-723925
-667881
-607399
-542907
-474940
-404135
-331212
-256951
-182173
-107708
-34371.5
37065.4
105898
171509
233383
291119
344430
393147
437209
476653
511606
542262
568875
591737
611165
627491
641046
652155
661125
668246
673781
677970
681024
683130
684450
685124
685266
684982
684341
683437
682280
680994
679478
678000
676181
674700
672512
671282
668512
667894
664193
664596
659652
661243
655241
657346
651634
652201
649484
645269
648302
638640
646328
633565
641340
632275
632124
634003
622542
632852
619047
623857
622239
611791
622661
607979
612269
612993
599637
611551
599577
597246
605322
588264
596713
594754
581161
594257
582821
577120
588713
572085
574010
581110
562992
570448
572512
555188
565914
563919
548129
560398
555840
541134
554137
548354
534056
547233
541599
526811
539652
535524
519472
531324
530017
512435
522057
524841
506075
511869
519345
500988
500999
512740
497503
490200
504115
495237
480891
492852
493018
474533
479538
488643
471895
466246
479949
471785
456242
466515
470578
452109
451063
463897
452955
439068
450089
453298
435050
433247
446285
437323
421748
430388
437200
420619
413338
426417
424159
406155
407609
419620
409638
394509
402325
410251
395440
384930
396166
399364
382366
376308
388787
387996
370426
367813
380366
376761
359412
358950
371165
366067
349023
349471
361446
356008
339135
339346
351219
346639
329776
328560
340476
337829
321044
317360
329008
329326
313148
306098
316627
320634
306272
295371
303257
311074
300315
285942
289235
299860
294648
278570
275477
286430
288095
273417
263470
271084
278983
269648
254838
255297
266050
265123
250171
241768
249640
256967
247860
233160
232706
243208
243946
230035
219711
225285
234151
228801
213815
208643
217398
222993
213287
199319
198567
208569
210575
198063
186273
188906
198312
197485
184188
173997
178298
187513
184829
170689
161993
167516
175936
172221
158320
150165
155732
163917
160214
146722
138393
142908
151346
149320
135789
125702
129909
139240
137692
124777
114791
116772
124583
126143
116508
103668
101390
110721
115662
106286
92864.3
89151.3
95496.6
101657
97555.3
84727
76227.6
79676.7
87258.9
87426.1
77681
65897.5
63289.8
71278.2
77104
70223
56737.1
50185.2
54941.2
62996.9
62413.8
50578.8
39242.2
39599
47696.9
51556.6
45132.4
33130.9
26908.7
31358.4
38346
38561.8
30521.2
19364.5
15511.9
23601
31847.4
27418.1
14649.6
6997.65
10670.2
19803.7
22795.4
15128
4256.71
493.923
6929.56
16115.7
16059.1
5297.66
-3724.69
-1957.64
6545.3
12620.1
9541.3
-917.022
-7684.62
-1949.52
5960.07
10697.5
6360.84
-6303.16
-7948.49
-139.146
2219.83
5075.98
9139.46
-1661.31
-6739.72
-2422.2
-824.524
1512.35
1929.74
1619.89
597.937
-1618.36
-2248.75
-549.867
1896.16
-650.236
4685.34
-72.1792
-4410.27
3956.38
7401.93
-8033.81
-10176.4
4100.89
6517.56
-8157.71
176.556
12608.6
-5638.89
-9588.48
11396.2
7386.04
-13776.1
-1362.93
13947.8
-1563.04
-10849.2
3279.33
14041.9
-5703.84
-11454.2
2476.39
22245.1
4029.13
-23268.7
-13777.3
11899.2
25245.1
-5108.33
-23352.1
-12145.1
2759.33
11143.5
-2162.01
-5720.99
7215.68
13832.9
-1658.14
-8697.87
5837.73
15299.1
-791.583
-13460.2
-3767.49
15044.2
12717.4
-11676.7
-12543.7
5162.69
17947.8
3005.94
-12176.3
-6597.42
7470.2
16019
4539.7
-11696.7
-13101.7
-14585.8
-15554.8
-14051.1
-83.7894
19303.2
16667.1
672.946
-8386.36
2577.49
13557.8
8184.87
-4759.7
-8628.26
-3982.27
5568.51
7565.48
-172.876
-5149.98
-1294.05
4832.12
4344.58
-2313.43
-2060.68
6423.84
8369.13
1879.96
-5622.24
576.216
10149.5
8207.28
-2969.82
-9937.4
-4316.83
5963.82
9373.11
3593.31
-9895.97
-11696.7
-8703.26
-6233.27
-4626.12
-3201.5
-863.191
1913.77
551.575
-1196.84
2610.87
4608.99
1252.03
-45.2485
4640.33
3641.81
1017.12
2055.25
2992.75
1055.47
1449.92
2522.73
958.916
358.172
2278.57
1403.07
-107.646
1104.36
1838.48
-297.229
322.6
1425.78
786.48
-390.616
494.241
1593.58
-7.34693
83.1091
1664.03
912.707
-208.461
-706.895
2628.73
716.719
-671.758
-275.475
2895.67
789.614
-1781.63
558.862
2351.92
1486.56
-2297.01
-392.984
3538.01
650.486
-1270.81
-265.996
1910.05
2877.12
-816.16
-2153.82
2560.73
2253.2
-698.848
-1003.59
-142.915
3961.19
3562.5
-3248.57
-727.951
2829.09
859.575
404.073
-966.567
1773.96
5300.85
-375.85
-2821.85
1479.17
2233.19
2022.53
-798.36
-2053.13
5421.3
1583.71
-1715.08
-1054.14
2826.8
4297.48
-552.177
-2323.44
2072.37
4863.97
1564.45
-4731.74
-61.315
4950.76
3191.38
-1157.64
-3253.14
2253.23
5592.54
992.064
-2298.2
-1161.91
4619.42
6068.94
-2820.1
-3455.3
2015.4
2251.39
1667.31
97.3806
-297.626
3021.07
4045.13
-1298.88
-404.151
1639.16
865.439
-817.499
-352.981
2341.76
2063.54
-1880.74
-1732.88
2140.1
3509.1
-667.113
-2925.19
-1025.3
5957.98
2694.95
-3613.59
-287.796
4768.43
2722.82
-2507.04
-1547.17
5394.13
3974.56
-3061.64
364.336
4732.44
1761.23
-236.75
1606.63
2658.41
671.359
516.711
2827.31
1407.42
172.844
2896.15
2634
-462.627
1675.61
3101.18
-930.116
-139.087
2645.28
2847.44
200.876
1189.71
3529.34
1573.94
-271.191
3252.2
2380.16
44.8783
1667.68
2954.95
-339.191
995.021
3394.09
1000.19
-809.101
1701.5
2408.96
-416.483
1995.32
4687.81
1284.16
-298.852
4554.15
3907.7
1126.35
2400.17
2704.72
782.702
541.229
3605.4
3030.75
-138.742
1743.84
3327.88
731.347
-437.923
3645.7
5504.14
1385.65
1520.43
4768.87
2217.48
713.639
3536.82
4626.54
336.725
776.551
4075.6
1345.99
-270.676
4532.28
3100.52
-540.023
4038.61
3527.46
164.646
4042.6
6633.39
1259.88
2229.01
3626.04
918.923
-342.033
1622.45
4612.78
3838.7
2669.36
3960.98
2657.37
53.6309
1193.69
3452.47
2884.66
1326.78
4590.18
8368.99
3093.2
-1256.49
5243.1
5759.56
-2335.84
3880.37
13590.7
-2180.11
335.549
15728.7
346.217
-13117.4
8154.66
19014.3
-17364.4
-11000.6
31258.8
15613.1
-37174.1
16444.1
46521.7
-50637.7
-6890.48
77305.3
-32731.2
-92721.6
78999.4
104387
-175203
-37983
167646
-58037.5
-132622
176212
-783.455
-264621
222257
263904
-442564
-169535
468599
212629
-683577
-213815
736009
232000
-1.0473e+06
-123050
1.00982e+06
-263111
-1.07601e+06
678168
148680
-867503
778708
283508
-1.21325e+06
725222
917146
-1.40324e+06
-104311
1.68395e+06
-992646
-1.03977e+06
1.50763e+06
359849
-1.74101e+06
204011
1.97253e+06
-1.3979e+06
-1.13693e+06
1.58388e+06
327972
-1.85805e+06
396840
1.25882e+06
-1.36658e+06
-307204
1.31696e+06
-796039
-505306
1.10239e+06
54459.1
-961902
654356
212481
-529499
549995
84045.7
-550449
505732
374745
-565600
65183.9
662078
-204286
-319478
367939
287872
-286839
70624.9
426914
44766.9
-165308
138917
417264
34364.6
-211982
401902
612326
-478981
-278579
808059
359743
-500010
25374
479074
73315.8
-196006
21721.5
89241.3
-11257.5
-105211
3736.08
147603
1.52963e+06
5.64942e+06
1.96801e+07
2.00627e+07
1.90709e+07
1.66326e+07
1.51889e+07
1.33476e+07
1.21267e+07
1.00632e+07
9.02699e+06
7.38726e+06
6.57208e+06
4.91615e+06
)
;

boundaryField
{
    sides
    {
        type            calculated;
        value           nonuniform List<scalar> 2(4.91615e+06 2986.61);
    }
    empty
    {
        type            empty;
    }
}


// ************************************************************************* //
