/*--------------------------------*- C++ -*----------------------------------*\
  =========                 |
  \\      /  F ield         | OpenFOAM: The Open Source CFD Toolbox
   \\    /   O peration     | Website:  https://openfoam.org
    \\  /    A nd           | Version:  9
     \\/     M anipulation  |
\*---------------------------------------------------------------------------*/
FoamFile
{
    format      ascii;
    class       volScalarField;
    location    "0.017";
    object      mag(U);
}
// * * * * * * * * * * * * * * * * * * * * * * * * * * * * * * * * * * * * * //

dimensions      [0 1 -1 0 0 0 0];

internalField   nonuniform List<scalar> 
1000
(
5.50246
6.894
7.67417
8.49498
9.37187
10.2446
11.1084
11.9719
12.8372
13.7029
14.5685
15.4342
16.3
17.1661
18.0322
18.8985
19.765
20.6316
21.4984
22.3653
23.2324
24.0996
24.967
25.8345
26.7021
27.5699
28.4379
29.306
30.1742
31.0425
31.911
32.7797
33.6484
34.5173
35.3864
36.2555
37.1248
37.9942
38.8637
39.7334
40.6031
41.473
42.343
43.2131
44.0833
44.9536
45.8241
46.6946
47.5652
48.4359
49.3067
50.1776
51.0486
51.9197
52.7908
53.6621
54.5334
55.4048
56.2762
57.1477
58.0193
58.891
59.7627
60.6344
61.5062
62.3781
63.25
64.1219
64.9939
65.8659
66.7379
67.61
68.4821
69.3542
70.2263
71.0984
71.9706
72.8427
73.7149
74.587
75.4591
76.3313
77.2034
78.0754
78.9475
79.8196
80.6916
81.5635
82.4355
83.3074
84.1792
85.051
85.9228
86.7945
87.6661
88.5377
89.4092
90.2806
91.152
92.0232
92.8944
93.7655
94.6365
95.5074
96.3782
97.2489
98.1195
98.9899
99.8602
100.73
101.6
102.47
103.34
104.21
105.079
105.948
106.817
107.686
108.555
109.423
110.291
111.159
112.026
112.893
113.76
114.626
115.492
116.358
117.223
118.087
118.951
119.814
120.677
121.539
122.399
123.259
124.118
124.975
125.831
126.686
127.538
128.389
129.237
130.083
130.926
131.765
132.601
133.432
134.259
135.08
135.895
136.704
137.504
138.297
139.081
139.854
140.617
141.369
142.109
142.836
143.55
144.251
144.938
145.61
146.269
146.913
147.544
148.161
148.765
149.357
149.937
150.506
151.065
151.615
152.156
152.689
153.216
153.736
154.251
154.761
155.267
155.77
156.27
156.767
157.262
157.756
158.248
158.739
159.228
159.718
160.206
160.694
161.182
161.669
162.156
162.643
163.129
163.616
164.102
164.589
165.075
165.561
166.047
166.533
167.02
167.506
167.992
168.478
168.964
169.45
169.936
170.422
170.908
171.394
171.88
172.365
172.851
173.337
173.823
174.309
174.795
175.28
175.766
176.252
176.738
177.223
177.709
178.195
178.68
179.166
179.652
180.137
180.623
181.108
181.594
182.079
182.565
183.05
183.536
184.021
184.507
184.992
185.477
185.963
186.448
186.933
187.419
187.904
188.389
188.874
189.359
189.845
190.33
190.815
191.3
191.785
192.27
192.755
193.24
193.724
194.209
194.694
195.179
195.664
196.148
196.633
197.118
197.602
198.087
198.572
199.056
199.541
200.025
200.509
200.994
201.478
201.962
202.447
202.931
203.415
203.899
204.383
204.867
205.351
205.835
206.319
206.803
207.287
207.77
208.254
208.738
209.221
209.705
210.188
210.672
211.155
211.638
212.122
212.605
213.088
213.571
214.054
214.537
215.02
215.503
215.985
216.468
216.951
217.433
217.916
218.398
218.881
219.363
219.845
220.327
220.809
221.291
221.773
222.255
222.736
223.218
223.7
224.181
224.662
225.144
225.625
226.106
226.587
227.067
227.548
228.029
228.509
228.99
229.47
229.95
230.43
230.91
231.39
231.87
232.349
232.829
233.308
233.787
234.266
234.745
235.224
235.702
236.18
236.659
237.137
237.615
238.092
238.57
239.047
239.525
240.002
240.478
240.955
241.431
241.908
242.384
242.859
243.335
243.81
244.285
244.76
245.235
245.709
246.183
246.657
247.13
247.604
248.077
248.549
249.022
249.494
249.965
250.437
250.908
251.378
251.849
252.319
252.788
253.257
253.726
254.194
254.662
255.13
255.597
256.063
256.529
256.994
257.459
257.924
258.388
258.851
259.314
259.776
260.237
260.698
261.158
261.618
262.076
262.534
262.991
263.448
263.903
264.358
264.812
265.265
265.717
266.168
266.618
267.066
267.514
267.961
268.406
268.851
269.294
269.735
270.176
270.614
271.052
271.488
271.922
272.355
272.786
273.215
273.642
274.067
274.491
274.912
275.331
275.748
276.163
276.575
276.984
277.391
277.796
278.197
278.596
278.991
279.383
279.772
280.158
280.54
280.918
281.293
281.663
282.029
282.391
282.749
283.102
283.45
283.793
284.131
284.464
284.791
285.113
285.429
285.738
286.042
286.339
286.63
286.913
287.19
287.46
287.723
287.978
288.226
288.466
288.698
288.922
289.138
289.347
289.547
289.738
289.922
290.097
290.264
290.422
290.573
290.715
290.849
290.976
291.094
291.205
291.308
291.405
291.494
291.576
291.652
291.722
291.785
291.843
291.896
291.943
291.985
292.024
292.058
292.088
292.114
292.137
292.157
292.174
292.189
292.202
292.213
292.221
292.229
292.234
292.238
292.242
292.245
292.248
292.249
292.25
292.25
292.25
292.25
292.25
292.25
292.249
292.249
292.248
292.247
292.246
292.246
292.245
292.244
292.243
292.243
292.242
292.241
292.24
292.239
292.238
292.237
292.236
292.235
292.233
292.232
292.231
292.23
292.228
292.228
292.227
292.225
292.223
292.223
292.222
292.22
292.219
292.218
292.219
292.218
292.215
292.214
292.215
292.215
292.214
292.213
292.212
292.211
292.21
292.209
292.208
292.208
292.207
292.206
292.205
292.205
292.205
292.203
292.202
292.202
292.202
292.202
292.2
292.199
292.199
292.2
292.199
292.198
292.197
292.197
292.198
292.199
292.2
292.201
292.201
292.2
292.199
292.198
292.198
292.198
292.197
292.196
292.196
292.197
292.197
292.197
292.196
292.196
292.196
292.196
292.196
292.195
292.195
292.195
292.195
292.195
292.194
292.194
292.194
292.194
292.193
292.193
292.194
292.194
292.194
292.194
292.194
292.194
292.195
292.196
292.196
292.197
292.197
292.197
292.197
292.197
292.197
292.197
292.197
292.197
292.197
292.196
292.196
292.196
292.196
292.196
292.196
292.196
292.196
292.195
292.195
292.195
292.195
292.195
292.195
292.195
292.195
292.195
292.195
292.195
292.195
292.195
292.195
292.195
292.195
292.195
292.195
292.195
292.196
292.196
292.195
292.196
292.196
292.196
292.196
292.196
292.196
292.196
292.196
292.196
292.196
292.196
292.196
292.196
292.196
292.196
292.196
292.196
292.196
292.196
292.196
292.196
292.196
292.196
292.196
292.196
292.196
292.196
292.196
292.196
292.196
292.196
292.196
292.196
292.196
292.196
292.196
292.196
292.195
292.196
292.196
292.196
292.195
292.196
292.196
292.195
292.195
292.195
292.195
292.195
292.195
292.195
292.195
292.195
292.195
292.195
292.195
292.195
292.195
292.195
292.195
292.195
292.195
292.195
292.194
292.194
292.195
292.195
292.194
292.194
292.194
292.194
292.194
292.194
292.194
292.194
292.194
292.194
292.194
292.194
292.194
292.194
292.194
292.194
292.194
292.194
292.194
292.194
292.195
292.194
292.194
292.194
292.194
292.194
292.194
292.194
292.194
292.194
292.194
292.194
292.194
292.194
292.194
292.194
292.194
292.194
292.194
292.194
292.194
292.194
292.194
292.194
292.194
292.194
292.194
292.194
292.194
292.194
292.194
292.194
292.194
292.194
292.194
292.194
292.194
292.194
292.194
292.194
292.194
292.194
292.194
292.194
292.194
292.194
292.194
292.194
292.194
292.195
292.195
292.195
292.195
292.195
292.195
292.195
292.195
292.195
292.195
292.195
292.195
292.195
292.195
292.195
292.195
292.195
292.195
292.195
292.195
292.195
292.195
292.195
292.195
292.195
292.195
292.195
292.195
292.195
292.195
292.195
292.195
292.195
292.195
292.195
292.195
292.195
292.195
292.195
292.195
292.195
292.195
292.195
292.195
292.195
292.195
292.195
292.194
292.194
292.194
292.194
292.194
292.194
292.194
292.194
292.194
292.194
292.194
292.193
292.193
292.193
292.192
292.192
292.191
292.191
292.19
292.189
292.188
292.187
292.185
292.184
292.182
292.179
292.177
292.175
292.171
292.166
292.164
292.16
292.151
292.145
292.139
292.127
292.116
292.111
292.098
292.078
292.067
292.058
292.033
292.01
291.994
291.959
291.923
291.901
291.859
291.801
291.77
291.743
291.669
291.589
291.555
291.52
291.421
291.313
291.277
291.231
291.103
291.006
290.971
290.86
290.727
290.653
290.505
290.341
290.259
290.124
289.919
289.801
289.681
289.466
289.322
289.231
289.017
288.798
288.719
288.577
288.339
288.213
288.149
287.932
287.735
287.693
287.582
287.376
287.266
287.173
286.989
286.871
286.804
286.652
286.522
286.478
286.372
286.259
286.207
286.114
286.019
285.975
285.902
285.825
285.799
285.762
285.694
285.662
285.653
285.616
285.576
285.567
285.554
285.523
285.503
285.502
285.5
285.479
285.468
285.488
285.48
285.451
285.469
285.496
285.471
285.444
285.461
285.474
285.452
285.439
285.449
285.454
285.449
285.458
285.483
285.549
285.621
285.819
285.897
285.637
285.403
285.304
285.294
285.319
285.335
285.34
285.353
285.363
285.402
285.448
)
;

boundaryField
{
    sides
    {
        type            calculated;
        value           nonuniform List<scalar> 2(285.448 5.50246);
    }
    empty
    {
        type            empty;
    }
}


// ************************************************************************* //
