/*--------------------------------*- C++ -*----------------------------------*\
  =========                 |
  \\      /  F ield         | OpenFOAM: The Open Source CFD Toolbox
   \\    /   O peration     | Website:  https://openfoam.org
    \\  /    A nd           | Version:  9
     \\/     M anipulation  |
\*---------------------------------------------------------------------------*/
FoamFile
{
    format      ascii;
    class       volScalarField;
    location    "0.046";
    object      ddt0(rho,K);
}
// * * * * * * * * * * * * * * * * * * * * * * * * * * * * * * * * * * * * * //

dimensions      [1 -1 -3 0 0 0 0];

internalField   nonuniform List<scalar> 
10000
(
62.0753
60.1924
58.1821
56.5415
55.0239
53.4716
51.8752
50.2609
48.6406
47.0131
45.3752
43.7252
42.0629
40.3885
38.7026
37.0055
35.2972
33.5776
31.8471
30.106
28.3544
26.5925
24.821
23.0404
21.2515
19.4542
17.6473
15.8296
14.0005
12.1596
10.307
8.44243
6.56564
4.67691
2.77691
0.866233
-1.05519
-2.98783
-4.93173
-6.88592
-8.84875
-10.819
-12.797
-14.784
-16.7817
-18.7908
-20.8114
-22.8432
-24.8867
-26.9428
-29.012
-31.0939
-33.1873
-35.2908
-37.4044
-39.5286
-41.664
-43.81
-45.9648
-48.1265
-50.2944
-52.47
-54.6563
-56.8559
-59.0696
-61.2964
-63.5343
-65.7821
-68.0408
-70.3123
-72.5985
-74.8994
-77.2125
-79.5341
-81.8613
-84.1938
-86.5335
-88.8834
-91.2455
-93.6197
-96.0041
-98.3971
-100.798
-103.209
-105.634
-108.075
-110.534
-113.008
-115.495
-117.989
-120.489
-122.995
-125.51
-128.037
-130.576
-133.128
-135.688
-138.255
-140.827
-143.406
-145.995
-148.599
-151.222
-153.865
-156.525
-159.198
-161.878
-164.561
-167.248
-169.941
-172.646
-175.366
-178.104
-180.856
-183.618
-186.386
-189.154
-191.925
-194.703
-197.494
-200.306
-203.142
-206.003
-208.881
-211.768
-214.657
-217.542
-220.425
-223.31
-226.205
-229.12
-232.057
-235.018
-237.997
-240.987
-243.982
-246.977
-249.973
-252.973
-255.981
-259.003
-262.045
-265.109
-268.194
-271.299
-274.416
-277.54
-280.666
-283.789
-286.908
-290.026
-293.149
-296.287
-299.449
-302.643
-305.868
-309.119
-312.388
-315.663
-318.936
-322.2
-325.452
-328.699
-331.947
-335.207
-338.485
-341.786
-345.114
-348.472
-351.86
-355.274
-358.706
-362.147
-365.586
-369.016
-372.433
-375.836
-379.23
-382.626
-386.039
-389.477
-392.948
-396.45
-399.983
-403.543
-407.128
-410.733
-414.351
-417.972
-421.589
-425.197
-428.79
-432.367
-435.931
-439.492
-443.067
-446.668
-450.299
-453.963
-457.658
-461.385
-465.143
-468.931
-472.745
-476.574
-480.414
-484.257
-488.091
-491.904
-495.69
-499.457
-503.215
-506.975
-510.745
-514.525
-518.318
-522.13
-525.974
-529.857
-533.779
-537.742
-541.751
-545.804
-549.886
-553.977
-558.067
-562.153
-566.239
-570.331
-574.423
-578.502
-582.557
-586.594
-590.624
-594.642
-598.647
-602.655
-606.685
-610.738
-614.807
-618.882
-622.956
-627.033
-631.141
-635.303
-639.502
-643.72
-647.968
-652.258
-656.584
-660.93
-665.302
-669.719
-674.186
-678.705
-683.274
-687.845
-692.387
-696.934
-701.525
-706.148
-710.762
-715.366
-719.995
-724.624
-729.224
-733.822
-738.396
-742.945
-747.531
-752.174
-756.842
-761.425
-765.945
-770.552
-775.172
-779.766
-784.402
-789.023
-793.682
-798.442
-803.571
-808.337
-812.989
-817.725
-822.428
-827.189
-831.96
-836.663
-841.446
-846.303
-851.073
-855.787
-860.55
-865.357
-870.207
-875.102
-879.981
-884.844
-889.751
-894.679
-899.579
-904.481
-909.425
-914.402
-919.392
-924.369
-929.317
-934.266
-939.258
-944.283
-949.318
-954.368
-959.441
-964.529
-969.621
-974.712
-979.808
-984.932
-990.094
-995.271
-1000.44
-1005.6
-1010.76
-1015.93
-1021.13
-1026.34
-1031.57
-1036.83
-1042.12
-1047.41
-1052.69
-1057.98
-1063.29
-1068.63
-1073.97
-1079.33
-1084.69
-1090.05
-1095.42
-1100.81
-1106.2
-1111.62
-1117.07
-1122.54
-1128.01
-1133.5
-1138.98
-1144.49
-1150.01
-1155.56
-1161.12
-1166.68
-1172.25
-1177.83
-1183.4
-1188.97
-1194.57
-1200.19
-1205.83
-1211.5
-1217.18
-1222.88
-1228.59
-1234.31
-1240.05
-1245.8
-1251.57
-1257.34
-1263.12
-1268.9
-1274.69
-1280.49
-1286.31
-1292.15
-1298.01
-1303.87
-1309.75
-1315.64
-1321.54
-1327.47
-1333.41
-1339.38
-1345.37
-1351.37
-1357.38
-1363.39
-1369.41
-1375.42
-1381.45
-1387.49
-1393.55
-1399.63
-1405.74
-1411.86
-1417.99
-1424.14
-1430.31
-1436.48
-1442.66
-1448.86
-1455.06
-1461.29
-1467.52
-1473.78
-1480.05
-1486.33
-1492.64
-1498.95
-1505.27
-1511.6
-1517.94
-1524.29
-1530.67
-1537.07
-1543.49
-1549.93
-1556.38
-1562.84
-1569.29
-1575.75
-1582.21
-1588.71
-1595.2
-1601.75
-1608.28
-1614.88
-1621.45
-1628.11
-1634.7
-1641.36
-1647.96
-1654.65
-1661.28
-1667.94
-1674.64
-1681.34
-1688.06
-1694.81
-1701.58
-1708.34
-1715.11
-1721.87
-1728.67
-1735.48
-1742.32
-1749.18
-1756.09
-1763
-1769.96
-1776.85
-1783.87
-1790.71
-1797.8
-1804.61
-1811.7
-1818.55
-1825.65
-1832.68
-1839.66
-1846.83
-1853.84
-1861.04
-1868
-1875.29
-1882.29
-1889.54
-1896.74
-1903.86
-1911.19
-1918.26
-1925.71
-1932.8
-1940.2
-1947.44
-1954.66
-1962.11
-1969.21
-1976.73
-1983.9
-1991.41
-1998.85
-2006.12
-2013.73
-2020.96
-2028.63
-2035.94
-2043.42
-2051.08
-2058.43
-2066.22
-2073.59
-2081.34
-2089.03
-2096.3
-2104.16
-2111.62
-2119.43
-2127.05
-2134.55
-2142.5
-2149.91
-2157.8
-2165.55
-2173.22
-2181.31
-2188.8
-2196.78
-2204.59
-2212.29
-2220.49
-2228.11
-2236.21
-2244.15
-2251.85
-2260.05
-2267.73
-2275.97
-2284.18
-2291.84
-2300.2
-2308.01
-2315.98
-2324.26
-2332.12
-2340.54
-2348.53
-2356.58
-2365.07
-2372.91
-2381.32
-2389.66
-2397.75
-2406.47
-2414.51
-2422.72
-2431.2
-2439.12
-2447.75
-2456.12
-2464.38
-2473.21
-2481.28
-2489.62
-2498.29
-2506.46
-2515.34
-2523.88
-2532.12
-2541.04
-2549.34
-2557.93
-2566.95
-2575.43
-2584.46
-2593.1
-2601.38
-2610.35
-2618.67
-2627.19
-2636.28
-2644.69
-2653.82
-2662.91
-2671.31
-2680.62
-2689.4
-2698.17
-2707.53
-2716.01
-2724.94
-2734.23
-2742.78
-2752.34
-2761.79
-2770.22
-2779.6
-2788.52
-2797.16
-2806.69
-2815.62
-2824.73
-2834.42
-2843.33
-2852.58
-2862.13
-2870.91
-2880.73
-2890.43
-2898.98
-2908.62
-2918.04
-2927.21
-2937.24
-2946.6
-2955.89
-2965.75
-2974.74
-2984.05
-2993.82
-3003.03
-3013.06
-3022.98
-3032
-3042.07
-3051.8
-3061.04
-3071.35
-3081.07
-3090.4
-3100.75
-3110.46
-3120.2
-3130.66
-3140.17
-3149.93
-3160.22
-3169.63
-3179.6
-3189.83
-3199.12
-3209.15
-3219.91
-3229.77
-3239.97
-3250.63
-3260.6
-3271.05
-3281.3
-3290.56
-3301.27
-3312
-3321.61
-3332.54
-3343.16
-3352.93
-3363.62
-3374.01
-3383.75
-3394.62
-3405.27
-3415.28
-3426.39
-3437.14
-3447.25
-3458.33
-3468.98
-3479.04
-3490.06
-3500.81
-3511.11
-3522.51
-3533.79
-3544.42
-3555.79
-3566.76
-3576.73
-3587.82
-3598.67
-3608.72
-3620.35
-3631.91
-3642.28
-3653.58
-3665.26
-3675.9
-3687.03
-3698.63
-3709.39
-3720.76
-3732.7
-3743.76
-3755.19
-3767.44
-3778.55
-3789.45
-3800.73
-3811.31
-3822.57
-3834.79
-3846.32
-3857.83
-3870.23
-3881.8
-3893.05
-3905.29
-3916.9
-3928.06
-3940.2
-3951.96
-3963.13
-3975.95
-3988.91
-4000.15
-4012.01
-4024.28
-4035.58
-4047.29
-4059.5
-4071.37
-4083.92
-4096.84
-4108.6
-4120.55
-4133.37
-4145.37
-4157.26
-4170.17
-4182.6
-4194.59
-4208.19
-4221.2
-4232.44
-4245.03
-4258.18
-4270.26
-4282.82
-4296.01
-4308.44
-4320.94
-4334.35
-4347.11
-4359.69
-4373.03
-4385.83
-4398.45
-4412.07
-4425.53
-4437.77
-4450.69
-4464.35
-4477.2
-4490.34
-4504.16
-4517.17
-4530.17
-4544.03
-4557.43
-4570.51
-4584.54
-4598.58
-4611.31
-4624.58
-4638.75
-4652.28
-4665.76
-4680.02
-4693.77
-4707.23
-4721.62
-4735.54
-4748.89
-4762.77
-4777.31
-4790.99
-4805.28
-4819.86
-4833.64
-4847.51
-4862.31
-4876.81
-4890.55
-4905.12
-4920.25
-4934.18
-4948.47
-4963.27
-4977.72
-4992.05
-5007.46
-5022.58
-5036.63
-5051.53
-5066.85
-5081.46
-5096.15
-5111.43
-5126.44
-5141.16
-5156.49
-5172.16
-5187.12
-5202.26
-5217.74
-5232.89
-5247.91
-5263.89
-5279.79
-5294.53
-5310.01
-5326.26
-5341.93
-5357.33
-5373.38
-5389.08
-5404.35
-5420.32
-5436.68
-5452.54
-5468.51
-5485.01
-5501.06
-5516.66
-5532.54
-5548.97
-5564.99
-5580.97
-5597.68
-5614.07
-5629.83
-5645.97
-5662.34
-5678.22
-5694.25
-5711
-5727.73
-5743.53
-5759.68
-5776.28
-5792.53
-5808.85
-5825.04
-5840.18
-5853.07
-5866.89
-5883.63
-5904.65
-5928.83
-5951.32
-5971.59
-5990.25
-6008.31
-6026.39
-6044.87
-6062.91
-6080.9
-6098.97
-6117.01
-6135.08
-6152.99
-6170.87
-6189.04
-6207.62
-6226.12
-6244.45
-6262.79
-6281.33
-6299.9
-6318.34
-6336.93
-6355.88
-6374.89
-6394.02
-6413.25
-6432.24
-6451.2
-6470.42
-6489.84
-6509.25
-6528.64
-6548.25
-6568.01
-6587.72
-6607.54
-6627.43
-6647.23
-6667.1
-6687.15
-6707.23
-6727.33
-6747.62
-6768.19
-6788.79
-6809.31
-6829.87
-6850.45
-6870.99
-6891.63
-6912.49
-6933.5
-6954.6
-6975.9
-6997.28
-7018.52
-7039.72
-7061.08
-7082.56
-7104.03
-7125.6
-7147.4
-7169.29
-7191.23
-7213.31
-7235.43
-7257.54
-7279.71
-7302.04
-7324.44
-7346.78
-7369.29
-7392
-7414.77
-7437.62
-7460.6
-7483.67
-7506.68
-7529.77
-7553.08
-7576.45
-7599.8
-7623.31
-7647
-7670.75
-7694.51
-7718.43
-7742.5
-7766.56
-7790.73
-7815.06
-7839.42
-7863.74
-7888.21
-7912.94
-7937.76
-7962.63
-7987.66
-8012.8
-8037.91
-8063.04
-8088.36
-8113.79
-8139.21
-8164.82
-8190.68
-8216.66
-8242.64
-8268.75
-8295.05
-8321.31
-8347.6
-8374.05
-8400.65
-8427.26
-8453.95
-8480.93
-8508.08
-8535.25
-8562.55
-8590.03
-8617.57
-8645.04
-8672.65
-8700.49
-8728.39
-8756.38
-8784.59
-8813.01
-8841.44
-8869.91
-8898.6
-8927.42
-8956.25
-8985.16
-9014.31
-9043.6
-9072.9
-9102.36
-9132.08
-9161.91
-9191.75
-9221.74
-9251.96
-9282.2
-9312.45
-9342.9
-9373.57
-9404.33
-9435.15
-9466.25
-9497.56
-9528.89
-9560.29
-9591.91
-9623.69
-9655.44
-9687.29
-9719.41
-9751.67
-9783.99
-9816.48
-9849.29
-9882.23
-9915.19
-9948.32
-9981.66
-10015.1
-10048.4
-10082
-10115.9
-10149.8
-10183.9
-10218.1
-10252.7
-10287.4
-10322.1
-10357
-10392.1
-10427.3
-10462.5
-10497.9
-10533.6
-10569.4
-10605.2
-10641.4
-10677.8
-10714.3
-10750.8
-10787.7
-10824.7
-10861.7
-10898.8
-10936.2
-10973.8
-11011.5
-11049.3
-11087.5
-11125.9
-11164.2
-11202.8
-11241.7
-11280.6
-11319.6
-11358.8
-11398.3
-11437.9
-11477.5
-11517.5
-11557.7
-11598.2
-11638.6
-11679.3
-11720.2
-11761.3
-11802.3
-11843.6
-11885.2
-11927
-11968.8
-12010.9
-12053.3
-12095.9
-12138.6
-12181.4
-12224.6
-12267.8
-12311.1
-12354.6
-12398.4
-12442.4
-12486.4
-12530.8
-12575.5
-12620.3
-12665.2
-12710.4
-12755.8
-12801.4
-12846.9
-12892.8
-12938.9
-12985.2
-13031.5
-13078.2
-13125.2
-13172.4
-13219.6
-13267.1
-13314.9
-13362.9
-13410.8
-13459
-13507.5
-13556.2
-13605
-13654
-13703.4
-13753
-13802.6
-13852.5
-13902.7
-13953.1
-14003.5
-14054.1
-14105.1
-14156.2
-14207.4
-14258.8
-14310.5
-14362.6
-14414.7
-14467
-14519.7
-14572.6
-14625.5
-14678.5
-14731.8
-14785.4
-14839.1
-14892.9
-14947
-15001.5
-15056.1
-15110.8
-15165.9
-15221.2
-15276.6
-15332.1
-15387.8
-15443.9
-15500
-15556.2
-15612.6
-15669.5
-15726.5
-15783.6
-15840.9
-15898.7
-15956.6
-16014.5
-16072.5
-16130.9
-16189.5
-16248
-16306.7
-16365.8
-16425.1
-16484.5
-16544
-16604
-16664.2
-16724.4
-16784.7
-16845.3
-16906.1
-16967
-17027.8
-17089
-17150.4
-17212
-17273.6
-17335.5
-17397.7
-17460.2
-17522.5
-17585.1
-17647.9
-17711
-17773.9
-17836.9
-17900.2
-17963.8
-18027.3
-18090.9
-18154.9
-18219.1
-18283.4
-18347.6
-18412.2
-18476.9
-18541.8
-18606.5
-18671.4
-18736.5
-18801.8
-18867
-18932.3
-18997.9
-19063.7
-19129.5
-19195.3
-19261.3
-19327.6
-19393.8
-19459.9
-19526.2
-19592.7
-19659.2
-19725.6
-19792.1
-19859
-19925.8
-19992.6
-20059.5
-20126.6
-20193.8
-20260.9
-20327.8
-20395
-20462.3
-20529.5
-20596.6
-20663.8
-20731.2
-20798.6
-20865.9
-20933.2
-21000.7
-21068.3
-21135.6
-21202.9
-21270.3
-21337.8
-21405.1
-21472.2
-21539.4
-21606.8
-21674
-21741.1
-21808.2
-21875.5
-21942.7
-22009.7
-22076.5
-22143.4
-22210.4
-22277.1
-22343.5
-22410
-22476.6
-22543.1
-22609.3
-22675.4
-22741.7
-22807.8
-22873.7
-22939.3
-23005.1
-23070.7
-23136.1
-23201.2
-23266.2
-23331.3
-23396.2
-23460.7
-23525.2
-23589.6
-23654
-23718
-23781.7
-23845.5
-23909.1
-23972.4
-24035.4
-24098.2
-24161.1
-24223.6
-24285.8
-24347.8
-24409.8
-24471.6
-24533
-24594.1
-24655.1
-24716
-24776.6
-24836.7
-24896.6
-24956.5
-25016.1
-25075.3
-25134.1
-25192.9
-25251.6
-25309.9
-25367.6
-25425.3
-25482.8
-25540
-25596.7
-25653.1
-25709.3
-25765.4
-25821
-25876.2
-25931.2
-25986.1
-26040.7
-26094.7
-26148.4
-26202
-26255.4
-26308.2
-26360.5
-26412.7
-26464.8
-26516.4
-26567.5
-26618.3
-26669
-26719.5
-26769.4
-26818.8
-26868.1
-26917.2
-26965.9
-27014
-27061.8
-27109.5
-27156.9
-27203.7
-27250.1
-27296.3
-27342.3
-27387.9
-27433
-27477.7
-27522.4
-27566.7
-27610.5
-27653.8
-27696.9
-27739.9
-27782.4
-27824.3
-27866
-27907.6
-27948.8
-27989.5
-28029.8
-28069.9
-28109.8
-28149.3
-28188.3
-28226.9
-28265.5
-28303.7
-28341.4
-28378.7
-28415.8
-28452.8
-28489.3
-28525.3
-28561.1
-28596.7
-28632.1
-28666.9
-28701.3
-28735.6
-28769.8
-28803.5
-28836.7
-28869.7
-28902.5
-28935.1
-28967.3
-28999
-29030.6
-29062
-29093.2
-29123.8
-29154.1
-29184.4
-29214.5
-29244.1
-29273.3
-29302.4
-29331.3
-29360.1
-29388.3
-29416.2
-29444
-29471.8
-29499.2
-29526.1
-29552.8
-29579.5
-29606
-29632.1
-29657.9
-29683.5
-29709.1
-29734.4
-29759.3
-29783.9
-29808.6
-29833.1
-29857.3
-29881.1
-29904.7
-29928.4
-29951.9
-29975
-29997.8
-30020.5
-30043.3
-30065.8
-30087.8
-30109.8
-30131.7
-30153.6
-30175.1
-30196.3
-30217.5
-30238.6
-30259.6
-30280.3
-30300.7
-30321.1
-30341.6
-30361.8
-30381.6
-30401.4
-30421.1
-30440.9
-30460.3
-30479.4
-30498.6
-30517.7
-30536.8
-30555.5
-30574
-30592.6
-30611.3
-30629.6
-30647.7
-30665.8
-30683.9
-30701.9
-30719.7
-30737.3
-30754.8
-30772.5
-30790
-30807.3
-30824.4
-30841.6
-30858.8
-30875.8
-30892.6
-30909.3
-30926.1
-30943
-30959.5
-30975.9
-30992.3
-31008.8
-31025.3
-31041.4
-31057.4
-31073.5
-31089.8
-31105.9
-31121.7
-31137.4
-31153.3
-31169.2
-31184.9
-31200.5
-31216
-31231.6
-31247.3
-31262.7
-31278
-31293.3
-31308.8
-31324.2
-31339.3
-31354.4
-31369.5
-31384.8
-31400
-31414.9
-31429.8
-31444.9
-31460
-31474.9
-31489.7
-31504.5
-31519.4
-31534.3
-31549.1
-31563.7
-31578.4
-31593.2
-31607.9
-31622.5
-31637
-31651.6
-31666.3
-31681
-31695.4
-31709.8
-31724.4
-31739
-31753.5
-31767.8
-31782.2
-31796.7
-31811.2
-31825.6
-31839.9
-31854.2
-31868.6
-31883.1
-31897.4
-31911.5
-31925.8
-31940.2
-31954.6
-31968.8
-31982.9
-31997.2
-32011.6
-32025.9
-32040
-32054.1
-32068.4
-32082.7
-32097
-32111.1
-32125.1
-32139.4
-32153.7
-32167.9
-32182
-32196
-32210.3
-32224.6
-32238.7
-32252.7
-32266.8
-32281
-32295.3
-32309.5
-32323.4
-32337.5
-32351.8
-32366
-32380.1
-32394.1
-32408.2
-32422.4
-32436.7
-32450.7
-32464.7
-32478.8
-32493.1
-32507.3
-32521.3
-32535.3
-32549.5
-32563.7
-32577.9
-32592
-32606
-32620.1
-32634.4
-32648.6
-32662.6
-32676.6
-32690.8
-32705.1
-32719.2
-32733.2
-32747.3
-32761.5
-32775.8
-32789.9
-32803.9
-32818
-32832.3
-32846.5
-32860.7
-32874.7
-32888.8
-32903.1
-32917.4
-32931.5
-32945.5
-32959.7
-32973.9
-32988.2
-33002.4
-33016.4
-33030.6
-33044.9
-33059.2
-33073.3
-33087.4
-33101.5
-33115.9
-33130.2
-33144.3
-33158.4
-33172.6
-33186.9
-33201.2
-33215.4
-33229.5
-33243.7
-33258.1
-33272.4
-33286.6
-33300.7
-33314.9
-33329.3
-33343.6
-33357.8
-33372
-33386.2
-33400.6
-33415
-33429.2
-33443.3
-33457.6
-33472
-33486.3
-33500.6
-33514.8
-33529.1
-33543.4
-33557.8
-33572.1
-33586.3
-33600.6
-33615
-33629.4
-33643.6
-33657.9
-33672.2
-33686.6
-33701
-33715.3
-33729.6
-33743.9
-33758.4
-33772.8
-33787.1
-33801.4
-33815.7
-33830.2
-33844.6
-33858.9
-33873.2
-33887.6
-33902.1
-33916.5
-33930.9
-33945.2
-33959.6
-33974.1
-33988.5
-34002.9
-34017.2
-34031.6
-34046.1
-34060.6
-34075
-34089.3
-34103.8
-34118.3
-34132.8
-34147.2
-34161.5
-34176
-34190.5
-34205.1
-34219.5
-34233.9
-34248.3
-34262.9
-34277.4
-34291.9
-34306.3
-34320.7
-34335.3
-34349.9
-34364.4
-34378.8
-34393.2
-34407.8
-34422.4
-34436.9
-34451.3
-34465.8
-34480.4
-34495
-34509.5
-34524
-34538.5
-34553.1
-34567.7
-34582.3
-34596.8
-34611.3
-34625.8
-34640.5
-34655.1
-34669.6
-34684.1
-34698.7
-34713.4
-34728
-34742.5
-34757.1
-34771.7
-34786.3
-34801
-34815.6
-34830.1
-34844.7
-34859.4
-34874.1
-34888.7
-34903.2
-34917.8
-34932.6
-34947.3
-34961.9
-34976.4
-34991.1
-35005.8
-35020.5
-35035.2
-35049.7
-35064.4
-35079.1
-35093.9
-35108.5
-35123.1
-35137.8
-35152.5
-35167.3
-35182
-35196.6
-35211.3
-35226
-35240.8
-35255.5
-35270.2
-35284.9
-35299.6
-35314.4
-35329.2
-35343.9
-35358.6
-35373.3
-35388.1
-35402.9
-35417.6
-35432.3
-35447.1
-35461.9
-35476.7
-35491.5
-35506.2
-35520.9
-35535.8
-35550.6
-35565.4
-35580.2
-35594.9
-35609.7
-35624.6
-35639.4
-35654.2
-35669
-35683.8
-35698.7
-35713.5
-35728.3
-35743.1
-35758
-35772.9
-35787.8
-35802.6
-35817.4
-35832.2
-35847.1
-35862
-35876.9
-35891.7
-35906.6
-35921.5
-35936.4
-35951.3
-35966.2
-35981
-35995.9
-36010.9
-36025.8
-36040.7
-36055.5
-36070.5
-36085.4
-36100.4
-36115.3
-36130.2
-36145.1
-36160.1
-36175.1
-36190
-36204.9
-36219.8
-36234.8
-36249.8
-36264.8
-36279.7
-36294.6
-36309.6
-36324.7
-36339.7
-36354.6
-36369.6
-36384.6
-36399.6
-36414.7
-36429.7
-36444.6
-36459.6
-36474.7
-36489.7
-36504.7
-36519.7
-36534.7
-36549.8
-36564.9
-36579.9
-36594.9
-36609.9
-36625
-36640.1
-36655.2
-36670.2
-36685.3
-36700.3
-36715.4
-36730.5
-36745.6
-36760.6
-36775.7
-36790.8
-36806
-36821.1
-36836.1
-36851.2
-36866.4
-36881.5
-36896.6
-36911.7
-36926.8
-36941.9
-36957.1
-36972.3
-36987.4
-37002.5
-37017.6
-37032.8
-37048
-37063.2
-37078.3
-37093.4
-37108.6
-37123.9
-37139.1
-37154.2
-37169.3
-37184.5
-37199.8
-37215
-37230.2
-37245.3
-37260.5
-37275.7
-37291
-37306.2
-37321.4
-37336.6
-37351.8
-37367.1
-37382.4
-37397.6
-37412.8
-37428
-37443.3
-37458.6
-37473.8
-37489.1
-37504.3
-37519.6
-37534.9
-37550.2
-37565.4
-37580.7
-37596
-37611.3
-37626.6
-37641.8
-37657.1
-37672.4
-37687.7
-37703.1
-37718.4
-37733.7
-37749
-37764.3
-37779.7
-37795
-37810.3
-37825.6
-37841
-37856.3
-37871.7
-37887
-37902.4
-37917.7
-37933.1
-37948.5
-37963.9
-37979.2
-37994.5
-38009.9
-38025.3
-38040.8
-38056.1
-38071.5
-38086.8
-38102.3
-38117.7
-38133.1
-38148.5
-38163.9
-38179.3
-38194.8
-38210.2
-38225.6
-38241
-38256.4
-38271.9
-38287.3
-38302.8
-38318.2
-38333.6
-38349.1
-38364.6
-38380
-38395.5
-38410.9
-38426.4
-38441.9
-38457.4
-38472.9
-38488.3
-38503.8
-38519.3
-38534.8
-38550.3
-38565.8
-38581.3
-38596.8
-38612.3
-38627.9
-38643.4
-38658.8
-38674.4
-38689.9
-38705.5
-38721
-38736.5
-38752
-38767.6
-38783.2
-38798.7
-38814.3
-38829.8
-38845.3
-38860.9
-38876.5
-38892.1
-38907.7
-38923.2
-38938.8
-38954.4
-38970
-38985.6
-39001.1
-39016.7
-39032.3
-39048
-39063.6
-39079.2
-39094.8
-39110.4
-39126
-39141.7
-39157.3
-39172.9
-39188.5
-39204.2
-39219.8
-39235.5
-39251.1
-39266.7
-39282.4
-39298.1
-39313.7
-39329.4
-39345
-39360.7
-39376.4
-39392.1
-39407.8
-39423.4
-39439.1
-39454.8
-39470.5
-39486.2
-39501.9
-39517.6
-39533.3
-39549
-39564.8
-39580.5
-39596.2
-39611.9
-39627.6
-39643.4
-39659.1
-39674.9
-39690.6
-39706.3
-39722.1
-39737.9
-39753.6
-39769.4
-39785.1
-39800.8
-39816.6
-39832.4
-39848.2
-39864
-39879.7
-39895.5
-39911.3
-39927.1
-39942.9
-39958.7
-39974.5
-39990.3
-40006.1
-40022
-40037.8
-40053.6
-40069.4
-40085.2
-40101.1
-40116.9
-40132.7
-40148.6
-40164.4
-40180.3
-40196.1
-40212
-40227.8
-40243.7
-40259.6
-40275.4
-40291.3
-40307.2
-40323
-40338.9
-40354.8
-40370.7
-40386.6
-40402.5
-40418.4
-40434.3
-40450.2
-40466.1
-40482
-40497.9
-40513.8
-40529.8
-40545.7
-40561.7
-40577.6
-40593.5
-40609.4
-40625.4
-40641.4
-40657.3
-40673.2
-40689.2
-40705.2
-40721.2
-40737.1
-40753.1
-40769.1
-40785
-40801
-40817
-40833
-40849
-40865
-40881
-40897
-40913.1
-40929.1
-40945.1
-40961.1
-40977.1
-40993.2
-41009.2
-41025.2
-41041.2
-41057.3
-41073.3
-41089.4
-41105.4
-41121.5
-41137.5
-41153.6
-41169.7
-41185.8
-41201.8
-41217.9
-41234
-41250.1
-41266.2
-41282.3
-41298.3
-41314.4
-41330.6
-41346.7
-41362.8
-41378.9
-41395
-41411.1
-41427.3
-41443.4
-41459.6
-41475.7
-41491.8
-41507.9
-41524.1
-41540.3
-41556.4
-41572.6
-41588.7
-41604.9
-41621.1
-41637.3
-41653.4
-41669.6
-41685.8
-41702
-41718.2
-41734.4
-41750.6
-41766.8
-41783
-41799.2
-41815.4
-41831.7
-41847.9
-41864.1
-41880.3
-41896.6
-41912.8
-41929.1
-41945.3
-41961.5
-41977.8
-41994.1
-42010.3
-42026.6
-42042.9
-42059.1
-42075.4
-42091.7
-42108
-42124.3
-42140.6
-42156.9
-42173.2
-42189.5
-42205.8
-42222.1
-42238.4
-42254.7
-42271.1
-42287.4
-42303.8
-42320.1
-42336.4
-42352.8
-42369.1
-42385.5
-42401.8
-42418.2
-42434.5
-42450.9
-42467.3
-42483.7
-42500.1
-42516.4
-42532.8
-42549.2
-42565.6
-42582
-42598.4
-42614.8
-42631.2
-42647.7
-42664.1
-42680.5
-42696.9
-42713.4
-42729.8
-42746.2
-42762.7
-42779.1
-42795.6
-42812
-42828.5
-42845
-42861.4
-42877.9
-42894.4
-42910.9
-42927.4
-42943.9
-42960.4
-42976.8
-42993.3
-43009.8
-43026.4
-43042.9
-43059.4
-43075.9
-43092.4
-43109
-43125.5
-43142.1
-43158.6
-43175.1
-43191.7
-43208.2
-43224.8
-43241.4
-43257.9
-43274.5
-43291.1
-43307.7
-43324.2
-43340.8
-43357.4
-43374
-43390.6
-43407.2
-43423.8
-43440.4
-43457.1
-43473.7
-43490.3
-43506.9
-43523.6
-43540.2
-43556.8
-43573.5
-43590.1
-43606.8
-43623.5
-43640.1
-43656.8
-43673.5
-43690.1
-43706.8
-43723.5
-43740.2
-43756.9
-43773.6
-43790.3
-43807
-43823.7
-43840.4
-43857.1
-43873.8
-43890.6
-43907.3
-43924
-43940.8
-43957.5
-43974.3
-43991
-44007.8
-44024.5
-44041.3
-44058.1
-44074.8
-44091.6
-44108.4
-44125.2
-44142
-44158.7
-44175.5
-44192.3
-44209.2
-44226
-44242.8
-44259.6
-44276.4
-44293.2
-44310.1
-44326.9
-44343.7
-44360.6
-44377.4
-44394.3
-44411.1
-44428
-44444.9
-44461.7
-44478.6
-44495.5
-44512.4
-44529.2
-44546.1
-44563
-44579.9
-44596.8
-44613.7
-44630.6
-44647.5
-44664.5
-44681.4
-44698.3
-44715.2
-44732.2
-44749.1
-44766
-44783
-44799.9
-44816.9
-44833.9
-44850.8
-44867.8
-44884.8
-44901.7
-44918.7
-44935.7
-44952.7
-44969.7
-44986.7
-45003.7
-45020.7
-45037.7
-45054.7
-45071.7
-45088.7
-45105.8
-45122.8
-45139.8
-45156.9
-45173.9
-45190.9
-45208
-45225
-45242.1
-45259.1
-45276.2
-45293.3
-45310.4
-45327.4
-45344.5
-45361.6
-45378.7
-45395.8
-45412.9
-45430
-45447.1
-45464.2
-45481.3
-45498.4
-45515.5
-45532.7
-45549.8
-45566.9
-45584
-45601.2
-45618.3
-45635.5
-45652.6
-45669.8
-45686.9
-45704.1
-45721.3
-45738.5
-45755.6
-45772.8
-45790
-45807.2
-45824.4
-45841.6
-45858.8
-45876
-45893.2
-45910.4
-45927.6
-45944.8
-45962
-45979.3
-45996.5
-46013.7
-46031
-46048.2
-46065.5
-46082.7
-46100
-46117.2
-46134.5
-46151.7
-46169
-46186.3
-46203.6
-46220.8
-46238.1
-46255.4
-46272.7
-46290
-46307.3
-46324.6
-46341.9
-46359.2
-46376.5
-46393.8
-46411.2
-46428.5
-46445.8
-46463.2
-46480.5
-46497.8
-46515.2
-46532.5
-46549.9
-46567.2
-46584.6
-46602
-46619.3
-46636.7
-46654.1
-46671.5
-46688.8
-46706.2
-46723.6
-46741
-46758.4
-46775.8
-46793.2
-46810.6
-46828
-46845.4
-46862.9
-46880.3
-46897.7
-46915.1
-46932.6
-46950
-46967.5
-46984.9
-47002.4
-47019.8
-47037.3
-47054.7
-47072.2
-47089.7
-47107.1
-47124.6
-47142.1
-47159.6
-47177.1
-47194.6
-47212
-47229.5
-47247
-47264.5
-47282.1
-47299.6
-47317.1
-47334.6
-47352.1
-47369.7
-47387.2
-47404.7
-47422.3
-47439.8
-47457.4
-47474.9
-47492.5
-47510
-47527.6
-47545.1
-47562.7
-47580.3
-47597.9
-47615.4
-47633
-47650.6
-47668.2
-47685.8
-47703.4
-47721
-47738.6
-47756.2
-47773.8
-47791.4
-47809.1
-47826.7
-47844.3
-47861.9
-47879.6
-47897.2
-47914.9
-47932.5
-47950.2
-47967.8
-47985.5
-48003.1
-48020.8
-48038.5
-48056.1
-48073.8
-48091.5
-48109.2
-48126.9
-48144.6
-48162.3
-48180
-48197.7
-48215.4
-48233.1
-48250.8
-48268.5
-48286.2
-48303.9
-48321.7
-48339.4
-48357.1
-48374.9
-48392.6
-48410.4
-48428.1
-48445.9
-48463.6
-48481.4
-48499.2
-48516.9
-48534.7
-48552.5
-48570.3
-48588.1
-48605.9
-48623.6
-48641.4
-48659.2
-48677
-48694.9
-48712.7
-48730.5
-48748.3
-48766.1
-48783.9
-48801.8
-48819.6
-48837.5
-48855.3
-48873.1
-48891
-48908.8
-48926.7
-48944.6
-48962.4
-48980.3
-48998.2
-49016
-49033.9
-49051.8
-49069.7
-49087.6
-49105.5
-49123.4
-49141.3
-49159.2
-49177.1
-49195
-49212.9
-49230.9
-49248.8
-49266.7
-49284.6
-49302.6
-49320.5
-49338.5
-49356.4
-49374.4
-49392.3
-49410.3
-49428.2
-49446.2
-49464.2
-49482.2
-49500.1
-49518.1
-49536.1
-49554.1
-49572.1
-49590.1
-49608.1
-49626.1
-49644.1
-49662.1
-49680.1
-49698.2
-49716.2
-49734.2
-49752.3
-49770.3
-49788.3
-49806.4
-49824.4
-49842.5
-49860.5
-49878.6
-49896.7
-49914.7
-49932.8
-49950.9
-49969
-49987.1
-50005.1
-50023.2
-50041.3
-50059.4
-50077.5
-50095.6
-50113.7
-50131.9
-50150
-50168.1
-50186.2
-50204.4
-50222.5
-50240.6
-50258.8
-50276.9
-50295.1
-50313.2
-50331.4
-50349.6
-50367.7
-50385.9
-50404.1
-50422.3
-50440.4
-50458.6
-50476.8
-50495
-50513.2
-50531.4
-50549.6
-50567.8
-50586
-50604.3
-50622.5
-50640.7
-50658.9
-50677.2
-50695.4
-50713.7
-50731.9
-50750.1
-50768.4
-50786.7
-50804.9
-50823.2
-50841.5
-50859.7
-50878
-50896.3
-50914.6
-50932.9
-50951.2
-50969.5
-50987.8
-51006.1
-51024.4
-51042.7
-51061
-51079.3
-51097.7
-51116
-51134.3
-51152.7
-51171
-51189.4
-51207.7
-51226.1
-51244.4
-51262.8
-51281.2
-51299.5
-51317.9
-51336.3
-51354.7
-51373.1
-51391.4
-51409.8
-51428.2
-51446.6
-51465
-51483.5
-51501.9
-51520.3
-51538.7
-51557.2
-51575.6
-51594
-51612.5
-51630.9
-51649.4
-51667.8
-51686.3
-51704.7
-51723.2
-51741.7
-51760.1
-51778.6
-51797.1
-51815.6
-51834.1
-51852.6
-51871.1
-51889.6
-51908.1
-51926.6
-51945.1
-51963.6
-51982.2
-52000.7
-52019.2
-52037.8
-52056.3
-52074.9
-52093.4
-52112
-52130.5
-52149.1
-52167.6
-52186.2
-52204.8
-52223.4
-52242
-52260.6
-52279.1
-52297.7
-52316.3
-52335
-52353.6
-52372.2
-52390.8
-52409.4
-52428
-52446.7
-52465.3
-52484
-52502.6
-52521.2
-52539.9
-52558.6
-52577.2
-52595.9
-52614.6
-52633.2
-52651.9
-52670.6
-52689.3
-52708
-52726.7
-52745.4
-52764.1
-52782.8
-52801.5
-52820.2
-52838.9
-52857.7
-52876.4
-52895.1
-52913.9
-52932.6
-52951.4
-52970.1
-52988.9
-53007.6
-53026.4
-53045.2
-53063.9
-53082.7
-53101.5
-53120.3
-53139.1
-53157.9
-53176.7
-53195.5
-53214.3
-53233.1
-53251.9
-53270.8
-53289.6
-53308.4
-53327.3
-53346.1
-53364.9
-53383.8
-53402.6
-53421.5
-53440.4
-53459.2
-53478.1
-53497
-53515.9
-53534.7
-53553.6
-53572.5
-53591.4
-53610.3
-53629.2
-53648.2
-53667.1
-53686
-53704.9
-53723.8
-53742.8
-53761.7
-53780.7
-53799.6
-53818.6
-53837.5
-53856.5
-53875.4
-53894.4
-53913.4
-53932.4
-53951.4
-53970.3
-53989.3
-54008.3
-54027.3
-54046.3
-54065.3
-54084.4
-54103.4
-54122.4
-54141.4
-54160.5
-54179.5
-54198.5
-54217.6
-54236.6
-54255.7
-54274.7
-54293.8
-54312.9
-54331.9
-54351
-54370.1
-54389.2
-54408.3
-54427.4
-54446.5
-54465.6
-54484.7
-54503.8
-54522.9
-54542
-54561.2
-54580.3
-54599.4
-54618.6
-54637.7
-54656.9
-54676
-54695.2
-54714.3
-54733.5
-54752.7
-54771.8
-54791
-54810.2
-54829.4
-54848.6
-54867.8
-54887
-54906.2
-54925.4
-54944.6
-54963.8
-54983.1
-55002.3
-55021.5
-55040.8
-55060
-55079.2
-55098.5
-55117.7
-55137
-55156.3
-55175.5
-55194.8
-55214.1
-55233.4
-55252.6
-55271.9
-55291.2
-55310.5
-55329.8
-55349.1
-55368.5
-55387.8
-55407.1
-55426.4
-55445.7
-55465.1
-55484.4
-55503.8
-55523.1
-55542.5
-55561.8
-55581.2
-55600.5
-55619.9
-55639.3
-55658.7
-55678
-55697.4
-55716.8
-55736.2
-55755.6
-55775
-55794.4
-55813.8
-55833.3
-55852.7
-55872.1
-55891.5
-55911
-55930.4
-55949.8
-55969.3
-55988.7
-56008.2
-56027.7
-56047.1
-56066.6
-56086.1
-56105.5
-56125
-56144.5
-56164
-56183.5
-56203
-56222.5
-56242
-56261.5
-56281
-56300.6
-56320.1
-56339.6
-56359.1
-56378.7
-56398.2
-56417.8
-56437.3
-56456.9
-56476.4
-56496
-56515.6
-56535.1
-56554.7
-56574.3
-56593.9
-56613.5
-56633.1
-56652.7
-56672.3
-56691.9
-56711.5
-56731.1
-56750.7
-56770.3
-56790
-56809.6
-56829.2
-56848.9
-56868.5
-56888.2
-56907.8
-56927.5
-56947.2
-56966.8
-56986.5
-57006.2
-57025.8
-57045.5
-57065.2
-57084.9
-57104.6
-57124.3
-57144
-57163.7
-57183.4
-57203.1
-57222.9
-57242.6
-57262.3
-57282.1
-57301.8
-57321.5
-57341.3
-57361
-57380.8
-57400.6
-57420.3
-57440.1
-57459.9
-57479.6
-57499.4
-57519.2
-57539
-57558.8
-57578.6
-57598.4
-57618.2
-57638
-57657.8
-57677.6
-57697.5
-57717.3
-57737.1
-57757
-57776.8
-57796.7
-57816.5
-57836.4
-57856.2
-57876.1
-57895.9
-57915.8
-57935.7
-57955.6
-57975.5
-57995.3
-58015.2
-58035.1
-58055
-58074.9
-58094.8
-58114.8
-58134.7
-58154.6
-58174.5
-58194.5
-58214.4
-58234.3
-58254.3
-58274.2
-58294.2
-58314.1
-58334.1
-58354
-58374
-58394
-58414
-58434
-58453.9
-58473.9
-58493.9
-58513.9
-58533.9
-58553.9
-58573.9
-58594
-58614
-58634
-58654
-58674.1
-58694.1
-58714.1
-58734.2
-58754.2
-58774.3
-58794.3
-58814.4
-58834.5
-58854.5
-58874.6
-58894.7
-58914.8
-58934.9
-58955
-58975.1
-58995.2
-59015.3
-59035.4
-59055.5
-59075.6
-59095.7
-59115.9
-59136
-59156.1
-59176.3
-59196.4
-59216.6
-59236.7
-59256.9
-59277
-59297.2
-59317.4
-59337.5
-59357.7
-59377.9
-59398.1
-59418.3
-59438.5
-59458.7
-59478.9
-59499.1
-59519.3
-59539.5
-59559.7
-59580
-59600.2
-59620.4
-59640.7
-59660.9
-59681.2
-59701.4
-59721.7
-59741.9
-59762.2
-59782.5
-59802.7
-59823
-59843.3
-59863.6
-59883.9
-59904.2
-59924.5
-59944.8
-59965.1
-59985.4
-60005.7
-60026
-60046.4
-60066.7
-60087
-60107.4
-60127.7
-60148
-60168.4
-60188.7
-60209.1
-60229.5
-60249.8
-60270.2
-60290.6
-60311
-60331.4
-60351.8
-60372.1
-60392.5
-60413
-60433.4
-60453.8
-60474.2
-60494.6
-60515
-60535.5
-60555.9
-60576.3
-60596.8
-60617.2
-60637.7
-60658.1
-60678.6
-60699.1
-60719.5
-60740
-60760.5
-60781
-60801.5
-60821.9
-60842.4
-60862.9
-60883.4
-60904
-60924.5
-60945
-60965.5
-60986
-61006.6
-61027.1
-61047.6
-61068.2
-61088.7
-61109.3
-61129.8
-61150.4
-61171
-61191.5
-61212.1
-61232.7
-61253.3
-61273.9
-61294.5
-61315
-61335.7
-61356.3
-61376.9
-61397.5
-61418.1
-61438.7
-61459.3
-61480
-61500.6
-61521.3
-61541.9
-61562.5
-61583.2
-61603.9
-61624.5
-61645.2
-61665.9
-61686.5
-61707.2
-61727.9
-61748.6
-61769.3
-61790
-61810.7
-61831.4
-61852.1
-61872.8
-61893.6
-61914.3
-61935
-61955.7
-61976.5
-61997.2
-62018
-62038.7
-62059.5
-62080.2
-62101
-62121.8
-62142.5
-62163.3
-62184.1
-62204.9
-62225.7
-62246.5
-62267.3
-62288.1
-62308.9
-62329.7
-62350.5
-62371.4
-62392.2
-62413
-62433.9
-62454.7
-62475.6
-62496.4
-62517.3
-62538.1
-62559
-62579.9
-62600.7
-62621.6
-62642.5
-62663.4
-62684.3
-62705.2
-62726.1
-62747
-62767.9
-62788.8
-62809.7
-62830.6
-62851.6
-62872.5
-62893.4
-62914.4
-62935.3
-62956.3
-62977.2
-62998.2
-63019.1
-63040.1
-63061.1
-63082.1
-63103
-63124
-63145
-63166
-63187
-63208
-63229
-63250
-63271.1
-63292.1
-63313.1
-63334.1
-63355.2
-63376.2
-63397.3
-63418.3