/*--------------------------------*- C++ -*----------------------------------*\
  =========                 |
  \\      /  F ield         | OpenFOAM: The Open Source CFD Toolbox
   \\    /   O peration     | Website:  https://openfoam.org
    \\  /    A nd           | Version:  9
     \\/     M anipulation  |
\*---------------------------------------------------------------------------*/
FoamFile
{
    format      ascii;
    class       volScalarField;
    location    "0.046";
    object      ddt0(p);
}
// * * * * * * * * * * * * * * * * * * * * * * * * * * * * * * * * * * * * * //

dimensions      [1 -1 -3 0 0 0 0];

internalField   nonuniform List<scalar> 
10000
(
-326083
-326079
-326076
-326072
-326069
-326066
-326062
-326059
-326056
-326053
-326050
-326047
-326044
-326041
-326037
-326034
-326031
-326028
-326024
-326021
-326017
-326014
-326010
-326007
-326003
-326000
-325996
-325993
-325990
-325986
-325983
-325979
-325976
-325973
-325969
-325965
-325962
-325958
-325954
-325951
-325947
-325943
-325939
-325936
-325932
-325928
-325924
-325921
-325917
-325913
-325910
-325906
-325902
-325898
-325894
-325890
-325886
-325882
-325878
-325874
-325870
-325866
-325862
-325858
-325854
-325850
-325846
-325842
-325838
-325834
-325830
-325826
-325821
-325817
-325813
-325809
-325805
-325800
-325796
-325792
-325788
-325783
-325779
-325775
-325770
-325766
-325761
-325757
-325753
-325748
-325743
-325739
-325734
-325730
-325726
-325721
-325717
-325712
-325708
-325703
-325698
-325694
-325689
-325684
-325680
-325675
-325670
-325665
-325660
-325655
-325651
-325646
-325641
-325637
-325632
-325627
-325622
-325617
-325612
-325607
-325602
-325597
-325592
-325587
-325582
-325576
-325571
-325566
-325561
-325556
-325552
-325546
-325541
-325536
-325531
-325526
-325521
-325515
-325510
-325504
-325499
-325493
-325488
-325482
-325477
-325472
-325467
-325461
-325456
-325451
-325445
-325440
-325434
-325429
-325423
-325417
-325411
-325406
-325400
-325394
-325388
-325383
-325377
-325372
-325366
-325360
-325355
-325349
-325343
-325338
-325332
-325326
-325320
-325313
-325307
-325301
-325295
-325289
-325283
-325277
-325271
-325265
-325259
-325253
-325247
-325241
-325235
-325229
-325223
-325216
-325209
-325203
-325196
-325190
-325184
-325178
-325171
-325165
-325158
-325152
-325146
-325140
-325133
-325127
-325120
-325113
-325107
-325100
-325093
-325086
-325080
-325073
-325067
-325060
-325053
-325046
-325040
-325033
-325026
-325020
-325013
-325006
-324998
-324991
-324984
-324977
-324970
-324963
-324956
-324949
-324942
-324935
-324928
-324921
-324914
-324907
-324900
-324892
-324885
-324877
-324869
-324861
-324854
-324848
-324840
-324832
-324825
-324818
-324811
-324803
-324796
-324789
-324781
-324774
-324765
-324757
-324748
-324741
-324734
-324726
-324718
-324710
-324703
-324695
-324686
-324679
-324671
-324664
-324657
-324649
-324640
-324630
-324621
-324615
-324606
-324597
-324590
-324581
-324574
-324565
-324557
-324549
-324541
-324532
-324525
-324515
-324507
-324499
-324489
-324481
-324474
-324465
-324455
-324446
-324437
-324428
-324421
-324412
-324403
-324394
-324386
-324377
-324368
-324359
-324350
-324342
-324333
-324323
-324313
-324304
-324295
-324286
-324277
-324268
-324259
-324250
-324241
-324231
-324222
-324213
-324204
-324194
-324184
-324175
-324165
-324155
-324145
-324136
-324126
-324117
-324107
-324097
-324087
-324078
-324068
-324059
-324049
-324039
-324029
-324019
-324008
-323998
-323988
-323977
-323968
-323958
-323947
-323937
-323927
-323917
-323907
-323896
-323886
-323876
-323865
-323854
-323844
-323833
-323822
-323812
-323801
-323790
-323780
-323769
-323758
-323747
-323737
-323726
-323715
-323704
-323693
-323682
-323670
-323659
-323648
-323636
-323625
-323614
-323603
-323592
-323580
-323569
-323558
-323546
-323535
-323523
-323512
-323500
-323488
-323476
-323464
-323453
-323441
-323429
-323417
-323405
-323393
-323381
-323369
-323357
-323345
-323333
-323321
-323309
-323296
-323284
-323271
-323258
-323246
-323233
-323221
-323208
-323196
-323183
-323171
-323158
-323145
-323132
-323119
-323106
-323094
-323081
-323068
-323055
-323041
-323028
-323015
-323001
-322987
-322974
-322961
-322947
-322934
-322921
-322908
-322894
-322881
-322866
-322852
-322838
-322824
-322811
-322797
-322783
-322769
-322755
-322741
-322727
-322712
-322698
-322683
-322669
-322654
-322640
-322625
-322611
-322596
-322583
-322566
-322552
-322536
-322522
-322507
-322492
-322477
-322463
-322448
-322433
-322417
-322402
-322386
-322370
-322354
-322338
-322323
-322307
-322291
-322277
-322261
-322245
-322229
-322213
-322198
-322181
-322165
-322149
-322133
-322118
-322099
-322083
-322067
-322051
-322032
-322018
-322000
-321983
-321965
-321948
-321931
-321915
-321898
-321882
-321865
-321849
-321830
-321813
-321796
-321778
-321760
-321742
-321725
-321706
-321687
-321669
-321652
-321635
-321617
-321597
-321581
-321563
-321543
-321526
-321508
-321490
-321470
-321452
-321432
-321414
-321396
-321376
-321355
-321336
-321316
-321296
-321277
-321259
-321241
-321223
-321204
-321183
-321161
-321143
-321123
-321101
-321082
-321063
-321042
-321021
-321002
-320982
-320960
-320939
-320917
-320897
-320875
-320853
-320836
-320817
-320794
-320773
-320752
-320730
-320707
-320686
-320663
-320642
-320622
-320600
-320578
-320556
-320533
-320510
-320487
-320462
-320443
-320418
-320396
-320377
-320355
-320331
-320306
-320283
-320262
-320237
-320215
-320192
-320168
-320144
-320119
-320094
-320071
-320048
-320022
-319996
-319970
-319947
-319925
-319901
-319878
-319853
-319830
-319800
-319778
-319753
-319727
-319702
-319676
-319648
-319623
-319598
-319572
-319545
-319518
-319490
-319465
-319439
-319413
-319387
-319362
-319335
-319305
-319281
-319252
-319225
-319198
-319175
-319149
-319117
-319089
-319060
-319029
-318997
-318969
-318941
-318911
-318885
-318857
-318830
-318803
-318776
-318746
-318716
-318685
-318655
-318626
-318596
-318565
-318535
-318502
-318471
-318439
-318407
-318377
-318347
-318316
-318286
-318259
-318231
-318196
-318168
-318132
-318102
-318064
-318033
-318000
-317970
-317935
-317903
-317868
-317838
-317803
-317766
-317728
-317694
-317662
-317629
-317598
-317567
-317536
-317500
-317464
-317426
-317392
-317358
-317323
-317287
-317250
-317215
-317179
-317144
-317111
-317069
-317025
-316980
-316949
-316919
-316883
-316849
-316814
-316776
-316732
-316694
-316658
-316618
-316578
-316539
-316499
-316460
-316421
-316383
-316340
-316295
-316259
-316221
-316183
-316145
-316105
-316061
-316015
-315976
-315933
-315893
-315852
-315808
-315764
-315720
-315674
-315639
-315592
-315552
-315509
-315466
-315417
-315376
-315328
-315285
-315239
-315195
-315148
-315100
-315061
-315013
-314968
-314922
-314876
-314826
-314780
-314734
-314686
-314639
-314583
-314541
-314489
-314445
-314394
-314351
-314297
-314245
-314195
-314143
-314094
-314043
-313994
-313947
-313893
-313843
-313785
-313733
-313682
-313630
-313577
-313524
-313474
-313421
-313366
-313309
-313254
-313198
-313140
-313088
-313033
-312981
-312926
-312865
-312808
-312751
-312691
-312638
-312577
-312521
-312467
-312407
-312347
-312288
-312222
-312165
-312108
-312048
-311990
-311931
-311870
-311807
-311747
-311684
-311625
-311565
-311503
-311446
-311382
-311323
-311263
-311202
-311141
-311080
-311018
-310962
-310899
-310839
-310782
-310721
-310660
-310595
-310536
-310531
-310484
-310441
-310326
-310191
-310072
-309980
-309907
-309826
-309746
-309676
-309601
-309528
-309455
-309383
-309310
-309236
-309160
-309087
-309016
-308942
-308868
-308791
-308716
-308639
-308561
-308481
-308405
-308328
-308251
-308173
-308092
-308010
-307929
-307848
-307766
-307684
-307601
-307519
-307436
-307352
-307268
-307182
-307096
-307009
-306922
-306835
-306748
-306661
-306574
-306486
-306396
-306305
-306214
-306122
-306030
-305938
-305847
-305756
-305664
-305570
-305475
-305379
-305284
-305187
-305091
-304994
-304897
-304800
-304702
-304603
-304504
-304403
-304303
-304201
-304099
-303996
-303893
-303790
-303687
-303583
-303478
-303372
-303266
-303159
-303051
-302943
-302834
-302725
-302616
-302506
-302395
-302283
-302172
-302059
-301946
-301831
-301716
-301600
-301484
-301368
-301252
-301135
-301016
-300897
-300777
-300656
-300534
-300412
-300289
-300167
-300044
-299920
-299795
-299670
-299543
-299416
-299287
-299158
-299028
-298897
-298767
-298636
-298504
-298372
-298238
-298104
-297968
-297832
-297695
-297557
-297419
-297280
-297140
-297000
-296859
-296717
-296574
-296430
-296285
-296140
-295994
-295847
-295699
-295551
-295402
-295252
-295101
-294949
-294796
-294642
-294487
-294332
-294175
-294018
-293861
-293702
-293543
-293383
-293222
-293059
-292896
-292731
-292565
-292399
-292232
-292064
-291896
-291727
-291557
-291386
-291213
-291040
-290865
-290689
-290512
-290334
-290156
-289977
-289797
-289616
-289434
-289251
-289067
-288882
-288695
-288507
-288318
-288129
-287938
-287747
-287555
-287361
-287167
-286972
-286775
-286577
-286378
-286177
-285976
-285773
-285570
-285366
-285161
-284955
-284747
-284539
-284329
-284117
-283905
-283691
-283476
-283260
-283044
-282826
-282607
-282388
-282166
-281944
-281720
-281494
-281268
-281040
-280811
-280582
-280351
-280119
-279886
-279652
-279417
-279180
-278941
-278702
-278460
-278218
-277975
-277730
-277484
-277238
-276990
-276741
-276491
-276239
-275986
-275731
-275475
-275218
-274959
-274699
-274438
-274176
-273913
-273649
-273383
-273116
-272848
-272578
-272306
-272034
-271759
-271484
-271208
-270930
-270651
-270372
-270091
-269808
-269524
-269238
-268951
-268663
-268373
-268082
-267790
-267496
-267202
-266906
-266609
-266311
-266012
-265711
-265408
-265104
-264799
-264492
-264184
-263875
-263565
-263253
-262941
-262628
-262313
-261996
-261679
-261359
-261039
-260717
-260393
-260069
-259743
-259417
-259089
-258761
-258431
-258100
-257768
-257434
-257099
-256763
-256425
-256086
-255745
-255404
-255062
-254719
-254376
-254031
-253685
-253338
-252989
-252640
-252289
-251936
-251583
-251229
-250873
-250517
-250161
-249803
-249445
-249086
-248725
-248364
-248001
-247638
-247273
-246907
-246541
-246173
-245805
-245437
-245068
-244698
-244328
-243956
-243584
-243212
-242838
-242463
-242088
-241712
-241335
-240958
-240581
-240203
-239825
-239446
-239067
-238687
-238307
-237926
-237545
-237163
-236781
-236398
-236016
-235633
-235250
-234867
-234484
-234100
-233717
-233333
-232949
-232565
-232180
-231796
-231411
-231027
-230643
-230259
-229875
-229492
-229109
-228726
-228343
-227960
-227578
-227195
-226813
-226431
-226050
-225669
-225289
-224909
-224530
-224152
-223774
-223397
-223020
-222644
-222269
-221894
-221520
-221147
-220774
-220403
-220032
-219663
-219294
-218927
-218561
-218196
-217831
-217468
-217106
-216745
-216385
-216026
-215668
-215312
-214958
-214605
-214253
-213903
-213554
-213207
-212861
-212516
-212173
-211832
-211492
-211154
-210817
-210482
-210150
-209819
-209489
-209162
-208836
-208512
-208190
-207870
-207552
-207236
-206921
-206609
-206299
-205991
-205685
-205381
-205080
-204780
-204483
-204188
-203895
-203604
-203315
-203028
-202744
-202462
-202183
-201906
-201631
-201359
-201089
-200821
-200556
-200293
-200032
-199774
-199519
-199265
-199015
-198766
-198521
-198277
-198037
-197799
-197563
-197330
-197099
-196871
-196645
-196422
-196202
-195984
-195768
-195555
-195345
-195137
-194932
-194729
-194529
-194331
-194136
-193944
-193754
-193566
-193381
-193198
-193018
-192841
-192666
-192494
-192324
-192156
-191991
-191829
-191669
-191511
-191356
-191203
-191052
-190904
-190758
-190615
-190474
-190336
-190199
-190065
-189934
-189805
-189677
-189553
-189430
-189310
-189192
-189076
-188962
-188850
-188741
-188633
-188528
-188425
-188324
-188225
-188128
-188033
-187940
-187849
-187760
-187673
-187587
-187504
-187423
-187343
-187265
-187189
-187115
-187043
-186972
-186903
-186836
-186771
-186707
-186645
-186584
-186525
-186468
-186412
-186358
-186305
-186254
-186205
-186156
-186110
-186064
-186020
-185978
-185937
-185897
-185858
-185821
-185785
-185750
-185717
-185685
-185654
-185624
-185595
-185568
-185541
-185516
-185492
-185469
-185447
-185426
-185406
-185387
-185369
-185352
-185336
-185320
-185306
-185293
-185280
-185269
-185258
-185248
-185239
-185231
-185223
-185216
-185210
-185205
-185201
-185197
-185194
-185191
-185189
-185188
-185188
-185188
-185189
-185190
-185192
-185195
-185198
-185201
-185205
-185210
-185215
-185221
-185227
-185234
-185241
-185249
-185257
-185265
-185274
-185284
-185293
-185304
-185314
-185325
-185336
-185348
-185360
-185372
-185385
-185398
-185411
-185425
-185439
-185453
-185468
-185483
-185498
-185513
-185529
-185544
-185561
-185577
-185594
-185610
-185627
-185645
-185662
-185680
-185698
-185716
-185734
-185752
-185771
-185790
-185809
-185828
-185847
-185867
-185886
-185906
-185926
-185946
-185966
-185986
-186006
-186027
-186048
-186068
-186089
-186110
-186131
-186152
-186174
-186195
-186216
-186238
-186259
-186281
-186303
-186325
-186347
-186369
-186391
-186413
-186435
-186458
-186480
-186502
-186525
-186547
-186570
-186593
-186615
-186638
-186661
-186684
-186707
-186729
-186752
-186775
-186798
-186822
-186845
-186868
-186891
-186914
-186937
-186961
-186984
-187007
-187031
-187054
-187078
-187101
-187124
-187148
-187172
-187195
-187219
-187242
-187266
-187289
-187313
-187337
-187360
-187384
-187408
-187431
-187455
-187479
-187503
-187526
-187550
-187574
-187598
-187622
-187645
-187669
-187693
-187717
-187741
-187765
-187789
-187813
-187836
-187860
-187884
-187908
-187932
-187956
-187980
-188004
-188028
-188052
-188076
-188100
-188124
-188148
-188172
-188196
-188220
-188244
-188268
-188292
-188316
-188340
-188364
-188388
-188412
-188436
-188460
-188484
-188508
-188532
-188556
-188580
-188604
-188628
-188652
-188676
-188701
-188725
-188749
-188773
-188797
-188821
-188845
-188869
-188893
-188917
-188941
-188965
-188989
-189014
-189038
-189062
-189086
-189110
-189134
-189158
-189182
-189206
-189231
-189255
-189279
-189303
-189327
-189351
-189375
-189399
-189424
-189448
-189472
-189496
-189520
-189544
-189568
-189592
-189617
-189641
-189665
-189689
-189713
-189737
-189761
-189786
-189810
-189834
-189858
-189882
-189906
-189931
-189955
-189979
-190003
-190027
-190051
-190076
-190100
-190124
-190148
-190172
-190197
-190221
-190245
-190269
-190293
-190318
-190342
-190366
-190390
-190414
-190439
-190463
-190487
-190511
-190535
-190560
-190584
-190608
-190632
-190656
-190681
-190705
-190729
-190753
-190778
-190802
-190826
-190850
-190874
-190899
-190923
-190947
-190971
-190996
-191020
-191044
-191069
-191093
-191117
-191141
-191166
-191190
-191214
-191238
-191263
-191287
-191311
-191335
-191360
-191384
-191408
-191432
-191457
-191481
-191505
-191530
-191554
-191578
-191602
-191627
-191651
-191675
-191700
-191724
-191748
-191772
-191797
-191821
-191845
-191870
-191894
-191918
-191943
-191967
-191991
-192015
-192040
-192064
-192088
-192113
-192137
-192161
-192186
-192210
-192234
-192259
-192283
-192307
-192332
-192356
-192380
-192405
-192429
-192453
-192478
-192502
-192526
-192551
-192575
-192599
-192624
-192648
-192672
-192697
-192721
-192746
-192770
-192794
-192819
-192843
-192867
-192892
-192916
-192940
-192965
-192989
-193014
-193038
-193062
-193087
-193111
-193135
-193160
-193184
-193209
-193233
-193257
-193282
-193306
-193330
-193355
-193379
-193404
-193428
-193452
-193477
-193501
-193526
-193550
-193574
-193599
-193623
-193648
-193672
-193697
-193721
-193745
-193770
-193794
-193819
-193843
-193867
-193892
-193916
-193941
-193965
-193990
-194014
-194038
-194063
-194087
-194112
-194136
-194161
-194185
-194209
-194234
-194258
-194283
-194307
-194332
-194356
-194381
-194405
-194430
-194454
-194479
-194503
-194527
-194552
-194576
-194601
-194625
-194650
-194674
-194699
-194723
-194748
-194772
-194797
-194821
-194846
-194870
-194895
-194919
-194944
-194968
-194993
-195017
-195042
-195067
-195091
-195116
-195140
-195165
-195189
-195214
-195238
-195263
-195287
-195312
-195336
-195361
-195386
-195410
-195435
-195459
-195484
-195508
-195533
-195557
-195582
-195607
-195631
-195656
-195680
-195705
-195730
-195754
-195779
-195803
-195828
-195853
-195877
-195902
-195927
-195951
-195976
-196000
-196025
-196050
-196074
-196099
-196124
-196148
-196173
-196198
-196222
-196247
-196272
-196296
-196321
-196346
-196370
-196395
-196420
-196444
-196469
-196494
-196519
-196543
-196568
-196593
-196617
-196642
-196667
-196692
-196716
-196741
-196766
-196791
-196815
-196840
-196865
-196890
-196914
-196939
-196964
-196989
-197013
-197038
-197063
-197088
-197113
-197137
-197162
-197187
-197212
-197237
-197262
-197286
-197311
-197336
-197361
-197386
-197411
-197436
-197460
-197485
-197510
-197535
-197560
-197585
-197610
-197635
-197659
-197684
-197709
-197734
-197759
-197784
-197809
-197834
-197859
-197884
-197909
-197934
-197958
-197983
-198008
-198033
-198058
-198083
-198108
-198133
-198158
-198183
-198208
-198233
-198258
-198283
-198308
-198333
-198358
-198383
-198408
-198433
-198458
-198483
-198508
-198533
-198558
-198583
-198608
-198634
-198659
-198684
-198709
-198734
-198759
-198784
-198809
-198834
-198859
-198884
-198910
-198935
-198960
-198985
-199010
-199035
-199060
-199085
-199111
-199136
-199161
-199186
-199211
-199236
-199261
-199287
-199312
-199337
-199362
-199387
-199413
-199438
-199463
-199488
-199513
-199539
-199564
-199589
-199614
-199639
-199665
-199690
-199715
-199740
-199766
-199791
-199816
-199841
-199867
-199892
-199917
-199942
-199968
-199993
-200018
-200043
-200069
-200094
-200119
-200145
-200170
-200195
-200221
-200246
-200271
-200296
-200322
-200347
-200372
-200398
-200423
-200448
-200474
-200499
-200525
-200550
-200575
-200601
-200626
-200651
-200677
-200702
-200728
-200753
-200778
-200804
-200829
-200854
-200880
-200905
-200931
-200956
-200981
-201007
-201032
-201058
-201083
-201109
-201134
-201159
-201185
-201210
-201236
-201261
-201287
-201312
-201338
-201363
-201388
-201414
-201439
-201465
-201490
-201516
-201541
-201567
-201592
-201618
-201643
-201669
-201694
-201720
-201745
-201771
-201796
-201822
-201847
-201873
-201898
-201924
-201949
-201975
-202000
-202026
-202051
-202077
-202102
-202128
-202153
-202179
-202204
-202230
-202255
-202281
-202306
-202332
-202358
-202383
-202409
-202434
-202460
-202485
-202511
-202536
-202562
-202588
-202613
-202639
-202664
-202690
-202715
-202741
-202767
-202792
-202818
-202843
-202869
-202895
-202920
-202946
-202971
-202997
-203023
-203048
-203074
-203099
-203125
-203151
-203176
-203202
-203227
-203253
-203279
-203304
-203330
-203355
-203381
-203407
-203432
-203458
-203484
-203509
-203535
-203560
-203586
-203612
-203637
-203663
-203689
-203714
-203740
-203765
-203791
-203817
-203842
-203868
-203894
-203919
-203945
-203971
-203996
-204022
-204048
-204073
-204099
-204124
-204150
-204176
-204201
-204227
-204253
-204278
-204304
-204330
-204355
-204381
-204407
-204432
-204458
-204484
-204509
-204535
-204561
-204586
-204612
-204638
-204663
-204689
-204715
-204740
-204766
-204792
-204817
-204843
-204869
-204894
-204920
-204946
-204971
-204997
-205023
-205048
-205074
-205100
-205125
-205151
-205177
-205202
-205228
-205254
-205279
-205305
-205331
-205357
-205382
-205408
-205434
-205459
-205485
-205511
-205536
-205562
-205588
-205613
-205639
-205665
-205690
-205716
-205742
-205768
-205793
-205819
-205845
-205870
-205896
-205922
-205947
-205973
-205999
-206025
-206050
-206076
-206102
-206127
-206153
-206179
-206204
-206230
-206256
-206282
-206307
-206333
-206359
-206384
-206410
-206436
-206462
-206487
-206513
-206539
-206564
-206590
-206616
-206642
-206667
-206693
-206719
-206745
-206770
-206796
-206822
-206847
-206873
-206899
-206925
-206950
-206976
-207002
-207028
-207053
-207079
-207105
-207131
-207156
-207182
-207208
-207234
-207259
-207285
-207311
-207337
-207363
-207388
-207414
-207440
-207466
-207491
-207517
-207543
-207569
-207594
-207620
-207646
-207672
-207698
-207723
-207749
-207775
-207801
-207827
-207852
-207878
-207904
-207930
-207956
-207981
-208007
-208033
-208059
-208085
-208111
-208136
-208162
-208188
-208214
-208240
-208266
-208291
-208317
-208343
-208369
-208395
-208421
-208447
-208472
-208498
-208524
-208550
-208576
-208602
-208628
-208654
-208679
-208705
-208731
-208757
-208783
-208809
-208835
-208861
-208887
-208913
-208938
-208964
-208990
-209016
-209042
-209068
-209094
-209120
-209146
-209172
-209198
-209224
-209250
-209276
-209302
-209328
-209354
-209380
-209406
-209431
-209457
-209483
-209509
-209535
-209561
-209587
-209613
-209639
-209665
-209692
-209718
-209744
-209770
-209796
-209822
-209848
-209874
-209900
-209926
-209952
-209978
-210004
-210030
-210056
-210082
-210108
-210134
-210160
-210187
-210213
-210239
-210265
-210291
-210317
-210343
-210369
-210395
-210422
-210448
-210474
-210500
-210526
-210552
-210578
-210605
-210631
-210657
-210683
-210709
-210735
-210762
-210788
-210814
-210840
-210866
-210893
-210919
-210945
-210971
-210997
-211024
-211050
-211076
-211102
-211129
-211155
-211181
-211207
-211233
-211260
-211286
-211312
-211339
-211365
-211391
-211417
-211444
-211470
-211496
-211523
-211549
-211575
-211601
-211628
-211654
-211680
-211707
-211733
-211759
-211786
-211812
-211838
-211865
-211891
-211918
-211944
-211970
-211997
-212023
-212049
-212076
-212102
-212129
-212155
-212181
-212208
-212234
-212261
-212287
-212313
-212340
-212366
-212393
-212419
-212446
-212472
-212499
-212525
-212551
-212578
-212604
-212631
-212657
-212684
-212710
-212737
-212763
-212790
-212816
-212843
-212869
-212896
-212922
-212949
-212975
-213002
-213028
-213055
-213081
-213108
-213135
-213161
-213188
-213214
-213241
-213267
-213294
-213321
-213347
-213374
-213400
-213427
-213453
-213480
-213507
-213533
-213560
-213586
-213613
-213640
-213666
-213693
-213720
-213746
-213773
-213800
-213826
-213853
-213879
-213906
-213933
-213959
-213986
-214013
-214039
-214066
-214093
-214120
-214146
-214173
-214200
-214226
-214253
-214280
-214306
-214333
-214360
-214387
-214413
-214440
-214467
-214494
-214520
-214547
-214574
-214601
-214627
-214654
-214681
-214708
-214734
-214761
-214788
-214815
-214841
-214868
-214895
-214922
-214949
-214975
-215002
-215029
-215056
-215083
-215110
-215136
-215163
-215190
-215217
-215244
-215271
-215297
-215324
-215351
-215378
-215405
-215432
-215459
-215485
-215512
-215539
-215566
-215593
-215620
-215647
-215674
-215701
-215727
-215754
-215781
-215808
-215835
-215862
-215889
-215916
-215943
-215970
-215997
-216024
-216050
-216077
-216104
-216131
-216158
-216185
-216212
-216239
-216266
-216293
-216320
-216347
-216374
-216401
-216428
-216455
-216482
-216509
-216536
-216563
-216590
-216617
-216644
-216671
-216698
-216725
-216752
-216779
-216806
-216833
-216860
-216887
-216914
-216941
-216968
-216995
-217022
-217049
-217076
-217103
-217130
-217157
-217185
-217212
-217239
-217266
-217293
-217320
-217347
-217374
-217401
-217428
-217455
-217482
-217509
-217537
-217564
-217591
-217618
-217645
-217672
-217699
-217726
-217753
-217780
-217808
-217835
-217862
-217889
-217916
-217943
-217970
-217997
-218025
-218052
-218079
-218106
-218133
-218160
-218187
-218215
-218242
-218269
-218296
-218323
-218350
-218377
-218405
-218432
-218459
-218486
-218513
-218540
-218568
-218595
-218622
-218649
-218676
-218704
-218731
-218758
-218785
-218812
-218839
-218867
-218894
-218921
-218948
-218975
-219003
-219030
-219057
-219084
-219112
-219139
-219166
-219193
-219220
-219248
-219275
-219302
-219329
-219356
-219384
-219411
-219438
-219465
-219493
-219520
-219547
-219574
-219602
-219629
-219656
-219683
-219711
-219738
-219765
-219792
-219820
-219847
-219874
-219901
-219929
-219956
-219983
-220010
-220038
-220065
-220092
-220119
-220147
-220174
-220201
-220229
-220256
-220283
-220310
-220338
-220365
-220392
-220420
-220447
-220474
-220501
-220529
-220556
-220583
-220611
-220638
-220665
-220692
-220720
-220747
-220774
-220802
-220829
-220856
-220884
-220911
-220938
-220966
-220993
-221020
-221048
-221075
-221102
-221130
-221157
-221184
-221212
-221239
-221266
-221294
-221321
-221348
-221376
-221403
-221430
-221458
-221485
-221512
-221540
-221567
-221594
-221622
-221649
-221677
-221704
-221731
-221759
-221786
-221813
-221841
-221868
-221895
-221923
-221950
-221978
-222005
-222032
-222060
-222087
-222115
-222142
-222169
-222197
-222224
-222252
-222279
-222306
-222334
-222361
-222389
-222416
-222444
-222471
-222498
-222526
-222553
-222581
-222608
-222636
-222663
-222691
-222718
-222745
-222773
-222800
-222828
-222855
-222883
-222910
-222938
-222965
-222993
-223020
-223048
-223075
-223102
-223130
-223157
-223185
-223212
-223240
-223267
-223295
-223322
-223350
-223377
-223405
-223432
-223460
-223488
-223515
-223543
-223570
-223598
-223625
-223653
-223680
-223708
-223735
-223763
-223790
-223818
-223846
-223873
-223901
-223928
-223956
-223983
-224011
-224039
-224066
-224094
-224121
-224149
-224176
-224204
-224232
-224259
-224287
-224314
-224342
-224370
-224397
-224425
-224453
-224480
-224508
-224535
-224563
-224591
-224618
-224646
-224674
-224701
-224729
-224757
-224784
-224812
-224840
-224867
-224895
-224923
-224950
-224978
-225006
-225033
-225061
-225089
-225116
-225144
-225172
-225200
-225227
-225255
-225283
-225310
-225338
-225366
-225394
-225421
-225449
-225477
-225505
-225532
-225560
-225588
-225616
-225643
-225671
-225699
-225727
-225754
-225782
-225810
-225838
-225866
-225893
-225921
-225949
-225977
-226005
-226032
-226060
-226088
-226116
-226144
-226171
-226199
-226227
-226255
-226283
-226311
-226338
-226366
-226394
-226422
-226450
-226478
-226506
-226534
-226561
-226589
-226617
-226645
-226673
-226701
-226729
-226757
-226785
-226812
-226840
-226868
-226896
-226924
-226952
-226980
-227008
-227036
-227064
-227092
-227120
-227148
-227176
-227203
-227231
-227259
-227287
-227315
-227343
-227371
-227399
-227427
-227455
-227483
-227511
-227539
-227567
-227595
-227623
-227651
-227679
-227707
-227735
-227763
-227791
-227819
-227847
-227875
-227904
-227932
-227960
-227988
-228016
-228044
-228072
-228100
-228128
-228156
-228184
-228212
-228240
-228268
-228296
-228325
-228353
-228381
-228409
-228437
-228465
-228493
-228521
-228549
-228578
-228606
-228634
-228662
-228690
-228718
-228746
-228775
-228803
-228831
-228859
-228887
-228915
-228944
-228972
-229000
-229028
-229056
-229084
-229113
-229141
-229169
-229197
-229225
-229254
-229282
-229310
-229338
-229366
-229395
-229423
-229451
-229479
-229508
-229536
-229564
-229592
-229621
-229649
-229677
-229705
-229734
-229762
-229790
-229818
-229847
-229875
-229903
-229932
-229960
-229988
-230017
-230045
-230073
-230101
-230130
-230158
-230186
-230215
-230243
-230271
-230300
-230328
-230356
-230385
-230413
-230441
-230470
-230498
-230526
-230555
-230583
-230612
-230640
-230668
-230697
-230725
-230753
-230782
-230810
-230839
-230867
-230895
-230924
-230952
-230981
-231009
-231037
-231066
-231094
-231123
-231151
-231180
-231208
-231236
-231265
-231293
-231322
-231350
-231379
-231407
-231436
-231464
-231493
-231521
-231550
-231578
-231606
-231635
-231663
-231692
-231720
-231749
-231777
-231806
-231834
-231863
-231891
-231920
-231948
-231977
-232006
-232034
-232063
-232091
-232120
-232148
-232177
-232205
-232234
-232262
-232291
-232320
-232348
-232377
-232405
-232434
-232462
-232491
-232520
-232548
-232577
-232605
-232634
-232662
-232691
-232720
-232748
-232777
-232806
-232834
-232863
-232891
-232920
-232949
-232977
-233006
-233035
-233063
-233092
-233120
-233149
-233178
-233206
-233235
-233264
-233292
-233321
-233350
-233378
-233407
-233436
-233464
-233493
-233522
-233550
-233579
-233608
-233637
-233665
-233694
-233723
-233751
-233780
-233809
-233838
-233866
-233895
-233924
-233952
-233981
-234010
-234039
-234067
-234096
-234125
-234154
-234182
-234211
-234240
-234269
-234297
-234326
-234355
-234384
-234413
-234441
-234470
-234499
-234528
-234556
-234585
-234614
-234643
-234672
-234700
-234729
-234758
-234787
-234816
-234845
-234873
-234902
-234931
-234960
-234989
-235017
-235046
-235075
-235104
-235133
-235162
-235191
-235219
-235248
-235277
-235306
-235335
-235364
-235393
-235421
-235450
-235479
-235508
-235537
-235566
-235595
-235624
-235653
-235681
-235710
-235739
-235768
-235797
-235826
-235855
-235884
-235913
-235942
-235971
-236000
-236028
-236057
-236086
-236115
-236144
-236173
-236202
-236231
-236260
-236289
-236318
-236347
-236376
-236405
-236434
-236463
-236492
-236521
-236550
-236579
-236608
-236637
-236666
-236695
-236724
-236753
-236782
-236811
-236840
-236869
-236898
-236927
-236956
-236985
-237014
-237043
-237072
-237101
-237130
-237159
-237188
-237217
-237246
-237275
-237304
-237333
-237362
-237391
-237420
-237450
-237479
-237508
-237537
-237566
-237595
-237624
-237653
-237682
-237711
-237740
-237769
-237798
-237828
-237857
-237886
-237915
-237944
-237973
-238002
-238031
-238060
-238090
-238119
-238148
-238177
-238206
-238235
-238264
-238294
-238323
-238352
-238381
-238410
-238439
-238468
-238498
-238527
-238556
-238585
-238614
-238643
-238673
-238702
-238731
-238760
-238789
-238819
-238848
-238877
-238906
-238935
-238965
-238994
-239023
-239052
-239081
-239111
-239140
-239169
-239198
-239228
-239257
-239286
-239315
-239344
-239374
-239403
-239432
-239461
-239491
-239520
-239549
-239579
-239608
-239637
-239666
-239696
-239725
-239754
-239783
-239813
-239842
-239871
-239901
-239930
-239959
-239989
-240018
-240047
-240076
-240106
-240135
-240164
-240194
-240223
-240252
-240282
-240311
-240340
-240370
-240399
-240428
-240458
-240487
-240516
-240546
-240575
-240605
-240634
-240663
-240693
-240722
-240751
-240781
-240810
-240840
-240869
-240898
-240928
-240957
-240987
-241016
-241045
-241075
-241104
-241134
-241163
-241192
-241222
-241251
-241281
-241310
-241340
-241369
-241398
-241428
-241457
-241487
-241516
-241546
-241575
-241605
-241634
-241664
-241693
-241723
-241752
-241781
-241811
-241840
-241870
-241899
-241929
-241958
-241988
-242017
-242047
-242076
-242106
-242136
-242165
-242195
-242224
-242254
-242283
-242313
-242342
-242372
-242401
-242431
-242460
-242490
-242520
-242549
-242579
-242608
-242638
-242667
-242697
-242727
-242756
-242786
-242815
-242845
-242875
-242904
-242934
-242963
-242993
-243023
-243052
-243082
-243112
-243141
-243171
-243200
-243230
-243260
-243289
-243319
-243349
-243378
-243408
-243438
-243467