/*--------------------------------*- C++ -*----------------------------------*\
  =========                 |
  \\      /  F ield         | OpenFOAM: The Open Source CFD Toolbox
   \\    /   O peration     | Website:  https://openfoam.org
    \\  /    A nd           | Version:  9
     \\/     M anipulation  |
\*---------------------------------------------------------------------------*/
FoamFile
{
    format      ascii;
    class       volScalarField;
    location    "0.046";
    object      p;
}
// * * * * * * * * * * * * * * * * * * * * * * * * * * * * * * * * * * * * * //

dimensions      [1 -1 -2 0 0 0 0];

internalField   nonuniform List<scalar> 
10000
(
8955.8
8955.75
8955.66
8955.59
8955.52
8955.46
8955.39
8955.33
8955.26
8955.19
8955.13
8955.06
8954.99
8954.93
8954.86
8954.8
8954.73
8954.66
8954.6
8954.53
8954.47
8954.4
8954.33
8954.27
8954.2
8954.14
8954.07
8954.01
8953.94
8953.87
8953.81
8953.74
8953.68
8953.61
8953.55
8953.48
8953.41
8953.35
8953.28
8953.22
8953.15
8953.09
8953.02
8952.96
8952.89
8952.82
8952.76
8952.69
8952.63
8952.56
8952.5
8952.43
8952.37
8952.3
8952.24
8952.17
8952.11
8952.04
8951.98
8951.91
8951.85
8951.78
8951.72
8951.65
8951.59
8951.52
8951.46
8951.39
8951.33
8951.26
8951.2
8951.13
8951.07
8951
8950.94
8950.87
8950.81
8950.75
8950.68
8950.62
8950.55
8950.49
8950.42
8950.36
8950.29
8950.23
8950.16
8950.1
8950.04
8949.97
8949.91
8949.84
8949.78
8949.71
8949.65
8949.59
8949.52
8949.46
8949.39
8949.33
8949.27
8949.2
8949.14
8949.07
8949.01
8948.95
8948.88
8948.82
8948.75
8948.69
8948.63
8948.56
8948.5
8948.44
8948.37
8948.31
8948.24
8948.18
8948.12
8948.05
8947.99
8947.93
8947.86
8947.8
8947.74
8947.67
8947.61
8947.55
8947.48
8947.42
8947.36
8947.29
8947.23
8947.17
8947.1
8947.04
8946.98
8946.91
8946.85
8946.79
8946.73
8946.66
8946.6
8946.54
8946.47
8946.41
8946.35
8946.28
8946.22
8946.16
8946.1
8946.03
8945.97
8945.91
8945.85
8945.78
8945.72
8945.66
8945.6
8945.53
8945.47
8945.41
8945.35
8945.28
8945.22
8945.16
8945.1
8945.03
8944.97
8944.91
8944.85
8944.78
8944.72
8944.66
8944.6
8944.54
8944.47
8944.41
8944.35
8944.29
8944.23
8944.16
8944.1
8944.04
8943.98
8943.92
8943.86
8943.79
8943.73
8943.67
8943.61
8943.55
8943.49
8943.42
8943.36
8943.3
8943.24
8943.18
8943.12
8943.05
8942.99
8942.93
8942.87
8942.81
8942.75
8942.69
8942.63
8942.56
8942.5
8942.44
8942.38
8942.32
8942.26
8942.2
8942.14
8942.08
8942.02
8941.95
8941.89
8941.83
8941.77
8941.71
8941.65
8941.59
8941.53
8941.47
8941.41
8941.35
8941.29
8941.23
8941.17
8941.11
8941.05
8940.99
8940.92
8940.86
8940.8
8940.74
8940.68
8940.62
8940.56
8940.5
8940.44
8940.38
8940.32
8940.26
8940.2
8940.14
8940.08
8940.02
8939.96
8939.9
8939.84
8939.78
8939.72
8939.67
8939.61
8939.55
8939.49
8939.43
8939.37
8939.31
8939.25
8939.19
8939.13
8939.07
8939.01
8938.95
8938.89
8938.83
8938.77
8938.71
8938.66
8938.6
8938.54
8938.48
8938.42
8938.36
8938.3
8938.24
8938.18
8938.13
8938.07
8938.01
8937.95
8937.89
8937.83
8937.77
8937.71
8937.66
8937.6
8937.54
8937.48
8937.42
8937.36
8937.31
8937.25
8937.19
8937.13
8937.07
8937.01
8936.96
8936.9
8936.84
8936.78
8936.72
8936.67
8936.61
8936.55
8936.49
8936.44
8936.38
8936.32
8936.26
8936.2
8936.15
8936.09
8936.03
8935.97
8935.92
8935.86
8935.8
8935.74
8935.69
8935.63
8935.57
8935.52
8935.46
8935.4
8935.34
8935.29
8935.23
8935.17
8935.12
8935.06
8935
8934.95
8934.89
8934.83
8934.78
8934.72
8934.66
8934.61
8934.55
8934.49
8934.44
8934.38
8934.32
8934.27
8934.21
8934.16
8934.1
8934.04
8933.99
8933.93
8933.88
8933.82
8933.76
8933.71
8933.65
8933.6
8933.54
8933.48
8933.43
8933.37
8933.32
8933.26
8933.21
8933.15
8933.1
8933.04
8932.99
8932.93
8932.87
8932.82
8932.76
8932.71
8932.65
8932.6
8932.54
8932.49
8932.43
8932.38
8932.33
8932.27
8932.22
8932.16
8932.11
8932.05
8932
8931.94
8931.89
8931.83
8931.78
8931.73
8931.67
8931.62
8931.56
8931.51
8931.46
8931.4
8931.35
8931.29
8931.24
8931.19
8931.13
8931.08
8931.02
8930.97
8930.92
8930.86
8930.81
8930.76
8930.7
8930.65
8930.6
8930.54
8930.49
8930.44
8930.39
8930.33
8930.28
8930.23
8930.17
8930.12
8930.07
8930.02
8929.96
8929.91
8929.86
8929.81
8929.75
8929.7
8929.65
8929.6
8929.54
8929.49
8929.44
8929.39
8929.34
8929.28
8929.23
8929.18
8929.13
8929.08
8929.03
8928.97
8928.92
8928.87
8928.82
8928.77
8928.72
8928.67
8928.61
8928.56
8928.51
8928.46
8928.41
8928.36
8928.31
8928.26
8928.21
8928.16
8928.11
8928.06
8928.01
8927.96
8927.91
8927.85
8927.8
8927.75
8927.7
8927.65
8927.6
8927.55
8927.5
8927.46
8927.41
8927.36
8927.31
8927.26
8927.21
8927.16
8927.11
8927.06
8927.01
8926.96
8926.91
8926.86
8926.81
8926.77
8926.72
8926.67
8926.62
8926.57
8926.52
8926.47
8926.43
8926.38
8926.33
8926.28
8926.23
8926.18
8926.14
8926.09
8926.04
8925.99
8925.95
8925.9
8925.85
8925.8
8925.76
8925.71
8925.66
8925.61
8925.57
8925.52
8925.47
8925.43
8925.38
8925.33
8925.29
8925.24
8925.19
8925.15
8925.1
8925.05
8925.01
8924.96
8924.91
8924.87
8924.82
8924.78
8924.73
8924.69
8924.64
8924.59
8924.55
8924.5
8924.46
8924.41
8924.37
8924.32
8924.28
8924.23
8924.19
8924.14
8924.1
8924.05
8924.01
8923.97
8923.92
8923.88
8923.83
8923.79
8923.75
8923.7
8923.66
8923.61
8923.57
8923.53
8923.48
8923.44
8923.4
8923.35
8923.31
8923.27
8923.22
8923.18
8923.14
8923.1
8923.05
8923.01
8922.97
8922.93
8922.88
8922.84
8922.8
8922.76
8922.72
8922.68
8922.63
8922.59
8922.55
8922.51
8922.47
8922.43
8922.39
8922.35
8922.3
8922.26
8922.22
8922.18
8922.14
8922.1
8922.06
8922.02
8921.98
8921.94
8921.9
8921.86
8921.82
8921.78
8921.74
8921.7
8921.66
8921.63
8921.59
8921.55
8921.51
8921.47
8921.43
8921.39
8921.35
8921.32
8921.28
8921.24
8921.2
8921.16
8921.13
8921.09
8921.05
8921.01
8920.98
8920.94
8920.9
8920.87
8920.83
8920.79
8920.76
8920.72
8920.68
8920.65
8920.61
8920.58
8920.54
8920.5
8920.47
8920.43
8920.4
8920.36
8920.33
8920.29
8920.26
8920.22
8920.19
8920.15
8920.12
8920.09
8920.05
8920.02
8919.98
8919.95
8919.92
8919.88
8919.85
8919.82
8919.78
8919.75
8919.72
8919.68
8919.65
8919.62
8919.59
8919.56
8919.52
8919.49
8919.46
8919.43
8919.4
8919.37
8919.33
8919.3
8919.27
8919.24
8919.21
8919.18
8919.15
8919.12
8919.09
8919.06
8919.03
8919
8918.97
8918.94
8918.91
8918.89
8918.86
8918.83
8918.8
8918.77
8918.74
8918.71
8918.69
8918.66
8918.63
8918.6
8918.58
8918.55
8918.52
8918.5
8918.47
8918.44
8918.42
8918.39
8918.36
8918.34
8918.31
8918.29
8918.26
8918.24
8918.21
8918.19
8918.16
8918.14
8918.11
8918.09
8918.07
8918.04
8918.02
8918
8917.97
8917.95
8917.93
8917.9
8917.88
8917.86
8917.84
8917.82
8917.79
8917.77
8917.75
8917.73
8917.71
8917.69
8917.67
8917.65
8917.63
8917.61
8917.59
8917.57
8917.55
8917.53
8917.51
8917.49
8917.47
8917.45
8917.44
8917.42
8917.4
8917.38
8917.37
8917.35
8917.33
8917.31
8917.3
8917.28
8917.27
8917.25
8917.23
8917.22
8917.2
8917.19
8917.17
8917.16
8917.14
8917.13
8917.12
8917.1
8917.09
8917.08
8917.06
8917.05
8917.04
8917.03
8917.01
8917
8916.99
8916.98
8916.97
8916.96
8916.95
8916.94
8916.93
8916.92
8916.91
8916.9
8916.89
8916.88
8916.87
8916.86
8916.85
8916.85
8916.84
8916.83
8916.82
8916.82
8916.81
8916.8
8916.8
8916.79
8916.79
8916.78
8916.78
8916.77
8916.77
8916.76
8916.76
8916.75
8916.75
8916.75
8916.74
8916.74
8916.74
8916.74
8916.74
8916.73
8916.73
8916.73
8916.73
8916.73
8916.73
8916.73
8916.73
8916.73
8916.73
8916.73
8916.73
8916.73
8916.74
8916.74
8916.74
8916.75
8916.75
8916.75
8916.76
8916.76
8916.77
8916.77
8916.78
8916.79
8916.79
8916.8
8916.81
8916.81
8916.82
8916.83
8916.84
8916.85
8916.85
8916.86
8916.87
8916.88
8916.89
8916.9
8916.92
8916.93
8916.94
8916.95
8916.96
8916.98
8916.99
8917
8917.02
8917.03
8917.05
8917.06
8917.08
8917.09
8917.11
8917.13
8917.14
8917.16
8917.18
8917.2
8917.21
8917.23
8917.25
8917.27
8917.29
8917.31
8917.33
8917.36
8917.38
8917.4
8917.42
8917.45
8917.47
8917.49
8917.52
8917.54
8917.57
8917.59
8917.62
8917.65
8917.67
8917.7
8917.73
8917.76
8917.78
8917.81
8917.84
8917.87
8917.9
8917.94
8917.97
8918
8918.03
8918.06
8918.1
8918.13
8918.17
8918.2
8918.24
8918.27
8918.31
8918.35
8918.38
8918.42
8918.46
8918.5
8918.54
8918.58
8918.62
8918.66
8918.7
8918.74
8918.79
8918.83
8918.87
8918.92
8918.96
8919.01
8919.05
8919.1
8919.15
8919.19
8919.24
8919.29
8919.34
8919.39
8919.44
8919.49
8919.54
8919.59
8919.65
8919.7
8919.75
8919.81
8919.86
8919.92
8919.98
8920.03
8920.09
8920.15
8920.21
8920.27
8920.33
8920.39
8920.45
8920.51
8920.57
8920.64
8920.7
8920.76
8920.83
8920.89
8920.96
8921.03
8921.1
8921.16
8921.23
8921.3
8921.37
8921.45
8921.52
8921.59
8921.66
8921.74
8921.81
8921.89
8921.96
8922.04
8922.12
8922.2
8922.28
8922.36
8922.44
8922.52
8922.6
8922.68
8922.77
8922.85
8922.94
8923.02
8923.11
8923.2
8923.29
8923.37
8923.46
8923.56
8923.65
8923.74
8923.83
8923.93
8924.02
8924.12
8924.21
8924.31
8924.41
8924.51
8924.61
8924.71
8924.81
8924.91
8925.02
8925.12
8925.23
8925.33
8925.44
8925.55
8925.65
8925.76
8925.87
8925.99
8926.1
8926.21
8926.33
8926.44
8926.56
8926.67
8926.79
8926.91
8927.03
8927.15
8927.27
8927.4
8927.52
8927.65
8927.77
8927.9
8928.03
8928.16
8928.29
8928.42
8928.55
8928.68
8928.81
8928.95
8929.09
8929.22
8929.36
8929.5
8929.64
8929.78
8929.93
8930.07
8930.21
8930.36
8930.51
8930.65
8930.8
8930.95
8931.11
8931.26
8931.41
8931.57
8931.72
8931.88
8932.04
8932.2
8932.36
8932.52
8932.68
8932.85
8933.01
8933.18
8933.35
8933.52
8933.69
8933.86
8934.03
8934.21
8934.38
8934.56
8934.74
8934.92
8935.1
8935.28
8935.46
8935.65
8935.83
8936.02
8936.21
8936.4
8936.59
8936.78
8936.97
8937.17
8937.36
8937.56
8937.76
8937.96
8938.16
8938.37
8938.57
8938.78
8938.98
8939.19
8939.4
8939.61
8939.83
8940.04
8940.26
8940.47
8940.69
8940.91
8941.14
8941.36
8941.58
8941.81
8942.04
8942.27
8942.5
8942.73
8942.96
8943.2
8943.43
8943.67
8943.91
8944.15
8944.4
8944.64
8944.89
8945.13
8945.38
8945.63
8945.88
8946.14
8946.39
8946.65
8946.91
8947.17
8947.43
8947.69
8947.96
8948.23
8948.49
8948.76
8949.03
8949.31
8949.58
8949.86
8950.14
8950.42
8950.7
8950.98
8951.27
8951.55
8951.84
8952.13
8952.42
8952.72
8953.01
8953.31
8953.6
8953.9
8954.21
8954.51
8954.82
8955.12
8955.43
8955.74
8956.05
8956.37
8956.68
8957
8957.32
8957.64
8957.96
8958.29
8958.61
8958.94
8959.27
8959.6
8959.94
8960.27
8960.61
8960.95
8961.29
8961.63
8961.97
8962.32
8962.67
8963.01
8963.37
8963.72
8964.07
8964.43
8964.79
8965.15
8965.51
8965.87
8966.24
8966.61
8966.97
8967.35
8967.72
8968.09
8968.47
8968.85
8969.23
8969.61
8969.99
8970.38
8970.76
8971.15
8971.54
8971.93
8972.33
8972.72
8973.12
8973.52
8973.92
8974.32
8974.73
8975.14
8975.54
8975.95
8976.37
8976.78
8977.19
8977.61
8978.03
8978.45
8978.87
8979.3
8979.72
8980.15
8980.58
8981.01
8981.44
8981.87
8982.31
8982.75
8983.19
8983.63
8984.07
8984.51
8984.96
8985.41
8985.86
8986.31
8986.76
8987.21
8987.67
8988.13
8988.58
8989.04
8989.51
8989.97
8990.44
8990.9
8991.37
8991.84
8992.31
8992.78
8993.26
8993.73
8994.21
8994.69
8995.17
8995.65
8996.14
8996.62
8997.11
8997.6
8998.09
8998.58
8999.07
8999.56
9000.06
9000.55
9001.05
9001.55
9002.05
9002.55
9003.05
9003.56
9004.06
9004.57
9005.08
9005.59
9006.1
9006.61
9007.13
9007.64
9008.16
9008.67
9009.19
9009.71
9010.23
9010.75
9011.28
9011.8
9012.33
9012.85
9013.38
9013.91
9014.44
9014.97
9015.5
9016.04
9016.57
9017.11
9017.64
9018.18
9018.72
9019.26
9019.8
9020.34
9020.88
9021.42
9021.97
9022.51
9023.06
9023.61
9024.15
9024.7
9025.25
9025.8
9026.36
9026.91
9027.46
9028.01
9028.57
9029.13
9029.68
9030.24
9030.8
9031.36
9031.92
9032.48
9033.04
9033.6
9034.16
9034.72
9035.29
9035.85
9036.42
9036.98
9037.55
9038.12
9038.69
9039.25
9039.82
9040.39
9040.96
9041.54
9042.11
9042.68
9043.25
9043.83
9044.4
9044.97
9045.55
9046.12
9046.7
9047.28
9047.85
9048.43
9049.01
9049.59
9050.17
9050.75
9051.33
9051.91
9052.49
9053.07
9053.65
9054.23
9054.81
9055.4
9055.98
9056.56
9057.15
9057.73
9058.32
9058.9
9059.49
9060.07
9060.66
9061.25
9061.83
9062.42
9063.01
9063.6
9064.19
9064.77
9065.36
9065.95
9066.54
9067.13
9067.72
9068.31
9068.9
9069.49
9070.08
9070.67
9071.27
9071.86
9072.45
9073.04
9073.63
9074.23
9074.82
9075.41
9076.01
9076.6
9077.19
9077.79
9078.38
9078.98
9079.57
9080.17
9080.76
9081.36
9081.95
9082.55
9083.14
9083.74
9084.33
9084.93
9085.53
9086.12
9086.72
9087.32
9087.91
9088.51
9089.11
9089.71
9090.3
9090.9
9091.5
9092.1
9092.69
9093.29
9093.89
9094.49
9095.09
9095.69
9096.28
9096.88
9097.48
9098.08
9098.68
9099.28
9099.88
9100.48
9101.08
9101.68
9102.28
9102.88
9103.48
9104.08
9104.68
9105.28
9105.88
9106.48
9107.08
9107.68
9108.28
9108.88
9109.48
9110.08
9110.69
9111.29
9111.89
9112.49
9113.09
9113.69
9114.29
9114.9
9115.5
9116.1
9116.7
9117.3
9117.91
9118.51
9119.11
9119.71
9120.31
9120.92
9121.52
9122.12
9122.72
9123.33
9123.93
9124.53
9125.13
9125.74
9126.34
9126.94
9127.55
9128.15
9128.75
9129.36
9129.96
9130.56
9131.17
9131.77
9132.37
9132.98
9133.58
9134.18
9134.79
9135.39
9135.99
9136.6
9137.2
9137.81
9138.41
9139.01
9139.62
9140.22
9140.83
9141.43
9142.04
9142.64
9143.25
9143.85
9144.45
9145.06
9145.66
9146.27
9146.87
9147.48
9148.08
9148.69
9149.29
9149.9
9150.5
9151.11
9151.71
9152.32
9152.92
9153.53
9154.13
9154.74
9155.35
9155.95
9156.56
9157.16
9157.77
9158.37
9158.98
9159.59
9160.19
9160.8
9161.4
9162.01
9162.62
9163.22
9163.83
9164.43
9165.04
9165.65
9166.25
9166.86
9167.47
9168.07
9168.68
9169.29
9169.89
9170.5
9171.11
9171.71
9172.32
9172.93
9173.53
9174.14
9174.75
9175.35
9175.96
9176.57
9177.18
9177.78
9178.39
9179
9179.6
9180.21
9180.82
9181.43
9182.03
9182.64
9183.25
9183.86
9184.47
9185.07
9185.68
9186.29
9186.9
9187.51
9188.11
9188.72
9189.33
9189.94
9190.55
9191.15
9191.76
9192.37
9192.98
9193.59
9194.2
9194.81
9195.41
9196.02
9196.63
9197.24
9197.85
9198.46
9199.07
9199.68
9200.29
9200.89
9201.5
9202.11
9202.72
9203.33
9203.94
9204.55
9205.16
9205.77
9206.38
9206.99
9207.6
9208.21
9208.82
9209.43
9210.04
9210.65
9211.26
9211.87
9212.48
9213.09
9213.7
9214.31
9214.92
9215.53
9216.14
9216.75
9217.36
9217.97
9218.58
9219.19
9219.8
9220.41
9221.02
9221.63
9222.24
9222.85
9223.46
9224.07
9224.69
9225.3
9225.91
9226.52
9227.13
9227.74
9228.35
9228.96
9229.57
9230.19
9230.8
9231.41
9232.02
9232.63
9233.24
9233.86
9234.47
9235.08
9235.69
9236.3
9236.91
9237.53
9238.14
9238.75
9239.36
9239.97
9240.59
9241.2
9241.81
9242.42
9243.04
9243.65
9244.26
9244.87
9245.49
9246.1
9246.71
9247.32
9247.94
9248.55
9249.16
9249.78
9250.39
9251
9251.61
9252.23
9252.84
9253.45
9254.07
9254.68
9255.29
9255.91
9256.52
9257.13
9257.75
9258.36
9258.97
9259.59
9260.2
9260.82
9261.43
9262.04
9262.66
9263.27
9263.89
9264.5
9265.11
9265.73
9266.34
9266.96
9267.57
9268.18
9268.8
9269.41
9270.03
9270.64
9271.26
9271.87
9272.49
9273.1
9273.72
9274.33
9274.95
9275.56
9276.18
9276.79
9277.41
9278.02
9278.64
9279.25
9279.87
9280.48
9281.1
9281.71
9282.33
9282.94
9283.56
9284.17
9284.79
9285.41
9286.02
9286.64
9287.25
9287.87
9288.48
9289.1
9289.72
9290.33
9290.95
9291.57
9292.18
9292.8
9293.41
9294.03
9294.65
9295.26
9295.88
9296.5
9297.11
9297.73
9298.35
9298.96
9299.58
9300.2
9300.81
9301.43
9302.05
9302.66
9303.28
9303.9
9304.52
9305.13
9305.75
9306.37
9306.99
9307.6
9308.22
9308.84
9309.46
9310.07
9310.69
9311.31
9311.93
9312.54
9313.16
9313.78
9314.4
9315.02
9315.63
9316.25
9316.87
9317.49
9318.11
9318.72
9319.34
9319.96
9320.58
9321.2
9321.82
9322.44
9323.05
9323.67
9324.29
9324.91
9325.53
9326.15
9326.77
9327.39
9328
9328.62
9329.24
9329.86
9330.48
9331.1
9331.72
9332.34
9332.96
9333.58
9334.2
9334.82
9335.44
9336.06
9336.68
9337.3
9337.92
9338.54
9339.16
9339.78
9340.4
9341.02
9341.64
9342.26
9342.88
9343.5
9344.12
9344.74
9345.36
9345.98
9346.6
9347.22
9347.84
9348.46
9349.08
9349.7
9350.32
9350.94
9351.56
9352.19
9352.81
9353.43
9354.05
9354.67
9355.29
9355.91
9356.53
9357.15
9357.78
9358.4
9359.02
9359.64
9360.26
9360.88
9361.51
9362.13
9362.75
9363.37
9363.99
9364.61
9365.24
9365.86
9366.48
9367.1
9367.73
9368.35
9368.97
9369.59
9370.21
9370.84
9371.46
9372.08
9372.7
9373.33
9373.95
9374.57
9375.19
9375.82
9376.44
9377.06
9377.69
9378.31
9378.93
9379.56
9380.18
9380.8
9381.43
9382.05
9382.67
9383.3
9383.92
9384.54
9385.17
9385.79
9386.41
9387.04
9387.66
9388.28
9388.91
9389.53
9390.16
9390.78
9391.4
9392.03
9392.65
9393.28
9393.9
9394.52
9395.15
9395.77
9396.4
9397.02
9397.65
9398.27
9398.9
9399.52
9400.15
9400.77
9401.39
9402.02
9402.64
9403.27
9403.89
9404.52
9405.14
9405.77
9406.4
9407.02
9407.65
9408.27
9408.9
9409.52
9410.15
9410.77
9411.4
9412.02
9412.65
9413.28
9413.9
9414.53
9415.15
9415.78
9416.41
9417.03
9417.66
9418.28
9418.91
9419.54
9420.16
9420.79
9421.41
9422.04
9422.67
9423.29
9423.92
9424.55
9425.17
9425.8
9426.43
9427.05
9427.68
9428.31
9428.94
9429.56
9430.19
9430.82
9431.44
9432.07
9432.7
9433.33
9433.95
9434.58
9435.21
9435.84
9436.46
9437.09
9437.72
9438.35
9438.97
9439.6
9440.23
9440.86
9441.48
9442.11
9442.74
9443.37
9444
9444.63
9445.25
9445.88
9446.51
9447.14
9447.77
9448.4
9449.02
9449.65
9450.28
9450.91
9451.54
9452.17
9452.8
9453.42
9454.05
9454.68
9455.31
9455.94
9456.57
9457.2
9457.83
9458.46
9459.09
9459.72
9460.35
9460.98
9461.6
9462.23
9462.86
9463.49
9464.12
9464.75
9465.38
9466.01
9466.64
9467.27
9467.9
9468.53
9469.16
9469.79
9470.42
9471.05
9471.68
9472.31
9472.94
9473.57
9474.2
9474.84
9475.47
9476.1
9476.73
9477.36
9477.99
9478.62
9479.25
9479.88
9480.51
9481.14
9481.77
9482.41
9483.04
9483.67
9484.3
9484.93
9485.56
9486.19
9486.82
9487.46
9488.09
9488.72
9489.35
9489.98
9490.61
9491.25
9491.88
9492.51
9493.14
9493.77
9494.41
9495.04
9495.67
9496.3
9496.93
9497.57
9498.2
9498.83
9499.46
9500.1
9500.73
9501.36
9501.99
9502.63
9503.26
9503.89
9504.52
9505.16
9505.79
9506.42
9507.06
9507.69
9508.32
9508.95
9509.59
9510.22
9510.85
9511.49
9512.12
9512.75
9513.39
9514.02
9514.65
9515.29
9515.92
9516.56
9517.19
9517.82
9518.46
9519.09
9519.73
9520.36
9520.99
9521.63
9522.26
9522.9
9523.53
9524.16
9524.8
9525.43
9526.07
9526.7
9527.34
9527.97
9528.61
9529.24
9529.87
9530.51
9531.14
9531.78
9532.41
9533.05
9533.68
9534.32
9534.95
9535.59
9536.22
9536.86
9537.5
9538.13
9538.77
9539.4
9540.04
9540.67
9541.31
9541.94
9542.58
9543.22
9543.85
9544.49
9545.12
9545.76
9546.39
9547.03
9547.67
9548.3
9548.94
9549.58
9550.21
9550.85
9551.48
9552.12
9552.76
9553.39
9554.03
9554.67
9555.3
9555.94
9556.58
9557.21
9557.85
9558.49
9559.12
9559.76
9560.4
9561.04
9561.67
9562.31
9562.95
9563.58
9564.22
9564.86
9565.5
9566.13
9566.77
9567.41
9568.05
9568.68
9569.32
9569.96
9570.6
9571.24
9571.87
9572.51
9573.15
9573.79
9574.43
9575.06
9575.7
9576.34
9576.98
9577.62
9578.26
9578.89
9579.53
9580.17
9580.81
9581.45
9582.09
9582.73
9583.37
9584
9584.64
9585.28
9585.92
9586.56
9587.2
9587.84
9588.48
9589.12
9589.76
9590.4
9591.03
9591.67
9592.31
9592.95
9593.59
9594.23
9594.87
9595.51
9596.15
9596.79
9597.43
9598.07
9598.71
9599.35
9599.99
9600.63
9601.27
9601.91
9602.55
9603.19
9603.83
9604.47
9605.11
9605.75
9606.4
9607.04
9607.68
9608.32
9608.96
9609.6
9610.24
9610.88
9611.52
9612.16
9612.8
9613.45
9614.09
9614.73
9615.37
9616.01
9616.65
9617.29
9617.93
9618.58
9619.22
9619.86
9620.5
9621.14
9621.78
9622.43
9623.07
9623.71
9624.35
9624.99
9625.64
9626.28
9626.92
9627.56
9628.21
9628.85
9629.49
9630.13
9630.77
9631.42
9632.06
9632.7
9633.35
9633.99
9634.63
9635.27
9635.92
9636.56
9637.2
9637.85
9638.49
9639.13
9639.77
9640.42
9641.06
9641.7
9642.35
9642.99
9643.64
9644.28
9644.92
9645.57
9646.21
9646.85
9647.5
9648.14
9648.78
9649.43
9650.07
9650.72
9651.36
9652
9652.65
9653.29
9653.94
9654.58
9655.23
9655.87
9656.52
9657.16
9657.8
9658.45
9659.09
9659.74
9660.38
9661.03
9661.67
9662.32
9662.96
9663.61
9664.25
9664.9
9665.54
9666.19
9666.83
9667.48
9668.12
9668.77
9669.42
9670.06
9670.71
9671.35
9672
9672.64
9673.29
9673.94
9674.58
9675.23
9675.87
9676.52
9677.17
9677.81
9678.46
9679.1
9679.75
9680.4
9681.04
9681.69
9682.34
9682.98
9683.63
9684.28
9684.92
9685.57
9686.22
9686.86
9687.51
9688.16
9688.8
9689.45
9690.1
9690.75
9691.39
9692.04
9692.69
9693.33
9693.98
9694.63
9695.28
9695.92
9696.57
9697.22
9697.87
9698.52
9699.16
9699.81
9700.46
9701.11
9701.76
9702.4
9703.05
9703.7
9704.35
9705
9705.64
9706.29
9706.94
9707.59
9708.24
9708.89
9709.54
9710.18
9710.83
9711.48
9712.13
9712.78
9713.43
9714.08
9714.73
9715.38
9716.02
9716.67
9717.32
9717.97
9718.62
9719.27
9719.92
9720.57
9721.22
9721.87
9722.52
9723.17
9723.82
9724.47
9725.12
9725.77
9726.42
9727.07
9727.72
9728.37
9729.02
9729.67
9730.32
9730.97
9731.62
9732.27
9732.92
9733.57
9734.22
9734.87
9735.52
9736.17
9736.82
9737.48
9738.13
9738.78
9739.43
9740.08
9740.73
9741.38
9742.03
9742.68
9743.34
9743.99
9744.64
9745.29
9745.94
9746.59
9747.24
9747.9
9748.55
9749.2
9749.85
9750.5
9751.15
9751.81
9752.46
9753.11
9753.76
9754.41
9755.07
9755.72
9756.37
9757.02
9757.68
9758.33
9758.98
9759.63
9760.29
9760.94
9761.59
9762.24
9762.9
9763.55
9764.2
9764.86
9765.51
9766.16
9766.82
9767.47
9768.12
9768.77
9769.43
9770.08
9770.73
9771.39
9772.04
9772.7
9773.35
9774
9774.66
9775.31
9775.96
9776.62
9777.27
9777.93
9778.58
9779.23
9779.89
9780.54
9781.2
9781.85
9782.5
9783.16
9783.81
9784.47
9785.12
9785.78
9786.43
9787.09
9787.74
9788.4
9789.05
9789.71
9790.36
9791.02
9791.67
9792.33
9792.98
9793.64
9794.29
9794.95
9795.6
9796.26
9796.91
9797.57
9798.22
9798.88
9799.53
9800.19
9800.85
9801.5
9802.16
9802.81
9803.47
9804.13
9804.78
9805.44
9806.09
9806.75
9807.41
9808.06
9808.72
9809.38
9810.03
9810.69
9811.34
9812
9812.66
9813.31
9813.97
9814.63
9815.29
9815.94
9816.6
9817.26
9817.91
9818.57
9819.23
9819.88
9820.54
9821.2
9821.86
9822.51
9823.17
9823.83
9824.49
9825.14
9825.8
9826.46
9827.12
9827.77
9828.43
9829.09
9829.75
9830.41
9831.06
9831.72
9832.38
9833.04
9833.7
9834.36
9835.01
9835.67
9836.33
9836.99
9837.65
9838.31
9838.97
9839.62
9840.28
9840.94
9841.6
9842.26
9842.92
9843.58
9844.24
9844.9
9845.55
9846.21
9846.87
9847.53
9848.19
9848.85
9849.51
9850.17
9850.83
9851.49
9852.15
9852.81
9853.47
9854.13
9854.79
9855.45
9856.11
9856.77
9857.43
9858.09
9858.75
9859.41
9860.07
9860.73
9861.39
9862.05
9862.71
9863.37
9864.03
9864.69
9865.35
9866.01
9866.67
9867.33
9868
9868.66
9869.32
9869.98
9870.64
9871.3
9871.96
9872.62
9873.28
9873.95
9874.61
9875.27
9875.93
9876.59
9877.25
9877.91
9878.58
9879.24
9879.9
9880.56
9881.22
9881.89
9882.55
9883.21
9883.87
9884.53
9885.2
9885.86
9886.52
9887.18
9887.84
9888.51
9889.17
9889.83
9890.49
9891.16
9891.82
9892.48
9893.15
9893.81
9894.47
9895.13
9895.8
9896.46
9897.12
9897.79
9898.45
9899.11
9899.78
9900.44
9901.1
9901.77
9902.43
9903.09
9903.76
9904.42
9905.08
9905.75
9906.41
9907.08
9907.74
9908.4
9909.07
9909.73
9910.4
9911.06
9911.72
9912.39
9913.05
9913.72
9914.38
9915.05
9915.71
9916.37
9917.04
9917.7
9918.37
9919.03
9919.7
9920.36
9921.03
9921.69
9922.36
9923.02
9923.69
9924.35
9925.02
9925.68
9926.35
9927.01
9927.68
9928.35
9929.01
9929.68
9930.34
9931.01
9931.67
9932.34
9933
9933.67
9934.34
9935
9935.67
9936.33
9937
9937.67
9938.33
9939
9939.67
9940.33
9941
9941.66
9942.33
9943
9943.66
9944.33
9945
9945.66
9946.33
9947
9947.67
9948.33
9949
9949.67
9950.33
9951
9951.67
9952.34
9953
9953.67
9954.34
9955
9955.67
9956.34
9957.01
9957.68
9958.34
9959.01
9959.68
9960.35
9961.01
9961.68
9962.35
9963.02
9963.69
9964.35
9965.02
9965.69
9966.36
9967.03
9967.7
9968.37
9969.03
9969.7
9970.37
9971.04
9971.71
9972.38
9973.05
9973.72
9974.38
9975.05
9975.72
9976.39
9977.06
9977.73
9978.4
9979.07
9979.74
9980.41
9981.08
9981.75
9982.42
9983.09
9983.75
9984.42
9985.09
9985.76
9986.43
9987.1
9987.77
9988.44
9989.11
9989.78
9990.45
9991.12
9991.8
9992.47
9993.14
9993.81
9994.48
9995.15
9995.82
9996.49
9997.16
9997.83
9998.5
9999.17
9999.84
10000.5
10001.2
10001.9
10002.5
10003.2
10003.9
10004.5
10005.2
10005.9
10006.6
10007.2
10007.9
10008.6
10009.2
10009.9
10010.6
10011.3
10011.9
10012.6
10013.3
10013.9
10014.6
10015.3
10016
10016.6
10017.3
10018
10018.6
10019.3
10020
10020.7
10021.3
10022
10022.7
10023.4
10024
10024.7
10025.4
10026
10026.7
10027.4
10028.1
10028.7
10029.4
10030.1
10030.8
10031.4
10032.1
10032.8
10033.5
10034.1
10034.8
10035.5
10036.1
10036.8
10037.5
10038.2
10038.8
10039.5
10040.2
10040.9
10041.5
10042.2
10042.9
10043.6
10044.2
10044.9
10045.6
10046.3
10046.9
10047.6
10048.3
10049
10049.6
10050.3
10051
10051.7
10052.3
10053
10053.7
10054.4
10055
10055.7
10056.4
10057.1
10057.7
10058.4
10059.1
10059.8
10060.4
10061.1
10061.8
10062.5
10063.1
10063.8
10064.5
10065.2
10065.8
10066.5
10067.2
10067.9
10068.5
10069.2
10069.9
10070.6
10071.3
10071.9
10072.6
10073.3
10074
10074.6
10075.3
10076
10076.7
10077.3
10078
10078.7
10079.4
10080.1
10080.7
10081.4
10082.1
10082.8
10083.4
10084.1
10084.8
10085.5
10086.1
10086.8
10087.5
10088.2
10088.9
10089.5
10090.2
10090.9
10091.6
10092.2
10092.9
10093.6
10094.3
10095
10095.6
10096.3
10097
10097.7
10098.4
10099
10099.7
10100.4
10101.1
10101.7
10102.4
10103.1
10103.8
10104.5
10105.1
10105.8
10106.5
10107.2
10107.9
10108.5
10109.2
10109.9
10110.6
10111.3
10111.9
10112.6
10113.3
10114
10114.7
10115.3
10116
10116.7
10117.4
10118.1
10118.7
10119.4
10120.1
10120.8
10121.5
10122.1
10122.8
10123.5
10124.2
10124.9
10125.5
10126.2
10126.9
10127.6
10128.3
10128.9
10129.6
10130.3
10131
10131.7
10132.3
10133
10133.7
10134.4
10135.1
10135.8
10136.4
10137.1
10137.8
10138.5
10139.2
10139.8
10140.5
10141.2
10141.9
10142.6
10143.2
10143.9
10144.6
10145.3
10146
10146.7
10147.3
10148
10148.7
10149.4
10150.1
10150.8
10151.4
10152.1
10152.8
10153.5
10154.2
10154.9
10155.5
10156.2
10156.9
10157.6
10158.3
10158.9
10159.6
10160.3
10161
10161.7
10162.4
10163
10163.7
10164.4
10165.1
10165.8
10166.5
10167.2
10167.8
10168.5
10169.2
10169.9
10170.6
10171.3
10171.9
10172.6
10173.3
10174
10174.7
10175.4
10176
10176.7
10177.4
10178.1
10178.8
10179.5
10180.2
10180.8
10181.5
10182.2
10182.9
10183.6
10184.3
10184.9
10185.6
10186.3
10187
10187.7
10188.4
10189.1
10189.7
10190.4
10191.1
10191.8
10192.5
10193.2
10193.9
10194.5
10195.2
10195.9
10196.6
10197.3
10198
10198.7
10199.3
10200
10200.7
10201.4
10202.1
10202.8
10203.5
10204.2
10204.8
10205.5
10206.2
10206.9
10207.6
10208.3
10209
10209.6
10210.3
10211
10211.7
10212.4
10213.1
10213.8
10214.5
10215.1
10215.8
10216.5
10217.2
10217.9
10218.6
10219.3
10220
10220.6
10221.3
10222
10222.7
10223.4
10224.1
10224.8
10225.5
10226.2
10226.8
10227.5
10228.2
10228.9
10229.6
10230.3
10231
10231.7
10232.4
10233
10233.7
10234.4
10235.1
10235.8
10236.5
10237.2
10237.9
10238.6
10239.2
10239.9
10240.6
10241.3
10242
10242.7
10243.4
10244.1
10244.8
10245.4
10246.1
10246.8
10247.5
10248.2
10248.9
10249.6
10250.3
10251
10251.7
10252.3
10253
10253.7
10254.4
10255.1
10255.8
10256.5
10257.2
10257.9
10258.6
10259.3
10259.9
10260.6
10261.3
10262
10262.7
10263.4
10264.1
10264.8
10265.5
10266.2
10266.9
10267.5
10268.2
10268.9
10269.6
10270.3
10271
10271.7
10272.4
10273.1
10273.8
10274.5
10275.2
10275.8
10276.5
10277.2
10277.9
10278.6
10279.3
10280
10280.7
10281.4
10282.1
10282.8
10283.5
10284.2
10284.9
10285.5
10286.2
10286.9
10287.6
10288.3
10289
10289.7
10290.4
10291.1
10291.8
10292.5
10293.2
10293.9
10294.6
10295.2
10295.9
10296.6
10297.3
10298
10298.7
10299.4
10300.1
10300.8
10301.5
10302.2
10302.9
10303.6
10304.3
10305
10305.7
10306.4
10307
10307.7
10308.4
10309.1
10309.8
10310.5
10311.2
10311.9
10312.6
10313.3
10314
10314.7
10315.4
10316.1
10316.8
10317.5
10318.2
10318.9
10319.6
10320.3
10320.9
10321.6
10322.3
10323
10323.7
10324.4
10325.1
10325.8
10326.5
10327.2
10327.9
10328.6
10329.3
10330
10330.7
10331.4
10332.1
10332.8
10333.5
10334.2
10334.9
10335.6
10336.3
10337
10337.7
10338.4
10339.1
10339.7
10340.4
10341.1
10341.8
10342.5
10343.2
10343.9
10344.6
10345.3
10346
10346.7
10347.4
10348.1
10348.8
10349.5
10350.2
10350.9
10351.6
10352.3
10353
10353.7
10354.4
10355.1
10355.8
10356.5
10357.2
10357.9
10358.6
10359.3
10360
10360.7
10361.4
10362.1
10362.8
10363.5
10364.2
10364.9
10365.6
10366.3
10367
10367.7
10368.4
10369.1
10369.8
10370.5
10371.2
10371.9
10372.6
10373.3
10374
10374.7
10375.4
10376.1
10376.8
10377.5
10378.2
10378.9
10379.6
10380.3
10381
10381.7
10382.4
10383.1
10383.8
10384.5
10385.2
10385.9
10386.6
10387.3
10388
10388.7
10389.4
10390.1
10390.8
10391.5
10392.2
10392.9
10393.6
10394.3
10395
10395.7
10396.4
10397.1
10397.8
10398.5
10399.2
10399.9
10400.6
10401.3
10402
10402.7
10403.4
10404.1
10404.8
10405.5
10406.2
10406.9
10407.6
10408.3
10409
10409.7
10410.4
10411.1
10411.8
10412.5
10413.2
10413.9
10414.6
10415.3
10416
10416.7
10417.4
10418.1
10418.8
10419.5
10420.3
10421
10421.7
10422.4
10423.1
10423.8
10424.5
10425.2
10425.9
10426.6
10427.3
10428
10428.7
10429.4
10430.1
10430.8
10431.5
10432.2
10432.9
10433.6
10434.3
10435
10435.7
10436.4
10437.1
10437.8
10438.5
10439.3
10440
10440.7
10441.4
10442.1
10442.8
10443.5
10444.2
10444.9
10445.6
10446.3
10447
10447.7
10448.4
10449.1
10449.8
10450.5
10451.2
10451.9
10452.7
10453.4
10454.1
10454.8
10455.5
10456.2
10456.9
10457.6
10458.3
10459
10459.7
10460.4
10461.1
10461.8
10462.5
10463.2
10463.9
10464.7
10465.4
10466.1
10466.8
10467.5
10468.2
10468.9
10469.6
10470.3
10471
10471.7
10472.4
10473.1
10473.8
10474.5
10475.3
10476
10476.7
10477.4
10478.1
10478.8
10479.5
10480.2
10480.9
10481.6
10482.3
10483
10483.7
10484.5
10485.2
10485.9
10486.6
10487.3
10488
10488.7
10489.4
10490.1
10490.8
10491.5
10492.2
10493
10493.7
10494.4
10495.1
10495.8
10496.5
10497.2
10497.9
10498.6
10499.3
10500
10500.8
10501.5
10502.2
10502.9
10503.6
10504.3
10505
10505.7
10506.4
10507.1
10507.8
10508.6
10509.3
10510
10510.7
10511.4
10512.1
10512.8
10513.5
10514.2
10514.9
10515.7
10516.4
10517.1
10517.8
10518.5
10519.2
10519.9
10520.6
10521.3
10522.1
10522.8
10523.5
10524.2
10524.9
10525.6
10526.3
10527
10527.7
10528.5
10529.2
10529.9
10530.6
10531.3
10532
10532.7
10533.4
10534.1
10534.9
10535.6
10536.3
10537
10537.7
10538.4
10539.1
10539.8
10540.6
10541.3
10542
10542.7
10543.4
10544.1
10544.8
10545.5
10546.3
10547
10547.7
10548.4
10549.1
10549.8
10550.5
10551.2
10552
10552.7
10553.4
10554.1
10554.8
10555.5
10556.2
10557
10557.7
10558.4
10559.1
10559.8
10560.5
10561.2
10561.9
10562.7
10563.4
10564.1
10564.8
10565.5
10566.2
10566.9
10567.7
10568.4
10569.1
10569.8
10570.5
10571.2
10571.9
10572.7
10573.4
10574.1
10574.8
10575.5
10576.2
10577
10577.7
10578.4
10579.1
10579.8
10580.5
10581.2
10582
10582.7
10583.4
10584.1
10584.8
10585.5
10586.3
10587
10587.7
10588.4
10589.1
10589.8
10590.5
10591.3
10592
10592.7
10593.4
10594.1
10594.8