/*--------------------------------*- C++ -*----------------------------------*\
  =========                 |
  \\      /  F ield         | OpenFOAM: The Open Source CFD Toolbox
   \\    /   O peration     | Website:  https://openfoam.org
    \\  /    A nd           | Version:  9
     \\/     M anipulation  |
\*---------------------------------------------------------------------------*/
FoamFile
{
    format      ascii;
    class       volScalarField;
    location    "0.046";
    object      p_0;
}
// * * * * * * * * * * * * * * * * * * * * * * * * * * * * * * * * * * * * * //

dimensions      [1 -1 -2 0 0 0 0];

internalField   nonuniform List<scalar> 
10000
(
8956.13
8956.08
8955.99
8955.91
8955.85
8955.78
8955.72
8955.65
8955.59
8955.52
8955.45
8955.39
8955.32
8955.25
8955.19
8955.12
8955.06
8954.99
8954.92
8954.86
8954.79
8954.73
8954.66
8954.59
8954.53
8954.46
8954.4
8954.33
8954.27
8954.2
8954.13
8954.07
8954
8953.94
8953.87
8953.81
8953.74
8953.67
8953.61
8953.54
8953.48
8953.41
8953.35
8953.28
8953.22
8953.15
8953.09
8953.02
8952.95
8952.89
8952.82
8952.76
8952.69
8952.63
8952.56
8952.5
8952.43
8952.37
8952.3
8952.24
8952.17
8952.11
8952.04
8951.98
8951.91
8951.85
8951.78
8951.72
8951.65
8951.59
8951.52
8951.46
8951.39
8951.33
8951.26
8951.2
8951.14
8951.07
8951.01
8950.94
8950.88
8950.81
8950.75
8950.68
8950.62
8950.56
8950.49
8950.43
8950.36
8950.3
8950.23
8950.17
8950.1
8950.04
8949.98
8949.91
8949.85
8949.78
8949.72
8949.66
8949.59
8949.53
8949.46
8949.4
8949.34
8949.27
8949.21
8949.14
8949.08
8949.02
8948.95
8948.89
8948.83
8948.76
8948.7
8948.63
8948.57
8948.51
8948.44
8948.38
8948.32
8948.25
8948.19
8948.13
8948.06
8948
8947.94
8947.87
8947.81
8947.75
8947.68
8947.62
8947.56
8947.49
8947.43
8947.37
8947.3
8947.24
8947.18
8947.11
8947.05
8946.99
8946.92
8946.86
8946.8
8946.74
8946.67
8946.61
8946.55
8946.48
8946.42
8946.36
8946.3
8946.23
8946.17
8946.11
8946.05
8945.98
8945.92
8945.86
8945.8
8945.73
8945.67
8945.61
8945.55
8945.48
8945.42
8945.36
8945.3
8945.23
8945.17
8945.11
8945.05
8944.99
8944.92
8944.86
8944.8
8944.74
8944.68
8944.61
8944.55
8944.49
8944.43
8944.37
8944.3
8944.24
8944.18
8944.12
8944.06
8944
8943.93
8943.87
8943.81
8943.75
8943.69
8943.63
8943.56
8943.5
8943.44
8943.38
8943.32
8943.26
8943.2
8943.13
8943.07
8943.01
8942.95
8942.89
8942.83
8942.77
8942.71
8942.65
8942.58
8942.52
8942.46
8942.4
8942.34
8942.28
8942.22
8942.16
8942.1
8942.04
8941.98
8941.92
8941.85
8941.79
8941.73
8941.67
8941.61
8941.55
8941.49
8941.43
8941.37
8941.31
8941.25
8941.19
8941.13
8941.07
8941.01
8940.95
8940.89
8940.83
8940.77
8940.71
8940.65
8940.59
8940.53
8940.47
8940.41
8940.35
8940.29
8940.23
8940.17
8940.11
8940.05
8939.99
8939.93
8939.87
8939.81
8939.75
8939.69
8939.63
8939.57
8939.51
8939.45
8939.39
8939.34
8939.28
8939.22
8939.16
8939.1
8939.04
8938.98
8938.92
8938.86
8938.8
8938.74
8938.69
8938.63
8938.57
8938.51
8938.45
8938.39
8938.33
8938.27
8938.21
8938.16
8938.1
8938.04
8937.98
8937.92
8937.86
8937.81
8937.75
8937.69
8937.63
8937.57
8937.51
8937.46
8937.4
8937.34
8937.28
8937.22
8937.16
8937.11
8937.05
8936.99
8936.93
8936.88
8936.82
8936.76
8936.7
8936.64
8936.59
8936.53
8936.47
8936.41
8936.36
8936.3
8936.24
8936.18
8936.13
8936.07
8936.01
8935.95
8935.9
8935.84
8935.78
8935.73
8935.67
8935.61
8935.55
8935.5
8935.44
8935.38
8935.33
8935.27
8935.21
8935.16
8935.1
8935.04
8934.99
8934.93
8934.87
8934.82
8934.76
8934.7
8934.65
8934.59
8934.54
8934.48
8934.42
8934.37
8934.31
8934.26
8934.2
8934.14
8934.09
8934.03
8933.98
8933.92
8933.86
8933.81
8933.75
8933.7
8933.64
8933.59
8933.53
8933.48
8933.42
8933.36
8933.31
8933.25
8933.2
8933.14
8933.09
8933.03
8932.98
8932.92
8932.87
8932.81
8932.76
8932.7
8932.65
8932.59
8932.54
8932.48
8932.43
8932.38
8932.32
8932.27
8932.21
8932.16
8932.1
8932.05
8932
8931.94
8931.89
8931.83
8931.78
8931.72
8931.67
8931.62
8931.56
8931.51
8931.46
8931.4
8931.35
8931.29
8931.24
8931.19
8931.13
8931.08
8931.03
8930.97
8930.92
8930.87
8930.81
8930.76
8930.71
8930.66
8930.6
8930.55
8930.5
8930.44
8930.39
8930.34
8930.29
8930.23
8930.18
8930.13
8930.08
8930.02
8929.97
8929.92
8929.87
8929.82
8929.76
8929.71
8929.66
8929.61
8929.56
8929.5
8929.45
8929.4
8929.35
8929.3
8929.25
8929.19
8929.14
8929.09
8929.04
8928.99
8928.94
8928.89
8928.84
8928.78
8928.73
8928.68
8928.63
8928.58
8928.53
8928.48
8928.43
8928.38
8928.33
8928.28
8928.23
8928.18
8928.13
8928.08
8928.03
8927.98
8927.93
8927.88
8927.83
8927.78
8927.73
8927.68
8927.63
8927.58
8927.53
8927.48
8927.43
8927.38
8927.33
8927.28
8927.23
8927.18
8927.14
8927.09
8927.04
8926.99
8926.94
8926.89
8926.84
8926.8
8926.75
8926.7
8926.65
8926.6
8926.55
8926.51
8926.46
8926.41
8926.36
8926.31
8926.27
8926.22
8926.17
8926.12
8926.08
8926.03
8925.98
8925.93
8925.89
8925.84
8925.79
8925.75
8925.7
8925.65
8925.61
8925.56
8925.51
8925.47
8925.42
8925.37
8925.33
8925.28
8925.24
8925.19
8925.14
8925.1
8925.05
8925.01
8924.96
8924.92
8924.87
8924.82
8924.78
8924.73
8924.69
8924.64
8924.6
8924.55
8924.51
8924.46
8924.42
8924.38
8924.33
8924.29
8924.24
8924.2
8924.15
8924.11
8924.07
8924.02
8923.98
8923.93
8923.89
8923.85
8923.8
8923.76
8923.72
8923.67
8923.63
8923.59
8923.55
8923.5
8923.46
8923.42
8923.37
8923.33
8923.29
8923.25
8923.2
8923.16
8923.12
8923.08
8923.04
8923
8922.95
8922.91
8922.87
8922.83
8922.79
8922.75
8922.71
8922.67
8922.62
8922.58
8922.54
8922.5
8922.46
8922.42
8922.38
8922.34
8922.3
8922.26
8922.22
8922.18
8922.14
8922.1
8922.06
8922.02
8921.98
8921.95
8921.91
8921.87
8921.83
8921.79
8921.75
8921.71
8921.67
8921.64
8921.6
8921.56
8921.52
8921.48
8921.45
8921.41
8921.37
8921.33
8921.3
8921.26
8921.22
8921.19
8921.15
8921.11
8921.08
8921.04
8921
8920.97
8920.93
8920.89
8920.86
8920.82
8920.79
8920.75
8920.72
8920.68
8920.65
8920.61
8920.58
8920.54
8920.51
8920.47
8920.44
8920.4
8920.37
8920.34
8920.3
8920.27
8920.23
8920.2
8920.17
8920.13
8920.1
8920.07
8920.04
8920
8919.97
8919.94
8919.91
8919.87
8919.84
8919.81
8919.78
8919.75
8919.71
8919.68
8919.65
8919.62
8919.59
8919.56
8919.53
8919.5
8919.47
8919.44
8919.41
8919.38
8919.35
8919.32
8919.29
8919.26
8919.23
8919.2
8919.17
8919.14
8919.12
8919.09
8919.06
8919.03
8919
8918.98
8918.95
8918.92
8918.89
8918.87
8918.84
8918.81
8918.79
8918.76
8918.73
8918.71
8918.68
8918.66
8918.63
8918.6
8918.58
8918.55
8918.53
8918.5
8918.48
8918.46
8918.43
8918.41
8918.38
8918.36
8918.34
8918.31
8918.29
8918.27
8918.24
8918.22
8918.2
8918.18
8918.15
8918.13
8918.11
8918.09
8918.07
8918.05
8918.02
8918
8917.98
8917.96
8917.94
8917.92
8917.9
8917.88
8917.86
8917.84
8917.83
8917.81
8917.79
8917.77
8917.75
8917.73
8917.72
8917.7
8917.68
8917.66
8917.65
8917.63
8917.61
8917.6
8917.58
8917.56
8917.55
8917.53
8917.52
8917.5
8917.49
8917.47
8917.46
8917.44
8917.43
8917.42
8917.4
8917.39
8917.38
8917.36
8917.35
8917.34
8917.33
8917.31
8917.3
8917.29
8917.28
8917.27
8917.26
8917.25
8917.24
8917.23
8917.22
8917.21
8917.2
8917.19
8917.18
8917.17
8917.17
8917.16
8917.15
8917.14
8917.14
8917.13
8917.12
8917.12
8917.11
8917.1
8917.1
8917.09
8917.09
8917.08
8917.08
8917.07
8917.07
8917.07
8917.06
8917.06
8917.06
8917.05
8917.05
8917.05
8917.05
8917.04
8917.04
8917.04
8917.04
8917.04
8917.04
8917.04
8917.04
8917.04
8917.04
8917.04
8917.04
8917.04
8917.05
8917.05
8917.05
8917.06
8917.06
8917.06
8917.07
8917.07
8917.08
8917.08
8917.09
8917.09
8917.1
8917.11
8917.11
8917.12
8917.13
8917.14
8917.15
8917.15
8917.16
8917.17
8917.18
8917.19
8917.2
8917.21
8917.22
8917.23
8917.25
8917.26
8917.27
8917.28
8917.3
8917.31
8917.32
8917.34
8917.35
8917.37
8917.38
8917.4
8917.42
8917.43
8917.45
8917.47
8917.48
8917.5
8917.52
8917.54
8917.56
8917.58
8917.6
8917.62
8917.64
8917.66
8917.68
8917.7
8917.73
8917.75
8917.77
8917.8
8917.82
8917.85
8917.87
8917.9
8917.92
8917.95
8917.98
8918
8918.03
8918.06
8918.09
8918.12
8918.15
8918.18
8918.21
8918.24
8918.27
8918.3
8918.34
8918.37
8918.4
8918.44
8918.47
8918.5
8918.54
8918.58
8918.61
8918.65
8918.69
8918.72
8918.76
8918.8
8918.84
8918.88
8918.92
8918.96
8919
8919.04
8919.09
8919.13
8919.17
8919.22
8919.26
8919.31
8919.35
8919.4
8919.45
8919.49
8919.54
8919.59
8919.64
8919.69
8919.74
8919.79
8919.84
8919.89
8919.95
8920
8920.05
8920.11
8920.16
8920.22
8920.27
8920.33
8920.39
8920.45
8920.5
8920.56
8920.62
8920.68
8920.74
8920.81
8920.87
8920.93
8921
8921.06
8921.12
8921.19
8921.26
8921.32
8921.39
8921.46
8921.53
8921.6
8921.67
8921.74
8921.81
8921.88
8921.96
8922.03
8922.11
8922.18
8922.26
8922.33
8922.41
8922.49
8922.57
8922.65
8922.73
8922.81
8922.89
8922.98
8923.06
8923.14
8923.23
8923.31
8923.4
8923.49
8923.58
8923.67
8923.75
8923.85
8923.94
8924.03
8924.12
8924.22
8924.31
8924.41
8924.5
8924.6
8924.7
8924.8
8924.9
8925
8925.1
8925.2
8925.3
8925.41
8925.51
8925.62
8925.72
8925.83
8925.94
8926.05
8926.16
8926.27
8926.38
8926.5
8926.61
8926.73
8926.84
8926.96
8927.08
8927.2
8927.32
8927.44
8927.56
8927.68
8927.8
8927.93
8928.05
8928.18
8928.31
8928.44
8928.57
8928.7
8928.83
8928.96
8929.1
8929.23
8929.37
8929.5
8929.64
8929.78
8929.92
8930.06
8930.2
8930.35
8930.49
8930.64
8930.78
8930.93
8931.08
8931.23
8931.38
8931.53
8931.69
8931.84
8932
8932.16
8932.31
8932.47
8932.63
8932.8
8932.96
8933.12
8933.29
8933.45
8933.62
8933.79
8933.96
8934.13
8934.3
8934.48
8934.65
8934.83
8935.01
8935.19
8935.37
8935.55
8935.73
8935.92
8936.1
8936.29
8936.48
8936.66
8936.86
8937.05
8937.24
8937.43
8937.63
8937.83
8938.03
8938.23
8938.43
8938.63
8938.84
8939.04
8939.25
8939.46
8939.67
8939.88
8940.09
8940.3
8940.52
8940.74
8940.96
8941.18
8941.4
8941.62
8941.84
8942.07
8942.3
8942.53
8942.76
8942.99
8943.22
8943.46
8943.69
8943.93
8944.17
8944.41
8944.65
8944.9
8945.14
8945.39
8945.64
8945.89
8946.14
8946.39
8946.65
8946.9
8947.16
8947.42
8947.68
8947.95
8948.21
8948.48
8948.74
8949.01
8949.29
8949.56
8949.83
8950.11
8950.39
8950.67
8950.95
8951.23
8951.51
8951.8
8952.09
8952.38
8952.67
8952.96
8953.26
8953.55
8953.85
8954.15
8954.45
8954.75
8955.06
8955.37
8955.67
8955.98
8956.3
8956.61
8956.92
8957.24
8957.56
8957.88
8958.2
8958.53
8958.85
8959.18
8959.51
8959.84
8960.17
8960.51
8960.84
8961.18
8961.52
8961.86
8962.21
8962.55
8962.9
8963.25
8963.6
8963.95
8964.31
8964.66
8965.02
8965.38
8965.74
8966.1
8966.47
8966.84
8967.2
8967.57
8967.95
8968.32
8968.7
8969.07
8969.45
8969.83
8970.22
8970.6
8970.99
8971.38
8971.77
8972.16
8972.55
8972.95
8973.34
8973.74
8974.14
8974.55
8974.95
8975.36
8975.76
8976.17
8976.59
8977
8977.41
8977.83
8978.25
8978.67
8979.09
8979.51
8979.94
8980.37
8980.79
8981.22
8981.66
8982.09
8982.53
8982.96
8983.4
8983.84
8984.28
8984.73
8985.17
8985.62
8986.07
8986.52
8986.97
8987.42
8987.88
8988.34
8988.79
8989.25
8989.72
8990.18
8990.64
8991.11
8991.58
8992.05
8992.52
8992.99
8993.47
8993.94
8994.42
8994.9
8995.38
8995.86
8996.34
8996.83
8997.31
8997.8
8998.29
8998.78
8999.27
8999.76
9000.26
9000.75
9001.25
9001.75
9002.25
9002.75
9003.26
9003.76
9004.26
9004.77
9005.28
9005.79
9006.3
9006.81
9007.32
9007.84
9008.35
9008.87
9009.39
9009.91
9010.43
9010.95
9011.47
9012
9012.52
9013.05
9013.58
9014.11
9014.64
9015.17
9015.7
9016.23
9016.77
9017.3
9017.84
9018.37
9018.91
9019.45
9019.99
9020.53
9021.07
9021.62
9022.16
9022.71
9023.25
9023.8
9024.35
9024.9
9025.45
9026
9026.55
9027.1
9027.65
9028.21
9028.76
9029.32
9029.87
9030.43
9030.99
9031.55
9032.11
9032.67
9033.23
9033.79
9034.35
9034.91
9035.48
9036.04
9036.61
9037.17
9037.74
9038.31
9038.88
9039.44
9040.01
9040.58
9041.15
9041.72
9042.3
9042.87
9043.44
9044.01
9044.59
9045.16
9045.74
9046.31
9046.89
9047.46
9048.04
9048.62
9049.2
9049.77
9050.35
9050.93
9051.51
9052.09
9052.67
9053.26
9053.84
9054.42
9055
9055.58
9056.17
9056.75
9057.33
9057.92
9058.5
9059.09
9059.67
9060.26
9060.85
9061.43
9062.02
9062.61
9063.19
9063.78
9064.37
9064.96
9065.55
9066.14
9066.73
9067.32
9067.91
9068.5
9069.09
9069.68
9070.27
9070.86
9071.45
9072.04
9072.63
9073.23
9073.82
9074.41
9075.01
9075.6
9076.19
9076.79
9077.38
9077.97
9078.57
9079.16
9079.76
9080.35
9080.95
9081.54
9082.14
9082.73
9083.33
9083.92
9084.52
9085.12
9085.71
9086.31
9086.9
9087.5
9088.1
9088.7
9089.29
9089.89
9090.49
9091.09
9091.68
9092.28
9092.88
9093.48
9094.08
9094.67
9095.27
9095.87
9096.47
9097.07
9097.67
9098.27
9098.87
9099.47
9100.07
9100.66
9101.26
9101.86
9102.46
9103.06
9103.66
9104.26
9104.86
9105.46
9106.07
9106.67
9107.27
9107.87
9108.47
9109.07
9109.67
9110.27
9110.87
9111.47
9112.07
9112.68
9113.28
9113.88
9114.48
9115.08
9115.68
9116.29
9116.89
9117.49
9118.09
9118.69
9119.3
9119.9
9120.5
9121.1
9121.7
9122.31
9122.91
9123.51
9124.11
9124.72
9125.32
9125.92
9126.53
9127.13
9127.73
9128.34
9128.94
9129.54
9130.15
9130.75
9131.35
9131.96
9132.56
9133.16
9133.77
9134.37
9134.97
9135.58
9136.18
9136.79
9137.39
9137.99
9138.6
9139.2
9139.81
9140.41
9141.01
9141.62
9142.22
9142.83
9143.43
9144.04
9144.64
9145.25
9145.85
9146.45
9147.06
9147.66
9148.27
9148.87
9149.48
9150.08
9150.69
9151.29
9151.9
9152.51
9153.11
9153.72
9154.32
9154.93
9155.53
9156.14
9156.74
9157.35
9157.96
9158.56
9159.17
9159.77
9160.38
9160.98
9161.59
9162.2
9162.8
9163.41
9164.01
9164.62
9165.23
9165.83
9166.44
9167.05
9167.65
9168.26
9168.87
9169.47
9170.08
9170.69
9171.29
9171.9
9172.51
9173.11
9173.72
9174.33
9174.93
9175.54
9176.15
9176.76
9177.36
9177.97
9178.58
9179.19
9179.79
9180.4
9181.01
9181.62
9182.22
9182.83
9183.44
9184.05
9184.65
9185.26
9185.87
9186.48
9187.09
9187.69
9188.3
9188.91
9189.52
9190.13
9190.73
9191.34
9191.95
9192.56
9193.17
9193.78
9194.39
9194.99
9195.6
9196.21
9196.82
9197.43
9198.04
9198.65
9199.26
9199.87
9200.47
9201.08
9201.69
9202.3
9202.91
9203.52
9204.13
9204.74
9205.35
9205.96
9206.57
9207.18
9207.79
9208.4
9209.01
9209.62
9210.23
9210.84
9211.45
9212.06
9212.67
9213.28
9213.89
9214.5
9215.11
9215.72
9216.33
9216.94
9217.55
9218.16
9218.77
9219.38
9219.99
9220.6
9221.21
9221.82
9222.43
9223.04
9223.65
9224.26
9224.88
9225.49
9226.1
9226.71
9227.32
9227.93
9228.54
9229.15
9229.76
9230.38
9230.99
9231.6
9232.21
9232.82
9233.43
9234.05
9234.66
9235.27
9235.88
9236.49
9237.1
9237.72
9238.33
9238.94
9239.55
9240.17
9240.78
9241.39
9242
9242.61
9243.23
9243.84
9244.45
9245.06
9245.68
9246.29
9246.9
9247.51
9248.13
9248.74
9249.35
9249.97
9250.58
9251.19
9251.81
9252.42
9253.03
9253.64
9254.26
9254.87
9255.48
9256.1
9256.71
9257.32
9257.94
9258.55
9259.17
9259.78
9260.39
9261.01
9261.62
9262.23
9262.85
9263.46
9264.08
9264.69
9265.3
9265.92
9266.53
9267.15
9267.76
9268.38
9268.99
9269.6
9270.22
9270.83
9271.45
9272.06
9272.68
9273.29
9273.91
9274.52
9275.14
9275.75
9276.37
9276.98
9277.6
9278.21
9278.83
9279.44
9280.06
9280.67
9281.29
9281.9
9282.52
9283.14
9283.75
9284.37
9284.98
9285.6
9286.21
9286.83
9287.45
9288.06
9288.68
9289.29
9289.91
9290.53
9291.14
9291.76
9292.37
9292.99
9293.61
9294.22
9294.84
9295.46
9296.07
9296.69
9297.31
9297.92
9298.54
9299.16
9299.77
9300.39
9301.01
9301.62
9302.24
9302.86
9303.47
9304.09
9304.71
9305.33
9305.94
9306.56
9307.18
9307.8
9308.41
9309.03
9309.65
9310.27
9310.88
9311.5
9312.12
9312.74
9313.35
9313.97
9314.59
9315.21
9315.83
9316.45
9317.06
9317.68
9318.3
9318.92
9319.54
9320.15
9320.77
9321.39
9322.01
9322.63
9323.25
9323.87
9324.49
9325.1
9325.72
9326.34
9326.96
9327.58
9328.2
9328.82
9329.44
9330.06
9330.68
9331.29
9331.91
9332.53
9333.15
9333.77
9334.39
9335.01
9335.63
9336.25
9336.87
9337.49
9338.11
9338.73
9339.35
9339.97
9340.59
9341.21
9341.83
9342.45
9343.07
9343.69
9344.31
9344.93
9345.55
9346.17
9346.79
9347.41
9348.03
9348.66
9349.28
9349.9
9350.52
9351.14
9351.76
9352.38
9353
9353.62
9354.24
9354.86
9355.49
9356.11
9356.73
9357.35
9357.97
9358.59
9359.21
9359.84
9360.46
9361.08
9361.7
9362.32
9362.94
9363.57
9364.19
9364.81
9365.43
9366.05
9366.68
9367.3
9367.92
9368.54
9369.17
9369.79
9370.41
9371.03
9371.65
9372.28
9372.9
9373.52
9374.15
9374.77
9375.39
9376.01
9376.64
9377.26
9377.88
9378.51
9379.13
9379.75
9380.37
9381
9381.62
9382.24
9382.87
9383.49
9384.11
9384.74
9385.36
9385.99
9386.61
9387.23
9387.86
9388.48
9389.1
9389.73
9390.35
9390.98
9391.6
9392.22
9392.85
9393.47
9394.1
9394.72
9395.35
9395.97
9396.59
9397.22
9397.84
9398.47
9399.09
9399.72
9400.34
9400.97
9401.59
9402.22
9402.84
9403.47
9404.09
9404.72
9405.34
9405.97
9406.59
9407.22
9407.84
9408.47
9409.09
9409.72
9410.34
9410.97
9411.6
9412.22
9412.85
9413.47
9414.1
9414.72
9415.35
9415.98
9416.6
9417.23
9417.85
9418.48
9419.11
9419.73
9420.36
9420.99
9421.61
9422.24
9422.87
9423.49
9424.12
9424.75
9425.37
9426
9426.63
9427.25
9427.88
9428.51
9429.13
9429.76
9430.39
9431.01
9431.64
9432.27
9432.9
9433.52
9434.15
9434.78
9435.41
9436.03
9436.66
9437.29
9437.92
9438.54
9439.17
9439.8
9440.43
9441.06
9441.68
9442.31
9442.94
9443.57
9444.2
9444.82
9445.45
9446.08
9446.71
9447.34
9447.97
9448.59
9449.22
9449.85
9450.48
9451.11
9451.74
9452.37
9452.99
9453.62
9454.25
9454.88
9455.51
9456.14
9456.77
9457.4
9458.03
9458.66
9459.29
9459.92
9460.54
9461.17
9461.8
9462.43
9463.06
9463.69
9464.32
9464.95
9465.58
9466.21
9466.84
9467.47
9468.1
9468.73
9469.36
9469.99
9470.62
9471.25
9471.88
9472.51
9473.14
9473.77
9474.4
9475.03
9475.67
9476.3
9476.93
9477.56
9478.19
9478.82
9479.45
9480.08
9480.71
9481.34
9481.97
9482.61
9483.24
9483.87
9484.5
9485.13
9485.76
9486.39
9487.02
9487.66
9488.29
9488.92
9489.55
9490.18
9490.81
9491.45
9492.08
9492.71
9493.34
9493.97
9494.61
9495.24
9495.87
9496.5
9497.13
9497.77
9498.4
9499.03
9499.66
9500.3
9500.93
9501.56
9502.19
9502.83
9503.46
9504.09
9504.72
9505.36
9505.99
9506.62
9507.26
9507.89
9508.52
9509.16
9509.79
9510.42
9511.06
9511.69
9512.32
9512.96
9513.59
9514.22
9514.86
9515.49
9516.12
9516.76
9517.39
9518.02
9518.66
9519.29
9519.93
9520.56
9521.19
9521.83
9522.46
9523.1
9523.73
9524.37
9525
9525.63
9526.27
9526.9
9527.54
9528.17
9528.81
9529.44
9530.08
9530.71
9531.35
9531.98
9532.62
9533.25
9533.89
9534.52
9535.16
9535.79
9536.43
9537.06
9537.7
9538.33
9538.97
9539.6
9540.24
9540.88
9541.51
9542.15
9542.78
9543.42
9544.05
9544.69
9545.33
9545.96
9546.6
9547.23
9547.87
9548.51
9549.14
9549.78
9550.41
9551.05
9551.69
9552.32
9552.96
9553.6
9554.23
9554.87
9555.51
9556.14
9556.78
9557.42
9558.05
9558.69
9559.33
9559.96
9560.6
9561.24
9561.88
9562.51
9563.15
9563.79
9564.43
9565.06
9565.7
9566.34
9566.98
9567.61
9568.25
9568.89
9569.53
9570.16
9570.8
9571.44
9572.08
9572.72
9573.35
9573.99
9574.63
9575.27
9575.91
9576.54
9577.18
9577.82
9578.46
9579.1
9579.74
9580.38
9581.01
9581.65
9582.29
9582.93
9583.57
9584.21
9584.85
9585.49
9586.13
9586.76
9587.4
9588.04
9588.68
9589.32
9589.96
9590.6
9591.24
9591.88
9592.52
9593.16
9593.8
9594.44
9595.08
9595.72
9596.36
9597
9597.64
9598.28
9598.92
9599.56
9600.2
9600.84
9601.48
9602.12
9602.76
9603.4
9604.04
9604.68
9605.32
9605.96
9606.6
9607.24
9607.88
9608.52
9609.16
9609.8
9610.45
9611.09
9611.73
9612.37
9613.01
9613.65
9614.29
9614.93
9615.57
9616.22
9616.86
9617.5
9618.14
9618.78
9619.42
9620.07
9620.71
9621.35
9621.99
9622.63
9623.27
9623.92
9624.56
9625.2
9625.84
9626.48
9627.13
9627.77
9628.41
9629.05
9629.7
9630.34
9630.98
9631.62
9632.27
9632.91
9633.55
9634.19
9634.84
9635.48
9636.12
9636.77
9637.41
9638.05
9638.69
9639.34
9639.98
9640.62
9641.27
9641.91
9642.55
9643.2
9643.84
9644.49
9645.13
9645.77
9646.42
9647.06
9647.7
9648.35
9648.99
9649.64
9650.28
9650.92
9651.57
9652.21
9652.86
9653.5
9654.14
9654.79
9655.43
9656.08
9656.72
9657.37
9658.01
9658.66
9659.3
9659.95
9660.59
9661.24
9661.88
9662.53
9663.17
9663.82
9664.46
9665.11
9665.75
9666.4
9667.04
9667.69
9668.33
9668.98
9669.62
9670.27
9670.91
9671.56
9672.21
9672.85
9673.5
9674.14
9674.79
9675.44
9676.08
9676.73
9677.37
9678.02
9678.67
9679.31
9679.96
9680.6
9681.25
9681.9
9682.54
9683.19
9683.84
9684.48
9685.13
9685.78
9686.42
9687.07
9687.72
9688.37
9689.01
9689.66
9690.31
9690.95
9691.6
9692.25
9692.9
9693.54
9694.19
9694.84
9695.49
9696.13
9696.78
9697.43
9698.08
9698.72
9699.37
9700.02
9700.67
9701.32
9701.96
9702.61
9703.26
9703.91
9704.56
9705.21
9705.85
9706.5
9707.15
9707.8
9708.45
9709.1
9709.74
9710.39
9711.04
9711.69
9712.34
9712.99
9713.64
9714.29
9714.94
9715.59
9716.23
9716.88
9717.53
9718.18
9718.83
9719.48
9720.13
9720.78
9721.43
9722.08
9722.73
9723.38
9724.03
9724.68
9725.33
9725.98
9726.63
9727.28
9727.93
9728.58
9729.23
9729.88
9730.53
9731.18
9731.83
9732.48
9733.13
9733.78
9734.43
9735.08
9735.73
9736.38
9737.03
9737.69
9738.34
9738.99
9739.64
9740.29
9740.94
9741.59
9742.24
9742.89
9743.55
9744.2
9744.85
9745.5
9746.15
9746.8
9747.45
9748.11
9748.76
9749.41
9750.06
9750.71
9751.37
9752.02
9752.67
9753.32
9753.97
9754.63
9755.28
9755.93
9756.58
9757.23
9757.89
9758.54
9759.19
9759.84
9760.5
9761.15
9761.8
9762.46
9763.11
9763.76
9764.41
9765.07
9765.72
9766.37
9767.03
9767.68
9768.33
9768.99
9769.64
9770.29
9770.95
9771.6
9772.25
9772.91
9773.56
9774.21
9774.87
9775.52
9776.18
9776.83
9777.48
9778.14
9778.79
9779.45
9780.1
9780.75
9781.41
9782.06
9782.72
9783.37
9784.03
9784.68
9785.33
9785.99
9786.64
9787.3
9787.95
9788.61
9789.26
9789.92
9790.57
9791.23
9791.88
9792.54
9793.19
9793.85
9794.5
9795.16
9795.81
9796.47
9797.13
9797.78
9798.44
9799.09
9799.75
9800.4
9801.06
9801.72
9802.37
9803.03
9803.68
9804.34
9804.99
9805.65
9806.31
9806.96
9807.62
9808.28
9808.93
9809.59
9810.25
9810.9
9811.56
9812.21
9812.87
9813.53
9814.18
9814.84
9815.5
9816.16
9816.81
9817.47
9818.13
9818.78
9819.44
9820.1
9820.76
9821.41
9822.07
9822.73
9823.38
9824.04
9824.7
9825.36
9826.02
9826.67
9827.33
9827.99
9828.65
9829.3
9829.96
9830.62
9831.28
9831.94
9832.59
9833.25
9833.91
9834.57
9835.23
9835.89
9836.54
9837.2
9837.86
9838.52
9839.18
9839.84
9840.5
9841.16
9841.81
9842.47
9843.13
9843.79
9844.45
9845.11
9845.77
9846.43
9847.09
9847.75
9848.41
9849.07
9849.73
9850.38
9851.04
9851.7
9852.36
9853.02
9853.68
9854.34
9855
9855.66
9856.32
9856.98
9857.64
9858.3
9858.96
9859.62
9860.28
9860.94
9861.6
9862.26
9862.93
9863.59
9864.25
9864.91
9865.57
9866.23
9866.89
9867.55
9868.21
9868.87
9869.53
9870.19
9870.86
9871.52
9872.18
9872.84
9873.5
9874.16
9874.82
9875.48
9876.15
9876.81
9877.47
9878.13
9878.79
9879.45
9880.12
9880.78
9881.44
9882.1
9882.76
9883.43
9884.09
9884.75
9885.41
9886.07
9886.74
9887.4
9888.06
9888.72
9889.39
9890.05
9890.71
9891.37
9892.04
9892.7
9893.36
9894.03
9894.69
9895.35
9896.01
9896.68
9897.34
9898
9898.67
9899.33
9899.99
9900.66
9901.32
9901.98
9902.65
9903.31
9903.97
9904.64
9905.3
9905.97
9906.63
9907.29
9907.96
9908.62
9909.28
9909.95
9910.61
9911.28
9911.94
9912.61
9913.27
9913.93
9914.6
9915.26
9915.93
9916.59
9917.26
9917.92
9918.59
9919.25
9919.92
9920.58
9921.25
9921.91
9922.58
9923.24
9923.91
9924.57
9925.24
9925.9
9926.57
9927.23
9927.9
9928.56
9929.23
9929.89
9930.56
9931.23
9931.89
9932.56
9933.22
9933.89
9934.55
9935.22
9935.89
9936.55
9937.22
9937.89
9938.55
9939.22
9939.88
9940.55
9941.22
9941.88
9942.55
9943.22
9943.88
9944.55
9945.22
9945.88
9946.55
9947.22
9947.88
9948.55
9949.22
9949.89
9950.55
9951.22
9951.89
9952.55
9953.22
9953.89
9954.56
9955.22
9955.89
9956.56
9957.23
9957.89
9958.56
9959.23
9959.9
9960.57
9961.23
9961.9
9962.57
9963.24
9963.91
9964.57
9965.24
9965.91
9966.58
9967.25
9967.92
9968.58
9969.25
9969.92
9970.59
9971.26
9971.93
9972.6
9973.27
9973.93
9974.6
9975.27
9975.94
9976.61
9977.28
9977.95
9978.62
9979.29
9979.96
9980.63
9981.3
9981.97
9982.64
9983.31
9983.98
9984.64
9985.31
9985.98
9986.65
9987.32
9987.99
9988.66
9989.33
9990
9990.68
9991.35
9992.02
9992.69
9993.36
9994.03
9994.7
9995.37
9996.04
9996.71
9997.38
9998.05
9998.72
9999.39
10000.1
10000.7
10001.4
10002.1
10002.7
10003.4
10004.1
10004.8
10005.4
10006.1
10006.8
10007.4
10008.1
10008.8
10009.5
10010.1
10010.8
10011.5
10012.1
10012.8
10013.5
10014.2
10014.8
10015.5
10016.2
10016.9
10017.5
10018.2
10018.9
10019.5
10020.2
10020.9
10021.6
10022.2
10022.9
10023.6
10024.3
10024.9
10025.6
10026.3
10026.9
10027.6
10028.3
10029
10029.6
10030.3
10031
10031.7
10032.3
10033
10033.7
10034.4
10035
10035.7
10036.4
10037
10037.7
10038.4
10039.1
10039.7
10040.4
10041.1
10041.8
10042.4
10043.1
10043.8
10044.5
10045.1
10045.8
10046.5
10047.2
10047.8
10048.5
10049.2
10049.9
10050.5
10051.2
10051.9
10052.6
10053.2
10053.9
10054.6
10055.3
10055.9
10056.6
10057.3
10058
10058.6
10059.3
10060
10060.7
10061.3
10062
10062.7
10063.4
10064
10064.7
10065.4
10066.1
10066.7
10067.4
10068.1
10068.8
10069.4
10070.1
10070.8
10071.5
10072.2
10072.8
10073.5
10074.2
10074.9
10075.5
10076.2
10076.9
10077.6
10078.2
10078.9
10079.6
10080.3
10081
10081.6
10082.3
10083
10083.7
10084.3
10085
10085.7
10086.4
10087
10087.7
10088.4
10089.1
10089.8
10090.4
10091.1
10091.8
10092.5
10093.2
10093.8
10094.5
10095.2
10095.9
10096.5
10097.2
10097.9
10098.6
10099.3
10099.9
10100.6
10101.3
10102
10102.6
10103.3
10104
10104.7
10105.4
10106
10106.7
10107.4
10108.1
10108.8
10109.4
10110.1
10110.8
10111.5
10112.2
10112.8
10113.5
10114.2
10114.9
10115.6
10116.2
10116.9
10117.6
10118.3
10119
10119.6
10120.3
10121
10121.7
10122.4
10123
10123.7
10124.4
10125.1
10125.8
10126.4
10127.1
10127.8
10128.5
10129.2
10129.8
10130.5
10131.2
10131.9
10132.6
10133.3
10133.9
10134.6
10135.3
10136
10136.7
10137.3
10138
10138.7
10139.4
10140.1
10140.7
10141.4
10142.1
10142.8
10143.5
10144.2
10144.8
10145.5
10146.2
10146.9
10147.6
10148.3
10148.9
10149.6
10150.3
10151
10151.7
10152.3
10153
10153.7
10154.4
10155.1
10155.8
10156.4
10157.1
10157.8
10158.5
10159.2
10159.9
10160.5
10161.2
10161.9
10162.6
10163.3
10164
10164.6
10165.3
10166
10166.7
10167.4
10168.1
10168.7
10169.4
10170.1
10170.8
10171.5
10172.2
10172.9
10173.5
10174.2
10174.9
10175.6
10176.3
10177
10177.6
10178.3
10179
10179.7
10180.4
10181.1
10181.8
10182.4
10183.1
10183.8
10184.5
10185.2
10185.9
10186.5
10187.2
10187.9
10188.6
10189.3
10190
10190.7
10191.3
10192
10192.7
10193.4
10194.1
10194.8
10195.5
10196.1
10196.8
10197.5
10198.2
10198.9
10199.6
10200.3
10201
10201.6
10202.3
10203
10203.7
10204.4
10205.1
10205.8
10206.4
10207.1
10207.8
10208.5
10209.2
10209.9
10210.6
10211.3
10211.9
10212.6
10213.3
10214
10214.7
10215.4
10216.1
10216.8
10217.4
10218.1
10218.8
10219.5
10220.2
10220.9
10221.6
10222.3
10222.9
10223.6
10224.3
10225
10225.7
10226.4
10227.1
10227.8
10228.4
10229.1
10229.8
10230.5
10231.2
10231.9
10232.6
10233.3
10234
10234.6
10235.3
10236
10236.7
10237.4
10238.1
10238.8
10239.5
10240.2
10240.9
10241.5
10242.2
10242.9
10243.6
10244.3
10245
10245.7
10246.4
10247.1
10247.7
10248.4
10249.1
10249.8
10250.5
10251.2
10251.9
10252.6
10253.3
10254
10254.7
10255.3
10256
10256.7
10257.4
10258.1
10258.8
10259.5
10260.2
10260.9
10261.6
10262.2
10262.9
10263.6
10264.3
10265
10265.7
10266.4
10267.1
10267.8
10268.5
10269.2
10269.9
10270.5
10271.2
10271.9
10272.6
10273.3
10274
10274.7
10275.4
10276.1
10276.8
10277.5
10278.2
10278.9
10279.5
10280.2
10280.9
10281.6
10282.3
10283
10283.7
10284.4
10285.1
10285.8
10286.5
10287.2
10287.9
10288.5
10289.2
10289.9
10290.6
10291.3
10292
10292.7
10293.4
10294.1
10294.8
10295.5
10296.2
10296.9
10297.6
10298.3
10299
10299.6
10300.3
10301
10301.7
10302.4
10303.1
10303.8
10304.5
10305.2
10305.9
10306.6
10307.3
10308
10308.7
10309.4
10310.1
10310.8
10311.4
10312.1
10312.8
10313.5
10314.2
10314.9
10315.6
10316.3
10317
10317.7
10318.4
10319.1
10319.8
10320.5
10321.2
10321.9
10322.6
10323.3
10324
10324.7
10325.4
10326.1
10326.7
10327.4
10328.1
10328.8
10329.5
10330.2
10330.9
10331.6
10332.3
10333
10333.7
10334.4
10335.1
10335.8
10336.5
10337.2
10337.9
10338.6
10339.3
10340
10340.7
10341.4
10342.1
10342.8
10343.5
10344.2
10344.9
10345.6
10346.3
10347
10347.7
10348.3
10349
10349.7
10350.4
10351.1
10351.8
10352.5
10353.2
10353.9
10354.6
10355.3
10356
10356.7
10357.4
10358.1
10358.8
10359.5
10360.2
10360.9
10361.6
10362.3
10363
10363.7
10364.4
10365.1
10365.8
10366.5
10367.2
10367.9
10368.6
10369.3
10370
10370.7
10371.4
10372.1
10372.8
10373.5
10374.2
10374.9
10375.6
10376.3
10377
10377.7
10378.4
10379.1
10379.8
10380.5
10381.2
10381.9
10382.6
10383.3
10384
10384.7
10385.4
10386.1
10386.8
10387.5
10388.2
10388.9
10389.6
10390.3
10391
10391.7
10392.4
10393.1
10393.8
10394.5
10395.2
10395.9
10396.6
10397.3
10398
10398.7
10399.4
10400.1
10400.8
10401.5
10402.2
10402.9
10403.6
10404.3
10405
10405.7
10406.4
10407.1
10407.8
10408.5
10409.2
10409.9
10410.7
10411.4
10412.1
10412.8
10413.5
10414.2
10414.9
10415.6
10416.3
10417
10417.7
10418.4
10419.1
10419.8
10420.5
10421.2
10421.9
10422.6
10423.3
10424
10424.7
10425.4
10426.1
10426.8
10427.5
10428.2
10428.9
10429.6
10430.3
10431
10431.7
10432.4
10433.2
10433.9
10434.6
10435.3
10436
10436.7
10437.4
10438.1
10438.8
10439.5
10440.2
10440.9
10441.6
10442.3
10443
10443.7
10444.4
10445.1
10445.8
10446.5
10447.2
10448
10448.7
10449.4
10450.1
10450.8
10451.5
10452.2
10452.9
10453.6
10454.3
10455
10455.7
10456.4
10457.1
10457.8
10458.5
10459.2
10459.9
10460.7
10461.4
10462.1
10462.8
10463.5
10464.2
10464.9
10465.6
10466.3
10467
10467.7
10468.4
10469.1
10469.8
10470.5
10471.3
10472
10472.7
10473.4
10474.1
10474.8
10475.5
10476.2
10476.9
10477.6
10478.3
10479
10479.7
10480.4
10481.2
10481.9
10482.6
10483.3
10484
10484.7
10485.4
10486.1
10486.8
10487.5
10488.2
10488.9
10489.7
10490.4
10491.1
10491.8
10492.5
10493.2
10493.9
10494.6
10495.3
10496
10496.7
10497.4
10498.2
10498.9
10499.6
10500.3
10501
10501.7
10502.4
10503.1
10503.8
10504.5
10505.3
10506
10506.7
10507.4
10508.1
10508.8
10509.5
10510.2
10510.9
10511.6
10512.4
10513.1
10513.8
10514.5
10515.2
10515.9
10516.6
10517.3
10518
10518.7
10519.5
10520.2
10520.9
10521.6
10522.3
10523
10523.7
10524.4
10525.1
10525.9
10526.6
10527.3
10528
10528.7
10529.4
10530.1
10530.8
10531.5
10532.3
10533
10533.7
10534.4
10535.1
10535.8
10536.5
10537.2
10538
10538.7
10539.4
10540.1
10540.8
10541.5
10542.2
10542.9
10543.6
10544.4
10545.1
10545.8
10546.5
10547.2
10547.9
10548.6
10549.4
10550.1
10550.8
10551.5
10552.2
10552.9
10553.6
10554.3
10555.1
10555.8
10556.5
10557.2
10557.9
10558.6
10559.3
10560.1
10560.8
10561.5
10562.2
10562.9
10563.6
10564.3
10565
10565.8
10566.5
10567.2
10567.9
10568.6
10569.3
10570
10570.8
10571.5
10572.2
10572.9
10573.6
10574.3
10575.1
10575.8
10576.5
10577.2
10577.9
10578.6
10579.3
10580.1
10580.8
10581.5
10582.2
10582.9
10583.6
10584.4
10585.1
10585.8
10586.5
10587.2
10587.9
10588.6
10589.4
10590.1
10590.8
10591.5
10592.2
10592.9