/*--------------------------------*- C++ -*----------------------------------*\
  =========                 |
  \\      /  F ield         | OpenFOAM: The Open Source CFD Toolbox
   \\    /   O peration     | Website:  https://openfoam.org
    \\  /    A nd           | Version:  9
     \\/     M anipulation  |
\*---------------------------------------------------------------------------*/
FoamFile
{
    format      ascii;
    class       surfaceScalarField;
    location    "0.005";
    object      phi;
}
// * * * * * * * * * * * * * * * * * * * * * * * * * * * * * * * * * * * * * //

dimensions      [0 3 -1 0 0 0 0];

internalField   nonuniform List<scalar> 
99
(
1.32439e-22
1.32439e-22
1.32439e-22
1.32439e-22
1.32439e-22
1.32439e-22
1.32439e-22
1.32439e-22
1.32439e-22
1.32439e-22
1.32439e-22
1.32439e-22
1.32439e-22
1.32439e-22
1.32439e-22
1.32439e-22
1.32439e-22
1.32439e-22
1.32439e-22
1.32439e-22
1.32439e-22
1.32439e-22
1.32439e-22
1.32439e-22
1.32439e-22
1.32439e-22
1.32439e-22
1.32439e-22
1.32439e-22
1.32439e-22
1.32439e-22
1.32439e-22
1.32439e-22
1.32439e-22
1.32439e-22
1.32438e-22
1.32438e-22
1.32438e-22
1.32438e-22
1.32438e-22
1.32438e-22
1.32438e-22
1.32438e-22
1.32438e-22
1.32439e-22
1.32439e-22
1.32439e-22
1.32439e-22
1.32439e-22
1.32439e-22
1.32439e-22
1.32439e-22
1.32439e-22
1.32439e-22
1.32439e-22
1.32438e-22
1.32438e-22
1.32438e-22
1.32438e-22
1.32439e-22
1.32439e-22
1.32439e-22
1.32438e-22
1.32439e-22
1.32439e-22
1.32439e-22
1.32439e-22
1.32439e-22
1.32439e-22
1.32439e-22
1.32439e-22
1.32439e-22
1.32439e-22
1.32439e-22
1.32439e-22
1.32439e-22
1.32439e-22
1.32439e-22
1.32439e-22
1.32439e-22
1.32439e-22
1.32439e-22
1.32439e-22
1.32439e-22
1.32439e-22
1.32439e-22
1.32439e-22
1.32439e-22
1.32439e-22
1.32439e-22
1.32439e-22
1.32439e-22
1.32439e-22
1.32439e-22
1.32439e-22
1.32439e-22
1.32439e-22
1.32439e-22
1.32439e-22
)
;

boundaryField
{
    inlet
    {
        type            calculated;
        value           uniform -1.32452e-22;
    }
    outlet
    {
        type            calculated;
        value           uniform 1.32439e-22;
    }
    lowerWall
    {
        type            empty;
        value           nonuniform List<scalar> 0();
    }
    upperWall
    {
        type            empty;
        value           nonuniform List<scalar> 0();
    }
    frontAndBack
    {
        type            empty;
        value           nonuniform List<scalar> 0();
    }
}


// ************************************************************************* //
