/*--------------------------------*- C++ -*----------------------------------*\
  =========                 |
  \\      /  F ield         | OpenFOAM: The Open Source CFD Toolbox
   \\    /   O peration     | Website:  https://openfoam.org
    \\  /    A nd           | Version:  9
     \\/     M anipulation  |
\*---------------------------------------------------------------------------*/
FoamFile
{
    format      ascii;
    class       volScalarField;
    location    "0.005";
    object      Ux;
}
// * * * * * * * * * * * * * * * * * * * * * * * * * * * * * * * * * * * * * //

dimensions      [0 1 -1 0 0 0 0];

internalField   nonuniform List<scalar> 
100
(
3.31129e-23
3.31105e-23
3.31092e-23
3.31094e-23
3.311e-23
3.311e-23
3.31095e-23
3.3109e-23
3.31093e-23
3.31104e-23
3.31111e-23
3.31101e-23
3.3108e-23
3.31072e-23
3.31099e-23
3.31141e-23
3.31139e-23
3.3107e-23
3.31009e-23
3.31046e-23
3.31152e-23
3.31202e-23
3.3114e-23
3.31053e-23
3.31038e-23
3.31085e-23
3.3112e-23
3.31113e-23
3.31095e-23
3.31118e-23
3.31153e-23
3.30909e-23
3.30169e-23
3.3129e-23
3.40491e-23
3.46233e-23
2.68246e-23
7.23261e-24
4.63963e-23
3.04541e-22
3.97561e-22
-1.9004e-21
-6.94839e-21
5.89243e-21
7.73649e-20
8.15812e-20
-6.03077e-19
4.36496e-19
4.36496e-19
-6.03077e-19
8.15813e-20
7.73649e-20
5.8924e-21
-6.94849e-21
-1.90048e-21
3.97581e-22
3.0465e-22
4.64919e-23
7.23651e-24
2.67604e-23
3.45728e-23
3.40523e-23
3.31569e-23
3.30298e-23
3.30847e-23
3.31077e-23
3.31118e-23
3.31123e-23
3.31108e-23
3.31091e-23
3.31085e-23
3.31096e-23
3.31116e-23
3.31121e-23
3.31085e-23
3.31038e-23
3.31053e-23
3.3114e-23
3.31201e-23
3.31151e-23
3.31046e-23
3.31012e-23
3.31073e-23
3.31136e-23
3.31134e-23
3.31097e-23
3.31079e-23
3.31089e-23
3.31101e-23
3.31102e-23
3.31097e-23
3.31095e-23
3.31096e-23
3.31097e-23
3.31097e-23
3.31097e-23
3.31097e-23
3.31097e-23
3.31097e-23
3.31097e-23
)
;

boundaryField
{
    inlet
    {
        type            calculated;
        value           uniform 3.31129e-23;
    }
    outlet
    {
        type            calculated;
        value           uniform 3.31097e-23;
    }
    lowerWall
    {
        type            empty;
    }
    upperWall
    {
        type            empty;
    }
    frontAndBack
    {
        type            empty;
    }
}


// ************************************************************************* //
