/*--------------------------------*- C++ -*----------------------------------*\
  =========                 |
  \\      /  F ield         | OpenFOAM: The Open Source CFD Toolbox
   \\    /   O peration     | Website:  https://openfoam.org
    \\  /    A nd           | Version:  9
     \\/     M anipulation  |
\*---------------------------------------------------------------------------*/
FoamFile
{
    format      ascii;
    class       volScalarField;
    location    "0.039";
    object      p;
}
// * * * * * * * * * * * * * * * * * * * * * * * * * * * * * * * * * * * * * //

dimensions      [1 -1 -2 0 0 0 0];

internalField   nonuniform List<scalar> 
10000
(
11763.2
11763.2
11763.1
11763
11762.9
11762.8
11762.8
11762.7
11762.6
11762.5
11762.5
11762.4
11762.3
11762.2
11762.2
11762.1
11762
11761.9
11761.9
11761.8
11761.7
11761.6
11761.6
11761.5
11761.4
11761.3
11761.3
11761.2
11761.1
11761
11761
11760.9
11760.8
11760.7
11760.7
11760.6
11760.5
11760.4
11760.4
11760.3
11760.2
11760.1
11760.1
11760
11759.9
11759.8
11759.8
11759.7
11759.6
11759.5
11759.5
11759.4
11759.3
11759.2
11759.2
11759.1
11759
11758.9
11758.9
11758.8
11758.7
11758.6
11758.6
11758.5
11758.4
11758.3
11758.3
11758.2
11758.1
11758
11758
11757.9
11757.8
11757.7
11757.7
11757.6
11757.5
11757.4
11757.4
11757.3
11757.2
11757.1
11757.1
11757
11756.9
11756.8
11756.8
11756.7
11756.6
11756.5
11756.5
11756.4
11756.3
11756.2
11756.2
11756.1
11756
11755.9
11755.9
11755.8
11755.7
11755.6
11755.6
11755.5
11755.4
11755.3
11755.3
11755.2
11755.1
11755
11755
11754.9
11754.8
11754.7
11754.7
11754.6
11754.5
11754.4
11754.3
11754.3
11754.2
11754.1
11754
11754
11753.9
11753.8
11753.7
11753.7
11753.6
11753.5
11753.4
11753.4
11753.3
11753.2
11753.1
11753.1
11753
11752.9
11752.8
11752.8
11752.7
11752.6
11752.5
11752.5
11752.4
11752.3
11752.2
11752.2
11752.1
11752
11751.9
11751.8
11751.8
11751.7
11751.6
11751.5
11751.5
11751.4
11751.3
11751.2
11751.2
11751.1
11751
11750.9
11750.9
11750.8
11750.7
11750.6
11750.6
11750.5
11750.4
11750.3
11750.3
11750.2
11750.1
11750
11749.9
11749.9
11749.8
11749.7
11749.6
11749.6
11749.5
11749.4
11749.3
11749.3
11749.2
11749.1
11749
11749
11748.9
11748.8
11748.7
11748.7
11748.6
11748.5
11748.4
11748.3
11748.3
11748.2
11748.1
11748
11748
11747.9
11747.8
11747.7
11747.7
11747.6
11747.5
11747.4
11747.4
11747.3
11747.2
11747.1
11747
11747
11746.9
11746.8
11746.7
11746.7
11746.6
11746.5
11746.4
11746.4
11746.3
11746.2
11746.1
11746.1
11746
11745.9
11745.8
11745.7
11745.7
11745.6
11745.5
11745.4
11745.4
11745.3
11745.2
11745.1
11745.1
11745
11744.9
11744.8
11744.7
11744.7
11744.6
11744.5
11744.4
11744.4
11744.3
11744.2
11744.1
11744.1
11744
11743.9
11743.8
11743.7
11743.7
11743.6
11743.5
11743.4
11743.4
11743.3
11743.2
11743.1
11743.1
11743
11742.9
11742.8
11742.7
11742.7
11742.6
11742.5
11742.4
11742.4
11742.3
11742.2
11742.1
11742.1
11742
11741.9
11741.8
11741.7
11741.7
11741.6
11741.5
11741.4
11741.4
11741.3
11741.2
11741.1
11741
11741
11740.9
11740.8
11740.7
11740.7
11740.6
11740.5
11740.4
11740.4
11740.3
11740.2
11740.1
11740
11740
11739.9
11739.8
11739.7
11739.7
11739.6
11739.5
11739.4
11739.3
11739.3
11739.2
11739.1
11739
11739
11738.9
11738.8
11738.7
11738.6
11738.6
11738.5
11738.4
11738.3
11738.3
11738.2
11738.1
11738
11737.9
11737.9
11737.8
11737.7
11737.6
11737.6
11737.5
11737.4
11737.3
11737.2
11737.2
11737.1
11737
11736.9
11736.9
11736.8
11736.7
11736.6
11736.5
11736.5
11736.4
11736.3
11736.2
11736.2
11736.1
11736
11735.9
11735.8
11735.8
11735.7
11735.6
11735.5
11735.5
11735.4
11735.3
11735.2
11735.1
11735.1
11735
11734.9
11734.8
11734.8
11734.7
11734.6
11734.5
11734.4
11734.4
11734.3
11734.2
11734.1
11734.1
11734
11733.9
11733.8
11733.7
11733.7
11733.6
11733.5
11733.4
11733.3
11733.3
11733.2
11733.1
11733
11733
11732.9
11732.8
11732.7
11732.6
11732.6
11732.5
11732.4
11732.3
11732.2
11732.2
11732.1
11732
11731.9
11731.9
11731.8
11731.7
11731.6
11731.5
11731.5
11731.4
11731.3
11731.2
11731.2
11731.1
11731
11730.9
11730.8
11730.8
11730.7
11730.6
11730.5
11730.4
11730.4
11730.3
11730.2
11730.1
11730.1
11730
11729.9
11729.8
11729.7
11729.7
11729.6
11729.5
11729.4
11729.3
11729.3
11729.2
11729.1
11729
11728.9
11728.9
11728.8
11728.7
11728.6
11728.6
11728.5
11728.4
11728.3
11728.2
11728.2
11728.1
11728
11727.9
11727.8
11727.8
11727.7
11727.6
11727.5
11727.4
11727.4
11727.3
11727.2
11727.1
11727.1
11727
11726.9
11726.8
11726.7
11726.7
11726.6
11726.5
11726.4
11726.3
11726.3
11726.2
11726.1
11726
11725.9
11725.9
11725.8
11725.7
11725.6
11725.5
11725.5
11725.4
11725.3
11725.2
11725.2
11725.1
11725
11724.9
11724.8
11724.8
11724.7
11724.6
11724.5
11724.4
11724.4
11724.3
11724.2
11724.1
11724
11724
11723.9
11723.8
11723.7
11723.6
11723.6
11723.5
11723.4
11723.3
11723.2
11723.2
11723.1
11723
11722.9
11722.8
11722.8
11722.7
11722.6
11722.5
11722.4
11722.4
11722.3
11722.2
11722.1
11722.1
11722
11721.9
11721.8
11721.7
11721.7
11721.6
11721.5
11721.4
11721.3
11721.3
11721.2
11721.1
11721
11720.9
11720.9
11720.8
11720.7
11720.6
11720.5
11720.5
11720.4
11720.3
11720.2
11720.1
11720.1
11720
11719.9
11719.8
11719.7
11719.7
11719.6
11719.5
11719.4
11719.3
11719.3
11719.2
11719.1
11719
11718.9
11718.9
11718.8
11718.7
11718.6
11718.5
11718.5
11718.4
11718.3
11718.2
11718.1
11718.1
11718
11717.9
11717.8
11717.7
11717.7
11717.6
11717.5
11717.4
11717.3
11717.3
11717.2
11717.1
11717
11716.9
11716.9
11716.8
11716.7
11716.6
11716.5
11716.4
11716.4
11716.3
11716.2
11716.1
11716
11716
11715.9
11715.8
11715.7
11715.6
11715.6
11715.5
11715.4
11715.3
11715.2
11715.2
11715.1
11715
11714.9
11714.8
11714.8
11714.7
11714.6
11714.5
11714.4
11714.4
11714.3
11714.2
11714.1
11714
11714
11713.9
11713.8
11713.7
11713.6
11713.6
11713.5
11713.4
11713.3
11713.2
11713.1
11713.1
11713
11712.9
11712.8
11712.7
11712.7
11712.6
11712.5
11712.4
11712.3
11712.3
11712.2
11712.1
11712
11711.9
11711.9
11711.8
11711.7
11711.6
11711.5
11711.4
11711.4
11711.3
11711.2
11711.1
11711
11711
11710.9
11710.8
11710.7
11710.6
11710.6
11710.5
11710.4
11710.3
11710.2
11710.2
11710.1
11710
11709.9
11709.8
11709.7
11709.7
11709.6
11709.5
11709.4
11709.3
11709.3
11709.2
11709.1
11709
11708.9
11708.9
11708.8
11708.7
11708.6
11708.5
11708.4
11708.4
11708.3
11708.2
11708.1
11708
11708
11707.9
11707.8
11707.7
11707.6
11707.6
11707.5
11707.4
11707.3
11707.2
11707.1
11707.1
11707
11706.9
11706.8
11706.7
11706.7
11706.6
11706.5
11706.4
11706.3
11706.2
11706.2
11706.1
11706
11705.9
11705.8
11705.8
11705.7
11705.6
11705.5
11705.4
11705.4
11705.3
11705.2
11705.1
11705
11704.9
11704.9
11704.8
11704.7
11704.6
11704.5
11704.5
11704.4
11704.3
11704.2
11704.1
11704
11704
11703.9
11703.8
11703.7
11703.6
11703.6
11703.5
11703.4
11703.3
11703.2
11703.1
11703.1
11703
11702.9
11702.8
11702.7
11702.7
11702.6
11702.5
11702.4
11702.3
11702.2
11702.2
11702.1
11702
11701.9
11701.8
11701.7
11701.7
11701.6
11701.5
11701.4
11701.3
11701.3
11701.2
11701.1
11701
11700.9
11700.8
11700.8
11700.7
11700.6
11700.5
11700.4
11700.4
11700.3
11700.2
11700.1
11700
11699.9
11699.9
11699.8
11699.7
11699.6
11699.5
11699.4
11699.4
11699.3
11699.2
11699.1
11699
11699
11698.9
11698.8
11698.7
11698.6
11698.5
11698.5
11698.4
11698.3
11698.2
11698.1
11698
11698
11697.9
11697.8
11697.7
11697.6
11697.6
11697.5
11697.4
11697.3
11697.2
11697.1
11697.1
11697
11696.9
11696.8
11696.7
11696.6
11696.6
11696.5
11696.4
11696.3
11696.2
11696.1
11696.1
11696
11695.9
11695.8
11695.7
11695.7
11695.6
11695.5
11695.4
11695.3
11695.2
11695.2
11695.1
11695
11694.9
11694.8
11694.7
11694.7
11694.6
11694.5
11694.4
11694.3
11694.2
11694.2
11694.1
11694
11693.9
11693.8
11693.7
11693.7
11693.6
11693.5
11693.4
11693.3
11693.3
11693.2
11693.1
11693
11692.9
11692.8
11692.8
11692.7
11692.6
11692.5
11692.4
11692.3
11692.3
11692.2
11692.1
11692
11691.9
11691.8
11691.8
11691.7
11691.6
11691.5
11691.4
11691.3
11691.3
11691.2
11691.1
11691
11690.9
11690.8
11690.8
11690.7
11690.6
11690.5
11690.4
11690.3
11690.3
11690.2
11690.1
11690
11689.9
11689.8
11689.8
11689.7
11689.6
11689.5
11689.4
11689.3
11689.3
11689.2
11689.1
11689
11688.9
11688.8
11688.8
11688.7
11688.6
11688.5
11688.4
11688.3
11688.3
11688.2
11688.1
11688
11687.9
11687.8
11687.8
11687.7
11687.6
11687.5
11687.4
11687.3
11687.3
11687.2
11687.1
11687
11686.9
11686.8
11686.8
11686.7
11686.6
11686.5
11686.4
11686.3
11686.3
11686.2
11686.1
11686
11685.9
11685.8
11685.8
11685.7
11685.6
11685.5
11685.4
11685.3
11685.3
11685.2
11685.1
11685
11684.9
11684.8
11684.7
11684.7
11684.6
11684.5
11684.4
11684.3
11684.2
11684.2
11684.1
11684
11683.9
11683.8
11683.7
11683.7
11683.6
11683.5
11683.4
11683.3
11683.2
11683.2
11683.1
11683
11682.9
11682.8
11682.7
11682.7
11682.6
11682.5
11682.4
11682.3
11682.2
11682.1
11682.1
11682
11681.9
11681.8
11681.7
11681.6
11681.6
11681.5
11681.4
11681.3
11681.2
11681.1
11681.1
11681
11680.9
11680.8
11680.7
11680.6
11680.6
11680.5
11680.4
11680.3
11680.2
11680.1
11680
11680
11679.9
11679.8
11679.7
11679.6
11679.5
11679.5
11679.4
11679.3
11679.2
11679.1
11679
11679
11678.9
11678.8
11678.7
11678.6
11678.5
11678.4
11678.4
11678.3
11678.2
11678.1
11678
11677.9
11677.9
11677.8
11677.7
11677.6
11677.5
11677.4
11677.4
11677.3
11677.2
11677.1
11677
11676.9
11676.8
11676.8
11676.7
11676.6
11676.5
11676.4
11676.3
11676.3
11676.2
11676.1
11676
11675.9
11675.8
11675.7
11675.7
11675.6
11675.5
11675.4
11675.3
11675.2
11675.2
11675.1
11675
11674.9
11674.8
11674.7
11674.6
11674.6
11674.5
11674.4
11674.3
11674.2
11674.1
11674.1
11674
11673.9
11673.8
11673.7
11673.6
11673.5
11673.5
11673.4
11673.3
11673.2
11673.1
11673
11673
11672.9
11672.8
11672.7
11672.6
11672.5
11672.4
11672.4
11672.3
11672.2
11672.1
11672
11671.9
11671.9
11671.8
11671.7
11671.6
11671.5
11671.4
11671.3
11671.3
11671.2
11671.1
11671
11670.9
11670.8
11670.7
11670.7
11670.6
11670.5
11670.4
11670.3
11670.2
11670.2
11670.1
11670
11669.9
11669.8
11669.7
11669.6
11669.6
11669.5
11669.4
11669.3
11669.2
11669.1
11669.1
11669
11668.9
11668.8
11668.7
11668.6
11668.5
11668.5
11668.4
11668.3
11668.2
11668.1
11668
11667.9
11667.9
11667.8
11667.7
11667.6
11667.5
11667.4
11667.4
11667.3
11667.2
11667.1
11667
11666.9
11666.8
11666.8
11666.7
11666.6
11666.5
11666.4
11666.3
11666.2
11666.2
11666.1
11666
11665.9
11665.8
11665.7
11665.6
11665.6
11665.5
11665.4
11665.3
11665.2
11665.1
11665.1
11665
11664.9
11664.8
11664.7
11664.6
11664.5
11664.5
11664.4
11664.3
11664.2
11664.1
11664
11663.9
11663.9
11663.8
11663.7
11663.6
11663.5
11663.4
11663.3
11663.3
11663.2
11663.1
11663
11662.9
11662.8
11662.8
11662.7
11662.6
11662.5
11662.4
11662.3
11662.2
11662.2
11662.1
11662
11661.9
11661.8
11661.7
11661.6
11661.6
11661.5
11661.4
11661.3
11661.2
11661.1
11661
11661
11660.9
11660.8
11660.7
11660.6
11660.5
11660.4
11660.4
11660.3
11660.2
11660.1
11660
11659.9
11659.8
11659.8
11659.7
11659.6
11659.5
11659.4
11659.3
11659.2
11659.2
11659.1
11659
11658.9
11658.8
11658.7
11658.7
11658.6
11658.5
11658.4
11658.3
11658.2
11658.1
11658.1
11658
11657.9
11657.8
11657.7
11657.6
11657.5
11657.5
11657.4
11657.3
11657.2
11657.1
11657
11656.9
11656.9
11656.8
11656.7
11656.6
11656.5
11656.4
11656.3
11656.3
11656.2
11656.1
11656
11655.9
11655.8
11655.7
11655.7
11655.6
11655.5
11655.4
11655.3
11655.2
11655.1
11655.1
11655
11654.9
11654.8
11654.7
11654.6
11654.5
11654.5
11654.4
11654.3
11654.2
11654.1
11654
11653.9
11653.9
11653.8
11653.7
11653.6
11653.5
11653.4
11653.3
11653.3
11653.2
11653.1
11653
11652.9
11652.8
11652.7
11652.7
11652.6
11652.5
11652.4
11652.3
11652.2
11652.1
11652.1
11652
11651.9
11651.8
11651.7
11651.6
11651.5
11651.5
11651.4
11651.3
11651.2
11651.1
11651
11650.9
11650.9
11650.8
11650.7
11650.6
11650.5
11650.4
11650.3
11650.3
11650.2
11650.1
11650
11649.9
11649.8
11649.8
11649.7
11649.6
11649.5
11649.4
11649.3
11649.2
11649.2
11649.1
11649
11648.9
11648.8
11648.7
11648.6
11648.6
11648.5
11648.4
11648.3
11648.2
11648.1
11648
11648
11647.9
11647.8
11647.7
11647.6
11647.5
11647.4
11647.4
11647.3
11647.2
11647.1
11647
11646.9
11646.8
11646.8
11646.7
11646.6
11646.5
11646.4
11646.3
11646.2
11646.2
11646.1
11646
11645.9
11645.8
11645.7
11645.6
11645.6
11645.5
11645.4
11645.3
11645.2
11645.1
11645
11645
11644.9
11644.8
11644.7
11644.6
11644.5
11644.4
11644.4
11644.3
11644.2
11644.1
11644
11643.9
11643.8
11643.8
11643.7
11643.6
11643.5
11643.4
11643.3
11643.2
11643.2
11643.1
11643
11642.9
11642.8
11642.7
11642.6
11642.6
11642.5
11642.4
11642.3
11642.2
11642.1
11642
11642
11641.9
11641.8
11641.7
11641.6
11641.5
11641.4
11641.4
11641.3
11641.2
11641.1
11641
11640.9
11640.9
11640.8
11640.7
11640.6
11640.5
11640.4
11640.3
11640.3
11640.2
11640.1
11640
11639.9
11639.8
11639.7
11639.7
11639.6
11639.5
11639.4
11639.3
11639.2
11639.1
11639.1
11639
11638.9
11638.8
11638.7
11638.6
11638.5
11638.5
11638.4
11638.3
11638.2
11638.1
11638
11637.9
11637.9
11637.8
11637.7
11637.6
11637.5
11637.4
11637.4
11637.3
11637.2
11637.1
11637
11636.9
11636.8
11636.8
11636.7
11636.6
11636.5
11636.4
11636.3
11636.2
11636.2
11636.1
11636
11635.9
11635.8
11635.7
11635.6
11635.6
11635.5
11635.4
11635.3
11635.2
11635.1
11635.1
11635
11634.9
11634.8
11634.7
11634.6
11634.5
11634.5
11634.4
11634.3
11634.2
11634.1
11634
11633.9
11633.9
11633.8
11633.7
11633.6
11633.5
11633.4
11633.4
11633.3
11633.2
11633.1
11633
11632.9
11632.8
11632.8
11632.7
11632.6
11632.5
11632.4
11632.3
11632.2
11632.2
11632.1
11632
11631.9
11631.8
11631.7
11631.7
11631.6
11631.5
11631.4
11631.3
11631.2
11631.1
11631.1
11631
11630.9
11630.8
11630.7
11630.6
11630.6
11630.5
11630.4
11630.3
11630.2
11630.1
11630
11630
11629.9
11629.8
11629.7
11629.6
11629.5
11629.5
11629.4
11629.3
11629.2
11629.1
11629
11629
11628.9
11628.8
11628.7
11628.6
11628.5
11628.4
11628.4
11628.3
11628.2
11628.1
11628
11627.9
11627.9
11627.8
11627.7
11627.6
11627.5
11627.4
11627.3
11627.3
11627.2
11627.1
11627
11626.9
11626.8
11626.8
11626.7
11626.6
11626.5
11626.4
11626.3
11626.3
11626.2
11626.1
11626
11625.9
11625.8
11625.8
11625.7
11625.6
11625.5
11625.4
11625.3
11625.3
11625.2
11625.1
11625
11624.9
11624.8
11624.7
11624.7
11624.6
11624.5
11624.4
11624.3
11624.2
11624.2
11624.1
11624
11623.9
11623.8
11623.7
11623.7
11623.6
11623.5
11623.4
11623.3
11623.2
11623.2
11623.1
11623
11622.9
11622.8
11622.7
11622.7
11622.6
11622.5
11622.4
11622.3
11622.2
11622.2
11622.1
11622
11621.9
11621.8
11621.8
11621.7
11621.6
11621.5
11621.4
11621.3
11621.3
11621.2
11621.1
11621
11620.9
11620.8
11620.8
11620.7
11620.6
11620.5
11620.4
11620.3
11620.3
11620.2
11620.1
11620
11619.9
11619.8
11619.8
11619.7
11619.6
11619.5
11619.4
11619.4
11619.3
11619.2
11619.1
11619
11618.9
11618.9
11618.8
11618.7
11618.6
11618.5
11618.4
11618.4
11618.3
11618.2
11618.1
11618
11618
11617.9
11617.8
11617.7
11617.6
11617.5
11617.5
11617.4
11617.3
11617.2
11617.1
11617.1
11617
11616.9
11616.8
11616.7
11616.7
11616.6
11616.5
11616.4
11616.3
11616.2
11616.2
11616.1
11616
11615.9
11615.8
11615.8
11615.7
11615.6
11615.5
11615.4
11615.4
11615.3
11615.2
11615.1
11615
11614.9
11614.9
11614.8
11614.7
11614.6
11614.5
11614.5
11614.4
11614.3
11614.2
11614.1
11614.1
11614
11613.9
11613.8
11613.7
11613.7
11613.6
11613.5
11613.4
11613.3
11613.3
11613.2
11613.1
11613
11612.9
11612.9
11612.8
11612.7
11612.6
11612.5
11612.5
11612.4
11612.3
11612.2
11612.1
11612.1
11612
11611.9
11611.8
11611.7
11611.7
11611.6
11611.5
11611.4
11611.3
11611.3
11611.2
11611.1
11611
11610.9
11610.9
11610.8
11610.7
11610.6
11610.6
11610.5
11610.4
11610.3
11610.2
11610.2
11610.1
11610
11609.9
11609.8
11609.8
11609.7
11609.6
11609.5
11609.5
11609.4
11609.3
11609.2
11609.1
11609.1
11609
11608.9
11608.8
11608.7
11608.7
11608.6
11608.5
11608.4
11608.4
11608.3
11608.2
11608.1
11608
11608
11607.9
11607.8
11607.7
11607.7
11607.6
11607.5
11607.4
11607.4
11607.3
11607.2
11607.1
11607
11607
11606.9
11606.8
11606.7
11606.7
11606.6
11606.5
11606.4
11606.4
11606.3
11606.2
11606.1
11606.1
11606
11605.9
11605.8
11605.7
11605.7
11605.6
11605.5
11605.4
11605.4
11605.3
11605.2
11605.1
11605.1
11605
11604.9
11604.8
11604.8
11604.7
11604.6
11604.5
11604.5
11604.4
11604.3
11604.2
11604.2
11604.1
11604
11603.9
11603.9
11603.8
11603.7
11603.6
11603.6
11603.5
11603.4
11603.3
11603.3
11603.2
11603.1
11603.1
11603
11602.9
11602.8
11602.8
11602.7
11602.6
11602.5
11602.5
11602.4
11602.3
11602.2
11602.2
11602.1
11602
11602
11601.9
11601.8
11601.7
11601.7
11601.6
11601.5
11601.4
11601.4
11601.3
11601.2
11601.2
11601.1
11601
11600.9
11600.9
11600.8
11600.7
11600.7
11600.6
11600.5
11600.4
11600.4
11600.3
11600.2
11600.2
11600.1
11600
11599.9
11599.9
11599.8
11599.7
11599.7
11599.6
11599.5
11599.4
11599.4
11599.3
11599.2
11599.2
11599.1
11599
11599
11598.9
11598.8
11598.8
11598.7
11598.6
11598.5
11598.5
11598.4
11598.3
11598.3
11598.2
11598.1
11598.1
11598
11597.9
11597.9
11597.8
11597.7
11597.7
11597.6
11597.5
11597.5
11597.4
11597.3
11597.3
11597.2
11597.1
11597.1
11597
11596.9
11596.9
11596.8
11596.7
11596.7
11596.6
11596.5
11596.5
11596.4
11596.3
11596.3
11596.2
11596.1
11596.1
11596
11595.9
11595.9
11595.8
11595.7
11595.7
11595.6
11595.5
11595.5
11595.4
11595.3
11595.3
11595.2
11595.2
11595.1
11595
11595
11594.9
11594.8
11594.8
11594.7
11594.6
11594.6
11594.5
11594.5
11594.4
11594.3
11594.3
11594.2
11594.1
11594.1
11594
11594
11593.9
11593.8
11593.8
11593.7
11593.7
11593.6
11593.5
11593.5
11593.4
11593.4
11593.3
11593.2
11593.2
11593.1
11593.1
11593
11592.9
11592.9
11592.8
11592.8
11592.7
11592.6
11592.6
11592.5
11592.5
11592.4
11592.4
11592.3
11592.2
11592.2
11592.1
11592.1
11592
11591.9
11591.9
11591.8
11591.8
11591.7
11591.7
11591.6
11591.6
11591.5
11591.4
11591.4
11591.3
11591.3
11591.2
11591.2
11591.1
11591.1
11591
11591
11590.9
11590.8
11590.8
11590.7
11590.7
11590.6
11590.6
11590.5
11590.5
11590.4
11590.4
11590.3
11590.3
11590.2
11590.2
11590.1
11590.1
11590
11590
11589.9
11589.9
11589.8
11589.8
11589.7
11589.7
11589.6
11589.6
11589.5
11589.5
11589.4
11589.4
11589.3
11589.3
11589.2
11589.2
11589.1
11589.1
11589
11589
11588.9
11588.9
11588.8
11588.8
11588.7
11588.7
11588.7
11588.6
11588.6
11588.5
11588.5
11588.4
11588.4
11588.3
11588.3
11588.3
11588.2
11588.2
11588.1
11588.1
11588
11588
11588
11587.9
11587.9
11587.8
11587.8
11587.8
11587.7
11587.7
11587.6
11587.6
11587.6
11587.5
11587.5
11587.4
11587.4
11587.4
11587.3
11587.3
11587.2
11587.2
11587.2
11587.1
11587.1
11587.1
11587
11587
11587
11586.9
11586.9
11586.8
11586.8
11586.8
11586.7
11586.7
11586.7
11586.6
11586.6
11586.6
11586.5
11586.5
11586.5
11586.5
11586.4
11586.4
11586.4
11586.3
11586.3
11586.3
11586.2
11586.2
11586.2
11586.2
11586.1
11586.1
11586.1
11586
11586
11586
11586
11585.9
11585.9
11585.9
11585.9
11585.8
11585.8
11585.8
11585.8
11585.7
11585.7
11585.7
11585.7
11585.7
11585.6
11585.6
11585.6
11585.6
11585.6
11585.5
11585.5
11585.5
11585.5
11585.5
11585.4
11585.4
11585.4
11585.4
11585.4
11585.4
11585.3
11585.3
11585.3
11585.3
11585.3
11585.3
11585.3
11585.2
11585.2
11585.2
11585.2
11585.2
11585.2
11585.2
11585.2
11585.2
11585.1
11585.1
11585.1
11585.1
11585.1
11585.1
11585.1
11585.1
11585.1
11585.1
11585.1
11585.1
11585.1
11585.1
11585.1
11585.1
11585.1
11585
11585
11585
11585
11585
11585
11585
11585
11585.1
11585.1
11585.1
11585.1
11585.1
11585.1
11585.1
11585.1
11585.1
11585.1
11585.1
11585.1
11585.1
11585.1
11585.1
11585.1
11585.1
11585.2
11585.2
11585.2
11585.2
11585.2
11585.2
11585.2
11585.2
11585.3
11585.3
11585.3
11585.3
11585.3
11585.3
11585.4
11585.4
11585.4
11585.4
11585.4
11585.5
11585.5
11585.5
11585.5
11585.6
11585.6
11585.6
11585.6
11585.7
11585.7
11585.7
11585.7
11585.8
11585.8
11585.8
11585.9
11585.9
11585.9
11586
11586
11586
11586.1
11586.1
11586.1
11586.2
11586.2
11586.2
11586.3
11586.3
11586.4
11586.4
11586.5
11586.5
11586.5
11586.6
11586.6
11586.7
11586.7
11586.8
11586.8
11586.9
11586.9
11587
11587
11587.1
11587.1
11587.2
11587.2
11587.3
11587.3
11587.4
11587.5
11587.5
11587.6
11587.6
11587.7
11587.8
11587.8
11587.9
11588
11588
11588.1
11588.2
11588.2
11588.3
11588.4
11588.4
11588.5
11588.6
11588.6
11588.7
11588.8
11588.9
11589
11589
11589.1
11589.2
11589.3
11589.4
11589.4
11589.5
11589.6
11589.7
11589.8
11589.9
11590
11590
11590.1
11590.2
11590.3
11590.4
11590.5
11590.6
11590.7
11590.8
11590.9
11591
11591.1
11591.2
11591.3
11591.4
11591.5
11591.6
11591.8
11591.9
11592
11592.1
11592.2
11592.3
11592.4
11592.6
11592.7
11592.8
11592.9
11593
11593.2
11593.3
11593.4
11593.5
11593.7
11593.8
11593.9
11594.1
11594.2
11594.3
11594.5
11594.6
11594.7
11594.9
11595
11595.2
11595.3
11595.5
11595.6
11595.8
11595.9
11596.1
11596.2
11596.4
11596.5
11596.7
11596.8
11597
11597.2
11597.3
11597.5
11597.7
11597.8
11598
11598.2
11598.3
11598.5
11598.7
11598.9
11599
11599.2
11599.4
11599.6
11599.8
11600
11600.1
11600.3
11600.5
11600.7
11600.9
11601.1
11601.3
11601.5
11601.7
11601.9
11602.1
11602.3
11602.5
11602.8
11603
11603.2
11603.4
11603.6
11603.8
11604.1
11604.3
11604.5
11604.7
11605
11605.2
11605.4
11605.7
11605.9
11606.1
11606.4
11606.6
11606.9
11607.1
11607.4
11607.6
11607.9
11608.1
11608.4
11608.6
11608.9
11609.1
11609.4
11609.7
11609.9
11610.2
11610.5
11610.8
11611
11611.3
11611.6
11611.9
11612.2
11612.5
11612.7
11613
11613.3
11613.6
11613.9
11614.2
11614.5
11614.8
11615.1
11615.5
11615.8
11616.1
11616.4
11616.7
11617
11617.4
11617.7
11618
11618.4
11618.7
11619
11619.4
11619.7
11620
11620.4
11620.7
11621.1
11621.4
11621.8
11622.2
11622.5
11622.9
11623.2
11623.6
11624
11624.4
11624.7
11625.1
11625.5
11625.9
11626.3
11626.7
11627
11627.4
11627.8
11628.2
11628.6
11629
11629.4
11629.9
11630.3
11630.7
11631.1
11631.5
11631.9
11632.4
11632.8
11633.2
11633.7
11634.1
11634.5
11635
11635.4
11635.9
11636.3
11636.8
11637.2
11637.7
11638.2
11638.6
11639.1
11639.6
11640
11640.5
11641
11641.5
11642
11642.5
11642.9
11643.4
11643.9
11644.4
11644.9
11645.4
11646
11646.5
11647
11647.5
11648
11648.5
11649.1
11649.6
11650.1
11650.7
11651.2
11651.7
11652.3
11652.8
11653.4
11653.9
11654.5
11655
11655.6
11656.2
11656.7
11657.3
11657.9
11658.4
11659
11659.6
11660.2
11660.8
11661.4
11662
11662.5
11663.1
11663.7
11664.3
11665
11665.6
11666.2
11666.8
11667.4
11668
11668.7
11669.3
11669.9
11670.5
11671.2
11671.8
11672.5
11673.1
11673.8
11674.4
11675.1
11675.7
11676.4
11677
11677.7
11678.4
11679
11679.7
11680.4
11681
11681.7
11682.4
11683.1
11683.8
11684.5
11685.2
11685.9
11686.6
11687.3
11688
11688.7
11689.4
11690.1
11690.8
11691.5
11692.2
11693
11693.7
11694.4
11695.1
11695.9
11696.6
11697.3
11698.1
11698.8
11699.6
11700.3
11701.1
11701.8
11702.6
11703.3
11704.1
11704.8
11705.6
11706.4
11707.1
11707.9
11708.7
11709.4
11710.2
11711
11711.8
11712.5
11713.3
11714.1
11714.9
11715.7
11716.5
11717.3
11718.1
11718.9
11719.7
11720.5
11721.3
11722.1
11722.9
11723.7
11724.5
11725.3
11726.1
11726.9
11727.8
11728.6
11729.4
11730.2
11731
11731.9
11732.7
11733.5
11734.4
11735.2
11736
11736.9
11737.7
11738.5
11739.4
11740.2
11741.1
11741.9
11742.7
11743.6
11744.4
11745.3
11746.1
11747
11747.8
11748.7
11749.6
11750.4
11751.3
11752.1
11753
11753.9
11754.7
11755.6
11756.5
11757.3
11758.2
11759.1
11759.9
11760.8
11761.7
11762.6
11763.4
11764.3
11765.2
11766.1
11766.9
11767.8
11768.7
11769.6
11770.5
11771.3
11772.2
11773.1
11774
11774.9
11775.8
11776.7
11777.6
11778.4
11779.3
11780.2
11781.1
11782
11782.9
11783.8
11784.7
11785.6
11786.5
11787.4
11788.3
11789.2
11790.1
11791
11791.9
11792.8
11793.7
11794.6
11795.5
11796.4
11797.3
11798.2
11799.1
11800
11800.9
11801.8
11802.7
11803.6
11804.5
11805.5
11806.4
11807.3
11808.2
11809.1
11810
11810.9
11811.8
11812.7
11813.6
11814.6
11815.5
11816.4
11817.3
11818.2
11819.1
11820
11821
11821.9
11822.8
11823.7
11824.6
11825.5
11826.5
11827.4
11828.3
11829.2
11830.1
11831
11832
11832.9
11833.8
11834.7
11835.6
11836.6
11837.5
11838.4
11839.3
11840.2
11841.2
11842.1
11843
11843.9
11844.9
11845.8
11846.7
11847.6
11848.5
11849.5
11850.4
11851.3
11852.2
11853.2
11854.1
11855
11855.9
11856.9
11857.8
11858.7
11859.6
11860.6
11861.5
11862.4
11863.3
11864.3
11865.2
11866.1
11867
11868
11868.9
11869.8
11870.8
11871.7
11872.6
11873.5
11874.5
11875.4
11876.3
11877.2
11878.2
11879.1
11880
11881
11881.9
11882.8
11883.7
11884.7
11885.6
11886.5
11887.5
11888.4
11889.3
11890.2
11891.2
11892.1
11893
11894
11894.9
11895.8
11896.8
11897.7
11898.6
11899.6
11900.5
11901.4
11902.3
11903.3
11904.2
11905.1
11906.1
11907
11907.9
11908.9
11909.8
11910.7
11911.7
11912.6
11913.5
11914.5
11915.4
11916.3
11917.3
11918.2
11919.1
11920.1
11921
11921.9
11922.8
11923.8
11924.7
11925.6
11926.6
11927.5
11928.5
11929.4
11930.3
11931.3
11932.2
11933.1
11934.1
11935
11935.9
11936.9
11937.8
11938.7
11939.7
11940.6
11941.5
11942.5
11943.4
11944.3
11945.3
11946.2
11947.1
11948.1
11949
11949.9
11950.9
11951.8
11952.8
11953.7
11954.6
11955.6
11956.5
11957.4
11958.4
11959.3
11960.2
11961.2
11962.1
11963.1
11964
11964.9
11965.9
11966.8
11967.7
11968.7
11969.6
11970.6
11971.5
11972.4
11973.4
11974.3
11975.2
11976.2
11977.1
11978.1
11979
11979.9
11980.9
11981.8
11982.7
11983.7
11984.6
11985.6
11986.5
11987.4
11988.4
11989.3
11990.3
11991.2
11992.1
11993.1
11994
11995
11995.9
11996.8
11997.8
11998.7
11999.7
12000.6
12001.5
12002.5
12003.4
12004.4
12005.3
12006.2
12007.2
12008.1
12009.1
12010
12010.9
12011.9
12012.8
12013.8
12014.7
12015.6
12016.6
12017.5
12018.5
12019.4
12020.4
12021.3
12022.2
12023.2
12024.1
12025.1
12026
12026.9
12027.9
12028.8
12029.8
12030.7
12031.7
12032.6
12033.5
12034.5
12035.4
12036.4
12037.3
12038.3
12039.2
12040.1
12041.1
12042
12043
12043.9
12044.9
12045.8
12046.8
12047.7
12048.6
12049.6
12050.5
12051.5
12052.4
12053.4
12054.3
12055.3
12056.2
12057.1
12058.1
12059
12060
12060.9
12061.9
12062.8
12063.8
12064.7
12065.7
12066.6
12067.5
12068.5
12069.4
12070.4
12071.3
12072.3
12073.2
12074.2
12075.1
12076.1
12077
12078
12078.9
12079.8
12080.8
12081.7
12082.7
12083.6
12084.6
12085.5
12086.5
12087.4
12088.4
12089.3
12090.3
12091.2
12092.2
12093.1
12094.1
12095
12096
12096.9
12097.9
12098.8
12099.8
12100.7
12101.6
12102.6
12103.5
12104.5
12105.4
12106.4
12107.3
12108.3
12109.2
12110.2
12111.1
12112.1
12113
12114
12114.9
12115.9
12116.8
12117.8
12118.7
12119.7
12120.6
12121.6
12122.5
12123.5
12124.4
12125.4
12126.3
12127.3
12128.3
12129.2
12130.2
12131.1
12132.1
12133
12134
12134.9
12135.9
12136.8
12137.8
12138.7
12139.7
12140.6
12141.6
12142.5
12143.5
12144.4
12145.4
12146.3
12147.3
12148.2
12149.2
12150.2
12151.1
12152.1
12153
12154
12154.9
12155.9
12156.8
12157.8
12158.7
12159.7
12160.6
12161.6
12162.5
12163.5
12164.5
12165.4
12166.4
12167.3
12168.3
12169.2
12170.2
12171.1
12172.1
12173.1
12174
12175
12175.9
12176.9
12177.8
12178.8
12179.7
12180.7
12181.6
12182.6
12183.6
12184.5
12185.5
12186.4
12187.4
12188.3
12189.3
12190.3
12191.2
12192.2
12193.1
12194.1
12195
12196
12197
12197.9
12198.9
12199.8
12200.8
12201.7
12202.7
12203.7
12204.6
12205.6
12206.5
12207.5
12208.4
12209.4
12210.4
12211.3
12212.3
12213.2
12214.2
12215.2
12216.1
12217.1
12218
12219
12220
12220.9
12221.9
12222.8
12223.8
12224.7
12225.7
12226.7
12227.6
12228.6
12229.5
12230.5
12231.5
12232.4
12233.4
12234.3
12235.3
12236.3
12237.2
12238.2
12239.2
12240.1
12241.1
12242
12243
12244
12244.9
12245.9
12246.8
12247.8
12248.8
12249.7
12250.7
12251.6
12252.6
12253.6
12254.5
12255.5
12256.5
12257.4
12258.4
12259.3
12260.3
12261.3
12262.2
12263.2
12264.2
12265.1
12266.1
12267
12268
12269
12269.9
12270.9
12271.9
12272.8
12273.8
12274.8
12275.7
12276.7
12277.6
12278.6
12279.6
12280.5
12281.5
12282.5
12283.4
12284.4
12285.4
12286.3
12287.3
12288.3
12289.2
12290.2
12291.2
12292.1
12293.1
12294.1
12295
12296
12296.9
12297.9
12298.9
12299.8
12300.8
12301.8
12302.7
12303.7
12304.7
12305.6
12306.6
12307.6
12308.5
12309.5
12310.5
12311.4
12312.4
12313.4
12314.3
12315.3
12316.3
12317.2
12318.2
12319.2
12320.2
12321.1
12322.1
12323.1
12324
12325
12326
12326.9
12327.9
12328.9
12329.8
12330.8
12331.8
12332.7
12333.7
12334.7
12335.6
12336.6
12337.6
12338.6
12339.5
12340.5
12341.5
12342.4
12343.4
12344.4
12345.3
12346.3
12347.3
12348.3
12349.2
12350.2
12351.2
12352.1
12353.1
12354.1
12355
12356
12357
12358
12358.9
12359.9
12360.9
12361.8
12362.8
12363.8
12364.8
12365.7
12366.7
12367.7
12368.6
12369.6
12370.6
12371.6
12372.5
12373.5
12374.5
12375.5
12376.4
12377.4
12378.4
12379.3
12380.3
12381.3
12382.3
12383.2
12384.2
12385.2
12386.2
12387.1
12388.1
12389.1
12390.1
12391
12392
12393
12393.9
12394.9
12395.9
12396.9
12397.8
12398.8
12399.8
12400.8
12401.7
12402.7
12403.7
12404.7
12405.6
12406.6
12407.6
12408.6
12409.5
12410.5
12411.5
12412.5
12413.4
12414.4
12415.4
12416.4
12417.4
12418.3
12419.3
12420.3
12421.3
12422.2
12423.2
12424.2
12425.2
12426.1
12427.1
12428.1
12429.1
12430
12431
12432
12433
12434
12434.9
12435.9
12436.9
12437.9
12438.8
12439.8
12440.8
12441.8
12442.8
12443.7
12444.7
12445.7
12446.7
12447.7
12448.6
12449.6
12450.6
12451.6
12452.5
12453.5
12454.5
12455.5
12456.5
12457.4
12458.4
12459.4
12460.4
12461.4
12462.3
12463.3
12464.3
12465.3
12466.3
12467.2
12468.2
12469.2
12470.2
12471.2
12472.1
12473.1
12474.1
12475.1
12476.1
12477.1
12478
12479
12480
12481
12482
12482.9
12483.9
12484.9
12485.9
12486.9
12487.9
12488.8
12489.8
12490.8
12491.8
12492.8
12493.7
12494.7
12495.7
12496.7
12497.7
12498.7
12499.6
12500.6
12501.6
12502.6
12503.6
12504.6
12505.5
12506.5
12507.5
12508.5
12509.5
12510.5
12511.5
12512.4
12513.4
12514.4
12515.4
12516.4
12517.4
12518.3
12519.3
12520.3
12521.3
12522.3
12523.3
12524.3
12525.2
12526.2
12527.2
12528.2
12529.2
12530.2
12531.2
12532.1
12533.1
12534.1
12535.1
12536.1
12537.1
12538.1
12539
12540
12541
12542
12543
12544
12545
12546
12546.9
12547.9
12548.9
12549.9
12550.9
12551.9
12552.9
12553.9
12554.8
12555.8
12556.8
12557.8
12558.8
12559.8
12560.8
12561.8
12562.7
12563.7
12564.7
12565.7
12566.7
12567.7
12568.7
12569.7
12570.7
12571.6
12572.6
12573.6
12574.6
12575.6
12576.6
12577.6
12578.6
12579.6
12580.6
12581.5
12582.5
12583.5
12584.5
12585.5
12586.5
12587.5
12588.5
12589.5
12590.5
12591.5
12592.4
12593.4
12594.4
12595.4
12596.4
12597.4
12598.4
12599.4
12600.4
12601.4
12602.4
12603.4
12604.3
12605.3
12606.3
12607.3
12608.3
12609.3
12610.3
12611.3
12612.3
12613.3
12614.3
12615.3
12616.3
12617.3
12618.2
12619.2
12620.2
12621.2
12622.2
12623.2
12624.2
12625.2
12626.2
12627.2
12628.2
12629.2
12630.2
12631.2
12632.2
12633.2
12634.2
12635.1
12636.1
12637.1
12638.1
12639.1