/*--------------------------------*- C++ -*----------------------------------*\
  =========                 |
  \\      /  F ield         | OpenFOAM: The Open Source CFD Toolbox
   \\    /   O peration     | Website:  https://openfoam.org
    \\  /    A nd           | Version:  9
     \\/     M anipulation  |
\*---------------------------------------------------------------------------*/
FoamFile
{
    format      ascii;
    class       volScalarField;
    location    "0.039";
    object      rho;
}
// * * * * * * * * * * * * * * * * * * * * * * * * * * * * * * * * * * * * * //

dimensions      [1 -3 0 0 0 0 0];

internalField   nonuniform List<scalar> 
10000
(
0.216932
0.216929
0.216924
0.21692
0.216916
0.216912
0.216908
0.216903
0.216899
0.216895
0.216891
0.216887
0.216883
0.216879
0.216874
0.21687
0.216866
0.216862
0.216858
0.216854
0.21685
0.216845
0.216841
0.216837
0.216833
0.216829
0.216825
0.216821
0.216816
0.216812
0.216808
0.216804
0.2168
0.216796
0.216792
0.216788
0.216783
0.216779
0.216775
0.216771
0.216767
0.216763
0.216759
0.216755
0.216751
0.216746
0.216742
0.216738
0.216734
0.21673
0.216726
0.216722
0.216718
0.216714
0.21671
0.216706
0.216702
0.216698
0.216694
0.21669
0.216685
0.216681
0.216677
0.216673
0.216669
0.216665
0.216661
0.216657
0.216653
0.216649
0.216645
0.216641
0.216637
0.216633
0.216629
0.216625
0.216621
0.216617
0.216613
0.216609
0.216605
0.216601
0.216597
0.216593
0.216589
0.216585
0.216581
0.216577
0.216573
0.21657
0.216566
0.216562
0.216558
0.216554
0.21655
0.216546
0.216542
0.216537
0.216533
0.216529
0.216525
0.216522
0.216518
0.216514
0.216511
0.216507
0.216504
0.2165
0.216497
0.216493
0.216489
0.216485
0.216481
0.216477
0.216473
0.216468
0.216464
0.21646
0.216455
0.216451
0.216447
0.216443
0.21644
0.216436
0.216433
0.21643
0.216427
0.216425
0.216422
0.21642
0.216418
0.216416
0.216415
0.216413
0.216412
0.21641
0.216409
0.216407
0.216406
0.216405
0.216403
0.216402
0.216401
0.216399
0.216398
0.216397
0.216396
0.216395
0.216394
0.216393
0.216392
0.216391
0.21639
0.216389
0.216389
0.216388
0.216387
0.216386
0.216385
0.216384
0.216383
0.216382
0.216381
0.21638
0.216379
0.216378
0.216377
0.216376
0.216375
0.216374
0.216373
0.216372
0.216371
0.21637
0.216369
0.216368
0.216367
0.216366
0.216365
0.216364
0.216363
0.216362
0.216361
0.21636
0.216359
0.216358
0.216357
0.216356
0.216355
0.216354
0.216353
0.216352
0.216351
0.21635
0.216349
0.216348
0.216347
0.216346
0.216345
0.216344
0.216343
0.216342
0.216341
0.21634
0.216339
0.216338
0.216337
0.216336
0.216335
0.216334
0.216333
0.216332
0.216331
0.21633
0.216328
0.216327
0.216326
0.216325
0.216324
0.216323
0.216322
0.216321
0.21632
0.216319
0.216318
0.216317
0.216316
0.216315
0.216314
0.216313
0.216312
0.216311
0.21631
0.216309
0.216308
0.216307
0.216306
0.216305
0.216304
0.216303
0.216302
0.216301
0.2163
0.216299
0.216298
0.216297
0.216296
0.216295
0.216294
0.216293
0.216292
0.216291
0.21629
0.216289
0.216288
0.216287
0.216286
0.216285
0.216284
0.216283
0.216282
0.216281
0.21628
0.216279
0.216278
0.216277
0.216276
0.216275
0.216274
0.216273
0.216272
0.216271
0.21627
0.216269
0.216268
0.216267
0.216266
0.216265
0.216264
0.216263
0.216262
0.216261
0.21626
0.216259
0.216258
0.216257
0.216256
0.216255
0.216254
0.216253
0.216252
0.216251
0.21625
0.216249
0.216248
0.216247
0.216246
0.216245
0.216244
0.216243
0.216242
0.216241
0.21624
0.216239
0.216238
0.216237
0.216236
0.216234
0.216233
0.216232
0.216231
0.21623
0.216229
0.216228
0.216227
0.216226
0.216225
0.216224
0.216223
0.216222
0.216221
0.21622
0.216219
0.216218
0.216217
0.216216
0.216215
0.216214
0.216213
0.216212
0.216211
0.21621
0.216209
0.216208
0.216207
0.216206
0.216205
0.216204
0.216203
0.216202
0.216201
0.2162
0.216199
0.216198
0.216197
0.216196
0.216195
0.216194
0.216193
0.216192
0.216191
0.21619
0.216189
0.216188
0.216187
0.216186
0.216185
0.216183
0.216182
0.216181
0.21618
0.216179
0.216178
0.216177
0.216176
0.216175
0.216174
0.216173
0.216172
0.216171
0.21617
0.216169
0.216168
0.216167
0.216166
0.216165
0.216164
0.216163
0.216162
0.216161
0.21616
0.216159
0.216158
0.216157
0.216156
0.216155
0.216154
0.216153
0.216152
0.216151
0.21615
0.216149
0.216148
0.216147
0.216146
0.216144
0.216143
0.216142
0.216141
0.21614
0.216139
0.216138
0.216137
0.216136
0.216135
0.216134
0.216133
0.216132
0.216131
0.21613
0.216129
0.216128
0.216127
0.216126
0.216125
0.216124
0.216123
0.216122
0.216121
0.21612
0.216119
0.216118
0.216117
0.216116
0.216115
0.216114
0.216113
0.216112
0.21611
0.216109
0.216108
0.216107
0.216106
0.216105
0.216104
0.216103
0.216102
0.216101
0.2161
0.216099
0.216098
0.216097
0.216096
0.216095
0.216094
0.216093
0.216092
0.216091
0.21609
0.216089
0.216088
0.216087
0.216086
0.216085
0.216084
0.216083
0.216082
0.21608
0.216079
0.216078
0.216077
0.216076
0.216075
0.216074
0.216073
0.216072
0.216071
0.21607
0.216069
0.216068
0.216067
0.216066
0.216065
0.216064
0.216063
0.216062
0.216061
0.21606
0.216059
0.216058
0.216057
0.216056
0.216055
0.216053
0.216052
0.216051
0.21605
0.216049
0.216048
0.216047
0.216046
0.216045
0.216044
0.216043
0.216042
0.216041
0.21604
0.216039
0.216038
0.216037
0.216036
0.216035
0.216034
0.216033
0.216032
0.216031
0.21603
0.216028
0.216027
0.216026
0.216025
0.216024
0.216023
0.216022
0.216021
0.21602
0.216019
0.216018
0.216017
0.216016
0.216015
0.216014
0.216013
0.216012
0.216011
0.21601
0.216009
0.216008
0.216007
0.216005
0.216004
0.216003
0.216002
0.216001
0.216
0.215999
0.215998
0.215997
0.215996
0.215995
0.215994
0.215993
0.215992
0.215991
0.21599
0.215989
0.215988
0.215987
0.215986
0.215985
0.215983
0.215982
0.215981
0.21598
0.215979
0.215978
0.215977
0.215976
0.215975
0.215974
0.215973
0.215972
0.215971
0.21597
0.215969
0.215968
0.215967
0.215966
0.215965
0.215964
0.215962
0.215961
0.21596
0.215959
0.215958
0.215957
0.215956
0.215955
0.215954
0.215953
0.215952
0.215951
0.21595
0.215949
0.215948
0.215947
0.215946
0.215945
0.215944
0.215942
0.215941
0.21594
0.215939
0.215938
0.215937
0.215936
0.215935
0.215934
0.215933
0.215932
0.215931
0.21593
0.215929
0.215928
0.215927
0.215926
0.215924
0.215924
0.215922
0.215921
0.21592
0.215919
0.215918
0.215917
0.215916
0.215915
0.215914
0.215913
0.215912
0.215911
0.21591
0.215909
0.215908
0.215907
0.215905
0.215905
0.215903
0.215902
0.215901
0.2159
0.215899
0.215898
0.215897
0.215896
0.215895
0.215894
0.215893
0.215892
0.215891
0.21589
0.215889
0.215887
0.215886
0.215885
0.215884
0.215883
0.215882
0.215881
0.21588
0.215879
0.215878
0.215877
0.215876
0.215875
0.215874
0.215873
0.215872
0.21587
0.215869
0.215868
0.215867
0.215866
0.215865
0.215864
0.215863
0.215862
0.215861
0.21586
0.215859
0.215858
0.215857
0.215856
0.215855
0.215853
0.215852
0.215851
0.21585
0.215849
0.215848
0.215847
0.215846
0.215845
0.215844
0.215843
0.215842
0.215841
0.21584
0.215839
0.215837
0.215836
0.215835
0.215834
0.215833
0.215832
0.215831
0.21583
0.215829
0.215828
0.215827
0.215826
0.215825
0.215824
0.215823
0.215821
0.21582
0.215819
0.215818
0.215817
0.215816
0.215815
0.215814
0.215813
0.215812
0.215811
0.21581
0.215809
0.215808
0.215807
0.215805
0.215804
0.215803
0.215802
0.215801
0.2158
0.215799
0.215798
0.215797
0.215796
0.215795
0.215794
0.215793
0.215792
0.21579
0.215789
0.215788
0.215787
0.215786
0.215785
0.215784
0.215783
0.215782
0.215781
0.21578
0.215779
0.215778
0.215776
0.215775
0.215774
0.215773
0.215772
0.215771
0.21577
0.215769
0.215768
0.215767
0.215766
0.215765
0.215764
0.215763
0.215761
0.21576
0.215759
0.215758
0.215757
0.215756
0.215755
0.215754
0.215753
0.215752
0.215751
0.21575
0.215749
0.215747
0.215746
0.215745
0.215744
0.215743
0.215742
0.215741
0.21574
0.215739
0.215738
0.215737
0.215736
0.215735
0.215733
0.215732
0.215731
0.21573
0.215729
0.215728
0.215727
0.215726
0.215725
0.215724
0.215723
0.215722
0.215721
0.215719
0.215718
0.215717
0.215716
0.215715
0.215714
0.215713
0.215712
0.215711
0.21571
0.215709
0.215708
0.215706
0.215705
0.215704
0.215703
0.215702
0.215701
0.2157
0.215699
0.215698
0.215697
0.215696
0.215695
0.215693
0.215692
0.215691
0.21569
0.215689
0.215688
0.215687
0.215686
0.215685
0.215684
0.215683
0.215682
0.21568
0.215679
0.215678
0.215677
0.215676
0.215675
0.215674
0.215673
0.215672
0.215671
0.21567
0.215669
0.215667
0.215666
0.215665
0.215664
0.215663
0.215662
0.215661
0.21566
0.215659
0.215658
0.215657
0.215655
0.215654
0.215653
0.215652
0.215651
0.21565
0.215649
0.215648
0.215647
0.215646
0.215645
0.215644
0.215642
0.215641
0.21564
0.215639
0.215638
0.215637
0.215636
0.215635
0.215634
0.215633
0.215632
0.21563
0.215629
0.215628
0.215627
0.215626
0.215625
0.215624
0.215623
0.215622
0.215621
0.21562
0.215618
0.215617
0.215616
0.215615
0.215614
0.215613
0.215612
0.215611
0.21561
0.215609
0.215608
0.215606
0.215605
0.215604
0.215603
0.215602
0.215601
0.2156
0.215599
0.215598
0.215597
0.215596
0.215594
0.215593
0.215592
0.215591
0.21559
0.215589
0.215588
0.215587
0.215586
0.215585
0.215584
0.215582
0.215581
0.21558
0.215579
0.215578
0.215577
0.215576
0.215575
0.215574
0.215573
0.215571
0.21557
0.215569
0.215568
0.215567
0.215566
0.215565
0.215564
0.215563
0.215562
0.215561
0.215559
0.215558
0.215557
0.215556
0.215555
0.215554
0.215553
0.215552
0.215551
0.21555
0.215548
0.215547
0.215546
0.215545
0.215544
0.215543
0.215542
0.215541
0.21554
0.215539
0.215537
0.215536
0.215535
0.215534
0.215533
0.215532
0.215531
0.21553
0.215529
0.215528
0.215526
0.215525
0.215524
0.215523
0.215522
0.215521
0.21552
0.215519
0.215518
0.215517
0.215515
0.215514
0.215513
0.215512
0.215511
0.21551
0.215509
0.215508
0.215507
0.215506
0.215504
0.215503
0.215502
0.215501
0.2155
0.215499
0.215498
0.215497
0.215496
0.215495
0.215493
0.215492
0.215491
0.21549
0.215489
0.215488
0.215487
0.215486
0.215485
0.215483
0.215482
0.215481
0.21548
0.215479
0.215478
0.215477
0.215476
0.215475
0.215474
0.215472
0.215471
0.21547
0.215469
0.215468
0.215467
0.215466
0.215465
0.215464
0.215462
0.215461
0.21546
0.215459
0.215458
0.215457
0.215456
0.215455
0.215454
0.215453
0.215451
0.21545
0.215449
0.215448
0.215447
0.215446
0.215445
0.215444
0.215443
0.215441
0.21544
0.215439
0.215438
0.215437
0.215436
0.215435
0.215434
0.215433
0.215431
0.21543
0.215429
0.215428
0.215427
0.215426
0.215425
0.215424
0.215423
0.215422
0.21542
0.215419
0.215418
0.215417
0.215416
0.215415
0.215414
0.215413
0.215412
0.21541
0.215409
0.215408
0.215407
0.215406
0.215405
0.215404
0.215403
0.215402
0.2154
0.215399
0.215398
0.215397
0.215396
0.215395
0.215394
0.215393
0.215392
0.21539
0.215389
0.215388
0.215387
0.215386
0.215385
0.215384
0.215383
0.215382
0.21538
0.215379
0.215378
0.215377
0.215376
0.215375
0.215374
0.215373
0.215372
0.21537
0.215369
0.215368
0.215367
0.215366
0.215365
0.215364
0.215363
0.215361
0.21536
0.215359
0.215358
0.215357
0.215356
0.215355
0.215354
0.215353
0.215351
0.21535
0.215349
0.215348
0.215347
0.215346
0.215345
0.215344
0.215343
0.215341
0.21534
0.215339
0.215338
0.215337
0.215336
0.215335
0.215334
0.215333
0.215331
0.21533
0.215329
0.215328
0.215327
0.215326
0.215325
0.215324
0.215322
0.215321
0.21532
0.215319
0.215318
0.215317
0.215316
0.215315
0.215314
0.215312
0.215311
0.21531
0.215309
0.215308
0.215307
0.215306
0.215305
0.215303
0.215302
0.215301
0.2153
0.215299
0.215298
0.215297
0.215296
0.215295
0.215293
0.215292
0.215291
0.21529
0.215289
0.215288
0.215287
0.215286
0.215284
0.215283
0.215282
0.215281
0.21528
0.215279
0.215278
0.215277
0.215275
0.215274
0.215273
0.215272
0.215271
0.21527
0.215269
0.215268
0.215267
0.215265
0.215264
0.215263
0.215262
0.215261
0.21526
0.215259
0.215258
0.215256
0.215255
0.215254
0.215253
0.215252
0.215251
0.21525
0.215249
0.215247
0.215246
0.215245
0.215244
0.215243
0.215242
0.215241
0.21524
0.215239
0.215237
0.215236
0.215235
0.215234
0.215233
0.215232
0.215231
0.21523
0.215228
0.215227
0.215226
0.215225
0.215224
0.215223
0.215222
0.215221
0.215219
0.215218
0.215217
0.215216
0.215215
0.215214
0.215213
0.215212
0.21521
0.215209
0.215208
0.215207
0.215206
0.215205
0.215204
0.215203
0.215201
0.2152
0.215199
0.215198
0.215197
0.215196
0.215195
0.215194
0.215192
0.215191
0.21519
0.215189
0.215188
0.215187
0.215186
0.215185
0.215183
0.215182
0.215181
0.21518
0.215179
0.215178
0.215177
0.215176
0.215174
0.215173
0.215172
0.215171
0.21517
0.215169
0.215168
0.215167
0.215165
0.215164
0.215163
0.215162
0.215161
0.21516
0.215159
0.215158
0.215156
0.215155
0.215154
0.215153
0.215152
0.215151
0.21515
0.215149
0.215147
0.215146
0.215145
0.215144
0.215143
0.215142
0.215141
0.21514
0.215138
0.215137
0.215136
0.215135
0.215134
0.215133
0.215132
0.215131
0.215129
0.215128
0.215127
0.215126
0.215125
0.215124
0.215123
0.215122
0.21512
0.215119
0.215118
0.215117
0.215116
0.215115
0.215114
0.215113
0.215111
0.21511
0.215109
0.215108
0.215107
0.215106
0.215105
0.215104
0.215102
0.215101
0.2151
0.215099
0.215098
0.215097
0.215096
0.215095
0.215093
0.215092
0.215091
0.21509
0.215089
0.215088
0.215087
0.215086
0.215084
0.215083
0.215082
0.215081
0.21508
0.215079
0.215078
0.215077
0.215075
0.215074
0.215073
0.215072
0.215071
0.21507
0.215069
0.215067
0.215066
0.215065
0.215064
0.215063
0.215062
0.215061
0.21506
0.215058
0.215057
0.215056
0.215055
0.215054
0.215053
0.215052
0.215051
0.215049
0.215048
0.215047
0.215046
0.215045
0.215044
0.215043
0.215042
0.21504
0.215039
0.215038
0.215037
0.215036
0.215035
0.215034
0.215033
0.215031
0.21503
0.215029
0.215028
0.215027
0.215026
0.215025
0.215024
0.215022
0.215021
0.21502
0.215019
0.215018
0.215017
0.215016
0.215015
0.215013
0.215012
0.215011
0.21501
0.215009
0.215008
0.215007
0.215005
0.215004
0.215003
0.215002
0.215001
0.215
0.214999
0.214998
0.214996
0.214995
0.214994
0.214993
0.214992
0.214991
0.21499
0.214989
0.214987
0.214986
0.214985
0.214984
0.214983
0.214982
0.214981
0.21498
0.214978
0.214977
0.214976
0.214975
0.214974
0.214973
0.214972
0.214971
0.214969
0.214968
0.214967
0.214966
0.214965
0.214964
0.214963
0.214962
0.21496
0.214959
0.214958
0.214957
0.214956
0.214955
0.214954
0.214953
0.214951
0.21495
0.214949
0.214948
0.214947
0.214946
0.214945
0.214944
0.214942
0.214941
0.21494
0.214939
0.214938
0.214937
0.214936
0.214935
0.214933
0.214932
0.214931
0.21493
0.214929
0.214928
0.214927
0.214926
0.214924
0.214923
0.214922
0.214921
0.21492
0.214919
0.214918
0.214917
0.214915
0.214914
0.214913
0.214912
0.214911
0.21491
0.214909
0.214908
0.214906
0.214905
0.214904
0.214903
0.214902
0.214901
0.2149
0.214899
0.214897
0.214896
0.214895
0.214894
0.214893
0.214892
0.214891
0.21489
0.214888
0.214887
0.214886
0.214885
0.214884
0.214883
0.214882
0.214881
0.214879
0.214878
0.214877
0.214876
0.214875
0.214874
0.214873
0.214872
0.21487
0.214869
0.214868
0.214867
0.214866
0.214865
0.214864
0.214863
0.214862
0.21486
0.214859
0.214858
0.214857
0.214856
0.214855
0.214854
0.214853
0.214851
0.21485
0.214849
0.214848
0.214847
0.214846
0.214845
0.214844
0.214842
0.214841
0.21484
0.214839
0.214838
0.214837
0.214836
0.214835
0.214834
0.214832
0.214831
0.21483
0.214829
0.214828
0.214827
0.214826
0.214825
0.214823
0.214822
0.214821
0.21482
0.214819
0.214818
0.214817
0.214816
0.214815
0.214813
0.214812
0.214811
0.21481
0.214809
0.214808
0.214807
0.214806
0.214805
0.214803
0.214802
0.214801
0.2148
0.214799
0.214798
0.214797
0.214796
0.214794
0.214793
0.214792
0.214791
0.21479
0.214789
0.214788
0.214787
0.214786
0.214784
0.214783
0.214782
0.214781
0.21478
0.214779
0.214778
0.214777
0.214776
0.214774
0.214773
0.214772
0.214771
0.21477
0.214769
0.214768
0.214767
0.214766
0.214764
0.214763
0.214762
0.214761
0.21476
0.214759
0.214758
0.214757
0.214756
0.214755
0.214753
0.214752
0.214751
0.21475
0.214749
0.214748
0.214747
0.214746
0.214745
0.214743
0.214742
0.214741
0.21474
0.214739
0.214738
0.214737
0.214736
0.214735
0.214733
0.214732
0.214731
0.21473
0.214729
0.214728
0.214727
0.214726
0.214725
0.214724
0.214722
0.214721
0.21472
0.214719
0.214718
0.214717
0.214716
0.214715
0.214714
0.214713
0.214711
0.21471
0.214709
0.214708
0.214707
0.214706
0.214705
0.214704
0.214703
0.214702
0.2147
0.214699
0.214698
0.214697
0.214696
0.214695
0.214694
0.214693
0.214692
0.214691
0.21469
0.214688
0.214687
0.214686
0.214685
0.214684
0.214683
0.214682
0.214681
0.21468
0.214679
0.214677
0.214676
0.214675
0.214674
0.214673
0.214672
0.214671
0.21467
0.214669
0.214668
0.214667
0.214665
0.214664
0.214663
0.214662
0.214661
0.21466
0.214659
0.214658
0.214657
0.214656
0.214655
0.214654
0.214652
0.214651
0.21465
0.214649
0.214648
0.214647
0.214646
0.214645
0.214644
0.214643
0.214642
0.214641
0.214639
0.214638
0.214637
0.214636
0.214635
0.214634
0.214633
0.214632
0.214631
0.21463
0.214629
0.214628
0.214626
0.214625
0.214624
0.214623
0.214622
0.214621
0.21462
0.214619
0.214618
0.214617
0.214616
0.214615
0.214614
0.214612
0.214611
0.21461
0.214609
0.214608
0.214607
0.214606
0.214605
0.214604
0.214603
0.214602
0.214601
0.2146
0.214599
0.214598
0.214596
0.214595
0.214594
0.214593
0.214592
0.214591
0.21459
0.214589
0.214588
0.214587
0.214586
0.214585
0.214584
0.214583
0.214582
0.21458
0.214579
0.214578
0.214577
0.214576
0.214575
0.214574
0.214573
0.214572
0.214571
0.21457
0.214569
0.214568
0.214567
0.214566
0.214565
0.214564
0.214562
0.214561
0.21456
0.214559
0.214558
0.214557
0.214556
0.214555
0.214554
0.214553
0.214552
0.214551
0.21455
0.214549
0.214548
0.214547
0.214546
0.214545
0.214544
0.214543
0.214542
0.21454
0.214539
0.214538
0.214537
0.214536
0.214535
0.214534
0.214533
0.214532
0.214531
0.21453
0.214529
0.214528
0.214527
0.214526
0.214525
0.214524
0.214523
0.214522
0.214521
0.21452
0.214519
0.214518
0.214517
0.214516
0.214515
0.214514
0.214513
0.214511
0.21451
0.214509
0.214508
0.214507
0.214506
0.214505
0.214504
0.214503
0.214502
0.214501
0.2145
0.214499
0.214498
0.214497
0.214496
0.214495
0.214494
0.214493
0.214492
0.214491
0.21449
0.214489
0.214488
0.214487
0.214486
0.214485
0.214484
0.214483
0.214482
0.214481
0.21448
0.214479
0.214478
0.214477
0.214476
0.214475
0.214474
0.214473
0.214472
0.214471
0.21447
0.214469
0.214468
0.214467
0.214466
0.214465
0.214464
0.214463
0.214462
0.214461
0.21446
0.214459
0.214458
0.214457
0.214456
0.214455
0.214454
0.214453
0.214452
0.214451
0.21445
0.214449
0.214448
0.214447
0.214446
0.214445
0.214444
0.214443
0.214442
0.214441
0.21444
0.214439
0.214438
0.214437
0.214436
0.214435
0.214434
0.214433
0.214432
0.214431
0.21443
0.21443
0.214429
0.214428
0.214427
0.214426
0.214425
0.214424
0.214423
0.214422
0.214421
0.21442
0.214419
0.214418
0.214417
0.214416
0.214415
0.214414
0.214413
0.214412
0.214411
0.21441
0.214409
0.214408
0.214407
0.214407
0.214406
0.214405
0.214404
0.214403
0.214402
0.214401
0.2144
0.214399
0.214398
0.214397
0.214396
0.214395
0.214394
0.214393
0.214392
0.214392
0.214391
0.21439
0.214389
0.214388
0.214387
0.214386
0.214385
0.214384
0.214383
0.214382
0.214381
0.21438
0.21438
0.214379
0.214378
0.214377
0.214376
0.214375
0.214374
0.214373
0.214372
0.214371
0.21437
0.21437
0.214369
0.214368
0.214367
0.214366
0.214365
0.214364
0.214363
0.214362
0.214361
0.214361
0.21436
0.214359
0.214358
0.214357
0.214356
0.214355
0.214354
0.214354
0.214353
0.214352
0.214351
0.21435
0.214349
0.214348
0.214347
0.214347
0.214346
0.214345
0.214344
0.214343
0.214342
0.214341
0.21434
0.21434
0.214339
0.214338
0.214337
0.214336
0.214335
0.214335
0.214334
0.214333
0.214332
0.214331
0.21433
0.214329
0.214329
0.214328
0.214327
0.214326
0.214325
0.214324
0.214324
0.214323
0.214322
0.214321
0.21432
0.214319
0.214319
0.214318
0.214317
0.214316
0.214315
0.214315
0.214314
0.214313
0.214312
0.214311
0.214311
0.21431
0.214309
0.214308
0.214307
0.214307
0.214306
0.214305
0.214304
0.214303
0.214303
0.214302
0.214301
0.2143
0.2143
0.214299
0.214298
0.214297
0.214296
0.214296
0.214295
0.214294
0.214293
0.214293
0.214292
0.214291
0.21429
0.21429
0.214289
0.214288
0.214287
0.214287
0.214286
0.214285
0.214284
0.214284
0.214283
0.214282
0.214281
0.214281
0.21428
0.214279
0.214278
0.214278
0.214277
0.214276
0.214276
0.214275
0.214274
0.214273
0.214273
0.214272
0.214271
0.214271
0.21427
0.214269
0.214269
0.214268
0.214267
0.214267
0.214266
0.214265
0.214264
0.214264
0.214263
0.214262
0.214262
0.214261
0.21426
0.21426
0.214259
0.214258
0.214258
0.214257
0.214257
0.214256
0.214255
0.214255
0.214254
0.214253
0.214253
0.214252
0.214251
0.214251
0.21425
0.21425
0.214249
0.214248
0.214248
0.214247
0.214246
0.214246
0.214245
0.214245
0.214244
0.214243
0.214243
0.214242
0.214242
0.214241
0.214241
0.21424
0.214239
0.214239
0.214238
0.214238
0.214237
0.214237
0.214236
0.214235
0.214235
0.214234
0.214234
0.214233
0.214233
0.214232
0.214232
0.214231
0.214231
0.21423
0.21423
0.214229
0.214229
0.214228
0.214228
0.214227
0.214227
0.214226
0.214226
0.214225
0.214225
0.214224
0.214224
0.214223
0.214223
0.214222
0.214222
0.214221
0.214221
0.21422
0.21422
0.214219
0.214219
0.214219
0.214218
0.214218
0.214217
0.214217
0.214216
0.214216
0.214216
0.214215
0.214215
0.214214
0.214214
0.214214
0.214213
0.214213
0.214212
0.214212
0.214212
0.214211
0.214211
0.214211
0.21421
0.21421
0.21421
0.214209
0.214209
0.214209
0.214208
0.214208
0.214208
0.214207
0.214207
0.214207
0.214206
0.214206
0.214206
0.214205
0.214205
0.214205
0.214205
0.214204
0.214204
0.214204
0.214204
0.214203
0.214203
0.214203
0.214203
0.214202
0.214202
0.214202
0.214202
0.214201
0.214201
0.214201
0.214201
0.214201
0.2142
0.2142
0.2142
0.2142
0.2142
0.214199
0.214199
0.214199
0.214199
0.214199
0.214199
0.214199
0.214198
0.214198
0.214198
0.214198
0.214198
0.214198
0.214198
0.214198
0.214198
0.214198
0.214198
0.214197
0.214197
0.214197
0.214197
0.214197
0.214197
0.214197
0.214197
0.214197
0.214197
0.214197
0.214197
0.214197
0.214197
0.214197
0.214197
0.214197
0.214197
0.214197
0.214197
0.214197
0.214197
0.214198
0.214198
0.214198
0.214198
0.214198
0.214198
0.214198
0.214198
0.214198
0.214198
0.214199
0.214199
0.214199
0.214199
0.214199
0.214199
0.2142
0.2142
0.2142
0.2142
0.2142
0.214201
0.214201
0.214201
0.214201
0.214202
0.214202
0.214202
0.214202
0.214203
0.214203
0.214203
0.214204
0.214204
0.214204
0.214205
0.214205
0.214205
0.214206
0.214206
0.214206
0.214207
0.214207
0.214208
0.214208
0.214208
0.214209
0.214209
0.21421
0.21421
0.214211
0.214211
0.214212
0.214212
0.214213
0.214213
0.214214
0.214214
0.214215
0.214215
0.214216
0.214216
0.214217
0.214217
0.214218
0.214219
0.214219
0.21422
0.214221
0.214221
0.214222
0.214223
0.214223
0.214224
0.214225
0.214225
0.214226
0.214227
0.214227
0.214228
0.214229
0.21423
0.214231
0.214231
0.214232
0.214233
0.214234
0.214235
0.214236
0.214236
0.214237
0.214238
0.214239
0.21424
0.214241
0.214242
0.214243
0.214244
0.214245
0.214246
0.214247
0.214248
0.214249
0.21425
0.214251
0.214252
0.214253
0.214254
0.214255
0.214256
0.214257
0.214259
0.21426
0.214261
0.214262
0.214263
0.214264
0.214266
0.214267
0.214268
0.214269
0.214271
0.214272
0.214273
0.214275
0.214276
0.214277
0.214279
0.21428
0.214281
0.214283
0.214284
0.214286
0.214287
0.214289
0.21429
0.214292
0.214293
0.214295
0.214296
0.214298
0.214299
0.214301
0.214303
0.214304
0.214306
0.214308
0.214309
0.214311
0.214313
0.214314
0.214316
0.214318
0.21432
0.214321
0.214323
0.214325
0.214327
0.214329
0.214331
0.214333
0.214335
0.214337
0.214339
0.21434
0.214342
0.214345
0.214347
0.214349
0.214351
0.214353
0.214355
0.214357
0.214359
0.214361
0.214364
0.214366
0.214368
0.21437
0.214373
0.214375
0.214377
0.214379
0.214382
0.214384
0.214387
0.214389
0.214392
0.214394
0.214396
0.214399
0.214401
0.214404
0.214407
0.214409
0.214412
0.214414
0.214417
0.21442
0.214423
0.214425
0.214428
0.214431
0.214434
0.214436
0.214439
0.214442
0.214445
0.214448
0.214451
0.214454
0.214457
0.21446
0.214463
0.214466
0.214469
0.214472
0.214475
0.214479
0.214482
0.214485
0.214488
0.214491
0.214495
0.214498
0.214501
0.214505
0.214508
0.214512
0.214515
0.214519
0.214522
0.214526
0.214529
0.214533
0.214536
0.21454
0.214544
0.214548
0.214551
0.214555
0.214559
0.214563
0.214567
0.21457
0.214574
0.214578
0.214582
0.214586
0.21459
0.214594
0.214598
0.214603
0.214607
0.214611
0.214615
0.214619
0.214624
0.214628
0.214632
0.214637
0.214641
0.214645
0.21465
0.214654
0.214659
0.214663
0.214668
0.214673
0.214677
0.214682
0.214687
0.214691
0.214696
0.214701
0.214706
0.214711
0.214716
0.214721
0.214726
0.214731
0.214736
0.214741
0.214746
0.214751
0.214756
0.214762
0.214767
0.214772
0.214777
0.214783
0.214788
0.214794
0.214799
0.214805
0.21481
0.214816
0.214821
0.214827
0.214833
0.214839
0.214844
0.21485
0.214856
0.214862
0.214868
0.214874
0.21488
0.214886
0.214892
0.214898
0.214904
0.21491
0.214916
0.214923
0.214929
0.214935
0.214941
0.214948
0.214954
0.214961
0.214967
0.214974
0.21498
0.214987
0.214994
0.215
0.215007
0.215014
0.215021
0.215028
0.215034
0.215041
0.215048
0.215055
0.215062
0.215069
0.215077
0.215084
0.215091
0.215098
0.215105
0.215113
0.21512
0.215127
0.215135
0.215142
0.21515
0.215157
0.215165
0.215172
0.21518
0.215188
0.215196
0.215203
0.215211
0.215219
0.215227
0.215235
0.215243
0.215251
0.215259
0.215267
0.215275
0.215283
0.215291
0.215299
0.215308
0.215316
0.215324
0.215333
0.215341
0.21535
0.215358
0.215367
0.215375
0.215384
0.215392
0.215401
0.21541
0.215418
0.215427
0.215436
0.215445
0.215454
0.215463
0.215472
0.21548
0.21549
0.215499
0.215508
0.215517
0.215526
0.215535
0.215544
0.215554
0.215563
0.215572
0.215582
0.215591
0.2156
0.21561
0.215619
0.215629
0.215639
0.215648
0.215658
0.215667
0.215677
0.215687
0.215697
0.215706
0.215716
0.215726
0.215736
0.215746
0.215756
0.215765
0.215776
0.215785
0.215796
0.215806
0.215816
0.215826
0.215836
0.215846
0.215857
0.215867
0.215877
0.215887
0.215898
0.215908
0.215918
0.215929
0.215939
0.21595
0.21596
0.215971
0.215981
0.215992
0.216002
0.216013
0.216024
0.216034
0.216045
0.216055
0.216066
0.216077
0.216088
0.216099
0.21611
0.21612
0.216131
0.216142
0.216153
0.216164
0.216175
0.216186
0.216197
0.216208
0.216219
0.21623
0.216241
0.216252
0.216263
0.216274
0.216285
0.216296
0.216308
0.216319
0.21633
0.216341
0.216353
0.216364
0.216375
0.216386
0.216398
0.216409
0.216421
0.216431
0.216443
0.216454
0.216466
0.216477
0.216489
0.2165
0.216512
0.216523
0.216535
0.216546
0.216558
0.216569
0.216581
0.216592
0.216604
0.216615
0.216627
0.216638
0.21665
0.216661
0.216674
0.216685
0.216697
0.216708
0.21672
0.216731
0.216744
0.216755
0.216767
0.216778
0.21679
0.216802
0.216814
0.216825
0.216837
0.216849
0.216861
0.216872
0.216885
0.216896
0.216908
0.216919
0.216932
0.216943
0.216956
0.216967
0.216979
0.21699
0.217003
0.217014
0.217027
0.217038
0.217051
0.217062
0.217074
0.217086
0.217098
0.217109
0.217122
0.217133
0.217146
0.217157
0.21717
0.217181
0.217194
0.217205
0.217218
0.217229
0.217242
0.217253
0.217266
0.217277
0.21729
0.217301
0.217314
0.217325
0.217338
0.217349
0.217362
0.217373
0.217386
0.217397
0.21741
0.217421
0.217434
0.217445
0.217458
0.217469
0.217483
0.217494
0.217507
0.217518
0.217531
0.217542
0.217555
0.217566
0.217579
0.21759
0.217603
0.217614
0.217628
0.217638
0.217652
0.217663
0.217676
0.217687
0.2177
0.217711
0.217724
0.217735
0.217749
0.21776
0.217773
0.217784
0.217797
0.217808
0.217821
0.217832
0.217846
0.217857
0.21787
0.217881
0.217894
0.217905
0.217919
0.217929
0.217943
0.217954
0.217967
0.217978
0.217991
0.218002
0.218016
0.218027
0.21804
0.218051
0.218064
0.218075
0.218089
0.2181
0.218113
0.218124
0.218137
0.218148
0.218161
0.218173
0.218186
0.218197
0.21821
0.218222
0.218234
0.218246
0.218259
0.21827
0.218283
0.218295
0.218307
0.218319
0.218332
0.218344
0.218356
0.218368
0.21838
0.218393
0.218405
0.218417
0.218429
0.218441
0.218454
0.218466
0.218478
0.21849
0.218502
0.218515
0.218527
0.218539
0.218551
0.218563
0.218576
0.218588
0.2186
0.218612
0.218624
0.218637
0.218649
0.218661
0.218673
0.218685
0.218698
0.21871
0.218722
0.218734
0.218747
0.218759
0.218771
0.218783
0.218795
0.218808
0.21882
0.218832
0.218844
0.218857
0.218869
0.218881
0.218893
0.218906
0.218918
0.21893
0.218942
0.218954
0.218967
0.218979
0.218991
0.219003
0.219016
0.219028
0.21904
0.219052
0.219065
0.219077
0.219089
0.219101
0.219114
0.219126
0.219138
0.21915
0.219163
0.219175
0.219187
0.219199
0.219212
0.219224
0.219236
0.219248
0.219261
0.219273
0.219285
0.219297
0.21931
0.219322
0.219334
0.219346
0.219359
0.219371
0.219383
0.219395
0.219408
0.21942
0.219432
0.219445
0.219457
0.219469
0.219481
0.219494
0.219506
0.219518
0.21953
0.219543
0.219555
0.219567
0.21958
0.219592
0.219604
0.219616
0.219629
0.219641
0.219653
0.219665
0.219678
0.21969
0.219702
0.219715
0.219727
0.219739
0.219751
0.219764
0.219776
0.219788
0.219801
0.219813
0.219825
0.219838
0.21985
0.219862
0.219874
0.219887
0.219899
0.219911
0.219924
0.219936
0.219948
0.21996
0.219973
0.219985
0.219997
0.22001
0.220022
0.220034
0.220047
0.220059
0.220071
0.220084
0.220096
0.220108
0.22012
0.220133
0.220145
0.220157
0.22017
0.220182
0.220194
0.220207
0.220219
0.220231
0.220244
0.220256
0.220268
0.220281
0.220293
0.220305
0.220318
0.22033
0.220342
0.220355
0.220367
0.220379
0.220392
0.220404
0.220416
0.220429
0.220441
0.220453
0.220465
0.220478
0.22049
0.220503
0.220515
0.220527
0.22054
0.220552
0.220564
0.220577
0.220589
0.220601
0.220614
0.220626
0.220638
0.220651
0.220663
0.220675
0.220688
0.2207
0.220712
0.220725
0.220737
0.220749
0.220762
0.220774
0.220786
0.220799
0.220811
0.220824
0.220836
0.220848
0.220861
0.220873
0.220885
0.220898
0.22091
0.220922
0.220935
0.220947
0.220959
0.220972
0.220984
0.220997
0.221009
0.221021
0.221034
0.221046
0.221058
0.221071
0.221083
0.221096
0.221108
0.22112
0.221133
0.221145
0.221157
0.22117
0.221182
0.221195
0.221207
0.221219
0.221232
0.221244
0.221257
0.221269
0.221281
0.221294
0.221306
0.221318
0.221331
0.221343
0.221356
0.221368
0.22138
0.221393
0.221405
0.221418
0.22143
0.221442
0.221455
0.221467
0.22148
0.221492
0.221504
0.221517
0.221529
0.221542
0.221554
0.221566
0.221579
0.221591
0.221604
0.221616
0.221628
0.221641
0.221653
0.221666
0.221678
0.22169
0.221703
0.221715
0.221728
0.22174
0.221753
0.221765
0.221777
0.22179
0.221802
0.221815
0.221827
0.221839
0.221852
0.221864
0.221877
0.221889
0.221902
0.221914
0.221926
0.221939
0.221951
0.221964
0.221976
0.221989
0.222001
0.222013
0.222026
0.222038
0.222051
0.222063
0.222076
0.222088
0.222101
0.222113
0.222125
0.222138
0.22215
0.222163