/*--------------------------------*- C++ -*----------------------------------*\
  =========                 |
  \\      /  F ield         | OpenFOAM: The Open Source CFD Toolbox
   \\    /   O peration     | Website:  https://openfoam.org
    \\  /    A nd           | Version:  9
     \\/     M anipulation  |
\*---------------------------------------------------------------------------*/
FoamFile
{
    format      ascii;
    class       volScalarField;
    location    "0.007";
    object      mag(U);
}
// * * * * * * * * * * * * * * * * * * * * * * * * * * * * * * * * * * * * * //

dimensions      [0 1 -1 0 0 0 0];

internalField   nonuniform List<scalar> 
1000
(
8.90749e-12
8.31622e-12
7.1981e-12
8.04125e-12
6.53219e-12
8.26006e-12
6.98732e-12
9.0237e-12
5.82398e-12
8.5044e-12
6.09166e-12
7.00117e-12
5.23611e-12
6.73058e-12
4.58333e-12
5.72552e-12
5.9064e-12
6.98732e-12
5.86264e-12
5.54682e-12
5.2135e-12
4.3565e-12
5.12306e-12
5.45565e-12
6.04862e-12
5.39876e-12
5.72697e-12
5.90859e-12
6.29588e-12
6.00267e-12
7.2601e-12
5.31342e-12
7.24624e-12
6.00122e-12
8.17691e-12
6.7386e-12
8.00989e-12
7.07557e-12
7.68605e-12
6.75246e-12
7.2105e-12
6.2069e-12
7.23238e-12
6.47239e-12
7.34835e-12
6.30317e-12
6.8006e-12
5.00199e-12
3.614e-12
4.08007e-12
4.20552e-12
3.47397e-12
3.86345e-12
4.67377e-12
3.65922e-12
4.21938e-12
2.91746e-12
4.29012e-12
3.01738e-12
3.68913e-12
1.60606e-12
1.77309e-12
1.63524e-12
2.23842e-12
1.237e-12
2.73804e-12
1.2618e-13
4.41266e-13
2.04222e-14
1.10936e-12
1.16188e-12
1.82487e-12
2.4069e-12
1.99117e-12
3.46157e-12
1.20856e-12
4.03047e-12
2.9036e-12
3.52721e-12
3.43458e-12
3.51992e-12
2.68115e-12
2.11516e-12
1.8256e-12
2.09182e-12
3.81093e-12
2.56955e-12
3.52794e-12
3.66579e-12
5.18943e-12
3.70007e-12
3.91304e-12
2.36241e-12
4.73796e-12
3.234e-12
5.31561e-12
5.44982e-12
6.71526e-12
5.82398e-12
6.22659e-12
5.88671e-12
5.41043e-12
4.89404e-12
4.49216e-12
3.31496e-12
1.39163e-12
2.26833e-13
5.36813e-13
1.59293e-12
1.76288e-12
3.53815e-12
3.24422e-12
4.07934e-12
3.41124e-12
5.37469e-12
4.14498e-12
4.52571e-12
5.95454e-12
4.7489e-12
5.54026e-12
6.58179e-12
6.22878e-12
8.15357e-12
7.98873e-12
6.85238e-12
6.69995e-12
7.43515e-12
7.84943e-12
6.59784e-12
7.38263e-12
7.88225e-12
9.00036e-12
8.46866e-12
6.25139e-12
5.71457e-12
6.48478e-12
6.85676e-12
8.32789e-12
7.23603e-12
5.7525e-12
5.50087e-12
4.36963e-12
4.4287e-12
5.56287e-12
4.13915e-12
4.04506e-12
2.85765e-12
3.25953e-12
3.77446e-12
2.08525e-12
2.10786e-12
3.03781e-12
2.02836e-12
2.62863e-12
9.01495e-13
1.37121e-12
2.4069e-14
5.02532e-13
3.70517e-13
1.06706e-12
2.49151e-12
2.3522e-12
3.296e-12
3.96337e-12
4.14061e-12
5.08732e-12
4.28575e-12
5.44106e-12
7.41472e-12
8.41687e-12
9.17906e-12
8.21265e-12
9.28555e-12
9.27898e-12
8.82386e-12
6.7211e-12
7.6948e-12
8.02739e-12
1.01185e-11
1.47412e-11
2.46824e-11
4.3433e-11
8.1376e-11
1.531e-10
2.96384e-10
5.73368e-10
1.10862e-09
2.13097e-09
4.07401e-09
7.73768e-09
1.46062e-08
2.739e-08
5.10283e-08
9.44301e-08
1.73566e-07
3.1683e-07
5.74322e-07
1.03374e-06
1.84733e-06
3.27729e-06
5.77125e-06
1.0087e-05
1.74959e-05
3.01119e-05
5.14175e-05
8.70948e-05
0.000146325
0.000243794
0.00040275
0.000659597
0.00107072
0.00172243
0.00274527
0.00433423
0.00677675
0.0104907
0.0160748
0.0243737
0.0365595
0.0542301
0.079523
0.115239
0.164966
0.233187
0.32535
0.447865
0.608005
0.813649
1.07285
1.39311
1.78033
2.23711
2.76119
3.34667
3.98719
4.67749
5.41322
6.19041
7.0052
7.85387
8.73289
9.63898
10.5691
11.5205
12.4909
13.4779
14.4799
15.495
16.522
17.5594
18.6064
19.6618
20.7249
21.7949
22.8713
23.9535
25.0409
26.1331
27.2298
28.3306
29.4352
30.5433
31.6546
32.769
33.8862
35.0061
36.1284
37.253
38.3799
39.5087
40.6395
41.7721
42.9064
44.0423
45.1798
46.3187
47.459
48.6007
49.7435
50.8876
52.0327
53.179
54.3262
55.4745
56.6237
57.7738
58.9247
60.0765
61.229
62.3823
63.5363
64.691
65.8464
67.0024
68.1591
69.3163
70.4741
71.6324
72.7913
73.9507
75.1105
76.2709
77.4316
78.5929
79.7545
80.9166
82.079
83.2419
84.4051
85.5686
86.7326
87.8968
89.0613
90.2262
91.3914
92.5568
93.7226
94.8886
96.0549
97.2214
98.3882
99.5552
100.722
101.89
103.058
104.225
105.394
106.562
107.73
108.899
110.068
111.237
112.406
113.575
114.745
115.914
117.084
118.254
119.424
120.594
121.764
122.935
124.105
125.276
126.446
127.617
128.788
129.959
131.13
132.301
133.472
134.644
135.815
136.986
138.158
139.329
140.501
141.672
142.844
144.015
145.187
146.358
147.53
148.701
149.873
151.045
152.216
153.388
154.559
155.731
156.902
158.073
159.245
160.416
161.587
162.758
163.93
165.101
166.272
167.443
168.614
169.785
170.956
172.126
173.297
174.468
175.638
176.809
177.979
179.149
180.319
181.488
182.658
183.827
184.997
186.166
187.335
188.503
189.672
190.84
192.008
193.176
194.343
195.51
196.677
197.843
199.009
200.176
201.34
202.505
203.671
204.834
205.998
207.162
208.324
209.486
210.649
211.81
212.97
214.13
215.29
216.448
217.606
218.764
219.92
221.075
222.23
223.384
224.536
225.688
226.84
227.989
229.138
230.285
231.432
232.576
233.72
234.862
236.004
237.142
238.28
239.415
240.549
241.68
242.81
243.938
245.062
246.186
247.305
248.423
249.537
250.65
251.756
252.862
253.962
255.061
256.153
257.243
258.326
259.407
260.48
261.55
262.611
263.67
264.719
265.763
266.796
267.825
268.842
269.854
270.852
271.844
272.821
273.791
274.744
275.688
276.613
277.528
278.422
279.303
280.161
281.005
281.825
282.628
283.405
284.164
284.894
285.602
286.28
286.933
287.555
288.149
288.709
289.239
289.737
290.206
290.642
291.043
291.412
291.749
292.064
292.348
292.61
292.842
293.05
293.233
293.391
293.525
293.638
293.734
293.817
293.885
293.948
293.999
294.046
294.082
294.106
294.122
294.128
294.126
294.117
294.095
294.043
293.947
293.815
293.671
293.532
293.418
293.323
293.262
293.24
293.24
293.242
293.247
293.259
293.284
293.319
293.357
293.393
293.42
293.444
293.461
293.473
293.483
293.485
293.484
293.483
293.482
293.481
293.479
293.479
293.479
293.479
293.48
293.48
293.48
293.48
293.48
293.479
293.478
293.476
293.475
293.475
293.475
293.475
293.475
293.475
293.475
293.475
293.475
293.476
293.476
293.476
293.477
293.476
293.476
293.476
293.476
293.476
293.477
293.477
293.477
293.478
293.479
293.479
293.478
293.48
293.482
293.482
293.481
293.48
293.481
293.483
293.485
293.483
293.483
293.486
293.489
293.488
293.485
293.486
293.49
293.493
293.491
293.49
293.493
293.497
293.494
293.489
293.492
293.501
293.504
293.501
293.499
293.502
293.507
293.509
293.509
293.511
293.513
293.514
293.519
293.522
293.519
293.516
293.52
293.526
293.526
293.523
293.526
293.532
293.533
293.531
293.533
293.539
293.54
293.538
293.541
293.547
293.546
293.543
293.548
293.556
293.553
293.547
293.552
293.563
293.563
293.556
293.558
293.568
293.571
293.564
293.565
293.575
293.579
293.572
293.569
293.58
293.589
293.584
293.579
293.588
293.597
293.592
293.586
293.597
293.607
293.598
293.592
293.606
293.617
293.603
293.596
293.622
293.633
293.604
293.594
293.637
293.66
293.62
293.582
293.61
293.665
293.662
293.622
293.614
293.654
293.685
293.668
293.649
293.665
293.689
293.679
293.655
293.664
293.693
293.71
293.738
293.834
294.044
294.075
293.926
293.715
293.558
293.455
293.389
293.388
293.445
293.452
293.347
293.309
293.44
293.492
293.356
293.365
293.593
293.572
293.352
293.529
293.888
293.698
293.301
293.51
293.991
293.807
293.164
293.079
293.647
294.006
293.57
292.952
293.101
293.757
293.955
293.447
292.943
293.184
293.787
293.874
293.41
293.06
293.314
293.745
293.709
293.38
293.256
293.439
293.646
293.61
293.439
293.369
293.464
293.57
293.52
293.403
293.396
293.464
293.468
293.399
293.388
293.452
293.468
293.418
293.423
293.508
293.533
293.475
293.463
293.536
293.56
293.483
293.434
293.48
293.5
293.412
293.35
293.408
293.437
293.338
293.301
293.436
293.503
293.377
293.342
293.548
293.643
293.441
293.33
293.565
293.741
293.515
293.263
293.428
293.699
293.576
293.258
293.278
293.561
293.623
293.366
293.203
293.391
293.625
293.517
293.25
293.252
293.475
293.556
293.382
293.224
293.296
293.437
293.437
293.35
293.302
293.321
293.349
293.346
293.326
293.31
293.298
293.278
293.252
293.246
293.251
293.238
293.198
293.148
293.086
293.006
292.962
292.972
293.002
292.987
292.964
292.993
293.004
292.919
292.785
292.704
292.645
292.562
292.533
292.605
292.644
292.558
292.463
292.437
292.328
292.001
291.787
291.837
291.942
291.916
291.871
291.938
292.031
292.008
291.92
291.883
291.864
291.762
291.494
291.066
290.691
290.669
290.665
290.659
290.724
290.736
290.615
290.43
290.189
289.683
288.865
287.921
287.614
287.735
287.744
287.643
287.548
287.211
286.265
284.808
282.64
278.658
269.724
245.126
163.121
46.0956
7.58288
1.14197
0.169137
0.0248564
0.00365641
0.000537805
7.91037e-05
1.16235e-05
1.70683e-06
2.50416e-07
3.67258e-08
5.38647e-09
7.90541e-10
1.16837e-10
1.7709e-11
4.13623e-12
1.66223e-12
7.9355e-13
2.49662e-12
1.41278e-12
3.83209e-12
2.85109e-12
4.16322e-12
5.29666e-12
6.11282e-12
6.59055e-12
5.94215e-12
5.62633e-12
6.32871e-12
6.24921e-12
4.28721e-12
5.54683e-12
3.77155e-12
3.91815e-12
1.54699e-12
7.03838e-13
2.10568e-12
8.05949e-13
1.23919e-12
9.41612e-13
3.47908e-13
2.85984e-12
1.72641e-12
8.86909e-13
8.66487e-13
3.59577e-13
1.16844e-12
5.62341e-13
7.43224e-13
3.39155e-12
2.72345e-12
2.63593e-12
4.77151e-12
5.96403e-12
6.77581e-12
5.33385e-12
6.42863e-12
5.34625e-12
6.82978e-12
5.37689e-12
4.52353e-12
4.04215e-12
2.31136e-12
3.76791e-12
4.82476e-12
4.1975e-12
4.02245e-12
3.55785e-12
2.82119e-12
6.57159e-13
1.77892e-12
2.54913e-12
1.4777e-12
5.63071e-13
4.77881e-12
3.38572e-12
3.6038e-12
4.30107e-12
4.2595e-12
3.86856e-12
2.86422e-12
4.48998e-12
3.82042e-12
3.64683e-12
4.73359e-12
4.16979e-12
3.73217e-12
4.61178e-12
5.63946e-12
6.81666e-12
6.85969e-12
9.41903e-12
8.64518e-12
8.60141e-12
8.39719e-12
9.78445e-12
7.35128e-12
9.90698e-12
7.14341e-12
1.04292e-11
8.63861e-12
8.15358e-12
7.78744e-12
7.06683e-12
7.35639e-12
7.90706e-12
8.69404e-12
8.35635e-12
6.66252e-12
)
;

boundaryField
{
    sides
    {
        type            calculated;
        value           nonuniform List<scalar> 2(6.66252e-12 8.90749e-12);
    }
    empty
    {
        type            empty;
    }
}


// ************************************************************************* //
