/*--------------------------------*- C++ -*----------------------------------*\
  =========                 |
  \\      /  F ield         | OpenFOAM: The Open Source CFD Toolbox
   \\    /   O peration     | Website:  https://openfoam.org
    \\  /    A nd           | Version:  9
     \\/     M anipulation  |
\*---------------------------------------------------------------------------*/
FoamFile
{
    format      ascii;
    class       volVectorField;
    location    "0.009";
    object      ddt0(rho,U);
}
// * * * * * * * * * * * * * * * * * * * * * * * * * * * * * * * * * * * * * //

dimensions      [1 -2 -2 0 0 0 0];

internalField   nonuniform List<vector> 
1000
(
(2.91038e-09 0 0)
(1.16415e-08 0 0)
(1.45519e-08 0 0)
(1.45519e-08 0 0)
(1.89175e-08 0 0)
(1.74623e-08 0 0)
(1.01863e-08 0 0)
(7.27596e-09 0 0)
(7.27596e-09 0 0)
(-2.91038e-09 0 0)
(-1.89175e-08 0 0)
(-2.18279e-08 0 0)
(-1.16415e-08 0 0)
(-1.01863e-08 0 0)
(-1.30967e-08 0 0)
(-8.73115e-09 0 0)
(-2.91038e-09 0 0)
(-4.36557e-09 0 0)
(-4.36557e-09 0 0)
(2.91038e-09 0 0)
(-7.27596e-09 0 0)
(-1.16415e-08 0 0)
(1.45519e-09 0 0)
(1.30967e-08 0 0)
(1.89175e-08 0 0)
(2.32831e-08 0 0)
(1.89175e-08 0 0)
(4.36557e-09 0 0)
(-1.05216e-22 0 0)
(2.91038e-09 0 0)
(-4.36557e-09 0 0)
(-1.01863e-08 0 0)
(-8.73115e-09 0 0)
(-5.82077e-09 0 0)
(-2.91038e-09 0 0)
(1.45519e-09 0 0)
(7.27596e-09 0 0)
(-8.73115e-09 0 0)
(-1.30967e-08 0 0)
(-1.89175e-08 0 0)
(-1.74623e-08 0 0)
(-2.03727e-08 0 0)
(-2.18279e-08 0 0)
(-5.82077e-09 0 0)
(2.91038e-09 0 0)
(1.01863e-08 0 0)
(1.60071e-08 0 0)
(1.16415e-08 0 0)
(1.60071e-08 0 0)
(1.74623e-08 0 0)
(1.45519e-08 0 0)
(8.73115e-09 0 0)
(9.38327e-23 0 0)
(-4.36557e-09 0 0)
(-1.74623e-08 0 0)
(-3.0559e-08 0 0)
(-1.89175e-08 0 0)
(-7.27596e-09 0 0)
(5.82077e-09 0 0)
(1.45519e-08 0 0)
(1.60071e-08 0 0)
(5.82077e-09 0 0)
(4.36557e-09 0 0)
(7.27596e-09 0 0)
(1.60071e-08 0 0)
(5.82077e-09 0 0)
(-4.36557e-09 0 0)
(-1.45519e-09 0 0)
(4.11437e-23 0 0)
(-1.45519e-09 0 0)
(1.45519e-09 0 0)
(1.60071e-08 0 0)
(2.03727e-08 0 0)
(2.03727e-08 0 0)
(1.16415e-08 0 0)
(4.36557e-09 0 0)
(1.13324e-22 0 0)
(-5.82077e-09 0 0)
(-4.36557e-09 0 0)
(2.91038e-09 0 0)
(1.30967e-08 0 0)
(1.01863e-08 0 0)
(-7.27596e-09 0 0)
(-1.16415e-08 0 0)
(-4.36557e-09 0 0)
(-1.45519e-08 0 0)
(-1.74623e-08 0 0)
(-1.30967e-08 0 0)
(-7.27596e-09 0 0)
(-4.36557e-09 0 0)
(-4.36557e-09 0 0)
(1.45519e-09 0 0)
(4.36557e-09 0 0)
(-5.82077e-09 0 0)
(-5.82077e-09 0 0)
(-2.91038e-09 0 0)
(1.45519e-09 0 0)
(8.73115e-09 0 0)
(7.27596e-09 0 0)
(-1.45519e-09 0 0)
(-2.91038e-09 0 0)
(5.82077e-09 0 0)
(1.74623e-08 0 0)
(3.92902e-08 0 0)
(8.58563e-08 0 0)
(1.81899e-07 0 0)
(3.7835e-07 0 0)
(7.63976e-07 0 0)
(1.51485e-06 0 0)
(2.95113e-06 0 0)
(5.7189e-06 0 0)
(1.10231e-05 0 0)
(2.10799e-05 0 0)
(4.00731e-05 0 0)
(7.56918e-05 0 0)
(0.00014207 0 0)
(0.000264938 0 0)
(0.000490791 0 0)
(0.000903114 0 0)
(0.00165051 0 0)
(0.00299559 0 0)
(0.00539866 0 0)
(0.00966014 0 0)
(0.0171602 0 0)
(0.0302584 0 0)
(0.0529539 0 0)
(0.0919642 0 0)
(0.158469 0 0)
(0.270899 0 0)
(0.459342 0 0)
(0.772427 0 0)
(1.28793 0 0)
(2.12888 0 0)
(3.48778 0 0)
(5.66222 0 0)
(9.10672 0 0)
(14.5065 0 0)
(22.8807 0 0)
(35.7234 0 0)
(55.1917 0 0)
(84.3488 0 0)
(127.469 0 0)
(190.402 0 0)
(280.986 0 0)
(409.481 0 0)
(588.969 0 0)
(835.631 0 0)
(1168.8 0 0)
(1610.63 0 0)
(2185.21 0 0)
(2917.04 0 0)
(3828.75 0 0)
(4938.07 0 0)
(6254.52 0 0)
(7775.94 0 0)
(9485.9 0 0)
(11352.4 0 0)
(13328.5 0 0)
(15355.8 0 0)
(17369 0 0)
(19302.7 0 0)
(21097.9 0 0)
(22706.7 0 0)
(24096.5 0 0)
(25252 0 0)
(26177.4 0 0)
(26892.1 0 0)
(27424.4 0 0)
(27804.6 0 0)
(28061.9 0 0)
(28221.8 0 0)
(28305.6 0 0)
(28330.3 0 0)
(28309.3 0 0)
(28253 0 0)
(28169.4 0 0)
(28064.6 0 0)
(27943.4 0 0)
(27809.4 0 0)
(27665.5 0 0)
(27513.9 0 0)
(27356.3 0 0)
(27194 0 0)
(27028.2 0 0)
(26859.6 0 0)
(26689 0 0)
(26516.7 0 0)
(26343.2 0 0)
(26168.9 0 0)
(25993.9 0 0)
(25818.4 0 0)
(25642.6 0 0)
(25466.5 0 0)
(25290.3 0 0)
(25114 0 0)
(24937.6 0 0)
(24761.2 0 0)
(24584.8 0 0)
(24408.3 0 0)
(24231.9 0 0)
(24055.4 0 0)
(23879 0 0)
(23702.5 0 0)
(23526.1 0 0)
(23349.7 0 0)
(23173.3 0 0)
(22997 0 0)
(22820.7 0 0)
(22644.5 0 0)
(22468.4 0 0)
(22292.3 0 0)
(22116.4 0 0)
(21940.7 0 0)
(21765.1 0 0)
(21589.7 0 0)
(21414.5 0 0)
(21239.6 0 0)
(21064.9 0 0)
(20890.6 0 0)
(20716.5 0 0)
(20542.9 0 0)
(20369.6 0 0)
(20196.7 0 0)
(20024.3 0 0)
(19852.4 0 0)
(19680.9 0 0)
(19510 0 0)
(19339.6 0 0)
(19169.8 0 0)
(19000.6 0 0)
(18832 0 0)
(18664 0 0)
(18496.7 0 0)
(18330.1 0 0)
(18164.2 0 0)
(17998.9 0 0)
(17834.4 0 0)
(17670.7 0 0)
(17507.7 0 0)
(17345.4 0 0)
(17184 0 0)
(17023.3 0 0)
(16863.5 0 0)
(16704.4 0 0)
(16546.2 0 0)
(16388.8 0 0)
(16232.2 0 0)
(16076.5 0 0)
(15921.6 0 0)
(15767.6 0 0)
(15614.5 0 0)
(15462.2 0 0)
(15310.8 0 0)
(15160.3 0 0)
(15010.6 0 0)
(14861.8 0 0)
(14713.9 0 0)
(14566.9 0 0)
(14420.8 0 0)
(14275.5 0 0)
(14131.2 0 0)
(13987.8 0 0)
(13845.2 0 0)
(13703.5 0 0)
(13562.8 0 0)
(13422.9 0 0)
(13283.9 0 0)
(13145.8 0 0)
(13008.7 0 0)
(12872.4 0 0)
(12737 0 0)
(12602.5 0 0)
(12468.8 0 0)
(12336.1 0 0)
(12204.3 0 0)
(12073.4 0 0)
(11943.3 0 0)
(11814.1 0 0)
(11685.9 0 0)
(11558.5 0 0)
(11432 0 0)
(11306.3 0 0)
(11181.6 0 0)
(11057.7 0 0)
(10934.7 0 0)
(10812.5 0 0)
(10691.3 0 0)
(10570.9 0 0)
(10451.4 0 0)
(10332.7 0 0)
(10214.9 0 0)
(10098 0 0)
(9981.87 0 0)
(9866.64 0 0)
(9752.26 0 0)
(9638.73 0 0)
(9526.04 0 0)
(9414.2 0 0)
(9303.2 0 0)
(9193.04 0 0)
(9083.72 0 0)
(8975.23 0 0)
(8867.56 0 0)
(8760.73 0 0)
(8654.72 0 0)
(8549.54 0 0)
(8445.17 0 0)
(8341.62 0 0)
(8238.88 0 0)
(8136.95 0 0)
(8035.83 0 0)
(7935.52 0 0)
(7836 0 0)
(7737.29 0 0)
(7639.37 0 0)
(7542.24 0 0)
(7445.9 0 0)
(7350.35 0 0)
(7255.58 0 0)
(7161.6 0 0)
(7068.39 0 0)
(6975.95 0 0)
(6884.29 0 0)
(6793.39 0 0)
(6703.26 0 0)
(6613.89 0 0)
(6525.29 0 0)
(6437.43 0 0)
(6350.33 0 0)
(6263.98 0 0)
(6178.37 0 0)
(6093.53 0 0)
(6009.36 0 0)
(5926.08 0 0)
(5843.21 0 0)
(5761.74 0 0)
(5679.64 0 0)
(5600.97 0 0)
(5517.8 0 0)
(5445.03 0 0)
(5355.76 0 0)
(5296.54 0 0)
(5190.29 0 0)
(5158.56 0 0)
(5019.68 0 0)
(5029.12 0 0)
(4852.39 0 0)
(4890.36 0 0)
(4716.93 0 0)
(4704.56 0 0)
(4647.42 0 0)
(4470.43 0 0)
(4595.42 0 0)
(4260.43 0 0)
(4481.17 0 0)
(4183.93 0 0)
(4201.64 0 0)
(4245.42 0 0)
(3895.98 0 0)
(4173.14 0 0)
(3868.13 0 0)
(3808.61 0 0)
(3996.95 0 0)
(3562.06 0 0)
(3766.4 0 0)
(3725.32 0 0)
(3358.34 0 0)
(3675.26 0 0)
(3453.76 0 0)
(3206.18 0 0)
(3540.84 0 0)
(3222.29 0 0)
(3055.72 0 0)
(3386.95 0 0)
(3029.27 0 0)
(2889.67 0 0)
(3225.83 0 0)
(2880.68 0 0)
(2703.97 0 0)
(3057.56 0 0)
(2775.67 0 0)
(2505.36 0 0)
(2865.96 0 0)
(2709.98 0 0)
(2326.68 0 0)
(2626.47 0 0)
(2668.95 0 0)
(2208.22 0 0)
(2336.26 0 0)
(2594.91 0 0)
(2188.43 0 0)
(2041.53 0 0)
(2413.16 0 0)
(2251.41 0 0)
(1848.39 0 0)
(2091.58 0 0)
(2278.25 0 0)
(1851.88 0 0)
(1732.72 0 0)
(2104.61 0 0)
(1993.37 0 0)
(1563.94 0 0)
(1714.73 0 0)
(2008.67 0 0)
(1690.77 0 0)
(1388.32 0 0)
(1687.02 0 0)
(1846.05 0 0)
(1436.55 0 0)
(1265.82 0 0)
(1620.39 0 0)
(1671.51 0 0)
(1238.94 0 0)
(1151.39 0 0)
(1517.86 0 0)
(1517.8 0 0)
(1087.75 0 0)
(1025.06 0 0)
(1386.62 0 0)
(1397.97 0 0)
(978.854 0 0)
(879.435 0 0)
(1229.9 0 0)
(1307.08 0 0)
(913.776 0 0)
(728.847 0 0)
(1039.35 0 0)
(1225.37 0 0)
(900.293 0 0)
(600.588 0 0)
(813.001 0 0)
(1114.14 0 0)
(931.147 0 0)
(539.582 0 0)
(572.392 0 0)
(928.502 0 0)
(963.437 0 0)
(582.536 0 0)
(382.669 0 0)
(652.724 0 0)
(911.603 0 0)
(709.089 0 0)
(336.94 0 0)
(353.61 0 0)
(698.218 0 0)
(799.435 0 0)
(470.333 0 0)
(190.797 0 0)
(358.684 0 0)
(685.685 0 0)
(654.497 0 0)
(293.079 0 0)
(106.05 0 0)
(337.292 0 0)
(632.391 0 0)
(543.434 0 0)
(167.613 0 0)
(24.0077 0 0)
(299.189 0 0)
(574.361 0 0)
(446.956 0 0)
(90.7993 0 0)
(-27.6631 0 0)
(212.348 0 0)
(481.309 0 0)
(424.427 0 0)
(81.5461 0 0)
(-127.527 0 0)
(87.928 0 0)
(438.465 0 0)
(419.911 0 0)
(51.235 0 0)
(-168.105 0 0)
(5.80245 0 0)
(301.09 0 0)
(374.028 0 0)
(156.672 0 0)
(-138.059 0 0)
(-172.809 0 0)
(131.593 0 0)
(385.786 0 0)
(251.435 0 0)
(-89.3093 0 0)
(-250.142 0 0)
(-65.5524 0 0)
(283.4 0 0)
(368.653 0 0)
(38.7137 0 0)
(-287.369 0 0)
(-207.041 0 0)
(137.431 0 0)
(334.326 0 0)
(185.091 0 0)
(-132.48 0 0)
(-269.701 0 0)
(-100.943 0 0)
(180.981 0 0)
(304.153 0 0)
(122.311 0 0)
(-216.572 0 0)
(-315.918 0 0)
(-21.1046 0 0)
(280.554 0 0)
(330.426 0 0)
(-37.0309 0 0)
(-327.209 0 0)
(-191.301 0 0)
(66.9559 0 0)
(150.598 0 0)
(308.653 0 0)
(61.8233 0 0)
(-272.672 0 0)
(-140.838 0 0)
(-9.27483 0 0)
(51.4506 0 0)
(96.091 0 0)
(111.764 0 0)
(-12.2412 0 0)
(-57.5336 0 0)
(-16.9016 0 0)
(-21.2004 0 0)
(34.0979 0 0)
(67.16 0 0)
(-8.85031 0 0)
(51.0584 0 0)
(-18.0211 0 0)
(-101.121 0 0)
(-53.171 0 0)
(53.0366 0 0)
(140.144 0 0)
(-79.4204 0 0)
(60.4468 0 0)
(85.1665 0 0)
(-154.812 0 0)
(-17.9782 0 0)
(216.546 0 0)
(28.8779 0 0)
(-217.045 0 0)
(1.46665 0 0)
(220.929 0 0)
(-32.8569 0 0)
(-168.75 0 0)
(75.2225 0 0)
(120.834 0 0)
(-137.996 0 0)
(7.49602 0 0)
(216.239 0 0)
(-38.9826 0 0)
(-170.244 0 0)
(90.0254 0 0)
(164.607 0 0)
(-157.609 0 0)
(-55.3793 0 0)
(146.337 0 0)
(76.9816 0 0)
(-150.905 0 0)
(-24.5759 0 0)
(178.455 0 0)
(36.9922 0 0)
(-144.795 0 0)
(-2.1084 0 0)
(130.776 0 0)
(16.0872 0 0)
(-98.8856 0 0)
(21.7645 0 0)
(119.86 0 0)
(-27.6375 0 0)
(-68.7352 0 0)
(42.567 0 0)
(78.2336 0 0)
(-51.0575 0 0)
(-21.4974 0 0)
(75.1966 0 0)
(31.8699 0 0)
(-51.6822 0 0)
(-5.18502 0 0)
(73.2122 0 0)
(28.7959 0 0)
(-36.2907 0 0)
(10.6017 0 0)
(64.847 0 0)
(6.51383 0 0)
(-29.7435 0 0)
(26.4883 0 0)
(57.0602 0 0)
(-7.87221 0 0)
(-18.5367 0 0)
(37.1983 0 0)
(57.7057 0 0)
(-0.295125 0 0)
(-12.8672 0 0)
(31.1274 0 0)
(43.5406 0 0)
(-13.5786 0 0)
(-6.51872 0 0)
(49.2721 0 0)
(31.4961 0 0)
(-19.0212 0 0)
(20.0927 0 0)
(49.3637 0 0)
(-1.87526 0 0)
(-7.70564 0 0)
(40.1371 0 0)
(31.2833 0 0)
(-9.27005 0 0)
(1.41599 0 0)
(43.2506 0 0)
(41.0737 0 0)
(-19.0787 0 0)
(-12.1693 0 0)
(53.4522 0 0)
(59.6119 0 0)
(-30.0865 0 0)
(-11.3822 0 0)
(75.6442 0 0)
(44.4074 0 0)
(-38.5565 0 0)
(27.7026 0 0)
(77.7689 0 0)
(7.09865 0 0)
(-28.6017 0 0)
(45.5047 0 0)
(66.5014 0 0)
(-10.6587 0 0)
(-18.8227 0 0)
(74.111 0 0)
(42.1796 0 0)
(-29.2314 0 0)
(36.2371 0 0)
(69.5536 0 0)
(4.47255 0 0)
(-19.1573 0 0)
(88.69 0 0)
(33.9987 0 0)
(-27.2964 0 0)
(47.3321 0 0)
(89.8529 0 0)
(-23.8772 0 0)
(-3.07374 0 0)
(85.2622 0 0)
(19.8968 0 0)
(-2.77405 0 0)
(48.7262 0 0)
(45.0111 0 0)
(17.9133 0 0)
(20.7928 0 0)
(40.6706 0 0)
(23.902 0 0)
(19.1246 0 0)
(56.3805 0 0)
(36.4611 0 0)
(20.3315 0 0)
(63.5887 0 0)
(35.1967 0 0)
(46.3923 0 0)
(70.9125 0 0)
(24.9491 0 0)
(11.0182 0 0)
(58.4525 0 0)
(23.0247 0 0)
(-1.75599 0 0)
(90.9342 0 0)
(55.4787 0 0)
(15.7052 0 0)
(51.6004 0 0)
(58.6138 0 0)
(29.2554 0 0)
(30.8096 0 0)
(60.2871 0 0)
(62.1302 0 0)
(56.485 0 0)
(65.6082 0 0)
(55.3697 0 0)
(55.3035 0 0)
(72.6261 0 0)
(63.8503 0 0)
(60.5366 0 0)
(52.4991 0 0)
(44.2649 0 0)
(64.3203 0 0)
(80.6127 0 0)
(81.8064 0 0)
(81.1414 0 0)
(60.5464 0 0)
(35.2781 0 0)
(35.6696 0 0)
(48.5994 0 0)
(81.0956 0 0)
(120.361 0 0)
(137.719 0 0)
(128.753 0 0)
(102.808 0 0)
(66.6536 0 0)
(29.5153 0 0)
(38.6996 0 0)
(70.5834 0 0)
(98.0214 0 0)
(142.211 0 0)
(183.254 0 0)
(176.678 0 0)
(135.454 0 0)
(113.282 0 0)
(76.3779 0 0)
(33.251 0 0)
(42.4718 0 0)
(55.9368 0 0)
(226.417 0 0)
(269.458 0 0)
(235.048 0 0)
(188.728 0 0)
(123.253 0 0)
(58.2245 0 0)
(46.9423 0 0)
(77.3546 0 0)
(194.184 0 0)
(297.933 0 0)
(350.35 0 0)
(367.515 0 0)
(340.614 0 0)
(288.642 0 0)
(198.285 0 0)
(113.422 0 0)
(92.4879 0 0)
(81.4846 0 0)
(99.7827 0 0)
(130.964 0 0)
(542.145 0 0)
(679.373 0 0)
(699.324 0 0)
(660.625 0 0)
(554.942 0 0)
(431.743 0 0)
(298.347 0 0)
(197.514 0 0)
(125.036 0 0)
(110.527 0 0)
(107.522 0 0)
(182.93 0 0)
(693.967 0 0)
(1615.37 0 0)
(1695.08 0 0)
(1771.19 0 0)
(1646.27 0 0)
(1442.4 0 0)
(1199.34 0 0)
(1119.13 0 0)
(752.652 0 0)
(300.937 0 0)
(320.281 0 0)
(351.924 0 0)
(-83.6595 0 0)
(-223.819 0 0)
(-146.233 0 0)
(849.365 0 0)
(4516.74 0 0)
(15106.6 0 0)
(62337.4 0 0)
(177280 0 0)
(168725 0 0)
(152472 0 0)
(134065 0 0)
(115416 0 0)
(97899.8 0 0)
(82076 0 0)
(67507.5 0 0)
(54672.5 0 0)
(44030.5 0 0)
(35185.2 0 0)
(27728.2 0 0)
(21566.3 0 0)
(16535.7 0 0)
(12405.8 0 0)
(9313.13 0 0)
(6976.48 0 0)
(4969.56 0 0)
(3563.46 0 0)
(2611.47 0 0)
(1800.97 0 0)
(1212.16 0 0)
(886.43 0 0)
(538.463 0 0)
(290.988 0 0)
(214.109 0 0)
(148.244 0 0)
(26.9478 0 0)
(-1.74363 0 0)
(11.3855 0 0)
(-8.02703 0 0)
(-60.3084 0 0)
(-63.5806 0 0)
(-26.6702 0 0)
(-11.0322 0 0)
(-34.692 0 0)
(-4.63085 0 0)
(8.70185 0 0)
(-3.73119 0 0)
(-60.6705 0 0)
(-91.6647 0 0)
(-54.7555 0 0)
(-60.0285 0 0)
(-106.526 0 0)
(-81.325 0 0)
(-48.9924 0 0)
(-69.1878 0 0)
(-61.8838 0 0)
(-26.489 0 0)
(-42.0362 0 0)
(-9.01971 0 0)
(22.0497 0 0)
(-40.0022 0 0)
(-42.956 0 0)
(-0.848244 0 0)
(11.5871 0 0)
(14.615 0 0)
(11.9924 0 0)
(15.0601 0 0)
(73.6846 0 0)
(55.4923 0 0)
(-8.93393 0 0)
(-13.5543 0 0)
(35.3009 0 0)
(19.3524 0 0)
(0.223953 0 0)
(3.0968 0 0)
(-16.7707 0 0)
(-27.9676 0 0)
(-51.4563 0 0)
(-39.5071 0 0)
(2.48611 0 0)
(13.0342 0 0)
(1.4255 0 0)
(-14.4376 0 0)
(1.1316 0 0)
(10.3323 0 0)
(5.95026 0 0)
(21.0463 0 0)
(15.1303 0 0)
(-0.973902 0 0)
(20.2322 0 0)
(36.864 0 0)
(-15.707 0 0)
(-18.7028 0 0)
(3.23108 0 0)
(14.1981 0 0)
(-1.8618 0 0)
(-19.4881 0 0)
(-21.4687 0 0)
(-32.2969 0 0)
(-10.7168 0 0)
(15.0033 0 0)
(-6.42921 0 0)
(-12.7955 0 0)
(4.72278 0 0)
(9.78725 0 0)
(14.5029 0 0)
(30.4728 0 0)
(20.8543 0 0)
(18.8704 0 0)
(42.0372 0 0)
(25.7803 0 0)
(-6.4368 0 0)
(-8.47328 0 0)
(15.3006 0 0)
(14.3764 0 0)
(4.64477 0 0)
(-19.188 0 0)
(-33.6156 0 0)
(-9.92445 0 0)
(4.1873 0 0)
(-32.0348 0 0)
(-18.0663 0 0)
(19.097 0 0)
(-11.5817 0 0)
(-9.48032 0 0)
(11.1943 0 0)
(14.2459 0 0)
(22.2694 0 0)
(20.6596 0 0)
(30.729 0 0)
(40.5934 0 0)
(17.3639 0 0)
(-16.381 0 0)
(9.75946 0 0)
(25.6853 0 0)
(17.2601 0 0)
(-11.8993 0 0)
(-39.5721 0 0)
(-21.674 0 0)
(11.3771 0 0)
(-3.47741 0 0)
(-17.7795 0 0)
(10.9018 0 0)
(14.5138 0 0)
(-15.2306 0 0)
(-13.2434 0 0)
(6.00144 0 0)
(15.7986 0 0)
(10.1922 0 0)
(28.1704 0 0)
(9.62446 0 0)
(36.7045 0 0)
(73.5264 0 0)
(15.5128 0 0)
(-24.4863 0 0)
(5.17473 0 0)
(25.6441 0 0)
(10.0046 0 0)
(-34.6812 0 0)
(-67.8688 0 0)
(-40.6056 0 0)
(-21.8511 0 0)
(-9.37269 0 0)
(-59.103 0 0)
(-11.34 0 0)
(51.1244 0 0)
(23.4929 0 0)
(-14.182 0 0)
(-17.7437 0 0)
(65.01 0 0)
(117.617 0 0)
(72.4616 0 0)
(-48.1718 0 0)
(-12.547 0 0)
(131.347 0 0)
(73.6852 0 0)
(-43.6295 0 0)
(-59.595 0 0)
(-1.00944 0 0)
(45.7986 0 0)
(40.7419 0 0)
(-128.808 0 0)
(-93.4055 0 0)
(63.9718 0 0)
(43.8227 0 0)
(-54.2766 0 0)
(-41.169 0 0)
(52.924 0 0)
(86.1405 0 0)
(-3.93573 0 0)
(-29.7269 0 0)
(41.7839 0 0)
(144.327 0 0)
(-18.7633 0 0)
(-27.6538 0 0)
(42.3931 0 0)
(-16.7976 0 0)
(31.2957 0 0)
(71.1922 0 0)
(-16.1984 0 0)
(-80.6935 0 0)
(8.47645 0 0)
(23.0352 0 0)
(48.6792 0 0)
(-10.7121 0 0)
(156.971 0 0)
(54.0322 0 0)
(-23.774 0 0)
(275.593 0 0)
(-93.3455 0 0)
(248.235 0 0)
(453.854 0 0)
(-293.888 0 0)
(886.77 0 0)
(155.384 0 0)
(40.6529 0 0)
(1323.12 0 0)
(-176.917 0 0)
(1017.99 0 0)
(1774.61 0 0)
(-618.067 0 0)
(3208.3 0 0)
(3876.87 0 0)
(-2444.23 0 0)
(10834.2 0 0)
(-566.485 0 0)
(5093.05 0 0)
(13756.7 0 0)
(-2949.43 0 0)
(15651 0 0)
(22090.2 0 0)
(-9784.06 0 0)
(51922.6 0 0)
(19291.7 0 0)
(-852.709 0 0)
(118192 0 0)
(-48955.8 0 0)
(157301 0 0)
(254151 0 0)
(-68550 0 0)
(2.18953e+06 0 0)
(1.27052e+06 0 0)
(264973 0 0)
(42807.1 0 0)
(6192.27 0 0)
(832.588 0 0)
(110.677 0 0)
(14.7153 0 0)
(1.95889 0 0)
(0.261195 0 0)
(0.0309377 0 0)
)
;

boundaryField
{
    sides
    {
        type            calculated;
        value           nonuniform List<vector> 2((0.0309377 0 0) (2.91038e-09 0 0));
    }
    empty
    {
        type            empty;
    }
}


// ************************************************************************* //
