/*--------------------------------*- C++ -*----------------------------------*\
  =========                 |
  \\      /  F ield         | OpenFOAM: The Open Source CFD Toolbox
   \\    /   O peration     | Website:  https://openfoam.org
    \\  /    A nd           | Version:  9
     \\/     M anipulation  |
\*---------------------------------------------------------------------------*/
FoamFile
{
    format      ascii;
    class       volScalarField;
    location    "0.009";
    object      p_0;
}
// * * * * * * * * * * * * * * * * * * * * * * * * * * * * * * * * * * * * * //

dimensions      [1 -1 -2 0 0 0 0];

internalField   nonuniform List<scalar> 
1000
(
100000
100000
100000
100000
100000
100000
100000
100000
100000
100000
100000
100000
100000
100000
100000
100000
100000
100000
100000
100000
100000
100000
100000
100000
100000
100000
100000
100000
100000
100000
100000
100000
100000
100000
100000
100000
100000
100000
100000
100000
100000
100000
100000
100000
100000
100000
100000
100000
100000
100000
100000
100000
100000
100000
100000
100000
100000
100000
100000
100000
100000
100000
100000
100000
100000
100000
100000
100000
100000
100000
100000
100000
100000
100000
100000
100000
100000
100000
100000
100000
100000
100000
100000
100000
100000
100000
100000
100000
100000
100000
100000
100000
100000
100000
100000
100000
100000
100000
100000
100000
100000
100000
100000
100000
100000
100000
100000
100000
100000
100000
100000
100000
100000
100000
100000
100000
100000
100000
100000
100000
100000
100000
100000
100000
100000
100000
100000
100000
100000
100000
100000
100000
100000
99999.9
99999.9
99999.8
99999.7
99999.5
99999.3
99998.8
99998.1
99997.1
99995.6
99993.3
99990
99985.1
99978.2
99968.4
99954.8
99936.2
99911.1
99877.8
99834.4
99778.8
99708.9
99622.7
99518.3
99394.2
99249.6
99084.1
98897.9
98692.2
98468.4
98228.4
97974.5
97708.9
97433.9
97151.2
96862.7
96569.6
96273.1
95973.9
95672.8
95370.4
95066.9
94762.7
94458.2
94153.3
93848.4
93543.5
93238.8
92934.2
92630
92326
92022.4
91719.1
91416.3
91113.9
90811.9
90510.4
90209.4
89908.8
89608.7
89309.1
89010.1
88711.5
88413.4
88115.9
87818.9
87522.4
87226.5
86931.1
86636.3
86342
86048.3
85755.2
85462.7
85170.8
84879.5
84588.8
84298.7
84009.2
83720.4
83432.2
83144.6
82857.7
82571.5
82285.9
82001
81716.8
81433.2
81150.4
80868.2
80586.8
80306
80026
79746.7
79468.1
79190.2
78913
78636.6
78360.9
78085.9
77811.7
77538.2
77265.4
76993.4
76722.1
76451.6
76181.8
75912.8
75644.6
75377
75110.3
74844.3
74579
74314.5
74050.7
73787.8
73525.5
73264
73003.3
72743.3
72484.1
72225.7
71968
71711
71454.8
71199.4
70944.7
70690.7
70437.6
70185.1
69933.4
69682.5
69432.3
69182.9
68934.2
68686.3
68439.1
68192.6
67946.9
67701.9
67457.7
67214.2
66971.5
66729.5
66488.2
66247.7
66007.9
65768.8
65530.5
65292.9
65056
64819.9
64584.5
64349.8
64115.8
63882.6
63650.1
63418.3
63187.2
62956.9
62727.2
62498.3
62270.1
62042.6
61815.8
61589.8
61364.4
61139.7
60915.8
60692.5
60470
60248.1
60027
59806.6
59586.8
59367.8
59149.4
58931.7
58714.8
58498.5
58282.9
58068
57853.8
57640.2
57427.4
57215.2
57003.7
56792.9
56582.8
56373.3
56164.5
55956.4
55749
55542.2
55336.1
55130.7
54925.9
54721.8
54518.4
54315.6
54113.5
53912
53711.2
53511
53311.6
53112.7
52914.5
52717
52520.1
52323.9
52128.3
51933.3
51739
51545.4
51352.3
51160
50968.2
50777.2
50586.7
50396.9
50207.7
50019.2
49831.2
49643.9
49457.3
49271.2
49085.8
48901
48716.8
48533.3
48350.4
48168.1
47986.4
47805.3
47624.9
47445.1
47265.8
47087.2
46909.3
46731.9
46555.1
46379
46203.4
46028.5
45854.2
45680.5
45507.4
45334.9
45163
44991.7
44821
44651
44481.5
44312.6
44144.4
43976.7
43809.6
43643.2
43477.3
43312.1
43147.4
42983.4
42819.9
42657.1
42494.8
42333.2
42172.2
42011.7
41851.9
41692.6
41534
41376
41218.6
41061.8
40905.5
40749.9
40595
40440.6
40286.8
40133.6
39981.1
39829.2
39677.9
39527.2
39377.2
39227.7
39078.9
38930.7
38783.2
38636.3
38490
38344.4
38199.5
38055.2
37911.5
37768.5
37626.3
37484.6
37343.7
37203.4
37063.8
36925
36786.8
36649.4
36512.7
36376.7
36241.5
36107
35973.4
35840.5
35708.4
35577.1
35446.6
35317
35188.2
35060.4
34933.4
34807.3
34682.2
34558
34434.8
34312.6
34191.5
34071.4
33952.5
33834.6
33717.9
33602.4
33488.2
33375.3
33263.7
33153.4
33044.6
32937.2
32831.4
32727.1
32624.5
32523.6
32424.4
32327.1
32231.6
32138.1
32046.7
31957.4
31870.2
31785.3
31702.8
31622.6
31545
31469.9
31397.5
31327.8
31260.8
31196.7
31135.4
31077.1
31021.8
30969.5
30920.1
30873.8
30830.6
30790.3
30753
30718.5
30687
30658.2
30632.1
30608.6
30587.5
30568.8
30552.2
30537.7
30525.4
30514.7
30505.2
30497.8
30491.2
30485.5
30482
30478.4
30475.6
30473.6
30472.1
30470.9
30470.1
30470
30469.7
30469.7
30469.8
30469.9
30470.1
30470.3
30470.4
30470.9
30471.4
30471.8
30471.7
30472
30472.5
30472.5
30473
30473.9
30473.9
30473.6
30474.7
30475.6
30475.4
30475.4
30476.5
30477
30476.9
30477.2
30478.2
30478
30477.9
30479
30479.4
30479.2
30479.5
30480.4
30480.4
30480.2
30480.8
30481.5
30481.5
30481.1
30481.8
30482.3
30482.3
30482.1
30482.7
30483
30482.8
30482.8
30483.3
30483.5
30483.3
30483.4
30483.8
30483.8
30483.7
30483.9
30484.2
30484.1
30484
30484.2
30484.4
30484.3
30484.2
30484.4
30484.5
30484.4
30484.4
30484.6
30484.6
30484.5
30484.5
30484.6
30484.7
30484.6
30484.6
30484.8
30484.8
30484.7
30484.8
30484.9
30484.8
30484.8
30484.9
30484.9
30484.8
30484.9
30485
30485
30484.9
30484.9
30485.1
30485.1
30484.9
30485
30485.2
30485.1
30485
30485.1
30485.2
30485.1
30485
30485.2
30485.2
30485
30485
30485.2
30485.2
30485
30485.1
30485.2
30485
30485
30485.2
30485.1
30485
30485.1
30485.2
30484.9
30485
30485.1
30485.1
30484.9
30485.1
30485.1
30485
30485
30485
30485
30484.9
30485
30485
30484.9
30485
30484.9
30484.9
30484.9
30484.9
30484.8
30484.9
30484.9
30484.8
30484.9
30484.9
30484.7
30484.8
30484.9
30484.8
30484.8
30484.8
30484.8
30484.8
30484.8
30484.8
30484.7
30484.8
30484.7
30484.7
30484.7
30484.7
30484.7
30484.7
30484.7
30484.7
30484.7
30484.7
30484.7
30484.7
30484.7
30484.7
30484.7
30484.7
30484.7
30484.7
30484.7
30484.7
30484.7
30484.7
30484.7
30484.7
30484.7
30484.6
30484.7
30484.7
30484.6
30484.6
30484.6
30484.6
30484.6
30484.6
30484.5
30484.6
30484.5
30484.5
30484.5
30484.5
30484.5
30484.4
30484.4
30484.3
30484.3
30484.3
30484.3
30484.3
30484.3
30484.2
30484.2
30484.2
30484.2
30484.2
30484.2
30484.2
30484.2
30484.3
30484.3
30484.4
30484.3
30484.4
30484.4
30484.3
30484.9
30484.3
30484.5
30484.6
30484.5
30484.6
30485
30485
30484.6
30484.7
30485
30485.1
30485.4
30485.2
30486.1
30484.1
30492.9
30482.5
30535.6
30448
30455.4
30476.8
30485.4
30486
30486.7
30485.6
30485
30485.4
30485.9
30485.6
30484.8
30484.3
30483.6
30483.7
30484
30483.7
30483.8
30484.3
30484.3
30484.2
30484.5
30484.4
30484.3
30484.6
30484.7
30484.5
30484.5
30484.7
30484.7
30484.7
30484.7
30484.7
30484.8
30484.7
30484.8
30484.9
30484.8
30484.8
30484.8
30484.9
30484.9
30484.8
30484.8
30484.9
30484.8
30484.8
30484.9
30484.8
30484.8
30484.9
30484.6
30484.7
30484.8
30484.8
30484.7
30484.7
30484.6
30484.7
30484.6
30484.3
30484.3
30484.4
30484.3
30484.1
30484.1
30484.1
30484
30483.9
30483.9
30484
30483.9
30483.8
30483.7
30483.7
30483.8
30483.7
30483.7
30483.7
30483.7
30483.8
30483.9
30483.7
30483.8
30483.9
30483.9
30483.9
30483.8
30483.9
30483.9
30483.9
30484
30483.9
30483.9
30484
30484
30484
30484
30483.9
30483.9
30484
30484
30483.8
30483.9
30483.9
30483.8
30483.8
30483.6
30483.6
30483.5
30483.5
30483.3
30483.3
30483.3
30483.2
30483.1
30483.1
30483
30483
30482.9
30483
30483
30482.9
30482.8
30482.9
30483
30482.9
30482.9
30482.9
30483
30483.1
30483.1
30483
30483.1
30483.2
30483.1
30483.2
30483.3
30483.3
30483.4
30483.4
30483.4
30483.5
30483.7
30483.6
30483.5
30483.8
30483.9
30483.9
30483.9
30484
30484.2
30484.2
30484.2
30484.2
30484.2
30484.4
30484.2
30483.9
30483.8
30483.7
30483.5
30483
30482.6
30482.5
30482.7
30482.1
30481.5
30481.4
30481.5
30481.4
30481.2
30480.6
30480.8
30481.4
30481.4
30481.2
30481.6
30482.2
30482.4
30482.2
30482.3
30482.8
30483.1
30482.9
30483.1
30483.8
30483.8
30483.9
30483.9
30483.4
30482.5
30482.7
30482.4
30482.2
30482.2
30482.6
30482.7
30482.2
30482.1
30481
30478.2
30478.2
30474.1
30476.4
30476.2
30475
30480.5
30479.3
30476.8
30480.4
30469.3
30460.1
30457.3
30424.3
30436.2
30422.9
30399.5
30433
30391.1
30368.6
30404.4
30238.1
30257
30156.5
29892
30030.5
29748.7
29438.3
30055.2
28222.9
29353.7
24725.8
14045.2
10824.6
10125
10016.9
10002.3
10000.3
10000
10000
10000
10000
)
;

boundaryField
{
    sides
    {
        type            zeroGradient;
    }
    empty
    {
        type            empty;
    }
}


// ************************************************************************* //
