/*--------------------------------*- C++ -*----------------------------------*\
  =========                 |
  \\      /  F ield         | OpenFOAM: The Open Source CFD Toolbox
   \\    /   O peration     | Website:  https://openfoam.org
    \\  /    A nd           | Version:  9
     \\/     M anipulation  |
\*---------------------------------------------------------------------------*/
FoamFile
{
    format      ascii;
    class       surfaceScalarField;
    location    "0.009";
    object      phi_0;
}
// * * * * * * * * * * * * * * * * * * * * * * * * * * * * * * * * * * * * * //

dimensions      [1 0 -1 0 0 0 0];

internalField   nonuniform List<scalar> 
999
(
-2.55795e-12
-2.16005e-12
-1.73372e-12
-2.41585e-12
-2.16005e-12
-1.47793e-12
-1.56319e-12
-5.11591e-13
-5.68434e-14
1.50635e-12
3.38218e-12
2.98428e-12
4.03588e-12
3.29692e-12
4.68958e-12
5.6275e-12
6.53699e-12
7.5886e-12
7.47491e-12
7.07701e-12
6.36646e-12
5.59908e-12
5.48539e-12
4.66116e-12
4.66116e-12
6.96332e-12
6.6791e-12
7.30438e-12
8.81073e-12
9.57812e-12
9.9476e-12
1.16529e-11
1.21645e-11
1.1255e-11
1.00329e-11
7.67386e-12
6.79279e-12
4.34852e-12
5.74119e-12
4.26326e-12
2.27374e-12
1.22213e-12
2.58638e-12
2.75691e-12
3.18323e-12
3.60956e-12
3.89377e-12
3.0127e-12
4.49063e-12
5.51381e-12
6.82121e-12
6.39488e-12
5.05906e-12
6.36646e-12
5.00222e-12
3.24007e-12
1.47793e-12
-1.98952e-13
-1.0516e-12
-1.39266e-12
-1.02318e-12
6.53699e-13
2.52953e-12
2.70006e-12
5.17275e-12
6.05382e-12
7.5886e-12
8.78231e-12
6.79279e-12
8.07177e-12
8.2423e-12
8.2423e-12
8.18545e-12
8.3844e-12
9.2939e-12
8.44125e-12
8.2423e-12
6.65068e-12
7.24754e-12
9.09495e-12
1.03739e-11
1.29603e-11
1.3813e-11
1.42961e-11
1.46088e-11
1.26477e-11
1.14255e-11
9.97602e-12
9.49285e-12
9.15179e-12
7.84439e-12
7.84439e-12
5.68434e-12
4.54747e-12
4.94538e-12
5.51381e-12
4.91696e-12
4.80327e-12
4.0643e-12
6.0254e-12
7.3328e-12
1.03739e-11
1.53761e-11
2.09184e-11
3.13776e-11
5.09885e-11
8.98694e-11
1.68853e-10
3.2486e-10
6.2866e-10
1.21832e-09
2.35437e-09
4.52755e-09
8.66413e-09
1.64851e-08
3.1177e-08
5.85913e-08
1.09407e-07
2.02966e-07
3.74057e-07
6.84768e-07
1.24509e-06
2.24834e-06
4.03164e-06
7.17816e-06
1.26883e-05
2.22641e-05
3.87756e-05
6.70207e-05
0.000114946
0.000195594
0.000330156
0.00055274
0.000917664
0.00151053
0.00246476
0.00398593
0.00638707
0.0101389
0.0159399
0.0248127
0.0382326
0.058295
0.0879282
0.131152
0.193379
0.281753
0.405486
0.576171
0.808001
1.11783
1.52499
2.05079
2.71766
3.54795
4.56236
5.77832
7.20835
8.85882
10.7291
12.8117
15.0926
17.5527
20.1689
22.9167
25.7715
28.7111
31.7159
34.7698
37.8596
40.9751
44.108
47.252
50.4022
53.5548
56.7067
59.8557
62.9999
66.1379
69.2685
72.391
75.5046
78.6087
81.7029
84.7868
87.8602
90.9229
93.9746
97.0153
100.045
103.063
106.07
109.065
112.049
115.021
117.982
120.931
123.868
126.793
129.706
132.608
135.497
138.375
141.24
144.093
146.934
149.763
152.579
155.383
158.174
160.953
163.719
166.472
169.213
171.941
174.656
177.358
180.048
182.724
185.387
188.038
190.675
193.299
195.91
198.508
201.092
203.663
206.221
208.766
211.298
213.816
216.321
218.812
221.291
223.756
226.207
228.646
231.071
233.482
235.881
238.266
240.638
242.996
245.341
247.673
249.992
252.298
254.59
256.87
259.136
261.389
263.628
265.855
268.069
270.27
272.457
274.632
276.794
278.943
281.079
283.202
285.312
287.409
289.494
291.566
293.625
295.671
297.705
299.726
301.735
303.73
305.714
307.685
309.643
311.589
313.523
315.444
317.353
319.25
321.134
323.006
324.866
326.714
328.549
330.373
332.184
333.984
335.771
337.547
339.31
341.062
342.802
344.53
346.246
347.951
349.643
351.325
352.994
354.652
356.298
357.933
359.557
361.168
362.769
364.358
365.936
367.502
369.057
370.601
372.134
373.656
375.166
376.665
378.154
379.631
381.097
382.553
383.997
385.431
386.853
388.265
389.667
391.057
392.437
393.806
395.164
396.512
397.849
399.176
400.493
401.798
403.094
404.379
405.654
406.918
408.172
409.416
410.65
411.874
413.087
414.292
415.482
416.67
417.837
419.009
420.151
421.308
422.428
423.563
424.673
425.77
426.883
427.94
429.05
430.083
431.159
432.207
433.22
434.287
435.268
436.293
437.308
438.258
439.28
440.236
441.177
442.175
443.084
444.017
444.981
445.854
446.772
447.705
448.547
449.443
450.348
451.164
452.03
452.912
453.704
454.533
455.397
456.17
456.956
457.799
458.564
459.304
460.115
460.884
461.585
462.346
463.119
463.805
464.503
465.262
465.958
466.603
467.311
468.026
468.656
469.29
469.988
470.643
471.23
471.859
472.527
473.128
473.685
474.3
474.932
475.487
476.019
476.613
477.209
477.727
478.232
478.797
479.361
479.849
480.323
480.855
481.391
481.855
482.294
482.787
483.298
483.746
484.151
484.598
485.083
485.521
485.898
486.294
486.743
487.174
487.538
487.885
488.282
488.7
489.065
489.378
489.713
490.096
490.466
490.773
491.054
491.375
491.731
492.05
492.31
492.565
492.866
493.186
493.462
493.684
493.91
494.184
494.47
494.706
494.893
495.09
495.331
495.581
495.788
495.946
496.105
496.306
496.529
496.712
496.837
496.957
497.123
497.312
497.468
497.576
497.665
497.778
497.926
498.072
498.168
498.221
498.287
498.394
498.517
498.609
498.645
498.664
498.724
498.823
498.906
498.937
498.935
498.95
499.004
499.073
499.115
499.115
499.095
499.096
499.142
499.199
499.213
499.183
499.147
499.158
499.205
499.235
499.229
499.208
499.172
499.168
499.201
499.217
499.218
499.209
499.195
499.182
499.185
499.191
499.193
499.194
499.188
499.179
499.179
499.174
499.176
499.185
499.187
499.179
499.163
499.173
499.165
499.157
499.174
499.172
499.151
499.15
499.169
499.165
499.143
499.148
499.163
499.152
499.141
499.157
499.154
499.132
499.138
499.153
499.142
499.125
499.144
499.146
499.131
499.124
499.14
499.139
499.121
499.12
499.134
499.13
499.118
499.118
499.126
499.123
499.111
499.114
499.12
499.114
499.107
499.112
499.113
499.105
499.103
499.107
499.106
499.099
499.096
499.099
499.097
499.09
499.09
499.092
499.089
499.083
499.084
499.085
499.081
499.075
499.075
499.075
499.071
499.067
499.068
499.068
499.062
499.058
499.06
499.057
499.051
499.051
499.051
499.046
499.043
499.043
499.042
499.037
499.033
499.034
499.034
499.028
499.022
499.024
499.024
499.016
499.011
499.015
499.01
499.002
499.001
499.003
498.997
498.991
498.991
498.992
498.983
498.979
498.982
498.976
498.969
498.968
498.969
498.958
498.955
498.957
498.95
498.94
498.942
498.941
498.931
498.929
498.928
498.922
498.917
498.914
498.911
498.906
498.902
498.9
498.892
498.888
498.884
498.876
498.871
498.865
498.856
498.852
498.85
498.843
498.84
498.839
498.828
498.821
498.818
498.81
498.803
498.799
498.795
498.787
498.779
498.771
498.762
498.755
498.747
498.737
498.729
498.721
498.714
498.708
498.699
498.688
498.677
498.666
498.658
498.653
498.648
498.642
498.631
498.614
498.595
498.578
498.564
498.555
498.551
498.546
498.536
498.523
498.503
498.479
498.455
498.436
498.42
498.411
498.406
498.4
498.392
498.361
498.325
498.293
498.268
498.251
498.243
498.237
498.226
498.2
498.159
498.111
498.061
498.015
497.976
497.949
497.933
497.921
497.911
497.897
497.878
497.803
497.711
497.616
497.526
497.45
497.391
497.349
497.322
497.305
497.29
497.275
497.246
497.148
496.931
496.701
496.461
496.238
496.038
495.871
495.721
495.622
495.574
495.523
495.47
495.473
495.477
495.455
495.22
494.473
491.891
483.124
459.528
436.963
416.214
397.83
381.969
368.517
357.258
347.995
340.481
334.432
329.61
325.82
322.876
320.617
318.916
317.637
316.682
315.997
315.503
315.144
314.897
314.729
314.609
314.536
314.493
314.464
314.446
314.442
314.441
314.44
314.442
314.451
314.46
314.464
314.466
314.47
314.471
314.471
314.473
314.481
314.492
314.501
314.51
314.524
314.534
314.542
314.551
314.559
314.562
314.568
314.57
314.568
314.572
314.576
314.575
314.574
314.573
314.571
314.568
314.561
314.556
314.557
314.558
314.554
314.554
314.554
314.554
314.557
314.562
314.568
314.573
314.574
314.574
314.575
314.577
314.576
314.576
314.575
314.572
314.57
314.569
314.566
314.562
314.564
314.565
314.564
314.563
314.565
314.568
314.571
314.574
314.576
314.575
314.576
314.577
314.576
314.576
314.574
314.57
314.567
314.564
314.56
314.557
314.558
314.558
314.557
314.556
314.557
314.56
314.565
314.567
314.568
314.572
314.574
314.573
314.574
314.575
314.574
314.572
314.569
314.566
314.562
314.557
314.555
314.556
314.555
314.553
314.552
314.554
314.558
314.56
314.559
314.56
314.562
314.561
314.56
314.562
314.562
314.561
314.56
314.559
314.555
314.552
314.547
314.539
314.538
314.539
314.538
314.536
314.536
314.54
314.549
314.555
314.559
314.561
314.568
314.57
314.566
314.566
314.569
314.57
314.564
314.553
314.547
314.551
314.551
314.539
314.534
314.539
314.544
314.543
314.542
314.542
314.555
314.561
314.554
314.551
314.555
314.557
314.551
314.545
314.545
314.544
314.538
314.522
314.522
314.521
314.516
314.519
314.519
314.518
314.524
314.534
314.533
314.531
314.524
314.527
314.514
314.517
314.53
314.519
314.549
314.538
314.496
314.527
314.425
314.406
314.399
314.285
314.346
314.29
314.237
314.425
314.245
313.99
314.41
313.337
313.619
313.172
312.189
312.97
312.01
310.757
313.135
309.002
308.718
310.895
300.502
307.496
295.752
273.128
318.613
122.999
30.7382
5.10423
0.690959
0.0913786
0.0121186
0.0016114
0.000214584
2.85956e-05
3.78506e-06
)
;

boundaryField
{
    sides
    {
        type            calculated;
        value           nonuniform List<scalar> 2(6.20574e-07 2.38651e-12);
    }
    empty
    {
        type            empty;
        value           nonuniform List<scalar> 0();
    }
}


// ************************************************************************* //
