/*--------------------------------*- C++ -*----------------------------------*\
  =========                 |
  \\      /  F ield         | OpenFOAM: The Open Source CFD Toolbox
   \\    /   O peration     | Website:  https://openfoam.org
    \\  /    A nd           | Version:  9
     \\/     M anipulation  |
\*---------------------------------------------------------------------------*/
FoamFile
{
    format      ascii;
    class       volScalarField;
    location    "0.009";
    object      rho_0;
}
// * * * * * * * * * * * * * * * * * * * * * * * * * * * * * * * * * * * * * //

dimensions      [1 -3 0 0 0 0 0];

internalField   nonuniform List<scalar> 
1000
(
0.997574
0.997574
0.997574
0.997574
0.997574
0.997574
0.997574
0.997574
0.997574
0.997574
0.997574
0.997574
0.997574
0.997574
0.997574
0.997574
0.997574
0.997574
0.997574
0.997574
0.997574
0.997574
0.997574
0.997574
0.997574
0.997574
0.997574
0.997574
0.997574
0.997574
0.997574
0.997574
0.997574
0.997574
0.997574
0.997574
0.997574
0.997574
0.997574
0.997574
0.997574
0.997574
0.997574
0.997574
0.997574
0.997574
0.997574
0.997574
0.997574
0.997574
0.997574
0.997574
0.997574
0.997574
0.997574
0.997574
0.997574
0.997574
0.997574
0.997574
0.997574
0.997574
0.997574
0.997574
0.997574
0.997574
0.997574
0.997574
0.997574
0.997574
0.997574
0.997574
0.997574
0.997574
0.997574
0.997574
0.997574
0.997574
0.997574
0.997574
0.997574
0.997574
0.997574
0.997574
0.997574
0.997574
0.997574
0.997574
0.997574
0.997574
0.997574
0.997574
0.997574
0.997574
0.997574
0.997574
0.997574
0.997574
0.997574
0.997574
0.997574
0.997574
0.997574
0.997574
0.997574
0.997574
0.997574
0.997574
0.997574
0.997574
0.997574
0.997574
0.997574
0.997574
0.997574
0.997574
0.997574
0.997574
0.997574
0.997574
0.997574
0.997574
0.997574
0.997574
0.997574
0.997574
0.997574
0.997574
0.997574
0.997574
0.997574
0.997574
0.997574
0.997574
0.997573
0.997573
0.997572
0.997571
0.997569
0.997566
0.997561
0.997554
0.997543
0.997527
0.997503
0.997468
0.997419
0.997349
0.997252
0.99712
0.996941
0.996704
0.996395
0.995999
0.995501
0.994886
0.994142
0.993257
0.992226
0.991044
0.989715
0.988245
0.986645
0.984928
0.98311
0.981208
0.979235
0.977207
0.975134
0.973028
0.970894
0.96874
0.96657
0.964388
0.962196
0.959998
0.957795
0.955587
0.953378
0.951166
0.948953
0.94674
0.944526
0.942313
0.9401
0.937888
0.935677
0.933466
0.931257
0.929049
0.926843
0.924637
0.922434
0.920231
0.918031
0.915832
0.913634
0.911439
0.909245
0.907053
0.904863
0.902675
0.900489
0.898305
0.896123
0.893943
0.891766
0.889591
0.887418
0.885248
0.88308
0.880914
0.878752
0.876591
0.874434
0.87228
0.870128
0.867979
0.865833
0.86369
0.86155
0.859413
0.857279
0.855149
0.853021
0.850897
0.848776
0.846659
0.844545
0.842434
0.840327
0.838223
0.836123
0.834026
0.831933
0.829843
0.827757
0.825674
0.823596
0.82152
0.819449
0.817381
0.815317
0.813256
0.8112
0.809147
0.807098
0.805052
0.803011
0.800973
0.798939
0.796909
0.794882
0.79286
0.790841
0.788826
0.786815
0.784808
0.782804
0.780805
0.778809
0.776818
0.77483
0.772846
0.770866
0.768889
0.766917
0.764948
0.762984
0.761023
0.759066
0.757113
0.755164
0.753219
0.751278
0.749341
0.747407
0.745478
0.743552
0.74163
0.739712
0.737798
0.735888
0.733982
0.73208
0.730181
0.728287
0.726396
0.724509
0.722626
0.720747
0.718872
0.717001
0.715133
0.71327
0.71141
0.709554
0.707702
0.705854
0.70401
0.70217
0.700333
0.6985
0.696672
0.694847
0.693026
0.691208
0.689395
0.687585
0.68578
0.683978
0.68218
0.680385
0.678595
0.676808
0.675025
0.673246
0.671471
0.6697
0.667932
0.666169
0.664409
0.662652
0.6609
0.659151
0.657407
0.655666
0.653928
0.652195
0.650465
0.648739
0.647017
0.645299
0.643584
0.641874
0.640167
0.638463
0.636764
0.635067
0.633378
0.631683
0.630011
0.62831
0.626666
0.62494
0.623349
0.621572
0.620058
0.618214
0.616775
0.614899
0.613459
0.611659
0.610096
0.608481
0.606736
0.605275
0.603487
0.601961
0.600358
0.598628
0.597177
0.595454
0.593859
0.592365
0.590622
0.589121
0.587563
0.585855
0.584394
0.5828
0.581129
0.579685
0.578082
0.576436
0.575001
0.573408
0.571775
0.57034
0.568779
0.567145
0.565706
0.564189
0.562555
0.561096
0.559631
0.558013
0.556511
0.555095
0.55352
0.551969
0.550567
0.54907
0.547486
0.546049
0.544634
0.543078
0.541569
0.540187
0.538719
0.537169
0.535738
0.534359
0.532857
0.531348
0.529969
0.528575
0.527067
0.525603
0.524252
0.522849
0.521353
0.519924
0.51859
0.51719
0.515712
0.514308
0.512987
0.511603
0.510146
0.508755
0.507448
0.50609
0.504656
0.50327
0.501973
0.50065
0.499245
0.49786
0.496566
0.495282
0.493918
0.492535
0.491233
0.489981
0.488671
0.487307
0.485989
0.48475
0.4835
0.48218
0.480854
0.479603
0.478398
0.477148
0.475844
0.474571
0.473374
0.472193
0.470955
0.469687
0.468468
0.467316
0.466163
0.464956
0.463731
0.462563
0.461459
0.460346
0.45918
0.458008
0.456896
0.455839
0.454778
0.453677
0.452566
0.451504
0.450508
0.449525
0.448499
0.447453
0.446461
0.445541
0.444638
0.443707
0.442764
0.441852
0.441002
0.440205
0.439405
0.438575
0.437759
0.437009
0.436326
0.435666
0.434989
0.434297
0.433654
0.433099
0.432591
0.432074
0.431542
0.431036
0.430599
0.430229
0.429883
0.42953
0.429174
0.428848
0.428589
0.428396
0.428211
0.427997
0.427781
0.427612
0.427514
0.427442
0.427354
0.427257
0.427162
0.427086
0.427061
0.427049
0.427025
0.426998
0.42697
0.426947
0.426938
0.426941
0.426944
0.426944
0.426944
0.426938
0.426936
0.426938
0.42694
0.426947
0.426952
0.426954
0.426949
0.426951
0.426955
0.426956
0.426961
0.426969
0.426967
0.426963
0.426972
0.42698
0.426978
0.426977
0.426987
0.426991
0.426989
0.426992
0.427
0.426997
0.426996
0.427005
0.427008
0.427005
0.427008
0.427015
0.427014
0.427011
0.427016
0.427021
0.427019
0.427015
0.427021
0.427024
0.427023
0.42702
0.427024
0.427026
0.427023
0.427023
0.427026
0.427026
0.427024
0.427024
0.427026
0.427024
0.427022
0.427023
0.427024
0.427022
0.427019
0.42702
0.42702
0.427018
0.427016
0.427016
0.427016
0.427013
0.427012
0.427012
0.427011
0.427008
0.427006
0.427006
0.427005
0.427002
0.427001
0.427001
0.426998
0.426996
0.426995
0.426994
0.426991
0.426989
0.426989
0.426987
0.426984
0.426983
0.426982
0.42698
0.426977
0.426975
0.426975
0.426973
0.426969
0.426967
0.426967
0.426963
0.42696
0.426958
0.426957
0.426954
0.42695
0.42695
0.426948
0.426943
0.426941
0.426941
0.426938
0.426934
0.426932
0.426931
0.426926
0.426923
0.426922
0.426918
0.426913
0.42691
0.426909
0.426902
0.426899
0.426898
0.426894
0.42689
0.426888
0.426884
0.42688
0.426876
0.426873
0.42687
0.426867
0.426864
0.42686
0.426855
0.426851
0.426846
0.42684
0.426835
0.426829
0.426823
0.426821
0.426817
0.426813
0.426811
0.426806
0.426799
0.426794
0.426789
0.426783
0.426778
0.426775
0.426769
0.426762
0.426755
0.426748
0.426742
0.426735
0.426728
0.42672
0.426712
0.426706
0.426701
0.426695
0.426687
0.426677
0.426667
0.426659
0.426653
0.42665
0.426646
0.426639
0.426627
0.426611
0.426595
0.426581
0.426572
0.426566
0.426563
0.426558
0.426549
0.426534
0.426515
0.426493
0.426474
0.426459
0.426449
0.426443
0.42644
0.426434
0.426418
0.426387
0.426357
0.426331
0.426314
0.426304
0.426299
0.426293
0.426279
0.426249
0.42621
0.426167
0.426124
0.426087
0.426058
0.426039
0.426028
0.42602
0.426013
0.426001
0.425961
0.425886
0.425805
0.425724
0.425652
0.425594
0.425551
0.425524
0.425506
0.425496
0.425485
0.425465
0.425427
0.425284
0.425088
0.424884
0.424684
0.424501
0.424342
0.424213
0.424103
0.424036
0.423988
0.423965
0.423951
0.423942
0.42394
0.423779
0.423574
0.421933
0.418508
0.403459
0.383308
0.364677
0.347898
0.333218
0.320672
0.310118
0.301376
0.29423
0.28846
0.28385
0.280206
0.277364
0.275172
0.273503
0.272247
0.271311
0.270623
0.270127
0.269771
0.269518
0.269346
0.269228
0.269149
0.269101
0.269072
0.269054
0.269046
0.269044
0.269044
0.269045
0.269052
0.26906
0.269066
0.26907
0.269072
0.269074
0.269075
0.269076
0.26908
0.269089
0.269098
0.269106
0.269116
0.269126
0.269133
0.269141
0.269147
0.269152
0.269156
0.269159
0.269159
0.26916
0.269162
0.269162
0.269161
0.26916
0.269157
0.269154
0.26915
0.269146
0.269145
0.269144
0.269143
0.269142
0.269141
0.269141
0.269143
0.269147
0.269151
0.269155
0.269158
0.26916
0.269161
0.269162
0.269162
0.269162
0.269162
0.26916
0.269158
0.269156
0.269154
0.269152
0.269152
0.269152
0.269152
0.269152
0.269153
0.269156
0.269158
0.269161
0.269163
0.269164
0.269164
0.269165
0.269165
0.269165
0.269165
0.269163
0.269159
0.269156
0.269153
0.269151
0.26915
0.269149
0.269149
0.269148
0.269148
0.269149
0.269152
0.269155
0.269157
0.269158
0.26916
0.26916
0.26916
0.26916
0.269159
0.269158
0.269156
0.269152
0.269149
0.269146
0.269144
0.269143
0.269143
0.269142
0.269142
0.269143
0.269146
0.269148
0.26915
0.269151
0.269152
0.269153
0.269153
0.269153
0.269154
0.269155
0.269154
0.269154
0.269152
0.269149
0.269146
0.269143
0.26914
0.26914
0.269141
0.269141
0.269142
0.269144
0.269151
0.269159
0.269164
0.269167
0.26917
0.269173
0.269172
0.269171
0.269171
0.26917
0.269166
0.269158
0.26915
0.269145
0.269144
0.269138
0.269133
0.269132
0.269132
0.269132
0.269135
0.269136
0.269142
0.269148
0.26915
0.26915
0.269152
0.269155
0.269156
0.269154
0.269154
0.269154
0.269153
0.269148
0.269144
0.269143
0.26914
0.269139
0.269139
0.269137
0.269134
0.269138
0.26914
0.269143
0.269146
0.26915
0.269151
0.269149
0.269149
0.269142
0.269126
0.269125
0.269099
0.269114
0.269111
0.269104
0.269132
0.269116
0.269103
0.269119
0.269044
0.268987
0.268965
0.268759
0.268876
0.268762
0.268683
0.268895
0.268638
0.268485
0.268683
0.267625
0.267962
0.267112
0.265462
0.266466
0.264696
0.262429
0.266555
0.25463
0.263877
0.230838
0.158174
0.132053
0.125838
0.12485
0.124717
0.124699
0.124697
0.124697
0.124697
0.124697
)
;

boundaryField
{
    sides
    {
        type            calculated;
        value           nonuniform List<scalar> 2(0.124697 0.997574);
    }
    empty
    {
        type            empty;
    }
}


// ************************************************************************* //
