/*--------------------------------*- C++ -*----------------------------------*\
  =========                 |
  \\      /  F ield         | OpenFOAM: The Open Source CFD Toolbox
   \\    /   O peration     | Website:  https://openfoam.org
    \\  /    A nd           | Version:  9
     \\/     M anipulation  |
\*---------------------------------------------------------------------------*/
FoamFile
{
    format      ascii;
    class       volVectorField;
    location    "0.009";
    object      U;
}
// * * * * * * * * * * * * * * * * * * * * * * * * * * * * * * * * * * * * * //

dimensions      [0 1 -1 0 0 0 0];

internalField   nonuniform List<vector> 
1000
(
(-5.61227e-13 0 0)
(-5.29749e-13 0 0)
(-2.95585e-13 0 0)
(-4.11515e-13 0 0)
(-2.79462e-13 0 0)
(-4.55277e-13 0 0)
(-1.13627e-13 0 0)
(-3.47792e-13 0 0)
(1.61996e-13 0 0)
(-1.23608e-13 0 0)
(7.23991e-13 0 0)
(4.23799e-13 0 0)
(9.00574e-13 0 0)
(6.03454e-13 0 0)
(9.89633e-13 0 0)
(1.08483e-12 0 0)
(1.61151e-12 0 0)
(1.54395e-12 0 0)
(2.00383e-12 0 0)
(1.72898e-12 0 0)
(1.67524e-12 0 0)
(1.38272e-12 0 0)
(1.438e-12 0 0)
(1.20691e-12 0 0)
(1.52322e-12 0 0)
(1.42111e-12 0 0)
(2.00307e-12 0 0)
(1.62764e-12 0 0)
(2.17351e-12 0 0)
(2.29097e-12 0 0)
(2.42687e-12 0 0)
(2.64568e-12 0 0)
(2.84913e-12 0 0)
(2.92207e-12 0 0)
(2.54356e-12 0 0)
(2.29865e-12 0 0)
(1.83263e-12 0 0)
(1.35508e-12 0 0)
(1.11247e-12 0 0)
(1.18387e-12 0 0)
(4.91362e-13 0 0)
(3.38579e-13 0 0)
(1.91938e-13 0 0)
(6.02686e-13 0 0)
(7.00958e-13 0 0)
(9.9424e-13 0 0)
(9.65833e-13 0 0)
(1.13551e-12 0 0)
(8.5067e-13 0 0)
(1.56468e-12 0 0)
(1.53551e-12 0 0)
(1.78119e-12 0 0)
(1.33512e-12 0 0)
(1.42111e-12 0 0)
(1.22687e-12 0 0)
(8.44528e-13 0 0)
(3.74663e-13 0 0)
(1.23608e-13 0 0)
(-1.66602e-13 0 0)
(-2.21881e-13 0 0)
(-3.23224e-13 0 0)
(1.26679e-13 0 0)
(3.7927e-13 0 0)
(7.46256e-13 0 0)
(1.12092e-12 0 0)
(1.438e-12 0 0)
(1.71286e-12 0 0)
(1.96084e-12 0 0)
(2.07063e-12 0 0)
(1.80192e-12 0 0)
(2.04222e-12 0 0)
(2.18349e-12 0 0)
(2.37696e-12 0 0)
(2.04069e-12 0 0)
(2.52591e-12 0 0)
(2.05144e-12 0 0)
(2.37005e-12 0 0)
(1.60921e-12 0 0)
(1.80192e-12 0 0)
(1.9785e-12 0 0)
(2.66564e-12 0 0)
(2.92053e-12 0 0)
(3.27984e-12 0 0)
(3.41727e-12 0 0)
(3.5785e-12 0 0)
(3.21919e-12 0 0)
(2.86909e-12 0 0)
(2.53512e-12 0 0)
(2.48598e-12 0 0)
(2.2165e-12 0 0)
(2.09213e-12 0 0)
(1.94702e-12 0 0)
(1.71439e-12 0 0)
(1.09328e-12 0 0)
(1.21689e-12 0 0)
(1.31286e-12 0 0)
(1.32668e-12 0 0)
(1.14779e-12 0 0)
(1.1547e-12 0 0)
(1.16698e-12 0 0)
(1.7213e-12 0 0)
(2.29404e-12 0 0)
(3.4188e-12 0 0)
(4.90747e-12 0 0)
(7.41112e-12 0 0)
(1.24345e-11 0 0)
(2.13481e-11 0 0)
(4.04966e-11 0 0)
(7.71399e-11 0 0)
(1.49582e-10 0 0)
(2.89476e-10 0 0)
(5.59265e-10 0 0)
(1.076e-09 0 0)
(2.05868e-09 0 0)
(3.91806e-09 0 0)
(7.41092e-09 0 0)
(1.39315e-08 0 0)
(2.60212e-08 0 0)
(4.82873e-08 0 0)
(8.90173e-08 0 0)
(1.6301e-07 0 0)
(2.96488e-07 0 0)
(5.35564e-07 0 0)
(9.60679e-07 0 0)
(1.71105e-06 0 0)
(3.0256e-06 0 0)
(5.31098e-06 0 0)
(9.25332e-06 0 0)
(1.60001e-05 0 0)
(2.7453e-05 0 0)
(4.67345e-05 0 0)
(7.89219e-05 0 0)
(0.000132191 0 0)
(0.00021957 0 0)
(0.000361606 0 0)
(0.000590346 0 0)
(0.000955206 0 0)
(0.00153149 0 0)
(0.00243252 0 0)
(0.00382664 0 0)
(0.00596052 0 0)
(0.0091904 0 0)
(0.0140229 0 0)
(0.0211668 0 0)
(0.0315966 0 0)
(0.0466269 0 0)
(0.0679953 0 0)
(0.0979482 0 0)
(0.13932 0 0)
(0.195591 0 0)
(0.270913 0 0)
(0.370069 0 0)
(0.49837 0 0)
(0.661455 0 0)
(0.865005 0 0)
(1.11438 0 0)
(1.41423 0 0)
(1.76807 0 0)
(2.17798 0 0)
(2.64437 0 0)
(3.16595 0 0)
(3.73981 0 0)
(4.36171 0 0)
(5.02641 0 0)
(5.72811 0 0)
(6.46098 0 0)
(7.21954 0 0)
(7.99898 0 0)
(8.79524 0 0)
(9.60499 0 0)
(10.4256 0 0)
(11.2549 0 0)
(12.0913 0 0)
(12.9335 0 0)
(13.7804 0 0)
(14.6315 0 0)
(15.4859 0 0)
(16.3432 0 0)
(17.2032 0 0)
(18.0653 0 0)
(18.9295 0 0)
(19.7955 0 0)
(20.6632 0 0)
(21.5325 0 0)
(22.4032 0 0)
(23.2753 0 0)
(24.1487 0 0)
(25.0235 0 0)
(25.8994 0 0)
(26.7765 0 0)
(27.6548 0 0)
(28.5342 0 0)
(29.4148 0 0)
(30.2964 0 0)
(31.1791 0 0)
(32.0629 0 0)
(32.9476 0 0)
(33.8334 0 0)
(34.7202 0 0)
(35.608 0 0)
(36.4967 0 0)
(37.3863 0 0)
(38.2768 0 0)
(39.1682 0 0)
(40.0605 0 0)
(40.9536 0 0)
(41.8475 0 0)
(42.7422 0 0)
(43.6377 0 0)
(44.5339 0 0)
(45.4309 0 0)
(46.3285 0 0)
(47.2268 0 0)
(48.1258 0 0)
(49.0254 0 0)
(49.9255 0 0)
(50.8263 0 0)
(51.7276 0 0)
(52.6295 0 0)
(53.5319 0 0)
(54.4348 0 0)
(55.3382 0 0)
(56.242 0 0)
(57.1462 0 0)
(58.0509 0 0)
(58.956 0 0)
(59.8615 0 0)
(60.7673 0 0)
(61.6735 0 0)
(62.5801 0 0)
(63.487 0 0)
(64.3942 0 0)
(65.3017 0 0)
(66.2094 0 0)
(67.1175 0 0)
(68.0258 0 0)
(68.9344 0 0)
(69.8433 0 0)
(70.7523 0 0)
(71.6616 0 0)
(72.5712 0 0)
(73.4809 0 0)
(74.3908 0 0)
(75.3009 0 0)
(76.2112 0 0)
(77.1217 0 0)
(78.0324 0 0)
(78.9432 0 0)
(79.8542 0 0)
(80.7653 0 0)
(81.6766 0 0)
(82.588 0 0)
(83.4995 0 0)
(84.4112 0 0)
(85.323 0 0)
(86.2349 0 0)
(87.147 0 0)
(88.0591 0 0)
(88.9714 0 0)
(89.8838 0 0)
(90.7962 0 0)
(91.7088 0 0)
(92.6214 0 0)
(93.5341 0 0)
(94.4469 0 0)
(95.3598 0 0)
(96.2728 0 0)
(97.1858 0 0)
(98.099 0 0)
(99.0121 0 0)
(99.9254 0 0)
(100.839 0 0)
(101.752 0 0)
(102.665 0 0)
(103.579 0 0)
(104.492 0 0)
(105.406 0 0)
(106.32 0 0)
(107.233 0 0)
(108.147 0 0)
(109.061 0 0)
(109.974 0 0)
(110.888 0 0)
(111.802 0 0)
(112.716 0 0)
(113.63 0 0)
(114.544 0 0)
(115.458 0 0)
(116.372 0 0)
(117.285 0 0)
(118.199 0 0)
(119.113 0 0)
(120.027 0 0)
(120.941 0 0)
(121.855 0 0)
(122.769 0 0)
(123.684 0 0)
(124.598 0 0)
(125.512 0 0)
(126.426 0 0)
(127.34 0 0)
(128.254 0 0)
(129.168 0 0)
(130.082 0 0)
(130.996 0 0)
(131.91 0 0)
(132.824 0 0)
(133.738 0 0)
(134.651 0 0)
(135.565 0 0)
(136.479 0 0)
(137.393 0 0)
(138.307 0 0)
(139.221 0 0)
(140.135 0 0)
(141.048 0 0)
(141.962 0 0)
(142.876 0 0)
(143.789 0 0)
(144.703 0 0)
(145.617 0 0)
(146.53 0 0)
(147.444 0 0)
(148.357 0 0)
(149.271 0 0)
(150.184 0 0)
(151.097 0 0)
(152.011 0 0)
(152.924 0 0)
(153.837 0 0)
(154.75 0 0)
(155.663 0 0)
(156.576 0 0)
(157.489 0 0)
(158.402 0 0)
(159.315 0 0)
(160.227 0 0)
(161.14 0 0)
(162.053 0 0)
(162.965 0 0)
(163.877 0 0)
(164.79 0 0)
(165.702 0 0)
(166.614 0 0)
(167.526 0 0)
(168.438 0 0)
(169.35 0 0)
(170.262 0 0)
(171.174 0 0)
(172.085 0 0)
(172.996 0 0)
(173.908 0 0)
(174.819 0 0)
(175.73 0 0)
(176.641 0 0)
(177.552 0 0)
(178.463 0 0)
(179.373 0 0)
(180.284 0 0)
(181.194 0 0)
(182.105 0 0)
(183.015 0 0)
(183.925 0 0)
(184.835 0 0)
(185.744 0 0)
(186.654 0 0)
(187.563 0 0)
(188.472 0 0)
(189.381 0 0)
(190.29 0 0)
(191.199 0 0)
(192.107 0 0)
(193.016 0 0)
(193.924 0 0)
(194.832 0 0)
(195.739 0 0)
(196.647 0 0)
(197.554 0 0)
(198.461 0 0)
(199.368 0 0)
(200.275 0 0)
(201.181 0 0)
(202.087 0 0)
(202.993 0 0)
(203.898 0 0)
(204.804 0 0)
(205.709 0 0)
(206.613 0 0)
(207.518 0 0)
(208.422 0 0)
(209.326 0 0)
(210.229 0 0)
(211.132 0 0)
(212.035 0 0)
(212.938 0 0)
(213.839 0 0)
(214.741 0 0)
(215.643 0 0)
(216.543 0 0)
(217.444 0 0)
(218.344 0 0)
(219.243 0 0)
(220.142 0 0)
(221.041 0 0)
(221.939 0 0)
(222.837 0 0)
(223.734 0 0)
(224.63 0 0)
(225.526 0 0)
(226.421 0 0)
(227.316 0 0)
(228.21 0 0)
(229.104 0 0)
(229.996 0 0)
(230.888 0 0)
(231.78 0 0)
(232.67 0 0)
(233.56 0 0)
(234.449 0 0)
(235.337 0 0)
(236.224 0 0)
(237.11 0 0)
(237.995 0 0)
(238.88 0 0)
(239.763 0 0)
(240.645 0 0)
(241.526 0 0)
(242.405 0 0)
(243.284 0 0)
(244.161 0 0)
(245.037 0 0)
(245.911 0 0)
(246.784 0 0)
(247.656 0 0)
(248.526 0 0)
(249.394 0 0)
(250.26 0 0)
(251.125 0 0)
(251.987 0 0)
(252.848 0 0)
(253.706 0 0)
(254.562 0 0)
(255.416 0 0)
(256.268 0 0)
(257.117 0 0)
(257.963 0 0)
(258.806 0 0)
(259.646 0 0)
(260.483 0 0)
(261.317 0 0)
(262.148 0 0)
(262.974 0 0)
(263.797 0 0)
(264.616 0 0)
(265.431 0 0)
(266.241 0 0)
(267.046 0 0)
(267.846 0 0)
(268.641 0 0)
(269.43 0 0)
(270.214 0 0)
(270.991 0 0)
(271.762 0 0)
(272.526 0 0)
(273.282 0 0)
(274.031 0 0)
(274.772 0 0)
(275.504 0 0)
(276.227 0 0)
(276.94 0 0)
(277.644 0 0)
(278.337 0 0)
(279.019 0 0)
(279.689 0 0)
(280.347 0 0)
(280.992 0 0)
(281.623 0 0)
(282.241 0 0)
(282.843 0 0)
(283.43 0 0)
(284.001 0 0)
(284.556 0 0)
(285.093 0 0)
(285.611 0 0)
(286.112 0 0)
(286.593 0 0)
(287.054 0 0)
(287.495 0 0)
(287.916 0 0)
(288.315 0 0)
(288.693 0 0)
(289.05 0 0)
(289.385 0 0)
(289.699 0 0)
(289.99 0 0)
(290.261 0 0)
(290.51 0 0)
(290.739 0 0)
(290.948 0 0)
(291.137 0 0)
(291.307 0 0)
(291.46 0 0)
(291.596 0 0)
(291.715 0 0)
(291.818 0 0)
(291.909 0 0)
(291.988 0 0)
(292.053 0 0)
(292.109 0 0)
(292.155 0 0)
(292.19 0 0)
(292.219 0 0)
(292.247 0 0)
(292.267 0 0)
(292.282 0 0)
(292.293 0 0)
(292.3 0 0)
(292.303 0 0)
(292.305 0 0)
(292.307 0 0)
(292.307 0 0)
(292.307 0 0)
(292.307 0 0)
(292.305 0 0)
(292.303 0 0)
(292.301 0 0)
(292.299 0 0)
(292.298 0 0)
(292.298 0 0)
(292.296 0 0)
(292.293 0 0)
(292.291 0 0)
(292.287 0 0)
(292.283 0 0)
(292.281 0 0)
(292.28 0 0)
(292.275 0 0)
(292.271 0 0)
(292.27 0 0)
(292.268 0 0)
(292.264 0 0)
(292.26 0 0)
(292.259 0 0)
(292.257 0 0)
(292.252 0 0)
(292.25 0 0)
(292.248 0 0)
(292.243 0 0)
(292.24 0 0)
(292.239 0 0)
(292.237 0 0)
(292.233 0 0)
(292.231 0 0)
(292.231 0 0)
(292.227 0 0)
(292.224 0 0)
(292.223 0 0)
(292.222 0 0)
(292.219 0 0)
(292.217 0 0)
(292.216 0 0)
(292.215 0 0)
(292.213 0 0)
(292.211 0 0)
(292.211 0 0)
(292.21 0 0)
(292.208 0 0)
(292.207 0 0)
(292.207 0 0)
(292.206 0 0)
(292.204 0 0)
(292.203 0 0)
(292.203 0 0)
(292.202 0 0)
(292.201 0 0)
(292.201 0 0)
(292.201 0 0)
(292.2 0 0)
(292.199 0 0)
(292.199 0 0)
(292.198 0 0)
(292.198 0 0)
(292.197 0 0)
(292.197 0 0)
(292.197 0 0)
(292.196 0 0)
(292.196 0 0)
(292.196 0 0)
(292.195 0 0)
(292.195 0 0)
(292.194 0 0)
(292.194 0 0)
(292.194 0 0)
(292.194 0 0)
(292.194 0 0)
(292.194 0 0)
(292.193 0 0)
(292.193 0 0)
(292.193 0 0)
(292.193 0 0)
(292.192 0 0)
(292.192 0 0)
(292.192 0 0)
(292.192 0 0)
(292.192 0 0)
(292.192 0 0)
(292.192 0 0)
(292.192 0 0)
(292.191 0 0)
(292.191 0 0)
(292.192 0 0)
(292.191 0 0)
(292.191 0 0)
(292.191 0 0)
(292.191 0 0)
(292.191 0 0)
(292.19 0 0)
(292.19 0 0)
(292.191 0 0)
(292.19 0 0)
(292.19 0 0)
(292.19 0 0)
(292.19 0 0)
(292.19 0 0)
(292.19 0 0)
(292.19 0 0)
(292.19 0 0)
(292.189 0 0)
(292.189 0 0)
(292.19 0 0)
(292.189 0 0)
(292.189 0 0)
(292.19 0 0)
(292.189 0 0)
(292.189 0 0)
(292.189 0 0)
(292.19 0 0)
(292.189 0 0)
(292.189 0 0)
(292.19 0 0)
(292.189 0 0)
(292.189 0 0)
(292.19 0 0)
(292.19 0 0)
(292.189 0 0)
(292.19 0 0)
(292.19 0 0)
(292.19 0 0)
(292.19 0 0)
(292.19 0 0)
(292.19 0 0)
(292.19 0 0)
(292.19 0 0)
(292.19 0 0)
(292.19 0 0)
(292.19 0 0)
(292.19 0 0)
(292.19 0 0)
(292.19 0 0)
(292.19 0 0)
(292.19 0 0)
(292.19 0 0)
(292.19 0 0)
(292.19 0 0)
(292.19 0 0)
(292.19 0 0)
(292.19 0 0)
(292.19 0 0)
(292.19 0 0)
(292.19 0 0)
(292.19 0 0)
(292.19 0 0)
(292.19 0 0)
(292.19 0 0)
(292.19 0 0)
(292.19 0 0)
(292.19 0 0)
(292.19 0 0)
(292.19 0 0)
(292.19 0 0)
(292.19 0 0)
(292.19 0 0)
(292.19 0 0)
(292.19 0 0)
(292.19 0 0)
(292.19 0 0)
(292.19 0 0)
(292.189 0 0)
(292.189 0 0)
(292.189 0 0)
(292.189 0 0)
(292.189 0 0)
(292.189 0 0)
(292.189 0 0)
(292.189 0 0)
(292.189 0 0)
(292.189 0 0)
(292.189 0 0)
(292.189 0 0)
(292.189 0 0)
(292.189 0 0)
(292.189 0 0)
(292.189 0 0)
(292.189 0 0)
(292.189 0 0)
(292.189 0 0)
(292.189 0 0)
(292.189 0 0)
(292.189 0 0)
(292.189 0 0)
(292.189 0 0)
(292.189 0 0)
(292.189 0 0)
(292.189 0 0)
(292.19 0 0)
(292.19 0 0)
(292.19 0 0)
(292.19 0 0)
(292.19 0 0)
(292.19 0 0)
(292.19 0 0)
(292.19 0 0)
(292.19 0 0)
(292.19 0 0)
(292.19 0 0)
(292.19 0 0)
(292.191 0 0)
(292.191 0 0)
(292.19 0 0)
(292.19 0 0)
(292.189 0 0)
(292.189 0 0)
(292.189 0 0)
(292.189 0 0)
(292.189 0 0)
(292.189 0 0)
(292.189 0 0)
(292.189 0 0)
(292.191 0 0)
(292.191 0 0)
(292.189 0 0)
(292.187 0 0)
(292.186 0 0)
(292.184 0 0)
(292.184 0 0)
(292.185 0 0)
(292.184 0 0)
(292.185 0 0)
(292.186 0 0)
(292.189 0 0)
(292.193 0 0)
(292.203 0 0)
(292.228 0 0)
(292.261 0 0)
(292.334 0 0)
(292.422 0 0)
(292.713 0 0)
(292.796 0 0)
(292.385 0 0)
(292.083 0 0)
(292.015 0 0)
(292.04 0 0)
(292.076 0 0)
(292.107 0 0)
(292.127 0 0)
(292.144 0 0)
(292.161 0 0)
(292.175 0 0)
(292.181 0 0)
(292.181 0 0)
(292.18 0 0)
(292.178 0 0)
(292.18 0 0)
(292.182 0 0)
(292.182 0 0)
(292.183 0 0)
(292.185 0 0)
(292.186 0 0)
(292.186 0 0)
(292.186 0 0)
(292.185 0 0)
(292.185 0 0)
(292.185 0 0)
(292.185 0 0)
(292.183 0 0)
(292.183 0 0)
(292.183 0 0)
(292.182 0 0)
(292.181 0 0)
(292.18 0 0)
(292.18 0 0)
(292.179 0 0)
(292.179 0 0)
(292.179 0 0)
(292.178 0 0)
(292.177 0 0)
(292.177 0 0)
(292.177 0 0)
(292.177 0 0)
(292.177 0 0)
(292.176 0 0)
(292.176 0 0)
(292.177 0 0)
(292.177 0 0)
(292.177 0 0)
(292.177 0 0)
(292.177 0 0)
(292.178 0 0)
(292.178 0 0)
(292.178 0 0)
(292.179 0 0)
(292.18 0 0)
(292.181 0 0)
(292.181 0 0)
(292.181 0 0)
(292.182 0 0)
(292.182 0 0)
(292.182 0 0)
(292.181 0 0)
(292.181 0 0)
(292.182 0 0)
(292.182 0 0)
(292.182 0 0)
(292.182 0 0)
(292.182 0 0)
(292.182 0 0)
(292.182 0 0)
(292.182 0 0)
(292.183 0 0)
(292.183 0 0)
(292.182 0 0)
(292.181 0 0)
(292.181 0 0)
(292.181 0 0)
(292.181 0 0)
(292.181 0 0)
(292.181 0 0)
(292.181 0 0)
(292.181 0 0)
(292.181 0 0)
(292.18 0 0)
(292.18 0 0)
(292.181 0 0)
(292.18 0 0)
(292.18 0 0)
(292.179 0 0)
(292.179 0 0)
(292.179 0 0)
(292.179 0 0)
(292.179 0 0)
(292.178 0 0)
(292.178 0 0)
(292.178 0 0)
(292.178 0 0)
(292.177 0 0)
(292.177 0 0)
(292.177 0 0)
(292.177 0 0)
(292.177 0 0)
(292.177 0 0)
(292.177 0 0)
(292.177 0 0)
(292.177 0 0)
(292.178 0 0)
(292.178 0 0)
(292.178 0 0)
(292.178 0 0)
(292.178 0 0)
(292.179 0 0)
(292.179 0 0)
(292.18 0 0)
(292.18 0 0)
(292.181 0 0)
(292.181 0 0)
(292.182 0 0)
(292.183 0 0)
(292.183 0 0)
(292.183 0 0)
(292.183 0 0)
(292.183 0 0)
(292.183 0 0)
(292.182 0 0)
(292.182 0 0)
(292.182 0 0)
(292.181 0 0)
(292.18 0 0)
(292.18 0 0)
(292.18 0 0)
(292.18 0 0)
(292.179 0 0)
(292.178 0 0)
(292.178 0 0)
(292.177 0 0)
(292.177 0 0)
(292.176 0 0)
(292.176 0 0)
(292.176 0 0)
(292.175 0 0)
(292.174 0 0)
(292.174 0 0)
(292.173 0 0)
(292.173 0 0)
(292.171 0 0)
(292.17 0 0)
(292.169 0 0)
(292.168 0 0)
(292.167 0 0)
(292.165 0 0)
(292.164 0 0)
(292.163 0 0)
(292.162 0 0)
(292.162 0 0)
(292.161 0 0)
(292.162 0 0)
(292.162 0 0)
(292.162 0 0)
(292.162 0 0)
(292.164 0 0)
(292.167 0 0)
(292.169 0 0)
(292.168 0 0)
(292.169 0 0)
(292.172 0 0)
(292.175 0 0)
(292.176 0 0)
(292.176 0 0)
(292.178 0 0)
(292.18 0 0)
(292.182 0 0)
(292.181 0 0)
(292.178 0 0)
(292.178 0 0)
(292.179 0 0)
(292.177 0 0)
(292.173 0 0)
(292.171 0 0)
(292.17 0 0)
(292.167 0 0)
(292.163 0 0)
(292.161 0 0)
(292.16 0 0)
(292.158 0 0)
(292.155 0 0)
(292.154 0 0)
(292.154 0 0)
(292.153 0 0)
(292.152 0 0)
(292.154 0 0)
(292.154 0 0)
(292.154 0 0)
(292.157 0 0)
(292.158 0 0)
(292.155 0 0)
(292.152 0 0)
(292.148 0 0)
(292.144 0 0)
(292.141 0 0)
(292.145 0 0)
(292.146 0 0)
(292.148 0 0)
(292.143 0 0)
(292.132 0 0)
(292.125 0 0)
(292.098 0 0)
(292.068 0 0)
(292.043 0 0)
(292.003 0 0)
(291.976 0 0)
(291.959 0 0)
(291.927 0 0)
(291.921 0 0)
(291.835 0 0)
(291.711 0 0)
(291.615 0 0)
(291.367 0 0)
(291.147 0 0)
(290.883 0 0)
(290.4 0 0)
(290.17 0 0)
(289.726 0 0)
(289.12 0 0)
(288.886 0 0)
(287.723 0 0)
(286.351 0 0)
(285.33 0 0)
(282.577 0 0)
(281.321 0 0)
(275.857 0 0)
(267.84 0 0)
(251.496 0 0)
(171.553 0 0)
(54.339 0 0)
(9.90105 0 0)
(1.50112 0 0)
(0.205105 0 0)
(0.027353 0 0)
(0.00363703 0 0)
(0.000483884 0 0)
(6.44853e-05 0 0)
(7.63566e-06 0 0)
)
;

boundaryField
{
    sides
    {
        type            zeroGradient;
    }
    empty
    {
        type            empty;
    }
}


// ************************************************************************* //
