/*--------------------------------*- C++ -*----------------------------------*\
  =========                 |
  \\      /  F ield         | OpenFOAM: The Open Source CFD Toolbox
   \\    /   O peration     | Website:  https://openfoam.org
    \\  /    A nd           | Version:  9
     \\/     M anipulation  |
\*---------------------------------------------------------------------------*/
FoamFile
{
    format      ascii;
    class       volScalarField;
    location    "0.05";
    object      ddt0(p);
}
// * * * * * * * * * * * * * * * * * * * * * * * * * * * * * * * * * * * * * //

dimensions      [1 -1 -3 0 0 0 0];

internalField   nonuniform List<scalar> 
100
(
-271634
-270751
-268599
-266756
-265431
-264034
-262510
-261119
-259795
-258242
-256803
-254977
-253410
-251706
-249908
-247775
-248132
-246178
-246255
-245906
-244766
-236117
-223492
-214130
-223203
-226766
-225393
-230832
-234919
-231697
-232831
-234610
-232661
-231239
-230612
-229235
-227749
-226957
-226325
-224663
-222444
-221136
-220759
-220598
-220626
-221008
-221511
-221904
-222372
-223343
-224919
-226672
-228191
-229515
-230971
-232761
-234869
-237172
-239510
-241753
-243981
-246396
-249239
-252412
-255652
-258734
-261626
-264490
-267729
-271482
-275697
-280064
-284503
-288899
-293446
-298532
-304588
-311703
-319848
-328769
-337779
-346139
-353799
-359574
-362734
-364702
-365822
-362058
-358948
-354996
-350527
-346294
-342996
-343665
-345406
-348475
-353548
-361296
-368857
-377452
)
;

boundaryField
{
    sides
    {
        type            calculated;
        value           nonuniform List<scalar> 2(-377452 -271634);
    }
    empty
    {
        type            empty;
    }
}


// ************************************************************************* //
