/*--------------------------------*- C++ -*----------------------------------*\
  =========                 |
  \\      /  F ield         | OpenFOAM: The Open Source CFD Toolbox
   \\    /   O peration     | Website:  https://openfoam.org
    \\  /    A nd           | Version:  9
     \\/     M anipulation  |
\*---------------------------------------------------------------------------*/
FoamFile
{
    format      ascii;
    class       volScalarField;
    location    "0.05";
    object      ddt0(rho,K);
}
// * * * * * * * * * * * * * * * * * * * * * * * * * * * * * * * * * * * * * //

dimensions      [1 -1 -3 0 0 0 0];

internalField   nonuniform List<scalar> 
100
(
-2501.53
-3684.63
-5457.95
-6927.22
-8280.85
-9791.01
-11354
-12921.7
-14584.6
-16345
-18172.1
-20036.2
-21980.7
-23956.9
-25980.6
-27963.3
-29688.6
-31098.9
-32837.9
-35108.8
-38318.5
-43055.3
-47415.2
-49977.6
-52815.2
-53806.6
-53447.9
-55237.4
-57605.4
-58625.9
-60790.6
-63828.7
-66109.9
-68299.9
-70900.2
-73574.8
-76287.8
-79290.3
-82434.7
-85153.7
-87452.5
-89938.5
-92730.1
-95546.2
-98388.3
-101355
-104275
-106869
-109137
-111386
-113848
-116452
-118978
-121306
-123467
-125599
-127828
-130196
-132671
-135211
-137754
-140296
-142769
-145223
-147641
-150001
-152374
-154867
-157395
-159946
-162449
-164932
-167249
-169529
-171771
-173831
-175512
-176793
-177693
-178444
-179691
-181750
-184406
-188056
-191885
-195694
-200600
-204902
-211063
-219382
-227734
-235875
-242328
-247704
-252146
-255049
-258015
-261131
-266743
-276055
)
;

boundaryField
{
    sides
    {
        type            calculated;
        value           nonuniform List<scalar> 2(-276055 -2501.53);
    }
    empty
    {
        type            empty;
    }
}


// ************************************************************************* //
