/*--------------------------------*- C++ -*----------------------------------*\
  =========                 |
  \\      /  F ield         | OpenFOAM: The Open Source CFD Toolbox
   \\    /   O peration     | Website:  https://openfoam.org
    \\  /    A nd           | Version:  9
     \\/     M anipulation  |
\*---------------------------------------------------------------------------*/
FoamFile
{
    format      ascii;
    class       volScalarField;
    location    "0.026";
    object      mag(U);
}
// * * * * * * * * * * * * * * * * * * * * * * * * * * * * * * * * * * * * * //

dimensions      [0 1 -1 0 0 0 0];

internalField   nonuniform List<scalar> 
10000
(
1.55423
1.62871
1.69563
1.73679
1.78508
1.83835
1.89259
1.94536
1.99679
2.04835
2.10028
2.15254
2.20497
2.25751
2.30979
2.36188
2.41403
2.46633
2.51872
2.57118
2.62347
2.67575
2.72808
2.78048
2.83293
2.88539
2.93782
2.99026
3.04274
3.09525
3.14778
3.20031
3.25286
3.30542
3.35799
3.41059
3.46319
3.51581
3.56843
3.62107
3.67371
3.72636
3.77902
3.83168
3.88435
3.93703
3.98972
4.0424
4.0951
4.14779
4.20049
4.25319
4.3059
4.35861
4.41132
4.46404
4.51676
4.56948
4.62221
4.67495
4.72768
4.78042
4.83317
4.88593
4.93869
4.99145
5.04423
5.09701
5.1498
5.20261
5.25542
5.30824
5.36108
5.41393
5.46679
5.51966
5.57255
5.62545
5.67836
5.73129
5.78424
5.8372
5.89018
5.94318
5.99619
6.04922
6.10227
6.15533
6.2084
6.2615
6.31461
6.36773
6.42087
6.47403
6.5272
6.58039
6.63358
6.6868
6.74002
6.79326
6.84651
6.89977
6.95304
7.00632
7.05961
7.1129
7.16621
7.21953
7.27285
7.32618
7.37951
7.43285
7.4862
7.53955
7.59291
7.64627
7.69964
7.75301
7.80639
7.85978
7.91317
7.96657
8.01997
8.07338
8.12679
8.18021
8.23364
8.28707
8.34051
8.39397
8.44743
8.50089
8.55437
8.60786
8.66136
8.71487
8.76839
8.82192
8.87546
8.92902
8.98259
9.03618
9.08978
9.14339
9.19702
9.25066
9.30432
9.35799
9.41167
9.46538
9.51909
9.57282
9.62657
9.68033
9.7341
9.78789
9.84168
9.89549
9.94931
10.0031
10.057
10.1108
10.1647
10.2186
10.2724
10.3263
10.3802
10.4341
10.488
10.5419
10.5958
10.6497
10.7036
10.7575
10.8115
10.8654
10.9193
10.9732
11.0271
11.081
11.1349
11.1887
11.2426
11.2965
11.3504
11.4042
11.4581
11.512
11.5658
11.6196
11.6735
11.7273
11.7811
11.8349
11.8887
11.9425
11.9963
12.05
12.1038
12.1576
12.2113
12.265
12.3188
12.3725
12.4262
12.4799
12.5336
12.5872
12.6409
12.6945
12.7482
12.8018
12.8554
12.909
12.9626
13.0161
13.0697
13.1232
13.1767
13.2302
13.2837
13.3372
13.3906
13.444
13.4974
13.5508
13.6042
13.6575
13.7108
13.7641
13.8173
13.8706
13.9238
13.977
14.0301
14.0832
14.1363
14.1894
14.2425
14.2955
14.3485
14.4015
14.4544
14.5074
14.5603
14.6132
14.666
14.7189
14.7717
14.8245
14.8773
14.9301
14.9829
15.0356
15.0884
15.1411
15.1939
15.2466
15.2993
15.352
15.4048
15.4575
15.5102
15.563
15.6157
15.6685
15.7213
15.774
15.8268
15.8797
15.9325
15.9853
16.0382
16.0911
16.144
16.197
16.2499
16.3029
16.3559
16.409
16.4621
16.5152
16.5683
16.6214
16.6746
16.7278
16.7811
16.8343
16.8876
16.9409
16.9942
17.0476
17.1009
17.1543
17.2077
17.2612
17.3146
17.3681
17.4215
17.475
17.5285
17.582
17.6355
17.6889
17.7424
17.7959
17.8494
17.9029
17.9564
18.0099
18.0634
18.1169
18.1703
18.2238
18.2773
18.3307
18.3841
18.4375
18.4909
18.5443
18.5977
18.651
18.7044
18.7577
18.811
18.8643
18.9176
18.9709
19.0242
19.0774
19.1307
19.1839
19.2371
19.2903
19.3435
19.3967
19.4499
19.503
19.5562
19.6093
19.6625
19.7156
19.7688
19.8219
19.875
19.9282
19.9813
20.0344
20.0875
20.1407
20.1938
20.2469
20.3
20.3531
20.4062
20.4594
20.5125
20.5656
20.6187
20.6718
20.7249
20.778
20.8311
20.8842
20.9373
20.9904
21.0435
21.0966
21.1497
21.2027
21.2558
21.3089
21.3619
21.415
21.468
21.521
21.574
21.6271
21.6801
21.7331
21.7861
21.8391
21.892
21.945
21.998
22.051
22.1039
22.1569
22.2099
22.2628
22.3158
22.3688
22.4218
22.4747
22.5277
22.5807
22.6337
22.6867
22.7397
22.7928
22.8458
22.8989
22.9519
23.005
23.0581
23.1112
23.1644
23.2175
23.2707
23.3239
23.3771
23.4303
23.4835
23.5368
23.5901
23.6434
23.6967
23.7501
23.8034
23.8568
23.9102
23.9636
24.017
24.0704
24.1239
24.1773
24.2308
24.2842
24.3377
24.3912
24.4446
24.4981
24.5516
24.605
24.6585
24.7119
24.7653
24.8187
24.8721
24.9255
24.9789
25.0322
25.0855
25.1388
25.1921
25.2454
25.2986
25.3518
25.405
25.4582
25.5113
25.5644
25.6175
25.6706
25.7236
25.7766
25.8296
25.8826
25.9356
25.9885
26.0414
26.0944
26.1473
26.2001
26.253
26.3059
26.3588
26.4116
26.4645
26.5174
26.5702
26.6231
26.676
26.7289
26.7818
26.8347
26.8877
26.9406
26.9936
27.0466
27.0996
27.1526
27.2056
27.2587
27.3118
27.3649
27.4181
27.4713
27.5245
27.5777
27.631
27.6842
27.7375
27.7909
27.8442
27.8976
27.951
28.0044
28.0578
28.1112
28.1647
28.2182
28.2716
28.3251
28.3786
28.4321
28.4855
28.539
28.5925
28.6459
28.6994
28.7528
28.8063
28.8597
28.9131
28.9665
29.0198
29.0732
29.1265
29.1798
29.233
29.2863
29.3395
29.3927
29.4459
29.499
29.5522
29.6053
29.6583
29.7114
29.7644
29.8175
29.8705
29.9234
29.9764
30.0294
30.0823
30.1352
30.1882
30.2411
30.294
30.3469
30.3998
30.4527
30.5056
30.5585
30.6114
30.6644
30.7173
30.7703
30.8232
30.8762
30.9292
30.9823
31.0353
31.0884
31.1415
31.1946
31.2477
31.3009
31.3541
31.4073
31.4605
31.5138
31.567
31.6204
31.6737
31.727
31.7804
31.8338
31.8872
31.9406
31.994
32.0475
32.1009
32.1543
32.2078
32.2612
32.3147
32.3681
32.4216
32.475
32.5284
32.5818
32.6352
32.6886
32.742
32.7953
32.8487
32.902
32.9552
33.0085
33.0617
33.1149
33.1681
33.2213
33.2744
33.3275
33.3806
33.4337
33.4867
33.5398
33.5928
33.6457
33.6987
33.7516
33.8045
33.8575
33.9103
33.9632
34.0161
34.069
34.1218
34.1747
34.2275
34.2804
34.3332
34.3861
34.439
34.4918
34.5447
34.5976
34.6505
34.7035
34.7564
34.8094
34.8623
34.9153
34.9684
35.0214
35.0745
35.1276
35.1807
35.2338
35.287
35.3402
35.3934
35.4466
35.4999
35.5531
35.6064
35.6597
35.713
35.7663
35.8197
35.873
35.9263
35.9797
36.033
36.0863
36.1397
36.193
36.2463
36.2996
36.3528
36.4061
36.4593
36.5125
36.5657
36.6189
36.672
36.7251
36.7782
36.8312
36.8843
36.9372
36.9902
37.0431
37.096
37.1488
37.2016
37.2544
37.3072
37.3599
37.4126
37.4652
37.5179
37.5705
37.623
37.6756
37.7281
37.7806
37.8331
37.8856
37.9381
37.9905
38.043
38.0954
38.1478
38.2002
38.2527
38.3051
38.3575
38.4099
38.4623
38.5148
38.5672
38.6197
38.6722
38.7247
38.7772
38.8297
38.8822
38.9348
38.9874
39.04
39.0926
39.1453
39.1979
39.2506
39.3033
39.356
39.4087
39.4615
39.5142
39.567
39.6197
39.6725
39.7253
39.7781
39.8308
39.8836
39.9364
39.9891
40.0419
40.0946
40.1473
40.2
40.2527
40.3054
40.358
40.4106
40.4632
40.5158
40.5683
40.6209
40.6734
40.7258
40.7783
40.8307
40.883
40.9354
40.9877
41.04
41.0923
41.1445
41.1968
41.249
41.3012
41.3533
41.4055
41.4576
41.5097
41.5619
41.614
41.6661
41.7182
41.7703
41.8224
41.8745
41.9266
41.9787
42.0308
42.083
42.1351
42.1873
42.2395
42.2917
42.344
42.3963
42.4486
42.5009
42.5533
42.6057
42.6582
42.7107
42.7632
42.8158
42.8684
42.9211
42.9738
43.0265
43.0793
43.1322
43.185
43.238
43.2909
43.3439
43.3969
43.4499
43.503
43.5561
43.6092
43.6624
43.7155
43.7687
43.8219
43.8751
43.9283
43.9815
44.0347
44.0879
44.1411
44.1942
44.2474
44.3006
44.3537
44.4069
44.46
44.5131
44.5661
44.6192
44.6722
44.7253
44.7783
44.8312
44.8842
44.9371
44.99
45.0429
45.0958
45.1486
45.2014
45.2542
45.307
45.3598
45.4125
45.4653
45.518
45.5708
45.6235
45.6762
45.7289
45.7816
45.8344
45.8871
45.9398
45.9926
46.0453
46.0981
46.1509
46.2037
46.2565
46.3094
46.3623
46.4152
46.4681
46.5211
46.5741
46.6271
46.6802
46.7333
46.7865
46.8397
46.8929
46.9462
46.9995
47.0529
47.1063
47.1597
47.2131
47.2666
47.3201
47.3737
47.4272
47.4808
47.5344
47.588
47.6417
47.6953
47.7489
47.8026
47.8562
47.9098
47.9634
48.0171
48.0706
48.1242
48.1778
48.2313
48.2848
48.3383
48.3918
48.4452
48.4986
48.552
48.6053
48.6586
48.7119
48.7651
48.8183
48.8715
48.9246
48.9777
49.0308
49.0838
49.1368
49.1898
49.2427
49.2957
49.3486
49.4014
49.4543
49.5071
49.5599
49.6127
49.6655
49.7183
49.7711
49.8238
49.8766
49.9294
49.9822
50.035
50.0878
50.1406
50.1934
50.2462
50.2991
50.352
50.4049
50.4579
50.5109
50.5639
50.617
50.6701
50.7232
50.7764
50.8296
50.8829
50.9362
50.9896
51.043
51.0964
51.1499
51.2034
51.257
51.3105
51.3642
51.4178
51.4715
51.5251
51.5788
51.6326
51.6863
51.74
51.7938
51.8475
51.9012
51.9549
52.0086
52.0623
52.116
52.1697
52.2233
52.2769
52.3305
52.384
52.4375
52.491
52.5445
52.5979
52.6512
52.7046
52.7579
52.8111
52.8643
52.9175
52.9706
53.0237
53.0768
53.1298
53.1828
53.2358
53.2887
53.3416
53.3944
53.4473
53.5001
53.5529
53.6056
53.6584
53.7111
53.7638
53.8166
53.8693
53.922
53.9747
54.0274
54.0801
54.1329
54.1856
54.2384
54.2912
54.344
54.3968
54.4497
54.5026
54.5555
54.6085
54.6615
54.7146
54.7677
54.8209
54.8741
54.9274
54.9807
55.0341
55.0875
55.1409
55.1944
55.248
55.3016
55.3552
55.4089
55.4626
55.5163
55.5701
55.6239
55.6777
55.7315
55.7853
55.8391
55.893
55.9468
56.0006
56.0544
56.1082
56.162
56.2157
56.2695
56.3232
56.3768
56.4305
56.4841
56.5377
56.5912
56.6447
56.6981
56.7515
56.8049
56.8582
56.9115
56.9647
57.0179
57.071
57.1241
57.1772
57.2302
57.2831
57.3361
57.389
57.4418
57.4946
57.5474
57.6002
57.6529
57.7056
57.7583
57.811
57.8637
57.9163
57.969
58.0216
58.0743
58.1269
58.1796
58.2322
58.2849
58.3376
58.3903
58.4431
58.4959
58.5487
58.6015
58.6544
58.7074
58.7603
58.8134
58.8665
58.9196
58.9728
59.0261
59.0794
59.1327
59.1862
59.2396
59.2932
59.3468
59.4004
59.4541
59.5078
59.5616
59.6154
59.6692
59.7231
59.777
59.8309
59.8848
59.9387
59.9927
60.0466
60.1005
60.1544
60.2083
60.2622
60.3161
60.3699
60.4237
60.4775
60.5312
60.5849
60.6386
60.6922
60.7458
60.7993
60.8528
60.9063
60.9596
61.013
61.0663
61.1195
61.1727
61.2258
61.2789
61.332
61.3849
61.4379
61.4908
61.5437
61.5965
61.6493
61.702
61.7547
61.8074
61.8601
61.9127
61.9653
62.0179
62.0705
62.1231
62.1757
62.2282
62.2808
62.3334
62.386
62.4386
62.4912
62.5439
62.5965
62.6492
62.702
62.7548
62.8076
62.8605
62.9135
62.9665
63.0195
63.0726
63.1258
63.179
63.2324
63.2857
63.3392
63.3927
63.4462
63.4998
63.5535
63.6073
63.661
63.7149
63.7688
63.8227
63.8766
63.9306
63.9846
64.0386
64.0927
64.1467
64.2008
64.2548
64.3088
64.3628
64.4168
64.4708
64.5248
64.5787
64.6326
64.6864
64.7402
64.794
64.8477
64.9014
64.955
65.0086
65.0621
65.1156
65.169
65.2223
65.2756
65.3289
65.3821
65.4352
65.4883
65.5413
65.5943
65.6472
65.7001
65.7529
65.8057
65.8584
65.9111
65.9637
66.0164
66.069
66.1215
66.1741
66.2266
66.2791
66.3316
66.3841
66.4366
66.4891
66.5416
66.5941
66.6466
66.6992
66.7518
66.8044
66.857
66.9097
66.9624
67.0152
67.068
67.1209
67.1739
67.2269
67.28
67.3331
67.3864
67.4397
67.493
67.5465
67.6
67.6536
67.7073
67.761
67.8148
67.8686
67.9225
67.9765
68.0305
68.0845
68.1386
68.1927
68.2469
68.301
68.3552
68.4093
68.4635
68.5177
68.5718
68.6259
68.68
68.7341
68.7881
68.8421
68.8961
68.95
69.0039
69.0578
69.1115
69.1653
69.2189
69.2726
69.3261
69.3796
69.433
69.4864
69.5397
69.593
69.6462
69.6993
69.7523
69.8053
69.8583
69.9112
69.964
70.0168
70.0695
70.1222
70.1748
70.2274
70.28
70.3325
70.385
70.4374
70.4899
70.5423
70.5947
70.6471
70.6995
70.7519
70.8043
70.8567
70.9092
70.9616
71.0141
71.0666
71.1192
71.1718
71.2244
71.2771
71.3299
71.3827
71.4356
71.4886
71.5416
71.5947
71.6479
71.7012
71.7546
71.808
71.8616
71.9152
71.9689
72.0226
72.0765
72.1304
72.1844
72.2384
72.2925
72.3466
72.4008
72.455
72.5092
72.5635
72.6178
72.6721
72.7264
72.7807
72.835
72.8893
72.9435
72.9977
73.0519
73.1061
73.1602
73.2143
73.2683
73.3223
73.3762
73.43
73.4838
73.5376
73.5913
73.6449
73.6984
73.7519
73.8053
73.8586
73.9119
73.9651
74.0182
74.0713
74.1243
74.1772
74.2301
74.2829
74.3356
74.3883
74.4409
74.4935
74.546
74.5985
74.651
74.7034
74.7557
74.8081
74.8604
74.9127
74.9651
75.0173
75.0696
75.1219
75.1742
75.2266
75.2789
75.3312
75.3836
75.4361
75.4886
75.5411
75.5937
75.6463
75.6991
75.7519
75.8047
75.8577
75.9107
75.9639
76.0171
76.0704
76.1238
76.1773
76.2309
76.2846
76.3384
76.3923
76.4462
76.5002
76.5543
76.6084
76.6626
76.7169
76.7712
76.8256
76.88
76.9344
76.9888
77.0433
77.0977
77.1522
77.2066
77.261
77.3154
77.3698
77.4241
77.4784
77.5327
77.5869
77.6411
77.6952
77.7492
77.8032
77.8571
77.911
77.9647
78.0185
78.0721
78.1257
78.1791
78.2325
78.2859
78.3391
78.3923
78.4454
78.4984
78.5514
78.6042
78.657
78.7098
78.7624
78.815
78.8676
78.92
78.9725
79.0248
79.0772
79.1295
79.1817
79.234
79.2862
79.3384
79.3905
79.4427
79.4949
79.547
79.5992
79.6514
79.7036
79.7558
79.8081
79.8604
79.9127
79.9651
80.0176
80.0702
80.1228
80.1755
80.2283
80.2812
80.3342
80.3873
80.4404
80.4937
80.5471
80.6006
80.6542
80.7079
80.7617
80.8156
80.8696
80.9236
80.9778
81.032
81.0863
81.1407
81.1951
81.2496
81.3041
81.3587
81.4132
81.4678
81.5225
81.5771
81.6317
81.6863
81.7409
81.7954
81.8499
81.9044
81.9589
82.0133
82.0676
82.1219
82.1761
82.2303
82.2844
82.3384
82.3924
82.4463
82.5001
82.5538
82.6074
82.661
82.7145
82.7679
82.8212
82.8744
82.9275
82.9805
83.0335
83.0864
83.1392
83.1919
83.2445
83.2971
83.3496
83.402
83.4544
83.5067
83.559
83.6112
83.6634
83.7155
83.7676
83.8197
83.8717
83.9238
83.9758
84.0279
84.0799
84.132
84.184
84.2361
84.2882
84.3404
84.3926
84.4449
84.4972
84.5496
84.6021
84.6547
84.7073
84.7601
84.8129
84.8659
84.919
84.9722
85.0255
85.0789
85.1324
85.186
85.2398
85.2936
85.3476
85.4016
85.4558
85.51
85.5644
85.6188
85.6733
85.7278
85.7824
85.8371
85.8918
85.9465
86.0013
86.056
86.1108
86.1656
86.2204
86.2751
86.3298
86.3845
86.4392
86.4938
86.5483
86.6029
86.6573
86.7117
86.766
86.8203
86.8745
86.9286
86.9826
87.0365
87.0904
87.1441
87.1978
87.2514
87.3049
87.3582
87.4115
87.4647
87.5178
87.5708
87.6238
87.6766
87.7293
87.782
87.8345
87.887
87.9394
87.9918
88.044
88.0962
88.1484
88.2005
88.2525
88.3045
88.3565
88.4084
88.4603
88.5122
88.5641
88.616
88.6678
88.7197
88.7716
88.8236
88.8755
88.9275
88.9796
89.0317
89.0839
89.1361
89.1885
89.2409
89.2934
89.3461
89.3988
89.4517
89.5047
89.5578
89.611
89.6643
89.7178
89.7714
89.8252
89.879
89.933
89.9871
90.0413
90.0956
90.15
90.2045
90.259
90.3137
90.3684
90.4232
90.4781
90.533
90.5879
90.6429
90.6978
90.7528
90.8078
90.8628
90.9178
90.9727
91.0276
91.0825
91.1373
91.192
91.2468
91.3014
91.356
91.4105
91.465
91.5193
91.5736
91.6278
91.6819
91.7359
91.7899
91.8437
91.8974
91.951
92.0045
92.0579
92.1112
92.1644
92.2175
92.2705
92.3234
92.3762
92.4288
92.4814
92.5339
92.5863
92.6386
92.6909
92.743
92.7951
92.8472
92.8991
92.951
93.0029
93.0547
93.1065
93.1583
93.21
93.2617
93.3135
93.3652
93.4169
93.4686
93.5204
93.5722
93.624
93.6759
93.7279
93.7799
93.832
93.8842
93.9364
93.9888
94.0413
94.094
94.1467
94.1996
94.2526
94.3057
94.359
94.4124
94.466
94.5196
94.5735
94.6274
94.6815
94.7357
94.79
94.8444
94.8989
94.9536
95.0083
95.0631
95.118
95.1729
95.2279
95.283
95.3381
95.3932
95.4484
95.5035
95.5587
95.6139
95.669
95.7241
95.7791
95.8342
95.8891
95.9441
95.9989
96.0537
96.1085
96.1631
96.2177
96.2722
96.3266
96.3809
96.4352
96.4893
96.5433
96.5972
96.651
96.7047
96.7583
96.8117
96.8651
96.9183
96.9714
97.0245
97.0773
97.1301
97.1828
97.2354
97.2878
97.3402
97.3925
97.4446
97.4967
97.5488
97.6007
97.6526
97.7044
97.7561
97.8078
97.8595
97.9111
97.9627
98.0143
98.0658
98.1174
98.169
98.2205
98.2721
98.3237
98.3754
98.4271
98.4789
98.5307
98.5826
98.6346
98.6867
98.7389
98.7912
98.8436
98.8962
98.9489
99.0017
99.0547
99.1079
99.1611
99.2146
99.2681
99.3219
99.3757
99.4297
99.4839
99.5382
99.5926
99.6471
99.7017
99.7565
99.8113
99.8663
99.9213
99.9764
100.032
100.087
100.142
100.197
100.253
100.308
100.363
100.419
100.474
100.53
100.585
100.64
100.695
100.751
100.806
100.861
100.916
100.971
101.025
101.08
101.135
101.189
101.244
101.298
101.352
101.407
101.461
101.514
101.568
101.622
101.675
101.729
101.782
101.835
101.888
101.941
101.994
102.047
102.099
102.152
102.204
102.256
102.308
102.36
102.412
102.464
102.515
102.567
102.619
102.67
102.722
102.773
102.824
102.876
102.927
102.978
103.03
103.081
103.132
103.184
103.235
103.286
103.338
103.389
103.441
103.493
103.544
103.596
103.648
103.7
103.753
103.805
103.857
103.91
103.963
104.016
104.069
104.122
104.176
104.23
104.283
104.337
104.392
104.446
104.5
104.555
104.609
104.664
104.719
104.774
104.829
104.885
104.94
104.995
105.051
105.106
105.162
105.217
105.273
105.329
105.384
105.44
105.496
105.551
105.607
105.662
105.718
105.773
105.828
105.884
105.939
105.994
106.049
106.104
106.159
106.214
106.268
106.323
106.377
106.432
106.486
106.54
106.594
106.647
106.701
106.754
106.808
106.861
106.914
106.967
107.02
107.072
107.125
107.177
107.23
107.282
107.334
107.386
107.437
107.489
107.541
107.592
107.644
107.695
107.746
107.797
107.849
107.9
107.951
108.002
108.053
108.104
108.155
108.206
108.257
108.308
108.359
108.411
108.462
108.513
108.565
108.616
108.668
108.72
108.771
108.824
108.876
108.928
108.981
109.033
109.086
109.139
109.193
109.246
109.3
109.353
109.407
109.461
109.516
109.57
109.625
109.679
109.734
109.789
109.844
109.899
109.955
110.01
110.066
110.121
110.177
110.233
110.289
110.344
110.4
110.456
110.512
110.568
110.624
110.68
110.736
110.791
110.847
110.903
110.958
111.014
111.069
111.125
111.18
111.235
111.29
111.345
111.4
111.455
111.509
111.564
111.618
111.673
111.727
111.781
111.834
111.888
111.941
111.995
112.048
112.101
112.154
112.207
112.259
112.312
112.364
112.416
112.468
112.52
112.572
112.623
112.675
112.726
112.778
112.829
112.88
112.931
112.982
113.033
113.084
113.135
113.186
113.236
113.287
113.338
113.389
113.44
113.491
113.542
113.593
113.644
113.695
113.746
113.797
113.849
113.9
113.952
114.004
114.056
114.108
114.16
114.213
114.266
114.318
114.372
114.425
114.478
114.532
114.586
114.64
114.694
114.748
114.803
114.858
114.912
114.967
115.023
115.078
115.133
115.189
115.244
115.3
115.356
115.412
115.468
115.524
115.58
115.636
115.692
115.748
115.805
115.861
115.917
115.973
116.029
116.085
116.141
116.197
116.253
116.308
116.364
116.42
116.475
116.531
116.586
116.641
116.696
116.751
116.806
116.86
116.915
116.969
117.023
117.077
117.131
117.185
117.238
117.292
117.345
117.398
117.451
117.503
117.556
117.608
117.66
117.713
117.764
117.816
117.868
117.919
117.971
118.022
118.073
118.124
118.175
118.226
118.277
118.327
118.378
118.429
118.479
118.53
118.58
118.631
118.681
118.732
118.782
118.833
118.884
118.934
118.985
119.036
119.087
119.138
119.189
119.241
119.292
119.344
119.396
119.448
119.5
119.552
119.605
119.658
119.711
119.764
119.817
119.871
119.925
119.979
120.033
120.087
120.142
120.197
120.252
120.307
120.362
120.417
120.473
120.528
120.584
120.64
120.696
120.752
120.808
120.865
120.921
120.977
121.034
121.09
121.147
121.203
121.26
121.316
121.373
121.429
121.485
121.542
121.598
121.654
121.71
121.766
121.822
121.878
121.933
121.989
122.044
122.1
122.155
122.21
122.265
122.32
122.374
122.429
122.483
122.537
122.591
122.644
122.698
122.751
122.805
122.857
122.91
122.963
123.015
123.068
123.12
123.172
123.223
123.275
123.327
123.378
123.429
123.48
123.531
123.582
123.633
123.683
123.734
123.784
123.835
123.885
123.935
123.986
124.036
124.086
124.137
124.187
124.237
124.288
124.338
124.388
124.439
124.489
124.54
124.59
124.641
124.692
124.743
124.794
124.846
124.897
124.949
125.001
125.053
125.106
125.159
125.212
125.265
125.318
125.372
125.426
125.48
125.534
125.588
125.643
125.698
125.752
125.808
125.863
125.918
125.974
126.03
126.086
126.142
126.198
126.254
126.31
126.367
126.423
126.48
126.537
126.593
126.65
126.707
126.764
126.821
126.877
126.934
126.991
127.047
127.104
127.161
127.217
127.273
127.33
127.386
127.442
127.498
127.554
127.61
127.665
127.721
127.776
127.831
127.886
127.941
127.996
128.05
128.105
128.159
128.213
128.266
128.32
128.373
128.426
128.479
128.532
128.585
128.637
128.689
128.741
128.793
128.845
128.896
128.948
128.999
129.05
129.101
129.151
129.202
129.253
129.303
129.353
129.404
129.454
129.504
129.554
129.605
129.655
129.705
129.755
129.805
129.855
129.906
129.956
130.006
130.056
130.106
130.157
130.207
130.257
130.308
130.358
130.409
130.46
130.511
130.562
130.614
130.665
130.717
130.77
130.822
130.875
130.928
130.981
131.034
131.088
131.142
131.196
131.25
131.305
131.359
131.414
131.469
131.525
131.58
131.636
131.691
131.747
131.803
131.86
131.916
131.972
132.029
132.085
132.142
132.199
132.256
132.313
132.37
132.427
132.484
132.541
132.598
132.655
132.712
132.769
132.826
132.883
132.94
132.997
133.054
133.11
133.167
133.223
133.28
133.336
133.392
133.448
133.504
133.559
133.615
133.67
133.725
133.78
133.835
133.89
133.944
133.998
134.052
134.106
134.16
134.213
134.266
134.319
134.372
134.425
134.477
134.529
134.581
134.633
134.685
134.736
134.788
134.839
134.89
134.94
134.991
135.041
135.092
135.142
135.192
135.243
135.293
135.343
135.393
135.443
135.493
135.543
135.593
135.643
135.693
135.743
135.792
135.842
135.892
135.942
135.992
136.042
136.092
136.142
136.192
136.243
136.293
136.343
136.393
136.444
136.494
136.545
136.596
136.648
136.699
136.751
136.803
136.856
136.909
136.962
137.015
137.068
137.122
137.176
137.23
137.285
137.339
137.394
137.449
137.505
137.56
137.616
137.672
137.728
137.784
137.84
137.897
137.954
138.01
138.067
138.124
138.181
138.239
138.296
138.353
138.411
138.468
138.526
138.584
138.641
138.699
138.757
138.815
138.872
138.93
138.988
139.045
139.103
139.16
139.217
139.274
139.332
139.388
139.445
139.502
139.558
139.615
139.671
139.727
139.783
139.838
139.893
139.949
140.003
140.058
140.112
140.166
140.22
140.274
140.327
140.38
140.433
140.486
140.538
140.59
140.642
140.694
140.745
140.796
140.847
140.898
140.949
140.999
141.049
141.1
141.15
141.2
141.25
141.3
141.35
141.4
141.449
141.499
141.549
141.599
141.648
141.698
141.747
141.797
141.846
141.896
141.945
141.995
142.044
142.094
142.143
142.193
142.243
142.292
142.342
142.392
142.442
142.492
142.542
142.592
142.642
142.692
142.743
142.793
142.844
142.895
142.947
142.999
143.051
143.104
143.157
143.21
143.264
143.318
143.372
143.427
143.482
143.538
143.594
143.65
143.706
143.763
143.82
143.877
143.934
143.992
144.049
144.107
144.166
144.224
144.282
144.341
144.399
144.458
144.517
144.575
144.634
144.693
144.751
144.81
144.868
144.927
144.985
145.043
145.101
145.159
145.216
145.273
145.331
145.388
145.444
145.501
145.557
145.613
145.669
145.724
145.779
145.834
145.889
145.943
145.997
146.051
146.105
146.158
146.211
146.263
146.316
146.368
146.42
146.471
146.523
146.574
146.625
146.676
146.727
146.777
146.827
146.878
146.928
146.978
147.028
147.077
147.127
147.177
147.227
147.277
147.327
147.376
147.426
147.476
147.525
147.575
147.625
147.674
147.724
147.774
147.823
147.873
147.923
147.973
148.023
148.073
148.123
148.173
148.223
148.274
148.324
148.375
148.427
148.479
148.531
148.584
148.637
148.69
148.744
148.799
148.853
148.908
148.964
149.02
149.076
149.132
149.189
149.246
149.303
149.361
149.418
149.476
149.534
149.592
149.65
149.708
149.766
149.824
149.883
149.941
149.998
150.056
150.114
150.172
150.229
150.286
150.343
150.4
150.457
150.514
150.57
150.626
150.682
150.738
150.793
150.848
150.903
150.958
151.012
151.066
151.12
151.174
151.227
151.28
151.333
151.385
151.438
151.49
151.542
151.593
151.645
151.696
151.747
151.798
151.849
151.899
151.95
152
152.05
152.1
152.15
152.2
152.25
152.3
152.349
152.399
152.449
152.499
152.549
152.598
152.648
152.698
152.748
152.797
152.847
152.897
152.947
152.997
153.047
153.097
153.147
153.197
153.248
153.299
153.35
153.402
153.454
153.507
153.56
153.614
153.667
153.722
153.776
153.831
153.887
153.942
153.998
154.054
154.111
154.167
154.224
154.281
154.338
154.396
154.453
154.511
154.568
154.626
154.684
154.742
154.8
154.858
154.916
154.974
155.032
155.091
155.149
155.207
155.265
155.322
155.38
155.438
155.495
155.553
155.61
155.667
155.723
155.78
155.836
155.892
155.948
156.004
156.059
156.114
156.169
156.223
156.277
156.331
156.385
156.438
156.491
156.544
156.597
156.649
156.701
156.753
156.804
156.855
156.906
156.957
157.008
157.058
157.108
157.158
157.208
157.258
157.308
157.358
157.407
157.457
157.507
157.556
157.606
157.655
157.705
157.754
157.804
157.853
157.902
157.952
158.001
158.05
158.1
158.149
158.199
158.248
158.298
158.347
158.397
158.447
158.496
158.546
158.596
158.646
158.696
158.746
158.796
158.847
158.899
158.951
159.003
159.056
159.11
159.164
159.218
159.274
159.329
159.385
159.441
159.498
159.554
159.611
159.668
159.726
159.783
159.841
159.898
159.956
160.014
160.071
160.129
160.187
160.244
160.302
160.36
160.418
160.476
160.534
160.592
160.651
160.709
160.768
160.826
160.885
160.944
161.002
161.061
161.119
161.177
161.236
161.294
161.352
161.409
161.467
161.524
161.581
161.637
161.694
161.75
161.805
161.861
161.916
161.97
162.024
162.078
162.132
162.185
162.238
162.291
162.343
162.395
162.447
162.498
162.549
162.6
162.651
162.701
162.752
162.802
162.852
162.902
162.951
163.001
163.051
163.1
163.15
163.199
163.249
163.298
163.348
163.397
163.446
163.496
163.545
163.594
163.643
163.692
163.741
163.791
163.84
163.889
163.938
163.987
164.037
164.086
164.135
164.185
164.235
164.284
164.334
164.383
164.433
164.483
164.533
164.583
164.634
164.685
164.737
164.79
164.844
164.898
164.953
165.009
165.066
165.124
165.182
165.24
165.299
165.358
165.417
165.476
165.535
165.594
165.653
165.712
165.77
165.828
165.886
165.944
166.001
166.058
166.115
166.171
166.227
166.283
166.338
166.394
166.449
166.503
166.558
166.612
166.666
166.72
166.773
166.827
166.88
166.934
166.987
167.04
167.093
167.147
167.2
167.253
167.307
167.36
167.414
167.468
167.522
167.576
167.631
167.686
167.741
167.796
167.851
167.907
167.962
168.018
168.073
168.129
168.184
168.24
168.295
168.35
168.405
168.459
168.514
168.568
168.622
168.676
168.73
168.783
168.836
168.889
168.942
168.995
169.047
169.099
169.151
169.203
169.254
169.306
169.357
169.408
169.459
169.509
169.56
169.611
169.661
169.711
169.761
169.811
169.861
169.911
169.961
170.011
170.061
170.11
170.16
170.209
170.259
170.308
170.358
170.407
170.457
170.506
170.556
170.605
170.655
170.704
170.754
170.803
170.853
170.903
170.953
171.003
171.055
171.107
171.16
171.214
171.27
171.326
171.383
171.441
171.499
171.559
171.619
171.679
171.74
171.801
171.863
171.924
171.986
172.047
172.108
172.169
172.23
172.29
172.35
172.41
172.469
172.528
172.587
172.645
172.703
172.76
172.817
172.874
172.93
172.985
173.04
173.095
173.149
173.204
173.257
173.311
173.364
173.417
173.47
173.522
173.574
173.626
173.677
173.729
173.78
173.831
173.882
173.932
173.983
174.033
174.083
174.133
174.183
174.232
174.282
174.332
174.382
174.431
174.481
174.53
174.58
174.629
174.68
174.73
174.781
174.833
174.885
174.938
174.991
175.045
175.1
175.156
175.211
175.268
175.324
175.381
175.437
175.494
175.55
175.606
175.662
175.717
175.773
175.828
175.882
175.937
175.991
176.044
176.098
176.151
176.204
176.257
176.31
176.362
176.415
176.467
176.519
176.57
176.622
176.673
176.725
176.776
176.827
176.878
176.929
176.98
177.03
177.081
177.131
177.181
177.231
177.281
177.331
177.38
177.43
177.479
177.528
177.578
177.627
177.677
177.727
177.778
177.829
177.881
177.934
177.988
178.042
178.097
178.153
178.21
178.268
178.326
178.385
178.445
178.504
178.564
178.624
178.683
178.743
178.802
178.861
178.919
178.978
179.036
179.093
179.151
179.208
179.264
179.321
179.376
179.432
179.487
179.541
179.596
179.649
179.703
179.756
179.809
179.861
179.914
179.966
180.018
180.07
180.122
180.174
180.225
180.276
180.327
180.378
180.428
180.478
180.529
180.579
180.629
180.679
180.729
180.778
180.828
180.877
180.927
180.976
181.025
181.075
181.125
181.176
181.228
181.281
181.335
181.39
181.446
181.503
181.56
181.618
181.676
181.735
181.794
181.853
181.912
181.971
182.029
182.087
182.145
182.202
182.259
182.316
182.372
182.427
182.482
182.537
182.591
182.645
182.698
182.751
182.804
182.857
182.909
182.961
183.013
183.065
183.117
183.168
183.22
183.273
183.325
183.377
183.429
183.48
183.532
183.584
183.635
183.687
183.738
183.79
183.842
183.894
183.947
183.999
184.052
184.104
184.157
184.209
184.261
184.312
184.364
184.415
184.466
184.517
184.568
184.618
184.668
184.719
184.769
184.82
184.871
184.923
184.975
185.028
185.081
185.135
185.189
185.245
185.3
185.357
185.413
185.47
185.527
185.584
185.64
185.697
185.753
185.809
185.864
185.919
185.974
186.029
186.083
186.137
186.191
186.245
186.299
186.352
186.406
186.459
186.512
186.566
186.619
186.672
186.726
186.78
186.834
186.888
186.943
186.998
187.053
187.108
187.163
187.218
187.273
187.328
187.382
187.436
187.49
187.544
187.598
187.651
187.705
187.758
187.811
187.863
187.916
187.968
188.021
188.073
188.125
188.177
188.228
188.28
188.332
188.384
188.435
188.487
188.538
188.589
188.639
188.69
188.74
188.791
188.841
188.891
188.941
188.992
189.043
189.095
189.148
189.201
189.255
189.31
189.365
189.421
189.478
189.535
189.592
189.649
189.706
189.762
189.819
189.875
189.931
189.987
190.042
190.098
190.153
190.208
190.263
190.318
190.372
190.427
190.482
190.537
190.591
190.646
190.7
190.755
190.809
190.863
190.916
190.97
191.023
191.076
191.129
191.181
191.233
191.286
191.338
191.389
191.441
191.493
191.544
191.595
191.646
191.697
191.748
191.799
191.85
191.9
191.951
192.002
192.052
192.103
192.153
192.204
192.254
192.304
192.354
192.404
192.454
192.504
192.554
192.605
192.656
192.707
192.758
192.81
192.862
192.915
192.968
193.021
193.075
193.129
193.184
193.239
193.295
193.351
193.407
193.464
193.52
193.576
193.632
193.688
193.744
193.8
193.857
193.913
193.97
194.027
194.084
194.141
194.197
194.253
194.309
194.364
194.418
194.472
194.525
194.578
194.63
194.682
194.734
194.786
194.838
194.89
194.942
194.995
195.048
195.101
195.155
195.21
195.266
195.322
195.378
195.435
195.492
195.549
195.607
195.664
195.721
195.779
195.836
195.893
195.951
196.008
196.064
196.121
196.177
196.233
196.288
196.344
196.399
196.453
196.508
196.562
196.616
196.67
196.724
196.778
196.832
196.886
196.94
196.993
197.047
197.1
197.152
197.205
197.257
197.309
197.361
197.413
197.465
197.516
197.568
197.619
197.669
197.72
197.77
197.819
197.868
197.917
197.966
198.013
198.062
198.108
198.142
198.178
198.218
198.265
198.319
198.381
198.445
198.51
198.573
198.636
198.699
198.764
198.831
198.899
198.97
199.042
199.113
199.179
199.224
199.266
199.301
199.326
199.353
199.389
199.434
199.488
199.558
199.645
199.74
199.837
199.901
199.94
199.978
200.01
200.03
200.053
200.089