/*--------------------------------*- C++ -*----------------------------------*\
  =========                 |
  \\      /  F ield         | OpenFOAM: The Open Source CFD Toolbox
   \\    /   O peration     | Website:  https://openfoam.org
    \\  /    A nd           | Version:  9
     \\/     M anipulation  |
\*---------------------------------------------------------------------------*/
FoamFile
{
    format      ascii;
    class       surfaceScalarField;
    location    "0.026";
    object      phi;
}
// * * * * * * * * * * * * * * * * * * * * * * * * * * * * * * * * * * * * * //

dimensions      [1 0 -1 0 0 0 0];

internalField   nonuniform List<scalar> 
9999
(
2.34739
2.42344
2.4995
2.57555
2.65162
2.72769
2.80379
2.87989
2.956
3.03212
3.10825
3.18441
3.2606
3.33682
3.41307
3.48937
3.5657
3.64206
3.71846
3.79489
3.87135
3.94783
4.02435
4.1009
4.17748
4.25408
4.33072
4.40738
4.48406
4.56077
4.6375
4.71425
4.79103
4.86783
4.94464
5.02148
5.09833
5.17519
5.25208
5.32897
5.40588
5.4828
5.55972
5.63666
5.71361
5.79056
5.86753
5.94449
6.02147
6.09845
6.17543
6.25242
6.32942
6.40642
6.48342
6.56043
6.63745
6.71447
6.79149
6.86853
6.94557
7.02261
7.09967
7.17673
7.25381
7.3309
7.40799
7.4851
7.56223
7.63936
7.71652
7.79369
7.87087
7.94808
8.0253
8.10254
8.17981
8.25709
8.3344
8.41173
8.48908
8.56645
8.64385
8.72127
8.79872
8.87618
8.95368
9.03119
9.10873
9.1863
9.26388
9.34149
9.41912
9.49678
9.57445
9.65215
9.72986
9.80759
9.88534
9.96311
10.0409
10.1187
10.1965
10.2743
10.3522
10.43
10.5079
10.5858
10.6637
10.7416
10.8195
10.8974
10.9753
11.0533
11.1312
11.2092
11.2871
11.3651
11.4431
11.521
11.599
11.677
11.755
11.8331
11.9111
11.9891
12.0672
12.1452
12.2233
12.3014
12.3795
12.4576
12.5357
12.6139
12.692
12.7702
12.8484
12.9266
13.0048
13.0831
13.1614
13.2396
13.318
13.3963
13.4746
13.553
13.6314
13.7098
13.7883
13.8667
13.9452
14.0237
14.1022
14.1808
14.2593
14.3379
14.4165
14.4951
14.5738
14.6524
14.7311
14.8098
14.8885
14.9672
15.0459
15.1246
15.2033
15.2821
15.3608
15.4396
15.5183
15.5971
15.6758
15.7546
15.8333
15.9121
15.9908
16.0696
16.1483
16.2271
16.3058
16.3845
16.4633
16.542
16.6207
16.6994
16.7781
16.8567
16.9354
17.0141
17.0927
17.1713
17.25
17.3286
17.4072
17.4857
17.5643
17.6429
17.7214
17.7999
17.8784
17.9569
18.0354
18.1139
18.1923
18.2708
18.3492
18.4276
18.5059
18.5843
18.6626
18.7409
18.8192
18.8975
18.9757
19.054
19.1322
19.2103
19.2885
19.3666
19.4447
19.5227
19.6007
19.6787
19.7567
19.8346
19.9125
19.9903
20.0681
20.1459
20.2236
20.3013
20.379
20.4566
20.5342
20.6117
20.6892
20.7667
20.8441
20.9215
20.9988
21.0761
21.1534
21.2307
21.3079
21.385
21.4622
21.5393
21.6164
21.6935
21.7705
21.8475
21.9245
22.0015
22.0785
22.1555
22.2324
22.3094
22.3863
22.4633
22.5402
22.6172
22.6941
22.7711
22.8481
22.9251
23.0021
23.0792
23.1562
23.2333
23.3104
23.3876
23.4648
23.542
23.6192
23.6965
23.7738
23.8512
23.9286
24.006
24.0835
24.161
24.2385
24.3161
24.3937
24.4714
24.5491
24.6268
24.7046
24.7824
24.8603
24.9381
25.016
25.094
25.1719
25.2499
25.3279
25.4059
25.4839
25.562
25.64
25.7181
25.7962
25.8743
25.9524
26.0304
26.1085
26.1866
26.2647
26.3428
26.4208
26.4989
26.5769
26.6549
26.733
26.8109
26.8889
26.9669
27.0448
27.1228
27.2007
27.2785
27.3564
27.4342
27.5121
27.5898
27.6676
27.7454
27.8231
27.9008
27.9785
28.0562
28.1339
28.2115
28.2891
28.3667
28.4443
28.5219
28.5995
28.6771
28.7546
28.8321
28.9097
28.9872
29.0647
29.1422
29.2197
29.2972
29.3747
29.4522
29.5296
29.6071
29.6846
29.7621
29.8395
29.917
29.9944
30.0719
30.1493
30.2268
30.3042
30.3816
30.4591
30.5365
30.6139
30.6913
30.7687
30.846
30.9234
31.0008
31.0781
31.1555
31.2328
31.3101
31.3875
31.4648
31.5421
31.6194
31.6966
31.7739
31.8512
31.9284
32.0057
32.0829
32.1602
32.2374
32.3147
32.3919
32.4692
32.5464
32.6237
32.7009
32.7782
32.8554
32.9327
33.01
33.0873
33.1646
33.242
33.3193
33.3967
33.4741
33.5515
33.629
33.7064
33.7839
33.8614
33.939
34.0165
34.0941
34.1717
34.2494
34.327
34.4047
34.4825
34.5602
34.638
34.7158
34.7936
34.8714
34.9493
35.0272
35.1051
35.183
35.2609
35.3388
35.4168
35.4947
35.5726
35.6506
35.7285
35.8064
35.8844
35.9623
36.0402
36.118
36.1959
36.2737
36.3515
36.4293
36.5071
36.5848
36.6625
36.7402
36.8178
36.8954
36.973
37.0505
37.128
37.2055
37.2829
37.3603
37.4376
37.5149
37.5922
37.6695
37.7467
37.8239
37.9011
37.9782
38.0554
38.1325
38.2096
38.2867
38.3637
38.4408
38.5178
38.5949
38.672
38.749
38.8261
38.9031
38.9802
39.0573
39.1344
39.2115
39.2887
39.3659
39.4431
39.5203
39.5976
39.6748
39.7522
39.8295
39.9069
39.9843
40.0618
40.1393
40.2168
40.2944
40.372
40.4496
40.5273
40.605
40.6828
40.7605
40.8383
40.9161
40.9939
41.0718
41.1496
41.2275
41.3054
41.3833
41.4612
41.5391
41.6169
41.6948
41.7727
41.8506
41.9284
42.0062
42.084
42.1618
42.2396
42.3173
42.395
42.4727
42.5503
42.628
42.7055
42.7831
42.8606
42.9381
43.0155
43.0929
43.1703
43.2476
43.325
43.4022
43.4795
43.5567
43.6339
43.7111
43.7882
43.8654
43.9425
44.0196
44.0967
44.1737
44.2508
44.3279
44.4049
44.482
44.5591
44.6362
44.7133
44.7904
44.8675
44.9446
45.0218
45.0989
45.1761
45.2534
45.3306
45.4079
45.4852
45.5626
45.6399
45.7174
45.7948
45.8723
45.9498
46.0273
46.1049
46.1825
46.2601
46.3378
46.4155
46.4932
46.5709
46.6486
46.7264
46.8041
46.8819
46.9597
47.0374
47.1152
47.193
47.2707
47.3485
47.4262
47.504
47.5817
47.6594
47.737
47.8147
47.8923
47.9699
48.0474
48.125
48.2025
48.2799
48.3574
48.4347
48.5121
48.5894
48.6667
48.744
48.8212
48.8984
48.9756
49.0527
49.1298
49.2069
49.2839
49.361
49.438
49.515
49.5919
49.6689
49.7458
49.8228
49.8997
49.9766
50.0536
50.1305
50.2075
50.2844
50.3614
50.4383
50.5153
50.5923
50.6694
50.7464
50.8235
50.9006
50.9777
51.0548
51.132
51.2092
51.2865
51.3637
51.441
51.5184
51.5957
51.6731
51.7505
51.8279
51.9054
51.9828
52.0603
52.1378
52.2153
52.2928
52.3703
52.4478
52.5253
52.6028
52.6803
52.7578
52.8353
52.9127
52.9902
53.0676
53.1449
53.2223
53.2996
53.3768
53.4541
53.5313
53.6084
53.6855
53.7626
53.8396
53.9166
53.9935
54.0704
54.1472
54.224
54.3007
54.3774
54.454
54.5306
54.6072
54.6837
54.7602
54.8366
54.913
54.9894
55.0657
55.1421
55.2183
55.2946
55.3708
55.447
55.5232
55.5994
55.6756
55.7518
55.8279
55.9041
55.9802
56.0564
56.1326
56.2087
56.2849
56.3611
56.4373
56.5135
56.5898
56.666
56.7423
56.8186
56.8949
56.9713
57.0476
57.124
57.2004
57.2768
57.3533
57.4297
57.5062
57.5827
57.6592
57.7356
57.8121
57.8886
57.9651
58.0416
58.1181
58.1946
58.2711
58.3475
58.4239
58.5003
58.5767
58.6531
58.7294
58.8057
58.882
58.9582
59.0344
59.1106
59.1867
59.2628
59.3389
59.4149
59.4909
59.5668
59.6427
59.7186
59.7944
59.8702
59.946
60.0218
60.0975
60.1732
60.2488
60.3245
60.4001
60.4757
60.5513
60.6269
60.7025
60.778
60.8536
60.9292
61.0048
61.0803
61.1559
61.2315
61.3072
61.3828
61.4585
61.5342
61.6099
61.6857
61.7615
61.8374
61.9133
61.9892
62.0652
62.1412
62.2173
62.2935
62.3697
62.4459
62.5222
62.5986
62.675
62.7515
62.828
62.9046
62.9813
63.058
63.1347
63.2115
63.2883
63.3652
63.4421
63.519
63.596
63.673
63.75
63.827
63.9041
63.9811
64.0582
64.1353
64.2123
64.2894
64.3665
64.4435
64.5206
64.5976
64.6746
64.7516
64.8286
64.9056
64.9825
65.0594
65.1363
65.2132
65.29
65.3668
65.4436
65.5204
65.5971
65.6738
65.7505
65.8272
65.9038
65.9805
66.0571
66.1337
66.2102
66.2868
66.3634
66.4399
66.5165
66.593
66.6695
66.7461
66.8226
66.8992
66.9758
67.0524
67.129
67.2056
67.2823
67.3589
67.4356
67.5124
67.5892
67.666
67.7428
67.8197
67.8967
67.9736
68.0507
68.1277
68.2049
68.282
68.3593
68.4365
68.5139
68.5912
68.6686
68.7461
68.8235
68.9011
68.9786
69.0562
69.1338
69.2114
69.2891
69.3668
69.4444
69.5221
69.5998
69.6775
69.7552
69.8328
69.9105
69.9881
70.0657
70.1433
70.2209
70.2984
70.3759
70.4534
70.5308
70.6082
70.6856
70.7629
70.8402
70.9174
70.9946
71.0718
71.1489
71.226
71.303
71.38
71.4569
71.5338
71.6107
71.6875
71.7643
71.8411
71.9178
71.9945
72.0712
72.1479
72.2245
72.3011
72.3777
72.4543
72.5309
72.6075
72.6841
72.7607
72.8373
72.9139
72.9905
73.0672
73.1438
73.2205
73.2972
73.374
73.4508
73.5276
73.6045
73.6814
73.7583
73.8353
73.9124
73.9895
74.0667
74.1439
74.2211
74.2984
74.3758
74.4532
74.5306
74.6081
74.6856
74.7632
74.8408
74.9184
74.9961
75.0738
75.1515
75.2292
75.3069
75.3846
75.4624
75.5401
75.6178
75.6955
75.7732
75.8508
75.9284
76.006
76.0836
76.1611
76.2386
76.3161
76.3935
76.4709
76.5482
76.6255
76.7027
76.7799
76.8571
76.9342
77.0112
77.0882
77.1652
77.2421
77.3189
77.3957
77.4725
77.5492
77.6259
77.7026
77.7792
77.8558
77.9323
78.0089
78.0854
78.1619
78.2383
78.3148
78.3912
78.4677
78.5441
78.6206
78.697
78.7735
78.85
78.9265
79.003
79.0795
79.1561
79.2327
79.3094
79.3861
79.4628
79.5396
79.6164
79.6933
79.7703
79.8473
79.9243
80.0014
80.0786
80.1559
80.2332
80.3105
80.3879
80.4653
80.5428
80.6204
80.698
80.7756
80.8532
80.9309
81.0086
81.0864
81.1641
81.2418
81.3196
81.3973
81.4751
81.5528
81.6305
81.7082
81.7858
81.8635
81.941
82.0186
82.0961
82.1736
82.251
82.3284
82.4058
82.4831
82.5603
82.6375
82.7146
82.7917
82.8687
82.9457
83.0226
83.0995
83.1763
83.2531
83.3298
83.4064
83.4831
83.5596
83.6362
83.7127
83.7891
83.8656
83.9419
84.0183
84.0947
84.171
84.2473
84.3236
84.3999
84.4762
84.5525
84.6288
84.7051
84.7814
84.8577
84.9341
85.0105
85.0869
85.1634
85.2399
85.3164
85.393
85.4697
85.5464
85.6231
85.7
85.7769
85.8538
85.9309
86.0079
86.0851
86.1623
86.2396
86.3169
86.3943
86.4718
86.5493
86.6269
86.7045
86.7821
86.8598
86.9375
87.0152
87.093
87.1707
87.2485
87.3263
87.404
87.4818
87.5595
87.6372
87.7149
87.7926
87.8702
87.9478
88.0253
88.1028
88.1803
88.2577
88.335
88.4123
88.4896
88.5668
88.6439
88.721
88.798
88.8749
88.9518
89.0287
89.1054
89.1821
89.2588
89.3354
89.412
89.4885
89.5649
89.6413
89.7177
89.794
89.8703
89.9465
90.0228
90.099
90.1751
90.2513
90.3274
90.4036
90.4797
90.5558
90.6319
90.7081
90.7842
90.8604
90.9366
91.0128
91.0891
91.1654
91.2417
91.3181
91.3946
91.4711
91.5477
91.6243
91.701
91.7778
91.8547
91.9316
92.0086
92.0856
92.1628
92.24
92.3173
92.3946
92.472
92.5495
92.627
92.7046
92.7822
92.8599
92.9376
93.0153
93.0931
93.1709
93.2486
93.3264
93.4042
93.482
93.5597
93.6375
93.7152
93.7929
93.8705
93.9481
94.0257
94.1032
94.1807
94.2581
94.3355
94.4128
94.49
94.5672
94.6443
94.7214
94.7984
94.8753
94.9522
95.029
95.1057
95.1824
95.259
95.3356
95.412
95.4885
95.5648
95.6411
95.7174
95.7936
95.8698
95.9459
96.022
96.0981
96.1741
96.2501
96.3261
96.4021
96.4781
96.554
96.63
96.7059
96.7819
96.8579
96.9339
97.0099
97.0859
97.162
97.2382
97.3143
97.3906
97.4669
97.5432
97.6197
97.6962
97.7728
97.8494
97.9261
98.0029
98.0798
98.1568
98.2339
98.311
98.3882
98.4655
98.5429
98.6203
98.6978
98.7753
98.853
98.9306
99.0083
99.086
99.1638
99.2416
99.3194
99.3972
99.475
99.5528
99.6306
99.7083
99.7861
99.8638
99.9415
100.019
100.097
100.174
100.252
100.329
100.407
100.484
100.561
100.638
100.715
100.792
100.869
100.946
101.023
101.1
101.177
101.253
101.33
101.406
101.483
101.559
101.635
101.712
101.788
101.864
101.94
102.016
102.092
102.168
102.244
102.32
102.395
102.471
102.547
102.623
102.699
102.774
102.85
102.926
103.002
103.077
103.153
103.229
103.305
103.381
103.457
103.533
103.609
103.685
103.762
103.838
103.914
103.991
104.067
104.144
104.221
104.298
104.375
104.452
104.529
104.606
104.683
104.761
104.838
104.916
104.993
105.071
105.149
105.226
105.304
105.382
105.46
105.538
105.615
105.693
105.771
105.849
105.927
106.004
106.082
106.16
106.237
106.315
106.392
106.47
106.547
106.625
106.702
106.779
106.856
106.933
107.01
107.087
107.164
107.241
107.318
107.394
107.471
107.547
107.624
107.7
107.776
107.852
107.928
108.004
108.08
108.156
108.232
108.308
108.384
108.459
108.535
108.611
108.686
108.762
108.837
108.913
108.989
109.064
109.14
109.215
109.291
109.366
109.442
109.518
109.593
109.669
109.745
109.821
109.897
109.973
110.049
110.125
110.202
110.278
110.355
110.431
110.508
110.585
110.662
110.739
110.816
110.893
110.97
111.047
111.125
111.202
111.28
111.358
111.435
111.513
111.591
111.669
111.747
111.824
111.902
111.98
112.058
112.136
112.214
112.291
112.369
112.447
112.524
112.602
112.68
112.757
112.834
112.912
112.989
113.066
113.143
113.221
113.298
113.374
113.451
113.528
113.605
113.681
113.758
113.834
113.91
113.987
114.063
114.139
114.215
114.291
114.366
114.442
114.518
114.594
114.669
114.745
114.82
114.896
114.971
115.046
115.122
115.197
115.272
115.348
115.423
115.498
115.574
115.649
115.724
115.8
115.875
115.951
116.026
116.102
116.178
116.253
116.329
116.405
116.481
116.557
116.633
116.71
116.786
116.863
116.939
117.016
117.093
117.17
117.247
117.324
117.402
117.479
117.556
117.634
117.711
117.789
117.867
117.945
118.022
118.1
118.178
118.256
118.334
118.412
118.49
118.568
118.645
118.723
118.801
118.879
118.956
119.034
119.111
119.189
119.266
119.344
119.421
119.498
119.575
119.652
119.729
119.806
119.883
119.959
120.036
120.113
120.189
120.265
120.341
120.418
120.494
120.57
120.645
120.721
120.797
120.872
120.948
121.024
121.099
121.174
121.25
121.325
121.4
121.475
121.55
121.626
121.701
121.776
121.851
121.926
122.001
122.076
122.151
122.226
122.302
122.377
122.452
122.527
122.603
122.678
122.754
122.83
122.905
122.981
123.057
123.133
123.209
123.286
123.362
123.439
123.515
123.592
123.669
123.746
123.823
123.9
123.978
124.055
124.133
124.21
124.288
124.366
124.443
124.521
124.599
124.677
124.755
124.833
124.91
124.988
125.066
125.144
125.222
125.3
125.377
125.455
125.533
125.61
125.688
125.765
125.843
125.92
125.997
126.074
126.151
126.228
126.305
126.382
126.458
126.535
126.611
126.688
126.764
126.84
126.916
126.992
127.068
127.144
127.219
127.295
127.37
127.446
127.521
127.596
127.672
127.747
127.822
127.897
127.972
128.047
128.122
128.196
128.271
128.346
128.421
128.496
128.571
128.645
128.72
128.795
128.87
128.945
129.02
129.095
129.17
129.245
129.321
129.396
129.472
129.547
129.623
129.699
129.775
129.851
129.927
130.004
130.08
130.157
130.233
130.31
130.387
130.464
130.541
130.619
130.696
130.774
130.851
130.929
131.007
131.084
131.162
131.24
131.318
131.396
131.474
131.552
131.63
131.708
131.785
131.863
131.941
132.019
132.097
132.174
132.252
132.329
132.407
132.484
132.561
132.639
132.716
132.793
132.87
132.947
133.023
133.1
133.177
133.253
133.329
133.406
133.482
133.558
133.634
133.709
133.785
133.861
133.936
134.011
134.087
134.162
134.237
134.312
134.387
134.462
134.537
134.611
134.686
134.761
134.835
134.91
134.985
135.059
135.134
135.208
135.283
135.357
135.432
135.506
135.581
135.656
135.73
135.805
135.88
135.955
136.03
136.105
136.18
136.256
136.331
136.407
136.483
136.558
136.634
136.711
136.787
136.863
136.94
137.017
137.093
137.17
137.247
137.324
137.402
137.479
137.557
137.634
137.712
137.789
137.867
137.945
138.023
138.101
138.179
138.256
138.334
138.412
138.49
138.568
138.646
138.724
138.801
138.879
138.957
139.034
139.112
139.189
139.267
139.344
139.421
139.498
139.575
139.652
139.729
139.806
139.882
139.959
140.035
140.111
140.187
140.263
140.339
140.415
140.491
140.566
140.642
140.717
140.792
140.867
140.942
141.017
141.092
141.167
141.242
141.316
141.391
141.465
141.54
141.614
141.688
141.763
141.837
141.911
141.986
142.06
142.134
142.208
142.283
142.357
142.431
142.506
142.58
142.655
142.73
142.804
142.879
142.954
143.029
143.104
143.18
143.255
143.331
143.406
143.482
143.558
143.634
143.711
143.787
143.864
143.94
144.017
144.094
144.171
144.248
144.326
144.403
144.481
144.558
144.636
144.714
144.791
144.869
144.947
145.025
145.103
145.181
145.259
145.337
145.415
145.492
145.57
145.648
145.726
145.803
145.881
145.959
146.036
146.114
146.191
146.268
146.345
146.422
146.499
146.576
146.653
146.729
146.806
146.882
146.959
147.035
147.111
147.187
147.262
147.338
147.414
147.489
147.564
147.639
147.714
147.789
147.864
147.939
148.014
148.088
148.163
148.237
148.311
148.385
148.459
148.534
148.608
148.682
148.756
148.83
148.903
148.977
149.051
149.125
149.199
149.273
149.347
149.421
149.495
149.569
149.643
149.718
149.792
149.867
149.941
150.016
150.091
150.166
150.241
150.316
150.392
150.467
150.543
150.619
150.695
150.771
150.847
150.924
151
151.077
151.154
151.231
151.308
151.386
151.463
151.54
151.618
151.696
151.773
151.851
151.929
152.007
152.085
152.163
152.241
152.319
152.397
152.474
152.552
152.63
152.708
152.786
152.864
152.941
153.019
153.097
153.174
153.252
153.329
153.406
153.483
153.56
153.637
153.714
153.791
153.867
153.944
154.02
154.096
154.172
154.248
154.324
154.4
154.475
154.551
154.626
154.701
154.776
154.851
154.926
155
155.075
155.149
155.223
155.298
155.372
155.446
155.52
155.594
155.667
155.741
155.815
155.888
155.962
156.036
156.109
156.183
156.256
156.33
156.403
156.477
156.55
156.624
156.698
156.772
156.845
156.919
156.993
157.068
157.142
157.216
157.291
157.365
157.44
157.515
157.59
157.666
157.741
157.817
157.893
157.969
158.045
158.121
158.197
158.274
158.351
158.428
158.504
158.582
158.659
158.736
158.814
158.891
158.969
159.046
159.124
159.202
159.28
159.358
159.436
159.514
159.592
159.67
159.747
159.825
159.903
159.981
160.059
160.137
160.214
160.292
160.37
160.447
160.525
160.602
160.679
160.756
160.833
160.91
160.987
161.064
161.14
161.217
161.293
161.369
161.445
161.521
161.597
161.672
161.748
161.823
161.898
161.973
162.048
162.123
162.198
162.272
162.346
162.421
162.495
162.569
162.643
162.717
162.79
162.864
162.937
163.011
163.084
163.158
163.231
163.304
163.378
163.451
163.524
163.597
163.67
163.744
163.817
163.89
163.963
164.037
164.11
164.184
164.257
164.331
164.405
164.479
164.553
164.627
164.701
164.776
164.85
164.925
165
165.075
165.151
165.226
165.302
165.378
165.454
165.53
165.606
165.683
165.759
165.836
165.913
165.99
166.067
166.144
166.222
166.299
166.377
166.454
166.532
166.61
166.688
166.765
166.843
166.921
166.999
167.077
167.155
167.233
167.311
167.389
167.467
167.544
167.622
167.7
167.777
167.855
167.932
168.01
168.087
168.164
168.241
168.318
168.395
168.471
168.548
168.624
168.701
168.777
168.853
168.929
169.005
169.08
169.156
169.231
169.306
169.381
169.456
169.53
169.605
169.679
169.754
169.828
169.902
169.976
170.049
170.123
170.196
170.27
170.343
170.416
170.49
170.563
170.636
170.709
170.782
170.854
170.927
171
171.073
171.146
171.219
171.291
171.364
171.437
171.51
171.583
171.656
171.729
171.803
171.876
171.949
172.023
172.097
172.171
172.245
172.319
172.393
172.468
172.542
172.617
172.692
172.768
172.843
172.919
172.994
173.07
173.146
173.223
173.299
173.376
173.452
173.529
173.606
173.683
173.761
173.838
173.915
173.993
174.07
174.148
174.226
174.304
174.381
174.459
174.537
174.615
174.693
174.771
174.849
174.927
175.005
175.083
175.16
175.238
175.316
175.393
175.471
175.548
175.626
175.703
175.78
175.857
175.934
176.011
176.088
176.164
176.241
176.317
176.393
176.469
176.545
176.621
176.696
176.771
176.847
176.922
176.997
177.071
177.146
177.22
177.295
177.369
177.443
177.517
177.59
177.664
177.737
177.811
177.884
177.957
178.03
178.103
178.176
178.248
178.321
178.394
178.466
178.539
178.611
178.684
178.756
178.829
178.901
178.974
179.046
179.119
179.192
179.264
179.337
179.409
179.482
179.555
179.628
179.701
179.774
179.847
179.921
179.995
180.068
180.142
180.217
180.291
180.366
180.441
180.516
180.591
180.666
180.742
180.817
180.893
180.969
181.045
181.122
181.198
181.275
181.352
181.429
181.506
181.583
181.66
181.737
181.815
181.892
181.97
182.048
182.125
182.203
182.281
182.359
182.437
182.515
182.592
182.67
182.748
182.826
182.904
182.982
183.059
183.137
183.215
183.292
183.369
183.447
183.524
183.601
183.678
183.755
183.832
183.909
183.985
184.061
184.138
184.214
184.29
184.366
184.441
184.517
184.592
184.667
184.742
184.817
184.892
184.966
185.04
185.115
185.189
185.263
185.336
185.41
185.483
185.557
185.63
185.703
185.776
185.848
185.921
185.994
186.066
186.139
186.211
186.283
186.356
186.428
186.5
186.573
186.645
186.717
186.789
186.861
186.934
187.006
187.078
187.15
187.223
187.295
187.367
187.44
187.512
187.585
187.657
187.73
187.803
187.876
187.949
188.022
188.096
188.17
188.244
188.318
188.392
188.467
188.542
188.617
188.692
188.767
188.843
188.919
188.994
189.07
189.147
189.223
189.299
189.376
189.453
189.53
189.607
189.684
189.761
189.838
189.915
189.993
190.07
190.148
190.226
190.303
190.381
190.459
190.537
190.614
190.692
190.77
190.848
190.925
191.003
191.081
191.159
191.236
191.314
191.391
191.468
191.546
191.623
191.7
191.777
191.854
191.931
192.007
192.084
192.16
192.236
192.313
192.389
192.464
192.54
192.615
192.691
192.766
192.841
192.916
192.99
193.065
193.139
193.213
193.287
193.361
193.435
193.508
193.582
193.655
193.728
193.801
193.873
193.946
194.019
194.091
194.163
194.236
194.308
194.38
194.452
194.524
194.596
194.668
194.74
194.812
194.884
194.956
195.028
195.099
195.171
195.243
195.315
195.387
195.459
195.531
195.603
195.675
195.747
195.819
195.891
195.963
196.035
196.107
196.18
196.252
196.325
196.398
196.471
196.544
196.618
196.692
196.766
196.84
196.914
196.989
197.064
197.139
197.214
197.289
197.365
197.44
197.516
197.592
197.669
197.745
197.821
197.898
197.975
198.052
198.129
198.206
198.283
198.36
198.438
198.515
198.593
198.67
198.748
198.826
198.904
198.981
199.059
199.137
199.215
199.293
199.371
199.449
199.527
199.605
199.682
199.76
199.838
199.915
199.993
200.07
200.148
200.225
200.302
200.379
200.456
200.533
200.609
200.686
200.762
200.838
200.914
200.989
201.065
201.14
201.215
201.29
201.365
201.439
201.514
201.588
201.662
201.735
201.809
201.882
201.955
202.028
202.101
202.174
202.246
202.319
202.391
202.463
202.535
202.607
202.679
202.75
202.822
202.894
202.966
203.037
203.109
203.181
203.252
203.324
203.395
203.467
203.538
203.609
203.681
203.752
203.824
203.895
203.966
204.038
204.109
204.181
204.252
204.324
204.396
204.467
204.539
204.611
204.683
204.755
204.826
204.898
204.97
205.043
205.115
205.188
205.261
205.335
205.408
205.482
205.556
205.631
205.706
205.781
205.856
205.932
206.007
206.083
206.16
206.236
206.313
206.39
206.467
206.544
206.622
206.699
206.777
206.855
206.932
207.011
207.089
207.167
207.245
207.323
207.402
207.48
207.558
207.637
207.715
207.793
207.871
207.949
208.027
208.104
208.182
208.259
208.337
208.414
208.491
208.568
208.644
208.721
208.797
208.873
208.949
209.025
209.1
209.175
209.25
209.325
209.4
209.474
209.548
209.622
209.696
209.769
209.843
209.916
209.989
210.062
210.134
210.207
210.279
210.351
210.423
210.495
210.567
210.639
210.71
210.782
210.853
210.925
210.997
211.068
211.14
211.211
211.282
211.354
211.425
211.497
211.568
211.639
211.711
211.782
211.853
211.925
211.996
212.068
212.139
212.211
212.283
212.354
212.426
212.498
212.569
212.641
212.714
212.786
212.859
212.932
213.006
213.079
213.153
213.228
213.302
213.377
213.452
213.528
213.604
213.68
213.756
213.832
213.909
213.986
214.063
214.14
214.217
214.294
214.372
214.449
214.527
214.604
214.682
214.759
214.837
214.914
214.991
215.069
215.146
215.223
215.3
215.376
215.453
215.53
215.606
215.682
215.758
215.834
215.91
215.985
216.061
216.136
216.211
216.286
216.36
216.435
216.509
216.583
216.657
216.73
216.804
216.877
216.95
217.023
217.096
217.168
217.241
217.313
217.385
217.457
217.529
217.601
217.673
217.744
217.816
217.887
217.959
218.03
218.102
218.173
218.244
218.316
218.387
218.458
218.53
218.601
218.672
218.743
218.815
218.886
218.957
219.029
219.1
219.172
219.243
219.314
219.386
219.458
219.53
219.602
219.675
219.748
219.821
219.895
219.968
220.042
220.117
220.191
220.266
220.342
220.417
220.492
220.568
220.644
220.72
220.796
220.873
220.949
221.026
221.102
221.179
221.256
221.333
221.41
221.487
221.564
221.641
221.718
221.795
221.872
221.949
222.026
222.104
222.181
222.257
222.334
222.411
222.488
222.564
222.641
222.717
222.793
222.869
222.945
223.021
223.096
223.172
223.247
223.322
223.397
223.471
223.546
223.62
223.694
223.768
223.841
223.915
223.988
224.061
224.133
224.206
224.278
224.351
224.423
224.495
224.567
224.638
224.71
224.781
224.852
224.924
224.995
225.066
225.137
225.208
225.279
225.35
225.422
225.493
225.563
225.634
225.705
225.776
225.847
225.918
225.989
226.06
226.13
226.201
226.272
226.343
226.414
226.485
226.556
226.627
226.698
226.77
226.841
226.912
226.983
227.054
227.126
227.198
227.27
227.342
227.415
227.488
227.562
227.636
227.71
227.785
227.859
227.935
228.01
228.086
228.161
228.237
228.314
228.39
228.466
228.542
228.619
228.695
228.772
228.848
228.925
229.001
229.078
229.154
229.231
229.307
229.384
229.461
229.537
229.614
229.691
229.768
229.845
229.922
229.999
230.076
230.153
230.23
230.307
230.384
230.461
230.537
230.614
230.69
230.766
230.842
230.918
230.993
231.068
231.143
231.218
231.293
231.367
231.442
231.515
231.589
231.663
231.736
231.809
231.882
231.954
232.026
232.099
232.171
232.242
232.314
232.386
232.457
232.528
232.599
232.67
232.741
232.812
232.883
232.954
233.025
233.096
233.167
233.237
233.308
233.379
233.449
233.52
233.591
233.661
233.732
233.802
233.873
233.944
234.014
234.085
234.155
234.226
234.297
234.367
234.438
234.509
234.58
234.65
234.721
234.792
234.863
234.934
235.005
235.076
235.147
235.219
235.291
235.364
235.437
235.511
235.585
235.66
235.735
235.811
235.887
235.964
236.041
236.118
236.195
236.272
236.349
236.426
236.503
236.58
236.656
236.733
236.809
236.885
236.961
237.037
237.112
237.187
237.263
237.337
237.412
237.487
237.561
237.635
237.709
237.783
237.856
237.93
238.003
238.077
238.15
238.223
238.296
238.369
238.442
238.516
238.589
238.662
238.735
238.808
238.881
238.955
239.028
239.102
239.176
239.25
239.324
239.399
239.473
239.547
239.622
239.697
239.771
239.846
239.92
239.994
240.069
240.143
240.217
240.291
240.365
240.439
240.512
240.586
240.659
240.732
240.805
240.878
240.951
241.024
241.096
241.169
241.241
241.313
241.385
241.457
241.528
241.6
241.671
241.743
241.814
241.885
241.957
242.028
242.099
242.17
242.241
242.312
242.382
242.453
242.524
242.595
242.665
242.736
242.806
242.877
242.948
243.018
243.089
243.159
243.23
243.301
243.371
243.442
243.512
243.583
243.654
243.724
243.795
243.866
243.938
244.01
244.082
244.155
244.229
244.303
244.378
244.454
244.53
244.606
244.683
244.761
244.838
244.916
244.994
245.072
245.15
245.228
245.306
245.384
245.461
245.539
245.616
245.693
245.77
245.846
245.922
245.998
246.074
246.15
246.225
246.3
246.374
246.449
246.523
246.597
246.67
246.744
246.817
246.89
246.963
247.035
247.108
247.18
247.252
247.324
247.396
247.467
247.539
247.61
247.682
247.753
247.824
247.895
247.966
248.037
248.107
248.178
248.249
248.319
248.39
248.46
248.53
248.601
248.671
248.742
248.812
248.883
248.954
249.026
249.098
249.17
249.243
249.316
249.389
249.463
249.537
249.612
249.686
249.761
249.836
249.91
249.985
250.059
250.133
250.208
250.282
250.355
250.429
250.503
250.576
250.649
250.722
250.795
250.867
250.94
251.012
251.084
251.156
251.228
251.3
251.372
251.443
251.515
251.587
251.658
251.73
251.801
251.872
251.943
252.014
252.085
252.156
252.227
252.297
252.368
252.438
252.509
252.579
252.65
252.72
252.79
252.861
252.931
253.002
253.072
253.143
253.215
253.287
253.359
253.432
253.506
253.58
253.654
253.729
253.805
253.881
253.957
254.033
254.109
254.185
254.262
254.338
254.414
254.49
254.566
254.642
254.717
254.792
254.867
254.942
255.017
255.091
255.165
255.239
255.312
255.385
255.458
255.531
255.604
255.676
255.749
255.821
255.893
255.965
256.037
256.108
256.18
256.252
256.323
256.394
256.465
256.536
256.607
256.678
256.749
256.82
256.89
256.961
257.031
257.101
257.171
257.242
257.312
257.382
257.452
257.523
257.593
257.664
257.736
257.807
257.88
257.953
258.026
258.1
258.174
258.249
258.324
258.4
258.476
258.551
258.627
258.703
258.778
258.853
258.928
259.003
259.078
259.152
259.226
259.3
259.373
259.447
259.52
259.592
259.665
259.737
259.809
259.881
259.952
260.024
260.096
260.167
260.239
260.31
260.382
260.453
260.525
260.596
260.667
260.739
260.81
260.882
260.953
261.024
261.096
261.167
261.239
261.311
261.382
261.454
261.526
261.598
261.67
261.741
261.813
261.884
261.955
262.026
262.097
262.168
262.239
262.31
262.38
262.451
262.522
262.592
262.663
262.734
262.805
262.877
262.949
263.021
263.094
263.167
263.241
263.315
263.389
263.463
263.537
263.611
263.685
263.759
263.833
263.907
263.98
264.053
264.127
264.2
264.273
264.345
264.418
264.49
264.563
264.635
264.707
264.779
264.851
264.923
264.995
265.067
265.139
265.211
265.284
265.356
265.429
265.502
265.575
265.648
265.721
265.794
265.867
265.941
266.013
266.086
266.159
266.232
266.304
266.376
266.448
266.52
266.592
266.663
266.735
266.806
266.878
266.949
267.02
267.092
267.163
267.235
267.306
267.377
267.448
267.519
267.59
267.661
267.732
267.802
267.873
267.943
268.013
268.084
268.154
268.224
268.295
268.366
268.437
268.509
268.581
268.654
268.727
268.8
268.873
268.947
269.021
269.095
269.169
269.243
269.317
269.39
269.464
269.537
269.611
269.684
269.757
269.83
269.903
269.976
270.048
270.121
270.194
270.266
270.339
270.411
270.483
270.556
270.628
270.7
270.772
270.844
270.916
270.988
271.06
271.132
271.203
271.275
271.346
271.417
271.488
271.559
271.63
271.7
271.771
271.841
271.912
271.983
272.053
272.123
272.194
272.264
272.334
272.405
272.475
272.545
272.615
272.685
272.755
272.826
272.896
272.966
273.036
273.107
273.177
273.248
273.319
273.39
273.461
273.532
273.604
273.676
273.747
273.82
273.892
273.965
274.038
274.111
274.184
274.257
274.33
274.404
274.477
274.55
274.623
274.696
274.769
274.843
274.916
274.99
275.064
275.137
275.211
275.284
275.357
275.43
275.502
275.574
275.646
275.718
275.789
275.86
275.931
276.002
276.073
276.144
276.214
276.285
276.356
276.428
276.499
276.571
276.644
276.716
276.789
276.863
276.936
277.01
277.084
277.157
277.231
277.305
277.38
277.454
277.528
277.601
277.675
277.748
277.822
277.894
277.967
278.039
278.111
278.183
278.254
278.325
278.396
278.466
278.537
278.607
278.677
278.748
278.818
278.888
278.958
279.028
279.098
279.168
279.238
279.307
279.377
279.447
279.516
279.586
279.655
279.725
279.795
279.864
279.934
280.005
280.075
280.145
280.216
280.287
280.358
280.429
280.501
280.576
280.65
280.722
280.795
280.866
280.937
281.008
281.08
281.152
281.225
281.297
281.369
281.441
281.514
281.586
281.657
281.729
281.801
281.875
281.949
282.024
282.1
282.174
282.248
282.321
282.393
282.464
282.532
282.6
282.669
282.742
282.815
282.888