/*--------------------------------*- C++ -*----------------------------------*\
  =========                 |
  \\      /  F ield         | OpenFOAM: The Open Source CFD Toolbox
   \\    /   O peration     | Website:  https://openfoam.org
    \\  /    A nd           | Version:  9
     \\/     M anipulation  |
\*---------------------------------------------------------------------------*/
FoamFile
{
    format      ascii;
    class       volScalarField;
    location    "0.026";
    object      T;
}
// * * * * * * * * * * * * * * * * * * * * * * * * * * * * * * * * * * * * * //

dimensions      [0 0 0 1 0 0 0];

internalField   nonuniform List<scalar> 
10000
(
232.794
232.797
232.802
232.807
232.812
232.817
232.822
232.826
232.831
232.836
232.842
232.847
232.852
232.857
232.86
232.862
232.864
232.865
232.865
232.865
232.866
232.866
232.865
232.865
232.865
232.865
232.865
232.864
232.864
232.864
232.864
232.863
232.863
232.863
232.863
232.862
232.862
232.862
232.862
232.862
232.861
232.861
232.861
232.861
232.86
232.86
232.86
232.86
232.86
232.86
232.859
232.859
232.859
232.859
232.859
232.858
232.858
232.858
232.858
232.858
232.858
232.858
232.857
232.857
232.857
232.857
232.857
232.857
232.857
232.856
232.856
232.856
232.856
232.856
232.856
232.856
232.856
232.855
232.855
232.855
232.855
232.855
232.855
232.855
232.854
232.854
232.854
232.854
232.854
232.854
232.854
232.853
232.853
232.853
232.853
232.853
232.853
232.853
232.853
232.852
232.852
232.852
232.852
232.852
232.852
232.852
232.852
232.851
232.851
232.851
232.851
232.851
232.851
232.851
232.851
232.851
232.851
232.851
232.85
232.85
232.85
232.85
232.85
232.85
232.85
232.85
232.85
232.85
232.85
232.85
232.85
232.85
232.85
232.85
232.85
232.85
232.85
232.85
232.85
232.85
232.85
232.85
232.85
232.85
232.85
232.85
232.85
232.85
232.85
232.85
232.85
232.85
232.85
232.85
232.85
232.85
232.85
232.85
232.85
232.85
232.85
232.85
232.85
232.85
232.85
232.85
232.85
232.85
232.85
232.85
232.85
232.85
232.85
232.85
232.85
232.85
232.85
232.85
232.85
232.85
232.85
232.85
232.85
232.85
232.851
232.851
232.851
232.851
232.851
232.851
232.851
232.851
232.851
232.851
232.851
232.851
232.851
232.851
232.851
232.851
232.851
232.851
232.851
232.851
232.851
232.851
232.851
232.851
232.851
232.851
232.851
232.851
232.851
232.851
232.851
232.851
232.851
232.851
232.851
232.851
232.85
232.85
232.85
232.85
232.85
232.85
232.849
232.849
232.849
232.849
232.849
232.848
232.848
232.848
232.848
232.847
232.847
232.847
232.847
232.846
232.846
232.846
232.845
232.845
232.845
232.845
232.844
232.844
232.844
232.843
232.843
232.843
232.843
232.842
232.842
232.842
232.841
232.841
232.841
232.841
232.84
232.84
232.84
232.839
232.839
232.839
232.839
232.838
232.838
232.838
232.838
232.837
232.837
232.837
232.836
232.836
232.836
232.836
232.835
232.835
232.835
232.835
232.834
232.834
232.834
232.834
232.833
232.833
232.833
232.833
232.832
232.832
232.832
232.832
232.831
232.831
232.831
232.831
232.83
232.83
232.83
232.83
232.83
232.829
232.829
232.829
232.829
232.829
232.829
232.828
232.828
232.828
232.828
232.828
232.828
232.827
232.827
232.827
232.827
232.827
232.827
232.827
232.827
232.826
232.826
232.826
232.826
232.826
232.826
232.826
232.825
232.825
232.825
232.825
232.825
232.825
232.824
232.824
232.824
232.824
232.824
232.823
232.823
232.823
232.823
232.822
232.822
232.822
232.822
232.821
232.821
232.821
232.82
232.82
232.82
232.819
232.819
232.819
232.818
232.818
232.818
232.817
232.817
232.816
232.816
232.816
232.815
232.815
232.814
232.814
232.814
232.813
232.813
232.813
232.812
232.812
232.811
232.811
232.811
232.81
232.81
232.81
232.809
232.809
232.809
232.808
232.808
232.808
232.808
232.807
232.807
232.807
232.806
232.806
232.806
232.806
232.805
232.805
232.805
232.805
232.804
232.804
232.804
232.804
232.804
232.803
232.803
232.803
232.803
232.802
232.802
232.802
232.802
232.802
232.801
232.801
232.801
232.801
232.8
232.8
232.8
232.799
232.799
232.799
232.799
232.798
232.798
232.798
232.797
232.797
232.797
232.796
232.796
232.796
232.795
232.795
232.795
232.794
232.794
232.794
232.793
232.793
232.793
232.792
232.792
232.792
232.791
232.791
232.791
232.79
232.79
232.79
232.789
232.789
232.789
232.788
232.788
232.788
232.787
232.787
232.787
232.786
232.786
232.786
232.785
232.785
232.785
232.785
232.784
232.784
232.784
232.783
232.783
232.783
232.782
232.782
232.782
232.782
232.781
232.781
232.781
232.78
232.78
232.78
232.779
232.779
232.779
232.778
232.778
232.778
232.777
232.777
232.777
232.776
232.776
232.775
232.775
232.775
232.774
232.774
232.774
232.773
232.773
232.772
232.772
232.772
232.771
232.771
232.771
232.77
232.77
232.769
232.769
232.769
232.768
232.768
232.768
232.767
232.767
232.767
232.766
232.766
232.766
232.765
232.765
232.765
232.764
232.764
232.764
232.763
232.763
232.763
232.762
232.762
232.762
232.762
232.761
232.761
232.761
232.76
232.76
232.76
232.759
232.759
232.759
232.759
232.758
232.758
232.758
232.757
232.757
232.757
232.756
232.756
232.756
232.755
232.755
232.754
232.754
232.754
232.753
232.753
232.753
232.752
232.752
232.751
232.751
232.75
232.75
232.75
232.749
232.749
232.748
232.748
232.747
232.747
232.747
232.746
232.746
232.745
232.745
232.744
232.744
232.744
232.743
232.743
232.742
232.742
232.741
232.741
232.741
232.74
232.74
232.74
232.739
232.739
232.738
232.738
232.738
232.737
232.737
232.737
232.736
232.736
232.736
232.735
232.735
232.735
232.734
232.734
232.734
232.733
232.733
232.733
232.732
232.732
232.732
232.731
232.731
232.731
232.73
232.73
232.73
232.729
232.729
232.728
232.728
232.728
232.727
232.727
232.726
232.726
232.726
232.725
232.725
232.724
232.724
232.723
232.723
232.722
232.722
232.721
232.721
232.72
232.72
232.719
232.719
232.718
232.718
232.717
232.717
232.716
232.716
232.715
232.714
232.714
232.713
232.713
232.712
232.712
232.711
232.711
232.71
232.71
232.709
232.709
232.708
232.708
232.707
232.707
232.706
232.706
232.706
232.705
232.705
232.704
232.704
232.703
232.703
232.702
232.702
232.701
232.701
232.701
232.7
232.7
232.699
232.699
232.698
232.698
232.697
232.697
232.696
232.696
232.695
232.695
232.694
232.694
232.693
232.693
232.692
232.691
232.691
232.69
232.69
232.689
232.688
232.688
232.687
232.686
232.686
232.685
232.684
232.684
232.683
232.682
232.682
232.681
232.68
232.679
232.679
232.678
232.677
232.676
232.676
232.675
232.674
232.673
232.673
232.672
232.671
232.67
232.67
232.669
232.668
232.667
232.667
232.666
232.665
232.665
232.664
232.663
232.663
232.662
232.661
232.661
232.66
232.659
232.659
232.658
232.657
232.657
232.656
232.656
232.655
232.655
232.654
232.653
232.653
232.652
232.652
232.651
232.651
232.65
232.649
232.649
232.648
232.648
232.647
232.647
232.646
232.645
232.645
232.644
232.644
232.643
232.642
232.642
232.641
232.641
232.64
232.639
232.639
232.638
232.637
232.637
232.636
232.635
232.635
232.634
232.633
232.633
232.632
232.631
232.63
232.63
232.629
232.628
232.628
232.627
232.626
232.626
232.625
232.624
232.624
232.623
232.623
232.622
232.621
232.621
232.62
232.62
232.619
232.619
232.618
232.618
232.617
232.617
232.616
232.616
232.615
232.615
232.614
232.614
232.613
232.613
232.613
232.612
232.612
232.611
232.611
232.611
232.61
232.61
232.609
232.609
232.609
232.608
232.608
232.608
232.607
232.607
232.606
232.606
232.606
232.605
232.605
232.604
232.604
232.603
232.603
232.603
232.602
232.602
232.601
232.601
232.6
232.6
232.599
232.598
232.598
232.597
232.597
232.596
232.596
232.595
232.594
232.594
232.593
232.593
232.592
232.591
232.591
232.59
232.59
232.589
232.588
232.588
232.587
232.587
232.586
232.585
232.585
232.584
232.584
232.583
232.583
232.582
232.582
232.581
232.581
232.58
232.58
232.579
232.579
232.579
232.578
232.578
232.577
232.577
232.577
232.576
232.576
232.575
232.575
232.575
232.574
232.574
232.574
232.573
232.573
232.573
232.572
232.572
232.572
232.571
232.571
232.571
232.57
232.57
232.569
232.569
232.569
232.568
232.568
232.567
232.567
232.566
232.566
232.565
232.565
232.564
232.564
232.563
232.563
232.562
232.561
232.561
232.56
232.56
232.559
232.558
232.558
232.557
232.556
232.556
232.555
232.554
232.554
232.553
232.552
232.552
232.551
232.551
232.55
232.549
232.549
232.548
232.548
232.547
232.546
232.546
232.545
232.545
232.544
232.544
232.543
232.543
232.542
232.542
232.541
232.541
232.54
232.54
232.54
232.539
232.539
232.538
232.538
232.538
232.537
232.537
232.537
232.536
232.536
232.536
232.535
232.535
232.535
232.534
232.534
232.533
232.533
232.533
232.532
232.532
232.532
232.531
232.531
232.53
232.53
232.529
232.529
232.528
232.528
232.527
232.527
232.526
232.526
232.525
232.524
232.524
232.523
232.523
232.522
232.521
232.521
232.52
232.519
232.519
232.518
232.517
232.516
232.516
232.515
232.514
232.514
232.513
232.512
232.512
232.511
232.51
232.51
232.509
232.508
232.508
232.507
232.507
232.506
232.505
232.505
232.504
232.504
232.503
232.503
232.502
232.502
232.501
232.501
232.5
232.5
232.499
232.499
232.499
232.498
232.498
232.497
232.497
232.497
232.496
232.496
232.496
232.495
232.495
232.495
232.494
232.494
232.494
232.493
232.493
232.492
232.492
232.492
232.491
232.491
232.49
232.49
232.49
232.489
232.489
232.488
232.488
232.487
232.486
232.486
232.485
232.485
232.484
232.483
232.483
232.482
232.481
232.481
232.48
232.479
232.478
232.478
232.477
232.476
232.475
232.475
232.474
232.473
232.472
232.472
232.471
232.47
232.469
232.469
232.468
232.467
232.467
232.466
232.465
232.465
232.464
232.464
232.463
232.462
232.462
232.461
232.461
232.46
232.459
232.459
232.459
232.458
232.458
232.457
232.457
232.456
232.456
232.456
232.455
232.455
232.454
232.454
232.454
232.453
232.453
232.453
232.452
232.452
232.451
232.451
232.451
232.451
232.45
232.45
232.449
232.449
232.448
232.448
232.448
232.447
232.447
232.446
232.446
232.445
232.445
232.444
232.444
232.443
232.442
232.442
232.441
232.44
232.44
232.439
232.438
232.438
232.437
232.436
232.435
232.434
232.434
232.433
232.432
232.431
232.43
232.43
232.429
232.428
232.427
232.426
232.426
232.425
232.424
232.423
232.423
232.422
232.421
232.42
232.42
232.419
232.418
232.418
232.417
232.417
232.416
232.415
232.415
232.414
232.414
232.413
232.413
232.412
232.412
232.411
232.411
232.411
232.41
232.41
232.409
232.409
232.409
232.408
232.408
232.408
232.407
232.407
232.407
232.406
232.406
232.405
232.405
232.405
232.404
232.404
232.404
232.403
232.403
232.402
232.402
232.401
232.401
232.4
232.4
232.399
232.399
232.398
232.398
232.397
232.396
232.396
232.395
232.394
232.393
232.393
232.392
232.391
232.39
232.389
232.389
232.388
232.387
232.386
232.385
232.384
232.383
232.382
232.382
232.381
232.38
232.379
232.378
232.377
232.377
232.376
232.375
232.374
232.374
232.373
232.372
232.371
232.371
232.37
232.369
232.369
232.368
232.368
232.367
232.366
232.366
232.365
232.365
232.364
232.364
232.363
232.363
232.363
232.362
232.362
232.361
232.361
232.361
232.36
232.36
232.36
232.359
232.359
232.359
232.358
232.358
232.357
232.357
232.357
232.356
232.356
232.356
232.355
232.355
232.354
232.354
232.353
232.353
232.352
232.352
232.351
232.351
232.35
232.35
232.349
232.348
232.347
232.347
232.346
232.345
232.344
232.344
232.343
232.342
232.341
232.34
232.339
232.338
232.337
232.336
232.335
232.335
232.334
232.333
232.332
232.331
232.33
232.329
232.328
232.327
232.326
232.326
232.325
232.324
232.323
232.322
232.322
232.321
232.32
232.319
232.319
232.318
232.317
232.317
232.316
232.316
232.315
232.314
232.314
232.313
232.313
232.312
232.312
232.312
232.311
232.311
232.31
232.31
232.31
232.309
232.309
232.309
232.308
232.308
232.308
232.307
232.307
232.307
232.306
232.306
232.306
232.305
232.305
232.304
232.304
232.304
232.303
232.303
232.302
232.302
232.301
232.301
232.3
232.299
232.299
232.298
232.297
232.297
232.296
232.295
232.294
232.293
232.293
232.292
232.291
232.29
232.289
232.288
232.287
232.286
232.285
232.284
232.283
232.282
232.281
232.28
232.279
232.278
232.277
232.276
232.275
232.274
232.273
232.272
232.272
232.271
232.27
232.269
232.268
232.267
232.267
232.266
232.265
232.264
232.264
232.263
232.262
232.262
232.261
232.261
232.26
232.26
232.259
232.259
232.258
232.258
232.257
232.257
232.256
232.256
232.256
232.255
232.255
232.255
232.254
232.254
232.254
232.253
232.253
232.253
232.252
232.252
232.252
232.251
232.251
232.251
232.25
232.25
232.25
232.249
232.249
232.248
232.248
232.247
232.247
232.246
232.245
232.245
232.244
232.243
232.242
232.242
232.241
232.24
232.239
232.238
232.237
232.236
232.235
232.234
232.233
232.232
232.231
232.23
232.229
232.228
232.227
232.226
232.225
232.224
232.223
232.222
232.221
232.22
232.219
232.218
232.217
232.216
232.215
232.214
232.213
232.212
232.211
232.21
232.209
232.209
232.208
232.207
232.206
232.206
232.205
232.204
232.204
232.203
232.203
232.202
232.201
232.201
232.2
232.2
232.2
232.199
232.199
232.198
232.198
232.198
232.197
232.197
232.197
232.196
232.196
232.196
232.195
232.195
232.195
232.194
232.194
232.194
232.194
232.193
232.193
232.192
232.192
232.192
232.191
232.191
232.19
232.19
232.189
232.189
232.188
232.187
232.187
232.186
232.185
232.184
232.184
232.183
232.182
232.181
232.18
232.179
232.178
232.177
232.176
232.175
232.174
232.173
232.172
232.17
232.169
232.168
232.167
232.166
232.165
232.163
232.162
232.161
232.16
232.159
232.158
232.157
232.156
232.155
232.154
232.153
232.152
232.151
232.15
232.149
232.148
232.147
232.147
232.146
232.145
232.144
232.144
232.143
232.142
232.142
232.141
232.141
232.14
232.139
232.139
232.139
232.138
232.138
232.137
232.137
232.137
232.136
232.136
232.136
232.135
232.135
232.135
232.134
232.134
232.134
232.134
232.133
232.133
232.133
232.133
232.132
232.132
232.132
232.131
232.131
232.13
232.13
232.129
232.129
232.128
232.128
232.127
232.127
232.126
232.125
232.124
232.124
232.123
232.122
232.121
232.12
232.119
232.118
232.117
232.116
232.115
232.114
232.112
232.111
232.11
232.109
232.108
232.106
232.105
232.104
232.103
232.102
232.1
232.099
232.098
232.097
232.096
232.094
232.093
232.092
232.091
232.09
232.089
232.088
232.087
232.086
232.085
232.084
232.083
232.082
232.081
232.08
232.08
232.079
232.078
232.077
232.077
232.076
232.075
232.075
232.074
232.074
232.073
232.073
232.073
232.072
232.072
232.071
232.071
232.071
232.07
232.07
232.07
232.07
232.069
232.069
232.069
232.069
232.068
232.068
232.068
232.068
232.067
232.067
232.067
232.066
232.066
232.066
232.065
232.065
232.064
232.064
232.063
232.063
232.062
232.062
232.061
232.06
232.059
232.059
232.058
232.057
232.056
232.055
232.054
232.053
232.052
232.051
232.049
232.048
232.047
232.046
232.045
232.043
232.042
232.041
232.04
232.038
232.037
232.036
232.034
232.033
232.032
232.03
232.029
232.028
232.027
232.025
232.024
232.023
232.022
232.021
232.02
232.019
232.017
232.016
232.015
232.014
232.014
232.013
232.012
232.011
232.01
232.009
232.009
232.008
232.007
232.007
232.006
232.005
232.005
232.004
232.004
232.004
232.003
232.003
232.002
232.002
232.002
232.001
232.001
232.001
232.001
232
232
232
232
231.999
231.999
231.999
231.999
231.998
231.998
231.998
231.998
231.997
231.997
231.997
231.996
231.996
231.995
231.995
231.994
231.994
231.993
231.992
231.992
231.991
231.99
231.989
231.988
231.987
231.987
231.985
231.984
231.983
231.982
231.981
231.98
231.979
231.977
231.976
231.975
231.973
231.972
231.971
231.969
231.968
231.966
231.965
231.964
231.962
231.961
231.959
231.958
231.957
231.955
231.954
231.953
231.951
231.95
231.949
231.948
231.947
231.945
231.944
231.943
231.942
231.941
231.94
231.939
231.938
231.937
231.936
231.936
231.935
231.934
231.933
231.933
231.932
231.932
231.931
231.931
231.93
231.93
231.929
231.929
231.928
231.928
231.928
231.928
231.927
231.927
231.927
231.927
231.926
231.926
231.926
231.926
231.926
231.926
231.925
231.925
231.925
231.925
231.925
231.924
231.924
231.924
231.923
231.923
231.923
231.922
231.922
231.921
231.921
231.92
231.92
231.919
231.918
231.917
231.916
231.916
231.915
231.914
231.913
231.911
231.91
231.909
231.908
231.907
231.905
231.904
231.903
231.901
231.9
231.899
231.897
231.896
231.894
231.893
231.891
231.89
231.888
231.887
231.885
231.884
231.882
231.881
231.879
231.878
231.876
231.875
231.874
231.872
231.871
231.87
231.868
231.867
231.866
231.865
231.863
231.862
231.861
231.86
231.859
231.858
231.857
231.857
231.856
231.855
231.854
231.854
231.853
231.852
231.852
231.851
231.851
231.85
231.85
231.849
231.849
231.849
231.849
231.848
231.848
231.848
231.848
231.847
231.847
231.847
231.847
231.847
231.847
231.847
231.846
231.846
231.846
231.846
231.846
231.846
231.846
231.845
231.845
231.845
231.844
231.844
231.844
231.843
231.843
231.842
231.842
231.841
231.84
231.84
231.839
231.838
231.837
231.836
231.835
231.834
231.833
231.832
231.831
231.829
231.828
231.827
231.825
231.824
231.822
231.821
231.82
231.818
231.816
231.815
231.813
231.812
231.81
231.808
231.807
231.805
231.804
231.802
231.8
231.799
231.797
231.796
231.794
231.793
231.791
231.79
231.788
231.787
231.786
231.784
231.783
231.782
231.78
231.779
231.778
231.777
231.776
231.775
231.774
231.773
231.772
231.771
231.77
231.77
231.769
231.768
231.768
231.767
231.767
231.766
231.766
231.765
231.765
231.765
231.764
231.764
231.764
231.764
231.763
231.763
231.763
231.763
231.763
231.763
231.763
231.763
231.762
231.762
231.762
231.762
231.762
231.762
231.762
231.762
231.762
231.761
231.761
231.761
231.76
231.76
231.76
231.759
231.759
231.758
231.758
231.757
231.756
231.755
231.755
231.754
231.753
231.752
231.751
231.75
231.748
231.747
231.746
231.745
231.743
231.742
231.74
231.739
231.737
231.736
231.734
231.733
231.731
231.729
231.728
231.726
231.724
231.722
231.721
231.719
231.717
231.716
231.714
231.712
231.71
231.709
231.707
231.705
231.704
231.702
231.701
231.699
231.698
231.696
231.695
231.693
231.692
231.691
231.69
231.688
231.687
231.686
231.685
231.684
231.683
231.682
231.681
231.68
231.68
231.679
231.678
231.678
231.677
231.676
231.676
231.675
231.675
231.675
231.674
231.674
231.674
231.674
231.674
231.673
231.673
231.673
231.673
231.673
231.673
231.673
231.673
231.673
231.673
231.673
231.673
231.673
231.673
231.673
231.673
231.672
231.672
231.672
231.672
231.672
231.671
231.671
231.671
231.67
231.67
231.669
231.669
231.668
231.667
231.667
231.666
231.665
231.664
231.663
231.662
231.661
231.659
231.658
231.657
231.655
231.654
231.652
231.651
231.649
231.648
231.646
231.645
231.643
231.641
231.639
231.638
231.636
231.634
231.632
231.63
231.628
231.627
231.625
231.623
231.621
231.619
231.617
231.616
231.614
231.612
231.61
231.609
231.607
231.605
231.604
231.602
231.601
231.599
231.598
231.596
231.595
231.593
231.592
231.591
231.59
231.589
231.588
231.587
231.586
231.585
231.584
231.583
231.582
231.582
231.581
231.58
231.58
231.579
231.579
231.579
231.578
231.578
231.578
231.577
231.577
231.577
231.577
231.577
231.577
231.577
231.577
231.577
231.577
231.577
231.577
231.577
231.577
231.577
231.577
231.577
231.577
231.577
231.577
231.577
231.577
231.577
231.577
231.576
231.576
231.576
231.576
231.575
231.575
231.574
231.574
231.573
231.572
231.571
231.571
231.57
231.569
231.568
231.566
231.565
231.564
231.563
231.561
231.56
231.558
231.557
231.555
231.554
231.552
231.55
231.549
231.547
231.545
231.543
231.541
231.539
231.538
231.536
231.534
231.532
231.53
231.528
231.526
231.524
231.522
231.52
231.518
231.516
231.514
231.512
231.51
231.509
231.507
231.505
231.503
231.502
231.5
231.498
231.497
231.495
231.494
231.492
231.491
231.489
231.488
231.487
231.486
231.485
231.484
231.483
231.482
231.481
231.48
231.479
231.479
231.478
231.477
231.477
231.476
231.476
231.476
231.475
231.475
231.475
231.474
231.474
231.474
231.474
231.474
231.474
231.474
231.474
231.474
231.474
231.474
231.474
231.474
231.474
231.474
231.474
231.474
231.474
231.474
231.474
231.474
231.474
231.474
231.474
231.474
231.474
231.474
231.474
231.473
231.473
231.473
231.472
231.472
231.471
231.47
231.47
231.469
231.468
231.467
231.466
231.465
231.464
231.462
231.461
231.46
231.458
231.457
231.455
231.454
231.452
231.45
231.449
231.447
231.445
231.443
231.441
231.439
231.437
231.435
231.433
231.431
231.429
231.427
231.425
231.423
231.421
231.419
231.417
231.415
231.413
231.411
231.408
231.406
231.404
231.402
231.4
231.399
231.397
231.395
231.393
231.391
231.389
231.388
231.386
231.384
231.383
231.381
231.38
231.378
231.377
231.376
231.374
231.373
231.372
231.371
231.37
231.369
231.368
231.368
231.367
231.366
231.365
231.365
231.364
231.364
231.364
231.363
231.363
231.363
231.363
231.362
231.362
231.362
231.362
231.362
231.362
231.362
231.362
231.362
231.362
231.362
231.362
231.362
231.362
231.362
231.363
231.363
231.363
231.363
231.363
231.363
231.363
231.363
231.363
231.363
231.363
231.363
231.363
231.363
231.363
231.362
231.362
231.362
231.362
231.361
231.361
231.36
231.359
231.358
231.358
231.357
231.356
231.355
231.353
231.352
231.351
231.349
231.348
231.346
231.345
231.343
231.341
231.34
231.338
231.336
231.334
231.332
231.33
231.328
231.326
231.324
231.322
231.32
231.317
231.315
231.313
231.311
231.308
231.306
231.304
231.301
231.299
231.297
231.294
231.292
231.29
231.288
231.285
231.283
231.281
231.279
231.277
231.275
231.272
231.27
231.269
231.267
231.265
231.263
231.261
231.26
231.258
231.256
231.255
231.254
231.252
231.251
231.25
231.249
231.248
231.247
231.246
231.245
231.245
231.244
231.243
231.243
231.242
231.242
231.242
231.242
231.241
231.241
231.241
231.241
231.241
231.241
231.241
231.241
231.241
231.241
231.241
231.241
231.241
231.242
231.242
231.242
231.242
231.242
231.242
231.242
231.243
231.243
231.243
231.243
231.243
231.243
231.243
231.244
231.244
231.244
231.244
231.244
231.244
231.244
231.244
231.244
231.243
231.243
231.243
231.243
231.242
231.242
231.241
231.24
231.239
231.238
231.237
231.236
231.234
231.233
231.231
231.23
231.228
231.226
231.224
231.222
231.22
231.218
231.216
231.213
231.211
231.208
231.206
231.204
231.201
231.198
231.196
231.193
231.19
231.188
231.185
231.182
231.18
231.177
231.175
231.172
231.17
231.167
231.165
231.162
231.16
231.158
231.156
231.153
231.151
231.149
231.148
231.146
231.144
231.142
231.141
231.139
231.138
231.136
231.135
231.134
231.133
231.132
231.131
231.13
231.129
231.129
231.128
231.128
231.127
231.127
231.126
231.126
231.126
231.126
231.126
231.126
231.126
231.126
231.126
231.126
231.126
231.126
231.126
231.126
231.126
231.126
231.126
231.126
231.126
231.126
231.126
231.126
231.126
231.126
231.126
231.126
231.126
231.126
231.126
231.126
231.126
231.126
231.126
231.126
231.126
231.125
231.125
231.124
231.124
231.123
231.122
231.121
231.119
231.118
231.117
231.115
231.113
231.112
231.11
231.108
231.106
231.103
231.101
231.099
231.097
231.094
231.092
231.089
231.087
231.084
231.082
231.079
231.077
231.074
231.072
231.069
231.067
231.065
231.062
231.06
231.058
231.056
231.054
231.052
231.05
231.048
231.046
231.044
231.042
231.041
231.039
231.038
231.036
231.035
231.034
231.033
231.032
231.031
231.03
231.029
231.028
231.028
231.027
231.026
231.026
231.026
231.025
231.025
231.025
231.024
231.024
231.024
231.024
231.024
231.024
231.024
231.024
231.024
231.024
231.024
231.024
231.024
231.024
231.024
231.024
231.024
231.024
231.024
231.024
231.024
231.024
231.024
231.024
231.024
231.024
231.024
231.023
231.023
231.022
231.022
231.021
231.02
231.019
231.018
231.017
231.015
231.014
231.012
231.011
231.009
231.007
231.005
231.003
231.001
230.999
230.997
230.995
230.992
230.99
230.988
230.985
230.983
230.98
230.978
230.975
230.973
230.97
230.968
230.965
230.963
230.96
230.958
230.955
230.953
230.95
230.948
230.946
230.943
230.941
230.939
230.937
230.935
230.933
230.931
230.929
230.927
230.925
230.924
230.922
230.921
230.919
230.918
230.917
230.916
230.915
230.914
230.913
230.912
230.912
230.911
230.911
230.91
230.91
230.909
230.909
230.909
230.909
230.909
230.909
230.909
230.909
230.909
230.909
230.909
230.909
230.909
230.909
230.909
230.909
230.909
230.909
230.909
230.909
230.909
230.91
230.91
230.91
230.91
230.91
230.91
230.91
230.91
230.91
230.91
230.91
230.91
230.91
230.91
230.91
230.91
230.91
230.909
230.909
230.908
230.907
230.906
230.905
230.904
230.902
230.901
230.899
230.897
230.895
230.893
230.891
230.889
230.886
230.884
230.882
230.879
230.877
230.874
230.872
230.87
230.867
230.865
230.862
230.86
230.857
230.855
230.852
230.85
230.847
230.844
230.842
230.839
230.836
230.834
230.831
230.828
230.825
230.823
230.82
230.818
230.815
230.813
230.81
230.808
230.805
230.803
230.801
230.799
230.797
230.795
230.794
230.792
230.79
230.789
230.788
230.787
230.785
230.784
230.784
230.783
230.782
230.781
230.781
230.78
230.78
230.78
230.779
230.779
230.779
230.779
230.779
230.779
230.779
230.779
230.779
230.779
230.779
230.779
230.779
230.779
230.779
230.779
230.779
230.78
230.78
230.78
230.78
230.78
230.78
230.78
230.78
230.781
230.781
230.781
230.781
230.781
230.781
230.781
230.781
230.781
230.781
230.781
230.781
230.781
230.781
230.78
230.78
230.779
230.778
230.777
230.775
230.774
230.772
230.769
230.767
230.764
230.762
230.759
230.756
230.753
230.75
230.747
230.744
230.742
230.739
230.736
230.734
230.731
230.729
230.726
230.724
230.722
230.72
230.718
230.716
230.714
230.713
230.711
230.709
230.708
230.706
230.705
230.704
230.703
230.701
230.7
230.699
230.698
230.697
230.696
230.695
230.693
230.692
230.691
230.69
230.689
230.687
230.686
230.684
230.683
230.681
230.68
230.678
230.676
230.674
230.672
230.671
230.669
230.667
230.665
230.664
230.662
230.66
230.659
230.657
230.655
230.654
230.653
230.651
230.65
230.649
230.648
230.647
230.646
230.645
230.644
230.643
230.642
230.642
230.641
230.641
230.64
230.64
230.639
230.639
230.638
230.638
230.638
230.638
230.637
230.637
230.637
230.637
230.637
230.637
230.637
230.637
230.637
230.637
230.637
230.637
230.637
230.637
230.637
230.637
230.637
230.637
230.637
230.637
230.637
230.637
230.637
230.636
230.636
230.636
230.635
230.635
230.633
230.632
230.63
230.628
230.626
230.623
230.621
230.618
230.614
230.611
230.608
230.604
230.6
230.597
230.593
230.589
230.586
230.582
230.579
230.576
230.572
230.569
230.566
230.563
230.561
230.558
230.555
230.553
230.551
230.549
230.547
230.545
230.543
230.541
230.54
230.538
230.537
230.536
230.535
230.534
230.533
230.532
230.531
230.53
230.53
230.529
230.529
230.528
230.528
230.527
230.527
230.527
230.527
230.526
230.526
230.526
230.526
230.526
230.526
230.526
230.526
230.526
230.526
230.526
230.526
230.525
230.525
230.524
230.523
230.522
230.521
230.52
230.518
230.516
230.514
230.512
230.51
230.508
230.506
230.503
230.501
230.499
230.497
230.495
230.494
230.492
230.49
230.489
230.487
230.486
230.485
230.484
230.482
230.481
230.48
230.479
230.479
230.478
230.477
230.476
230.476
230.475
230.474
230.474
230.473
230.473
230.472
230.472
230.472
230.471
230.471
230.471
230.471
230.47
230.47
230.47
230.47
230.47
230.47
230.47
230.47
230.47
230.47
230.469
230.469
230.468
230.467
230.466
230.464
230.462
230.46
230.458
230.455
230.453
230.45
230.447
230.444
230.44
230.437
230.434
230.431
230.428
230.425
230.422
230.42
230.417
230.414
230.412
230.41
230.408
230.405
230.403
230.402
230.4
230.398
230.397
230.396
230.394
230.393
230.392
230.391
230.39
230.389
230.388
230.387
230.387
230.386
230.385
230.385
230.384
230.384
230.384
230.383
230.383
230.383
230.382
230.382
230.382
230.382
230.382
230.382
230.382
230.382
230.382
230.382
230.381
230.381
230.38
230.379
230.378
230.376
230.374
230.372
230.369
230.367
230.364
230.361
230.358
230.355
230.352
230.349
230.347
230.344
230.341
230.339
230.336
230.334
230.332
230.33
230.328
230.327
230.325
230.324
230.323
230.322
230.321
230.32
230.319
230.318
230.317
230.316
230.315
230.315
230.314
230.313
230.312
230.311
230.311
230.31
230.309
230.308
230.308
230.307
230.306
230.305
230.304
230.304
230.303
230.302
230.301
230.3
230.299
230.298
230.297
230.296
230.296
230.295
230.294
230.294
230.294
230.293
230.293
230.292
230.292
230.292
230.291
230.29
230.289
230.288
230.287
230.286
230.284
230.282
230.28
230.278
230.276
230.273
230.271
230.269
230.267
230.264
230.262
230.26
230.258
230.257
230.255
230.253
230.252
230.25
230.249
230.247
230.246
230.245
230.243
230.242
230.241
230.24
230.238
230.237
230.236
230.234
230.233
230.231
230.23
230.228
230.226
230.224
230.223
230.221
230.219
230.217
230.216
230.214
230.213
230.211
230.21
230.208
230.207
230.206
230.205
230.204
230.203
230.202
230.201
230.2
230.199
230.198
230.198
230.197
230.196
230.195
230.194
230.194
230.193
230.193
230.192
230.192
230.191
230.191
230.191
230.19
230.19
230.19
230.189
230.188
230.187
230.186
230.184
230.183
230.181
230.179
230.176
230.174
230.172
230.169
230.167
230.165
230.162
230.16
230.158
230.156
230.154
230.152
230.15
230.149
230.147
230.145
230.143
230.142
230.14
230.138
230.137
230.135
230.133
230.132
230.13
230.129
230.128
230.126
230.125
230.124
230.123
230.122
230.121
230.12
230.119
230.118
230.117
230.116
230.116
230.115
230.114
230.114
230.113
230.113
230.112
230.112
230.111
230.111
230.11
230.11
230.11
230.109
230.109
230.109
230.108
230.108
230.108
230.108
230.107
230.107
230.106
230.105
230.105
230.104
230.103
230.102
230.101
230.099
230.098
230.096
230.095
230.093
230.091
230.089
230.086
230.084
230.082
230.08
230.078
230.076
230.074
230.072
230.069
230.067
230.065
230.062
230.06
230.057
230.055
230.053
230.051
230.049
230.048
230.046
230.045
230.044
230.043
230.042
230.041
230.04
230.039
230.038
230.037
230.036
230.035
230.034
230.032
230.031
230.029
230.027
230.025
230.022
230.02
230.017
230.015
230.012
230.01
230.007
230.004
230.002
229.999
229.997
229.994
229.992
229.99
229.988
229.986
229.984
229.982
229.981
229.979
229.978
229.977
229.976
229.974
229.973
229.972
229.971
229.97
229.969
229.968
229.967
229.966
229.965
229.964
229.964
229.963
229.963
229.962
229.961
229.961
229.96
229.96
229.96
229.959
229.959
229.959
229.958
229.958
229.958
229.958
229.959
229.959
229.96
229.961
229.96
229.959
229.957
229.954
229.95
229.947
229.943
229.94
229.936
229.932
229.927
229.922
229.918
229.913
229.91
229.909
229.909
229.91
229.913
229.916
229.917
229.917
229.915
229.91
229.904
229.896
229.888
229.884
229.885
229.886
229.888
229.894
229.898
229.898
229.898
229.896