/*--------------------------------*- C++ -*----------------------------------*\
  =========                 |
  \\      /  F ield         | OpenFOAM: The Open Source CFD Toolbox
   \\    /   O peration     | Website:  https://openfoam.org
    \\  /    A nd           | Version:  9
     \\/     M anipulation  |
\*---------------------------------------------------------------------------*/
FoamFile
{
    format      ascii;
    class       volScalarField;
    location    "0.041";
    object      ddt0(rho,K);
}
// * * * * * * * * * * * * * * * * * * * * * * * * * * * * * * * * * * * * * //

dimensions      [1 -1 -3 0 0 0 0];

internalField   nonuniform List<scalar> 
100
(
-2584.95
-4643.38
-7170.31
-9102.65
-11236.7
-13713.3
-16327.3
-18951.7
-21758.6
-24827.8
-28028.4
-31344.4
-34854.2
-38567
-42481.2
-46640.7
-50792.6
-55214.3
-60030.7
-64455.4
-68529.7
-73581.8
-78420.3
-83480.4
-88351.8
-92960.3
-97695.4
-102133
-106775
-111938
-118309
-123487
-130781
-140808
-146813
-158014
-164755
-171271
-178640
-174502
-173353
-180940
-189629
-196252
-202200
-208022
-213495
-219366
-226184
-233358
-240309
-247226
-254706
-262879
-270863
-277707
-283552
-289442
-296514
-305552
-316565
-328470
-339593
-348172
-353364
-355855
-357353
-359816
-364524
-371795
-380787
-389922
-397901
-405209
-412809
-421669
-431676
-441276
-448629
-453142
-455944
-458354
-461973
-467798
-475065
-483611
-492558
-500914
-507540
-512528
-518077
-522839
-528266
-536495
-540212
-514108
-506080
-531963
-447036
-513346
)
;

boundaryField
{
    sides
    {
        type            calculated;
        value           nonuniform List<scalar> 2(-513346 -2584.95);
    }
    empty
    {
        type            empty;
    }
}


// ************************************************************************* //
