/*--------------------------------*- C++ -*----------------------------------*\
  =========                 |
  \\      /  F ield         | OpenFOAM: The Open Source CFD Toolbox
   \\    /   O peration     | Website:  https://openfoam.org
    \\  /    A nd           | Version:  9
     \\/     M anipulation  |
\*---------------------------------------------------------------------------*/
FoamFile
{
    format      ascii;
    class       surfaceScalarField;
    location    "0.041";
    object      ddtCorrDdt0(phi);
}
// * * * * * * * * * * * * * * * * * * * * * * * * * * * * * * * * * * * * * //

dimensions      [1 0 -2 0 0 0 0];

internalField   nonuniform List<scalar> 
99
(
-980.072
-1129.83
-1278.25
-1427.3
-1576.08
-1727.42
-1879.42
-2026.96
-2172.41
-2321.35
-2471.57
-2619.2
-2762.89
-2910.12
-3071.47
-3230.67
-3370.71
-3522.41
-3727.58
-3843.15
-3978.59
-4124
-4243.49
-4444.21
-4562.42
-4681.82
-4797.13
-4932.33
-4925.96
-5655.86
-5110.47
-5096.14
-5288.12
-5584.88
-5922.11
-6288.38
-6259.48
-6665.06
-6645.79
-6377.29
-6462.59
-6710.2
-6907.49
-7058.31
-7192.09
-7288.8
-7368.64
-7479.94
-7624.56
-7774.65
-7915.46
-8054.69
-8208.88
-8370.27
-8512.66
-8626.91
-8734.25
-8862.27
-9028.53
-9245.2
-9503.34
-9772.33
-10006
-10157.1
-10209.6
-10190.6
-10153.6
-10164.7
-10260
-10444.4
-10673.5
-10878.6
-11018.5
-11120.4
-11228.9
-11395.5
-11615
-11830.4
-11962.1
-11992.4
-11949.1
-11897
-11915.2
-12019.8
-12180.8
-12351.4
-12491.1
-12566.9
-12588.3
-12610.5
-12690.5
-12759.6
-12810.8
-12961.9
-12549.8
-11578.9
-12033.9
-9878.85
-10300.9
)
;

boundaryField
{
    sides
    {
        type            calculated;
        value           nonuniform List<scalar> 2(-12565 829.7);
    }
    empty
    {
        type            empty;
        value           nonuniform List<scalar> 0();
    }
}


// ************************************************************************* //
