/*--------------------------------*- C++ -*----------------------------------*\
  =========                 |
  \\      /  F ield         | OpenFOAM: The Open Source CFD Toolbox
   \\    /   O peration     | Website:  https://openfoam.org
    \\  /    A nd           | Version:  9
     \\/     M anipulation  |
\*---------------------------------------------------------------------------*/
FoamFile
{
    format      ascii;
    class       volScalarField;
    location    "0.041";
    object      p_0;
}
// * * * * * * * * * * * * * * * * * * * * * * * * * * * * * * * * * * * * * //

dimensions      [1 -1 -2 0 0 0 0];

internalField   nonuniform List<scalar> 
100
(
15808.2
15787.5
15735.7
15681.4
15642.1
15605.9
15569.5
15533.6
15499.3
15466.3
15434.6
15404.3
15375.8
15348.9
15323.5
15300.2
15278.9
15259.5
15241.9
15226.8
15213.2
15202.2
15193.3
15185.6
15180.3
15177.3
15176.4
15176.4
15176.7
15177.3
15179.3
15183.4
15191.1
15206.1
15229.7
15265.4
15308.9
15350.6
15398.5
15442.8
15481.7
15521.2
15562.6
15604.7
15647.8
15692.9
15740.1
15789.8
15842.5
15898.4
15957.7
16020.4
16086.7
16157.1
16231.3
16308.8
16388.9
16471.5
16556.9
16645.8
16738.6
16835.3
16935.3
17037.7
17141.2
17245.2
17349.4
17453.9
17558.8
17664.7
17771.6
17880
17990
18102
18215.8
18331.2
18447.8
18564.9
18682.1
18799.1
18915.9
19032.5
19148.4
19263.4
19377.1
19490.9
19604.6
19719.2
19833.3
19946.3
20054
20153.4
20239.9
20314.3
20383.6
20442.2
20485.9
20539.6
20547.8
20567.2
)
;

boundaryField
{
    sides
    {
        type            zeroGradient;
    }
    empty
    {
        type            empty;
    }
}


// ************************************************************************* //
