/*--------------------------------*- C++ -*----------------------------------*\
  =========                 |
  \\      /  F ield         | OpenFOAM: The Open Source CFD Toolbox
   \\    /   O peration     | Website:  https://openfoam.org
    \\  /    A nd           | Version:  9
     \\/     M anipulation  |
\*---------------------------------------------------------------------------*/
FoamFile
{
    format      ascii;
    class       surfaceScalarField;
    location    "0.003";
    object      phi;
}
// * * * * * * * * * * * * * * * * * * * * * * * * * * * * * * * * * * * * * //

dimensions      [1 0 -1 0 0 0 0];

internalField   nonuniform List<scalar> 
99
(
-1.7728e-12
3.1477e-12
3.63087e-12
4.37694e-12
-1.03384e-12
-5.91172e-12
-5.39657e-12
-2.67875e-12
2.84572e-12
-7.96518e-12
-9.43956e-12
-2.62901e-12
3.37508e-12
2.73559e-13
-3.58824e-12
2.75335e-12
1.72413e-11
1.07132e-10
6.7071e-10
4.10034e-09
2.4469e-08
1.39366e-07
7.68215e-07
4.03178e-06
2.03768e-05
9.77975e-05
0.00044937
0.00195386
0.00807631
0.0314323
0.115279
0.395106
1.2609
3.71224
9.9608
23.8111
48.4409
86.1985
135.742
192.188
249.231
302.23
349.019
387.872
420.954
446.022
463.295
480.424
490.731
491.753
491.068
497.484
498.912
495.447
490.312
482.174
459.606
401.441
352.58
329.736
314.774
304.072
304.856
311.693
281.676
253.474
214.08
45.3823
8.05197
1.11802
0.147812
0.0191925
0.00244714
0.000306986
3.79331e-05
4.61773e-06
5.54521e-07
6.57718e-08
7.71823e-09
8.97181e-10
1.03306e-10
1.1636e-11
1.26743e-12
1.00808e-13
3.55271e-15
-8.88178e-16
-1.77636e-15
8.88178e-16
1.00808e-13
1.13687e-13
-2.22933e-13
-2.93543e-13
3.67706e-13
1.16618e-12
-8.74856e-14
-1.20348e-12
-6.30607e-13
1.1191e-13
9.65006e-13
)
;

boundaryField
{
    sides
    {
        type            calculated;
        value           nonuniform List<scalar> 2(9.96079e-13 6.57747e-12);
    }
    empty
    {
        type            empty;
        value           nonuniform List<scalar> 0();
    }
}


// ************************************************************************* //
