/*--------------------------------*- C++ -*----------------------------------*\
  =========                 |
  \\      /  F ield         | OpenFOAM: The Open Source CFD Toolbox
   \\    /   O peration     | Website:  https://openfoam.org
    \\  /    A nd           | Version:  9
     \\/     M anipulation  |
\*---------------------------------------------------------------------------*/
FoamFile
{
    format      ascii;
    class       volScalarField;
    location    "0.033";
    object      rho;
}
// * * * * * * * * * * * * * * * * * * * * * * * * * * * * * * * * * * * * * //

dimensions      [1 -3 0 0 0 0 0];

internalField   nonuniform List<scalar> 
10000
(
0.268234
0.26823
0.268223
0.268217
0.268211
0.268205
0.268199
0.268193
0.268188
0.268182
0.268176
0.26817
0.268164
0.268158
0.268152
0.268146
0.26814
0.268134
0.268128
0.268122
0.268116
0.268111
0.268105
0.268099
0.268093
0.268087
0.268081
0.268075
0.26807
0.268064
0.268058
0.268052
0.268046
0.26804
0.268034
0.268029
0.268023
0.268017
0.268012
0.268006
0.268
0.267994
0.267988
0.267982
0.267977
0.267971
0.267966
0.26796
0.267955
0.267949
0.267942
0.267936
0.26793
0.267925
0.267919
0.267914
0.267909
0.267904
0.267899
0.267894
0.267888
0.267883
0.267877
0.267871
0.267865
0.267858
0.267852
0.267846
0.26784
0.267834
0.267829
0.267823
0.267819
0.267814
0.267811
0.267807
0.267804
0.267801
0.267799
0.267797
0.267795
0.267793
0.267791
0.26779
0.267788
0.267786
0.267784
0.267783
0.267782
0.26778
0.267779
0.267778
0.267777
0.267775
0.267774
0.267773
0.267772
0.267771
0.267769
0.267768
0.267767
0.267766
0.267765
0.267763
0.267762
0.267761
0.26776
0.267758
0.267757
0.267756
0.267755
0.267754
0.267752
0.267751
0.26775
0.267749
0.267747
0.267746
0.267745
0.267744
0.267742
0.267741
0.26774
0.267739
0.267738
0.267736
0.267735
0.267734
0.267733
0.267731
0.26773
0.267729
0.267728
0.267726
0.267725
0.267724
0.267723
0.267721
0.26772
0.267719
0.267718
0.267717
0.267715
0.267714
0.267713
0.267712
0.26771
0.267709
0.267708
0.267707
0.267705
0.267704
0.267703
0.267702
0.2677
0.267699
0.267698
0.267697
0.267695
0.267694
0.267693
0.267692
0.26769
0.267689
0.267688
0.267687
0.267685
0.267684
0.267683
0.267682
0.26768
0.267679
0.267678
0.267677
0.267675
0.267674
0.267673
0.267672
0.26767
0.267669
0.267668
0.267667
0.267665
0.267664
0.267663
0.267662
0.26766
0.267659
0.267658
0.267657
0.267655
0.267654
0.267653
0.267652
0.26765
0.267649
0.267648
0.267647
0.267645
0.267644
0.267643
0.267642
0.26764
0.267639
0.267638
0.267636
0.267635
0.267634
0.267633
0.267631
0.26763
0.267629
0.267628
0.267626
0.267625
0.267624
0.267623
0.267621
0.26762
0.267619
0.267618
0.267616
0.267615
0.267614
0.267612
0.267611
0.26761
0.267609
0.267607
0.267606
0.267605
0.267604
0.267602
0.267601
0.2676
0.267598
0.267597
0.267596
0.267595
0.267593
0.267592
0.267591
0.26759
0.267588
0.267587
0.267586
0.267584
0.267583
0.267582
0.267581
0.267579
0.267578
0.267577
0.267576
0.267574
0.267573
0.267572
0.26757
0.267569
0.267568
0.267567
0.267565
0.267564
0.267563
0.267561
0.26756
0.267559
0.267558
0.267556
0.267555
0.267554
0.267552
0.267551
0.26755
0.267549
0.267547
0.267546
0.267545
0.267543
0.267542
0.267541
0.26754
0.267538
0.267537
0.267536
0.267534
0.267533
0.267532
0.267531
0.267529
0.267528
0.267527
0.267525
0.267524
0.267523
0.267521
0.26752
0.267519
0.267518
0.267516
0.267515
0.267514
0.267512
0.267511
0.26751
0.267509
0.267507
0.267506
0.267505
0.267503
0.267502
0.267501
0.267499
0.267498
0.267497
0.267496
0.267494
0.267493
0.267492
0.26749
0.267489
0.267488
0.267486
0.267485
0.267484
0.267482
0.267481
0.26748
0.267479
0.267477
0.267476
0.267475
0.267473
0.267472
0.267471
0.267469
0.267468
0.267467
0.267465
0.267464
0.267463
0.267462
0.26746
0.267459
0.267458
0.267456
0.267455
0.267454
0.267452
0.267451
0.26745
0.267448
0.267447
0.267446
0.267444
0.267443
0.267442
0.267441
0.267439
0.267438
0.267437
0.267435
0.267434
0.267433
0.267431
0.26743
0.267429
0.267427
0.267426
0.267425
0.267423
0.267422
0.267421
0.267419
0.267418
0.267417
0.267415
0.267414
0.267413
0.267412
0.26741
0.267409
0.267408
0.267406
0.267405
0.267404
0.267402
0.267401
0.2674
0.267398
0.267397
0.267396
0.267394
0.267393
0.267392
0.26739
0.267389
0.267388
0.267386
0.267385
0.267384
0.267382
0.267381
0.26738
0.267378
0.267377
0.267376
0.267374
0.267373
0.267372
0.26737
0.267369
0.267368
0.267366
0.267365
0.267364
0.267362
0.267361
0.26736
0.267358
0.267357
0.267356
0.267354
0.267353
0.267352
0.26735
0.267349
0.267348
0.267346
0.267345
0.267343
0.267342
0.267341
0.267339
0.267338
0.267337
0.267335
0.267334
0.267333
0.267331
0.26733
0.267329
0.267327
0.267326
0.267325
0.267323
0.267322
0.267321
0.267319
0.267318
0.267317
0.267315
0.267314
0.267312
0.267311
0.26731
0.267308
0.267307
0.267306
0.267304
0.267303
0.267302
0.2673
0.267299
0.267298
0.267296
0.267295
0.267294
0.267292
0.267291
0.267289
0.267288
0.267287
0.267285
0.267284
0.267283
0.267281
0.26728
0.267279
0.267277
0.267276
0.267275
0.267273
0.267272
0.26727
0.267269
0.267268
0.267266
0.267265
0.267264
0.267262
0.267261
0.26726
0.267258
0.267257
0.267255
0.267254
0.267253
0.267251
0.26725
0.267249
0.267247
0.267246
0.267244
0.267243
0.267242
0.26724
0.267239
0.267238
0.267236
0.267235
0.267233
0.267232
0.267231
0.267229
0.267228
0.267227
0.267225
0.267224
0.267223
0.267221
0.26722
0.267218
0.267217
0.267216
0.267214
0.267213
0.267211
0.26721
0.267209
0.267207
0.267206
0.267205
0.267203
0.267202
0.2672
0.267199
0.267198
0.267196
0.267195
0.267194
0.267192
0.267191
0.267189
0.267188
0.267187
0.267185
0.267184
0.267182
0.267181
0.26718
0.267178
0.267177
0.267176
0.267174
0.267173
0.267171
0.26717
0.267169
0.267167
0.267166
0.267164
0.267163
0.267162
0.26716
0.267159
0.267157
0.267156
0.267155
0.267153
0.267152
0.26715
0.267149
0.267148
0.267146
0.267145
0.267143
0.267142
0.267141
0.267139
0.267138
0.267137
0.267135
0.267134
0.267132
0.267131
0.26713
0.267128
0.267127
0.267125
0.267124
0.267123
0.267121
0.26712
0.267118
0.267117
0.267115
0.267114
0.267113
0.267111
0.26711
0.267108
0.267107
0.267106
0.267104
0.267103
0.267101
0.2671
0.267099
0.267097
0.267096
0.267094
0.267093
0.267092
0.26709
0.267089
0.267087
0.267086
0.267085
0.267083
0.267082
0.26708
0.267079
0.267077
0.267076
0.267075
0.267073
0.267072
0.26707
0.267069
0.267068
0.267066
0.267065
0.267063
0.267062
0.26706
0.267059
0.267058
0.267056
0.267055
0.267053
0.267052
0.267051
0.267049
0.267048
0.267046
0.267045
0.267043
0.267042
0.267041
0.267039
0.267038
0.267036
0.267035
0.267033
0.267032
0.267031
0.267029
0.267028
0.267026
0.267025
0.267023
0.267022
0.267021
0.267019
0.267018
0.267016
0.267015
0.267013
0.267012
0.267011
0.267009
0.267008
0.267006
0.267005
0.267003
0.267002
0.267001
0.266999
0.266998
0.266996
0.266995
0.266993
0.266992
0.26699
0.266989
0.266988
0.266986
0.266985
0.266983
0.266982
0.26698
0.266979
0.266978
0.266976
0.266975
0.266973
0.266972
0.26697
0.266969
0.266967
0.266966
0.266965
0.266963
0.266962
0.26696
0.266959
0.266957
0.266956
0.266954
0.266953
0.266952
0.26695
0.266949
0.266947
0.266946
0.266944
0.266943
0.266941
0.26694
0.266939
0.266937
0.266936
0.266934
0.266933
0.266931
0.26693
0.266928
0.266927
0.266925
0.266924
0.266923
0.266921
0.26692
0.266918
0.266917
0.266915
0.266914
0.266912
0.266911
0.266909
0.266908
0.266907
0.266905
0.266904
0.266902
0.266901
0.266899
0.266898
0.266896
0.266895
0.266893
0.266892
0.26689
0.266889
0.266888
0.266886
0.266885
0.266883
0.266882
0.26688
0.266879
0.266877
0.266876
0.266874
0.266873
0.266871
0.26687
0.266868
0.266867
0.266866
0.266864
0.266863
0.266861
0.26686
0.266858
0.266857
0.266855
0.266854
0.266852
0.266851
0.266849
0.266848
0.266847
0.266845
0.266844
0.266842
0.266841
0.266839
0.266838
0.266836
0.266835
0.266833
0.266832
0.26683
0.266829
0.266827
0.266826
0.266824
0.266823
0.266821
0.26682
0.266818
0.266817
0.266815
0.266814
0.266812
0.266811
0.266809
0.266808
0.266806
0.266805
0.266803
0.266802
0.2668
0.266799
0.266797
0.266796
0.266795
0.266793
0.266792
0.26679
0.266789
0.266787
0.266786
0.266784
0.266783
0.266781
0.26678
0.266778
0.266777
0.266775
0.266774
0.266772
0.266771
0.266769
0.266768
0.266766
0.266765
0.266763
0.266762
0.26676
0.266759
0.266757
0.266756
0.266754
0.266753
0.266751
0.26675
0.266748
0.266747
0.266745
0.266744
0.266742
0.266741
0.266739
0.266738
0.266736
0.266735
0.266733
0.266732
0.26673
0.266729
0.266727
0.266726
0.266724
0.266723
0.266721
0.26672
0.266718
0.266717
0.266715
0.266714
0.266712
0.266711
0.266709
0.266708
0.266706
0.266705
0.266703
0.266702
0.2667
0.266699
0.266697
0.266696
0.266694
0.266693
0.266691
0.26669
0.266688
0.266687
0.266685
0.266684
0.266682
0.266681
0.266679
0.266677
0.266676
0.266674
0.266673
0.266671
0.26667
0.266668
0.266667
0.266665
0.266664
0.266662
0.266661
0.266659
0.266658
0.266656
0.266655
0.266653
0.266652
0.26665
0.266649
0.266647
0.266646
0.266644
0.266643
0.266641
0.266639
0.266638
0.266636
0.266635
0.266633
0.266632
0.26663
0.266629
0.266627
0.266626
0.266624
0.266623
0.266621
0.26662
0.266618
0.266617
0.266615
0.266613
0.266612
0.26661
0.266609
0.266607
0.266606
0.266604
0.266603
0.266601
0.2666
0.266598
0.266597
0.266595
0.266594
0.266592
0.26659
0.266589
0.266587
0.266586
0.266584
0.266583
0.266581
0.26658
0.266578
0.266577
0.266575
0.266573
0.266572
0.26657
0.266569
0.266567
0.266566
0.266564
0.266563
0.266561
0.26656
0.266558
0.266557
0.266555
0.266553
0.266552
0.26655
0.266549
0.266547
0.266546
0.266544
0.266543
0.266541
0.266539
0.266538
0.266536
0.266535
0.266533
0.266532
0.26653
0.266529
0.266527
0.266526
0.266524
0.266522
0.266521
0.266519
0.266518
0.266516
0.266515
0.266513
0.266512
0.26651
0.266508
0.266507
0.266505
0.266504
0.266502
0.266501
0.266499
0.266497
0.266496
0.266494
0.266493
0.266491
0.26649
0.266488
0.266487
0.266485
0.266483
0.266482
0.26648
0.266479
0.266477
0.266476
0.266474
0.266472
0.266471
0.266469
0.266468
0.266466
0.266465
0.266463
0.266461
0.26646
0.266458
0.266457
0.266455
0.266454
0.266452
0.26645
0.266449
0.266447
0.266446
0.266444
0.266443
0.266441
0.266439
0.266438
0.266436
0.266435
0.266433
0.266432
0.26643
0.266428
0.266427
0.266425
0.266424
0.266422
0.266421
0.266419
0.266417
0.266416
0.266414
0.266413
0.266411
0.266409
0.266408
0.266406
0.266405
0.266403
0.266402
0.2664
0.266398
0.266397
0.266395
0.266394
0.266392
0.26639
0.266389
0.266387
0.266386
0.266384
0.266383
0.266381
0.266379
0.266378
0.266376
0.266375
0.266373
0.266371
0.26637
0.266368
0.266367
0.266365
0.266363
0.266362
0.26636
0.266359
0.266357
0.266355
0.266354
0.266352
0.266351
0.266349
0.266348
0.266346
0.266344
0.266343
0.266341
0.26634
0.266338
0.266336
0.266335
0.266333
0.266332
0.26633
0.266328
0.266327
0.266325
0.266324
0.266322
0.26632
0.266319
0.266317
0.266315
0.266314
0.266312
0.266311
0.266309
0.266307
0.266306
0.266304
0.266303
0.266301
0.266299
0.266298
0.266296
0.266295
0.266293
0.266291
0.26629
0.266288
0.266287
0.266285
0.266283
0.266282
0.26628
0.266278
0.266277
0.266275
0.266274
0.266272
0.26627
0.266269
0.266267
0.266266
0.266264
0.266262
0.266261
0.266259
0.266257
0.266256
0.266254
0.266253
0.266251
0.266249
0.266248
0.266246
0.266245
0.266243
0.266241
0.26624
0.266238
0.266236
0.266235
0.266233
0.266232
0.26623
0.266228
0.266227
0.266225
0.266223
0.266222
0.26622
0.266219
0.266217
0.266215
0.266214
0.266212
0.26621
0.266209
0.266207
0.266206
0.266204
0.266202
0.266201
0.266199
0.266197
0.266196
0.266194
0.266192
0.266191
0.266189
0.266188
0.266186
0.266184
0.266183
0.266181
0.266179
0.266178
0.266176
0.266174
0.266173
0.266171
0.26617
0.266168
0.266166
0.266165
0.266163
0.266161
0.26616
0.266158
0.266156
0.266155
0.266153
0.266152
0.26615
0.266148
0.266147
0.266145
0.266143
0.266142
0.26614
0.266138
0.266137
0.266135
0.266133
0.266132
0.26613
0.266128
0.266127
0.266125
0.266124
0.266122
0.26612
0.266119
0.266117
0.266115
0.266114
0.266112
0.26611
0.266109
0.266107
0.266105
0.266104
0.266102
0.2661
0.266099
0.266097
0.266095
0.266094
0.266092
0.26609
0.266089
0.266087
0.266085
0.266084
0.266082
0.266081
0.266079
0.266077
0.266076
0.266074
0.266072
0.266071
0.266069
0.266067
0.266066
0.266064
0.266062
0.266061
0.266059
0.266057
0.266056
0.266054
0.266052
0.266051
0.266049
0.266047
0.266046
0.266044
0.266042
0.266041
0.266039
0.266037
0.266036
0.266034
0.266032
0.266031
0.266029
0.266027
0.266026
0.266024
0.266022
0.266021
0.266019
0.266017
0.266016
0.266014
0.266012
0.266011
0.266009
0.266007
0.266005
0.266004
0.266002
0.266
0.265999
0.265997
0.265995
0.265994
0.265992
0.26599
0.265989
0.265987
0.265985
0.265984
0.265982
0.26598
0.265979
0.265977
0.265975
0.265974
0.265972
0.26597
0.265969
0.265967
0.265965
0.265963
0.265962
0.26596
0.265958
0.265957
0.265955
0.265953
0.265952
0.26595
0.265948
0.265947
0.265945
0.265943
0.265942
0.26594
0.265938
0.265936
0.265935
0.265933
0.265931
0.26593
0.265928
0.265926
0.265925
0.265923
0.265921
0.265919
0.265918
0.265916
0.265914
0.265913
0.265911
0.265909
0.265908
0.265906
0.265904
0.265903
0.265901
0.265899
0.265897
0.265896
0.265894
0.265892
0.265891
0.265889
0.265887
0.265886
0.265884
0.265882
0.26588
0.265879
0.265877
0.265875
0.265874
0.265872
0.26587
0.265868
0.265867
0.265865
0.265863
0.265862
0.26586
0.265858
0.265856
0.265855
0.265853
0.265851
0.26585
0.265848
0.265846
0.265845
0.265843
0.265841
0.265839
0.265838
0.265836
0.265834
0.265833
0.265831
0.265829
0.265827
0.265826
0.265824
0.265822
0.265821
0.265819
0.265817
0.265815
0.265814
0.265812
0.26581
0.265808
0.265807
0.265805
0.265803
0.265802
0.2658
0.265798
0.265796
0.265795
0.265793
0.265791
0.26579
0.265788
0.265786
0.265784
0.265783
0.265781
0.265779
0.265777
0.265776
0.265774
0.265772
0.265771
0.265769
0.265767
0.265765
0.265764
0.265762
0.26576
0.265758
0.265757
0.265755
0.265753
0.265751
0.26575
0.265748
0.265746
0.265745
0.265743
0.265741
0.265739
0.265738
0.265736
0.265734
0.265732
0.265731
0.265729
0.265727
0.265725
0.265724
0.265722
0.26572
0.265719
0.265717
0.265715
0.265713
0.265712
0.26571
0.265708
0.265706
0.265705
0.265703
0.265701
0.265699
0.265698
0.265696
0.265694
0.265692
0.265691
0.265689
0.265687
0.265685
0.265684
0.265682
0.26568
0.265678
0.265677
0.265675
0.265673
0.265671
0.26567
0.265668
0.265666
0.265664
0.265663
0.265661
0.265659
0.265657
0.265656
0.265654
0.265652
0.26565
0.265649
0.265647
0.265645
0.265643
0.265642
0.26564
0.265638
0.265636
0.265635
0.265633
0.265631
0.265629
0.265628
0.265626
0.265624
0.265622
0.26562
0.265619
0.265617
0.265615
0.265613
0.265612
0.26561
0.265608
0.265606
0.265605
0.265603
0.265601
0.265599
0.265598
0.265596
0.265594
0.265592
0.26559
0.265589
0.265587
0.265585
0.265583
0.265582
0.26558
0.265578
0.265576
0.265575
0.265573
0.265571
0.265569
0.265567
0.265566
0.265564
0.265562
0.26556
0.265559
0.265557
0.265555
0.265553
0.265552
0.26555
0.265548
0.265546
0.265544
0.265543
0.265541
0.265539
0.265537
0.265536
0.265534
0.265532
0.26553
0.265528
0.265527
0.265525
0.265523
0.265521
0.265519
0.265518
0.265516
0.265514
0.265512
0.265511
0.265509
0.265507
0.265505
0.265503
0.265502
0.2655
0.265498
0.265496
0.265494
0.265493
0.265491
0.265489
0.265487
0.265486
0.265484
0.265482
0.26548
0.265478
0.265477
0.265475
0.265473
0.265471
0.265469
0.265468
0.265466
0.265464
0.265462
0.26546
0.265459
0.265457
0.265455
0.265453
0.265451
0.26545
0.265448
0.265446
0.265444
0.265442
0.265441
0.265439
0.265437
0.265435
0.265433
0.265432
0.26543
0.265428
0.265426
0.265424
0.265423
0.265421
0.265419
0.265417
0.265415
0.265414
0.265412
0.26541
0.265408
0.265406
0.265405
0.265403
0.265401
0.265399
0.265397
0.265396
0.265394
0.265392
0.26539
0.265388
0.265387
0.265385
0.265383
0.265381
0.265379
0.265377
0.265376
0.265374
0.265372
0.26537
0.265368
0.265367
0.265365
0.265363
0.265361
0.265359
0.265358
0.265356
0.265354
0.265352
0.26535
0.265348
0.265347
0.265345
0.265343
0.265341
0.265339
0.265338
0.265336
0.265334
0.265332
0.26533
0.265328
0.265327
0.265325
0.265323
0.265321
0.265319
0.265317
0.265316
0.265314
0.265312
0.26531
0.265308
0.265307
0.265305
0.265303
0.265301
0.265299
0.265297
0.265296
0.265294
0.265292
0.26529
0.265288
0.265286
0.265285
0.265283
0.265281
0.265279
0.265277
0.265275
0.265274
0.265272
0.26527
0.265268
0.265266
0.265264
0.265263
0.265261
0.265259
0.265257
0.265255
0.265253
0.265252
0.26525
0.265248
0.265246
0.265244
0.265242
0.265241
0.265239
0.265237
0.265235
0.265233
0.265231
0.26523
0.265228
0.265226
0.265224
0.265222
0.26522
0.265218
0.265217
0.265215
0.265213
0.265211
0.265209
0.265207
0.265206
0.265204
0.265202
0.2652
0.265198
0.265196
0.265194
0.265193
0.265191
0.265189
0.265187
0.265185
0.265183
0.265182
0.26518
0.265178
0.265176
0.265174
0.265172
0.26517
0.265169
0.265167
0.265165
0.265163
0.265161
0.265159
0.265157
0.265156
0.265154
0.265152
0.26515
0.265148
0.265146
0.265144
0.265143
0.265141
0.265139
0.265137
0.265135
0.265133
0.265131
0.26513
0.265128
0.265126
0.265124
0.265122
0.26512
0.265118
0.265116
0.265115
0.265113
0.265111
0.265109
0.265107
0.265105
0.265103
0.265102
0.2651
0.265098
0.265096
0.265094
0.265092
0.26509
0.265088
0.265087
0.265085
0.265083
0.265081
0.265079
0.265077
0.265075
0.265074
0.265072
0.26507
0.265068
0.265066
0.265064
0.265062
0.26506
0.265059
0.265057
0.265055
0.265053
0.265051
0.265049
0.265047
0.265045
0.265044
0.265042
0.26504
0.265038
0.265036
0.265034
0.265032
0.26503
0.265028
0.265027
0.265025
0.265023
0.265021
0.265019
0.265017
0.265015
0.265013
0.265012
0.26501
0.265008
0.265006
0.265004
0.265002
0.265
0.264998
0.264996
0.264995
0.264993
0.264991
0.264989
0.264987
0.264985
0.264983
0.264981
0.264979
0.264978
0.264976
0.264974
0.264972
0.26497
0.264968
0.264966
0.264964
0.264962
0.264961
0.264959
0.264957
0.264955
0.264953
0.264951
0.264949
0.264947
0.264945
0.264943
0.264942
0.26494
0.264938
0.264936
0.264934
0.264932
0.26493
0.264928
0.264926
0.264924
0.264923
0.264921
0.264919
0.264917
0.264915
0.264913
0.264911
0.264909
0.264907
0.264905
0.264904
0.264902
0.2649
0.264898
0.264896
0.264894
0.264892
0.26489
0.264888
0.264886
0.264885
0.264883
0.264881
0.264879
0.264877
0.264875
0.264873
0.264871
0.264869
0.264867
0.264865
0.264863
0.264862
0.26486
0.264858
0.264856
0.264854
0.264852
0.26485
0.264848
0.264846
0.264844
0.264842
0.264841
0.264839
0.264837
0.264835
0.264833
0.264831
0.264829
0.264827
0.264825
0.264823
0.264821
0.264819
0.264818
0.264816
0.264814
0.264812
0.26481
0.264808
0.264806
0.264804
0.264802
0.2648
0.264798
0.264796
0.264794
0.264793
0.264791
0.264789
0.264787
0.264785
0.264783
0.264781
0.264779
0.264777
0.264775
0.264773
0.264771
0.264769
0.264767
0.264766
0.264764
0.264762
0.26476
0.264758
0.264756
0.264754
0.264752
0.26475
0.264748
0.264746
0.264744
0.264742
0.26474
0.264739
0.264737
0.264735
0.264733
0.264731
0.264729
0.264727
0.264725
0.264723
0.264721
0.264719
0.264717
0.264715
0.264713
0.264711
0.264709
0.264708
0.264706
0.264704
0.264702
0.2647
0.264698
0.264696
0.264694
0.264692
0.26469
0.264688
0.264686
0.264684
0.264682
0.26468
0.264678
0.264676
0.264675
0.264673
0.264671
0.264669
0.264667
0.264665
0.264663
0.264661
0.264659
0.264657
0.264655
0.264653
0.264651
0.264649
0.264647
0.264645
0.264643
0.264641
0.264639
0.264638
0.264636
0.264634
0.264632
0.26463
0.264628
0.264626
0.264624
0.264622
0.26462
0.264618
0.264616
0.264614
0.264612
0.26461
0.264608
0.264606
0.264604
0.264602
0.2646
0.264598
0.264596
0.264594
0.264593
0.264591
0.264589
0.264587
0.264585
0.264583
0.264581
0.264579
0.264577
0.264575
0.264573
0.264571
0.264569
0.264567
0.264565
0.264563
0.264561
0.264559
0.264557
0.264555
0.264553
0.264551
0.264549
0.264547
0.264545
0.264543
0.264541
0.26454
0.264538
0.264536
0.264534
0.264532
0.26453
0.264528
0.264526
0.264524
0.264522
0.26452
0.264518
0.264516
0.264514
0.264512
0.26451
0.264508
0.264506
0.264504
0.264502
0.2645
0.264498
0.264496
0.264494
0.264492
0.26449
0.264488
0.264486
0.264484
0.264482
0.26448
0.264478
0.264476
0.264474
0.264472
0.26447
0.264468
0.264467
0.264465
0.264463
0.264461
0.264459
0.264457
0.264455
0.264453
0.264451
0.264449
0.264447
0.264445
0.264443
0.264441
0.264439
0.264437
0.264435
0.264433
0.264431
0.264429
0.264427
0.264425
0.264423
0.264421
0.264419
0.264417
0.264415
0.264413
0.264411
0.264409
0.264407
0.264405
0.264403
0.264401
0.264399
0.264397
0.264395
0.264393
0.264391
0.264389
0.264387
0.264385
0.264383
0.264381
0.264379
0.264377
0.264375
0.264373
0.264371
0.264369
0.264367
0.264365
0.264363
0.264361
0.264359
0.264357
0.264355
0.264353
0.264351
0.264349
0.264347
0.264345
0.264343
0.264341
0.264339
0.264337
0.264335
0.264333
0.264331
0.264329
0.264327
0.264325
0.264323
0.264321
0.264319
0.264317
0.264315
0.264313
0.264311
0.264309
0.264307
0.264305
0.264303
0.264301
0.264299
0.264297
0.264295
0.264293
0.264291
0.264289
0.264287
0.264285
0.264283
0.264281
0.264279
0.264277
0.264275
0.264273
0.264271
0.264269
0.264267
0.264265
0.264263
0.264261
0.264259
0.264257
0.264255
0.264253
0.264251
0.264249
0.264247
0.264245
0.264243
0.264241
0.264239
0.264237
0.264235
0.264233
0.264231
0.264229
0.264227
0.264225
0.264223
0.264221
0.264219
0.264217
0.264215
0.264213
0.264211
0.264209
0.264207
0.264205
0.264203
0.264201
0.264199
0.264197
0.264195
0.264193
0.264191
0.264188
0.264186
0.264184
0.264182
0.26418
0.264178
0.264176
0.264174
0.264172
0.26417
0.264168
0.264166
0.264164
0.264162
0.26416
0.264158
0.264156
0.264154
0.264152
0.26415
0.264148
0.264146
0.264144
0.264142
0.26414
0.264138
0.264136
0.264134
0.264132
0.26413
0.264128
0.264126
0.264124
0.264122
0.26412
0.264118
0.264116
0.264114
0.264112
0.26411
0.264107
0.264105
0.264103
0.264101
0.264099
0.264097
0.264095
0.264093
0.264091
0.264089
0.264087
0.264085
0.264083
0.264081
0.264079
0.264077
0.264075
0.264073
0.264071
0.264069
0.264067
0.264065
0.264063
0.264061
0.264059
0.264057
0.264055
0.264053
0.264051
0.264048
0.264046
0.264044
0.264042
0.26404
0.264038
0.264036
0.264034
0.264032
0.26403
0.264028
0.264026
0.264024
0.264022
0.26402
0.264018
0.264016
0.264014
0.264012
0.26401
0.264008
0.264006
0.264004
0.264002
0.264
0.263997
0.263995
0.263993
0.263991
0.263989
0.263987
0.263985
0.263983
0.263981
0.263979
0.263977
0.263975
0.263973
0.263971
0.263969
0.263967
0.263965
0.263963
0.263961
0.263959
0.263957
0.263954
0.263952
0.26395
0.263948
0.263946
0.263944
0.263942
0.26394
0.263938
0.263936
0.263934
0.263932
0.26393
0.263928
0.263926
0.263924
0.263922
0.26392
0.263918
0.263916
0.263913
0.263911
0.263909
0.263907
0.263905
0.263903
0.263901
0.263899
0.263897
0.263895
0.263893
0.263891
0.263889
0.263887
0.263885
0.263883
0.263881
0.263879
0.263876
0.263874
0.263872
0.26387
0.263868
0.263866
0.263864
0.263862
0.26386
0.263858
0.263856
0.263854
0.263852
0.26385
0.263848
0.263846
0.263844
0.263842
0.263839
0.263837
0.263835
0.263833
0.263831
0.263829
0.263827
0.263825
0.263823
0.263821
0.263819
0.263817
0.263815
0.263813
0.263811
0.263809
0.263806
0.263804
0.263802
0.2638
0.263798
0.263796
0.263794
0.263792
0.26379
0.263788
0.263786
0.263784
0.263782
0.26378
0.263778
0.263775
0.263773
0.263771
0.263769
0.263767
0.263765
0.263763
0.263761
0.263759
0.263757
0.263755
0.263753
0.263751
0.263749
0.263747
0.263744
0.263742
0.26374
0.263738
0.263736
0.263734
0.263732
0.26373
0.263728
0.263726
0.263724
0.263722
0.26372
0.263718
0.263716
0.263713
0.263711
0.263709
0.263707
0.263705
0.263703
0.263701
0.263699
0.263697
0.263695
0.263693
0.263691
0.263689
0.263687
0.263684
0.263682
0.26368
0.263678
0.263676
0.263674
0.263672
0.26367
0.263668
0.263666
0.263664
0.263662
0.26366
0.263658
0.263655
0.263653
0.263651
0.263649
0.263647
0.263645
0.263643
0.263641
0.263639
0.263637
0.263635
0.263633
0.263631
0.263628
0.263626
0.263624
0.263622
0.26362
0.263618
0.263616
0.263614
0.263612
0.26361
0.263608
0.263606
0.263604
0.263601
0.263599
0.263597
0.263595
0.263593
0.263591
0.263589
0.263587
0.263585
0.263583
0.263581
0.263579
0.263577
0.263574
0.263572
0.26357
0.263568
0.263566
0.263564
0.263562
0.26356
0.263558
0.263556
0.263554
0.263552
0.26355
0.263547
0.263545
0.263543
0.263541
0.263539
0.263537
0.263535
0.263533
0.263531
0.263529
0.263527
0.263525
0.263522
0.26352
0.263518
0.263516
0.263514
0.263512
0.26351
0.263508
0.263506
0.263504
0.263502
0.2635
0.263498
0.263495
0.263493
0.263491
0.263489
0.263487
0.263485
0.263483
0.263481
0.263479
0.263477
0.263475
0.263473
0.26347
0.263468
0.263466
0.263464
0.263462
0.26346
0.263458
0.263456
0.263454
0.263452
0.26345
0.263448
0.263446
0.263443
0.263441
0.263439
0.263437
0.263435
0.263433
0.263431
0.263429
0.263427
0.263425
0.263423
0.263421
0.263418
0.263416
0.263414
0.263412
0.26341
0.263408
0.263406
0.263404
0.263402
0.2634
0.263398
0.263396
0.263394
0.263391
0.263389
0.263387
0.263385
0.263383
0.263381
0.263379
0.263377
0.263375
0.263373
0.263371
0.263369
0.263366
0.263364
0.263362
0.26336
0.263358
0.263356
0.263354
0.263352
0.26335
0.263348
0.263346
0.263344
0.263341
0.263339
0.263337
0.263335
0.263333
0.263331
0.263329
0.263327
0.263325
0.263323
0.263321
0.263319
0.263317
0.263314
0.263312
0.26331
0.263308
0.263306
0.263304
0.263302
0.2633
0.263298
0.263296
0.263294
0.263292
0.26329
0.263287
0.263285
0.263283
0.263281
0.263279
0.263277
0.263275
0.263273
0.263271
0.263269
0.263267
0.263265
0.263263
0.26326
0.263258
0.263256
0.263254
0.263252
0.26325
0.263248
0.263246
0.263244
0.263242
0.26324
0.263238
0.263236
0.263233
0.263231
0.263229
0.263227
0.263225
0.263223
0.263221
0.263219
0.263217
0.263215
0.263213
0.263211
0.263209
0.263207
0.263204
0.263202
0.2632
0.263198
0.263196
0.263194
0.263192
0.26319
0.263188
0.263186
0.263184
0.263182
0.26318
0.263178
0.263175
0.263173
0.263171
0.263169
0.263167
0.263165
0.263163
0.263161
0.263159
0.263157
0.263155
0.263153
0.263151
0.263149
0.263147
0.263144
0.263142
0.26314
0.263138
0.263136
0.263134
0.263132
0.26313
0.263128
0.263126
0.263124
0.263122
0.26312
0.263118
0.263116
0.263114
0.263111
0.263109
0.263107
0.263105
0.263103
0.263101
0.263099
0.263097
0.263095
0.263093
0.263091
0.263089
0.263087
0.263085
0.263083
0.263081
0.263079
0.263076
0.263074
0.263072
0.26307
0.263068
0.263066
0.263064
0.263062
0.26306
0.263058
0.263056
0.263054
0.263052
0.26305
0.263048
0.263046
0.263044
0.263042
0.26304
0.263038
0.263035
0.263033
0.263031
0.263029
0.263027
0.263025
0.263023
0.263021
0.263019
0.263017
0.263015
0.263013
0.263011
0.263009
0.263007
0.263005
0.263003
0.263001
0.262999
0.262997
0.262995
0.262993
0.262991
0.262988
0.262986
0.262984
0.262982
0.26298
0.262978
0.262976
0.262974
0.262972
0.26297
0.262968
0.262966
0.262964
0.262962
0.26296
0.262958
0.262956
0.262954
0.262952
0.26295
0.262948
0.262946
0.262944
0.262942
0.26294
0.262938
0.262936
0.262934
0.262932
0.26293
0.262928
0.262926
0.262924
0.262922
0.26292
0.262917
0.262915
0.262913
0.262911
0.262909
0.262907
0.262905
0.262903
0.262901
0.262899
0.262897
0.262895
0.262893
0.262891
0.262889
0.262887
0.262885
0.262883
0.262881
0.262879
0.262877
0.262875
0.262873
0.262871
0.262869
0.262867
0.262865
0.262863
0.262861
0.262859
0.262857
0.262855
0.262853
0.262851
0.262849
0.262847
0.262845
0.262843
0.262841
0.262839
0.262837
0.262835
0.262833
0.262831
0.262829
0.262827
0.262825
0.262823
0.262821
0.262819
0.262817
0.262815
0.262813
0.262812
0.26281
0.262808
0.262806
0.262804
0.262802
0.2628
0.262798
0.262796
0.262794
0.262792
0.26279
0.262788
0.262786
0.262784
0.262782
0.26278
0.262778
0.262776
0.262774
0.262772
0.26277
0.262768
0.262766
0.262764
0.262762
0.26276
0.262758
0.262756
0.262755
0.262753
0.262751
0.262749
0.262747
0.262745
0.262743
0.262741
0.262739
0.262737
0.262735
0.262733
0.262731
0.262729
0.262727
0.262725
0.262723
0.262722
0.26272
0.262718
0.262716
0.262714
0.262712
0.26271
0.262708
0.262706
0.262704
0.262702
0.2627
0.262698
0.262697
0.262695
0.262693
0.262691
0.262689
0.262687
0.262685
0.262683
0.262681
0.262679
0.262677
0.262676
0.262674
0.262672
0.26267
0.262668
0.262666
0.262664
0.262662
0.26266
0.262658
0.262657
0.262655
0.262653
0.262651
0.262649
0.262647
0.262645
0.262643
0.262642
0.26264
0.262638
0.262636
0.262634
0.262632
0.26263
0.262628
0.262627
0.262625
0.262623
0.262621
0.262619
0.262617
0.262615
0.262614
0.262612
0.26261
0.262608
0.262606
0.262604
0.262603
0.262601
0.262599
0.262597
0.262595
0.262593
0.262591
0.26259
0.262588
0.262586
0.262584
0.262582
0.262581
0.262579
0.262577
0.262575
0.262573
0.262571
0.26257
0.262568
0.262566
0.262564
0.262562
0.262561
0.262559
0.262557
0.262555
0.262553
0.262552
0.26255
0.262548
0.262546
0.262545
0.262543
0.262541
0.262539
0.262537
0.262536
0.262534
0.262532
0.26253
0.262529
0.262527
0.262525
0.262523
0.262522
0.26252
0.262518
0.262516
0.262515
0.262513
0.262511
0.262509
0.262508
0.262506
0.262504
0.262502
0.262501
0.262499
0.262497
0.262496
0.262494
0.262492
0.26249
0.262489
0.262487
0.262485
0.262484
0.262482
0.26248
0.262479
0.262477
0.262475
0.262474
0.262472
0.26247
0.262468
0.262467
0.262465
0.262463
0.262462
0.26246
0.262458
0.262457
0.262455
0.262454
0.262452
0.26245
0.262449
0.262447
0.262445
0.262444
0.262442
0.26244
0.262439
0.262437
0.262436
0.262434
0.262432
0.262431
0.262429
0.262428
0.262426
0.262424
0.262423
0.262421
0.26242
0.262418
0.262416
0.262415
0.262413
0.262412
0.26241
0.262409
0.262407
0.262406
0.262404
0.262402
0.262401
0.262399
0.262398
0.262396
0.262395
0.262393
0.262392
0.26239
0.262389
0.262387
0.262386
0.262384
0.262383
0.262381
0.26238
0.262378
0.262377
0.262375
0.262374
0.262372
0.262371
0.262369
0.262368
0.262366
0.262365
0.262364
0.262362
0.262361
0.262359
0.262358
0.262356
0.262355
0.262354
0.262352
0.262351
0.262349
0.262348
0.262347
0.262345
0.262344
0.262342
0.262341
0.26234
0.262338
0.262337
0.262336
0.262334
0.262333
0.262332
0.26233
0.262329
0.262328
0.262326
0.262325
0.262324
0.262322
0.262321
0.26232
0.262318
0.262317
0.262316
0.262315
0.262313
0.262312
0.262311
0.262309
0.262308
0.262307
0.262306
0.262305
0.262303
0.262302
0.262301
0.2623
0.262298
0.262297
0.262296
0.262295
0.262294
0.262293
0.262291
0.26229
0.262289
0.262288
0.262287
0.262286
0.262284
0.262283
0.262282
0.262281
0.26228
0.262279
0.262278
0.262277
0.262276
0.262275
0.262274
0.262272
0.262271
0.26227
0.262269
0.262268
0.262267
0.262266
0.262265