/*--------------------------------*- C++ -*----------------------------------*\
  =========                 |
  \\      /  F ield         | OpenFOAM: The Open Source CFD Toolbox
   \\    /   O peration     | Website:  https://openfoam.org
    \\  /    A nd           | Version:  9
     \\/     M anipulation  |
\*---------------------------------------------------------------------------*/
FoamFile
{
    format      ascii;
    class       volScalarField;
    location    "0.036";
    object      ddt0(rho,e);
}
// * * * * * * * * * * * * * * * * * * * * * * * * * * * * * * * * * * * * * //

dimensions      [1 -1 -3 0 0 0 0];

internalField   nonuniform List<scalar> 
1000
(
812128
811514
810590
809690
809060
808241
807002
805860
805339
805166
804537
803068
801253
799998
799779
800237
800473
799706
797780
795241
793002
791847
792050
793279
794792
795758
795546
793903
791002
787369
783712
780708
778888
778562
779806
782437
786060
790208
794379
798110
801010
802887
803815
803954
803883
804047
804974
808244
814921
815764
816248
816124
816448
815933
816468
815533
816321
815385
815729
815583
815251
815197
815152
815297
814333
815964
813501
815917
813982
814307
815582
812715
815758
813676
813354
815794
812166
814499
814757
811594
815280
813546
811540
815581
812551
811491
815598
811883
811212
815543
811625
810588
815441
811804
809608
815057
812528
808504
814070
813795
807819
812140
815127
808307
809325
815532
810410
806676
813846
813500
806012
809890
815397
808555
805717
813671
812935
804886
808453
814990
808823
804057
811481
813705
805340
805198
813247
811058
803404
806962
813467
808420
802657
808360
812825
806184
802521
809183
811786
804576
802374
809540
810811
803346
802069
809386
810203
802471
801312
808887
809974
801982
800142
807828
810090
802094
798641
806027
810317
803024
797197
803354
810092
804801
796532
799889
808668
806969
797409
796380
805410
808532
800044
794172
800577
808022
803617
794535
795619
804620
806192
797546
792667
799076
805838
801655
793048
793588
801982
804346
796492
790643
795719
803389
801130
791983
789782
797736
803310
797433
788449
789575
798927
802243
794061
785841
789231
799020
800708
791412
783945
788434
798033
798813
789433
782624
787233
796196
796702
787788
781400
785741
794214
794601
786004
779693
783880
792364
793095
784328
777163
780856
790183
792463
783750
774631
776263
786284
791588
784731
773733
771430
780168
788533
785736
774843
768360
773522
783026
784725
776130
767096
767990
776755
781998
776468
766022
762926
769471
778576
776612
767202
759199
759555
769026
776637
770086
760775
754895
755239
764213
772466
763654
755455
751534
751246
759670
765025
755823
750445
748395
747567
755338
755964
749319
746610
743461
746375
748638
749649
744512
740344
735277
735989
737161
738220
736170
731889
727837
727016
728799
729384
727096
722863
719795
719296
720411
720155
716946
712432
709790
709988
711037
710329
706872
701666
697843
697627
699075
699440
696561
691178
686601
685062
685933
685886
683287
678725
674554
672646
673003
672868
669965
665168
660384
657979
658500
659607
657869
652713
646947
643363
642637
643461
643221
640018
634842
630560
628738
628703
628553
626091
620980
616329
614738
615327
615966
614791
610805
605062
601170
600822
602157
602871
601337
597183
592629
590727
591365
592045
591351
588663
584483
581805
582641
584927
585556
583941
580419
576238
574622
576586
579252
579733
578023
575452
573259
573160
575259
576975
576099
573392
571033
570480
572320
575539
577577
576397
572984
570449
570643
572934
575462
576602
575710
573632
572290
573387
576508
579090
578931
576326
573625
573057
575175
578490
580767
580753
578962
577137
576944
578654
581293
583005
582333
579867
578148
579236
582343
585252
586350
585437
583450
581737
582007
584523
587334
588237
586821
584971
584321
585611
588427
591169
591942
590222
587694
586674
588171
591029
593374
593817
592412
590632
590267
591917
594607
596638
596785
595120
593073
592464
594015
596823
599100
599568
598283
596336
595607
597190
600328
602782
602659
600528
598402
598153
600028
602815
604803
604803
603249
601590
601646
603506
606030
607733
607825
606564
604915
604317
605445
608044
610272
610723
609271
607377
606922
608518
611248
613290
613598
612390
610748
610067
611008
613254
615538
616442
615513
613559
612477
613346
615838
618366
619387
618550
616825
615878
616540
618624
620907
621976
621310
619726
618487
618829
620587
622750
623947
623526
622073
620672
620762
622478
625037
626803
626776
625239
623609
623564
625348
627970
629737
629749
628411
627016
626820
628018
630082
631855
632597
632100
630773
629838
630104
631916
634369
635950
635796
634032
632361
632177
634092
636855
638679
638587
636672
634874
634644
636564
639452
641433
641240
639314
637365
637087
639157
642196
644331
644201
642219
640119
639842
641790
644797
646882
646746
644909
642981
642776
644645
647437
649203
649031
647252
645629
645658
647455
650065
651632
651441
649846
648370
648428
650072
652512
654009
653800
652441
650931
651194
652789
655302
656751
656430
654881
653162
653465
655094
658042
659623
659438
657647
655784
655871
657699
660552
662498
661944
660229
657929
657943
659972
662874
665543
664879
663672
660736
660796
662093
665121
667593
667238
666438
663322
663826
664155
667777
669565
669982
669451
666023
667383
665790
670777
670595
672723
671695
668753
670928
667536
674170
671704
676063
673862
672431
673825
670156
676849
672489
679724
674174
677360
674627
673742
678594
673447
683819
674005
684019
674350
680415
678025
677988
684481
676562
687518
675171
685584
676999
683103
682930
681287
688141
679262
688593
679705
686518
683550
686005
686993
685552
688685
683074
689945
682867
690402
686418
690241
688635
689532
689659
686843
693639
684640
696969
686996
694711
691539
690455
693902
690052
694504
691348
697417
689332
700969
688192
699422
692346
695277
698276
691892
703027
690235
702991
693033
699204
697489
696028
702837
692298
706504
694164
701214
701746
696220
704104
696458
705415
696086
705248
700498
699981
705159
698589
705987
697360
708895
697462
704138
708389
692751
715419
694960
705848
707298
697732
708243
702631
704135
702007
709167
699347
704667
709283
697171
707216
706608
698813
705066
708808
696409
705395
710338
692820
707606
708177
693621
704242
711026
689878
704934
709969
688513
706378
703576
694535
699801
702876
696526
695069
702325
696390
693014
699445
697357
689628
697836
696008
688170
695601
693328
688849
691159
692649
687163
688021
692003
683903
686432
690174
681931
683879
688322
681322
680590
686259
680998
678289
682697
680603
677877
677858
680134
678817
673337
679064
680149
670984
676918
680225
671535
674727
678077
673821
674684
674453
674909
677191
672717
674060
679631
673892
672965
681487
675836
672858
682127
680946
671629
682061
684933
677916
676253
689755
681794
682236
682472
692842
680919
690713
686551
695108
683682
698183
690342
697877
688532
703385
694917
701098
695292
706292
700146
705365
702524
707442
706716
709645
709278
707813
714872
713862
712168
713453
718965
719384
715180
717922
724408
721925
720571
722634
725470
726464
727192
725260
726313
730054
733187
729336
727032
731919
738163
733438
728974
734451
741304
735819
731492
737775
744487
738136
732631
738593
747863
744224
735075
735028
745938
751121
745434
734481
738400
748447
753242
746673
738298
740025
749065
753390
751010
741416
741743
748010
752475
751863
747104
742890
746451
749850
750898
748639
745052
743336
743935
745707
744774
742871
739389
736362
733493
733882
730861
729637
724613
721314
716193
714934
710626
709753
705025
702445
698054
696327
693647
693353
691831
690285
690535
688134
688294
688133
691938
690029
692148
693336
695222
694492
698953
698611
700241
701248
704897
704340
706921
706425
709105
709408
)
;

boundaryField
{
    sides
    {
        type            calculated;
        value           nonuniform List<scalar> 2(709408 812128);
    }
    empty
    {
        type            empty;
    }
}


// ************************************************************************* //
