/*--------------------------------*- C++ -*----------------------------------*\
  =========                 |
  \\      /  F ield         | OpenFOAM: The Open Source CFD Toolbox
   \\    /   O peration     | Website:  https://openfoam.org
    \\  /    A nd           | Version:  9
     \\/     M anipulation  |
\*---------------------------------------------------------------------------*/
FoamFile
{
    format      ascii;
    class       surfaceScalarField;
    location    "0.036";
    object      ddtCorrDdt0(phi);
}
// * * * * * * * * * * * * * * * * * * * * * * * * * * * * * * * * * * * * * //

dimensions      [1 0 -2 0 0 0 0];

internalField   nonuniform List<scalar> 
999
(
-229.801
-252.715
-275.584
-298.41
-321.17
-343.842
-366.526
-389.356
-412.328
-435.29
-458.079
-480.655
-503.149
-525.76
-548.601
-571.572
-594.395
-616.899
-639.169
-661.434
-683.893
-706.61
-729.61
-752.841
-776.04
-798.92
-821.36
-843.45
-865.294
-886.841
-908.286
-930.011
-952.282
-975.14
-998.438
-1022.41
-1047
-1071.72
-1096.18
-1120.18
-1144.1
-1167.46
-1190.25
-1212.88
-1235.85
-1259.63
-1282.64
-1308.29
-1332.32
-1356.25
-1378.85
-1401.06
-1424.09
-1447.08
-1469.7
-1492.75
-1515.78
-1538.31
-1561.01
-1583.62
-1606.15
-1628.88
-1651.78
-1674.53
-1697.61
-1720.24
-1743.01
-1765.84
-1788.08
-1811.27
-1833.6
-1856.5
-1879.65
-1901.79
-1925.16
-1947.49
-1969.78
-1993.29
-2015.19
-2038.17
-2061.61
-2083.29
-2106.69
-2129.73
-2151.13
-2174.76
-2197.59
-2218.91
-2242.88
-2265.86
-2287.06
-2311.1
-2334.26
-2355
-2378.76
-2402.44
-2422.91
-2446.17
-2470.75
-2491.35
-2513.51
-2538.82
-2560.19
-2580.82
-2606.12
-2629.26
-2648.78
-2672.78
-2698.06
-2717.91
-2739.26
-2765.47
-2787.66
-2806.67
-2831.31
-2856.81
-2876.17
-2897.17
-2923.87
-2946.78
-2965.19
-2988.93
-3015.48
-3035.73
-3054.98
-3080.89
-3106.04
-3124.75
-3145.79
-3172.71
-3196.07
-3214.27
-3236.94
-3263.97
-3285.79
-3304.1
-3328.1
-3354.85
-3375.61
-3394.23
-3419.13
-3445.61
-3465.63
-3484.46
-3509.91
-3536.36
-3556.02
-3574.74
-3600.43
-3627.2
-3646.81
-3664.99
-3690.46
-3717.89
-3737.99
-3755.34
-3779.97
-3808.36
-3829.77
-3846.28
-3869.24
-3898.34
-3921.92
-3938.11
-3958.49
-3987.32
-4013.72
-4030.97
-4048.48
-4075.35
-4104.4
-4124.6
-4140.15
-4163.29
-4193.33
-4217.86
-4233.8
-4252.53
-4280.74
-4309.29
-4328.56
-4344.35
-4368.11
-4398.16
-4422.59
-4438.72
-4457.34
-4485.21
-4514.16
-4534.26
-4549.79
-4572.42
-4602.61
-4628.79
-4645.58
-4662.33
-4688.71
-4719.57
-4742.64
-4757.38
-4776.08
-4805.32
-4835.94
-4856.46
-4870.24
-4890.71
-4921.77
-4951.94
-4970.89
-4984.37
-5005.99
-5037.84
-5067.58
-5085.96
-5099.72
-5121.9
-5153.72
-5183.16
-5201.71
-5215.98
-5238.38
-5270.04
-5299.36
-5318.09
-5332.59
-5355.09
-5386.96
-5416.77
-5435.69
-5449.56
-5471.35
-5503.77
-5535.41
-5555.49
-5568.17
-5587.53
-5619.4
-5653.82
-5677.27
-5690.01
-5705.7
-5734.48
-5770.47
-5798.93
-5814.55
-5827.66
-5851.55
-5886.33
-5918.97
-5939.4
-5952.4
-5971.95
-6004.03
-6038.79
-6063.59
-6079.28
-6095.42
-6120.88
-6160.47
-6191.76
-6206.39
-6221.82
-6246.42
-6269.98
-6318.08
-6342.95
-6354.69
-6371.73
-6399.43
-6420.33
-6473.48
-6494.69
-6508.19
-6525.34
-6555.26
-6576.41
-6627.13
-6646.21
-6663.44
-6680.73
-6713.35
-6734.14
-6779.65
-6799.92
-6820.41
-6839.87
-6852.7
-6879.34
-6940.21
-6950.06
-6983.42
-7006.81
-7043.76
-7070.92
-7102.25
-7134.22
-7160.67
-7182.29
-7209.05
-7241.53
-7272.79
-7301.55
-7328.41
-7354.5
-7382.96
-7415.63
-7449.19
-7479.07
-7505.32
-7531.87
-7562.3
-7596.05
-7629.33
-7659.13
-7685.62
-7712.27
-7743.34
-7778.99
-7815.33
-7848.18
-7876.25
-7902.93
-7932.92
-7967.61
-8003.72
-8037.1
-8066.86
-8095.47
-8126.53
-8161.64
-8198.39
-8232.45
-8262.52
-8290.9
-8321.24
-8356.07
-8393.95
-8430.03
-8460.91
-8488.47
-8517.47
-8550.84
-8587.96
-8625.36
-8659.05
-8688.19
-8716.12
-8746.73
-8780.91
-8816.49
-8849.91
-8878.89
-8905.76
-8935.43
-8969.39
-9005.01
-9038.78
-9068.17
-9093.16
-9117.81
-9146.77
-9179.89
-9213.51
-9244.16
-9270.1
-9292.97
-9317.48
-9346.25
-9376.94
-9406.02
-9431.59
-9453.49
-9474.83
-9500.13
-9529.4
-9558.03
-9582.71
-9603.21
-9620.95
-9639.96
-9664.12
-9691.78
-9717.69
-9739.19
-9757.45
-9774.79
-9793.93
-9816.58
-9840.55
-9861.49
-9878.11
-9893.11
-9909.84
-9930.21
-9953.82
-9977.38
-9996.61
-10010.5
-10022.8
-10038.2
-10057.9
-10079.6
-10100.1
-10117.3
-10131.5
-10145.1
-10161.6
-10182.2
-10204.2
-10223
-10236.8
-10248.1
-10261.3
-10278.9
-10300
-10321.4
-10339.6
-10353.9
-10366.5
-10380.6
-10398.2
-10418.4
-10438.7
-10455.8
-10468.9
-10481
-10496.4
-10516.4
-10538.2
-10558
-10574.2
-10587.5
-10600
-10614.7
-10633.5
-10654.8
-10674.6
-10690.3
-10703.3
-10717.1
-10733.9
-10754
-10775.7
-10795.4
-10810.9
-10823.1
-10836.1
-10853
-10873.7
-10895.3
-10914.6
-10930.2
-10943.6
-10957.9
-10975.6
-10996.4
-11017.6
-11036.3
-11051.4
-11064.4
-11078.5
-11096.2
-11117.3
-11139.2
-11158.8
-11175
-11188.6
-11202.9
-11220.6
-11242.2
-11264.8
-11284.1
-11298.8
-11311.6
-11326.3
-11345
-11366.9
-11388.9
-11408.2
-11423.9
-11437.9
-11453.5
-11472.7
-11494.4
-11516
-11535.1
-11551.3
-11565.7
-11580.9
-11598.9
-11620.2
-11642.7
-11663.1
-11679.7
-11693.9
-11709.1
-11727.9
-11750
-11772.6
-11792.8
-11809.7
-11824.5
-11839.9
-11858.1
-11879.3
-11902
-11923.3
-11941.3
-11956.4
-11971.3
-11989.1
-12010.7
-12034.1
-12056
-12074.4
-12089.9
-12105.3
-12123.3
-12144.5
-12167.4
-12189.3
-12208.2
-12224.2
-12239.6
-12257.1
-12277.8
-12300.5
-12322.6
-12342
-12358.7
-12374.3
-12391.5
-12412.2
-12435.5
-12458.9
-12479.5
-12496.7
-12512.1
-12529.1
-12549.9
-12573.5
-12597.1
-12618
-12635.6
-12651.7
-12669
-12689.2
-12711.8
-12735.2
-12757.1
-12776.7
-12794
-12810.8
-12829.4
-12850.9
-12875
-12898.8
-12919.8
-12937.2
-12952.9
-12970.4
-12991.8
-13016.5
-13041.2
-13062.8
-13080.2
-13095.8
-13113.3
-13134.8
-13159.9
-13185.1
-13206.9
-13224.4
-13240
-13257.5
-13279.4
-13305.1
-13330.9
-13353.2
-13371
-13386.5
-13404
-13426
-13451.7
-13477.7
-13500.1
-13518.2
-13534.3
-13552.2
-13574.4
-13600.1
-13625.7
-13648
-13666.4
-13683.1
-13701.8
-13724.5
-13750.1
-13775.5
-13797.8
-13816.5
-13833.8
-13853
-13875.7
-13901.3
-13926.7
-13949.1
-13968.3
-13986
-14005.6
-14028.7
-14054.5
-14080.2
-14102.7
-14121.7
-14139.1
-14158.6
-14182.1
-14208.7
-14235.3
-14258.3
-14277.4
-14294.5
-14313.9
-14337.6
-14364.6
-14391.8
-14415
-14434
-14450.9
-14469.9
-14494
-14521.5
-14549.9
-14574.1
-14593.8
-14610.8
-14629.3
-14652.9
-14680
-14708.5
-14733.1
-14753.8
-14771.3
-14790.3
-14813.4
-14840.3
-14869
-14893.9
-14916.1
-14933.8
-14953.7
-14975.8
-15002.3
-15030.5
-15055.4
-15079.3
-15097.1
-15118.7
-15139.9
-15166.4
-15194.2
-15219.2
-15244.6
-15263
-15285.8
-15305.9
-15332.5
-15358.3
-15384.7
-15409.8
-15429.9
-15453.5
-15472.2
-15500.1
-15522.9
-15552.4
-15576.3
-15599.8
-15623.5
-15642.4
-15670.3
-15690.7
-15722
-15743.8
-15771
-15792.8
-15814
-15839.9
-15860.4
-15891.4
-15912.9
-15943.1
-15964.4
-15988.7
-16013.1
-16034.4
-16063.1
-16086.4
-16114.7
-16138.1
-16164.3
-16185.3
-16211
-16234.9
-16259.6
-16288.3
-16312.3
-16339.4
-16362.9
-16388.5
-16409.5
-16439
-16460.7
-16489.4
-16517.1
-16538.8
-16569.2
-16588.5
-16616.2
-16640.5
-16666.1
-16692.6
-16721.2
-16743.6
-16773.1
-16796.8
-16819.8
-16850.4
-16870.2
-16903.1
-16924.1
-16955.5
-16978.8
-17004.2
-17033.4
-17054
-17085.4
-17107
-17139.7
-17160.7
-17191.3
-17219.7
-17238.8
-17274.8
-17294.4
-17323.7
-17350.3
-17378.4
-17404.4
-17430.7
-17463.2
-17483
-17515.9
-17541
-17569.1
-17594.6
-17625.6
-17653.1
-17674.2
-17716.2
-17728.8
-17765.8
-17796.6
-17811.9
-17856.4
-17873.9
-17903.4
-17938.4
-17961.6
-17989.5
-18025.1
-18050.7
-18073.9
-18116.5
-18136
-18162.9
-18205.4
-18224.2
-18252.3
-18296
-18315
-18341.1
-18390.7
-18404.9
-18432.4
-18484.6
-18497.4
-18523.8
-18579.3
-18592.1
-18616.2
-18676
-18686.5
-18714.6
-18768.2
-18785.4
-18813.8
-18858.8
-18888.3
-18911.7
-18953.9
-18990.1
-19012
-19050.9
-19091.8
-19113.5
-19149.4
-19193.5
-19215.8
-19250.9
-19293.7
-19320.3
-19353.3
-19394.7
-19425.4
-19455.2
-19498.2
-19529
-19557.7
-19602.9
-19633.2
-19661
-19706.4
-19739.4
-19765.2
-19808.5
-19845.5
-19870.8
-19909.5
-19948.9
-19978.3
-20010.4
-20049.4
-20086.4
-20112.4
-20148.1
-20192.7
-20216.4
-20246.5
-20293.8
-20320.6
-20346.8
-20389.6
-20421.8
-20450.2
-20483.9
-20516.7
-20552.7
-20581.6
-20608.8
-20649.7
-20680.4
-20701.7
-20742.6
-20776.6
-20794.1
-20832.2
-20872.6
-20886.6
-20916.5
-20963.3
-20985.3
-21000.5
-21044.4
-21079.2
-21095.3
-21122.7
-21163.9
-21187.8
-21210.6
-21244.2
-21275.8
-21297.1
-21326.5
-21361
-21385.5
-21407.7
-21440.2
-21474
-21495.3
-21520.5
-21552.4
-21583.9
-21607.2
-21635.2
-21662.8
-21693.5
-21721.4
-21750
-21772.4
-21805.4
-21839.3
-21860.7
-21885.6
-21920.9
-21955.2
-21975.6
-21999.5
-22039
-22071.1
-22092.1
-22119.8
-22153.7
-22186.3
-22216
-22241.6
-22267.9
-22302.6
-22340.5
-22367.7
-22387
-22419.3
-22464.2
-22495.3
-22511
-22541.7
-22589.2
-22620.8
-22636.3
-22669.1
-22718.3
-22749.2
-22762.2
-22793.6
-22846.4
-22886
-22898.7
-22914.8
-22963.7
-23017.3
-23049.5
-23054.3
-23079
-23131.6
-23180.8
-23218.4
-23222.8
-23243.6
-23296.7
-23346.3
-23386
-23396.7
-23418.9
-23463.1
-23510.8
-23554.3
-23581.2
-23598.5
-23638.1
-23685.6
-23726.6
-23769.7
-23798
-23826.5
-23873.8
-23920.4
-23967.5
-24014
-24053.9
-24093.8
-24140.3
-24191
-24245.2
-24300
-24349.8
-24398.5
-24448.4
-24500.1
-24555.4
-24610.9
-24662.9
-24712.5
-24759.6
-24805.6
-24853.3
-24900.2
-24945.6
-24988.5
-25027.9
-25065.1
-25099
-25134.1
-25172.9
-25207.3
-25237.5
-25271.1
-25303.6
-25332.6
-25365.2
-25398.3
-25427
-25457.8
-25492
-25524.1
-25554.8
-25585.3
-25617.4
-25650.6
)
;

boundaryField
{
    sides
    {
        type            calculated;
        value           nonuniform List<scalar> 2(-25684.5 206.886);
    }
    empty
    {
        type            empty;
        value           nonuniform List<scalar> 0();
    }
}


// ************************************************************************* //
