/*--------------------------------*- C++ -*----------------------------------*\
  =========                 |
  \\      /  F ield         | OpenFOAM: The Open Source CFD Toolbox
   \\    /   O peration     | Website:  https://openfoam.org
    \\  /    A nd           | Version:  9
     \\/     M anipulation  |
\*---------------------------------------------------------------------------*/
FoamFile
{
    format      ascii;
    class       volScalarField;
    location    "0.036";
    object      rho;
}
// * * * * * * * * * * * * * * * * * * * * * * * * * * * * * * * * * * * * * //

dimensions      [1 -3 0 0 0 0 0];

internalField   nonuniform List<scalar> 
1000
(
0.257451
0.257402
0.257318
0.257239
0.257166
0.257094
0.257021
0.256946
0.256872
0.256799
0.256727
0.256654
0.256581
0.256505
0.256431
0.256357
0.256286
0.256216
0.256145
0.256072
0.255997
0.255921
0.255845
0.255771
0.255701
0.255633
0.255567
0.2555
0.255432
0.255361
0.255286
0.255209
0.255129
0.25505
0.254972
0.254897
0.254827
0.254762
0.254702
0.254647
0.254596
0.254549
0.254503
0.254457
0.254413
0.254368
0.254324
0.254282
0.254246
0.254213
0.254181
0.25415
0.254118
0.254087
0.254055
0.254025
0.253991
0.253963
0.253927
0.2539
0.253864
0.253836
0.2538
0.253773
0.253738
0.253709
0.253676
0.253643
0.253615
0.253579
0.253551
0.253518
0.253485
0.253457
0.253422
0.253393
0.253361
0.253327
0.253299
0.253266
0.253233
0.253205
0.253171
0.25314
0.253111
0.253076
0.253046
0.253017
0.252982
0.252952
0.252924
0.252889
0.252858
0.25283
0.252796
0.252764
0.252737
0.252703
0.25267
0.252644
0.252611
0.252577
0.25255
0.25252
0.252484
0.252455
0.252428
0.252393
0.252361
0.252335
0.252303
0.252268
0.25224
0.252213
0.252177
0.252146
0.25212
0.252088
0.252054
0.252026
0.251999
0.251964
0.251932
0.251906
0.251876
0.251841
0.251812
0.251786
0.251754
0.25172
0.251692
0.251665
0.251632
0.251599
0.251572
0.251545
0.251511
0.25148
0.251453
0.251425
0.251392
0.251361
0.251335
0.251306
0.251273
0.251242
0.251216
0.251188
0.251154
0.251124
0.251099
0.25107
0.251037
0.251007
0.250981
0.250954
0.250921
0.25089
0.250864
0.250838
0.250806
0.250774
0.250748
0.250723
0.250692
0.25066
0.250632
0.250608
0.25058
0.250547
0.250518
0.250493
0.250467
0.250436
0.250405
0.250379
0.250355
0.250327
0.250295
0.250267
0.250243
0.250217
0.250187
0.250157
0.250131
0.250108
0.25008
0.250049
0.250022
0.249998
0.249973
0.249944
0.249915
0.249889
0.249867
0.249841
0.249811
0.249783
0.24976
0.249737
0.24971
0.249681
0.249655
0.249633
0.24961
0.249583
0.249554
0.249529
0.249508
0.249486
0.249459
0.249431
0.249407
0.249387
0.249364
0.249338
0.249311
0.249288
0.249268
0.249247
0.249221
0.249195
0.249173
0.249154
0.249133
0.249109
0.249084
0.249062
0.249044
0.249024
0.249001
0.248977
0.248956
0.248939
0.248921
0.248899
0.248875
0.248854
0.248838
0.248822
0.248803
0.24878
0.248759
0.248743
0.248729
0.248712
0.248692
0.248672
0.248655
0.248642
0.248628
0.248611
0.248592
0.248576
0.248563
0.248552
0.248537
0.24852
0.248504
0.248493
0.248484
0.248473
0.248459
0.248444
0.248432
0.248424
0.248417
0.248408
0.248396
0.248385
0.248375
0.24837
0.248366
0.248359
0.248351
0.248343
0.248337
0.248335
0.248333
0.248329
0.248324
0.248321
0.248319
0.24832
0.24832
0.24832
0.248319
0.248318
0.248319
0.248322
0.248325
0.24833
0.248334
0.248339
0.248346
0.248355
0.248365
0.248376
0.248386
0.248397
0.248409
0.248423
0.248438
0.248454
0.24847
0.248486
0.248505
0.248525
0.248547
0.248568
0.248591
0.248614
0.248639
0.248667
0.248696
0.248725
0.248754
0.248785
0.248817
0.248852
0.248889
0.248927
0.248965
0.249004
0.249045
0.249088
0.249134
0.24918
0.249227
0.249275
0.249326
0.249379
0.249433
0.249489
0.249546
0.249604
0.249664
0.249727
0.249792
0.249859
0.249926
0.249995
0.250065
0.250137
0.250213
0.25029
0.250368
0.250448
0.250529
0.250612
0.250697
0.250785
0.250874
0.250964
0.251055
0.251148
0.251244
0.251342
0.251441
0.251542
0.251643
0.251745
0.25185
0.251957
0.252066
0.252176
0.252287
0.252398
0.252512
0.252627
0.252744
0.252862
0.25298
0.253099
0.253219
0.253341
0.253465
0.25359
0.253716
0.253842
0.253968
0.254095
0.254223
0.254353
0.254484
0.254615
0.254747
0.254878
0.255011
0.255145
0.255279
0.255414
0.255549
0.255683
0.255819
0.255955
0.256092
0.256231
0.256368
0.256506
0.256643
0.256781
0.256919
0.257059
0.257198
0.257338
0.257477
0.257616
0.257756
0.257897
0.258038
0.25818
0.25832
0.25846
0.2586
0.258741
0.258883
0.259025
0.259168
0.259309
0.25945
0.259592
0.259734
0.259877
0.26002
0.260163
0.260305
0.260446
0.260589
0.260732
0.260876
0.26102
0.261163
0.261306
0.261449
0.261592
0.261736
0.26188
0.262024
0.262168
0.262312
0.262455
0.262599
0.262744
0.262889
0.263034
0.263179
0.263323
0.263467
0.263612
0.263757
0.263903
0.264048
0.264194
0.264338
0.264483
0.264629
0.264775
0.264922
0.265068
0.265214
0.265359
0.265505
0.265651
0.265797
0.265944
0.266091
0.266238
0.266384
0.26653
0.266677
0.266825
0.266973
0.26712
0.267268
0.267414
0.267561
0.267709
0.267857
0.268005
0.268153
0.268301
0.268449
0.268597
0.268745
0.268894
0.269043
0.269192
0.26934
0.269489
0.269637
0.269786
0.269935
0.270085
0.270235
0.270384
0.270533
0.270682
0.270832
0.270982
0.271133
0.271283
0.271433
0.271583
0.271733
0.271883
0.272034
0.272185
0.272336
0.272487
0.272638
0.272788
0.272939
0.27309
0.273242
0.273394
0.273546
0.273698
0.273849
0.274
0.274153
0.274305
0.274458
0.274611
0.274763
0.274915
0.275067
0.27522
0.275373
0.275526
0.275679
0.275832
0.275985
0.276138
0.276291
0.276445
0.276599
0.276753
0.276907
0.27706
0.277214
0.277368
0.277523
0.277678
0.277833
0.277987
0.278141
0.278296
0.278451
0.278606
0.278762
0.278917
0.279073
0.279228
0.279383
0.279539
0.279695
0.279851
0.280008
0.280165
0.280321
0.280477
0.280633
0.280789
0.280946
0.281104
0.281261
0.281418
0.281575
0.281732
0.281889
0.282047
0.282205
0.282363
0.282521
0.282679
0.282836
0.282994
0.283153
0.283312
0.283471
0.28363
0.283788
0.283946
0.284105
0.284265
0.284425
0.284584
0.284744
0.284903
0.285062
0.285222
0.285382
0.285543
0.285703
0.285863
0.286023
0.286183
0.286344
0.286505
0.286666
0.286827
0.286988
0.287149
0.28731
0.287471
0.287633
0.287795
0.287957
0.288119
0.28828
0.288442
0.288604
0.288767
0.28893
0.289093
0.289255
0.289417
0.28958
0.289742
0.289906
0.29007
0.290234
0.290397
0.29056
0.290723
0.290887
0.291051
0.291216
0.29138
0.291544
0.291708
0.291872
0.292036
0.292202
0.292367
0.292533
0.292698
0.292862
0.293027
0.293192
0.293358
0.293524
0.293691
0.293857
0.294022
0.294188
0.294353
0.294521
0.294687
0.294855
0.295021
0.295188
0.295354
0.29552
0.295689
0.295855
0.296025
0.296191
0.296359
0.296526
0.296693
0.296863
0.297029
0.2972
0.297366
0.297537
0.297704
0.297873
0.298042
0.29821
0.298382
0.298547
0.298721
0.298886
0.299059
0.299226
0.299397
0.299568
0.299735
0.29991
0.300074
0.300251
0.300414
0.300591
0.300757
0.300931
0.301102
0.301271
0.301446
0.301612
0.301788
0.301955
0.302131
0.302301
0.302473
0.302646
0.302816
0.302991
0.30316
0.303337
0.303506
0.303682
0.303852
0.304026
0.3042
0.304371
0.304547
0.304718
0.304895
0.305065
0.305243
0.305413
0.30559
0.305763
0.305937
0.306114
0.306284
0.306465
0.306634
0.306814
0.306985
0.307164
0.307337
0.307514
0.307689
0.307864
0.308044
0.308214
0.308398
0.308566
0.308751
0.308921
0.309103
0.309277
0.309455
0.309634
0.309809
0.30999
0.310165
0.310346
0.310523
0.3107
0.310883
0.311057
0.311242
0.311416
0.3116
0.311777
0.311958
0.312139
0.312318
0.312502
0.31268
0.312864
0.313044
0.313226
0.31341
0.31359
0.313777
0.313954
0.314145
0.314324
0.314509
0.314697
0.314877
0.315069
0.31525
0.315439
0.315625
0.315813
0.316
0.316189
0.31638
0.316567
0.31676
0.31695
0.31714
0.317334
0.317526
0.317719
0.317913
0.31811
0.318302
0.318502
0.318698
0.318894
0.319097
0.319295
0.319495
0.319698
0.319903
0.320101
0.320312
0.320515
0.320721
0.320932
0.32114
0.32135
0.321562
0.321776
0.321988
0.322204
0.322422
0.322639
0.322859
0.323081
0.323303
0.323525
0.323752
0.323978
0.324205
0.324436
0.324667
0.324899
0.325134
0.32537
0.325606
0.325846
0.326087
0.326328
0.326573
0.326818
0.327064
0.327313
0.327564
0.327814
0.328067
0.328323
0.328578
0.328835
0.329095
0.329355
0.329617
0.32988
0.330145
0.330411
0.330677
0.330946
0.331216
0.331485
0.331758
0.33203
0.332302
0.332578
0.332853
0.333128
0.333405
0.333682
0.33396
0.334238
0.334516
0.334795
0.335075
0.335354
0.335633
0.335914
0.336192
0.336472
0.336752
0.337031
0.337308
0.337589
0.337865
0.338143
0.338418
0.338698
0.338969
0.339248
0.339517
0.339797
0.34006
0.340342
0.340601
0.340883
0.341136
0.34142
0.341668
0.341951
0.342193
0.342479
0.342716
0.343
0.343232
0.343517
0.343744
0.344028
0.344251
0.344533
0.344753
0.345033
0.34525
0.345527
0.345743
0.346016
0.346229
0.3465
0.346712
0.346981
0.347188
0.347455
0.347662
0.347925
0.348129
0.348391
0.348594
0.348854
0.349054
0.349311
0.34951
0.349766
0.349964
0.350217
0.350412
0.350665
0.35086
0.35111
0.351302
0.351552
0.351745
0.351992
0.352182
0.352429
0.35262
0.352865
0.353053
0.353298
0.353488
0.353732
0.353918
0.35416
0.354348
0.354592
0.354778
0.355018
0.355204
0.355446
0.355633
0.355874
0.356057
0.356297
0.356483
0.356724
0.356909
0.357148
0.357332
0.357573
0.357758
0.358
0.358184
0.358426
0.358612
0.358856
0.359043
0.35929
0.359479
0.359728
0.359921
0.360176
0.360374
0.360636
0.360839
0.36111
0.361321
0.361602
0.361823
0.362118
0.362349
0.362657
0.3629
0.363224
0.363478
0.363817
0.364083
0.364436
0.364712
0.365078
0.365362
0.365737
0.366028
0.36641
0.366704
0.367088
0.367384
0.367768
0.368063
0.368444
0.368737
0.369114
0.369402
0.369774
0.370058
0.370425
0.370703
0.371064
0.371338
0.371694
0.371954
0.37232
0.372521
)
;

boundaryField
{
    sides
    {
        type            calculated;
        value           nonuniform List<scalar> 2(0.372521 0.257451);
    }
    empty
    {
        type            empty;
    }
}


// ************************************************************************* //
