/*--------------------------------*- C++ -*----------------------------------*\
  =========                 |
  \\      /  F ield         | OpenFOAM: The Open Source CFD Toolbox
   \\    /   O peration     | Website:  https://openfoam.org
    \\  /    A nd           | Version:  9
     \\/     M anipulation  |
\*---------------------------------------------------------------------------*/
FoamFile
{
    format      ascii;
    class       volScalarField;
    location    "0.03";
    object      p;
}
// * * * * * * * * * * * * * * * * * * * * * * * * * * * * * * * * * * * * * //

dimensions      [1 -1 -2 0 0 0 0];

internalField   nonuniform List<scalar> 
100
(
24590.4
24531.8
24411
24323.2
24245.3
24164.9
24084
24003.3
23924.4
23845.5
23767.8
23691.8
23615.5
23540.9
23467.8
23394.5
23322.7
23253
23183.9
23115.3
23048.7
22984.3
22920.9
22858.4
22797.7
22739.6
22684.3
22629.4
22576.9
22527.4
22480.5
22437.2
22396
22358.2
22324.9
22296.3
22273.7
22254.3
22243.2
22235.8
22234.4
22234.6
22235.4
22237.6
22242.8
22254.2
22277.7
22320.9
22379.9
22447.6
22522.7
22605.6
22697.3
22798.8
22909.4
23028.5
23156.4
23292.8
23437.4
23590
23749.5
23914.2
24083.7
24258.2
24437.2
24620.2
24806.6
24995.3
25186
25379.1
25575
25773.6
25974.5
26177.2
26382
26588.5
26796.5
27006
27216.7
27427.7
27638.2
27847.6
28054.6
28257.8
28456.2
28648.9
28834.6
29012.6
29181.8
29341.6
29491.1
29630.1
29758
29874.9
29980.4
30074.8
30158.3
30233.3
30302.6
30381.2
)
;

boundaryField
{
    sides
    {
        type            zeroGradient;
    }
    empty
    {
        type            empty;
    }
}


// ************************************************************************* //
