/*--------------------------------*- C++ -*----------------------------------*\
  =========                 |
  \\      /  F ield         | OpenFOAM: The Open Source CFD Toolbox
   \\    /   O peration     | Website:  https://openfoam.org
    \\  /    A nd           | Version:  9
     \\/     M anipulation  |
\*---------------------------------------------------------------------------*/
FoamFile
{
    format      ascii;
    class       volVectorField;
    location    "0.03";
    object      U;
}
// * * * * * * * * * * * * * * * * * * * * * * * * * * * * * * * * * * * * * //

dimensions      [0 1 -1 0 0 0 0];

internalField   nonuniform List<vector> 
100
(
(42.7419 0 0)
(46.8636 0 0)
(51.8504 0 0)
(55.5923 0 0)
(59.1914 0 0)
(62.9109 0 0)
(66.6731 0 0)
(70.4237 0 0)
(74.1714 0 0)
(77.9232 0 0)
(81.6517 0 0)
(85.3931 0 0)
(89.1313 0 0)
(92.8491 0 0)
(96.5836 0 0)
(100.314 0 0)
(104.017 0 0)
(107.727 0 0)
(111.453 0 0)
(115.153 0 0)
(118.825 0 0)
(122.507 0 0)
(126.201 0 0)
(129.872 0 0)
(133.507 0 0)
(137.13 0 0)
(140.761 0 0)
(144.387 0 0)
(147.979 0 0)
(151.535 0 0)
(155.077 0 0)
(158.61 0 0)
(162.122 0 0)
(165.592 0 0)
(169.014 0 0)
(172.399 0 0)
(175.751 0 0)
(179.053 0 0)
(182.304 0 0)
(185.505 0 0)
(188.667 0 0)
(191.83 0 0)
(194.995 0 0)
(198.15 0 0)
(201.272 0 0)
(204.316 0 0)
(207.208 0 0)
(209.914 0 0)
(212.496 0 0)
(215.014 0 0)
(217.479 0 0)
(219.881 0 0)
(222.205 0 0)
(224.452 0 0)
(226.631 0 0)
(228.735 0 0)
(230.765 0 0)
(232.724 0 0)
(234.618 0 0)
(236.463 0 0)
(238.275 0 0)
(240.055 0 0)
(241.796 0 0)
(243.502 0 0)
(245.185 0 0)
(246.856 0 0)
(248.525 0 0)
(250.192 0 0)
(251.846 0 0)
(253.48 0 0)
(255.098 0 0)
(256.706 0 0)
(258.307 0 0)
(259.895 0 0)
(261.464 0 0)
(263.01 0 0)
(264.528 0 0)
(266.02 0 0)
(267.49 0 0)
(268.944 0 0)
(270.381 0 0)
(271.8 0 0)
(273.204 0 0)
(274.586 0 0)
(275.942 0 0)
(277.27 0 0)
(278.565 0 0)
(279.824 0 0)
(281.04 0 0)
(282.205 0 0)
(283.309 0 0)
(284.346 0 0)
(285.31 0 0)
(286.196 0 0)
(287.003 0 0)
(287.729 0 0)
(288.368 0 0)
(288.911 0 0)
(289.321 0 0)
(289.831 0 0)
)
;

boundaryField
{
    sides
    {
        type            zeroGradient;
    }
    empty
    {
        type            empty;
    }
}


// ************************************************************************* //
