/*--------------------------------*- C++ -*----------------------------------*\
  =========                 |
  \\      /  F ield         | OpenFOAM: The Open Source CFD Toolbox
   \\    /   O peration     | Website:  https://openfoam.org
    \\  /    A nd           | Version:  9
     \\/     M anipulation  |
\*---------------------------------------------------------------------------*/
FoamFile
{
    format      ascii;
    class       volScalarField;
    location    "0.008";
    object      T;
}
// * * * * * * * * * * * * * * * * * * * * * * * * * * * * * * * * * * * * * //

dimensions      [0 0 0 1 0 0 0];

internalField   nonuniform List<scalar> 
100
(
348.432
348.432
348.432
348.432
348.432
348.432
348.431
348.43
348.427
348.42
348.404
348.368
348.294
348.146
347.874
347.418
346.704
345.658
344.232
342.414
340.231
337.738
335.002
332.086
329.041
325.907
322.712
319.475
316.214
312.935
309.653
306.36
303.102
299.774
296.67
293.085
290.565
286.317
284.274
280.789
276.99
275.008
272.272
268.368
265.502
263.892
261.799
258.497
255.458
254.071
253.597
252.676
250.555
249.019
248.667
248.79
249.354
249.544
249.4
249.004
248.872
248.917
249.285
249.867
250.134
250.209
250.248
250.259
250.377
251.119
254.227
265.534
296.769
330.979
357.597
376.408
388.614
395.763
399.449
400.865
401.087
400.848
399.186
397.222
396.602
396.566
396.605
397.181
397.912
398.191
398.072
397.263
394.718
389.514
378.672
322.209
285.309
279.702
278.894
278.767
)
;

boundaryField
{
    sides
    {
        type            zeroGradient;
    }
    empty
    {
        type            empty;
    }
}


// ************************************************************************* //
