/*--------------------------------*- C++ -*----------------------------------*\
  =========                 |
  \\      /  F ield         | OpenFOAM: The Open Source CFD Toolbox
   \\    /   O peration     | Website:  https://openfoam.org
    \\  /    A nd           | Version:  9
     \\/     M anipulation  |
\*---------------------------------------------------------------------------*/
FoamFile
{
    format      ascii;
    class       volScalarField;
    location    "0.025";
    object      mag(U);
}
// * * * * * * * * * * * * * * * * * * * * * * * * * * * * * * * * * * * * * //

dimensions      [0 1 -1 0 0 0 0];

internalField   nonuniform List<scalar> 
1000
(
10.2141
10.8989
11.5461
12.0843
12.5965
13.1201
13.6529
14.187
14.7197
15.2517
15.7836
16.3155
16.8476
17.3796
17.9118
18.444
18.9763
19.5085
20.0408
20.5732
21.1056
21.6381
22.1707
22.7033
23.2361
23.7688
24.3016
24.8345
25.3675
25.9005
26.4336
26.9668
27.5
28.0333
28.5666
29.1
29.6335
30.167
30.7006
31.2343
31.768
32.3019
32.8357
33.3697
33.9037
34.4378
34.9719
35.5061
36.0404
36.5747
37.1091
37.6436
38.1781
38.7127
39.2474
39.7821
40.3169
40.8517
41.3866
41.9216
42.4567
42.9918
43.5269
44.0622
44.5975
45.1328
45.6682
46.2037
46.7392
47.2748
47.8105
48.3462
48.882
49.4179
49.9538
50.4897
51.0258
51.5619
52.098
52.6342
53.1705
53.7068
54.2432
54.7797
55.3162
55.8528
56.3894
56.9261
57.4629
57.9997
58.5366
59.0735
59.6105
60.1476
60.6847
61.2219
61.7591
62.2964
62.8337
63.3712
63.9086
64.4462
64.9837
65.5214
66.0591
66.5969
67.1347
67.6726
68.2105
68.7485
69.2866
69.8247
70.3629
70.9011
71.4394
71.9777
72.5161
73.0546
73.5931
74.1317
74.6703
75.209
75.7477
76.2865
76.8254
77.3643
77.9032
78.4423
78.9813
79.5205
80.0597
80.5989
81.1382
81.6776
82.217
82.7564
83.2959
83.8355
84.3751
84.9148
85.4545
85.9943
86.5342
87.0741
87.614
88.154
88.694
89.2341
89.7743
90.3145
90.8548
91.3951
91.9354
92.4758
93.0163
93.5568
94.0974
94.638
95.1786
95.7194
96.2601
96.8009
97.3418
97.8827
98.4237
98.9647
99.5057
100.047
100.588
101.129
101.67
102.212
102.753
103.294
103.836
104.377
104.919
105.46
106.002
106.544
107.085
107.627
108.169
108.711
109.253
109.795
110.336
110.878
111.421
111.963
112.505
113.047
113.589
114.131
114.674
115.216
115.758
116.301
116.843
117.386
117.928
118.471
119.013
119.556
120.099
120.641
121.184
121.727
122.27
122.813
123.356
123.899
124.441
124.984
125.527
126.071
126.614
127.157
127.7
128.243
128.786
129.33
129.873
130.416
130.96
131.503
132.046
132.59
133.133
133.677
134.22
134.764
135.307
135.851
136.394
136.938
137.482
138.025
138.569
139.113
139.656
140.2
140.744
141.288
141.832
142.375
142.919
143.463
144.007
144.551
145.095
145.639
146.183
146.727
147.27
147.814
148.358
148.902
149.446
149.99
150.534
151.078
151.622
152.166
152.71
153.254
153.799
154.343
154.887
155.431
155.975
156.519
157.063
157.607
158.151
158.695
159.239
159.783
160.327
160.87
161.414
161.958
162.502
163.046
163.59
164.134
164.678
165.222
165.765
166.309
166.853
167.396
167.94
168.484
169.027
169.571
170.115
170.658
171.201
171.745
172.288
172.832
173.375
173.918
174.461
175.004
175.547
176.09
176.633
177.176
177.719
178.262
178.805
179.347
179.89
180.432
180.975
181.517
182.059
182.601
183.143
183.685
184.227
184.769
185.311
185.852
186.393
186.935
187.476
188.017
188.558
189.099
189.64
190.18
190.721
191.261
191.801
192.341
192.881
193.42
193.96
194.499
195.038
195.577
196.116
196.654
197.193
197.731
198.269
198.807
199.344
199.881
200.418
200.955
201.492
202.028
202.564
203.099
203.635
204.17
204.705
205.239
205.773
206.307
206.841
207.374
207.907
208.439
208.971
209.503
210.034
210.565
211.095
211.625
212.154
212.683
213.212
213.74
214.267
214.794
215.32
215.846
216.371
216.896
217.42
217.943
218.466
218.988
219.509
220.029
220.549
221.068
221.587
222.104
222.62
223.136
223.651
224.165
224.678
225.19
225.7
226.21
226.719
227.227
227.733
228.238
228.742
229.245
229.747
230.247
230.746
231.243
231.739
232.233
232.726
233.217
233.706
234.194
234.679
235.163
235.645
236.125
236.605
237.082
237.557
238.029
238.499
238.967
239.432
239.895
240.355
240.813
241.268
241.721
242.17
242.617
243.061
243.502
243.94
244.375
244.807
245.236
245.661
246.083
246.501
246.916
247.327
247.735
248.139
248.54
248.936
249.329
249.718
250.103
250.484
250.861
251.233
251.602
251.967
252.328
252.684
253.037
253.385
253.729
254.069
254.405
254.737
255.065
255.389
255.71
256.026
256.338
256.647
256.952
257.254
257.552
257.846
258.137
258.425
258.71
258.992
259.271
259.547
259.82
260.091
260.359
260.625
260.889
261.15
261.41
261.667
261.923
262.177
262.429
262.68
262.929
263.177
263.424
263.67
263.914
264.158
264.4
264.642
264.882
265.123
265.362
265.6
265.838
266.076
266.313
266.549
266.785
267.021
267.256
267.491
267.725
267.959
268.193
268.426
268.659
268.892
269.124
269.356
269.588
269.82
270.051
270.282
270.513
270.743
270.973
271.203
271.433
271.662
271.891
272.12
272.348
272.576
272.804
273.031
273.258
273.485
273.711
273.937
274.163
274.388
274.613
274.837
275.061
275.284
275.507
275.73
275.952
276.173
276.395
276.615
276.835
277.055
277.274
277.492
277.71
277.927
278.143
278.359
278.575
278.789
279.003
279.216
279.429
279.64
279.851
280.062
280.271
280.479
280.687
280.894
281.1
281.305
281.509
281.712
281.914
282.115
282.315
282.513
282.711
282.908
283.103
283.298
283.491
283.683
283.873
284.062
284.25
284.437
284.622
284.806
284.988
285.169
285.348
285.526
285.702
285.876
286.049
286.22
286.39
286.557
286.723
286.887
287.049
287.21
287.368
287.524
287.679
287.831
287.982
288.13
288.276
288.42
288.562
288.702
288.839
288.974
289.107
289.238
289.366
289.492
289.616
289.737
289.856
289.973
290.087
290.199
290.308
290.415
290.519
290.621
290.721
290.818
290.913
291.005
291.095
291.182
291.267
291.35
291.43
291.507
291.583
291.656
291.727
291.795
291.861
291.925
291.987
292.047
292.104
292.159
292.212
292.264
292.313
292.36
292.405
292.449
292.49
292.53
292.568
292.604
292.639
292.672
292.704
292.734
292.762
292.79
292.815
292.84
292.863
292.885
292.906
292.925
292.944
292.961
292.978
292.993
293.008
293.022
293.035
293.047
293.058
293.069
293.079
293.088
293.097
293.105
293.112
293.119
293.126
293.132
293.138
293.143
293.148
293.152
293.157
293.161
293.164
293.167
293.17
293.173
293.176
293.178
293.18
293.182
293.184
293.186
293.187
293.189
293.19
293.191
293.192
293.193
293.194
293.195
293.196
293.197
293.197
293.198
293.198
293.199
293.199
293.199
293.2
293.2
293.2
293.201
293.201
293.201
293.201
293.202
293.202
293.202
293.202
293.202
293.202
293.202
293.202
293.202
293.202
293.202
293.202
293.202
293.202
293.202
293.203
293.203
293.203
293.203
293.203
293.203
293.203
293.203
293.203
293.203
293.203
293.203
293.203
293.203
293.203
293.203
293.203
293.203
293.203
293.203
293.203
293.203
293.203
293.203
293.203
293.203
293.203
293.203
293.203
293.203
293.203
293.203
293.203
293.203
293.203
293.203
293.203
293.203
293.203
293.203
293.203
293.203
293.203
293.203
293.203
293.203
293.203
293.203
293.203
293.203
293.203
293.203
293.203
293.203
293.203
293.203
293.203
293.203
293.203
293.203
293.203
293.203
293.203
293.203
293.203
293.203
293.203
293.203
293.203
293.203
293.203
293.203
293.203
293.203
293.203
293.203
293.203
293.203
293.203
293.203
293.203
293.203
293.203
293.203
293.203
293.203
293.203
293.203
293.203
293.203
293.203
293.203
293.203
293.203
293.203
293.203
293.203
293.203
293.203
293.202
293.202
293.202
293.202
293.202
293.202
293.202
293.202
293.202
293.202
293.202
293.202
293.202
293.201
293.201
293.201
293.201
293.2
293.2
293.199
293.198
293.197
293.195
293.193
293.191
293.189
293.186
293.183
293.18
293.176
293.171
293.166
293.16
293.153
293.145
293.137
293.127
293.116
293.104
293.091
293.077
293.061
293.043
293.024
293.004
292.982
292.957
292.932
292.904
292.874
292.843
292.81
292.775
292.738
292.699
292.659
292.617
292.574
292.53
292.484
292.437
292.39
292.341
292.292
292.243
292.194
292.145
292.096
292.048
292.001
291.954
291.908
291.863
291.82
291.778
291.738
291.699
291.663
291.628
291.594
291.563
291.534
291.506
291.48
291.456
291.434
291.414
291.395
291.377
291.361
291.347
291.333
291.321
291.31
291.3
291.29
291.282
291.274
291.267
291.26
291.254
291.248
291.242
291.237
291.231
291.226
291.221
291.217
291.212
291.207
291.202
291.198
291.193
291.188
291.184
291.18
291.175
291.171
291.167
291.164
291.16
291.157
291.153
291.15
291.148
291.145
291.143
291.141
291.139
291.138
291.136
291.135
291.134
291.133
291.133
291.132
291.132
291.132
291.132
291.132
291.132
291.132
291.132
291.132
291.131
291.131
291.131
291.131
291.131
291.131
291.131
291.131
)
;

boundaryField
{
    sides
    {
        type            calculated;
        value           nonuniform List<scalar> 2(291.131 10.2141);
    }
    empty
    {
        type            empty;
    }
}


// ************************************************************************* //
