/*--------------------------------*- C++ -*----------------------------------*\
  =========                 |
  \\      /  F ield         | OpenFOAM: The Open Source CFD Toolbox
   \\    /   O peration     | Website:  https://openfoam.org
    \\  /    A nd           | Version:  9
     \\/     M anipulation  |
\*---------------------------------------------------------------------------*/
FoamFile
{
    format      ascii;
    class       volVectorField;
    location    "0.02";
    object      ddt0(rho,U);
}
// * * * * * * * * * * * * * * * * * * * * * * * * * * * * * * * * * * * * * //

dimensions      [1 -2 -2 0 0 0 0];

internalField   nonuniform List<vector> 
1000
(
(197.457 0 0)
(104.304 0 0)
(64.8319 0 0)
(20.5673 0 0)
(-32.8254 0 0)
(-86.2218 0 0)
(-137.724 0 0)
(-188.919 0 0)
(-240.542 0 0)
(-292.158 0 0)
(-343.408 0 0)
(-394.819 0 0)
(-446.206 0 0)
(-497.677 0 0)
(-549.08 0 0)
(-600.423 0 0)
(-651.803 0 0)
(-703.207 0 0)
(-754.622 0 0)
(-806.033 0 0)
(-857.446 0 0)
(-908.866 0 0)
(-960.275 0 0)
(-1011.67 0 0)
(-1063.06 0 0)
(-1114.43 0 0)
(-1165.79 0 0)
(-1217.15 0 0)
(-1268.49 0 0)
(-1319.82 0 0)
(-1371.17 0 0)
(-1422.54 0 0)
(-1473.92 0 0)
(-1525.28 0 0)
(-1576.63 0 0)
(-1627.98 0 0)
(-1679.32 0 0)
(-1730.65 0 0)
(-1781.96 0 0)
(-1833.26 0 0)
(-1884.55 0 0)
(-1935.84 0 0)
(-1987.13 0 0)
(-2038.42 0 0)
(-2089.71 0 0)
(-2141 0 0)
(-2192.27 0 0)
(-2243.53 0 0)
(-2294.78 0 0)
(-2346.03 0 0)
(-2397.27 0 0)
(-2448.5 0 0)
(-2499.73 0 0)
(-2550.95 0 0)
(-2602.16 0 0)
(-2653.35 0 0)
(-2704.52 0 0)
(-2755.69 0 0)
(-2806.85 0 0)
(-2857.99 0 0)
(-2909.13 0 0)
(-2960.25 0 0)
(-3011.37 0 0)
(-3062.47 0 0)
(-3113.57 0 0)
(-3164.66 0 0)
(-3215.73 0 0)
(-3266.78 0 0)
(-3317.82 0 0)
(-3368.84 0 0)
(-3419.86 0 0)
(-3470.86 0 0)
(-3521.85 0 0)
(-3572.83 0 0)
(-3623.79 0 0)
(-3674.74 0 0)
(-3725.68 0 0)
(-3776.6 0 0)
(-3827.51 0 0)
(-3878.4 0 0)
(-3929.27 0 0)
(-3980.13 0 0)
(-4030.97 0 0)
(-4081.8 0 0)
(-4132.61 0 0)
(-4183.4 0 0)
(-4234.17 0 0)
(-4284.93 0 0)
(-4335.67 0 0)
(-4386.39 0 0)
(-4437.09 0 0)
(-4487.77 0 0)
(-4538.43 0 0)
(-4589.06 0 0)
(-4639.68 0 0)
(-4690.28 0 0)
(-4740.85 0 0)
(-4791.4 0 0)
(-4841.93 0 0)
(-4892.44 0 0)
(-4942.93 0 0)
(-4993.39 0 0)
(-5043.82 0 0)
(-5094.24 0 0)
(-5144.63 0 0)
(-5195 0 0)
(-5245.34 0 0)
(-5295.66 0 0)
(-5345.96 0 0)
(-5396.23 0 0)
(-5446.47 0 0)
(-5496.69 0 0)
(-5546.88 0 0)
(-5597.04 0 0)
(-5647.18 0 0)
(-5697.28 0 0)
(-5747.35 0 0)
(-5797.4 0 0)
(-5847.41 0 0)
(-5897.4 0 0)
(-5947.35 0 0)
(-5997.27 0 0)
(-6047.16 0 0)
(-6097.01 0 0)
(-6146.84 0 0)
(-6196.63 0 0)
(-6246.38 0 0)
(-6296.11 0 0)
(-6345.8 0 0)
(-6395.45 0 0)
(-6445.07 0 0)
(-6494.65 0 0)
(-6544.19 0 0)
(-6593.7 0 0)
(-6643.17 0 0)
(-6692.59 0 0)
(-6741.98 0 0)
(-6791.32 0 0)
(-6840.62 0 0)
(-6889.86 0 0)
(-6939.06 0 0)
(-6988.2 0 0)
(-7037.29 0 0)
(-7086.33 0 0)
(-7135.33 0 0)
(-7184.28 0 0)
(-7233.21 0 0)
(-7282.1 0 0)
(-7331.01 0 0)
(-7379.86 0 0)
(-7428.78 0 0)
(-7477.53 0 0)
(-7526.53 0 0)
(-7574.99 0 0)
(-7624.24 0 0)
(-7672.02 0 0)
(-7721.89 0 0)
(-7768.38 0 0)
(-7819.38 0 0)
(-7864.25 0 0)
(-7916.16 0 0)
(-7960.81 0 0)
(-8011.03 0 0)
(-8058.9 0 0)
(-8105.6 0 0)
(-8153.5 0 0)
(-8201.86 0 0)
(-8249.92 0 0)
(-8297.18 0 0)
(-8345.24 0 0)
(-8392.53 0 0)
(-8441.71 0 0)
(-8484.39 0 0)
(-8540.46 0 0)
(-8575.5 0 0)
(-8635.46 0 0)
(-8673.86 0 0)
(-8721.63 0 0)
(-8778.69 0 0)
(-8807.98 0 0)
(-8872.75 0 0)
(-8911.04 0 0)
(-8952.01 0 0)
(-9012.63 0 0)
(-9043.76 0 0)
(-9102.43 0 0)
(-9146.42 0 0)
(-9183.6 0 0)
(-9245.5 0 0)
(-9275.23 0 0)
(-9330.64 0 0)
(-9381.28 0 0)
(-9405.03 0 0)
(-9477.91 0 0)
(-9515.71 0 0)
(-9543.36 0 0)
(-9613.7 0 0)
(-9644.1 0 0)
(-9689.53 0 0)
(-9748.16 0 0)
(-9769.96 0 0)
(-9834.62 0 0)
(-9886.57 0 0)
(-9894.63 0 0)
(-9968.1 0 0)
(-10020.1 0 0)
(-10035.3 0 0)
(-10103.9 0 0)
(-10138.8 0 0)
(-10166.5 0 0)
(-10250.1 0 0)
(-10271.6 0 0)
(-10293.4 0 0)
(-10370 0 0)
(-10400.1 0 0)
(-10433.4 0 0)
(-10512.3 0 0)
(-10524.1 0 0)
(-10548.3 0 0)
(-10636.4 0 0)
(-10664.5 0 0)
(-10685.4 0 0)
(-10765.8 0 0)
(-10780.8 0 0)
(-10800.8 0 0)
(-10894.9 0 0)
(-10921.5 0 0)
(-10926.7 0 0)
(-11013.2 0 0)
(-11047 0 0)
(-11044.7 0 0)
(-11132.8 0 0)
(-11184.1 0 0)
(-11169.8 0 0)
(-11244.2 0 0)
(-11314.5 0 0)
(-11294.6 0 0)
(-11346.7 0 0)
(-11444.7 0 0)
(-11430.7 0 0)
(-11449.6 0 0)
(-11556.3 0 0)
(-11570.4 0 0)
(-11557.9 0 0)
(-11653.6 0 0)
(-11709.7 0 0)
(-11678.8 0 0)
(-11747.6 0 0)
(-11841.2 0 0)
(-11814.6 0 0)
(-11834.7 0 0)
(-11951.6 0 0)
(-11962.5 0 0)
(-11935 0 0)
(-12032.2 0 0)
(-12103.2 0 0)
(-12058.2 0 0)
(-12101.7 0 0)
(-12220.4 0 0)
(-12204.4 0 0)
(-12183 0 0)
(-12295.2 0 0)
(-12354.6 0 0)
(-12298 0 0)
(-12347.6 0 0)
(-12467.6 0 0)
(-12446.9 0 0)
(-12414 0 0)
(-12524.2 0 0)
(-12593.4 0 0)
(-12533.1 0 0)
(-12556.9 0 0)
(-12678.9 0 0)
(-12682.6 0 0)
(-12624.8 0 0)
(-12702 0 0)
(-12797.7 0 0)
(-12751.7 0 0)
(-12724.9 0 0)
(-12830.6 0 0)
(-12878.9 0 0)
(-12806.3 0 0)
(-12816.6 0 0)
(-12923.2 0 0)
(-12920.8 0 0)
(-12841.9 0 0)
(-12881.4 0 0)
(-12966.9 0 0)
(-12918.5 0 0)
(-12841 0 0)
(-12892.3 0 0)
(-12941.2 0 0)
(-12851.6 0 0)
(-12772.8 0 0)
(-12816.6 0 0)
(-12818.3 0 0)
(-12686.5 0 0)
(-12593.6 0 0)
(-12608.6 0 0)
(-12551.8 0 0)
(-12371 0 0)
(-12245.6 0 0)
(-12211.9 0 0)
(-12087.5 0 0)
(-11846.7 0 0)
(-11669 0 0)
(-11569.7 0 0)
(-11369.6 0 0)
(-11057.6 0 0)
(-10810.8 0 0)
(-10635.8 0 0)
(-10358.6 0 0)
(-9972.47 0 0)
(-9650.23 0 0)
(-9402.06 0 0)
(-9059.61 0 0)
(-8609.94 0 0)
(-8221.01 0 0)
(-7916.61 0 0)
(-7535.54 0 0)
(-7048.86 0 0)
(-6617.25 0 0)
(-6286.08 0 0)
(-5905.12 0 0)
(-5420.96 0 0)
(-4980.53 0 0)
(-4657.24 0 0)
(-4318.03 0 0)
(-3879.42 0 0)
(-3465.5 0 0)
(-3178.05 0 0)
(-2912.76 0 0)
(-2556.26 0 0)
(-2195.35 0 0)
(-1957.29 0 0)
(-1779.26 0 0)
(-1525.71 0 0)
(-1233.29 0 0)
(-1041.62 0 0)
(-942.36 0 0)
(-795.032 0 0)
(-577.094 0 0)
(-419.395 0 0)
(-372.713 0 0)
(-318.664 0 0)
(-176.838 0 0)
(-41.5229 0 0)
(-13.8789 0 0)
(-26.4083 0 0)
(39.9303 0 0)
(154.388 0 0)
(192.214 0 0)
(148.799 0 0)
(146.655 0 0)
(229.272 0 0)
(290.167 0 0)
(254.291 0 0)
(202.933 0 0)
(237.005 0 0)
(311.191 0 0)
(312.535 0 0)
(245.848 0 0)
(222.996 0 0)
(282.257 0 0)
(327.736 0 0)
(285.079 0 0)
(220.81 0 0)
(234.751 0 0)
(299.919 0 0)
(308.459 0 0)
(242.844 0 0)
(201.565 0 0)
(243.253 0 0)
(297.019 0 0)
(273.549 0 0)
(204.093 0 0)
(190.331 0 0)
(246.817 0 0)
(280.612 0 0)
(235.054 0 0)
(174.408 0 0)
(184.084 0 0)
(242.873 0 0)
(257.332 0 0)
(200.933 0 0)
(151.777 0 0)
(177.172 0 0)
(234.436 0 0)
(233.316 0 0)
(170.071 0 0)
(133.443 0 0)
(171.201 0 0)
(221.628 0 0)
(207.854 0 0)
(146.216 0 0)
(119.317 0 0)
(160.091 0 0)
(206.365 0 0)
(187.72 0 0)
(126.034 0 0)
(104.217 0 0)
(147.779 0 0)
(190.918 0 0)
(169.878 0 0)
(109.767 0 0)
(89.6364 0 0)
(132.888 0 0)
(175.168 0 0)
(155.209 0 0)
(97.3915 0 0)
(75.3588 0 0)
(114.602 0 0)
(159.595 0 0)
(145.09 0 0)
(86.5582 0 0)
(61.0041 0 0)
(97.7848 0 0)
(141.434 0 0)
(133.562 0 0)
(84.0053 0 0)
(50.7439 0 0)
(72.2932 0 0)
(121.573 0 0)
(131.75 0 0)
(81.9695 0 0)
(34.8205 0 0)
(52.8223 0 0)
(106.439 0 0)
(119.695 0 0)
(78.5883 0 0)
(35.2857 0 0)
(35.3325 0 0)
(76.0893 0 0)
(108.543 0 0)
(87.0624 0 0)
(34.3818 0 0)
(16.4503 0 0)
(51.2603 0 0)
(92.1481 0 0)
(89.7372 0 0)
(43.2199 0 0)
(4.58096 0 0)
(22.8803 0 0)
(73.7318 0 0)
(88.5342 0 0)
(49.9095 0 0)
(5.90757 0 0)
(3.62476 0 0)
(43.1348 0 0)
(77.9493 0 0)
(63.0985 0 0)
(14.4753 0 0)
(-9.43243 0 0)
(14.7376 0 0)
(55.6155 0 0)
(68.2962 0 0)
(34.7726 0 0)
(-11.3888 0 0)
(-13.7615 0 0)
(30.467 0 0)
(64.2498 0 0)
(48.2319 0 0)
(1.45802 0 0)
(-25.1017 0 0)
(-0.571227 0 0)
(45.1897 0 0)
(55.6156 0 0)
(21.2858 0 0)
(-18.6637 0 0)
(-24.4395 0 0)
(12.6839 0 0)
(51.8987 0 0)
(41.5863 0 0)
(-5.07716 0 0)
(-29.9372 0 0)
(-11.7703 0 0)
(24.7562 0 0)
(44.4741 0 0)
(25.1337 0 0)
(-16.3386 0 0)
(-34.1395 0 0)
(-7.53701 0 0)
(35.5102 0 0)
(46.0069 0 0)
(6.67474 0 0)
(-37.027 0 0)
(-30.8249 0 0)
(13.899 0 0)
(43.2629 0 0)
(28.9636 0 0)
(-13.3808 0 0)
(-39.2961 0 0)
(-17.4124 0 0)
(26.2057 0 0)
(40.3866 0 0)
(13.7745 0 0)
(-24.3698 0 0)
(-36.3259 0 0)
(-5.96721 0 0)
(34.166 0 0)
(38.1582 0 0)
(-1.19886 0 0)
(-35.9399 0 0)
(-23.8112 0 0)
(8.26198 0 0)
(20.8403 0 0)
(36.4149 0 0)
(3.39122 0 0)
(-33.0387 0 0)
(-15.5827 0 0)
(1.4321 0 0)
(7.17613 0 0)
(13.5609 0 0)
(15.1223 0 0)
(-3.233 0 0)
(-6.67011 0 0)
(-2.15712 0 0)
(-3.0438 0 0)
(5.22043 0 0)
(9.24977 0 0)
(-0.363128 0 0)
(7.16783 0 0)
(-8.10538 0 0)
(-5.46585 0 0)
(-0.250671 0 0)
(0.0169896 0 0)
(-13.9678 0 0)
(-9.32999 0 0)
(32.609 0 0)
(13.7397 0 0)
(-12.4037 0 0)
(22.3472 0 0)
(44.7464 0 0)
(-8.44575 0 0)
(-22.885 0 0)
(-12.7368 0 0)
(-5.9791 0 0)
(-1.34851 0 0)
(1.33945 0 0)
(1.51436 0 0)
(2.20151 0 0)
(2.99997 0 0)
(-0.0696536 0 0)
(-6.15842 0 0)
(-15.2127 0 0)
(-25.0167 0 0)
(-33.9218 0 0)
(-27.1713 0 0)
(9.17834 0 0)
(97.8183 0 0)
(31.7177 0 0)
(-61.3498 0 0)
(-12.8469 0 0)
(32.7519 0 0)
(12.9181 0 0)
(-24.8305 0 0)
(31.6324 0 0)
(44.6246 0 0)
(-38.0022 0 0)
(-18.6932 0 0)
(41.0865 0 0)
(38.2719 0 0)
(-39.0714 0 0)
(-17.9954 0 0)
(40.1452 0 0)
(44.447 0 0)
(-34.9402 0 0)
(-32.0631 0 0)
(16.984 0 0)
(67.3266 0 0)
(18.1137 0 0)
(-51.9205 0 0)
(-26.9868 0 0)
(33.0929 0 0)
(65.0701 0 0)
(19.0838 0 0)
(-34.5442 0 0)
(-36.4008 0 0)
(-32.5864 0 0)
(-30.9988 0 0)
(-35.5169 0 0)
(-46.1037 0 0)
(-47.1062 0 0)
(-26.8821 0 0)
(55.5155 0 0)
(89.7365 0 0)
(45.3425 0 0)
(-26.4145 0 0)
(-32.7671 0 0)
(16.9965 0 0)
(61.9319 0 0)
(10.0305 0 0)
(-42.7275 0 0)
(-22.2428 0 0)
(35.1488 0 0)
(60.5001 0 0)
(4.98923 0 0)
(-41.4539 0 0)
(-21.7059 0 0)
(26.4432 0 0)
(40.5926 0 0)
(7.07824 0 0)
(-26.8646 0 0)
(-14.912 0 0)
(20.9291 0 0)
(36.9883 0 0)
(22.4592 0 0)
(-13.3584 0 0)
(-29.4445 0 0)
(-31.5615 0 0)
(-39.1368 0 0)
(-44.4218 0 0)
(-44.8008 0 0)
(-7.55858 0 0)
(63.4442 0 0)
(54.6994 0 0)
(30.9844 0 0)
(-10.1281 0 0)
(-23.5573 0 0)
(6.87928 0 0)
(30.8408 0 0)
(13.6596 0 0)
(-22.9422 0 0)
(-23.2344 0 0)
(-10.2072 0 0)
(3.03496 0 0)
(-3.17106 0 0)
(-9.65895 0 0)
(4.19707 0 0)
(12.8096 0 0)
(5.0733 0 0)
(-4.25138 0 0)
(11.4656 0 0)
(16.5531 0 0)
(7.1295 0 0)
(1.55944 0 0)
(10.0096 0 0)
(5.58794 0 0)
(2.32093 0 0)
(9.33791 0 0)
(5.23991 0 0)
(1.41519 0 0)
(2.56976 0 0)
(5.53836 0 0)
(1.91707 0 0)
(-1.05486 0 0)
(4.26716 0 0)
(5.66031 0 0)
(-0.234176 0 0)
(-2.0757 0 0)
(7.11689 0 0)
(6.04759 0 0)
(-4.72878 0 0)
(0.309372 0 0)
(9.4143 0 0)
(1.91156 0 0)
(-4.26905 0 0)
(3.26532 0 0)
(5.79924 0 0)
(1.81805 0 0)
(-3.14794 0 0)
(4.1599 0 0)
(9.99519 0 0)
(0.165859 0 0)
(-5.0077 0 0)
(4.20183 0 0)
(8.55103 0 0)
(0.784252 0 0)
(-4.08792 0 0)
(5.3815 0 0)
(8.84525 0 0)
(-0.497951 0 0)
(-0.579057 0 0)
(5.53016 0 0)
(6.86518 0 0)
(-3.03668 0 0)
(0.641661 0 0)
(11.4399 0 0)
(5.7084 0 0)
(-6.53628 0 0)
(1.27423 0 0)
(8.30471 0 0)
(7.10515 0 0)
(-6.43646 0 0)
(-0.0151155 0 0)
(8.99539 0 0)
(8.96162 0 0)
(-6.00925 0 0)
(-3.30965 0 0)
(8.37542 0 0)
(11.4084 0 0)
(-0.303295 0 0)
(-4.47686 0 0)
(7.39904 0 0)
(7.73152 0 0)
(-0.848809 0 0)
(-2.55915 0 0)
(2.88416 0 0)
(9.11805 0 0)
(5.92199 0 0)
(-4.10799 0 0)
(-3.55334 0 0)
(14.4588 0 0)
(10.3326 0 0)
(-7.86385 0 0)
(-3.1838 0 0)
(11.3315 0 0)
(12.4832 0 0)
(-1.10377 0 0)
(-9.02304 0 0)
(5.80836 0 0)
(13.7088 0 0)
(1.81153 0 0)
(-7.1948 0 0)
(-1.64622 0 0)
(14.2231 0 0)
(17.5038 0 0)
(2.1697 0 0)
(-9.63722 0 0)
(-3.58104 0 0)
(9.12446 0 0)
(14.9678 0 0)
(3.85386 0 0)
(-10.7944 0 0)
(-2.94383 0 0)
(17.1285 0 0)
(13.4285 0 0)
(-10.3903 0 0)
(-8.2488 0 0)
(7.40932 0 0)
(18.556 0 0)
(12.1711 0 0)
(-9.72786 0 0)
(-7.35817 0 0)
(13.7494 0 0)
(24.8073 0 0)
(4.82357 0 0)
(-14.9268 0 0)
(-8.85263 0 0)
(12.2289 0 0)
(18.0202 0 0)
(-2.20579 0 0)
(-11.6207 0 0)
(-1.5802 0 0)
(23.1837 0 0)
(12.6224 0 0)
(-13.2391 0 0)
(-10.8365 0 0)
(5.02393 0 0)
(27.4803 0 0)
(8.50997 0 0)
(-19.2233 0 0)
(0.167493 0 0)
(21.89 0 0)
(20.6048 0 0)
(-14.5715 0 0)
(-15.1652 0 0)
(17.2309 0 0)
(34.4726 0 0)
(12.1825 0 0)
(-27.7229 0 0)
(-19.2706 0 0)
(16.2293 0 0)
(37.9568 0 0)
(22.8981 0 0)
(-25.8703 0 0)
(-28.2082 0 0)
(14.8676 0 0)
(35.9762 0 0)
(4.53409 0 0)
(-28.8123 0 0)
(-15.3955 0 0)
(17.569 0 0)
(27.7999 0 0)
(9.26705 0 0)
(-7.93186 0 0)
(-4.11589 0 0)
(6.49643 0 0)
(0.942632 0 0)
(-2.43774 0 0)
(13.428 0 0)
(5.24129 0 0)
(-2.83226 0 0)
(2.60962 0 0)
(12.5833 0 0)
(5.8046 0 0)
(1.43584 0 0)
(10.6865 0 0)
(5.53477 0 0)
(-1.53016 0 0)
(5.78702 0 0)
(12.5055 0 0)
(6.17553 0 0)
(1.33387 0 0)
(9.68673 0 0)
(8.86892 0 0)
(1.81343 0 0)
(4.46939 0 0)
(9.61915 0 0)
(6.66571 0 0)
(4.79874 0 0)
(6.42284 0 0)
(3.78722 0 0)
(0.0702227 0 0)
(3.80099 0 0)
(5.79908 0 0)
(-2.77661 0 0)
(-0.15357 0 0)
(12.9028 0 0)
(5.00963 0 0)
(1.04048 0 0)
(11.6357 0 0)
(4.78315 0 0)
(-0.109931 0 0)
(3.77826 0 0)
(3.78569 0 0)
(-3.25952 0 0)
(0.502203 0 0)
(8.60295 0 0)
(5.58834 0 0)
(1.93403 0 0)
(3.71603 0 0)
(15.1822 0 0)
(12.4174 0 0)
(-5.86542 0 0)
(9.94736 0 0)
(18.9057 0 0)
(-0.450396 0 0)
(5.23655 0 0)
(14.9559 0 0)
(1.44426 0 0)
(-5.39305 0 0)
(9.63815 0 0)
(27.123 0 0)
(-3.74528 0 0)
(-6.7559 0 0)
(25.7446 0 0)
(22.8319 0 0)
(-24.0103 0 0)
(6.55878 0 0)
(42.2035 0 0)
(5.90626 0 0)
(-33.1806 0 0)
(25.8046 0 0)
(60.9548 0 0)
(-50.8494 0 0)
(-7.97128 0 0)
(79.6146 0 0)
(-37.4339 0 0)
(-17.5425 0 0)
(105.059 0 0)
(-50.9502 0 0)
(-51.8799 0 0)
(134.761 0 0)
(16.9857 0 0)
(-166.368 0 0)
(82.0664 0 0)
(247.501 0 0)
(-226.093 0 0)
(-167.416 0 0)
(277.362 0 0)
(241.934 0 0)
(-467.524 0 0)
(-65.7119 0 0)
(484.48 0 0)
(-14.0748 0 0)
(-543.844 0 0)
(137.526 0 0)
(762.763 0 0)
(-543.33 0 0)
(-574.003 0 0)
(765.931 0 0)
(518.456 0 0)
(-1206.51 0 0)
(14.7194 0 0)
(1248.2 0 0)
(-282.656 0 0)
(-1256.33 0 0)
(598.562 0 0)
(1673.24 0 0)
(-1937.33 0 0)
(-600.935 0 0)
(1701.26 0 0)
(258.141 0 0)
(-2167.49 0 0)
(1074.12 0 0)
(1862.2 0 0)
(-2634.24 0 0)
(-232.975 0 0)
(2878.35 0 0)
(-1645.02 0 0)
(-1568.71 0 0)
(2827.71 0 0)
(455.138 0 0)
(-3497.37 0 0)
(1402.63 0 0)
(4089.55 0 0)
(-4697.28 0 0)
(-875.497 0 0)
(4161.98 0 0)
(-290.498 0 0)
(-4910.98 0 0)
(2824.21 0 0)
(3165.43 0 0)
(-4908.32 0 0)
(1837.92 0 0)
(3049.05 0 0)
(-5507.53 0 0)
(533.267 0 0)
(5792.3 0 0)
(-5915.24 0 0)
(-854.388 0 0)
(6065.08 0 0)
(-4400.05 0 0)
(-1391.5 0 0)
(6110.47 0 0)
(-3515.69 0 0)
(-3052.72 0 0)
(5389.68 0 0)
(-868.498 0 0)
(-5191.96 0 0)
(5346.03 0 0)
(1860.06 0 0)
(-6736.12 0 0)
(2750.17 0 0)
(5133 0 0)
(-6479.88 0 0)
(-604.436 0 0)
(6994.13 0 0)
(-3621.04 0 0)
(-3902.59 0 0)
(5311.97 0 0)
(1137.29 0 0)
(-5950.46 0 0)
(2137.8 0 0)
(5344.98 0 0)
(-5737.15 0 0)
(-1075.84 0 0)
(4908.72 0 0)
(-893.991 0 0)
(-4366.38 0 0)
(3743.18 0 0)
(1782.12 0 0)
(-4266.11 0 0)
(-35.5091 0 0)
(4293.34 0 0)
(-2377.43 0 0)
(-2173.74 0 0)
(3045.94 0 0)
(635.409 0 0)
(-2859.71 0 0)
(457.957 0 0)
(2818.78 0 0)
(-2349.91 0 0)
(-871.27 0 0)
(1927.05 0 0)
(240.725 0 0)
(-1816.54 0 0)
(880.621 0 0)
(1652.44 0 0)
(-1629.88 0 0)
(-463.519 0 0)
(1322.94 0 0)
(200.128 0 0)
(-963.519 0 0)
(396.54 0 0)
(1108.24 0 0)
(-703.595 0 0)
(-500.401 0 0)
(627.799 0 0)
(358.31 0 0)
(-590.004 0 0)
(249.269 0 0)
(741.358 0 0)
(-97.9068 0 0)
(-365.399 0 0)
(223.536 0 0)
(343.606 0 0)
(-304.662 0 0)
(-143.581 0 0)
(177.764 0 0)
(-54.9775 0 0)
(-147.241 0 0)
(9.25488 0 0)
(36.4574 0 0)
(-71.3277 0 0)
(-82.705 0 0)
(28.2103 0 0)
(-3.73851 0 0)
(-115.306 0 0)
(-88.2079 0 0)
(66.7587 0 0)
(22.0786 0 0)
(-134.707 0 0)
(47.0552 0 0)
(156.093 0 0)
(-120.288 0 0)
(81.0235 0 0)
(171.375 0 0)
(-41.0605 0 0)
)
;

boundaryField
{
    sides
    {
        type            calculated;
        value           nonuniform List<vector> 2((-41.0605 0 0) (197.457 0 0));
    }
    empty
    {
        type            empty;
    }
}


// ************************************************************************* //
