/*--------------------------------*- C++ -*----------------------------------*\
  =========                 |
  \\      /  F ield         | OpenFOAM: The Open Source CFD Toolbox
   \\    /   O peration     | Website:  https://openfoam.org
    \\  /    A nd           | Version:  9
     \\/     M anipulation  |
\*---------------------------------------------------------------------------*/
FoamFile
{
    format      ascii;
    class       volScalarField;
    location    "0.02";
    object      ddt0(rho,e);
}
// * * * * * * * * * * * * * * * * * * * * * * * * * * * * * * * * * * * * * //

dimensions      [1 -1 -3 0 0 0 0];

internalField   nonuniform List<scalar> 
1000
(
916368
911619
898573
905273
920425
932851
938080
940151
946674
954623
953523
953302
953465
953823
954253
954715
955194
955680
956168
956657
957146
957635
958123
958611
959097
959582
960067
960551
961034
961515
961999
962485
962970
963454
963938
964421
964904
965386
965867
966347
966827
967306
967786
968266
968746
969226
969704
970183
970660
971138
971615
972092
972569
973046
973521
973996
974470
974944
975417
975889
976361
976833
977304
977775
978246
978716
979186
979654
980122
980589
981056
981523
981989
982454
982920
983384
983849
984312
984775
985237
985699
986160
986620
987080
987539
987998
988455
988913
989369
989825
990280
990735
991188
991641
992093
992544
992994
993444
993893
994341
994788
995234
995680
996124
996568
997011
997453
997895
998335
998775
999214
999652
1.00009e+06
1.00052e+06
1.00096e+06
1.00139e+06
1.00183e+06
1.00226e+06
1.00269e+06
1.00312e+06
1.00355e+06
1.00397e+06
1.0044e+06
1.00483e+06
1.00525e+06
1.00567e+06
1.00609e+06
1.00651e+06
1.00693e+06
1.00735e+06
1.00777e+06
1.00818e+06
1.0086e+06
1.00901e+06
1.00942e+06
1.00983e+06
1.01024e+06
1.01065e+06
1.01106e+06
1.01146e+06
1.01187e+06
1.01228e+06
1.01268e+06
1.01309e+06
1.0135e+06
1.01389e+06
1.0143e+06
1.01468e+06
1.01511e+06
1.01541e+06
1.01594e+06
1.01604e+06
1.01688e+06
1.01641e+06
1.01816e+06
1.0163e+06
1.02006e+06
1.01548e+06
1.0226e+06
1.01451e+06
1.0243e+06
1.01609e+06
1.02085e+06
1.02251e+06
1.02018e+06
1.0206e+06
1.02208e+06
1.02287e+06
1.02188e+06
1.02262e+06
1.02271e+06
1.02683e+06
1.01606e+06
1.03653e+06
1.00937e+06
1.03846e+06
1.01859e+06
1.02044e+06
1.04262e+06
1.00369e+06
1.04364e+06
1.02467e+06
1.0134e+06
1.04823e+06
1.00973e+06
1.0354e+06
1.03345e+06
1.01437e+06
1.04656e+06
1.01339e+06
1.03475e+06
1.04464e+06
998285
1.05315e+06
1.03982e+06
999933
1.05404e+06
1.02764e+06
1.02308e+06
1.04997e+06
1.0047e+06
1.04565e+06
1.05967e+06
989306
1.04342e+06
1.05924e+06
1.00544e+06
1.05151e+06
1.0312e+06
1.00204e+06
1.07798e+06
1.03804e+06
990451
1.06359e+06
1.03577e+06
1.01169e+06
1.07939e+06
1.02173e+06
990659
1.07968e+06
1.04088e+06
1.0033e+06
1.07772e+06
1.0281e+06
986748
1.08428e+06
1.05473e+06
986386
1.0698e+06
1.05648e+06
977499
1.06299e+06
1.08431e+06
984514
1.03918e+06
1.09219e+06
990530
1.01015e+06
1.1036e+06
1.02056e+06
985213
1.09339e+06
1.05163e+06
965318
1.06359e+06
1.08933e+06
974267
1.01969e+06
1.11686e+06
1.00998e+06
980815
1.10461e+06
1.06302e+06
958737
1.05768e+06
1.10998e+06
980844
994320
1.11949e+06
1.04277e+06
952279
1.07382e+06
1.10883e+06
968862
994006
1.12447e+06
1.04484e+06
944415
1.06217e+06
1.11922e+06
982174
972433
1.11072e+06
1.07398e+06
947075
1.02086e+06
1.12331e+06
1.0192e+06
945212
1.06658e+06
1.1068e+06
974494
964462
1.09571e+06
1.07375e+06
945859
990796
1.10548e+06
1.03569e+06
930790
1.01322e+06
1.09893e+06
998760
922279
1.02535e+06
1.08059e+06
963532
912967
1.02412e+06
1.05213e+06
927675
895995
1.0066e+06
1.01444e+06
886719
865382
971301
966063
836274
816942
916438
904897
773700
748638
841255
830673
698981
661963
747562
745284
615788
562461
639884
653073
531506
459082
525584
559826
454416
363655
413170
470296
392211
286620
311277
387443
347011
235944
227303
311207
315486
213736
167747
240686
288884
215636
137283
177980
256715
230354
137401
129581
213138
241277
162664
105912
161414
232261
198468
114689
115753
196042
222989
151639
95759.1
143204
215481
195224
114449
99844.3
171830
215115
161396
93546.6
115541
190878
201509
130763
86309.5
133512
198065
181630
108790
86907.9
146254
197280
163126
92686.6
88834.8
155664
192233
144458
82417.9
93047.5
157724
183210
132537
75762.2
91928.7
156342
176105
122825
70098.9
88962.4
151309
169200
116781
65516.3
83192
142706
162706
115200
61438.9
73133.8
133156
157008
112645
60843.9
65351.3
115315
147516
120129
62683.9
47711.2
97708.8
144842
121581
59938.8
41862.2
82331.7
125147
121411
74055.6
35653.4
54993.3
107678
123262
82639.1
35597.9
34662.6
80607.5
118185
95408.4
38201.3
19184
56659.8
99814.8
98978.1
54147
14308.5
26732.4
74653.6
96648.1
68260.6
22418.3
6134.62
38202
83500.3
83117.2
34166.5
-3849.28
10050.4
56001
80970.8
52896.8
2827.07
-10520.6
22605.4
61614.6
65285.8
24607.1
-18183.3
-9698.29
36436.2
60123.6
39448.8
-111.562
-22268.3
-4077.79
37014.4
53807.3
24933.9
-20823.2
-33016.7
6160.56
49942.1
42474.4
-4563.82
-35768.2
-22018.3
20649.6
46527.6
23354
-22121.5
-37325.9
-10573.4
28124.7
39995
8390.97
-33270
-36485.8
580.673
37452.9
26375.2
-6493.74
-25150.9
-27757.9
-4712.05
27185.1
16532.8
-1974.46
-8252.96
-14806.4
-8040.62
1568.85
7193.91
2831.04
645.276
-6214.93
-7623.52
-1739.2
-149.163
2127.25
1606.73
-737.713
-3126.17
-5727.21
-1621.8
-5503.86
2720.81
1835.04
-3161.99
-5238.87
-4546.71
3007.71
2254.33
519.388
-1983.4
-4047.38
-3098.67
-2124.19
-1085.97
-1243.5
-1636.85
-714.621
-191.597
1451.82
1552.59
-2923.82
-12621.9
3088.01
-142.771
-1035.76
-4090.51
1731.62
400.676
-5960.76
-3634.92
-212.003
816.684
-7542.57
-1481.55
399.286
933.159
-5349.07
-3662.3
-258.767
3127.01
-4871.91
-7985.72
1110.98
341.936
1653.27
-5238.15
-7428.57
37.3297
-2550.73
178.964
1767.41
1584.96
628.001
2290.61
3722.9
2377.78
-7168.47
-7792.69
-4786.98
-1819.83
3014.4
-5056.92
-8144.88
1919.15
820.299
156.803
-5547.64
-7947.06
1345.75
213.435
93.0414
-4776.22
-5319.85
221.965
-1088.94
-365.091
-3790.5
-4764.3
-3391.91
-1923.63
652.379
147.771
1508.43
2478.46
4886.14
-1904.3
-7398.97
-5570.54
-4594.53
-1535.39
912.307
-2794.73
-5019.46
-1754.25
-1427.64
-85.989
-322.843
-1735.21
-105.225
-1515.49
-2022.68
-3107.89
-783.359
-2564.73
-2573.04
-3123.91
-1694.29
-2759.74
-2780.64
-1559.81
-3130.41
-3076.15
-2229.15
-2400.29
-2181.81
-3090.33
-2241.09
-1781.17
-2439.99
-2967.45
-2263.34
-1729.36
-2799.7
-2352.41
-1917.67
-2250.7
-3443.74
-1339.43
-1332.59
-1880.32
-2177.04
-1704.67
-2102.75
-2511.85
-3795.32
-2028.27
-1075.71
-1963.52
-3236.31
-2149.65
-1462.63
-2857.06
-3557.06
-2924.72
-2223.37
-2539.94
-3210.91
-2236.48
-3115.38
-4110.98
-2932.07
-1390.34
-1849.68
-3062.53
-2594.79
-1523.24
-2807.47
-3334.14
-3121.05
-1565.98
-1670.54
-3314.33
-4373.2
-3383.97
-2294.53
-2901.7
-2923.98
-2241.83
-1199.65
-2158.1
-3364.08
-3237.02
-3959.79
-3013.47
-5055.13
-3397.73
-1769.09
-1662.11
-3559.23
-4000.45
-2642.82
-1352.55
-3181.25
-4072.93
-1148.78
-2725.94
-2876.7
-3970.36
-4723.8
-1556.92
-2328.51
-2512.89
-3098.89
-4640.63
-1544.41
-2309.13
-2023.47
-4299.03
-2563.35
-3275.69
-2117.77
-4278.17
-5773
-4152.35
-4007.4
-2982.84
-4668.03
-6949.06
-1616.34
-3359.33
-2068.47
-3389.27
-4214
-2460.6
-3108.43
-3217.52
-4852.62
-1874.32
-4552.41
-2984.9
-3939.68
-6634.41
-804.759
-2876.73
-4882.49
-5888.22
-5256.02
-5666.13
-1841.68
-3531.97
-7541.65
-1025.42
-2435.12
-1915.61
-5267.6
-8261.58
-4242.19
-4085.43
-74.1291
-3319.24
-8292.26
238.644
-4762.43
-3046.17
-5230.11
-7813.02
-3688.38
-3633.37
-3363.06
-4561.6
-4008.56
-4059.21
-6217.22
-3356.3
-2419.44
-4031.8
-7440.49
-7592.22
-6118.18
-5272.85
-3324.9
-2797.82
-4228.84
-6648.65
-5819.45
-4951.53
-5486.7
-5460.65
-4336.82
-5370.78
-7049.12
-6973.25
-6591.55
-5763.7
-4350.9
-3103.68
-2957.07
-3915.37
-3083.26
-3964.22
-7434.77
-7700.52
-7727.26
-8885.08
-6446.02
-4190.71
-3241.42
-2790.01
-2004.71
-2967.46
-5483.19
-6408.97
-6658.91
-7572.69
-9091.57
-8771.77
-5640.06
-8608.69
-8972.75
-6541.68
-5852.95
-5803.84
-5379.69
-3424.44
-6892.55
-8791.21
-6839.33
-4226.43
-9193
-3471.36
-9024.56
-9131.45
-11850.3
-3172.9
-8192.18
-10913.8
-7385.68
-11703.6
-8998.46
-12400.8
-4355.92
-9599.41
-18623.2
5848.92
-5998.68
-28794.9
9027.96
-6746.84
-23203.8
-18334.4
-1378.76
14859.7
-55827.1
-1409.02
18521.6
-7284.71
-88292.6
43995.9
16128.9
-50472.9
-47068.5
35156.5
51827.7
-157918
27383.1
69299.6
-55983
-161354
91654
51902.6
-141795
-80773.1
123845
41144.8
-302662
157751
153545
-304586
-40755.1
170022
-47153.5
-322194
364970
64578.4
-537916
292116
118830
-348791
-163972
377442
-72977.5
-641391
401862
305054
-813596
145721
314614
-407975
101704
385125
-274038
-368378
533207
-279967
-502004
571039
-115192
-740272
764534
-14766.4
-782740
455479
512125
-1.11873e+06
456230
648803
-904141
22599.5
404664
-155250
-713110
757530
180191
-1.04173e+06
516116
447834
-626612
-182104
381285
-100250
-463143
310841
357911
-829584
308291
282484
-212042
-344259
473606
77624.4
-605259
311061
106336
-190170
-175499
228027
-36190.6
-262479
166817
42539.2
-220806
-93964.2
55233.4
-24753.4
-205414
89076.8
-15785.8
-139401
-95962.8
-5822.48
632.896
-122774
10398.4
2082.32
-109452
-120504
17208.7
-31321.5
-64244.8
-40196.5
-13633
-20719.7
-47771.4
20641.7
-2899.54
-7491.37
-4168.64
-1988.21
-7493.5
-17351.6
-2986.6
-34915.3
-32110.8
-59997.9
-47688.8
-75442.8
-104556
-123384
-106034
-138137
-119891
-102168
)
;

boundaryField
{
    sides
    {
        type            calculated;
        value           nonuniform List<scalar> 2(-102168 916368);
    }
    empty
    {
        type            empty;
    }
}


// ************************************************************************* //
