/*--------------------------------*- C++ -*----------------------------------*\
  =========                 |
  \\      /  F ield         | OpenFOAM: The Open Source CFD Toolbox
   \\    /   O peration     | Website:  https://openfoam.org
    \\  /    A nd           | Version:  9
     \\/     M anipulation  |
\*---------------------------------------------------------------------------*/
FoamFile
{
    format      ascii;
    class       volScalarField;
    location    "0.02";
    object      p_0;
}
// * * * * * * * * * * * * * * * * * * * * * * * * * * * * * * * * * * * * * //

dimensions      [1 -1 -2 0 0 0 0];

internalField   nonuniform List<scalar> 
1000
(
42805.3
42794.9
42785.8
42777.7
42769.6
42761.3
42752.9
42744.5
42736.1
42727.7
42719.3
42710.9
42702.4
42694
42685.5
42677
42668.5
42660
42651.4
42642.9
42634.3
42625.7
42617.1
42608.4
42599.8
42591.1
42582.5
42573.8
42565.1
42556.3
42547.6
42538.8
42530
42521.2
42512.4
42503.6
42494.7
42485.9
42477
42468.1
42459.2
42450.2
42441.3
42432.3
42423.3
42414.3
42405.3
42396.2
42387.1
42378.1
42369
42359.8
42350.7
42341.5
42332.4
42323.2
42313.9
42304.7
42295.5
42286.2
42276.9
42267.6
42258.3
42248.9
42239.5
42230.2
42220.8
42211.3
42201.9
42192.4
42182.9
42173.4
42163.9
42154.4
42144.8
42135.2
42125.6
42116
42106.3
42096.7
42087
42077.3
42067.5
42057.8
42048
42038.2
42028.4
42018.6
42008.8
41998.9
41989
41979.1
41969.1
41959.2
41949.2
41939.2
41929.2
41919.1
41909.1
41899
41888.9
41878.7
41868.6
41858.4
41848.2
41838
41827.8
41817.5
41807.2
41796.9
41786.6
41776.2
41765.8
41755.4
41745
41734.6
41724.1
41713.6
41703.1
41692.5
41682
41671.4
41660.8
41650.1
41639.5
41628.8
41618.1
41607.4
41596.6
41585.8
41575
41564.2
41553.4
41542.5
41531.6
41520.7
41509.7
41498.7
41487.7
41476.7
41465.6
41454.6
41443.5
41432.3
41421.2
41410
41398.8
41387.5
41376.2
41364.9
41353.6
41342.3
41330.9
41319.5
41308.1
41296.7
41285.2
41273.7
41262.2
41250.7
41239.1
41227.5
41215.9
41204.2
41192.5
41180.8
41169
41157.2
41145.4
41133.6
41121.7
41109.8
41097.8
41085.9
41073.9
41061.9
41049.8
41037.7
41025.6
41013.5
41001.3
40989.1
40976.9
40964.6
40952.3
40939.9
40927.6
40915.2
40902.7
40890.3
40877.8
40865.2
40852.7
40840.1
40827.5
40814.8
40802.1
40789.3
40776.6
40763.8
40750.9
40738.1
40725.2
40712.2
40699.2
40686.2
40673.1
40660
40646.9
40633.8
40620.5
40607.3
40594
40580.7
40567.3
40554
40540.5
40527
40513.6
40500
40486.4
40472.8
40459.1
40445.3
40431.6
40417.8
40404
40390.1
40376.2
40362.2
40348.2
40334.2
40320
40305.9
40291.8
40277.5
40263.3
40249
40234.6
40220.2
40205.8
40191.3
40176.8
40162.2
40147.6
40132.9
40118.2
40103.4
40088.6
40073.8
40058.9
40043.9
40028.9
40013.9
39998.8
39983.7
39968.5
39953.2
39937.9
39922.6
39907.2
39891.7
39876.2
39860.7
39845
39829.4
39813.6
39797.8
39782
39766.1
39750.1
39734
39717.9
39701.7
39685.4
39669.1
39652.7
39636.2
39619.6
39602.9
39586.1
39569.2
39552.3
39535.2
39517.9
39500.6
39483.1
39465.5
39447.7
39429.7
39411.6
39393.2
39374.6
39355.8
39336.7
39317.3
39297.6
39277.6
39257.2
39236.3
39215
39193.2
39170.8
39147.9
39124.3
39100
39075
39049.1
39022.4
38994.7
38966.1
38936.4
38905.6
38873.6
38840.5
38806.1
38770.4
38733.4
38695
38655.3
38614.1
38571.6
38527.6
38482.3
38435.6
38387.5
38338.1
38287.5
38235.6
38182.6
38128.4
38073.2
38017
37959.9
37901.9
37843.1
37783.7
37723.6
37662.9
37601.7
37540.1
37478
37415.7
37353
37290.1
37227
37163.8
37100.5
37037
36973.5
36910
36846.5
36783
36719.5
36656.1
36592.7
36529.4
36466.2
36403
36340
36277.1
36214.3
36151.6
36089
36026.5
35964.2
35902
35839.9
35778
35716.2
35654.5
35593
35531.6
35470.4
35409.3
35348.3
35287.5
35226.9
35166.4
35106
35045.8
34985.8
34925.9
34866.1
34806.5
34747.1
34687.9
34628.8
34569.9
34511.1
34452.5
34394.1
34335.9
34277.8
34219.9
34162.2
34104.7
34047.4
33990.3
33933.3
33876.6
33820.1
33763.7
33707.6
33651.7
33596
33540.5
33485.2
33430.2
33375.4
33320.8
33266.5
33212.4
33158.6
33105
33051.7
32998.6
32945.9
32893.4
32841.2
32789.3
32737.6
32686.3
32635.3
32584.7
32534.3
32484.3
32434.7
32385.4
32336.5
32287.9
32239.8
32192
32144.7
32097.7
32051.2
32005.2
31959.6
31914.4
31869.8
31825.6
31782
31738.8
31696.2
31654.2
31612.7
31571.8
31531.5
31491.8
31452.7
31414.3
31376.5
31339.4
31303
31267.3
31232.3
31198.1
31164.6
31131.9
31100
31068.8
31038.5
31009
30980.4
30952.6
30925.6
30899.5
30874.3
30850
30826.6
30804.1
30782.4
30761.7
30741.8
30722.8
30704.8
30687.6
30671.2
30655.8
30641.2
30627.4
30614.4
30602.2
30590.8
30580.2
30570.3
30561.1
30552.6
30544.8
30537.5
30530.9
30524.9
30519.3
30514.3
30509.8
30505.7
30502.1
30498.8
30495.9
30493.4
30491.1
30489.2
30487.5
30486
30484.7
30483.7
30482.8
30482
30481.5
30481
30480.5
30480.2
30480
30479.8
30479.7
30479.7
30479.6
30479.6
30479.6
30479.7
30479.7
30479.7
30479.8
30479.9
30480
30480.1
30480.2
30480.4
30480.5
30480.4
30480.6
30480.7
30480.7
30480.7
30480.9
30481.1
30481.2
30481.3
30481.4
30481.6
30481.7
30481.8
30481.9
30482
30482.2
30482.4
30482.6
30482.8
30482.9
30482.9
30482.7
30483
30483.2
30483.2
30483.2
30483.4
30483.5
30483.5
30483.5
30483.8
30483.8
30483.8
30483.8
30484.1
30484.1
30484
30484.1
30484.3
30484.4
30484.3
30484.2
30484.4
30484.6
30484.7
30484.5
30484.4
30484.6
30484.8
30484.9
30485
30485.2
30485.3
30485.5
30485.6
30485.6
30485.4
30485.2
30485.3
30485.4
30485.5
30485.4
30485.3
30485.4
30485.6
30485.5
30485.4
30485.3
30485.4
30485.6
30485.6
30485.4
30485.4
30485.5
30485.6
30485.6
30485.5
30485.4
30485.4
30485.5
30485.6
30485.7
30485.8
30486
30486.1
30486
30485.8
30485.6
30485.6
30485.7
30485.8
30485.7
30485.6
30485.7
30485.8
30485.8
30485.8
30485.8
30485.8
30485.8
30485.8
30485.8
30485.8
30485.8
30485.7
30485.7
30485.7
30485.7
30485.7
30485.7
30485.7
30485.7
30485.7
30485.7
30485.6
30485.6
30485.6
30485.6
30485.6
30485.6
30485.6
30485.6
30485.6
30485.6
30485.6
30485.6
30485.6
30485.6
30485.6
30485.6
30485.6
30485.6
30485.6
30485.6
30485.6
30485.6
30485.6
30485.6
30485.6
30485.6
30485.6
30485.6
30485.6
30485.6
30485.6
30485.6
30485.6
30485.6
30485.6
30485.5
30485.6
30485.6
30485.6
30485.5
30485.6
30485.6
30485.6
30485.5
30485.6
30485.6
30485.6
30485.5
30485.5
30485.6
30485.6
30485.5
30485.5
30485.6
30485.6
30485.6
30485.5
30485.5
30485.6
30485.6
30485.5
30485.6
30485.6
30485.6
30485.6
30485.5
30485.6
30485.6
30485.6
30485.5
30485.6
30485.6
30485.6
30485.6
30485.5
30485.6
30485.6
30485.6
30485.6
30485.6
30485.6
30485.6
30485.6
30485.6
30485.6
30485.6
30485.6
30485.6
30485.6
30485.6
30485.7
30485.7
30485.6
30485.6
30485.6
30485.7
30485.7
30485.6
30485.6
30485.7
30485.7
30485.7
30485.6
30485.6
30485.7
30485.7
30485.7
30485.6
30485.7
30485.7
30485.7
30485.6
30485.6
30485.7
30485.7
30485.6
30485.6
30485.6
30485.7
30485.8
30485.7
30485.6
30485.6
30485.7
30485.7
30485.6
30485.6
30485.6
30485.8
30485.7
30485.7
30485.6
30485.6
30485.7
30485.7
30485.7
30485.7
30485.7
30485.7
30485.7
30485.7
30485.7
30485.6
30485.7
30485.7
30485.6
30485.6
30485.6
30485.6
30485.6
30485.6
30485.6
30485.6
30485.6
30485.6
30485.6
30485.6
30485.6
30485.6
30485.5
30485.5
30485.5
30485.5
30485.5
30485.6
30485.5
30485.5
30485.6
30485.6
30485.5
30485.6
30485.6
30485.6
30485.6
30485.6
30485.6
30485.6
30485.6
30485.6
30485.6
30485.6
30485.6
30485.7
30485.6
30485.6
30485.7
30485.7
30485.7
30485.7
30485.8
30485.8
30485.8
30485.9
30486
30485.9
30486
30486.2
30486.2
30486.2
30486.5
30486.7
30486.7
30486.8
30487.3
30487.2
30487.4
30487.9
30488
30488.2
30488.9
30489.2
30489
30490.2
30491
30490.8
30491.3
30493.1
30493.7
30493.5
30495
30497.3
30498
30497.3
30500.7
30503.3
30502.4
30503.8
30508.8
30510.6
30509.6
30513.5
30519.9
30519.8
30519.3
30528.8
30532.7
30531.5
30535.6
30546.3
30549.2
30546.9
30560.2
30566.5
30565.6
30572.1
30588.9
30588.5
30591.8
30607.7
30614.6
30610.5
30633.2
30645
30642.4
30652.4
30679.7
30680.9
30675.9
30708.6
30724
30719.6
30739.2
30762.4
30759.2
30776.8
30805.8
30801.6
30814.7
30851.4
30847.9
30858.1
30896.2
30897.5
30904.6
30943.8
30949.2
30944.9
30984.3
31002.9
30993.5
31031.1
31052
31046.1
31061.9
31102.5
31098.3
31104.6
31137.7
31150
31140.4
31176.5
31193.4
31186.8
31199.5
31234.2
31230.5
31228.6
31258.1
31269.9
31261.2
31277.9
31299.7
31295.4
31299.8
31318.1
31323.8
31317.3
31335.2
31343.9
31340.8
31345.3
31359.5
31360.1
31356.6
31368.3
31372.9
31369.9
31373.1
31382
31381.7
31379.3
31385.8
31388.6
31386.3
31387.5
31392.3
31392.6
31391.2
31393.3
31395.5
31393.8
31393.1
31395.4
31396
31394.7
31395.2
31396.5
31396.4
31395.9
31396.6
31396.7
31396.4
31396.5
31396.7
31396.6
31396.5
31396.6
31396.9
31396.9
31396.7
31397.1
31397.6
31397.1
31397.4
31398
31397.5
31397.8
)
;

boundaryField
{
    sides
    {
        type            zeroGradient;
    }
    empty
    {
        type            empty;
    }
}


// ************************************************************************* //
