/*--------------------------------*- C++ -*----------------------------------*\
  =========                 |
  \\      /  F ield         | OpenFOAM: The Open Source CFD Toolbox
   \\    /   O peration     | Website:  https://openfoam.org
    \\  /    A nd           | Version:  9
     \\/     M anipulation  |
\*---------------------------------------------------------------------------*/
FoamFile
{
    format      ascii;
    class       volScalarField;
    location    "0.02";
    object      rho_0;
}
// * * * * * * * * * * * * * * * * * * * * * * * * * * * * * * * * * * * * * //

dimensions      [1 -3 0 0 0 0 0];

internalField   nonuniform List<scalar> 
1000
(
0.54516
0.544957
0.544684
0.544429
0.544236
0.544096
0.543983
0.543879
0.543784
0.543708
0.543636
0.543562
0.543486
0.543409
0.543333
0.543256
0.543179
0.543102
0.543024
0.542947
0.542869
0.542791
0.542713
0.542635
0.542557
0.542478
0.5424
0.542321
0.542242
0.542163
0.542084
0.542004
0.541925
0.541845
0.541765
0.541685
0.541604
0.541524
0.541443
0.541363
0.541282
0.541201
0.541119
0.541038
0.540956
0.540874
0.540792
0.54071
0.540628
0.540545
0.540463
0.54038
0.540297
0.540214
0.54013
0.540047
0.539963
0.539879
0.539795
0.539711
0.539626
0.539542
0.539457
0.539372
0.539287
0.539201
0.539116
0.53903
0.538944
0.538858
0.538771
0.538685
0.538598
0.538511
0.538424
0.538337
0.53825
0.538162
0.538074
0.537986
0.537898
0.537809
0.537721
0.537632
0.537543
0.537454
0.537364
0.537275
0.537185
0.537095
0.537005
0.536914
0.536824
0.536733
0.536642
0.536551
0.536459
0.536368
0.536276
0.536184
0.536091
0.535999
0.535906
0.535813
0.53572
0.535627
0.535533
0.53544
0.535346
0.535251
0.535157
0.535062
0.534968
0.534873
0.534777
0.534682
0.534586
0.53449
0.534394
0.534298
0.534201
0.534104
0.534007
0.53391
0.533812
0.533715
0.533617
0.533518
0.53342
0.533321
0.533222
0.533123
0.533024
0.532924
0.532825
0.532724
0.532624
0.532524
0.532423
0.532322
0.53222
0.532119
0.532017
0.531915
0.531813
0.53171
0.531607
0.531504
0.531401
0.531297
0.531193
0.531089
0.530985
0.530881
0.530775
0.530671
0.530564
0.530462
0.530351
0.530252
0.530137
0.530042
0.529921
0.529829
0.529707
0.529613
0.529491
0.529397
0.529274
0.52918
0.529056
0.528961
0.528838
0.528737
0.528624
0.528508
0.52841
0.528283
0.528185
0.528068
0.52795
0.527852
0.527724
0.52762
0.527508
0.527385
0.527284
0.527159
0.527048
0.526938
0.526811
0.52671
0.526587
0.526463
0.526365
0.526235
0.526117
0.52601
0.52588
0.525771
0.525652
0.525522
0.52542
0.525295
0.525162
0.525059
0.524932
0.524806
0.524698
0.524562
0.524441
0.524336
0.524198
0.524072
0.523963
0.523825
0.523705
0.523594
0.523451
0.523326
0.523217
0.523076
0.522952
0.522839
0.522694
0.522565
0.522457
0.522315
0.52218
0.52207
0.521929
0.521787
0.521678
0.521544
0.521396
0.521282
0.521153
0.520999
0.520877
0.520757
0.520603
0.52047
0.520355
0.520205
0.520057
0.519943
0.519804
0.519646
0.519524
0.519398
0.519238
0.519101
0.518984
0.518831
0.518676
0.518557
0.51842
0.518255
0.518121
0.517998
0.517837
0.517682
0.517562
0.517418
0.517249
0.517113
0.516987
0.516823
0.516662
0.516536
0.516393
0.516221
0.516073
0.515945
0.515784
0.515613
0.515476
0.515337
0.515164
0.514999
0.514864
0.514711
0.514531
0.514373
0.514234
0.514067
0.513885
0.513729
0.513581
0.513402
0.513218
0.513061
0.512901
0.512709
0.512522
0.512358
0.512183
0.511978
0.511782
0.511606
0.511412
0.511191
0.51098
0.510784
0.510566
0.510323
0.510089
0.509865
0.509617
0.509343
0.509076
0.508816
0.50853
0.508217
0.507907
0.507603
0.507272
0.506912
0.506552
0.506197
0.505817
0.505405
0.50499
0.504582
0.504152
0.503689
0.503221
0.50276
0.502283
0.501776
0.501259
0.500751
0.500236
0.499693
0.499136
0.49859
0.498044
0.497477
0.496893
0.496317
0.49575
0.495169
0.494569
0.493972
0.493389
0.492802
0.492197
0.491587
0.490992
0.490403
0.489801
0.489187
0.488583
0.487992
0.487396
0.486786
0.486176
0.485581
0.484992
0.48439
0.48378
0.48318
0.482593
0.482003
0.481399
0.480796
0.480207
0.479624
0.479032
0.478431
0.477837
0.477257
0.476677
0.476086
0.47549
0.474907
0.474334
0.473755
0.473166
0.472579
0.472005
0.471437
0.470861
0.470277
0.469698
0.469132
0.468569
0.467997
0.467419
0.466849
0.466291
0.465733
0.465166
0.464596
0.464035
0.463484
0.462932
0.462372
0.46181
0.461257
0.460715
0.460171
0.459618
0.459065
0.458521
0.457987
0.457451
0.456908
0.456364
0.45583
0.455305
0.45478
0.454248
0.453714
0.45319
0.452675
0.452162
0.451642
0.451121
0.450607
0.450104
0.449604
0.4491
0.448592
0.44809
0.447601
0.447117
0.446628
0.446136
0.44565
0.445175
0.444707
0.444238
0.443767
0.443297
0.442838
0.44239
0.441944
0.441495
0.441046
0.440607
0.440179
0.439759
0.439336
0.438913
0.438497
0.438094
0.4377
0.437308
0.436916
0.436527
0.436151
0.435787
0.435429
0.435073
0.434719
0.434373
0.434041
0.433722
0.433405
0.43309
0.432781
0.432485
0.432204
0.431931
0.43166
0.431392
0.431136
0.430894
0.430665
0.430442
0.430221
0.430006
0.429805
0.429619
0.429441
0.429268
0.4291
0.428939
0.428792
0.428658
0.428531
0.428406
0.428285
0.428174
0.428077
0.42799
0.427905
0.427821
0.427743
0.427674
0.427617
0.427566
0.427515
0.427464
0.427418
0.427382
0.427353
0.427328
0.427299
0.42727
0.427247
0.427233
0.427223
0.427211
0.427198
0.427185
0.427175
0.427171
0.427169
0.427165
0.427161
0.427157
0.427153
0.427152
0.427152
0.427152
0.427153
0.427152
0.427152
0.427151
0.427152
0.427153
0.427154
0.427155
0.427156
0.427156
0.427157
0.427158
0.427158
0.42716
0.42716
0.42716
0.42716
0.427162
0.427164
0.427165
0.427166
0.427167
0.427168
0.427169
0.427169
0.42717
0.427172
0.427173
0.427175
0.427176
0.427179
0.42718
0.427179
0.427177
0.42718
0.427182
0.427182
0.427182
0.427184
0.427184
0.427184
0.427184
0.427187
0.427187
0.427186
0.427187
0.427189
0.427189
0.427188
0.427189
0.427191
0.427192
0.42719
0.427189
0.427191
0.427193
0.427193
0.427192
0.427191
0.427191
0.427193
0.427194
0.427195
0.427197
0.427198
0.427199
0.427201
0.4272
0.427198
0.427196
0.427197
0.427198
0.427198
0.427197
0.427196
0.427197
0.427198
0.427198
0.427196
0.427195
0.427196
0.427197
0.427197
0.427196
0.427195
0.427195
0.427196
0.427196
0.427195
0.427194
0.427194
0.427194
0.427195
0.427196
0.427197
0.427198
0.427199
0.427198
0.427196
0.427194
0.427194
0.427195
0.427195
0.427194
0.427193
0.427193
0.427194
0.427194
0.427194
0.427194
0.427194
0.427194
0.427193
0.427193
0.427193
0.427192
0.427192
0.427191
0.427191
0.427191
0.42719
0.42719
0.427189
0.427189
0.427189
0.427188
0.427188
0.427188
0.427188
0.427187
0.427187
0.427187
0.427186
0.427186
0.427186
0.427185
0.427185
0.427185
0.427184
0.427184
0.427184
0.427184
0.427184
0.427183
0.427183
0.427183
0.427182
0.427182
0.427182
0.427182
0.427181
0.427181
0.427181
0.42718
0.42718
0.42718
0.42718
0.427179
0.427179
0.427179
0.427178
0.427177
0.427177
0.427177
0.427177
0.427176
0.427176
0.427176
0.427176
0.427175
0.427175
0.427175
0.427175
0.427174
0.427174
0.427174
0.427173
0.427173
0.427172
0.427172
0.427172
0.427172
0.427171
0.427171
0.427171
0.42717
0.42717
0.427169
0.427169
0.427169
0.427169
0.427168
0.427168
0.427168
0.427167
0.427167
0.427167
0.427167
0.427166
0.427166
0.427165
0.427165
0.427165
0.427165
0.427164
0.427164
0.427164
0.427164
0.427163
0.427163
0.427162
0.427162
0.427162
0.427161
0.42716
0.42716
0.42716
0.42716
0.427159
0.427158
0.427158
0.427158
0.427158
0.427157
0.427157
0.427157
0.427157
0.427156
0.427155
0.427155
0.427155
0.427155
0.427154
0.427153
0.427153
0.427153
0.427153
0.427151
0.427151
0.427151
0.427151
0.427149
0.427149
0.427149
0.427149
0.427149
0.427147
0.427146
0.427146
0.427147
0.427146
0.427145
0.427144
0.427144
0.427145
0.427144
0.427143
0.427142
0.427142
0.427141
0.427141
0.42714
0.42714
0.427139
0.427139
0.427138
0.427138
0.427137
0.427136
0.427136
0.427135
0.427134
0.427134
0.427134
0.427133
0.427132
0.427131
0.427131
0.42713
0.427129
0.427129
0.427128
0.427127
0.427126
0.427125
0.427125
0.427124
0.427124
0.427124
0.427123
0.427123
0.427122
0.427121
0.427121
0.42712
0.427118
0.427118
0.427118
0.427117
0.427117
0.427117
0.427116
0.427116
0.427115
0.427114
0.427113
0.427112
0.427112
0.427111
0.42711
0.427109
0.427109
0.427108
0.427108
0.427108
0.427108
0.427107
0.427106
0.427107
0.427106
0.427105
0.427106
0.427106
0.427106
0.427105
0.427107
0.427107
0.427106
0.427107
0.42711
0.427109
0.427109
0.427113
0.427114
0.427115
0.42712
0.427123
0.427121
0.427131
0.427138
0.427135
0.42714
0.427156
0.42716
0.427158
0.427171
0.427193
0.427198
0.427192
0.427224
0.427249
0.427238
0.427254
0.4273
0.427315
0.427307
0.427345
0.427404
0.427402
0.427399
0.42749
0.427526
0.42751
0.427556
0.427654
0.427681
0.427662
0.42779
0.427847
0.42784
0.427906
0.428068
0.428059
0.428106
0.428256
0.428321
0.428289
0.428512
0.428617
0.428591
0.428703
0.428961
0.428961
0.428916
0.429229
0.429366
0.429329
0.429538
0.429744
0.429734
0.429909
0.430195
0.430145
0.430292
0.430632
0.430585
0.430705
0.431076
0.43107
0.431174
0.431539
0.43159
0.431561
0.431944
0.43212
0.43204
0.432422
0.432607
0.432558
0.432726
0.433112
0.433057
0.433149
0.43346
0.433568
0.43349
0.433845
0.433991
0.433935
0.434071
0.434399
0.434347
0.434354
0.434634
0.434736
0.434663
0.434833
0.435039
0.43499
0.435053
0.435227
0.435271
0.435217
0.435393
0.435473
0.435435
0.435487
0.435613
0.435618
0.435587
0.435695
0.435731
0.435698
0.435731
0.435806
0.435799
0.435774
0.43583
0.435852
0.435822
0.435833
0.435872
0.435869
0.435853
0.435868
0.435884
0.435861
0.435851
0.435868
0.435868
0.435852
0.435854
0.435862
0.435858
0.435852
0.435858
0.435858
0.435855
0.435855
0.435856
0.435853
0.43585
0.435848
0.435847
0.435841
0.435832
0.435827
0.435821
0.435803
0.435793
0.435779
0.435762
0.435743
)
;

boundaryField
{
    sides
    {
        type            calculated;
        value           nonuniform List<scalar> 2(0.435743 0.54516);
    }
    empty
    {
        type            empty;
    }
}


// ************************************************************************* //
