/*--------------------------------*- C++ -*----------------------------------*\
  =========                 |
  \\      /  F ield         | OpenFOAM: The Open Source CFD Toolbox
   \\    /   O peration     | Website:  https://openfoam.org
    \\  /    A nd           | Version:  9
     \\/     M anipulation  |
\*---------------------------------------------------------------------------*/
FoamFile
{
    format      ascii;
    class       volVectorField;
    location    "0.02";
    object      U;
}
// * * * * * * * * * * * * * * * * * * * * * * * * * * * * * * * * * * * * * //

dimensions      [0 1 -1 0 0 0 0];

internalField   nonuniform List<vector> 
1000
(
(8.48565 0 0)
(9.50447 0 0)
(10.2636 0 0)
(10.9222 0 0)
(11.603 0 0)
(12.3052 0 0)
(13.008 0 0)
(13.7072 0 0)
(14.4053 0 0)
(15.1039 0 0)
(15.8025 0 0)
(16.5013 0 0)
(17.2001 0 0)
(17.8991 0 0)
(18.5982 0 0)
(19.2975 0 0)
(19.9968 0 0)
(20.6963 0 0)
(21.3959 0 0)
(22.0956 0 0)
(22.7954 0 0)
(23.4954 0 0)
(24.1955 0 0)
(24.8957 0 0)
(25.596 0 0)
(26.2965 0 0)
(26.9971 0 0)
(27.6978 0 0)
(28.3986 0 0)
(29.0995 0 0)
(29.8006 0 0)
(30.5018 0 0)
(31.2031 0 0)
(31.9045 0 0)
(32.6061 0 0)
(33.3078 0 0)
(34.0096 0 0)
(34.7115 0 0)
(35.4135 0 0)
(36.1157 0 0)
(36.818 0 0)
(37.5204 0 0)
(38.2229 0 0)
(38.9256 0 0)
(39.6284 0 0)
(40.3313 0 0)
(41.0343 0 0)
(41.7374 0 0)
(42.4407 0 0)
(43.144 0 0)
(43.8475 0 0)
(44.5511 0 0)
(45.2549 0 0)
(45.9587 0 0)
(46.6627 0 0)
(47.3668 0 0)
(48.071 0 0)
(48.7753 0 0)
(49.4797 0 0)
(50.1843 0 0)
(50.8889 0 0)
(51.5937 0 0)
(52.2986 0 0)
(53.0036 0 0)
(53.7088 0 0)
(54.414 0 0)
(55.1194 0 0)
(55.8249 0 0)
(56.5305 0 0)
(57.2362 0 0)
(57.942 0 0)
(58.6479 0 0)
(59.354 0 0)
(60.0601 0 0)
(60.7664 0 0)
(61.4728 0 0)
(62.1793 0 0)
(62.8859 0 0)
(63.5926 0 0)
(64.2995 0 0)
(65.0064 0 0)
(65.7135 0 0)
(66.4206 0 0)
(67.1279 0 0)
(67.8353 0 0)
(68.5428 0 0)
(69.2504 0 0)
(69.9581 0 0)
(70.666 0 0)
(71.3739 0 0)
(72.0819 0 0)
(72.7901 0 0)
(73.4984 0 0)
(74.2067 0 0)
(74.9152 0 0)
(75.6238 0 0)
(76.3325 0 0)
(77.0412 0 0)
(77.7501 0 0)
(78.4591 0 0)
(79.1682 0 0)
(79.8775 0 0)
(80.5868 0 0)
(81.2962 0 0)
(82.0057 0 0)
(82.7153 0 0)
(83.4251 0 0)
(84.1349 0 0)
(84.8448 0 0)
(85.5548 0 0)
(86.265 0 0)
(86.9752 0 0)
(87.6855 0 0)
(88.396 0 0)
(89.1065 0 0)
(89.8171 0 0)
(90.5279 0 0)
(91.2387 0 0)
(91.9496 0 0)
(92.6606 0 0)
(93.3717 0 0)
(94.083 0 0)
(94.7943 0 0)
(95.5057 0 0)
(96.2172 0 0)
(96.9288 0 0)
(97.6404 0 0)
(98.3522 0 0)
(99.0641 0 0)
(99.7761 0 0)
(100.488 0 0)
(101.2 0 0)
(101.912 0 0)
(102.625 0 0)
(103.337 0 0)
(104.05 0 0)
(104.762 0 0)
(105.475 0 0)
(106.188 0 0)
(106.901 0 0)
(107.614 0 0)
(108.327 0 0)
(109.04 0 0)
(109.753 0 0)
(110.466 0 0)
(111.18 0 0)
(111.893 0 0)
(112.607 0 0)
(113.32 0 0)
(114.034 0 0)
(114.748 0 0)
(115.462 0 0)
(116.176 0 0)
(116.89 0 0)
(117.604 0 0)
(118.318 0 0)
(119.032 0 0)
(119.746 0 0)
(120.46 0 0)
(121.175 0 0)
(121.889 0 0)
(122.604 0 0)
(123.318 0 0)
(124.033 0 0)
(124.748 0 0)
(125.463 0 0)
(126.178 0 0)
(126.893 0 0)
(127.608 0 0)
(128.323 0 0)
(129.038 0 0)
(129.753 0 0)
(130.469 0 0)
(131.184 0 0)
(131.899 0 0)
(132.615 0 0)
(133.33 0 0)
(134.046 0 0)
(134.762 0 0)
(135.477 0 0)
(136.193 0 0)
(136.909 0 0)
(137.625 0 0)
(138.341 0 0)
(139.056 0 0)
(139.772 0 0)
(140.488 0 0)
(141.205 0 0)
(141.921 0 0)
(142.637 0 0)
(143.353 0 0)
(144.069 0 0)
(144.785 0 0)
(145.502 0 0)
(146.218 0 0)
(146.934 0 0)
(147.651 0 0)
(148.367 0 0)
(149.084 0 0)
(149.8 0 0)
(150.517 0 0)
(151.233 0 0)
(151.95 0 0)
(152.666 0 0)
(153.383 0 0)
(154.099 0 0)
(154.816 0 0)
(155.532 0 0)
(156.249 0 0)
(156.966 0 0)
(157.682 0 0)
(158.399 0 0)
(159.115 0 0)
(159.832 0 0)
(160.549 0 0)
(161.265 0 0)
(161.982 0 0)
(162.699 0 0)
(163.415 0 0)
(164.132 0 0)
(164.848 0 0)
(165.565 0 0)
(166.282 0 0)
(166.998 0 0)
(167.715 0 0)
(168.431 0 0)
(169.147 0 0)
(169.864 0 0)
(170.58 0 0)
(171.297 0 0)
(172.013 0 0)
(172.73 0 0)
(173.446 0 0)
(174.162 0 0)
(174.878 0 0)
(175.595 0 0)
(176.311 0 0)
(177.027 0 0)
(177.743 0 0)
(178.459 0 0)
(179.175 0 0)
(179.891 0 0)
(180.607 0 0)
(181.322 0 0)
(182.038 0 0)
(182.754 0 0)
(183.469 0 0)
(184.185 0 0)
(184.9 0 0)
(185.616 0 0)
(186.331 0 0)
(187.046 0 0)
(187.761 0 0)
(188.477 0 0)
(189.192 0 0)
(189.906 0 0)
(190.621 0 0)
(191.336 0 0)
(192.051 0 0)
(192.765 0 0)
(193.479 0 0)
(194.194 0 0)
(194.908 0 0)
(195.622 0 0)
(196.336 0 0)
(197.049 0 0)
(197.763 0 0)
(198.476 0 0)
(199.189 0 0)
(199.902 0 0)
(200.615 0 0)
(201.328 0 0)
(202.04 0 0)
(202.752 0 0)
(203.464 0 0)
(204.176 0 0)
(204.887 0 0)
(205.598 0 0)
(206.309 0 0)
(207.019 0 0)
(207.729 0 0)
(208.439 0 0)
(209.148 0 0)
(209.856 0 0)
(210.564 0 0)
(211.272 0 0)
(211.979 0 0)
(212.685 0 0)
(213.39 0 0)
(214.095 0 0)
(214.799 0 0)
(215.501 0 0)
(216.203 0 0)
(216.903 0 0)
(217.602 0 0)
(218.3 0 0)
(218.996 0 0)
(219.69 0 0)
(220.382 0 0)
(221.072 0 0)
(221.759 0 0)
(222.444 0 0)
(223.125 0 0)
(223.804 0 0)
(224.478 0 0)
(225.149 0 0)
(225.816 0 0)
(226.478 0 0)
(227.136 0 0)
(227.788 0 0)
(228.434 0 0)
(229.074 0 0)
(229.708 0 0)
(230.336 0 0)
(230.956 0 0)
(231.569 0 0)
(232.174 0 0)
(232.771 0 0)
(233.36 0 0)
(233.941 0 0)
(234.513 0 0)
(235.076 0 0)
(235.631 0 0)
(236.177 0 0)
(236.714 0 0)
(237.242 0 0)
(237.762 0 0)
(238.274 0 0)
(238.778 0 0)
(239.273 0 0)
(239.761 0 0)
(240.242 0 0)
(240.716 0 0)
(241.183 0 0)
(241.645 0 0)
(242.1 0 0)
(242.55 0 0)
(242.995 0 0)
(243.435 0 0)
(243.871 0 0)
(244.303 0 0)
(244.732 0 0)
(245.158 0 0)
(245.58 0 0)
(246 0 0)
(246.418 0 0)
(246.834 0 0)
(247.248 0 0)
(247.66 0 0)
(248.071 0 0)
(248.48 0 0)
(248.889 0 0)
(249.296 0 0)
(249.703 0 0)
(250.108 0 0)
(250.514 0 0)
(250.918 0 0)
(251.322 0 0)
(251.725 0 0)
(252.128 0 0)
(252.53 0 0)
(252.932 0 0)
(253.334 0 0)
(253.735 0 0)
(254.136 0 0)
(254.537 0 0)
(254.937 0 0)
(255.336 0 0)
(255.736 0 0)
(256.135 0 0)
(256.534 0 0)
(256.932 0 0)
(257.33 0 0)
(257.728 0 0)
(258.125 0 0)
(258.522 0 0)
(258.919 0 0)
(259.315 0 0)
(259.711 0 0)
(260.106 0 0)
(260.501 0 0)
(260.896 0 0)
(261.29 0 0)
(261.684 0 0)
(262.077 0 0)
(262.469 0 0)
(262.861 0 0)
(263.253 0 0)
(263.644 0 0)
(264.035 0 0)
(264.425 0 0)
(264.814 0 0)
(265.203 0 0)
(265.591 0 0)
(265.978 0 0)
(266.365 0 0)
(266.751 0 0)
(267.137 0 0)
(267.522 0 0)
(267.905 0 0)
(268.289 0 0)
(268.671 0 0)
(269.052 0 0)
(269.433 0 0)
(269.813 0 0)
(270.192 0 0)
(270.569 0 0)
(270.946 0 0)
(271.322 0 0)
(271.697 0 0)
(272.071 0 0)
(272.443 0 0)
(272.815 0 0)
(273.185 0 0)
(273.554 0 0)
(273.921 0 0)
(274.288 0 0)
(274.652 0 0)
(275.016 0 0)
(275.378 0 0)
(275.738 0 0)
(276.097 0 0)
(276.454 0 0)
(276.809 0 0)
(277.163 0 0)
(277.515 0 0)
(277.864 0 0)
(278.212 0 0)
(278.558 0 0)
(278.901 0 0)
(279.243 0 0)
(279.582 0 0)
(279.918 0 0)
(280.253 0 0)
(280.584 0 0)
(280.913 0 0)
(281.239 0 0)
(281.563 0 0)
(281.883 0 0)
(282.201 0 0)
(282.515 0 0)
(282.826 0 0)
(283.133 0 0)
(283.437 0 0)
(283.738 0 0)
(284.035 0 0)
(284.328 0 0)
(284.617 0 0)
(284.901 0 0)
(285.182 0 0)
(285.458 0 0)
(285.73 0 0)
(285.997 0 0)
(286.26 0 0)
(286.517 0 0)
(286.77 0 0)
(287.017 0 0)
(287.259 0 0)
(287.496 0 0)
(287.727 0 0)
(287.953 0 0)
(288.172 0 0)
(288.386 0 0)
(288.594 0 0)
(288.796 0 0)
(288.992 0 0)
(289.182 0 0)
(289.365 0 0)
(289.542 0 0)
(289.713 0 0)
(289.877 0 0)
(290.035 0 0)
(290.186 0 0)
(290.331 0 0)
(290.469 0 0)
(290.601 0 0)
(290.727 0 0)
(290.846 0 0)
(290.959 0 0)
(291.065 0 0)
(291.166 0 0)
(291.26 0 0)
(291.349 0 0)
(291.432 0 0)
(291.51 0 0)
(291.582 0 0)
(291.649 0 0)
(291.711 0 0)
(291.768 0 0)
(291.821 0 0)
(291.869 0 0)
(291.913 0 0)
(291.954 0 0)
(291.99 0 0)
(292.023 0 0)
(292.052 0 0)
(292.079 0 0)
(292.103 0 0)
(292.124 0 0)
(292.142 0 0)
(292.158 0 0)
(292.173 0 0)
(292.185 0 0)
(292.196 0 0)
(292.205 0 0)
(292.212 0 0)
(292.219 0 0)
(292.224 0 0)
(292.228 0 0)
(292.232 0 0)
(292.235 0 0)
(292.237 0 0)
(292.239 0 0)
(292.24 0 0)
(292.24 0 0)
(292.241 0 0)
(292.241 0 0)
(292.241 0 0)
(292.241 0 0)
(292.241 0 0)
(292.241 0 0)
(292.24 0 0)
(292.24 0 0)
(292.239 0 0)
(292.238 0 0)
(292.238 0 0)
(292.237 0 0)
(292.237 0 0)
(292.237 0 0)
(292.236 0 0)
(292.234 0 0)
(292.233 0 0)
(292.232 0 0)
(292.231 0 0)
(292.23 0 0)
(292.229 0 0)
(292.229 0 0)
(292.228 0 0)
(292.227 0 0)
(292.226 0 0)
(292.226 0 0)
(292.225 0 0)
(292.224 0 0)
(292.223 0 0)
(292.222 0 0)
(292.222 0 0)
(292.221 0 0)
(292.221 0 0)
(292.221 0 0)
(292.22 0 0)
(292.219 0 0)
(292.217 0 0)
(292.217 0 0)
(292.217 0 0)
(292.216 0 0)
(292.214 0 0)
(292.214 0 0)
(292.213 0 0)
(292.212 0 0)
(292.211 0 0)
(292.211 0 0)
(292.21 0 0)
(292.209 0 0)
(292.208 0 0)
(292.208 0 0)
(292.207 0 0)
(292.206 0 0)
(292.205 0 0)
(292.205 0 0)
(292.205 0 0)
(292.203 0 0)
(292.202 0 0)
(292.202 0 0)
(292.202 0 0)
(292.202 0 0)
(292.201 0 0)
(292.2 0 0)
(292.2 0 0)
(292.2 0 0)
(292.2 0 0)
(292.201 0 0)
(292.201 0 0)
(292.201 0 0)
(292.202 0 0)
(292.202 0 0)
(292.202 0 0)
(292.2 0 0)
(292.199 0 0)
(292.199 0 0)
(292.199 0 0)
(292.199 0 0)
(292.198 0 0)
(292.197 0 0)
(292.198 0 0)
(292.198 0 0)
(292.197 0 0)
(292.197 0 0)
(292.196 0 0)
(292.196 0 0)
(292.197 0 0)
(292.196 0 0)
(292.196 0 0)
(292.196 0 0)
(292.196 0 0)
(292.196 0 0)
(292.196 0 0)
(292.195 0 0)
(292.195 0 0)
(292.195 0 0)
(292.195 0 0)
(292.196 0 0)
(292.196 0 0)
(292.197 0 0)
(292.198 0 0)
(292.198 0 0)
(292.198 0 0)
(292.197 0 0)
(292.196 0 0)
(292.196 0 0)
(292.196 0 0)
(292.196 0 0)
(292.196 0 0)
(292.196 0 0)
(292.196 0 0)
(292.196 0 0)
(292.197 0 0)
(292.197 0 0)
(292.197 0 0)
(292.197 0 0)
(292.197 0 0)
(292.197 0 0)
(292.197 0 0)
(292.197 0 0)
(292.197 0 0)
(292.196 0 0)
(292.196 0 0)
(292.196 0 0)
(292.196 0 0)
(292.196 0 0)
(292.196 0 0)
(292.196 0 0)
(292.196 0 0)
(292.196 0 0)
(292.196 0 0)
(292.196 0 0)
(292.196 0 0)
(292.196 0 0)
(292.196 0 0)
(292.196 0 0)
(292.196 0 0)
(292.196 0 0)
(292.196 0 0)
(292.196 0 0)
(292.196 0 0)
(292.196 0 0)
(292.196 0 0)
(292.196 0 0)
(292.196 0 0)
(292.196 0 0)
(292.196 0 0)
(292.196 0 0)
(292.196 0 0)
(292.196 0 0)
(292.196 0 0)
(292.196 0 0)
(292.196 0 0)
(292.196 0 0)
(292.196 0 0)
(292.196 0 0)
(292.196 0 0)
(292.196 0 0)
(292.196 0 0)
(292.196 0 0)
(292.196 0 0)
(292.196 0 0)
(292.196 0 0)
(292.196 0 0)
(292.196 0 0)
(292.196 0 0)
(292.196 0 0)
(292.196 0 0)
(292.196 0 0)
(292.196 0 0)
(292.196 0 0)
(292.196 0 0)
(292.196 0 0)
(292.196 0 0)
(292.196 0 0)
(292.196 0 0)
(292.196 0 0)
(292.196 0 0)
(292.196 0 0)
(292.196 0 0)
(292.196 0 0)
(292.196 0 0)
(292.196 0 0)
(292.196 0 0)
(292.196 0 0)
(292.196 0 0)
(292.196 0 0)
(292.196 0 0)
(292.196 0 0)
(292.196 0 0)
(292.196 0 0)
(292.196 0 0)
(292.196 0 0)
(292.196 0 0)
(292.196 0 0)
(292.196 0 0)
(292.196 0 0)
(292.196 0 0)
(292.196 0 0)
(292.196 0 0)
(292.196 0 0)
(292.196 0 0)
(292.196 0 0)
(292.196 0 0)
(292.196 0 0)
(292.196 0 0)
(292.196 0 0)
(292.196 0 0)
(292.196 0 0)
(292.196 0 0)
(292.195 0 0)
(292.196 0 0)
(292.196 0 0)
(292.195 0 0)
(292.195 0 0)
(292.195 0 0)
(292.196 0 0)
(292.196 0 0)
(292.195 0 0)
(292.195 0 0)
(292.195 0 0)
(292.195 0 0)
(292.195 0 0)
(292.195 0 0)
(292.195 0 0)
(292.195 0 0)
(292.195 0 0)
(292.195 0 0)
(292.195 0 0)
(292.195 0 0)
(292.195 0 0)
(292.195 0 0)
(292.195 0 0)
(292.195 0 0)
(292.195 0 0)
(292.195 0 0)
(292.195 0 0)
(292.195 0 0)
(292.195 0 0)
(292.195 0 0)
(292.195 0 0)
(292.195 0 0)
(292.195 0 0)
(292.195 0 0)
(292.195 0 0)
(292.195 0 0)
(292.194 0 0)
(292.194 0 0)
(292.194 0 0)
(292.195 0 0)
(292.195 0 0)
(292.194 0 0)
(292.194 0 0)
(292.194 0 0)
(292.195 0 0)
(292.195 0 0)
(292.194 0 0)
(292.194 0 0)
(292.195 0 0)
(292.195 0 0)
(292.195 0 0)
(292.195 0 0)
(292.195 0 0)
(292.195 0 0)
(292.195 0 0)
(292.195 0 0)
(292.195 0 0)
(292.195 0 0)
(292.195 0 0)
(292.195 0 0)
(292.195 0 0)
(292.195 0 0)
(292.195 0 0)
(292.195 0 0)
(292.195 0 0)
(292.195 0 0)
(292.195 0 0)
(292.195 0 0)
(292.195 0 0)
(292.195 0 0)
(292.195 0 0)
(292.195 0 0)
(292.195 0 0)
(292.195 0 0)
(292.195 0 0)
(292.195 0 0)
(292.195 0 0)
(292.195 0 0)
(292.195 0 0)
(292.195 0 0)
(292.196 0 0)
(292.196 0 0)
(292.196 0 0)
(292.196 0 0)
(292.196 0 0)
(292.196 0 0)
(292.196 0 0)
(292.196 0 0)
(292.196 0 0)
(292.196 0 0)
(292.196 0 0)
(292.196 0 0)
(292.196 0 0)
(292.196 0 0)
(292.196 0 0)
(292.196 0 0)
(292.196 0 0)
(292.196 0 0)
(292.196 0 0)
(292.196 0 0)
(292.196 0 0)
(292.196 0 0)
(292.196 0 0)
(292.196 0 0)
(292.196 0 0)
(292.196 0 0)
(292.195 0 0)
(292.195 0 0)
(292.195 0 0)
(292.195 0 0)
(292.195 0 0)
(292.194 0 0)
(292.194 0 0)
(292.194 0 0)
(292.193 0 0)
(292.192 0 0)
(292.192 0 0)
(292.192 0 0)
(292.191 0 0)
(292.19 0 0)
(292.189 0 0)
(292.188 0 0)
(292.187 0 0)
(292.186 0 0)
(292.185 0 0)
(292.183 0 0)
(292.181 0 0)
(292.18 0 0)
(292.177 0 0)
(292.174 0 0)
(292.173 0 0)
(292.169 0 0)
(292.164 0 0)
(292.162 0 0)
(292.158 0 0)
(292.151 0 0)
(292.147 0 0)
(292.144 0 0)
(292.136 0 0)
(292.127 0 0)
(292.121 0 0)
(292.117 0 0)
(292.105 0 0)
(292.092 0 0)
(292.087 0 0)
(292.077 0 0)
(292.057 0 0)
(292.044 0 0)
(292.037 0 0)
(292.018 0 0)
(291.992 0 0)
(291.98 0 0)
(291.967 0 0)
(291.934 0 0)
(291.907 0 0)
(291.897 0 0)
(291.87 0 0)
(291.827 0 0)
(291.803 0 0)
(291.788 0 0)
(291.741 0 0)
(291.696 0 0)
(291.676 0 0)
(291.637 0 0)
(291.574 0 0)
(291.536 0 0)
(291.502 0 0)
(291.434 0 0)
(291.379 0 0)
(291.34 0 0)
(291.257 0 0)
(291.176 0 0)
(291.141 0 0)
(291.07 0 0)
(290.957 0 0)
(290.9 0 0)
(290.866 0 0)
(290.755 0 0)
(290.655 0 0)
(290.62 0 0)
(290.538 0 0)
(290.42 0 0)
(290.348 0 0)
(290.262 0 0)
(290.132 0 0)
(290.054 0 0)
(289.968 0 0)
(289.817 0 0)
(289.735 0 0)
(289.66 0 0)
(289.508 0 0)
(289.407 0 0)
(289.322 0 0)
(289.166 0 0)
(289.052 0 0)
(288.982 0 0)
(288.834 0 0)
(288.689 0 0)
(288.613 0 0)
(288.466 0 0)
(288.313 0 0)
(288.249 0 0)
(288.143 0 0)
(287.975 0 0)
(287.883 0 0)
(287.805 0 0)
(287.656 0 0)
(287.55 0 0)
(287.488 0 0)
(287.349 0 0)
(287.217 0 0)
(287.174 0 0)
(287.083 0 0)
(286.935 0 0)
(286.864 0 0)
(286.824 0 0)
(286.707 0 0)
(286.61 0 0)
(286.572 0 0)
(286.492 0 0)
(286.389 0 0)
(286.348 0 0)
(286.302 0 0)
(286.214 0 0)
(286.161 0 0)
(286.133 0 0)
(286.063 0 0)
(285.997 0 0)
(285.978 0 0)
(285.941 0 0)
(285.879 0 0)
(285.849 0 0)
(285.835 0 0)
(285.789 0 0)
(285.748 0 0)
(285.737 0 0)
(285.713 0 0)
(285.673 0 0)
(285.656 0 0)
(285.651 0 0)
(285.624 0 0)
(285.599 0 0)
(285.594 0 0)
(285.582 0 0)
(285.56 0 0)
(285.552 0 0)
(285.55 0 0)
(285.539 0 0)
(285.527 0 0)
(285.524 0 0)
(285.52 0 0)
(285.51 0 0)
(285.504 0 0)
(285.506 0 0)
(285.504 0 0)
(285.499 0 0)
(285.499 0 0)
(285.502 0 0)
(285.501 0 0)
(285.501 0 0)
(285.503 0 0)
(285.504 0 0)
(285.505 0 0)
(285.507 0 0)
(285.509 0 0)
(285.511 0 0)
(285.513 0 0)
(285.516 0 0)
(285.519 0 0)
(285.521 0 0)
(285.522 0 0)
(285.526 0 0)
(285.529 0 0)
(285.53 0 0)
(285.533 0 0)
(285.536 0 0)
(285.537 0 0)
)
;

boundaryField
{
    sides
    {
        type            zeroGradient;
    }
    empty
    {
        type            empty;
    }
}


// ************************************************************************* //
