/*--------------------------------*- C++ -*----------------------------------*\
  =========                 |
  \\      /  F ield         | OpenFOAM: The Open Source CFD Toolbox
   \\    /   O peration     | Website:  https://openfoam.org
    \\  /    A nd           | Version:  9
     \\/     M anipulation  |
\*---------------------------------------------------------------------------*/
FoamFile
{
    format      ascii;
    class       surfaceScalarField;
    location    "0.034";
    object      phi;
}
// * * * * * * * * * * * * * * * * * * * * * * * * * * * * * * * * * * * * * //

dimensions      [1 0 -1 0 0 0 0];

internalField   nonuniform List<scalar> 
9999
(
5.13092
5.16993
5.20894
5.24795
5.28696
5.32596
5.36496
5.40397
5.44297
5.48197
5.52096
5.55996
5.59895
5.63795
5.67694
5.71593
5.75492
5.79391
5.83289
5.87188
5.91086
5.94985
5.98882
6.0278
6.06678
6.10576
6.14474
6.18371
6.22268
6.26165
6.30062
6.33959
6.37856
6.41753
6.4565
6.49546
6.53442
6.57337
6.61233
6.65129
6.69025
6.72921
6.76817
6.80712
6.84607
6.88502
6.92396
6.9629
7.00185
7.0408
7.07975
7.1187
7.15765
7.1966
7.23553
7.27447
7.31339
7.35232
7.39124
7.43017
7.4691
7.50804
7.54698
7.58593
7.62487
7.66382
7.70275
7.74169
7.78061
7.81952
7.85843
7.89733
7.93623
7.97512
8.01402
8.05292
8.09182
8.13073
8.16965
8.20859
8.24753
8.28648
8.32545
8.36442
8.4034
8.4424
8.4814
8.5204
8.55941
8.59843
8.63744
8.67646
8.71547
8.75449
8.7935
8.83252
8.87155
8.91058
8.94961
8.98864
9.02767
9.0667
9.10573
9.14476
9.18379
9.22282
9.26185
9.30088
9.3399
9.37893
9.41796
9.45699
9.49601
9.53504
9.57407
9.6131
9.65212
9.69115
9.73018
9.7692
9.80823
9.84725
9.88628
9.9253
9.96433
10.0034
10.0424
10.0814
10.1204
10.1595
10.1985
10.2375
10.2765
10.3155
10.3546
10.3936
10.4326
10.4716
10.5107
10.5497
10.5887
10.6277
10.6668
10.7058
10.7448
10.7838
10.8228
10.8619
10.9009
10.9399
10.9789
11.0179
11.057
11.096
11.135
11.174
11.213
11.2521
11.2911
11.3301
11.3691
11.4081
11.4472
11.4862
11.5252
11.5642
11.6032
11.6422
11.6813
11.7203
11.7593
11.7983
11.8373
11.8763
11.9154
11.9544
11.9934
12.0324
12.0714
12.1104
12.1494
12.1885
12.2275
12.2665
12.3055
12.3445
12.3835
12.4225
12.4616
12.5006
12.5396
12.5786
12.6176
12.6566
12.6956
12.7346
12.7737
12.8127
12.8517
12.8907
12.9297
12.9687
13.0077
13.0467
13.0857
13.1248
13.1638
13.2028
13.2418
13.2808
13.3198
13.3588
13.3978
13.4368
13.4758
13.5148
13.5539
13.5929
13.6319
13.6709
13.7099
13.7489
13.7879
13.8269
13.8659
13.9049
13.9439
13.9829
14.0219
14.0609
14.0999
14.1389
14.178
14.217
14.256
14.295
14.334
14.373
14.412
14.451
14.49
14.529
14.568
14.607
14.646
14.685
14.724
14.763
14.802
14.841
14.88
14.919
14.958
14.997
15.036
15.075
15.114
15.153
15.192
15.231
15.27
15.309
15.348
15.387
15.426
15.465
15.504
15.543
15.582
15.621
15.66
15.699
15.738
15.777
15.816
15.855
15.894
15.933
15.9719
16.0109
16.0499
16.0889
16.1279
16.1669
16.2059
16.2449
16.2839
16.3229
16.3619
16.4009
16.4399
16.4789
16.5179
16.5569
16.5958
16.6348
16.6738
16.7128
16.7518
16.7908
16.8298
16.8688
16.9078
16.9468
16.9858
17.0247
17.0637
17.1027
17.1417
17.1807
17.2197
17.2587
17.2977
17.3367
17.3756
17.4146
17.4536
17.4926
17.5316
17.5706
17.6096
17.6485
17.6875
17.7265
17.7655
17.8045
17.8435
17.8825
17.9214
17.9604
17.9994
18.0384
18.0774
18.1164
18.1553
18.1943
18.2333
18.2723
18.3113
18.3503
18.3892
18.4282
18.4672
18.5062
18.5452
18.5841
18.6231
18.6621
18.7011
18.7401
18.779
18.818
18.857
18.896
18.935
18.9739
19.0129
19.0519
19.0909
19.1299
19.1688
19.2078
19.2468
19.2858
19.3247
19.3637
19.4027
19.4417
19.4806
19.5196
19.5586
19.5976
19.6365
19.6755
19.7145
19.7535
19.7924
19.8314
19.8704
19.9094
19.9483
19.9873
20.0263
20.0653
20.1042
20.1432
20.1822
20.2211
20.2601
20.2991
20.3381
20.377
20.416
20.455
20.4939
20.5329
20.5719
20.6108
20.6498
20.6888
20.7277
20.7667
20.8057
20.8447
20.8836
20.9226
20.9616
21.0005
21.0395
21.0785
21.1174
21.1564
21.1953
21.2343
21.2733
21.3122
21.3512
21.3902
21.4291
21.4681
21.5071
21.546
21.585
21.624
21.6629
21.7019
21.7408
21.7798
21.8188
21.8577
21.8967
21.9357
21.9746
22.0136
22.0525
22.0915
22.1305
22.1694
22.2084
22.2473
22.2863
22.3252
22.3642
22.4032
22.4421
22.4811
22.52
22.559
22.598
22.6369
22.6759
22.7148
22.7538
22.7927
22.8317
22.8706
22.9096
22.9486
22.9875
23.0265
23.0654
23.1044
23.1433
23.1823
23.2212
23.2602
23.2991
23.3381
23.377
23.416
23.4549
23.4939
23.5329
23.5718
23.6108
23.6497
23.6887
23.7276
23.7666
23.8055
23.8445
23.8834
23.9223
23.9613
24.0002
24.0392
24.0781
24.1171
24.156
24.195
24.2339
24.2729
24.3118
24.3508
24.3897
24.4287
24.4676
24.5066
24.5455
24.5844
24.6234
24.6623
24.7013
24.7402
24.7792
24.8181
24.857
24.896
24.9349
24.9739
25.0128
25.0518
25.0907
25.1296
25.1686
25.2075
25.2465
25.2854
25.3243
25.3633
25.4022
25.4412
25.4801
25.519
25.558
25.5969
25.6358
25.6748
25.7137
25.7527
25.7916
25.8305
25.8695
25.9084
25.9473
25.9863
26.0252
26.0641
26.1031
26.142
26.181
26.2199
26.2588
26.2978
26.3367
26.3756
26.4145
26.4535
26.4924
26.5313
26.5703
26.6092
26.6481
26.6871
26.726
26.7649
26.8039
26.8428
26.8817
26.9206
26.9596
26.9985
27.0374
27.0764
27.1153
27.1542
27.1931
27.2321
27.271
27.3099
27.3489
27.3878
27.4267
27.4656
27.5046
27.5435
27.5824
27.6213
27.6603
27.6992
27.7381
27.777
27.8159
27.8549
27.8938
27.9327
27.9716
28.0106
28.0495
28.0884
28.1273
28.1662
28.2052
28.2441
28.283
28.3219
28.3608
28.3998
28.4387
28.4776
28.5165
28.5554
28.5944
28.6333
28.6722
28.7111
28.75
28.7889
28.8279
28.8668
28.9057
28.9446
28.9835
29.0224
29.0613
29.1003
29.1392
29.1781
29.217
29.2559
29.2948
29.3337
29.3727
29.4116
29.4505
29.4894
29.5283
29.5672
29.6061
29.645
29.6839
29.7229
29.7618
29.8007
29.8396
29.8785
29.9174
29.9563
29.9952
30.0341
30.073
30.1119
30.1508
30.1897
30.2287
30.2676
30.3065
30.3454
30.3843
30.4232
30.4621
30.501
30.5399
30.5788
30.6177
30.6566
30.6955
30.7344
30.7733
30.8122
30.8511
30.89
30.9289
30.9678
31.0067
31.0456
31.0845
31.1234
31.1623
31.2012
31.2401
31.279
31.3179
31.3568
31.3957
31.4346
31.4735
31.5124
31.5513
31.5902
31.6291
31.668
31.7069
31.7458
31.7847
31.8236
31.8625
31.9014
31.9403
31.9791
32.018
32.0569
32.0958
32.1347
32.1736
32.2125
32.2514
32.2903
32.3292
32.3681
32.407
32.4458
32.4847
32.5236
32.5625
32.6014
32.6403
32.6792
32.7181
32.757
32.7958
32.8347
32.8736
32.9125
32.9514
32.9903
33.0292
33.068
33.1069
33.1458
33.1847
33.2236
33.2625
33.3014
33.3402
33.3791
33.418
33.4569
33.4958
33.5347
33.5735
33.6124
33.6513
33.6902
33.7291
33.7679
33.8068
33.8457
33.8846
33.9235
33.9623
34.0012
34.0401
34.079
34.1178
34.1567
34.1956
34.2345
34.2734
34.3122
34.3511
34.39
34.4289
34.4677
34.5066
34.5455
34.5844
34.6232
34.6621
34.701
34.7398
34.7787
34.8176
34.8565
34.8953
34.9342
34.9731
35.0119
35.0508
35.0897
35.1286
35.1674
35.2063
35.2452
35.284
35.3229
35.3618
35.4006
35.4395
35.4784
35.5172
35.5561
35.595
35.6338
35.6727
35.7116
35.7504
35.7893
35.8282
35.867
35.9059
35.9447
35.9836
36.0225
36.0613
36.1002
36.1391
36.1779
36.2168
36.2556
36.2945
36.3334
36.3722
36.4111
36.4499
36.4888
36.5277
36.5665
36.6054
36.6442
36.6831
36.7219
36.7608
36.7997
36.8385
36.8774
36.9162
36.9551
36.9939
37.0328
37.0716
37.1105
37.1494
37.1882
37.2271
37.2659
37.3048
37.3436
37.3825
37.4213
37.4602
37.499
37.5379
37.5767
37.6156
37.6544
37.6933
37.7321
37.771
37.8098
37.8487
37.8875
37.9264
37.9652
38.0041
38.0429
38.0818
38.1206
38.1594
38.1983
38.2371
38.276
38.3148
38.3537
38.3925
38.4314
38.4702
38.509
38.5479
38.5867
38.6256
38.6644
38.7032
38.7421
38.7809
38.8198
38.8586
38.8974
38.9363
38.9751
39.014
39.0528
39.0916
39.1305
39.1693
39.2081
39.247
39.2858
39.3247
39.3635
39.4023
39.4412
39.48
39.5188
39.5577
39.5965
39.6353
39.6742
39.713
39.7518
39.7907
39.8295
39.8683
39.9072
39.946
39.9848
40.0236
40.0625
40.1013
40.1401
40.179
40.2178
40.2566
40.2954
40.3343
40.3731
40.4119
40.4508
40.4896
40.5284
40.5672
40.6061
40.6449
40.6837
40.7225
40.7614
40.8002
40.839
40.8778
40.9166
40.9555
40.9943
41.0331
41.0719
41.1108
41.1496
41.1884
41.2272
41.266
41.3049
41.3437
41.3825
41.4213
41.4601
41.4989
41.5378
41.5766
41.6154
41.6542
41.693
41.7318
41.7707
41.8095
41.8483
41.8871
41.9259
41.9647
42.0035
42.0424
42.0812
42.12
42.1588
42.1976
42.2364
42.2752
42.314
42.3528
42.3917
42.4305
42.4693
42.5081
42.5469
42.5857
42.6245
42.6633
42.7021
42.7409
42.7797
42.8185
42.8573
42.8961
42.935
42.9738
43.0126
43.0514
43.0902
43.129
43.1678
43.2066
43.2454
43.2842
43.323
43.3618
43.4006
43.4394
43.4782
43.517
43.5558
43.5946
43.6334
43.6722
43.711
43.7498
43.7886
43.8274
43.8662
43.905
43.9438
43.9826
44.0213
44.0601
44.0989
44.1377
44.1765
44.2153
44.2541
44.2929
44.3317
44.3705
44.4093
44.4481
44.4869
44.5257
44.5644
44.6032
44.642
44.6808
44.7196
44.7584
44.7972
44.836
44.8748
44.9135
44.9523
44.9911
45.0299
45.0687
45.1075
45.1463
45.185
45.2238
45.2626
45.3014
45.3402
45.379
45.4177
45.4565
45.4953
45.5341
45.5729
45.6116
45.6504
45.6892
45.728
45.7668
45.8055
45.8443
45.8831
45.9219
45.9607
45.9994
46.0382
46.077
46.1158
46.1545
46.1933
46.2321
46.2709
46.3096
46.3484
46.3872
46.426
46.4647
46.5035
46.5423
46.581
46.6198
46.6586
46.6974
46.7361
46.7749
46.8137
46.8524
46.8912
46.93
46.9687
47.0075
47.0463
47.085
47.1238
47.1626
47.2013
47.2401
47.2789
47.3176
47.3564
47.3952
47.4339
47.4727
47.5115
47.5502
47.589
47.6277
47.6665
47.7053
47.744
47.7828
47.8216
47.8603
47.8991
47.9378
47.9766
48.0153
48.0541
48.0929
48.1316
48.1704
48.2091
48.2479
48.2866
48.3254
48.3642
48.4029
48.4417
48.4804
48.5192
48.5579
48.5967
48.6354
48.6742
48.7129
48.7517
48.7904
48.8292
48.8679
48.9067
48.9454
48.9842
49.0229
49.0617
49.1004
49.1392
49.1779
49.2167
49.2554
49.2942
49.3329
49.3717
49.4104
49.4491
49.4879
49.5266
49.5654
49.6041
49.6429
49.6816
49.7203
49.7591
49.7978
49.8366
49.8753
49.914
49.9528
49.9915
50.0303
50.069
50.1077
50.1465
50.1852
50.224
50.2627
50.3014
50.3402
50.3789
50.4176
50.4564
50.4951
50.5338
50.5726
50.6113
50.65
50.6888
50.7275
50.7662
50.805
50.8437
50.8824
50.9211
50.9599
50.9986
51.0373
51.0761
51.1148
51.1535
51.1922
51.231
51.2697
51.3084
51.3472
51.3859
51.4246
51.4633
51.5021
51.5408
51.5795
51.6182
51.6569
51.6957
51.7344
51.7731
51.8118
51.8506
51.8893
51.928
51.9667
52.0054
52.0441
52.0829
52.1216
52.1603
52.199
52.2377
52.2765
52.3152
52.3539
52.3926
52.4313
52.47
52.5087
52.5475
52.5862
52.6249
52.6636
52.7023
52.741
52.7797
52.8184
52.8571
52.8959
52.9346
52.9733
53.012
53.0507
53.0894
53.1281
53.1668
53.2055
53.2442
53.2829
53.3216
53.3603
53.3991
53.4378
53.4765
53.5152
53.5539
53.5926
53.6313
53.67
53.7087
53.7474
53.7861
53.8248
53.8635
53.9022
53.9409
53.9796
54.0183
54.057
54.0957
54.1344
54.1731
54.2118
54.2505
54.2892
54.3278
54.3665
54.4052
54.4439
54.4826
54.5213
54.56
54.5987
54.6374
54.6761
54.7148
54.7535
54.7922
54.8308
54.8695
54.9082
54.9469
54.9856
55.0243
55.063
55.1017
55.1404
55.179
55.2177
55.2564
55.2951
55.3338
55.3725
55.4111
55.4498
55.4885
55.5272
55.5659
55.6046
55.6432
55.6819
55.7206
55.7593
55.798
55.8366
55.8753
55.914
55.9527
55.9914
56.03
56.0687
56.1074
56.1461
56.1847
56.2234
56.2621
56.3008
56.3394
56.3781
56.4168
56.4555
56.4941
56.5328
56.5715
56.6101
56.6488
56.6875
56.7262
56.7648
56.8035
56.8422
56.8808
56.9195
56.9582
56.9968
57.0355
57.0742
57.1128
57.1515
57.1902
57.2288
57.2675
57.3061
57.3448
57.3835
57.4221
57.4608
57.4995
57.5381
57.5768
57.6154
57.6541
57.6928
57.7314
57.7701
57.8087
57.8474
57.886
57.9247
57.9634
58.002
58.0407
58.0793
58.118
58.1566
58.1953
58.2339
58.2726
58.3112
58.3499
58.3886
58.4272
58.4659
58.5045
58.5432
58.5818
58.6205
58.6591
58.6977
58.7364
58.775
58.8137
58.8523
58.891
58.9296
58.9683
59.0069
59.0456
59.0842
59.1228
59.1615
59.2001
59.2388
59.2774
59.3161
59.3547
59.3933
59.432
59.4706
59.5093
59.5479
59.5865
59.6252
59.6638
59.7024
59.7411
59.7797
59.8184
59.857
59.8956
59.9343
59.9729
60.0115
60.0502
60.0888
60.1274
60.1661
60.2047
60.2433
60.2819
60.3206
60.3592
60.3978
60.4365
60.4751
60.5137
60.5523
60.591
60.6296
60.6682
60.7069
60.7455
60.7841
60.8227
60.8614
60.9
60.9386
60.9772
61.0158
61.0545
61.0931
61.1317
61.1703
61.2089
61.2476
61.2862
61.3248
61.3634
61.402
61.4407
61.4793
61.5179
61.5565
61.5951
61.6337
61.6723
61.711
61.7496
61.7882
61.8268
61.8654
61.904
61.9426
61.9812
62.0199
62.0585
62.0971
62.1357
62.1743
62.2129
62.2515
62.2901
62.3287
62.3673
62.4059
62.4445
62.4831
62.5218
62.5604
62.599
62.6376
62.6762
62.7148
62.7534
62.792
62.8306
62.8692
62.9078
62.9464
62.985
63.0236
63.0622
63.1008
63.1394
63.178
63.2166
63.2552
63.2937
63.3323
63.3709
63.4095
63.4481
63.4867
63.5253
63.5639
63.6025
63.6411
63.6797
63.7183
63.7569
63.7954
63.834
63.8726
63.9112
63.9498
63.9884
64.027
64.0656
64.1041
64.1427
64.1813
64.2199
64.2585
64.2971
64.3357
64.3742
64.4128
64.4514
64.49
64.5286
64.5671
64.6057
64.6443
64.6829
64.7215
64.76
64.7986
64.8372
64.8758
64.9143
64.9529
64.9915
65.0301
65.0686
65.1072
65.1458
65.1844
65.2229
65.2615
65.3001
65.3386
65.3772
65.4158
65.4544
65.4929
65.5315
65.5701
65.6086
65.6472
65.6858
65.7243
65.7629
65.8015
65.84
65.8786
65.9172
65.9557
65.9943
66.0328
66.0714
66.11
66.1485
66.1871
66.2257
66.2642
66.3028
66.3413
66.3799
66.4184
66.457
66.4956
66.5341
66.5727
66.6112
66.6498
66.6883
66.7269
66.7654
66.804
66.8425
66.8811
66.9197
66.9582
66.9968
67.0353
67.0739
67.1124
67.1509
67.1895
67.228
67.2666
67.3051
67.3437
67.3822
67.4208
67.4593
67.4979
67.5364
67.575
67.6135
67.652
67.6906
67.7291
67.7677
67.8062
67.8447
67.8833
67.9218
67.9604
67.9989
68.0374
68.076
68.1145
68.153
68.1916
68.2301
68.2687
68.3072
68.3457
68.3843
68.4228
68.4613
68.4998
68.5384
68.5769
68.6154
68.654
68.6925
68.731
68.7696
68.8081
68.8466
68.8851
68.9237
68.9622
69.0007
69.0392
69.0778
69.1163
69.1548
69.1933
69.2319
69.2704
69.3089
69.3474
69.3859
69.4245
69.463
69.5015
69.54
69.5785
69.6171
69.6556
69.6941
69.7326
69.7711
69.8096
69.8481
69.8867
69.9252
69.9637
70.0022
70.0407
70.0792
70.1177
70.1562
70.1948
70.2333
70.2718
70.3103
70.3488
70.3873
70.4258
70.4643
70.5028
70.5413
70.5798
70.6183
70.6568
70.6953
70.7338
70.7723
70.8108
70.8493
70.8878
70.9263
70.9648
71.0033
71.0418
71.0803
71.1188
71.1573
71.1958
71.2343
71.2728
71.3113
71.3498
71.3883
71.4268
71.4653
71.5038
71.5423
71.5808
71.6193
71.6578
71.6963
71.7347
71.7732
71.8117
71.8502
71.8887
71.9272
71.9657
72.0042
72.0426
72.0811
72.1196
72.1581
72.1966
72.2351
72.2735
72.312
72.3505
72.389
72.4275
72.4659
72.5044
72.5429
72.5814
72.6199
72.6583
72.6968
72.7353
72.7738
72.8122
72.8507
72.8892
72.9277
72.9661
73.0046
73.0431
73.0816
73.12
73.1585
73.197
73.2354
73.2739
73.3124
73.3508
73.3893
73.4278
73.4662
73.5047
73.5432
73.5816
73.6201
73.6586
73.697
73.7355
73.774
73.8124
73.8509
73.8893
73.9278
73.9663
74.0047
74.0432
74.0816
74.1201
74.1586
74.197
74.2355
74.2739
74.3124
74.3508
74.3893
74.4277
74.4662
74.5046
74.5431
74.5815
74.62
74.6584
74.6969
74.7353
74.7738
74.8122
74.8507
74.8891
74.9276
74.966
75.0045
75.0429
75.0814
75.1198
75.1583
75.1967
75.2351
75.2736
75.312
75.3505
75.3889
75.4273
75.4658
75.5042
75.5427
75.5811
75.6195
75.658
75.6964
75.7348
75.7733
75.8117
75.8501
75.8886
75.927
75.9654
76.0039
76.0423
76.0807
76.1192
76.1576
76.196
76.2344
76.2729
76.3113
76.3497
76.3882
76.4266
76.465
76.5034
76.5419
76.5803
76.6187
76.6571
76.6955
76.734
76.7724
76.8108
76.8492
76.8876
76.9261
76.9645
77.0029
77.0413
77.0797
77.1181
77.1566
77.195
77.2334
77.2718
77.3102
77.3486
77.387
77.4254
77.4639
77.5023
77.5407
77.5791
77.6175
77.6559
77.6943
77.7327
77.7711
77.8095
77.8479
77.8863
77.9247
77.9631
78.0015
78.04
78.0784
78.1168
78.1552
78.1936
78.232
78.2704
78.3088
78.3472
78.3855
78.4239
78.4623
78.5007
78.5391
78.5775
78.6159
78.6543
78.6927
78.7311
78.7695
78.8079
78.8463
78.8847
78.9231
78.9614
78.9998
79.0382
79.0766
79.115
79.1534
79.1918
79.2301
79.2685
79.3069
79.3453
79.3837
79.4221
79.4604
79.4988
79.5372
79.5756
79.614
79.6523
79.6907
79.7291
79.7675
79.8059
79.8442
79.8826
79.921
79.9594
79.9977
80.0361
80.0745
80.1128
80.1512
80.1896
80.228
80.2663
80.3047
80.3431
80.3814
80.4198
80.4582
80.4965
80.5349
80.5733
80.6116
80.65
80.6884
80.7267
80.7651
80.8034
80.8418
80.8802
80.9185
80.9569
80.9952
81.0336
81.072
81.1103
81.1487
81.187
81.2254
81.2637
81.3021
81.3404
81.3788
81.4172
81.4555
81.4939
81.5322
81.5706
81.6089
81.6473
81.6856
81.7239
81.7623
81.8006
81.839
81.8773
81.9157
81.954
81.9924
82.0307
82.0691
82.1074
82.1457
82.1841
82.2224
82.2608
82.2991
82.3374
82.3758
82.4141
82.4524
82.4908
82.5291
82.5674
82.6058
82.6441
82.6824
82.7208
82.7591
82.7974
82.8358
82.8741
82.9124
82.9508
82.9891
83.0274
83.0657
83.1041
83.1424
83.1807
83.219
83.2574
83.2957
83.334
83.3723
83.4107
83.449
83.4873
83.5256
83.5639
83.6023
83.6406
83.6789
83.7172
83.7555
83.7938
83.8322
83.8705
83.9088
83.9471
83.9854
84.0237
84.062
84.1003
84.1387
84.177
84.2153
84.2536
84.2919
84.3302
84.3685
84.4068
84.4451
84.4834
84.5217
84.56
84.5983
84.6366
84.6749
84.7132
84.7515
84.7898
84.8281
84.8664
84.9047
84.943
84.9813
85.0196
85.0579
85.0962
85.1345
85.1728
85.2111
85.2494
85.2877
85.326
85.3643
85.4025
85.4408
85.4791
85.5174
85.5557
85.594
85.6323
85.6706
85.7088
85.7471
85.7854
85.8237
85.862
85.9003
85.9385
85.9768
86.0151
86.0534
86.0917
86.1299
86.1682
86.2065
86.2448
86.283
86.3213
86.3596
86.3979
86.4361
86.4744
86.5127
86.5509
86.5892
86.6275
86.6658
86.704
86.7423
86.7806
86.8188
86.8571
86.8954
86.9336
86.9719
87.0102
87.0484
87.0867
87.1249
87.1632
87.2015
87.2397
87.278
87.3162
87.3545
87.3928
87.431
87.4693
87.5075
87.5458
87.584
87.6223
87.6605
87.6988
87.737
87.7753
87.8135
87.8518
87.89
87.9283
87.9665
88.0048
88.043
88.0813
88.1195
88.1578
88.196
88.2342
88.2725
88.3107
88.349
88.3872
88.4255
88.4637
88.5019
88.5402
88.5784
88.6166
88.6549
88.6931
88.7313
88.7696
88.8078
88.846
88.8843
88.9225
88.9607
88.999
89.0372
89.0754
89.1137
89.1519
89.1901
89.2283
89.2666
89.3048
89.343
89.3812
89.4195
89.4577
89.4959
89.5341
89.5723
89.6106
89.6488
89.687
89.7252
89.7634
89.8016
89.8399
89.8781
89.9163
89.9545
89.9927
90.0309
90.0691
90.1074
90.1456
90.1838
90.222
90.2602
90.2984
90.3366
90.3748
90.413
90.4512
90.4894
90.5276
90.5658
90.604
90.6422
90.6804
90.7186
90.7568
90.795
90.8332
90.8714
90.9096
90.9478
90.986
91.0242
91.0624
91.1006
91.1388
91.177
91.2152
91.2534
91.2916
91.3297
91.3679
91.4061
91.4443
91.4825
91.5207
91.5589
91.597
91.6352
91.6734
91.7116
91.7498
91.788
91.8261
91.8643
91.9025
91.9407
91.9789
92.017
92.0552
92.0934
92.1316
92.1697
92.2079
92.2461
92.2843
92.3224
92.3606
92.3988
92.4369
92.4751
92.5133
92.5514
92.5896
92.6278
92.6659
92.7041
92.7423
92.7804
92.8186
92.8567
92.8949
92.9331
92.9712
93.0094
93.0475
93.0857
93.1239
93.162
93.2002
93.2383
93.2765
93.3146
93.3528
93.3909
93.4291
93.4672
93.5054
93.5435
93.5817
93.6198
93.658
93.6961
93.7343
93.7724
93.8106
93.8487
93.8868
93.925
93.9631
94.0013
94.0394
94.0775
94.1157
94.1538
94.192
94.2301
94.2682
94.3064
94.3445
94.3826
94.4208
94.4589
94.497
94.5351
94.5733
94.6114
94.6495
94.6877
94.7258
94.7639
94.802
94.8402
94.8783
94.9164
94.9545
94.9927
95.0308
95.0689
95.107
95.1451
95.1832
95.2214
95.2595
95.2976
95.3357
95.3738
95.4119
95.4501
95.4882
95.5263
95.5644
95.6025
95.6406
95.6787
95.7168
95.7549
95.793
95.8311
95.8692
95.9073
95.9454
95.9835
96.0216
96.0598
96.0978
96.1359
96.174
96.2121
96.2502
96.2883
96.3264
96.3645
96.4026
96.4407
96.4788
96.5169
96.555
96.5931
96.6312
96.6693
96.7073
96.7454
96.7835
96.8216
96.8597
96.8978
96.9359
96.9739
97.012
97.0501
97.0882
97.1263
97.1643
97.2024
97.2405
97.2786
97.3166
97.3547
97.3928
97.4309
97.4689
97.507
97.5451
97.5832
97.6212
97.6593
97.6974
97.7354
97.7735
97.8116
97.8496
97.8877
97.9257
97.9638
98.0019
98.0399
98.078
98.1161
98.1541
98.1922
98.2302
98.2683
98.3063
98.3444
98.3824
98.4205
98.4586
98.4966
98.5347
98.5727
98.6108
98.6488
98.6868
98.7249
98.7629
98.801
98.839
98.8771
98.9151
98.9532
98.9912
99.0292
99.0673
99.1053
99.1434
99.1814
99.2194
99.2575
99.2955
99.3335
99.3716
99.4096
99.4476
99.4857
99.5237
99.5617
99.5997
99.6378
99.6758
99.7138
99.7518
99.7899
99.8279
99.8659
99.9039
99.942
99.98
100.018
100.056
100.094
100.132
100.17
100.208
100.246
100.284
100.322
100.36
100.398
100.436
100.474
100.512
100.55
100.588
100.626
100.664
100.702
100.74
100.778
100.816
100.854
100.892
100.93
100.968
101.006
101.044
101.082
101.12
101.158
101.196
101.234
101.272
101.31
101.348
101.386
101.424
101.462
101.5
101.538
101.576
101.614
101.652
101.69
101.728
101.766
101.804
101.842
101.88
101.918
101.956
101.994
102.032
102.07
102.108
102.146
102.184
102.222
102.26
102.298
102.336
102.374
102.412
102.449
102.487
102.525
102.563
102.601
102.639
102.677
102.715
102.753
102.791
102.829
102.867
102.905
102.943
102.981
103.019
103.057
103.095
103.133
103.171
103.209
103.247
103.284
103.322
103.36
103.398
103.436
103.474
103.512
103.55
103.588
103.626
103.664
103.702
103.74
103.778
103.816
103.854
103.891
103.929
103.967
104.005
104.043
104.081
104.119
104.157
104.195
104.233
104.271
104.309
104.347
104.385
104.422
104.46
104.498
104.536
104.574
104.612
104.65
104.688
104.726
104.764
104.802
104.839
104.877
104.915
104.953
104.991
105.029
105.067
105.105
105.143
105.181
105.218
105.256
105.294
105.332
105.37
105.408
105.446
105.484
105.522
105.56
105.597
105.635
105.673
105.711
105.749
105.787
105.825
105.863
105.9
105.938
105.976
106.014
106.052
106.09
106.128
106.166
106.203
106.241
106.279
106.317
106.355
106.393
106.431
106.469
106.506
106.544
106.582
106.62
106.658
106.696
106.734
106.771
106.809
106.847
106.885
106.923
106.961
106.999
107.036
107.074
107.112
107.15
107.188
107.226
107.264
107.301
107.339
107.377
107.415
107.453
107.491
107.528
107.566
107.604
107.642
107.68
107.718
107.755
107.793
107.831
107.869
107.907
107.945
107.982
108.02
108.058
108.096
108.134
108.171
108.209
108.247
108.285
108.323
108.361
108.398
108.436
108.474
108.512
108.55
108.587
108.625
108.663
108.701
108.739
108.776
108.814
108.852
108.89
108.928
108.965
109.003
109.041
109.079
109.117
109.154
109.192
109.23
109.268
109.306
109.343
109.381
109.419
109.457
109.494
109.532
109.57
109.608
109.646
109.683
109.721
109.759
109.797
109.834
109.872
109.91
109.948
109.986
110.023
110.061
110.099
110.137
110.174
110.212
110.25
110.288
110.325
110.363
110.401
110.439
110.476
110.514
110.552
110.59
110.627
110.665
110.703
110.741
110.778
110.816
110.854
110.892
110.929
110.967
111.005
111.042
111.08
111.118
111.156
111.193
111.231
111.269
111.307
111.344
111.382
111.42
111.457
111.495
111.533
111.571
111.608
111.646
111.684
111.721
111.759
111.797
111.835
111.872
111.91
111.948
111.985
112.023
112.061
112.098
112.136
112.174
112.212
112.249
112.287
112.325
112.362
112.4
112.438
112.475
112.513
112.551
112.588
112.626
112.664
112.701
112.739
112.777
112.814
112.852
112.89
112.928
112.965
113.003
113.041
113.078
113.116
113.153
113.191
113.229
113.266
113.304
113.342
113.379
113.417
113.455
113.492
113.53
113.568
113.605
113.643
113.681
113.718
113.756
113.794
113.831
113.869
113.906
113.944
113.982
114.019
114.057
114.095
114.132
114.17
114.207
114.245
114.283
114.32
114.358
114.396
114.433
114.471
114.508
114.546
114.584
114.621
114.659
114.696
114.734
114.772
114.809
114.847
114.884
114.922
114.96
114.997
115.035
115.072
115.11
115.147
115.185
115.223
115.26
115.298
115.335
115.373
115.411
115.448
115.486
115.523
115.561
115.598
115.636
115.673
115.711
115.749
115.786
115.824
115.861
115.899
115.936
115.974
116.011
116.049
116.087
116.124
116.162
116.199
116.237
116.274
116.312
116.349
116.387
116.424
116.462
116.499
116.537
116.574
116.612
116.649
116.687
116.725
116.762
116.8
116.837
116.875
116.912
116.95
116.987
117.025
117.062
117.1
117.137
117.175
117.212
117.25
117.287
117.325
117.362
117.399
117.437
117.474
117.512
117.549
117.587
117.624
117.662
117.699
117.737
117.774
117.812
117.849
117.887
117.924
117.962
117.999
118.036
118.074
118.111
118.149
118.186
118.224
118.261
118.299
118.336
118.373
118.411
118.448
118.486
118.523
118.561
118.598
118.635
118.673
118.71
118.748
118.785
118.822
118.86
118.897
118.935
118.972
119.009
119.047
119.084
119.122
119.159
119.196
119.234
119.271
119.309
119.346
119.383
119.421
119.458
119.495
119.533
119.57
119.608
119.645
119.682
119.72
119.757
119.794
119.832
119.869
119.906
119.944
119.981
120.018
120.056
120.093
120.13
120.168
120.205
120.242
120.28
120.317
120.354
120.392
120.429
120.466
120.504
120.541
120.578
120.616
120.653
120.69
120.727
120.765
120.802
120.839
120.877
120.914
120.951
120.988
121.026
121.063
121.1
121.138
121.175
121.212
121.249
121.287
121.324
121.361
121.398
121.436
121.473
121.51
121.547
121.585
121.622
121.659
121.696
121.733
121.771
121.808
121.845
121.882
121.92
121.957
121.994
122.031
122.068
122.106
122.143
122.18
122.217
122.254
122.291
122.329
122.366
122.403
122.44
122.477
122.515
122.552
122.589
122.626
122.663
122.7
122.737
122.775
122.812
122.849
122.886
122.923
122.96
122.997
123.035
123.072
123.109
123.146
123.183
123.22
123.257
123.294
123.331
123.368
123.406
123.443
123.48
123.517
123.554
123.591
123.628
123.665
123.702
123.739
123.776
123.813
123.85
123.887
123.924
123.961
123.999
124.036
124.073
124.11
124.147
124.184
124.221
124.258
124.295
124.332
124.369
124.406
124.443
124.48
124.517
124.554
124.591
124.628
124.665
124.701
124.738
124.775
124.812
124.849
124.886
124.923
124.96
124.997
125.034
125.071
125.108
125.145
125.182
125.219
125.255
125.292
125.329
125.366
125.403
125.44
125.477
125.514
125.551
125.587
125.624
125.661
125.698
125.735
125.772
125.809
125.845
125.882
125.919
125.956
125.993
126.029
126.066
126.103
126.14
126.177
126.213
126.25
126.287
126.324
126.361
126.397
126.434
126.471
126.508
126.544
126.581
126.618
126.654
126.691
126.728
126.765
126.801
126.838
126.875
126.911
126.948
126.985
127.021
127.058
127.095
127.131
127.168
127.205
127.241
127.278
127.315
127.351
127.388
127.425
127.461
127.498
127.534
127.571
127.608
127.644
127.681
127.717
127.754
127.79
127.827
127.863
127.9
127.936
127.973
128.01
128.046
128.083
128.119
128.156
128.192
128.229
128.265
128.301
128.338
128.374
128.411
128.447
128.484
128.52
128.557
128.593
128.629
128.666
128.702
128.738
128.775
128.811
128.848
128.884
128.92
128.957
128.993
129.029
129.066
129.102
129.138
129.175
129.211
129.247
129.283
129.32
129.356
129.392
129.428
129.465
129.501
129.537
129.573
129.609
129.646
129.682
129.718
129.754
129.79
129.827
129.863
129.899
129.935
129.971
130.007
130.043
130.079
130.115
130.152
130.188
130.224
130.26
130.296
130.332
130.368
130.404
130.44
130.476
130.512
130.548
130.584
130.62
130.656
130.691
130.727
130.763
130.799
130.835
130.871
130.907
130.943
130.979
131.014
131.05
131.086
131.122
131.158
131.193
131.229
131.265
131.301
131.337
131.372
131.408
131.444
131.479
131.515
131.551
131.586
131.622
131.658
131.693
131.729
131.765
131.8
131.836
131.871
131.907
131.942
131.978
132.013
132.049
132.084
132.12
132.155
132.191
132.226
132.262
132.297
132.333
132.368
132.403
132.439
132.474
132.509
132.545
132.58
132.615
132.651
132.686
132.721
132.756
132.792
132.827
132.862
132.897
132.932
132.967
133.003
133.038
133.073
133.108
133.143
133.178
133.213
133.248
133.283
133.318
133.353
133.388
133.423
133.458
133.493
133.528
133.563
133.598
133.632
133.667
133.702
133.737
133.772
133.806
133.841
133.876
133.911
133.945
133.98
134.015
134.049
134.084
134.119
134.153
134.188
134.222
134.257
134.291
134.326
134.36
134.395
134.429
134.464
134.498
134.532
134.567
134.601
134.635
134.67
134.704
134.738
134.772
134.807
134.841
134.875
134.909
134.943
134.977
135.012
135.046
135.08
135.114
135.148
135.182
135.216
135.25
135.283
135.317
135.351
135.385
135.419
135.453
135.486
135.52
135.554
135.588
135.621
135.655
135.689
135.722
135.756
135.789
135.823
135.857
135.89
135.924
135.957
135.99
136.024
136.057
136.09
136.124
136.157
136.19
136.224
136.257
136.29
136.323
136.356
136.389
136.423
136.456
136.489
136.522
136.555
136.588
136.621
136.653
136.686
136.719
136.752
136.785
136.818
136.85
136.883
136.916
136.948
136.981
137.013
137.046
137.079
137.111
137.144
137.176
137.208
137.241
137.273
137.306
137.338
137.37
137.402
137.435
137.467
137.499
137.531
137.563
137.595
137.627
137.659
137.691
137.723
137.755
137.787
137.819
137.851
137.882
137.914
137.946
137.978
138.009
138.041
138.073
138.104
138.136
138.167
138.199
138.23
138.262
138.293
138.324
138.356
138.387
138.418
138.449
138.481
138.512
138.543
138.574
138.605
138.636
138.667
138.698
138.729
138.76
138.791
138.822
138.853
138.883
138.914
138.945
138.976
139.006
139.037
139.067
139.098
139.129
139.159
139.19
139.22
139.25
139.281
139.311
139.341
139.372
139.402
139.432
139.462
139.493
139.523
139.553
139.583
139.613
139.643
139.673
139.703
139.733
139.763
139.793
139.822
139.852
139.882
139.912
139.942
139.971
140.001
140.031
140.06
140.09
140.119
140.149
140.178
140.208
140.237
140.267
140.296
140.325
140.355
140.384
140.413
140.443
140.472
140.501
140.53
140.559
140.588
140.618
140.647
140.676
140.705
140.734
140.763
140.792
140.821
140.85
140.878
140.907
140.936
140.965
140.994
141.023
141.051
141.08
141.109
141.137
141.166
141.195
141.223
141.252
141.28
141.309
141.338
141.366
141.395
141.423
141.452
141.48
141.508
141.537
141.565
141.594
141.622
141.65
141.679
141.707
141.735
141.764
141.792
141.82
141.848
141.876
141.905
141.933
141.961
141.989
142.017
142.045
142.074
142.102
142.13
142.158
142.186
142.214
142.242
142.27
142.298
142.326
142.354
142.382
142.41
142.438
142.466
142.494
142.522
142.55
142.577
142.605
142.633
142.661
142.689
142.717
142.745
142.773
142.8
142.828
142.856
142.884
142.912
142.939
142.967
142.995
143.023
143.051
143.078
143.106
143.134
143.162
143.189
143.217
143.245
143.273
143.3
143.328
143.356
143.383
143.411
143.439
143.467
143.494
143.522
143.55
143.577
143.605
143.633
143.66
143.688
143.716
143.743
143.771
143.799
143.826
143.854
143.882
143.909
143.937
143.965
143.992
144.02
144.048
144.075
144.103
144.131
144.158
144.186
144.214
144.241
144.269
144.296
144.324
144.352
144.379
144.407
144.435
144.462
144.49
144.518
144.545
144.573
144.601
144.628
144.656