/*--------------------------------*- C++ -*----------------------------------*\
  =========                 |
  \\      /  F ield         | OpenFOAM: The Open Source CFD Toolbox
   \\    /   O peration     | Website:  https://openfoam.org
    \\  /    A nd           | Version:  9
     \\/     M anipulation  |
\*---------------------------------------------------------------------------*/
FoamFile
{
    format      ascii;
    class       volScalarField;
    location    "0.034";
    object      rho;
}
// * * * * * * * * * * * * * * * * * * * * * * * * * * * * * * * * * * * * * //

dimensions      [1 -3 0 0 0 0 0];

internalField   nonuniform List<scalar> 
10000
(
0.258111
0.258107
0.258101
0.258095
0.25809
0.258084
0.258078
0.258073
0.258067
0.258062
0.258056
0.258051
0.258045
0.258039
0.258034
0.258028
0.258023
0.258017
0.258012
0.258006
0.258001
0.257995
0.25799
0.257984
0.257978
0.257973
0.257968
0.257962
0.257957
0.257951
0.257945
0.25794
0.257935
0.257929
0.257924
0.257918
0.257913
0.257907
0.257902
0.257896
0.257891
0.257886
0.25788
0.257875
0.25787
0.257864
0.257858
0.257853
0.257847
0.257842
0.257837
0.257832
0.257827
0.257822
0.257816
0.257811
0.257805
0.257799
0.257794
0.257788
0.257783
0.257778
0.257773
0.257768
0.257763
0.257759
0.257754
0.257749
0.257744
0.257739
0.257733
0.257727
0.257721
0.257715
0.25771
0.257704
0.257698
0.257693
0.257688
0.257683
0.257679
0.257675
0.257672
0.257668
0.257666
0.257663
0.257661
0.257659
0.257657
0.257655
0.257653
0.257652
0.25765
0.257648
0.257647
0.257645
0.257644
0.257643
0.257641
0.25764
0.257639
0.257638
0.257637
0.257636
0.257634
0.257633
0.257632
0.257631
0.25763
0.257629
0.257627
0.257626
0.257625
0.257624
0.257623
0.257621
0.25762
0.257619
0.257618
0.257617
0.257616
0.257614
0.257613
0.257612
0.257611
0.25761
0.257608
0.257607
0.257606
0.257605
0.257604
0.257603
0.257601
0.2576
0.257599
0.257598
0.257597
0.257595
0.257594
0.257593
0.257592
0.257591
0.257589
0.257588
0.257587
0.257586
0.257585
0.257583
0.257582
0.257581
0.25758
0.257579
0.257577
0.257576
0.257575
0.257574
0.257573
0.257572
0.25757
0.257569
0.257568
0.257567
0.257566
0.257564
0.257563
0.257562
0.257561
0.25756
0.257558
0.257557
0.257556
0.257555
0.257554
0.257552
0.257551
0.25755
0.257549
0.257548
0.257546
0.257545
0.257544
0.257543
0.257541
0.25754
0.257539
0.257538
0.257537
0.257535
0.257534
0.257533
0.257532
0.257531
0.257529
0.257528
0.257527
0.257526
0.257525
0.257523
0.257522
0.257521
0.25752
0.257519
0.257517
0.257516
0.257515
0.257514
0.257513
0.257511
0.25751
0.257509
0.257508
0.257506
0.257505
0.257504
0.257503
0.257502
0.2575
0.257499
0.257498
0.257497
0.257496
0.257494
0.257493
0.257492
0.257491
0.257489
0.257488
0.257487
0.257486
0.257485
0.257483
0.257482
0.257481
0.25748
0.257478
0.257477
0.257476
0.257475
0.257474
0.257472
0.257471
0.25747
0.257469
0.257467
0.257466
0.257465
0.257464
0.257463
0.257461
0.25746
0.257459
0.257458
0.257456
0.257455
0.257454
0.257453
0.257452
0.25745
0.257449
0.257448
0.257447
0.257445
0.257444
0.257443
0.257442
0.257441
0.257439
0.257438
0.257437
0.257436
0.257434
0.257433
0.257432
0.257431
0.257429
0.257428
0.257427
0.257426
0.257425
0.257423
0.257422
0.257421
0.25742
0.257418
0.257417
0.257416
0.257415
0.257413
0.257412
0.257411
0.25741
0.257408
0.257407
0.257406
0.257405
0.257403
0.257402
0.257401
0.2574
0.257399
0.257397
0.257396
0.257395
0.257394
0.257392
0.257391
0.25739
0.257389
0.257387
0.257386
0.257385
0.257384
0.257382
0.257381
0.25738
0.257379
0.257377
0.257376
0.257375
0.257374
0.257372
0.257371
0.25737
0.257369
0.257367
0.257366
0.257365
0.257364
0.257362
0.257361
0.25736
0.257359
0.257357
0.257356
0.257355
0.257354
0.257352
0.257351
0.25735
0.257349
0.257347
0.257346
0.257345
0.257344
0.257342
0.257341
0.25734
0.257339
0.257337
0.257336
0.257335
0.257334
0.257332
0.257331
0.25733
0.257329
0.257327
0.257326
0.257325
0.257324
0.257322
0.257321
0.25732
0.257319
0.257317
0.257316
0.257315
0.257313
0.257312
0.257311
0.25731
0.257308
0.257307
0.257306
0.257305
0.257303
0.257302
0.257301
0.2573
0.257298
0.257297
0.257296
0.257295
0.257293
0.257292
0.257291
0.257289
0.257288
0.257287
0.257286
0.257284
0.257283
0.257282
0.257281
0.257279
0.257278
0.257277
0.257276
0.257274
0.257273
0.257272
0.25727
0.257269
0.257268
0.257267
0.257265
0.257264
0.257263
0.257262
0.25726
0.257259
0.257258
0.257256
0.257255
0.257254
0.257253
0.257251
0.25725
0.257249
0.257247
0.257246
0.257245
0.257244
0.257242
0.257241
0.25724
0.257239
0.257237
0.257236
0.257235
0.257233
0.257232
0.257231
0.25723
0.257228
0.257227
0.257226
0.257224
0.257223
0.257222
0.257221
0.257219
0.257218
0.257217
0.257215
0.257214
0.257213
0.257212
0.25721
0.257209
0.257208
0.257206
0.257205
0.257204
0.257203
0.257201
0.2572
0.257199
0.257197
0.257196
0.257195
0.257194
0.257192
0.257191
0.25719
0.257188
0.257187
0.257186
0.257184
0.257183
0.257182
0.257181
0.257179
0.257178
0.257177
0.257175
0.257174
0.257173
0.257172
0.25717
0.257169
0.257168
0.257166
0.257165
0.257164
0.257162
0.257161
0.25716
0.257159
0.257157
0.257156
0.257155
0.257153
0.257152
0.257151
0.257149
0.257148
0.257147
0.257146
0.257144
0.257143
0.257142
0.25714
0.257139
0.257138
0.257136
0.257135
0.257134
0.257133
0.257131
0.25713
0.257129
0.257127
0.257126
0.257125
0.257123
0.257122
0.257121
0.257119
0.257118
0.257117
0.257116
0.257114
0.257113
0.257112
0.25711
0.257109
0.257108
0.257106
0.257105
0.257104
0.257102
0.257101
0.2571
0.257098
0.257097
0.257096
0.257095
0.257093
0.257092
0.257091
0.257089
0.257088
0.257087
0.257085
0.257084
0.257083
0.257081
0.25708
0.257079
0.257077
0.257076
0.257075
0.257073
0.257072
0.257071
0.257069
0.257068
0.257067
0.257066
0.257064
0.257063
0.257062
0.25706
0.257059
0.257058
0.257056
0.257055
0.257054
0.257052
0.257051
0.25705
0.257048
0.257047
0.257046
0.257044
0.257043
0.257042
0.25704
0.257039
0.257038
0.257036
0.257035
0.257034
0.257032
0.257031
0.25703
0.257028
0.257027
0.257026
0.257024
0.257023
0.257022
0.25702
0.257019
0.257018
0.257016
0.257015
0.257014
0.257012
0.257011
0.25701
0.257008
0.257007
0.257006
0.257004
0.257003
0.257002
0.257
0.256999
0.256998
0.256996
0.256995
0.256994
0.256992
0.256991
0.25699
0.256988
0.256987
0.256986
0.256984
0.256983
0.256982
0.25698
0.256979
0.256978
0.256976
0.256975
0.256974
0.256972
0.256971
0.25697
0.256968
0.256967
0.256965
0.256964
0.256963
0.256961
0.25696
0.256959
0.256957
0.256956
0.256955
0.256953
0.256952
0.256951
0.256949
0.256948
0.256947
0.256945
0.256944
0.256943
0.256941
0.25694
0.256938
0.256937
0.256936
0.256934
0.256933
0.256932
0.25693
0.256929
0.256928
0.256926
0.256925
0.256924
0.256922
0.256921
0.25692
0.256918
0.256917
0.256915
0.256914
0.256913
0.256911
0.25691
0.256909
0.256907
0.256906
0.256905
0.256903
0.256902
0.256901
0.256899
0.256898
0.256896
0.256895
0.256894
0.256892
0.256891
0.25689
0.256888
0.256887
0.256886
0.256884
0.256883
0.256881
0.25688
0.256879
0.256877
0.256876
0.256875
0.256873
0.256872
0.25687
0.256869
0.256868
0.256866
0.256865
0.256864
0.256862
0.256861
0.25686
0.256858
0.256857
0.256855
0.256854
0.256853
0.256851
0.25685
0.256849
0.256847
0.256846
0.256844
0.256843
0.256842
0.25684
0.256839
0.256838
0.256836
0.256835
0.256833
0.256832
0.256831
0.256829
0.256828
0.256826
0.256825
0.256824
0.256822
0.256821
0.25682
0.256818
0.256817
0.256815
0.256814
0.256813
0.256811
0.25681
0.256809
0.256807
0.256806
0.256804
0.256803
0.256802
0.2568
0.256799
0.256798
0.256796
0.256795
0.256793
0.256792
0.25679
0.256789
0.256788
0.256787
0.256785
0.256784
0.256782
0.256781
0.256779
0.256778
0.256777
0.256775
0.256774
0.256773
0.256771
0.25677
0.256768
0.256767
0.256765
0.256764
0.256763
0.256761
0.25676
0.256759
0.256757
0.256756
0.256754
0.256753
0.256752
0.25675
0.256749
0.256747
0.256746
0.256745
0.256743
0.256742
0.25674
0.256739
0.256738
0.256736
0.256735
0.256733
0.256732
0.256731
0.256729
0.256728
0.256726
0.256725
0.256724
0.256722
0.256721
0.256719
0.256718
0.256717
0.256715
0.256714
0.256712
0.256711
0.25671
0.256708
0.256707
0.256705
0.256704
0.256703
0.256701
0.2567
0.256698
0.256697
0.256696
0.256694
0.256693
0.256691
0.25669
0.256688
0.256687
0.256686
0.256684
0.256683
0.256681
0.25668
0.256679
0.256677
0.256676
0.256674
0.256673
0.256672
0.25667
0.256669
0.256667
0.256666
0.256664
0.256663
0.256662
0.25666
0.256659
0.256657
0.256656
0.256655
0.256653
0.256652
0.25665
0.256649
0.256647
0.256646
0.256645
0.256643
0.256642
0.25664
0.256639
0.256637
0.256636
0.256635
0.256633
0.256632
0.25663
0.256629
0.256628
0.256626
0.256625
0.256623
0.256622
0.25662
0.256619
0.256618
0.256616
0.256615
0.256613
0.256612
0.25661
0.256609
0.256608
0.256606
0.256605
0.256603
0.256602
0.2566
0.256599
0.256598
0.256596
0.256595
0.256593
0.256592
0.25659
0.256589
0.256588
0.256586
0.256585
0.256583
0.256582
0.25658
0.256579
0.256577
0.256576
0.256575
0.256573
0.256572
0.25657
0.256569
0.256567
0.256566
0.256565
0.256563
0.256562
0.25656
0.256559
0.256557
0.256556
0.256554
0.256553
0.256552
0.25655
0.256549
0.256547
0.256546
0.256544
0.256543
0.256541
0.25654
0.256539
0.256537
0.256536
0.256534
0.256533
0.256531
0.25653
0.256528
0.256527
0.256526
0.256524
0.256523
0.256521
0.25652
0.256518
0.256517
0.256515
0.256514
0.256513
0.256511
0.25651
0.256508
0.256507
0.256505
0.256504
0.256502
0.256501
0.256499
0.256498
0.256497
0.256495
0.256494
0.256492
0.256491
0.256489
0.256488
0.256486
0.256485
0.256483
0.256482
0.256481
0.256479
0.256478
0.256476
0.256475
0.256473
0.256472
0.25647
0.256469
0.256467
0.256466
0.256464
0.256463
0.256462
0.25646
0.256459
0.256457
0.256456
0.256454
0.256453
0.256451
0.25645
0.256448
0.256447
0.256445
0.256444
0.256443
0.256441
0.25644
0.256438
0.256437
0.256435
0.256434
0.256432
0.256431
0.256429
0.256428
0.256426
0.256425
0.256423
0.256422
0.256421
0.256419
0.256418
0.256416
0.256415
0.256413
0.256412
0.25641
0.256409
0.256407
0.256406
0.256404
0.256403
0.256401
0.2564
0.256398
0.256397
0.256395
0.256394
0.256393
0.256391
0.25639
0.256388
0.256387
0.256385
0.256384
0.256382
0.256381
0.256379
0.256378
0.256376
0.256375
0.256373
0.256372
0.25637
0.256369
0.256367
0.256366
0.256364
0.256363
0.256361
0.25636
0.256358
0.256357
0.256355
0.256354
0.256353
0.256351
0.25635
0.256348
0.256347
0.256345
0.256344
0.256342
0.256341
0.256339
0.256338
0.256336
0.256335
0.256333
0.256332
0.25633
0.256329
0.256327
0.256326
0.256324
0.256323
0.256321
0.25632
0.256318
0.256317
0.256315
0.256314
0.256312
0.256311
0.256309
0.256308
0.256306
0.256305
0.256303
0.256302
0.2563
0.256299
0.256297
0.256296
0.256294
0.256293
0.256291
0.25629
0.256288
0.256287
0.256285
0.256284
0.256282
0.256281
0.256279
0.256278
0.256276
0.256275
0.256273
0.256272
0.25627
0.256269
0.256267
0.256266
0.256264
0.256263
0.256261
0.25626
0.256258
0.256257
0.256255
0.256254
0.256252
0.256251
0.256249
0.256248
0.256246
0.256245
0.256243
0.256242
0.25624
0.256239
0.256237
0.256236
0.256234
0.256233
0.256231
0.25623
0.256228
0.256227
0.256225
0.256224
0.256222
0.256221
0.256219
0.256217
0.256216
0.256214
0.256213
0.256211
0.25621
0.256208
0.256207
0.256205
0.256204
0.256202
0.256201
0.256199
0.256198
0.256196
0.256195
0.256193
0.256192
0.25619
0.256189
0.256187
0.256186
0.256184
0.256183
0.256181
0.256179
0.256178
0.256176
0.256175
0.256173
0.256172
0.25617
0.256169
0.256167
0.256166
0.256164
0.256163
0.256161
0.25616
0.256158
0.256157
0.256155
0.256154
0.256152
0.25615
0.256149
0.256147
0.256146
0.256144
0.256143
0.256141
0.25614
0.256138
0.256137
0.256135
0.256134
0.256132
0.256131
0.256129
0.256128
0.256126
0.256124
0.256123
0.256121
0.25612
0.256118
0.256117
0.256115
0.256114
0.256112
0.256111
0.256109
0.256108
0.256106
0.256104
0.256103
0.256101
0.2561
0.256098
0.256097
0.256095
0.256094
0.256092
0.256091
0.256089
0.256088
0.256086
0.256084
0.256083
0.256081
0.25608
0.256078
0.256077
0.256075
0.256074
0.256072
0.256071
0.256069
0.256067
0.256066
0.256064
0.256063
0.256061
0.25606
0.256058
0.256057
0.256055
0.256054
0.256052
0.25605
0.256049
0.256047
0.256046
0.256044
0.256043
0.256041
0.25604
0.256038
0.256036
0.256035
0.256033
0.256032
0.25603
0.256029
0.256027
0.256026
0.256024
0.256022
0.256021
0.256019
0.256018
0.256016
0.256015
0.256013
0.256012
0.25601
0.256008
0.256007
0.256005
0.256004
0.256002
0.256001
0.255999
0.255998
0.255996
0.255994
0.255993
0.255991
0.25599
0.255988
0.255987
0.255985
0.255983
0.255982
0.25598
0.255979
0.255977
0.255976
0.255974
0.255972
0.255971
0.255969
0.255968
0.255966
0.255965
0.255963
0.255962
0.25596
0.255958
0.255957
0.255955
0.255954
0.255952
0.255951
0.255949
0.255947
0.255946
0.255944
0.255943
0.255941
0.25594
0.255938
0.255936
0.255935
0.255933
0.255932
0.25593
0.255928
0.255927
0.255925
0.255924
0.255922
0.255921
0.255919
0.255917
0.255916
0.255914
0.255913
0.255911
0.25591
0.255908
0.255906
0.255905
0.255903
0.255902
0.2559
0.255898
0.255897
0.255895
0.255894
0.255892
0.255891
0.255889
0.255887
0.255886
0.255884
0.255883
0.255881
0.255879
0.255878
0.255876
0.255875
0.255873
0.255872
0.25587
0.255868
0.255867
0.255865
0.255864
0.255862
0.25586
0.255859
0.255857
0.255856
0.255854
0.255852
0.255851
0.255849
0.255848
0.255846
0.255845
0.255843
0.255841
0.25584
0.255838
0.255837
0.255835
0.255833
0.255832
0.25583
0.255829
0.255827
0.255825
0.255824
0.255822
0.255821
0.255819
0.255817
0.255816
0.255814
0.255813
0.255811
0.255809
0.255808
0.255806
0.255805
0.255803
0.255801
0.2558
0.255798
0.255797
0.255795
0.255793
0.255792
0.25579
0.255789
0.255787
0.255785
0.255784
0.255782
0.255781
0.255779
0.255777
0.255776
0.255774
0.255773
0.255771
0.255769
0.255768
0.255766
0.255765
0.255763
0.255761
0.25576
0.255758
0.255756
0.255755
0.255753
0.255752
0.25575
0.255748
0.255747
0.255745
0.255744
0.255742
0.25574
0.255739
0.255737
0.255735
0.255734
0.255732
0.255731
0.255729
0.255727
0.255726
0.255724
0.255723
0.255721
0.255719
0.255718
0.255716
0.255714
0.255713
0.255711
0.25571
0.255708
0.255706
0.255705
0.255703
0.255702
0.2557
0.255698
0.255697
0.255695
0.255693
0.255692
0.25569
0.255689
0.255687
0.255685
0.255684
0.255682
0.25568
0.255679
0.255677
0.255676
0.255674
0.255672
0.255671
0.255669
0.255667
0.255666
0.255664
0.255663
0.255661
0.255659
0.255658
0.255656
0.255654
0.255653
0.255651
0.255649
0.255648
0.255646
0.255645
0.255643
0.255641
0.25564
0.255638
0.255636
0.255635
0.255633
0.255632
0.25563
0.255628
0.255627
0.255625
0.255623
0.255622
0.25562
0.255618
0.255617
0.255615
0.255614
0.255612
0.25561
0.255609
0.255607
0.255605
0.255604
0.255602
0.2556
0.255599
0.255597
0.255595
0.255594
0.255592
0.255591
0.255589
0.255587
0.255586
0.255584
0.255582
0.255581
0.255579
0.255577
0.255576
0.255574
0.255572
0.255571
0.255569
0.255568
0.255566
0.255564
0.255563
0.255561
0.255559
0.255558
0.255556
0.255554
0.255553
0.255551
0.255549
0.255548
0.255546
0.255544
0.255543
0.255541
0.255539
0.255538
0.255536
0.255535
0.255533
0.255531
0.25553
0.255528
0.255526
0.255525
0.255523
0.255521
0.25552
0.255518
0.255516
0.255515
0.255513
0.255511
0.25551
0.255508
0.255506
0.255505
0.255503
0.255501
0.2555
0.255498
0.255496
0.255495
0.255493
0.255491
0.25549
0.255488
0.255486
0.255485
0.255483
0.255481
0.25548
0.255478
0.255476
0.255475
0.255473
0.255471
0.25547
0.255468
0.255466
0.255465
0.255463
0.255461
0.25546
0.255458
0.255456
0.255455
0.255453
0.255451
0.25545
0.255448
0.255446
0.255445
0.255443
0.255441
0.25544
0.255438
0.255436
0.255435
0.255433
0.255431
0.25543
0.255428
0.255426
0.255425
0.255423
0.255421
0.25542
0.255418
0.255416
0.255415
0.255413
0.255411
0.25541
0.255408
0.255406
0.255405
0.255403
0.255401
0.2554
0.255398
0.255396
0.255395
0.255393
0.255391
0.25539
0.255388
0.255386
0.255384
0.255383
0.255381
0.255379
0.255378
0.255376
0.255374
0.255373
0.255371
0.255369
0.255368
0.255366
0.255364
0.255363
0.255361
0.255359
0.255358
0.255356
0.255354
0.255352
0.255351
0.255349
0.255347
0.255346
0.255344
0.255342
0.255341
0.255339
0.255337
0.255336
0.255334
0.255332
0.255331
0.255329
0.255327
0.255325
0.255324
0.255322
0.25532
0.255319
0.255317
0.255315
0.255314
0.255312
0.25531
0.255309
0.255307
0.255305
0.255303
0.255302
0.2553
0.255298
0.255297
0.255295
0.255293
0.255292
0.25529
0.255288
0.255286
0.255285
0.255283
0.255281
0.25528
0.255278
0.255276
0.255275
0.255273
0.255271
0.255269
0.255268
0.255266
0.255264
0.255263
0.255261
0.255259
0.255258
0.255256
0.255254
0.255252
0.255251
0.255249
0.255247
0.255246
0.255244
0.255242
0.255241
0.255239
0.255237
0.255235
0.255234
0.255232
0.25523
0.255229
0.255227
0.255225
0.255223
0.255222
0.25522
0.255218
0.255217
0.255215
0.255213
0.255211
0.25521
0.255208
0.255206
0.255205
0.255203
0.255201
0.255199
0.255198
0.255196
0.255194
0.255193
0.255191
0.255189
0.255187
0.255186
0.255184
0.255182
0.255181
0.255179
0.255177
0.255175
0.255174
0.255172
0.25517
0.255169
0.255167
0.255165
0.255163
0.255162
0.25516
0.255158
0.255157
0.255155
0.255153
0.255151
0.25515
0.255148
0.255146
0.255144
0.255143
0.255141
0.255139
0.255138
0.255136
0.255134
0.255132
0.255131
0.255129
0.255127
0.255126
0.255124
0.255122
0.25512
0.255119
0.255117
0.255115
0.255113
0.255112
0.25511
0.255108
0.255107
0.255105
0.255103
0.255101
0.2551
0.255098
0.255096
0.255094
0.255093
0.255091
0.255089
0.255087
0.255086
0.255084
0.255082
0.255081
0.255079
0.255077
0.255075
0.255074
0.255072
0.25507
0.255068
0.255067
0.255065
0.255063
0.255061
0.25506
0.255058
0.255056
0.255054
0.255053
0.255051
0.255049
0.255048
0.255046
0.255044
0.255042
0.255041
0.255039
0.255037
0.255035
0.255034
0.255032
0.25503
0.255028
0.255027
0.255025
0.255023
0.255021
0.25502
0.255018
0.255016
0.255014
0.255013
0.255011
0.255009
0.255007
0.255006
0.255004
0.255002
0.255
0.254999
0.254997
0.254995
0.254993
0.254992
0.25499
0.254988
0.254986
0.254985
0.254983
0.254981
0.254979
0.254978
0.254976
0.254974
0.254972
0.254971
0.254969
0.254967
0.254965
0.254964
0.254962
0.25496
0.254958
0.254957
0.254955
0.254953
0.254951
0.25495
0.254948
0.254946
0.254944
0.254943
0.254941
0.254939
0.254937
0.254936
0.254934
0.254932
0.25493
0.254929
0.254927
0.254925
0.254923
0.254922
0.25492
0.254918
0.254916
0.254915
0.254913
0.254911
0.254909
0.254908
0.254906
0.254904
0.254902
0.2549
0.254899
0.254897
0.254895
0.254893
0.254892
0.25489
0.254888
0.254886
0.254885
0.254883
0.254881
0.254879
0.254878
0.254876
0.254874
0.254872
0.25487
0.254869
0.254867
0.254865
0.254863
0.254862
0.25486
0.254858
0.254856
0.254855
0.254853
0.254851
0.254849
0.254847
0.254846
0.254844
0.254842
0.25484
0.254839
0.254837
0.254835
0.254833
0.254832
0.25483
0.254828
0.254826
0.254824
0.254823
0.254821
0.254819
0.254817
0.254816
0.254814
0.254812
0.25481
0.254808
0.254807
0.254805
0.254803
0.254801
0.2548
0.254798
0.254796
0.254794
0.254792
0.254791
0.254789
0.254787
0.254785
0.254784
0.254782
0.25478
0.254778
0.254776
0.254775
0.254773
0.254771
0.254769
0.254768
0.254766
0.254764
0.254762
0.25476
0.254759
0.254757
0.254755
0.254753
0.254751
0.25475
0.254748
0.254746
0.254744
0.254743
0.254741
0.254739
0.254737
0.254735
0.254734
0.254732
0.25473
0.254728
0.254726
0.254725
0.254723
0.254721
0.254719
0.254718
0.254716
0.254714
0.254712
0.25471
0.254709
0.254707
0.254705
0.254703
0.254701
0.2547
0.254698
0.254696
0.254694
0.254692
0.254691
0.254689
0.254687
0.254685
0.254684
0.254682
0.25468
0.254678
0.254676
0.254675
0.254673
0.254671
0.254669
0.254667
0.254666
0.254664
0.254662
0.25466
0.254658
0.254657
0.254655
0.254653
0.254651
0.254649
0.254648
0.254646
0.254644
0.254642
0.25464
0.254639
0.254637
0.254635
0.254633
0.254631
0.25463
0.254628
0.254626
0.254624
0.254622
0.254621
0.254619
0.254617
0.254615
0.254613
0.254612
0.25461
0.254608
0.254606
0.254604
0.254603
0.254601
0.254599
0.254597
0.254595
0.254594
0.254592
0.25459
0.254588
0.254586
0.254585
0.254583
0.254581
0.254579
0.254577
0.254575
0.254574
0.254572
0.25457
0.254568
0.254566
0.254565
0.254563
0.254561
0.254559
0.254557
0.254556
0.254554
0.254552
0.25455
0.254548
0.254547
0.254545
0.254543
0.254541
0.254539
0.254537
0.254536
0.254534
0.254532
0.25453
0.254528
0.254527
0.254525
0.254523
0.254521
0.254519
0.254518
0.254516
0.254514
0.254512
0.25451
0.254508
0.254507
0.254505
0.254503
0.254501
0.254499
0.254498
0.254496
0.254494
0.254492
0.25449
0.254488
0.254487
0.254485
0.254483
0.254481
0.254479
0.254478
0.254476
0.254474
0.254472
0.25447
0.254468
0.254467
0.254465
0.254463
0.254461
0.254459
0.254458
0.254456
0.254454
0.254452
0.25445
0.254448
0.254447
0.254445
0.254443
0.254441
0.254439
0.254438
0.254436
0.254434
0.254432
0.25443
0.254428
0.254427
0.254425
0.254423
0.254421
0.254419
0.254417
0.254416
0.254414
0.254412
0.25441
0.254408
0.254406
0.254405
0.254403
0.254401
0.254399
0.254397
0.254396
0.254394
0.254392
0.25439
0.254388
0.254386
0.254385
0.254383
0.254381
0.254379
0.254377
0.254375
0.254374
0.254372
0.25437
0.254368
0.254366
0.254364
0.254363
0.254361
0.254359
0.254357
0.254355
0.254353
0.254352
0.25435
0.254348
0.254346
0.254344
0.254342
0.254341
0.254339
0.254337
0.254335
0.254333
0.254331
0.25433
0.254328
0.254326
0.254324
0.254322
0.25432
0.254319
0.254317
0.254315
0.254313
0.254311
0.254309
0.254308
0.254306
0.254304
0.254302
0.2543
0.254298
0.254297
0.254295
0.254293
0.254291
0.254289
0.254287
0.254286
0.254284
0.254282
0.25428
0.254278
0.254276
0.254275
0.254273
0.254271
0.254269
0.254267
0.254265
0.254264
0.254262
0.25426
0.254258
0.254256
0.254254
0.254252
0.254251
0.254249
0.254247
0.254245
0.254243
0.254241
0.25424
0.254238
0.254236
0.254234
0.254232
0.25423
0.254229
0.254227
0.254225
0.254223
0.254221
0.254219
0.254217
0.254216
0.254214
0.254212
0.25421
0.254208
0.254206
0.254205
0.254203
0.254201
0.254199
0.254197
0.254195
0.254194
0.254192
0.25419
0.254188
0.254186
0.254184
0.254182
0.254181
0.254179
0.254177
0.254175
0.254173
0.254171
0.25417
0.254168
0.254166
0.254164
0.254162
0.25416
0.254158
0.254157
0.254155
0.254153
0.254151
0.254149
0.254147
0.254146
0.254144
0.254142
0.25414
0.254138
0.254136
0.254134
0.254133
0.254131
0.254129
0.254127
0.254125
0.254123
0.254122
0.25412
0.254118
0.254116
0.254114
0.254112
0.25411
0.254109
0.254107
0.254105
0.254103
0.254101
0.254099
0.254097
0.254096
0.254094
0.254092
0.25409
0.254088
0.254086
0.254085
0.254083
0.254081
0.254079
0.254077
0.254075
0.254073
0.254072
0.25407
0.254068
0.254066
0.254064
0.254062
0.25406
0.254059
0.254057
0.254055
0.254053
0.254051
0.254049
0.254048
0.254046
0.254044
0.254042
0.25404
0.254038
0.254036
0.254035
0.254033
0.254031
0.254029
0.254027
0.254025
0.254023
0.254022
0.25402
0.254018
0.254016
0.254014
0.254012
0.254011
0.254009
0.254007
0.254005
0.254003
0.254001
0.253999
0.253998
0.253996
0.253994
0.253992
0.25399
0.253988
0.253986
0.253985
0.253983
0.253981
0.253979
0.253977
0.253975
0.253973
0.253972
0.25397
0.253968
0.253966
0.253964
0.253962
0.253961
0.253959
0.253957
0.253955
0.253953
0.253951
0.253949
0.253948
0.253946
0.253944
0.253942
0.25394
0.253938
0.253936
0.253935
0.253933
0.253931
0.253929
0.253927
0.253925
0.253923
0.253922
0.25392
0.253918
0.253916
0.253914
0.253912
0.25391
0.253909
0.253907
0.253905
0.253903
0.253901
0.253899
0.253898
0.253896
0.253894
0.253892
0.25389
0.253888
0.253886
0.253885
0.253883
0.253881
0.253879
0.253877
0.253875
0.253873
0.253872
0.25387
0.253868
0.253866
0.253864
0.253862
0.25386
0.253859
0.253857
0.253855
0.253853
0.253851
0.253849
0.253848
0.253846
0.253844
0.253842
0.25384
0.253838
0.253836
0.253835
0.253833
0.253831
0.253829
0.253827
0.253825
0.253823
0.253822
0.25382
0.253818
0.253816
0.253814
0.253812
0.253811
0.253809
0.253807
0.253805
0.253803
0.253801
0.253799
0.253798
0.253796
0.253794
0.253792
0.25379
0.253788
0.253787
0.253785
0.253783
0.253781
0.253779
0.253777
0.253775
0.253774
0.253772
0.25377
0.253768
0.253766
0.253764
0.253763
0.253761
0.253759
0.253757
0.253755
0.253753
0.253751
0.25375
0.253748
0.253746
0.253744
0.253742
0.25374
0.253739
0.253737
0.253735
0.253733
0.253731
0.253729
0.253727
0.253726
0.253724
0.253722
0.25372
0.253718
0.253716
0.253715
0.253713
0.253711
0.253709
0.253707
0.253705
0.253704
0.253702
0.2537
0.253698
0.253696
0.253694
0.253693
0.253691
0.253689
0.253687
0.253685
0.253683
0.253681
0.25368
0.253678
0.253676
0.253674
0.253672
0.25367
0.253669
0.253667
0.253665
0.253663
0.253661
0.253659
0.253658
0.253656
0.253654
0.253652
0.25365
0.253648
0.253647
0.253645
0.253643
0.253641
0.253639
0.253637
0.253636
0.253634
0.253632
0.25363
0.253628
0.253626
0.253625
0.253623
0.253621
0.253619
0.253617
0.253615
0.253614
0.253612
0.25361
0.253608
0.253606
0.253605
0.253603
0.253601
0.253599
0.253597
0.253595
0.253594
0.253592
0.25359
0.253588
0.253586
0.253584
0.253583
0.253581
0.253579
0.253577
0.253575
0.253574
0.253572
0.25357
0.253568
0.253566
0.253564
0.253563
0.253561
0.253559
0.253557
0.253555
0.253554
0.253552
0.25355
0.253548
0.253546
0.253544
0.253543
0.253541
0.253539
0.253537
0.253535
0.253534
0.253532
0.25353
0.253528
0.253526
0.253525
0.253523
0.253521
0.253519
0.253517
0.253516
0.253514
0.253512
0.25351
0.253508
0.253506
0.253505
0.253503
0.253501
0.253499
0.253497
0.253496
0.253494
0.253492
0.25349
0.253488
0.253487
0.253485
0.253483
0.253481
0.253479
0.253478
0.253476
0.253474
0.253472
0.25347
0.253469
0.253467
0.253465
0.253463
0.253462
0.25346
0.253458
0.253456
0.253454
0.253453
0.253451
0.253449
0.253447
0.253445
0.253444
0.253442
0.25344
0.253438
0.253437
0.253435
0.253433
0.253431
0.253429
0.253428
0.253426
0.253424
0.253422
0.25342
0.253419
0.253417
0.253415
0.253413
0.253412
0.25341
0.253408
0.253406
0.253405
0.253403
0.253401
0.253399
0.253397
0.253396
0.253394
0.253392
0.25339
0.253389
0.253387
0.253385
0.253383
0.253382
0.25338
0.253378
0.253376
0.253375
0.253373
0.253371
0.253369
0.253367
0.253366
0.253364
0.253362
0.25336
0.253359
0.253357
0.253355
0.253353
0.253352
0.25335
0.253348
0.253346
0.253345
0.253343
0.253341
0.25334
0.253338
0.253336
0.253334
0.253333
0.253331
0.253329
0.253327
0.253326
0.253324
0.253322
0.25332
0.253319
0.253317
0.253315
0.253313
0.253312
0.25331
0.253308
0.253307
0.253305
0.253303
0.253301
0.2533
0.253298
0.253296
0.253295
0.253293
0.253291
0.253289
0.253288
0.253286
0.253284
0.253283
0.253281
0.253279
0.253277
0.253276
0.253274
0.253272
0.253271
0.253269
0.253267
0.253265
0.253264
0.253262
0.25326
0.253259
0.253257
0.253255
0.253254
0.253252
0.25325
0.253249
0.253247
0.253245
0.253244
0.253242
0.25324
0.253238
0.253237
0.253235
0.253233
0.253232
0.25323
0.253228
0.253227
0.253225
0.253223
0.253222
0.25322
0.253218
0.253217
0.253215
0.253213
0.253212
0.25321
0.253208
0.253207
0.253205
0.253203
0.253202
0.2532
0.253199
0.253197
0.253195
0.253194
0.253192
0.25319
0.253189
0.253187
0.253185
0.253184
0.253182
0.25318
0.253179
0.253177
0.253176
0.253174
0.253172
0.253171
0.253169
0.253167
0.253166
0.253164
0.253163
0.253161
0.253159
0.253158
0.253156
0.253155
0.253153
0.253151
0.25315
0.253148
0.253147
0.253145
0.253143
0.253142
0.25314
0.253139
0.253137
0.253135
0.253134
0.253132
0.253131
0.253129
0.253128
0.253126
0.253124
0.253123
0.253121
0.25312
0.253118
0.253117
0.253115
0.253113
0.253112
0.25311
0.253109
0.253107
0.253106
0.253104
0.253103
0.253101
0.253099
0.253098
0.253096
0.253095
0.253093
0.253092
0.25309
0.253089
0.253087
0.253086
0.253084
0.253083
0.253081
0.25308
0.253078
0.253077
0.253075
0.253074
0.253072
0.253071
0.253069
0.253068
0.253066
0.253065
0.253063
0.253062
0.25306
0.253059
0.253057
0.253056
0.253054
0.253053
0.253051
0.25305
0.253048
0.253047
0.253045
0.253044
0.253043
0.253041
0.25304
0.253038
0.253037
0.253035
0.253034
0.253032
0.253031
0.25303
0.253028
0.253027
0.253025
0.253024
0.253022
0.253021
0.25302
0.253018
0.253017
0.253015
0.253014
0.253013
0.253011
0.25301
0.253008
0.253007
0.253006
0.253004
0.253003
0.253002
0.253
0.252999
0.252998
0.252996
0.252995
0.252993
0.252992
0.252991
0.252989
0.252988
0.252987
0.252985
0.252984
0.252983
0.252981
0.25298
0.252979
0.252977
0.252976
0.252975
0.252974
0.252972
0.252971
0.25297
0.252968
0.252967
0.252966
0.252965
0.252963
0.252962
0.252961
0.252959
0.252958
0.252957
0.252956
0.252954
0.252953
0.252952
0.252951
0.25295
0.252948
0.252947
0.252946
0.252945
0.252943
0.252942
0.252941
0.25294
0.252939
0.252937
0.252936
0.252935
0.252934
0.252933
0.252932
0.25293
0.252929
0.252928
0.252927
0.252926
0.252925
0.252923
0.252922
0.252921
0.25292
0.252919
0.252918
0.252917
0.252916
0.252915
0.252913
0.252912
0.252911
0.25291
0.252909
0.252908
0.252907
0.252906
0.252905
0.252904
0.252903
0.252902
0.252901
0.2529
0.252899
0.252898
0.252897
0.252896
0.252895
0.252894
0.252893
0.252892
0.252891
0.25289
0.252889
0.252888
0.252887
0.252886
0.252885
0.252884
0.252883
0.252882
0.252881
0.25288
0.252879
0.252878
0.252877
0.252876
0.252876
0.252875
0.252874
0.252873
0.252872
0.252871
0.25287
0.25287
0.252869
0.252868
0.252867
0.252866
0.252865
0.252865
0.252864
0.252863
0.252862
0.252861
0.252861
0.25286
0.252859
0.252858
0.252858
0.252857
0.252856
0.252855
0.252855
0.252854
0.252853
0.252853
0.252852
0.252851
0.252851
0.25285
0.252849
0.252849
0.252848
0.252847
0.252847
0.252846
0.252846
0.252845
0.252844
0.252844
0.252843
0.252843
0.252842
0.252841
0.252841
0.25284
0.25284
0.252839
0.252839
0.252838
0.252838
0.252837
0.252837
0.252836
0.252836
0.252836
0.252835
0.252835
0.252834
0.252834
0.252833
0.252833
0.252833
0.252832
0.252832
0.252832
0.252831
0.252831
0.252831
0.25283
0.25283
0.25283
0.252829
0.252829
0.252829
0.252829
0.252828
0.252828
0.252828
0.252828
0.252828
0.252827
0.252827
0.252827
0.252827
0.252827
0.252827
0.252826
0.252826
0.252826
0.252826
0.252826
0.252826
0.252826
0.252826
0.252826
0.252826
0.252826
0.252826
0.252826
0.252826
0.252826
0.252826
0.252826
0.252826
0.252826
0.252826
0.252827
0.252827
0.252827
0.252827
0.252827
0.252827
0.252828
0.252828
0.252828
0.252828
0.252829
0.252829
0.252829
0.252829
0.25283
0.25283
0.25283
0.252831
0.252831
0.252832
0.252832
0.252832
0.252833
0.252833
0.252834
0.252834
0.252835
0.252835
0.252836
0.252836
0.252837
0.252837
0.252838
0.252839
0.252839
0.25284
0.252841
0.252841
0.252842
0.252843
0.252843
0.252844
0.252845
0.252846
0.252847
0.252847
0.252848
0.252849
0.25285
0.252851