/*--------------------------------*- C++ -*----------------------------------*\
  =========                 |
  \\      /  F ield         | OpenFOAM: The Open Source CFD Toolbox
   \\    /   O peration     | Website:  https://openfoam.org
    \\  /    A nd           | Version:  9
     \\/     M anipulation  |
\*---------------------------------------------------------------------------*/
FoamFile
{
    format      ascii;
    class       volScalarField;
    location    "0.034";
    object      T;
}
// * * * * * * * * * * * * * * * * * * * * * * * * * * * * * * * * * * * * * //

dimensions      [0 0 0 1 0 0 0];

internalField   nonuniform List<scalar> 
10000
(
202.209
202.211
202.214
202.217
202.22
202.224
202.227
202.23
202.233
202.236
202.239
202.242
202.245
202.248
202.251
202.255
202.258
202.261
202.264
202.267
202.27
202.273
202.276
202.279
202.282
202.285
202.288
202.291
202.294
202.297
202.3
202.304
202.306
202.309
202.312
202.315
202.318
202.322
202.325
202.328
202.331
202.333
202.336
202.339
202.342
202.345
202.348
202.351
202.354
202.357
202.36
202.363
202.365
202.368
202.371
202.374
202.377
202.38
202.384
202.387
202.39
202.392
202.395
202.397
202.4
202.402
202.405
202.407
202.41
202.413
202.416
202.419
202.422
202.426
202.429
202.432
202.435
202.438
202.441
202.443
202.445
202.447
202.449
202.45
202.451
202.451
202.452
202.452
202.452
202.453
202.453
202.453
202.453
202.453
202.453
202.453
202.452
202.452
202.452
202.451
202.451
202.45
202.45
202.45
202.449
202.449
202.448
202.448
202.448
202.447
202.447
202.447
202.446
202.446
202.445
202.445
202.445
202.444
202.444
202.444
202.443
202.443
202.442
202.442
202.442
202.441
202.441
202.441
202.44
202.44
202.439
202.439
202.439
202.438
202.438
202.438
202.437
202.437
202.436
202.436
202.436
202.435
202.435
202.435
202.434
202.434
202.433
202.433
202.433
202.432
202.432
202.432
202.431
202.431
202.43
202.43
202.43
202.429
202.429
202.429
202.428
202.428
202.427
202.427
202.427
202.426
202.426
202.425
202.425
202.425
202.424
202.424
202.424
202.423
202.423
202.422
202.422
202.422
202.421
202.421
202.421
202.42
202.42
202.419
202.419
202.419
202.418
202.418
202.417
202.417
202.417
202.416
202.416
202.416
202.415
202.415
202.414
202.414
202.414
202.413
202.413
202.413
202.412
202.412
202.411
202.411
202.411
202.41
202.41
202.409
202.409
202.409
202.408
202.408
202.408
202.407
202.407
202.406
202.406
202.406
202.405
202.405
202.404
202.404
202.404
202.403
202.403
202.403
202.402
202.402
202.401
202.401
202.401
202.4
202.4
202.399
202.399
202.399
202.398
202.398
202.398
202.397
202.397
202.396
202.396
202.396
202.395
202.395
202.394
202.394
202.394
202.393
202.393
202.392
202.392
202.392
202.391
202.391
202.391
202.39
202.39
202.389
202.389
202.389
202.388
202.388
202.387
202.387
202.387
202.386
202.386
202.385
202.385
202.385
202.384
202.384
202.384
202.383
202.383
202.382
202.382
202.382
202.381
202.381
202.38
202.38
202.38
202.379
202.379
202.378
202.378
202.378
202.377
202.377
202.376
202.376
202.376
202.375
202.375
202.375
202.374
202.374
202.373
202.373
202.373
202.372
202.372
202.371
202.371
202.371
202.37
202.37
202.369
202.369
202.369
202.368
202.368
202.367
202.367
202.367
202.366
202.366
202.365
202.365
202.365
202.364
202.364
202.363
202.363
202.363
202.362
202.362
202.361
202.361
202.361
202.36
202.36
202.36
202.359
202.359
202.358
202.358
202.358
202.357
202.357
202.356
202.356
202.356
202.355
202.355
202.354
202.354
202.354
202.353
202.353
202.352
202.352
202.352
202.351
202.351
202.35
202.35
202.35
202.349
202.349
202.348
202.348
202.348
202.347
202.347
202.346
202.346
202.346
202.345
202.345
202.344
202.344
202.344
202.343
202.343
202.342
202.342
202.342
202.341
202.341
202.34
202.34
202.34
202.339
202.339
202.338
202.338
202.338
202.337
202.337
202.336
202.336
202.336
202.335
202.335
202.334
202.334
202.334
202.333
202.333
202.332
202.332
202.332
202.331
202.331
202.33
202.33
202.329
202.329
202.329
202.328
202.328
202.327
202.327
202.327
202.326
202.326
202.325
202.325
202.325
202.324
202.324
202.323
202.323
202.323
202.322
202.322
202.321
202.321
202.321
202.32
202.32
202.319
202.319
202.319
202.318
202.318
202.317
202.317
202.317
202.316
202.316
202.315
202.315
202.314
202.314
202.314
202.313
202.313
202.312
202.312
202.312
202.311
202.311
202.31
202.31
202.31
202.309
202.309
202.308
202.308
202.308
202.307
202.307
202.306
202.306
202.305
202.305
202.305
202.304
202.304
202.303
202.303
202.303
202.302
202.302
202.301
202.301
202.301
202.3
202.3
202.299
202.299
202.298
202.298
202.298
202.297
202.297
202.296
202.296
202.296
202.295
202.295
202.294
202.294
202.294
202.293
202.293
202.292
202.292
202.291
202.291
202.291
202.29
202.29
202.289
202.289
202.289
202.288
202.288
202.287
202.287
202.287
202.286
202.286
202.285
202.285
202.284
202.284
202.284
202.283
202.283
202.282
202.282
202.282
202.281
202.281
202.28
202.28
202.279
202.279
202.279
202.278
202.278
202.277
202.277
202.277
202.276
202.276
202.275
202.275
202.274
202.274
202.274
202.273
202.273
202.272
202.272
202.272
202.271
202.271
202.27
202.27
202.269
202.269
202.269
202.268
202.268
202.267
202.267
202.267
202.266
202.266
202.265
202.265
202.264
202.264
202.264
202.263
202.263
202.262
202.262
202.261
202.261
202.261
202.26
202.26
202.259
202.259
202.259
202.258
202.258
202.257
202.257
202.256
202.256
202.256
202.255
202.255
202.254
202.254
202.253
202.253
202.253
202.252
202.252
202.251
202.251
202.25
202.25
202.25
202.249
202.249
202.248
202.248
202.248
202.247
202.247
202.246
202.246
202.245
202.245
202.245
202.244
202.244
202.243
202.243
202.242
202.242
202.242
202.241
202.241
202.24
202.24
202.239
202.239
202.239
202.238
202.238
202.237
202.237
202.236
202.236
202.236
202.235
202.235
202.234
202.234
202.233
202.233
202.233
202.232
202.232
202.231
202.231
202.23
202.23
202.23
202.229
202.229
202.228
202.228
202.227
202.227
202.227
202.226
202.226
202.225
202.225
202.224
202.224
202.224
202.223
202.223
202.222
202.222
202.221
202.221
202.221
202.22
202.22
202.219
202.219
202.218
202.218
202.218
202.217
202.217
202.216
202.216
202.215
202.215
202.215
202.214
202.214
202.213
202.213
202.212
202.212
202.212
202.211
202.211
202.21
202.21
202.209
202.209
202.209
202.208
202.208
202.207
202.207
202.206
202.206
202.205
202.205
202.205
202.204
202.204
202.203
202.203
202.202
202.202
202.202
202.201
202.201
202.2
202.2
202.199
202.199
202.199
202.198
202.198
202.197
202.197
202.196
202.196
202.195
202.195
202.195
202.194
202.194
202.193
202.193
202.192
202.192
202.192
202.191
202.191
202.19
202.19
202.189
202.189
202.188
202.188
202.188
202.187
202.187
202.186
202.186
202.185
202.185
202.185
202.184
202.184
202.183
202.183
202.182
202.182
202.181
202.181
202.181
202.18
202.18
202.179
202.179
202.178
202.178
202.178
202.177
202.177
202.176
202.176
202.175
202.175
202.174
202.174
202.173
202.173
202.173
202.172
202.172
202.171
202.171
202.17
202.17
202.17
202.169
202.169
202.168
202.168
202.167
202.167
202.166
202.166
202.166
202.165
202.165
202.164
202.164
202.163
202.163
202.162
202.162
202.162
202.161
202.161
202.16
202.16
202.159
202.159
202.158
202.158
202.158
202.157
202.157
202.156
202.156
202.155
202.155
202.154
202.154
202.154
202.153
202.153
202.152
202.152
202.151
202.151
202.15
202.15
202.15
202.149
202.149
202.148
202.148
202.147
202.147
202.146
202.146
202.146
202.145
202.145
202.144
202.144
202.143
202.143
202.142
202.142
202.141
202.141
202.141
202.14
202.14
202.139
202.139
202.138
202.138
202.137
202.137
202.137
202.136
202.136
202.135
202.135
202.134
202.134
202.133
202.133
202.132
202.132
202.132
202.131
202.131
202.13
202.13
202.129
202.129
202.128
202.128
202.128
202.127
202.127
202.126
202.126
202.125
202.125
202.124
202.124
202.123
202.123
202.123
202.122
202.122
202.121
202.121
202.12
202.12
202.119
202.119
202.118
202.118
202.118
202.117
202.117
202.116
202.116
202.115
202.115
202.114
202.114
202.113
202.113
202.113
202.112
202.112
202.111
202.111
202.11
202.11
202.109
202.109
202.108
202.108
202.108
202.107
202.107
202.106
202.106
202.105
202.105
202.104
202.104
202.103
202.103
202.102
202.102
202.102
202.101
202.101
202.1
202.1
202.099
202.099
202.098
202.098
202.097
202.097
202.097
202.096
202.096
202.095
202.095
202.094
202.094
202.093
202.093
202.092
202.092
202.091
202.091
202.091
202.09
202.09
202.089
202.089
202.088
202.088
202.087
202.087
202.086
202.086
202.085
202.085
202.085
202.084
202.084
202.083
202.083
202.082
202.082
202.081
202.081
202.08
202.08
202.079
202.079
202.079
202.078
202.078
202.077
202.077
202.076
202.076
202.075
202.075
202.074
202.074
202.073
202.073
202.073
202.072
202.072
202.071
202.071
202.07
202.07
202.069
202.069
202.068
202.068
202.067
202.067
202.066
202.066
202.066
202.065
202.065
202.064
202.064
202.063
202.063
202.062
202.062
202.061
202.061
202.06
202.06
202.059
202.059
202.059
202.058
202.058
202.057
202.057
202.056
202.056
202.055
202.055
202.054
202.054
202.053
202.053
202.052
202.052
202.051
202.051
202.051
202.05
202.05
202.049
202.049
202.048
202.048
202.047
202.047
202.046
202.046
202.045
202.045
202.044
202.044
202.044
202.043
202.043
202.042
202.042
202.041
202.041
202.04
202.04
202.039
202.039
202.038
202.038
202.037
202.037
202.036
202.036
202.035
202.035
202.035
202.034
202.034
202.033
202.033
202.032
202.032
202.031
202.031
202.03
202.03
202.029
202.029
202.028
202.028
202.027
202.027
202.026
202.026
202.026
202.025
202.025
202.024
202.024
202.023
202.023
202.022
202.022
202.021
202.021
202.02
202.02
202.019
202.019
202.018
202.018
202.017
202.017
202.016
202.016
202.016
202.015
202.015
202.014
202.014
202.013
202.013
202.012
202.012
202.011
202.011
202.01
202.01
202.009
202.009
202.008
202.008
202.007
202.007
202.006
202.006
202.005
202.005
202.005
202.004
202.004
202.003
202.003
202.002
202.002
202.001
202.001
202
202
201.999
201.999
201.998
201.998
201.997
201.997
201.996
201.996
201.995
201.995
201.994
201.994
201.993
201.993
201.993
201.992
201.992
201.991
201.991
201.99
201.99
201.989
201.989
201.988
201.988
201.987
201.987
201.986
201.986
201.985
201.985
201.984
201.984
201.983
201.983
201.982
201.982
201.981
201.981
201.98
201.98
201.979
201.979
201.978
201.978
201.978
201.977
201.977
201.976
201.976
201.975
201.975
201.974
201.974
201.973
201.973
201.972
201.972
201.971
201.971
201.97
201.97
201.969
201.969
201.968
201.968
201.967
201.967
201.966
201.966
201.965
201.965
201.964
201.964
201.963
201.963
201.962
201.962
201.961
201.961
201.96
201.96
201.959
201.959
201.959
201.958
201.958
201.957
201.957
201.956
201.956
201.955
201.955
201.954
201.954
201.953
201.953
201.952
201.952
201.951
201.951
201.95
201.95
201.949
201.949
201.948
201.948
201.947
201.947
201.946
201.946
201.945
201.945
201.944
201.944
201.943
201.943
201.942
201.942
201.941
201.941
201.94
201.94
201.939
201.939
201.938
201.938
201.937
201.937
201.936
201.936
201.935
201.935
201.934
201.934
201.933
201.933
201.932
201.932
201.931
201.931
201.93
201.93
201.929
201.929
201.928
201.928
201.927
201.927
201.926
201.926
201.925
201.925
201.924
201.924
201.923
201.923
201.922
201.922
201.922
201.921
201.921
201.92
201.92
201.919
201.919
201.918
201.918
201.917
201.917
201.916
201.916
201.915
201.915
201.914
201.914
201.913
201.913
201.912
201.912
201.911
201.911
201.91
201.91
201.909
201.909
201.908
201.908
201.907
201.907
201.906
201.906
201.905
201.905
201.904
201.904
201.903
201.903
201.902
201.902
201.901
201.901
201.9
201.9
201.899
201.899
201.898
201.898
201.897
201.897
201.896
201.896
201.895
201.895
201.894
201.893
201.893
201.892
201.892
201.891
201.891
201.89
201.89
201.889
201.889
201.888
201.888
201.887
201.887
201.886
201.886
201.885
201.885
201.884
201.884
201.883
201.883
201.882
201.882
201.881
201.881
201.88
201.88
201.879
201.879
201.878
201.878
201.877
201.877
201.876
201.876
201.875
201.875
201.874
201.874
201.873
201.873
201.872
201.872
201.871
201.871
201.87
201.87
201.869
201.869
201.868
201.868
201.867
201.867
201.866
201.866
201.865
201.865
201.864
201.864
201.863
201.863
201.862
201.862
201.861
201.861
201.86
201.86
201.859
201.859
201.858
201.858
201.857
201.857
201.856
201.855
201.855
201.854
201.854
201.853
201.853
201.852
201.852
201.851
201.851
201.85
201.85
201.849
201.849
201.848
201.848
201.847
201.847
201.846
201.846
201.845
201.845
201.844
201.844
201.843
201.843
201.842
201.842
201.841
201.841
201.84
201.84
201.839
201.839
201.838
201.838
201.837
201.837
201.836
201.835
201.835
201.834
201.834
201.833
201.833
201.832
201.832
201.831
201.831
201.83
201.83
201.829
201.829
201.828
201.828
201.827
201.827
201.826
201.826
201.825
201.825
201.824
201.824
201.823
201.823
201.822
201.822
201.821
201.821
201.82
201.819
201.819
201.818
201.818
201.817
201.817
201.816
201.816
201.815
201.815
201.814
201.814
201.813
201.813
201.812
201.812
201.811
201.811
201.81
201.81
201.809
201.809
201.808
201.808
201.807
201.806
201.806
201.805
201.805
201.804
201.804
201.803
201.803
201.802
201.802
201.801
201.801
201.8
201.8
201.799
201.799
201.798
201.798
201.797
201.797
201.796
201.796
201.795
201.795
201.794
201.793
201.793
201.792
201.792
201.791
201.791
201.79
201.79
201.789
201.789
201.788
201.788
201.787
201.787
201.786
201.786
201.785
201.785
201.784
201.784
201.783
201.782
201.782
201.781
201.781
201.78
201.78
201.779
201.779
201.778
201.778
201.777
201.777
201.776
201.776
201.775
201.775
201.774
201.774
201.773
201.772
201.772
201.771
201.771
201.77
201.77
201.769
201.769
201.768
201.768
201.767
201.767
201.766
201.766
201.765
201.765
201.764
201.763
201.763
201.762
201.762
201.761
201.761
201.76
201.76
201.759
201.759
201.758
201.758
201.757
201.757
201.756
201.756
201.755
201.754
201.754
201.753
201.753
201.752
201.752
201.751
201.751
201.75
201.75
201.749
201.749
201.748
201.748
201.747
201.747
201.746
201.745
201.745
201.744
201.744
201.743
201.743
201.742
201.742
201.741
201.741
201.74
201.74
201.739
201.739
201.738
201.737
201.737
201.736
201.736
201.735
201.735
201.734
201.734
201.733
201.733
201.732
201.732
201.731
201.731
201.73
201.729
201.729
201.728
201.728
201.727
201.727
201.726
201.726
201.725
201.725
201.724
201.724
201.723
201.722
201.722
201.721
201.721
201.72
201.72
201.719
201.719
201.718
201.718
201.717
201.717
201.716
201.716
201.715
201.714
201.714
201.713
201.713
201.712
201.712
201.711
201.711
201.71
201.71
201.709
201.709
201.708
201.707
201.707
201.706
201.706
201.705
201.705
201.704
201.704
201.703
201.703
201.702
201.701
201.701
201.7
201.7
201.699
201.699
201.698
201.698
201.697
201.697
201.696
201.696
201.695
201.694
201.694
201.693
201.693
201.692
201.692
201.691
201.691
201.69
201.69
201.689
201.689
201.688
201.687
201.687
201.686
201.686
201.685
201.685
201.684
201.684
201.683
201.683
201.682
201.681
201.681
201.68
201.68
201.679
201.679
201.678
201.678
201.677
201.677
201.676
201.675
201.675
201.674
201.674
201.673
201.673
201.672
201.672
201.671
201.671
201.67
201.669
201.669
201.668
201.668
201.667
201.667
201.666
201.666
201.665
201.665
201.664
201.663
201.663
201.662
201.662
201.661
201.661
201.66
201.66
201.659
201.659
201.658
201.657
201.657
201.656
201.656
201.655
201.655
201.654
201.654
201.653
201.653
201.652
201.651
201.651
201.65
201.65
201.649
201.649
201.648
201.648
201.647
201.646
201.646
201.645
201.645
201.644
201.644
201.643
201.643
201.642
201.642
201.641
201.64
201.64
201.639
201.639
201.638
201.638
201.637
201.637
201.636
201.635
201.635
201.634
201.634
201.633
201.633
201.632
201.632
201.631
201.63
201.63
201.629
201.629
201.628
201.628
201.627
201.627
201.626
201.626
201.625
201.624
201.624
201.623
201.623
201.622
201.622
201.621
201.621
201.62
201.619
201.619
201.618
201.618
201.617
201.617
201.616
201.616
201.615
201.614
201.614
201.613
201.613
201.612
201.612
201.611
201.611
201.61
201.609
201.609
201.608
201.608
201.607
201.607
201.606
201.606
201.605
201.604
201.604
201.603
201.603
201.602
201.602
201.601
201.601
201.6
201.599
201.599
201.598
201.598
201.597
201.597
201.596
201.596
201.595
201.594
201.594
201.593
201.593
201.592
201.592
201.591
201.59
201.59
201.589
201.589
201.588
201.588
201.587
201.587
201.586
201.585
201.585
201.584
201.584
201.583
201.583
201.582
201.582
201.581
201.58
201.58
201.579
201.579
201.578
201.578
201.577
201.576
201.576
201.575
201.575
201.574
201.574
201.573
201.573
201.572
201.571
201.571
201.57
201.57
201.569
201.569
201.568
201.567
201.567
201.566
201.566
201.565
201.565
201.564
201.564
201.563
201.562
201.562
201.561
201.561
201.56
201.56
201.559
201.558
201.558
201.557
201.557
201.556
201.556
201.555
201.555
201.554
201.553
201.553
201.552
201.552
201.551
201.551
201.55
201.549
201.549
201.548
201.548
201.547
201.547
201.546
201.545
201.545
201.544
201.544
201.543
201.543
201.542
201.542
201.541
201.54
201.54
201.539
201.539
201.538
201.538
201.537
201.536
201.536
201.535
201.535
201.534
201.534
201.533
201.532
201.532
201.531
201.531
201.53
201.53
201.529
201.528
201.528
201.527
201.527
201.526
201.526
201.525
201.525
201.524
201.523
201.523
201.522
201.522
201.521
201.521
201.52
201.519
201.519
201.518
201.518
201.517
201.517
201.516
201.515
201.515
201.514
201.514
201.513
201.513
201.512
201.511
201.511
201.51
201.51
201.509
201.509
201.508
201.507
201.507
201.506
201.506
201.505
201.505
201.504
201.503
201.503
201.502
201.502
201.501
201.501
201.5
201.499
201.499
201.498
201.498
201.497
201.497
201.496
201.495
201.495
201.494
201.494
201.493
201.493
201.492
201.491
201.491
201.49
201.49
201.489
201.489
201.488
201.487
201.487
201.486
201.486
201.485
201.485
201.484
201.483
201.483
201.482
201.482
201.481
201.48
201.48
201.479
201.479
201.478
201.478
201.477
201.476
201.476
201.475
201.475
201.474
201.474
201.473
201.472
201.472
201.471
201.471
201.47
201.47
201.469
201.468
201.468
201.467
201.467
201.466
201.466
201.465
201.464
201.464
201.463
201.463
201.462
201.461
201.461
201.46
201.46
201.459
201.459
201.458
201.457
201.457
201.456
201.456
201.455
201.455
201.454
201.453
201.453
201.452
201.452
201.451
201.451
201.45
201.449
201.449
201.448
201.448
201.447
201.446
201.446
201.445
201.445
201.444
201.444
201.443
201.442
201.442
201.441
201.441
201.44
201.44
201.439
201.438
201.438
201.437
201.437
201.436
201.435
201.435
201.434
201.434
201.433
201.433
201.432
201.431
201.431
201.43
201.43
201.429
201.428
201.428
201.427
201.427
201.426
201.426
201.425
201.424
201.424
201.423
201.423
201.422
201.422
201.421
201.42
201.42
201.419
201.419
201.418
201.417
201.417
201.416
201.416
201.415
201.415
201.414
201.413
201.413
201.412
201.412
201.411
201.41
201.41
201.409
201.409
201.408
201.408
201.407
201.406
201.406
201.405
201.405
201.404
201.403
201.403
201.402
201.402
201.401
201.401
201.4
201.399
201.399
201.398
201.398
201.397
201.396
201.396
201.395
201.395
201.394
201.394
201.393
201.392
201.392
201.391
201.391
201.39
201.389
201.389
201.388
201.388
201.387
201.387
201.386
201.385
201.385
201.384
201.384
201.383
201.382
201.382
201.381
201.381
201.38
201.38
201.379
201.378
201.378
201.377
201.377
201.376
201.375
201.375
201.374
201.374
201.373
201.372
201.372
201.371
201.371
201.37
201.37
201.369
201.368
201.368
201.367
201.367
201.366
201.365
201.365
201.364
201.364
201.363
201.363
201.362
201.361
201.361
201.36
201.36
201.359
201.358
201.358
201.357
201.357
201.356
201.355
201.355
201.354
201.354
201.353
201.353
201.352
201.351
201.351
201.35
201.35
201.349
201.348
201.348
201.347
201.347
201.346
201.346
201.345
201.344
201.344
201.343
201.343
201.342
201.341
201.341
201.34
201.34
201.339
201.338
201.338
201.337
201.337
201.336
201.336
201.335
201.334
201.334
201.333
201.333
201.332
201.331
201.331
201.33
201.33
201.329
201.328
201.328
201.327
201.327
201.326
201.326
201.325
201.324
201.324
201.323
201.323
201.322
201.321
201.321
201.32
201.32
201.319
201.318
201.318
201.317
201.317
201.316
201.315
201.315
201.314
201.314
201.313
201.313
201.312
201.311
201.311
201.31
201.31
201.309
201.308
201.308
201.307
201.307
201.306
201.305
201.305
201.304
201.304
201.303
201.303
201.302
201.301
201.301
201.3
201.3
201.299
201.298
201.298
201.297
201.297
201.296
201.295
201.295
201.294
201.294
201.293
201.293
201.292
201.291
201.291
201.29
201.29
201.289
201.288
201.288
201.287
201.287
201.286
201.285
201.285
201.284
201.284
201.283
201.282
201.282
201.281
201.281
201.28
201.28
201.279
201.278
201.278
201.277
201.277
201.276
201.275
201.275
201.274
201.274
201.273
201.272
201.272
201.271
201.271
201.27
201.27
201.269
201.268
201.268
201.267
201.267
201.266
201.265
201.265
201.264
201.264
201.263
201.262
201.262
201.261
201.261
201.26
201.259
201.259
201.258
201.258
201.257
201.257
201.256
201.255
201.255
201.254
201.254
201.253
201.252
201.252
201.251
201.251
201.25
201.249
201.249
201.248
201.248
201.247
201.247
201.246
201.245
201.245
201.244
201.244
201.243
201.242
201.242
201.241
201.241
201.24
201.239
201.239
201.238
201.238
201.237
201.236
201.236
201.235
201.235
201.234
201.234
201.233
201.232
201.232
201.231
201.231
201.23
201.229
201.229
201.228
201.228
201.227
201.226
201.226
201.225
201.225
201.224
201.224
201.223
201.222
201.222
201.221
201.221
201.22
201.219
201.219
201.218
201.218
201.217
201.216
201.216
201.215
201.215
201.214
201.214
201.213
201.212
201.212
201.211
201.211
201.21
201.209
201.209
201.208
201.208
201.207
201.207
201.206
201.205
201.205
201.204
201.204
201.203
201.202
201.202
201.201
201.201
201.2
201.199
201.199
201.198
201.198
201.197
201.197
201.196
201.195
201.195
201.194
201.194
201.193
201.192
201.192
201.191
201.191
201.19
201.19
201.189
201.188
201.188
201.187
201.187
201.186
201.185
201.185
201.184
201.184
201.183
201.183
201.182
201.181
201.181
201.18
201.18
201.179
201.178
201.178
201.177
201.177
201.176
201.176
201.175
201.174
201.174
201.173
201.173
201.172
201.171
201.171
201.17
201.17
201.169
201.169
201.168
201.167
201.167
201.166
201.166
201.165
201.164
201.164
201.163
201.163
201.162
201.162
201.161
201.16
201.16
201.159
201.159
201.158
201.157
201.157
201.156
201.156
201.155
201.155
201.154
201.153
201.153
201.152
201.152
201.151
201.151
201.15
201.149
201.149
201.148
201.148
201.147
201.147
201.146
201.145
201.145
201.144
201.144
201.143
201.142
201.142
201.141
201.141
201.14
201.14
201.139
201.138
201.138
201.137
201.137
201.136
201.136
201.135
201.134
201.134
201.133
201.133
201.132
201.132
201.131
201.13
201.13
201.129
201.129
201.128
201.128
201.127
201.126
201.126
201.125
201.125
201.124
201.124
201.123
201.122
201.122
201.121
201.121
201.12
201.12
201.119
201.118
201.118
201.117
201.117
201.116
201.116
201.115
201.114
201.114
201.113
201.113
201.112
201.112
201.111
201.11
201.11
201.109
201.109
201.108
201.108
201.107
201.107
201.106
201.105
201.105
201.104
201.104
201.103
201.103
201.102
201.101
201.101
201.1
201.1
201.099
201.099
201.098
201.098
201.097
201.096
201.096
201.095
201.095
201.094
201.094
201.093
201.092
201.092
201.091
201.091
201.09
201.09
201.089
201.089
201.088
201.087
201.087
201.086
201.086
201.085
201.085
201.084
201.084
201.083
201.082
201.082
201.081
201.081
201.08
201.08
201.079
201.079
201.078
201.077
201.077
201.076
201.076
201.075
201.075
201.074
201.074
201.073
201.073
201.072
201.071
201.071
201.07
201.07
201.069
201.069
201.068
201.068
201.067
201.067
201.066
201.065
201.065
201.064
201.064
201.063
201.063
201.062
201.062
201.061
201.061
201.06
201.059
201.059
201.058
201.058
201.057
201.057
201.056
201.056
201.055
201.055
201.054
201.054
201.053
201.052
201.052
201.051
201.051
201.05
201.05
201.049
201.049
201.048
201.048
201.047
201.047
201.046
201.046
201.045
201.044
201.044
201.043
201.043
201.042
201.042
201.041
201.041
201.04
201.04
201.039
201.039
201.038
201.038
201.037
201.037
201.036
201.036
201.035
201.035
201.034
201.033
201.033
201.032
201.032
201.031
201.031
201.03
201.03
201.029
201.029
201.028
201.028
201.027
201.027
201.026
201.026
201.025
201.025
201.024
201.024
201.023
201.023
201.022
201.022
201.021
201.021
201.02
201.02
201.019
201.019
201.018
201.018
201.017
201.017
201.016
201.016
201.015
201.015
201.014
201.014
201.013
201.013
201.012
201.012
201.011
201.011
201.01
201.01
201.009
201.009
201.008
201.008
201.007
201.007
201.006
201.006
201.005
201.005
201.004
201.004
201.003
201.003
201.002
201.002
201.001
201.001
201
201
200.999
200.999
200.999
200.998
200.998
200.997
200.997
200.996
200.996
200.995
200.995
200.994
200.994
200.993
200.993
200.992
200.992
200.991
200.991
200.991
200.99
200.99
200.989
200.989
200.988
200.988
200.987
200.987
200.986
200.986
200.985
200.985
200.985
200.984
200.984
200.983
200.983
200.982
200.982
200.981
200.981
200.981
200.98
200.98
200.979
200.979
200.978
200.978
200.977
200.977
200.977
200.976
200.976
200.975
200.975
200.974
200.974
200.974
200.973
200.973
200.972
200.972
200.971
200.971
200.971
200.97
200.97
200.969
200.969
200.969
200.968
200.968
200.967
200.967
200.966
200.966
200.966
200.965
200.965
200.964
200.964
200.964
200.963
200.963
200.962
200.962
200.962
200.961
200.961
200.96
200.96
200.96
200.959
200.959
200.959
200.958
200.958
200.957
200.957
200.957
200.956
200.956
200.955
200.955
200.955
200.954
200.954
200.954
200.953
200.953
200.953
200.952
200.952
200.951
200.951
200.951
200.95
200.95
200.95
200.949
200.949
200.949
200.948
200.948
200.948
200.947
200.947
200.947
200.946
200.946
200.946
200.945
200.945
200.945
200.944
200.944
200.944
200.943
200.943
200.943
200.942
200.942
200.942
200.941
200.941
200.941
200.94
200.94
200.94
200.94
200.939
200.939
200.939
200.938
200.938
200.938
200.938
200.937
200.937
200.937
200.936
200.936
200.936
200.936
200.935
200.935
200.935
200.935
200.934
200.934
200.934
200.933
200.933
200.933
200.933
200.932
200.932
200.932
200.932
200.932
200.931
200.931
200.931
200.931
200.93
200.93
200.93
200.93
200.929
200.929
200.929
200.929
200.929
200.928
200.928
200.928
200.928
200.928
200.927
200.927
200.927
200.927
200.927
200.927
200.926
200.926
200.926
200.926
200.926
200.926
200.925
200.925
200.925
200.925
200.925
200.925
200.924
200.924
200.924
200.924
200.924
200.924
200.924
200.924
200.923
200.923
200.923
200.923
200.923
200.923
200.923
200.923
200.923
200.923
200.922
200.922
200.922
200.922
200.922
200.922
200.922
200.922
200.922
200.922
200.922
200.922
200.922
200.922
200.922
200.922
200.922
200.921
200.921
200.921
200.921
200.921
200.921
200.921
200.921
200.921
200.921
200.921
200.921
200.921
200.921
200.922
200.922
200.922
200.922
200.922
200.922
200.922
200.922
200.922
200.922
200.922
200.922
200.922
200.922
200.922
200.922
200.923
200.923
200.923
200.923
200.923
200.923
200.923
200.923
200.923
200.924
200.924
200.924
200.924
200.924
200.924
200.925
200.925
200.925
200.925
200.925
200.925
200.926
200.926
200.926
200.926
200.927
200.927
200.927
200.927
200.927
200.928
200.928
200.928
200.928
200.929
200.929
200.929
200.93
200.93
200.93
200.931
200.931
200.931
200.931
200.932
200.932
200.933
200.933
200.933
200.934
200.934
200.934
200.935
200.935
200.936
200.936
200.936
200.937
200.937
200.938
200.938
200.938
200.939
200.939
200.94
200.94
200.941
200.941
200.942
200.942
200.943
200.943
200.944
200.944
200.945
200.945
200.946
200.947
200.947
200.948
200.948
200.949
200.95
200.95
200.951
200.951
200.952
200.953
200.954
200.954
200.955
200.955
200.956
200.957
200.958
200.958
200.959
200.96
200.961
200.961
200.962
200.963
200.964
200.964
200.965
200.966
200.967
200.967
200.969
200.969
200.97
200.971
200.972
200.973
200.974
200.974
200.976
200.976
200.978
200.978
200.979
200.98
200.981
200.982
200.983
200.984
200.985
200.986
200.988
200.988
200.99
200.99
200.992
200.993
200.994
200.995
200.996
200.997
200.999
200.999
201.001
201.002
201.003
201.004
201.006
201.007
201.008
201.009
201.011
201.012
201.014
201.014
201.016
201.017
201.019
201.02
201.022
201.023
201.025
201.025
201.027
201.028
201.03
201.031
201.033
201.034
201.036
201.037
201.039
201.04
201.043
201.044
201.046
201.047
201.049
201.05
201.052
201.053
201.056
201.057
201.059
201.06
201.063
201.064
201.066
201.067
201.07
201.071
201.074
201.075
201.077
201.079
201.081
201.082
201.085
201.086
201.089
201.09
201.093
201.094
201.097
201.098
201.101
201.102
201.105
201.107
201.11
201.111
201.114
201.115
201.118
201.12
201.123
201.124
201.127
201.129
201.132
201.133
201.136
201.138
201.141
201.143
201.146
201.148
201.151
201.153
201.156
201.158
201.161
201.163
201.166
201.168
201.171
201.173
201.176
201.178
201.182
201.183
201.187
201.189
201.192
201.194
201.198
201.2
201.204
201.205
201.209
201.211
201.215
201.217
201.221
201.223
201.227
201.229
201.233
201.235
201.239
201.241
201.245
201.247
201.251
201.253
201.257
201.259
201.263
201.266
201.27
201.272
201.276
201.278
201.283
201.285
201.289
201.292
201.296
201.298
201.303
201.305
201.31
201.312
201.316
201.319
201.323
201.326
201.33
201.333
201.337
201.34
201.345
201.347
201.352
201.355
201.359
201.362
201.366
201.37
201.374
201.377
201.381
201.385
201.389
201.392
201.396
201.4
201.404
201.408
201.412
201.416
201.419
201.423
201.427
201.431
201.435
201.439
201.443
201.447
201.451
201.455
201.46
201.464
201.468
201.472
201.476
201.48
201.484
201.488
201.493
201.497
201.501
201.505
201.509
201.514
201.518
201.522
201.527
201.531
201.535
201.54
201.544
201.548
201.553
201.557
201.561
201.566
201.57
201.575
201.579
201.584
201.588
201.592
201.597
201.601
201.606
201.611
201.615
201.62
201.624
201.629
201.633
201.638
201.642
201.647
201.652
201.656
201.661
201.666
201.67
201.675
201.679
201.684
201.689
201.694
201.698
201.703
201.708
201.712
201.717
201.722
201.727
201.731
201.736
201.741
201.746
201.75
201.755
201.76
201.765
201.77
201.774
201.779
201.784
201.789
201.794
201.799
201.803
201.808
201.813
201.818
201.823
201.828
201.833
201.838
201.842
201.847
201.852
201.857
201.862
201.867
201.872
201.877
201.882
201.887
201.892
201.897
201.902
201.907
201.911
201.916
201.921
201.926
201.931
201.936
201.941
201.946
201.951
201.956
201.961
201.966
201.971
201.976
201.981
201.986
201.991
201.996
202.001
202.006
202.011
202.016
202.021
202.026
202.031
202.036
202.042
202.047
202.052
202.057
202.062
202.067
202.072
202.077
202.082
202.087
202.092