/*--------------------------------*- C++ -*----------------------------------*\
  =========                 |
  \\      /  F ield         | OpenFOAM: The Open Source CFD Toolbox
   \\    /   O peration     | Website:  https://openfoam.org
    \\  /    A nd           | Version:  9
     \\/     M anipulation  |
\*---------------------------------------------------------------------------*/
FoamFile
{
    format      ascii;
    class       volVectorField;
    location    "0.016";
    object      U;
}
// * * * * * * * * * * * * * * * * * * * * * * * * * * * * * * * * * * * * * //

dimensions      [0 1 -1 0 0 0 0];

internalField   nonuniform List<vector> 
100
(
(15.6561 0 0)
(27.9548 0 0)
(34.6519 0 0)
(43.0459 0 0)
(50.6295 0 0)
(58.4945 0 0)
(66.1427 0 0)
(73.7924 0 0)
(81.2291 0 0)
(88.5568 0 0)
(95.6521 0 0)
(102.521 0 0)
(109.127 0 0)
(115.463 0 0)
(121.548 0 0)
(127.381 0 0)
(133.025 0 0)
(138.461 0 0)
(143.797 0 0)
(148.963 0 0)
(154.11 0 0)
(159.125 0 0)
(164.147 0 0)
(169.114 0 0)
(174.04 0 0)
(179.001 0 0)
(183.864 0 0)
(188.757 0 0)
(193.653 0 0)
(198.48 0 0)
(203.322 0 0)
(208.164 0 0)
(212.933 0 0)
(217.698 0 0)
(222.442 0 0)
(227.126 0 0)
(231.769 0 0)
(236.368 0 0)
(240.891 0 0)
(245.339 0 0)
(249.72 0 0)
(254.005 0 0)
(258.147 0 0)
(262.153 0 0)
(266.014 0 0)
(269.726 0 0)
(273.215 0 0)
(276.452 0 0)
(279.413 0 0)
(282.103 0 0)
(284.558 0 0)
(286.717 0 0)
(288.39 0 0)
(289.767 0 0)
(290.972 0 0)
(291.844 0 0)
(292.451 0 0)
(292.915 0 0)
(293.199 0 0)
(293.255 0 0)
(293.264 0 0)
(293.328 0 0)
(293.448 0 0)
(293.524 0 0)
(293.549 0 0)
(293.551 0 0)
(293.547 0 0)
(293.543 0 0)
(293.538 0 0)
(293.529 0 0)
(293.501 0 0)
(293.441 0 0)
(293.421 0 0)
(293.422 0 0)
(293.415 0 0)
(293.393 0 0)
(293.356 0 0)
(293.314 0 0)
(293.259 0 0)
(293.177 0 0)
(293.083 0 0)
(293.002 0 0)
(292.914 0 0)
(292.79 0 0)
(292.63 0 0)
(292.44 0 0)
(292.198 0 0)
(291.858 0 0)
(291.357 0 0)
(290.581 0 0)
(289.354 0 0)
(287.291 0 0)
(283.624 0 0)
(276.909 0 0)
(262.366 0 0)
(234.772 0 0)
(202.186 0 0)
(208.21 0 0)
(221.27 0 0)
(223.61 0 0)
)
;

boundaryField
{
    sides
    {
        type            zeroGradient;
    }
    empty
    {
        type            empty;
    }
}


// ************************************************************************* //
