/*--------------------------------*- C++ -*----------------------------------*\
  =========                 |
  \\      /  F ield         | OpenFOAM: The Open Source CFD Toolbox
   \\    /   O peration     | Website:  https://openfoam.org
    \\  /    A nd           | Version:  9
     \\/     M anipulation  |
\*---------------------------------------------------------------------------*/
FoamFile
{
    format      ascii;
    class       surfaceScalarField;
    location    "0.006";
    object      phi_0;
}
// * * * * * * * * * * * * * * * * * * * * * * * * * * * * * * * * * * * * * //

dimensions      [1 0 -1 0 0 0 0];

internalField   nonuniform List<scalar> 
9999
(
-3.43334e-11
-3.6863e-11
-3.89946e-11
-3.95346e-11
-3.83409e-11
-3.82272e-11
-3.95346e-11
-3.99609e-11
-3.54703e-11
-3.2486e-11
-3.31397e-11
-3.06386e-11
-2.87343e-11
-2.80522e-11
-2.64606e-11
-2.73985e-11
-2.63469e-11
-2.34195e-11
-2.36469e-11
-2.15152e-11
-1.9952e-11
-1.94404e-11
-1.84741e-11
-1.98099e-11
-2.21405e-11
-2.36184e-11
-2.75406e-11
-3.22871e-11
-3.54419e-11
-3.75451e-11
-4.31726e-11
-4.59863e-11
-4.76064e-11
-5.17275e-11
-5.15286e-11
-5.23812e-11
-5.2097e-11
-5.17275e-11
-5.03348e-11
-4.90559e-11
-4.71232e-11
-4.62421e-11
-4.42242e-11
-4.24336e-11
-4.15241e-11
-4.04157e-11
-3.90799e-11
-3.57545e-11
-3.32534e-11
-2.71427e-11
-2.38174e-11
-2.19416e-11
-1.88436e-11
-1.62856e-11
-1.4893e-11
-1.27898e-11
-1.53761e-11
-1.55467e-11
-1.79625e-11
-1.94973e-11
-2.089e-11
-2.305e-11
-2.65459e-11
-3.16618e-11
-3.30544e-11
-3.5385e-11
-3.78293e-11
-3.92788e-11
-4.26894e-11
-4.28599e-11
-4.35421e-11
-4.27178e-11
-4.33147e-11
-4.26041e-11
-4.31442e-11
-4.52474e-11
-4.40536e-11
-3.99609e-11
-3.81704e-11
-3.57261e-11
-3.20881e-11
-3.16902e-11
-3.0667e-11
-2.91891e-11
-3.06954e-11
-2.85638e-11
-2.65743e-11
-2.64038e-11
-2.73985e-11
-2.61764e-11
-2.60627e-11
-2.63185e-11
-2.60343e-11
-2.48974e-11
-2.93596e-11
-3.09512e-11
-2.8308e-11
-2.94449e-11
-2.87059e-11
-2.67733e-11
-2.53522e-11
-2.413e-11
-2.45848e-11
-2.56364e-11
-2.54659e-11
-2.37605e-11
-2.16005e-11
-2.09184e-11
-1.63993e-11
-1.68541e-11
-1.33582e-11
-1.48361e-11
-1.5234e-11
-1.53761e-11
-1.41824e-11
-1.40119e-11
-1.50635e-11
-1.52909e-11
-1.55467e-11
-1.49214e-11
-1.69109e-11
-1.9611e-11
-2.31637e-11
-2.22542e-11
-2.34763e-11
-2.54374e-11
-2.62332e-11
-2.57785e-11
-2.66027e-11
-2.48974e-11
-2.24247e-11
-2.08047e-11
-1.81331e-11
-2.01226e-11
-2.12879e-11
-2.12594e-11
-2.11742e-11
-1.85025e-11
-1.50919e-11
-1.17666e-11
-8.98126e-12
-7.56017e-12
-6.82121e-12
-5.6275e-12
-7.56017e-12
-8.75389e-12
-9.63496e-12
-1.00897e-11
-1.01466e-11
-1.0516e-11
-1.34719e-11
-1.52625e-11
-1.52056e-11
-1.82467e-11
-1.89004e-11
-2.15437e-11
-2.46132e-11
-2.7029e-11
-3.08944e-11
-3.20313e-11
-3.26281e-11
-3.28839e-11
-3.22871e-11
-3.0667e-11
-3.00986e-11
-3.10365e-11
-2.90754e-11
-3.02975e-11
-3.20313e-11
-2.76827e-11
-2.5949e-11
-2.51816e-11
-2.49258e-11
-2.61196e-11
-2.57216e-11
-2.64322e-11
-2.41869e-11
-2.39595e-11
-1.9611e-11
-1.64562e-11
-1.47793e-11
-1.26192e-11
-1.13687e-11
-9.23706e-12
-7.7307e-12
-6.76437e-12
-8.12861e-12
-8.29914e-12
-1.04023e-11
-1.19655e-11
-1.15108e-11
-1.1056e-11
-1.24203e-11
-1.25624e-11
-1.15108e-11
-1.23066e-11
-1.3813e-11
-1.25908e-11
-1.17666e-11
-1.15392e-11
-1.33866e-11
-1.57456e-11
-1.68257e-11
-1.82752e-11
-1.90994e-11
-1.88152e-11
-2.03784e-11
-2.04068e-11
-1.9952e-11
-1.88152e-11
-1.63993e-11
-1.52625e-11
-1.66551e-11
-1.62288e-11
-1.59162e-11
-1.85594e-11
-2.04352e-11
-1.96962e-11
-2.00941e-11
-1.94689e-11
-1.7792e-11
-1.6513e-11
-1.69109e-11
-1.6712e-11
-1.89289e-11
-1.82752e-11
-1.98952e-11
-1.97815e-11
-1.89004e-11
-1.88436e-11
-1.86162e-11
-1.82752e-11
-2.13163e-11
-2.34195e-11
-2.59206e-11
-2.77396e-11
-3.20881e-11
-3.3026e-11
-3.19176e-11
-3.36513e-11
-3.4504e-11
-3.29692e-11
-3.09228e-11
-3.08091e-11
-2.89049e-11
-2.79101e-11
-2.69154e-11
-2.62332e-11
-2.43006e-11
-2.39027e-11
-2.55511e-11
-2.67448e-11
-2.7768e-11
-3.01554e-11
-2.81375e-11
-2.29363e-11
-2.089e-11
-1.99236e-11
-2.06342e-11
-1.60298e-11
-1.59446e-11
-1.65983e-11
-1.71383e-11
-1.61435e-11
-1.44098e-11
-1.24487e-11
-1.31308e-11
-1.18803e-11
-1.13403e-11
-7.61702e-12
-7.10543e-12
-5.08749e-12
-4.91696e-12
-5.74119e-12
-5.65592e-12
-5.91172e-12
-4.54747e-12
-4.3201e-12
-4.0643e-12
-4.29168e-12
-4.43379e-12
-5.59908e-12
-9.20863e-12
-1.02887e-11
-1.06866e-11
-1.11697e-11
-1.1994e-11
-1.22213e-11
-1.5973e-11
-1.4893e-11
-1.62004e-11
-1.82467e-11
-1.87015e-11
-1.82752e-11
-1.85594e-11
-1.98099e-11
-2.12026e-11
-2.089e-11
-2.22826e-11
-2.38458e-11
-2.359e-11
-2.22826e-11
-2.11458e-11
-2.02647e-11
-2.00657e-11
-2.13447e-11
-2.30216e-11
-2.28511e-11
-2.3249e-11
-2.52101e-11
-2.5949e-11
-2.73133e-11
-2.97007e-11
-3.0866e-11
-2.84501e-11
-2.95586e-11
-2.97291e-11
-2.92459e-11
-2.67164e-11
-2.64322e-11
-2.37321e-11
-2.49543e-11
-2.4329e-11
-2.25953e-11
-2.25668e-11
-2.359e-11
-2.19131e-11
-2.14584e-11
-2.24532e-11
-2.35616e-11
-2.72848e-11
-2.98712e-11
-3.27418e-11
-3.29123e-11
-3.48166e-11
-3.50724e-11
-3.5584e-11
-3.71472e-11
-3.9222e-11
-3.87672e-11
-3.70335e-11
-3.76303e-11
-3.81135e-11
-3.65787e-11
-3.51292e-11
-3.40208e-11
-3.21734e-11
-2.87628e-11
-2.76827e-11
-2.70006e-11
-2.85922e-11
-3.08376e-11
-2.93028e-11
-3.16049e-11
-3.55556e-11
-3.51577e-11
-3.57545e-11
-3.70619e-11
-3.75451e-11
-3.62945e-11
-3.56408e-11
-3.42197e-11
-3.48166e-11
-3.63514e-11
-3.96483e-11
-4.01883e-11
-4.07852e-11
-4.18936e-11
-4.30305e-11
-4.50484e-11
-4.68674e-11
-4.54463e-11
-4.82032e-11
-5.13012e-11
-5.22107e-11
-5.23812e-11
-5.25233e-11
-5.05906e-11
-5.21823e-11
-5.25517e-11
-4.94254e-11
-4.78906e-11
-4.80327e-11
-4.80043e-11
-4.61569e-11
-4.46505e-11
-4.28599e-11
-4.12967e-11
-3.9222e-11
-3.57829e-11
-3.47029e-11
-3.22302e-11
-3.26565e-11
-3.13776e-11
-3.06954e-11
-3.03828e-11
-2.84501e-11
-2.81091e-11
-2.64322e-11
-2.61764e-11
-2.35616e-11
-2.27374e-11
-2.16858e-11
-1.89857e-11
-1.88436e-11
-1.92983e-11
-2.00089e-11
-2.02078e-11
-1.86446e-11
-1.84173e-11
-1.87583e-11
-1.81615e-11
-1.76783e-11
-1.53761e-11
-1.64846e-11
-1.80194e-11
-1.7792e-11
-1.90141e-11
-1.86731e-11
-2.00941e-11
-2.33058e-11
-2.48406e-11
-2.57216e-11
-2.60059e-11
-2.80806e-11
-2.98144e-11
-3.23439e-11
-3.43903e-11
-3.23723e-11
-3.05249e-11
-2.93596e-11
-3.10649e-11
-3.43903e-11
-3.36513e-11
-3.50155e-11
-3.76872e-11
-4.12967e-11
-4.54463e-11
-5.03917e-11
-5.01643e-11
-5.11591e-11
-5.14433e-11
-5.12443e-11
-5.39444e-11
-5.18128e-11
-4.7919e-11
-4.77769e-11
-4.60432e-11
-4.19504e-11
-4.03872e-11
-3.84262e-11
-3.51577e-11
-3.29408e-11
-3.09797e-11
-3.22586e-11
-3.13207e-11
-2.95017e-11
-2.8308e-11
-2.99849e-11
-3.39639e-11
-3.68345e-11
-4.05009e-11
-4.23768e-11
-4.19789e-11
-4.3002e-11
-4.51053e-11
-5.03348e-11
-5.14149e-11
-5.18128e-11
-5.14433e-11
-4.9738e-11
-4.45652e-11
-4.502e-11
-4.22631e-11
-4.11262e-11
-3.87956e-11
-3.6863e-11
-3.50155e-11
-3.36229e-11
-2.91323e-11
-2.75975e-11
-2.69438e-11
-2.40448e-11
-2.17995e-11
-2.36753e-11
-2.13731e-11
-2.10889e-11
-2.20552e-11
-2.2311e-11
-2.20552e-11
-2.3789e-11
-2.62332e-11
-2.96723e-11
-3.02975e-11
-3.00986e-11
-3.08376e-11
-3.24576e-11
-3.24576e-11
-3.23439e-11
-3.38787e-11
-3.50724e-11
-3.55271e-11
-3.68345e-11
-3.70903e-11
-3.62377e-11
-3.78009e-11
-3.85398e-11
-3.60956e-11
-3.45892e-11
-3.3026e-11
-3.19744e-11
-3.09228e-11
-2.88196e-11
-2.66027e-11
-2.48974e-11
-2.39027e-11
-2.24816e-11
-2.01794e-11
-1.8531e-11
-1.73088e-11
-1.4694e-11
-1.08571e-11
-8.41283e-12
-8.32756e-12
-8.896e-12
-1.00613e-11
-1.10845e-11
-1.23066e-11
-1.53193e-11
-1.69678e-11
-1.81046e-11
-1.81046e-11
-1.71951e-11
-1.8872e-11
-1.93268e-11
-1.95541e-11
-2.13731e-11
-2.31353e-11
-2.48406e-11
-2.82512e-11
-2.9786e-11
-3.27702e-11
-3.40492e-11
-3.68061e-11
-3.85683e-11
-4.0302e-11
-4.57021e-11
-4.51053e-11
-4.46505e-11
-4.75779e-11
-4.97664e-11
-5.05622e-11
-4.7919e-11
-4.88569e-11
-4.88853e-11
-4.99938e-11
-5.11307e-11
-4.75779e-11
-4.99085e-11
-5.2097e-11
-5.0818e-11
-5.23812e-11
-5.20401e-11
-5.17844e-11
-5.11022e-11
-5.01927e-11
-4.69242e-11
-4.56453e-11
-4.35136e-11
-4.20073e-11
-3.77725e-11
-3.17186e-11
-2.78249e-11
-2.27942e-11
-1.92983e-11
-1.77636e-11
-1.84457e-11
-1.52909e-11
-1.50351e-11
-1.52625e-11
-1.50067e-11
-1.58025e-11
-1.78488e-11
-1.81331e-11
-1.98952e-11
-2.08047e-11
-2.16289e-11
-2.089e-11
-1.94973e-11
-1.9952e-11
-1.88152e-11
-1.81331e-11
-1.71951e-11
-1.61435e-11
-2.01226e-11
-2.10605e-11
-2.26237e-11
-2.11458e-11
-2.12026e-11
-2.3249e-11
-2.51816e-11
-2.87912e-11
-2.84786e-11
-3.24576e-11
-3.33387e-11
-3.36797e-11
-3.62945e-11
-3.9222e-11
-4.14957e-11
-4.31726e-11
-4.56453e-11
-4.71232e-11
-4.70095e-11
-4.8658e-11
-4.97664e-11
-4.93117e-11
-4.82601e-11
-5.24096e-11
-5.40297e-11
-5.40012e-11
-5.39728e-11
-5.42002e-11
-5.3177e-11
-5.28644e-11
-5.47402e-11
-5.16991e-11
-4.97948e-11
-4.96527e-11
-4.68106e-11
-4.23483e-11
-3.84546e-11
-3.51861e-11
-2.92175e-11
-2.7029e-11
-2.49827e-11
-2.02647e-11
-1.73657e-11
-1.71951e-11
-1.56604e-11
-1.81899e-11
-1.92131e-11
-1.98668e-11
-2.03215e-11
-2.36753e-11
-2.33058e-11
-2.19984e-11
-2.11458e-11
-2.40448e-11
-2.82512e-11
-2.96438e-11
-3.35092e-11
-3.79998e-11
-4.10694e-11
-4.5361e-11
-4.74927e-11
-4.76348e-11
-4.86295e-11
-4.80043e-11
-4.84022e-11
-4.75779e-11
-4.80895e-11
-4.82316e-11
-4.69242e-11
-4.67821e-11
-4.88285e-11
-4.62421e-11
-4.44516e-11
-4.46505e-11
-4.58726e-11
-4.31157e-11
-4.11262e-11
-4.27747e-11
-4.14389e-11
-4.03872e-11
-4.02167e-11
-3.91367e-11
-3.65503e-11
-3.70335e-11
-3.89093e-11
-4.00462e-11
-3.85683e-11
-3.7403e-11
-3.76019e-11
-3.86251e-11
-3.9563e-11
-3.60671e-11
-3.7204e-11
-4.00462e-11
-4.14389e-11
-4.394e-11
-4.448e-11
-4.59295e-11
-4.49063e-11
-4.56737e-11
-4.80611e-11
-4.78906e-11
-4.72369e-11
-4.82316e-11
-4.90559e-11
-4.85727e-11
-4.718e-11
-4.65263e-11
-4.79758e-11
-4.88001e-11
-4.49347e-11
-4.18652e-11
-3.87956e-11
-3.62945e-11
-3.53282e-11
-3.58966e-11
-3.6664e-11
-3.4845e-11
-3.52998e-11
-3.73177e-11
-3.55271e-11
-3.63229e-11
-3.33671e-11
-3.13491e-11
-3.04681e-11
-2.80238e-11
-2.98144e-11
-3.06386e-11
-3.33387e-11
-3.34239e-11
-3.42197e-11
-3.21165e-11
-3.21165e-11
-3.12923e-11
-3.03828e-11
-3.05818e-11
-3.24007e-11
-3.59819e-11
-3.7403e-11
-3.95346e-11
-4.02167e-11
-4.32863e-11
-4.47358e-11
-4.67253e-11
-4.80327e-11
-4.85727e-11
-4.99938e-11
-4.87432e-11
-4.7919e-11
-4.92832e-11
-4.82316e-11
-4.74074e-11
-4.72085e-11
-4.48495e-11
-4.43094e-11
-4.43379e-11
-4.37694e-11
-4.2462e-11
-4.45937e-11
-4.45937e-11
-4.34e-11
-3.92788e-11
-3.81135e-11
-3.60956e-11
-3.7744e-11
-4.03304e-11
-4.15525e-11
-4.22347e-11
-4.25473e-11
-4.32578e-11
-4.74643e-11
-4.98233e-11
-4.82032e-11
-4.56168e-11
-4.52189e-11
-4.07852e-11
-3.8284e-11
-3.7403e-11
-3.3225e-11
-3.06954e-11
-3.39071e-11
-3.18607e-11
-3.12355e-11
-2.60059e-11
-2.47269e-11
-2.02647e-11
-2.14584e-11
-2.251e-11
-2.15437e-11
-2.24247e-11
-2.24247e-11
-2.20837e-11
-2.18279e-11
-2.09184e-11
-2.18847e-11
-2.44427e-11
-2.19984e-11
-2.33626e-11
-2.58638e-11
-2.68869e-11
-3.15481e-11
-3.54419e-11
-3.89093e-11
-4.10978e-11
-4.51053e-11
-4.80611e-11
-4.90843e-11
-4.79474e-11
-4.93685e-11
-4.77769e-11
-4.78053e-11
-4.88001e-11
-5.02496e-11
-5.07612e-11
-4.95959e-11
-5.20401e-11
-5.35465e-11
-5.35749e-11
-5.20117e-11
-5.05622e-11
-4.93401e-11
-4.96527e-11
-4.62421e-11
-4.59863e-11
-4.54747e-11
-4.38547e-11
-4.16094e-11
-4.22915e-11
-4.05578e-11
-4.17799e-11
-4.25473e-11
-4.29452e-11
-4.14673e-11
-3.76588e-11
-3.83693e-11
-3.60671e-11
-3.5385e-11
-3.55556e-11
-3.42482e-11
-3.5925e-11
-3.43903e-11
-3.32818e-11
-3.34808e-11
-3.31113e-11
-3.22871e-11
-3.33671e-11
-3.27134e-11
-3.29408e-11
-3.05818e-11
-3.07239e-11
-3.02123e-11
-2.99849e-11
-3.11786e-11
-3.16049e-11
-3.1946e-11
-2.8848e-11
-2.93596e-11
-2.99849e-11
-2.9047e-11
-3.01839e-11
-3.14628e-11
-3.33671e-11
-3.29976e-11
-3.39924e-11
-3.56977e-11
-3.88809e-11
-3.94209e-11
-4.0643e-11
-4.0103e-11
-4.00462e-11
-3.98757e-11
-4.22347e-11
-4.35421e-11
-4.27463e-11
-4.14389e-11
-4.11546e-11
-3.99609e-11
-3.74314e-11
-3.38218e-11
-3.18607e-11
-2.89901e-11
-2.77112e-11
-2.80522e-11
-2.71143e-11
-2.42153e-11
-2.45564e-11
-2.24532e-11
-1.87299e-11
-2.09468e-11
-2.22542e-11
-2.20268e-11
-2.19416e-11
-2.17995e-11
-2.53806e-11
-2.62332e-11
-2.65175e-11
-2.52669e-11
-2.71712e-11
-2.50679e-11
-2.20268e-11
-2.02647e-11
-1.96962e-11
-1.98099e-11
-2.089e-11
-1.88436e-11
-1.73088e-11
-1.58025e-11
-1.56888e-11
-1.55751e-11
-1.54898e-11
-1.65699e-11
-1.71099e-11
-1.58593e-11
-1.68825e-11
-1.8872e-11
-2.12879e-11
-2.28226e-11
-2.06626e-11
-2.37037e-11
-2.3789e-11
-2.57501e-11
-2.48974e-11
-2.53237e-11
-2.78249e-11
-3.21165e-11
-3.33671e-11
-3.19176e-11
-3.13491e-11
-3.34239e-11
-3.41913e-11
-3.47313e-11
-3.08376e-11
-3.0667e-11
-2.9388e-11
-2.97291e-11
-2.76543e-11
-2.43858e-11
-2.34195e-11
-2.28226e-11
-1.95257e-11
-1.90425e-11
-1.76783e-11
-1.5234e-11
-1.76499e-11
-1.78204e-11
-1.87583e-11
-1.66267e-11
-1.83888e-11
-2.16858e-11
-2.20837e-11
-2.12026e-11
-2.16289e-11
-2.14584e-11
-2.49827e-11
-2.71712e-11
-3.12923e-11
-3.27987e-11
-3.68061e-11
-4.02167e-11
-4.07567e-11
-4.07567e-11
-3.78009e-11
-3.85398e-11
-3.67777e-11
-3.78577e-11
-3.98188e-11
-4.29452e-11
-4.664e-11
-4.68674e-11
-4.72653e-11
-4.79758e-11
-4.5361e-11
-4.47358e-11
-4.32578e-11
-4.30589e-11
-3.99041e-11
-3.60671e-11
-3.52713e-11
-3.64651e-11
-3.61524e-11
-3.54987e-11
-3.71756e-11
-3.52713e-11
-3.59819e-11
-3.44471e-11
-3.61524e-11
-3.63514e-11
-3.64935e-11
-3.55271e-11
-3.48166e-11
-3.05533e-11
-3.41061e-11
-3.49587e-11
-3.62377e-11
-3.78009e-11
-3.93072e-11
-3.56692e-11
-3.7403e-11
-4.20926e-11
-4.07852e-11
-4.02451e-11
-3.98188e-11
-3.78861e-11
-3.6863e-11
-3.74314e-11
-3.72324e-11
-3.46461e-11
-3.33102e-11
-3.28555e-11
-3.2685e-11
-2.91891e-11
-2.75691e-11
-2.88765e-11
-2.97575e-11
-3.06102e-11
-2.82796e-11
-2.81375e-11
-2.8848e-11
-3.06386e-11
-3.04965e-11
-3.5584e-11
-3.60103e-11
-3.40208e-11
-3.30544e-11
-3.18607e-11
-3.16334e-11
-3.40492e-11
-3.67208e-11
-3.73745e-11
-3.71472e-11
-3.74314e-11
-3.8284e-11
-4.12115e-11
-4.12115e-11
-3.93641e-11
-3.87104e-11
-3.88809e-11
-3.85398e-11
-3.94493e-11
-3.76872e-11
-4.00746e-11
-3.73461e-11
-3.71756e-11
-3.49871e-11
-3.42482e-11
-3.68345e-11
-3.47029e-11
-3.38503e-11
-3.34239e-11
-3.54419e-11
-3.57261e-11
-3.40776e-11
-3.27134e-11
-3.14628e-11
-3.20597e-11
-3.38787e-11
-3.36797e-11
-3.41913e-11
-3.45892e-11
-3.28271e-11
-3.31681e-11
-3.13776e-11
-3.00417e-11
-3.22302e-11
-3.17755e-11
-2.80806e-11
-2.65459e-11
-2.62901e-11
-2.83364e-11
-3.30829e-11
-3.42197e-11
-3.47598e-11
-3.73177e-11
-4.34568e-11
-4.59295e-11
-5.10454e-11
-5.06475e-11
-5.25802e-11
-5.45413e-11
-5.54223e-11
-5.25802e-11
-5.15286e-11
-5.21823e-11
-5.16991e-11
-5.11591e-11
-4.84022e-11
-5.05622e-11
-4.82885e-11
-4.88001e-11
-4.80895e-11
-4.55884e-11
-3.94209e-11
-3.87956e-11
-3.75451e-11
-3.36229e-11
-3.05249e-11
-2.74554e-11
-2.63185e-11
-2.32774e-11
-2.03784e-11
-1.91278e-11
-1.72804e-11
-1.81615e-11
-1.66551e-11
-1.67972e-11
-1.9952e-11
-2.50395e-11
-2.69438e-11
-2.94165e-11
-3.08376e-11
-3.24007e-11
-3.47882e-11
-3.38218e-11
-3.51008e-11
-3.69766e-11
-3.88809e-11
-3.75451e-11
-3.93641e-11
-4.01599e-11
-3.99893e-11
-3.93641e-11
-3.90799e-11
-4.14957e-11
-4.28031e-11
-4.18936e-11
-4.30589e-11
-4.30873e-11
-4.47926e-11
-4.394e-11
-4.35421e-11
-4.38547e-11
-4.03588e-11
-4.38263e-11
-4.22631e-11
-4.22062e-11
-4.06146e-11
-4.17231e-11
-4.29736e-11
-4.2121e-11
-3.9563e-11
-3.78577e-11
-3.65503e-11
-3.60956e-11
-3.66072e-11
-3.51861e-11
-3.40776e-11
-3.26565e-11
-3.37366e-11
-3.24576e-11
-3.40208e-11
-3.39355e-11
-3.43903e-11
-3.53566e-11
-3.27987e-11
-3.12639e-11
-2.91038e-11
-3.00417e-11
-2.97575e-11
-3.0326e-11
-2.98996e-11
-3.35945e-11
-3.5044e-11
-3.42197e-11
-3.93072e-11
-4.12683e-11
-4.17231e-11
-4.39968e-11
-4.556e-11
-4.40252e-11
-4.2121e-11
-4.07852e-11
-4.09841e-11
-4.24052e-11
-4.08988e-11
-4.35421e-11
-4.59295e-11
-4.43379e-11
-4.18368e-11
-4.17231e-11
-4.20073e-11
-4.09557e-11
-3.87672e-11
-3.95346e-11
-3.86535e-11
-3.7403e-11
-3.71756e-11
-3.71756e-11
-3.95914e-11
-3.81704e-11
-3.85398e-11
-3.7943e-11
-3.83409e-11
-3.99041e-11
-3.85398e-11
-3.8284e-11
-3.64935e-11
-3.73745e-11
-3.81988e-11
-3.69766e-11
-3.64651e-11
-3.79146e-11
-3.71188e-11
-3.87388e-11
-3.74314e-11
-3.80851e-11
-3.61808e-11
-3.46745e-11
-3.47029e-11
-3.58114e-11
-3.87388e-11
-3.91083e-11
-3.89377e-11
-4.03304e-11
-3.94778e-11
-3.79998e-11
-3.83977e-11
-3.86535e-11
-4.10409e-11
-4.2462e-11
-4.06715e-11
-4.03872e-11
-4.25473e-11
-4.2661e-11
-4.11831e-11
-3.91935e-11
-3.7403e-11
-3.52145e-11
-3.44187e-11
-3.05533e-11
-2.78533e-11
-2.69154e-11
-2.76259e-11
-2.73701e-11
-3.00133e-11
-3.12639e-11
-3.27134e-11
-3.56977e-11
-3.57545e-11
-3.76872e-11
-3.45608e-11
-3.57829e-11
-3.49019e-11
-3.7403e-11
-3.91083e-11
-3.99893e-11
-4.11831e-11
-4.2661e-11
-4.35136e-11
-4.56168e-11
-4.16094e-11
-4.22062e-11
-4.44516e-11
-4.66116e-11
-4.8999e-11
-4.98233e-11
-5.11591e-11
-4.98801e-11
-4.60716e-11
-4.46221e-11
-4.38831e-11
-4.84306e-11
-5.09601e-11
-5.27507e-11
-5.14433e-11
-5.46265e-11
-5.67866e-11
-5.47118e-11
-5.75824e-11
-5.65308e-11
-5.58487e-11
-5.58771e-11
-5.4257e-11
-5.38591e-11
-5.50244e-11
-5.22959e-11
-5.08464e-11
-5.05622e-11
-5.15001e-11
-5.28928e-11
-5.12443e-11
-4.89422e-11
-4.76632e-11
-4.60432e-11
-4.27463e-11
-4.19504e-11
-3.77725e-11
-3.75735e-11
-3.79146e-11
-3.61808e-11
-3.0667e-11
-2.9388e-11
-2.86775e-11
-2.80522e-11
-2.6148e-11
-2.34763e-11
-2.41585e-11
-2.42437e-11
-2.39027e-11
-2.20552e-11
-2.20837e-11
-2.15721e-11
-2.24816e-11
-2.28511e-11
-2.48122e-11
-2.52669e-11
-2.87628e-11
-3.30544e-11
-3.73177e-11
-4.30873e-11
-4.81748e-11
-4.63274e-11
-4.84022e-11
-5.24949e-11
-5.4456e-11
-5.80371e-11
-5.75255e-11
-5.6275e-11
-5.50244e-11
-5.43139e-11
-5.1017e-11
-5.00791e-11
-5.05054e-11
-5.28075e-11
-5.04485e-11
-4.93401e-11
-4.67537e-11
-4.58158e-11
-4.47073e-11
-4.28315e-11
-4.2121e-11
-3.92504e-11
-3.83409e-11
-3.48166e-11
-3.08944e-11
-3.07523e-11
-3.11502e-11
-3.16049e-11
-3.17186e-11
-3.02123e-11
-2.8848e-11
-2.35332e-11
-2.089e-11
-1.89004e-11
-1.69393e-11
-1.4893e-11
-1.42961e-11
-1.44098e-11
-1.40972e-11
-1.39835e-11
-1.19087e-11
-1.16245e-11
-8.92442e-12
-9.83391e-12
-1.13403e-11
-1.45235e-11
-1.62004e-11
-1.77067e-11
-1.99805e-11
-1.91278e-11
-2.1231e-11
-2.18563e-11
-2.3249e-11
-2.37321e-11
-2.65175e-11
-2.87343e-11
-2.9786e-11
-3.08376e-11
-3.12923e-11
-3.22586e-11
-3.14628e-11
-3.14344e-11
-3.36229e-11
-3.61524e-11
-3.99041e-11
-4.2462e-11
-4.32578e-11
-4.65832e-11
-4.98801e-11
-5.14717e-11
-5.1557e-11
-5.03064e-11
-5.15854e-11
-4.94538e-11
-4.57305e-11
-4.57305e-11
-4.43094e-11
-4.69811e-11
-4.66969e-11
-4.80611e-11
-4.63558e-11
-4.82601e-11
-4.64127e-11
-4.61e-11
-4.72369e-11
-4.70379e-11
-4.76348e-11
-4.77769e-11
-4.94254e-11
-5.1017e-11
-5.3177e-11
-5.43707e-11
-5.02212e-11
-4.60432e-11
-4.18936e-11
-3.83409e-11
-3.6664e-11
-3.41061e-11
-2.98996e-11
-2.70575e-11
-2.44142e-11
-2.53522e-11
-2.43006e-11
-2.17995e-11
-2.04352e-11
-2.02078e-11
-2.09184e-11
-1.95541e-11
-2.14584e-11
-2.44142e-11
-2.60627e-11
-2.92459e-11
-3.10081e-11
-3.48166e-11
-3.61524e-11
-3.29123e-11
-3.00133e-11
-2.89901e-11
-2.8848e-11
-2.79385e-11
-2.6688e-11
-2.42437e-11
-2.50964e-11
-2.48974e-11
-2.49827e-11
-2.38742e-11
-2.43858e-11
-2.43858e-11
-2.14868e-11
-2.05489e-11
-2.10605e-11
-2.29932e-11
-2.38742e-11
-2.48406e-11
-2.81091e-11
-3.32534e-11
-3.75451e-11
-3.98188e-11
-3.75167e-11
-3.60671e-11
-3.62377e-11
-3.67493e-11
-3.82556e-11
-3.62661e-11
-3.48166e-11
-3.58966e-11
-3.64082e-11
-3.7744e-11
-3.63229e-11
-3.42197e-11
-3.58966e-11
-3.57545e-11
-3.01554e-11
-2.9047e-11
-2.71427e-11
-2.38458e-11
-2.31637e-11
-2.45848e-11
-2.31921e-11
-2.305e-11
-2.50395e-11
-2.72564e-11
-3.18039e-11
-3.34239e-11
-3.56977e-11
-3.44755e-11
-3.26281e-11
-3.10649e-11
-2.65175e-11
-2.75406e-11
-2.94449e-11
-3.11786e-11
-3.20313e-11
-3.05533e-11
-3.18323e-11
-3.09797e-11
-3.11218e-11
-3.2486e-11
-3.20881e-11
-3.21734e-11
-3.17186e-11
-3.16618e-11
-2.87628e-11
-2.65459e-11
-2.60343e-11
-2.413e-11
-2.3789e-11
-2.25668e-11
-2.07194e-11
-2.04921e-11
-2.39027e-11
-2.63753e-11
-2.68301e-11
-2.76543e-11
-2.91607e-11
-3.18607e-11
-3.08376e-11
-3.37081e-11
-3.46745e-11
-3.81988e-11
-3.96767e-11
-4.12399e-11
-4.19504e-11
-4.18936e-11
-4.36842e-11
-4.76916e-11
-4.60716e-11
-4.38547e-11
-4.66116e-11
-4.9539e-11
-5.20401e-11
-5.61613e-11
-5.65024e-11
-5.88329e-11
-5.88898e-11
-5.78098e-11
-5.63318e-11
-5.16422e-11
-4.7919e-11
-4.45084e-11
-4.31442e-11
-3.95062e-11
-3.6664e-11
-3.17755e-11
-3.1406e-11
-3.10649e-11
-3.20028e-11
-3.14913e-11
-2.88196e-11
-2.99281e-11
-2.91323e-11
-2.74838e-11
-2.50111e-11
-2.19416e-11
-2.12594e-11
-2.00941e-11
-1.68825e-11
-1.69393e-11
-1.61435e-11
-1.69678e-11
-1.81046e-11
-1.95826e-11
-2.12026e-11
-2.17426e-11
-2.44142e-11
-2.61764e-11
-2.49827e-11
-2.40163e-11
-2.54374e-11
-2.61196e-11
-2.77964e-11
-2.7768e-11
-2.77964e-11
-2.76259e-11
-2.94165e-11
-3.10649e-11
-3.33102e-11
-3.52429e-11
-3.7204e-11
-3.60387e-11
-3.45324e-11
-3.18323e-11
-3.11502e-11
-3.10081e-11
-2.93312e-11
-2.93028e-11
-3.01839e-11
-2.98144e-11
-3.15197e-11
-3.33387e-11
-3.7744e-11
-3.7744e-11
-3.9563e-11
-4.02736e-11
-4.28884e-11
-4.34568e-11
-4.51621e-11
-4.3741e-11
-4.22062e-11
-3.8483e-11
-3.68914e-11
-3.67493e-11
-3.6124e-11
-3.3765e-11
-2.68585e-11
-2.40732e-11
-2.07763e-11
-1.92699e-11
-1.95826e-11
-1.9611e-11
-1.83604e-11
-1.82752e-11
-2.00089e-11
-2.21974e-11
-2.36184e-11
-2.46132e-11
-2.55511e-11
-2.67164e-11
-2.73701e-11
-2.71143e-11
-2.76543e-11
-2.95017e-11
-3.01839e-11
-3.11786e-11
-3.19176e-11
-3.22302e-11
-3.3225e-11
-3.33387e-11
-3.12923e-11
-3.00986e-11
-2.92744e-11
-2.95017e-11
-2.74554e-11
-2.70575e-11
-2.5949e-11
-2.70006e-11
-2.58922e-11
-2.30216e-11
-2.08331e-11
-1.89573e-11
-2.02078e-11
-2.31921e-11
-2.45279e-11
-2.41869e-11
-2.45848e-11
-2.55227e-11
-2.6148e-11
-2.87628e-11
-3.17755e-11
-3.22018e-11
-3.16902e-11
-3.2145e-11
-3.43618e-11
-3.52145e-11
-3.53566e-11
-3.7744e-11
-3.74598e-11
-3.79714e-11
-3.8284e-11
-3.68061e-11
-3.39639e-11
-3.09797e-11
-2.84786e-11
-2.90186e-11
-3.18607e-11
-3.24292e-11
-3.39355e-11
-3.10649e-11
-2.95586e-11
-2.96154e-11
-3.00133e-11
-3.15765e-11
-3.29408e-11
-3.37081e-11
-3.47313e-11
-3.24576e-11
-3.30544e-11
-3.3566e-11
-3.59535e-11
-3.6124e-11
-3.79146e-11
-3.76303e-11
-3.72893e-11
-3.86819e-11
-3.97335e-11
-4.19504e-11
-4.22915e-11
-4.89422e-11
-4.99938e-11
-5.36033e-11
-5.73266e-11
-5.88329e-11
-5.99414e-11
-6.1533e-11
-6.18172e-11
-5.78666e-11
-5.63318e-11
-5.31202e-11
-4.98801e-11
-4.41105e-11
-3.99041e-11
-3.74598e-11
-3.63798e-11
-3.67777e-11
-3.28555e-11
-3.15197e-11
-3.04681e-11
-3.18607e-11
-3.39639e-11
-3.41629e-11
-3.07239e-11
-2.88196e-11
-2.65175e-11
-2.73985e-11
-2.86207e-11
-2.91891e-11
-2.84217e-11
-2.73417e-11
-2.93028e-11
-2.7228e-11
-2.78249e-11
-2.79101e-11
-3.04112e-11
-3.22871e-11
-3.20881e-11
-3.15197e-11
-3.25713e-11
-3.00417e-11
-3.07523e-11
-3.2486e-11
-3.26565e-11
-3.39355e-11
-2.91323e-11
-2.89333e-11
-2.87912e-11
-2.99849e-11
-2.68585e-11
-2.82796e-11
-2.94733e-11
-2.78817e-11
-2.49543e-11
-2.55795e-11
-2.60343e-11
-2.50395e-11
-2.55511e-11
-2.48122e-11
-2.52669e-11
-2.32205e-11
-2.16858e-11
-1.9952e-11
-2.24247e-11
-2.40732e-11
-2.44711e-11
-2.73701e-11
-2.66311e-11
-2.68869e-11
-2.63185e-11
-2.66027e-11
-2.91891e-11
-2.91607e-11
-2.71143e-11
-2.55227e-11
-2.84501e-11
-3.11218e-11
-3.38218e-11
-3.33955e-11
-3.62093e-11
-3.58114e-11
-3.88525e-11
-4.03588e-11
-4.08136e-11
-4.12115e-11
-4.19504e-11
-4.52474e-11
-4.90559e-11
-4.95675e-11
-5.14717e-11
-5.51381e-11
-5.33191e-11
-5.32623e-11
-5.34612e-11
-5.47118e-11
-5.6275e-11
-5.76108e-11
-5.89182e-11
-5.77529e-11
-6.01119e-11
-6.09361e-11
-6.15898e-11
-5.6815e-11
-5.52518e-11
-5.39444e-11
-5.14149e-11
-4.93969e-11
-4.54463e-11
-4.37126e-11
-4.04441e-11
-4.0103e-11
-3.85114e-11
-4.02736e-11
-4.3741e-11
-4.24336e-11
-4.45084e-11
-4.52189e-11
-4.44231e-11
-4.49063e-11
-4.35705e-11
-4.34e-11
-4.28884e-11
-4.1382e-11
-4.27178e-11
-4.40536e-11
-4.51621e-11
-4.2661e-11
-4.3741e-11
-4.12683e-11
-4.10978e-11
-4.11831e-11
-4.26041e-11
-4.33147e-11
-4.35989e-11
-4.51337e-11
-4.72085e-11
-4.34e-11
-4.50484e-11
-4.25189e-11
-4.20926e-11
-3.83409e-11
-3.71756e-11
-3.45892e-11
-3.39071e-11
-3.3026e-11
-3.22586e-11
-3.3026e-11
-3.37081e-11
-3.2685e-11
-3.37934e-11
-3.57829e-11
-3.35092e-11
-3.18892e-11
-3.05818e-11
-3.1207e-11
-3.39071e-11
-3.61524e-11
-3.25997e-11
-3.29123e-11
-3.46745e-11
-3.39071e-11
-3.41629e-11
-3.39924e-11
-3.52145e-11
-3.43618e-11
-3.45324e-11
-3.38218e-11
-3.57829e-11
-3.53282e-11
-3.76588e-11
-3.87388e-11
-4.14957e-11
-4.10694e-11
-4.23483e-11
-4.2661e-11
-4.24336e-11
-4.24905e-11
-4.17231e-11
-3.99325e-11
-4.19789e-11
-4.22631e-11
-4.556e-11
-4.30305e-11
-4.26326e-11
-4.01599e-11
-3.81704e-11
-3.66072e-11
-3.59535e-11
-3.43618e-11
-3.26281e-11
-2.95302e-11
-2.80238e-11
-2.68017e-11
-2.74269e-11
-2.5608e-11
-2.47837e-11
-2.61764e-11
-2.67733e-11
-2.62048e-11
-2.86775e-11
-3.25997e-11
-3.36229e-11
-3.54419e-11
-3.58966e-11
-3.9222e-11
-4.05862e-11
-4.30305e-11
-4.48495e-11
-4.46221e-11
-4.58442e-11
-4.59579e-11
-4.75211e-11
-4.63558e-11
-4.50484e-11
-4.14104e-11
-3.94778e-11
-3.62377e-11
-3.4504e-11
-3.45324e-11
-3.1406e-11
-2.95017e-11
-2.62901e-11
-2.43858e-11
-2.05489e-11
-2.06626e-11
-2.15152e-11
-2.21974e-11
-2.39311e-11
-2.45848e-11
-2.44711e-11
-2.50964e-11
-2.36184e-11
-2.27942e-11
-2.43858e-11
-2.68301e-11
-2.82512e-11
-2.75975e-11
-2.76827e-11
-2.59206e-11
-2.68301e-11
-2.97575e-11
-3.0667e-11
-3.16049e-11
-3.38787e-11
-3.64651e-11
-3.6863e-11
-3.81135e-11
-3.92788e-11
-4.10409e-11
-4.00178e-11
-4.0643e-11
-3.78009e-11
-3.76588e-11
-3.89662e-11
-3.89377e-11
-3.7403e-11
-3.88241e-11
-4.03304e-11
-4.05009e-11
-4.15241e-11
-4.15241e-11
-4.1581e-11
-4.0842e-11
-4.08136e-11
-4.2661e-11
-4.78622e-11
-4.75495e-11
-4.97948e-11
-5.27507e-11
-5.27507e-11
-5.27223e-11
-5.13865e-11
-5.13865e-11
-4.89422e-11
-5.06191e-11
-5.11875e-11
-5.22391e-11
-4.97948e-11
-4.93969e-11
-4.88285e-11
-4.74358e-11
-4.55884e-11
-4.30873e-11
-4.11546e-11
-3.89377e-11
-4.01315e-11
-4.22347e-11
-4.33147e-11
-4.12967e-11
-3.98472e-11
-3.62093e-11
-3.49019e-11
-3.33387e-11
-2.84501e-11
-2.36753e-11
-2.0691e-11
-1.6513e-11
-1.48077e-11
-1.19655e-11
-9.91918e-12
-8.21387e-12
-7.50333e-12
-9.91918e-12
-1.14255e-11
-1.18234e-11
-1.19087e-11
-8.55493e-12
-7.70228e-12
-7.92966e-12
-7.78755e-12
-4.0643e-12
-1.67688e-12
-2.47269e-12
-3.06954e-12
-4.09273e-12
-4.5759e-12
-5.31486e-12
-5.11591e-12
-6.96332e-12
-8.55493e-12
-1.14824e-11
-1.20792e-11
-1.3813e-11
-1.56604e-11
-1.92415e-11
-2.07478e-11
-2.29932e-11
-2.45848e-11
-2.47269e-11
-2.45564e-11
-2.57501e-11
-2.5949e-11
-2.68585e-11
-2.76543e-11
-2.87343e-11
-3.08944e-11
-2.91607e-11
-3.31966e-11
-3.30829e-11
-3.55556e-11
-3.53282e-11
-3.40208e-11
-3.24576e-11
-3.33102e-11
-3.23723e-11
-3.06102e-11
-2.79101e-11
-2.54943e-11
-2.6688e-11
-2.57501e-11
-2.71996e-11
-2.77396e-11
-2.66027e-11
-2.64322e-11
-2.73417e-11
-2.96723e-11
-3.18607e-11
-3.36797e-11
-3.34524e-11
-3.49303e-11
-3.52713e-11
-3.54703e-11
-3.17186e-11
-3.09512e-11
-3.07807e-11
-3.09228e-11
-2.9786e-11
-3.10649e-11
-2.96154e-11
-2.89617e-11
-2.70575e-11
-2.49827e-11
-2.44427e-11
-2.34763e-11
-2.52101e-11
-2.33342e-11
-1.95541e-11
-1.71667e-11
-1.52625e-11
-1.46088e-11
-1.54898e-11
-1.7053e-11
-1.85025e-11
-2.04352e-11
-2.25384e-11
-2.38174e-11
-2.58069e-11
-2.86207e-11
-3.09797e-11
-3.34808e-11
-3.64082e-11
-3.78293e-11
-3.87956e-11
-3.87388e-11
-3.74882e-11
-3.74598e-11
-3.78009e-11
-3.49871e-11
-3.2685e-11
-3.31966e-11
-3.11786e-11
-3.1946e-11
-3.13491e-11
-3.15765e-11
-2.93596e-11
-2.96154e-11
-3.10649e-11
-3.15481e-11
-3.22302e-11
-3.25997e-11
-3.37081e-11
-3.38503e-11
-3.46176e-11
-3.28839e-11
-3.29408e-11
-3.20597e-11
-2.71143e-11
-2.71427e-11
-2.34195e-11
-2.37605e-11
-2.51248e-11
-2.43006e-11
-2.42437e-11
-2.44142e-11
-2.72848e-11
-2.82228e-11
-2.83649e-11
-2.75122e-11
-2.52101e-11
-2.36753e-11
-2.41585e-11
-2.22826e-11
-1.81331e-11
-1.84173e-11
-1.63425e-11
-1.32729e-11
-1.22213e-11
-1.17666e-11
-1.22782e-11
-1.58593e-11
-1.68257e-11
-1.57172e-11
-1.64277e-11
-1.84741e-11
-2.04068e-11
-2.35332e-11
-2.62332e-11
-2.58069e-11
-2.47837e-11
-2.39027e-11
-2.29647e-11
-2.37321e-11
-2.14015e-11
-2.359e-11
-2.28226e-11
-2.22542e-11
-1.98099e-11
-1.79909e-11
-1.6513e-11
-1.72236e-11
-1.55467e-11
-1.76215e-11
-1.99236e-11
-1.76499e-11
-1.76783e-11
-1.64562e-11
-1.75362e-11
-1.6513e-11
-1.3813e-11
-1.1994e-11
-1.06013e-11
-1.03171e-11
-9.83391e-12
-8.32756e-12
-8.12861e-12
-8.86757e-12
-9.00968e-12
-8.83915e-12
-8.04334e-12
-1.1056e-11
-1.36424e-11
-1.58877e-11
-1.40687e-11
-1.33582e-11
-1.34719e-11
-1.52909e-11
-1.45519e-11
-1.74794e-11
-1.63141e-11
-1.71099e-11
-1.63993e-11
-2.05489e-11
-2.25384e-11
-2.37321e-11
-2.35332e-11
-2.36753e-11
-2.40732e-11
-2.46132e-11
-2.43858e-11
-2.56648e-11
-2.66596e-11
-2.85922e-11
-2.69438e-11
-2.90754e-11
-3.06954e-11
-3.22302e-11
-3.37081e-11
-3.49019e-11
-3.35945e-11
-3.33102e-11
-3.19744e-11
-3.11502e-11
-2.85354e-11
-2.50964e-11
-2.50395e-11
-2.58069e-11
-2.64606e-11
-2.53237e-11
-2.26237e-11
-2.01226e-11
-2.05489e-11
-1.82752e-11
-1.68257e-11
-1.5774e-11
-1.44951e-11
-1.49782e-11
-1.31877e-11
-1.18803e-11
-1.02034e-11
-7.47491e-12
-5.22959e-12
-3.15481e-12
-2.6148e-12
-5.96856e-13
9.37916e-13
1.59162e-12
1.50635e-12
2.47269e-12
3.32534e-12
3.43903e-12
3.49587e-12
2.47269e-12
2.30216e-12
1.08002e-12
8.81073e-13
-8.81073e-13
-2.13163e-12
-3.69482e-12
-2.84217e-12
-3.46745e-12
-2.47269e-12
-4.3201e-12
-5.79803e-12
-5.65592e-12
-4.80327e-12
-4.43379e-12
-4.80327e-12
-5.45697e-12
-6.96332e-12
-7.56017e-12
-9.86233e-12
-1.05445e-11
-1.29603e-11
-1.33014e-11
-1.41824e-11
-1.52909e-11
-1.68825e-11
-1.74225e-11
-1.98668e-11
-2.17995e-11
-2.37037e-11
-2.61764e-11
-2.73133e-11
-2.75122e-11
-2.95586e-11
-3.29408e-11
-3.35376e-11
-3.62377e-11
-3.78577e-11
-3.63514e-11
-3.60956e-11
-3.70903e-11
-3.55556e-11
-3.43618e-11
-3.19744e-11
-3.03544e-11
-2.59774e-11
-2.413e-11
-2.07478e-11
-1.82752e-11
-1.63993e-11
-1.36708e-11
-9.43601e-12
-7.38964e-12
-3.6664e-12
-1.84741e-12
2.55795e-13
5.96856e-13
3.69482e-13
5.11591e-13
-5.11591e-13
-1.44951e-12
-3.97904e-12
-4.46221e-12
-5.40012e-12
-5.85487e-12
-7.30438e-12