/*--------------------------------*- C++ -*----------------------------------*\
  =========                 |
  \\      /  F ield         | OpenFOAM: The Open Source CFD Toolbox
   \\    /   O peration     | Website:  https://openfoam.org
    \\  /    A nd           | Version:  9
     \\/     M anipulation  |
\*---------------------------------------------------------------------------*/
FoamFile
{
    format      ascii;
    class       volScalarField;
    location    "0.048";
    object      mag(U);
}
// * * * * * * * * * * * * * * * * * * * * * * * * * * * * * * * * * * * * * //

dimensions      [0 1 -1 0 0 0 0];

internalField   nonuniform List<scalar> 
10000
(
7.07387
7.10086
7.1335
7.16045
7.18423
7.20787
7.2321
7.25657
7.28104
7.30545
7.32984
7.35423
7.37863
7.40302
7.42742
7.45182
7.47622
7.50061
7.52501
7.54941
7.5738
7.5982
7.62259
7.64699
7.67139
7.69578
7.72018
7.74457
7.76897
7.79336
7.81775
7.84215
7.86654
7.89093
7.91533
7.93972
7.96411
7.9885
8.0129
8.03729
8.06168
8.08607
8.11046
8.13485
8.15924
8.18363
8.20802
8.23241
8.2568
8.28118
8.30557
8.32996
8.35435
8.37873
8.40312
8.4275
8.45189
8.47627
8.50066
8.52504
8.54942
8.57381
8.59819
8.62257
8.64695
8.67133
8.69571
8.72009
8.74447
8.76885
8.79323
8.81761
8.84198
8.86636
8.89074
8.91511
8.93949
8.96386
8.98823
9.01261
9.03698
9.06135
9.08572
9.11009
9.13446
9.15883
9.1832
9.20757
9.23193
9.2563
9.28067
9.30503
9.3294
9.35376
9.37812
9.40248
9.42685
9.45121
9.47557
9.49993
9.52428
9.54864
9.573
9.59735
9.62171
9.64606
9.67042
9.69477
9.71912
9.74347
9.76782
9.79217
9.81652
9.84087
9.86522
9.88956
9.91391
9.93825
9.96259
9.98694
10.0113
10.0356
10.06
10.0843
10.1086
10.133
10.1573
10.1816
10.206
10.2303
10.2546
10.279
10.3033
10.3276
10.352
10.3763
10.4006
10.4249
10.4492
10.4736
10.4979
10.5222
10.5465
10.5708
10.5952
10.6195
10.6438
10.6681
10.6924
10.7167
10.741
10.7653
10.7896
10.814
10.8383
10.8626
10.8869
10.9112
10.9355
10.9598
10.9841
11.0084
11.0326
11.0569
11.0812
11.1055
11.1298
11.1541
11.1784
11.2027
11.227
11.2512
11.2755
11.2998
11.3241
11.3483
11.3726
11.3969
11.4212
11.4454
11.4697
11.494
11.5182
11.5425
11.5668
11.591
11.6153
11.6395
11.6638
11.6881
11.7123
11.7366
11.7608
11.7851
11.8093
11.8335
11.8578
11.882
11.9063
11.9305
11.9547
11.979
12.0032
12.0274
12.0517
12.0759
12.1001
12.1244
12.1486
12.1728
12.197
12.2212
12.2454
12.2697
12.2939
12.3181
12.3423
12.3665
12.3907
12.4149
12.4391
12.4633
12.4875
12.5117
12.5359
12.5601
12.5843
12.6084
12.6326
12.6568
12.681
12.7052
12.7293
12.7535
12.7777
12.8019
12.826
12.8502
12.8744
12.8985
12.9227
12.9468
12.971
12.9951
13.0193
13.0434
13.0676
13.0917
13.1159
13.14
13.1641
13.1883
13.2124
13.2365
13.2607
13.2848
13.3089
13.333
13.3571
13.3813
13.4054
13.4295
13.4536
13.4777
13.5018
13.5259
13.55
13.5741
13.5982
13.6223
13.6463
13.6704
13.6945
13.7186
13.7427
13.7667
13.7908
13.8149
13.8389
13.863
13.8871
13.9111
13.9352
13.9592
13.9833
14.0073
14.0314
14.0554
14.0794
14.1035
14.1275
14.1515
14.1755
14.1996
14.2236
14.2476
14.2716
14.2956
14.3196
14.3436
14.3676
14.3916
14.4156
14.4396
14.4636
14.4876
14.5116
14.5355
14.5595
14.5835
14.6075
14.6314
14.6554
14.6793
14.7033
14.7272
14.7512
14.7751
14.7991
14.823
14.847
14.8709
14.8948
14.9187
14.9427
14.9666
14.9905
15.0144
15.0383
15.0622
15.0861
15.11
15.1339
15.1578
15.1817
15.2055
15.2294
15.2533
15.2772
15.301
15.3249
15.3487
15.3726
15.3964
15.4203
15.4441
15.468
15.4918
15.5156
15.5395
15.5633
15.5871
15.6109
15.6347
15.6585
15.6823
15.7061
15.7299
15.7537
15.7775
15.8013
15.825
15.8488
15.8726
15.8963
15.9201
15.9438
15.9676
15.9913
16.0151
16.0388
16.0625
16.0862
16.11
16.1337
16.1574
16.1811
16.2048
16.2285
16.2522
16.2759
16.2996
16.3232
16.3469
16.3706
16.3942
16.4179
16.4415
16.4652
16.4888
16.5125
16.5361
16.5597
16.5833
16.607
16.6306
16.6542
16.6778
16.7014
16.725
16.7485
16.7721
16.7957
16.8193
16.8428
16.8664
16.8899
16.9135
16.937
16.9605
16.9841
17.0076
17.0311
17.0546
17.0781
17.1016
17.1251
17.1486
17.1721
17.1956
17.219
17.2425
17.2659
17.2894
17.3128
17.3363
17.3597
17.3831
17.4066
17.43
17.4534
17.4768
17.5002
17.5236
17.5469
17.5703
17.5937
17.617
17.6404
17.6637
17.6871
17.7104
17.7337
17.7571
17.7804
17.8037
17.827
17.8503
17.8736
17.8968
17.9201
17.9434
17.9666
17.9899
18.0131
18.0363
18.0596
18.0828
18.106
18.1292
18.1524
18.1756
18.1988
18.222
18.2451
18.2683
18.2914
18.3146
18.3377
18.3608
18.384
18.4071
18.4302
18.4533
18.4764
18.4994
18.5225
18.5456
18.5686
18.5917
18.6147
18.6377
18.6608
18.6838
18.7068
18.7298
18.7527
18.7757
18.7987
18.8216
18.8446
18.8675
18.8905
18.9134
18.9363
18.9592
18.9821
19.005
19.0279
19.0507
19.0736
19.0964
19.1193
19.1421
19.1649
19.1877
19.2105
19.2333
19.2561
19.2789
19.3017
19.3244
19.3471
19.3699
19.3926
19.4153
19.438
19.4607
19.4834
19.506
19.5287
19.5514
19.574
19.5966
19.6192
19.6418
19.6644
19.687
19.7096
19.7321
19.7547
19.7772
19.7998
19.8223
19.8448
19.8673
19.8898
19.9122
19.9347
19.9571
19.9796
20.002
20.0244
20.0468
20.0692
20.0916
20.1139
20.1363
20.1586
20.1809
20.2033
20.2256
20.2478
20.2701
20.2924
20.3146
20.3369
20.3591
20.3813
20.4035
20.4257
20.4479
20.47
20.4922
20.5143
20.5364
20.5585
20.5806
20.6027
20.6248
20.6468
20.6688
20.6909
20.7129
20.7349
20.7568
20.7788
20.8008
20.8227
20.8446
20.8665
20.8884
20.9103
20.9322
20.954
20.9758
20.9977
21.0195
21.0413
21.063
21.0848
21.1065
21.1282
21.15
21.1716
21.1933
21.215
21.2366
21.2583
21.2799
21.3015
21.3231
21.3446
21.3662
21.3877
21.4092
21.4307
21.4522
21.4737
21.4951
21.5165
21.5379
21.5593
21.5807
21.6021
21.6234
21.6447
21.666
21.6873
21.7086
21.7299
21.7511
21.7723
21.7935
21.8147
21.8358
21.857
21.8781
21.8992
21.9203
21.9414
21.9624
21.9834
22.0044
22.0254
22.0464
22.0673
22.0883
22.1092
22.1301
22.1509
22.1718
22.1926
22.2134
22.2342
22.255
22.2757
22.2965
22.3172
22.3378
22.3585
22.3792
22.3998
22.4204
22.441
22.4615
22.482
22.5026
22.523
22.5435
22.564
22.5844
22.6048
22.6252
22.6455
22.6659
22.6862
22.7065
22.7267
22.747
22.7672
22.7874
22.8076
22.8277
22.8478
22.8679
22.888
22.9081
22.9281
22.9481
22.9681
22.9881
23.008
23.0279
23.0478
23.0676
23.0875
23.1073
23.1271
23.1468
23.1666
23.1863
23.206
23.2256
23.2453
23.2649
23.2844
23.304
23.3235
23.343
23.3625
23.382
23.4014
23.4208
23.4401
23.4595
23.4788
23.4981
23.5174
23.5366
23.5558
23.575
23.5941
23.6133
23.6324
23.6514
23.6705
23.6895
23.7085
23.7274
23.7464
23.7653
23.7841
23.803
23.8218
23.8406
23.8593
23.8781
23.8967
23.9154
23.9341
23.9527
23.9713
23.9898
24.0083
24.0268
24.0453
24.0637
24.0821
24.1005
24.1188
24.1371
24.1554
24.1737
24.1919
24.2101
24.2283
24.2464
24.2645
24.2826
24.3006
24.3186
24.3366
24.3545
24.3724
24.3903
24.4082
24.426
24.4438
24.4615
24.4792
24.4969
24.5146
24.5322
24.5498
24.5674
24.5849
24.6024
24.6199
24.6373
24.6548
24.6721
24.6895
24.7068
24.7241
24.7413
24.7585
24.7757
24.7928
24.81
24.827
24.8441
24.8611
24.8781
24.8951
24.912
24.9289
24.9457
24.9625
24.9793
24.9961
25.0128
25.0295
25.0462
25.0628
25.0794
25.096
25.1125
25.129
25.1454
25.1619
25.1783
25.1946
25.211
25.2273
25.2435
25.2598
25.276
25.2921
25.3083
25.3244
25.3405
25.3565
25.3725
25.3885
25.4044
25.4203
25.4362
25.4521
25.4679
25.4837
25.4994
25.5151
25.5308
25.5465
25.5621
25.5777
25.5933
25.6088
25.6243
25.6397
25.6552
25.6706
25.686
25.7013
25.7166
25.7319
25.7471
25.7623
25.7775
25.7927
25.8078
25.8229
25.838
25.853
25.868
25.883
25.8979
25.9128
25.9277
25.9426
25.9574
25.9722
25.987
26.0017
26.0164
26.0311
26.0457
26.0604
26.075
26.0895
26.1041
26.1186
26.1331
26.1475
26.1619
26.1763
26.1907
26.2051
26.2194
26.2337
26.2479
26.2622
26.2764
26.2906
26.3047
26.3189
26.333
26.347
26.3611
26.3751
26.3891
26.4031
26.4171
26.431
26.4449
26.4588
26.4727
26.4865
26.5003
26.5141
26.5279
26.5416
26.5553
26.569
26.5827
26.5963
26.61
26.6236
26.6372
26.6507
26.6643
26.6778
26.6913
26.7048
26.7182
26.7316
26.7451
26.7585
26.7718
26.7852
26.7985
26.8118
26.8251
26.8384
26.8517
26.8649
26.8781
26.8913
26.9045
26.9177
26.9309
26.944
26.9571
26.9702
26.9833
26.9963
27.0094
27.0224
27.0354
27.0484
27.0614
27.0744
27.0873
27.1003
27.1132
27.1261
27.139
27.1519
27.1647
27.1776
27.1904
27.2032
27.216
27.2288
27.2416
27.2544
27.2671
27.2799
27.2926
27.3053
27.318
27.3307
27.3434
27.3561
27.3687
27.3814
27.394
27.4066
27.4192
27.4318
27.4444
27.457
27.4696
27.4821
27.4947
27.5072
27.5198
27.5323
27.5448
27.5573
27.5698
27.5823
27.5947
27.6072
27.6197
27.6321
27.6446
27.657
27.6694
27.6818
27.6942
27.7067
27.719
27.7314
27.7438
27.7562
27.7686
27.7809
27.7933
27.8056
27.8179
27.8303
27.8426
27.8549
27.8672
27.8796
27.8919
27.9042
27.9164
27.9287
27.941
27.9533
27.9656
27.9778
27.9901
28.0023
28.0146
28.0268
28.0391
28.0513
28.0636
28.0758
28.088
28.1002
28.1125
28.1247
28.1369
28.1491
28.1613
28.1735
28.1857
28.1979
28.2101
28.2222
28.2344
28.2466
28.2588
28.2709
28.2831
28.2953
28.3074
28.3196
28.3318
28.3439
28.3561
28.3682
28.3804
28.3925
28.4047
28.4168
28.4289
28.4411
28.4532
28.4654
28.4775
28.4896
28.5017
28.5139
28.526
28.5381
28.5502
28.5624
28.5745
28.5866
28.5987
28.6108
28.6229
28.635
28.6471
28.6593
28.6714
28.6835
28.6956
28.7077
28.7198
28.7319
28.744
28.7561
28.7682
28.7803
28.7924
28.8045
28.8166
28.8286
28.8407
28.8528
28.8649
28.877
28.8891
28.9012
28.9133
28.9254
28.9375
28.9495
28.9616
28.9737
28.9858
28.9979
29.01
29.022
29.0341
29.0462
29.0583
29.0704
29.0825
29.0945
29.1066
29.1187
29.1308
29.1429
29.1549
29.167
29.1791
29.1912
29.2033
29.2153
29.2274
29.2395
29.2516
29.2637
29.2757
29.2878
29.2999
29.312
29.324
29.3361
29.3482
29.3603
29.3724
29.3844
29.3965
29.4086
29.4207
29.4327
29.4448
29.4569
29.469
29.4811
29.4931
29.5052
29.5173
29.5294
29.5414
29.5535
29.5656
29.5777
29.5898
29.6018
29.6139
29.626
29.6381
29.6502
29.6622
29.6743
29.6864
29.6985
29.7106
29.7226
29.7347
29.7468
29.7589
29.771
29.783
29.7951
29.8072
29.8193
29.8314
29.8434
29.8555
29.8676
29.8797
29.8918
29.9039
29.9159
29.928
29.9401
29.9522
29.9643
29.9764
29.9884
30.0005
30.0126
30.0247
30.0368
30.0489
30.061
30.073
30.0851
30.0972
30.1093
30.1214
30.1335
30.1456
30.1577
30.1697
30.1818
30.1939
30.206
30.2181
30.2302
30.2423
30.2544
30.2665
30.2786
30.2906
30.3027
30.3148
30.3269
30.339
30.3511
30.3632
30.3753
30.3874
30.3995
30.4116
30.4237
30.4358
30.4479
30.46
30.4721
30.4841
30.4962
30.5083
30.5204
30.5325
30.5446
30.5567
30.5688
30.5809
30.593
30.6051
30.6172
30.6293
30.6414
30.6535
30.6656
30.6777
30.6898
30.7019
30.714
30.7261
30.7382
30.7503
30.7624
30.7745
30.7866
30.7987
30.8108
30.8229
30.835
30.8472
30.8593
30.8714
30.8835
30.8956
30.9077
30.9198
30.9319
30.944
30.9561
30.9682
30.9803
30.9924
31.0045
31.0166
31.0288
31.0409
31.053
31.0651
31.0772
31.0893
31.1014
31.1135
31.1256
31.1377
31.1499
31.162
31.1741
31.1862
31.1983
31.2104
31.2225
31.2346
31.2468
31.2589
31.271
31.2831
31.2952
31.3073
31.3195
31.3316
31.3437
31.3558
31.3679
31.38
31.3922
31.4043
31.4164
31.4285
31.4406
31.4527
31.4649
31.477
31.4891
31.5012
31.5133
31.5255
31.5376
31.5497
31.5618
31.5739
31.5861
31.5982
31.6103
31.6224
31.6346
31.6467
31.6588
31.6709
31.6831
31.6952
31.7073
31.7194
31.7316
31.7437
31.7558
31.7679
31.7801
31.7922
31.8043
31.8164
31.8286
31.8407
31.8528
31.8649
31.8771
31.8892
31.9013
31.9135
31.9256
31.9377
31.9499
31.962
31.9741
31.9862
31.9984
32.0105
32.0226
32.0348
32.0469
32.059
32.0712
32.0833
32.0954
32.1076
32.1197
32.1318
32.144
32.1561
32.1682
32.1804
32.1925
32.2046
32.2168
32.2289
32.2411
32.2532
32.2653
32.2775
32.2896
32.3017
32.3139
32.326
32.3382
32.3503
32.3624
32.3746
32.3867
32.3989
32.411
32.4231
32.4353
32.4474
32.4596
32.4717
32.4838
32.496
32.5081
32.5203
32.5324
32.5446
32.5567
32.5688
32.581
32.5931
32.6053
32.6174
32.6296
32.6417
32.6539
32.666
32.6782
32.6903
32.7024
32.7146
32.7267
32.7389
32.751
32.7632
32.7753
32.7875
32.7996
32.8118
32.8239
32.8361
32.8482
32.8604
32.8725
32.8847
32.8968
32.909
32.9211
32.9333
32.9454
32.9576
32.9698
32.9819
32.9941
33.0062
33.0184
33.0305
33.0427
33.0548
33.067
33.0791
33.0913
33.1035
33.1156
33.1278
33.1399
33.1521
33.1642
33.1764
33.1886
33.2007
33.2129
33.225
33.2372
33.2494
33.2615
33.2737
33.2858
33.298
33.3102
33.3223
33.3345
33.3466
33.3588
33.371
33.3831
33.3953
33.4074
33.4196
33.4318
33.4439
33.4561
33.4683
33.4804
33.4926
33.5048
33.5169
33.5291
33.5413
33.5534
33.5656
33.5778
33.5899
33.6021
33.6143
33.6264
33.6386
33.6508
33.6629
33.6751
33.6873
33.6994
33.7116
33.7238
33.736
33.7481
33.7603
33.7725
33.7846
33.7968
33.809
33.8212
33.8333
33.8455
33.8577
33.8699
33.882
33.8942
33.9064
33.9185
33.9307
33.9429
33.9551
33.9672
33.9794
33.9916
34.0038
34.016
34.0281
34.0403
34.0525
34.0647
34.0768
34.089
34.1012
34.1134
34.1256
34.1377
34.1499
34.1621
34.1743
34.1865
34.1986
34.2108
34.223
34.2352
34.2474
34.2595
34.2717
34.2839
34.2961
34.3083
34.3205
34.3326
34.3448
34.357
34.3692
34.3814
34.3936
34.4058
34.4179
34.4301
34.4423
34.4545
34.4667
34.4789
34.4911
34.5033
34.5154
34.5276
34.5398
34.552
34.5642
34.5764
34.5886
34.6008
34.613
34.6251
34.6373
34.6495
34.6617
34.6739
34.6861
34.6983
34.7105
34.7227
34.7349
34.7471
34.7593
34.7715
34.7836
34.7958
34.808
34.8202
34.8324
34.8446
34.8568
34.869
34.8812
34.8934
34.9056
34.9178
34.93
34.9422
34.9544
34.9666
34.9788
34.991
35.0032
35.0154
35.0276
35.0398
35.052
35.0642
35.0764
35.0886
35.1008
35.113
35.1252
35.1374
35.1496
35.1618
35.174
35.1862
35.1984
35.2106
35.2228
35.235
35.2472
35.2594
35.2716
35.2838
35.296
35.3083
35.3205
35.3327
35.3449
35.3571
35.3693
35.3815
35.3937
35.4059
35.4181
35.4303
35.4425
35.4547
35.467
35.4792
35.4914
35.5036
35.5158
35.528
35.5402
35.5524
35.5646
35.5768
35.5891
35.6013
35.6135
35.6257
35.6379
35.6501
35.6623
35.6745
35.6868
35.699
35.7112
35.7234
35.7356
35.7478
35.7601
35.7723
35.7845
35.7967
35.8089
35.8211
35.8334
35.8456
35.8578
35.87
35.8822
35.8944
35.9067
35.9189
35.9311
35.9433
35.9555
35.9678
35.98
35.9922
36.0044
36.0166
36.0289
36.0411
36.0533
36.0655
36.0778
36.09
36.1022
36.1144
36.1266
36.1389
36.1511
36.1633
36.1755
36.1878
36.2
36.2122
36.2244
36.2367
36.2489
36.2611
36.2734
36.2856
36.2978
36.31
36.3223
36.3345
36.3467
36.359
36.3712
36.3834
36.3956
36.4079
36.4201
36.4323
36.4446
36.4568
36.469
36.4813
36.4935
36.5057
36.5179
36.5302
36.5424
36.5546
36.5669
36.5791
36.5913
36.6036
36.6158
36.6281
36.6403
36.6525
36.6648
36.677
36.6892
36.7015
36.7137
36.7259
36.7382
36.7504
36.7626
36.7749
36.7871
36.7994
36.8116
36.8238
36.8361
36.8483
36.8606
36.8728
36.885
36.8973
36.9095
36.9218
36.934
36.9462
36.9585
36.9707
36.983
36.9952
37.0075
37.0197
37.0319
37.0442
37.0564
37.0687
37.0809
37.0932
37.1054
37.1177
37.1299
37.1421
37.1544
37.1666
37.1789
37.1911
37.2034
37.2156
37.2279
37.2401
37.2524
37.2646
37.2769
37.2891
37.3014
37.3136
37.3259
37.3381
37.3504
37.3626
37.3749
37.3871
37.3994
37.4116
37.4239
37.4361
37.4484
37.4606
37.4729
37.4851
37.4974
37.5096
37.5219
37.5341
37.5464
37.5587
37.5709
37.5832
37.5954
37.6077
37.6199
37.6322
37.6444
37.6567
37.669
37.6812
37.6935
37.7057
37.718
37.7302
37.7425
37.7548
37.767
37.7793
37.7915
37.8038
37.8161
37.8283
37.8406
37.8528
37.8651
37.8774
37.8896
37.9019
37.9142
37.9264
37.9387
37.9509
37.9632
37.9755
37.9877
38
38.0123
38.0245
38.0368
38.0491
38.0613
38.0736
38.0858
38.0981
38.1104
38.1226
38.1349
38.1472
38.1594
38.1717
38.184
38.1963
38.2085
38.2208
38.2331
38.2453
38.2576
38.2699
38.2821
38.2944
38.3067
38.3189
38.3312
38.3435
38.3558
38.368
38.3803
38.3926
38.4048
38.4171
38.4294
38.4417
38.4539
38.4662
38.4785
38.4908
38.503
38.5153
38.5276
38.5399
38.5521
38.5644
38.5767
38.589
38.6012
38.6135
38.6258
38.6381
38.6504
38.6626
38.6749
38.6872
38.6995
38.7117
38.724
38.7363
38.7486
38.7609
38.7731
38.7854
38.7977
38.81
38.8223
38.8346
38.8468
38.8591
38.8714
38.8837
38.896
38.9082
38.9205
38.9328
38.9451
38.9574
38.9697
38.9819
38.9942
39.0065
39.0188
39.0311
39.0434
39.0557
39.0679
39.0802
39.0925
39.1048
39.1171
39.1294
39.1417
39.154
39.1662
39.1785
39.1908
39.2031
39.2154
39.2277
39.24
39.2523
39.2646
39.2769
39.2891
39.3014
39.3137
39.326
39.3383
39.3506
39.3629
39.3752
39.3875
39.3998
39.4121
39.4244
39.4367
39.449
39.4612
39.4735
39.4858
39.4981
39.5104
39.5227
39.535
39.5473
39.5596
39.5719
39.5842
39.5965
39.6088
39.6211
39.6334
39.6457
39.658
39.6703
39.6826
39.6949
39.7072
39.7195
39.7318
39.7441
39.7564
39.7687
39.781
39.7933
39.8056
39.8179
39.8302
39.8425
39.8548
39.8671
39.8794
39.8917
39.904
39.9163
39.9286
39.9409
39.9532
39.9655
39.9778
39.9901
40.0025
40.0148
40.0271
40.0394
40.0517
40.064
40.0763
40.0886
40.1009
40.1132
40.1255
40.1378
40.1501
40.1624
40.1748
40.1871
40.1994
40.2117
40.224
40.2363
40.2486
40.2609
40.2732
40.2855
40.2979
40.3102
40.3225
40.3348
40.3471
40.3594
40.3717
40.384
40.3964
40.4087
40.421
40.4333
40.4456
40.4579
40.4702
40.4826
40.4949
40.5072
40.5195
40.5318
40.5441
40.5565
40.5688
40.5811
40.5934
40.6057
40.618
40.6304
40.6427
40.655
40.6673
40.6796
40.6919
40.7043
40.7166
40.7289
40.7412
40.7535
40.7659
40.7782
40.7905
40.8028
40.8152
40.8275
40.8398
40.8521
40.8644
40.8768
40.8891
40.9014
40.9137
40.9261
40.9384
40.9507
40.963
40.9754
40.9877
41
41.0123
41.0247
41.037
41.0493
41.0616
41.074
41.0863
41.0986
41.1109
41.1233
41.1356
41.1479
41.1603
41.1726
41.1849
41.1972
41.2096
41.2219
41.2342
41.2466
41.2589
41.2712
41.2835
41.2959
41.3082
41.3205
41.3329
41.3452
41.3575
41.3699
41.3822
41.3945
41.4069
41.4192
41.4315
41.4439
41.4562
41.4685
41.4809
41.4932
41.5055
41.5179
41.5302
41.5425
41.5549
41.5672
41.5796
41.5919
41.6042
41.6166
41.6289
41.6412
41.6536
41.6659
41.6783
41.6906
41.7029
41.7153
41.7276
41.74
41.7523
41.7646
41.777
41.7893
41.8017
41.814
41.8263
41.8387
41.851
41.8634
41.8757
41.8881
41.9004
41.9127
41.9251
41.9374
41.9498
41.9621
41.9745
41.9868
41.9991
42.0115
42.0238
42.0362
42.0485
42.0609
42.0732
42.0856
42.0979
42.1103
42.1226
42.135
42.1473
42.1597
42.172
42.1844
42.1967
42.2091
42.2214
42.2338
42.2461
42.2585
42.2708
42.2832
42.2955
42.3079
42.3202
42.3326
42.3449
42.3573
42.3696
42.382
42.3943
42.4067
42.419
42.4314
42.4437
42.4561
42.4685
42.4808
42.4932
42.5055
42.5179
42.5302
42.5426
42.5549
42.5673
42.5797
42.592
42.6044
42.6167
42.6291
42.6415
42.6538
42.6662
42.6785
42.6909
42.7032
42.7156
42.728
42.7403
42.7527
42.7651
42.7774
42.7898
42.8021
42.8145
42.8269
42.8392
42.8516
42.864
42.8763
42.8887
42.901
42.9134
42.9258
42.9381
42.9505
42.9629
42.9752
42.9876
43
43.0123
43.0247
43.0371
43.0494
43.0618
43.0742
43.0865
43.0989
43.1113
43.1236
43.136
43.1484
43.1607
43.1731
43.1855
43.1979
43.2102
43.2226
43.235
43.2473
43.2597
43.2721
43.2845
43.2968
43.3092
43.3216
43.3339
43.3463
43.3587
43.3711
43.3834
43.3958
43.4082
43.4206
43.4329
43.4453
43.4577
43.4701
43.4824
43.4948
43.5072
43.5196
43.5319
43.5443
43.5567
43.5691
43.5815
43.5938
43.6062
43.6186
43.631
43.6433
43.6557
43.6681
43.6805
43.6929
43.7052
43.7176
43.73
43.7424
43.7548
43.7672
43.7795
43.7919
43.8043
43.8167
43.8291
43.8414
43.8538
43.8662
43.8786
43.891
43.9034
43.9157
43.9281
43.9405
43.9529
43.9653
43.9777
43.9901
44.0024
44.0148
44.0272
44.0396
44.052
44.0644
44.0768
44.0892
44.1015
44.1139
44.1263
44.1387
44.1511
44.1635
44.1759
44.1883
44.2007
44.2131
44.2254
44.2378
44.2502
44.2626
44.275
44.2874
44.2998
44.3122
44.3246
44.337
44.3494
44.3618
44.3741
44.3865
44.3989
44.4113
44.4237
44.4361
44.4485
44.4609
44.4733
44.4857
44.4981
44.5105
44.5229
44.5353
44.5477
44.5601
44.5725
44.5849
44.5973
44.6097
44.6221
44.6345
44.6469
44.6593
44.6717
44.6841
44.6965
44.7089
44.7213
44.7337
44.7461
44.7585
44.7709
44.7833
44.7957
44.8081
44.8205
44.8329
44.8453
44.8577
44.8701
44.8825
44.8949
44.9073
44.9197
44.9321
44.9445
44.9569
44.9693
44.9817
44.9941
45.0065
45.0189
45.0314
45.0438
45.0562
45.0686
45.081
45.0934
45.1058
45.1182
45.1306
45.143
45.1554
45.1678
45.1803
45.1927
45.2051
45.2175
45.2299
45.2423
45.2547
45.2671
45.2795
45.2919
45.3044
45.3168
45.3292
45.3416
45.354
45.3664
45.3788
45.3912
45.4037
45.4161
45.4285
45.4409
45.4533
45.4657
45.4781
45.4906
45.503
45.5154
45.5278
45.5402
45.5526
45.5651
45.5775
45.5899
45.6023
45.6147
45.6271
45.6396
45.652
45.6644
45.6768
45.6892
45.7017
45.7141
45.7265
45.7389
45.7513
45.7638
45.7762
45.7886
45.801
45.8134
45.8259
45.8383
45.8507
45.8631
45.8756
45.888
45.9004
45.9128
45.9253
45.9377
45.9501
45.9625
45.9749
45.9874
45.9998
46.0122
46.0247
46.0371
46.0495
46.0619
46.0744
46.0868
46.0992
46.1116
46.1241
46.1365
46.1489
46.1613
46.1738
46.1862
46.1986
46.2111
46.2235
46.2359
46.2484
46.2608
46.2732
46.2856
46.2981
46.3105
46.3229
46.3354
46.3478
46.3602
46.3727
46.3851
46.3975
46.41
46.4224
46.4348
46.4473
46.4597
46.4721
46.4846
46.497
46.5094
46.5219
46.5343
46.5467
46.5592
46.5716
46.5841
46.5965
46.6089
46.6214
46.6338
46.6462
46.6587
46.6711
46.6836
46.696
46.7084
46.7209
46.7333
46.7458
46.7582
46.7706
46.7831
46.7955
46.808
46.8204
46.8328
46.8453
46.8577
46.8702
46.8826
46.895
46.9075
46.9199
46.9324
46.9448
46.9573
46.9697
46.9821
46.9946
47.007
47.0195
47.0319
47.0444
47.0568
47.0693
47.0817
47.0942
47.1066
47.119
47.1315
47.1439
47.1564
47.1688
47.1813
47.1937
47.2062
47.2186
47.2311
47.2435
47.256
47.2684
47.2809
47.2933
47.3058
47.3182
47.3307
47.3431
47.3556
47.368
47.3805
47.3929
47.4054
47.4178
47.4303
47.4427
47.4552
47.4677
47.4801
47.4926
47.505
47.5175
47.5299
47.5424
47.5548
47.5673
47.5797
47.5922
47.6047
47.6171
47.6296
47.642
47.6545
47.6669
47.6794
47.6919
47.7043
47.7168
47.7292
47.7417
47.7541
47.7666
47.7791
47.7915
47.804
47.8164
47.8289
47.8414
47.8538
47.8663
47.8787
47.8912
47.9037
47.9161
47.9286
47.9411
47.9535
47.966
47.9784
47.9909
48.0034
48.0158
48.0283
48.0408
48.0532
48.0657
48.0782
48.0906
48.1031
48.1156
48.128
48.1405
48.153
48.1654
48.1779
48.1904
48.2028
48.2153
48.2278
48.2402
48.2527
48.2652
48.2776
48.2901
48.3026
48.315
48.3275
48.34
48.3524
48.3649
48.3774
48.3899
48.4023
48.4148
48.4273
48.4397
48.4522
48.4647
48.4772
48.4896
48.5021
48.5146
48.5271
48.5395
48.552
48.5645
48.577
48.5894
48.6019
48.6144
48.6269
48.6393
48.6518
48.6643
48.6768
48.6892
48.7017
48.7142
48.7267
48.7391
48.7516
48.7641
48.7766
48.7891
48.8015
48.814
48.8265
48.839
48.8514
48.8639
48.8764
48.8889
48.9014
48.9138
48.9263
48.9388
48.9513
48.9638
48.9763
48.9887
49.0012
49.0137
49.0262
49.0387
49.0512
49.0636
49.0761
49.0886
49.1011
49.1136
49.1261
49.1385
49.151
49.1635
49.176
49.1885
49.201
49.2135
49.2259
49.2384
49.2509
49.2634
49.2759
49.2884
49.3009
49.3134
49.3258
49.3383
49.3508
49.3633
49.3758
49.3883
49.4008
49.4133
49.4258
49.4383
49.4507
49.4632
49.4757
49.4882
49.5007
49.5132
49.5257
49.5382
49.5507
49.5632
49.5757
49.5882
49.6006
49.6131
49.6256
49.6381
49.6506
49.6631
49.6756
49.6881
49.7006
49.7131
49.7256
49.7381
49.7506
49.7631
49.7756
49.7881
49.8006
49.8131
49.8256
49.8381
49.8506
49.8631
49.8756
49.8881
49.9006
49.9131
49.9256
49.9381
49.9506
49.9631
49.9756
49.9881
50.0006
50.0131
50.0256
50.0381
50.0506
50.0631
50.0756
50.0881
50.1006
50.1131
50.1256
50.1381
50.1506
50.1631
50.1756
50.1881
50.2006
50.2131
50.2256
50.2381
50.2506
50.2631
50.2756
50.2882
50.3007
50.3132
50.3257
50.3382
50.3507
50.3632
50.3757
50.3882
50.4007
50.4132
50.4257
50.4382
50.4508
50.4633
50.4758
50.4883
50.5008
50.5133
50.5258
50.5383
50.5508
50.5634
50.5759
50.5884
50.6009
50.6134
50.6259
50.6384
50.6509
50.6634
50.676
50.6885
50.701
50.7135
50.726
50.7385
50.751
50.7636
50.7761
50.7886
50.8011
50.8136
50.8261
50.8387
50.8512
50.8637
50.8762
50.8887
50.9012
50.9138
50.9263
50.9388
50.9513
50.9638
50.9763
50.9889
51.0014
51.0139
51.0264
51.0389
51.0515
51.064
51.0765
51.089
51.1015
51.1141
51.1266
51.1391
51.1516
51.1641
51.1767
51.1892
51.2017
51.2142
51.2268
51.2393
51.2518
51.2643
51.2768
51.2894
51.3019
51.3144
51.3269
51.3395
51.352
51.3645
51.377
51.3896
51.4021
51.4146
51.4271
51.4397
51.4522
51.4647
51.4772
51.4898
51.5023
51.5148
51.5274
51.5399
51.5524
51.5649
51.5775
51.59
51.6025
51.615
51.6276
51.6401
51.6526
51.6652
51.6777
51.6902
51.7027
51.7153
51.7278
51.7403
51.7529
51.7654
51.7779
51.7905
51.803
51.8155
51.8281
51.8406
51.8531
51.8657
51.8782
51.8907
51.9033
51.9158
51.9283
51.9409
51.9534
51.9659
51.9785
51.991
52.0035
52.0161
52.0286
52.0411
52.0537
52.0662
52.0787
52.0913
52.1038
52.1163
52.1289
52.1414
52.154
52.1665
52.179
52.1916
52.2041
52.2166
52.2292
52.2417
52.2543
52.2668
52.2793
52.2919
52.3044
52.317
52.3295
52.342
52.3546
52.3671
52.3797
52.3922
52.4048
52.4173
52.4298
52.4424
52.4549
52.4675
52.48
52.4926
52.5051
52.5176
52.5302
52.5427
52.5553
52.5678
52.5804
52.5929
52.6055
52.618
52.6306
52.6431
52.6557
52.6682
52.6808
52.6933
52.7059
52.7184
52.731
52.7435
52.7561
52.7686
52.7812
52.7937
52.8063
52.8188
52.8314
52.8439
52.8565
52.869
52.8816
52.8941
52.9067
52.9192
52.9318
52.9444
52.9569
52.9695
52.982
52.9946
53.0071
53.0197
53.0322
53.0448
53.0574
53.0699
53.0825
53.095
53.1076
53.1202
53.1327
53.1453
53.1578
53.1704
53.1829
53.1955
53.2081
53.2206
53.2332
53.2458
53.2583
53.2709
53.2834
53.296
53.3086
53.3211
53.3337
53.3463
53.3588
53.3714
53.3839
53.3965
53.4091
53.4216
53.4342
53.4468
53.4593
53.4719
53.4845
53.497
53.5096
53.5222
53.5347
53.5473
53.5599
53.5724
53.585
53.5976
53.6101
53.6227
53.6353
53.6479
53.6604
53.673
53.6856
53.6981
53.7107
53.7233
53.7358
53.7484
53.761
53.7736
53.7861
53.7987
53.8113
53.8239
53.8364
53.849
53.8616
53.8741
53.8867
53.8993
53.9119
53.9244
53.937
53.9496
53.9622
53.9747
53.9873
53.9999
54.0125
54.025
54.0376
54.0502
54.0628
54.0753
54.0879
54.1005
54.1131
54.1257
54.1382
54.1508
54.1634
54.176
54.1885
54.2011
54.2137
54.2263
54.2389
54.2514
54.264
54.2766
54.2892
54.3018
54.3143
54.3269
54.3395
54.3521
54.3647
54.3772
54.3898
54.4024
54.415
54.4276
54.4402
54.4527
54.4653
54.4779
54.4905
54.5031
54.5157
54.5282
54.5408
54.5534
54.566
54.5786
54.5912
54.6038
54.6163
54.6289
54.6415
54.6541
54.6667
54.6793
54.6919
54.7044
54.717
54.7296
54.7422
54.7548
54.7674
54.78
54.7926
54.8052
54.8177
54.8303
54.8429
54.8555
54.8681
54.8807
54.8933
54.9059
54.9185
54.9311
54.9436
54.9562
54.9688
54.9814
54.994
55.0066
55.0192
55.0318
55.0444
55.057
55.0696
55.0822
55.0948
55.1074
55.12
55.1326
55.1451
55.1577
55.1703
55.1829
55.1955
55.2081
55.2207
55.2333
55.2459
55.2585
55.2711
55.2837
55.2963
55.3089
55.3215
55.3341
55.3467
55.3593
55.3719
55.3845
55.3971
55.4097
55.4223
55.4349
55.4475
55.4601
55.4727
55.4853
55.4979
55.5105
55.5231
55.5357
55.5483
55.5609
55.5735
55.5861
55.5987
55.6113
55.6239
55.6365
55.6491
55.6618
55.6744
55.687
55.6996
55.7122
55.7248
55.7374
55.75
55.7626
55.7752
55.7878
55.8004
55.813
55.8256
55.8382
55.8509
55.8635
55.8761
55.8887
55.9013
55.9139
55.9265
55.9391
55.9517
55.9643
55.9769
55.9896
56.0022
56.0148
56.0274
56.04
56.0526
56.0652
56.0778
56.0905
56.1031
56.1157
56.1283
56.1409
56.1535
56.1661
56.1788
56.1914
56.204
56.2166
56.2292
56.2418
56.2544
56.2671
56.2797
56.2923
56.3049
56.3175
56.3301
56.3428
56.3554
56.368
56.3806
56.3932
56.4059
56.4185
56.4311
56.4437
56.4563
56.4689
56.4816
56.4942
56.5068
56.5194
56.5321
56.5447
56.5573
56.5699
56.5825
56.5952
56.6078
56.6204
56.633
56.6456
56.6583
56.6709
56.6835
56.6961
56.7088
56.7214
56.734
56.7466
56.7593
56.7719
56.7845
56.7971
56.8098
56.8224
56.835
56.8476
56.8603
56.8729
56.8855
56.8982
56.9108
56.9234
56.936
56.9487
56.9613
56.9739
56.9866
56.9992
57.0118
57.0244
57.0371
57.0497
57.0623
57.075
57.0876
57.1002
57.1129
57.1255
57.1381
57.1507
57.1634
57.176
57.1886
57.2013
57.2139
57.2265
57.2392
57.2518
57.2644
57.2771
57.2897
57.3023
57.315
57.3276
57.3402
57.3529
57.3655
57.3781
57.3908
57.4034
57.4161
57.4287
57.4413
57.454
57.4666
57.4792
57.4919
57.5045
57.5172
57.5298
57.5424
57.5551
57.5677
57.5803
57.593
57.6056
57.6183
57.6309
57.6435
57.6562
57.6688
57.6815
57.6941
57.7067
57.7194
57.732
57.7447
57.7573
57.77
57.7826
57.7952
57.8079
57.8205
57.8332
57.8458
57.8585
57.8711
57.8837
57.8964
57.909
57.9217
57.9343
57.947
57.9596
57.9723
57.9849
57.9975
58.0102
58.0228
58.0355
58.0481
58.0608
58.0734
58.0861
58.0987
58.1114
58.124
58.1367
58.1493
58.162
58.1746
58.1873
58.1999
58.2126
58.2252
58.2379
58.2505
58.2632
58.2758
58.2885
58.3011
58.3138
58.3264
58.3391
58.3517
58.3644
58.377
58.3897
58.4023
58.415
58.4276
58.4403
58.4529
58.4656
58.4782
58.4909
58.5035
58.5162
58.5289
58.5415
58.5542
58.5668
58.5795
58.5921
58.6048
58.6174
58.6301
58.6428
58.6554
58.6681
58.6807
58.6934
58.706
58.7187
58.7314
58.744
58.7567
58.7693
58.782
58.7947
58.8073
58.82
58.8326
58.8453
58.858
58.8706
58.8833
58.8959
58.9086
58.9213
58.9339
58.9466
58.9593
58.9719
58.9846
58.9972
59.0099
59.0226
59.0352
59.0479
59.0606
59.0732
59.0859
59.0986
59.1112
59.1239
59.1365
59.1492
59.1619
59.1745
59.1872
59.1999
59.2125
59.2252
59.2379
59.2505
59.2632
59.2759
59.2885
59.3012
59.3139
59.3266
59.3392
59.3519
59.3646
59.3772
59.3899
59.4026
59.4152
59.4279
59.4406
59.4532
59.4659
59.4786
59.4913
59.5039
59.5166
59.5293
59.5419
59.5546
59.5673
59.58
59.5926
59.6053
59.618
59.6307
59.6433
59.656
59.6687
59.6814
59.694
59.7067
59.7194
59.7321
59.7447
59.7574
59.7701
59.7828
59.7954
59.8081
59.8208
59.8335
59.8461
59.8588
59.8715
59.8842
59.8969
59.9095
59.9222
59.9349
59.9476
59.9603
59.9729
59.9856
59.9983
60.011
60.0237
60.0363
60.049
60.0617
60.0744
60.0871
60.0997
60.1124
60.1251
60.1378
60.1505
60.1632
60.1758
60.1885
60.2012
60.2139
60.2266
60.2393
60.2519
60.2646
60.2773
60.29
60.3027
60.3154
60.3281
60.3407
60.3534
60.3661
60.3788
60.3915
60.4042
60.4169
60.4296
60.4422
60.4549
60.4676
60.4803
60.493
60.5057
60.5184
60.5311
60.5438
60.5564
60.5691
60.5818
60.5945
60.6072
60.6199
60.6326
60.6453
60.658
60.6707
60.6834
60.696
60.7087
60.7214
60.7341
60.7468
60.7595
60.7722
60.7849
60.7976
60.8103
60.823
60.8357
60.8484
60.8611
60.8738
60.8865
60.8991
60.9118
60.9245
60.9372
60.9499
60.9626
60.9753
60.988
61.0007
61.0134
61.0261
61.0388
61.0515
61.0642
61.0769
61.0896
61.1023
61.115
61.1277
61.1404
61.1531
61.1658
61.1785
61.1912
61.2039
61.2166
61.2293
61.242
61.2547
61.2674
61.2801
61.2928
61.3055
61.3182
61.3309
61.3436
61.3563
61.369
61.3817
61.3944
61.4072
61.4199
61.4326
61.4453
61.458
61.4707
61.4834
61.4961
61.5088
61.5215
61.5342
61.5469
61.5596