/*--------------------------------*- C++ -*----------------------------------*\
  =========                 |
  \\      /  F ield         | OpenFOAM: The Open Source CFD Toolbox
   \\    /   O peration     | Website:  https://openfoam.org
    \\  /    A nd           | Version:  9
     \\/     M anipulation  |
\*---------------------------------------------------------------------------*/
FoamFile
{
    format      ascii;
    class       volScalarField;
    location    "0.048";
    object      p;
}
// * * * * * * * * * * * * * * * * * * * * * * * * * * * * * * * * * * * * * //

dimensions      [1 -1 -2 0 0 0 0];

internalField   nonuniform List<scalar> 
10000
(
8243.86
8243.82
8243.76
8243.7
8243.65
8243.6
8243.55
8243.5
8243.45
8243.4
8243.35
8243.3
8243.25
8243.2
8243.15
8243.1
8243.05
8243
8242.95
8242.9
8242.85
8242.81
8242.76
8242.71
8242.66
8242.61
8242.56
8242.51
8242.47
8242.42
8242.37
8242.32
8242.27
8242.22
8242.18
8242.13
8242.08
8242.03
8241.99
8241.94
8241.89
8241.84
8241.8
8241.75
8241.7
8241.66
8241.61
8241.56
8241.52
8241.47
8241.42
8241.38
8241.33
8241.28
8241.24
8241.19
8241.15
8241.1
8241.05
8241.01
8240.96
8240.92
8240.87
8240.83
8240.78
8240.74
8240.69
8240.65
8240.6
8240.56
8240.51
8240.47
8240.42
8240.38
8240.34
8240.29
8240.25
8240.2
8240.16
8240.12
8240.07
8240.03
8239.98
8239.94
8239.9
8239.85
8239.81
8239.77
8239.73
8239.68
8239.64
8239.6
8239.55
8239.51
8239.47
8239.43
8239.39
8239.34
8239.3
8239.26
8239.22
8239.18
8239.13
8239.09
8239.05
8239.01
8238.97
8238.93
8238.89
8238.85
8238.8
8238.76
8238.72
8238.68
8238.64
8238.6
8238.56
8238.52
8238.48
8238.44
8238.4
8238.36
8238.32
8238.28
8238.24
8238.2
8238.16
8238.13
8238.09
8238.05
8238.01
8237.97
8237.93
8237.89
8237.85
8237.82
8237.78
8237.74
8237.7
8237.66
8237.63
8237.59
8237.55
8237.51
8237.48
8237.44
8237.4
8237.36
8237.33
8237.29
8237.25
8237.22
8237.18
8237.14
8237.11
8237.07
8237.04
8237
8236.96
8236.93
8236.89
8236.86
8236.82
8236.79
8236.75
8236.72
8236.68
8236.65
8236.61
8236.58
8236.54
8236.51
8236.47
8236.44
8236.4
8236.37
8236.34
8236.3
8236.27
8236.24
8236.2
8236.17
8236.14
8236.1
8236.07
8236.04
8236
8235.97
8235.94
8235.91
8235.87
8235.84
8235.81
8235.78
8235.75
8235.71
8235.68
8235.65
8235.62
8235.59
8235.56
8235.53
8235.5
8235.47
8235.44
8235.4
8235.37
8235.34
8235.31
8235.28
8235.25
8235.22
8235.2
8235.17
8235.14
8235.11
8235.08
8235.05
8235.02
8234.99
8234.96
8234.94
8234.91
8234.88
8234.85
8234.82
8234.8
8234.77
8234.74
8234.71
8234.69
8234.66
8234.63
8234.6
8234.58
8234.55
8234.53
8234.5
8234.47
8234.45
8234.42
8234.4
8234.37
8234.34
8234.32
8234.29
8234.27
8234.24
8234.22
8234.19
8234.17
8234.15
8234.12
8234.1
8234.07
8234.05
8234.03
8234
8233.98
8233.96
8233.93
8233.91
8233.89
8233.87
8233.84
8233.82
8233.8
8233.78
8233.76
8233.73
8233.71
8233.69
8233.67
8233.65
8233.63
8233.61
8233.59
8233.57
8233.55
8233.53
8233.51
8233.49
8233.47
8233.45
8233.43
8233.41
8233.39
8233.37
8233.35
8233.34
8233.32
8233.3
8233.28
8233.26
8233.25
8233.23
8233.21
8233.19
8233.18
8233.16
8233.14
8233.13
8233.11
8233.1
8233.08
8233.06
8233.05
8233.03
8233.02
8233
8232.99
8232.97
8232.96
8232.95
8232.93
8232.92
8232.9
8232.89
8232.88
8232.86
8232.85
8232.84
8232.83
8232.81
8232.8
8232.79
8232.78
8232.77
8232.76
8232.74
8232.73
8232.72
8232.71
8232.7
8232.69
8232.68
8232.67
8232.66
8232.65
8232.64
8232.63
8232.63
8232.62
8232.61
8232.6
8232.59
8232.58
8232.58
8232.57
8232.56
8232.56
8232.55
8232.54
8232.54
8232.53
8232.52
8232.52
8232.51
8232.51
8232.5
8232.5
8232.49
8232.49
8232.49
8232.48
8232.48
8232.47
8232.47
8232.47
8232.47
8232.46
8232.46
8232.46
8232.46
8232.46
8232.45
8232.45
8232.45
8232.45
8232.45
8232.45
8232.45
8232.45
8232.45
8232.45
8232.46
8232.46
8232.46
8232.46
8232.46
8232.46
8232.47
8232.47
8232.47
8232.48
8232.48
8232.49
8232.49
8232.49
8232.5
8232.5
8232.51
8232.51
8232.52
8232.53
8232.53
8232.54
8232.55
8232.55
8232.56
8232.57
8232.58
8232.59
8232.59
8232.6
8232.61
8232.62
8232.63
8232.64
8232.65
8232.66
8232.67
8232.69
8232.7
8232.71
8232.72
8232.73
8232.75
8232.76
8232.77
8232.79
8232.8
8232.82
8232.83
8232.85
8232.86
8232.88
8232.89
8232.91
8232.92
8232.94
8232.96
8232.98
8232.99
8233.01
8233.03
8233.05
8233.07
8233.09
8233.11
8233.13
8233.15
8233.17
8233.19
8233.21
8233.24
8233.26
8233.28
8233.3
8233.33
8233.35
8233.37
8233.4
8233.42
8233.45
8233.47
8233.5
8233.53
8233.55
8233.58
8233.61
8233.64
8233.66
8233.69
8233.72
8233.75
8233.78
8233.81
8233.84
8233.87
8233.9
8233.94
8233.97
8234
8234.03
8234.07
8234.1
8234.13
8234.17
8234.2
8234.24
8234.28
8234.31
8234.35
8234.39
8234.42
8234.46
8234.5
8234.54
8234.58
8234.62
8234.66
8234.7
8234.74
8234.78
8234.82
8234.86
8234.91
8234.95
8234.99
8235.04
8235.08
8235.13
8235.17
8235.22
8235.27
8235.31
8235.36
8235.41
8235.46
8235.51
8235.56
8235.61
8235.66
8235.71
8235.76
8235.81
8235.86
8235.92
8235.97
8236.02
8236.08
8236.13
8236.19
8236.25
8236.3
8236.36
8236.42
8236.48
8236.53
8236.59
8236.65
8236.71
8236.77
8236.84
8236.9
8236.96
8237.02
8237.09
8237.15
8237.22
8237.28
8237.35
8237.42
8237.48
8237.55
8237.62
8237.69
8237.76
8237.83
8237.9
8237.97
8238.04
8238.11
8238.19
8238.26
8238.34
8238.41
8238.49
8238.56
8238.64
8238.72
8238.8
8238.87
8238.95
8239.03
8239.12
8239.2
8239.28
8239.36
8239.45
8239.53
8239.61
8239.7
8239.79
8239.87
8239.96
8240.05
8240.14
8240.23
8240.32
8240.41
8240.5
8240.59
8240.69
8240.78
8240.88
8240.97
8241.07
8241.16
8241.26
8241.36
8241.46
8241.56
8241.66
8241.76
8241.86
8241.97
8242.07
8242.17
8242.28
8242.39
8242.49
8242.6
8242.71
8242.82
8242.93
8243.04
8243.15
8243.26
8243.38
8243.49
8243.61
8243.72
8243.84
8243.96
8244.07
8244.19
8244.31
8244.43
8244.56
8244.68
8244.8
8244.93
8245.05
8245.18
8245.3
8245.43
8245.56
8245.69
8245.82
8245.95
8246.09
8246.22
8246.35
8246.49
8246.63
8246.76
8246.9
8247.04
8247.18
8247.32
8247.46
8247.6
8247.75
8247.89
8248.04
8248.19
8248.33
8248.48
8248.63
8248.78
8248.94
8249.09
8249.24
8249.4
8249.55
8249.71
8249.87
8250.03
8250.19
8250.35
8250.51
8250.67
8250.84
8251
8251.17
8251.34
8251.5
8251.67
8251.84
8252.02
8252.19
8252.36
8252.54
8252.72
8252.89
8253.07
8253.25
8253.43
8253.61
8253.8
8253.98
8254.17
8254.35
8254.54
8254.73
8254.92
8255.11
8255.3
8255.5
8255.69
8255.89
8256.08
8256.28
8256.48
8256.68
8256.89
8257.09
8257.29
8257.5
8257.71
8257.91
8258.12
8258.33
8258.55
8258.76
8258.97
8259.19
8259.41
8259.62
8259.84
8260.07
8260.29
8260.51
8260.74
8260.96
8261.19
8261.42
8261.65
8261.88
8262.11
8262.35
8262.58
8262.82
8263.06
8263.3
8263.54
8263.78
8264.02
8264.27
8264.51
8264.76
8265.01
8265.26
8265.51
8265.76
8266.02
8266.27
8266.53
8266.79
8267.05
8267.31
8267.57
8267.84
8268.1
8268.37
8268.64
8268.91
8269.18
8269.45
8269.73
8270
8270.28
8270.56
8270.84
8271.12
8271.4
8271.68
8271.97
8272.26
8272.55
8272.84
8273.13
8273.42
8273.71
8274.01
8274.31
8274.61
8274.91
8275.21
8275.51
8275.82
8276.12
8276.43
8276.74
8277.05
8277.36
8277.67
8277.99
8278.31
8278.62
8278.94
8279.26
8279.59
8279.91
8280.24
8280.56
8280.89
8281.22
8281.55
8281.88
8282.22
8282.55
8282.89
8283.23
8283.57
8283.91
8284.25
8284.6
8284.94
8285.29
8285.64
8285.99
8286.34
8286.7
8287.05
8287.41
8287.77
8288.12
8288.49
8288.85
8289.21
8289.58
8289.94
8290.31
8290.68
8291.05
8291.42
8291.8
8292.17
8292.55
8292.93
8293.31
8293.69
8294.07
8294.45
8294.84
8295.22
8295.61
8296
8296.39
8296.78
8297.18
8297.57
8297.97
8298.37
8298.76
8299.16
8299.57
8299.97
8300.37
8300.78
8301.19
8301.59
8302
8302.42
8302.83
8303.24
8303.66
8304.07
8304.49
8304.91
8305.33
8305.75
8306.17
8306.6
8307.02
8307.45
8307.88
8308.31
8308.74
8309.17
8309.6
8310.03
8310.47
8310.9
8311.34
8311.78
8312.22
8312.66
8313.1
8313.55
8313.99
8314.44
8314.88
8315.33
8315.78
8316.23
8316.68
8317.13
8317.59
8318.04
8318.5
8318.95
8319.41
8319.87
8320.33
8320.79
8321.25
8321.71
8322.18
8322.64
8323.11
8323.57
8324.04
8324.51
8324.98
8325.45
8325.92
8326.39
8326.87
8327.34
8327.82
8328.29
8328.77
8329.25
8329.73
8330.21
8330.69
8331.17
8331.65
8332.13
8332.62
8333.1
8333.59
8334.07
8334.56
8335.05
8335.54
8336.03
8336.52
8337.01
8337.5
8337.99
8338.48
8338.98
8339.47
8339.97
8340.46
8340.96
8341.46
8341.95
8342.45
8342.95
8343.45
8343.95
8344.45
8344.96
8345.46
8345.96
8346.46
8346.97
8347.47
8347.98
8348.48
8348.99
8349.5
8350.01
8350.51
8351.02
8351.53
8352.04
8352.55
8353.06
8353.57
8354.09
8354.6
8355.11
8355.62
8356.14
8356.65
8357.17
8357.68
8358.2
8358.71
8359.23
8359.75
8360.26
8360.78
8361.3
8361.82
8362.34
8362.85
8363.37
8363.89
8364.41
8364.94
8365.46
8365.98
8366.5
8367.02
8367.54
8368.07
8368.59
8369.11
8369.64
8370.16
8370.69
8371.21
8371.74
8372.26
8372.79
8373.31
8373.84
8374.36
8374.89
8375.42
8375.95
8376.47
8377
8377.53
8378.06
8378.58
8379.11
8379.64
8380.17
8380.7
8381.23
8381.76
8382.29
8382.82
8383.35
8383.88
8384.41
8384.94
8385.48
8386.01
8386.54
8387.07
8387.6
8388.13
8388.67
8389.2
8389.73
8390.27
8390.8
8391.33
8391.87
8392.4
8392.93
8393.47
8394
8394.53
8395.07
8395.6
8396.14
8396.67
8397.21
8397.74
8398.28
8398.81
8399.35
8399.88
8400.42
8400.96
8401.49
8402.03
8402.56
8403.1
8403.64
8404.17
8404.71
8405.25
8405.78
8406.32
8406.86
8407.4
8407.93
8408.47
8409.01
8409.55
8410.08
8410.62
8411.16
8411.7
8412.24
8412.77
8413.31
8413.85
8414.39
8414.93
8415.47
8416
8416.54
8417.08
8417.62
8418.16
8418.7
8419.24
8419.78
8420.32
8420.86
8421.4
8421.94
8422.48
8423.01
8423.55
8424.09
8424.63
8425.17
8425.71
8426.25
8426.8
8427.34
8427.88
8428.42
8428.96
8429.5
8430.04
8430.58
8431.12
8431.66
8432.2
8432.74
8433.28
8433.82
8434.36
8434.91
8435.45
8435.99
8436.53
8437.07
8437.61
8438.15
8438.7
8439.24
8439.78
8440.32
8440.86
8441.4
8441.95
8442.49
8443.03
8443.57
8444.11
8444.66
8445.2
8445.74
8446.28
8446.83
8447.37
8447.91
8448.45
8449
8449.54
8450.08
8450.62
8451.17
8451.71
8452.25
8452.8
8453.34
8453.88
8454.42
8454.97
8455.51
8456.05
8456.6
8457.14
8457.68
8458.23
8458.77
8459.31
8459.86
8460.4
8460.95
8461.49
8462.03
8462.58
8463.12
8463.66
8464.21
8464.75
8465.3
8465.84
8466.38
8466.93
8467.47
8468.02
8468.56
8469.11
8469.65
8470.2
8470.74
8471.28
8471.83
8472.37
8472.92
8473.46
8474.01
8474.55
8475.1
8475.64
8476.19
8476.73
8477.28
8477.82
8478.37
8478.91
8479.46
8480
8480.55
8481.09
8481.64
8482.18
8482.73
8483.28
8483.82
8484.37
8484.91
8485.46
8486
8486.55
8487.1
8487.64
8488.19
8488.73
8489.28
8489.83
8490.37
8490.92
8491.46
8492.01
8492.56
8493.1
8493.65
8494.2
8494.74
8495.29
8495.84
8496.38
8496.93
8497.48
8498.02
8498.57
8499.12
8499.66
8500.21
8500.76
8501.3
8501.85
8502.4
8502.95
8503.49
8504.04
8504.59
8505.13
8505.68
8506.23
8506.78
8507.32
8507.87
8508.42
8508.97
8509.51
8510.06
8510.61
8511.16
8511.71
8512.25
8512.8
8513.35
8513.9
8514.45
8514.99
8515.54
8516.09
8516.64
8517.19
8517.74
8518.28
8518.83
8519.38
8519.93
8520.48
8521.03
8521.58
8522.12
8522.67
8523.22
8523.77
8524.32
8524.87
8525.42
8525.97
8526.51
8527.06
8527.61
8528.16
8528.71
8529.26
8529.81
8530.36
8530.91
8531.46
8532.01
8532.56
8533.11
8533.66
8534.21
8534.76
8535.31
8535.86
8536.41
8536.96
8537.51
8538.06
8538.61
8539.16
8539.71
8540.26
8540.81
8541.36
8541.91
8542.46
8543.01
8543.56
8544.11
8544.66
8545.21
8545.76
8546.31
8546.86
8547.41
8547.96
8548.51
8549.06
8549.62
8550.17
8550.72
8551.27
8551.82
8552.37
8552.92
8553.47
8554.02
8554.58
8555.13
8555.68
8556.23
8556.78
8557.33
8557.88
8558.44
8558.99
8559.54
8560.09
8560.64
8561.2
8561.75
8562.3
8562.85
8563.4
8563.96
8564.51
8565.06
8565.61
8566.16
8566.72
8567.27
8567.82
8568.37
8568.93
8569.48
8570.03
8570.58
8571.14
8571.69
8572.24
8572.79
8573.35
8573.9
8574.45
8575.01
8575.56
8576.11
8576.67
8577.22
8577.77
8578.33
8578.88
8579.43
8579.99
8580.54
8581.09
8581.65
8582.2
8582.75
8583.31
8583.86
8584.41
8584.97
8585.52
8586.08
8586.63
8587.18
8587.74
8588.29
8588.85
8589.4
8589.95
8590.51
8591.06
8591.62
8592.17
8592.73
8593.28
8593.83
8594.39
8594.94
8595.5
8596.05
8596.61
8597.16
8597.72
8598.27
8598.83
8599.38
8599.94
8600.49
8601.05
8601.6
8602.16
8602.71
8603.27
8603.82
8604.38
8604.93
8605.49
8606.04
8606.6
8607.15
8607.71
8608.27
8608.82
8609.38
8609.93
8610.49
8611.04
8611.6
8612.16
8612.71
8613.27
8613.82
8614.38
8614.94
8615.49
8616.05
8616.61
8617.16
8617.72
8618.28
8618.83
8619.39
8619.94
8620.5
8621.06
8621.61
8622.17
8622.73
8623.28
8623.84
8624.4
8624.96
8625.51
8626.07
8626.63
8627.18
8627.74
8628.3
8628.86
8629.41
8629.97
8630.53
8631.08
8631.64
8632.2
8632.76
8633.32
8633.87
8634.43
8634.99
8635.55
8636.1
8636.66
8637.22
8637.78
8638.34
8638.89
8639.45
8640.01
8640.57
8641.13
8641.68
8642.24
8642.8
8643.36
8643.92
8644.48
8645.04
8645.59
8646.15
8646.71
8647.27
8647.83
8648.39
8648.95
8649.51
8650.06
8650.62
8651.18
8651.74
8652.3
8652.86
8653.42
8653.98
8654.54
8655.1
8655.66
8656.22
8656.77
8657.33
8657.89
8658.45
8659.01
8659.57
8660.13
8660.69
8661.25
8661.81
8662.37
8662.93
8663.49
8664.05
8664.61
8665.17
8665.73
8666.29
8666.85
8667.41
8667.97
8668.53
8669.09
8669.65
8670.21
8670.78
8671.34
8671.9
8672.46
8673.02
8673.58
8674.14
8674.7
8675.26
8675.82
8676.38
8676.94
8677.51
8678.07
8678.63
8679.19
8679.75
8680.31
8680.87
8681.43
8682
8682.56
8683.12
8683.68
8684.24
8684.8
8685.37
8685.93
8686.49
8687.05
8687.61
8688.17
8688.74
8689.3
8689.86
8690.42
8690.98
8691.55
8692.11
8692.67
8693.23
8693.8
8694.36
8694.92
8695.48
8696.05
8696.61
8697.17
8697.73
8698.3
8698.86
8699.42
8699.98
8700.55
8701.11
8701.67
8702.24
8702.8
8703.36
8703.93
8704.49
8705.05
8705.62
8706.18
8706.74
8707.31
8707.87
8708.43
8709
8709.56
8710.12
8710.69
8711.25
8711.81
8712.38
8712.94
8713.51
8714.07
8714.63
8715.2
8715.76
8716.33
8716.89
8717.45
8718.02
8718.58
8719.15
8719.71
8720.28
8720.84
8721.41
8721.97
8722.53
8723.1
8723.66
8724.23
8724.79
8725.36
8725.92
8726.49
8727.05
8727.62
8728.18
8728.75
8729.31
8729.88
8730.44
8731.01
8731.57
8732.14
8732.7
8733.27
8733.84
8734.4
8734.97
8735.53
8736.1
8736.66
8737.23
8737.8
8738.36
8738.93
8739.49
8740.06
8740.63
8741.19
8741.76
8742.32
8742.89
8743.46
8744.02
8744.59
8745.15
8745.72
8746.29
8746.85
8747.42
8747.99
8748.55
8749.12
8749.69
8750.25
8750.82
8751.39
8751.95
8752.52
8753.09
8753.66
8754.22
8754.79
8755.36
8755.92
8756.49
8757.06
8757.63
8758.19
8758.76
8759.33
8759.9
8760.46
8761.03
8761.6
8762.17
8762.73
8763.3
8763.87
8764.44
8765.01
8765.57
8766.14
8766.71
8767.28
8767.85
8768.41
8768.98
8769.55
8770.12
8770.69
8771.25
8771.82
8772.39
8772.96
8773.53
8774.1
8774.67
8775.23
8775.8
8776.37
8776.94
8777.51
8778.08
8778.65
8779.22
8779.79
8780.36
8780.92
8781.49
8782.06
8782.63
8783.2
8783.77
8784.34
8784.91
8785.48
8786.05
8786.62
8787.19
8787.76
8788.33
8788.9
8789.47
8790.04
8790.61
8791.18
8791.75
8792.32
8792.89
8793.46
8794.03
8794.6
8795.17
8795.74
8796.31
8796.88
8797.45
8798.02
8798.59
8799.16
8799.73
8800.3
8800.87
8801.44
8802.01
8802.58
8803.15
8803.73
8804.3
8804.87
8805.44
8806.01
8806.58
8807.15
8807.72
8808.29
8808.87
8809.44
8810.01
8810.58
8811.15
8811.72
8812.29
8812.87
8813.44
8814.01
8814.58
8815.15
8815.72
8816.3
8816.87
8817.44
8818.01
8818.58
8819.16
8819.73
8820.3
8820.87
8821.45
8822.02
8822.59
8823.16
8823.74
8824.31
8824.88
8825.45
8826.03
8826.6
8827.17
8827.74
8828.32
8828.89
8829.46
8830.03
8830.61
8831.18
8831.75
8832.33
8832.9
8833.47
8834.05
8834.62
8835.19
8835.77
8836.34
8836.91
8837.49
8838.06
8838.63
8839.21
8839.78
8840.36
8840.93
8841.5
8842.08
8842.65
8843.22
8843.8
8844.37
8844.95
8845.52
8846.09
8846.67
8847.24
8847.82
8848.39
8848.97
8849.54
8850.12
8850.69
8851.26
8851.84
8852.41
8852.99
8853.56
8854.14
8854.71
8855.29
8855.86
8856.44
8857.01
8857.59
8858.16
8858.74
8859.31
8859.89
8860.46
8861.04
8861.61
8862.19
8862.76
8863.34
8863.92
8864.49
8865.07
8865.64
8866.22
8866.79
8867.37
8867.95
8868.52
8869.1
8869.67
8870.25
8870.83
8871.4
8871.98
8872.55
8873.13
8873.71
8874.28
8874.86
8875.44
8876.01
8876.59
8877.17
8877.74
8878.32
8878.9
8879.47
8880.05
8880.63
8881.2
8881.78
8882.36
8882.93
8883.51
8884.09
8884.66
8885.24
8885.82
8886.4
8886.97
8887.55
8888.13
8888.71
8889.28
8889.86
8890.44
8891.02
8891.59
8892.17
8892.75
8893.33
8893.9
8894.48
8895.06
8895.64
8896.22
8896.79
8897.37
8897.95
8898.53
8899.11
8899.69
8900.26
8900.84
8901.42
8902
8902.58
8903.16
8903.74
8904.31
8904.89
8905.47
8906.05
8906.63
8907.21
8907.79
8908.37
8908.94
8909.52
8910.1
8910.68
8911.26
8911.84
8912.42
8913
8913.58
8914.16
8914.74
8915.32
8915.9
8916.48
8917.06
8917.63
8918.21
8918.79
8919.37
8919.95
8920.53
8921.11
8921.69
8922.27
8922.85
8923.43
8924.01
8924.59
8925.17
8925.75
8926.34
8926.92
8927.5
8928.08
8928.66
8929.24
8929.82
8930.4
8930.98
8931.56
8932.14
8932.72
8933.3
8933.88
8934.46
8935.05
8935.63
8936.21
8936.79
8937.37
8937.95
8938.53
8939.11
8939.7
8940.28
8940.86
8941.44
8942.02
8942.6
8943.18
8943.77
8944.35
8944.93
8945.51
8946.09
8946.68
8947.26
8947.84
8948.42
8949
8949.59
8950.17
8950.75
8951.33
8951.91
8952.5
8953.08
8953.66
8954.24
8954.83
8955.41
8955.99
8956.57
8957.16
8957.74
8958.32
8958.91
8959.49
8960.07
8960.65
8961.24
8961.82
8962.4
8962.99
8963.57
8964.15
8964.74
8965.32
8965.9
8966.49
8967.07
8967.65
8968.24
8968.82
8969.41
8969.99
8970.57
8971.16
8971.74
8972.32
8972.91
8973.49
8974.08
8974.66
8975.24
8975.83
8976.41
8977
8977.58
8978.17
8978.75
8979.33
8979.92
8980.5
8981.09
8981.67
8982.26
8982.84
8983.43
8984.01
8984.6
8985.18
8985.77
8986.35
8986.94
8987.52
8988.11
8988.69
8989.28
8989.86
8990.45
8991.03
8991.62
8992.2
8992.79
8993.37
8993.96
8994.55
8995.13
8995.72
8996.3
8996.89
8997.47
8998.06
8998.65
8999.23
8999.82
9000.4
9000.99
9001.58
9002.16
9002.75
9003.33
9003.92
9004.51
9005.09
9005.68
9006.27
9006.85
9007.44
9008.03
9008.61
9009.2
9009.79
9010.37
9010.96
9011.55
9012.13
9012.72
9013.31
9013.9
9014.48
9015.07
9015.66
9016.24
9016.83
9017.42
9018.01
9018.59
9019.18
9019.77
9020.36
9020.94
9021.53
9022.12
9022.71
9023.29
9023.88
9024.47
9025.06
9025.65
9026.23
9026.82
9027.41
9028
9028.59
9029.17
9029.76
9030.35
9030.94
9031.53
9032.12
9032.7
9033.29
9033.88
9034.47
9035.06
9035.65
9036.24
9036.83
9037.41
9038
9038.59
9039.18
9039.77
9040.36
9040.95
9041.54
9042.13
9042.72
9043.31
9043.89
9044.48
9045.07
9045.66
9046.25
9046.84
9047.43
9048.02
9048.61
9049.2
9049.79
9050.38
9050.97
9051.56
9052.15
9052.74
9053.33
9053.92
9054.51
9055.1
9055.69
9056.28
9056.87
9057.46
9058.05
9058.64
9059.23
9059.82
9060.41
9061
9061.59
9062.19
9062.78
9063.37
9063.96
9064.55
9065.14
9065.73
9066.32
9066.91
9067.5
9068.1
9068.69
9069.28
9069.87
9070.46
9071.05
9071.64
9072.23
9072.83
9073.42
9074.01
9074.6
9075.19
9075.78
9076.38
9076.97
9077.56
9078.15
9078.74
9079.34
9079.93
9080.52
9081.11
9081.7
9082.3
9082.89
9083.48
9084.07
9084.67
9085.26
9085.85
9086.44
9087.04
9087.63
9088.22
9088.81
9089.41
9090
9090.59
9091.18
9091.78
9092.37
9092.96
9093.56
9094.15
9094.74
9095.34
9095.93
9096.52
9097.12
9097.71
9098.3
9098.9
9099.49
9100.08
9100.68
9101.27
9101.86
9102.46
9103.05
9103.65
9104.24
9104.83
9105.43
9106.02
9106.62
9107.21
9107.8
9108.4
9108.99
9109.59
9110.18
9110.77
9111.37
9111.96
9112.56
9113.15
9113.75
9114.34
9114.94
9115.53
9116.13
9116.72
9117.32
9117.91
9118.51
9119.1
9119.7
9120.29
9120.89
9121.48
9122.08
9122.67
9123.27
9123.86
9124.46
9125.05
9125.65
9126.24
9126.84
9127.44
9128.03
9128.63
9129.22
9129.82
9130.41
9131.01
9131.61
9132.2
9132.8
9133.39
9133.99
9134.59
9135.18
9135.78
9136.37
9136.97
9137.57
9138.16
9138.76
9139.36
9139.95
9140.55
9141.15
9141.74
9142.34
9142.94
9143.53
9144.13
9144.73
9145.32
9145.92
9146.52
9147.12
9147.71
9148.31
9148.91
9149.5
9150.1
9150.7
9151.3
9151.89
9152.49
9153.09
9153.69
9154.28
9154.88
9155.48
9156.08
9156.68
9157.27
9157.87
9158.47
9159.07
9159.67
9160.26
9160.86
9161.46
9162.06
9162.66
9163.25
9163.85
9164.45
9165.05
9165.65
9166.25
9166.85
9167.44
9168.04
9168.64
9169.24
9169.84
9170.44
9171.04
9171.64
9172.24
9172.83
9173.43
9174.03
9174.63
9175.23
9175.83
9176.43
9177.03
9177.63
9178.23
9178.83
9179.43
9180.03
9180.63
9181.23
9181.83
9182.43
9183.03
9183.62
9184.22
9184.82
9185.42
9186.02
9186.62
9187.23
9187.83
9188.43
9189.03
9189.63
9190.23
9190.83
9191.43
9192.03
9192.63
9193.23
9193.83
9194.43
9195.03
9195.63
9196.23
9196.83
9197.43
9198.04
9198.64
9199.24
9199.84
9200.44
9201.04
9201.64
9202.24
9202.84
9203.45
9204.05
9204.65
9205.25
9205.85
9206.45
9207.06
9207.66
9208.26
9208.86
9209.46
9210.06
9210.67
9211.27
9211.87
9212.47
9213.07
9213.68
9214.28
9214.88
9215.48
9216.08
9216.69
9217.29
9217.89
9218.49
9219.1
9219.7
9220.3
9220.91
9221.51
9222.11
9222.71
9223.32
9223.92
9224.52
9225.13
9225.73
9226.33
9226.93
9227.54
9228.14
9228.74
9229.35
9229.95
9230.55
9231.16
9231.76
9232.36
9232.97
9233.57
9234.18
9234.78
9235.38
9235.99
9236.59
9237.19
9237.8
9238.4
9239.01
9239.61
9240.21
9240.82
9241.42
9242.03
9242.63
9243.24
9243.84
9244.44
9245.05
9245.65
9246.26
9246.86
9247.47
9248.07
9248.68
9249.28
9249.89
9250.49
9251.1
9251.7
9252.31
9252.91
9253.52
9254.12
9254.73
9255.33
9255.94
9256.54
9257.15
9257.75
9258.36
9258.97
9259.57
9260.18
9260.78
9261.39
9261.99
9262.6
9263.21
9263.81
9264.42
9265.02
9265.63
9266.24
9266.84
9267.45
9268.05
9268.66
9269.27
9269.87
9270.48
9271.09
9271.69
9272.3
9272.91
9273.51
9274.12
9274.73
9275.33
9275.94
9276.55
9277.15
9277.76
9278.37
9278.97
9279.58
9280.19
9280.79
9281.4
9282.01
9282.62
9283.22
9283.83
9284.44
9285.05
9285.65
9286.26
9286.87
9287.48
9288.08
9288.69
9289.3
9289.91
9290.52
9291.12
9291.73
9292.34
9292.95
9293.56
9294.16
9294.77
9295.38
9295.99
9296.6
9297.21
9297.81
9298.42
9299.03
9299.64
9300.25
9300.86
9301.47
9302.08
9302.68
9303.29
9303.9
9304.51
9305.12
9305.73
9306.34
9306.95
9307.56
9308.17
9308.77
9309.38
9309.99
9310.6
9311.21
9311.82
9312.43
9313.04
9313.65
9314.26
9314.87
9315.48
9316.09
9316.7
9317.31
9317.92
9318.53
9319.14
9319.75
9320.36
9320.97
9321.58
9322.19
9322.8
9323.41
9324.02
9324.63
9325.24
9325.85
9326.46
9327.07
9327.69
9328.3
9328.91
9329.52
9330.13
9330.74
9331.35
9331.96
9332.57
9333.18
9333.79
9334.41
9335.02
9335.63
9336.24
9336.85
9337.46
9338.07
9338.69
9339.3
9339.91
9340.52
9341.13
9341.74
9342.36
9342.97
9343.58
9344.19
9344.8
9345.42
9346.03
9346.64
9347.25
9347.86
9348.48
9349.09
9349.7
9350.31
9350.93
9351.54
9352.15
9352.76
9353.38
9353.99
9354.6
9355.21
9355.83
9356.44
9357.05
9357.67
9358.28
9358.89
9359.5
9360.12
9360.73
9361.34
9361.96
9362.57
9363.18
9363.8
9364.41
9365.02
9365.64
9366.25
9366.87
9367.48
9368.09
9368.71
9369.32
9369.93
9370.55
9371.16
9371.78
9372.39
9373
9373.62
9374.23
9374.85
9375.46
9376.08
9376.69
9377.3
9377.92
9378.53
9379.15
9379.76
9380.38
9380.99
9381.61
9382.22
9382.84
9383.45
9384.07
9384.68
9385.3
9385.91
9386.53
9387.14
9387.76
9388.37
9388.99
9389.6
9390.22
9390.83
9391.45
9392.06
9392.68
9393.3
9393.91
9394.53
9395.14
9395.76
9396.37
9396.99
9397.61
9398.22
9398.84
9399.45
9400.07
9400.69
9401.3
9401.92
9402.54
9403.15
9403.77
9404.38
9405
9405.62
9406.23
9406.85
9407.47
9408.08
9408.7
9409.32
9409.93
9410.55
9411.17
9411.79
9412.4
9413.02
9413.64
9414.25
9414.87
9415.49
9416.11
9416.72
9417.34
9417.96
9418.58
9419.19
9419.81
9420.43
9421.05
9421.66
9422.28
9422.9
9423.52
9424.14
9424.75
9425.37
9425.99
9426.61
9427.23
9427.84
9428.46
9429.08
9429.7
9430.32
9430.94
9431.55
9432.17
9432.79
9433.41
9434.03
9434.65
9435.27
9435.88
9436.5
9437.12
9437.74
9438.36
9438.98
9439.6
9440.22
9440.84
9441.46
9442.08
9442.69
9443.31
9443.93
9444.55
9445.17
9445.79
9446.41
9447.03
9447.65
9448.27
9448.89
9449.51
9450.13
9450.75
9451.37
9451.99
9452.61
9453.23
9453.85
9454.47
9455.09
9455.71
9456.33
9456.95
9457.57
9458.19
9458.81
9459.43
9460.06
9460.68
9461.3
9461.92
9462.54
9463.16
9463.78
9464.4
9465.02
9465.64
9466.26
9466.89
9467.51
9468.13
9468.75
9469.37
9469.99
9470.61
9471.24
9471.86
9472.48
9473.1
9473.72
9474.34
9474.97
9475.59
9476.21
9476.83
9477.45
9478.08
9478.7
9479.32
9479.94
9480.56
9481.19
9481.81
9482.43
9483.05
9483.68
9484.3
9484.92
9485.54
9486.17
9486.79
9487.41
9488.03
9488.66
9489.28
9489.9
9490.53
9491.15
9491.77
9492.4
9493.02
9493.64
9494.27
9494.89
9495.51
9496.14
9496.76
9497.38
9498.01
9498.63
9499.25
9499.88
9500.5
9501.13
9501.75
9502.37
9503
9503.62
9504.24
9504.87
9505.49
9506.12
9506.74
9507.37
9507.99
9508.61
9509.24
9509.86
9510.49
9511.11
9511.74
9512.36
9512.99
9513.61
9514.24
9514.86
9515.49
9516.11
9516.74
9517.36
9517.99
9518.61
9519.24
9519.86
9520.49
9521.11
9521.74
9522.36
9522.99
9523.61
9524.24
9524.87
9525.49
9526.12
9526.74
9527.37
9527.99
9528.62
9529.25
9529.87
9530.5
9531.12
9531.75
9532.38
9533
9533.63
9534.25
9534.88
9535.51
9536.13
9536.76
9537.39
9538.01
9538.64
9539.27
9539.89
9540.52
9541.15
9541.77
9542.4
9543.03
9543.65
9544.28
9544.91
9545.53
9546.16
9546.79
9547.42
9548.04
9548.67
9549.3
9549.93
9550.55
9551.18
9551.81
9552.44
9553.06
9553.69
9554.32
9554.95
9555.57
9556.2
9556.83
9557.46
9558.08
9558.71
9559.34
9559.97
9560.6
9561.22
9561.85
9562.48
9563.11
9563.74
9564.37
9564.99
9565.62
9566.25
9566.88
9567.51
9568.14
9568.77
9569.39
9570.02
9570.65
9571.28
9571.91
9572.54
9573.17
9573.8
9574.43
9575.06
9575.68
9576.31
9576.94
9577.57
9578.2
9578.83
9579.46
9580.09
9580.72
9581.35
9581.98
9582.61
9583.24
9583.87
9584.5
9585.13
9585.76
9586.39
9587.02
9587.65
9588.28
9588.91
9589.54
9590.17
9590.8
9591.43
9592.06
9592.69
9593.32
9593.95
9594.58
9595.21
9595.84
9596.47
9597.1
9597.73
9598.37
9599
9599.63
9600.26
9600.89
9601.52
9602.15
9602.78
9603.41
9604.05
9604.68
9605.31
9605.94
9606.57
9607.2
9607.83
9608.47
9609.1
9609.73
9610.36
9610.99
9611.62
9612.26
9612.89
9613.52
9614.15
9614.78
9615.42
9616.05
9616.68
9617.31
9617.95
9618.58
9619.21
9619.84
9620.48
9621.11
9621.74
9622.37
9623.01
9623.64
9624.27
9624.9
9625.54
9626.17
9626.8
9627.44
9628.07
9628.7
9629.34
9629.97
9630.6
9631.24
9631.87
9632.5
9633.14
9633.77
9634.4
9635.04
9635.67
9636.3
9636.94
9637.57
9638.21
9638.84
9639.47
9640.11
9640.74
9641.38
9642.01
9642.64
9643.28
9643.91
9644.55
9645.18
9645.82
9646.45
9647.08
9647.72
9648.35
9648.99
9649.62
9650.26
9650.89
9651.53
9652.16
9652.8
9653.43
9654.07
9654.7
9655.34
9655.97
9656.61
9657.24
9657.88
9658.51
9659.15
9659.78
9660.42
9661.06
9661.69
9662.33
9662.96
9663.6
9664.23
9664.87
9665.51
9666.14
9666.78
9667.41
9668.05
9668.69
9669.32
9669.96
9670.6
9671.23
9671.87
9672.5
9673.14
9673.78
9674.41
9675.05
9675.69
9676.32
9676.96
9677.6
9678.23
9678.87
9679.51
9680.14
9680.78
9681.42
9682.06
9682.69
9683.33
9683.97
9684.6
9685.24
9685.88
9686.52
9687.15
9687.79
9688.43
9689.07
9689.7
9690.34
9690.98
9691.62
9692.26
9692.89
9693.53
9694.17
9694.81
9695.45
9696.08
9696.72
9697.36
9698
9698.64
9699.28
9699.91
9700.55
9701.19
9701.83
9702.47
9703.11
9703.75
9704.38
9705.02
9705.66
9706.3
9706.94
9707.58
9708.22
9708.86
9709.5
9710.13
9710.77
9711.41
9712.05
9712.69
9713.33
9713.97
9714.61
9715.25
9715.89
9716.53
9717.17
9717.81
9718.45
9719.09
9719.73
9720.37
9721.01
9721.65
9722.29
9722.93
9723.57
9724.21
9724.85
9725.49
9726.13
9726.77
9727.41
9728.05
9728.69
9729.33
9729.97
9730.61
9731.25
9731.89
9732.54
9733.18
9733.82
9734.46
9735.1
9735.74
9736.38
9737.02
9737.66
9738.3
9738.95
9739.59
9740.23
9740.87
9741.51
9742.15
9742.79
9743.44
9744.08
9744.72
9745.36
9746
9746.65
9747.29
9747.93
9748.57
9749.21
9749.86
9750.5
9751.14
9751.78
9752.42
9753.07
9753.71
9754.35
9754.99
9755.64
9756.28
9756.92
9757.56
9758.21
9758.85
9759.49
9760.14
9760.78
9761.42
9762.06
9762.71
9763.35
9763.99
9764.64
9765.28
9765.92
9766.57
9767.21
9767.85
9768.5
9769.14
9769.78
9770.43
9771.07
9771.72
9772.36
9773
9773.65
9774.29
9774.93
9775.58
9776.22
9776.87
9777.51
9778.15
9778.8
9779.44
9780.09
9780.73
9781.38
9782.02
9782.67
9783.31
9783.96
9784.6
9785.24
9785.89
9786.53
9787.18
9787.82
9788.47
9789.11
9789.76
9790.4
9791.05
9791.69
9792.34
9792.99
9793.63
9794.28
9794.92
9795.57
9796.21
9796.86
9797.5
9798.15
9798.8
9799.44
9800.09
9800.73
9801.38
9802.02
9802.67
9803.32
9803.96
9804.61
9805.26
9805.9
9806.55
9807.19
9807.84
9808.49
9809.13
9809.78
9810.43
9811.07
9811.72
9812.37
9813.01
9813.66
9814.31
9814.96
9815.6
9816.25
9816.9
9817.54
9818.19
9818.84
9819.49
9820.13
9820.78
9821.43
9822.07
9822.72
9823.37
9824.02
9824.67
9825.31
9825.96
9826.61
9827.26
9827.9
9828.55
9829.2
9829.85
9830.5
9831.14
9831.79
9832.44
9833.09
9833.74
9834.39
9835.04
9835.68
9836.33
9836.98
9837.63
9838.28
9838.93
9839.58
9840.22
9840.87
9841.52
9842.17
9842.82
9843.47
9844.12
9844.77
9845.42
9846.07
9846.72
9847.36
9848.01
9848.66
9849.31
9849.96
9850.61
9851.26
9851.91
9852.56
9853.21
9853.86
9854.51
9855.16
9855.81
9856.46
9857.11
9857.76
9858.41
9859.06
9859.71
9860.36
9861.01
9861.66
9862.31
9862.96
9863.62
9864.27
9864.92
9865.57
9866.22
9866.87
9867.52
9868.17
9868.82
9869.47
9870.12
9870.77
9871.43
9872.08
9872.73
9873.38
9874.03
9874.68
9875.33
9875.99
9876.64
9877.29
9877.94
9878.59
9879.24
9879.9
9880.55
9881.2
9881.85
9882.5
9883.15
9883.81
9884.46
9885.11
9885.76
9886.42
9887.07
9887.72
9888.37
9889.03
9889.68
9890.33
9890.98
9891.64
9892.29
9892.94
9893.59
9894.25
9894.9
9895.55
9896.21
9896.86
9897.51
9898.16
9898.82
9899.47
9900.12
9900.78
9901.43
9902.08
9902.74
9903.39
9904.05
9904.7
9905.35
9906.01
9906.66
9907.31
9907.97
9908.62
9909.28
9909.93
9910.58
9911.24
9911.89
9912.55
9913.2
9913.85
9914.51
9915.16
9915.82
9916.47
9917.13
9917.78
9918.44
9919.09
9919.75
9920.4
9921.05
9921.71
9922.36
9923.02
9923.67
9924.33
9924.98
9925.64
9926.3
9926.95
9927.61
9928.26
9928.92
9929.57
9930.23
9930.88
9931.54
9932.19
9932.85
9933.51
9934.16
9934.82
9935.47
9936.13
9936.79
9937.44
9938.1
9938.75
9939.41
9940.07
9940.72
9941.38
9942.03
9942.69
9943.35
9944
9944.66
9945.32
9945.97
9946.63
9947.29
9947.94
9948.6
9949.26
9949.92
9950.57
9951.23
9951.89
9952.54
9953.2
9953.86
9954.52
9955.17
9955.83
9956.49
9957.14
9957.8
9958.46
9959.12
9959.78
9960.43
9961.09
9961.75
9962.41
9963.06
9963.72
9964.38
9965.04
9965.7
9966.35
9967.01
9967.67
9968.33
9968.99
9969.65
9970.3
9970.96
9971.62
9972.28
9972.94
9973.6
9974.26
9974.92
9975.57
9976.23
9976.89
9977.55
9978.21
9978.87
9979.53
9980.19
9980.85
9981.51
9982.17
9982.82
9983.48
9984.14
9984.8
9985.46
9986.12
9986.78
9987.44
9988.1
9988.76
9989.42
9990.08
9990.74
9991.4
9992.06
9992.72
9993.38
9994.04
9994.7