/*--------------------------------*- C++ -*----------------------------------*\
  =========                 |
  \\      /  F ield         | OpenFOAM: The Open Source CFD Toolbox
   \\    /   O peration     | Website:  https://openfoam.org
    \\  /    A nd           | Version:  9
     \\/     M anipulation  |
\*---------------------------------------------------------------------------*/
FoamFile
{
    format      ascii;
    class       volVectorField;
    location    "0.048";
    object      U;
}
// * * * * * * * * * * * * * * * * * * * * * * * * * * * * * * * * * * * * * //

dimensions      [0 1 -1 0 0 0 0];

internalField   nonuniform List<vector> 
10000
(
(7.07387 0 0)
(7.10086 0 0)
(7.1335 0 0)
(7.16045 0 0)
(7.18423 0 0)
(7.20787 0 0)
(7.2321 0 0)
(7.25657 0 0)
(7.28104 0 0)
(7.30545 0 0)
(7.32984 0 0)
(7.35423 0 0)
(7.37863 0 0)
(7.40302 0 0)
(7.42742 0 0)
(7.45182 0 0)
(7.47622 0 0)
(7.50061 0 0)
(7.52501 0 0)
(7.54941 0 0)
(7.5738 0 0)
(7.5982 0 0)
(7.62259 0 0)
(7.64699 0 0)
(7.67139 0 0)
(7.69578 0 0)
(7.72018 0 0)
(7.74457 0 0)
(7.76897 0 0)
(7.79336 0 0)
(7.81775 0 0)
(7.84215 0 0)
(7.86654 0 0)
(7.89093 0 0)
(7.91533 0 0)
(7.93972 0 0)
(7.96411 0 0)
(7.9885 0 0)
(8.0129 0 0)
(8.03729 0 0)
(8.06168 0 0)
(8.08607 0 0)
(8.11046 0 0)
(8.13485 0 0)
(8.15924 0 0)
(8.18363 0 0)
(8.20802 0 0)
(8.23241 0 0)
(8.2568 0 0)
(8.28118 0 0)
(8.30557 0 0)
(8.32996 0 0)
(8.35435 0 0)
(8.37873 0 0)
(8.40312 0 0)
(8.4275 0 0)
(8.45189 0 0)
(8.47627 0 0)
(8.50066 0 0)
(8.52504 0 0)
(8.54942 0 0)
(8.57381 0 0)
(8.59819 0 0)
(8.62257 0 0)
(8.64695 0 0)
(8.67133 0 0)
(8.69571 0 0)
(8.72009 0 0)
(8.74447 0 0)
(8.76885 0 0)
(8.79323 0 0)
(8.81761 0 0)
(8.84198 0 0)
(8.86636 0 0)
(8.89074 0 0)
(8.91511 0 0)
(8.93949 0 0)
(8.96386 0 0)
(8.98823 0 0)
(9.01261 0 0)
(9.03698 0 0)
(9.06135 0 0)
(9.08572 0 0)
(9.11009 0 0)
(9.13446 0 0)
(9.15883 0 0)
(9.1832 0 0)
(9.20757 0 0)
(9.23193 0 0)
(9.2563 0 0)
(9.28067 0 0)
(9.30503 0 0)
(9.3294 0 0)
(9.35376 0 0)
(9.37812 0 0)
(9.40248 0 0)
(9.42685 0 0)
(9.45121 0 0)
(9.47557 0 0)
(9.49993 0 0)
(9.52428 0 0)
(9.54864 0 0)
(9.573 0 0)
(9.59735 0 0)
(9.62171 0 0)
(9.64606 0 0)
(9.67042 0 0)
(9.69477 0 0)
(9.71912 0 0)
(9.74347 0 0)
(9.76782 0 0)
(9.79217 0 0)
(9.81652 0 0)
(9.84087 0 0)
(9.86522 0 0)
(9.88956 0 0)
(9.91391 0 0)
(9.93825 0 0)
(9.96259 0 0)
(9.98694 0 0)
(10.0113 0 0)
(10.0356 0 0)
(10.06 0 0)
(10.0843 0 0)
(10.1086 0 0)
(10.133 0 0)
(10.1573 0 0)
(10.1816 0 0)
(10.206 0 0)
(10.2303 0 0)
(10.2546 0 0)
(10.279 0 0)
(10.3033 0 0)
(10.3276 0 0)
(10.352 0 0)
(10.3763 0 0)
(10.4006 0 0)
(10.4249 0 0)
(10.4492 0 0)
(10.4736 0 0)
(10.4979 0 0)
(10.5222 0 0)
(10.5465 0 0)
(10.5708 0 0)
(10.5952 0 0)
(10.6195 0 0)
(10.6438 0 0)
(10.6681 0 0)
(10.6924 0 0)
(10.7167 0 0)
(10.741 0 0)
(10.7653 0 0)
(10.7896 0 0)
(10.814 0 0)
(10.8383 0 0)
(10.8626 0 0)
(10.8869 0 0)
(10.9112 0 0)
(10.9355 0 0)
(10.9598 0 0)
(10.9841 0 0)
(11.0084 0 0)
(11.0326 0 0)
(11.0569 0 0)
(11.0812 0 0)
(11.1055 0 0)
(11.1298 0 0)
(11.1541 0 0)
(11.1784 0 0)
(11.2027 0 0)
(11.227 0 0)
(11.2512 0 0)
(11.2755 0 0)
(11.2998 0 0)
(11.3241 0 0)
(11.3483 0 0)
(11.3726 0 0)
(11.3969 0 0)
(11.4212 0 0)
(11.4454 0 0)
(11.4697 0 0)
(11.494 0 0)
(11.5182 0 0)
(11.5425 0 0)
(11.5668 0 0)
(11.591 0 0)
(11.6153 0 0)
(11.6395 0 0)
(11.6638 0 0)
(11.6881 0 0)
(11.7123 0 0)
(11.7366 0 0)
(11.7608 0 0)
(11.7851 0 0)
(11.8093 0 0)
(11.8335 0 0)
(11.8578 0 0)
(11.882 0 0)
(11.9063 0 0)
(11.9305 0 0)
(11.9547 0 0)
(11.979 0 0)
(12.0032 0 0)
(12.0274 0 0)
(12.0517 0 0)
(12.0759 0 0)
(12.1001 0 0)
(12.1244 0 0)
(12.1486 0 0)
(12.1728 0 0)
(12.197 0 0)
(12.2212 0 0)
(12.2454 0 0)
(12.2697 0 0)
(12.2939 0 0)
(12.3181 0 0)
(12.3423 0 0)
(12.3665 0 0)
(12.3907 0 0)
(12.4149 0 0)
(12.4391 0 0)
(12.4633 0 0)
(12.4875 0 0)
(12.5117 0 0)
(12.5359 0 0)
(12.5601 0 0)
(12.5843 0 0)
(12.6084 0 0)
(12.6326 0 0)
(12.6568 0 0)
(12.681 0 0)
(12.7052 0 0)
(12.7293 0 0)
(12.7535 0 0)
(12.7777 0 0)
(12.8019 0 0)
(12.826 0 0)
(12.8502 0 0)
(12.8744 0 0)
(12.8985 0 0)
(12.9227 0 0)
(12.9468 0 0)
(12.971 0 0)
(12.9951 0 0)
(13.0193 0 0)
(13.0434 0 0)
(13.0676 0 0)
(13.0917 0 0)
(13.1159 0 0)
(13.14 0 0)
(13.1641 0 0)
(13.1883 0 0)
(13.2124 0 0)
(13.2365 0 0)
(13.2607 0 0)
(13.2848 0 0)
(13.3089 0 0)
(13.333 0 0)
(13.3571 0 0)
(13.3813 0 0)
(13.4054 0 0)
(13.4295 0 0)
(13.4536 0 0)
(13.4777 0 0)
(13.5018 0 0)
(13.5259 0 0)
(13.55 0 0)
(13.5741 0 0)
(13.5982 0 0)
(13.6223 0 0)
(13.6463 0 0)
(13.6704 0 0)
(13.6945 0 0)
(13.7186 0 0)
(13.7427 0 0)
(13.7667 0 0)
(13.7908 0 0)
(13.8149 0 0)
(13.8389 0 0)
(13.863 0 0)
(13.8871 0 0)
(13.9111 0 0)
(13.9352 0 0)
(13.9592 0 0)
(13.9833 0 0)
(14.0073 0 0)
(14.0314 0 0)
(14.0554 0 0)
(14.0794 0 0)
(14.1035 0 0)
(14.1275 0 0)
(14.1515 0 0)
(14.1755 0 0)
(14.1996 0 0)
(14.2236 0 0)
(14.2476 0 0)
(14.2716 0 0)
(14.2956 0 0)
(14.3196 0 0)
(14.3436 0 0)
(14.3676 0 0)
(14.3916 0 0)
(14.4156 0 0)
(14.4396 0 0)
(14.4636 0 0)
(14.4876 0 0)
(14.5116 0 0)
(14.5355 0 0)
(14.5595 0 0)
(14.5835 0 0)
(14.6075 0 0)
(14.6314 0 0)
(14.6554 0 0)
(14.6793 0 0)
(14.7033 0 0)
(14.7272 0 0)
(14.7512 0 0)
(14.7751 0 0)
(14.7991 0 0)
(14.823 0 0)
(14.847 0 0)
(14.8709 0 0)
(14.8948 0 0)
(14.9187 0 0)
(14.9427 0 0)
(14.9666 0 0)
(14.9905 0 0)
(15.0144 0 0)
(15.0383 0 0)
(15.0622 0 0)
(15.0861 0 0)
(15.11 0 0)
(15.1339 0 0)
(15.1578 0 0)
(15.1817 0 0)
(15.2055 0 0)
(15.2294 0 0)
(15.2533 0 0)
(15.2772 0 0)
(15.301 0 0)
(15.3249 0 0)
(15.3487 0 0)
(15.3726 0 0)
(15.3964 0 0)
(15.4203 0 0)
(15.4441 0 0)
(15.468 0 0)
(15.4918 0 0)
(15.5156 0 0)
(15.5395 0 0)
(15.5633 0 0)
(15.5871 0 0)
(15.6109 0 0)
(15.6347 0 0)
(15.6585 0 0)
(15.6823 0 0)
(15.7061 0 0)
(15.7299 0 0)
(15.7537 0 0)
(15.7775 0 0)
(15.8013 0 0)
(15.825 0 0)
(15.8488 0 0)
(15.8726 0 0)
(15.8963 0 0)
(15.9201 0 0)
(15.9438 0 0)
(15.9676 0 0)
(15.9913 0 0)
(16.0151 0 0)
(16.0388 0 0)
(16.0625 0 0)
(16.0862 0 0)
(16.11 0 0)
(16.1337 0 0)
(16.1574 0 0)
(16.1811 0 0)
(16.2048 0 0)
(16.2285 0 0)
(16.2522 0 0)
(16.2759 0 0)
(16.2996 0 0)
(16.3232 0 0)
(16.3469 0 0)
(16.3706 0 0)
(16.3942 0 0)
(16.4179 0 0)
(16.4415 0 0)
(16.4652 0 0)
(16.4888 0 0)
(16.5125 0 0)
(16.5361 0 0)
(16.5597 0 0)
(16.5833 0 0)
(16.607 0 0)
(16.6306 0 0)
(16.6542 0 0)
(16.6778 0 0)
(16.7014 0 0)
(16.725 0 0)
(16.7485 0 0)
(16.7721 0 0)
(16.7957 0 0)
(16.8193 0 0)
(16.8428 0 0)
(16.8664 0 0)
(16.8899 0 0)
(16.9135 0 0)
(16.937 0 0)
(16.9605 0 0)
(16.9841 0 0)
(17.0076 0 0)
(17.0311 0 0)
(17.0546 0 0)
(17.0781 0 0)
(17.1016 0 0)
(17.1251 0 0)
(17.1486 0 0)
(17.1721 0 0)
(17.1956 0 0)
(17.219 0 0)
(17.2425 0 0)
(17.2659 0 0)
(17.2894 0 0)
(17.3128 0 0)
(17.3363 0 0)
(17.3597 0 0)
(17.3831 0 0)
(17.4066 0 0)
(17.43 0 0)
(17.4534 0 0)
(17.4768 0 0)
(17.5002 0 0)
(17.5236 0 0)
(17.5469 0 0)
(17.5703 0 0)
(17.5937 0 0)
(17.617 0 0)
(17.6404 0 0)
(17.6637 0 0)
(17.6871 0 0)
(17.7104 0 0)
(17.7337 0 0)
(17.7571 0 0)
(17.7804 0 0)
(17.8037 0 0)
(17.827 0 0)
(17.8503 0 0)
(17.8736 0 0)
(17.8968 0 0)
(17.9201 0 0)
(17.9434 0 0)
(17.9666 0 0)
(17.9899 0 0)
(18.0131 0 0)
(18.0363 0 0)
(18.0596 0 0)
(18.0828 0 0)
(18.106 0 0)
(18.1292 0 0)
(18.1524 0 0)
(18.1756 0 0)
(18.1988 0 0)
(18.222 0 0)
(18.2451 0 0)
(18.2683 0 0)
(18.2914 0 0)
(18.3146 0 0)
(18.3377 0 0)
(18.3608 0 0)
(18.384 0 0)
(18.4071 0 0)
(18.4302 0 0)
(18.4533 0 0)
(18.4764 0 0)
(18.4994 0 0)
(18.5225 0 0)
(18.5456 0 0)
(18.5686 0 0)
(18.5917 0 0)
(18.6147 0 0)
(18.6377 0 0)
(18.6608 0 0)
(18.6838 0 0)
(18.7068 0 0)
(18.7298 0 0)
(18.7527 0 0)
(18.7757 0 0)
(18.7987 0 0)
(18.8216 0 0)
(18.8446 0 0)
(18.8675 0 0)
(18.8905 0 0)
(18.9134 0 0)
(18.9363 0 0)
(18.9592 0 0)
(18.9821 0 0)
(19.005 0 0)
(19.0279 0 0)
(19.0507 0 0)
(19.0736 0 0)
(19.0964 0 0)
(19.1193 0 0)
(19.1421 0 0)
(19.1649 0 0)
(19.1877 0 0)
(19.2105 0 0)
(19.2333 0 0)
(19.2561 0 0)
(19.2789 0 0)
(19.3017 0 0)
(19.3244 0 0)
(19.3471 0 0)
(19.3699 0 0)
(19.3926 0 0)
(19.4153 0 0)
(19.438 0 0)
(19.4607 0 0)
(19.4834 0 0)
(19.506 0 0)
(19.5287 0 0)
(19.5514 0 0)
(19.574 0 0)
(19.5966 0 0)
(19.6192 0 0)
(19.6418 0 0)
(19.6644 0 0)
(19.687 0 0)
(19.7096 0 0)
(19.7321 0 0)
(19.7547 0 0)
(19.7772 0 0)
(19.7998 0 0)
(19.8223 0 0)
(19.8448 0 0)
(19.8673 0 0)
(19.8898 0 0)
(19.9122 0 0)
(19.9347 0 0)
(19.9571 0 0)
(19.9796 0 0)
(20.002 0 0)
(20.0244 0 0)
(20.0468 0 0)
(20.0692 0 0)
(20.0916 0 0)
(20.1139 0 0)
(20.1363 0 0)
(20.1586 0 0)
(20.1809 0 0)
(20.2033 0 0)
(20.2256 0 0)
(20.2478 0 0)
(20.2701 0 0)
(20.2924 0 0)
(20.3146 0 0)
(20.3369 0 0)
(20.3591 0 0)
(20.3813 0 0)
(20.4035 0 0)
(20.4257 0 0)
(20.4479 0 0)
(20.47 0 0)
(20.4922 0 0)
(20.5143 0 0)
(20.5364 0 0)
(20.5585 0 0)
(20.5806 0 0)
(20.6027 0 0)
(20.6248 0 0)
(20.6468 0 0)
(20.6688 0 0)
(20.6909 0 0)
(20.7129 0 0)
(20.7349 0 0)
(20.7568 0 0)
(20.7788 0 0)
(20.8008 0 0)
(20.8227 0 0)
(20.8446 0 0)
(20.8665 0 0)
(20.8884 0 0)
(20.9103 0 0)
(20.9322 0 0)
(20.954 0 0)
(20.9758 0 0)
(20.9977 0 0)
(21.0195 0 0)
(21.0413 0 0)
(21.063 0 0)
(21.0848 0 0)
(21.1065 0 0)
(21.1282 0 0)
(21.15 0 0)
(21.1716 0 0)
(21.1933 0 0)
(21.215 0 0)
(21.2366 0 0)
(21.2583 0 0)
(21.2799 0 0)
(21.3015 0 0)
(21.3231 0 0)
(21.3446 0 0)
(21.3662 0 0)
(21.3877 0 0)
(21.4092 0 0)
(21.4307 0 0)
(21.4522 0 0)
(21.4737 0 0)
(21.4951 0 0)
(21.5165 0 0)
(21.5379 0 0)
(21.5593 0 0)
(21.5807 0 0)
(21.6021 0 0)
(21.6234 0 0)
(21.6447 0 0)
(21.666 0 0)
(21.6873 0 0)
(21.7086 0 0)
(21.7299 0 0)
(21.7511 0 0)
(21.7723 0 0)
(21.7935 0 0)
(21.8147 0 0)
(21.8358 0 0)
(21.857 0 0)
(21.8781 0 0)
(21.8992 0 0)
(21.9203 0 0)
(21.9414 0 0)
(21.9624 0 0)
(21.9834 0 0)
(22.0044 0 0)
(22.0254 0 0)
(22.0464 0 0)
(22.0673 0 0)
(22.0883 0 0)
(22.1092 0 0)
(22.1301 0 0)
(22.1509 0 0)
(22.1718 0 0)
(22.1926 0 0)
(22.2134 0 0)
(22.2342 0 0)
(22.255 0 0)
(22.2757 0 0)
(22.2965 0 0)
(22.3172 0 0)
(22.3378 0 0)
(22.3585 0 0)
(22.3792 0 0)
(22.3998 0 0)
(22.4204 0 0)
(22.441 0 0)
(22.4615 0 0)
(22.482 0 0)
(22.5026 0 0)
(22.523 0 0)
(22.5435 0 0)
(22.564 0 0)
(22.5844 0 0)
(22.6048 0 0)
(22.6252 0 0)
(22.6455 0 0)
(22.6659 0 0)
(22.6862 0 0)
(22.7065 0 0)
(22.7267 0 0)
(22.747 0 0)
(22.7672 0 0)
(22.7874 0 0)
(22.8076 0 0)
(22.8277 0 0)
(22.8478 0 0)
(22.8679 0 0)
(22.888 0 0)
(22.9081 0 0)
(22.9281 0 0)
(22.9481 0 0)
(22.9681 0 0)
(22.9881 0 0)
(23.008 0 0)
(23.0279 0 0)
(23.0478 0 0)
(23.0676 0 0)
(23.0875 0 0)
(23.1073 0 0)
(23.1271 0 0)
(23.1468 0 0)
(23.1666 0 0)
(23.1863 0 0)
(23.206 0 0)
(23.2256 0 0)
(23.2453 0 0)
(23.2649 0 0)
(23.2844 0 0)
(23.304 0 0)
(23.3235 0 0)
(23.343 0 0)
(23.3625 0 0)
(23.382 0 0)
(23.4014 0 0)
(23.4208 0 0)
(23.4401 0 0)
(23.4595 0 0)
(23.4788 0 0)
(23.4981 0 0)
(23.5174 0 0)
(23.5366 0 0)
(23.5558 0 0)
(23.575 0 0)
(23.5941 0 0)
(23.6133 0 0)
(23.6324 0 0)
(23.6514 0 0)
(23.6705 0 0)
(23.6895 0 0)
(23.7085 0 0)
(23.7274 0 0)
(23.7464 0 0)
(23.7653 0 0)
(23.7841 0 0)
(23.803 0 0)
(23.8218 0 0)
(23.8406 0 0)
(23.8593 0 0)
(23.8781 0 0)
(23.8967 0 0)
(23.9154 0 0)
(23.9341 0 0)
(23.9527 0 0)
(23.9713 0 0)
(23.9898 0 0)
(24.0083 0 0)
(24.0268 0 0)
(24.0453 0 0)
(24.0637 0 0)
(24.0821 0 0)
(24.1005 0 0)
(24.1188 0 0)
(24.1371 0 0)
(24.1554 0 0)
(24.1737 0 0)
(24.1919 0 0)
(24.2101 0 0)
(24.2283 0 0)
(24.2464 0 0)
(24.2645 0 0)
(24.2826 0 0)
(24.3006 0 0)
(24.3186 0 0)
(24.3366 0 0)
(24.3545 0 0)
(24.3724 0 0)
(24.3903 0 0)
(24.4082 0 0)
(24.426 0 0)
(24.4438 0 0)
(24.4615 0 0)
(24.4792 0 0)
(24.4969 0 0)
(24.5146 0 0)
(24.5322 0 0)
(24.5498 0 0)
(24.5674 0 0)
(24.5849 0 0)
(24.6024 0 0)
(24.6199 0 0)
(24.6373 0 0)
(24.6548 0 0)
(24.6721 0 0)
(24.6895 0 0)
(24.7068 0 0)
(24.7241 0 0)
(24.7413 0 0)
(24.7585 0 0)
(24.7757 0 0)
(24.7928 0 0)
(24.81 0 0)
(24.827 0 0)
(24.8441 0 0)
(24.8611 0 0)
(24.8781 0 0)
(24.8951 0 0)
(24.912 0 0)
(24.9289 0 0)
(24.9457 0 0)
(24.9625 0 0)
(24.9793 0 0)
(24.9961 0 0)
(25.0128 0 0)
(25.0295 0 0)
(25.0462 0 0)
(25.0628 0 0)
(25.0794 0 0)
(25.096 0 0)
(25.1125 0 0)
(25.129 0 0)
(25.1454 0 0)
(25.1619 0 0)
(25.1783 0 0)
(25.1946 0 0)
(25.211 0 0)
(25.2273 0 0)
(25.2435 0 0)
(25.2598 0 0)
(25.276 0 0)
(25.2921 0 0)
(25.3083 0 0)
(25.3244 0 0)
(25.3405 0 0)
(25.3565 0 0)
(25.3725 0 0)
(25.3885 0 0)
(25.4044 0 0)
(25.4203 0 0)
(25.4362 0 0)
(25.4521 0 0)
(25.4679 0 0)
(25.4837 0 0)
(25.4994 0 0)
(25.5151 0 0)
(25.5308 0 0)
(25.5465 0 0)
(25.5621 0 0)
(25.5777 0 0)
(25.5933 0 0)
(25.6088 0 0)
(25.6243 0 0)
(25.6397 0 0)
(25.6552 0 0)
(25.6706 0 0)
(25.686 0 0)
(25.7013 0 0)
(25.7166 0 0)
(25.7319 0 0)
(25.7471 0 0)
(25.7623 0 0)
(25.7775 0 0)
(25.7927 0 0)
(25.8078 0 0)
(25.8229 0 0)
(25.838 0 0)
(25.853 0 0)
(25.868 0 0)
(25.883 0 0)
(25.8979 0 0)
(25.9128 0 0)
(25.9277 0 0)
(25.9426 0 0)
(25.9574 0 0)
(25.9722 0 0)
(25.987 0 0)
(26.0017 0 0)
(26.0164 0 0)
(26.0311 0 0)
(26.0457 0 0)
(26.0604 0 0)
(26.075 0 0)
(26.0895 0 0)
(26.1041 0 0)
(26.1186 0 0)
(26.1331 0 0)
(26.1475 0 0)
(26.1619 0 0)
(26.1763 0 0)
(26.1907 0 0)
(26.2051 0 0)
(26.2194 0 0)
(26.2337 0 0)
(26.2479 0 0)
(26.2622 0 0)
(26.2764 0 0)
(26.2906 0 0)
(26.3047 0 0)
(26.3189 0 0)
(26.333 0 0)
(26.347 0 0)
(26.3611 0 0)
(26.3751 0 0)
(26.3891 0 0)
(26.4031 0 0)
(26.4171 0 0)
(26.431 0 0)
(26.4449 0 0)
(26.4588 0 0)
(26.4727 0 0)
(26.4865 0 0)
(26.5003 0 0)
(26.5141 0 0)
(26.5279 0 0)
(26.5416 0 0)
(26.5553 0 0)
(26.569 0 0)
(26.5827 0 0)
(26.5963 0 0)
(26.61 0 0)
(26.6236 0 0)
(26.6372 0 0)
(26.6507 0 0)
(26.6643 0 0)
(26.6778 0 0)
(26.6913 0 0)
(26.7048 0 0)
(26.7182 0 0)
(26.7316 0 0)
(26.7451 0 0)
(26.7585 0 0)
(26.7718 0 0)
(26.7852 0 0)
(26.7985 0 0)
(26.8118 0 0)
(26.8251 0 0)
(26.8384 0 0)
(26.8517 0 0)
(26.8649 0 0)
(26.8781 0 0)
(26.8913 0 0)
(26.9045 0 0)
(26.9177 0 0)
(26.9309 0 0)
(26.944 0 0)
(26.9571 0 0)
(26.9702 0 0)
(26.9833 0 0)
(26.9963 0 0)
(27.0094 0 0)
(27.0224 0 0)
(27.0354 0 0)
(27.0484 0 0)
(27.0614 0 0)
(27.0744 0 0)
(27.0873 0 0)
(27.1003 0 0)
(27.1132 0 0)
(27.1261 0 0)
(27.139 0 0)
(27.1519 0 0)
(27.1647 0 0)
(27.1776 0 0)
(27.1904 0 0)
(27.2032 0 0)
(27.216 0 0)
(27.2288 0 0)
(27.2416 0 0)
(27.2544 0 0)
(27.2671 0 0)
(27.2799 0 0)
(27.2926 0 0)
(27.3053 0 0)
(27.318 0 0)
(27.3307 0 0)
(27.3434 0 0)
(27.3561 0 0)
(27.3687 0 0)
(27.3814 0 0)
(27.394 0 0)
(27.4066 0 0)
(27.4192 0 0)
(27.4318 0 0)
(27.4444 0 0)
(27.457 0 0)
(27.4696 0 0)
(27.4821 0 0)
(27.4947 0 0)
(27.5072 0 0)
(27.5198 0 0)
(27.5323 0 0)
(27.5448 0 0)
(27.5573 0 0)
(27.5698 0 0)
(27.5823 0 0)
(27.5947 0 0)
(27.6072 0 0)
(27.6197 0 0)
(27.6321 0 0)
(27.6446 0 0)
(27.657 0 0)
(27.6694 0 0)
(27.6818 0 0)
(27.6942 0 0)
(27.7067 0 0)
(27.719 0 0)
(27.7314 0 0)
(27.7438 0 0)
(27.7562 0 0)
(27.7686 0 0)
(27.7809 0 0)
(27.7933 0 0)
(27.8056 0 0)
(27.8179 0 0)
(27.8303 0 0)
(27.8426 0 0)
(27.8549 0 0)
(27.8672 0 0)
(27.8796 0 0)
(27.8919 0 0)
(27.9042 0 0)
(27.9164 0 0)
(27.9287 0 0)
(27.941 0 0)
(27.9533 0 0)
(27.9656 0 0)
(27.9778 0 0)
(27.9901 0 0)
(28.0023 0 0)
(28.0146 0 0)
(28.0268 0 0)
(28.0391 0 0)
(28.0513 0 0)
(28.0636 0 0)
(28.0758 0 0)
(28.088 0 0)
(28.1002 0 0)
(28.1125 0 0)
(28.1247 0 0)
(28.1369 0 0)
(28.1491 0 0)
(28.1613 0 0)
(28.1735 0 0)
(28.1857 0 0)
(28.1979 0 0)
(28.2101 0 0)
(28.2222 0 0)
(28.2344 0 0)
(28.2466 0 0)
(28.2588 0 0)
(28.2709 0 0)
(28.2831 0 0)
(28.2953 0 0)
(28.3074 0 0)
(28.3196 0 0)
(28.3318 0 0)
(28.3439 0 0)
(28.3561 0 0)
(28.3682 0 0)
(28.3804 0 0)
(28.3925 0 0)
(28.4047 0 0)
(28.4168 0 0)
(28.4289 0 0)
(28.4411 0 0)
(28.4532 0 0)
(28.4654 0 0)
(28.4775 0 0)
(28.4896 0 0)
(28.5017 0 0)
(28.5139 0 0)
(28.526 0 0)
(28.5381 0 0)
(28.5502 0 0)
(28.5624 0 0)
(28.5745 0 0)
(28.5866 0 0)
(28.5987 0 0)
(28.6108 0 0)
(28.6229 0 0)
(28.635 0 0)
(28.6471 0 0)
(28.6593 0 0)
(28.6714 0 0)
(28.6835 0 0)
(28.6956 0 0)
(28.7077 0 0)
(28.7198 0 0)
(28.7319 0 0)
(28.744 0 0)
(28.7561 0 0)
(28.7682 0 0)
(28.7803 0 0)
(28.7924 0 0)
(28.8045 0 0)
(28.8166 0 0)
(28.8286 0 0)
(28.8407 0 0)
(28.8528 0 0)
(28.8649 0 0)
(28.877 0 0)
(28.8891 0 0)
(28.9012 0 0)
(28.9133 0 0)
(28.9254 0 0)
(28.9375 0 0)
(28.9495 0 0)
(28.9616 0 0)
(28.9737 0 0)
(28.9858 0 0)
(28.9979 0 0)
(29.01 0 0)
(29.022 0 0)
(29.0341 0 0)
(29.0462 0 0)
(29.0583 0 0)
(29.0704 0 0)
(29.0825 0 0)
(29.0945 0 0)
(29.1066 0 0)
(29.1187 0 0)
(29.1308 0 0)
(29.1429 0 0)
(29.1549 0 0)
(29.167 0 0)
(29.1791 0 0)
(29.1912 0 0)
(29.2033 0 0)
(29.2153 0 0)
(29.2274 0 0)
(29.2395 0 0)
(29.2516 0 0)
(29.2637 0 0)
(29.2757 0 0)
(29.2878 0 0)
(29.2999 0 0)
(29.312 0 0)
(29.324 0 0)
(29.3361 0 0)
(29.3482 0 0)
(29.3603 0 0)
(29.3724 0 0)
(29.3844 0 0)
(29.3965 0 0)
(29.4086 0 0)
(29.4207 0 0)
(29.4327 0 0)
(29.4448 0 0)
(29.4569 0 0)
(29.469 0 0)
(29.4811 0 0)
(29.4931 0 0)
(29.5052 0 0)
(29.5173 0 0)
(29.5294 0 0)
(29.5414 0 0)
(29.5535 0 0)
(29.5656 0 0)
(29.5777 0 0)
(29.5898 0 0)
(29.6018 0 0)
(29.6139 0 0)
(29.626 0 0)
(29.6381 0 0)
(29.6502 0 0)
(29.6622 0 0)
(29.6743 0 0)
(29.6864 0 0)
(29.6985 0 0)
(29.7106 0 0)
(29.7226 0 0)
(29.7347 0 0)
(29.7468 0 0)
(29.7589 0 0)
(29.771 0 0)
(29.783 0 0)
(29.7951 0 0)
(29.8072 0 0)
(29.8193 0 0)
(29.8314 0 0)
(29.8434 0 0)
(29.8555 0 0)
(29.8676 0 0)
(29.8797 0 0)
(29.8918 0 0)
(29.9039 0 0)
(29.9159 0 0)
(29.928 0 0)
(29.9401 0 0)
(29.9522 0 0)
(29.9643 0 0)
(29.9764 0 0)
(29.9884 0 0)
(30.0005 0 0)
(30.0126 0 0)
(30.0247 0 0)
(30.0368 0 0)
(30.0489 0 0)
(30.061 0 0)
(30.073 0 0)
(30.0851 0 0)
(30.0972 0 0)
(30.1093 0 0)
(30.1214 0 0)
(30.1335 0 0)
(30.1456 0 0)
(30.1577 0 0)
(30.1697 0 0)
(30.1818 0 0)
(30.1939 0 0)
(30.206 0 0)
(30.2181 0 0)
(30.2302 0 0)
(30.2423 0 0)
(30.2544 0 0)
(30.2665 0 0)
(30.2786 0 0)
(30.2906 0 0)
(30.3027 0 0)
(30.3148 0 0)
(30.3269 0 0)
(30.339 0 0)
(30.3511 0 0)
(30.3632 0 0)
(30.3753 0 0)
(30.3874 0 0)
(30.3995 0 0)
(30.4116 0 0)
(30.4237 0 0)
(30.4358 0 0)
(30.4479 0 0)
(30.46 0 0)
(30.4721 0 0)
(30.4841 0 0)
(30.4962 0 0)
(30.5083 0 0)
(30.5204 0 0)
(30.5325 0 0)
(30.5446 0 0)
(30.5567 0 0)
(30.5688 0 0)
(30.5809 0 0)
(30.593 0 0)
(30.6051 0 0)
(30.6172 0 0)
(30.6293 0 0)
(30.6414 0 0)
(30.6535 0 0)
(30.6656 0 0)
(30.6777 0 0)
(30.6898 0 0)
(30.7019 0 0)
(30.714 0 0)
(30.7261 0 0)
(30.7382 0 0)
(30.7503 0 0)
(30.7624 0 0)
(30.7745 0 0)
(30.7866 0 0)
(30.7987 0 0)
(30.8108 0 0)
(30.8229 0 0)
(30.835 0 0)
(30.8472 0 0)
(30.8593 0 0)
(30.8714 0 0)
(30.8835 0 0)
(30.8956 0 0)
(30.9077 0 0)
(30.9198 0 0)
(30.9319 0 0)
(30.944 0 0)
(30.9561 0 0)
(30.9682 0 0)
(30.9803 0 0)
(30.9924 0 0)
(31.0045 0 0)
(31.0166 0 0)
(31.0288 0 0)
(31.0409 0 0)
(31.053 0 0)
(31.0651 0 0)
(31.0772 0 0)
(31.0893 0 0)
(31.1014 0 0)
(31.1135 0 0)
(31.1256 0 0)
(31.1377 0 0)
(31.1499 0 0)
(31.162 0 0)
(31.1741 0 0)
(31.1862 0 0)
(31.1983 0 0)
(31.2104 0 0)
(31.2225 0 0)
(31.2346 0 0)
(31.2468 0 0)
(31.2589 0 0)
(31.271 0 0)
(31.2831 0 0)
(31.2952 0 0)
(31.3073 0 0)
(31.3195 0 0)
(31.3316 0 0)
(31.3437 0 0)
(31.3558 0 0)
(31.3679 0 0)
(31.38 0 0)
(31.3922 0 0)
(31.4043 0 0)
(31.4164 0 0)
(31.4285 0 0)
(31.4406 0 0)
(31.4527 0 0)
(31.4649 0 0)
(31.477 0 0)
(31.4891 0 0)
(31.5012 0 0)
(31.5133 0 0)
(31.5255 0 0)
(31.5376 0 0)
(31.5497 0 0)
(31.5618 0 0)
(31.5739 0 0)
(31.5861 0 0)
(31.5982 0 0)
(31.6103 0 0)
(31.6224 0 0)
(31.6346 0 0)
(31.6467 0 0)
(31.6588 0 0)
(31.6709 0 0)
(31.6831 0 0)
(31.6952 0 0)
(31.7073 0 0)
(31.7194 0 0)
(31.7316 0 0)
(31.7437 0 0)
(31.7558 0 0)
(31.7679 0 0)
(31.7801 0 0)
(31.7922 0 0)
(31.8043 0 0)
(31.8164 0 0)
(31.8286 0 0)
(31.8407 0 0)
(31.8528 0 0)
(31.8649 0 0)
(31.8771 0 0)
(31.8892 0 0)
(31.9013 0 0)
(31.9135 0 0)
(31.9256 0 0)
(31.9377 0 0)
(31.9499 0 0)
(31.962 0 0)
(31.9741 0 0)
(31.9862 0 0)
(31.9984 0 0)
(32.0105 0 0)
(32.0226 0 0)
(32.0348 0 0)
(32.0469 0 0)
(32.059 0 0)
(32.0712 0 0)
(32.0833 0 0)
(32.0954 0 0)
(32.1076 0 0)
(32.1197 0 0)
(32.1318 0 0)
(32.144 0 0)
(32.1561 0 0)
(32.1682 0 0)
(32.1804 0 0)
(32.1925 0 0)
(32.2046 0 0)
(32.2168 0 0)
(32.2289 0 0)
(32.2411 0 0)
(32.2532 0 0)
(32.2653 0 0)
(32.2775 0 0)
(32.2896 0 0)
(32.3017 0 0)
(32.3139 0 0)
(32.326 0 0)
(32.3382 0 0)
(32.3503 0 0)
(32.3624 0 0)
(32.3746 0 0)
(32.3867 0 0)
(32.3989 0 0)
(32.411 0 0)
(32.4231 0 0)
(32.4353 0 0)
(32.4474 0 0)
(32.4596 0 0)
(32.4717 0 0)
(32.4838 0 0)
(32.496 0 0)
(32.5081 0 0)
(32.5203 0 0)
(32.5324 0 0)
(32.5446 0 0)
(32.5567 0 0)
(32.5688 0 0)
(32.581 0 0)
(32.5931 0 0)
(32.6053 0 0)
(32.6174 0 0)
(32.6296 0 0)
(32.6417 0 0)
(32.6539 0 0)
(32.666 0 0)
(32.6782 0 0)
(32.6903 0 0)
(32.7024 0 0)
(32.7146 0 0)
(32.7267 0 0)
(32.7389 0 0)
(32.751 0 0)
(32.7632 0 0)
(32.7753 0 0)
(32.7875 0 0)
(32.7996 0 0)
(32.8118 0 0)
(32.8239 0 0)
(32.8361 0 0)
(32.8482 0 0)
(32.8604 0 0)
(32.8725 0 0)
(32.8847 0 0)
(32.8968 0 0)
(32.909 0 0)
(32.9211 0 0)
(32.9333 0 0)
(32.9454 0 0)
(32.9576 0 0)
(32.9698 0 0)
(32.9819 0 0)
(32.9941 0 0)
(33.0062 0 0)
(33.0184 0 0)
(33.0305 0 0)
(33.0427 0 0)
(33.0548 0 0)
(33.067 0 0)
(33.0791 0 0)
(33.0913 0 0)
(33.1035 0 0)
(33.1156 0 0)
(33.1278 0 0)
(33.1399 0 0)
(33.1521 0 0)
(33.1642 0 0)
(33.1764 0 0)
(33.1886 0 0)
(33.2007 0 0)
(33.2129 0 0)
(33.225 0 0)
(33.2372 0 0)
(33.2494 0 0)
(33.2615 0 0)
(33.2737 0 0)
(33.2858 0 0)
(33.298 0 0)
(33.3102 0 0)
(33.3223 0 0)
(33.3345 0 0)
(33.3466 0 0)
(33.3588 0 0)
(33.371 0 0)
(33.3831 0 0)
(33.3953 0 0)
(33.4074 0 0)
(33.4196 0 0)
(33.4318 0 0)
(33.4439 0 0)
(33.4561 0 0)
(33.4683 0 0)
(33.4804 0 0)
(33.4926 0 0)
(33.5048 0 0)
(33.5169 0 0)
(33.5291 0 0)
(33.5413 0 0)
(33.5534 0 0)
(33.5656 0 0)
(33.5778 0 0)
(33.5899 0 0)
(33.6021 0 0)
(33.6143 0 0)
(33.6264 0 0)
(33.6386 0 0)
(33.6508 0 0)
(33.6629 0 0)
(33.6751 0 0)
(33.6873 0 0)
(33.6994 0 0)
(33.7116 0 0)
(33.7238 0 0)
(33.736 0 0)
(33.7481 0 0)
(33.7603 0 0)
(33.7725 0 0)
(33.7846 0 0)
(33.7968 0 0)
(33.809 0 0)
(33.8212 0 0)
(33.8333 0 0)
(33.8455 0 0)
(33.8577 0 0)
(33.8699 0 0)
(33.882 0 0)
(33.8942 0 0)
(33.9064 0 0)
(33.9185 0 0)
(33.9307 0 0)
(33.9429 0 0)
(33.9551 0 0)
(33.9672 0 0)
(33.9794 0 0)
(33.9916 0 0)
(34.0038 0 0)
(34.016 0 0)
(34.0281 0 0)
(34.0403 0 0)
(34.0525 0 0)
(34.0647 0 0)
(34.0768 0 0)
(34.089 0 0)
(34.1012 0 0)
(34.1134 0 0)
(34.1256 0 0)
(34.1377 0 0)
(34.1499 0 0)
(34.1621 0 0)
(34.1743 0 0)
(34.1865 0 0)
(34.1986 0 0)
(34.2108 0 0)
(34.223 0 0)
(34.2352 0 0)
(34.2474 0 0)
(34.2595 0 0)
(34.2717 0 0)
(34.2839 0 0)
(34.2961 0 0)
(34.3083 0 0)
(34.3205 0 0)
(34.3326 0 0)
(34.3448 0 0)
(34.357 0 0)
(34.3692 0 0)
(34.3814 0 0)
(34.3936 0 0)
(34.4058 0 0)
(34.4179 0 0)
(34.4301 0 0)
(34.4423 0 0)
(34.4545 0 0)
(34.4667 0 0)
(34.4789 0 0)
(34.4911 0 0)
(34.5033 0 0)
(34.5154 0 0)
(34.5276 0 0)
(34.5398 0 0)
(34.552 0 0)
(34.5642 0 0)
(34.5764 0 0)
(34.5886 0 0)
(34.6008 0 0)
(34.613 0 0)
(34.6251 0 0)
(34.6373 0 0)
(34.6495 0 0)
(34.6617 0 0)
(34.6739 0 0)
(34.6861 0 0)
(34.6983 0 0)
(34.7105 0 0)
(34.7227 0 0)
(34.7349 0 0)
(34.7471 0 0)
(34.7593 0 0)
(34.7715 0 0)
(34.7836 0 0)
(34.7958 0 0)
(34.808 0 0)
(34.8202 0 0)
(34.8324 0 0)
(34.8446 0 0)
(34.8568 0 0)
(34.869 0 0)
(34.8812 0 0)
(34.8934 0 0)
(34.9056 0 0)
(34.9178 0 0)
(34.93 0 0)
(34.9422 0 0)
(34.9544 0 0)
(34.9666 0 0)
(34.9788 0 0)
(34.991 0 0)
(35.0032 0 0)
(35.0154 0 0)
(35.0276 0 0)
(35.0398 0 0)
(35.052 0 0)
(35.0642 0 0)
(35.0764 0 0)
(35.0886 0 0)
(35.1008 0 0)
(35.113 0 0)
(35.1252 0 0)
(35.1374 0 0)
(35.1496 0 0)
(35.1618 0 0)
(35.174 0 0)
(35.1862 0 0)
(35.1984 0 0)
(35.2106 0 0)
(35.2228 0 0)
(35.235 0 0)
(35.2472 0 0)
(35.2594 0 0)
(35.2716 0 0)
(35.2838 0 0)
(35.296 0 0)
(35.3083 0 0)
(35.3205 0 0)
(35.3327 0 0)
(35.3449 0 0)
(35.3571 0 0)
(35.3693 0 0)
(35.3815 0 0)
(35.3937 0 0)
(35.4059 0 0)
(35.4181 0 0)
(35.4303 0 0)
(35.4425 0 0)
(35.4547 0 0)
(35.467 0 0)
(35.4792 0 0)
(35.4914 0 0)
(35.5036 0 0)
(35.5158 0 0)
(35.528 0 0)
(35.5402 0 0)
(35.5524 0 0)
(35.5646 0 0)
(35.5768 0 0)
(35.5891 0 0)
(35.6013 0 0)
(35.6135 0 0)
(35.6257 0 0)
(35.6379 0 0)
(35.6501 0 0)
(35.6623 0 0)
(35.6745 0 0)
(35.6868 0 0)
(35.699 0 0)
(35.7112 0 0)
(35.7234 0 0)
(35.7356 0 0)
(35.7478 0 0)
(35.7601 0 0)
(35.7723 0 0)
(35.7845 0 0)
(35.7967 0 0)
(35.8089 0 0)
(35.8211 0 0)
(35.8334 0 0)
(35.8456 0 0)
(35.8578 0 0)
(35.87 0 0)
(35.8822 0 0)
(35.8944 0 0)
(35.9067 0 0)
(35.9189 0 0)
(35.9311 0 0)
(35.9433 0 0)
(35.9555 0 0)
(35.9678 0 0)
(35.98 0 0)
(35.9922 0 0)
(36.0044 0 0)
(36.0166 0 0)
(36.0289 0 0)
(36.0411 0 0)
(36.0533 0 0)
(36.0655 0 0)
(36.0778 0 0)
(36.09 0 0)
(36.1022 0 0)
(36.1144 0 0)
(36.1266 0 0)
(36.1389 0 0)
(36.1511 0 0)
(36.1633 0 0)
(36.1755 0 0)
(36.1878 0 0)
(36.2 0 0)
(36.2122 0 0)
(36.2244 0 0)
(36.2367 0 0)
(36.2489 0 0)
(36.2611 0 0)
(36.2734 0 0)
(36.2856 0 0)
(36.2978 0 0)
(36.31 0 0)
(36.3223 0 0)
(36.3345 0 0)
(36.3467 0 0)
(36.359 0 0)
(36.3712 0 0)
(36.3834 0 0)
(36.3956 0 0)
(36.4079 0 0)
(36.4201 0 0)
(36.4323 0 0)
(36.4446 0 0)
(36.4568 0 0)
(36.469 0 0)
(36.4813 0 0)
(36.4935 0 0)
(36.5057 0 0)
(36.5179 0 0)
(36.5302 0 0)
(36.5424 0 0)
(36.5546 0 0)
(36.5669 0 0)
(36.5791 0 0)
(36.5913 0 0)
(36.6036 0 0)
(36.6158 0 0)
(36.6281 0 0)
(36.6403 0 0)
(36.6525 0 0)
(36.6648 0 0)
(36.677 0 0)
(36.6892 0 0)
(36.7015 0 0)
(36.7137 0 0)
(36.7259 0 0)
(36.7382 0 0)
(36.7504 0 0)
(36.7626 0 0)
(36.7749 0 0)
(36.7871 0 0)
(36.7994 0 0)
(36.8116 0 0)
(36.8238 0 0)
(36.8361 0 0)
(36.8483 0 0)
(36.8606 0 0)
(36.8728 0 0)
(36.885 0 0)
(36.8973 0 0)
(36.9095 0 0)
(36.9218 0 0)
(36.934 0 0)
(36.9462 0 0)
(36.9585 0 0)
(36.9707 0 0)
(36.983 0 0)
(36.9952 0 0)
(37.0075 0 0)
(37.0197 0 0)
(37.0319 0 0)
(37.0442 0 0)
(37.0564 0 0)
(37.0687 0 0)
(37.0809 0 0)
(37.0932 0 0)
(37.1054 0 0)
(37.1177 0 0)
(37.1299 0 0)
(37.1421 0 0)
(37.1544 0 0)
(37.1666 0 0)
(37.1789 0 0)
(37.1911 0 0)
(37.2034 0 0)
(37.2156 0 0)
(37.2279 0 0)
(37.2401 0 0)
(37.2524 0 0)
(37.2646 0 0)
(37.2769 0 0)
(37.2891 0 0)
(37.3014 0 0)
(37.3136 0 0)
(37.3259 0 0)
(37.3381 0 0)
(37.3504 0 0)
(37.3626 0 0)
(37.3749 0 0)
(37.3871 0 0)
(37.3994 0 0)
(37.4116 0 0)
(37.4239 0 0)
(37.4361 0 0)
(37.4484 0 0)
(37.4606 0 0)
(37.4729 0 0)
(37.4851 0 0)
(37.4974 0 0)
(37.5096 0 0)
(37.5219 0 0)
(37.5341 0 0)
(37.5464 0 0)
(37.5587 0 0)
(37.5709 0 0)
(37.5832 0 0)
(37.5954 0 0)
(37.6077 0 0)
(37.6199 0 0)
(37.6322 0 0)
(37.6444 0 0)
(37.6567 0 0)
(37.669 0 0)
(37.6812 0 0)
(37.6935 0 0)
(37.7057 0 0)
(37.718 0 0)
(37.7302 0 0)
(37.7425 0 0)
(37.7548 0 0)
(37.767 0 0)
(37.7793 0 0)
(37.7915 0 0)
(37.8038 0 0)
(37.8161 0 0)
(37.8283 0 0)
(37.8406 0 0)
(37.8528 0 0)
(37.8651 0 0)
(37.8774 0 0)
(37.8896 0 0)
(37.9019 0 0)
(37.9142 0 0)
(37.9264 0 0)
(37.9387 0 0)
(37.9509 0 0)
(37.9632 0 0)
(37.9755 0 0)
(37.9877 0 0)
(38 0 0)
(38.0123 0 0)
(38.0245 0 0)
(38.0368 0 0)
(38.0491 0 0)
(38.0613 0 0)
(38.0736 0 0)
(38.0858 0 0)
(38.0981 0 0)
(38.1104 0 0)
(38.1226 0 0)
(38.1349 0 0)
(38.1472 0 0)
(38.1594 0 0)
(38.1717 0 0)
(38.184 0 0)
(38.1963 0 0)
(38.2085 0 0)
(38.2208 0 0)
(38.2331 0 0)
(38.2453 0 0)
(38.2576 0 0)
(38.2699 0 0)
(38.2821 0 0)
(38.2944 0 0)
(38.3067 0 0)
(38.3189 0 0)
(38.3312 0 0)
(38.3435 0 0)
(38.3558 0 0)
(38.368 0 0)
(38.3803 0 0)
(38.3926 0 0)
(38.4048 0 0)
(38.4171 0 0)
(38.4294 0 0)
(38.4417 0 0)
(38.4539 0 0)
(38.4662 0 0)
(38.4785 0 0)
(38.4908 0 0)
(38.503 0 0)
(38.5153 0 0)
(38.5276 0 0)
(38.5399 0 0)
(38.5521 0 0)
(38.5644 0 0)
(38.5767 0 0)
(38.589 0 0)
(38.6012 0 0)
(38.6135 0 0)
(38.6258 0 0)
(38.6381 0 0)
(38.6504 0 0)
(38.6626 0 0)
(38.6749 0 0)
(38.6872 0 0)
(38.6995 0 0)
(38.7117 0 0)
(38.724 0 0)
(38.7363 0 0)
(38.7486 0 0)
(38.7609 0 0)
(38.7731 0 0)
(38.7854 0 0)
(38.7977 0 0)
(38.81 0 0)
(38.8223 0 0)
(38.8346 0 0)
(38.8468 0 0)
(38.8591 0 0)
(38.8714 0 0)
(38.8837 0 0)
(38.896 0 0)
(38.9082 0 0)
(38.9205 0 0)
(38.9328 0 0)
(38.9451 0 0)
(38.9574 0 0)
(38.9697 0 0)
(38.9819 0 0)
(38.9942 0 0)
(39.0065 0 0)
(39.0188 0 0)
(39.0311 0 0)
(39.0434 0 0)
(39.0557 0 0)
(39.0679 0 0)
(39.0802 0 0)
(39.0925 0 0)
(39.1048 0 0)
(39.1171 0 0)
(39.1294 0 0)
(39.1417 0 0)
(39.154 0 0)
(39.1662 0 0)
(39.1785 0 0)
(39.1908 0 0)
(39.2031 0 0)
(39.2154 0 0)
(39.2277 0 0)
(39.24 0 0)
(39.2523 0 0)
(39.2646 0 0)
(39.2769 0 0)
(39.2891 0 0)
(39.3014 0 0)
(39.3137 0 0)
(39.326 0 0)
(39.3383 0 0)
(39.3506 0 0)
(39.3629 0 0)
(39.3752 0 0)
(39.3875 0 0)
(39.3998 0 0)
(39.4121 0 0)
(39.4244 0 0)
(39.4367 0 0)
(39.449 0 0)
(39.4612 0 0)
(39.4735 0 0)
(39.4858 0 0)
(39.4981 0 0)
(39.5104 0 0)
(39.5227 0 0)
(39.535 0 0)
(39.5473 0 0)
(39.5596 0 0)
(39.5719 0 0)
(39.5842 0 0)
(39.5965 0 0)
(39.6088 0 0)
(39.6211 0 0)
(39.6334 0 0)
(39.6457 0 0)
(39.658 0 0)
(39.6703 0 0)
(39.6826 0 0)
(39.6949 0 0)
(39.7072 0 0)
(39.7195 0 0)
(39.7318 0 0)
(39.7441 0 0)
(39.7564 0 0)
(39.7687 0 0)
(39.781 0 0)
(39.7933 0 0)
(39.8056 0 0)
(39.8179 0 0)
(39.8302 0 0)
(39.8425 0 0)
(39.8548 0 0)
(39.8671 0 0)
(39.8794 0 0)
(39.8917 0 0)
(39.904 0 0)
(39.9163 0 0)
(39.9286 0 0)
(39.9409 0 0)
(39.9532 0 0)
(39.9655 0 0)
(39.9778 0 0)
(39.9901 0 0)
(40.0025 0 0)
(40.0148 0 0)
(40.0271 0 0)
(40.0394 0 0)
(40.0517 0 0)
(40.064 0 0)
(40.0763 0 0)
(40.0886 0 0)
(40.1009 0 0)
(40.1132 0 0)
(40.1255 0 0)
(40.1378 0 0)
(40.1501 0 0)
(40.1624 0 0)
(40.1748 0 0)
(40.1871 0 0)
(40.1994 0 0)
(40.2117 0 0)
(40.224 0 0)
(40.2363 0 0)
(40.2486 0 0)
(40.2609 0 0)
(40.2732 0 0)
(40.2855 0 0)
(40.2979 0 0)
(40.3102 0 0)
(40.3225 0 0)
(40.3348 0 0)
(40.3471 0 0)
(40.3594 0 0)
(40.3717 0 0)
(40.384 0 0)
(40.3964 0 0)
(40.4087 0 0)
(40.421 0 0)
(40.4333 0 0)
(40.4456 0 0)
(40.4579 0 0)
(40.4702 0 0)
(40.4826 0 0)
(40.4949 0 0)
(40.5072 0 0)
(40.5195 0 0)
(40.5318 0 0)
(40.5441 0 0)
(40.5565 0 0)
(40.5688 0 0)
(40.5811 0 0)
(40.5934 0 0)
(40.6057 0 0)
(40.618 0 0)
(40.6304 0 0)
(40.6427 0 0)
(40.655 0 0)
(40.6673 0 0)
(40.6796 0 0)
(40.6919 0 0)
(40.7043 0 0)
(40.7166 0 0)
(40.7289 0 0)
(40.7412 0 0)
(40.7535 0 0)
(40.7659 0 0)
(40.7782 0 0)
(40.7905 0 0)
(40.8028 0 0)
(40.8152 0 0)
(40.8275 0 0)
(40.8398 0 0)
(40.8521 0 0)
(40.8644 0 0)
(40.8768 0 0)
(40.8891 0 0)
(40.9014 0 0)
(40.9137 0 0)
(40.9261 0 0)
(40.9384 0 0)
(40.9507 0 0)
(40.963 0 0)
(40.9754 0 0)
(40.9877 0 0)
(41 0 0)
(41.0123 0 0)
(41.0247 0 0)
(41.037 0 0)
(41.0493 0 0)
(41.0616 0 0)
(41.074 0 0)
(41.0863 0 0)
(41.0986 0 0)
(41.1109 0 0)
(41.1233 0 0)
(41.1356 0 0)
(41.1479 0 0)
(41.1603 0 0)
(41.1726 0 0)
(41.1849 0 0)
(41.1972 0 0)
(41.2096 0 0)
(41.2219 0 0)
(41.2342 0 0)
(41.2466 0 0)
(41.2589 0 0)
(41.2712 0 0)
(41.2835 0 0)
(41.2959 0 0)
(41.3082 0 0)
(41.3205 0 0)
(41.3329 0 0)
(41.3452 0 0)
(41.3575 0 0)
(41.3699 0 0)
(41.3822 0 0)
(41.3945 0 0)
(41.4069 0 0)
(41.4192 0 0)
(41.4315 0 0)
(41.4439 0 0)
(41.4562 0 0)
(41.4685 0 0)
(41.4809 0 0)