/*--------------------------------*- C++ -*----------------------------------*\
  =========                 |
  \\      /  F ield         | OpenFOAM: The Open Source CFD Toolbox
   \\    /   O peration     | Website:  https://openfoam.org
    \\  /    A nd           | Version:  9
     \\/     M anipulation  |
\*---------------------------------------------------------------------------*/
FoamFile
{
    format      ascii;
    class       volVectorField;
    location    "0.004";
    object      U;
}
// * * * * * * * * * * * * * * * * * * * * * * * * * * * * * * * * * * * * * //

dimensions      [0 1 -1 0 0 0 0];

internalField   nonuniform List<vector> 
100
(
(0 0 0)
(8.67303e-34 0 0)
(2.91746e-13 0 0)
(-1.91186e-29 0 0)
(-2.91746e-13 0 0)
(0 0 0)
(3.26152e-34 0 0)
(2.91746e-13 0 0)
(5.61653e-28 0 0)
(2.59123e-27 0 0)
(1.18624e-12 0 0)
(1.53681e-11 0 0)
(9.44395e-11 0 0)
(4.95578e-10 0 0)
(2.42377e-09 0 0)
(1.18742e-08 0 0)
(5.47499e-08 0 0)
(2.50685e-07 0 0)
(1.08274e-06 0 0)
(4.61056e-06 0 0)
(1.85488e-05 0 0)
(7.30086e-05 0 0)
(0.000271773 0 0)
(0.000981556 0 0)
(0.00335278 0 0)
(0.0110092 0 0)
(0.0341275 0 0)
(0.100581 0 0)
(0.278105 0 0)
(0.715069 0 0)
(1.67282 0 0)
(3.56961 0 0)
(6.97657 0 0)
(12.458 0 0)
(20.4519 0 0)
(30.9332 0 0)
(43.6984 0 0)
(58.1815 0 0)
(73.9196 0 0)
(90.5077 0 0)
(107.708 0 0)
(125.187 0 0)
(142.93 0 0)
(160.7 0 0)
(178.554 0 0)
(195.761 0 0)
(212.677 0 0)
(229.653 0 0)
(244.385 0 0)
(258.165 0 0)
(270.549 0 0)
(281.435 0 0)
(287.969 0 0)
(292.324 0 0)
(294.959 0 0)
(296.005 0 0)
(297.023 0 0)
(298.367 0 0)
(299.33 0 0)
(299.413 0 0)
(298.916 0 0)
(297.032 0 0)
(294.188 0 0)
(291.702 0 0)
(288.526 0 0)
(286.361 0 0)
(286.544 0 0)
(287.738 0 0)
(288.863 0 0)
(287.88 0 0)
(282.343 0 0)
(263.699 0 0)
(198.371 0 0)
(75.2384 0 0)
(12.2889 0 0)
(1.92725 0 0)
(0.293123 0 0)
(0.0443861 0 0)
(0.00668431 0 0)
(0.000995539 0 0)
(0.000146742 0 0)
(2.13813e-05 0 0)
(3.07975e-06 0 0)
(4.38221e-07 0 0)
(6.16079e-08 0 0)
(8.55973e-09 0 0)
(1.17761e-09 0 0)
(1.60673e-10 0 0)
(2.00832e-11 0 0)
(1.13256e-12 0 0)
(8.74802e-13 0 0)
(8.74802e-13 0 0)
(2.91601e-13 0 0)
(-8.74802e-13 0 0)
(-1.16648e-12 0 0)
(8.74875e-13 0 0)
(8.74802e-13 0 0)
(2.91601e-13 0 0)
(2.91819e-13 0 0)
(9.72488e-17 0 0)
)
;

boundaryField
{
    sides
    {
        type            zeroGradient;
    }
    empty
    {
        type            empty;
    }
}


// ************************************************************************* //
