/*--------------------------------*- C++ -*----------------------------------*\
  =========                 |
  \\      /  F ield         | OpenFOAM: The Open Source CFD Toolbox
   \\    /   O peration     | Website:  https://openfoam.org
    \\  /    A nd           | Version:  9
     \\/     M anipulation  |
\*---------------------------------------------------------------------------*/
FoamFile
{
    format      ascii;
    class       volScalarField;
    location    "0.016";
    object      ddt0(rho);
}
// * * * * * * * * * * * * * * * * * * * * * * * * * * * * * * * * * * * * * //

dimensions      [1 -3 -1 0 0 0 0];

internalField   nonuniform List<scalar> 
1000
(
-70.0782
-70.1023
-70.1625
-70.1741
-70.1943
-70.1858
-70.1797
-70.1741
-70.1682
-70.1619
-70.1549
-70.1473
-70.139
-70.1302
-70.1207
-70.1106
-70.0998
-70.0884
-70.0764
-70.0636
-70.0501
-70.0361
-70.0214
-70.006
-69.9898
-69.9728
-69.9553
-69.9371
-69.9181
-69.8984
-69.878
-69.8569
-69.835
-69.8124
-69.789
-69.7648
-69.7399
-69.7142
-69.6878
-69.6606
-69.6326
-69.6039
-69.5743
-69.544
-69.5129
-69.481
-69.4483
-69.4148
-69.3806
-69.3455
-69.3096
-69.2729
-69.2353
-69.197
-69.1577
-69.1177
-69.0767
-69.0348
-68.9921
-68.9483
-68.9036
-68.8579
-68.8112
-68.7633
-68.7143
-68.6641
-68.6126
-68.5598
-68.5055
-68.4496
-68.392
-68.3326
-68.2713
-68.2078
-68.1419
-68.0735
-68.0022
-67.9277
-67.8496
-67.7676
-67.6811
-67.5897
-67.4927
-67.3894
-67.279
-67.1606
-67.033
-66.895
-66.745
-66.5812
-66.4017
-66.2039
-65.9852
-65.7421
-65.471
-65.1672
-64.8258
-64.4408
-64.0059
-63.5139
-62.9573
-62.3283
-61.6193
-60.8231
-59.9333
-58.9449
-57.8546
-56.6612
-55.3662
-53.9738
-52.4912
-50.9287
-49.2995
-47.6193
-45.9057
-44.1782
-42.4565
-40.7604
-39.1091
-37.5196
-36.0072
-34.584
-33.2595
-32.0396
-30.9274
-29.9231
-29.0243
-28.2264
-27.5233
-26.9077
-26.3714
-25.9061
-25.5032
-25.1546
-24.8528
-24.5905
-24.3615
-24.16
-23.9813
-23.8211
-23.6759
-23.5426
-23.4189
-23.3027
-23.1924
-23.0868
-22.9847
-22.8855
-22.7883
-22.6929
-22.5987
-22.5055
-22.4131
-22.3214
-22.2301
-22.1393
-22.0488
-21.9586
-21.8687
-21.779
-21.6895
-21.6002
-21.5111
-21.4222
-21.3334
-21.2449
-21.1565
-21.0683
-20.9802
-20.8924
-20.8047
-20.7171
-20.6297
-20.5425
-20.4555
-20.3686
-20.2819
-20.1954
-20.109
-20.0228
-19.9368
-19.8509
-19.7652
-19.6796
-19.5943
-19.5091
-19.424
-19.3391
-19.2544
-19.1698
-19.0855
-19.0012
-18.9172
-18.8333
-18.7495
-18.666
-18.5826
-18.4993
-18.4162
-18.3333
-18.2506
-18.168
-18.0856
-18.0033
-17.9212
-17.8392
-17.7575
-17.6758
-17.5944
-17.513
-17.4321
-17.3508
-17.2706
-17.1887
-17.1104
-17.0263
-16.9527
-16.8617
-16.7997
-16.6917
-16.6557
-16.5115
-16.5257
-16.317
-16.4106
-16.1128
-16.2972
-15.9243
-16.1464
-15.8023
-15.9024
-15.7876
-15.5624
-15.8392
-15.2024
-15.8486
-14.991
-15.6027
-15.0906
-15.0647
-15.3661
-14.5619
-15.3618
-14.547
-14.8039
-14.9466
-14.1643
-15.004
-14.2041
-14.3202
-14.6992
-13.7381
-14.5254
-14.089
-13.655
-14.4702
-13.5041
-13.768
-14.1401
-13.1212
-13.8546
-13.6795
-12.9253
-13.8155
-13.2309
-12.8161
-13.6722
-12.8419
-12.7231
-13.4639
-12.522
-12.6011
-13.2371
-12.2561
-12.4354
-13.017
-12.0274
-12.2271
-12.8068
-11.8371
-11.9724
-12.6079
-11.6862
-11.6791
-12.4027
-11.5829
-11.3618
-12.1651
-11.5341
-11.0473
-11.8656
-11.5284
-10.7835
-11.4772
-11.5325
-10.6204
-11.0117
-11.4727
-10.5991
-10.5273
-11.262
-10.7058
-10.1352
-10.8508
-10.834
-9.96351
-10.2855
-10.8101
-10.0514
-9.75055
-10.4837
-10.2698
-9.484
-9.88432
-10.3315
-9.58853
-9.29237
-9.98974
-9.86129
-9.06698
-9.32464
-9.87101
-9.28602
-8.78419
-9.36748
-9.54703
-8.77549
-8.66098
-9.30934
-9.12303
-8.38564
-8.59134
-9.13859
-8.69066
-8.09693
-8.50488
-8.89307
-8.29702
-7.86475
-8.37599
-8.61386
-7.95413
-7.65327
-8.20105
-8.33226
-7.65852
-7.43717
-7.98781
-8.06629
-7.40078
-7.20687
-7.74209
-7.82172
-7.17791
-6.95806
-7.46787
-7.59681
-6.98642
-6.70002
-7.16464
-7.37807
-6.83044
-6.44663
-6.82954
-7.14957
-6.70833
-6.21902
-6.46726
-6.88664
-6.61128
-6.0409
-6.09578
-6.56589
-6.51134
-5.93331
-5.75114
-6.17608
-6.36276
-5.8934
-5.48601
-5.73655
-6.11229
-5.88181
-5.34574
-5.30821
-5.73301
-5.81577
-5.32999
-4.98958
-5.25762
-5.59683
-5.36713
-4.85948
-4.79798
-5.18425
-5.31488
-4.90025
-4.50725
-4.6664
-5.03727
-4.9554
-4.46952
-4.24581
-4.53756
-4.81039
-4.57146
-4.10547
-4.02892
-4.36777
-4.53794
-4.20987
-3.78649
-3.81264
-4.16979
-4.24907
-3.86429
-3.50468
-3.59684
-3.92469
-3.9549
-3.57136
-3.23313
-3.34236
-3.66927
-3.68193
-3.29223
-2.96525
-3.07644
-3.39847
-3.41203
-3.0323
-2.71377
-2.80259
-3.08904
-3.13797
-2.82927
-2.47501
-2.46926
-2.77544
-2.90886
-2.6052
-2.22013
-2.19334
-2.4501
-2.58997
-2.41112
-2.06627
-1.88307
-2.04305
-2.30775
-2.25114
-1.8692
-1.5981
-1.69495
-1.9619
-2.02646
-1.73255
-1.3688
-1.34161
-1.60102
-1.74296
-1.57219
-1.24156
-1.04984
-1.17201
-1.41419
-1.41596
-1.13117
-0.842429
-0.79788
-1.00182
-1.19457
-1.07463
-0.701522
-0.480763
-0.626938
-0.902179
-0.932253
-0.639259
-0.325564
-0.311807
-0.535959
-0.693605
-0.613656
-0.334339
-0.0866627
-0.151845
-0.441608
-0.548986
-0.3357
-0.0463883
0.0541286
-0.110229
-0.354973
-0.381708
-0.137752
0.131225
0.151808
-0.107218
-0.346117
-0.244387
0.0591903
0.232102
0.143915
-0.17736
-0.262021
-0.0721456
0.0682898
0.154228
0.17841
-0.0766333
-0.162173
-0.0474775
0.0154018
0.0654453
0.0775642
0.0441239
-0.0241769
-0.0260359
0.00373066
0.00210701
0.0355298
0.0555078
0.00929149
-0.0192994
-0.0172615
-0.0267966
-0.00856483
0.0656344
0.13635
-0.092875
0.0991837
0.0542451
-0.138533
0.0341541
0.116611
0.025091
0.0717393
-0.113604
-0.120883
-0.0703005
-0.0191607
0.126697
0.115511
-0.0958442
0.0578642
0.20525
-0.0454615
-0.13159
0.0751872
0.232729
-0.0502314
-0.151093
-0.00858788
0.202105
0.174811
-0.128479
-0.0903788
-0.0356403
-0.0064845
-0.0100971
-0.000356819
-0.0322036
-0.0442719
-0.100281
-0.0922667
-0.077786
0.0449121
0.200446
0.0769121
-0.0411948
0.0562994
0.114005
-0.0516564
-0.0191618
0.10086
0.028712
-0.0624097
0.0264763
0.0936409
-0.0336112
-0.0389912
0.0625167
0.0501987
-0.0532786
0.00321792
0.0835991
0.0149081
-0.0495591
0.0114978
0.0588622
0.00578395
-0.0346601
0.0182034
0.0537384
-0.00440395
-0.0194808
0.0259285
0.0417151
-0.0189255
-0.00542214
0.0322293
0.018876
-0.015837
0.0129334
0.030668
0.00749215
-0.0111208
0.010141
0.0276081
0.000764681
-0.00434787
0.0179781
0.0242206
-0.00747855
0.0122228
0.0293646
0.0093114
-0.000526081
0.0300839
0.0156811
-0.00558444
0.0123368
0.0325596
0.00751168
-0.0154944
0.0220574
0.0346496
0.00453887
-0.00852582
0.0356238
0.0139388
0.00342291
-0.000619623
0.0393628
0.0426739
-0.0250578
0.00255984
0.0377042
0.0321385
-0.00553701
-0.0184008
0.0436333
0.0428278
-0.00370398
-0.0266316
0.0358029
0.0506333
0.000781191
-0.0164883
0.0220862
0.0616787
0.00693154
-0.0280371
0.00843555
0.0610573
0.038436
-0.0408452
-0.0014904
0.057029
0.034333
0.00231158
-0.0225074
0.0374478
0.0669669
0.00101561
-0.0440342
0.016147
0.0641355
0.0605793
-0.00990206
-0.0565247
0.0498376
0.0859937
0.029923
-0.0408013
-0.0226105
0.0507438
0.0811103
0.0316871
-0.0695916
-0.0217799
0.0580902
0.0423025
0.0154871
-0.0449395
0.026737
0.0487058
0.00102581
-0.0105872
0.00846283
0.0548362
0.000729635
-0.0250821
0.0190972
0.0480659
0.0475694
-0.0391181
0.00138577
0.0690194
0.0342466
-0.00802853
-0.0112565
0.0584262
0.044405
-0.0167168
0.000146139
0.0506657
0.0673945
0.0514491
-0.0437865
0.0450085
0.0996494
-0.00525274
-0.0379447
0.020155
0.0423972
0.0432825
0.0130361
-0.0100902
0.0703866
0.0379451
-0.0126276
-0.00182321
0.0521274
0.0636549
-0.00876866
-0.0215418
0.0560824
0.0822879
-0.0026722
-0.0180026
0.0492999
0.0565509
0.00638223
0.0245031
0.0454571
0.0234278
0.00848444
0.0344309
0.0538711
0.00222676
0.0219834
0.049748
0.0190594
0.00649072
0.0628214
0.0488748
0.0020011
0.033559
0.0529156
0.00690777
0.00183571
0.0680093
0.0426639
-0.0181635
0.0480264
0.0809374
0.0364241
0.0138667
0.0750413
0.0483401
0.00933895
0.0448926
0.061568
0.00983159
0.0317041
0.0702089
0.0118574
-0.00433806
0.0393506
0.0631251
-0.013617
0.0377103
0.058217
0.0290165
0.0297892
0.0752141
0.0703096
0.0388141
0.0388486
0.0721165
0.0352761
0.0133796
0.0496024
0.0526658
-0.00705346
0.0302385
0.0410281
0.0262921
0.0202242
0.0857795
0.0428073
0.0081856
0.0432058
0.0818318
0.0691778
0.0648255
0.0889789
0.042316
0.0142434
0.0531504
0.0719354
0.0446636
0.0424451
0.0752056
0.0345196
0.00889778
0.0762762
0.091208
0.04722
0.0649043
0.119487
0.0656347
0.039291
0.0950315
0.10579
0.0535303
0.0226761
0.0790466
0.0378403
0.0166691
0.0807068
0.11824
0.0800553
0.087048
0.0921156
0.0371673
0.0161171
0.0512009
0.0905802
0.0798626
0.129527
0.150375
0.104915
0.0656418
0.077814
0.0723095
0.0463059
0.101884
0.136882
0.101727
0.0965554
0.124377
0.0598132
0.0336341
0.0759698
0.0697754
0.0874675
0.160977
0.186182
0.1376
0.160058
0.144944
0.0767436
0.0602145
0.0846741
0.0738228
0.109098
0.178387
0.215504
0.177584
0.17059
0.172592
0.105092
0.0404564
0.0469062
0.0517559
0.0426512
0.166599
0.299695
0.352993
0.297189
0.168752
0.198267
0.148191
0.00888572
0.148103
0.259036
0.0943267
0.346113
0.538681
0.0534879
0.342756
0.491862
-0.193735
0.149746
0.480342
0.0131093
-0.179205
0.647519
1.49049
-0.40327
-0.0966423
1.45392
0.577476
-1.39151
1.2194
2.9301
-2.22798
-0.124192
3.98507
0.610797
-3.10837
5.16437
1.85559
-5.06533
5.33021
4.4408
-8.50124
3.07307
12.5869
-8.46346
-5.99233
13.1479
0.846371
-6.07663
14.1579
-3.59385
-8.00046
16.0117
1.40721
-18.4101
19.8417
10.57
-26.5339
7.58239
31.7547
-10.5826
-25.0595
12.0538
35.9176
-14.4964
-27.1969
12.3469
35.5331
-19.6437
-20.9707
13.9287
35.2776
-15.3389
-26.5676
11.6885
41.2693
-8.22966
-21.1016
14.4984
4.12985
0.495295
9.14643
-13.7306
1.58584
7.74977
-7.43774
-0.0560252
2.51707
-2.33192
31.3697
53.3642
325.884
505.213
458.687
449.295
405.812
350.413
320.227
284
234.392
198.596
178.396
148.794
114.844
90.8272
83.864
71.9558
48.9689
37.0536
37.638
32.1359
17.2017
10.427
17.4518
12.7848
3.19161
-0.0191711
8.21833
7.39264
-0.802339
-2.95808
3.37092
4.51463
0.172923
-2.13397
0.958372
2.95457
1.245
-0.231845
-0.333384
1.9246
1.95319
)
;

boundaryField
{
    sides
    {
        type            calculated;
        value           nonuniform List<scalar> 2(1.95319 -70.0782);
    }
    empty
    {
        type            empty;
    }
}


// ************************************************************************* //
