/*--------------------------------*- C++ -*----------------------------------*\
  =========                 |
  \\      /  F ield         | OpenFOAM: The Open Source CFD Toolbox
   \\    /   O peration     | Website:  https://openfoam.org
    \\  /    A nd           | Version:  9
     \\/     M anipulation  |
\*---------------------------------------------------------------------------*/
FoamFile
{
    format      ascii;
    class       volScalarField;
    location    "0.016";
    object      ddt0(p);
}
// * * * * * * * * * * * * * * * * * * * * * * * * * * * * * * * * * * * * * //

dimensions      [1 -1 -3 0 0 0 0];

internalField   nonuniform List<scalar> 
1000
(
-8.80027e+06
-8.79871e+06
-8.79885e+06
-8.79796e+06
-8.79704e+06
-8.79616e+06
-8.7952e+06
-8.79414e+06
-8.79299e+06
-8.79177e+06
-8.79046e+06
-8.78909e+06
-8.78762e+06
-8.78606e+06
-8.78444e+06
-8.78272e+06
-8.78093e+06
-8.77904e+06
-8.77708e+06
-8.77501e+06
-8.77286e+06
-8.77063e+06
-8.76832e+06
-8.76591e+06
-8.7634e+06
-8.76079e+06
-8.7581e+06
-8.75533e+06
-8.75245e+06
-8.74949e+06
-8.74642e+06
-8.74326e+06
-8.74001e+06
-8.73665e+06
-8.7332e+06
-8.72965e+06
-8.726e+06
-8.72225e+06
-8.71839e+06
-8.71444e+06
-8.71039e+06
-8.70623e+06
-8.70197e+06
-8.69761e+06
-8.69315e+06
-8.68858e+06
-8.68391e+06
-8.67914e+06
-8.67426e+06
-8.66928e+06
-8.66419e+06
-8.65899e+06
-8.65368e+06
-8.64827e+06
-8.64274e+06
-8.63711e+06
-8.63135e+06
-8.62548e+06
-8.61949e+06
-8.61338e+06
-8.60714e+06
-8.60076e+06
-8.59426e+06
-8.58761e+06
-8.58081e+06
-8.57386e+06
-8.56674e+06
-8.55944e+06
-8.55196e+06
-8.54427e+06
-8.53637e+06
-8.52824e+06
-8.51985e+06
-8.51119e+06
-8.50223e+06
-8.49294e+06
-8.48329e+06
-8.47323e+06
-8.46272e+06
-8.4517e+06
-8.44013e+06
-8.42793e+06
-8.41502e+06
-8.40132e+06
-8.38673e+06
-8.37112e+06
-8.35435e+06
-8.33628e+06
-8.31669e+06
-8.29538e+06
-8.27208e+06
-8.2465e+06
-8.21828e+06
-8.187e+06
-8.1522e+06
-8.11331e+06
-8.06969e+06
-8.02062e+06
-7.96528e+06
-7.9028e+06
-7.83222e+06
-7.75258e+06
-7.66294e+06
-7.56239e+06
-7.45014e+06
-7.32558e+06
-7.18829e+06
-7.03815e+06
-6.87534e+06
-6.70041e+06
-6.51427e+06
-6.31823e+06
-6.11393e+06
-5.90334e+06
-5.68869e+06
-5.47238e+06
-5.2569e+06
-5.04472e+06
-4.8382e+06
-4.63947e+06
-4.45041e+06
-4.27252e+06
-4.10695e+06
-3.95444e+06
-3.81535e+06
-3.68966e+06
-3.57708e+06
-3.47703e+06
-3.38872e+06
-3.31124e+06
-3.24357e+06
-3.18466e+06
-3.13347e+06
-3.08898e+06
-3.05024e+06
-3.01639e+06
-2.98662e+06
-2.96025e+06
-2.93668e+06
-2.91539e+06
-2.89594e+06
-2.87797e+06
-2.86118e+06
-2.84532e+06
-2.83019e+06
-2.81564e+06
-2.80153e+06
-2.78778e+06
-2.77431e+06
-2.76105e+06
-2.74796e+06
-2.73501e+06
-2.72216e+06
-2.70941e+06
-2.69673e+06
-2.68411e+06
-2.67155e+06
-2.65903e+06
-2.64656e+06
-2.63414e+06
-2.62175e+06
-2.6094e+06
-2.59708e+06
-2.58481e+06
-2.57256e+06
-2.56035e+06
-2.54818e+06
-2.53604e+06
-2.52393e+06
-2.51186e+06
-2.49982e+06
-2.48781e+06
-2.47583e+06
-2.46389e+06
-2.45198e+06
-2.44011e+06
-2.42827e+06
-2.41646e+06
-2.40468e+06
-2.39294e+06
-2.38122e+06
-2.36955e+06
-2.3579e+06
-2.34628e+06
-2.3347e+06
-2.32315e+06
-2.31164e+06
-2.30015e+06
-2.2887e+06
-2.27728e+06
-2.26589e+06
-2.25453e+06
-2.24321e+06
-2.23191e+06
-2.22065e+06
-2.20942e+06
-2.19823e+06
-2.18706e+06
-2.17592e+06
-2.16482e+06
-2.15375e+06
-2.14271e+06
-2.1317e+06
-2.12072e+06
-2.10978e+06
-2.09886e+06
-2.08798e+06
-2.07712e+06
-2.0663e+06
-2.05551e+06
-2.04475e+06
-2.03402e+06
-2.02332e+06
-2.01265e+06
-2.00201e+06
-1.99141e+06
-1.98083e+06
-1.97029e+06
-1.95977e+06
-1.94928e+06
-1.93883e+06
-1.92841e+06
-1.918e+06
-1.90765e+06
-1.8973e+06
-1.88701e+06
-1.87671e+06
-1.86649e+06
-1.85625e+06
-1.84607e+06
-1.83591e+06
-1.82526e+06
-1.81623e+06
-1.80487e+06
-1.79585e+06
-1.78577e+06
-1.77551e+06
-1.7658e+06
-1.75567e+06
-1.74572e+06
-1.73593e+06
-1.72614e+06
-1.71637e+06
-1.70667e+06
-1.69687e+06
-1.6871e+06
-1.67741e+06
-1.66768e+06
-1.65811e+06
-1.64854e+06
-1.63898e+06
-1.62949e+06
-1.6199e+06
-1.61039e+06
-1.60093e+06
-1.59146e+06
-1.58212e+06
-1.57276e+06
-1.5634e+06
-1.55412e+06
-1.54477e+06
-1.53548e+06
-1.52627e+06
-1.51703e+06
-1.50788e+06
-1.49877e+06
-1.48961e+06
-1.48052e+06
-1.47145e+06
-1.46236e+06
-1.45336e+06
-1.44438e+06
-1.43541e+06
-1.4265e+06
-1.4176e+06
-1.40869e+06
-1.39984e+06
-1.39101e+06
-1.38219e+06
-1.37344e+06
-1.36471e+06
-1.35597e+06
-1.34728e+06
-1.33862e+06
-1.32996e+06
-1.32134e+06
-1.31277e+06
-1.3042e+06
-1.29566e+06
-1.28717e+06
-1.27868e+06
-1.2702e+06
-1.26179e+06
-1.25338e+06
-1.24498e+06
-1.23664e+06
-1.22833e+06
-1.22001e+06
-1.21172e+06
-1.20349e+06
-1.19526e+06
-1.18703e+06
-1.17888e+06
-1.17074e+06
-1.16259e+06
-1.15449e+06
-1.14645e+06
-1.13838e+06
-1.13033e+06
-1.12236e+06
-1.11439e+06
-1.10641e+06
-1.09849e+06
-1.09062e+06
-1.08273e+06
-1.07485e+06
-1.06705e+06
-1.05926e+06
-1.05145e+06
-1.04369e+06
-1.036e+06
-1.02829e+06
-1.02056e+06
-1.01293e+06
-1.00533e+06
-997687
-990073
-982557
-975034
-967470
-959974
-952556
-945107
-937633
-930252
-922927
-915554
-908176
-900904
-893664
-886370
-879089
-871919
-864766
-857554
-850370
-843296
-836228
-829101
-822008
-815026
-808048
-801008
-794001
-787106
-780219
-773268
-766342
-759530
-752737
-745879
-739029
-732293
-725594
-718832
-712057
-705388
-698782
-692123
-685425
-678814
-672293
-665740
-659128
-652568
-646118
-639672
-633158
-626651
-620254
-613907
-607502
-601061
-594700
-588432
-582143
-575790
-569462
-563243
-557061
-550818
-544543
-538346
-532241
-526118
-519930
-513755
-507683
-501662
-495591
-489472
-483405
-477438
-471484
-465466
-459425
-453462
-447582
-441686
-435726
-429765
-423894
-418088
-412247
-406345
-400461
-394670
-388926
-383138
-377296
-371481
-365754
-360067
-354332
-348544
-342785
-337114
-331478
-325792
-320054
-314344
-308716
-303123
-297485
-291796
-286124
-280526
-274973
-269385
-263740
-258097
-252528
-247011
-241467
-235870
-230266
-224718
-219230
-213744
-208210
-202648
-197128
-191686
-186268
-180812
-175323
-169864
-164484
-159159
-153820
-148454
-143109
-137840
-132650
-127490
-122326
-117176
-112098
-107124
-102229
-97368.4
-92533.3
-87765.4
-83120.7
-78608.4
-74178
-69796.1
-65492.8
-61327.8
-57328.1
-53460.5
-49685.4
-46008.7
-42471.1
-39109.2
-35926.6
-32886
-29955.1
-27153.8
-24528.7
-22099
-19836.5
-17701.2
-15682.5
-13808.9
-12107.6
-10587.3
-9200.87
-7867.85
-6869.15
-5168.39
-5398.96
-3644.91
-1894.22
-3873.39
-3046.34
743.625
-2971.33
-174.691
4373.82
-5863.34
-226.688
1546.82
-689.039
1079.9
383.169
2024.65
-1150.23
1105.62
1571.14
533.832
-1179.37
2825
280.222
-921.099
-1035.13
-2352.85
-3779.28
4359.08
14360.7
-10521
9286.17
7393.83
-15739.9
2526.42
11503.3
93.829
5763.77
-13708.9
-12583.2
-7747.36
-1508.39
12139.2
13195
-11202.2
5537.4
19964.9
-4330.46
-16064.3
6485.56
22348.5
-4449.23
-17930.1
-1234.01
20340.9
18395.6
-17099.9
-9910.27
-4387.24
-1039.77
-1847.24
-1357.52
-4485.81
-5829.7
-11303.7
-10070.5
-7416.5
3258.87
20401.3
8643.25
-6036.77
4415.05
11218.9
-7063.52
-2950.07
9052.7
3653.9
-8872.14
1640.67
9307.78
-4713.42
-5197.49
5181.11
5456.09
-7833.68
-806.743
7295.81
1964.26
-7665.23
4.39287
5267.21
511.75
-5345.92
441.659
4868.1
-1043.37
-3374.93
1779.16
3734.93
-3547.42
-1418.03
2492.64
1710.43
-3463.54
252.961
2174.13
273.135
-2786.45
-64.7496
1981.92
-1161.24
-1298.61
763.235
1399.52
-2227.06
-140.819
1583.48
-598.071
-1322.64
1601.91
366.632
-1619.29
54.8455
2105.67
-380.299
-2606.77
1179.13
2106.64
-456.423
-2607.29
2525.67
580.826
-1271.85
-1342.39
2586.49
2780.59
-3904.16
-921.598
2588.05
1752.04
-2648.02
-2955.45
3597.41
2867.14
-1690.46
-4265.68
2568.11
3440.03
-763.301
-3457.9
994.866
4743.48
563.884
-5042.62
-939.447
4727.79
3117.67
-5684.98
-1667.98
4647.87
2396.61
-1711.61
-4685.6
2107.28
5171.18
-362.547
-6345.48
660.19
5340.04
3122.44
-3487.87
-7724.37
4000.94
7041.59
2447.34
-6989.73
-4046.07
3637.57
5523.34
2378.15
-9761.16
-3284.14
4739.21
2603.35
261.25
-7746.58
537.744
3035.5
-1500.54
-2343.99
-912.809
3543.48
-1292.78
-3743.04
368.953
2734.51
2604.8
-6447.51
-1855.9
5257.03
2346.1
-4265.38
-2778.85
4690.1
3694.58
-3904.66
-2102.88
2744.01
3348.05
1483.16
-7489.83
1658.24
7537.4
-1228.95
-5597.71
1000.45
3256.1
1986.15
-1617.87
-3665.98
4692.35
1869.35
-3960.19
-2187.64
3348.87
4062.09
-4234.96
-4638.62
3148.1
5259.46
-2589.72
-5220.76
2342.65
2409.52
-2473.62
-348.583
1554.11
-640.041
-1378.24
636.295
2518.72
-2542.24
-398.988
2438.13
-747.426
-2178.49
3051.2
1650.07
-2722.61
182.361
2810.13
-2044.43
-1913.91
4876.85
2693.95
-5166.95
959.248
3594.29
-1162.24
-2697.51
3280.15
1156.52
-2705.59
831.395
2927.43
-2447.59
-524.317
3520.79
-2007.07
-2414.06
1907.13
3294.77
-4391.62
542.741
2489.4
-1241.7
-1940.14
1837.7
710.937
-2027.12
-1151.94
2528.63
-595.428
-2731.5
995.347
1677.94
-3346.42
844.923
1346.68
-774.097
-4130.88
3206.52
268.917
-2388.58
152.856
1571.85
-888.238
-1831.06
2254.86
-102.254
-2442.9
1432.09
1806.6
-1579.86
-1422.92
2807.82
-338.825
-2955.59
2811.19
2000.44
-2724.81
-1265.64
4170.78
-373.968
-3203.04
1998.64
2424.74
-1434.69
-2720.44
4208.11
557.441
-2813.21
1352.66
2448.9
-2161.09
-465.927
2322.36
-473.611
-1384.28
1257.88
1842.38
-2409.64
33.4722
1829.27
-491.121
-1531.2
1679.5
1362.23
-2379.64
769.404
2323.62
-2176.41
-1300.97
3513.86
-774.806
-1336.16
2192.9
-888.389
-1920.96
2086.03
2086.58
-2980.91
472.17
2181.02
-1381.27
-372.391
2209.45
-1333.36
-1389.18
1483.12
2151.92
-2363.23
-924.861
2785.28
275.029
-2072.27
1004.1
1997.44
-806.855
123.609
-1584.41
3742.77
762.2
-4668.03
4589.45
4526.68
-7654.27
5055.47
12946.7
-16963.7
5626.5
21774.6
-27509.3
9570.36
32274.9
-31984
11815.1
41628.9
-4879.17
-62304.7
26969.5
120620
-90299.4
-28843.1
127976
72297.9
-198208
94360.7
310324
-308622
-61722.9
343215
81939
-426774
434292
262361
-622892
498244
542357
-949951
262901
1.33206e+06
-996853
-723766
1.13782e+06
248178
-870259
1.35068e+06
-250289
-987734
1.5251e+06
372781
-2.02546e+06
1.76334e+06
1.36182e+06
-3.0828e+06
660118
3.05756e+06
-1.02605e+06
-2.91861e+06
1.00405e+06
3.75932e+06
-1.50567e+06
-2.89934e+06
903580
3.84445e+06
-2.09946e+06
-2.36564e+06
1.0918e+06
3.62992e+06
-2.19437e+06
-3.00447e+06
537303
3.86914e+06
-910387
-2.89942e+06
1.05904e+06
524521
-215092
996228
-1.59752e+06
71685.6
921501
-744957
10634.8
197315
-404666
-65127.5
-941260
3.62701e+06
-407151
-2.12335e+06
637949
360242
-1.00913e+06
516688
1.00404e+06
-647844
-760424
959391
752310
-683543
-942913
761923
1.01526e+06
-631666
-756820
702041
809097
-650725
-789250
969263
633411
-628059
-741672
817436
738054
-464634
-600617
460709
600668
23772.4
-446869
97276.6
464264
177776
-34412.5
-64054.7
296972
355886
)
;

boundaryField
{
    sides
    {
        type            calculated;
        value           nonuniform List<scalar> 2(355886 -8.80027e+06);
    }
    empty
    {
        type            empty;
    }
}


// ************************************************************************* //
