/*--------------------------------*- C++ -*----------------------------------*\
  =========                 |
  \\      /  F ield         | OpenFOAM: The Open Source CFD Toolbox
   \\    /   O peration     | Website:  https://openfoam.org
    \\  /    A nd           | Version:  9
     \\/     M anipulation  |
\*---------------------------------------------------------------------------*/
FoamFile
{
    format      ascii;
    class       volScalarField;
    location    "0.016";
    object      p;
}
// * * * * * * * * * * * * * * * * * * * * * * * * * * * * * * * * * * * * * //

dimensions      [1 -1 -2 0 0 0 0];

internalField   nonuniform List<scalar> 
1000
(
67145
67129.4
67119.4
67108.8
67097.7
67086.5
67075.3
67064
67052.6
67041.1
67029.4
67017.7
67005.9
66993.9
66981.9
66969.7
66957.5
66945.1
66932.6
66920
66907.3
66894.5
66881.5
66868.5
66855.3
66842
66828.6
66815.1
66801.4
66787.7
66773.8
66759.8
66745.6
66731.4
66717
66702.4
66687.8
66673
66658.1
66643.1
66627.9
66612.6
66597.1
66581.5
66565.8
66549.9
66533.9
66517.7
66501.4
66485
66468.4
66451.6
66434.8
66417.7
66400.5
66383.2
66365.7
66348
66330.2
66312.2
66294.1
66275.8
66257.4
66238.7
66220
66201
66181.9
66162.6
66143.1
66123.4
66103.6
66083.6
66063.3
66042.9
66022.3
66001.5
65980.5
65959.2
65937.7
65916
65894.1
65871.9
65849.4
65826.6
65803.6
65780.2
65756.5
65732.5
65708
65683.1
65657.8
65632
65605.6
65578.6
65551
65522.6
65493.4
65463.3
65432.1
65399.8
65366.1
65331
65294.1
65255.4
65214.5
65171.2
65125.4
65076.6
65024.7
64969.5
64910.5
64847.8
64781
64710
64634.7
64555.1
64471.1
64382.8
64290.3
64193.8
64093.4
63989.4
63882
63771.6
63658.3
63542.6
63424.7
63304.8
63183.4
63060.6
62936.6
62811.8
62686.1
62560
62433.3
62306.4
62179.3
62052
61924.7
61797.5
61670.2
61543.1
61416.1
61289.2
61162.5
61036
60909.6
60783.5
60657.6
60531.8
60406.3
60281
60156
60031.1
59906.5
59782.1
59657.9
59533.9
59410.2
59286.6
59163.3
59040.2
58917.4
58794.7
58672.3
58550.1
58428.1
58306.3
58184.8
58063.4
57942.3
57821.4
57700.7
57580.3
57460
57340
57220.2
57100.6
56981.2
56862
56743.1
56624.4
56505.8
56387.5
56269.4
56151.6
56033.9
55916.5
55799.2
55682.2
55565.4
55448.8
55332.4
55216.2
55100.2
54984.5
54869
54753.6
54638.5
54523.6
54408.9
54294.4
54180.1
54066
53952.2
53838.5
53725
53611.8
53498.8
53385.9
53273.3
53160.9
53048.7
52936.7
52824.9
52713.3
52601.9
52490.7
52379.8
52269
52158.4
52048.1
51937.9
51827.9
51718.2
51608.6
51499.3
51390.1
51281.2
51172.5
51063.9
50955.6
50847.5
50739.5
50631.8
50524.3
50416.9
50309.8
50202.9
50096.1
49989.6
49883.3
49777.1
49671.2
49565.4
49459.9
49354.5
49249.4
49144.4
49039.7
48935.1
48830.8
48726.6
48622.6
48518.8
48415.3
48311.9
48208.7
48105.7
48002.9
47900.3
47797.9
47695.6
47593.6
47491.8
47390.1
47288.7
47187.4
47086.4
46985.5
46884.8
46784.3
46684
46583.9
46484
46384.3
46284.8
46185.4
46086.3
45987.3
45888.5
45790
45691.6
45593.4
45495.4
45397.5
45299.9
45202.5
45105.2
45008.1
44911.3
44814.6
44718.1
44621.7
44525.6
44429.7
44333.9
44238.3
44143
44047.8
43952.8
43857.9
43763.3
43668.9
43574.6
43480.5
43386.6
43292.9
43199.4
43106.1
43012.9
42920
42827.2
42734.6
42642.2
42550
42457.9
42366.1
42274.4
42182.9
42091.6
42000.5
41909.6
41818.8
41728.3
41637.9
41547.7
41457.7
41367.9
41278.2
41188.8
41099.5
41010.4
40921.5
40832.8
40744.3
40655.9
40567.8
40479.8
40392
40304.4
40217
40129.7
40042.7
39955.8
39869.1
39782.6
39696.3
39610.2
39524.2
39438.5
39352.9
39267.6
39182.4
39097.4
39012.6
38927.9
38843.5
38759.2
38675.2
38591.3
38507.6
38424.1
38340.8
38257.7
38174.8
38092.1
38009.6
37927.2
37845.1
37763.2
37681.4
37599.9
37518.5
37437.3
37356.4
37275.6
37195.1
37114.7
37034.5
36954.6
36874.9
36795.3
36716
36636.8
36557.9
36479.2
36400.7
36322.4
36244.4
36166.5
36088.9
36011.5
35934.3
35857.3
35780.6
35704.1
35627.8
35551.7
35475.9
35400.3
35325
35249.9
35175
35100.4
35026.1
34952
34878.1
34804.5
34731.2
34658.2
34585.4
34512.9
34440.6
34368.7
34297.1
34225.7
34154.6
34083.9
34013.5
33943.3
33873.5
33804.1
33734.9
33666.1
33597.7
33529.6
33461.9
33394.6
33327.6
33261
33194.9
33129.1
33063.8
32998.9
32934.4
32870.4
32806.9
32743.9
32681.3
32619.3
32557.8
32496.8
32436.4
32376.5
32317.3
32258.6
32200.5
32143.2
32086.4
32030.4
31975
31920.4
31866.5
31813.4
31761
31709.5
31658.8
31609
31560
31512
31464.9
31418.8
31373.6
31329.5
31286.4
31244.3
31203.3
31163.5
31124.7
31087.1
31050.7
31015.4
30981.4
30948.6
30917
30886.6
30857.5
30829.6
30803
30777.7
30753.6
30730.7
30709.1
30688.7
30669.6
30651.6
30634.7
30619
30604.4
30590.9
30578.4
30567
30556.4
30546.8
30538.1
30530.2
30523.1
30516.7
30510.9
30505.9
30501.4
30497.5
30494
30491
30488.5
30486.4
30484.5
30483
30481.7
30480.6
30479.9
30479.2
30478.7
30478.3
30478
30477.8
30477.7
30477.7
30477.7
30477.7
30477.8
30477.8
30477.9
30478
30478.1
30478.3
30478.4
30478.7
30478.7
30478.7
30478.9
30479
30479
30479.3
30479.5
30479.5
30479.6
30479.7
30480
30480.4
30480.7
30481
30481
30480.9
30481.2
30481.4
30481.2
30481.3
30481.8
30481.9
30481.7
30481.8
30482.2
30482.4
30482.3
30482.2
30482.4
30482.8
30483
30483.1
30483.2
30483.4
30483.6
30483.8
30484
30484.3
30484.5
30484.6
30484.4
30484.4
30484.5
30484.5
30484.4
30484.6
30484.7
30484.6
30484.6
30484.8
30484.8
30484.8
30484.9
30485
30485
30484.9
30485.1
30485.1
30485.1
30485.1
30485.2
30485.3
30485.2
30485.2
30485.3
30485.3
30485.3
30485.3
30485.4
30485.4
30485.4
30485.4
30485.5
30485.5
30485.4
30485.5
30485.5
30485.5
30485.5
30485.5
30485.6
30485.5
30485.6
30485.6
30485.6
30485.6
30485.6
30485.6
30485.6
30485.6
30485.6
30485.6
30485.6
30485.6
30485.6
30485.6
30485.6
30485.6
30485.6
30485.6
30485.6
30485.6
30485.6
30485.6
30485.6
30485.6
30485.6
30485.5
30485.6
30485.6
30485.6
30485.5
30485.5
30485.6
30485.6
30485.5
30485.5
30485.6
30485.6
30485.5
30485.5
30485.5
30485.5
30485.5
30485.4
30485.5
30485.5
30485.5
30485.4
30485.5
30485.5
30485.4
30485.4
30485.4
30485.5
30485.5
30485.4
30485.4
30485.5
30485.5
30485.4
30485.3
30485.3
30485.5
30485.5
30485.3
30485.3
30485.4
30485.4
30485.4
30485.3
30485.3
30485.4
30485.4
30485.4
30485.3
30485.3
30485.4
30485.4
30485.4
30485.4
30485.4
30485.5
30485.4
30485.4
30485.5
30485.5
30485.5
30485.4
30485.5
30485.5
30485.5
30485.4
30485.5
30485.5
30485.5
30485.4
30485.4
30485.5
30485.4
30485.4
30485.4
30485.5
30485.5
30485.4
30485.4
30485.5
30485.4
30485.4
30485.4
30485.4
30485.4
30485.4
30485.4
30485.4
30485.5
30485.4
30485.4
30485.4
30485.5
30485.5
30485.4
30485.4
30485.5
30485.5
30485.5
30485.5
30485.5
30485.5
30485.5
30485.5
30485.5
30485.5
30485.5
30485.5
30485.5
30485.5
30485.6
30485.5
30485.5
30485.5
30485.5
30485.5
30485.5
30485.6
30485.5
30485.5
30485.5
30485.6
30485.5
30485.5
30485.6
30485.5
30485.5
30485.5
30485.5
30485.5
30485.5
30485.6
30485.5
30485.5
30485.6
30485.5
30485.5
30485.6
30485.6
30485.5
30485.5
30485.6
30485.5
30485.5
30485.6
30485.6
30485.5
30485.5
30485.6
30485.6
30485.5
30485.6
30485.6
30485.5
30485.5
30485.6
30485.5
30485.5
30485.6
30485.5
30485.5
30485.5
30485.5
30485.5
30485.5
30485.5
30485.5
30485.4
30485.5
30485.5
30485.4
30485.4
30485.4
30485.4
30485.4
30485.4
30485.4
30485.3
30485.3
30485.4
30485.3
30485.3
30485.3
30485.3
30485.3
30485.3
30485.3
30485.3
30485.3
30485.3
30485.3
30485.2
30485.3
30485.3
30485.3
30485.2
30485.3
30485.3
30485.2
30485.2
30485.3
30485.3
30485.2
30485.3
30485.3
30485.2
30485.3
30485.3
30485.2
30485.3
30485.3
30485.3
30485.3
30485.3
30485.3
30485.3
30485.3
30485.3
30485.3
30485.3
30485.3
30485.3
30485.3
30485.4
30485.4
30485.3
30485.4
30485.4
30485.4
30485.4
30485.4
30485.4
30485.4
30485.5
30485.5
30485.5
30485.5
30485.6
30485.7
30485.7
30485.7
30485.9
30486
30485.9
30486.3
30486.4
30486.3
30486.9
30487.2
30487.1
30488
30488.6
30488.7
30489.2
30491.2
30492.1
30491.7
30493.7
30496.8
30496.9
30497.9
30502.5
30505.2
30504.4
30511
30517.4
30516.7
30519.9
30532.6
30533.5
30536.9
30553.2
30556.1
30555.7
30579.3
30590.4
30585.8
30605.4
30635.5
30633
30645.9
30681.9
30679.3
30695.3
30733.2
30732.8
30749.6
30804.6
30804.7
30803.4
30872.1
30901
30882.7
30906.7
30981.7
31002.9
30986.6
31014.9
31086.7
31100.2
31081.1
31120.1
31184.9
31195.8
31174.3
31201.7
31275.1
31289
31254.5
31271.7
31330
31328.4
31336.1
31348.6
31343.7
31372.4
31380.2
31375.5
31386.9
31394
31395.4
31408.2
31402.8
31451.6
31373.6
31373.9
31406
31404.4
31396.8
31412.7
31406.6
31393.9
31398.2
31408.9
31400.4
31388
31392.7
31406.3
31399.9
31385.6
31390.7
31400.8
31393.7
31382.6
31388.4
31399.5
31389.4
31380.8
31385.9
31396
31389
31378
31380.7
31388.9
31385.9
31376.4
31374.7
31380.6
31380.6
31374.2
31371.4
31373.1
31374.3
31370.1
)
;

boundaryField
{
    sides
    {
        type            zeroGradient;
    }
    empty
    {
        type            empty;
    }
}


// ************************************************************************* //
