/*--------------------------------*- C++ -*----------------------------------*\
  =========                 |
  \\      /  F ield         | OpenFOAM: The Open Source CFD Toolbox
   \\    /   O peration     | Website:  https://openfoam.org
    \\  /    A nd           | Version:  9
     \\/     M anipulation  |
\*---------------------------------------------------------------------------*/
FoamFile
{
    format      ascii;
    class       volScalarField;
    location    "0.016";
    object      p_0;
}
// * * * * * * * * * * * * * * * * * * * * * * * * * * * * * * * * * * * * * //

dimensions      [1 -1 -2 0 0 0 0];

internalField   nonuniform List<scalar> 
1000
(
67232.9
67217.3
67207.3
67196.7
67185.5
67174.4
67163.2
67151.9
67140.4
67128.9
67117.3
67105.5
67093.7
67081.7
67069.6
67057.5
67045.2
67032.8
67020.3
67007.7
66994.9
66982.1
66969.1
66956
66942.8
66929.5
66916.1
66902.5
66888.9
66875.1
66861.1
66847.1
66832.9
66818.6
66804.2
66789.6
66775
66760.1
66745.2
66730.1
66714.9
66699.5
66684
66668.4
66652.6
66636.7
66620.6
66604.4
66588.1
66571.6
66554.9
66538.1
66521.2
66504.1
66486.9
66469.5
66451.9
66434.2
66416.3
66398.3
66380.1
66361.7
66343.2
66324.5
66305.7
66286.7
66267.5
66248.1
66228.5
66208.8
66188.9
66168.8
66148.4
66127.9
66107.2
66086.3
66065.2
66043.9
66022.3
66000.5
65978.4
65956.1
65933.5
65910.6
65887.4
65863.9
65840
65815.8
65791.1
65766
65740.5
65714.4
65687.8
65660.5
65632.5
65603.8
65574.1
65543.5
65511.8
65478.9
65444.5
65408.6
65370.9
65331.1
65289.2
65244.7
65197.5
65147.3
65093.8
65036.8
64976.1
64911.4
64842.5
64769.4
64692
64610.2
64524.1
64433.7
64339.2
64240.6
64138.3
64032.5
63923.4
63811.4
63696.7
63579.7
63460.6
63339.8
63217.4
63093.8
62969.2
62843.7
62717.5
62590.9
62463.9
62336.6
62209.2
62081.6
61954.1
61826.6
61699.2
61571.8
61444.7
61317.6
61190.8
61064.1
60937.6
60811.3
60685.3
60559.4
60433.8
60308.4
60183.2
60058.2
59933.4
59808.9
59684.6
59560.5
59436.6
59312.9
59189.5
59066.3
58943.3
58820.5
58698
58575.7
58453.5
58331.7
58210
58088.5
57967.3
57846.3
57725.5
57604.9
57484.5
57364.4
57244.4
57124.7
57005.2
56886
56766.9
56648
56529.4
56411
56292.8
56174.8
56057
55939.4
55822.1
55704.9
55588
55471.3
55354.8
55238.5
55122.4
55006.6
54890.9
54775.5
54660.2
54545.2
54430.4
54315.8
54201.4
54087.2
53973.2
53859.5
53745.9
53632.6
53519.4
53406.5
53293.8
53181.2
53068.9
52956.8
52844.9
52733.2
52621.7
52510.4
52399.3
52288.5
52177.8
52067.3
51957.1
51847
51737.2
51627.5
51518.1
51408.8
51299.8
51190.9
51082.3
50973.8
50865.6
50757.6
50649.7
50542.1
50434.7
50327.5
50220.4
50113.6
50006.9
49900.5
49794.3
49688.2
49582.4
49476.7
49371.3
49266.1
49161
49056.2
48951.5
48847
48742.8
48638.7
48534.8
48431.2
48327.7
48224.4
48121.3
48018.4
47915.7
47813.2
47710.9
47608.8
47506.8
47405.1
47303.6
47202.2
47101.1
47000.1
46899.3
46798.8
46698.4
46598.2
46498.2
46398.4
46298.7
46199.3
46100.1
46001
45902.2
45803.5
45705
45606.7
45508.6
45410.7
45313
45215.5
45118.1
45021
44924
44827.3
44730.7
44634.3
44538
44442
44346.2
44250.5
44155.1
44059.8
43964.7
43869.8
43775.1
43680.6
43586.2
43492.1
43398.1
43304.3
43210.7
43117.3
43024.1
42931
42838.2
42745.5
42653
42560.7
42468.6
42376.7
42284.9
42193.3
42102
42010.8
41919.8
41828.9
41738.3
41647.9
41557.6
41467.5
41377.6
41287.9
41198.4
41109
41019.9
40930.9
40842.1
40753.5
40665.1
40576.8
40488.8
40400.9
40313.2
40225.7
40138.4
40051.3
39964.4
39877.6
39791
39704.7
39618.5
39532.5
39446.6
39361
39275.6
39190.3
39105.2
39020.3
38935.7
38851.1
38766.8
38682.7
38598.8
38515
38431.5
38348.1
38264.9
38181.9
38099.2
38016.6
37934.2
37852
37769.9
37688.1
37606.5
37525.1
37443.9
37362.8
37282
37201.4
37121
37040.7
36960.7
36880.9
36801.3
36721.9
36642.7
36563.7
36485
36406.4
36328.1
36249.9
36172
36094.3
36016.9
35939.6
35862.6
35785.8
35709.2
35632.8
35556.7
35480.9
35405.2
35329.8
35254.7
35179.7
35105.1
35030.7
34956.5
34882.6
34808.9
34735.6
34662.4
34589.6
34517
34444.8
34372.8
34301.1
34229.6
34158.5
34087.7
34017.2
33947
33877.2
33807.7
33738.5
33669.6
33601.1
33533
33465.2
33397.8
33330.8
33264.2
33198
33132.1
33066.8
33001.8
32937.3
32873.3
32809.7
32746.6
32684
32621.9
32560.3
32499.3
32438.8
32378.9
32319.6
32260.8
32202.7
32145.3
32088.5
32032.4
31977
31922.3
31868.3
31815.2
31762.8
31711.2
31660.5
31610.6
31561.6
31513.5
31466.3
31420.2
31374.9
31330.7
31287.6
31245.5
31204.5
31164.5
31125.7
31088.1
31051.6
31016.3
30982.2
30949.3
30917.7
30887.3
30858.1
30830.2
30803.6
30778.2
30754.1
30731.2
30709.6
30689.1
30669.9
30651.9
30635
30619.3
30604.7
30591.1
30578.6
30567.1
30556.6
30547
30538.2
30530.3
30523.2
30516.7
30511
30505.9
30501.4
30497.5
30494
30491.1
30488.6
30486.4
30484.5
30483
30481.6
30480.6
30479.9
30479.2
30478.7
30478.3
30478
30477.8
30477.7
30477.7
30477.7
30477.7
30477.8
30477.8
30477.9
30478
30478.1
30478.3
30478.5
30478.7
30478.6
30478.7
30478.9
30478.9
30479.1
30479.4
30479.4
30479.4
30479.6
30479.8
30480.2
30480.5
30480.8
30480.9
30480.8
30480.9
30481.2
30481.2
30481.2
30481.5
30481.8
30481.7
30481.6
30482
30482.3
30482.3
30482.1
30482.2
30482.6
30482.8
30483
30483.1
30483.3
30483.4
30483.6
30483.9
30484.1
30484.4
30484.5
30484.4
30484.3
30484.4
30484.5
30484.4
30484.4
30484.6
30484.6
30484.6
30484.7
30484.8
30484.8
30484.8
30484.9
30485
30484.9
30485
30485.1
30485.1
30485
30485.1
30485.2
30485.2
30485.2
30485.3
30485.3
30485.3
30485.3
30485.4
30485.4
30485.4
30485.4
30485.4
30485.5
30485.4
30485.5
30485.5
30485.5
30485.5
30485.5
30485.6
30485.5
30485.5
30485.6
30485.6
30485.6
30485.6
30485.6
30485.6
30485.6
30485.6
30485.6
30485.6
30485.6
30485.6
30485.6
30485.6
30485.6
30485.6
30485.6
30485.6
30485.6
30485.6
30485.6
30485.6
30485.6
30485.6
30485.5
30485.6
30485.6
30485.6
30485.5
30485.5
30485.6
30485.6
30485.5
30485.5
30485.6
30485.6
30485.5
30485.5
30485.5
30485.5
30485.5
30485.4
30485.5
30485.5
30485.5
30485.4
30485.4
30485.5
30485.5
30485.4
30485.4
30485.4
30485.5
30485.4
30485.4
30485.4
30485.5
30485.4
30485.4
30485.3
30485.4
30485.5
30485.4
30485.3
30485.3
30485.4
30485.4
30485.3
30485.3
30485.4
30485.4
30485.4
30485.4
30485.3
30485.4
30485.5
30485.4
30485.4
30485.4
30485.5
30485.4
30485.4
30485.5
30485.5
30485.5
30485.4
30485.5
30485.5
30485.5
30485.4
30485.4
30485.5
30485.5
30485.4
30485.4
30485.5
30485.5
30485.4
30485.4
30485.4
30485.5
30485.4
30485.4
30485.4
30485.5
30485.4
30485.4
30485.4
30485.4
30485.4
30485.4
30485.4
30485.5
30485.5
30485.4
30485.4
30485.5
30485.5
30485.4
30485.4
30485.5
30485.5
30485.5
30485.5
30485.5
30485.5
30485.5
30485.5
30485.5
30485.5
30485.5
30485.5
30485.5
30485.5
30485.5
30485.5
30485.5
30485.5
30485.6
30485.5
30485.5
30485.6
30485.5
30485.5
30485.5
30485.6
30485.5
30485.5
30485.5
30485.5
30485.5
30485.5
30485.6
30485.5
30485.5
30485.5
30485.5
30485.5
30485.6
30485.6
30485.5
30485.5
30485.6
30485.5
30485.5
30485.6
30485.6
30485.5
30485.5
30485.6
30485.6
30485.5
30485.6
30485.6
30485.5
30485.5
30485.6
30485.5
30485.5
30485.6
30485.6
30485.5
30485.5
30485.6
30485.5
30485.5
30485.5
30485.5
30485.5
30485.5
30485.5
30485.5
30485.5
30485.5
30485.5
30485.4
30485.4
30485.4
30485.4
30485.4
30485.4
30485.4
30485.3
30485.4
30485.4
30485.3
30485.3
30485.3
30485.3
30485.3
30485.3
30485.3
30485.3
30485.3
30485.3
30485.3
30485.2
30485.3
30485.3
30485.2
30485.2
30485.3
30485.2
30485.2
30485.3
30485.3
30485.2
30485.2
30485.3
30485.2
30485.2
30485.3
30485.3
30485.2
30485.3
30485.3
30485.2
30485.3
30485.3
30485.3
30485.3
30485.3
30485.3
30485.3
30485.3
30485.3
30485.3
30485.3
30485.4
30485.3
30485.3
30485.4
30485.4
30485.4
30485.4
30485.4
30485.4
30485.4
30485.5
30485.5
30485.5
30485.5
30485.6
30485.7
30485.6
30485.8
30485.9
30485.9
30486
30486.3
30486.2
30486.4
30487
30486.8
30487.2
30488.1
30488.3
30488.4
30489.7
30491.3
30491.1
30491.6
30494.6
30495.9
30495.5
30499.5
30502.4
30502.5
30505.1
30513.3
30515.3
30513.5
30524.4
30530.4
30528.9
30542
30551.8
30550
30560.4
30581.9
30579.1
30586.6
30618
30628.8
30622.6
30657.7
30673.8
30672.1
30710.4
30723.2
30718.4
30771.1
30797
30786.7
30820.3
30880.1
30878.4
30873
30938.1
30983
30972.9
30978.4
31051.3
31087.3
31067.1
31077.6
31154.1
31183.2
31164.8
31171.2
31240.2
31279.5
31257.6
31243
31305.1
31327.6
31318.8
31340.4
31339.8
31351.9
31377.9
31372.1
31379.1
31388.5
31392.5
31396.4
31410.7
31406.1
31441.5
31360.1
31390.2
31405.6
31398.7
31403.2
31415
31394.8
31395
31407.2
31403.9
31391.8
31389.2
31403.1
31405.9
31387.8
31385.8
31400
31400.1
31383.2
31383.1
31398.5
31395.2
31381.3
31382
31394.8
31393.3
31380
31378.5
31387.3
31388.1
31379.7
31374.1
31377.7
31381.7
31377.3
31371.2
31370.3
31374.4
31373.7
31365.8
)
;

boundaryField
{
    sides
    {
        type            zeroGradient;
    }
    empty
    {
        type            empty;
    }
}


// ************************************************************************* //
