/*--------------------------------*- C++ -*----------------------------------*\
  =========                 |
  \\      /  F ield         | OpenFOAM: The Open Source CFD Toolbox
   \\    /   O peration     | Website:  https://openfoam.org
    \\  /    A nd           | Version:  9
     \\/     M anipulation  |
\*---------------------------------------------------------------------------*/
FoamFile
{
    format      ascii;
    class       surfaceScalarField;
    location    "0.016";
    object      phi_0;
}
// * * * * * * * * * * * * * * * * * * * * * * * * * * * * * * * * * * * * * //

dimensions      [1 0 -1 0 0 0 0];

internalField   nonuniform List<scalar> 
999
(
16.1948
18.9989
21.8054
24.6123
27.4201
30.2275
33.0347
35.8417
38.6484
41.4549
44.2611
47.067
49.8726
52.6778
55.4826
58.287
61.091
63.8945
66.6976
69.5001
72.3021
75.1036
77.9044
80.7047
83.5043
86.3032
89.1014
91.8989
94.6956
97.4915
100.287
103.081
105.874
108.667
111.458
114.249
117.039
119.827
122.615
125.401
128.186
130.971
133.754
136.535
139.316
142.095
144.873
147.65
150.425
153.199
155.971
158.742
161.511
164.279
167.046
169.81
172.573
175.335
178.094
180.852
183.608
186.363
189.115
191.866
194.614
197.361
200.105
202.848
205.588
208.326
211.062
213.795
216.526
219.254
221.98
224.703
227.423
230.14
232.854
235.565
238.272
240.975
243.675
246.371
249.062
251.748
254.43
257.105
259.775
262.438
265.095
267.743
270.382
273.012
275.631
278.237
280.83
283.408
285.968
288.509
291.027
293.52
295.985
298.418
300.815
303.173
305.487
307.754
309.968
312.127
314.227
316.264
318.236
320.141
321.977
323.744
325.442
327.073
328.637
330.138
331.578
332.962
334.292
335.574
336.811
338.008
339.169
340.298
341.399
342.475
343.53
344.566
345.586
346.592
347.586
348.57
349.544
350.511
351.47
352.423
353.37
354.312
355.248
356.181
357.108
358.032
358.951
359.867
360.778
361.686
362.59
363.49
364.387
365.279
366.169
367.054
367.936
368.814
369.689
370.56
371.428
372.292
373.152
374.009
374.863
375.712
376.559
377.401
378.241
379.076
379.908
380.737
381.562
382.384
383.202
384.017
384.828
385.636
386.44
387.241
388.039
388.833
389.623
390.411
391.194
391.975
392.752
393.525
394.296
395.062
395.826
396.586
397.342
398.096
398.846
399.592
400.336
401.076
401.812
402.546
403.276
404.002
404.726
405.446
406.163
406.876
407.587
408.294
408.997
409.698
410.395
411.089
411.78
412.468
413.152
413.833
414.511
415.186
415.858
416.525
417.192
417.852
418.513
419.166
419.822
420.467
421.119
421.756
422.401
423.034
423.67
424.301
424.924
425.557
426.165
426.799
427.399
428.023
428.627
429.229
429.844
430.426
431.041
431.623
432.215
432.813
433.379
433.979
434.548
435.12
435.708
436.258
436.839
437.402
437.949
438.527
439.068
439.618
440.184
440.709
441.263
441.81
442.327
442.88
443.409
443.922
444.469
444.982
445.491
446.03
446.531
447.035
447.564
448.054
448.552
449.072
449.554
450.043
450.555
451.028
451.507
452.012
452.479
452.946
453.442
453.906
454.36
454.847
455.308
455.75
456.225
456.686
457.117
457.576
458.037
458.462
458.903
459.362
459.786
460.207
460.657
461.085
461.491
461.925
462.358
462.757
463.168
463.601
464.003
464.393
464.812
465.223
465.602
465.998
466.411
466.794
467.166
467.566
467.96
468.323
468.696
469.091
469.462
469.813
470.188
470.57
470.921
471.267
471.64
472.005
472.34
472.684
473.049
473.397
473.721
474.061
474.417
474.749
475.063
475.398
475.743
476.061
476.367
476.695
477.028
477.335
477.632
477.952
478.274
478.571
478.859
479.168
479.481
479.768
480.047
480.345
480.649
480.929
481.197
481.483
481.779
482.052
482.31
482.583
482.869
483.137
483.386
483.645
483.92
484.184
484.426
484.67
484.933
485.193
485.43
485.66
485.907
486.162
486.398
486.617
486.847
487.091
487.326
487.54
487.753
487.982
488.214
488.428
488.627
488.838
489.061
489.276
489.471
489.662
489.87
490.082
490.278
490.459
490.645
490.847
491.045
491.224
491.394
491.575
491.768
491.95
492.115
492.276
492.451
492.632
492.8
492.952
493.104
493.271
493.441
493.596
493.736
493.88
494.037
494.195
494.338
494.467
494.601
494.748
494.895
495.027
495.145
495.268
495.404
495.541
495.662
495.771
495.883
496.006
496.132
496.245
496.344
496.443
496.554
496.67
496.774
496.863
496.951
497.049
497.152
497.249
497.331
497.407
497.489
497.581
497.671
497.746
497.81
497.877
497.956
498.037
498.106
498.161
498.215
498.279
498.348
498.411
498.461
498.503
498.55
498.606
498.663
498.708
498.742
498.774
498.814
498.862
498.905
498.933
498.952
498.977
499.013
499.05
499.076
499.089
499.102
499.123
499.151
499.175
499.189
499.192
499.198
499.216
499.238
499.251
499.253
499.251
499.255
499.269
499.285
499.29
499.285
499.279
499.283
499.297
499.307
499.304
499.295
499.289
499.297
499.307
499.31
499.307
499.301
499.294
499.297
499.303
499.305
499.305
499.302
499.299
499.297
499.298
499.299
499.299
499.299
499.298
499.295
499.295
499.296
499.296
499.298
499.298
499.295
499.29
499.293
499.29
499.287
499.293
499.292
499.287
499.286
499.283
499.288
499.292
499.295
499.296
499.291
499.286
499.29
499.288
499.28
499.281
499.287
499.284
499.274
499.276
499.282
499.283
499.275
499.268
499.273
499.276
499.278
499.278
499.279
499.279
499.28
499.282
499.286
499.289
499.292
499.291
499.283
499.28
499.281
499.279
499.274
499.276
499.277
499.273
499.272
499.274
499.273
499.27
499.271
499.273
499.27
499.268
499.27
499.27
499.267
499.266
499.268
499.268
499.265
499.265
499.266
499.266
499.264
499.264
499.265
499.264
499.262
499.263
499.263
499.262
499.261
499.261
499.261
499.26
499.259
499.26
499.259
499.258
499.258
499.258
499.258
499.257
499.257
499.257
499.255
499.255
499.255
499.254
499.253
499.253
499.253
499.252
499.251
499.252
499.251
499.25
499.249
499.25
499.248
499.248
499.248
499.248
499.246
499.244
499.245
499.245
499.244
499.243
499.243
499.244
499.242
499.24
499.24
499.241
499.24
499.238
499.238
499.238
499.238
499.235
499.235
499.236
499.236
499.233
499.232
499.233
499.233
499.231
499.23
499.23
499.23
499.229
499.226
499.226
499.228
499.227
499.225
499.222
499.223
499.225
499.223
499.22
499.218
499.22
499.221
499.219
499.216
499.214
499.217
499.218
499.216
499.214
499.213
499.215
499.214
499.212
499.212
499.213
499.212
499.21
499.21
499.211
499.21
499.208
499.206
499.208
499.208
499.205
499.204
499.204
499.205
499.202
499.2
499.201
499.201
499.199
499.196
499.194
499.196
499.194
499.19
499.191
499.192
499.191
499.19
499.188
499.187
499.188
499.185
499.183
499.184
499.184
499.182
499.179
499.18
499.181
499.178
499.175
499.175
499.176
499.174
499.172
499.171
499.17
499.169
499.168
499.167
499.166
499.164
499.164
499.163
499.161
499.16
499.16
499.157
499.155
499.155
499.154
499.152
499.151
499.151
499.149
499.147
499.148
499.146
499.143
499.141
499.141
499.138
499.136
499.135
499.133
499.131
499.131
499.129
499.126
499.126
499.126
499.125
499.122
499.123
499.121
499.119
499.118
499.116
499.113
499.111
499.109
499.108
499.105
499.103
499.103
499.101
499.099
499.099
499.098
499.096
499.095
499.094
499.091
499.089
499.089
499.087
499.084
499.081
499.078
499.075
499.073
499.072
499.07
499.067
499.066
499.064
499.061
499.06
499.059
499.056
499.053
499.051
499.048
499.043
499.041
499.039
499.035
499.031
499.029
499.028
499.025
499.023
499.023
499.019
499.015
499.012
499.008
499.004
499.003
499.002
499
498.997
498.993
498.988
498.982
498.978
498.975
498.972
498.969
498.967
498.963
498.958
498.954
498.95
498.945
498.943
498.941
498.938
498.935
498.932
498.926
498.918
498.913
498.906
498.9
498.897
498.895
498.892
498.889
498.884
498.877
498.868
498.861
498.855
498.848
498.843
498.842
498.84
498.838
498.836
498.829
498.817
498.803
498.791
498.785
498.777
498.771
498.771
498.765
498.754
498.75
498.737
498.715
498.713
498.699
498.68
498.687
498.681
498.662
498.662
498.669
498.643
498.583
498.599
498.603
498.545
498.522
498.578
498.529
498.412
498.501
498.506
498.346
498.322
498.446
498.24
498.165
498.368
498.155
497.977
498.317
498.194
497.691
498.029
498.269
497.743
497.709
497.952
497.386
497.53
497.85
497.209
497.153
497.889
497.096
496.673
497.734
497.431
496.161
496.584
497.587
497.104
495.668
496.248
497.335
496.842
495.42
496.206
497.045
496.488
495.077
495.69
496.753
496.285
494.635
494.964
495.808
495.228
495.063
495.043
494.677
495.226
495.163
494.853
495.15
495.153
495.052
495.145
493.89
491.756
478.72
458.512
440.164
422.193
405.96
391.944
379.135
367.775
358.399
350.455
343.319
337.367
332.774
329.141
325.786
322.908
320.949
319.467
317.961
316.676
315.988
315.571
314.873
314.361
314.234
314.234
313.906
313.61
313.642
313.76
313.626
313.445
313.438
313.523
313.485
313.367
313.317
313.326
313.34
313.263
)
;

boundaryField
{
    sides
    {
        type            calculated;
        value           nonuniform List<scalar> 2(313.185 -13.3917);
    }
    empty
    {
        type            empty;
        value           nonuniform List<scalar> 0();
    }
}


// ************************************************************************* //
