/*--------------------------------*- C++ -*----------------------------------*\
  =========                 |
  \\      /  F ield         | OpenFOAM: The Open Source CFD Toolbox
   \\    /   O peration     | Website:  https://openfoam.org
    \\  /    A nd           | Version:  9
     \\/     M anipulation  |
\*---------------------------------------------------------------------------*/
FoamFile
{
    format      ascii;
    class       volScalarField;
    location    "0.016";
    object      T;
}
// * * * * * * * * * * * * * * * * * * * * * * * * * * * * * * * * * * * * * //

dimensions      [0 0 0 1 0 0 0];

internalField   nonuniform List<scalar> 
1000
(
310.768
310.823
310.839
310.836
310.823
310.807
310.791
310.776
310.761
310.745
310.73
310.714
310.699
310.683
310.667
310.65
310.634
310.617
310.601
310.584
310.567
310.55
310.533
310.515
310.498
310.48
310.462
310.444
310.426
310.408
310.389
310.37
310.352
310.333
310.313
310.294
310.274
310.255
310.235
310.215
310.195
310.174
310.154
310.133
310.112
310.091
310.069
310.048
310.026
310.004
309.982
309.96
309.937
309.914
309.891
309.868
309.845
309.821
309.798
309.774
309.749
309.725
309.7
309.676
309.65
309.625
309.6
309.574
309.548
309.521
309.495
309.468
309.441
309.414
309.386
309.358
309.33
309.302
309.273
309.244
309.215
309.185
309.155
309.124
309.094
309.062
309.03
308.998
308.965
308.932
308.898
308.863
308.828
308.792
308.755
308.716
308.677
308.637
308.595
308.551
308.506
308.458
308.408
308.356
308.301
308.242
308.18
308.114
308.043
307.968
307.888
307.803
307.712
307.615
307.512
307.404
307.289
307.168
307.042
306.909
306.772
306.629
306.481
306.329
306.173
306.014
305.851
305.685
305.517
305.347
305.175
305.001
304.826
304.65
304.474
304.296
304.118
303.94
303.761
303.582
303.403
303.224
303.045
302.865
302.686
302.506
302.327
302.148
301.968
301.789
301.61
301.43
301.251
301.072
300.893
300.714
300.535
300.356
300.177
299.998
299.819
299.641
299.462
299.283
299.105
298.926
298.748
298.57
298.391
298.213
298.035
297.856
297.678
297.5
297.322
297.144
296.966
296.789
296.611
296.433
296.255
296.078
295.9
295.723
295.545
295.368
295.19
295.013
294.836
294.659
294.482
294.305
294.128
293.951
293.774
293.597
293.42
293.243
293.067
292.89
292.713
292.537
292.361
292.184
292.008
291.832
291.655
291.479
291.303
291.127
290.951
290.775
290.599
290.423
290.248
290.072
289.897
289.72
289.546
289.369
289.196
289.017
288.848
288.663
288.502
288.307
288.158
287.949
287.817
287.591
287.473
287.239
287.121
286.898
286.759
286.568
286.388
286.239
286.025
285.896
285.683
285.53
285.358
285.159
285.024
284.812
284.661
284.489
284.29
284.153
283.949
283.784
283.628
283.421
283.278
283.096
282.905
282.765
282.564
282.396
282.244
282.039
281.886
281.72
281.519
281.374
281.197
281.003
280.859
280.675
280.487
280.343
280.156
279.972
279.827
279.639
279.457
279.311
279.124
278.941
278.795
278.61
278.425
278.279
278.099
277.91
277.762
277.589
277.397
277.244
277.079
276.885
276.726
276.569
276.377
276.207
276.057
275.872
275.691
275.542
275.369
275.18
275.023
274.864
274.674
274.505
274.354
274.174
273.99
273.838
273.673
273.485
273.319
273.167
272.987
272.805
272.652
272.489
272.302
272.134
271.983
271.807
271.624
271.467
271.309
271.126
270.951
270.799
270.634
270.449
270.282
270.13
269.958
269.776
269.615
269.461
269.285
269.106
268.949
268.792
268.613
268.437
268.283
268.124
267.945
267.771
267.617
267.457
267.278
267.106
266.953
266.793
266.615
266.443
266.289
266.13
265.953
265.781
265.626
265.469
265.295
265.121
264.965
264.81
264.638
264.464
264.304
264.152
263.985
263.809
263.646
263.495
263.333
263.158
262.991
262.838
262.682
262.511
262.34
262.184
262.031
261.866
261.694
261.532
261.381
261.223
261.053
260.886
260.731
260.58
260.416
260.246
260.086
259.935
259.78
259.614
259.447
259.293
259.143
258.985
258.817
258.656
258.506
258.356
258.195
258.029
257.872
257.725
257.574
257.413
257.25
257.097
256.951
256.8
256.639
256.48
256.33
256.186
256.036
255.877
255.72
255.574
255.432
255.283
255.127
254.973
254.829
254.69
254.544
254.391
254.24
254.099
253.963
253.821
253.672
253.525
253.386
253.253
253.118
252.974
252.829
252.694
252.567
252.436
252.299
252.161
252.029
251.905
251.783
251.655
251.522
251.394
251.276
251.162
251.044
250.921
250.799
250.686
250.581
250.474
250.362
250.25
250.144
250.046
249.952
249.855
249.754
249.656
249.567
249.486
249.405
249.319
249.233
249.152
249.083
249.018
248.95
248.878
248.809
248.751
248.7
248.649
248.595
248.54
248.491
248.451
248.417
248.382
248.341
248.303
248.272
248.249
248.229
248.205
248.178
248.154
248.138
248.128
248.119
248.104
248.085
248.073
248.069
248.067
248.062
248.053
248.043
248.039
248.039
248.039
248.038
248.036
248.031
248.03
248.03
248.031
248.031
248.031
248.031
248.03
248.03
248.031
248.032
248.032
248.032
248.033
248.033
248.033
248.034
248.035
248.035
248.035
248.036
248.035
248.037
248.037
248.037
248.038
248.038
248.039
248.04
248.041
248.042
248.042
248.042
248.043
248.043
248.043
248.043
248.045
248.045
248.045
248.045
248.046
248.047
248.047
248.047
248.047
248.048
248.049
248.05
248.05
248.051
248.051
248.052
248.053
248.054
248.054
248.054
248.054
248.054
248.055
248.055
248.055
248.055
248.056
248.056
248.056
248.057
248.057
248.057
248.057
248.058
248.058
248.058
248.059
248.059
248.059
248.059
248.06
248.06
248.06
248.06
248.061
248.061
248.061
248.061
248.062
248.062
248.062
248.062
248.063
248.063
248.063
248.063
248.064
248.064
248.064
248.064
248.064
248.065
248.065
248.065
248.065
248.065
248.066
248.066
248.066
248.067
248.067
248.067
248.067
248.068
248.068
248.068
248.068
248.069
248.069
248.069
248.069
248.07
248.07
248.07
248.07
248.07
248.071
248.071
248.071
248.072
248.072
248.072
248.072
248.073
248.073
248.073
248.073
248.074
248.074
248.074
248.074
248.075
248.075
248.075
248.075
248.076
248.076
248.076
248.076
248.077
248.077
248.077
248.077
248.078
248.078
248.079
248.079
248.079
248.079
248.079
248.08
248.08
248.081
248.081
248.081
248.081
248.082
248.082
248.083
248.083
248.083
248.083
248.084
248.084
248.084
248.085
248.085
248.086
248.086
248.086
248.087
248.087
248.088
248.088
248.088
248.089
248.089
248.089
248.09
248.09
248.091
248.091
248.091
248.092
248.092
248.092
248.092
248.093
248.093
248.094
248.094
248.095
248.096
248.097
248.097
248.097
248.097
248.098
248.098
248.098
248.099
248.099
248.1
248.1
248.101
248.101
248.102
248.102
248.102
248.103
248.104
248.104
248.105
248.105
248.106
248.107
248.107
248.108
248.108
248.109
248.109
248.11
248.111
248.111
248.112
248.112
248.113
248.113
248.114
248.115
248.115
248.116
248.116
248.117
248.117
248.118
248.118
248.119
248.119
248.12
248.121
248.122
248.123
248.124
248.124
248.125
248.126
248.126
248.127
248.128
248.128
248.129
248.129
248.13
248.131
248.131
248.132
248.133
248.134
248.135
248.136
248.137
248.138
248.139
248.14
248.141
248.142
248.142
248.143
248.143
248.144
248.145
248.146
248.147
248.147
248.148
248.149
248.15
248.152
248.154
248.155
248.156
248.156
248.157
248.158
248.159
248.16
248.161
248.162
248.163
248.164
248.165
248.167
248.168
248.17
248.171
248.173
248.174
248.176
248.177
248.178
248.178
248.179
248.18
248.181
248.183
248.185
248.187
248.188
248.189
248.19
248.191
248.192
248.194
248.197
248.2
248.202
248.203
248.204
248.205
248.207
248.209
248.211
248.214
248.216
248.218
248.219
248.22
248.221
248.222
248.225
248.228
248.231
248.235
248.238
248.24
248.241
248.243
248.244
248.246
248.248
248.252
248.256
248.26
248.263
248.266
248.268
248.269
248.27
248.27
248.272
248.276
248.283
248.289
248.294
248.299
248.302
248.303
248.306
248.308
248.311
248.317
248.323
248.33
248.337
248.343
248.346
248.35
248.352
248.354
248.358
248.371
248.381
248.386
248.397
248.411
248.415
248.42
248.436
248.45
248.45
248.477
248.505
248.516
248.529
248.576
248.585
248.594
248.642
248.655
248.65
248.712
248.747
248.741
248.805
248.904
248.922
248.953
249.063
249.068
249.113
249.219
249.226
249.26
249.406
249.423
249.416
249.618
249.71
249.697
249.75
249.994
250.066
250.037
250.114
250.297
250.36
250.316
250.422
250.616
250.687
250.678
250.81
251.089
251.207
251.203
251.302
251.546
251.599
251.634
251.687
251.682
251.76
251.785
251.76
251.777
251.79
251.817
251.968
252.713
254.969
262.506
273.96
285.896
297.802
309.444
320.622
331.092
340.754
349.606
357.543
364.421
370.357
375.455
379.758
383.274
386.173
388.583
390.589
392.127
393.339
394.328
395.102
395.599
395.992
396.321
396.586
396.717
396.805
396.886
396.969
396.985
396.981
396.993
397.033
397.047
397.028
397.022
397.027
397.033
397.004
)
;

boundaryField
{
    sides
    {
        type            zeroGradient;
    }
    empty
    {
        type            empty;
    }
}


// ************************************************************************* //
