/*--------------------------------*- C++ -*----------------------------------*\
  =========                 |
  \\      /  F ield         | OpenFOAM: The Open Source CFD Toolbox
   \\    /   O peration     | Website:  https://openfoam.org
    \\  /    A nd           | Version:  9
     \\/     M anipulation  |
\*---------------------------------------------------------------------------*/
FoamFile
{
    format      ascii;
    class       volScalarField;
    location    "0.033";
    object      T;
}
// * * * * * * * * * * * * * * * * * * * * * * * * * * * * * * * * * * * * * //

dimensions      [0 0 0 1 0 0 0];

internalField   nonuniform List<scalar> 
1000
(
208.615
208.627
208.652
208.678
208.706
208.734
208.76
208.785
208.81
208.838
208.867
208.895
208.921
208.944
208.965
208.988
209.012
209.04
209.07
209.102
209.133
209.16
209.184
209.202
209.214
209.221
209.225
209.226
209.226
209.226
209.225
209.223
209.217
209.208
209.198
209.188
209.178
209.168
209.158
209.147
209.137
209.127
209.117
209.107
209.097
209.087
209.077
209.067
209.057
209.047
209.037
209.027
209.017
209.007
208.997
208.987
208.977
208.967
208.957
208.947
208.937
208.927
208.917
208.907
208.898
208.887
208.878
208.866
208.859
208.846
208.839
208.826
208.819
208.806
208.799
208.786
208.779
208.766
208.759
208.746
208.739
208.727
208.718
208.708
208.697
208.689
208.677
208.668
208.658
208.647
208.639
208.628
208.618
208.609
208.598
208.589
208.579
208.568
208.559
208.548
208.538
208.529
208.519
208.509
208.499
208.489
208.479
208.469
208.459
208.449
208.439
208.429
208.419
208.409
208.399
208.389
208.38
208.37
208.36
208.35
208.34
208.33
208.32
208.31
208.3
208.29
208.28
208.271
208.261
208.251
208.241
208.231
208.221
208.211
208.201
208.191
208.182
208.172
208.162
208.152
208.142
208.132
208.122
208.113
208.103
208.093
208.083
208.073
208.063
208.054
208.044
208.034
208.024
208.014
208.004
207.995
207.985
207.975
207.965
207.956
207.946
207.936
207.926
207.916
207.907
207.897
207.887
207.878
207.868
207.858
207.848
207.839
207.829
207.819
207.81
207.8
207.79
207.781
207.771
207.761
207.752
207.742
207.732
207.723
207.713
207.704
207.694
207.684
207.675
207.665
207.656
207.646
207.637
207.627
207.618
207.608
207.599
207.589
207.58
207.57
207.561
207.552
207.542
207.533
207.524
207.514
207.505
207.495
207.486
207.477
207.468
207.458
207.449
207.44
207.431
207.422
207.412
207.403
207.394
207.385
207.376
207.367
207.358
207.349
207.34
207.331
207.322
207.313
207.304
207.295
207.286
207.277
207.268
207.26
207.251
207.242
207.233
207.225
207.216
207.207
207.199
207.19
207.182
207.173
207.165
207.156
207.148
207.14
207.131
207.123
207.115
207.107
207.098
207.09
207.082
207.074
207.066
207.058
207.05
207.042
207.035
207.027
207.019
207.011
207.004
206.996
206.989
206.981
206.974
206.967
206.959
206.952
206.945
206.938
206.931
206.924
206.917
206.91
206.903
206.897
206.89
206.884
206.877
206.871
206.864
206.858
206.852
206.846
206.84
206.834
206.828
206.823
206.817
206.812
206.806
206.801
206.796
206.791
206.786
206.781
206.777
206.772
206.768
206.763
206.759
206.755
206.751
206.748
206.744
206.74
206.737
206.734
206.731
206.728
206.726
206.723
206.721
206.719
206.717
206.715
206.714
206.712
206.711
206.71
206.709
206.709
206.709
206.708
206.708
206.709
206.709
206.71
206.711
206.712
206.714
206.716
206.718
206.721
206.723
206.727
206.73
206.734
206.738
206.742
206.747
206.752
206.758
206.764
206.77
206.776
206.783
206.791
206.799
206.807
206.815
206.824
206.834
206.844
206.854
206.865
206.876
206.888
206.9
206.913
206.927
206.94
206.955
206.97
206.985
207.001
207.018
207.035
207.052
207.071
207.089
207.109
207.129
207.15
207.171
207.193
207.215
207.238
207.262
207.287
207.312
207.337
207.364
207.391
207.419
207.447
207.476
207.505
207.536
207.567
207.598
207.63
207.663
207.697
207.731
207.765
207.801
207.837
207.873
207.91
207.948
207.986
208.025
208.064
208.104
208.145
208.186
208.227
208.269
208.311
208.354
208.398
208.441
208.485
208.53
208.575
208.62
208.666
208.712
208.758
208.805
208.852
208.899
208.947
208.994
209.043
209.091
209.139
209.188
209.237
209.286
209.335
209.385
209.435
209.484
209.534
209.584
209.634
209.684
209.735
209.785
209.836
209.887
209.938
209.988
210.04
210.09
210.142
210.193
210.244
210.295
210.347
210.398
210.449
210.501
210.552
210.604
210.656
210.707
210.759
210.811
210.862
210.914
210.966
211.018
211.07
211.121
211.173
211.225
211.277
211.329
211.381
211.433
211.485
211.538
211.59
211.642
211.694
211.746
211.798
211.851
211.903
211.955
212.008
212.06
212.112
212.165
212.217
212.269
212.322
212.374
212.427
212.479
212.532
212.584
212.637
212.69
212.742
212.795
212.848
212.9
212.953
213.006
213.059
213.111
213.164
213.217
213.27
213.322
213.376
213.428
213.482
213.534
213.587
213.64
213.693
213.746
213.8
213.852
213.906
213.958
214.012
214.065
214.118
214.171
214.225
214.277
214.331
214.384
214.438
214.491
214.545
214.597
214.651
214.704
214.758
214.811
214.865
214.918
214.972
215.025
215.079
215.132
215.186
215.239
215.294
215.347
215.401
215.454
215.509
215.562
215.616
215.669
215.724
215.777
215.831
215.885
215.939
215.992
216.047
216.1
216.155
216.208
216.263
216.316
216.371
216.425
216.479
216.533
216.588
216.641
216.696
216.75
216.804
216.858
216.913
216.967
217.022
217.075
217.13
217.184
217.239
217.293
217.348
217.402
217.457
217.511
217.566
217.62
217.675
217.729
217.784
217.838
217.894
217.948
218.003
218.057
218.112
218.166
218.222
218.276
218.332
218.386
218.441
218.495
218.551
218.605
218.661
218.715
218.771
218.825
218.881
218.935
218.991
219.045
219.101
219.156
219.212
219.266
219.322
219.376
219.432
219.487
219.543
219.597
219.653
219.708
219.764
219.819
219.875
219.93
219.986
220.041
220.097
220.152
220.208
220.263
220.319
220.374
220.43
220.485
220.541
220.596
220.653
220.708
220.764
220.819
220.876
220.931
220.987
221.042
221.099
221.154
221.211
221.266
221.322
221.378
221.434
221.49
221.546
221.602
221.658
221.714
221.771
221.826
221.883
221.938
221.995
222.05
222.107
222.163
222.22
222.275
222.332
222.388
222.445
222.5
222.558
222.613
222.67
222.726
222.783
222.839
222.896
222.952
223.009
223.065
223.122
223.178
223.235
223.291
223.348
223.404
223.462
223.517
223.575
223.63
223.689
223.744
223.802
223.857
223.916
223.97
224.03
224.084
224.144
224.197
224.258
224.31
224.372
224.423
224.487
224.537
224.601
224.65
224.716
224.763
224.831
224.876
224.946
224.989
225.062
225.102
225.177
225.215
225.291
225.329
225.406
225.444
225.52
225.558
225.635
225.673
225.749
225.787
225.864
225.902
225.978
226.016
226.093
226.131
226.207
226.246
226.322
226.36
226.437
226.475
226.552
226.59
226.667
226.705
226.782
226.82
226.897
226.935
227.012
227.05
227.127
227.165
227.242
227.281
227.357
227.396
227.473
227.511
227.588
227.627
227.704
227.742
227.819
227.858
227.935
227.973
228.05
228.089
228.166
228.204
228.282
228.32
228.397
228.436
228.513
228.552
228.629
228.668
228.745
228.784
228.862
228.9
228.978
229.017
229.094
229.133
229.21
229.249
229.327
229.365
229.443
229.482
229.559
229.598
229.676
229.714
229.792
229.831
229.909
229.948
230.025
230.064
230.142
230.181
230.259
230.298
230.376
230.415
230.493
230.532
230.61
230.649
230.727
230.766
230.845
230.883
230.963
231.001
231.081
231.118
231.2
231.236
231.318
231.353
231.437
231.471
231.556
231.589
231.676
231.708
231.795
231.827
231.916
231.947
232.036
232.067
232.158
232.188
232.28
232.31
232.402
232.433
232.526
232.557
232.651
232.681
232.777
232.807
232.904
232.934
233.032
233.063
233.161
233.192
233.292
233.323
233.424
233.456
233.558
233.589
233.693
233.725
233.83
233.861
233.967
233.999
234.106
234.137
234.241
234.287
234.366
234.441
234.504
234.577
234.652
234.717
234.791
234.862
234.932
235.002
235.075
235.143
235.216
235.285
235.357
235.425
235.497
235.564
235.636
235.703
235.774
235.84
235.912
235.976
236.048
236.11
236.183
236.243
236.317
236.375
236.45
236.505
236.582
236.634
236.713
236.762
236.842
236.889
236.97
237.015
237.098
237.141
237.224
237.266
237.349
237.391
237.473
237.515
237.597
237.638
237.72
237.761
237.843
237.884
237.966
238.006
238.088
238.128
238.21
238.25
238.332
238.371
238.454
238.492
238.576
238.612
238.699
238.731
238.821
238.85
238.943
238.969
239.064
239.088
239.185
239.207
239.305
239.326
239.425
239.445
239.544
239.564
239.664
239.683
239.783
239.802
239.902
239.92
240.021
240.039
240.14
240.157
240.259
240.276
240.378
240.396
240.498
240.516
240.62
240.638
240.744
240.762
240.871
240.89
241.004
241.024
241.143
241.165
241.292
241.316
241.45
241.476
241.619
241.646
241.797
241.825
241.984
242.009
242.181
)
;

boundaryField
{
    sides
    {
        type            zeroGradient;
    }
    empty
    {
        type            empty;
    }
}


// ************************************************************************* //
