/*--------------------------------*- C++ -*----------------------------------*\
  =========                 |
  \\      /  F ield         | OpenFOAM: The Open Source CFD Toolbox
   \\    /   O peration     | Website:  https://openfoam.org
    \\  /    A nd           | Version:  9
     \\/     M anipulation  |
\*---------------------------------------------------------------------------*/
FoamFile
{
    format      ascii;
    class       surfaceScalarField;
    location    "0.029";
    object      phi;
}
// * * * * * * * * * * * * * * * * * * * * * * * * * * * * * * * * * * * * * //

dimensions      [1 0 -1 0 0 0 0];

internalField   nonuniform List<scalar> 
999
(
17.1735
17.751
18.3283
18.9052
19.4816
20.0578
20.6341
21.2103
21.7861
22.3613
22.9357
23.5096
24.0833
24.6572
25.2316
25.8067
26.3825
26.9589
27.5354
28.112
28.6885
29.2651
29.8421
30.4197
30.9972
31.5747
32.1521
32.7294
33.3066
33.8838
34.4608
35.0378
35.6146
36.1914
36.7681
37.3448
37.9213
38.4978
39.0741
39.6504
40.2266
40.8028
41.3788
41.9548
42.5306
43.1064
43.6821
44.2578
44.8333
45.4088
45.9841
46.5594
47.1346
47.7097
48.2847
48.8597
49.4345
50.0093
50.584
51.1585
51.733
52.3074
52.8818
53.456
54.0301
54.6042
55.1781
55.752
56.3258
56.8995
57.4731
58.0466
58.62
59.1933
59.7665
60.3396
60.9127
61.4856
62.0584
62.6312
63.2038
63.7764
64.3489
64.9212
65.4935
66.0656
66.6378
67.2097
67.7816
68.3534
68.9251
69.4967
70.0682
70.6396
71.2108
71.782
72.3531
72.9241
73.495
74.0659
74.6364
75.2072
75.7775
76.3481
76.9183
77.4885
78.0587
78.6285
79.1986
79.7683
80.3379
80.9077
81.477
82.0464
82.6158
83.1848
83.754
84.3229
84.8917
85.4605
86.0291
86.5976
87.1661
87.7344
88.3026
88.8708
89.4387
90.0066
90.5744
91.142
91.7096
92.2771
92.8444
93.4116
93.9787
94.5457
95.1126
95.6793
96.246
96.8125
97.379
97.9453
98.5115
99.0776
99.6436
100.209
100.775
101.341
101.906
102.472
103.037
103.602
104.167
104.732
105.297
105.862
106.426
106.991
107.555
108.119
108.683
109.247
109.811
110.375
110.938
111.502
112.065
112.628
113.191
113.754
114.317
114.88
115.442
116.005
116.567
117.129
117.692
118.254
118.815
119.377
119.939
120.5
121.061
121.623
122.184
122.745
123.305
123.866
124.427
124.987
125.547
126.107
126.667
127.227
127.787
128.346
128.906
129.465
130.024
130.583
131.142
131.701
132.26
132.818
133.376
133.935
134.493
135.051
135.608
136.166
136.724
137.281
137.838
138.395
138.952
139.509
140.065
140.622
141.178
141.734
142.29
142.846
143.402
143.958
144.513
145.068
145.624
146.179
146.733
147.288
147.843
148.397
148.951
149.505
150.059
150.613
151.166
151.72
152.273
152.826
153.379
153.932
154.485
155.037
155.589
156.141
156.693
157.245
157.797
158.348
158.9
159.451
160.002
160.553
161.103
161.654
162.204
162.754
163.304
163.854
164.403
164.953
165.502
166.051
166.6
167.149
167.697
168.246
168.794
169.342
169.89
170.437
170.985
171.532
172.079
172.626
173.173
173.719
174.266
174.812
175.358
175.903
176.449
176.994
177.539
178.084
178.629
179.174
179.718
180.262
180.806
181.35
181.893
182.436
182.98
183.522
184.065
184.608
185.15
185.692
186.234
186.775
187.316
187.858
188.398
188.939
189.48
190.02
190.56
191.1
191.639
192.178
192.717
193.256
193.795
194.333
194.871
195.409
195.946
196.484
197.021
197.557
198.094
198.63
199.166
199.702
200.237
200.772
201.307
201.842
202.376
202.91
203.444
203.977
204.51
205.043
205.576
206.108
206.64
207.171
207.703
208.234
208.764
209.295
209.825
210.354
210.883
211.412
211.941
212.469
212.997
213.525
214.052
214.579
215.105
215.631
216.157
216.682
217.207
217.731
218.255
218.779
219.302
219.824
220.347
220.869
221.39
221.911
222.431
222.951
223.471
223.99
224.508
225.026
225.544
226.061
226.577
227.093
227.608
228.123
228.637
229.152
229.665
230.178
230.691
231.202
231.713
232.223
232.732
233.241
233.75
234.257
234.764
235.27
235.776
236.28
236.784
237.288
237.79
238.292
238.793
239.294
239.793
240.292
240.79
241.287
241.784
242.279
242.774
243.268
243.761
244.253
244.744
245.235
245.724
246.213
246.701
247.188
247.674
248.159
248.643
249.126
249.609
250.09
250.571
251.05
251.529
252.007
252.484
252.96
253.435
253.91
254.383
254.856
255.328
255.799
256.269
256.738
257.207
257.675
258.142
258.609
259.074
259.54
260.004
260.468
260.932
261.394
261.857
262.319
262.78
263.241
263.702
264.162
264.622
265.082
265.541
266
266.459
266.918
267.377
267.836
268.294
268.753
269.212
269.671
270.129
270.588
271.047
271.507
271.966
272.426
272.885
273.346
273.806
274.267
274.728
275.189
275.651
276.113
276.576
277.039
277.502
277.966
278.431
278.895
279.361
279.827
280.293
280.76
281.227
281.695
282.163
282.632
283.102
283.572
284.043
284.514
284.986
285.458
285.931
286.405
286.879
287.353
287.829
288.304
288.781
289.258
289.735
290.214
290.692
291.172
291.652
292.133
292.614
293.096
293.578
294.061
294.545
295.029
295.514
295.999
296.485
296.972
297.459
297.947
298.435
298.924
299.414
299.904
300.395
300.887
301.379
301.872
302.365
302.859
303.354
303.849
304.345
304.841
305.338
305.836
306.334
306.833
307.332
307.833
308.333
308.835
309.337
309.839
310.342
310.846
311.351
311.856
312.361
312.868
313.375
313.882
314.39
314.899
315.409
315.919
316.429
316.94
317.452
317.965
318.478
318.992
319.506
320.021
320.537
321.053
321.57
322.087
322.606
323.124
323.644
324.164
324.684
325.206
325.727
326.25
326.773
327.297
327.821
328.346
328.872
329.398
329.925
330.452
330.981
331.509
332.039
332.569
333.099
333.631
334.163
334.695
335.228
335.762
336.296
336.831
337.367
337.903
338.44
338.978
339.516
340.055
340.594
341.134
341.675
342.216
342.758
343.3
343.844
344.387
344.932
345.477
346.022
346.569
347.116
347.663
348.211
348.76
349.309
349.859
350.41
350.961
351.513
352.066
352.619
353.173
353.727
354.282
354.838
355.394
355.951
356.508
357.066
357.625
358.184
358.744
359.305
359.866
360.428
360.99
361.553
362.117
362.681
363.246
363.811
364.377
364.944
365.511
366.079
366.648
367.217
367.786
368.357
368.927
369.499
370.071
370.644
371.217
371.791
372.365
372.94
373.516
374.092
374.669
375.246
375.824
376.402
376.981
377.561
378.141
378.722
379.303
379.885
380.467
381.05
381.634
382.218
382.803
383.388
383.974
384.56
385.147
385.734
386.322
386.91
387.499
388.089
388.679
389.269
389.86
390.452
391.044
391.636
392.23
392.823
393.417
394.012
394.607
395.202
395.798
396.395
396.992
397.589
398.187
398.785
399.384
399.983
400.583
401.183
401.784
402.385
402.986
403.588
404.19
404.793
405.396
405.999
406.603
407.207
407.812
408.417
409.022
409.628
410.234
410.84
411.447
412.054
412.662
413.269
413.877
414.486
415.094
415.703
416.312
416.922
417.531
418.141
418.751
419.362
419.972
420.583
421.194
421.805
422.416
423.028
423.639
424.251
424.863
425.475
426.087
426.699
427.311
427.924
428.536
429.148
429.76
430.373
430.985
431.597
432.209
432.821
433.433
434.045
434.656
435.268
435.879
436.49
437.101
437.712
438.322
438.932
439.542
440.151
440.76
441.369
441.977
442.584
443.192
443.798
444.404
445.01
445.615
446.219
446.823
447.426
448.028
448.629
449.23
449.829
450.428
451.026
451.623
452.218
452.813
453.407
453.999
454.591
455.181
455.769
456.357
456.943
457.527
458.11
458.692
459.272
459.85
460.426
461.001
461.574
462.145
462.713
463.281
463.845
464.409
464.968
465.528
466.082
466.637
467.186
467.736
468.28
468.824
469.363
469.901
470.433
470.966
471.493
472.019
472.539
473.059
473.572
474.084
474.591
475.096
475.595
476.092
476.584
477.072
477.556
478.036
478.511
478.983
479.448
479.911
480.368
480.821
481.268
481.711
482.148
482.582
483.009
483.432
483.849
484.26
484.664
485.064
485.457
485.849
486.233
486.609
486.977
487.343
487.699
488.056
488.404
488.746
489.077
489.406
489.723
490.04
490.348
490.652
490.945
491.236
491.514
491.792
492.061
492.326
492.581
492.832
493.072
493.308
493.539
493.765
493.982
494.194
494.396
494.594
494.787
494.975
495.156
495.329
495.497
495.662
495.819
495.972
496.115
496.257
496.395
496.526
496.65
496.771
496.888
497.002
497.108
497.211
497.307
497.402
497.495
497.582
497.663
497.742
497.816
497.89
497.959
498.024
498.085
498.145
498.201
498.256
498.306
498.354
498.399
498.442
498.483
498.522
498.558
498.593
498.625
498.656
498.684
498.711
498.736
498.76
498.782
498.803
498.823
498.841
498.857
498.874
498.888
498.902
498.915
498.926
498.937
498.947
498.957
498.965
498.973
498.981
498.987
498.993
498.999
499.004
499.009
499.013
499.018
499.021
499.024
499.028
499.03
499.033
499.035
499.037
499.039
499.04
499.041
499.043
499.044
499.045
499.045
499.046
499.047
499.047
499.047
499.048
499.048
499.048
499.048
499.048
499.048
499.047
499.047
499.047
499.047
499.046
499.046
499.046
499.045
499.045
499.044
499.044
499.043
)
;

boundaryField
{
    sides
    {
        type            calculated;
        value           nonuniform List<scalar> 2(499.043 -16.5957);
    }
    empty
    {
        type            empty;
        value           nonuniform List<scalar> 0();
    }
}


// ************************************************************************* //
