/*--------------------------------*- C++ -*----------------------------------*\
  =========                 |
  \\      /  F ield         | OpenFOAM: The Open Source CFD Toolbox
   \\    /   O peration     | Website:  https://openfoam.org
    \\  /    A nd           | Version:  9
     \\/     M anipulation  |
\*---------------------------------------------------------------------------*/
FoamFile
{
    format      ascii;
    class       volScalarField;
    location    "0.012";
    object      p_0;
}
// * * * * * * * * * * * * * * * * * * * * * * * * * * * * * * * * * * * * * //

dimensions      [1 -1 -2 0 0 0 0];

internalField   nonuniform List<scalar> 
100
(
98809.7
98067.3
97184
96024
94648.7
93086
91382.7
89582.1
87721
85827.2
83921.1
82016.8
80124
78249.7
76398.6
74574.2
72778.8
71014.3
69282
67582.8
65917.4
64286.2
62689.6
61127.6
59600.9
58108.4
56652.8
55228.2
53846.2
52487.2
51179.5
49890.7
48647
47437.9
46257.7
45118.3
44015.4
42945.7
41913.4
40919.6
39963.4
39046.4
38168
37329.7
36534.6
35785.1
35078.8
34416.8
33797.7
33238.4
32726
32263.2
31847.8
31494
31168.4
30936.9
30729
30560.9
30444.5
30356.7
30300
30261.4
30255.4
30249.2
30249.3
30250.6
30251.5
30253.8
30254.9
30261.3
30259.6
30264.7
30274.8
30267
30283.3
30299.8
30313.6
30303.1
30315.8
30348.3
30341.1
30334.2
30426.9
30435.5
30402.5
30363.1
30452.4
30522.9
30571.7
30481.1
30420.1
30620.2
30683.6
30528.4
30504.2
30716.8
30757
30571.6
30597.5
30735.9
)
;

boundaryField
{
    sides
    {
        type            zeroGradient;
    }
    empty
    {
        type            empty;
    }
}


// ************************************************************************* //
