/*--------------------------------*- C++ -*----------------------------------*\
  =========                 |
  \\      /  F ield         | OpenFOAM: The Open Source CFD Toolbox
   \\    /   O peration     | Website:  https://openfoam.org
    \\  /    A nd           | Version:  9
     \\/     M anipulation  |
\*---------------------------------------------------------------------------*/
FoamFile
{
    format      ascii;
    class       volVectorField;
    location    "0.012";
    object      U_0;
}
// * * * * * * * * * * * * * * * * * * * * * * * * * * * * * * * * * * * * * //

dimensions      [0 1 -1 0 0 0 0];

internalField   nonuniform List<vector> 
100
(
(2.06414 0 0)
(5.01524 0 0)
(7.42371 0 0)
(10.6678 0 0)
(14.4875 0 0)
(18.8733 0 0)
(23.7206 0 0)
(28.9344 0 0)
(34.4247 0 0)
(40.1202 0 0)
(45.967 0 0)
(51.9268 0 0)
(57.972 0 0)
(64.0827 0 0)
(70.2443 0 0)
(76.4456 0 0)
(82.6778 0 0)
(88.934 0 0)
(95.2084 0 0)
(101.496 0 0)
(107.793 0 0)
(114.094 0 0)
(120.397 0 0)
(126.698 0 0)
(132.995 0 0)
(139.279 0 0)
(145.56 0 0)
(151.809 0 0)
(158.065 0 0)
(164.264 0 0)
(170.464 0 0)
(176.626 0 0)
(182.725 0 0)
(188.831 0 0)
(194.855 0 0)
(200.815 0 0)
(206.75 0 0)
(212.596 0 0)
(218.346 0 0)
(224.026 0 0)
(229.603 0 0)
(235.05 0 0)
(240.373 0 0)
(245.558 0 0)
(250.566 0 0)
(255.383 0 0)
(260.013 0 0)
(264.432 0 0)
(268.577 0 0)
(272.427 0 0)
(276.013 0 0)
(279.29 0 0)
(282.253 0 0)
(284.852 0 0)
(286.988 0 0)
(288.822 0 0)
(290.399 0 0)
(291.601 0 0)
(292.497 0 0)
(293.135 0 0)
(293.475 0 0)
(293.609 0 0)
(293.698 0 0)
(293.759 0 0)
(293.8 0 0)
(293.833 0 0)
(293.85 0 0)
(293.852 0 0)
(293.852 0 0)
(293.853 0 0)
(293.849 0 0)
(293.846 0 0)
(293.842 0 0)
(293.83 0 0)
(293.828 0 0)
(293.836 0 0)
(293.835 0 0)
(293.815 0 0)
(293.819 0 0)
(293.859 0 0)
(293.893 0 0)
(293.935 0 0)
(294.026 0 0)
(293.906 0 0)
(293.405 0 0)
(292.845 0 0)
(292.464 0 0)
(292.209 0 0)
(291.914 0 0)
(291.424 0 0)
(290.988 0 0)
(290.913 0 0)
(290.734 0 0)
(290.143 0 0)
(289.706 0 0)
(289.678 0 0)
(289.432 0 0)
(288.787 0 0)
(288.518 0 0)
(288.284 0 0)
)
;

boundaryField
{
    sides
    {
        type            zeroGradient;
    }
    empty
    {
        type            empty;
    }
}


// ************************************************************************* //
