/*--------------------------------*- C++ -*----------------------------------*\
  =========                 |
  \\      /  F ield         | OpenFOAM: The Open Source CFD Toolbox
   \\    /   O peration     | Website:  https://openfoam.org
    \\  /    A nd           | Version:  9
     \\/     M anipulation  |
\*---------------------------------------------------------------------------*/
FoamFile
{
    format      ascii;
    class       volScalarField;
    location    "0.032";
    object      mag(U);
}
// * * * * * * * * * * * * * * * * * * * * * * * * * * * * * * * * * * * * * //

dimensions      [0 1 -1 0 0 0 0];

internalField   nonuniform List<scalar> 
1000
(
14.0493
14.503
15.0099
15.4257
15.803
16.1831
16.5717
16.9631
17.3539
17.7441
18.1342
18.5243
18.9145
19.3047
19.6949
20.0852
20.4756
20.866
21.2565
21.6471
22.0378
22.4284
22.8191
23.2098
23.6004
23.9911
24.3819
24.7726
25.1635
25.5543
25.9452
26.3362
26.7271
27.1181
27.5091
27.9001
28.2912
28.6823
29.0735
29.4647
29.8559
30.2472
30.6385
31.0298
31.4212
31.8126
32.204
32.5955
32.987
33.3785
33.7701
34.1617
34.5533
34.945
35.3367
35.7285
36.1202
36.512
36.9039
37.2957
37.6877
38.0796
38.4716
38.8636
39.2556
39.6477
40.0398
40.4319
40.8241
41.2163
41.6085
42.0008
42.3931
42.7854
43.1777
43.5701
43.9625
44.355
44.7474
45.1399
45.5325
45.925
46.3176
46.7102
47.1029
47.4956
47.8883
48.281
48.6738
49.0666
49.4594
49.8522
50.2451
50.638
51.0309
51.4239
51.8169
52.2099
52.6029
52.996
53.3891
53.7822
54.1753
54.5685
54.9617
55.3549
55.7482
56.1414
56.5347
56.928
57.3214
57.7147
58.1081
58.5015
58.895
59.2884
59.6819
60.0754
60.4689
60.8625
61.256
61.6496
62.0432
62.4368
62.8305
63.2242
63.6178
64.0116
64.4053
64.799
65.1928
65.5866
65.9804
66.3742
66.768
67.1619
67.5558
67.9497
68.3436
68.7375
69.1314
69.5254
69.9194
70.3134
70.7074
71.1014
71.4954
71.8894
72.2835
72.6776
73.0717
73.4657
73.8599
74.254
74.6481
75.0422
75.4364
75.8305
76.2247
76.6189
77.0131
77.4073
77.8015
78.1957
78.5899
78.9841
79.3784
79.7726
80.1668
80.5611
80.9553
81.3496
81.7438
82.1381
82.5323
82.9266
83.3209
83.7151
84.1094
84.5036
84.8979
85.2922
85.6864
86.0807
86.4749
86.8691
87.2634
87.6576
88.0518
88.446
88.8402
89.2344
89.6286
90.0228
90.417
90.8111
91.2053
91.5994
91.9935
92.3876
92.7817
93.1758
93.5698
93.9639
94.3579
94.7519
95.1459
95.5398
95.9338
96.3277
96.7216
97.1154
97.5093
97.9031
98.2969
98.6906
99.0844
99.4781
99.8717
100.265
100.659
101.053
101.446
101.84
102.233
102.626
103.02
103.413
103.806
104.2
104.593
104.986
105.379
105.772
106.165
106.558
106.951
107.344
107.736
108.129
108.522
108.914
109.307
109.699
110.091
110.484
110.876
111.268
111.66
112.052
112.444
112.836
113.227
113.619
114.01
114.402
114.793
115.184
115.575
115.966
116.357
116.748
117.139
117.529
117.92
118.31
118.7
119.09
119.48
119.87
120.26
120.649
121.038
121.428
121.817
122.205
122.594
122.983
123.371
123.759
124.147
124.535
124.923
125.31
125.697
126.084
126.471
126.858
127.244
127.631
128.016
128.402
128.788
129.173
129.558
129.942
130.327
130.711
131.095
131.478
131.862
132.245
132.627
133.01
133.392
133.773
134.155
134.536
134.916
135.297
135.676
136.056
136.435
136.814
137.192
137.57
137.947
138.324
138.7
139.076
139.452
139.827
140.201
140.575
140.948
141.321
141.693
142.065
142.436
142.806
143.176
143.545
143.913
144.281
144.648
145.014
145.38
145.745
146.109
146.472
146.835
147.196
147.558
147.918
148.279
148.637
148.995
149.351
149.707
150.061
150.414
150.766
151.117
151.467
151.816
152.163
152.51
152.855
153.199
153.542
153.883
154.223
154.562
154.899
155.235
155.569
155.902
156.233
156.563
156.891
157.218
157.543
157.866
158.188
158.508
158.826
159.142
159.456
159.769
160.079
160.388
160.694
160.999
161.302
161.602
161.901
162.197
162.491
162.784
163.073
163.361
163.647
163.93
164.211
164.489
164.766
165.04
165.312
165.581
165.848
166.113
166.376
166.636
166.894
167.149
167.402
167.653
167.902
168.148
168.392
168.634
168.874
169.111
169.347
169.58
169.811
170.04
170.267
170.493
170.716
170.937
171.157
171.374
171.59
171.805
172.017
172.229
172.438
172.646
172.853
173.059
173.263
173.465
173.667
173.868
174.067
174.265
174.463
174.659
174.855
175.05
175.244
175.437
175.63
175.822
176.013
176.204
176.394
176.584
176.773
176.962
177.151
177.339
177.527
177.715
177.902
178.089
178.276
178.463
178.649
178.836
179.022
179.208
179.394
179.58
179.766
179.952
180.137
180.323
180.509
180.694
180.88
181.065
181.251
181.437
181.622
181.808
181.993
182.179
182.365
182.55
182.736
182.922
183.107
183.293
183.479
183.665
183.851
184.037
184.222
184.408
184.594
184.781
184.967
185.153
185.339
185.525
185.711
185.898
186.084
186.271
186.457
186.644
186.83
187.017
187.203
187.39
187.577
187.763
187.95
188.137
188.324
188.511
188.698
188.885
189.072
189.259
189.446
189.634
189.821
190.008
190.196
190.383
190.571
190.758
190.946
191.133
191.321
191.509
191.696
191.884
192.072
192.26
192.448
192.636
192.824
193.012
193.2
193.388
193.577
193.765
193.953
194.142
194.33
194.519
194.707
194.896
195.084
195.273
195.462
195.651
195.839
196.028
196.217
196.406
196.595
196.784
196.973
197.162
197.352
197.541
197.73
197.92
198.109
198.298
198.488
198.677
198.867
199.057
199.246
199.436
199.626
199.816
200.005
200.195
200.385
200.575
200.765
200.955
201.145
201.336
201.526
201.716
201.906
202.097
202.287
202.478
202.668
202.859
203.049
203.24
203.43
203.621
203.812
204.003
204.194
204.384
204.575
204.766
204.957
205.148
205.34
205.531
205.722
205.913
206.104
206.296
206.487
206.678
206.87
207.061
207.253
207.445
207.636
207.828
208.02
208.211
208.403
208.595
208.787
208.979
209.171
209.363
209.555
209.747
209.939
210.131
210.323
210.516
210.708
210.9
211.093
211.285
211.478
211.67
211.863
212.055
212.248
212.441
212.633
212.826
213.019
213.212
213.405
213.597
213.79
213.983
214.176
214.37
214.563
214.756
214.949
215.142
215.336
215.529
215.722
215.916
216.109
216.303
216.496
216.69
216.883
217.077
217.271
217.464
217.658
217.852
218.046
218.24
218.433
218.627
218.821
219.015
219.209
219.404
219.598
219.792
219.986
220.18
220.375
220.569
220.763
220.958
221.152
221.347
221.541
221.736
221.93
222.125
222.32
222.514
222.709
222.904
223.099
223.293
223.488
223.683
223.878
224.073
224.268
224.463
224.658
224.853
225.048
225.244
225.439
225.634
225.829
226.025
226.22
226.416
226.611
226.806
227.002
227.197
227.393
227.589
227.784
227.98
228.176
228.371
228.567
228.763
228.959
229.154
229.35
229.546
229.742
229.938
230.134
230.33
230.526
230.722
230.919
231.115
231.311
231.507
231.703
231.9
232.096
232.292
232.489
232.685
232.881
233.078
233.274
233.471
233.667
233.864
234.061
234.257
234.454
234.651
234.847
235.044
235.241
235.438
235.634
235.831
236.028
236.225
236.422
236.619
236.816
237.013
237.21
237.407
237.604
237.801
237.998
238.195
238.392
238.589
238.787
238.984
239.181
239.378
239.575
239.773
239.97
240.167
240.365
240.562
240.759
240.957
241.154
241.352
241.549
241.746
241.944
242.141
242.339
242.536
242.733
242.931
243.128
243.325
243.523
243.72
243.918
244.115
244.313
244.51
244.708
244.906
245.104
245.301
245.499
245.697
245.895
246.093
246.291
246.489
246.687
246.884
247.082
247.28
247.478
247.676
247.874
248.072
248.27
248.468
248.666
248.863
249.061
249.259
249.457
249.655
249.852
250.05
250.248
250.445
250.643
250.84
251.037
251.234
251.431
251.628
251.825
252.022
252.218
252.414
252.61
252.806
253.001
253.196
253.391
253.585
253.779
253.973
254.166
254.359
254.551
254.742
254.933
255.124
255.313
255.502
255.69
255.878
256.064
256.25
256.435
256.618
256.801
256.983
257.163
257.343
257.521
257.698
257.874
258.049
258.223
258.395
258.567
258.737
258.906
259.074
259.24
259.406
259.571
259.734
259.897
260.059
260.22
260.38
260.54
260.699
260.857
261.016
261.174
261.331
261.489
261.647
261.804
261.962
262.121
262.279
262.439
262.599
262.758
262.921
263.082
263.244
263.407
263.571
263.736
263.903
264.07
264.238
264.407
264.578
264.749
264.921
265.095
265.269
265.444
265.621
265.798
265.976
266.155
266.334
266.515
266.696
266.877
267.06
267.243
267.426
267.61
267.794
267.979
268.164
268.349
268.535
268.721
268.907
269.093
269.279
269.466
269.652
269.839
270.026
270.213
270.399
270.586
270.773
270.96
271.146
271.333
271.519
271.706
271.892
272.078
272.264
272.45
272.636
272.822
273.007
273.193
273.378
273.563
273.748
273.933
274.117
274.302
274.486
274.67
274.853
275.037
275.22
275.402
275.585
275.767
275.949
276.13
276.311
276.491
276.671
276.85
277.028
277.206
277.383
277.558
277.732
277.904
278.074
278.241
278.405
278.563
278.717
278.863
279.002
279.132
279.251
279.359
279.454
279.537
279.608
279.826
)
;

boundaryField
{
    sides
    {
        type            calculated;
        value           nonuniform List<scalar> 2(279.826 14.0493);
    }
    empty
    {
        type            empty;
    }
}


// ************************************************************************* //
