/*--------------------------------*- C++ -*----------------------------------*\
  =========                 |
  \\      /  F ield         | OpenFOAM: The Open Source CFD Toolbox
   \\    /   O peration     | Website:  https://openfoam.org
    \\  /    A nd           | Version:  9
     \\/     M anipulation  |
\*---------------------------------------------------------------------------*/
FoamFile
{
    format      ascii;
    class       volScalarField;
    location    "0.032";
    object      T;
}
// * * * * * * * * * * * * * * * * * * * * * * * * * * * * * * * * * * * * * //

dimensions      [0 0 0 1 0 0 0];

internalField   nonuniform List<scalar> 
1000
(
211.877
211.891
211.917
211.946
211.975
212.003
212.03
212.058
212.088
212.119
212.148
212.173
212.196
212.219
212.245
212.274
212.307
212.34
212.373
212.402
212.426
212.444
212.456
212.463
212.465
212.466
212.466
212.466
212.464
212.461
212.453
212.443
212.432
212.422
212.411
212.401
212.39
212.38
212.369
212.359
212.349
212.338
212.328
212.318
212.308
212.297
212.287
212.277
212.267
212.256
212.246
212.236
212.226
212.215
212.205
212.195
212.185
212.174
212.164
212.154
212.144
212.133
212.123
212.113
212.103
212.092
212.082
212.072
212.062
212.051
212.042
212.03
212.022
212.009
212.002
211.988
211.981
211.968
211.961
211.947
211.94
211.926
211.92
211.906
211.899
211.886
211.877
211.866
211.856
211.847
211.835
211.826
211.815
211.804
211.795
211.783
211.774
211.764
211.753
211.743
211.733
211.722
211.713
211.702
211.691
211.682
211.671
211.661
211.651
211.64
211.63
211.62
211.609
211.599
211.589
211.578
211.568
211.558
211.547
211.537
211.527
211.517
211.506
211.496
211.486
211.475
211.465
211.455
211.445
211.434
211.424
211.414
211.403
211.393
211.383
211.373
211.362
211.352
211.342
211.331
211.321
211.311
211.301
211.29
211.28
211.27
211.259
211.249
211.239
211.229
211.218
211.208
211.198
211.188
211.177
211.167
211.157
211.147
211.136
211.126
211.116
211.106
211.095
211.085
211.075
211.065
211.054
211.044
211.034
211.024
211.014
211.003
210.993
210.983
210.973
210.963
210.952
210.942
210.932
210.922
210.912
210.902
210.891
210.881
210.871
210.861
210.851
210.841
210.831
210.821
210.81
210.8
210.79
210.78
210.77
210.76
210.75
210.74
210.73
210.72
210.71
210.7
210.69
210.68
210.67
210.66
210.65
210.64
210.63
210.62
210.61
210.6
210.59
210.58
210.57
210.56
210.551
210.541
210.531
210.521
210.511
210.501
210.492
210.482
210.472
210.462
210.453
210.443
210.433
210.424
210.414
210.404
210.395
210.385
210.376
210.366
210.356
210.347
210.337
210.328
210.319
210.309
210.3
210.29
210.281
210.272
210.262
210.253
210.244
210.235
210.225
210.216
210.207
210.198
210.189
210.18
210.171
210.162
210.153
210.144
210.135
210.126
210.117
210.109
210.1
210.091
210.082
210.074
210.065
210.057
210.048
210.04
210.031
210.023
210.015
210.006
209.998
209.99
209.982
209.974
209.966
209.958
209.95
209.942
209.935
209.927
209.919
209.912
209.904
209.897
209.889
209.882
209.875
209.868
209.861
209.854
209.847
209.84
209.833
209.827
209.82
209.814
209.807
209.801
209.795
209.789
209.783
209.777
209.771
209.766
209.76
209.755
209.749
209.744
209.739
209.734
209.73
209.725
209.72
209.716
209.712
209.708
209.704
209.7
209.697
209.693
209.69
209.687
209.684
209.681
209.679
209.676
209.674
209.672
209.671
209.669
209.668
209.667
209.666
209.666
209.665
209.665
209.665
209.665
209.666
209.666
209.667
209.669
209.671
209.673
209.675
209.678
209.681
209.684
209.688
209.692
209.697
209.701
209.706
209.712
209.718
209.724
209.731
209.738
209.746
209.753
209.762
209.771
209.78
209.79
209.8
209.811
209.822
209.834
209.846
209.859
209.873
209.886
209.901
209.916
209.932
209.948
209.965
209.982
210
210.019
210.038
210.058
210.078
210.099
210.121
210.144
210.167
210.191
210.215
210.24
210.266
210.293
210.32
210.348
210.377
210.406
210.436
210.467
210.499
210.531
210.564
210.597
210.631
210.666
210.702
210.738
210.775
210.812
210.85
210.889
210.929
210.969
211.009
211.051
211.092
211.135
211.178
211.221
211.265
211.309
211.354
211.4
211.446
211.492
211.539
211.586
211.633
211.681
211.729
211.778
211.827
211.876
211.926
211.976
212.026
212.076
212.127
212.178
212.229
212.28
212.332
212.384
212.435
212.488
212.54
212.592
212.644
212.697
212.75
212.803
212.855
212.909
212.962
213.015
213.068
213.122
213.175
213.229
213.282
213.336
213.39
213.444
213.497
213.551
213.605
213.659
213.713
213.767
213.821
213.875
213.929
213.984
214.038
214.092
214.146
214.201
214.255
214.309
214.364
214.418
214.472
214.527
214.581
214.636
214.69
214.745
214.8
214.854
214.909
214.964
215.018
215.073
215.128
215.182
215.237
215.292
215.347
215.402
215.457
215.511
215.566
215.621
215.676
215.731
215.786
215.841
215.896
215.952
216.007
216.062
216.117
216.172
216.227
216.283
216.338
216.393
216.448
216.504
216.559
216.615
216.669
216.725
216.78
216.836
216.891
216.947
217.002
217.058
217.113
217.169
217.225
217.281
217.336
217.392
217.447
217.503
217.559
217.615
217.67
217.726
217.782
217.838
217.894
217.95
218.005
218.062
218.117
218.174
218.229
218.286
218.341
218.398
218.453
218.51
218.566
218.622
218.678
218.735
218.79
218.847
218.903
218.96
219.015
219.072
219.128
219.185
219.241
219.298
219.354
219.411
219.467
219.524
219.58
219.637
219.693
219.75
219.806
219.863
219.919
219.976
220.033
220.09
220.146
220.203
220.26
220.317
220.373
220.431
220.487
220.544
220.601
220.658
220.715
220.772
220.829
220.886
220.943
221
221.057
221.114
221.171
221.229
221.285
221.343
221.4
221.458
221.514
221.572
221.629
221.687
221.743
221.801
221.858
221.916
221.973
222.031
222.088
222.146
222.203
222.261
222.318
222.376
222.433
222.491
222.548
222.607
222.664
222.722
222.779
222.837
222.895
222.953
223.01
223.069
223.126
223.184
223.241
223.3
223.357
223.416
223.473
223.532
223.589
223.648
223.705
223.764
223.821
223.88
223.937
223.996
224.054
224.113
224.17
224.229
224.287
224.346
224.403
224.462
224.52
224.579
224.636
224.695
224.753
224.812
224.87
224.929
224.987
225.046
225.104
225.163
225.221
225.28
225.338
225.397
225.455
225.514
225.572
225.632
225.69
225.749
225.807
225.866
225.924
225.984
226.042
226.101
226.159
226.219
226.277
226.337
226.395
226.454
226.513
226.572
226.63
226.69
226.748
226.808
226.866
226.926
226.984
227.044
227.102
227.162
227.22
227.28
227.338
227.398
227.457
227.517
227.575
227.635
227.693
227.753
227.811
227.872
227.93
227.99
228.048
228.109
228.167
228.228
228.285
228.347
228.403
228.466
228.522
228.585
228.64
228.704
228.758
228.823
228.877
228.943
228.995
229.063
229.113
229.183
229.231
229.303
229.348
229.423
229.466
229.543
229.585
229.663
229.703
229.783
229.823
229.902
229.942
230.022
230.062
230.141
230.181
230.261
230.3
230.38
230.42
230.5
230.54
230.62
230.659
230.739
230.779
230.859
230.899
230.979
231.019
231.099
231.139
231.219
231.259
231.339
231.379
231.459
231.499
231.579
231.619
231.699
231.739
231.82
231.86
231.94
231.98
232.06
232.101
232.181
232.221
232.302
232.342
232.422
232.462
232.543
232.583
232.664
232.704
232.784
232.824
232.905
232.945
233.026
233.066
233.148
233.186
233.269
233.307
233.391
233.427
233.513
233.547
233.635
233.667
233.757
233.788
233.878
233.908
234
234.029
234.122
234.149
234.243
234.27
234.365
234.391
234.486
234.513
234.608
234.634
234.73
234.755
234.852
234.877
234.974
234.999
235.096
235.122
235.219
235.244
235.342
235.367
235.466
235.49
235.59
235.614
235.714
235.739
235.839
235.864
235.965
235.989
236.092
236.116
236.219
236.244
236.348
236.372
236.477
236.502
236.608
236.633
236.74
236.765
236.874
236.899
237.009
237.034
237.145
237.17
237.283
237.308
237.422
237.447
237.563
237.588
237.705
237.73
237.848
237.873
237.992
238.017
238.137
238.161
238.282
238.306
238.428
238.452
238.574
238.597
238.719
238.743
238.865
238.887
239.008
239.034
239.14
239.198
239.265
239.344
239.413
239.478
239.554
239.622
239.691
239.76
239.83
239.896
239.966
240.032
240.1
240.166
240.234
240.298
240.366
240.429
240.496
240.559
240.626
240.688
240.754
240.815
240.882
240.942
241.008
241.067
241.134
241.192
241.26
241.315
241.385
241.437
241.509
241.559
241.633
241.681
241.756
241.801
241.879
241.922
242.001
242.042
242.122
242.163
242.243
242.283
242.363
242.402
242.484
242.52
242.604
242.637
242.725
242.753
242.845
242.869
242.965
242.985
243.083
243.1
243.2
243.215
243.317
243.33
243.433
243.445
243.548
243.559
243.662
243.673
243.776
243.786
243.889
243.899
244.002
244.012
244.115
244.124
244.227
244.237
244.341
244.351
244.456
244.466
244.575
244.587
244.701
244.713
244.835
244.85
244.982
244.999
245.144
245.161
245.322
)
;

boundaryField
{
    sides
    {
        type            zeroGradient;
    }
    empty
    {
        type            empty;
    }
}


// ************************************************************************* //
