/*--------------------------------*- C++ -*----------------------------------*\
  =========                 |
  \\      /  F ield         | OpenFOAM: The Open Source CFD Toolbox
   \\    /   O peration     | Website:  https://openfoam.org
    \\  /    A nd           | Version:  9
     \\/     M anipulation  |
\*---------------------------------------------------------------------------*/
FoamFile
{
    format      ascii;
    class       volScalarField;
    location    "0.05";
    object      ddt0(rho);
}
// * * * * * * * * * * * * * * * * * * * * * * * * * * * * * * * * * * * * * //

dimensions      [1 -3 -1 0 0 0 0];

internalField   nonuniform List<scalar> 
1000
(
-3.23036
-3.22781
-3.2229
-3.21838
-3.21414
-3.20978
-3.20515
-3.20035
-3.19552
-3.19057
-3.18529
-3.17966
-3.17394
-3.16832
-3.16269
-3.15674
-3.15035
-3.14378
-3.1374
-3.13137
-3.12537
-3.11897
-3.112
-3.10472
-3.09762
-3.09101
-3.08472
-3.0782
-3.07096
-3.06288
-3.05431
-3.04579
-3.0381
-3.03478
-3.02581
-3.01159
-3.00817
-2.99367
-2.98588
-2.97537
-2.96361
-2.95752
-2.94582
-2.94006
-2.92902
-2.91983
-2.90801
-2.89524
-2.88278
-2.86931
-2.85793
-2.84626
-2.83658
-2.82646
-2.8169
-2.8061
-2.7944
-2.78111
-2.76663
-2.75115
-2.7353
-2.71967
-2.70474
-2.69084
-2.67818
-2.66662
-2.65572
-2.64517
-2.63453
-2.6231
-2.61054
-2.59679
-2.58167
-2.56509
-2.54736
-2.52913
-2.51054
-2.49169
-2.47344
-2.4565
-2.4405
-2.42545
-2.41261
-2.40139
-2.39139
-2.38227
-2.3739
-2.36708
-2.35973
-2.35139
-2.34292
-2.33462
-2.32609
-2.31529
-2.30357
-2.29277
-2.28294
-2.27216
-2.25973
-2.24918
-2.24165
-2.2353
-2.22777
-2.22072
-2.21595
-2.21087
-2.20357
-2.19437
-2.18661
-2.17998
-2.17208
-2.16303
-2.15508
-2.1495
-2.1435
-2.1362
-2.12894
-2.12407
-2.12014
-2.11472
-2.1086
-2.10406
-2.10171
-2.09856
-2.09396
-2.08966
-2.08783
-2.08673
-2.08414
-2.08063
-2.0787
-2.07867
-2.07837
-2.07619
-2.0741
-2.07416
-2.07552
-2.07539
-2.07382
-2.07341
-2.07498
-2.07682
-2.07686
-2.0762
-2.07695
-2.07968
-2.08184
-2.08205
-2.08194
-2.08389
-2.08731
-2.08962
-2.08985
-2.0905
-2.0932
-2.09698
-2.09904
-2.09958
-2.1008
-2.10407
-2.10799
-2.11014
-2.11079
-2.11224
-2.1157
-2.11991
-2.12228
-2.12305
-2.12443
-2.12792
-2.13228
-2.13497
-2.13597
-2.13712
-2.14062
-2.14492
-2.1481
-2.14913
-2.15022
-2.15322
-2.15785
-2.1614
-2.16274
-2.1636
-2.16581
-2.17066
-2.17454
-2.17678
-2.17719
-2.1787
-2.183
-2.18751
-2.19071
-2.19134
-2.19211
-2.19517
-2.20007
-2.20412
-2.20567
-2.20601
-2.20789
-2.21213
-2.21694
-2.21983
-2.22042
-2.22134
-2.22425
-2.22903
-2.23335
-2.23501
-2.23545
-2.23697
-2.24088
-2.2458
-2.24907
-2.24989
-2.2507
-2.25313
-2.25753
-2.26224
-2.26426
-2.26492
-2.26624
-2.26945
-2.27418
-2.27798
-2.27947
-2.27996
-2.2819
-2.28584
-2.29031
-2.29346
-2.29445
-2.29506
-2.29759
-2.302
-2.30637
-2.30888
-2.30959
-2.31039
-2.31335
-2.31796
-2.32217
-2.32442
-2.32486
-2.32573
-2.32885
-2.33356
-2.33779
-2.34009
-2.34041
-2.341
-2.34406
-2.34897
-2.35353
-2.35587
-2.35601
-2.35637
-2.35915
-2.36418
-2.36911
-2.37156
-2.37173
-2.37194
-2.37434
-2.37908
-2.38408
-2.38714
-2.38762
-2.38746
-2.38947
-2.39394
-2.39894
-2.40222
-2.40325
-2.4035
-2.40494
-2.40874
-2.4137
-2.41748
-2.41891
-2.4192
-2.42059
-2.42385
-2.42827
-2.43241
-2.43481
-2.43533
-2.43597
-2.43863
-2.44313
-2.44758
-2.45046
-2.45151
-2.45174
-2.45319
-2.45715
-2.46247
-2.46649
-2.46791
-2.46774
-2.4683
-2.47118
-2.47623
-2.48145
-2.48454
-2.48484
-2.48433
-2.48568
-2.48981
-2.49523
-2.49976
-2.50175
-2.50153
-2.50162
-2.50403
-2.50884
-2.51376
-2.51708
-2.51856
-2.51891
-2.51975
-2.52261
-2.52753
-2.53221
-2.53467
-2.53548
-2.53608
-2.53766
-2.54122
-2.54646
-2.551
-2.55261
-2.5522
-2.55267
-2.55549
-2.56021
-2.56556
-2.56942
-2.57026
-2.5694
-2.57001
-2.57367
-2.57889
-2.58395
-2.58744
-2.58844
-2.58776
-2.58807
-2.59148
-2.59672
-2.60188
-2.60527
-2.60656
-2.60633
-2.60656
-2.60961
-2.61498
-2.62009
-2.62286
-2.62368
-2.62405
-2.62542
-2.62886
-2.63395
-2.63857
-2.64078
-2.64106
-2.6415
-2.64345
-2.64732
-2.65256
-2.65757
-2.66031
-2.66006
-2.65925
-2.66056
-2.66491
-2.67071
-2.67575
-2.67879
-2.6795
-2.67902
-2.67941
-2.68256
-2.68796
-2.69336
-2.69673
-2.698
-2.69821
-2.69904
-2.70177
-2.70633
-2.71143
-2.71491
-2.71609
-2.71613
-2.71715
-2.72047
-2.72539
-2.73052
-2.73406
-2.73535
-2.73511
-2.73511
-2.7375
-2.74256
-2.74868
-2.75354
-2.75566
-2.75565
-2.75518
-2.75624
-2.75984
-2.7653
-2.77102
-2.77465
-2.77577
-2.77548
-2.77612
-2.77903
-2.78364
-2.78878
-2.79251
-2.79452
-2.795
-2.79543
-2.79767
-2.80217
-2.80794
-2.81246
-2.81452
-2.81452
-2.81428
-2.81557
-2.81924
-2.82479
-2.83066
-2.83489
-2.83643
-2.83618
-2.83588
-2.83758
-2.84159
-2.84719
-2.85257
-2.8561
-2.85711
-2.85691
-2.85775
-2.86104
-2.86619
-2.87127
-2.87479
-2.87628
-2.87692
-2.87736
-2.87957
-2.88346
-2.88959
-2.89506
-2.89852
-2.89901
-2.8979
-2.89821
-2.90049
-2.90588
-2.9116
-2.9168
-2.91963
-2.92074
-2.92081
-2.92191
-2.92451
-2.92927
-2.93418
-2.93823
-2.94067
-2.94069
-2.94193
-2.94342
-2.94814
-2.95378
-2.95828
-2.96266
-2.96204
-2.96347
-2.96205
-2.96499
-2.96971
-2.97434
-2.98212
-2.9825
-2.98667
-2.98431
-2.98628
-2.989
-2.99082
-2.99957
-2.99904
-3.00665
-3.00368
-3.00561
-3.00845
-3.00695
-3.02051
-3.01545
-3.03051
-3.02283
-3.02867
-3.02753
-3.02334
-3.03645
-3.02759
-3.04832
-3.03904
-3.05156
-3.04755
-3.04578
-3.05445
-3.04477
-3.06349
-3.05346
-3.06824
-3.06375
-3.06388
-3.07075
-3.05961
-3.07776
-3.06726
-3.08413
-3.08158
-3.0825
-3.08906
-3.07612
-3.09016
-3.07855
-3.0932
-3.09085
-3.09633
-3.10023
-3.09379
-3.10244
-3.091
-3.1057
-3.09573
-3.11103
-3.10344
-3.10948
-3.1071
-3.10131
-3.10973
-3.09758
-3.11455
-3.10356
-3.1165
-3.11194
-3.1104
-3.1137
-3.10194
-3.11161
-3.10185
-3.11173
-3.1082
-3.10804
-3.10965
-3.09708
-3.1059
-3.09095
-3.10253
-3.09657
-3.09642
-3.10234
-3.08513
-3.09553
-3.07743
-3.07908
-3.08023
-3.0657
-3.08299
-3.06094
-3.07003
-3.05967
-3.04654
-3.05572
-3.03293
-3.04656
-3.03189
-3.03165
-3.02718
-3.01154
-3.01334
-2.99216
-2.99706
-2.98338
-2.97844
-2.98074
-2.95791
-2.965
-2.94246
-2.93588
-2.9309
-2.91266
-2.91677
-2.89776
-2.89661
-2.88108
-2.86791
-2.86089
-2.84057
-2.83709
-2.82544
-2.81367
-2.80784
-2.79438
-2.77766
-2.76972
-2.75155
-2.73906
-2.73488
-2.71541
-2.7122
-2.69757
-2.68007
-2.67334
-2.65239
-2.64352
-2.63346
-2.62027
-2.61355
-2.60224
-2.59012
-2.5781
-2.56681
-2.55318
-2.54492
-2.53799
-2.52798
-2.52402
-2.51476
-2.5035
-2.49745
-2.48713
-2.47998
-2.47943
-2.47434
-2.47138
-2.47264
-2.46422
-2.46246
-2.46232
-2.45703
-2.46126
-2.46612
-2.46353
-2.47427
-2.47245
-2.47729
-2.48018
-2.48787
-2.48977
-2.50543
-2.50762
-2.5279
-2.52544
-2.54921
-2.54781
-2.56589
-2.57106
-2.59864
-2.59376
-2.6312
-2.63561
-2.65248
-2.66862
-2.68735
-2.69616
-2.71528
-2.73949
-2.75643
-2.77619
-2.79627
-2.81749
-2.83016
-2.84943
-2.86749
-2.89128
-2.91007
-2.93369
-2.95314
-2.97628
-2.99271
-3.01359
-3.02779
-3.05034
-3.06909
-3.09264
-3.11155
-3.13391
-3.15038
-3.17094
-3.18449
-3.2046
-3.21969
-3.24095
-3.25854
-3.27911
-3.29453
-3.3133
-3.32565
-3.3435
-3.35626
-3.37467
-3.39016
-3.40823
-3.4223
-3.43873
-3.44974
-3.46507
-3.47572
-3.49139
-3.50407
-3.51969
-3.5321
-3.54612
-3.55583
-3.56858
-3.57707
-3.58983
-3.59968
-3.61265
-3.62324
-3.63522
-3.64395
-3.65445
-3.66127
-3.67125
-3.67847
-3.68863
-3.69681
-3.70638
-3.71352
-3.72163
-3.7267
-3.73373
-3.73831
-3.74502
-3.75017
-3.75619
-3.76054
-3.76488
-3.76695
-3.76949
-3.77006
-3.77137
-3.77167
-3.77178
-3.77092
-3.76852
-3.76519
-3.75991
-3.75385
-3.74603
-3.73861
-3.72887
-3.71896
-3.7061
-3.69296
-3.67599
-3.65905
-3.63934
-3.62019
-3.59769
-3.57594
-3.55053
-3.5248
-3.49468
-3.46583
-3.43357
-3.4029
-3.36911
-3.33782
-3.30267
-3.26935
-3.23205
-3.19803
-3.16052
-3.12747
-3.09174
-3.06194
-3.02862
-3.00113
-2.96997
-2.9459
-2.91807
-2.8988
-2.8765
-2.86391
-2.84749
-2.84089
-2.83001
-2.82893
-2.82315
-2.82782
-2.82849
-2.8394
-2.84682
-2.8616
-2.87885
-2.892
-2.91374
-2.93309
-2.95807
-2.97814
-3.00672
-3.03047
-3.0611
-3.08517
-3.11696
-3.14151
-3.17346
-3.19739
-3.22949
-3.25402
-3.28599
-3.31026
-3.34143
-3.36483
-3.39473
-3.41674
-3.44548
-3.46679
-3.49462
-3.51544
-3.5422
-3.56218
-3.58765
-3.60641
-3.6307
-3.64854
-3.67192
-3.68931
-3.71193
-3.72894
-3.75071
-3.76699
-3.78785
-3.8033
-3.82338
-3.83827
-3.85776
-3.87238
-3.89133
-3.90559
-3.92394
-3.93763
-3.95537
-3.96855
-3.98583
-3.99877
-4.01567
-4.02847
-4.04498
-4.05746
-4.07352
-4.08557
-4.1012
-4.1129
-4.12818
-4.13969
-4.15466
-4.16594
-4.18057
-4.19151
-4.20578
-4.2164
-4.23039
-4.24087
-4.25466
-4.26513
-4.27872
-4.28906
-4.30239
-4.31247
-4.3255
-4.33532
-4.34811
-4.35776
-4.37035
-4.37987
-4.39225
-4.40158
-4.41372
-4.4228
-4.43472
-4.44363
-4.45539
-4.46427
-4.47593
-4.48483
-4.49635
-4.50515
-4.51648
-4.52506
-4.53618
-4.54455
-4.55551
-4.56378
-4.57461
-4.58282
-4.59352
-4.60161
-4.61215
-4.62006
-4.63044
-4.63824
-4.64852
-4.6563
-4.6665
-4.67428
-4.68438
-4.69209
-4.70205
-4.7096
-4.71943
-4.72684
-4.73655
-4.7439
-4.75353
-4.76084
-4.77038
-4.77761
-4.78703
-4.79415
-4.80345
-4.81046
-4.81968
-4.82666
-4.83582
-4.8428
-4.8519
-4.85885
-4.86786
-4.87471
-4.88361
-4.89033
-4.89913
-4.90575
-4.91447
-4.92106
-4.92972
-4.9363
-4.94492
-4.95147
-4.96002
-4.96653
-4.97501
-4.98144
-4.98984
-4.99621
-5.00454
-5.01086
-5.01913
-5.02542
-5.03364
-5.03989
-5.04804
-5.05424
-5.06233
-5.06846
-5.07648
-5.08255
-5.09051
-5.09655
-5.10446
-5.11047
-5.11833
-5.12432
-5.13212
-5.13807
-5.14581
-5.15169
-5.15936
-5.16519
-5.17281
-5.1786
-5.18619
-5.19197
-5.19952
-5.20529
-5.21279
-5.21854
-5.226
-5.23169
-5.2391
-5.24474
-5.2521
-5.25743
-5.26523
-5.26921
)
;

boundaryField
{
    sides
    {
        type            calculated;
        value           nonuniform List<scalar> 2(-5.26921 -3.23036);
    }
    empty
    {
        type            empty;
    }
}


// ************************************************************************* //
