/*--------------------------------*- C++ -*----------------------------------*\
  =========                 |
  \\      /  F ield         | OpenFOAM: The Open Source CFD Toolbox
   \\    /   O peration     | Website:  https://openfoam.org
    \\  /    A nd           | Version:  9
     \\/     M anipulation  |
\*---------------------------------------------------------------------------*/
FoamFile
{
    format      ascii;
    class       volScalarField;
    location    "0.05";
    object      ddt0(p);
}
// * * * * * * * * * * * * * * * * * * * * * * * * * * * * * * * * * * * * * //

dimensions      [1 -1 -3 0 0 0 0];

internalField   nonuniform List<scalar> 
1000
(
-227269
-227153
-226928
-226719
-226516
-226299
-226064
-225811
-225542
-225257
-224957
-224641
-224312
-223971
-223618
-223255
-222883
-222503
-222118
-221726
-221329
-220926
-220518
-220104
-219682
-219254
-218816
-218368
-217909
-217438
-216953
-216454
-215961
-215721
-215066
-214070
-213883
-212981
-212580
-211975
-211230
-210813
-209948
-209484
-208679
-208068
-207350
-206622
-205936
-205152
-204450
-203645
-202906
-202093
-201313
-200488
-199674
-198834
-197991
-197133
-196267
-195390
-194503
-193607
-192700
-191787
-190864
-189934
-188997
-188053
-187104
-186149
-185189
-184226
-183259
-182289
-181317
-180344
-179370
-178396
-177423
-176453
-175485
-174521
-173562
-172610
-171663
-170725
-169795
-168874
-167963
-167063
-166175
-165301
-164440
-163595
-162765
-161951
-161154
-160375
-159614
-158872
-158150
-157448
-156769
-156111
-155476
-154863
-154274
-153707
-153164
-152645
-152149
-151677
-151229
-150805
-150405
-150028
-149675
-149346
-149040
-148756
-148495
-148256
-148039
-147843
-147667
-147511
-147375
-147257
-147158
-147076
-147012
-146964
-146932
-146915
-146913
-146925
-146950
-146987
-147036
-147097
-147168
-147250
-147341
-147441
-147551
-147668
-147793
-147925
-148064
-148209
-148360
-148515
-148675
-148840
-149009
-149182
-149359
-149540
-149723
-149910
-150099
-150290
-150484
-150679
-150876
-151075
-151275
-151477
-151680
-151885
-152090
-152296
-152503
-152711
-152919
-153129
-153338
-153548
-153759
-153970
-154181
-154393
-154604
-154815
-155027
-155239
-155452
-155665
-155878
-156091
-156304
-156517
-156730
-156943
-157155
-157368
-157582
-157795
-158009
-158222
-158436
-158650
-158864
-159078
-159292
-159506
-159720
-159934
-160147
-160361
-160574
-160788
-161001
-161215
-161429
-161643
-161857
-162070
-162284
-162498
-162711
-162924
-163137
-163350
-163563
-163775
-163987
-164198
-164409
-164621
-164832
-165044
-165257
-165470
-165683
-165896
-166109
-166322
-166534
-166745
-166957
-167169
-167381
-167592
-167804
-168015
-168227
-168440
-168652
-168864
-169076
-169288
-169500
-169712
-169924
-170136
-170348
-170560
-170772
-170984
-171195
-171407
-171618
-171828
-172038
-172249
-172459
-172669
-172880
-173090
-173301
-173513
-173725
-173936
-174148
-174360
-174571
-174783
-174995
-175207
-175420
-175632
-175845
-176058
-176270
-176483
-176696
-176908
-177121
-177333
-177546
-177758
-177971
-178183
-178396
-178608
-178821
-179034
-179247
-179460
-179673
-179886
-180099
-180313
-180526
-180740
-180953
-181167
-181380
-181594
-181808
-182022
-182236
-182450
-182665
-182880
-183095
-183311
-183526
-183742
-183958
-184173
-184389
-184605
-184821
-185037
-185253
-185469
-185685
-185901
-186118
-186335
-186552
-186770
-186987
-187205
-187423
-187642
-187860
-188079
-188297
-188516
-188735
-188954
-189174
-189393
-189612
-189831
-190050
-190270
-190489
-190709
-190929
-191149
-191369
-191589
-191810
-192031
-192253
-192474
-192696
-192917
-193139
-193362
-193584
-193807
-194030
-194253
-194476
-194699
-194922
-195146
-195370
-195593
-195817
-196040
-196264
-196489
-196713
-196938
-197163
-197388
-197614
-197839
-198065
-198292
-198518
-198745
-198972
-199198
-199425
-199653
-199880
-200108
-200336
-200563
-200791
-201019
-201248
-201477
-201706
-201936
-202165
-202395
-202625
-202855
-203085
-203316
-203547
-203778
-204009
-204240
-204471
-204703
-204935
-205167
-205399
-205632
-205864
-206097
-206331
-206564
-206799
-207033
-207267
-207502
-207736
-207971
-208206
-208442
-208677
-208913
-209148
-209384
-209621
-209857
-210094
-210331
-210568
-210806
-211043
-211280
-211518
-211756
-211995
-212234
-212473
-212712
-212951
-213190
-213430
-213671
-213911
-214152
-214392
-214633
-214874
-215115
-215356
-215598
-215840
-216082
-216324
-216566
-216808
-217051
-217294
-217537
-217780
-218024
-218267
-218510
-218754
-218997
-219241
-219485
-219730
-219974
-220218
-220462
-220706
-220950
-221194
-221439
-221683
-221927
-222171
-222414
-222658
-222901
-223145
-223388
-223631
-223874
-224116
-224358
-224599
-224841
-225082
-225322
-225562
-225801
-226040
-226278
-226516
-226752
-226989
-227223
-227457
-227691
-227922
-228154
-228382
-228612
-228839
-229065
-229289
-229512
-229733
-229952
-230170
-230384
-230598
-230809
-231017
-231224
-231425
-231627
-231823
-232018
-232209
-232396
-232581
-232760
-232937
-233108
-233277
-233440
-233599
-233754
-233902
-234047
-234184
-234317
-234442
-234563
-234676
-234783
-234883
-234975
-235061
-235136
-235206
-235266
-235318
-235361
-235394
-235419
-235432
-235436
-235428
-235411
-235382
-235341
-235289
-235223
-235146
-235054
-234950
-234833
-234701
-234556
-234394
-234219
-234027
-233820
-233598
-233358
-233104
-232830
-232541
-232234
-231907
-231565
-231202
-230823
-230425
-230007
-229571
-229115
-228641
-228145
-227632
-227099
-226546
-225975
-225383
-224774
-224144
-223496
-222830
-222145
-221443
-220723
-219986
-219233
-218464
-217680
-216881
-216069
-215244
-214406
-213559
-212702
-211835
-210962
-210082
-209198
-208311
-207421
-206532
-205645
-204761
-203883
-203011
-202149
-201299
-200462
-199641
-198838
-198055
-197295
-196560
-195852
-195174
-194528
-193917
-193343
-192809
-192315
-191866
-191463
-191107
-190802
-190549
-190349
-190205
-190118
-190088
-190118
-190208
-190359
-190573
-190847
-191186
-191586
-192049
-192575
-193164
-193815
-194528
-195300
-196133
-197020
-197966
-198966
-200019
-201119
-202268
-203459
-204708
-206003
-207316
-208696
-210120
-211486
-212913
-214432
-216012
-217541
-219041
-220555
-222129
-223813
-225386
-226980
-228627
-230268
-231889
-233495
-235087
-236673
-238275
-239891
-241484
-243064
-244637
-246191
-247726
-249234
-250729
-252209
-253666
-255106
-256528
-257935
-259337
-260710
-262058
-263376
-264661
-265922
-267162
-268391
-269602
-270786
-271954
-273097
-274217
-275314
-276380
-277422
-278439
-279437
-280423
-281389
-282336
-283264
-284165
-285044
-285897
-286725
-287534
-288320
-289090
-289840
-290569
-291279
-291960
-292614
-293240
-293834
-294401
-294937
-295441
-295914
-296347
-296742
-297093
-297393
-297645
-297838
-297975
-298046
-298054
-297990
-297850
-297627
-297320
-296918
-296419
-295816
-295108
-294286
-293350
-292295
-291120
-289819
-288393
-286841
-285162
-283354
-281423
-279369
-277200
-274924
-272547
-270080
-267533
-264918
-262249
-259541
-256811
-254078
-251359
-248677
-246050
-243502
-241052
-238722
-236531
-234499
-232642
-230977
-229518
-228279
-227270
-226498
-225969
-225684
-225644
-225844
-226279
-226940
-227813
-228899
-230222
-231609
-233223
-235010
-236895
-238876
-240954
-243123
-245358
-247640
-249957
-252299
-254650
-256997
-259339
-261674
-263988
-266277
-268535
-270759
-272945
-275090
-277196
-279265
-281295
-283287
-285236
-287146
-289015
-290846
-292641
-294401
-296128
-297823
-299485
-301117
-302719
-304292
-305840
-307362
-308861
-310336
-311787
-313217
-314625
-316014
-317383
-318734
-320067
-321383
-322681
-323963
-325228
-326478
-327713
-328935
-330143
-331338
-332519
-333687
-334843
-335987
-337119
-338240
-339350
-340449
-341538
-342616
-343684
-344743
-345791
-346831
-347862
-348884
-349897
-350902
-351898
-352887
-353867
-354840
-355805
-356763
-357714
-358657
-359593
-360523
-361445
-362362
-363271
-364175
-365072
-365964
-366849
-367729
-368603
-369471
-370334
-371192
-372044
-372891
-373733
-374569
-375401
-376228
-377050
-377867
-378680
-379488
-380291
-381091
-381886
-382677
-383464
-384247
-385026
-385801
-386572
-387340
-388103
-388863
-389619
-390372
-391121
-391866
-392608
-393347
-394082
-394814
-395542
-396268
-396990
-397710
-398426
-399140
-399851
-400559
-401264
-401966
-402665
-403362
-404056
-404748
-405436
-406123
-406806
-407488
-408167
-408843
-409517
-410188
-410857
-411524
-412189
-412851
-413511
-414168
-414823
-415477
-416127
-416776
-417422
-418067
-418709
-419349
-419987
-420623
-421257
-421889
-422519
-423147
-423773
-424397
-425019
-425639
-426258
-426874
-427489
-428102
-428713
-429322
-429929
-430535
-431138
-431740
-432341
-432939
-433536
-434132
-434726
-435315
-435907
-436477
)
;

boundaryField
{
    sides
    {
        type            calculated;
        value           nonuniform List<scalar> 2(-436477 -227269);
    }
    empty
    {
        type            empty;
    }
}


// ************************************************************************* //
