/*--------------------------------*- C++ -*----------------------------------*\
  =========                 |
  \\      /  F ield         | OpenFOAM: The Open Source CFD Toolbox
   \\    /   O peration     | Website:  https://openfoam.org
    \\  /    A nd           | Version:  9
     \\/     M anipulation  |
\*---------------------------------------------------------------------------*/
FoamFile
{
    format      ascii;
    class       volScalarField;
    location    "0.05";
    object      p;
}
// * * * * * * * * * * * * * * * * * * * * * * * * * * * * * * * * * * * * * //

dimensions      [1 -1 -2 0 0 0 0];

internalField   nonuniform List<scalar> 
1000
(
8903.68
8903.01
8901.58
8900.33
8899.34
8898.43
8897.53
8896.64
8895.78
8894.96
8894.17
8893.41
8892.69
8892
8891.35
8890.73
8890.14
8889.59
8889.07
8888.59
8888.15
8887.74
8887.37
8887.03
8886.72
8886.46
8886.23
8886.03
8885.88
8885.76
8885.68
8885.63
8885.63
8885.65
8885.71
8885.82
8885.98
8886.19
8886.42
8886.71
8887.03
8887.4
8887.82
8888.27
8888.77
8889.32
8889.91
8890.54
8891.23
8891.96
8892.74
8893.56
8894.44
8895.37
8896.34
8897.36
8898.44
8899.57
8900.74
8901.97
8903.26
8904.59
8905.98
8907.42
8908.92
8910.47
8912.07
8913.73
8915.45
8917.22
8919.05
8920.93
8922.87
8924.87
8926.92
8929.03
8931.2
8933.43
8935.71
8938.05
8940.44
8942.9
8945.41
8947.97
8950.59
8953.27
8956.01
8958.8
8961.65
8964.55
8967.51
8970.52
8973.59
8976.71
8979.88
8983.1
8986.38
8989.71
8993.08
8996.51
8999.99
9003.51
9007.08
9010.7
9014.36
9018.07
9021.82
9025.61
9029.44
9033.32
9037.23
9041.19
9045.18
9049.2
9053.27
9057.36
9061.49
9065.65
9069.85
9074.07
9078.32
9082.6
9086.91
9091.25
9095.6
9099.99
9104.39
9108.82
9113.27
9117.74
9122.23
9126.74
9131.27
9135.81
9140.37
9144.95
9149.54
9154.15
9158.77
9163.41
9168.05
9172.71
9177.38
9182.07
9186.76
9191.46
9196.18
9200.9
9205.63
9210.37
9215.12
9219.88
9224.65
9229.42
9234.2
9238.99
9243.79
9248.59
9253.4
9258.22
9263.04
9267.87
9272.7
9277.54
9282.39
9287.24
9292.1
9296.96
9301.83
9306.7
9311.58
9316.46
9321.35
9326.25
9331.15
9336.05
9340.96
9345.87
9350.79
9355.71
9360.64
9365.57
9370.51
9375.45
9380.4
9385.35
9390.31
9395.27
9400.23
9405.2
9410.18
9415.16
9420.14
9425.13
9430.12
9435.11
9440.11
9445.12
9450.13
9455.14
9460.16
9465.18
9470.21
9475.24
9480.28
9485.32
9490.36
9495.41
9500.46
9505.52
9510.58
9515.64
9520.71
9525.79
9530.87
9535.95
9541.04
9546.13
9551.22
9556.32
9561.43
9566.54
9571.65
9576.77
9581.89
9587.01
9592.14
9597.27
9602.41
9607.55
9612.7
9617.85
9623.01
9628.17
9633.33
9638.5
9643.67
9648.84
9654.02
9659.21
9664.4
9669.59
9674.79
9679.99
9685.19
9690.4
9695.62
9700.84
9706.06
9711.29
9716.52
9721.75
9726.99
9732.24
9737.49
9742.74
9748
9753.26
9758.52
9763.79
9769.07
9774.34
9779.63
9784.91
9790.2
9795.5
9800.8
9806.1
9811.41
9816.72
9822.04
9827.36
9832.69
9838.02
9843.35
9848.69
9854.03
9859.38
9864.73
9870.09
9875.45
9880.81
9886.18
9891.55
9896.93
9902.31
9907.7
9913.09
9918.48
9923.88
9929.28
9934.69
9940.1
9945.52
9950.94
9956.37
9961.79
9967.23
9972.67
9978.11
9983.56
9989.01
9994.46
9999.92
10005.4
10010.9
10016.3
10021.8
10027.3
10032.8
10038.3
10043.8
10049.3
10054.8
10060.3
10065.8
10071.3
10076.8
10082.3
10087.9
10093.4
10098.9
10104.5
10110
10115.6
10121.1
10126.7
10132.3
10137.8
10143.4
10149
10154.6
10160.2
10165.7
10171.3
10176.9
10182.5
10188.2
10193.8
10199.4
10205
10210.6
10216.3
10221.9
10227.5
10233.2
10238.8
10244.5
10250.1
10255.8
10261.5
10267.1
10272.8
10278.5
10284.2
10289.9
10295.6
10301.3
10307
10312.7
10318.4
10324.1
10329.8
10335.5
10341.3
10347
10352.7
10358.5
10364.2
10370
10375.7
10381.5
10387.2
10393
10398.8
10404.6
10410.3
10416.1
10421.9
10427.7
10433.5
10439.3
10445.1
10450.9
10456.7
10462.6
10468.4
10474.2
10480.1
10485.9
10491.7
10497.6
10503.4
10509.3
10515.2
10521
10526.9
10532.8
10538.6
10544.5
10550.4
10556.3
10562.2
10568.1
10574
10579.9
10585.8
10591.8
10597.7
10603.6
10609.5
10615.5
10621.4
10627.4
10633.3
10639.3
10645.2
10651.2
10657.2
10663.1
10669.1
10675.1
10681.1
10687.1
10693.1
10699.1
10705.1
10711.1
10717.1
10723.1
10729.1
10735.2
10741.2
10747.2
10753.3
10759.3
10765.4
10771.4
10777.5
10783.6
10789.6
10795.7
10801.8
10807.8
10813.9
10820
10826.1
10832.2
10838.3
10844.4
10850.5
10856.7
10862.8
10868.9
10875
10881.2
10887.3
10893.5
10899.6
10905.8
10911.9
10918.1
10924.3
10930.4
10936.6
10942.8
10949
10955.2
10961.4
10967.6
10973.8
10980
10986.2
10992.4
10998.6
11004.9
11011.1
11017.3
11023.6
11029.8
11036.1
11042.3
11048.6
11054.8
11061.1
11067.4
11073.7
11079.9
11086.2
11092.5
11098.8
11105.1
11111.4
11117.8
11124.1
11130.4
11136.7
11143.1
11149.4
11155.7
11162.1
11168.4
11174.8
11181.2
11187.5
11193.9
11200.3
11206.7
11213.1
11219.5
11225.9
11232.3
11238.7
11245.1
11251.5
11258
11264.4
11270.8
11277.3
11283.8
11290.2
11296.7
11303.2
11309.6
11316.1
11322.6
11329.1
11335.7
11342.2
11348.7
11355.2
11361.8
11368.3
11374.9
11381.5
11388
11394.6
11401.2
11407.8
11414.4
11421.1
11427.7
11434.4
11441
11447.7
11454.4
11461.1
11467.8
11474.5
11481.2
11488
11494.7
11501.5
11508.3
11515.1
11521.9
11528.7
11535.6
11542.4
11549.3
11556.2
11563.2
11570.1
11577.1
11584.1
11591.1
11598.1
11605.1
11612.2
11619.3
11626.4
11633.6
11640.8
11648
11655.2
11662.5
11669.8
11677.1
11684.5
11691.8
11699.3
11706.7
11714.2
11721.8
11729.3
11736.9
11744.6
11752.3
11760
11767.8
11775.6
11783.5
11791.4
11799.3
11807.4
11815.4
11823.5
11831.7
11839.9
11848.2
11856.5
11864.9
11873.4
11881.9
11890.4
11899
11907.7
11916.5
11925.3
11934.2
11943.1
11952.2
11961.2
11970.4
11979.6
11988.9
11998.3
12007.7
12017.2
12026.8
12036.5
12046.2
12056
12065.9
12075.9
12085.9
12096
12106.2
12116.4
12126.7
12137.1
12147.6
12158.1
12168.7
12179.4
12190.1
12200.9
12211.7
12222.7
12233.6
12244.7
12255.8
12266.9
12278.1
12289.3
12300.6
12312
12323.3
12334.7
12346.2
12357.6
12369.1
12380.7
12392.2
12403.8
12415.4
12426.9
12438.5
12450.1
12461.8
12473.4
12484.9
12496.5
12508.1
12519.7
12531.2
12542.7
12554.2
12565.7
12577.1
12588.5
12599.9
12611.2
12622.5
12633.7
12644.9
12656.1
12667.2
12678.2
12689.2
12700.1
12711
12721.8
12732.6
12743.3
12754
12764.6
12775.1
12785.6
12796
12806.3
12816.6
12826.8
12837
12847.1
12857.1
12867.1
12877
12886.9
12896.7
12906.4
12916.1
12925.7
12935.3
12944.8
12954.3
12963.7
12973.1
12982.4
12991.6
13000.8
13010
13019.1
13028.2
13037.2
13046.2
13055.1
13064
13072.9
13081.7
13090.5
13099.3
13108
13116.7
13125.3
13133.9
13142.5
13151.1
13159.6
13168.1
13176.6
13185
13193.5
13201.9
13210.3
13218.6
13227
13235.3
13243.6
13251.9
13260.2
13268.5
13276.7
13285
13293.2
13301.5
13309.7
13317.9
13326.2
13334.4
13342.6
13350.9
13359.1
13367.4
13375.7
13384
13392.3
13400.6
13409
13417.4
13425.9
13434.4
13442.9
13451.5
13460.2
13468.9
13477.8
13486.7
13495.6
13504.7
13513.9
13523.2
13532.6
13542.2
13551.9
13561.7
13571.7
13581.8
13592.1
13602.5
13613.1
13624
13634.9
13646.1
13657.5
13669
13680.7
13692.6
13704.7
13717
13729.5
13742.1
13754.9
13767.8
13780.9
13794.1
13807.5
13820.9
13834.5
13848.1
13861.8
13875.6
13889.4
13903.3
13917.1
13931
13944.8
13958.7
13972.5
13986.2
13999.9
14013.6
14027.2
14040.7
14054.1
14067.4
14080.6
14093.8
14106.8
14119.8
14132.6
14145.4
14158
14170.6
14183
14195.4
14207.6
14219.8
14231.8
14243.8
14255.7
14267.5
14279.2
14290.9
14302.4
14313.9
14325.3
14336.6
14347.9
14359.1
14370.2
14381.2
14392.2
14403.1
14414
14424.8
14435.5
14446.2
14456.9
14467.4
14478
14488.4
14498.9
14509.2
14519.6
14529.8
14540.1
14550.2
14560.4
14570.5
14580.5
14590.5
14600.5
14610.4
14620.3
14630.2
14640
14649.8
14659.5
14669.2
14678.9
14688.5
14698.1
14707.6
14717.2
14726.6
14736.1
14745.5
14754.9
14764.3
14773.6
14782.9
14792.2
14801.4
14810.6
14819.8
14829
14838.1
14847.2
14856.3
14865.3
14874.3
14883.3
14892.3
14901.2
14910.1
14919
14927.9
14936.7
14945.6
14954.3
14963.1
14971.9
14980.6
14989.3
14998
15006.6
15015.3
15023.9
15032.5
15041
15049.6
15058.1
15066.6
15075.1
15083.6
15092
15100.5
15108.9
15117.3
15125.6
15134
15142.3
15150.6
15158.9
15167.2
15175.5
15183.7
15192
15200.2
15208.4
15216.5
15224.7
15232.8
15241
15249.1
15257.2
15265.2
15273.3
15281.3
15289.4
15297.4
15305.4
15313.4
15321.3
15329.3
15337.2
15345.1
15353
15360.9
15368.8
15376.7
15384.5
15392.3
15400.2
15408
15415.8
15423.6
15431.3
15439.1
15446.8
15454.5
15462.2
15469.9
15477.6
15485.3
15493
15500.6
15508.3
15515.9
15523.5
15531.1
15538.7
15546.2
15553.8
15561.4
15568.9
15576.4
15583.9
15591.4
15598.9
15606.4
15613.9
15621.3
15628.8
15636.2
15643.6
15651.1
15658.5
15665.9
15673.2
15680.6
15688
15695.3
15702.6
15710
15717.3
15724.6
15731.9
15739
)
;

boundaryField
{
    sides
    {
        type            zeroGradient;
    }
    empty
    {
        type            empty;
    }
}


// ************************************************************************* //
