/*--------------------------------*- C++ -*----------------------------------*\
  =========                 |
  \\      /  F ield         | OpenFOAM: The Open Source CFD Toolbox
   \\    /   O peration     | Website:  https://openfoam.org
    \\  /    A nd           | Version:  9
     \\/     M anipulation  |
\*---------------------------------------------------------------------------*/
FoamFile
{
    format      ascii;
    class       volScalarField;
    location    "0.05";
    object      p_0;
}
// * * * * * * * * * * * * * * * * * * * * * * * * * * * * * * * * * * * * * //

dimensions      [1 -1 -2 0 0 0 0];

internalField   nonuniform List<scalar> 
1000
(
8905.96
8905.28
8903.84
8902.6
8901.6
8900.69
8899.79
8898.9
8898.04
8897.21
8896.42
8895.66
8894.93
8894.24
8893.58
8892.96
8892.37
8891.81
8891.29
8890.81
8890.36
8889.95
8889.57
8889.23
8888.92
8888.65
8888.41
8888.22
8888.05
8887.93
8887.84
8887.8
8887.79
8887.8
8887.86
8887.96
8888.12
8888.32
8888.55
8888.83
8889.14
8889.51
8889.91
8890.36
8890.86
8891.39
8891.98
8892.61
8893.29
8894.01
8894.78
8895.6
8896.47
8897.38
8898.35
8899.37
8900.43
8901.55
8902.72
8903.94
8905.22
8906.54
8907.92
8909.36
8910.84
8912.38
8913.98
8915.63
8917.34
8919.1
8920.92
8922.79
8924.72
8926.71
8928.75
8930.85
8933.01
8935.23
8937.5
8939.83
8942.21
8944.66
8947.16
8949.72
8952.33
8955
8957.72
8960.51
8963.35
8966.24
8969.19
8972.19
8975.25
8978.36
8981.52
8984.74
8988
8991.32
8994.69
8998.11
9001.58
9005.1
9008.66
9012.27
9015.93
9019.63
9023.37
9027.16
9030.99
9034.85
9038.76
9042.71
9046.7
9050.72
9054.78
9058.87
9063
9067.15
9071.34
9075.56
9079.81
9084.09
9088.4
9092.73
9097.08
9101.46
9105.87
9110.3
9114.74
9119.21
9123.7
9128.21
9132.74
9137.28
9141.84
9146.42
9151.01
9155.62
9160.24
9164.87
9169.52
9174.18
9178.85
9183.54
9188.23
9192.94
9197.65
9202.38
9207.11
9211.85
9216.6
9221.36
9226.13
9230.91
9235.69
9240.48
9245.28
9250.08
9254.89
9259.71
9264.54
9269.37
9274.2
9279.04
9283.89
9288.75
9293.6
9298.47
9303.34
9308.21
9313.1
9317.98
9322.87
9327.77
9332.67
9337.58
9342.49
9347.4
9352.32
9357.25
9362.18
9367.11
9372.05
9377
9381.95
9386.9
9391.86
9396.82
9401.79
9406.76
9411.74
9416.72
9421.7
9426.69
9431.68
9436.68
9441.69
9446.69
9451.7
9456.72
9461.74
9466.76
9471.79
9476.83
9481.86
9486.91
9491.95
9497
9502.06
9507.12
9512.18
9517.25
9522.32
9527.4
9532.48
9537.56
9542.65
9547.74
9552.84
9557.94
9563.05
9568.16
9573.28
9578.39
9583.52
9588.64
9593.78
9598.91
9604.05
9609.2
9614.34
9619.5
9624.65
9629.82
9634.98
9640.15
9645.32
9650.5
9655.68
9660.87
9666.06
9671.26
9676.46
9681.66
9686.87
9692.08
9697.3
9702.52
9707.74
9712.97
9718.2
9723.44
9728.68
9733.93
9739.18
9744.43
9749.69
9754.96
9760.22
9765.5
9770.77
9776.05
9781.34
9786.63
9791.92
9797.22
9802.52
9807.83
9813.14
9818.45
9823.77
9829.09
9834.42
9839.75
9845.09
9850.43
9855.77
9861.12
9866.48
9871.83
9877.2
9882.56
9887.93
9893.31
9898.69
9904.07
9909.46
9914.85
9920.25
9925.65
9931.05
9936.46
9941.88
9947.3
9952.72
9958.15
9963.58
9969.01
9974.45
9979.9
9985.35
9990.8
9996.26
10001.7
10007.2
10012.7
10018.1
10023.6
10029.1
10034.6
10040.1
10045.6
10051.1
10056.6
10062.1
10067.6
10073.1
10078.6
10084.2
10089.7
10095.2
10100.8
10106.3
10111.9
10117.4
10123
10128.6
10134.1
10139.7
10145.3
10150.8
10156.4
10162
10167.6
10173.2
10178.8
10184.4
10190
10195.6
10201.3
10206.9
10212.5
10218.1
10223.8
10229.4
10235.1
10240.7
10246.4
10252
10257.7
10263.4
10269
10274.7
10280.4
10286.1
10291.8
10297.5
10303.2
10308.9
10314.6
10320.3
10326
10331.7
10337.5
10343.2
10348.9
10354.7
10360.4
10366.2
10371.9
10377.7
10383.4
10389.2
10395
10400.7
10406.5
10412.3
10418.1
10423.9
10429.7
10435.5
10441.3
10447.1
10452.9
10458.7
10464.5
10470.4
10476.2
10482
10487.9
10493.7
10499.6
10505.4
10511.3
10517.2
10523
10528.9
10534.8
10540.7
10546.5
10552.4
10558.3
10564.2
10570.1
10576
10581.9
10587.9
10593.8
10599.7
10605.6
10611.6
10617.5
10623.5
10629.4
10635.4
10641.3
10647.3
10653.3
10659.2
10665.2
10671.2
10677.2
10683.2
10689.1
10695.1
10701.1
10707.2
10713.2
10719.2
10725.2
10731.2
10737.3
10743.3
10749.3
10755.4
10761.4
10767.5
10773.5
10779.6
10785.7
10791.7
10797.8
10803.9
10810
10816
10822.1
10828.2
10834.3
10840.4
10846.6
10852.7
10858.8
10864.9
10871
10877.2
10883.3
10889.5
10895.6
10901.8
10907.9
10914.1
10920.2
10926.4
10932.6
10938.8
10945
10951.1
10957.3
10963.5
10969.7
10975.9
10982.2
10988.4
10994.6
11000.8
11007
11013.3
11019.5
11025.8
11032
11038.3
11044.5
11050.8
11057.1
11063.3
11069.6
11075.9
11082.2
11088.5
11094.8
11101.1
11107.4
11113.7
11120
11126.3
11132.6
11139
11145.3
11151.6
11158
11164.3
11170.7
11177.1
11183.4
11189.8
11196.2
11202.6
11208.9
11215.3
11221.7
11228.1
11234.6
11241
11247.4
11253.8
11260.3
11266.7
11273.1
11279.6
11286
11292.5
11299
11305.5
11312
11318.4
11324.9
11331.5
11338
11344.5
11351
11357.6
11364.1
11370.7
11377.2
11383.8
11390.4
11397
11403.6
11410.2
11416.8
11423.4
11430
11436.7
11443.3
11450
11456.7
11463.4
11470.1
11476.8
11483.6
11490.3
11497.1
11503.8
11510.6
11517.4
11524.2
11531.1
11537.9
11544.8
11551.7
11558.6
11565.5
11572.5
11579.4
11586.4
11593.4
11600.4
11607.5
11614.6
11621.7
11628.8
11635.9
11643.1
11650.3
11657.6
11664.8
11672.1
11679.4
11686.8
11694.2
11701.6
11709.1
11716.6
11724.1
11731.6
11739.3
11746.9
11754.6
11762.3
11770.1
11777.9
11785.8
11793.7
11801.6
11809.6
11817.7
11825.8
11834
11842.2
11850.4
11858.8
11867.1
11875.6
11884.1
11892.6
11901.3
11909.9
11918.7
11927.5
11936.4
11945.3
11954.3
11963.4
11972.5
11981.8
11991.1
12000.4
12009.8
12019.3
12028.9
12038.6
12048.3
12058.1
12068
12077.9
12087.9
12098
12108.2
12118.4
12128.7
12139.1
12149.6
12160.1
12170.7
12181.3
12192
12202.8
12213.7
12224.6
12235.6
12246.6
12257.7
12268.8
12280
12291.2
12302.5
12313.9
12325.2
12336.6
12348.1
12359.5
12371
12382.6
12394.1
12405.7
12417.3
12428.9
12440.5
12452.1
12463.7
12475.3
12486.9
12498.5
12510.1
12521.6
12533.2
12544.7
12556.2
12567.7
12579.1
12590.5
12601.9
12613.2
12624.5
12635.8
12647
12658.2
12669.3
12680.3
12691.3
12702.3
12713.2
12724
12734.8
12745.6
12756.2
12766.8
12777.4
12787.9
12798.3
12808.6
12818.9
12829.2
12839.4
12849.5
12859.5
12869.5
12879.5
12889.3
12899.2
12908.9
12918.6
12928.3
12937.8
12947.4
12956.9
12966.3
12975.6
12985
12994.2
13003.5
13012.6
13021.8
13030.9
13039.9
13048.9
13057.8
13066.8
13075.6
13084.5
13093.3
13102
13110.7
13119.4
13128.1
13136.7
13145.3
13153.9
13162.4
13170.9
13179.4
13187.9
13196.3
13204.7
13213.1
13221.5
13229.9
13238.2
13246.5
13254.8
13263.1
13271.4
13279.7
13287.9
13296.2
13304.4
13312.7
13320.9
13329.1
13337.4
13345.6
13353.9
13362.1
13370.4
13378.7
13387
13395.3
13403.6
13412
13420.4
13428.9
13437.3
13445.9
13454.5
13463.2
13471.9
13480.7
13489.6
13498.6
13507.6
13516.8
13526.1
13535.5
13545
13554.7
13564.5
13574.4
13584.5
13594.8
13605.2
13615.8
13626.6
13637.6
13648.7
13660
13671.5
13683.2
13695.1
13707.2
13719.5
13731.9
13744.5
13757.2
13770.2
13783.2
13796.4
13809.8
13823.2
13836.8
13850.4
13864.1
13877.9
13891.7
13905.5
13919.4
13933.3
13947.1
13961
13974.8
13988.5
14002.3
14015.9
14029.5
14043
14056.5
14069.8
14083.1
14096.3
14109.3
14122.3
14135.2
14147.9
14160.6
14173.2
14185.7
14198
14210.3
14222.5
14234.6
14246.6
14258.5
14270.3
14282
14293.7
14305.3
14316.8
14328.2
14339.5
14350.8
14362
14373.1
14384.2
14395.2
14406.1
14417
14427.8
14438.6
14449.3
14459.9
14470.5
14481.1
14491.6
14502
14512.4
14522.7
14533
14543.3
14553.5
14563.6
14573.7
14583.8
14593.8
14603.8
14613.7
14623.6
14633.5
14643.3
14653.1
14662.8
14672.6
14682.2
14691.9
14701.5
14711
14720.6
14730.1
14739.5
14749
14758.4
14767.7
14777.1
14786.4
14795.7
14804.9
14814.1
14823.3
14832.5
14841.6
14850.7
14859.8
14868.9
14877.9
14886.9
14895.9
14904.8
14913.8
14922.7
14931.5
14940.4
14949.2
14958
14966.8
14975.5
14984.3
14993
15001.7
15010.3
15019
15027.6
15036.2
15044.8
15053.4
15061.9
15070.4
15078.9
15087.4
15095.8
15104.3
15112.7
15121.1
15129.5
15137.8
15146.2
15154.5
15162.8
15171.1
15179.4
15187.6
15195.8
15204.1
15212.3
15220.4
15228.6
15236.8
15244.9
15253
15261.1
15269.2
15277.3
15285.3
15293.3
15301.4
15309.4
15317.4
15325.3
15333.3
15341.2
15349.2
15357.1
15365
15372.9
15380.7
15388.6
15396.4
15404.3
15412.1
15419.9
15427.7
15435.4
15443.2
15450.9
15458.7
15466.4
15474.1
15481.8
15489.5
15497.1
15504.8
15512.4
15520.1
15527.7
15535.3
15542.9
15550.5
15558
15565.6
15573.1
15580.7
15588.2
15595.7
15603.2
15610.7
15618.1
15625.6
15633.1
15640.5
15647.9
15655.4
15662.8
15670.2
15677.5
15684.9
15692.3
15699.6
15707
15714.3
15721.6
15728.9
15736.2
15743.4
)
;

boundaryField
{
    sides
    {
        type            zeroGradient;
    }
    empty
    {
        type            empty;
    }
}


// ************************************************************************* //
