/*--------------------------------*- C++ -*----------------------------------*\
  =========                 |
  \\      /  F ield         | OpenFOAM: The Open Source CFD Toolbox
   \\    /   O peration     | Website:  https://openfoam.org
    \\  /    A nd           | Version:  9
     \\/     M anipulation  |
\*---------------------------------------------------------------------------*/
FoamFile
{
    format      ascii;
    class       surfaceScalarField;
    location    "0.05";
    object      phi_0;
}
// * * * * * * * * * * * * * * * * * * * * * * * * * * * * * * * * * * * * * //

dimensions      [1 0 -1 0 0 0 0];

internalField   nonuniform List<scalar> 
999
(
16.7393
16.8684
16.9973
17.1261
17.2546
17.383
17.5112
17.6393
17.7671
17.8947
18.0221
18.1493
18.2763
18.403
18.5295
18.6558
18.7818
18.9075
19.033
19.1583
19.2833
19.4081
19.5325
19.6567
19.7806
19.9043
20.0277
20.1508
20.2736
20.3961
20.5183
20.6401
20.7617
20.8831
21.0041
21.1246
21.2449
21.3646
21.4841
21.6031
21.7216
21.8399
21.9578
22.0754
22.1925
22.3093
22.4256
22.5414
22.6568
22.7715
22.8858
22.9997
23.1132
23.2262
23.3389
23.4511
23.5629
23.6742
23.7848
23.8949
24.0043
24.1131
24.2213
24.3289
24.436
24.5427
24.6489
24.7547
24.8601
24.965
25.0694
25.1733
25.2766
25.3792
25.4811
25.5823
25.6827
25.7823
25.8813
25.9795
26.0772
26.1742
26.2707
26.3667
26.4624
26.5577
26.6526
26.7473
26.8417
26.9358
27.0295
27.1229
27.2159
27.3085
27.4007
27.4924
27.5837
27.6746
27.765
27.8549
27.9446
28.034
28.1231
28.212
28.3006
28.389
28.4772
28.5649
28.6524
28.7396
28.8265
28.913
28.9992
29.0852
29.1709
29.2564
29.3415
29.4265
29.5113
29.5959
29.6802
29.7644
29.8485
29.9324
30.0162
30.0998
30.1833
30.2667
30.3501
30.4333
30.5165
30.5996
30.6828
30.7658
30.8488
30.9317
31.0148
31.0978
31.1807
31.2637
31.3467
31.4297
31.5128
31.5959
31.6789
31.7621
31.8454
31.9287
32.012
32.0953
32.1788
32.2624
32.346
32.4296
32.5133
32.5972
32.6812
32.7652
32.8492
32.9334
33.0177
33.1021
33.1865
33.271
33.3556
33.4404
33.5253
33.6102
33.6952
33.7803
33.8656
33.951
34.0365
34.1219
34.2076
34.2934
34.3793
34.4653
34.5513
34.6374
34.7237
34.8102
34.8967
34.9832
35.0698
35.1567
35.2437
35.3307
35.4178
35.505
35.5923
35.6798
35.7674
35.8551
35.9428
36.0306
36.1186
36.2067
36.295
36.3832
36.4715
36.56
36.6487
36.7375
36.8263
36.9151
37.0041
37.0933
37.1826
37.272
37.3614
37.4509
37.5405
37.6304
37.7203
37.8103
37.9004
37.9905
38.0808
38.1713
38.2618
38.3524
38.4431
38.5339
38.6248
38.7159
38.8071
38.8983
38.9896
39.081
39.1726
39.2644
39.3562
39.448
39.5399
39.6319
39.7242
39.8166
39.9089
40.0014
40.0939
40.1866
40.2795
40.3725
40.4655
40.5585
40.6517
40.745
40.8385
40.9321
41.0257
41.1194
41.2131
41.3071
41.4012
41.4955
41.5897
41.684
41.7783
41.8729
41.9677
42.0625
42.1574
42.2523
42.3472
42.4424
42.5378
42.6333
42.7288
42.8243
42.9198
43.0156
43.1115
43.2076
43.3038
43.3999
43.4961
43.5925
43.689
43.7857
43.8825
43.9792
44.0761
44.173
44.2701
44.3674
44.4648
44.5622
44.6597
44.7572
44.8549
44.9528
45.0509
45.1489
45.247
45.3451
45.4434
45.5419
45.6406
45.7393
45.838
45.9367
46.0356
46.1346
46.2339
46.3333
46.4327
46.532
46.6315
46.7311
46.8309
46.9308
47.0309
47.131
47.231
47.3312
47.4316
47.5321
47.6328
47.7335
47.8343
47.9351
48.036
48.1371
48.2384
48.3398
48.4412
48.5426
48.6441
48.7458
48.8476
48.9497
49.0518
49.1539
49.256
49.3582
49.4606
49.5632
49.666
49.7688
49.8716
49.9744
50.0773
50.1805
50.2839
50.3874
50.4909
50.5944
50.6979
50.8016
50.9055
51.0095
51.1137
51.218
51.3223
51.4265
51.5309
51.6355
51.7403
51.8452
51.9502
52.0551
52.1601
52.2653
52.3707
52.4762
52.5818
52.6875
52.7931
52.8989
53.0048
53.1109
53.2172
53.3236
53.43
53.5364
53.6428
53.7494
53.8562
53.9632
54.0704
54.1776
54.2847
54.3919
54.4992
54.6067
54.7145
54.8223
54.9302
55.0382
55.1461
55.2542
55.3625
55.4709
55.5795
55.6882
55.7968
55.9055
56.0143
56.1233
56.2325
56.3419
56.4513
56.5607
56.6701
56.7796
56.8893
56.9993
57.1094
57.2196
57.3299
57.4401
57.5503
57.6607
57.7713
57.8822
57.9932
58.1042
58.2152
58.3263
58.4374
58.5488
58.6603
58.772
58.8838
58.9956
59.1074
59.2193
59.3314
59.4437
59.5562
59.6688
59.7814
59.894
60.0066
60.1193
60.2323
60.3456
60.459
60.5724
60.6859
60.7993
60.9128
61.0265
61.1404
61.2545
61.3687
61.483
61.5973
61.7116
61.826
61.9407
62.0555
62.1705
62.2856
62.4006
62.5157
62.6309
62.7462
62.8618
62.9776
63.0936
63.2095
63.3254
63.4414
63.5574
63.6736
63.7901
63.9068
64.0236
64.1404
64.2572
64.3741
64.4911
64.6082
64.7256
64.8431
64.9608
65.0784
65.1961
65.3138
65.4317
65.5499
65.6682
65.7867
65.9052
66.0237
66.1422
66.2608
66.3796
66.4986
66.6179
66.7372
66.8566
66.976
67.0955
67.215
67.3347
67.4546
67.5746
67.6949
67.815
67.9352
68.0556
68.1759
68.2967
68.4173
68.5385
68.6594
68.7806
68.9017
69.0226
69.1441
69.2652
69.3871
69.5087
69.6307
69.7526
69.8745
69.9966
70.1184
70.241
70.3631
70.4858
70.6084
70.7309
70.8538
70.9762
71.0993
71.222
71.3453
71.4686
71.5919
71.7154
71.8385
71.9621
72.0852
72.209
72.3326
72.4565
72.5805
72.7042
72.8283
72.9519
73.0762
73.2
73.3244
73.4486
73.573
73.6972
73.8213
73.9457
74.0696
74.1942
74.3183
74.443
74.5675
74.6919
74.8164
74.9405
75.065
75.189
75.3135
75.4378
75.5622
75.6865
75.8104
75.9347
76.0583
76.1824
76.3063
76.4301
76.5542
76.6776
76.8014
76.9245
77.0477
77.1709
77.2935
77.4169
77.5393
77.6621
77.7845
77.9063
78.0286
78.1499
78.2717
78.393
78.5143
78.6354
78.7558
78.8764
78.9961
79.1159
79.2353
79.3544
79.4736
79.592
79.7106
79.8283
79.9457
80.0629
80.1794
80.2961
80.412
80.5279
80.6431
80.7578
80.8723
80.9859
81.0994
81.2124
81.3249
81.4373
81.549
81.6601
81.7709
81.881
81.9906
82.1
82.2086
82.3171
82.425
82.5322
82.6391
82.7452
82.8509
82.9563
83.0611
83.1656
83.2697
83.3733
83.4764
83.5791
83.6812
83.783
83.8846
83.9857
84.0866
84.1872
84.2874
84.3873
84.4868
84.586
84.6851
84.7841
84.883
84.9819
85.0804
85.1789
85.2774
85.3757
85.4742
85.5728
85.6713
85.7703
85.8692
85.9683
86.0675
86.167
86.2666
86.3668
86.4671
86.5683
86.6693
86.7712
86.8732
86.9758
87.0786
87.1826
87.2863
87.3916
87.497
87.6031
87.7098
87.8173
87.9252
88.0338
88.1434
88.2536
88.3647
88.4765
88.5892
88.7024
88.8164
88.9311
89.0468
89.1632
89.2805
89.3986
89.5177
89.6374
89.7579
89.8791
90.0011
90.1238
90.2475
90.372
90.4974
90.6234
90.7502
90.8776
91.0058
91.1346
91.2642
91.3945
91.5257
91.6575
91.79
91.923
92.0568
92.191
92.326
92.4616
92.598
92.7348
92.8724
93.0104
93.149
93.288
93.4277
93.5678
93.7086
93.8499
93.9918
94.134
94.2767
94.4198
94.5634
94.7074
94.8519
94.9968
95.1422
95.288
95.4342
95.5806
95.7275
95.8746
96.0222
96.17
96.3183
96.4668
96.6157
96.7648
96.9141
97.0636
97.2134
97.3634
97.5137
97.6641
97.8147
97.9654
98.1162
98.267
98.4178
98.5687
98.7196
98.8704
99.0211
99.1717
99.3221
99.4723
99.6221
99.7717
99.9208
100.07
100.218
100.366
100.513
100.659
100.805
100.949
101.093
101.236
101.378
101.519
101.659
101.798
101.935
102.071
102.206
102.339
102.472
102.602
102.732
102.86
102.986
103.111
103.235
103.357
103.478
103.598
103.717
103.835
103.952
104.068
104.183
104.297
104.411
104.525
104.638
104.751
104.864
104.977
105.09
105.204
105.318
105.432
105.547
105.663
105.78
105.897
106.015
106.134
106.255
106.376
106.498
106.622
106.746
106.872
106.999
107.127
107.256
107.386
107.518
107.65
107.784
107.918
108.054
108.191
108.329
108.467
108.607
108.748
108.889
109.032
109.175
109.32
109.465
109.611
109.758
109.905
110.054
110.203
110.353
110.504
110.655
110.807
110.96
111.114
111.268
111.423
111.579
111.735
111.892
112.049
112.208
112.366
112.526
112.686
112.846
113.007
113.169
113.332
113.494
113.658
113.822
113.986
114.152
114.317
114.483
114.65
114.817
114.985
115.153
115.322
115.491
115.661
115.831
116.001
116.173
116.344
116.516
116.689
116.862
117.035
117.209
117.383
117.558
117.733
117.909
118.085
118.262
118.439
118.616
118.794
118.972
119.151
119.33
119.509
119.689
119.869
120.05
120.231
120.412
120.594
120.776
120.959
121.142
121.325
121.509
121.693
121.877
122.062
122.247
122.433
122.619
122.805
122.992
123.179
123.366
123.554
123.742
123.93
124.119
124.308
124.497
124.687
124.877
125.068
125.259
125.45
125.641
125.833
126.025
126.218
126.41
126.603
126.797
126.991
127.185
127.379
127.574
127.769
127.964
128.16
128.356
128.552
128.748
128.945
129.142
129.34
129.538
129.736
129.934
130.133
130.332
130.531
130.731
130.93
131.131
131.331
131.532
131.733
131.934
132.136
132.338
132.54
132.742
132.945
133.148
133.352
133.555
133.759
133.963
134.168
134.372
134.577
134.783
134.988
135.194
135.4
135.606
135.813
136.02
136.227
136.434
136.642
136.85
137.058
137.267
137.476
137.685
137.894
138.103
138.313
138.523
138.734
138.944
)
;

boundaryField
{
    sides
    {
        type            calculated;
        value           nonuniform List<scalar> 2(139.155 -16.6101);
    }
    empty
    {
        type            empty;
        value           nonuniform List<scalar> 0();
    }
}


// ************************************************************************* //
