/*--------------------------------*- C++ -*----------------------------------*\
  =========                 |
  \\      /  F ield         | OpenFOAM: The Open Source CFD Toolbox
   \\    /   O peration     | Website:  https://openfoam.org
    \\  /    A nd           | Version:  9
     \\/     M anipulation  |
\*---------------------------------------------------------------------------*/
FoamFile
{
    format      ascii;
    class       volVectorField;
    location    "0.05";
    object      U_0;
}
// * * * * * * * * * * * * * * * * * * * * * * * * * * * * * * * * * * * * * //

dimensions      [0 1 -1 0 0 0 0];

internalField   nonuniform List<vector> 
1000
(
(23.1551 0 0)
(23.3353 0 0)
(23.5926 0 0)
(23.8058 0 0)
(23.9864 0 0)
(24.1627 0 0)
(24.3436 0 0)
(24.5271 0 0)
(24.7105 0 0)
(24.8931 0 0)
(25.0752 0 0)
(25.2571 0 0)
(25.4387 0 0)
(25.62 0 0)
(25.8009 0 0)
(25.9816 0 0)
(26.1619 0 0)
(26.3418 0 0)
(26.5213 0 0)
(26.7005 0 0)
(26.8794 0 0)
(27.0578 0 0)
(27.2358 0 0)
(27.4135 0 0)
(27.5907 0 0)
(27.7676 0 0)
(27.944 0 0)
(28.12 0 0)
(28.2955 0 0)
(28.4706 0 0)
(28.6453 0 0)
(28.8194 0 0)
(28.9931 0 0)
(29.1667 0 0)
(29.3398 0 0)
(29.5119 0 0)
(29.6833 0 0)
(29.8541 0 0)
(30.0243 0 0)
(30.194 0 0)
(30.3631 0 0)
(30.5316 0 0)
(30.6995 0 0)
(30.8668 0 0)
(31.0334 0 0)
(31.1993 0 0)
(31.3646 0 0)
(31.5291 0 0)
(31.693 0 0)
(31.8561 0 0)
(32.0185 0 0)
(32.1801 0 0)
(32.341 0 0)
(32.501 0 0)
(32.6603 0 0)
(32.8188 0 0)
(32.9765 0 0)
(33.1333 0 0)
(33.2892 0 0)
(33.4443 0 0)
(33.5986 0 0)
(33.752 0 0)
(33.9044 0 0)
(34.056 0 0)
(34.2067 0 0)
(34.3565 0 0)
(34.5053 0 0)
(34.6532 0 0)
(34.8001 0 0)
(34.9461 0 0)
(35.0911 0 0)
(35.2351 0 0)
(35.3782 0 0)
(35.5203 0 0)
(35.6613 0 0)
(35.8014 0 0)
(35.9405 0 0)
(36.0786 0 0)
(36.2157 0 0)
(36.3518 0 0)
(36.4869 0 0)
(36.621 0 0)
(36.7541 0 0)
(36.8862 0 0)
(37.0173 0 0)
(37.1474 0 0)
(37.2765 0 0)
(37.4046 0 0)
(37.5318 0 0)
(37.6579 0 0)
(37.7831 0 0)
(37.9074 0 0)
(38.0307 0 0)
(38.1531 0 0)
(38.2745 0 0)
(38.395 0 0)
(38.5147 0 0)
(38.6334 0 0)
(38.7513 0 0)
(38.8683 0 0)
(38.9845 0 0)
(39.0999 0 0)
(39.2144 0 0)
(39.3282 0 0)
(39.4412 0 0)
(39.5535 0 0)
(39.665 0 0)
(39.7758 0 0)
(39.8859 0 0)
(39.9954 0 0)
(40.1042 0 0)
(40.2124 0 0)
(40.32 0 0)
(40.427 0 0)
(40.5335 0 0)
(40.6394 0 0)
(40.7448 0 0)
(40.8497 0 0)
(40.9541 0 0)
(41.0581 0 0)
(41.1617 0 0)
(41.2648 0 0)
(41.3676 0 0)
(41.47 0 0)
(41.5721 0 0)
(41.6738 0 0)
(41.7752 0 0)
(41.8764 0 0)
(41.9773 0 0)
(42.0779 0 0)
(42.1783 0 0)
(42.2784 0 0)
(42.3784 0 0)
(42.4782 0 0)
(42.5778 0 0)
(42.6772 0 0)
(42.7765 0 0)
(42.8757 0 0)
(42.9747 0 0)
(43.0737 0 0)
(43.1725 0 0)
(43.2713 0 0)
(43.37 0 0)
(43.4686 0 0)
(43.5672 0 0)
(43.6657 0 0)
(43.7642 0 0)
(43.8626 0 0)
(43.9611 0 0)
(44.0595 0 0)
(44.1579 0 0)
(44.2563 0 0)
(44.3547 0 0)
(44.4531 0 0)
(44.5515 0 0)
(44.6499 0 0)
(44.7483 0 0)
(44.8468 0 0)
(44.9453 0 0)
(45.0438 0 0)
(45.1423 0 0)
(45.2409 0 0)
(45.3395 0 0)
(45.4381 0 0)
(45.5368 0 0)
(45.6356 0 0)
(45.7343 0 0)
(45.8331 0 0)
(45.932 0 0)
(46.0309 0 0)
(46.1299 0 0)
(46.2289 0 0)
(46.3279 0 0)
(46.427 0 0)
(46.5262 0 0)
(46.6254 0 0)
(46.7246 0 0)
(46.8239 0 0)
(46.9233 0 0)
(47.0227 0 0)
(47.1222 0 0)
(47.2217 0 0)
(47.3213 0 0)
(47.4209 0 0)
(47.5206 0 0)
(47.6204 0 0)
(47.7202 0 0)
(47.82 0 0)
(47.9199 0 0)
(48.0199 0 0)
(48.1199 0 0)
(48.2199 0 0)
(48.3201 0 0)
(48.4202 0 0)
(48.5205 0 0)
(48.6208 0 0)
(48.7211 0 0)
(48.8215 0 0)
(48.9219 0 0)
(49.0224 0 0)
(49.123 0 0)
(49.2236 0 0)
(49.3242 0 0)
(49.425 0 0)
(49.5257 0 0)
(49.6265 0 0)
(49.7274 0 0)
(49.8283 0 0)
(49.9293 0 0)
(50.0303 0 0)
(50.1314 0 0)
(50.2326 0 0)
(50.3337 0 0)
(50.435 0 0)
(50.5363 0 0)
(50.6376 0 0)
(50.739 0 0)
(50.8404 0 0)
(50.9419 0 0)
(51.0435 0 0)
(51.1451 0 0)
(51.2467 0 0)
(51.3484 0 0)
(51.4501 0 0)
(51.5519 0 0)
(51.6538 0 0)
(51.7557 0 0)
(51.8576 0 0)
(51.9596 0 0)
(52.0616 0 0)
(52.1637 0 0)
(52.2658 0 0)
(52.368 0 0)
(52.4702 0 0)
(52.5725 0 0)
(52.6748 0 0)
(52.7772 0 0)
(52.8796 0 0)
(52.982 0 0)
(53.0845 0 0)
(53.1871 0 0)
(53.2897 0 0)
(53.3923 0 0)
(53.495 0 0)
(53.5977 0 0)
(53.7005 0 0)
(53.8033 0 0)
(53.9062 0 0)
(54.0091 0 0)
(54.112 0 0)
(54.215 0 0)
(54.3181 0 0)
(54.4211 0 0)
(54.5243 0 0)
(54.6274 0 0)
(54.7306 0 0)
(54.8339 0 0)
(54.9372 0 0)
(55.0405 0 0)
(55.1439 0 0)
(55.2473 0 0)
(55.3508 0 0)
(55.4543 0 0)
(55.5578 0 0)
(55.6614 0 0)
(55.765 0 0)
(55.8687 0 0)
(55.9724 0 0)
(56.0762 0 0)
(56.1799 0 0)
(56.2838 0 0)
(56.3876 0 0)
(56.4915 0 0)
(56.5955 0 0)
(56.6994 0 0)
(56.8035 0 0)
(56.9075 0 0)
(57.0116 0 0)
(57.1157 0 0)
(57.2199 0 0)
(57.3241 0 0)
(57.4284 0 0)
(57.5327 0 0)
(57.637 0 0)
(57.7414 0 0)
(57.8458 0 0)
(57.9502 0 0)
(58.0547 0 0)
(58.1592 0 0)
(58.2637 0 0)
(58.3683 0 0)
(58.473 0 0)
(58.5776 0 0)
(58.6823 0 0)
(58.7871 0 0)
(58.8918 0 0)
(58.9966 0 0)
(59.1015 0 0)
(59.2064 0 0)
(59.3113 0 0)
(59.4162 0 0)
(59.5212 0 0)
(59.6262 0 0)
(59.7313 0 0)
(59.8364 0 0)
(59.9415 0 0)
(60.0467 0 0)
(60.1519 0 0)
(60.2571 0 0)
(60.3624 0 0)
(60.4677 0 0)
(60.573 0 0)
(60.6784 0 0)
(60.7838 0 0)
(60.8892 0 0)
(60.9947 0 0)
(61.1002 0 0)
(61.2058 0 0)
(61.3113 0 0)
(61.4169 0 0)
(61.5226 0 0)
(61.6283 0 0)
(61.734 0 0)
(61.8397 0 0)
(61.9455 0 0)
(62.0513 0 0)
(62.1571 0 0)
(62.263 0 0)
(62.3689 0 0)
(62.4749 0 0)
(62.5809 0 0)
(62.6869 0 0)
(62.7929 0 0)
(62.899 0 0)
(63.0051 0 0)
(63.1112 0 0)
(63.2174 0 0)
(63.3236 0 0)
(63.4299 0 0)
(63.5361 0 0)
(63.6424 0 0)
(63.7488 0 0)
(63.8552 0 0)
(63.9616 0 0)
(64.068 0 0)
(64.1745 0 0)
(64.281 0 0)
(64.3875 0 0)
(64.4941 0 0)
(64.6007 0 0)
(64.7073 0 0)
(64.814 0 0)
(64.9207 0 0)
(65.0274 0 0)
(65.1341 0 0)
(65.2409 0 0)
(65.3477 0 0)
(65.4546 0 0)
(65.5615 0 0)
(65.6684 0 0)
(65.7753 0 0)
(65.8823 0 0)
(65.9893 0 0)
(66.0964 0 0)
(66.2034 0 0)
(66.3105 0 0)
(66.4177 0 0)
(66.5248 0 0)
(66.632 0 0)
(66.7392 0 0)
(66.8465 0 0)
(66.9538 0 0)
(67.0611 0 0)
(67.1685 0 0)
(67.2759 0 0)
(67.3833 0 0)
(67.4907 0 0)
(67.5982 0 0)
(67.7057 0 0)
(67.8132 0 0)
(67.9208 0 0)
(68.0284 0 0)
(68.136 0 0)
(68.2437 0 0)
(68.3513 0 0)
(68.4591 0 0)
(68.5668 0 0)
(68.6746 0 0)
(68.7824 0 0)
(68.8902 0 0)
(68.9981 0 0)
(69.106 0 0)
(69.2139 0 0)
(69.3219 0 0)
(69.4299 0 0)
(69.5379 0 0)
(69.646 0 0)
(69.754 0 0)
(69.8621 0 0)
(69.9703 0 0)
(70.0785 0 0)
(70.1867 0 0)
(70.2949 0 0)
(70.4031 0 0)
(70.5114 0 0)
(70.6197 0 0)
(70.7281 0 0)
(70.8365 0 0)
(70.9449 0 0)
(71.0533 0 0)
(71.1618 0 0)
(71.2703 0 0)
(71.3788 0 0)
(71.4874 0 0)
(71.596 0 0)
(71.7046 0 0)
(71.8132 0 0)
(71.9219 0 0)
(72.0306 0 0)
(72.1393 0 0)
(72.2481 0 0)
(72.3569 0 0)
(72.4657 0 0)
(72.5746 0 0)
(72.6835 0 0)
(72.7924 0 0)
(72.9013 0 0)
(73.0103 0 0)
(73.1193 0 0)
(73.2283 0 0)
(73.3374 0 0)
(73.4465 0 0)
(73.5556 0 0)
(73.6647 0 0)
(73.7739 0 0)
(73.8831 0 0)
(73.9924 0 0)
(74.1016 0 0)
(74.2109 0 0)
(74.3203 0 0)
(74.4296 0 0)
(74.539 0 0)
(74.6484 0 0)
(74.7578 0 0)
(74.8673 0 0)
(74.9768 0 0)
(75.0863 0 0)
(75.1959 0 0)
(75.3055 0 0)
(75.4151 0 0)
(75.5247 0 0)
(75.6344 0 0)
(75.7441 0 0)
(75.8539 0 0)
(75.9636 0 0)
(76.0734 0 0)
(76.1832 0 0)
(76.2931 0 0)
(76.4029 0 0)
(76.5129 0 0)
(76.6228 0 0)
(76.7327 0 0)
(76.8427 0 0)
(76.9528 0 0)
(77.0628 0 0)
(77.1729 0 0)
(77.283 0 0)
(77.3931 0 0)
(77.5033 0 0)
(77.6135 0 0)
(77.7237 0 0)
(77.8339 0 0)
(77.9442 0 0)
(78.0545 0 0)
(78.1648 0 0)
(78.2752 0 0)
(78.3856 0 0)
(78.496 0 0)
(78.6064 0 0)
(78.7169 0 0)
(78.8274 0 0)
(78.9379 0 0)
(79.0484 0 0)
(79.159 0 0)
(79.2696 0 0)
(79.3802 0 0)
(79.4909 0 0)
(79.6015 0 0)
(79.7122 0 0)
(79.8229 0 0)
(79.9337 0 0)
(80.0445 0 0)
(80.1553 0 0)
(80.2661 0 0)
(80.3769 0 0)
(80.4878 0 0)
(80.5986 0 0)
(80.7095 0 0)
(80.8205 0 0)
(80.9314 0 0)
(81.0424 0 0)
(81.1534 0 0)
(81.2644 0 0)
(81.3754 0 0)
(81.4864 0 0)
(81.5975 0 0)
(81.7085 0 0)
(81.8196 0 0)
(81.9307 0 0)
(82.0418 0 0)
(82.1529 0 0)
(82.264 0 0)
(82.3752 0 0)
(82.4863 0 0)
(82.5975 0 0)
(82.7086 0 0)
(82.8198 0 0)
(82.9309 0 0)
(83.0421 0 0)
(83.1533 0 0)
(83.2644 0 0)
(83.3756 0 0)
(83.4867 0 0)
(83.5979 0 0)
(83.709 0 0)
(83.8201 0 0)
(83.9312 0 0)
(84.0423 0 0)
(84.1533 0 0)
(84.2644 0 0)
(84.3754 0 0)
(84.4864 0 0)
(84.5973 0 0)
(84.7082 0 0)
(84.8191 0 0)
(84.9299 0 0)
(85.0407 0 0)
(85.1515 0 0)
(85.2621 0 0)
(85.3728 0 0)
(85.4833 0 0)
(85.5938 0 0)
(85.7042 0 0)
(85.8146 0 0)
(85.9248 0 0)
(86.035 0 0)
(86.1451 0 0)
(86.2551 0 0)
(86.3649 0 0)
(86.4747 0 0)
(86.5843 0 0)
(86.6939 0 0)
(86.8032 0 0)
(86.9125 0 0)
(87.0216 0 0)
(87.1305 0 0)
(87.2393 0 0)
(87.3479 0 0)
(87.4564 0 0)
(87.5646 0 0)
(87.6727 0 0)
(87.7805 0 0)
(87.8881 0 0)
(87.9955 0 0)
(88.1027 0 0)
(88.2096 0 0)
(88.3162 0 0)
(88.4226 0 0)
(88.5287 0 0)
(88.6345 0 0)
(88.74 0 0)
(88.8451 0 0)
(88.95 0 0)
(89.0545 0 0)
(89.1586 0 0)
(89.2624 0 0)
(89.3658 0 0)
(89.4687 0 0)
(89.5713 0 0)
(89.6734 0 0)
(89.7751 0 0)
(89.8763 0 0)
(89.9771 0 0)
(90.0773 0 0)
(90.1771 0 0)
(90.2763 0 0)
(90.375 0 0)
(90.4731 0 0)
(90.5706 0 0)
(90.6675 0 0)
(90.7639 0 0)
(90.8596 0 0)
(90.9546 0 0)
(91.049 0 0)
(91.1427 0 0)
(91.2357 0 0)
(91.328 0 0)
(91.4195 0 0)
(91.5103 0 0)
(91.6003 0 0)
(91.6896 0 0)
(91.778 0 0)
(91.8656 0 0)
(91.9523 0 0)
(92.0383 0 0)
(92.1233 0 0)
(92.2074 0 0)
(92.2907 0 0)
(92.373 0 0)
(92.4544 0 0)
(92.5349 0 0)
(92.6144 0 0)
(92.6929 0 0)
(92.7704 0 0)
(92.847 0 0)
(92.9225 0 0)
(92.9971 0 0)
(93.0706 0 0)
(93.1431 0 0)
(93.2146 0 0)
(93.2851 0 0)
(93.3546 0 0)
(93.423 0 0)
(93.4903 0 0)
(93.5567 0 0)
(93.622 0 0)
(93.6863 0 0)
(93.7497 0 0)
(93.812 0 0)
(93.8733 0 0)
(93.9337 0 0)
(93.993 0 0)
(94.0515 0 0)
(94.1091 0 0)
(94.1657 0 0)
(94.2215 0 0)
(94.2764 0 0)
(94.3305 0 0)
(94.3838 0 0)
(94.4364 0 0)
(94.4882 0 0)
(94.5393 0 0)
(94.5898 0 0)
(94.6397 0 0)
(94.6891 0 0)
(94.7379 0 0)
(94.7862 0 0)
(94.8341 0 0)
(94.8816 0 0)
(94.9288 0 0)
(94.9757 0 0)
(95.0223 0 0)
(95.0688 0 0)
(95.1152 0 0)
(95.1614 0 0)
(95.2077 0 0)
(95.254 0 0)
(95.3004 0 0)
(95.3469 0 0)
(95.3937 0 0)
(95.4407 0 0)
(95.488 0 0)
(95.5356 0 0)
(95.5837 0 0)
(95.6322 0 0)
(95.6813 0 0)
(95.7309 0 0)
(95.7811 0 0)
(95.8319 0 0)
(95.8835 0 0)
(95.9358 0 0)
(95.9889 0 0)
(96.0428 0 0)
(96.0975 0 0)
(96.1531 0 0)
(96.2097 0 0)
(96.2672 0 0)
(96.3256 0 0)
(96.3851 0 0)
(96.4456 0 0)
(96.5071 0 0)
(96.5697 0 0)
(96.6335 0 0)
(96.6982 0 0)
(96.7641 0 0)
(96.831 0 0)
(96.8992 0 0)
(96.9684 0 0)
(97.0388 0 0)
(97.1103 0 0)
(97.183 0 0)
(97.2568 0 0)
(97.3317 0 0)
(97.4077 0 0)
(97.4849 0 0)
(97.5631 0 0)
(97.6425 0 0)
(97.723 0 0)
(97.8046 0 0)
(97.8873 0 0)
(97.971 0 0)
(98.0557 0 0)
(98.1415 0 0)
(98.2283 0 0)
(98.3161 0 0)
(98.4049 0 0)
(98.4947 0 0)
(98.5854 0 0)
(98.677 0 0)
(98.7696 0 0)
(98.8631 0 0)
(98.9574 0 0)
(99.0526 0 0)
(99.1486 0 0)
(99.2454 0 0)
(99.343 0 0)
(99.4415 0 0)
(99.5406 0 0)
(99.6405 0 0)
(99.7412 0 0)
(99.8425 0 0)
(99.9445 0 0)
(100.047 0 0)
(100.151 0 0)
(100.254 0 0)
(100.359 0 0)
(100.464 0 0)
(100.57 0 0)
(100.676 0 0)
(100.783 0 0)
(100.89 0 0)
(100.998 0 0)
(101.106 0 0)
(101.215 0 0)
(101.324 0 0)
(101.434 0 0)
(101.544 0 0)
(101.654 0 0)
(101.765 0 0)
(101.876 0 0)
(101.988 0 0)
(102.1 0 0)
(102.212 0 0)
(102.324 0 0)
(102.437 0 0)
(102.549 0 0)
(102.662 0 0)
(102.775 0 0)
(102.889 0 0)
(103.002 0 0)
(103.115 0 0)
(103.229 0 0)
(103.342 0 0)
(103.456 0 0)
(103.569 0 0)
(103.682 0 0)
(103.795 0 0)
(103.907 0 0)
(104.02 0 0)
(104.132 0 0)
(104.243 0 0)
(104.354 0 0)
(104.464 0 0)
(104.573 0 0)
(104.682 0 0)
(104.79 0 0)
(104.896 0 0)
(105.002 0 0)
(105.107 0 0)
(105.21 0 0)
(105.312 0 0)
(105.412 0 0)
(105.51 0 0)
(105.607 0 0)
(105.702 0 0)
(105.795 0 0)
(105.886 0 0)
(105.975 0 0)
(106.062 0 0)
(106.146 0 0)
(106.228 0 0)
(106.308 0 0)
(106.385 0 0)
(106.46 0 0)
(106.532 0 0)
(106.601 0 0)
(106.668 0 0)
(106.732 0 0)
(106.794 0 0)
(106.853 0 0)
(106.91 0 0)
(106.965 0 0)
(107.017 0 0)
(107.068 0 0)
(107.116 0 0)
(107.163 0 0)
(107.208 0 0)
(107.252 0 0)
(107.295 0 0)
(107.336 0 0)
(107.377 0 0)
(107.417 0 0)
(107.457 0 0)
(107.496 0 0)
(107.536 0 0)
(107.575 0 0)
(107.615 0 0)
(107.656 0 0)
(107.697 0 0)
(107.739 0 0)
(107.782 0 0)
(107.826 0 0)
(107.872 0 0)
(107.919 0 0)
(107.967 0 0)
(108.016 0 0)
(108.068 0 0)
(108.12 0 0)
(108.175 0 0)
(108.231 0 0)
(108.288 0 0)
(108.347 0 0)
(108.408 0 0)
(108.471 0 0)
(108.535 0 0)
(108.601 0 0)
(108.668 0 0)
(108.737 0 0)
(108.807 0 0)
(108.879 0 0)
(108.952 0 0)
(109.027 0 0)
(109.103 0 0)
(109.181 0 0)
(109.259 0 0)
(109.339 0 0)
(109.421 0 0)
(109.503 0 0)
(109.587 0 0)
(109.672 0 0)
(109.758 0 0)
(109.845 0 0)
(109.933 0 0)
(110.022 0 0)
(110.112 0 0)
(110.203 0 0)
(110.296 0 0)
(110.389 0 0)
(110.483 0 0)
(110.578 0 0)
(110.674 0 0)
(110.77 0 0)
(110.868 0 0)
(110.966 0 0)
(111.066 0 0)
(111.166 0 0)
(111.267 0 0)
(111.368 0 0)
(111.471 0 0)
(111.574 0 0)
(111.678 0 0)
(111.782 0 0)
(111.888 0 0)
(111.994 0 0)
(112.1 0 0)
(112.208 0 0)
(112.316 0 0)
(112.424 0 0)
(112.534 0 0)
(112.644 0 0)
(112.754 0 0)
(112.866 0 0)
(112.978 0 0)
(113.09 0 0)
(113.203 0 0)
(113.317 0 0)
(113.431 0 0)
(113.546 0 0)
(113.661 0 0)
(113.777 0 0)
(113.893 0 0)
(114.01 0 0)
(114.128 0 0)
(114.246 0 0)
(114.364 0 0)
(114.483 0 0)
(114.603 0 0)
(114.723 0 0)
(114.843 0 0)
(114.964 0 0)
(115.086 0 0)
(115.208 0 0)
(115.33 0 0)
(115.453 0 0)
(115.577 0 0)
(115.701 0 0)
(115.825 0 0)
(115.95 0 0)
(116.075 0 0)
(116.2 0 0)
(116.326 0 0)
(116.453 0 0)
(116.58 0 0)
(116.707 0 0)
(116.835 0 0)
(116.963 0 0)
(117.091 0 0)
(117.22 0 0)
(117.349 0 0)
(117.479 0 0)
(117.609 0 0)
(117.74 0 0)
(117.87 0 0)
(118.002 0 0)
(118.133 0 0)
(118.265 0 0)
(118.397 0 0)
(118.53 0 0)
(118.663 0 0)
(118.797 0 0)
(118.93 0 0)
(119.064 0 0)
(119.199 0 0)
(119.334 0 0)
(119.469 0 0)
(119.604 0 0)
(119.74 0 0)
(119.876 0 0)
(120.013 0 0)
(120.149 0 0)
(120.286 0 0)
(120.424 0 0)
(120.562 0 0)
(120.7 0 0)
(120.838 0 0)
(120.977 0 0)
(121.116 0 0)
(121.255 0 0)
(121.395 0 0)
(121.534 0 0)
(121.675 0 0)
(121.815 0 0)
(121.956 0 0)
(122.097 0 0)
(122.238 0 0)
(122.38 0 0)
(122.522 0 0)
(122.664 0 0)
(122.807 0 0)
(122.949 0 0)
(123.093 0 0)
(123.236 0 0)
(123.38 0 0)
(123.523 0 0)
(123.668 0 0)
(123.812 0 0)
(123.957 0 0)
(124.102 0 0)
(124.247 0 0)
(124.392 0 0)
(124.538 0 0)
(124.684 0 0)
(124.83 0 0)
(124.977 0 0)
(125.124 0 0)
(125.271 0 0)
(125.418 0 0)
(125.565 0 0)
(125.713 0 0)
(125.861 0 0)
(126.009 0 0)
(126.158 0 0)
(126.306 0 0)
(126.455 0 0)
(126.605 0 0)
(126.754 0 0)
(126.904 0 0)
(127.054 0 0)
(127.204 0 0)
(127.354 0 0)
(127.505 0 0)
(127.655 0 0)
(127.807 0 0)
(127.958 0 0)
(128.109 0 0)
(128.261 0 0)
(128.413 0 0)
(128.565 0 0)
(128.717 0 0)
(128.87 0 0)
(129.023 0 0)
(129.176 0 0)
(129.329 0 0)
(129.483 0 0)
(129.636 0 0)
(129.79 0 0)
(129.944 0 0)
(130.099 0 0)
(130.256 0 0)
(130.518 0 0)
)
;

boundaryField
{
    sides
    {
        type            zeroGradient;
    }
    empty
    {
        type            empty;
    }
}


// ************************************************************************* //
