/*--------------------------------*- C++ -*----------------------------------*\
  =========                 |
  \\      /  F ield         | OpenFOAM: The Open Source CFD Toolbox
   \\    /   O peration     | Website:  https://openfoam.org
    \\  /    A nd           | Version:  9
     \\/     M anipulation  |
\*---------------------------------------------------------------------------*/
FoamFile
{
    format      ascii;
    class       volScalarField;
    location    "0.032";
    object      p;
}
// * * * * * * * * * * * * * * * * * * * * * * * * * * * * * * * * * * * * * //

dimensions      [1 -1 -2 0 0 0 0];

internalField   nonuniform List<scalar> 
1000
(
50517.8
50431.3
50379
50322.5
50267.2
50211.7
50156.3
50100.9
50045.6
49990.2
49934.9
49879.7
49824.4
49769.2
49714.1
49659
49603.9
49549
49494
49439.2
49384.4
49329.7
49275
49220.4
49165.9
49111.4
49057
49002.6
48948.3
48894
48839.7
48785.5
48731.4
48677.3
48623.3
48569.4
48515.4
48461.6
48407.8
48354
48300.3
48246.6
48193
48139.4
48086
48032.5
47979.1
47925.8
47872.4
47819.2
47765.9
47712.7
47659.6
47606.6
47553.6
47500.7
47448
47395.3
47342.7
47290.1
47237.6
47185
47132.5
47080
47027.6
46975.2
46922.9
46870.6
46818.4
46766.2
46714.1
46662
46610
46557.9
46505.9
46453.9
46402
46350.2
46298.4
46246.6
46195
46143.3
46091.7
46040.1
45988.6
45937.1
45885.6
45834.2
45782.9
45731.6
45680.4
45629.2
45578.1
45527.1
45476.1
45425
45374
45323.1
45272.4
45221.7
45171
45120.1
45069.1
45018.3
44968
44918.1
44868.1
44817.4
44766.3
44715.2
44664.8
44615.3
44566.2
44516.6
44466
44415
44364.2
44314.3
44265.1
44216.1
44166.5
44116.4
44066.1
44016
43966.5
43917.4
43868.5
43819.4
43769.4
43718.8
43668.6
43620.2
43574.4
43526.7
43475.2
43422.3
43370.7
43325.5
43287.4
43238
43183.2
43128.2
43075
43030
42999.3
42950.9
42894.6
42838.2
42782.7
42730.1
42694.4
42663.6
42611.1
42554.7
42498
42442.5
42389.4
42348.9
42322.9
42274
42218.4
42162.3
42107.3
42054.4
42011.1
41983.9
41937.2
41882.6
41828
41774.2
41723.1
41683.2
41649.8
41600.8
41548.1
41495.5
41444.4
41397.6
41359.9
41316.4
41266.7
41216.1
41166.5
41119.7
41076.4
41031.9
40984.5
40936.3
40888.6
40842.2
40796.5
40750.5
40704
40657.2
40610.7
40564.4
40518.3
40472.1
40425.9
40379.7
40333.6
40287.6
40241.6
40195.6
40149.7
40103.8
40058
40012.2
39966.5
39920.8
39875.2
39829.6
39784
39738.5
39693
39647.6
39602.2
39556.8
39511.5
39466.3
39421.1
39375.9
39330.8
39285.7
39240.7
39195.7
39150.8
39105.9
39061
39016.2
38971.4
38926.7
38882
38837.4
38792.8
38748.3
38703.8
38659.3
38614.9
38570.5
38526.2
38481.9
38437.7
38393.5
38349.4
38305.3
38261.2
38217.2
38173.2
38129.3
38085.4
38041.6
37997.8
37954
37910.3
37866.6
37822.9
37779.2
37735.6
37692
37648.5
37605
37561.6
37518.2
37474.9
37431.7
37388.5
37345.3
37302.3
37259.2
37216.3
37173.3
37130.4
37087.4
37044.6
37001.8
36959
36916.3
36873.6
36830.9
36788.3
36745.7
36703.2
36660.7
36618.3
36575.8
36533.4
36491.1
36448.9
36406.7
36364.5
36322.3
36280.1
36238.1
36196.1
36154.2
36112.3
36070.3
36028.3
35986.4
35944.7
35903.1
35861.6
35819.9
35778.1
35736.4
35694.7
35653.3
35612.2
35571
35529.6
35488
35446.3
35404.9
35363.9
35323.3
35282.6
35241.3
35199.7
35158.2
35117
35076.5
35036.5
34996.1
34954.9
34913.4
34872
34831.1
34791.1
34751.8
34711.7
34670.6
34629.3
34588.1
34547.2
34507.5
34469.3
34429.6
34388.7
34347.4
34306.2
34265.4
34226.5
34189.6
34149.6
34108.4
34067.1
34026
33985.8
33948.9
33911.3
33870.7
33829.6
33788.5
33747.9
33709
33673.4
33634.1
33593.3
33552.5
33511.9
33471.9
33435
33398.6
33358.6
33318.1
33277.7
33237.4
33198.2
33162.7
33125.3
33085.3
33045.2
33005.1
32965.3
32926.9
32891.8
32853.8
32814.2
32774.4
32734.8
32695.4
32657.5
32622.4
32584.1
32544.9
32505.5
32466.3
32427.4
32390.1
32354.5
32316.2
32277.3
32238.4
32199.6
32161.2
32124.6
32088.6
32050.4
32012
31973.5
31935.2
31897.3
31861.3
31825
31787.1
31749.2
31711.3
31673.6
31636.6
31601.1
31564.5
31527.4
31490.2
31453.1
31416.5
31380.5
31345.9
31310.5
31275
31239.6
31204.4
31170.2
31136.9
31105.2
31075.6
31044.9
31014.8
30985.5
30956.7
30929.9
30905.2
30882.3
30861.7
30843.4
30827.4
30813.5
30802.2
30793.8
30787.3
30782.5
30778.9
30775.9
30773.3
30772.3
30772.3
30773.1
30774.7
30777.1
30779.2
30781.5
30784.7
30787.8
30790.8
30793.6
30795.5
30796.5
30798.7
30801.5
30804.4
30807.4
30810
30811.1
30813.9
30817.7
30821.1
30823.6
30825.2
30824.9
30821.2
30818.7
30815.6
30809.8
30803
30796.3
30789.7
30781.5
30775.5
30772.5
30770.7
30769.5
30769
30768.9
30768.4
30768.1
30767.8
30766.5
30761.8
30759.3
30759.8
30761
30762.4
30764
30765.6
30767
30766.8
30765
30766.6
30769.3
30772.2
30774.8
30777
30778.3
30777
30773.6
30773
30772.5
30770.6
30767.3
30763.5
30759.8
30755.7
30748.9
30743.4
30740.9
30739.2
30737.9
30737
30736.3
30735.9
30735.5
30735.1
30733.6
30728.6
30725.8
30725.6
30726
30726.7
30727.4
30727.3
30724.8
30724.5
30725.7
30727.3
30729.3
30731.4
30733.7
30735.8
30737.6
30738.8
30738.3
30734.5
30732.8
30732.3
30730.9
30728.2
30724.4
30718.5
30712.3
30709.2
30707.2
30705.6
30704.3
30702.8
30700
30695.9
30694.3
30693.6
30693.2
30692.9
30692.3
30690.3
30687.5
30687.1
30687.4
30688
30688.8
30689.4
30688.4
30686.6
30687.1
30688.3
30689.8
30691.3
30692.6
30692
30690.5
30691.1
30691.9
30692.4
30692.5
30691.7
30688.1
30682.7
30679.2
30676.2
30673.5
30671.3
30669.2
30665.8
30661.7
30660.2
30659.4
30658.6
30657.9
30656.9
30654.6
30651.1
30650.3
30650.2
30650.3
30650.5
30650.5
30649.1
30646.6
30646.7
30647.6
30648.6
30649.6
30650.3
30649.5
30647.7
30648.4
30649.7
30650.9
30651.7
30651.7
30649.5
30647.1
30646.1
30644.7
30642.6
30639.9
30636
30630.9
30628.3
30626.7
30625.5
30624.4
30622.8
30619.1
30616.8
30616.1
30615.6
30615.3
30615.2
30615.2
30615.2
30615.2
30614
30608.1
30603.1
30602.7
30603.3
30604.1
30605.1
30606.3
30607.4
30608.6
30609.9
30611.1
30612.3
30613.2
30613.5
30611.6
30607.1
30605.7
30604.6
30603
30601
30598.5
30593.8
30590.3
30588.6
30587.4
30586.4
30585.7
30585
30583.9
30581.7
30578.7
30575.9
30572.6
30570.9
30570.5
30570.5
30570.8
30571.2
30571.8
30572.3
30572.7
30572.9
30571.7
30565.9
30562.8
30563.2
30564.2
30565.3
30566.3
30567.2
30568.1
30569
30569.5
30569.6
30569.4
30568.4
30566.9
30565.1
30562.1
30554.2
30548.2
30546.5
30545.6
30544.8
30544.2
30543.8
30543.5
30543.4
30543.2
30542.9
30542.1
30538.6
30532.8
30531.6
30531.7
30532.1
30532.7
30533.2
30533.7
30534.1
30534.6
30535
30534.8
30531.2
30527.3
30527.3
30527.9
30528.4
30528.8
30529
30529.1
30529.1
30528.7
30527.7
30526.1
30523.6
30517.6
30512.1
30510.7
30510
30509.6
30509.1
30508.5
30508.1
30507.7
30507
30504.8
30502
30501.3
30500.9
30500.5
30499.5
30497
30496
30496.2
30496.6
30496.9
30497
30496.3
30493.7
30492.9
30493.4
30494.1
30494.6
30494.6
30492.8
30490
30489.2
30488.8
30488.2
30487.3
30485.3
30480.6
30477.9
30476.7
30475.9
30475.4
30475.1
30474.9
30474.6
30474
30472.8
30468.7
30459.7
30457
30456.6
30456.7
30456.9
30457
30457.1
30457.3
30457.5
30457.7
30457.2
30453.4
30450.6
30450.4
30450.7
30451.1
30451.7
30452.4
30453
30452.8
30450.5
30446.9
30445.9
30445.3
30444.7
30444.2
30443.6
30443
30442.1
30440.9
30438.5
30436
30435.4
30435.2
30435.1
30435
30434.8
30434.4
30434
30433
30429
30422.5
30421.2
30421.1
30421.2
30421.3
30421.4
30421.7
30421.9
30421.6
30418.7
30416.4
30416.2
30416.4
30416.8
30417.2
30417.6
30417.9
30417.7
30416.1
30411.1
30408.5
30407.6
30407.1
30406.7
30406.4
30406.1
30405.6
30405
30404.5
30404.1
30403.6
30401.7
30395
30390.8
30390.1
30389.8
30389.7
30389.7
30389.9
30390.4
30390.8
30391
30391.2
30391.2
30391.2
30391.1
30390
30384.5
30380.3
30380
30380.2
30380.4
30380.6
30380.9
30381.3
30382.2
30384.2
30384.4
30383.8
30383.5
30384.1
30387.3
30401.7
30464.1
30700.7
31059.3
31258.7
31341.2
31372.3
31382.3
31384.5
31383.9
31381.8
31377.4
31377.1
31377.2
31377.4
31377.8
31378.9
31379.2
31379.3
31379.2
31376.2
31370.1
31366.7
31365.8
31365.9
31366.4
31367.2
31367.5
31367.2
31366
31361.8
31359.9
31359.4
31359.3
31359.4
31359.4
31359.5
31359
31358.2
31356.8
31354.6
31353.8
31353.4
31353
31352.9
31353.7
31353.9
31353.4
31352.5
31350.5
31344.3
31337
31335.2
31334.7
31334.8
31335.5
31338.5
31342.9
31352.7
31382.6
31479.1
31709.7
31936.8
32055.9
32115
32144.2
32156.5
32164.6
32170.7
32174.7
32177.1
32177.5
32176.4
32169.8
32159.7
32157.4
32156.5
32156.8
32158
32160.7
32162.9
32162.8
32161.9
32158.3
32148.7
32145.4
32145.2
32145.7
32148.4
32160
32171.7
32173.7
32174
32173.8
32172.5
32165.7
32153
32149.9
32149.5
32149.8
32151.4
32154.1
32154.6
32154.4
32153.2
32147.5
32141.7
32140.8
32140.8
32141.1
32143.3
32151.9
32158.1
32159.5
)
;

boundaryField
{
    sides
    {
        type            zeroGradient;
    }
    empty
    {
        type            empty;
    }
}


// ************************************************************************* //
