/*--------------------------------*- C++ -*----------------------------------*\
  =========                 |
  \\      /  F ield         | OpenFOAM: The Open Source CFD Toolbox
   \\    /   O peration     | Website:  https://openfoam.org
    \\  /    A nd           | Version:  9
     \\/     M anipulation  |
\*---------------------------------------------------------------------------*/
FoamFile
{
    format      ascii;
    class       volScalarField;
    location    "0.032";
    object      rho;
}
// * * * * * * * * * * * * * * * * * * * * * * * * * * * * * * * * * * * * * //

dimensions      [1 -3 0 0 0 0 0];

internalField   nonuniform List<scalar> 
1000
(
0.613657
0.612906
0.612453
0.611962
0.611482
0.610999
0.610518
0.610037
0.609555
0.609074
0.608593
0.608112
0.607631
0.60715
0.60667
0.60619
0.60571
0.605231
0.604752
0.604273
0.603795
0.603317
0.60284
0.602363
0.601886
0.60141
0.600934
0.600458
0.599983
0.599508
0.599033
0.598558
0.598084
0.59761
0.597136
0.596663
0.59619
0.595718
0.595245
0.594773
0.594301
0.59383
0.593359
0.592888
0.592417
0.591947
0.591477
0.591008
0.590538
0.590069
0.5896
0.589131
0.588663
0.588195
0.587727
0.587261
0.586795
0.58633
0.585865
0.585401
0.584936
0.584472
0.584007
0.583543
0.583079
0.582615
0.582151
0.581688
0.581226
0.580764
0.580301
0.579839
0.579377
0.578916
0.578454
0.577992
0.577531
0.57707
0.57661
0.57615
0.57569
0.575231
0.574771
0.574312
0.573853
0.573394
0.572935
0.572477
0.572019
0.571562
0.571105
0.570648
0.570192
0.569736
0.56928
0.568824
0.568368
0.567912
0.567459
0.567005
0.566551
0.566095
0.565638
0.565183
0.564732
0.564285
0.563836
0.563382
0.562923
0.562464
0.562011
0.561567
0.561126
0.56068
0.560225
0.559766
0.559309
0.55886
0.558417
0.557975
0.557528
0.557077
0.556623
0.556172
0.555725
0.555282
0.554841
0.554397
0.553946
0.553489
0.553035
0.552598
0.552183
0.551752
0.551285
0.550807
0.55034
0.54993
0.549585
0.549137
0.54864
0.548141
0.547658
0.54725
0.546971
0.546532
0.546021
0.545508
0.545003
0.544525
0.5442
0.54392
0.543443
0.542929
0.542412
0.541907
0.541422
0.541054
0.540817
0.54037
0.539863
0.539351
0.538849
0.538365
0.53797
0.537722
0.537294
0.536795
0.536295
0.535803
0.535335
0.53497
0.534663
0.534215
0.533732
0.53325
0.53278
0.532351
0.532005
0.531606
0.53115
0.530685
0.530229
0.529799
0.529401
0.528991
0.528555
0.528111
0.527672
0.527245
0.526824
0.5264
0.525971
0.52554
0.52511
0.524684
0.524258
0.523832
0.523405
0.522978
0.522552
0.522126
0.521701
0.521276
0.520851
0.520426
0.520002
0.519578
0.519154
0.518731
0.518307
0.517884
0.517462
0.517039
0.516617
0.516195
0.515773
0.515352
0.514931
0.51451
0.51409
0.51367
0.51325
0.51283
0.512411
0.511992
0.511573
0.511154
0.510736
0.510318
0.5099
0.509483
0.509066
0.508649
0.508233
0.507816
0.507401
0.506985
0.50657
0.506155
0.50574
0.505325
0.504911
0.504497
0.504084
0.50367
0.503257
0.502845
0.502432
0.50202
0.501608
0.501197
0.500785
0.500374
0.499963
0.499552
0.499142
0.498731
0.498321
0.497911
0.497501
0.497091
0.496683
0.496274
0.495866
0.495459
0.495052
0.494646
0.49424
0.493834
0.493429
0.493024
0.49262
0.492216
0.491813
0.49141
0.491008
0.490606
0.490205
0.489805
0.489405
0.489005
0.488607
0.488208
0.487809
0.48741
0.487012
0.486613
0.486215
0.485816
0.485416
0.485016
0.484615
0.484214
0.483814
0.483413
0.483011
0.482609
0.482206
0.481803
0.481402
0.481002
0.480603
0.480203
0.479802
0.479401
0.479001
0.478604
0.47821
0.477816
0.477419
0.47702
0.47662
0.476223
0.47583
0.475441
0.475049
0.474653
0.474253
0.473853
0.473456
0.473066
0.472681
0.472291
0.471894
0.471494
0.471095
0.470699
0.470313
0.469934
0.469546
0.46915
0.46875
0.468352
0.467957
0.467573
0.467203
0.466819
0.466422
0.466022
0.465622
0.465228
0.46485
0.464492
0.464104
0.463704
0.463303
0.462904
0.462513
0.462155
0.461789
0.461393
0.460993
0.460594
0.460198
0.45982
0.459473
0.45909
0.458692
0.458294
0.457898
0.457508
0.457148
0.456792
0.456401
0.456006
0.45561
0.455217
0.454833
0.454486
0.454119
0.453728
0.453335
0.452942
0.452552
0.452175
0.451831
0.451458
0.451069
0.450679
0.45029
0.449903
0.44953
0.449185
0.448808
0.448422
0.448035
0.447649
0.447266
0.446898
0.446548
0.44617
0.445786
0.445402
0.44502
0.444641
0.444279
0.443923
0.443546
0.443166
0.442786
0.442407
0.442032
0.441675
0.441316
0.440941
0.440565
0.44019
0.439816
0.439448
0.439097
0.438734
0.438365
0.437995
0.437627
0.437263
0.436905
0.436561
0.436209
0.435856
0.435504
0.435153
0.434813
0.434481
0.434165
0.433869
0.433564
0.433263
0.43297
0.432683
0.432416
0.432169
0.431941
0.431735
0.431551
0.431392
0.431252
0.43114
0.431056
0.430991
0.430943
0.430907
0.430877
0.430851
0.430841
0.430841
0.430849
0.430865
0.430889
0.43091
0.430933
0.430965
0.430996
0.431026
0.431053
0.431073
0.431082
0.431105
0.431133
0.431162
0.431191
0.431218
0.431228
0.431257
0.431294
0.431328
0.431354
0.43137
0.431366
0.431329
0.431304
0.431273
0.431216
0.431147
0.43108
0.431015
0.430933
0.430872
0.430843
0.430824
0.430812
0.430808
0.430806
0.430802
0.430799
0.430795
0.430782
0.430735
0.430711
0.430716
0.430727
0.430742
0.430758
0.430774
0.430788
0.430786
0.430767
0.430783
0.430811
0.43084
0.430866
0.430887
0.4309
0.430887
0.430853
0.430847
0.430842
0.430823
0.43079
0.430752
0.430715
0.430674
0.430607
0.430551
0.430526
0.430509
0.430496
0.430487
0.430481
0.430476
0.430473
0.430468
0.430453
0.430404
0.430375
0.430373
0.430377
0.430384
0.430391
0.430391
0.430365
0.430362
0.430374
0.430391
0.43041
0.430431
0.430454
0.430475
0.430493
0.430505
0.4305
0.430462
0.430445
0.43044
0.430427
0.4304
0.430361
0.430302
0.43024
0.43021
0.430189
0.430173
0.43016
0.430145
0.430117
0.430076
0.430061
0.430054
0.43005
0.430047
0.430041
0.43002
0.429992
0.429989
0.429992
0.429998
0.430006
0.430012
0.430002
0.429984
0.429989
0.430001
0.430016
0.430031
0.430044
0.430038
0.430023
0.430029
0.430037
0.430043
0.430044
0.430036
0.429999
0.429945
0.429911
0.42988
0.429854
0.429831
0.429811
0.429777
0.429736
0.429721
0.429712
0.429705
0.429697
0.429688
0.429665
0.42963
0.429622
0.429621
0.429622
0.429624
0.429624
0.42961
0.429585
0.429586
0.429594
0.429605
0.429615
0.429622
0.429614
0.429596
0.429603
0.429616
0.429628
0.429636
0.429637
0.429614
0.42959
0.429581
0.429566
0.429545
0.429519
0.429479
0.429428
0.429403
0.429386
0.429374
0.429363
0.429348
0.42931
0.429287
0.42928
0.429276
0.429273
0.429271
0.429271
0.429272
0.429271
0.42926
0.429201
0.42915
0.429147
0.429152
0.429161
0.429171
0.429182
0.429194
0.429206
0.429218
0.429231
0.429243
0.429252
0.429255
0.429235
0.429191
0.429177
0.429166
0.42915
0.42913
0.429105
0.429058
0.429023
0.429006
0.428994
0.428984
0.428977
0.428969
0.428959
0.428937
0.428907
0.428879
0.428846
0.428829
0.428825
0.428825
0.428828
0.428833
0.428838
0.428843
0.428847
0.428849
0.428837
0.42878
0.428748
0.428752
0.428762
0.428773
0.428783
0.428793
0.428802
0.428811
0.428815
0.428817
0.428814
0.428805
0.42879
0.428772
0.428742
0.428663
0.428603
0.428586
0.428577
0.428569
0.428563
0.428559
0.428556
0.428554
0.428553
0.42855
0.428542
0.428506
0.428449
0.428437
0.428438
0.428442
0.428448
0.428453
0.428458
0.428463
0.428467
0.428471
0.428469
0.428434
0.428395
0.428394
0.4284
0.428405
0.428409
0.428412
0.428413
0.428413
0.428408
0.428398
0.428383
0.428358
0.428298
0.428242
0.428228
0.428222
0.428217
0.428212
0.428207
0.428203
0.428199
0.428192
0.42817
0.428142
0.428135
0.428131
0.428127
0.428117
0.428092
0.428082
0.428084
0.428088
0.428092
0.428093
0.428085
0.428059
0.428052
0.428056
0.428063
0.428068
0.428068
0.428051
0.428023
0.428015
0.42801
0.428005
0.427996
0.427976
0.427929
0.427901
0.427889
0.427882
0.427877
0.427874
0.427871
0.427868
0.427863
0.427851
0.42781
0.42772
0.427692
0.427689
0.42769
0.427691
0.427693
0.427694
0.427696
0.427698
0.4277
0.427695
0.427657
0.427629
0.427627
0.42763
0.427634
0.42764
0.427647
0.427653
0.427651
0.427628
0.427592
0.427582
0.427576
0.42757
0.427565
0.42756
0.427553
0.427544
0.427532
0.427508
0.427483
0.427477
0.427475
0.427474
0.427473
0.427471
0.427468
0.427464
0.427454
0.427414
0.427348
0.427335
0.427334
0.427335
0.427336
0.427337
0.42734
0.427342
0.427339
0.42731
0.427287
0.427286
0.427288
0.427292
0.427296
0.427301
0.427303
0.427301
0.427285
0.427235
0.427209
0.427199
0.427194
0.42719
0.427187
0.427184
0.42718
0.427174
0.427169
0.427166
0.427161
0.427141
0.427073
0.427032
0.427024
0.427021
0.42702
0.42702
0.427023
0.427028
0.427032
0.427035
0.427036
0.427036
0.427036
0.427035
0.427024
0.426969
0.426927
0.426924
0.426926
0.426928
0.426931
0.426934
0.426938
0.426947
0.426967
0.426968
0.426962
0.42696
0.426966
0.426998
0.427143
0.42777
0.430139
0.433718
0.435783
0.436466
0.436768
0.436919
0.436995
0.437005
0.436971
0.43688
0.43685
0.436851
0.436869
0.436909
0.436932
0.43693
0.436913
0.43689
0.43685
0.4368
0.43679
0.436791
0.436793
0.436792
0.436785
0.436782
0.436779
0.436774
0.436741
0.436722
0.436715
0.436708
0.436703
0.436703
0.436707
0.43671
0.436709
0.436693
0.436666
0.436654
0.436648
0.436646
0.436647
0.436659
0.436663
0.436657
0.436644
0.436618
0.436554
0.436487
0.436473
0.436471
0.436471
0.436477
0.436504
0.436546
0.436642
0.436941
0.437903
0.440194
0.442445
0.443659
0.444176
0.444439
0.444605
0.444724
0.444786
0.444795
0.444796
0.444795
0.444788
0.444746
0.444666
0.444643
0.444627
0.444615
0.444614
0.444641
0.444671
0.444681
0.444682
0.444647
0.444541
0.444501
0.444496
0.4445
0.444532
0.444655
0.444768
0.444784
0.444785
0.444783
0.444771
0.44471
0.444586
0.444553
0.444547
0.444546
0.444559
0.444589
0.444597
0.444598
0.444588
0.444529
0.444467
0.444457
0.444457
0.444462
0.444488
0.444576
0.444637
0.444648
)
;

boundaryField
{
    sides
    {
        type            calculated;
        value           nonuniform List<scalar> 2(0.444648 0.613657);
    }
    empty
    {
        type            empty;
    }
}


// ************************************************************************* //
