/*--------------------------------*- C++ -*----------------------------------*\
  =========                 |
  \\      /  F ield         | OpenFOAM: The Open Source CFD Toolbox
   \\    /   O peration     | Website:  https://openfoam.org
    \\  /    A nd           | Version:  9
     \\/     M anipulation  |
\*---------------------------------------------------------------------------*/
FoamFile
{
    format      ascii;
    class       surfaceScalarField;
    location    "0.035";
    object      phi;
}
// * * * * * * * * * * * * * * * * * * * * * * * * * * * * * * * * * * * * * //

dimensions      [1 0 -1 0 0 0 0];

internalField   nonuniform List<scalar> 
99
(
52.3189
56.0215
59.6864
63.3596
67.0027
70.6261
74.2279
77.813
81.3957
84.9627
88.5299
92.1027
95.6429
99.1578
102.678
106.176
109.618
113.031
116.454
119.858
123.201
126.484
129.747
133.029
136.283
139.476
142.626
145.751
148.87
152.03
155.166
158.273
161.343
164.412
167.498
170.615
173.721
176.824
179.896
182.94
185.973
188.945
191.91
195.106
198.151
200.958
203.639
206.252
208.94
211.671
214.466
217.326
219.968
222.342
224.86
227.632
230.406
233.022
235.878
239.002
241.999
244.856
247.978
251.218
254.27
257.057
260.016
263.339
266.702
269.932
272.792
275.847
279.339
282.869
286.344
289.786
293.204
296.668
300.35
303.754
306.328
307.239
304.705
295.224
271.454
246.69
241.962
272.168
298.616
308.312
310.999
313.963
319.672
325.277
331.06
337.259
344.934
354.001
359.872
)
;

boundaryField
{
    sides
    {
        type            calculated;
        value           nonuniform List<scalar> 2(364.353 -48.5943);
    }
    empty
    {
        type            empty;
        value           nonuniform List<scalar> 0();
    }
}


// ************************************************************************* //
