/*--------------------------------*- C++ -*----------------------------------*\
  =========                 |
  \\      /  F ield         | OpenFOAM: The Open Source CFD Toolbox
   \\    /   O peration     | Website:  https://openfoam.org
    \\  /    A nd           | Version:  9
     \\/     M anipulation  |
\*---------------------------------------------------------------------------*/
FoamFile
{
    format      ascii;
    class       surfaceScalarField;
    location    "0.017";
    object      phi;
}
// * * * * * * * * * * * * * * * * * * * * * * * * * * * * * * * * * * * * * //

dimensions      [1 0 -1 0 0 0 0];

internalField   nonuniform List<scalar> 
999
(
14.9053
17.2746
19.6447
22.0143
24.384
26.7536
29.123
31.4923
33.8615
36.2305
38.5993
40.968
43.3365
45.7048
48.0729
50.4408
52.8084
55.1759
57.543
59.91
62.2766
64.643
67.0091
69.3749
71.7404
74.1055
76.4703
78.8348
81.1989
83.5627
85.926
88.289
90.6516
93.0137
95.3754
97.7367
100.098
102.458
104.818
107.177
109.536
111.894
114.252
116.609
118.966
121.322
123.678
126.033
128.387
130.741
133.094
135.446
137.798
140.149
142.499
144.849
147.197
149.545
151.893
154.239
156.585
158.93
161.274
163.617
165.959
168.301
170.641
172.981
175.319
177.657
179.993
182.329
184.663
186.997
189.329
191.66
193.99
196.319
198.647
200.974
203.299
205.623
207.946
210.267
212.587
214.906
217.223
219.539
221.853
224.166
226.477
228.787
231.095
233.401
235.706
238.009
240.31
242.609
244.907
247.202
249.495
251.787
254.076
256.363
258.648
260.931
263.211
265.489
267.764
270.037
272.307
274.574
276.839
279.101
281.359
283.615
285.867
288.116
290.362
292.603
294.842
297.076
299.306
301.532
303.754
305.972
308.184
310.392
312.594
314.791
316.983
319.168
321.348
323.521
325.687
327.846
329.997
332.141
334.276
336.402
338.518
340.625
342.721
344.806
346.879
348.939
350.986
353.018
355.034
357.034
359.017
360.982
362.926
364.85
366.751
368.628
370.479
372.302
374.093
375.851
377.572
379.254
380.892
382.485
384.029
385.522
386.962
388.348
389.679
390.955
392.178
393.347
394.466
395.535
396.559
397.54
398.482
399.387
400.26
401.102
401.919
402.712
403.484
404.239
404.977
405.702
406.415
407.117
407.81
408.495
409.173
409.845
410.511
411.172
411.828
412.481
413.129
413.774
414.415
415.053
415.688
416.319
416.948
417.572
418.197
418.814
419.434
420.044
420.66
421.263
421.874
422.472
423.076
423.673
424.264
424.863
425.441
426.041
426.611
427.204
427.774
428.351
428.929
429.487
430.069
430.621
431.19
431.751
432.297
432.866
433.404
433.958
434.509
435.039
435.594
436.124
436.657
437.201
437.716
438.253
438.78
439.29
439.823
440.334
440.843
441.367
441.866
442.373
442.887
443.375
443.879
444.382
444.863
445.362
445.854
446.328
446.821
447.304
447.771
448.257
448.731
449.191
449.669
450.136
450.589
451.058
451.519
451.964
452.425
452.88
453.318
453.768
454.218
454.649
455.089
455.534
455.959
456.388
456.826
457.248
457.666
458.096
458.515
458.923
459.343
459.76
460.16
460.568
460.981
461.378
461.773
462.178
462.573
462.958
463.352
463.746
464.126
464.506
464.894
465.273
465.642
466.019
466.396
466.76
467.124
467.495
467.858
468.212
468.571
468.932
469.282
469.629
469.982
470.331
470.67
471.01
471.355
471.693
472.023
472.356
472.692
473.019
473.34
473.666
473.992
474.309
474.622
474.94
475.256
475.564
475.869
476.179
476.486
476.784
477.081
477.382
477.68
477.969
478.258
478.55
478.839
479.121
479.4
479.684
479.964
480.237
480.509
480.783
481.055
481.321
481.583
481.848
482.112
482.37
482.624
482.879
483.135
483.386
483.631
483.877
484.125
484.368
484.606
484.842
485.081
485.317
485.548
485.775
486.004
486.233
486.457
486.676
486.895
487.115
487.333
487.544
487.754
487.965
488.176
488.381
488.582
488.784
488.986
489.185
489.379
489.571
489.764
489.956
490.144
490.328
490.511
490.695
490.877
491.054
491.228
491.402
491.576
491.748
491.915
492.08
492.245
492.409
492.571
492.728
492.883
493.039
493.194
493.345
493.493
493.639
493.786
493.931
494.072
494.211
494.347
494.484
494.62
494.752
494.881
495.008
495.135
495.261
495.384
495.504
495.621
495.739
495.856
495.969
496.08
496.188
496.296
496.403
496.508
496.609
496.707
496.806
496.903
496.999
497.091
497.18
497.269
497.357
497.443
497.526
497.606
497.685
497.763
497.84
497.914
497.985
498.054
498.122
498.19
498.255
498.317
498.377
498.435
498.493
498.549
498.602
498.653
498.701
498.749
498.796
498.84
498.882
498.921
498.959
498.997
499.033
499.066
499.097
499.126
499.154
499.181
499.207
499.23
499.251
499.27
499.289
499.308
499.325
499.339
499.351
499.363
499.374
499.385
499.395
499.402
499.408
499.414
499.42
499.425
499.429
499.432
499.433
499.436
499.438
499.44
499.441
499.441
499.44
499.441
499.442
499.442
499.441
499.439
499.438
499.438
499.438
499.437
499.436
499.434
499.432
499.432
499.432
499.43
499.429
499.427
499.426
499.425
499.424
499.423
499.422
499.421
499.42
499.42
499.421
499.421
499.421
499.421
499.421
499.421
499.422
499.422
499.422
499.422
499.422
499.422
499.423
499.423
499.423
499.422
499.422
499.421
499.421
499.421
499.421
499.42
499.42
499.419
499.419
499.419
499.419
499.418
499.418
499.417
499.417
499.417
499.417
499.416
499.416
499.416
499.415
499.415
499.415
499.414
499.414
499.413
499.413
499.413
499.412
499.412
499.412
499.411
499.411
499.411
499.41
499.41
499.41
499.409
499.409
499.408
499.408
499.408
499.407
499.407
499.406
499.406
499.406
499.405
499.405
499.404
499.404
499.404
499.403
499.403
499.402
499.402
499.401
499.401
499.401
499.4
499.4
499.399
499.399
499.399
499.398
499.397
499.397
499.396
499.396
499.395
499.395
499.395
499.395
499.394
499.394
499.394
499.394
499.392
499.391
499.391
499.391
499.392
499.39
499.389
499.39
499.389
499.387
499.386
499.387
499.388
499.383
499.383
499.387
499.386
499.381
499.38
499.379
499.379
499.382
499.384
499.381
499.38
499.383
499.382
499.378
499.379
499.381
499.377
499.376
499.385
499.376
499.355
499.35
499.36
499.391
499.389
499.349
499.339
499.333
499.339
499.387
499.392
499.352
499.339
499.341
499.373
499.376
499.358
499.352
499.355
499.365
499.361
499.353
499.353
499.359
499.357
499.353
499.355
499.357
499.352
499.347
499.354
499.353
499.344
499.344
499.354
499.345
499.329
499.345
499.357
499.34
499.321
499.332
499.348
499.345
499.327
499.325
499.342
499.34
499.323
499.32
499.338
499.336
499.317
499.312
499.321
499.314
499.31
499.338
499.337
499.314
499.3
499.297
499.29
499.284
499.332
499.333
499.307
499.283
499.281
499.279
499.261
499.298
499.313
499.285
499.274
499.34
499.317
499.221
499.29
499.392
499.275
499.14
499.295
499.42
499.321
499.135
499.2
499.389
499.372
499.137
499.118
499.379
499.414
499.225
499.08
499.222
499.386
499.393
499.166
499.089
499.263
499.316
499.259
499.133
499.175
499.252
499.223
499.184
499.203
499.065
498.968
499.309
499.37
499.25
499.007
499.094
499.31
499.274
499.011
499.005
499.285
499.291
499.047
498.87
499.353
499.57
499.32
498.437
498.266
498.988
499.096
499.021
498.733
499.001
499.439
499.413
498.644
498.419
498.834
498.87
498.616
498.748
499.19
499.001
498.468
498.828
499.292
498.844
498.196
499.039
499.49
498.582
497.695
499.303
499.982
498.609
497.092
498.618
500.316
500.333
497.621
496.821
499.02
499.797
499.69
497.494
496.941
498.941
499.092
498.457
497.536
497.367
496.649
495.659
498.793
499.416
498.672
496.091
496.535
498.549
497.819
495.632
497.686
499.988
497.817
493.744
497.827
503.069
501.57
492.188
490.987
503.351
505.713
506.91
501.126
491.871
490.518
501.337
503.021
503.592
499.839
492.561
492.545
499.817
500.232
498.349
492.787
493.567
499.088
498.775
495.41
492.235
493.269
493.647
490.995
491.27
496.627
495.87
492.919
491.531
495.305
494.19
490.065
492.451
497.494
496.333
490.519
490.307
499.009
498.713
493.438
487.287
496.124
499.453
498.09
490.461
486.715
495.841
495.805
493.62
488.707
488.599
491.713
489.215
487.986
490.949
488.338
484.042
493.104
493.235
490.609
486.093
489.9
490.246
486.366
485.08
492.457
491.056
487.216
484.15
492.056
491.063
487.86
483.136
491.123
491.451
489.147
484.204
485.821
490.771
489.064
484.893
484.541
489.722
488.178
483.938
485.285
489.967
488.68
484.864
483.39
489.848
489.33
486.926
482.513
487.351
489.924
489.018
484.975
481.966
489.199
489.716
488.608
483.63
482.667
487.633
487.221
485.123
483.172
485.845
484.9
481.246
485.442
490.736
490.975
486.909
481.901
482.7
485.81
484.447
481.097
483.699
486.908
484.656
480.337
484.219
488.928
487.341
480.633
480.565
487.392
488.291
481.344
479.193
489.302
490.543
480.901
473.915
464.413
452.629
433.948
402.124
382.956
384.824
377.152
363.803
338.425
328.36
329.854
333.327
331.769
318.143
307.29
306.655
311.503
)
;

boundaryField
{
    sides
    {
        type            calculated;
        value           nonuniform List<scalar> 2(308.984 -12.5359);
    }
    empty
    {
        type            empty;
        value           nonuniform List<scalar> 0();
    }
}


// ************************************************************************* //
