/*--------------------------------*- C++ -*----------------------------------*\
  =========                 |
  \\      /  F ield         | OpenFOAM: The Open Source CFD Toolbox
   \\    /   O peration     | Website:  https://openfoam.org
    \\  /    A nd           | Version:  9
     \\/     M anipulation  |
\*---------------------------------------------------------------------------*/
FoamFile
{
    format      ascii;
    class       volScalarField;
    location    "0.017";
    object      T;
}
// * * * * * * * * * * * * * * * * * * * * * * * * * * * * * * * * * * * * * //

dimensions      [0 0 0 1 0 0 0];

internalField   nonuniform List<scalar> 
1000
(
299.574
299.57
299.56
299.548
299.533
299.519
299.506
299.492
299.478
299.464
299.45
299.436
299.422
299.408
299.394
299.379
299.365
299.35
299.336
299.321
299.306
299.291
299.276
299.261
299.246
299.23
299.215
299.199
299.183
299.168
299.152
299.136
299.12
299.103
299.087
299.071
299.054
299.038
299.021
299.004
298.987
298.97
298.953
298.935
298.918
298.9
298.883
298.865
298.847
298.829
298.811
298.793
298.774
298.756
298.737
298.718
298.699
298.68
298.661
298.642
298.622
298.603
298.583
298.564
298.544
298.524
298.503
298.483
298.462
298.442
298.421
298.4
298.379
298.358
298.337
298.315
298.294
298.272
298.25
298.228
298.205
298.183
298.16
298.138
298.115
298.092
298.069
298.045
298.022
297.998
297.974
297.95
297.925
297.901
297.876
297.851
297.826
297.801
297.775
297.75
297.724
297.698
297.671
297.645
297.618
297.591
297.564
297.536
297.508
297.48
297.452
297.424
297.395
297.366
297.336
297.306
297.276
297.246
297.215
297.184
297.153
297.121
297.089
297.057
297.024
296.991
296.957
296.923
296.888
296.853
296.817
296.781
296.745
296.707
296.669
296.631
296.592
296.552
296.511
296.47
296.428
296.385
296.341
296.296
296.25
296.203
296.154
296.105
296.054
296.002
295.948
295.893
295.836
295.777
295.717
295.654
295.589
295.522
295.452
295.38
295.304
295.225
295.142
295.056
294.965
294.87
294.77
294.666
294.557
294.443
294.325
294.202
294.074
293.942
293.806
293.667
293.523
293.377
293.228
293.076
292.923
292.767
292.609
292.45
292.29
292.129
291.967
291.804
291.641
291.477
291.313
291.148
290.983
290.818
290.653
290.488
290.323
290.158
289.993
289.827
289.663
289.496
289.333
289.164
289.005
288.831
288.678
288.497
288.354
288.16
288.032
287.823
287.709
287.489
287.38
287.164
287.041
286.849
286.694
286.539
286.349
286.22
286.019
285.884
285.707
285.536
285.395
285.199
285.064
284.886
284.717
284.574
284.383
284.24
284.073
283.893
283.756
283.569
283.414
283.262
283.076
282.932
282.764
282.589
282.445
282.27
282.102
281.958
281.776
281.618
281.467
281.286
281.133
280.977
280.797
280.647
280.487
280.311
280.16
280
279.823
279.674
279.512
279.338
279.186
279.027
278.852
278.7
278.541
278.367
278.212
278.057
277.884
277.725
277.573
277.401
277.239
277.088
276.92
276.753
276.603
276.439
276.27
276.117
275.958
275.788
275.631
275.477
275.309
275.146
274.994
274.831
274.664
274.509
274.352
274.184
274.025
273.871
273.708
273.543
273.388
273.231
273.065
272.905
272.752
272.589
272.425
272.269
272.114
271.949
271.788
271.634
271.475
271.311
271.153
270.999
270.838
270.675
270.519
270.364
270.202
270.041
269.886
269.729
269.567
269.408
269.254
269.096
268.934
268.776
268.622
268.464
268.303
268.145
267.991
267.833
267.673
267.516
267.362
267.204
267.044
266.887
266.734
266.576
266.417
266.26
266.107
265.95
265.791
265.635
265.481
265.325
265.167
265.01
264.857
264.702
264.545
264.388
264.234
264.08
263.924
263.767
263.613
263.46
263.305
263.148
262.993
262.841
262.688
262.532
262.376
262.224
262.072
261.917
261.762
261.609
261.457
261.305
261.15
260.996
260.845
260.694
260.54
260.387
260.235
260.084
259.933
259.78
259.628
259.478
259.328
259.177
259.025
258.874
258.725
258.576
258.425
258.274
258.125
257.977
257.829
257.679
257.529
257.382
257.235
257.088
256.939
256.791
256.645
256.499
256.353
256.206
256.06
255.915
255.772
255.627
255.482
255.337
255.195
255.053
254.91
254.767
254.625
254.484
254.344
254.204
254.064
253.924
253.785
253.648
253.511
253.374
253.237
253.101
252.967
252.834
252.7
252.567
252.435
252.305
252.175
252.046
251.917
251.789
251.663
251.539
251.415
251.291
251.169
251.049
250.93
250.813
250.696
250.58
250.467
250.355
250.246
250.137
250.029
249.924
249.821
249.72
249.622
249.524
249.428
249.336
249.246
249.158
249.072
248.988
248.907
248.829
248.754
248.682
248.611
248.543
248.478
248.417
248.358
248.302
248.249
248.197
248.15
248.105
248.063
248.024
247.987
247.952
247.92
247.892
247.865
247.84
247.817
247.796
247.778
247.762
247.746
247.732
247.72
247.709
247.699
247.691
247.684
247.676
247.67
247.664
247.66
247.656
247.652
247.648
247.645
247.643
247.64
247.639
247.637
247.635
247.634
247.634
247.635
247.635
247.636
247.637
247.64
247.645
247.651
247.658
247.664
247.668
247.672
247.675
247.677
247.678
247.678
247.678
247.678
247.678
247.677
247.675
247.672
247.669
247.666
247.663
247.661
247.659
247.658
247.657
247.656
247.656
247.657
247.657
247.657
247.657
247.658
247.658
247.659
247.659
247.66
247.66
247.66
247.66
247.66
247.661
247.661
247.661
247.661
247.661
247.661
247.661
247.661
247.661
247.661
247.661
247.661
247.661
247.661
247.661
247.662
247.662
247.662
247.662
247.662
247.662
247.662
247.663
247.663
247.663
247.663
247.663
247.663
247.663
247.664
247.664
247.664
247.664
247.664
247.665
247.665
247.665
247.665
247.665
247.665
247.666
247.666
247.666
247.666
247.666
247.667
247.667
247.667
247.667
247.667
247.668
247.668
247.668
247.668
247.668
247.669
247.669
247.669
247.669
247.67
247.67
247.67
247.67
247.671
247.671
247.671
247.671
247.671
247.672
247.672
247.672
247.672
247.673
247.673
247.673
247.673
247.674
247.674
247.674
247.674
247.674
247.675
247.675
247.675
247.676
247.676
247.676
247.676
247.677
247.677
247.677
247.678
247.678
247.678
247.677
247.677
247.679
247.68
247.68
247.678
247.678
247.678
247.68
247.682
247.682
247.68
247.68
247.681
247.683
247.683
247.683
247.683
247.684
247.684
247.684
247.684
247.685
247.685
247.686
247.686
247.687
247.687
247.687
247.688
247.688
247.688
247.689
247.689
247.69
247.69
247.69
247.692
247.692
247.692
247.692
247.693
247.694
247.694
247.694
247.695
247.696
247.696
247.696
247.697
247.698
247.698
247.698
247.699
247.7
247.7
247.701
247.703
247.703
247.703
247.703
247.704
247.704
247.705
247.707
247.708
247.707
247.707
247.708
247.708
247.709
247.712
247.712
247.712
247.714
247.717
247.715
247.713
247.72
247.722
247.715
247.714
247.725
247.729
247.721
247.717
247.726
247.733
247.729
247.722
247.727
247.738
247.739
247.729
247.728
247.74
247.745
247.744
247.736
247.737
247.747
247.749
247.746
247.744
247.75
247.753
247.753
247.754
247.755
247.749
247.753
247.77
247.773
247.765
247.76
247.773
247.78
247.777
247.77
247.779
247.79
247.791
247.78
247.783
247.811
247.82
247.795
247.77
247.777
247.812
247.818
247.815
247.81
247.838
247.854
247.848
247.821
247.824
247.847
247.848
247.843
247.868
247.883
247.871
247.863
247.899
247.913
247.887
247.885
247.941
247.951
247.901
247.902
247.996
248.01
247.924
247.906
248.029
248.082
248.057
247.957
247.969
248.09
248.123
248.103
248.028
248.054
248.143
248.155
248.126
248.117
248.126
248.09
248.116
248.271
248.304
248.242
248.184
248.284
248.348
248.296
248.267
248.447
248.51
248.353
248.295
248.644
248.8
248.582
248.291
248.496
249.001
249.135
249.191
248.748
248.525
248.706
249.158
249.271
249.323
249.042
248.878
249.113
249.389
249.444
249.313
249.196
249.45
249.648
249.658
249.533
249.519
249.675
249.705
249.653
249.908
250.11
250.122
250.061
250.206
250.379
250.361
250.306
250.669
250.85
250.825
250.686
251.021
251.35
251.378
251.161
251.187
251.761
251.91
251.877
251.656
251.814
252.264
252.336
252.317
252.259
252.534
252.682
252.676
252.906
253.079
253.048
253.19
253.701
253.792
253.787
253.819
254.2
254.275
254.227
254.58
254.91
254.958
254.907
255.158
255.547
255.611
255.575
255.684
256.174
256.272
256.277
256.235
256.651
256.857
256.876
256.822
257.138
257.355
257.365
257.323
257.691
257.883
257.906
257.835
258.08
258.357
258.406
258.345
258.349
258.737
258.857
258.875
258.752
258.87
259.229
259.305
259.281
259.17
259.35
259.567
259.601
259.565
259.629
259.803
259.795
259.771
260.199
260.402
260.463
260.294
260.243
260.447
260.598
260.622
260.623
260.867
261.026
260.982
260.986
261.404
261.601
261.469
261.356
261.637
261.882
261.844
261.655
261.873
262.453
262.841
263.753
268.144
279.525
292.401
304.783
317.075
329.948
342.641
354.3
363.682
371.759
379.786
388.388
394.716
399.991
402.635
406.049
408.437
413.165
)
;

boundaryField
{
    sides
    {
        type            zeroGradient;
    }
    empty
    {
        type            empty;
    }
}


// ************************************************************************* //
