/*--------------------------------*- C++ -*----------------------------------*\
  =========                 |
  \\      /  F ield         | OpenFOAM: The Open Source CFD Toolbox
   \\    /   O peration     | Website:  https://openfoam.org
    \\  /    A nd           | Version:  9
     \\/     M anipulation  |
\*---------------------------------------------------------------------------*/
FoamFile
{
    format      ascii;
    class       volScalarField;
    location    "0.044";
    object      ddt0(rho,e);
}
// * * * * * * * * * * * * * * * * * * * * * * * * * * * * * * * * * * * * * //

dimensions      [1 -1 -3 0 0 0 0];

internalField   nonuniform List<scalar> 
100
(
514179
513854
507868
504469
502923
496706
491421
491972
491094
483783
477540
472416
466632
459740
452301
446707
445723
444017
441653
443397
450458
454049
456688
450290
444807
450864
455549
457994
452180
433183
406014
396472
407426
398557
405307
418923
414938
405701
404978
412218
421963
427114
424181
411629
397125
393136
401521
412412
413737
403604
389898
381905
384062
392285
399270
400278
393970
383563
377319
381906
394632
406527
409686
402523
390500
383357
388709
403727
416400
421581
413185
396087
385861
397838
428814
465280
486306
478893
443250
409949
398745
420981
463005
498257
497044
471576
445082
436444
458523
494181
522958
553582
534593
492249
474716
478204
458784
464992
459186
477916
)
;

boundaryField
{
    sides
    {
        type            calculated;
        value           nonuniform List<scalar> 2(477916 514179);
    }
    empty
    {
        type            empty;
    }
}


// ************************************************************************* //
