/*--------------------------------*- C++ -*----------------------------------*\
  =========                 |
  \\      /  F ield         | OpenFOAM: The Open Source CFD Toolbox
   \\    /   O peration     | Website:  https://openfoam.org
    \\  /    A nd           | Version:  9
     \\/     M anipulation  |
\*---------------------------------------------------------------------------*/
FoamFile
{
    format      ascii;
    class       volVectorField;
    location    "0.044";
    object      U_0;
}
// * * * * * * * * * * * * * * * * * * * * * * * * * * * * * * * * * * * * * //

dimensions      [0 1 -1 0 0 0 0];

internalField   nonuniform List<vector> 
100
(
(50.9142 0 0)
(52.656 0 0)
(55.648 0 0)
(58.3435 0 0)
(60.4694 0 0)
(62.5432 0 0)
(64.6636 0 0)
(66.7944 0 0)
(68.9052 0 0)
(70.992 0 0)
(73.0677 0 0)
(75.1307 0 0)
(77.1753 0 0)
(79.204 0 0)
(81.2158 0 0)
(83.2136 0 0)
(85.1975 0 0)
(87.1645 0 0)
(89.1161 0 0)
(91.0537 0 0)
(92.9773 0 0)
(94.8746 0 0)
(96.7428 0 0)
(98.6069 0 0)
(100.484 0 0)
(102.371 0 0)
(104.254 0 0)
(106.115 0 0)
(107.927 0 0)
(109.648 0 0)
(111.216 0 0)
(112.662 0 0)
(114.083 0 0)
(115.472 0 0)
(116.855 0 0)
(118.295 0 0)
(119.773 0 0)
(121.251 0 0)
(122.731 0 0)
(124.209 0 0)
(125.683 0 0)
(127.145 0 0)
(128.582 0 0)
(129.992 0 0)
(131.377 0 0)
(132.731 0 0)
(134.054 0 0)
(135.348 0 0)
(136.617 0 0)
(137.857 0 0)
(139.066 0 0)
(140.244 0 0)
(141.393 0 0)
(142.516 0 0)
(143.617 0 0)
(144.7 0 0)
(145.768 0 0)
(146.826 0 0)
(147.877 0 0)
(148.922 0 0)
(149.962 0 0)
(150.992 0 0)
(152.014 0 0)
(153.031 0 0)
(154.05 0 0)
(155.075 0 0)
(156.109 0 0)
(157.145 0 0)
(158.177 0 0)
(159.204 0 0)
(160.226 0 0)
(161.253 0 0)
(162.295 0 0)
(163.361 0 0)
(164.45 0 0)
(165.555 0 0)
(166.668 0 0)
(167.783 0 0)
(168.901 0 0)
(170.032 0 0)
(171.176 0 0)
(172.333 0 0)
(173.499 0 0)
(174.672 0 0)
(175.857 0 0)
(177.077 0 0)
(178.358 0 0)
(179.722 0 0)
(181.179 0 0)
(182.724 0 0)
(184.349 0 0)
(186.048 0 0)
(187.797 0 0)
(189.579 0 0)
(191.355 0 0)
(193.06 0 0)
(194.627 0 0)
(196.027 0 0)
(197.208 0 0)
(199.249 0 0)
)
;

boundaryField
{
    sides
    {
        type            zeroGradient;
    }
    empty
    {
        type            empty;
    }
}


// ************************************************************************* //
