/*--------------------------------*- C++ -*----------------------------------*\
  =========                 |
  \\      /  F ield         | OpenFOAM: The Open Source CFD Toolbox
   \\    /   O peration     | Website:  https://openfoam.org
    \\  /    A nd           | Version:  9
     \\/     M anipulation  |
\*---------------------------------------------------------------------------*/
FoamFile
{
    format      ascii;
    class       volScalarField;
    location    "0.014";
    object      ddt0(rho);
}
// * * * * * * * * * * * * * * * * * * * * * * * * * * * * * * * * * * * * * //

dimensions      [1 -3 -1 0 0 0 0];

internalField   nonuniform List<scalar> 
10000
(
-106.216
-106.23
-106.233
-106.234
-106.233
-106.232
-106.232
-106.231
-106.23
-106.23
-106.229
-106.228
-106.227
-106.226
-106.224
-106.223
-106.222
-106.221
-106.219
-106.218
-106.216
-106.214
-106.213
-106.211
-106.209
-106.207
-106.205
-106.203
-106.201
-106.199
-106.197
-106.194
-106.192
-106.19
-106.187
-106.184
-106.182
-106.179
-106.176
-106.173
-106.17
-106.167
-106.164
-106.161
-106.158
-106.155
-106.151
-106.148
-106.144
-106.141
-106.137
-106.133
-106.129
-106.125
-106.121
-106.117
-106.113
-106.109
-106.105
-106.1
-106.096
-106.091
-106.087
-106.082
-106.077
-106.072
-106.068
-106.063
-106.057
-106.052
-106.047
-106.042
-106.036
-106.031
-106.025
-106.02
-106.014
-106.008
-106.002
-105.996
-105.99
-105.984
-105.978
-105.971
-105.965
-105.958
-105.952
-105.945
-105.938
-105.931
-105.924
-105.917
-105.91
-105.902
-105.895
-105.887
-105.88
-105.872
-105.864
-105.856
-105.848
-105.84
-105.832
-105.824
-105.815
-105.807
-105.798
-105.789
-105.78
-105.771
-105.762
-105.752
-105.743
-105.733
-105.724
-105.714
-105.704
-105.694
-105.683
-105.673
-105.662
-105.652
-105.641
-105.63
-105.618
-105.607
-105.595
-105.584
-105.572
-105.56
-105.547
-105.535
-105.522
-105.509
-105.496
-105.483
-105.469
-105.455
-105.441
-105.427
-105.412
-105.398
-105.383
-105.367
-105.352
-105.336
-105.32
-105.303
-105.286
-105.269
-105.252
-105.234
-105.215
-105.197
-105.178
-105.158
-105.139
-105.118
-105.098
-105.076
-105.055
-105.033
-105.01
-104.987
-104.963
-104.938
-104.913
-104.888
-104.861
-104.835
-104.807
-104.778
-104.749
-104.719
-104.688
-104.657
-104.624
-104.591
-104.556
-104.521
-104.484
-104.446
-104.407
-104.367
-104.326
-104.283
-104.239
-104.194
-104.146
-104.098
-104.047
-103.995
-103.942
-103.886
-103.828
-103.768
-103.706
-103.641
-103.575
-103.505
-103.433
-103.358
-103.28
-103.199
-103.115
-103.027
-102.936
-102.84
-102.741
-102.637
-102.529
-102.416
-102.298
-102.175
-102.046
-101.912
-101.77
-101.623
-101.468
-101.306
-101.136
-100.957
-100.77
-100.574
-100.367
-100.15
-99.9221
-99.6821
-99.4297
-99.1641
-98.8844
-98.5899
-98.2797
-97.9529
-97.6086
-97.2458
-96.8635
-96.4607
-96.0363
-95.5892
-95.1185
-94.623
-94.1016
-93.5535
-92.9776
-92.3731
-91.739
-91.0748
-90.3797
-89.6534
-88.8955
-88.106
-87.2847
-86.4322
-85.5489
-84.6356
-83.6934
-82.7236
-81.7278
-80.7081
-79.6665
-78.6057
-77.5283
-76.4373
-75.3359
-74.2276
-73.1158
-72.0043
-70.8967
-69.7968
-68.7082
-67.6347
-66.5797
-65.5465
-64.5383
-63.558
-62.6083
-61.6914
-60.8094
-59.9638
-59.1562
-58.3874
-57.658
-56.9685
-56.3187
-55.7085
-55.1373
-54.6043
-54.1084
-53.6485
-53.2232
-52.831
-52.4703
-52.1394
-51.8367
-51.5604
-51.3088
-51.0801
-50.8727
-50.6849
-50.5151
-50.3617
-50.2234
-50.0988
-49.9866
-49.8855
-49.7944
-49.7124
-49.6385
-49.5717
-49.5113
-49.4566
-49.4069
-49.3616
-49.3202
-49.2822
-49.2471
-49.2147
-49.1845
-49.1563
-49.1297
-49.1047
-49.0809
-49.0582
-49.0365
-49.0155
-48.9952
-48.9756
-48.9564
-48.9377
-48.9193
-48.9012
-48.8834
-48.8658
-48.8484
-48.8311
-48.814
-48.797
-48.78
-48.7632
-48.7464
-48.7297
-48.713
-48.6964
-48.6797
-48.6632
-48.6466
-48.6301
-48.6135
-48.597
-48.5805
-48.564
-48.5475
-48.5311
-48.5146
-48.4981
-48.4817
-48.4652
-48.4488
-48.4323
-48.4159
-48.3994
-48.383
-48.3665
-48.3501
-48.3337
-48.3172
-48.3008
-48.2844
-48.268
-48.2516
-48.2351
-48.2187
-48.2023
-48.1859
-48.1695
-48.1531
-48.1367
-48.1203
-48.1039
-48.0875
-48.0711
-48.0547
-48.0383
-48.0219
-48.0055
-47.9892
-47.9728
-47.9564
-47.94
-47.9236
-47.9073
-47.8909
-47.8745
-47.8582
-47.8418
-47.8255
-47.8091
-47.7927
-47.7764
-47.76
-47.7437
-47.7273
-47.711
-47.6947
-47.6783
-47.662
-47.6457
-47.6293
-47.613
-47.5967
-47.5803
-47.564
-47.5477
-47.5314
-47.5151
-47.4988
-47.4825
-47.4661
-47.4498
-47.4335
-47.4172
-47.4009
-47.3846
-47.3684
-47.3521
-47.3358
-47.3195
-47.3032
-47.2869
-47.2707
-47.2544
-47.2381
-47.2218
-47.2056
-47.1893
-47.173
-47.1568
-47.1405
-47.1243
-47.108
-47.0918
-47.0755
-47.0593
-47.043
-47.0268
-47.0105
-46.9943
-46.9781
-46.9619
-46.9456
-46.9294
-46.9132
-46.897
-46.8807
-46.8645
-46.8483
-46.8321
-46.8159
-46.7997
-46.7835
-46.7673
-46.7511
-46.7349
-46.7187
-46.7025
-46.6863
-46.6701
-46.654
-46.6378
-46.6216
-46.6054
-46.5893
-46.5731
-46.5569
-46.5408
-46.5246
-46.5085
-46.4923
-46.4761
-46.46
-46.4439
-46.4277
-46.4116
-46.3954
-46.3793
-46.3632
-46.347
-46.3309
-46.3148
-46.2986
-46.2825
-46.2664
-46.2503
-46.2342
-46.2181
-46.202
-46.1859
-46.1698
-46.1537
-46.1376
-46.1215
-46.1054
-46.0893
-46.0732
-46.0571
-46.041
-46.025
-46.0089
-45.9928
-45.9767
-45.9607
-45.9446
-45.9285
-45.9125
-45.8964
-45.8804
-45.8643
-45.8483
-45.8322
-45.8162
-45.8001
-45.7841
-45.7681
-45.752
-45.736
-45.72
-45.704
-45.6879
-45.6719
-45.6559
-45.6399
-45.6239
-45.6079
-45.5919
-45.5759
-45.5599
-45.5439
-45.5279
-45.5119
-45.4959
-45.4799
-45.4639
-45.4479
-45.432
-45.416
-45.4
-45.3841
-45.3681
-45.3521
-45.3362
-45.3202
-45.3043
-45.2883
-45.2723
-45.2564
-45.2405
-45.2245
-45.2086
-45.1926
-45.1767
-45.1608
-45.1449
-45.1289
-45.113
-45.0971
-45.0812
-45.0653
-45.0493
-45.0334
-45.0175
-45.0016
-44.9857
-44.9698
-44.9539
-44.938
-44.9222
-44.9063
-44.8904
-44.8745
-44.8586
-44.8428
-44.8269
-44.811
-44.7952
-44.7793
-44.7634
-44.7476
-44.7317
-44.7159
-44.7
-44.6842
-44.6683
-44.6525
-44.6366
-44.6208
-44.605
-44.5891
-44.5733
-44.5575
-44.5417
-44.5259
-44.51
-44.4942
-44.4784
-44.4626
-44.4468
-44.431
-44.4152
-44.3994
-44.3836
-44.3678
-44.352
-44.3363
-44.3205
-44.3047
-44.2889
-44.2732
-44.2574
-44.2416
-44.2259
-44.2101
-44.1943
-44.1786
-44.1628
-44.1471
-44.1313
-44.1156
-44.0998
-44.0841
-44.0684
-44.0526
-44.0369
-44.0212
-44.0055
-43.9897
-43.974
-43.9583
-43.9426
-43.9269
-43.9112
-43.8955
-43.8798
-43.8641
-43.8484
-43.8327
-43.817
-43.8013
-43.7856
-43.7699
-43.7543
-43.7386
-43.7229
-43.7072
-43.6916
-43.6759
-43.6602
-43.6446
-43.6289
-43.6133
-43.5976
-43.582
-43.5663
-43.5507
-43.5351
-43.5194
-43.5038
-43.4882
-43.4725
-43.4569
-43.4413
-43.4257
-43.4101
-43.3944
-43.3788
-43.3632
-43.3476
-43.332
-43.3164
-43.3008
-43.2852
-43.2697
-43.2541
-43.2385
-43.2229
-43.2073
-43.1918
-43.1762
-43.1606
-43.145
-43.1295
-43.1139
-43.0984
-43.0828
-43.0673
-43.0517
-43.0362
-43.0206
-43.0051
-42.9895
-42.974
-42.9585
-42.943
-42.9274
-42.9119
-42.8964
-42.8809
-42.8654
-42.8498
-42.8343
-42.8188
-42.8033
-42.7878
-42.7723
-42.7568
-42.7413
-42.7259
-42.7104
-42.6949
-42.6794
-42.6639
-42.6485
-42.633
-42.6175
-42.6021
-42.5866
-42.5711
-42.5557
-42.5402
-42.5248
-42.5093
-42.4939
-42.4785
-42.463
-42.4476
-42.4322
-42.4167
-42.4013
-42.3859
-42.3705
-42.355
-42.3396
-42.3242
-42.3088
-42.2934
-42.278
-42.2626
-42.2472
-42.2318
-42.2164
-42.201
-42.1856
-42.1703
-42.1549
-42.1395
-42.1241
-42.1088
-42.0934
-42.078
-42.0627
-42.0473
-42.0319
-42.0166
-42.0012
-41.9859
-41.9705
-41.9552
-41.9399
-41.9245
-41.9092
-41.8939
-41.8785
-41.8632
-41.8479
-41.8326
-41.8173
-41.802
-41.7866
-41.7713
-41.756
-41.7407
-41.7254
-41.7101
-41.6948
-41.6796
-41.6643
-41.649
-41.6337
-41.6184
-41.6032
-41.5879
-41.5726
-41.5574
-41.5421
-41.5268
-41.5116
-41.4963
-41.4811
-41.4658
-41.4506
-41.4353
-41.4201
-41.4049
-41.3896
-41.3744
-41.3592
-41.3439
-41.3287
-41.3135
-41.2983
-41.2831
-41.2679
-41.2527
-41.2375
-41.2223
-41.2071
-41.1919
-41.1767
-41.1615
-41.1463
-41.1311
-41.1159
-41.1008
-41.0856
-41.0704
-41.0552
-41.0401
-41.0249
-41.0098
-40.9946
-40.9794
-40.9643
-40.9492
-40.934
-40.9189
-40.9037
-40.8886
-40.8735
-40.8583
-40.8432
-40.8281
-40.813
-40.7978
-40.7827
-40.7676
-40.7525
-40.7374
-40.7223
-40.7072
-40.6921
-40.677
-40.6619
-40.6468
-40.6317
-40.6166
-40.6016
-40.5865
-40.5714
-40.5563
-40.5413
-40.5262
-40.5111
-40.4961
-40.481
-40.466
-40.4509
-40.4359
-40.4208
-40.4058
-40.3907
-40.3757
-40.3607
-40.3456
-40.3306
-40.3156
-40.3006
-40.2856
-40.2705
-40.2555
-40.2405
-40.2255
-40.2105
-40.1955
-40.1805
-40.1655
-40.1505
-40.1355
-40.1206
-40.1056
-40.0906
-40.0756
-40.0606
-40.0457
-40.0307
-40.0157
-40.0008
-39.9858
-39.9709
-39.9559
-39.9409
-39.926
-39.9111
-39.8961
-39.8812
-39.8662
-39.8513
-39.8364
-39.8215
-39.8065
-39.7916
-39.7767
-39.7618
-39.7469
-39.7319
-39.717
-39.7021
-39.6872
-39.6723
-39.6574
-39.6426
-39.6277
-39.6128
-39.5979
-39.583
-39.5681
-39.5533
-39.5384
-39.5235
-39.5087
-39.4938
-39.4789
-39.4641
-39.4492
-39.4344
-39.4195
-39.4047
-39.3898
-39.375
-39.3602
-39.3453
-39.3305
-39.3157
-39.3009
-39.286
-39.2712
-39.2564
-39.2416
-39.2268
-39.212
-39.1972
-39.1824
-39.1676
-39.1528
-39.138
-39.1232
-39.1084
-39.0936
-39.0788
-39.0641
-39.0493
-39.0345
-39.0198
-39.005
-38.9902
-38.9755
-38.9607
-38.946
-38.9312
-38.9165
-38.9017
-38.887
-38.8722
-38.8575
-38.8428
-38.828
-38.8133
-38.7986
-38.7839
-38.7691
-38.7544
-38.7397
-38.725
-38.7103
-38.6956
-38.6809
-38.6662
-38.6515
-38.6368
-38.6221
-38.6074
-38.5928
-38.5781
-38.5634
-38.5487
-38.5341
-38.5194
-38.5047
-38.4901
-38.4754
-38.4607
-38.4461
-38.4314
-38.4168
-38.4022
-38.3875
-38.3729
-38.3582
-38.3436
-38.329
-38.3143
-38.2997
-38.2851
-38.2705
-38.2559
-38.2413
-38.2266
-38.212
-38.1974
-38.1828
-38.1682
-38.1536
-38.139
-38.1245
-38.1099
-38.0953
-38.0807
-38.0661
-38.0516
-38.037
-38.0224
-38.0079
-37.9933
-37.9787
-37.9642
-37.9496
-37.9351
-37.9205
-37.906
-37.8914
-37.8769
-37.8624
-37.8478
-37.8333
-37.8188
-37.8042
-37.7897
-37.7752
-37.7607
-37.7462
-37.7317
-37.7172
-37.7027
-37.6882
-37.6737
-37.6592
-37.6447
-37.6302
-37.6157
-37.6012
-37.5867
-37.5723
-37.5578
-37.5433
-37.5288
-37.5144
-37.4999
-37.4854
-37.471
-37.4565
-37.4421
-37.4276
-37.4132
-37.3987
-37.3843
-37.3699
-37.3554
-37.341
-37.3266
-37.3122
-37.2977
-37.2833
-37.2689
-37.2545
-37.2401
-37.2257
-37.2113
-37.1969
-37.1825
-37.1681
-37.1537
-37.1393
-37.1249
-37.1105
-37.0961
-37.0818
-37.0674
-37.053
-37.0386
-37.0243
-37.0099
-36.9955
-36.9812
-36.9668
-36.9525
-36.9381
-36.9238
-36.9094
-36.8951
-36.8808
-36.8664
-36.8521
-36.8378
-36.8235
-36.8091
-36.7948
-36.7805
-36.7662
-36.7519
-36.7376
-36.7233
-36.709
-36.6947
-36.6804
-36.6661
-36.6518
-36.6375
-36.6232
-36.6089
-36.5946
-36.5804
-36.5661
-36.5518
-36.5376
-36.5233
-36.509
-36.4948
-36.4805
-36.4663
-36.452
-36.4378
-36.4235
-36.4093
-36.395
-36.3808
-36.3666
-36.3523
-36.3381
-36.3239
-36.3097
-36.2955
-36.2812
-36.267
-36.2528
-36.2386
-36.2244
-36.2102
-36.196
-36.1818
-36.1676
-36.1534
-36.1393
-36.1251
-36.1109
-36.0967
-36.0825
-36.0684
-36.0542
-36.04
-36.0259
-36.0117
-35.9976
-35.9834
-35.9693
-35.9551
-35.941
-35.9268
-35.9127
-35.8985
-35.8844
-35.8703
-35.8562
-35.842
-35.8279
-35.8138
-35.7997
-35.7856
-35.7714
-35.7573
-35.7432
-35.7291
-35.715
-35.7009
-35.6869
-35.6728
-35.6587
-35.6446
-35.6305
-35.6164
-35.6024
-35.5883
-35.5742
-35.5601
-35.5461
-35.532
-35.518
-35.5039
-35.4899
-35.4758
-35.4618
-35.4477
-35.4337
-35.4196
-35.4056
-35.3916
-35.3775
-35.3635
-35.3495
-35.3355
-35.3215
-35.3074
-35.2934
-35.2794
-35.2654
-35.2514
-35.2374
-35.2234
-35.2094
-35.1954
-35.1814
-35.1675
-35.1535
-35.1395
-35.1255
-35.1115
-35.0976
-35.0836
-35.0696
-35.0557
-35.0417
-35.0278
-35.0138
-34.9999
-34.9859
-34.972
-34.958
-34.9441
-34.9301
-34.9162
-34.9023
-34.8884
-34.8744
-34.8605
-34.8466
-34.8327
-34.8188
-34.8048
-34.7909
-34.777
-34.7631
-34.7492
-34.7353
-34.7214
-34.7076
-34.6937
-34.6798
-34.6659
-34.652
-34.6381
-34.6243
-34.6104
-34.5965
-34.5827
-34.5688
-34.555
-34.5411
-34.5272
-34.5134
-34.4995
-34.4857
-34.4719
-34.458
-34.4442
-34.4304
-34.4165
-34.4027
-34.3889
-34.3751
-34.3612
-34.3474
-34.3336
-34.3198
-34.306
-34.2922
-34.2784
-34.2646
-34.2508
-34.237
-34.2232
-34.2094
-34.1956
-34.1819
-34.1681
-34.1543
-34.1405
-34.1268
-34.113
-34.0992
-34.0855
-34.0717
-34.058
-34.0442
-34.0305
-34.0167
-34.003
-33.9892
-33.9755
-33.9618
-33.948
-33.9343
-33.9206
-33.9068
-33.8931
-33.8794
-33.8657
-33.852
-33.8383
-33.8246
-33.8109
-33.7972
-33.7835
-33.7698
-33.7561
-33.7424
-33.7287
-33.715
-33.7013
-33.6877
-33.674
-33.6603
-33.6466
-33.633
-33.6193
-33.6057
-33.592
-33.5783
-33.5647
-33.551
-33.5374
-33.5237
-33.5101
-33.4965
-33.4828
-33.4692
-33.4556
-33.4419
-33.4283
-33.4147
-33.4011
-33.3875
-33.3739
-33.3602
-33.3466
-33.333
-33.3194
-33.3058
-33.2922
-33.2787
-33.2651
-33.2515
-33.2379
-33.2243
-33.2107
-33.1972
-33.1836
-33.17
-33.1565
-33.1429
-33.1293
-33.1158
-33.1022
-33.0887
-33.0751
-33.0616
-33.048
-33.0345
-33.0209
-33.0074
-32.9939
-32.9804
-32.9668
-32.9533
-32.9398
-32.9263
-32.9127
-32.8992
-32.8857
-32.8722
-32.8587
-32.8452
-32.8317
-32.8182
-32.8047
-32.7912
-32.7778
-32.7643
-32.7508
-32.7373
-32.7238
-32.7104
-32.6969
-32.6834
-32.67
-32.6565
-32.643
-32.6296
-32.6161
-32.6027
-32.5892
-32.5758
-32.5624
-32.5489
-32.5355
-32.522
-32.5086
-32.4952
-32.4818
-32.4683
-32.4549
-32.4415
-32.4281
-32.4147
-32.4013
-32.3879
-32.3745
-32.3611
-32.3477
-32.3343
-32.3209
-32.3075
-32.2941
-32.2807
-32.2674
-32.254
-32.2406
-32.2272
-32.2139
-32.2005
-32.1872
-32.1738
-32.1604
-32.1471
-32.1337
-32.1204
-32.107
-32.0937
-32.0804
-32.067
-32.0537
-32.0404
-32.027
-32.0137
-32.0004
-31.9871
-31.9737
-31.9604
-31.9471
-31.9338
-31.9205
-31.9072
-31.8939
-31.8806
-31.8673
-31.854
-31.8407
-31.8274
-31.8142
-31.8009
-31.7876
-31.7743
-31.7611
-31.7478
-31.7345
-31.7213
-31.708
-31.6947
-31.6815
-31.6682
-31.655
-31.6417
-31.6285
-31.6153
-31.602
-31.5888
-31.5756
-31.5623
-31.5491
-31.5359
-31.5227
-31.5094
-31.4962
-31.483
-31.4698
-31.4566
-31.4434
-31.4302
-31.417
-31.4038
-31.3906
-31.3774
-31.3642
-31.351
-31.3379
-31.3247
-31.3115
-31.2983
-31.2852
-31.272
-31.2588
-31.2457
-31.2325
-31.2193
-31.2062
-31.193
-31.1799
-31.1668
-31.1536
-31.1405
-31.1273
-31.1142
-31.1011
-31.0879
-31.0748
-31.0617
-31.0486
-31.0355
-31.0223
-31.0092
-30.9961
-30.983
-30.9699
-30.9568
-30.9437
-30.9306
-30.9175
-30.9044
-30.8913
-30.8783
-30.8652
-30.8521
-30.839
-30.826
-30.8129
-30.7998
-30.7868
-30.7737
-30.7606
-30.7476
-30.7345
-30.7215
-30.7084
-30.6954
-30.6823
-30.6693
-30.6563
-30.6432
-30.6302
-30.6172
-30.6042
-30.5911
-30.5781
-30.5651
-30.5521
-30.5391
-30.5261
-30.5131
-30.5001
-30.4871
-30.4741
-30.4611
-30.4481
-30.4351
-30.4221
-30.4091
-30.3961
-30.3832
-30.3702
-30.3572
-30.3442
-30.3313
-30.3183
-30.3054
-30.2924
-30.2794
-30.2665
-30.2535
-30.2406
-30.2276
-30.2147
-30.2018
-30.1888
-30.1759
-30.163
-30.15
-30.1371
-30.1242
-30.1113
-30.0984
-30.0854
-30.0725
-30.0596
-30.0467
-30.0338
-30.0209
-30.008
-29.9951
-29.9822
-29.9693
-29.9565
-29.9436
-29.9307
-29.9178
-29.9049
-29.8921
-29.8792
-29.8663
-29.8535
-29.8406
-29.8278
-29.8149
-29.802
-29.7892
-29.7763
-29.7635
-29.7507
-29.7378
-29.725
-29.7122
-29.6993
-29.6865
-29.6737
-29.6609
-29.648
-29.6352
-29.6224
-29.6096
-29.5968
-29.584
-29.5712
-29.5584
-29.5456
-29.5328
-29.52
-29.5072
-29.4944
-29.4816
-29.4688
-29.4561
-29.4433
-29.4305
-29.4178
-29.405
-29.3922
-29.3795
-29.3667
-29.3539
-29.3412
-29.3284
-29.3157
-29.3029
-29.2902
-29.2775
-29.2647
-29.252
-29.2393
-29.2265
-29.2138
-29.2011
-29.1884
-29.1757
-29.1629
-29.1502
-29.1375
-29.1248
-29.1121
-29.0994
-29.0867
-29.074
-29.0613
-29.0486
-29.0359
-29.0233
-29.0106
-28.9979
-28.9852
-28.9725
-28.9599
-28.9472
-28.9345
-28.9219
-28.9092
-28.8966
-28.8839
-28.8713
-28.8586
-28.846
-28.8333
-28.8207
-28.808
-28.7954
-28.7828
-28.7701
-28.7575
-28.7449
-28.7323
-28.7197
-28.707
-28.6944
-28.6818
-28.6692
-28.6566
-28.644
-28.6314
-28.6188
-28.6062
-28.5936
-28.581
-28.5684
-28.5559
-28.5433
-28.5307
-28.5181
-28.5056
-28.493
-28.4804
-28.4679
-28.4553
-28.4427
-28.4302
-28.4176
-28.4051
-28.3925
-28.38
-28.3674
-28.3549
-28.3424
-28.3298
-28.3173
-28.3048
-28.2923
-28.2797
-28.2672
-28.2547
-28.2422
-28.2297
-28.2172
-28.2046
-28.1921
-28.1796
-28.1671
-28.1546
-28.1422
-28.1297
-28.1172
-28.1047
-28.0922
-28.0797
-28.0673
-28.0548
-28.0423
-28.0298
-28.0174
-28.0049
-27.9925
-27.98
-27.9675
-27.9551
-27.9426
-27.9302
-27.9177
-27.9053
-27.8929
-27.8804
-27.868
-27.8556
-27.8431
-27.8307
-27.8183
-27.8059
-27.7935
-27.781
-27.7686
-27.7562
-27.7438
-27.7314
-27.719
-27.7066
-27.6942
-27.6818
-27.6694
-27.6571
-27.6447
-27.6323
-27.6199
-27.6075
-27.5952
-27.5828
-27.5704
-27.5581
-27.5457
-27.5333
-27.521
-27.5086
-27.4963
-27.4839
-27.4716
-27.4592
-27.4469
-27.4345
-27.4222
-27.4099
-27.3975
-27.3852
-27.3729
-27.3606
-27.3483
-27.3359
-27.3236
-27.3113
-27.299
-27.2867
-27.2744
-27.2621
-27.2498
-27.2375
-27.2252
-27.2129
-27.2006
-27.1883
-27.1761
-27.1638
-27.1515
-27.1392
-27.127
-27.1147
-27.1024
-27.0902
-27.0779
-27.0657
-27.0534
-27.0411
-27.0289
-27.0167
-27.0044
-26.9922
-26.9799
-26.9677
-26.9555
-26.9432
-26.931
-26.9188
-26.9066
-26.8943
-26.8821
-26.8699
-26.8577
-26.8455
-26.8333
-26.8211
-26.8089
-26.7967
-26.7845
-26.7723
-26.7601
-26.7479
-26.7357
-26.7235
-26.7114
-26.6992
-26.687
-26.6748
-26.6627
-26.6505
-26.6383
-26.6262
-26.614
-26.6019
-26.5897
-26.5776
-26.5654
-26.5533
-26.5411
-26.529
-26.5169
-26.5047
-26.4926
-26.4805
-26.4683
-26.4562
-26.4441
-26.432
-26.4199
-26.4077
-26.3956
-26.3835
-26.3714
-26.3593
-26.3472
-26.3351
-26.323
-26.3109
-26.2989
-26.2868
-26.2747
-26.2626
-26.2505
-26.2385
-26.2264
-26.2143
-26.2022
-26.1902
-26.1781
-26.1661
-26.154
-26.1419
-26.1299
-26.1178
-26.1058
-26.0938
-26.0817
-26.0697
-26.0576
-26.0456
-26.0336
-26.0216
-26.0095
-25.9975
-25.9855
-25.9735
-25.9615
-25.9494
-25.9374
-25.9254
-25.9134
-25.9014
-25.8894
-25.8774
-25.8654
-25.8535
-25.8415
-25.8295
-25.8175
-25.8055
-25.7935
-25.7816
-25.7696
-25.7576
-25.7457
-25.7337
-25.7217
-25.7098
-25.6978
-25.6859
-25.6739
-25.662
-25.65
-25.6381
-25.6262
-25.6142
-25.6023
-25.5904
-25.5784
-25.5665
-25.5546
-25.5427
-25.5307
-25.5188
-25.5069
-25.495
-25.4831
-25.4712
-25.4593
-25.4474
-25.4355
-25.4236
-25.4117
-25.3998
-25.3879
-25.376
-25.3642
-25.3523
-25.3404
-25.3285
-25.3167
-25.3048
-25.2929
-25.2811
-25.2692
-25.2573
-25.2455
-25.2336
-25.2218
-25.2099
-25.1981
-25.1863
-25.1744
-25.1626
-25.1507
-25.1389
-25.1271
-25.1153
-25.1034
-25.0916
-25.0798
-25.068
-25.0562
-25.0444
-25.0326
-25.0207
-25.0089
-24.9971
-24.9854
-24.9736
-24.9618
-24.95
-24.9382
-24.9264
-24.9146
-24.9028
-24.8911
-24.8793
-24.8675
-24.8558
-24.844
-24.8322
-24.8205
-24.8087
-24.797
-24.7852
-24.7735
-24.7617
-24.75
-24.7382
-24.7265
-24.7147
-24.703
-24.6913
-24.6796
-24.6678
-24.6561
-24.6444
-24.6327
-24.621
-24.6092
-24.5975
-24.5858
-24.5741
-24.5624
-24.5507
-24.539
-24.5273
-24.5156
-24.5039
-24.4923
-24.4806
-24.4689
-24.4572
-24.4455
-24.4339
-24.4222
-24.4105
-24.3989
-24.3872
-24.3755
-24.3639
-24.3522
-24.3406
-24.3289
-24.3173
-24.3056
-24.294
-24.2823
-24.2707
-24.2591
-24.2474
-24.2358
-24.2242
-24.2126
-24.2009
-24.1893
-24.1777
-24.1661
-24.1545
-24.1429
-24.1313
-24.1197
-24.1081
-24.0965
-24.0849
-24.0733
-24.0617
-24.0501
-24.0385
-24.0269
-24.0154
-24.0038
-23.9922
-23.9806
-23.9691
-23.9575
-23.9459
-23.9344
-23.9228
-23.9113
-23.8997
-23.8882
-23.8766
-23.8651
-23.8535
-23.842
-23.8304
-23.8189
-23.8074
-23.7958
-23.7843
-23.7728
-23.7613
-23.7497
-23.7382
-23.7267
-23.7152
-23.7037
-23.6922
-23.6807
-23.6692
-23.6577
-23.6462
-23.6347
-23.6232
-23.6117
-23.6002
-23.5887
-23.5773
-23.5658
-23.5543
-23.5428
-23.5314
-23.5199
-23.5084
-23.497
-23.4855
-23.474
-23.4626
-23.4511
-23.4397
-23.4282
-23.4168
-23.4053
-23.3939
-23.3825
-23.371
-23.3596
-23.3482
-23.3367
-23.3253
-23.3139
-23.3025
-23.2911
-23.2797
-23.2682
-23.2568
-23.2454
-23.234
-23.2226
-23.2112
-23.1998
-23.1884
-23.177
-23.1657
-23.1543
-23.1429
-23.1315
-23.1201
-23.1088
-23.0974
-23.086
-23.0746
-23.0633
-23.0519
-23.0406
-23.0292
-23.0178
-23.0065
-22.9951
-22.9838
-22.9725
-22.9611
-22.9498
-22.9384
-22.9271
-22.9158
-22.9044
-22.8931
-22.8818
-22.8705
-22.8592
-22.8478
-22.8365
-22.8252
-22.8139
-22.8026
-22.7913
-22.78
-22.7687
-22.7574
-22.7461
-22.7348
-22.7235
-22.7122
-22.701
-22.6897
-22.6784
-22.6671
-22.6559
-22.6446
-22.6333
-22.6221
-22.6108
-22.5995
-22.5883
-22.577
-22.5658
-22.5545
-22.5433
-22.532
-22.5208
-22.5095
-22.4983
-22.4871
-22.4758
-22.4646
-22.4534
-22.4422
-22.4309
-22.4197
-22.4085
-22.3973
-22.3861
-22.3749
-22.3637
-22.3525
-22.3413
-22.3301
-22.3189
-22.3077
-22.2965
-22.2853
-22.2741
-22.2629
-22.2517
-22.2406
-22.2294
-22.2182
-22.2071
-22.1959
-22.1847
-22.1736
-22.1624
-22.1512
-22.1401
-22.1289
-22.1178
-22.1066
-22.0955
-22.0843
-22.0732
-22.0621
-22.0509
-22.0398
-22.0287
-22.0175
-22.0064
-21.9953
-21.9842
-21.9731
-21.9619
-21.9508
-21.9397
-21.9286
-21.9175
-21.9064
-21.8953
-21.8842
-21.8731
-21.862
-21.8509
-21.8399
-21.8288
-21.8177
-21.8066
-21.7955
-21.7845
-21.7734
-21.7623
-21.7513
-21.7402
-21.7291
-21.7181
-21.707
-21.696
-21.6849
-21.6739
-21.6628
-21.6518
-21.6407
-21.6297
-21.6187
-21.6076
-21.5966
-21.5856
-21.5745
-21.5635
-21.5525
-21.5415
-21.5305
-21.5194
-21.5084
-21.4974
-21.4864
-21.4754
-21.4644
-21.4534
-21.4424
-21.4314
-21.4204
-21.4094
-21.3985
-21.3875
-21.3765
-21.3655
-21.3545
-21.3436
-21.3326
-21.3216
-21.3107
-21.2997
-21.2887
-21.2778
-21.2668
-21.2559
-21.2449
-21.234
-21.223
-21.2121
-21.2012
-21.1902
-21.1793
-21.1683
-21.1574
-21.1465
-21.1356
-21.1246
-21.1137
-21.1028
-21.0919
-21.081
-21.0701
-21.0592
-21.0483
-21.0373
-21.0264
-21.0156
-21.0047
-20.9938
-20.9829
-20.972
-20.9611
-20.9502
-20.9393
-20.9285
-20.9176
-20.9067
-20.8958
-20.885
-20.8741
-20.8632
-20.8524
-20.8415
-20.8307
-20.8198
-20.809
-20.7981
-20.7873
-20.7764
-20.7656
-20.7548
-20.7439
-20.7331
-20.7223
-20.7114
-20.7006
-20.6898
-20.679
-20.6681
-20.6573
-20.6465
-20.6357
-20.6249
-20.6141
-20.6033
-20.5925
-20.5817
-20.5709
-20.5601
-20.5493
-20.5385
-20.5277
-20.517
-20.5062
-20.4954
-20.4846
-20.4739
-20.4631
-20.4523
-20.4416
-20.4308
-20.42
-20.4093
-20.3985
-20.3878
-20.377
-20.3663
-20.3555
-20.3448
-20.334
-20.3233
-20.3126
-20.3018
-20.2911
-20.2804
-20.2696
-20.2589
-20.2482
-20.2375
-20.2268
-20.2161
-20.2053
-20.1946
-20.1839
-20.1732
-20.1625
-20.1518
-20.1411
-20.1304
-20.1198
-20.1091
-20.0984
-20.0877
-20.077
-20.0663
-20.0557
-20.045
-20.0343
-20.0236
-20.013
-20.0023
-19.9917
-19.981
-19.9703
-19.9597
-19.949
-19.9384
-19.9277
-19.9171
-19.9065
-19.8958
-19.8852
-19.8745
-19.8639
-19.8533
-19.8427
-19.832
-19.8214
-19.8108
-19.8002
-19.7896
-19.779
-19.7683
-19.7577
-19.7471
-19.7365
-19.7259
-19.7153
-19.7047
-19.6941
-19.6836
-19.673
-19.6624
-19.6518
-19.6412
-19.6306
-19.6201
-19.6095
-19.5989
-19.5884
-19.5778
-19.5672
-19.5567
-19.5461
-19.5356
-19.525
-19.5145
-19.5039
-19.4934
-19.4828
-19.4723
-19.4617
-19.4512
-19.4407
-19.4301
-19.4196
-19.4091
-19.3986
-19.388
-19.3775
-19.367
-19.3565
-19.346
-19.3355
-19.325
-19.3145
-19.304
-19.2935
-19.283
-19.2725
-19.262
-19.2515
-19.241
-19.2305
-19.22
-19.2096
-19.1991
-19.1886
-19.1781
-19.1677
-19.1572
-19.1467
-19.1363
-19.1258
-19.1154
-19.1049
-19.0945
-19.084
-19.0736
-19.0631
-19.0527
-19.0422
-19.0318
-19.0214
-19.0109
-19.0005
-18.9901
-18.9796
-18.9692
-18.9588
-18.9484
-18.938
-18.9276
-18.9171
-18.9067
-18.8963
-18.8859
-18.8755
-18.8651
-18.8547
-18.8444
-18.8339
-18.8236
-18.8131
-18.8028
-18.7923
-18.7821
-18.7715
-18.7615
-18.7507
-18.7409
-18.7297
-18.7204
-18.7087
-18.7001
-18.6874
-18.6801
-18.6658
-18.6604
-18.6438
-18.6414
-18.621
-18.6233
-18.5973
-18.6063
-18.5722
-18.5908
-18.5455
-18.5772
-18.5169
-18.5655
-18.4863
-18.5557
-18.454
-18.5473
-18.4208
-18.5392
-18.3884
-18.5292
-18.359
-18.5146
-18.3361
-18.4918
-18.3233
-18.457
-18.3241
-18.4073
-18.341
-18.3406
-18.3703
-18.2706
-18.4011
-18.1956
-18.4357
-18.1217
-18.4637
-18.0624
-18.4694
-18.0317
-18.4397
-18.0406
-18.3685
-18.0916
-18.2587
-18.1748
-18.1261
-18.2677
-17.9986
-18.3391
-17.9093
-18.3577
-17.8853
-18.3032
-17.9357
-18.1791
-18.0436
-18.0163
-18.1665
-17.8662
-18.2486
-17.7828
-18.2432
-17.7986
-18.1372
-17.9051
-17.9624
-18.049
-17.788
-18.1526
-17.6908
-18.1503
-17.7153
-18.0267
-17.8439
-17.832
-17.9985
-17.6619
-18.0795
-17.6055
-18.023
-17.6894
-17.846
-17.8536
-17.6438
-17.9815
-17.5352
-17.9731
-17.5829
-17.8159
-17.7445
-17.6021
-17.8931
-17.4705
-17.9043
-17.5061
-17.7509
-17.6705
-17.5318
-17.8222
-17.4029
-17.8236
-17.4537
-17.6543
-17.6286
-17.4362
-17.7643
-17.3383
-17.7252
-17.43
-17.5259
-17.6138
-17.3263
-17.7043
-17.2921
-17.5974
-17.4384
-17.3733
-17.6072
-17.2285
-17.6142
-17.2867
-17.4308
-17.4711
-17.2209
-17.5736
-17.18
-17.4661
-17.3311
-17.2397
-17.493
-17.1155
-17.4683
-17.2077
-17.2614
-17.393
-17.0802
-17.4402
-17.1077
-17.2723
-17.2897
-17.0603
-17.3903
-17.03
-17.2667
-17.1937
-17.0434
-17.3289
-16.9685
-17.2452
-17.1093
-17.0224
-17.2639
-16.9168
-17.2107
-17.0372
-16.9933
-17.2011
-16.8696
-17.1673
-16.9759
-16.9553
-17.1426
-16.824
-17.1172
-16.9241
-16.9086
-17.089
-16.7792
-17.061
-16.8815
-16.8533
-17.0405
-16.7348
-16.9997
-16.8467
-16.7912
-16.9951
-16.6926
-16.9322
-16.8192
-16.7243
-16.9497
-16.6554
-16.857
-16.7987
-16.6548
-16.9015
-16.6255
-16.7743
-16.7822
-16.5876
-16.8452
-16.6058
-16.6842
-16.7661
-16.528
-16.7768
-16.5974
-16.5901
-16.7445
-16.4819
-16.6936
-16.5976
-16.4988
-16.7087
-16.4551
-16.5952
-16.601
-16.4192
-16.6518
-16.449
-16.4878
-16.5963
-16.362
-16.569
-16.4591
-16.3832
-16.57
-16.3352
-16.4627
-16.4732
-16.2975
-16.5111
-16.3381
-16.3461
-16.4717
-16.2468
-16.4162
-16.3587
-16.2409
-16.4348
-16.2372
-16.2971
-16.3726
-16.1711
-16.3525
-16.258
-16.1806
-16.3511
-16.1509
-16.2341
-16.2804
-16.0992
-16.2769
-16.1714
-16.1115
-16.2671
-16.0742
-16.1584
-16.1978
-16.0263
-16.1941
-16.0965
-16.0336
-16.1848
-16.004
-16.0724
-16.1236
-15.9524
-16.1052
-16.0313
-15.9492
-16.1022
-15.941
-15.9776
-16.0546
-15.8808
-16.0088
-15.974
-15.8622
-16.0156
-15.8864
-15.8767
-15.9851
-15.8165
-15.9034
-15.9214
-15.7792
-15.9193
-15.8408
-15.7747
-15.908
-15.7644
-15.7907
-15.8659
-15.7086
-15.8097
-15.8002
-15.6808
-15.8149
-15.7255
-15.6779
-15.7965
-15.6574
-15.6893
-15.7538
-15.607
-15.7015
-15.693
-15.579
-15.7025
-15.625
-15.5708
-15.6852
-15.5612
-15.5748
-15.6487
-15.51
-15.5817
-15.5967
-15.4757
-15.5823
-15.5363
-15.4576
-15.5707
-15.4757
-15.4517
-15.5444
-15.4215
-15.4518
-15.5046
-15.3784
-15.4515
-15.455
-15.3476
-15.4455
-15.4005
-15.3282
-15.4304
-15.3463
-15.3172
-15.405
-15.2964
-15.3109
-15.37
-15.2537
-15.3051
-15.3276
-15.2194
-15.2966
-15.2806
-15.1931
-15.283
-15.2321
-15.1736
-15.263
-15.1846
-15.1588
-15.2365
-15.1403
-15.1465
-15.2041
-15.1004
-15.1349
-15.167
-15.0656
-15.1218
-15.1268
-15.0356
-15.1063
-15.0849
-15.0099
-15.0875
-15.0427
-14.9878
-15.0651
-15.0014
-14.968
-15.0393
-14.9617
-14.9496
-15.0104
-14.9242
-14.9319
-14.9789
-14.8891
-14.9139
-14.9455
-14.8563
-14.8952
-14.9107
-14.8259
-14.8754
-14.8751
-14.7974
-14.8541
-14.8394
-14.7704
-14.8315
-14.8036
-14.7448
-14.8074
-14.7684
-14.7199
-14.782
-14.7339
-14.6957
-14.7555
-14.7001
-14.6717
-14.728
-14.6672
-14.6478
-14.6998
-14.635
-14.6238
-14.671
-14.6036
-14.5995
-14.6417
-14.573
-14.5748
-14.6124
-14.5429
-14.5499
-14.5828
-14.5135
-14.5245
-14.5532
-14.4845
-14.4986
-14.5238
-14.4558
-14.4725
-14.4943
-14.4275
-14.4458
-14.4651
-14.3995
-14.4188
-14.4361
-14.3716
-14.3915
-14.4072
-14.3441
-14.3638
-14.3787
-14.3166
-14.3358
-14.3503
-14.2893
-14.3076
-14.322
-14.2622
-14.279
-14.2941
-14.2351
-14.2503
-14.2661
-14.2083
-14.2212
-14.2383
-14.1817
-14.1919
-14.2106
-14.1552
-14.1626
-14.1829
-14.129
-14.1329
-14.1552
-14.103
-14.1033
-14.1274
-14.0773
-14.0735
-14.0994
-14.0519
-14.0436
-14.0713
-14.0267
-14.0139
-14.0428
-14.0018
-13.9843
-14.014
-13.9772
-13.9548
-13.9849
-13.9527
-13.9257
-13.9552
-13.9285
-13.8968
-13.9252
-13.9043
-13.8685
-13.8947
-13.88
-13.8409
-13.8637
-13.8556
-13.8137
-13.8325
-13.8307
-13.7875
-13.8009
-13.8055
-13.7619
-13.7692
-13.7797
-13.7371
-13.7376
-13.7529
-13.7131
-13.7062
-13.7254
-13.6896
-13.6753
-13.6968
-13.6665
-13.6452
-13.6672
-13.6437
-13.6159
-13.6368
-13.6207
-13.5878
-13.6054
-13.5974
-13.5609
-13.5734
-13.5733
-13.5353
-13.5413
-13.5481
-13.5111
-13.5091
-13.5218
-13.4877
-13.4775
-13.4939
-13.4652
-13.4468
-13.4645
-13.443
-13.4174
-13.4339
-13.4205
-13.3897
-13.4022
-13.3974
-13.3636
-13.3699
-13.373
-13.3391
-13.3376
-13.347
-13.3161
-13.3058
-13.3193
-13.2938
-13.2753
-13.2897
-13.2719
-13.2464
-13.2587
-13.2495
-13.2195
-13.2266
-13.2259
-13.1946
-13.1942
-13.2007
-13.1714
-13.1624
-13.1732
-13.1494
-13.1317
-13.1438
-13.1276
-13.1031
-13.1127
-13.1051
-13.0768
-13.0805
-13.0813
-13.0525
-13.0483
-13.0553
-13.03
-13.017
-13.027
-13.0083
-12.9875
-12.9967
-12.9862
-12.9605
-12.9647
-12.963
-12.9357
-12.9327
-12.9375
-12.9131
-12.9013
-12.9095
-12.8914
-12.8718
-12.8794
-12.8693
-12.845
-12.8476
-12.8461
-12.8205
-12.8157
-12.8202
-12.7981
-12.7848
-12.7918
-12.7765
-12.756
-12.7613
-12.7541
-12.7302
-12.7294
-12.73
-12.7066
-12.6979
-12.7031
-12.6847
-12.6682
-12.6735
-12.663
-12.6409
-12.6424
-12.6395
-12.6167
-12.6107
-12.6138
-12.5944
-12.5803
-12.5852
-12.5725
-12.5527
-12.5542
-12.5498
-12.5276
-12.5229
-12.5244
-12.5051
-12.4924
-12.4962
-12.4834
-12.4644
-12.4659
-12.4605
-12.4395
-12.4344
-12.4355
-12.4167
-12.4043
-12.4073
-12.3949
-12.3765
-12.3768
-12.3721
-12.3516
-12.3459
-12.3465
-12.3294
-12.3158
-12.3182
-12.3073
-12.2888
-12.2876
-12.2839
-12.2647
-12.2567
-12.2579
-12.2424
-12.2278
-12.2287
-12.2203
-12.2015
-12.1981
-12.1961
-12.1782
-12.1679
-12.1688
-12.1563
-12.1398
-12.1393
-12.1333
-12.1152
-12.1085
-12.1081
-12.0925
-12.0793
-12.0796
-12.0703
-12.053
-12.0493
-12.0465
-12.0294
-12.0195
-12.0193
-12.0074
-11.9916
-11.9899
-11.9843
-11.9671
-11.9597