/*--------------------------------*- C++ -*----------------------------------*\
  =========                 |
  \\      /  F ield         | OpenFOAM: The Open Source CFD Toolbox
   \\    /   O peration     | Website:  https://openfoam.org
    \\  /    A nd           | Version:  9
     \\/     M anipulation  |
\*---------------------------------------------------------------------------*/
FoamFile
{
    format      ascii;
    class       volVectorField;
    location    "0.014";
    object      ddt0(rho,U);
}
// * * * * * * * * * * * * * * * * * * * * * * * * * * * * * * * * * * * * * //

dimensions      [1 -2 -2 0 0 0 0];

internalField   nonuniform List<vector> 
10000
(
(235.843 0 0)
(194.498 0 0)
(193.234 0 0)
(159.988 0 0)
(144.688 0 0)
(123.756 0 0)
(103.703 0 0)
(83.0072 0 0)
(62.4999 0 0)
(42.1366 0 0)
(21.7771 0 0)
(1.41034 0 0)
(-18.9535 0 0)
(-39.3125 0 0)
(-59.6665 0 0)
(-80.0157 0 0)
(-100.36 0 0)
(-120.698 0 0)
(-141.03 0 0)
(-161.356 0 0)
(-181.675 0 0)
(-201.988 0 0)
(-222.293 0 0)
(-242.59 0 0)
(-262.88 0 0)
(-283.161 0 0)
(-303.434 0 0)
(-323.697 0 0)
(-343.952 0 0)
(-364.197 0 0)
(-384.431 0 0)
(-404.656 0 0)
(-424.871 0 0)
(-445.074 0 0)
(-465.266 0 0)
(-485.447 0 0)
(-505.616 0 0)
(-525.773 0 0)
(-545.918 0 0)
(-566.049 0 0)
(-586.168 0 0)
(-606.274 0 0)
(-626.366 0 0)
(-646.444 0 0)
(-666.508 0 0)
(-686.557 0 0)
(-706.592 0 0)
(-726.611 0 0)
(-746.615 0 0)
(-766.604 0 0)
(-786.577 0 0)
(-806.533 0 0)
(-826.473 0 0)
(-846.396 0 0)
(-866.302 0 0)
(-886.19 0 0)
(-906.061 0 0)
(-925.914 0 0)
(-945.748 0 0)
(-965.564 0 0)
(-985.361 0 0)
(-1005.14 0 0)
(-1024.9 0 0)
(-1044.64 0 0)
(-1064.35 0 0)
(-1084.05 0 0)
(-1103.73 0 0)
(-1123.39 0 0)
(-1143.02 0 0)
(-1162.63 0 0)
(-1182.22 0 0)
(-1201.79 0 0)
(-1221.34 0 0)
(-1240.86 0 0)
(-1260.36 0 0)
(-1279.84 0 0)
(-1299.29 0 0)
(-1318.72 0 0)
(-1338.12 0 0)
(-1357.5 0 0)
(-1376.85 0 0)
(-1396.18 0 0)
(-1415.48 0 0)
(-1434.75 0 0)
(-1454 0 0)
(-1473.22 0 0)
(-1492.41 0 0)
(-1511.57 0 0)
(-1530.7 0 0)
(-1549.81 0 0)
(-1568.88 0 0)
(-1587.92 0 0)
(-1606.94 0 0)
(-1625.92 0 0)
(-1644.87 0 0)
(-1663.79 0 0)
(-1682.67 0 0)
(-1701.52 0 0)
(-1720.34 0 0)
(-1739.12 0 0)
(-1757.87 0 0)
(-1776.58 0 0)
(-1795.25 0 0)
(-1813.89 0 0)
(-1832.49 0 0)
(-1851.05 0 0)
(-1869.57 0 0)
(-1888.05 0 0)
(-1906.49 0 0)
(-1924.88 0 0)
(-1943.23 0 0)
(-1961.54 0 0)
(-1979.81 0 0)
(-1998.02 0 0)
(-2016.19 0 0)
(-2034.32 0 0)
(-2052.39 0 0)
(-2070.41 0 0)
(-2088.38 0 0)
(-2106.3 0 0)
(-2124.17 0 0)
(-2141.97 0 0)
(-2159.73 0 0)
(-2177.42 0 0)
(-2195.05 0 0)
(-2212.62 0 0)
(-2230.13 0 0)
(-2247.57 0 0)
(-2264.95 0 0)
(-2282.26 0 0)
(-2299.49 0 0)
(-2316.66 0 0)
(-2333.75 0 0)
(-2350.76 0 0)
(-2367.7 0 0)
(-2384.55 0 0)
(-2401.32 0 0)
(-2418 0 0)
(-2434.59 0 0)
(-2451.09 0 0)
(-2467.5 0 0)
(-2483.81 0 0)
(-2500.01 0 0)
(-2516.11 0 0)
(-2532.11 0 0)
(-2547.99 0 0)
(-2563.76 0 0)
(-2579.4 0 0)
(-2594.93 0 0)
(-2610.32 0 0)
(-2625.59 0 0)
(-2640.72 0 0)
(-2655.7 0 0)
(-2670.54 0 0)
(-2685.23 0 0)
(-2699.76 0 0)
(-2714.12 0 0)
(-2728.32 0 0)
(-2742.34 0 0)
(-2756.18 0 0)
(-2769.83 0 0)
(-2783.28 0 0)
(-2796.53 0 0)
(-2809.57 0 0)
(-2822.39 0 0)
(-2834.97 0 0)
(-2847.33 0 0)
(-2859.43 0 0)
(-2871.27 0 0)
(-2882.85 0 0)
(-2894.15 0 0)
(-2905.16 0 0)
(-2915.87 0 0)
(-2926.26 0 0)
(-2936.33 0 0)
(-2946.05 0 0)
(-2955.41 0 0)
(-2964.41 0 0)
(-2973.01 0 0)
(-2981.21 0 0)
(-2988.99 0 0)
(-2996.33 0 0)
(-3003.21 0 0)
(-3009.61 0 0)
(-3015.5 0 0)
(-3020.86 0 0)
(-3025.68 0 0)
(-3029.92 0 0)
(-3033.56 0 0)
(-3036.57 0 0)
(-3038.92 0 0)
(-3040.58 0 0)
(-3041.51 0 0)
(-3041.68 0 0)
(-3041.05 0 0)
(-3039.59 0 0)
(-3037.25 0 0)
(-3033.99 0 0)
(-3029.76 0 0)
(-3024.52 0 0)
(-3018.21 0 0)
(-3010.77 0 0)
(-3002.15 0 0)
(-2992.29 0 0)
(-2981.11 0 0)
(-2968.55 0 0)
(-2954.54 0 0)
(-2938.99 0 0)
(-2921.83 0 0)
(-2902.96 0 0)
(-2882.3 0 0)
(-2859.73 0 0)
(-2835.16 0 0)
(-2808.46 0 0)
(-2779.53 0 0)
(-2748.23 0 0)
(-2714.42 0 0)
(-2677.96 0 0)
(-2638.7 0 0)
(-2596.46 0 0)
(-2551.08 0 0)
(-2502.36 0 0)
(-2450.11 0 0)
(-2394.12 0 0)
(-2334.17 0 0)
(-2270.01 0 0)
(-2201.4 0 0)
(-2128.07 0 0)
(-2049.74 0 0)
(-1966.11 0 0)
(-1876.87 0 0)
(-1781.7 0 0)
(-1680.24 0 0)
(-1572.14 0 0)
(-1457.02 0 0)
(-1334.48 0 0)
(-1204.13 0 0)
(-1065.55 0 0)
(-918.315 0 0)
(-762 0 0)
(-596.175 0 0)
(-420.412 0 0)
(-234.292 0 0)
(-37.4069 0 0)
(170.632 0 0)
(390.191 0 0)
(621.602 0 0)
(865.161 0 0)
(1121.12 0 0)
(1389.66 0 0)
(1670.92 0 0)
(1964.97 0 0)
(2271.77 0 0)
(2591.21 0 0)
(2923.1 0 0)
(3267.13 0 0)
(3622.86 0 0)
(3989.79 0 0)
(4367.26 0 0)
(4754.5 0 0)
(5150.65 0 0)
(5554.72 0 0)
(5965.62 0 0)
(6382.15 0 0)
(6803.04 0 0)
(7226.94 0 0)
(7652.44 0 0)
(8078.07 0 0)
(8502.35 0 0)
(8923.8 0 0)
(9340.92 0 0)
(9752.26 0 0)
(10156.4 0 0)
(10552 0 0)
(10937.9 0 0)
(11312.7 0 0)
(11675.6 0 0)
(12025.4 0 0)
(12361.6 0 0)
(12683.2 0 0)
(12989.9 0 0)
(13281.1 0 0)
(13556.7 0 0)
(13816.5 0 0)
(14060.4 0 0)
(14288.7 0 0)
(14501.4 0 0)
(14698.9 0 0)
(14881.6 0 0)
(15049.9 0 0)
(15204.5 0 0)
(15345.8 0 0)
(15474.6 0 0)
(15591.4 0 0)
(15697 0 0)
(15792.1 0 0)
(15877.3 0 0)
(15953.3 0 0)
(16020.8 0 0)
(16080.5 0 0)
(16132.9 0 0)
(16178.8 0 0)
(16218.6 0 0)
(16252.9 0 0)
(16282.3 0 0)
(16307.2 0 0)
(16328.1 0 0)
(16345.4 0 0)
(16359.4 0 0)
(16370.6 0 0)
(16379.2 0 0)
(16385.5 0 0)
(16389.8 0 0)
(16392.4 0 0)
(16393.4 0 0)
(16393 0 0)
(16391.4 0 0)
(16388.8 0 0)
(16385.3 0 0)
(16381 0 0)
(16376 0 0)
(16370.4 0 0)
(16364.4 0 0)
(16357.8 0 0)
(16350.9 0 0)
(16343.7 0 0)
(16336.3 0 0)
(16328.5 0 0)
(16320.6 0 0)
(16312.5 0 0)
(16304.3 0 0)
(16296 0 0)
(16287.5 0 0)
(16279 0 0)
(16270.4 0 0)
(16261.7 0 0)
(16253 0 0)
(16244.2 0 0)
(16235.4 0 0)
(16226.6 0 0)
(16217.8 0 0)
(16208.9 0 0)
(16200.1 0 0)
(16191.2 0 0)
(16182.3 0 0)
(16173.4 0 0)
(16164.5 0 0)
(16155.6 0 0)
(16146.7 0 0)
(16137.8 0 0)
(16128.9 0 0)
(16119.9 0 0)
(16111 0 0)
(16102.1 0 0)
(16093.2 0 0)
(16084.3 0 0)
(16075.4 0 0)
(16066.5 0 0)
(16057.6 0 0)
(16048.7 0 0)
(16039.8 0 0)
(16030.9 0 0)
(16022 0 0)
(16013.1 0 0)
(16004.2 0 0)
(15995.4 0 0)
(15986.5 0 0)
(15977.6 0 0)
(15968.7 0 0)
(15959.9 0 0)
(15951 0 0)
(15942.1 0 0)
(15933.3 0 0)
(15924.4 0 0)
(15915.5 0 0)
(15906.7 0 0)
(15897.8 0 0)
(15889 0 0)
(15880.2 0 0)
(15871.3 0 0)
(15862.5 0 0)
(15853.6 0 0)
(15844.8 0 0)
(15836 0 0)
(15827.2 0 0)
(15818.3 0 0)
(15809.5 0 0)
(15800.7 0 0)
(15791.9 0 0)
(15783.1 0 0)
(15774.3 0 0)
(15765.5 0 0)
(15756.7 0 0)
(15747.9 0 0)
(15739.1 0 0)
(15730.3 0 0)
(15721.5 0 0)
(15712.7 0 0)
(15703.9 0 0)
(15695.2 0 0)
(15686.4 0 0)
(15677.6 0 0)
(15668.8 0 0)
(15660.1 0 0)
(15651.3 0 0)
(15642.5 0 0)
(15633.8 0 0)
(15625 0 0)
(15616.3 0 0)
(15607.5 0 0)
(15598.8 0 0)
(15590.1 0 0)
(15581.3 0 0)
(15572.6 0 0)
(15563.8 0 0)
(15555.1 0 0)
(15546.4 0 0)
(15537.7 0 0)
(15528.9 0 0)
(15520.2 0 0)
(15511.5 0 0)
(15502.8 0 0)
(15494.1 0 0)
(15485.4 0 0)
(15476.7 0 0)
(15468 0 0)
(15459.3 0 0)
(15450.6 0 0)
(15441.9 0 0)
(15433.2 0 0)
(15424.6 0 0)
(15415.9 0 0)
(15407.2 0 0)
(15398.5 0 0)
(15389.9 0 0)
(15381.2 0 0)
(15372.5 0 0)
(15363.9 0 0)
(15355.2 0 0)
(15346.5 0 0)
(15337.9 0 0)
(15329.2 0 0)
(15320.6 0 0)
(15312 0 0)
(15303.3 0 0)
(15294.7 0 0)
(15286.1 0 0)
(15277.4 0 0)
(15268.8 0 0)
(15260.2 0 0)
(15251.6 0 0)
(15242.9 0 0)
(15234.3 0 0)
(15225.7 0 0)
(15217.1 0 0)
(15208.5 0 0)
(15199.9 0 0)
(15191.3 0 0)
(15182.7 0 0)
(15174.1 0 0)
(15165.5 0 0)
(15156.9 0 0)
(15148.4 0 0)
(15139.8 0 0)
(15131.2 0 0)
(15122.6 0 0)
(15114.1 0 0)
(15105.5 0 0)
(15096.9 0 0)
(15088.4 0 0)
(15079.8 0 0)
(15071.3 0 0)
(15062.7 0 0)
(15054.2 0 0)
(15045.6 0 0)
(15037.1 0 0)
(15028.5 0 0)
(15020 0 0)
(15011.5 0 0)
(15002.9 0 0)
(14994.4 0 0)
(14985.9 0 0)
(14977.4 0 0)
(14968.9 0 0)
(14960.3 0 0)
(14951.8 0 0)
(14943.3 0 0)
(14934.8 0 0)
(14926.3 0 0)
(14917.8 0 0)
(14909.3 0 0)
(14900.8 0 0)
(14892.3 0 0)
(14883.9 0 0)
(14875.4 0 0)
(14866.9 0 0)
(14858.4 0 0)
(14850 0 0)
(14841.5 0 0)
(14833 0 0)
(14824.6 0 0)
(14816.1 0 0)
(14807.6 0 0)
(14799.2 0 0)
(14790.7 0 0)
(14782.3 0 0)
(14773.8 0 0)
(14765.4 0 0)
(14757 0 0)
(14748.5 0 0)
(14740.1 0 0)
(14731.7 0 0)
(14723.2 0 0)
(14714.8 0 0)
(14706.4 0 0)
(14698 0 0)
(14689.6 0 0)
(14681.2 0 0)
(14672.8 0 0)
(14664.4 0 0)
(14656 0 0)
(14647.6 0 0)
(14639.2 0 0)
(14630.8 0 0)
(14622.4 0 0)
(14614 0 0)
(14605.6 0 0)
(14597.2 0 0)
(14588.9 0 0)
(14580.5 0 0)
(14572.1 0 0)
(14563.8 0 0)
(14555.4 0 0)
(14547 0 0)
(14538.7 0 0)
(14530.3 0 0)
(14522 0 0)
(14513.6 0 0)
(14505.3 0 0)
(14496.9 0 0)
(14488.6 0 0)
(14480.3 0 0)
(14471.9 0 0)
(14463.6 0 0)
(14455.3 0 0)
(14447 0 0)
(14438.7 0 0)
(14430.3 0 0)
(14422 0 0)
(14413.7 0 0)
(14405.4 0 0)
(14397.1 0 0)
(14388.8 0 0)
(14380.5 0 0)
(14372.2 0 0)
(14363.9 0 0)
(14355.6 0 0)
(14347.4 0 0)
(14339.1 0 0)
(14330.8 0 0)
(14322.5 0 0)
(14314.3 0 0)
(14306 0 0)
(14297.7 0 0)
(14289.5 0 0)
(14281.2 0 0)
(14272.9 0 0)
(14264.7 0 0)
(14256.4 0 0)
(14248.2 0 0)
(14240 0 0)
(14231.7 0 0)
(14223.5 0 0)
(14215.2 0 0)
(14207 0 0)
(14198.8 0 0)
(14190.6 0 0)
(14182.3 0 0)
(14174.1 0 0)
(14165.9 0 0)
(14157.7 0 0)
(14149.5 0 0)
(14141.3 0 0)
(14133.1 0 0)
(14124.9 0 0)
(14116.7 0 0)
(14108.5 0 0)
(14100.3 0 0)
(14092.1 0 0)
(14083.9 0 0)
(14075.8 0 0)
(14067.6 0 0)
(14059.4 0 0)
(14051.2 0 0)
(14043.1 0 0)
(14034.9 0 0)
(14026.7 0 0)
(14018.6 0 0)
(14010.4 0 0)
(14002.3 0 0)
(13994.1 0 0)
(13986 0 0)
(13977.8 0 0)
(13969.7 0 0)
(13961.6 0 0)
(13953.4 0 0)
(13945.3 0 0)
(13937.2 0 0)
(13929.1 0 0)
(13920.9 0 0)
(13912.8 0 0)
(13904.7 0 0)
(13896.6 0 0)
(13888.5 0 0)
(13880.4 0 0)
(13872.3 0 0)
(13864.2 0 0)
(13856.1 0 0)
(13848 0 0)
(13839.9 0 0)
(13831.8 0 0)
(13823.7 0 0)
(13815.7 0 0)
(13807.6 0 0)
(13799.5 0 0)
(13791.4 0 0)
(13783.4 0 0)
(13775.3 0 0)
(13767.2 0 0)
(13759.2 0 0)
(13751.1 0 0)
(13743.1 0 0)
(13735 0 0)
(13727 0 0)
(13718.9 0 0)
(13710.9 0 0)
(13702.9 0 0)
(13694.8 0 0)
(13686.8 0 0)
(13678.8 0 0)
(13670.8 0 0)
(13662.7 0 0)
(13654.7 0 0)
(13646.7 0 0)
(13638.7 0 0)
(13630.7 0 0)
(13622.7 0 0)
(13614.7 0 0)
(13606.7 0 0)
(13598.7 0 0)
(13590.7 0 0)
(13582.7 0 0)
(13574.7 0 0)
(13566.7 0 0)
(13558.8 0 0)
(13550.8 0 0)
(13542.8 0 0)
(13534.8 0 0)
(13526.9 0 0)
(13518.9 0 0)
(13511 0 0)
(13503 0 0)
(13495 0 0)
(13487.1 0 0)
(13479.1 0 0)
(13471.2 0 0)
(13463.3 0 0)
(13455.3 0 0)
(13447.4 0 0)
(13439.4 0 0)
(13431.5 0 0)
(13423.6 0 0)
(13415.7 0 0)
(13407.7 0 0)
(13399.8 0 0)
(13391.9 0 0)
(13384 0 0)
(13376.1 0 0)
(13368.2 0 0)
(13360.3 0 0)
(13352.4 0 0)
(13344.5 0 0)
(13336.6 0 0)
(13328.7 0 0)
(13320.8 0 0)
(13312.9 0 0)
(13305.1 0 0)
(13297.2 0 0)
(13289.3 0 0)
(13281.4 0 0)
(13273.6 0 0)
(13265.7 0 0)
(13257.9 0 0)
(13250 0 0)
(13242.1 0 0)
(13234.3 0 0)
(13226.4 0 0)
(13218.6 0 0)
(13210.7 0 0)
(13202.9 0 0)
(13195.1 0 0)
(13187.2 0 0)
(13179.4 0 0)
(13171.6 0 0)
(13163.8 0 0)
(13155.9 0 0)
(13148.1 0 0)
(13140.3 0 0)
(13132.5 0 0)
(13124.7 0 0)
(13116.9 0 0)
(13109.1 0 0)
(13101.3 0 0)
(13093.5 0 0)
(13085.7 0 0)
(13077.9 0 0)
(13070.1 0 0)
(13062.3 0 0)
(13054.5 0 0)
(13046.8 0 0)
(13039 0 0)
(13031.2 0 0)
(13023.5 0 0)
(13015.7 0 0)
(13007.9 0 0)
(13000.2 0 0)
(12992.4 0 0)
(12984.7 0 0)
(12976.9 0 0)
(12969.2 0 0)
(12961.4 0 0)
(12953.7 0 0)
(12945.9 0 0)
(12938.2 0 0)
(12930.5 0 0)
(12922.8 0 0)
(12915 0 0)
(12907.3 0 0)
(12899.6 0 0)
(12891.9 0 0)
(12884.2 0 0)
(12876.4 0 0)
(12868.7 0 0)
(12861 0 0)
(12853.3 0 0)
(12845.6 0 0)
(12837.9 0 0)
(12830.3 0 0)
(12822.6 0 0)
(12814.9 0 0)
(12807.2 0 0)
(12799.5 0 0)
(12791.8 0 0)
(12784.2 0 0)
(12776.5 0 0)
(12768.8 0 0)
(12761.2 0 0)
(12753.5 0 0)
(12745.9 0 0)
(12738.2 0 0)
(12730.6 0 0)
(12722.9 0 0)
(12715.3 0 0)
(12707.6 0 0)
(12700 0 0)
(12692.3 0 0)
(12684.7 0 0)
(12677.1 0 0)
(12669.5 0 0)
(12661.8 0 0)
(12654.2 0 0)
(12646.6 0 0)
(12639 0 0)
(12631.4 0 0)
(12623.8 0 0)
(12616.2 0 0)
(12608.6 0 0)
(12601 0 0)
(12593.4 0 0)
(12585.8 0 0)
(12578.2 0 0)
(12570.6 0 0)
(12563 0 0)
(12555.4 0 0)
(12547.8 0 0)
(12540.3 0 0)
(12532.7 0 0)
(12525.1 0 0)
(12517.6 0 0)
(12510 0 0)
(12502.4 0 0)
(12494.9 0 0)
(12487.3 0 0)
(12479.8 0 0)
(12472.2 0 0)
(12464.7 0 0)
(12457.2 0 0)
(12449.6 0 0)
(12442.1 0 0)
(12434.6 0 0)
(12427 0 0)
(12419.5 0 0)
(12412 0 0)
(12404.5 0 0)
(12396.9 0 0)
(12389.4 0 0)
(12381.9 0 0)
(12374.4 0 0)
(12366.9 0 0)
(12359.4 0 0)
(12351.9 0 0)
(12344.4 0 0)
(12336.9 0 0)
(12329.4 0 0)
(12321.9 0 0)
(12314.5 0 0)
(12307 0 0)
(12299.5 0 0)
(12292 0 0)
(12284.6 0 0)
(12277.1 0 0)
(12269.6 0 0)
(12262.2 0 0)
(12254.7 0 0)
(12247.3 0 0)
(12239.8 0 0)
(12232.4 0 0)
(12224.9 0 0)
(12217.5 0 0)
(12210 0 0)
(12202.6 0 0)
(12195.2 0 0)
(12187.7 0 0)
(12180.3 0 0)
(12172.9 0 0)
(12165.4 0 0)
(12158 0 0)
(12150.6 0 0)
(12143.2 0 0)
(12135.8 0 0)
(12128.4 0 0)
(12121 0 0)
(12113.6 0 0)
(12106.2 0 0)
(12098.8 0 0)
(12091.4 0 0)
(12084 0 0)
(12076.6 0 0)
(12069.2 0 0)
(12061.9 0 0)
(12054.5 0 0)
(12047.1 0 0)
(12039.7 0 0)
(12032.4 0 0)
(12025 0 0)
(12017.6 0 0)
(12010.3 0 0)
(12002.9 0 0)
(11995.6 0 0)
(11988.2 0 0)
(11980.9 0 0)
(11973.5 0 0)
(11966.2 0 0)
(11958.9 0 0)
(11951.5 0 0)
(11944.2 0 0)
(11936.9 0 0)
(11929.5 0 0)
(11922.2 0 0)
(11914.9 0 0)
(11907.6 0 0)
(11900.3 0 0)
(11893 0 0)
(11885.6 0 0)
(11878.3 0 0)
(11871 0 0)
(11863.7 0 0)
(11856.5 0 0)
(11849.2 0 0)
(11841.9 0 0)
(11834.6 0 0)
(11827.3 0 0)
(11820 0 0)
(11812.7 0 0)
(11805.5 0 0)
(11798.2 0 0)
(11790.9 0 0)
(11783.7 0 0)
(11776.4 0 0)
(11769.1 0 0)
(11761.9 0 0)
(11754.6 0 0)
(11747.4 0 0)
(11740.1 0 0)
(11732.9 0 0)
(11725.7 0 0)
(11718.4 0 0)
(11711.2 0 0)
(11703.9 0 0)
(11696.7 0 0)
(11689.5 0 0)
(11682.3 0 0)
(11675 0 0)
(11667.8 0 0)
(11660.6 0 0)
(11653.4 0 0)
(11646.2 0 0)
(11639 0 0)
(11631.8 0 0)
(11624.6 0 0)
(11617.4 0 0)
(11610.2 0 0)
(11603 0 0)
(11595.8 0 0)
(11588.6 0 0)
(11581.5 0 0)
(11574.3 0 0)
(11567.1 0 0)
(11559.9 0 0)
(11552.8 0 0)
(11545.6 0 0)
(11538.4 0 0)
(11531.3 0 0)
(11524.1 0 0)
(11517 0 0)
(11509.8 0 0)
(11502.7 0 0)
(11495.5 0 0)
(11488.4 0 0)
(11481.2 0 0)
(11474.1 0 0)
(11467 0 0)
(11459.8 0 0)
(11452.7 0 0)
(11445.6 0 0)
(11438.5 0 0)
(11431.3 0 0)
(11424.2 0 0)
(11417.1 0 0)
(11410 0 0)
(11402.9 0 0)
(11395.8 0 0)
(11388.7 0 0)
(11381.6 0 0)
(11374.5 0 0)
(11367.4 0 0)
(11360.3 0 0)
(11353.2 0 0)
(11346.1 0 0)
(11339.1 0 0)
(11332 0 0)
(11324.9 0 0)
(11317.8 0 0)
(11310.8 0 0)
(11303.7 0 0)
(11296.6 0 0)
(11289.6 0 0)
(11282.5 0 0)
(11275.5 0 0)
(11268.4 0 0)
(11261.4 0 0)
(11254.3 0 0)
(11247.3 0 0)
(11240.2 0 0)
(11233.2 0 0)
(11226.2 0 0)
(11219.1 0 0)
(11212.1 0 0)
(11205.1 0 0)
(11198.1 0 0)
(11191.1 0 0)
(11184 0 0)
(11177 0 0)
(11170 0 0)
(11163 0 0)
(11156 0 0)
(11149 0 0)
(11142 0 0)
(11135 0 0)
(11128 0 0)
(11121 0 0)
(11114 0 0)
(11107.1 0 0)
(11100.1 0 0)
(11093.1 0 0)
(11086.1 0 0)
(11079.2 0 0)
(11072.2 0 0)
(11065.2 0 0)
(11058.3 0 0)
(11051.3 0 0)
(11044.3 0 0)
(11037.4 0 0)
(11030.4 0 0)
(11023.5 0 0)
(11016.5 0 0)
(11009.6 0 0)
(11002.7 0 0)
(10995.7 0 0)
(10988.8 0 0)
(10981.9 0 0)
(10974.9 0 0)
(10968 0 0)
(10961.1 0 0)
(10954.2 0 0)
(10947.3 0 0)
(10940.3 0 0)
(10933.4 0 0)
(10926.5 0 0)
(10919.6 0 0)
(10912.7 0 0)
(10905.8 0 0)
(10898.9 0 0)
(10892 0 0)
(10885.2 0 0)
(10878.3 0 0)
(10871.4 0 0)
(10864.5 0 0)
(10857.6 0 0)
(10850.8 0 0)
(10843.9 0 0)
(10837 0 0)
(10830.1 0 0)
(10823.3 0 0)
(10816.4 0 0)
(10809.6 0 0)
(10802.7 0 0)
(10795.9 0 0)
(10789 0 0)
(10782.2 0 0)
(10775.3 0 0)
(10768.5 0 0)
(10761.6 0 0)
(10754.8 0 0)
(10748 0 0)
(10741.2 0 0)
(10734.3 0 0)
(10727.5 0 0)
(10720.7 0 0)
(10713.9 0 0)
(10707.1 0 0)
(10700.2 0 0)
(10693.4 0 0)
(10686.6 0 0)
(10679.8 0 0)
(10673 0 0)
(10666.2 0 0)
(10659.4 0 0)
(10652.7 0 0)
(10645.9 0 0)
(10639.1 0 0)
(10632.3 0 0)
(10625.5 0 0)
(10618.7 0 0)
(10612 0 0)
(10605.2 0 0)
(10598.4 0 0)
(10591.7 0 0)
(10584.9 0 0)
(10578.1 0 0)
(10571.4 0 0)
(10564.6 0 0)
(10557.9 0 0)
(10551.1 0 0)
(10544.4 0 0)
(10537.7 0 0)
(10530.9 0 0)
(10524.2 0 0)
(10517.5 0 0)
(10510.7 0 0)
(10504 0 0)
(10497.3 0 0)
(10490.5 0 0)
(10483.8 0 0)
(10477.1 0 0)
(10470.4 0 0)
(10463.7 0 0)
(10457 0 0)
(10450.3 0 0)
(10443.6 0 0)
(10436.9 0 0)
(10430.2 0 0)
(10423.5 0 0)
(10416.8 0 0)
(10410.1 0 0)
(10403.4 0 0)
(10396.8 0 0)
(10390.1 0 0)
(10383.4 0 0)
(10376.7 0 0)
(10370.1 0 0)
(10363.4 0 0)
(10356.7 0 0)
(10350.1 0 0)
(10343.4 0 0)
(10336.8 0 0)
(10330.1 0 0)
(10323.5 0 0)
(10316.8 0 0)
(10310.2 0 0)
(10303.5 0 0)
(10296.9 0 0)
(10290.3 0 0)
(10283.6 0 0)
(10277 0 0)
(10270.4 0 0)
(10263.7 0 0)
(10257.1 0 0)
(10250.5 0 0)
(10243.9 0 0)
(10237.3 0 0)
(10230.7 0 0)
(10224.1 0 0)
(10217.5 0 0)
(10210.9 0 0)
(10204.3 0 0)
(10197.7 0 0)
(10191.1 0 0)
(10184.5 0 0)
(10177.9 0 0)
(10171.3 0 0)
(10164.7 0 0)
(10158.2 0 0)
(10151.6 0 0)
(10145 0 0)
(10138.4 0 0)
(10131.9 0 0)
(10125.3 0 0)
(10118.7 0 0)
(10112.2 0 0)
(10105.6 0 0)
(10099.1 0 0)
(10092.5 0 0)
(10086 0 0)
(10079.4 0 0)
(10072.9 0 0)
(10066.4 0 0)
(10059.8 0 0)
(10053.3 0 0)
(10046.8 0 0)
(10040.2 0 0)
(10033.7 0 0)
(10027.2 0 0)
(10020.7 0 0)
(10014.2 0 0)
(10007.6 0 0)
(10001.1 0 0)
(9994.63 0 0)
(9988.13 0 0)
(9981.63 0 0)
(9975.13 0 0)
(9968.63 0 0)
(9962.14 0 0)
(9955.65 0 0)
(9949.16 0 0)
(9942.68 0 0)
(9936.2 0 0)
(9929.72 0 0)
(9923.24 0 0)
(9916.77 0 0)
(9910.3 0 0)
(9903.83 0 0)
(9897.37 0 0)
(9890.91 0 0)
(9884.45 0 0)
(9877.99 0 0)
(9871.54 0 0)
(9865.09 0 0)
(9858.64 0 0)
(9852.2 0 0)
(9845.75 0 0)
(9839.31 0 0)
(9832.88 0 0)
(9826.44 0 0)
(9820.01 0 0)
(9813.59 0 0)
(9807.16 0 0)
(9800.74 0 0)
(9794.32 0 0)
(9787.9 0 0)
(9781.49 0 0)
(9775.08 0 0)
(9768.67 0 0)
(9762.26 0 0)
(9755.86 0 0)
(9749.46 0 0)
(9743.06 0 0)
(9736.67 0 0)
(9730.28 0 0)
(9723.89 0 0)
(9717.5 0 0)
(9711.12 0 0)
(9704.74 0 0)
(9698.36 0 0)
(9691.99 0 0)
(9685.62 0 0)
(9679.25 0 0)
(9672.88 0 0)
(9666.52 0 0)
(9660.16 0 0)
(9653.8 0 0)
(9647.44 0 0)
(9641.09 0 0)
(9634.74 0 0)
(9628.4 0 0)
(9622.05 0 0)
(9615.71 0 0)
(9609.37 0 0)
(9603.04 0 0)
(9596.7 0 0)
(9590.37 0 0)
(9584.05 0 0)
(9577.72 0 0)
(9571.4 0 0)
(9565.08 0 0)
(9558.77 0 0)
(9552.45 0 0)
(9546.14 0 0)
(9539.83 0 0)
(9533.53 0 0)
(9527.23 0 0)
(9520.93 0 0)
(9514.63 0 0)
(9508.34 0 0)
(9502.05 0 0)
(9495.76 0 0)
(9489.47 0 0)
(9483.19 0 0)
(9476.91 0 0)
(9470.63 0 0)
(9464.36 0 0)
(9458.09 0 0)
(9451.82 0 0)
(9445.55 0 0)
(9439.29 0 0)
(9433.03 0 0)
(9426.77 0 0)
(9420.52 0 0)
(9414.26 0 0)
(9408.01 0 0)
(9401.77 0 0)
(9395.52 0 0)
(9389.28 0 0)
(9383.04 0 0)
(9376.81 0 0)
(9370.58 0 0)
(9364.35 0 0)
(9358.12 0 0)
(9351.89 0 0)
(9345.67 0 0)
(9339.45 0 0)
(9333.24 0 0)
(9327.02 0 0)
(9320.81 0 0)
(9314.6 0 0)
(9308.4 0 0)
(9302.2 0 0)
(9296 0 0)
(9289.8 0 0)
(9283.61 0 0)
(9277.41 0 0)
(9271.23 0 0)
(9265.04 0 0)
(9258.86 0 0)
(9252.68 0 0)
(9246.5 0 0)
(9240.32 0 0)
(9234.15 0 0)
(9227.98 0 0)
(9221.82 0 0)
(9215.65 0 0)
(9209.49 0 0)
(9203.33 0 0)
(9197.18 0 0)
(9191.02 0 0)
(9184.87 0 0)
(9178.72 0 0)
(9172.58 0 0)
(9166.44 0 0)
(9160.3 0 0)
(9154.16 0 0)
(9148.03 0 0)
(9141.9 0 0)
(9135.77 0 0)
(9129.64 0 0)
(9123.52 0 0)
(9117.4 0 0)
(9111.28 0 0)
(9105.17 0 0)
(9099.06 0 0)
(9092.95 0 0)
(9086.84 0 0)
(9080.74 0 0)
(9074.64 0 0)
(9068.54 0 0)
(9062.44 0 0)
(9056.35 0 0)
(9050.26 0 0)
(9044.17 0 0)
(9038.09 0 0)
(9032.01 0 0)
(9025.93 0 0)
(9019.85 0 0)
(9013.78 0 0)
(9007.7 0 0)
(9001.64 0 0)
(8995.57 0 0)
(8989.51 0 0)
(8983.45 0 0)
(8977.39 0 0)
(8971.34 0 0)
(8965.28 0 0)
(8959.23 0 0)
(8953.19 0 0)
(8947.14 0 0)
(8941.1 0 0)
(8935.06 0 0)
(8929.03 0 0)
(8923 0 0)
(8916.97 0 0)
(8910.94 0 0)
(8904.91 0 0)
(8898.89 0 0)
(8892.87 0 0)
(8886.85 0 0)
(8880.84 0 0)
(8874.83 0 0)
(8868.82 0 0)
(8862.82 0 0)
(8856.81 0 0)
(8850.81 0 0)
(8844.81 0 0)
(8838.82 0 0)
(8832.83 0 0)
(8826.84 0 0)
(8820.85 0 0)
(8814.87 0 0)
(8808.88 0 0)
(8802.9 0 0)
(8796.93 0 0)
(8790.96 0 0)
(8784.98 0 0)
(8779.02 0 0)
(8773.05 0 0)
(8767.09 0 0)
(8761.13 0 0)
(8755.17 0 0)
(8749.22 0 0)
(8743.26 0 0)
(8737.32 0 0)
(8731.37 0 0)
(8725.43 0 0)
(8719.48 0 0)
(8713.55 0 0)
(8707.61 0 0)
(8701.68 0 0)
(8695.75 0 0)
(8689.82 0 0)
(8683.89 0 0)
(8677.97 0 0)
(8672.05 0 0)
(8666.13 0 0)
(8660.22 0 0)
(8654.31 0 0)
(8648.4 0 0)
(8642.49 0 0)
(8636.59 0 0)
(8630.69 0 0)
(8624.79 0 0)
(8618.9 0 0)
(8613 0 0)
(8607.11 0 0)
(8601.23 0 0)
(8595.34 0 0)
(8589.46 0 0)
(8583.58 0 0)
(8577.7 0 0)
(8571.83 0 0)
(8565.96 0 0)
(8560.09 0 0)
(8554.22 0 0)
(8548.36 0 0)
(8542.5 0 0)
(8536.64 0 0)
(8530.78 0 0)
(8524.93 0 0)
(8519.08 0 0)
(8513.23 0 0)
(8507.39 0 0)
(8501.55 0 0)
(8495.71 0 0)
(8489.87 0 0)
(8484.04 0 0)
(8478.2 0 0)
(8472.38 0 0)
(8466.55 0 0)
(8460.73 0 0)
(8454.91 0 0)
(8449.09 0 0)
(8443.27 0 0)
(8437.46 0 0)
(8431.65 0 0)
(8425.84 0 0)
(8420.04 0 0)
(8414.23 0 0)
(8408.43 0 0)
(8402.64 0 0)
(8396.84 0 0)
(8391.05 0 0)
(8385.26 0 0)
(8379.48 0 0)
(8373.69 0 0)
(8367.91 0 0)
(8362.13 0 0)
(8356.36 0 0)
(8350.59 0 0)
(8344.81 0 0)
(8339.05 0 0)
(8333.28 0 0)
(8327.52 0 0)
(8321.76 0 0)
(8316 0 0)
(8310.25 0 0)
(8304.5 0 0)
(8298.75 0 0)
(8293 0 0)
(8287.26 0 0)
(8281.51 0 0)
(8275.78 0 0)
(8270.04 0 0)
(8264.31 0 0)
(8258.58 0 0)
(8252.85 0 0)
(8247.12 0 0)
(8241.4 0 0)
(8235.68 0 0)
(8229.96 0 0)
(8224.25 0 0)
(8218.53 0 0)
(8212.82 0 0)
(8207.12 0 0)
(8201.41 0 0)
(8195.71 0 0)
(8190.01 0 0)
(8184.31 0 0)
(8178.62 0 0)
(8172.93 0 0)
(8167.24 0 0)
(8161.55 0 0)
(8155.87 0 0)
(8150.19 0 0)
(8144.51 0 0)
(8138.84 0 0)
(8133.16 0 0)
(8127.49 0 0)
(8121.83 0 0)
(8116.16 0 0)
(8110.5 0 0)
(8104.84 0 0)
(8099.18 0 0)
(8093.53 0 0)
(8087.87 0 0)
(8082.22 0 0)
(8076.58 0 0)
(8070.93 0 0)
(8065.29 0 0)
(8059.65 0 0)
(8054.02 0 0)
(8048.38 0 0)
(8042.75 0 0)
(8037.12 0 0)
(8031.5 0 0)
(8025.87 0 0)
(8020.25 0 0)
(8014.63 0 0)
(8009.02 0 0)
(8003.41 0 0)
(7997.8 0 0)
(7992.19 0 0)
(7986.58 0 0)
(7980.98 0 0)
(7975.38 0 0)
(7969.78 0 0)
(7964.19 0 0)
(7958.6 0 0)
(7953.01 0 0)
(7947.42 0 0)
(7941.84 0 0)
(7936.25 0 0)
(7930.68 0 0)
(7925.1 0 0)
(7919.52 0 0)
(7913.95 0 0)
(7908.38 0 0)
(7902.82 0 0)
(7897.26 0 0)
(7891.69 0 0)
(7886.14 0 0)
(7880.58 0 0)
(7875.03 0 0)
(7869.48 0 0)
(7863.93 0 0)
(7858.38 0 0)
(7852.84 0 0)
(7847.3 0 0)
(7841.76 0 0)
(7836.23 0 0)
(7830.69 0 0)
(7825.16 0 0)
(7819.64 0 0)
(7814.11 0 0)
(7808.59 0 0)
(7803.07 0 0)
(7797.55 0 0)
(7792.04 0 0)
(7786.53 0 0)
(7781.02 0 0)
(7775.51 0 0)
(7770.01 0 0)
(7764.51 0 0)
(7759.01 0 0)
(7753.51 0 0)
(7748.02 0 0)
(7742.53 0 0)
(7737.04 0 0)
(7731.55 0 0)
(7726.07 0 0)
(7720.59 0 0)
(7715.11 0 0)
(7709.63 0 0)
(7704.16 0 0)
(7698.69 0 0)
(7693.22 0 0)
(7687.75 0 0)
(7682.29 0 0)
(7676.83 0 0)
(7671.37 0 0)
(7665.92 0 0)
(7660.47 0 0)
(7655.01 0 0)
(7649.57 0 0)
(7644.12 0 0)
(7638.68 0 0)
(7633.24 0 0)
(7627.8 0 0)
(7622.37 0 0)
(7616.94 0 0)
(7611.51 0 0)
(7606.08 0 0)
(7600.65 0 0)
(7595.23 0 0)
(7589.81 0 0)
(7584.4 0 0)
(7578.98 0 0)
(7573.57 0 0)
(7568.16 0 0)
(7562.75 0 0)
(7557.35 0 0)
(7551.95 0 0)
(7546.55 0 0)
(7541.15 0 0)
(7535.76 0 0)
(7530.37 0 0)
(7524.98 0 0)
(7519.59 0 0)
(7514.21 0 0)
(7508.83 0 0)
(7503.45 0 0)
(7498.07 0 0)
(7492.7 0 0)
(7487.33 0 0)
(7481.96 0 0)
(7476.59 0 0)
(7471.23 0 0)
(7465.87 0 0)
(7460.51 0 0)
(7455.15 0 0)
(7449.8 0 0)
(7444.45 0 0)
(7439.1 0 0)
(7433.76 0 0)
(7428.41 0 0)
(7423.07 0 0)
(7417.73 0 0)
(7412.4 0 0)
(7407.07 0 0)
(7401.73 0 0)
(7396.41 0 0)
(7391.08 0 0)
(7385.76 0 0)
(7380.44 0 0)
(7375.12 0 0)
(7369.8 0 0)
(7364.49 0 0)
(7359.18 0 0)
(7353.87 0 0)
(7348.57 0 0)
(7343.27 0 0)
(7337.97 0 0)
(7332.67 0 0)
(7327.37 0 0)
(7322.08 0 0)
(7316.79 0 0)
(7311.5 0 0)
(7306.22 0 0)
(7300.93 0 0)
(7295.65 0 0)
(7290.38 0 0)
(7285.1 0 0)
(7279.83 0 0)
(7274.56 0 0)
(7269.29 0 0)
(7264.03 0 0)
(7258.77 0 0)
(7253.51 0 0)
(7248.25 0 0)
(7242.99 0 0)
(7237.74 0 0)
(7232.49 0 0)
(7227.24 0 0)
(7222 0 0)
(7216.76 0 0)
(7211.52 0 0)
(7206.28 0 0)
(7201.04 0 0)
(7195.81 0 0)
(7190.58 0 0)
(7185.35 0 0)
(7180.13 0 0)
(7174.91 0 0)
(7169.69 0 0)
(7164.47 0 0)
(7159.25 0 0)
(7154.04 0 0)
(7148.83 0 0)
(7143.63 0 0)
(7138.42 0 0)
(7133.22 0 0)
(7128.02 0 0)
(7122.82 0 0)
(7117.63 0 0)
(7112.43 0 0)
(7107.24 0 0)
(7102.06 0 0)
(7096.87 0 0)
(7091.69 0 0)
(7086.51 0 0)
(7081.33 0 0)
(7076.16 0 0)
(7070.98 0 0)
(7065.81 0 0)
(7060.65 0 0)
(7055.48 0 0)
(7050.32 0 0)
(7045.16 0 0)
(7040 0 0)
(7034.85 0 0)
(7029.69 0 0)
(7024.54 0 0)
(7019.4 0 0)
(7014.25 0 0)
(7009.11 0 0)
(7003.97 0 0)
(6998.83 0 0)
(6993.7 0 0)
(6988.56 0 0)
(6983.43 0 0)
(6978.3 0 0)
(6973.18 0 0)
(6968.06 0 0)
(6962.94 0 0)
(6957.82 0 0)
(6952.7 0 0)
(6947.59 0 0)
(6942.48 0 0)
(6937.37 0 0)
(6932.27 0 0)
(6927.16 0 0)
(6922.06 0 0)
(6916.96 0 0)
(6911.87 0 0)
(6906.78 0 0)
(6901.68 0 0)
(6896.6 0 0)
(6891.51 0 0)
(6886.43 0 0)
(6881.35 0 0)
(6876.27 0 0)
(6871.19 0 0)
(6866.12 0 0)
(6861.05 0 0)
(6855.98 0 0)
(6850.91 0 0)
(6845.85 0 0)
(6840.79 0 0)
(6835.73 0 0)
(6830.67 0 0)
(6825.62 0 0)
(6820.57 0 0)
(6815.52 0 0)
(6810.47 0 0)
(6805.43 0 0)
(6800.39 0 0)
(6795.35 0 0)
(6790.31 0 0)
(6785.28 0 0)
(6780.24 0 0)
(6775.22 0 0)
(6770.19 0 0)
(6765.16 0 0)
(6760.14 0 0)
(6755.12 0 0)
(6750.11 0 0)
(6745.09 0 0)
(6740.08 0 0)
(6735.07 0 0)
(6730.06 0 0)
(6725.06 0 0)
(6720.05 0 0)
(6715.05 0 0)
(6710.06 0 0)
(6705.06 0 0)
(6700.07 0 0)
(6695.08 0 0)
(6690.09 0 0)
(6685.11 0 0)
(6680.12 0 0)
(6675.14 0 0)
(6670.16 0 0)
(6665.19 0 0)
(6660.22 0 0)
(6655.24 0 0)
(6650.28 0 0)
(6645.31 0 0)
(6640.35 0 0)
(6635.39 0 0)
(6630.43 0 0)
(6625.47 0 0)
(6620.52 0 0)
(6615.57 0 0)
(6610.62 0 0)
(6605.67 0 0)
(6600.73 0 0)
(6595.79 0 0)
(6590.85 0 0)
(6585.91 0 0)
(6580.98 0 0)
(6576.04 0 0)
(6571.11 0 0)
(6566.19 0 0)
(6561.26 0 0)
(6556.34 0 0)
(6551.42 0 0)
(6546.5 0 0)
(6541.59 0 0)
(6536.68 0 0)
(6531.77 0 0)
(6526.86 0 0)
(6521.95 0 0)
(6517.05 0 0)
(6512.15 0 0)
(6507.25 0 0)
(6502.36 0 0)
(6497.46 0 0)
(6492.57 0 0)
(6487.68 0 0)
(6482.8 0 0)
(6477.91 0 0)
(6473.03 0 0)
(6468.15 0 0)
(6463.28 0 0)
(6458.4 0 0)
(6453.53 0 0)
(6448.66 0 0)
(6443.8 0 0)
(6438.93 0 0)
(6434.07 0 0)
(6429.21 0 0)
(6424.35 0 0)
(6419.5 0 0)
(6414.65 0 0)
(6409.8 0 0)
(6404.95 0 0)
(6400.1 0 0)
(6395.26 0 0)
(6390.42 0 0)
(6385.58 0 0)
(6380.75 0 0)
(6375.91 0 0)
(6371.08 0 0)
(6366.25 0 0)
(6361.43 0 0)
(6356.6 0 0)
(6351.78 0 0)
(6346.96 0 0)
(6342.15 0 0)
(6337.33 0 0)
(6332.52 0 0)
(6327.71 0 0)
(6322.91 0 0)
(6318.1 0 0)
(6313.3 0 0)
(6308.5 0 0)
(6303.7 0 0)
(6298.91 0 0)
(6294.12 0 0)
(6289.33 0 0)
(6284.54 0 0)
(6279.75 0 0)
(6274.97 0 0)
(6270.19 0 0)
(6265.41 0 0)
(6260.63 0 0)
(6255.86 0 0)
(6251.09 0 0)
(6246.32 0 0)
(6241.55 0 0)
(6236.79 0 0)
(6232.03 0 0)
(6227.27 0 0)
(6222.51 0 0)
(6217.76 0 0)
(6213.01 0 0)
(6208.26 0 0)
(6203.51 0 0)
(6198.76 0 0)
(6194.02 0 0)
(6189.28 0 0)
(6184.54 0 0)
(6179.81 0 0)
(6175.08 0 0)
(6170.34 0 0)
(6165.62 0 0)
(6160.89 0 0)
(6156.17 0 0)
(6151.45 0 0)
(6146.73 0 0)
(6142.01 0 0)
(6137.3 0 0)
(6132.58 0 0)
(6127.87 0 0)
(6123.17 0 0)
(6118.46 0 0)
(6113.76 0 0)
(6109.06 0 0)
(6104.36 0 0)
(6099.67 0 0)
(6094.97 0 0)
(6090.28 0 0)
(6085.59 0 0)
(6080.91 0 0)
(6076.23 0 0)
(6071.54 0 0)
(6066.87 0 0)
(6062.19 0 0)
(6057.51 0 0)
(6052.84 0 0)
(6048.17 0 0)
(6043.51 0 0)
(6038.84 0 0)
(6034.18 0 0)
(6029.52 0 0)
(6024.86 0 0)
(6020.21 0 0)
(6015.55 0 0)
(6010.9 0 0)
(6006.25 0 0)
(6001.61 0 0)
(5996.96 0 0)
(5992.32 0 0)
(5987.68 0 0)
(5983.05 0 0)
(5978.41 0 0)
(5973.78 0 0)
(5969.15 0 0)
(5964.52 0 0)
(5959.9 0 0)
(5955.28 0 0)
(5950.66 0 0)
(5946.04 0 0)
(5941.42 0 0)
(5936.81 0 0)
(5932.2 0 0)
(5927.59 0 0)
(5922.98 0 0)
(5918.38 0 0)
(5913.78 0 0)
(5909.18 0 0)
(5904.58 0 0)
(5899.99 0 0)
(5895.4 0 0)
(5890.81 0 0)
(5886.22 0 0)
(5881.63 0 0)
(5877.05 0 0)
(5872.47 0 0)
(5867.89 0 0)
(5863.31 0 0)
(5858.74 0 0)
(5854.17 0 0)
(5849.6 0 0)
(5845.03 0 0)
(5840.47 0 0)
(5835.91 0 0)
(5831.35 0 0)
(5826.79 0 0)
(5822.23 0 0)
(5817.68 0 0)
(5813.13 0 0)
(5808.58 0 0)
(5804.04 0 0)
(5799.49 0 0)
(5794.95 0 0)
(5790.41 0 0)
(5785.88 0 0)
(5781.34 0 0)
(5776.81 0 0)
(5772.28 0 0)
(5767.75 0 0)
(5763.23 0 0)
(5758.71 0 0)
(5754.19 0 0)
(5749.67 0 0)
(5745.15 0 0)
(5740.64 0 0)
(5736.13 0 0)
(5731.62 0 0)
(5727.11 0 0)
(5722.61 0 0)
(5718.11 0 0)
(5713.61 0 0)
(5709.11 0 0)
(5704.61 0 0)
(5700.12 0 0)
(5695.63 0 0)
(5691.14 0 0)
(5686.66 0 0)
(5682.17 0 0)
(5677.69 0 0)
(5673.21 0 0)
(5668.74 0 0)
(5664.26 0 0)
(5659.79 0 0)
(5655.32 0 0)
(5650.85 0 0)
(5646.39 0 0)
(5641.92 0 0)
(5637.46 0 0)
(5633 0 0)
(5628.55 0 0)
(5624.1 0 0)
(5619.64 0 0)
(5615.19 0 0)
(5610.75 0 0)
(5606.3 0 0)
(5601.86 0 0)
(5597.42 0 0)
(5592.98 0 0)
(5588.55 0 0)
(5584.11 0 0)
(5579.68 0 0)
(5575.25 0 0)
(5570.83 0 0)
(5566.4 0 0)
(5561.98 0 0)
(5557.56 0 0)
(5553.15 0 0)
(5548.73 0 0)
(5544.32 0 0)
(5539.91 0 0)
(5535.5 0 0)
(5531.09 0 0)
(5526.69 0 0)
(5522.29 0 0)
(5517.89 0 0)
(5513.49 0 0)
(5509.1 0 0)
(5504.71 0 0)
(5500.32 0 0)
(5495.93 0 0)
(5491.54 0 0)
(5487.16 0 0)
(5482.78 0 0)
(5478.4 0 0)
(5474.03 0 0)
(5469.65 0 0)
(5465.28 0 0)
(5460.91 0 0)
(5456.54 0 0)
(5452.18 0 0)
(5447.82 0 0)
(5443.45 0 0)
(5439.1 0 0)
(5434.74 0 0)
(5430.39 0 0)
(5426.04 0 0)
(5421.69 0 0)
(5417.34 0 0)
(5412.99 0 0)
(5408.65 0 0)
(5404.31 0 0)
(5399.97 0 0)
(5395.64 0 0)
(5391.31 0 0)
(5386.97 0 0)
(5382.65 0 0)
(5378.32 0 0)
(5373.99 0 0)
(5369.67 0 0)
(5365.35 0 0)
(5361.04 0 0)
(5356.72 0 0)
(5352.41 0 0)
(5348.1 0 0)
(5343.79 0 0)
(5339.48 0 0)
(5335.18 0 0)
(5330.88 0 0)
(5326.58 0 0)
(5322.28 0 0)
(5317.98 0 0)
(5313.69 0 0)
(5309.4 0 0)
(5305.11 0 0)
(5300.83 0 0)
(5296.54 0 0)
(5292.26 0 0)
(5287.98 0 0)
(5283.7 0 0)
(5279.43 0 0)
(5275.16 0 0)
(5270.89 0 0)
(5266.62 0 0)
(5262.35 0 0)
(5258.09 0 0)
(5253.83 0 0)
(5249.57 0 0)
(5245.31 0 0)
(5241.06 0 0)
(5236.8 0 0)
(5232.55 0 0)
(5228.3 0 0)
(5224.06 0 0)
(5219.81 0 0)
(5215.57 0 0)
(5211.33 0 0)
(5207.1 0 0)
(5202.86 0 0)
(5198.63 0 0)
(5194.4 0 0)
(5190.17 0 0)
(5185.95 0 0)
(5181.72 0 0)
(5177.5 0 0)
(5173.28 0 0)
(5169.06 0 0)
(5164.85 0 0)
(5160.64 0 0)
(5156.43 0 0)
(5152.22 0 0)
(5148.01 0 0)
(5143.81 0 0)
(5139.61 0 0)
(5135.41 0 0)
(5131.21 0 0)
(5127.02 0 0)
(5122.83 0 0)
(5118.63 0 0)
(5114.45 0 0)
(5110.26 0 0)
(5106.08 0 0)
(5101.9 0 0)
(5097.72 0 0)
(5093.54 0 0)
(5089.36 0 0)
(5085.19 0 0)
(5081.02 0 0)
(5076.85 0 0)
(5072.69 0 0)
(5068.52 0 0)
(5064.36 0 0)
(5060.2 0 0)
(5056.05 0 0)
(5051.89 0 0)
(5047.74 0 0)
(5043.59 0 0)
(5039.44 0 0)
(5035.29 0 0)
(5031.15 0 0)
(5027.01 0 0)
(5022.87 0 0)
(5018.73 0 0)
(5014.6 0 0)
(5010.46 0 0)
(5006.33 0 0)
(5002.2 0 0)
(4998.08 0 0)
(4993.95 0 0)
(4989.83 0 0)
(4985.71 0 0)