/*--------------------------------*- C++ -*----------------------------------*\
  =========                 |
  \\      /  F ield         | OpenFOAM: The Open Source CFD Toolbox
   \\    /   O peration     | Website:  https://openfoam.org
    \\  /    A nd           | Version:  9
     \\/     M anipulation  |
\*---------------------------------------------------------------------------*/
FoamFile
{
    format      ascii;
    class       volScalarField;
    location    "0.014";
    object      rho_0;
}
// * * * * * * * * * * * * * * * * * * * * * * * * * * * * * * * * * * * * * //

dimensions      [1 -3 0 0 0 0 0];

internalField   nonuniform List<scalar> 
10000
(
0.921477
0.921464
0.921461
0.921458
0.921456
0.921453
0.921451
0.921448
0.921445
0.921443
0.92144
0.921437
0.921435
0.921432
0.921429
0.921426
0.921423
0.92142
0.921417
0.921414
0.921411
0.921408
0.921405
0.921402
0.921399
0.921396
0.921393
0.92139
0.921386
0.921383
0.92138
0.921376
0.921373
0.92137
0.921366
0.921363
0.921359
0.921356
0.921352
0.921349
0.921345
0.921341
0.921338
0.921334
0.92133
0.921326
0.921323
0.921319
0.921315
0.921311
0.921307
0.921303
0.921299
0.921295
0.921291
0.921287
0.921283
0.921278
0.921274
0.92127
0.921266
0.921261
0.921257
0.921253
0.921248
0.921244
0.921239
0.921235
0.92123
0.921226
0.921221
0.921216
0.921212
0.921207
0.921202
0.921197
0.921192
0.921188
0.921183
0.921178
0.921173
0.921168
0.921163
0.921158
0.921152
0.921147
0.921142
0.921137
0.921132
0.921126
0.921121
0.921115
0.92111
0.921105
0.921099
0.921094
0.921088
0.921082
0.921077
0.921071
0.921065
0.921059
0.921054
0.921048
0.921042
0.921036
0.92103
0.921024
0.921018
0.921012
0.921006
0.920999
0.920993
0.920987
0.92098
0.920974
0.920968
0.920961
0.920955
0.920948
0.920942
0.920935
0.920928
0.920922
0.920915
0.920908
0.920901
0.920894
0.920887
0.92088
0.920873
0.920866
0.920859
0.920852
0.920844
0.920837
0.92083
0.920822
0.920815
0.920807
0.9208
0.920792
0.920784
0.920777
0.920769
0.920761
0.920753
0.920745
0.920737
0.920729
0.920721
0.920713
0.920705
0.920696
0.920688
0.920679
0.920671
0.920662
0.920654
0.920645
0.920636
0.920627
0.920618
0.920609
0.9206
0.920591
0.920582
0.920572
0.920563
0.920553
0.920544
0.920534
0.920524
0.920515
0.920505
0.920495
0.920485
0.920474
0.920464
0.920454
0.920443
0.920432
0.920422
0.920411
0.9204
0.920389
0.920377
0.920366
0.920355
0.920343
0.920331
0.920319
0.920307
0.920295
0.920283
0.92027
0.920258
0.920245
0.920232
0.920218
0.920205
0.920191
0.920178
0.920164
0.920149
0.920135
0.92012
0.920105
0.92009
0.920074
0.920059
0.920043
0.920026
0.92001
0.919993
0.919975
0.919957
0.919939
0.919921
0.919902
0.919883
0.919863
0.919843
0.919822
0.919801
0.919779
0.919757
0.919734
0.91971
0.919686
0.919661
0.919635
0.919609
0.919582
0.919554
0.919525
0.919495
0.919464
0.919432
0.919399
0.919365
0.919329
0.919292
0.919254
0.919215
0.919174
0.919132
0.919087
0.919042
0.918994
0.918945
0.918893
0.91884
0.918784
0.918727
0.918667
0.918605
0.91854
0.918473
0.918403
0.918331
0.918256
0.918179
0.918099
0.918016
0.917931
0.917842
0.917751
0.917657
0.917561
0.917462
0.91736
0.917255
0.917148
0.917039
0.916926
0.916812
0.916695
0.916576
0.916455
0.916332
0.916207
0.916081
0.915952
0.915822
0.91569
0.915557
0.915423
0.915287
0.91515
0.915013
0.914874
0.914734
0.914594
0.914453
0.914311
0.914168
0.914025
0.913882
0.913738
0.913594
0.913449
0.913304
0.913159
0.913013
0.912868
0.912722
0.912576
0.91243
0.912284
0.912137
0.911991
0.911844
0.911698
0.911551
0.911405
0.911258
0.911111
0.910964
0.910818
0.910671
0.910524
0.910378
0.910231
0.910084
0.909937
0.909791
0.909644
0.909497
0.909351
0.909204
0.909057
0.908911
0.908764
0.908617
0.908471
0.908324
0.908178
0.908031
0.907885
0.907738
0.907592
0.907445
0.907299
0.907152
0.907006
0.906859
0.906713
0.906567
0.90642
0.906274
0.906128
0.905981
0.905835
0.905689
0.905543
0.905396
0.90525
0.905104
0.904958
0.904812
0.904665
0.904519
0.904373
0.904227
0.904081
0.903935
0.903789
0.903643
0.903497
0.903351
0.903205
0.903059
0.902913
0.902767
0.902621
0.902476
0.90233
0.902184
0.902038
0.901892
0.901747
0.901601
0.901455
0.901309
0.901164
0.901018
0.900872
0.900727
0.900581
0.900435
0.90029
0.900144
0.899999
0.899853
0.899708
0.899562
0.899417
0.899271
0.899126
0.89898
0.898835
0.89869
0.898544
0.898399
0.898254
0.898108
0.897963
0.897818
0.897672
0.897527
0.897382
0.897237
0.897092
0.896946
0.896801
0.896656
0.896511
0.896366
0.896221
0.896076
0.895931
0.895786
0.895641
0.895496
0.895351
0.895206
0.895061
0.894916
0.894771
0.894626
0.894481
0.894337
0.894192
0.894047
0.893902
0.893757
0.893613
0.893468
0.893323
0.893178
0.893034
0.892889
0.892744
0.8926
0.892455
0.892311
0.892166
0.892022
0.891877
0.891733
0.891588
0.891444
0.891299
0.891155
0.89101
0.890866
0.890721
0.890577
0.890433
0.890288
0.890144
0.89
0.889856
0.889711
0.889567
0.889423
0.889279
0.889134
0.88899
0.888846
0.888702
0.888558
0.888414
0.88827
0.888126
0.887982
0.887838
0.887694
0.88755
0.887406
0.887262
0.887118
0.886974
0.88683
0.886686
0.886542
0.886398
0.886255
0.886111
0.885967
0.885823
0.885679
0.885536
0.885392
0.885248
0.885105
0.884961
0.884817
0.884674
0.88453
0.884387
0.884243
0.884099
0.883956
0.883812
0.883669
0.883525
0.883382
0.883239
0.883095
0.882952
0.882808
0.882665
0.882522
0.882378
0.882235
0.882092
0.881948
0.881805
0.881662
0.881519
0.881376
0.881232
0.881089
0.880946
0.880803
0.88066
0.880517
0.880374
0.880231
0.880088
0.879945
0.879802
0.879659
0.879516
0.879373
0.87923
0.879087
0.878944
0.878801
0.878658
0.878515
0.878373
0.87823
0.878087
0.877944
0.877802
0.877659
0.877516
0.877373
0.877231
0.877088
0.876945
0.876803
0.87666
0.876518
0.876375
0.876233
0.87609
0.875948
0.875805
0.875663
0.87552
0.875378
0.875235
0.875093
0.87495
0.874808
0.874666
0.874523
0.874381
0.874239
0.874097
0.873954
0.873812
0.87367
0.873528
0.873386
0.873243
0.873101
0.872959
0.872817
0.872675
0.872533
0.872391
0.872249
0.872107
0.871965
0.871823
0.871681
0.871539
0.871397
0.871255
0.871113
0.870971
0.870829
0.870688
0.870546
0.870404
0.870262
0.87012
0.869979
0.869837
0.869695
0.869554
0.869412
0.86927
0.869129
0.868987
0.868845
0.868704
0.868562
0.868421
0.868279
0.868138
0.867996
0.867855
0.867713
0.867572
0.86743
0.867289
0.867148
0.867006
0.866865
0.866724
0.866582
0.866441
0.8663
0.866158
0.866017
0.865876
0.865735
0.865594
0.865452
0.865311
0.86517
0.865029
0.864888
0.864747
0.864606
0.864465
0.864324
0.864183
0.864042
0.863901
0.86376
0.863619
0.863478
0.863337
0.863196
0.863055
0.862915
0.862774
0.862633
0.862492
0.862351
0.862211
0.86207
0.861929
0.861789
0.861648
0.861507
0.861367
0.861226
0.861085
0.860945
0.860804
0.860664
0.860523
0.860383
0.860242
0.860102
0.859961
0.859821
0.85968
0.85954
0.8594
0.859259
0.859119
0.858979
0.858838
0.858698
0.858558
0.858417
0.858277
0.858137
0.857997
0.857857
0.857716
0.857576
0.857436
0.857296
0.857156
0.857016
0.856876
0.856736
0.856596
0.856456
0.856316
0.856176
0.856036
0.855896
0.855756
0.855616
0.855476
0.855336
0.855197
0.855057
0.854917
0.854777
0.854637
0.854498
0.854358
0.854218
0.854078
0.853939
0.853799
0.85366
0.85352
0.85338
0.853241
0.853101
0.852962
0.852822
0.852683
0.852543
0.852404
0.852264
0.852125
0.851985
0.851846
0.851706
0.851567
0.851428
0.851288
0.851149
0.85101
0.85087
0.850731
0.850592
0.850453
0.850314
0.850174
0.850035
0.849896
0.849757
0.849618
0.849479
0.84934
0.8492
0.849061
0.848922
0.848783
0.848644
0.848505
0.848366
0.848228
0.848089
0.84795
0.847811
0.847672
0.847533
0.847394
0.847255
0.847117
0.846978
0.846839
0.8467
0.846562
0.846423
0.846284
0.846146
0.846007
0.845868
0.84573
0.845591
0.845453
0.845314
0.845175
0.845037
0.844898
0.84476
0.844621
0.844483
0.844345
0.844206
0.844068
0.843929
0.843791
0.843653
0.843514
0.843376
0.843238
0.843099
0.842961
0.842823
0.842685
0.842547
0.842408
0.84227
0.842132
0.841994
0.841856
0.841718
0.84158
0.841442
0.841304
0.841166
0.841028
0.84089
0.840752
0.840614
0.840476
0.840338
0.8402
0.840062
0.839924
0.839786
0.839648
0.839511
0.839373
0.839235
0.839097
0.83896
0.838822
0.838684
0.838547
0.838409
0.838271
0.838134
0.837996
0.837858
0.837721
0.837583
0.837446
0.837308
0.837171
0.837033
0.836896
0.836758
0.836621
0.836483
0.836346
0.836209
0.836071
0.835934
0.835797
0.835659
0.835522
0.835385
0.835248
0.83511
0.834973
0.834836
0.834699
0.834562
0.834424
0.834287
0.83415
0.834013
0.833876
0.833739
0.833602
0.833465
0.833328
0.833191
0.833054
0.832917
0.83278
0.832643
0.832506
0.832369
0.832233
0.832096
0.831959
0.831822
0.831685
0.831549
0.831412
0.831275
0.831138
0.831002
0.830865
0.830728
0.830592
0.830455
0.830318
0.830182
0.830045
0.829909
0.829772
0.829636
0.829499
0.829363
0.829226
0.82909
0.828953
0.828817
0.82868
0.828544
0.828408
0.828271
0.828135
0.827999
0.827862
0.827726
0.82759
0.827454
0.827318
0.827181
0.827045
0.826909
0.826773
0.826637
0.826501
0.826364
0.826228
0.826092
0.825956
0.82582
0.825684
0.825548
0.825412
0.825276
0.82514
0.825005
0.824869
0.824733
0.824597
0.824461
0.824325
0.824189
0.824054
0.823918
0.823782
0.823646
0.823511
0.823375
0.823239
0.823104
0.822968
0.822832
0.822697
0.822561
0.822426
0.82229
0.822154
0.822019
0.821883
0.821748
0.821612
0.821477
0.821342
0.821206
0.821071
0.820935
0.8208
0.820665
0.820529
0.820394
0.820259
0.820123
0.819988
0.819853
0.819718
0.819583
0.819447
0.819312
0.819177
0.819042
0.818907
0.818772
0.818637
0.818502
0.818367
0.818231
0.818096
0.817961
0.817827
0.817692
0.817557
0.817422
0.817287
0.817152
0.817017
0.816882
0.816747
0.816613
0.816478
0.816343
0.816208
0.816073
0.815939
0.815804
0.815669
0.815535
0.8154
0.815265
0.815131
0.814996
0.814862
0.814727
0.814592
0.814458
0.814323
0.814189
0.814054
0.81392
0.813786
0.813651
0.813517
0.813382
0.813248
0.813114
0.812979
0.812845
0.812711
0.812576
0.812442
0.812308
0.812174
0.812039
0.811905
0.811771
0.811637
0.811503
0.811369
0.811234
0.8111
0.810966
0.810832
0.810698
0.810564
0.81043
0.810296
0.810162
0.810028
0.809894
0.80976
0.809627
0.809493
0.809359
0.809225
0.809091
0.808957
0.808824
0.80869
0.808556
0.808422
0.808289
0.808155
0.808021
0.807888
0.807754
0.80762
0.807487
0.807353
0.807219
0.807086
0.806952
0.806819
0.806685
0.806552
0.806418
0.806285
0.806151
0.806018
0.805885
0.805751
0.805618
0.805485
0.805351
0.805218
0.805085
0.804951
0.804818
0.804685
0.804552
0.804418
0.804285
0.804152
0.804019
0.803886
0.803753
0.803619
0.803486
0.803353
0.80322
0.803087
0.802954
0.802821
0.802688
0.802555
0.802422
0.802289
0.802156
0.802024
0.801891
0.801758
0.801625
0.801492
0.801359
0.801227
0.801094
0.800961
0.800828
0.800696
0.800563
0.80043
0.800298
0.800165
0.800032
0.7999
0.799767
0.799634
0.799502
0.799369
0.799237
0.799104
0.798972
0.798839
0.798707
0.798574
0.798442
0.79831
0.798177
0.798045
0.797912
0.79778
0.797648
0.797516
0.797383
0.797251
0.797119
0.796987
0.796854
0.796722
0.79659
0.796458
0.796326
0.796194
0.796061
0.795929
0.795797
0.795665
0.795533
0.795401
0.795269
0.795137
0.795005
0.794873
0.794741
0.794609
0.794477
0.794346
0.794214
0.794082
0.79395
0.793818
0.793686
0.793555
0.793423
0.793291
0.793159
0.793028
0.792896
0.792764
0.792633
0.792501
0.792369
0.792238
0.792106
0.791975
0.791843
0.791712
0.79158
0.791449
0.791317
0.791186
0.791054
0.790923
0.790791
0.79066
0.790529
0.790397
0.790266
0.790135
0.790003
0.789872
0.789741
0.789609
0.789478
0.789347
0.789216
0.789085
0.788953
0.788822
0.788691
0.78856
0.788429
0.788298
0.788167
0.788036
0.787905
0.787774
0.787643
0.787512
0.787381
0.78725
0.787119
0.786988
0.786857
0.786726
0.786595
0.786465
0.786334
0.786203
0.786072
0.785941
0.785811
0.78568
0.785549
0.785419
0.785288
0.785157
0.785027
0.784896
0.784765
0.784635
0.784504
0.784374
0.784243
0.784113
0.783982
0.783852
0.783721
0.783591
0.78346
0.78333
0.783199
0.783069
0.782939
0.782808
0.782678
0.782548
0.782417
0.782287
0.782157
0.782026
0.781896
0.781766
0.781636
0.781506
0.781375
0.781245
0.781115
0.780985
0.780855
0.780725
0.780595
0.780465
0.780335
0.780205
0.780075
0.779945
0.779815
0.779685
0.779555
0.779425
0.779295
0.779165
0.779036
0.778906
0.778776
0.778646
0.778516
0.778387
0.778257
0.778127
0.777997
0.777868
0.777738
0.777608
0.777479
0.777349
0.777219
0.77709
0.77696
0.776831
0.776701
0.776572
0.776442
0.776313
0.776183
0.776054
0.775924
0.775795
0.775665
0.775536
0.775407
0.775277
0.775148
0.775019
0.774889
0.77476
0.774631
0.774502
0.774372
0.774243
0.774114
0.773985
0.773856
0.773726
0.773597
0.773468
0.773339
0.77321
0.773081
0.772952
0.772823
0.772694
0.772565
0.772436
0.772307
0.772178
0.772049
0.77192
0.771791
0.771662
0.771534
0.771405
0.771276
0.771147
0.771018
0.77089
0.770761
0.770632
0.770503
0.770375
0.770246
0.770117
0.769989
0.76986
0.769731
0.769603
0.769474
0.769346
0.769217
0.769089
0.76896
0.768832
0.768703
0.768575
0.768446
0.768318
0.768189
0.768061
0.767933
0.767804
0.767676
0.767548
0.767419
0.767291
0.767163
0.767035
0.766906
0.766778
0.76665
0.766522
0.766394
0.766265
0.766137
0.766009
0.765881
0.765753
0.765625
0.765497
0.765369
0.765241
0.765113
0.764985
0.764857
0.764729
0.764601
0.764473
0.764345
0.764217
0.764089
0.763962
0.763834
0.763706
0.763578
0.76345
0.763323
0.763195
0.763067
0.76294
0.762812
0.762684
0.762557
0.762429
0.762301
0.762174
0.762046
0.761918
0.761791
0.761663
0.761536
0.761408
0.761281
0.761153
0.761026
0.760899
0.760771
0.760644
0.760516
0.760389
0.760262
0.760134
0.760007
0.75988
0.759752
0.759625
0.759498
0.759371
0.759243
0.759116
0.758989
0.758862
0.758735
0.758608
0.758481
0.758353
0.758226
0.758099
0.757972
0.757845
0.757718
0.757591
0.757464
0.757337
0.75721
0.757083
0.756957
0.75683
0.756703
0.756576
0.756449
0.756322
0.756195
0.756069
0.755942
0.755815
0.755688
0.755562
0.755435
0.755308
0.755182
0.755055
0.754928
0.754802
0.754675
0.754549
0.754422
0.754295
0.754169
0.754042
0.753916
0.753789
0.753663
0.753536
0.75341
0.753284
0.753157
0.753031
0.752904
0.752778
0.752652
0.752525
0.752399
0.752273
0.752147
0.75202
0.751894
0.751768
0.751642
0.751516
0.751389
0.751263
0.751137
0.751011
0.750885
0.750759
0.750633
0.750507
0.750381
0.750255
0.750129
0.750003
0.749877
0.749751
0.749625
0.749499
0.749373
0.749247
0.749121
0.748996
0.74887
0.748744
0.748618
0.748492
0.748367
0.748241
0.748115
0.747989
0.747864
0.747738
0.747612
0.747487
0.747361
0.747236
0.74711
0.746984
0.746859
0.746733
0.746608
0.746482
0.746357
0.746231
0.746106
0.745981
0.745855
0.74573
0.745604
0.745479
0.745354
0.745228
0.745103
0.744978
0.744852
0.744727
0.744602
0.744477
0.744351
0.744226
0.744101
0.743976
0.743851
0.743726
0.7436
0.743475
0.74335
0.743225
0.7431
0.742975
0.74285
0.742725
0.7426
0.742475
0.74235
0.742225
0.7421
0.741975
0.741851
0.741726
0.741601
0.741476
0.741351
0.741226
0.741102
0.740977
0.740852
0.740727
0.740603
0.740478
0.740353
0.740229
0.740104
0.739979
0.739855
0.73973
0.739606
0.739481
0.739357
0.739232
0.739107
0.738983
0.738859
0.738734
0.73861
0.738485
0.738361
0.738236
0.738112
0.737988
0.737863
0.737739
0.737615
0.73749
0.737366
0.737242
0.737118
0.736993
0.736869
0.736745
0.736621
0.736497
0.736372
0.736248
0.736124
0.736
0.735876
0.735752
0.735628
0.735504
0.73538
0.735256
0.735132
0.735008
0.734884
0.73476
0.734636
0.734512
0.734388
0.734265
0.734141
0.734017
0.733893
0.733769
0.733646
0.733522
0.733398
0.733274
0.733151
0.733027
0.732903
0.73278
0.732656
0.732532
0.732409
0.732285
0.732162
0.732038
0.731914
0.731791
0.731667
0.731544
0.73142
0.731297
0.731174
0.73105
0.730927
0.730803
0.73068
0.730557
0.730433
0.73031
0.730187
0.730063
0.72994
0.729817
0.729694
0.72957
0.729447
0.729324
0.729201
0.729078
0.728954
0.728831
0.728708
0.728585
0.728462
0.728339
0.728216
0.728093
0.72797
0.727847
0.727724
0.727601
0.727478
0.727355
0.727232
0.727109
0.726986
0.726864
0.726741
0.726618
0.726495
0.726372
0.72625
0.726127
0.726004
0.725881
0.725759
0.725636
0.725513
0.725391
0.725268
0.725145
0.725023
0.7249
0.724777
0.724655
0.724532
0.72441
0.724287
0.724165
0.724042
0.72392
0.723797
0.723675
0.723553
0.72343
0.723308
0.723185
0.723063
0.722941
0.722818
0.722696
0.722574
0.722452
0.722329
0.722207
0.722085
0.721963
0.721841
0.721718
0.721596
0.721474
0.721352
0.72123
0.721108
0.720986
0.720864
0.720742
0.72062
0.720498
0.720376
0.720254
0.720132
0.72001
0.719888
0.719766
0.719644
0.719522
0.7194
0.719279
0.719157
0.719035
0.718913
0.718791
0.71867
0.718548
0.718426
0.718304
0.718183
0.718061
0.717939
0.717818
0.717696
0.717575
0.717453
0.717331
0.71721
0.717088
0.716967
0.716845
0.716724
0.716602
0.716481
0.716359
0.716238
0.716117
0.715995
0.715874
0.715753
0.715631
0.71551
0.715389
0.715267
0.715146
0.715025
0.714903
0.714782
0.714661
0.71454
0.714419
0.714298
0.714176
0.714055
0.713934
0.713813
0.713692
0.713571
0.71345
0.713329
0.713208
0.713087
0.712966
0.712845
0.712724
0.712603
0.712482
0.712361
0.71224
0.712119
0.711999
0.711878
0.711757
0.711636
0.711515
0.711395
0.711274
0.711153
0.711032
0.710912
0.710791
0.71067
0.71055
0.710429
0.710308
0.710188
0.710067
0.709947
0.709826
0.709706
0.709585
0.709465
0.709344
0.709224
0.709103
0.708983
0.708862
0.708742
0.708622
0.708501
0.708381
0.70826
0.70814
0.70802
0.7079
0.707779
0.707659
0.707539
0.707419
0.707298
0.707178
0.707058
0.706938
0.706818
0.706698
0.706577
0.706457
0.706337
0.706217
0.706097
0.705977
0.705857
0.705737
0.705617
0.705497
0.705377
0.705257
0.705137
0.705017
0.704898
0.704778
0.704658
0.704538
0.704418
0.704298
0.704179
0.704059
0.703939
0.703819
0.7037
0.70358
0.70346
0.703341
0.703221
0.703101
0.702982
0.702862
0.702742
0.702623
0.702503
0.702384
0.702264
0.702145
0.702025
0.701906
0.701786
0.701667
0.701547
0.701428
0.701309
0.701189
0.70107
0.700951
0.700831
0.700712
0.700593
0.700473
0.700354
0.700235
0.700116
0.699996
0.699877
0.699758
0.699639
0.69952
0.699401
0.699281
0.699162
0.699043
0.698924
0.698805
0.698686
0.698567
0.698448
0.698329
0.69821
0.698091
0.697972
0.697853
0.697734
0.697616
0.697497
0.697378
0.697259
0.69714
0.697021
0.696902
0.696784
0.696665
0.696546
0.696427
0.696309
0.69619
0.696071
0.695953
0.695834
0.695715
0.695597
0.695478
0.69536
0.695241
0.695123
0.695004
0.694885
0.694767
0.694648
0.69453
0.694412
0.694293
0.694175
0.694056
0.693938
0.69382
0.693701
0.693583
0.693465
0.693346
0.693228
0.69311
0.692991
0.692873
0.692755
0.692637
0.692518
0.6924
0.692282
0.692164
0.692046
0.691928
0.69181
0.691692
0.691574
0.691455
0.691337
0.691219
0.691101
0.690983
0.690865
0.690747
0.69063
0.690512
0.690394
0.690276
0.690158
0.69004
0.689922
0.689804
0.689687
0.689569
0.689451
0.689333
0.689216
0.689098
0.68898
0.688862
0.688745
0.688627
0.688509
0.688392
0.688274
0.688157
0.688039
0.687921
0.687804
0.687686
0.687569
0.687451
0.687334
0.687216
0.687099
0.686981
0.686864
0.686747
0.686629
0.686512
0.686395
0.686277
0.68616
0.686043
0.685925
0.685808
0.685691
0.685573
0.685456
0.685339
0.685222
0.685105
0.684987
0.68487
0.684753
0.684636
0.684519
0.684402
0.684285
0.684168
0.684051
0.683934
0.683817
0.6837
0.683583
0.683466
0.683349
0.683232
0.683115
0.682998
0.682881
0.682764
0.682647
0.682531
0.682414
0.682297
0.68218
0.682064
0.681947
0.68183
0.681713
0.681597
0.68148
0.681363
0.681247
0.68113
0.681013
0.680897
0.68078
0.680664
0.680547
0.68043
0.680314
0.680197
0.680081
0.679964
0.679848
0.679732
0.679615
0.679499
0.679382
0.679266
0.67915
0.679033
0.678917
0.678801
0.678684
0.678568
0.678452
0.678335
0.678219
0.678103
0.677987
0.677871
0.677754
0.677638
0.677522
0.677406
0.67729
0.677174
0.677058
0.676942
0.676826
0.67671
0.676594
0.676478
0.676362
0.676246
0.67613
0.676014
0.675898
0.675782
0.675666
0.67555
0.675434
0.675318
0.675203
0.675087
0.674971
0.674855
0.674739
0.674624
0.674508
0.674392
0.674277
0.674161
0.674045
0.67393
0.673814
0.673698
0.673583
0.673467
0.673352
0.673236
0.67312
0.673005
0.672889
0.672774
0.672658
0.672543
0.672428
0.672312
0.672197
0.672081
0.671966
0.671851
0.671735
0.67162
0.671505
0.671389
0.671274
0.671159
0.671043
0.670928
0.670813
0.670698
0.670583
0.670467
0.670352
0.670237
0.670122
0.670007
0.669892
0.669777
0.669662
0.669547
0.669432
0.669317
0.669202
0.669087
0.668972
0.668857
0.668742
0.668627
0.668512
0.668397
0.668282
0.668167
0.668052
0.667938
0.667823
0.667708
0.667593
0.667478
0.667364
0.667249
0.667134
0.66702
0.666905
0.66679
0.666676
0.666561
0.666446
0.666332
0.666217
0.666103
0.665988
0.665873
0.665759
0.665644
0.66553
0.665415
0.665301
0.665187
0.665072
0.664958
0.664843
0.664729
0.664615
0.6645
0.664386
0.664272
0.664157
0.664043
0.663929
0.663814
0.6637
0.663586
0.663472
0.663358
0.663243
0.663129
0.663015
0.662901
0.662787
0.662673
0.662559
0.662445
0.66233
0.662216
0.662102
0.661988
0.661874
0.66176
0.661647
0.661533
0.661419
0.661305
0.661191
0.661077
0.660963
0.660849
0.660735
0.660622
0.660508
0.660394
0.66028
0.660166
0.660053
0.659939
0.659825
0.659712
0.659598
0.659484
0.659371
0.659257
0.659143
0.65903
0.658916
0.658803
0.658689
0.658576
0.658462
0.658349
0.658235
0.658122
0.658008
0.657895
0.657781
0.657668
0.657554
0.657441
0.657328
0.657214
0.657101
0.656988
0.656874
0.656761
0.656648
0.656535
0.656421
0.656308
0.656195
0.656082
0.655969
0.655855
0.655742
0.655629
0.655516
0.655403
0.65529
0.655177
0.655064
0.654951
0.654838
0.654725
0.654612
0.654499
0.654386
0.654273
0.65416
0.654047
0.653934
0.653821
0.653708
0.653595
0.653483
0.65337
0.653257
0.653144
0.653031
0.652919
0.652806
0.652693
0.652581
0.652468
0.652355
0.652243
0.65213
0.652017
0.651905
0.651792
0.651679
0.651567
0.651454
0.651342
0.651229
0.651117
0.651004
0.650892
0.650779
0.650667
0.650555
0.650442
0.65033
0.650217
0.650105
0.649993
0.64988
0.649768
0.649656
0.649543
0.649431
0.649319
0.649207
0.649094
0.648982
0.64887
0.648758
0.648646
0.648534
0.648421
0.648309
0.648197
0.648085
0.647973
0.647861
0.647749
0.647637
0.647525
0.647413
0.647301
0.647189
0.647077
0.646965
0.646853
0.646741
0.646629
0.646518
0.646406
0.646294
0.646182
0.64607
0.645958
0.645847
0.645735
0.645623
0.645511
0.6454
0.645288
0.645176
0.645065
0.644953
0.644841
0.64473
0.644618
0.644507
0.644395
0.644283
0.644172
0.64406
0.643949
0.643837
0.643726
0.643614
0.643503
0.643392
0.64328
0.643169
0.643057
0.642946
0.642835
0.642723
0.642612
0.642501
0.642389
0.642278
0.642167
0.642056
0.641944
0.641833
0.641722
0.641611
0.6415
0.641388
0.641277
0.641166
0.641055
0.640944
0.640833
0.640722
0.640611
0.6405
0.640389
0.640278
0.640167
0.640056
0.639945
0.639834
0.639723
0.639612
0.639501
0.63939
0.639279
0.639169
0.639058
0.638947
0.638836
0.638725
0.638615
0.638504
0.638393
0.638282
0.638172
0.638061
0.63795
0.63784
0.637729
0.637618
0.637508
0.637397
0.637287
0.637176
0.637065
0.636955
0.636844
0.636734
0.636623
0.636513
0.636402
0.636292
0.636182
0.636071
0.635961
0.63585
0.63574
0.63563
0.635519
0.635409
0.635299
0.635188
0.635078
0.634968
0.634858
0.634747
0.634637
0.634527
0.634417
0.634307
0.634196
0.634086
0.633976
0.633866
0.633756
0.633646
0.633536
0.633426
0.633316
0.633206
0.633096
0.632986
0.632876
0.632766
0.632656
0.632546
0.632436
0.632326
0.632216
0.632106
0.631997
0.631887
0.631777
0.631667
0.631557
0.631447
0.631338
0.631228
0.631118
0.631009
0.630899
0.630789
0.63068
0.63057
0.63046
0.630351
0.630241
0.630131
0.630022
0.629912
0.629803
0.629693
0.629584
0.629474
0.629365
0.629255
0.629146
0.629036
0.628927
0.628818
0.628708
0.628599
0.628489
0.62838
0.628271
0.628161
0.628052
0.627943
0.627834
0.627724
0.627615
0.627506
0.627397
0.627287
0.627178
0.627069
0.62696
0.626851
0.626742
0.626633
0.626524
0.626415
0.626305
0.626196
0.626087
0.625978
0.625869
0.62576
0.625651
0.625543
0.625434
0.625325
0.625216
0.625107
0.624998
0.624889
0.62478
0.624671
0.624563
0.624454
0.624345
0.624236
0.624128
0.624019
0.62391
0.623801
0.623693
0.623584
0.623475
0.623367
0.623258
0.62315
0.623041
0.622932
0.622824
0.622715
0.622607
0.622498
0.62239
0.622281
0.622173
0.622064
0.621956
0.621847
0.621739
0.62163
0.621522
0.621413
0.621306
0.621197
0.621089
0.62098
0.620873
0.620763
0.620657
0.620546
0.620441
0.620329
0.620225
0.620112
0.620009
0.619895
0.619794
0.619677
0.619579
0.61946
0.619364
0.619243
0.619148
0.619026
0.618933
0.61881
0.618717
0.618595
0.6185
0.61838
0.618283
0.618165
0.618065
0.617952
0.617847
0.617739
0.617629
0.617525
0.617411
0.617311
0.617194
0.617097
0.616978
0.616881
0.616764
0.616663
0.616551
0.616445
0.616338
0.616228
0.616126
0.61601
0.615911
0.615795
0.615696
0.615581
0.615479
0.615369
0.615261
0.615156
0.615044
0.614943
0.614828
0.614728
0.614614
0.614511
0.614402
0.614294
0.61419
0.614077
0.613976
0.613862
0.613761
0.613649
0.613544
0.613437
0.613327
0.613225
0.613111
0.613011
0.612898
0.612795
0.612686
0.612578
0.612474
0.612362
0.612261
0.612148
0.612045
0.611936
0.611829
0.611724
0.611613
0.611511
0.611399
0.611296
0.611187
0.61108
0.610976
0.610864
0.610763
0.610651
0.610547
0.61044
0.610331
0.610228
0.610116
0.610014
0.609904
0.609799
0.609693
0.609583
0.609481
0.60937
0.609267
0.609158
0.609051
0.608947
0.608836
0.608734
0.608624
0.608519
0.608413
0.608304
0.608202
0.608091
0.607988
0.60788
0.607772
0.607669
0.607559
0.607456
0.607347
0.607241
0.607136
0.607027
0.606924
0.606815
0.60671
0.606604
0.606495
0.606393
0.606283
0.606179
0.606073
0.605965
0.605862
0.605752
0.605648
0.605542
0.605434
0.605331
0.605221
0.605118
0.605011
0.604904
0.6048
0.604691
0.604588
0.604481
0.604374
0.60427
0.604161
0.604058
0.603951
0.603844
0.603741
0.603632
0.603528
0.603422
0.603315
0.603211
0.603103
0.602999
0.602893
0.602786
0.602682
0.602574
0.60247
0.602364
0.602257
0.602154
0.602046
0.601941
0.601836
0.601729
0.601626
0.601518
0.601413
0.601309
0.601201
0.601098
0.600991
0.600885
0.600781
0.600674
0.60057
0.600464
0.600358
0.600254
0.600147
0.600043
0.599938
0.599831
0.599727
0.599621
0.599516
0.599411
0.599304
0.599201
0.599095
0.598989
0.598885
0.598778
0.598674
0.598569
0.598463
0.598359
0.598253
0.598148
0.598044
0.597937
0.597834
0.597728
0.597622
0.597519
0.597413
0.597308
0.597204
0.597097
0.596994
0.596888
0.596783
0.596679
0.596573
0.596469
0.596364
0.596258
0.596155
0.596049
0.595944
0.595841
0.595735
0.595631
0.595526
0.59542
0.595317
0.595211
0.595106
0.595003
0.594897
0.594793
0.594689
0.594583
0.59448
0.594375
0.59427
0.594166
0.594061
0.593956
0.593853
0.593747
0.593643
0.593539
0.593434
0.59333
0.593225
0.593121
0.593017
0.592912
0.592808
0.592704
0.592599
0.592495
0.592391
0.592286
0.592183
0.592077
0.591974
0.59187
0.591765
0.591661
0.591557
0.591452
0.591349
0.591244
0.59114
0.591037
0.590932
0.590828
0.590724
0.590619
0.590516
0.590412
0.590308
0.590205
0.5901
0.589996
0.589893
0.589788
0.589684
0.589581
0.589476
0.589373
0.589269
0.589165
0.589062
0.588957
0.588853
0.58875
0.588646
0.588542
0.588439
0.588335
0.588231
0.588128
0.588023
0.58792
0.587817
0.587713
0.58761
0.587506
0.587402
0.587299
0.587195
0.587091
0.586988
0.586884
0.586781
0.586678
0.586574
0.586471
0.586367
0.586263
0.586161
0.586057
0.585953
0.585851
0.585747
0.585643
0.585541
0.585437
0.585334
0.585231
0.585127
0.585024
0.584921
0.584817
0.584714
0.584611
0.584508
0.584405
0.584302
0.584198
0.584096
0.583992
0.583889
0.583786
0.583683
0.58358
0.583477
0.583374
0.583271
0.583168
0.583065
0.582962
0.582859
0.582756
0.582653
0.582551
0.582447
0.582345
0.582242
0.582139
0.582036
0.581934
0.58183
0.581728
0.581625
0.581522
0.58142
0.581317
0.581214
0.581112
0.581009
0.580906
0.580804
0.580701
0.580598
0.580496
0.580393
0.58029
0.580188
0.580085
0.579983
0.579881
0.579778
0.579675
0.579573
0.57947
0.579368
0.579266
0.579163
0.579061
0.578959
0.578856
0.578754
0.578652
0.578549
0.578447
0.578345
0.578242
0.57814
0.578038
0.577935
0.577833
0.577731
0.577629
0.577527
0.577425
0.577322
0.57722
0.577118
0.577016
0.576914
0.576812
0.57671
0.576608
0.576506
0.576404
0.576302
0.5762
0.576098
0.575996
0.575894
0.575792
0.57569
0.575588
0.575486
0.575384
0.575283
0.575181
0.575079
0.574977
0.574875
0.574774
0.574672
0.57457
0.574468
0.574367
0.574265
0.574163
0.574061
0.57396
0.573858
0.573757
0.573655
0.573553
0.573452
0.57335
0.573248
0.573147
0.573045
0.572944
0.572842
0.572741
0.572639
0.572538
0.572436
0.572335
0.572234
0.572132
0.572031
0.57193
0.571828
0.571727
0.571625
0.571524
0.571423
0.571322
0.57122
0.571119
0.571018
0.570916
0.570815
0.570714
0.570613
0.570512
0.570411
0.570309
0.570208
0.570107
0.570006
0.569905
0.569804
0.569703
0.569602
0.569501
0.5694
0.569299
0.569198
0.569097
0.568996
0.568895
0.568794
0.568693
0.568592
0.568491
0.56839
0.568289
0.568189
0.568088
0.567987
0.567886
0.567785
0.567685
0.567584
0.567483
0.567382
0.567282
0.567181
0.56708
0.56698
0.566879
0.566778
0.566678
0.566577
0.566476
0.566376
0.566275
0.566175
0.566074
0.565974
0.565873
0.565773
0.565672
0.565572
0.565471
0.565371
0.56527
0.56517
0.56507
0.564969
0.564869
0.564769
0.564668
0.564568
0.564468
0.564367
0.564267
0.564167
0.564067
0.563966
0.563866
0.563766
0.563666
0.563565
0.563465
0.563365
0.563265
0.563165
0.563065
0.562965
0.562865
0.562765
0.562664
0.562564
0.562464
0.562364
0.562264
0.562164
0.562064
0.561964
0.561865
0.561765
0.561665
0.561565
0.561465
0.561365
0.561265
0.561165
0.561066
0.560966
0.560866
0.560766
0.560666
0.560567
0.560467
0.560367
0.560268
0.560168
0.560068
0.559968
0.559869
0.559769
0.55967
0.55957
0.55947
0.559371
0.559271
0.559172
0.559072
0.558973
0.558873
0.558774
0.558674
0.558575
0.558475
0.558376
0.558276
0.558177
0.558078
0.557978
0.557879
0.557779
0.55768
0.557581
0.557482
0.557382
0.557283
0.557184
0.557084
0.556985
0.556886
0.556787
0.556688
0.556588
0.556489
0.55639
0.556291
0.556192
0.556093
0.555994
0.555895
0.555795
0.555696
0.555597
0.555498
0.555399
0.5553
0.555201
0.555102
0.555004
0.554905
0.554806
0.554707
0.554608
0.554509
0.55441
0.554311
0.554212
0.554114
0.554015
0.553916
0.553817
0.553718
0.55362
0.553521
0.553422
0.553324
0.553225
0.553126
0.553028
0.552929
0.55283
0.552732
0.552633
0.552534
0.552436
0.552337
0.552239
0.55214
0.552042
0.551943
0.551845
0.551746
0.551648
0.551549
0.551451
0.551352
0.551254
0.551156
0.551057
0.550959
0.550861
0.550762
0.550664
0.550566
0.550467
0.550369
0.550271
0.550172
0.550074
0.549976
0.549878
0.54978
0.549681
0.549583
0.549485