/*--------------------------------*- C++ -*----------------------------------*\
  =========                 |
  \\      /  F ield         | OpenFOAM: The Open Source CFD Toolbox
   \\    /   O peration     | Website:  https://openfoam.org
    \\  /    A nd           | Version:  9
     \\/     M anipulation  |
\*---------------------------------------------------------------------------*/
FoamFile
{
    format      ascii;
    class       volScalarField;
    location    "0.014";
    object      T;
}
// * * * * * * * * * * * * * * * * * * * * * * * * * * * * * * * * * * * * * //

dimensions      [0 0 0 1 0 0 0];

internalField   nonuniform List<scalar> 
10000
(
337.497
337.5
337.5
337.499
337.499
337.499
337.498
337.498
337.497
337.497
337.497
337.496
337.496
337.495
337.495
337.495
337.494
337.494
337.493
337.493
337.492
337.492
337.491
337.491
337.491
337.49
337.49
337.489
337.489
337.488
337.488
337.487
337.487
337.486
337.486
337.485
337.485
337.484
337.484
337.483
337.483
337.482
337.482
337.481
337.48
337.48
337.479
337.479
337.478
337.478
337.477
337.476
337.476
337.475
337.475
337.474
337.473
337.473
337.472
337.472
337.471
337.47
337.47
337.469
337.468
337.468
337.467
337.466
337.466
337.465
337.464
337.464
337.463
337.462
337.462
337.461
337.46
337.459
337.459
337.458
337.457
337.457
337.456
337.455
337.454
337.454
337.453
337.452
337.451
337.45
337.45
337.449
337.448
337.447
337.447
337.446
337.445
337.444
337.443
337.442
337.442
337.441
337.44
337.439
337.438
337.437
337.436
337.435
337.435
337.434
337.433
337.432
337.431
337.43
337.429
337.428
337.427
337.426
337.425
337.424
337.423
337.422
337.421
337.42
337.419
337.418
337.417
337.416
337.415
337.414
337.413
337.412
337.411
337.41
337.409
337.408
337.407
337.406
337.405
337.404
337.403
337.401
337.4
337.399
337.398
337.397
337.396
337.395
337.393
337.392
337.391
337.39
337.389
337.387
337.386
337.385
337.384
337.382
337.381
337.38
337.379
337.377
337.376
337.375
337.373
337.372
337.371
337.369
337.368
337.366
337.365
337.364
337.362
337.361
337.359
337.358
337.356
337.355
337.353
337.352
337.35
337.349
337.347
337.346
337.344
337.342
337.341
337.339
337.337
337.336
337.334
337.332
337.33
337.329
337.327
337.325
337.323
337.321
337.319
337.317
337.315
337.313
337.311
337.309
337.307
337.305
337.303
337.301
337.299
337.296
337.294
337.292
337.289
337.287
337.284
337.282
337.279
337.277
337.274
337.271
337.268
337.266
337.263
337.26
337.256
337.253
337.25
337.247
337.243
337.24
337.236
337.232
337.229
337.225
337.221
337.216
337.212
337.208
337.203
337.198
337.193
337.188
337.183
337.177
337.171
337.165
337.159
337.153
337.146
337.139
337.132
337.125
337.117
337.109
337.101
337.092
337.083
337.074
337.064
337.054
337.043
337.032
337.021
337.01
336.998
336.985
336.972
336.959
336.945
336.931
336.917
336.902
336.887
336.871
336.855
336.839
336.822
336.805
336.788
336.77
336.752
336.733
336.715
336.696
336.677
336.658
336.638
336.618
336.598
336.578
336.558
336.538
336.517
336.496
336.476
336.455
336.434
336.413
336.392
336.37
336.349
336.328
336.306
336.285
336.263
336.242
336.22
336.199
336.177
336.156
336.134
336.112
336.091
336.069
336.047
336.026
336.004
335.982
335.961
335.939
335.917
335.896
335.874
335.852
335.83
335.809
335.787
335.765
335.744
335.722
335.7
335.678
335.657
335.635
335.613
335.591
335.57
335.548
335.526
335.505
335.483
335.461
335.439
335.418
335.396
335.374
335.353
335.331
335.309
335.287
335.266
335.244
335.222
335.201
335.179
335.157
335.136
335.114
335.092
335.07
335.049
335.027
335.005
334.984
334.962
334.94
334.919
334.897
334.875
334.853
334.832
334.81
334.788
334.767
334.745
334.723
334.702
334.68
334.658
334.636
334.615
334.593
334.571
334.55
334.528
334.506
334.485
334.463
334.441
334.42
334.398
334.376
334.355
334.333
334.311
334.289
334.268
334.246
334.224
334.203
334.181
334.159
334.138
334.116
334.094
334.073
334.051
334.029
334.008
333.986
333.964
333.943
333.921
333.899
333.878
333.856
333.834
333.813
333.791
333.769
333.748
333.726
333.704
333.683
333.661
333.639
333.618
333.596
333.574
333.553
333.531
333.509
333.488
333.466
333.444
333.423
333.401
333.379
333.358
333.336
333.314
333.293
333.271
333.249
333.228
333.206
333.184
333.163
333.141
333.119
333.098
333.076
333.055
333.033
333.011
332.99
332.968
332.946
332.925
332.903
332.881
332.86
332.838
332.816
332.795
332.773
332.752
332.73
332.708
332.687
332.665
332.643
332.622
332.6
332.578
332.557
332.535
332.514
332.492
332.47
332.449
332.427
332.405
332.384
332.362
332.341
332.319
332.297
332.276
332.254
332.232
332.211
332.189
332.168
332.146
332.124
332.103
332.081
332.059
332.038
332.016
331.995
331.973
331.951
331.93
331.908
331.887
331.865
331.843
331.822
331.8
331.778
331.757
331.735
331.714
331.692
331.67
331.649
331.627
331.606
331.584
331.562
331.541
331.519
331.498
331.476
331.454
331.433
331.411
331.39
331.368
331.346
331.325
331.303
331.282
331.26
331.238
331.217
331.195
331.174
331.152
331.13
331.109
331.087
331.066
331.044
331.023
331.001
330.979
330.958
330.936
330.915
330.893
330.871
330.85
330.828
330.807
330.785
330.764
330.742
330.72
330.699
330.677
330.656
330.634
330.613
330.591
330.569
330.548
330.526
330.505
330.483
330.462
330.44
330.418
330.397
330.375
330.354
330.332
330.311
330.289
330.267
330.246
330.224
330.203
330.181
330.16
330.138
330.116
330.095
330.073
330.052
330.03
330.009
329.987
329.966
329.944
329.922
329.901
329.879
329.858
329.836
329.815
329.793
329.772
329.75
329.729
329.707
329.685
329.664
329.642
329.621
329.599
329.578
329.556
329.535
329.513
329.492
329.47
329.448
329.427
329.405
329.384
329.362
329.341
329.319
329.298
329.276
329.255
329.233
329.212
329.19
329.169
329.147
329.125
329.104
329.082
329.061
329.039
329.018
328.996
328.975
328.953
328.932
328.91
328.889
328.867
328.846
328.824
328.803
328.781
328.76
328.738
328.717
328.695
328.673
328.652
328.63
328.609
328.587
328.566
328.544
328.523
328.501
328.48
328.458
328.437
328.415
328.394
328.372
328.351
328.329
328.308
328.286
328.265
328.243
328.222
328.2
328.179
328.157
328.136
328.114
328.093
328.071
328.05
328.028
328.007
327.985
327.964
327.942
327.921
327.899
327.878
327.856
327.835
327.813
327.792
327.77
327.749
327.727
327.706
327.685
327.663
327.642
327.62
327.599
327.577
327.556
327.534
327.513
327.491
327.47
327.448
327.427
327.405
327.384
327.362
327.341
327.319
327.298
327.276
327.255
327.233
327.212
327.191
327.169
327.148
327.126
327.105
327.083
327.062
327.04
327.019
326.997
326.976
326.954
326.933
326.912
326.89
326.869
326.847
326.826
326.804
326.783
326.761
326.74
326.718
326.697
326.675
326.654
326.633
326.611
326.59
326.568
326.547
326.525
326.504
326.482
326.461
326.44
326.418
326.397
326.375
326.354
326.332
326.311
326.289
326.268
326.247
326.225
326.204
326.182
326.161
326.139
326.118
326.097
326.075
326.054
326.032
326.011
325.989
325.968
325.946
325.925
325.904
325.882
325.861
325.839
325.818
325.797
325.775
325.754
325.732
325.711
325.689
325.668
325.647
325.625
325.604
325.582
325.561
325.539
325.518
325.497
325.475
325.454
325.432
325.411
325.39
325.368
325.347
325.325
325.304
325.283
325.261
325.24
325.218
325.197
325.175
325.154
325.133
325.111
325.09
325.068
325.047
325.026
325.004
324.983
324.961
324.94
324.919
324.897
324.876
324.854
324.833
324.812
324.79
324.769
324.748
324.726
324.705
324.683
324.662
324.641
324.619
324.598
324.576
324.555
324.534
324.512
324.491
324.469
324.448
324.427
324.405
324.384
324.363
324.341
324.32
324.298
324.277
324.256
324.234
324.213
324.192
324.17
324.149
324.127
324.106
324.085
324.063
324.042
324.021
323.999
323.978
323.956
323.935
323.914
323.892
323.871
323.85
323.828
323.807
323.786
323.764
323.743
323.721
323.7
323.679
323.657
323.636
323.615
323.593
323.572
323.551
323.529
323.508
323.487
323.465
323.444
323.423
323.401
323.38
323.358
323.337
323.316
323.294
323.273
323.252
323.23
323.209
323.188
323.166
323.145
323.124
323.102
323.081
323.06
323.038
323.017
322.996
322.974
322.953
322.932
322.91
322.889
322.868
322.846
322.825
322.804
322.782
322.761
322.74
322.718
322.697
322.676
322.654
322.633
322.612
322.59
322.569
322.548
322.526
322.505
322.484
322.463
322.441
322.42
322.399
322.377
322.356
322.335
322.313
322.292
322.271
322.249
322.228
322.207
322.185
322.164
322.143
322.122
322.1
322.079
322.058
322.036
322.015
321.994
321.972
321.951
321.93
321.908
321.887
321.866
321.845
321.823
321.802
321.781
321.759
321.738
321.717
321.696
321.674
321.653
321.632
321.61
321.589
321.568
321.546
321.525
321.504
321.483
321.461
321.44
321.419
321.397
321.376
321.355
321.334
321.312
321.291
321.27
321.248
321.227
321.206
321.185
321.163
321.142
321.121
321.1
321.078
321.057
321.036
321.014
320.993
320.972
320.951
320.929
320.908
320.887
320.866
320.844
320.823
320.802
320.781
320.759
320.738
320.717
320.695
320.674
320.653
320.632
320.61
320.589
320.568
320.547
320.525
320.504
320.483
320.462
320.44
320.419
320.398
320.377
320.355
320.334
320.313
320.292
320.27
320.249
320.228
320.207
320.185
320.164
320.143
320.122
320.1
320.079
320.058
320.037
320.015
319.994
319.973
319.952
319.931
319.909
319.888
319.867
319.846
319.824
319.803
319.782
319.761
319.739
319.718
319.697
319.676
319.654
319.633
319.612
319.591
319.57
319.548
319.527
319.506
319.485
319.463
319.442
319.421
319.4
319.379
319.357
319.336
319.315
319.294
319.273
319.251
319.23
319.209
319.188
319.166
319.145
319.124
319.103
319.082
319.06
319.039
319.018
318.997
318.976
318.954
318.933
318.912
318.891
318.87
318.848
318.827
318.806
318.785
318.764
318.742
318.721
318.7
318.679
318.658
318.636
318.615
318.594
318.573
318.552
318.53
318.509
318.488
318.467
318.446
318.424
318.403
318.382
318.361
318.34
318.319
318.297
318.276
318.255
318.234
318.213
318.191
318.17
318.149
318.128
318.107
318.086
318.064
318.043
318.022
318.001
317.98
317.959
317.937
317.916
317.895
317.874
317.853
317.832
317.81
317.789
317.768
317.747
317.726
317.705
317.683
317.662
317.641
317.62
317.599
317.578
317.556
317.535
317.514
317.493
317.472
317.451
317.429
317.408
317.387
317.366
317.345
317.324
317.303
317.281
317.26
317.239
317.218
317.197
317.176
317.155
317.133
317.112
317.091
317.07
317.049
317.028
317.007
316.985
316.964
316.943
316.922
316.901
316.88
316.859
316.837
316.816
316.795
316.774
316.753
316.732
316.711
316.689
316.668
316.647
316.626
316.605
316.584
316.563
316.542
316.52
316.499
316.478
316.457
316.436
316.415
316.394
316.373
316.351
316.33
316.309
316.288
316.267
316.246
316.225
316.204
316.183
316.161
316.14
316.119
316.098
316.077
316.056
316.035
316.014
315.993
315.971
315.95
315.929
315.908
315.887
315.866
315.845
315.824
315.803
315.782
315.76
315.739
315.718
315.697
315.676
315.655
315.634
315.613
315.592
315.571
315.549
315.528
315.507
315.486
315.465
315.444
315.423
315.402
315.381
315.36
315.339
315.317
315.296
315.275
315.254
315.233
315.212
315.191
315.17
315.149
315.128
315.107
315.086
315.065
315.043
315.022
315.001
314.98
314.959
314.938
314.917
314.896
314.875
314.854
314.833
314.812
314.791
314.77
314.748
314.727
314.706
314.685
314.664
314.643
314.622
314.601
314.58
314.559
314.538
314.517
314.496
314.475
314.454
314.433
314.411
314.39
314.369
314.348
314.327
314.306
314.285
314.264
314.243
314.222
314.201
314.18
314.159
314.138
314.117
314.096
314.075
314.054
314.033
314.012
313.991
313.969
313.948
313.927
313.906
313.885
313.864
313.843
313.822
313.801
313.78
313.759
313.738
313.717
313.696
313.675
313.654
313.633
313.612
313.591
313.57
313.549
313.528
313.507
313.486
313.465
313.444
313.423
313.402
313.381
313.36
313.339
313.318
313.297
313.276
313.255
313.234
313.212
313.191
313.17
313.149
313.128
313.107
313.086
313.065
313.044
313.023
313.002
312.981
312.96
312.939
312.918
312.897
312.876
312.855
312.834
312.813
312.792
312.771
312.75
312.729
312.708
312.687
312.666
312.645
312.624
312.603
312.582
312.561
312.54
312.519
312.498
312.477
312.456
312.435
312.414
312.393
312.372
312.351
312.33
312.309
312.289
312.268
312.247
312.226
312.205
312.184
312.163
312.142
312.121
312.1
312.079
312.058
312.037
312.016
311.995
311.974
311.953
311.932
311.911
311.89
311.869
311.848
311.827
311.806
311.785
311.764
311.743
311.722
311.701
311.68
311.659
311.638
311.617
311.596
311.575
311.554
311.534
311.513
311.492
311.471
311.45
311.429
311.408
311.387
311.366
311.345
311.324
311.303
311.282
311.261
311.24
311.219
311.198
311.177
311.156
311.135
311.114
311.094
311.073
311.052
311.031
311.01
310.989
310.968
310.947
310.926
310.905
310.884
310.863
310.842
310.821
310.8
310.779
310.759
310.738
310.717
310.696
310.675
310.654
310.633
310.612
310.591
310.57
310.549
310.528
310.507
310.486
310.466
310.445
310.424
310.403
310.382
310.361
310.34
310.319
310.298
310.277
310.256
310.235
310.214
310.194
310.173
310.152
310.131
310.11
310.089
310.068
310.047
310.026
310.005
309.984
309.964
309.943
309.922
309.901
309.88
309.859
309.838
309.817
309.796
309.775
309.755
309.734
309.713
309.692
309.671
309.65
309.629
309.608
309.587
309.566
309.546
309.525
309.504
309.483
309.462
309.441
309.42
309.399
309.378
309.358
309.337
309.316
309.295
309.274
309.253
309.232
309.211
309.191
309.17
309.149
309.128
309.107
309.086
309.065
309.044
309.023
309.003
308.982
308.961
308.94
308.919
308.898
308.877
308.857
308.836
308.815
308.794
308.773
308.752
308.731
308.71
308.69
308.669
308.648
308.627
308.606
308.585
308.564
308.544
308.523
308.502
308.481
308.46
308.439
308.418
308.398
308.377
308.356
308.335
308.314
308.293
308.272
308.252
308.231
308.21
308.189
308.168
308.147
308.127
308.106
308.085
308.064
308.043
308.022
308.001
307.981
307.96
307.939
307.918
307.897
307.876
307.856
307.835
307.814
307.793
307.772
307.751
307.731
307.71
307.689
307.668
307.647
307.626
307.606
307.585
307.564
307.543
307.522
307.502
307.481
307.46
307.439
307.418
307.397
307.377
307.356
307.335
307.314
307.293
307.272
307.252
307.231
307.21
307.189
307.168
307.148
307.127
307.106
307.085
307.064
307.044
307.023
307.002
306.981
306.96
306.94
306.919
306.898
306.877
306.856
306.836
306.815
306.794
306.773
306.752
306.732
306.711
306.69
306.669
306.648
306.628
306.607
306.586
306.565
306.544
306.524
306.503
306.482
306.461
306.44
306.42
306.399
306.378
306.357
306.336
306.316
306.295
306.274
306.253
306.233
306.212
306.191
306.17
306.149
306.129
306.108
306.087
306.066
306.046
306.025
306.004
305.983
305.962
305.942
305.921
305.9
305.879
305.859
305.838
305.817
305.796
305.776
305.755
305.734
305.713
305.693
305.672
305.651
305.63
305.609
305.589
305.568
305.547
305.526
305.506
305.485
305.464
305.443
305.423
305.402
305.381
305.36
305.34
305.319
305.298
305.277
305.257
305.236
305.215
305.194
305.174
305.153
305.132
305.111
305.091
305.07
305.049
305.028
305.008
304.987
304.966
304.946
304.925
304.904
304.883
304.863
304.842
304.821
304.8
304.78
304.759
304.738
304.717
304.697
304.676
304.655
304.635
304.614
304.593
304.572
304.552
304.531
304.51
304.49
304.469
304.448
304.427
304.407
304.386
304.365
304.344
304.324
304.303
304.282
304.262
304.241
304.22
304.199
304.179
304.158
304.137
304.117
304.096
304.075
304.055
304.034
304.013
303.992
303.972
303.951
303.93
303.91
303.889
303.868
303.847
303.827
303.806
303.785
303.765
303.744
303.723
303.703
303.682
303.661
303.641
303.62
303.599
303.578
303.558
303.537
303.516
303.496
303.475
303.454
303.434
303.413
303.392
303.372
303.351
303.33
303.31
303.289
303.268
303.247
303.227
303.206
303.185
303.165
303.144
303.123
303.103
303.082
303.061
303.041
303.02
302.999
302.979
302.958
302.937
302.917
302.896
302.875
302.855
302.834
302.813
302.793
302.772
302.751
302.731
302.71
302.689
302.669
302.648
302.627
302.607
302.586
302.565
302.545
302.524
302.504
302.483
302.462
302.442
302.421
302.4
302.38
302.359
302.338
302.318
302.297
302.276
302.256
302.235
302.214
302.194
302.173
302.152
302.132
302.111
302.091
302.07
302.049
302.029
302.008
301.987
301.967
301.946
301.925
301.905
301.884
301.864
301.843
301.822
301.802
301.781
301.76
301.74
301.719
301.699
301.678
301.657
301.637
301.616
301.595
301.575
301.554
301.534
301.513
301.492
301.472
301.451
301.43
301.41
301.389
301.369
301.348
301.327
301.307
301.286
301.266
301.245
301.224
301.204
301.183
301.163
301.142
301.121
301.101
301.08
301.059
301.039
301.018
300.998
300.977
300.956
300.936
300.915
300.895
300.874
300.853
300.833
300.812
300.792
300.771
300.75
300.73
300.709
300.689
300.668
300.648
300.627
300.606
300.586
300.565
300.545
300.524
300.503
300.483
300.462
300.442
300.421
300.401
300.38
300.359
300.339
300.318
300.298
300.277
300.256
300.236
300.215
300.195
300.174
300.154
300.133
300.112
300.092
300.071
300.051
300.03
300.01
299.989
299.968
299.948
299.927
299.907
299.886
299.866
299.845
299.825
299.804
299.783
299.763
299.742
299.722
299.701
299.681
299.66
299.639
299.619
299.598
299.578
299.557
299.537
299.516
299.496
299.475
299.455
299.434
299.413
299.393
299.372
299.352
299.331
299.311
299.29
299.27
299.249
299.229
299.208
299.187
299.167
299.146
299.126
299.105
299.085
299.064
299.044
299.023
299.003
298.982
298.962
298.941
298.92
298.9
298.879
298.859
298.838
298.818
298.797
298.777
298.756
298.736
298.715
298.695
298.674
298.654
298.633
298.613
298.592
298.572
298.551
298.531
298.51
298.489
298.469
298.448
298.428
298.407
298.387
298.366
298.346
298.325
298.305
298.284
298.264
298.243
298.223
298.202
298.182
298.161
298.141
298.12
298.1
298.079
298.059
298.038
298.018
297.997
297.977
297.956
297.936
297.915
297.895
297.874
297.854
297.833
297.813
297.792
297.772
297.751
297.731
297.71
297.69
297.669
297.649
297.628
297.608
297.587
297.567
297.547
297.526
297.506
297.485
297.465
297.444
297.424
297.403
297.383
297.362
297.342
297.321
297.301
297.28
297.26
297.239
297.219
297.198
297.178
297.157
297.137
297.117
297.096
297.076
297.055
297.035
297.014
296.994
296.973
296.953
296.932
296.912
296.891
296.871
296.85
296.83
296.81
296.789
296.769
296.748
296.728
296.707
296.687
296.666
296.646
296.625
296.605
296.585
296.564
296.544
296.523
296.503
296.482
296.462
296.441
296.421
296.401
296.38
296.36
296.339
296.319
296.298
296.278
296.257
296.237
296.217
296.196
296.176
296.155
296.135
296.114
296.094
296.074
296.053
296.033
296.012
295.992
295.971
295.951
295.931
295.91
295.89
295.869
295.849
295.828
295.808
295.788
295.767
295.747
295.726
295.706
295.685
295.665
295.645
295.624
295.604
295.583
295.563
295.543
295.522
295.502
295.481
295.461
295.441
295.42
295.4
295.379
295.359
295.338
295.318
295.298
295.277
295.257
295.236
295.216
295.196
295.175
295.155
295.134
295.114
295.094
295.073
295.053
295.032
295.012
294.992
294.971
294.951
294.93
294.91
294.89
294.869
294.849
294.829
294.808
294.788
294.767
294.747
294.727
294.706
294.686
294.665
294.645
294.625
294.604
294.584
294.564
294.543
294.523
294.502
294.482
294.462
294.441
294.421
294.401
294.38
294.36
294.339
294.319
294.299
294.278
294.258
294.238
294.217
294.197
294.176
294.156
294.136
294.115
294.095
294.075
294.054
294.034
294.014
293.993
293.973
293.952
293.932
293.912
293.891
293.871
293.851
293.83
293.81
293.79
293.769
293.749
293.729
293.708
293.688
293.668
293.647
293.627
293.606
293.586
293.566
293.545
293.525
293.505
293.484
293.464
293.444
293.423
293.403
293.383
293.362
293.342
293.322
293.301
293.281
293.261
293.24
293.22
293.2
293.179
293.159
293.139
293.118
293.098
293.078
293.057
293.037
293.017
292.996
292.976
292.956
292.935
292.915
292.895
292.874
292.854
292.834
292.814
292.793
292.773
292.753
292.732
292.712
292.692
292.671
292.651
292.631
292.61
292.59
292.57
292.549
292.529
292.509
292.489
292.468
292.448
292.428
292.407
292.387
292.367
292.346
292.326
292.306
292.285
292.265
292.245
292.225
292.204
292.184
292.164
292.143
292.123
292.103
292.083
292.062
292.042
292.022
292.001
291.981
291.961
291.94
291.92
291.9
291.88
291.859
291.839
291.819
291.798
291.778
291.758
291.738
291.717
291.697
291.677
291.657
291.636
291.616
291.596
291.575
291.555
291.535
291.515
291.494
291.474
291.454
291.434
291.413
291.393
291.373
291.352
291.332
291.312
291.292
291.271
291.251
291.231
291.211
291.19
291.17
291.15
291.13
291.109
291.089
291.069
291.049
291.028
291.008
290.988
290.967
290.947
290.927
290.907
290.886
290.866
290.846
290.826
290.805
290.785
290.765
290.745
290.725
290.704
290.684
290.664
290.644
290.623
290.603
290.583
290.563
290.542
290.522
290.502
290.482
290.461
290.441
290.421
290.401
290.38
290.36
290.34
290.32
290.3
290.279
290.259
290.239
290.219
290.198
290.178
290.158
290.138
290.117
290.097
290.077
290.057
290.037
290.016
289.996
289.976
289.956
289.935
289.915
289.895
289.875
289.855
289.834
289.814
289.794
289.774
289.754
289.733
289.713
289.693
289.673
289.653
289.632
289.612
289.592
289.572
289.551
289.531
289.511
289.491
289.471
289.45
289.43
289.41
289.39
289.37
289.349
289.329
289.309
289.289
289.269
289.249
289.228
289.208
289.188
289.168
289.148
289.127
289.107
289.087
289.067
289.047
289.026
289.006
288.986
288.966
288.946
288.926
288.905
288.885
288.865
288.845
288.825
288.804
288.784
288.764
288.744
288.724
288.704
288.683
288.663
288.643
288.623
288.603
288.583
288.562
288.542
288.522
288.502
288.482
288.462
288.441
288.421
288.401
288.381
288.361
288.341
288.32
288.3
288.28
288.26
288.24
288.22
288.199
288.179
288.159
288.139
288.119
288.099
288.078
288.059
288.038
288.019
287.997
287.979
287.957
287.939
287.916
287.899
287.875
287.859
287.834
287.819
287.794
287.779
287.753
287.739
287.713
287.699
287.672
287.659
287.632
287.618
287.593
287.577
287.553
287.536
287.514
287.494
287.475
287.453
287.436
287.412
287.396
287.371
287.356
287.331
287.315
287.292
287.274
287.253
287.232
287.214
287.191
287.174
287.15
287.134
287.11
287.093
287.071
287.052
287.032
287.01
286.993
286.969
286.953
286.929
286.912
286.89
286.871
286.851
286.829
286.812
286.789
286.772
286.749
286.731
286.71
286.689
286.671
286.648
286.631
286.608
286.59
286.569
286.549
286.53
286.508
286.49
286.467
286.45
286.428
286.409
286.389
286.367
286.349
286.327
286.309
286.287
286.268
286.248
286.227
286.209
286.186
286.168
286.147
286.127
286.108
286.086
286.068
286.046
286.027
286.007
285.986
285.968
285.945
285.927
285.906
285.886
285.867
285.845
285.827
285.805
285.786
285.766
285.745
285.727
285.705
285.686
285.665
285.645
285.626
285.604
285.586
285.564
285.545
285.525
285.504
285.486
285.464
285.445
285.425
285.404
285.385
285.364
285.345
285.324
285.304
285.285
285.263
285.245
285.224
285.204
285.185
285.163
285.145
285.124
285.104
285.084
285.063
285.045
285.023
285.004
284.984
284.963
284.944
284.923
284.903
284.884
284.863
284.844
284.823
284.803
284.784
284.763
284.744
284.723
284.703
284.684
284.662
284.644
284.623
284.603
284.584
284.562
284.543
284.523
284.502
284.483
284.462
284.443
284.423
284.402
284.383
284.362
284.343
284.323
284.302
284.283
284.262
284.242
284.223
284.202
284.183
284.163
284.142
284.123
284.102
284.083
284.063
284.042
284.023
284.002
283.982
283.963
283.942
283.923
283.902
283.882
283.863
283.842
283.823
283.803
283.782
283.763
283.742
283.722
283.703
283.682
283.663
283.643
283.622
283.603
283.582
283.563
283.543
283.522
283.503
283.483
283.462
283.443
283.422
283.403
283.383
283.362
283.343
283.323
283.302
283.283
283.263
283.243
283.223
283.202
283.183
283.163
283.143
283.123
283.103
283.083
283.063
283.043
283.023
283.003
282.983
282.963
282.943
282.923
282.904
282.883
282.863
282.844
282.823
282.804
282.783
282.763
282.744
282.723
282.704
282.684
282.663
282.644
282.624
282.604
282.584
282.564
282.544
282.524
282.504
282.484
282.464
282.444
282.424
282.404
282.384
282.365
282.344
282.324
282.305
282.284
282.265
282.245
282.225
282.205
282.185
282.165
282.145
282.125
282.105
282.085
282.065
282.045
282.026
282.005
281.986
281.966
281.945
281.926
281.906
281.886
281.866
281.846
281.826
281.806
281.786
281.766
281.747
281.726
281.707
281.687
281.667
281.647
281.627
281.607
281.587
281.567
281.547
281.527
281.507
281.487
281.468
281.447
281.428
281.408
281.388
281.368
281.348
281.328
281.308
281.288
281.268
281.249
281.229
281.209
281.189
281.169
281.149
281.129
281.109
281.089
281.07
281.049
281.03
281.01
280.99
280.97
280.95
280.93
280.91
280.89
280.87
280.851
280.831
280.811
280.791
280.771
280.751
280.731
280.711
280.691
280.672
280.652
280.632
280.612
280.592
280.572
280.552
280.532
280.512
280.493
280.473
280.453
280.433
280.413
280.393
280.373
280.353
280.334
280.314
280.294
280.274
280.254
280.234
280.214
280.195
280.175
280.155
280.135
280.115
280.095
280.075
280.055
280.036
280.016
279.996
279.976
279.956
279.936
279.917
279.897
279.877
279.857
279.837
279.817
279.797
279.777
279.758
279.738
279.718
279.698
279.678
279.658
279.638
279.619
279.599
279.579
279.559
279.539
279.519
279.5
279.48
279.46
279.44
279.42
279.4
279.381
279.361
279.341
279.321
279.301
279.281
279.262
279.242
279.222
279.202
279.182
279.162
279.143
279.123
279.103
279.083
279.063
279.043
279.024
279.004
278.984
278.964
278.944
278.924
278.905
278.885
278.865
278.845
278.825
278.805
278.786
278.766
278.746
278.726
278.706
278.687
278.667
278.647
278.627
278.607
278.588
278.568
278.548
278.528
278.508
278.488
278.469
278.449
278.429
278.409
278.389
278.37
278.35
278.33
278.31
278.291
278.271
278.251
278.231
278.211
278.191
278.172
278.152
278.132
278.112
278.093
278.073
278.053
278.033
278.013
277.994
277.974
277.954
277.934
277.914
277.895
277.875
277.855
277.835
277.815
277.796
277.776
277.756
277.736
277.717
277.697
277.677
277.657
277.637
277.618
277.598
277.578
277.558
277.539
277.519
277.499
277.479
277.46
277.44
277.42
277.4
277.38
277.361
277.341
277.321
277.301
277.282
277.262
277.242
277.222
277.203
277.183
277.163
277.143
277.124
277.104
277.084
277.064
277.045
277.025
277.005
276.985
276.966
276.946
276.926
276.906
276.887
276.867
276.847
276.827
276.808
276.788
276.768
276.748
276.729
276.709
276.689
276.669
276.65
276.63
276.61
276.591
276.571
276.551
276.531
276.512
276.492
276.472
276.452
276.433
276.413
276.393
276.373
276.354
276.334
276.314
276.295
276.275
276.255
276.235
276.216
276.196
276.176
276.156
276.137
276.117
276.097
276.078
276.058
276.038
276.018
275.999
275.979
275.959
275.94
275.92
275.9
275.88
275.861
275.841
275.821
275.802
275.782
275.762
275.743
275.723
275.703
275.683
275.664
275.644
275.624
275.605
275.585
275.565
275.546
275.526
275.506
275.486
275.467
275.447
275.427
275.408
275.388
275.368
275.349
275.329
275.309
275.29
275.27
275.25
275.23
275.211
275.191
275.171
275.152
275.132
275.112
275.093
275.073
275.053
275.034
275.014
274.994
274.975
274.955
274.935
274.916
274.896
274.876
274.857
274.837
274.817
274.798
274.778
274.758
274.739
274.719
274.699
274.68
274.66
274.64
274.621
274.601
274.581
274.562
274.542
274.522
274.503
274.483
274.463
274.444
274.424
274.404
274.385
274.365
274.345
274.326
274.306
274.286
274.267
274.247
274.227
274.208
274.188
274.169
274.149
274.129
274.11
274.09
274.07
274.051
274.031
274.011
273.992
273.972
273.952
273.933
273.913
273.894
273.874
273.854
273.835
273.815
273.795
273.776
273.756
273.737
273.717
273.697
273.678
273.658
273.638
273.619
273.599
273.58
273.56
273.54
273.521
273.501
273.481
273.462
273.442
273.423
273.403
273.383
273.364
273.344
273.324
273.305
273.285
273.266
273.246
273.226
273.207
273.187
273.168
273.148
273.128
273.109
273.089
273.07
273.05
273.03
273.011
272.991
272.972
272.952
272.932
272.913
272.893
272.874
272.854
272.834
272.815
272.795
272.776
272.756
272.736
272.717
272.697
272.678
272.658
272.638
272.619
272.599
272.58
272.56
272.541
272.521
272.501
272.482
272.462
272.443
272.423
272.403
272.384
272.364
272.345
272.325
272.306
272.286
272.266
272.247
272.227
272.208
272.188
272.169
272.149
272.129
272.11
272.09
272.071
272.051
272.032
272.012
271.992
271.973
271.953
271.934
271.914
271.895
271.875
271.856
271.836
271.816
271.797
271.777
271.758
271.738
271.719
271.699
271.68
271.66
271.64
271.621
271.601
271.582
271.562
271.543
271.523
271.504
271.484
271.465
271.445
271.425
271.406
271.386
271.367
271.347
271.328
271.308
271.289
271.269
271.25
271.23
271.211
271.191
271.172
271.152
271.132
271.113
271.093
271.074
271.054
271.035
271.015
270.996
270.976
270.957
270.937
270.918
270.898
270.879
270.859
270.84
270.82
270.801
270.781
270.762
270.742
270.723
270.703
270.683
270.664
270.644
270.625
270.605
270.586
270.566
270.547
270.527
270.508
270.488
270.469
270.449
270.43
270.41
270.391
270.371
270.352
270.332
270.313
270.293
270.274
270.254
270.235
270.215
270.196
270.176
270.157
270.137
270.118
270.098
270.079
270.059
270.04
270.021
270.001
269.982
269.962
269.943
269.923
269.904
269.884
269.865
269.845
269.826
269.806
269.787
269.767
269.748
269.728
269.709
269.689
269.67
269.65
269.631
269.611
269.592
269.573
269.553
269.534
269.514
269.495
269.475
269.456
269.436
269.417
269.397
269.378
269.358
269.339
269.32
269.3
269.281
269.261
269.242
269.222
269.203
269.183
269.164
269.144
269.125
269.106
269.086
269.067
269.047
269.028
269.008
268.989
268.969
268.95
268.93
268.911
268.892
268.872
268.853
268.833
268.814
268.794
268.775
268.756
268.736
268.717
268.697
268.678
268.658
268.639
268.62
268.6
268.581
268.561
268.542
268.522
268.503
268.484
268.464
268.445
268.425
268.406
268.386
268.367
268.348
268.328
268.309
268.289
268.27
268.25
268.231
268.212
268.192
268.173
268.153
268.134
268.115
268.095
268.076
268.056
268.037
268.018
267.998
267.979
267.959
267.94
267.921
267.901
267.882
267.862
267.843
267.824
267.804
267.785
267.765
267.746
267.727
267.707
267.688
267.668
267.649
267.63
267.61
267.591
267.571
267.552
267.533
267.513
267.494
267.474
267.455
267.436
267.416
267.397
267.378
267.358
267.339
267.319
267.3
267.281
267.261
267.242
267.223
267.203
267.184
267.164
267.145
267.126
267.106
267.087
267.068
267.048
267.029
267.009
266.99
266.971
266.951
266.932
266.913
266.893
266.874
266.855
266.835
266.816
266.796
266.777
266.758
266.738
266.719
266.7
266.68
266.661
266.642
266.622
266.603
266.584
266.564
266.545
266.526
266.506
266.487
266.468
266.448
266.429
266.41
266.39
266.371
266.351
266.332
266.313
266.293
266.274
266.255
266.235
266.216
266.197
266.177