/*--------------------------------*- C++ -*----------------------------------*\
  =========                 |
  \\      /  F ield         | OpenFOAM: The Open Source CFD Toolbox
   \\    /   O peration     | Website:  https://openfoam.org
    \\  /    A nd           | Version:  9
     \\/     M anipulation  |
\*---------------------------------------------------------------------------*/
FoamFile
{
    format      ascii;
    class       volVectorField;
    location    "0.014";
    object      U_0;
}
// * * * * * * * * * * * * * * * * * * * * * * * * * * * * * * * * * * * * * //

dimensions      [0 1 -1 0 0 0 0];

internalField   nonuniform List<vector> 
10000
(
(0.453805 0 0)
(0.666413 0 0)
(0.717278 0 0)
(0.869444 0 0)
(0.968605 0 0)
(1.08722 0 0)
(1.20304 0 0)
(1.31817 0 0)
(1.43341 0 0)
(1.54871 0 0)
(1.664 0 0)
(1.77929 0 0)
(1.89458 0 0)
(2.00987 0 0)
(2.12516 0 0)
(2.24045 0 0)
(2.35575 0 0)
(2.47104 0 0)
(2.58633 0 0)
(2.70162 0 0)
(2.8169 0 0)
(2.93219 0 0)
(3.04748 0 0)
(3.16276 0 0)
(3.27805 0 0)
(3.39333 0 0)
(3.50861 0 0)
(3.6239 0 0)
(3.73918 0 0)
(3.85445 0 0)
(3.96973 0 0)
(4.08501 0 0)
(4.20028 0 0)
(4.31555 0 0)
(4.43082 0 0)
(4.54609 0 0)
(4.66135 0 0)
(4.77662 0 0)
(4.89188 0 0)
(5.00714 0 0)
(5.1224 0 0)
(5.23765 0 0)
(5.35291 0 0)
(5.46816 0 0)
(5.58341 0 0)
(5.69865 0 0)
(5.8139 0 0)
(5.92914 0 0)
(6.04438 0 0)
(6.15961 0 0)
(6.27484 0 0)
(6.39007 0 0)
(6.5053 0 0)
(6.62052 0 0)
(6.73574 0 0)
(6.85096 0 0)
(6.96618 0 0)
(7.08139 0 0)
(7.19659 0 0)
(7.3118 0 0)
(7.427 0 0)
(7.5422 0 0)
(7.65739 0 0)
(7.77258 0 0)
(7.88777 0 0)
(8.00295 0 0)
(8.11813 0 0)
(8.2333 0 0)
(8.34847 0 0)
(8.46364 0 0)
(8.5788 0 0)
(8.69396 0 0)
(8.80911 0 0)
(8.92426 0 0)
(9.0394 0 0)
(9.15454 0 0)
(9.26968 0 0)
(9.38481 0 0)
(9.49993 0 0)
(9.61505 0 0)
(9.73017 0 0)
(9.84528 0 0)
(9.96038 0 0)
(10.0755 0 0)
(10.1906 0 0)
(10.3057 0 0)
(10.4208 0 0)
(10.5358 0 0)
(10.6509 0 0)
(10.766 0 0)
(10.881 0 0)
(10.9961 0 0)
(11.1111 0 0)
(11.2262 0 0)
(11.3412 0 0)
(11.4563 0 0)
(11.5713 0 0)
(11.6863 0 0)
(11.8013 0 0)
(11.9163 0 0)
(12.0313 0 0)
(12.1463 0 0)
(12.2613 0 0)
(12.3763 0 0)
(12.4912 0 0)
(12.6062 0 0)
(12.7212 0 0)
(12.8361 0 0)
(12.951 0 0)
(13.066 0 0)
(13.1809 0 0)
(13.2958 0 0)
(13.4107 0 0)
(13.5256 0 0)
(13.6405 0 0)
(13.7554 0 0)
(13.8703 0 0)
(13.9852 0 0)
(14.1 0 0)
(14.2149 0 0)
(14.3297 0 0)
(14.4445 0 0)
(14.5594 0 0)
(14.6742 0 0)
(14.789 0 0)
(14.9038 0 0)
(15.0185 0 0)
(15.1333 0 0)
(15.2481 0 0)
(15.3628 0 0)
(15.4776 0 0)
(15.5923 0 0)
(15.707 0 0)
(15.8217 0 0)
(15.9364 0 0)
(16.0511 0 0)
(16.1658 0 0)
(16.2804 0 0)
(16.3951 0 0)
(16.5097 0 0)
(16.6244 0 0)
(16.739 0 0)
(16.8536 0 0)
(16.9681 0 0)
(17.0827 0 0)
(17.1973 0 0)
(17.3118 0 0)
(17.4263 0 0)
(17.5408 0 0)
(17.6553 0 0)
(17.7698 0 0)
(17.8843 0 0)
(17.9987 0 0)
(18.1132 0 0)
(18.2276 0 0)
(18.342 0 0)
(18.4564 0 0)
(18.5707 0 0)
(18.6851 0 0)
(18.7994 0 0)
(18.9137 0 0)
(19.028 0 0)
(19.1422 0 0)
(19.2565 0 0)
(19.3707 0 0)
(19.4849 0 0)
(19.5991 0 0)
(19.7132 0 0)
(19.8273 0 0)
(19.9414 0 0)
(20.0555 0 0)
(20.1696 0 0)
(20.2836 0 0)
(20.3976 0 0)
(20.5115 0 0)
(20.6255 0 0)
(20.7394 0 0)
(20.8533 0 0)
(20.9671 0 0)
(21.0809 0 0)
(21.1947 0 0)
(21.3084 0 0)
(21.4221 0 0)
(21.5358 0 0)
(21.6494 0 0)
(21.763 0 0)
(21.8766 0 0)
(21.9901 0 0)
(22.1035 0 0)
(22.2169 0 0)
(22.3303 0 0)
(22.4436 0 0)
(22.5569 0 0)
(22.6701 0 0)
(22.7833 0 0)
(22.8964 0 0)
(23.0094 0 0)
(23.1224 0 0)
(23.2353 0 0)
(23.3482 0 0)
(23.4609 0 0)
(23.5737 0 0)
(23.6863 0 0)
(23.7988 0 0)
(23.9113 0 0)
(24.0237 0 0)
(24.136 0 0)
(24.2482 0 0)
(24.3604 0 0)
(24.4724 0 0)
(24.5843 0 0)
(24.6961 0 0)
(24.8078 0 0)
(24.9194 0 0)
(25.0308 0 0)
(25.1422 0 0)
(25.2534 0 0)
(25.3644 0 0)
(25.4753 0 0)
(25.586 0 0)
(25.6966 0 0)
(25.807 0 0)
(25.9172 0 0)
(26.0273 0 0)
(26.1371 0 0)
(26.2467 0 0)
(26.3561 0 0)
(26.4653 0 0)
(26.5742 0 0)
(26.6829 0 0)
(26.7913 0 0)
(26.8994 0 0)
(27.0072 0 0)
(27.1147 0 0)
(27.2219 0 0)
(27.3287 0 0)
(27.4352 0 0)
(27.5412 0 0)
(27.6469 0 0)
(27.7521 0 0)
(27.8568 0 0)
(27.9611 0 0)
(28.0649 0 0)
(28.1681 0 0)
(28.2708 0 0)
(28.3729 0 0)
(28.4743 0 0)
(28.5751 0 0)
(28.6753 0 0)
(28.7747 0 0)
(28.8734 0 0)
(28.9714 0 0)
(29.0685 0 0)
(29.1648 0 0)
(29.2602 0 0)
(29.3547 0 0)
(29.4483 0 0)
(29.541 0 0)
(29.6327 0 0)
(29.7234 0 0)
(29.813 0 0)
(29.9016 0 0)
(29.9892 0 0)
(30.0756 0 0)
(30.161 0 0)
(30.2453 0 0)
(30.3284 0 0)
(30.4105 0 0)
(30.4915 0 0)
(30.5713 0 0)
(30.6501 0 0)
(30.7278 0 0)
(30.8045 0 0)
(30.8801 0 0)
(30.9547 0 0)
(31.0283 0 0)
(31.101 0 0)
(31.1728 0 0)
(31.2436 0 0)
(31.3136 0 0)
(31.3828 0 0)
(31.4512 0 0)
(31.5189 0 0)
(31.5859 0 0)
(31.6522 0 0)
(31.718 0 0)
(31.7831 0 0)
(31.8477 0 0)
(31.9118 0 0)
(31.9754 0 0)
(32.0386 0 0)
(32.1015 0 0)
(32.1639 0 0)
(32.226 0 0)
(32.2879 0 0)
(32.3494 0 0)
(32.4107 0 0)
(32.4718 0 0)
(32.5327 0 0)
(32.5934 0 0)
(32.6539 0 0)
(32.7143 0 0)
(32.7745 0 0)
(32.8347 0 0)
(32.8947 0 0)
(32.9547 0 0)
(33.0145 0 0)
(33.0743 0 0)
(33.1341 0 0)
(33.1938 0 0)
(33.2534 0 0)
(33.313 0 0)
(33.3726 0 0)
(33.4321 0 0)
(33.4916 0 0)
(33.5511 0 0)
(33.6105 0 0)
(33.67 0 0)
(33.7294 0 0)
(33.7888 0 0)
(33.8482 0 0)
(33.9076 0 0)
(33.967 0 0)
(34.0264 0 0)
(34.0858 0 0)
(34.1452 0 0)
(34.2045 0 0)
(34.2639 0 0)
(34.3233 0 0)
(34.3826 0 0)
(34.442 0 0)
(34.5014 0 0)
(34.5607 0 0)
(34.6201 0 0)
(34.6794 0 0)
(34.7388 0 0)
(34.7981 0 0)
(34.8575 0 0)
(34.9169 0 0)
(34.9762 0 0)
(35.0356 0 0)
(35.0949 0 0)
(35.1543 0 0)
(35.2136 0 0)
(35.273 0 0)
(35.3323 0 0)
(35.3917 0 0)
(35.4511 0 0)
(35.5104 0 0)
(35.5698 0 0)
(35.6291 0 0)
(35.6885 0 0)
(35.7478 0 0)
(35.8072 0 0)
(35.8666 0 0)
(35.9259 0 0)
(35.9853 0 0)
(36.0446 0 0)
(36.104 0 0)
(36.1634 0 0)
(36.2227 0 0)
(36.2821 0 0)
(36.3414 0 0)
(36.4008 0 0)
(36.4602 0 0)
(36.5195 0 0)
(36.5789 0 0)
(36.6382 0 0)
(36.6976 0 0)
(36.757 0 0)
(36.8163 0 0)
(36.8757 0 0)
(36.9351 0 0)
(36.9944 0 0)
(37.0538 0 0)
(37.1131 0 0)
(37.1725 0 0)
(37.2319 0 0)
(37.2912 0 0)
(37.3506 0 0)
(37.41 0 0)
(37.4693 0 0)
(37.5287 0 0)
(37.5881 0 0)
(37.6474 0 0)
(37.7068 0 0)
(37.7662 0 0)
(37.8255 0 0)
(37.8849 0 0)
(37.9443 0 0)
(38.0036 0 0)
(38.063 0 0)
(38.1224 0 0)
(38.1817 0 0)
(38.2411 0 0)
(38.3005 0 0)
(38.3599 0 0)
(38.4192 0 0)
(38.4786 0 0)
(38.538 0 0)
(38.5973 0 0)
(38.6567 0 0)
(38.7161 0 0)
(38.7754 0 0)
(38.8348 0 0)
(38.8942 0 0)
(38.9536 0 0)
(39.0129 0 0)
(39.0723 0 0)
(39.1317 0 0)
(39.191 0 0)
(39.2504 0 0)
(39.3098 0 0)
(39.3692 0 0)
(39.4285 0 0)
(39.4879 0 0)
(39.5473 0 0)
(39.6067 0 0)
(39.666 0 0)
(39.7254 0 0)
(39.7848 0 0)
(39.8442 0 0)
(39.9035 0 0)
(39.9629 0 0)
(40.0223 0 0)
(40.0817 0 0)
(40.141 0 0)
(40.2004 0 0)
(40.2598 0 0)
(40.3192 0 0)
(40.3785 0 0)
(40.4379 0 0)
(40.4973 0 0)
(40.5567 0 0)
(40.6161 0 0)
(40.6754 0 0)
(40.7348 0 0)
(40.7942 0 0)
(40.8536 0 0)
(40.913 0 0)
(40.9723 0 0)
(41.0317 0 0)
(41.0911 0 0)
(41.1505 0 0)
(41.2098 0 0)
(41.2692 0 0)
(41.3286 0 0)
(41.388 0 0)
(41.4474 0 0)
(41.5068 0 0)
(41.5661 0 0)
(41.6255 0 0)
(41.6849 0 0)
(41.7443 0 0)
(41.8037 0 0)
(41.863 0 0)
(41.9224 0 0)
(41.9818 0 0)
(42.0412 0 0)
(42.1006 0 0)
(42.16 0 0)
(42.2193 0 0)
(42.2787 0 0)
(42.3381 0 0)
(42.3975 0 0)
(42.4569 0 0)
(42.5163 0 0)
(42.5756 0 0)
(42.635 0 0)
(42.6944 0 0)
(42.7538 0 0)
(42.8132 0 0)
(42.8726 0 0)
(42.932 0 0)
(42.9913 0 0)
(43.0507 0 0)
(43.1101 0 0)
(43.1695 0 0)
(43.2289 0 0)
(43.2883 0 0)
(43.3477 0 0)
(43.407 0 0)
(43.4664 0 0)
(43.5258 0 0)
(43.5852 0 0)
(43.6446 0 0)
(43.704 0 0)
(43.7634 0 0)
(43.8228 0 0)
(43.8821 0 0)
(43.9415 0 0)
(44.0009 0 0)
(44.0603 0 0)
(44.1197 0 0)
(44.1791 0 0)
(44.2385 0 0)
(44.2979 0 0)
(44.3573 0 0)
(44.4166 0 0)
(44.476 0 0)
(44.5354 0 0)
(44.5948 0 0)
(44.6542 0 0)
(44.7136 0 0)
(44.773 0 0)
(44.8324 0 0)
(44.8918 0 0)
(44.9512 0 0)
(45.0106 0 0)
(45.0699 0 0)
(45.1293 0 0)
(45.1887 0 0)
(45.2481 0 0)
(45.3075 0 0)
(45.3669 0 0)
(45.4263 0 0)
(45.4857 0 0)
(45.5451 0 0)
(45.6045 0 0)
(45.6639 0 0)
(45.7233 0 0)
(45.7827 0 0)
(45.8421 0 0)
(45.9015 0 0)
(45.9608 0 0)
(46.0202 0 0)
(46.0796 0 0)
(46.139 0 0)
(46.1984 0 0)
(46.2578 0 0)
(46.3172 0 0)
(46.3766 0 0)
(46.436 0 0)
(46.4954 0 0)
(46.5548 0 0)
(46.6142 0 0)
(46.6736 0 0)
(46.733 0 0)
(46.7924 0 0)
(46.8518 0 0)
(46.9112 0 0)
(46.9706 0 0)
(47.03 0 0)
(47.0894 0 0)
(47.1488 0 0)
(47.2082 0 0)
(47.2676 0 0)
(47.327 0 0)
(47.3863 0 0)
(47.4457 0 0)
(47.5051 0 0)
(47.5645 0 0)
(47.6239 0 0)
(47.6833 0 0)
(47.7427 0 0)
(47.8021 0 0)
(47.8615 0 0)
(47.9209 0 0)
(47.9803 0 0)
(48.0397 0 0)
(48.0991 0 0)
(48.1585 0 0)
(48.2179 0 0)
(48.2773 0 0)
(48.3367 0 0)
(48.3961 0 0)
(48.4555 0 0)
(48.5149 0 0)
(48.5743 0 0)
(48.6337 0 0)
(48.6931 0 0)
(48.7525 0 0)
(48.8119 0 0)
(48.8713 0 0)
(48.9307 0 0)
(48.9901 0 0)
(49.0495 0 0)
(49.1089 0 0)
(49.1683 0 0)
(49.2277 0 0)
(49.2872 0 0)
(49.3466 0 0)
(49.406 0 0)
(49.4654 0 0)
(49.5248 0 0)
(49.5842 0 0)
(49.6436 0 0)
(49.703 0 0)
(49.7624 0 0)
(49.8218 0 0)
(49.8812 0 0)
(49.9406 0 0)
(50 0 0)
(50.0594 0 0)
(50.1188 0 0)
(50.1782 0 0)
(50.2376 0 0)
(50.297 0 0)
(50.3564 0 0)
(50.4158 0 0)
(50.4752 0 0)
(50.5346 0 0)
(50.594 0 0)
(50.6534 0 0)
(50.7128 0 0)
(50.7722 0 0)
(50.8317 0 0)
(50.8911 0 0)
(50.9505 0 0)
(51.0099 0 0)
(51.0693 0 0)
(51.1287 0 0)
(51.1881 0 0)
(51.2475 0 0)
(51.3069 0 0)
(51.3663 0 0)
(51.4257 0 0)
(51.4851 0 0)
(51.5445 0 0)
(51.6039 0 0)
(51.6633 0 0)
(51.7227 0 0)
(51.7822 0 0)
(51.8416 0 0)
(51.901 0 0)
(51.9604 0 0)
(52.0198 0 0)
(52.0792 0 0)
(52.1386 0 0)
(52.198 0 0)
(52.2574 0 0)
(52.3168 0 0)
(52.3762 0 0)
(52.4356 0 0)
(52.495 0 0)
(52.5545 0 0)
(52.6139 0 0)
(52.6733 0 0)
(52.7327 0 0)
(52.7921 0 0)
(52.8515 0 0)
(52.9109 0 0)
(52.9703 0 0)
(53.0297 0 0)
(53.0891 0 0)
(53.1486 0 0)
(53.208 0 0)
(53.2674 0 0)
(53.3268 0 0)
(53.3862 0 0)
(53.4456 0 0)
(53.505 0 0)
(53.5644 0 0)
(53.6238 0 0)
(53.6832 0 0)
(53.7427 0 0)
(53.8021 0 0)
(53.8615 0 0)
(53.9209 0 0)
(53.9803 0 0)
(54.0397 0 0)
(54.0991 0 0)
(54.1585 0 0)
(54.2179 0 0)
(54.2774 0 0)
(54.3368 0 0)
(54.3962 0 0)
(54.4556 0 0)
(54.515 0 0)
(54.5744 0 0)
(54.6338 0 0)
(54.6932 0 0)
(54.7527 0 0)
(54.8121 0 0)
(54.8715 0 0)
(54.9309 0 0)
(54.9903 0 0)
(55.0497 0 0)
(55.1091 0 0)
(55.1685 0 0)
(55.228 0 0)
(55.2874 0 0)
(55.3468 0 0)
(55.4062 0 0)
(55.4656 0 0)
(55.525 0 0)
(55.5844 0 0)
(55.6439 0 0)
(55.7033 0 0)
(55.7627 0 0)
(55.8221 0 0)
(55.8815 0 0)
(55.9409 0 0)
(56.0003 0 0)
(56.0598 0 0)
(56.1192 0 0)
(56.1786 0 0)
(56.238 0 0)
(56.2974 0 0)
(56.3568 0 0)
(56.4162 0 0)
(56.4757 0 0)
(56.5351 0 0)
(56.5945 0 0)
(56.6539 0 0)
(56.7133 0 0)
(56.7727 0 0)
(56.8322 0 0)
(56.8916 0 0)
(56.951 0 0)
(57.0104 0 0)
(57.0698 0 0)
(57.1292 0 0)
(57.1887 0 0)
(57.2481 0 0)
(57.3075 0 0)
(57.3669 0 0)
(57.4263 0 0)
(57.4857 0 0)
(57.5452 0 0)
(57.6046 0 0)
(57.664 0 0)
(57.7234 0 0)
(57.7828 0 0)
(57.8422 0 0)
(57.9017 0 0)
(57.9611 0 0)
(58.0205 0 0)
(58.0799 0 0)
(58.1393 0 0)
(58.1988 0 0)
(58.2582 0 0)
(58.3176 0 0)
(58.377 0 0)
(58.4364 0 0)
(58.4958 0 0)
(58.5553 0 0)
(58.6147 0 0)
(58.6741 0 0)
(58.7335 0 0)
(58.7929 0 0)
(58.8524 0 0)
(58.9118 0 0)
(58.9712 0 0)
(59.0306 0 0)
(59.09 0 0)
(59.1494 0 0)
(59.2089 0 0)
(59.2683 0 0)
(59.3277 0 0)
(59.3871 0 0)
(59.4465 0 0)
(59.506 0 0)
(59.5654 0 0)
(59.6248 0 0)
(59.6842 0 0)
(59.7436 0 0)
(59.8031 0 0)
(59.8625 0 0)
(59.9219 0 0)
(59.9813 0 0)
(60.0407 0 0)
(60.1002 0 0)
(60.1596 0 0)
(60.219 0 0)
(60.2784 0 0)
(60.3379 0 0)
(60.3973 0 0)
(60.4567 0 0)
(60.5161 0 0)
(60.5755 0 0)
(60.635 0 0)
(60.6944 0 0)
(60.7538 0 0)
(60.8132 0 0)
(60.8726 0 0)
(60.9321 0 0)
(60.9915 0 0)
(61.0509 0 0)
(61.1103 0 0)
(61.1698 0 0)
(61.2292 0 0)
(61.2886 0 0)
(61.348 0 0)
(61.4074 0 0)
(61.4669 0 0)
(61.5263 0 0)
(61.5857 0 0)
(61.6451 0 0)
(61.7046 0 0)
(61.764 0 0)
(61.8234 0 0)
(61.8828 0 0)
(61.9422 0 0)
(62.0017 0 0)
(62.0611 0 0)
(62.1205 0 0)
(62.1799 0 0)
(62.2394 0 0)
(62.2988 0 0)
(62.3582 0 0)
(62.4176 0 0)
(62.4771 0 0)
(62.5365 0 0)
(62.5959 0 0)
(62.6553 0 0)
(62.7147 0 0)
(62.7742 0 0)
(62.8336 0 0)
(62.893 0 0)
(62.9524 0 0)
(63.0119 0 0)
(63.0713 0 0)
(63.1307 0 0)
(63.1901 0 0)
(63.2496 0 0)
(63.309 0 0)
(63.3684 0 0)
(63.4278 0 0)
(63.4873 0 0)
(63.5467 0 0)
(63.6061 0 0)
(63.6655 0 0)
(63.725 0 0)
(63.7844 0 0)
(63.8438 0 0)
(63.9032 0 0)
(63.9627 0 0)
(64.0221 0 0)
(64.0815 0 0)
(64.1409 0 0)
(64.2004 0 0)
(64.2598 0 0)
(64.3192 0 0)
(64.3786 0 0)
(64.4381 0 0)
(64.4975 0 0)
(64.5569 0 0)
(64.6163 0 0)
(64.6758 0 0)
(64.7352 0 0)
(64.7946 0 0)
(64.8541 0 0)
(64.9135 0 0)
(64.9729 0 0)
(65.0323 0 0)
(65.0918 0 0)
(65.1512 0 0)
(65.2106 0 0)
(65.27 0 0)
(65.3295 0 0)
(65.3889 0 0)
(65.4483 0 0)
(65.5077 0 0)
(65.5672 0 0)
(65.6266 0 0)
(65.686 0 0)
(65.7455 0 0)
(65.8049 0 0)
(65.8643 0 0)
(65.9237 0 0)
(65.9832 0 0)
(66.0426 0 0)
(66.102 0 0)
(66.1614 0 0)
(66.2209 0 0)
(66.2803 0 0)
(66.3397 0 0)
(66.3992 0 0)
(66.4586 0 0)
(66.518 0 0)
(66.5774 0 0)
(66.6369 0 0)
(66.6963 0 0)
(66.7557 0 0)
(66.8152 0 0)
(66.8746 0 0)
(66.934 0 0)
(66.9934 0 0)
(67.0529 0 0)
(67.1123 0 0)
(67.1717 0 0)
(67.2312 0 0)
(67.2906 0 0)
(67.35 0 0)
(67.4094 0 0)
(67.4689 0 0)
(67.5283 0 0)
(67.5877 0 0)
(67.6472 0 0)
(67.7066 0 0)
(67.766 0 0)
(67.8254 0 0)
(67.8849 0 0)
(67.9443 0 0)
(68.0037 0 0)
(68.0632 0 0)
(68.1226 0 0)
(68.182 0 0)
(68.2414 0 0)
(68.3009 0 0)
(68.3603 0 0)
(68.4197 0 0)
(68.4792 0 0)
(68.5386 0 0)
(68.598 0 0)
(68.6575 0 0)
(68.7169 0 0)
(68.7763 0 0)
(68.8357 0 0)
(68.8952 0 0)
(68.9546 0 0)
(69.014 0 0)
(69.0735 0 0)
(69.1329 0 0)
(69.1923 0 0)
(69.2518 0 0)
(69.3112 0 0)
(69.3706 0 0)
(69.4301 0 0)
(69.4895 0 0)
(69.5489 0 0)
(69.6083 0 0)
(69.6678 0 0)
(69.7272 0 0)
(69.7866 0 0)
(69.8461 0 0)
(69.9055 0 0)
(69.9649 0 0)
(70.0244 0 0)
(70.0838 0 0)
(70.1432 0 0)
(70.2027 0 0)
(70.2621 0 0)
(70.3215 0 0)
(70.3809 0 0)
(70.4404 0 0)
(70.4998 0 0)
(70.5592 0 0)
(70.6187 0 0)
(70.6781 0 0)
(70.7375 0 0)
(70.797 0 0)
(70.8564 0 0)
(70.9158 0 0)
(70.9753 0 0)
(71.0347 0 0)
(71.0941 0 0)
(71.1536 0 0)
(71.213 0 0)
(71.2724 0 0)
(71.3319 0 0)
(71.3913 0 0)
(71.4507 0 0)
(71.5102 0 0)
(71.5696 0 0)
(71.629 0 0)
(71.6885 0 0)
(71.7479 0 0)
(71.8073 0 0)
(71.8668 0 0)
(71.9262 0 0)
(71.9856 0 0)
(72.045 0 0)
(72.1045 0 0)
(72.1639 0 0)
(72.2233 0 0)
(72.2828 0 0)
(72.3422 0 0)
(72.4016 0 0)
(72.4611 0 0)
(72.5205 0 0)
(72.5799 0 0)
(72.6394 0 0)
(72.6988 0 0)
(72.7582 0 0)
(72.8177 0 0)
(72.8771 0 0)
(72.9365 0 0)
(72.996 0 0)
(73.0554 0 0)
(73.1148 0 0)
(73.1743 0 0)
(73.2337 0 0)
(73.2931 0 0)
(73.3526 0 0)
(73.412 0 0)
(73.4715 0 0)
(73.5309 0 0)
(73.5903 0 0)
(73.6498 0 0)
(73.7092 0 0)
(73.7686 0 0)
(73.8281 0 0)
(73.8875 0 0)
(73.9469 0 0)
(74.0064 0 0)
(74.0658 0 0)
(74.1252 0 0)
(74.1847 0 0)
(74.2441 0 0)
(74.3035 0 0)
(74.363 0 0)
(74.4224 0 0)
(74.4818 0 0)
(74.5413 0 0)
(74.6007 0 0)
(74.6601 0 0)
(74.7196 0 0)
(74.779 0 0)
(74.8384 0 0)
(74.8979 0 0)
(74.9573 0 0)
(75.0167 0 0)
(75.0762 0 0)
(75.1356 0 0)
(75.1951 0 0)
(75.2545 0 0)
(75.3139 0 0)
(75.3734 0 0)
(75.4328 0 0)
(75.4922 0 0)
(75.5517 0 0)
(75.6111 0 0)
(75.6705 0 0)
(75.73 0 0)
(75.7894 0 0)
(75.8488 0 0)
(75.9083 0 0)
(75.9677 0 0)
(76.0271 0 0)
(76.0866 0 0)
(76.146 0 0)
(76.2055 0 0)
(76.2649 0 0)
(76.3243 0 0)
(76.3838 0 0)
(76.4432 0 0)
(76.5026 0 0)
(76.5621 0 0)
(76.6215 0 0)
(76.6809 0 0)
(76.7404 0 0)
(76.7998 0 0)
(76.8593 0 0)
(76.9187 0 0)
(76.9781 0 0)
(77.0376 0 0)
(77.097 0 0)
(77.1564 0 0)
(77.2159 0 0)
(77.2753 0 0)
(77.3347 0 0)
(77.3942 0 0)
(77.4536 0 0)
(77.5131 0 0)
(77.5725 0 0)
(77.6319 0 0)
(77.6914 0 0)
(77.7508 0 0)
(77.8102 0 0)
(77.8697 0 0)
(77.9291 0 0)
(77.9886 0 0)
(78.048 0 0)
(78.1074 0 0)
(78.1669 0 0)
(78.2263 0 0)
(78.2857 0 0)
(78.3452 0 0)
(78.4046 0 0)
(78.464 0 0)
(78.5235 0 0)
(78.5829 0 0)
(78.6424 0 0)
(78.7018 0 0)
(78.7612 0 0)
(78.8207 0 0)
(78.8801 0 0)
(78.9395 0 0)
(78.999 0 0)
(79.0584 0 0)
(79.1179 0 0)
(79.1773 0 0)
(79.2367 0 0)
(79.2962 0 0)
(79.3556 0 0)
(79.415 0 0)
(79.4745 0 0)
(79.5339 0 0)
(79.5934 0 0)
(79.6528 0 0)
(79.7122 0 0)
(79.7717 0 0)
(79.8311 0 0)
(79.8906 0 0)
(79.95 0 0)
(80.0094 0 0)
(80.0689 0 0)
(80.1283 0 0)
(80.1877 0 0)
(80.2472 0 0)
(80.3066 0 0)
(80.3661 0 0)
(80.4255 0 0)
(80.4849 0 0)
(80.5444 0 0)
(80.6038 0 0)
(80.6632 0 0)
(80.7227 0 0)
(80.7821 0 0)
(80.8416 0 0)
(80.901 0 0)
(80.9604 0 0)
(81.0199 0 0)
(81.0793 0 0)
(81.1388 0 0)
(81.1982 0 0)
(81.2576 0 0)
(81.3171 0 0)
(81.3765 0 0)
(81.436 0 0)
(81.4954 0 0)
(81.5548 0 0)
(81.6143 0 0)
(81.6737 0 0)
(81.7331 0 0)
(81.7926 0 0)
(81.852 0 0)
(81.9115 0 0)
(81.9709 0 0)
(82.0303 0 0)
(82.0898 0 0)
(82.1492 0 0)
(82.2087 0 0)
(82.2681 0 0)
(82.3275 0 0)
(82.387 0 0)
(82.4464 0 0)
(82.5059 0 0)
(82.5653 0 0)
(82.6247 0 0)
(82.6842 0 0)
(82.7436 0 0)
(82.8031 0 0)
(82.8625 0 0)
(82.9219 0 0)
(82.9814 0 0)
(83.0408 0 0)
(83.1003 0 0)
(83.1597 0 0)
(83.2191 0 0)
(83.2786 0 0)
(83.338 0 0)
(83.3975 0 0)
(83.4569 0 0)
(83.5163 0 0)
(83.5758 0 0)
(83.6352 0 0)
(83.6947 0 0)
(83.7541 0 0)
(83.8135 0 0)
(83.873 0 0)
(83.9324 0 0)
(83.9919 0 0)
(84.0513 0 0)
(84.1107 0 0)
(84.1702 0 0)
(84.2296 0 0)
(84.2891 0 0)
(84.3485 0 0)
(84.4079 0 0)
(84.4674 0 0)
(84.5268 0 0)
(84.5863 0 0)
(84.6457 0 0)
(84.7051 0 0)
(84.7646 0 0)
(84.824 0 0)
(84.8835 0 0)
(84.9429 0 0)
(85.0023 0 0)
(85.0618 0 0)
(85.1212 0 0)
(85.1807 0 0)
(85.2401 0 0)
(85.2995 0 0)
(85.359 0 0)
(85.4184 0 0)
(85.4779 0 0)
(85.5373 0 0)
(85.5968 0 0)
(85.6562 0 0)
(85.7156 0 0)
(85.7751 0 0)
(85.8345 0 0)
(85.894 0 0)
(85.9534 0 0)
(86.0128 0 0)
(86.0723 0 0)
(86.1317 0 0)
(86.1912 0 0)
(86.2506 0 0)
(86.31 0 0)
(86.3695 0 0)
(86.4289 0 0)
(86.4884 0 0)
(86.5478 0 0)
(86.6073 0 0)
(86.6667 0 0)
(86.7261 0 0)
(86.7856 0 0)
(86.845 0 0)
(86.9045 0 0)
(86.9639 0 0)
(87.0233 0 0)
(87.0828 0 0)
(87.1422 0 0)
(87.2017 0 0)
(87.2611 0 0)
(87.3205 0 0)
(87.38 0 0)
(87.4394 0 0)
(87.4989 0 0)
(87.5583 0 0)
(87.6178 0 0)
(87.6772 0 0)
(87.7366 0 0)
(87.7961 0 0)
(87.8555 0 0)
(87.915 0 0)
(87.9744 0 0)
(88.0339 0 0)
(88.0933 0 0)
(88.1527 0 0)
(88.2122 0 0)
(88.2716 0 0)
(88.3311 0 0)
(88.3905 0 0)
(88.4499 0 0)
(88.5094 0 0)
(88.5688 0 0)
(88.6283 0 0)
(88.6877 0 0)
(88.7472 0 0)
(88.8066 0 0)
(88.866 0 0)
(88.9255 0 0)
(88.9849 0 0)
(89.0444 0 0)
(89.1038 0 0)
(89.1633 0 0)
(89.2227 0 0)
(89.2821 0 0)
(89.3416 0 0)
(89.401 0 0)
(89.4605 0 0)
(89.5199 0 0)
(89.5794 0 0)
(89.6388 0 0)
(89.6982 0 0)
(89.7577 0 0)
(89.8171 0 0)
(89.8766 0 0)
(89.936 0 0)
(89.9954 0 0)
(90.0549 0 0)
(90.1143 0 0)
(90.1738 0 0)
(90.2332 0 0)
(90.2927 0 0)
(90.3521 0 0)
(90.4115 0 0)
(90.471 0 0)
(90.5304 0 0)
(90.5899 0 0)
(90.6493 0 0)
(90.7088 0 0)
(90.7682 0 0)
(90.8276 0 0)
(90.8871 0 0)
(90.9465 0 0)
(91.006 0 0)
(91.0654 0 0)
(91.1249 0 0)
(91.1843 0 0)
(91.2438 0 0)
(91.3032 0 0)
(91.3626 0 0)
(91.4221 0 0)
(91.4815 0 0)
(91.541 0 0)
(91.6004 0 0)
(91.6599 0 0)
(91.7193 0 0)
(91.7787 0 0)
(91.8382 0 0)
(91.8976 0 0)
(91.9571 0 0)
(92.0165 0 0)
(92.076 0 0)
(92.1354 0 0)
(92.1948 0 0)
(92.2543 0 0)
(92.3137 0 0)
(92.3732 0 0)
(92.4326 0 0)
(92.4921 0 0)
(92.5515 0 0)
(92.6109 0 0)
(92.6704 0 0)
(92.7298 0 0)
(92.7893 0 0)
(92.8487 0 0)
(92.9082 0 0)
(92.9676 0 0)
(93.0271 0 0)
(93.0865 0 0)
(93.1459 0 0)
(93.2054 0 0)
(93.2648 0 0)
(93.3243 0 0)
(93.3837 0 0)
(93.4432 0 0)
(93.5026 0 0)
(93.562 0 0)
(93.6215 0 0)
(93.6809 0 0)
(93.7404 0 0)
(93.7998 0 0)
(93.8593 0 0)
(93.9187 0 0)
(93.9782 0 0)
(94.0376 0 0)
(94.097 0 0)
(94.1565 0 0)
(94.2159 0 0)
(94.2754 0 0)
(94.3348 0 0)
(94.3943 0 0)
(94.4537 0 0)
(94.5132 0 0)
(94.5726 0 0)
(94.632 0 0)
(94.6915 0 0)
(94.7509 0 0)
(94.8104 0 0)
(94.8698 0 0)
(94.9293 0 0)
(94.9887 0 0)
(95.0481 0 0)
(95.1076 0 0)
(95.167 0 0)
(95.2265 0 0)
(95.2859 0 0)
(95.3454 0 0)
(95.4048 0 0)
(95.4643 0 0)
(95.5237 0 0)
(95.5831 0 0)
(95.6426 0 0)
(95.702 0 0)
(95.7615 0 0)
(95.8209 0 0)
(95.8804 0 0)
(95.9398 0 0)
(95.9993 0 0)
(96.0587 0 0)
(96.1181 0 0)
(96.1776 0 0)
(96.237 0 0)
(96.2965 0 0)
(96.3559 0 0)
(96.4154 0 0)
(96.4748 0 0)
(96.5343 0 0)
(96.5937 0 0)
(96.6532 0 0)
(96.7126 0 0)
(96.772 0 0)
(96.8315 0 0)
(96.8909 0 0)
(96.9504 0 0)
(97.0098 0 0)
(97.0693 0 0)
(97.1287 0 0)
(97.1882 0 0)
(97.2476 0 0)
(97.307 0 0)
(97.3665 0 0)
(97.4259 0 0)
(97.4854 0 0)
(97.5448 0 0)
(97.6043 0 0)
(97.6637 0 0)
(97.7232 0 0)
(97.7826 0 0)
(97.842 0 0)
(97.9015 0 0)
(97.9609 0 0)
(98.0204 0 0)
(98.0798 0 0)
(98.1393 0 0)
(98.1987 0 0)
(98.2582 0 0)
(98.3176 0 0)
(98.3771 0 0)
(98.4365 0 0)
(98.4959 0 0)
(98.5554 0 0)
(98.6148 0 0)
(98.6743 0 0)
(98.7337 0 0)
(98.7932 0 0)
(98.8526 0 0)
(98.9121 0 0)
(98.9715 0 0)
(99.031 0 0)
(99.0904 0 0)
(99.1498 0 0)
(99.2093 0 0)
(99.2687 0 0)
(99.3282 0 0)
(99.3876 0 0)
(99.4471 0 0)
(99.5065 0 0)
(99.566 0 0)
(99.6254 0 0)
(99.6849 0 0)
(99.7443 0 0)
(99.8037 0 0)
(99.8632 0 0)
(99.9226 0 0)
(99.9821 0 0)
(100.042 0 0)
(100.101 0 0)
(100.16 0 0)
(100.22 0 0)
(100.279 0 0)
(100.339 0 0)
(100.398 0 0)
(100.458 0 0)
(100.517 0 0)
(100.577 0 0)
(100.636 0 0)
(100.695 0 0)
(100.755 0 0)
(100.814 0 0)
(100.874 0 0)
(100.933 0 0)
(100.993 0 0)
(101.052 0 0)
(101.112 0 0)
(101.171 0 0)
(101.23 0 0)
(101.29 0 0)
(101.349 0 0)
(101.409 0 0)
(101.468 0 0)
(101.528 0 0)
(101.587 0 0)
(101.647 0 0)
(101.706 0 0)
(101.765 0 0)
(101.825 0 0)
(101.884 0 0)
(101.944 0 0)
(102.003 0 0)
(102.063 0 0)
(102.122 0 0)
(102.182 0 0)
(102.241 0 0)
(102.3 0 0)
(102.36 0 0)
(102.419 0 0)
(102.479 0 0)
(102.538 0 0)
(102.598 0 0)
(102.657 0 0)
(102.717 0 0)
(102.776 0 0)
(102.835 0 0)
(102.895 0 0)
(102.954 0 0)
(103.014 0 0)
(103.073 0 0)
(103.133 0 0)
(103.192 0 0)
(103.252 0 0)
(103.311 0 0)
(103.37 0 0)
(103.43 0 0)
(103.489 0 0)
(103.549 0 0)
(103.608 0 0)
(103.668 0 0)
(103.727 0 0)
(103.787 0 0)
(103.846 0 0)
(103.906 0 0)
(103.965 0 0)
(104.024 0 0)
(104.084 0 0)
(104.143 0 0)
(104.203 0 0)
(104.262 0 0)
(104.322 0 0)
(104.381 0 0)
(104.441 0 0)
(104.5 0 0)
(104.559 0 0)
(104.619 0 0)
(104.678 0 0)
(104.738 0 0)
(104.797 0 0)
(104.857 0 0)
(104.916 0 0)
(104.976 0 0)
(105.035 0 0)
(105.094 0 0)
(105.154 0 0)
(105.213 0 0)
(105.273 0 0)
(105.332 0 0)
(105.392 0 0)
(105.451 0 0)
(105.511 0 0)
(105.57 0 0)
(105.629 0 0)
(105.689 0 0)
(105.748 0 0)
(105.808 0 0)
(105.867 0 0)
(105.927 0 0)
(105.986 0 0)
(106.046 0 0)
(106.105 0 0)
(106.164 0 0)
(106.224 0 0)
(106.283 0 0)
(106.343 0 0)
(106.402 0 0)
(106.462 0 0)
(106.521 0 0)
(106.581 0 0)
(106.64 0 0)
(106.699 0 0)
(106.759 0 0)
(106.818 0 0)
(106.878 0 0)
(106.937 0 0)
(106.997 0 0)
(107.056 0 0)
(107.116 0 0)
(107.175 0 0)
(107.235 0 0)
(107.294 0 0)
(107.353 0 0)
(107.413 0 0)
(107.472 0 0)
(107.532 0 0)
(107.591 0 0)
(107.651 0 0)
(107.71 0 0)
(107.77 0 0)
(107.829 0 0)
(107.888 0 0)
(107.948 0 0)
(108.007 0 0)
(108.067 0 0)
(108.126 0 0)
(108.186 0 0)
(108.245 0 0)
(108.305 0 0)
(108.364 0 0)
(108.423 0 0)
(108.483 0 0)
(108.542 0 0)
(108.602 0 0)
(108.661 0 0)
(108.721 0 0)
(108.78 0 0)
(108.84 0 0)
(108.899 0 0)
(108.958 0 0)
(109.018 0 0)
(109.077 0 0)
(109.137 0 0)
(109.196 0 0)
(109.256 0 0)
(109.315 0 0)
(109.375 0 0)
(109.434 0 0)
(109.493 0 0)
(109.553 0 0)
(109.612 0 0)
(109.672 0 0)
(109.731 0 0)
(109.791 0 0)
(109.85 0 0)
(109.91 0 0)
(109.969 0 0)
(110.029 0 0)
(110.088 0 0)
(110.147 0 0)
(110.207 0 0)
(110.266 0 0)
(110.326 0 0)
(110.385 0 0)
(110.445 0 0)
(110.504 0 0)
(110.564 0 0)
(110.623 0 0)
(110.682 0 0)
(110.742 0 0)
(110.801 0 0)
(110.861 0 0)
(110.92 0 0)
(110.98 0 0)
(111.039 0 0)
(111.099 0 0)
(111.158 0 0)
(111.217 0 0)
(111.277 0 0)
(111.336 0 0)
(111.396 0 0)
(111.455 0 0)
(111.515 0 0)
(111.574 0 0)
(111.634 0 0)
(111.693 0 0)
(111.752 0 0)
(111.812 0 0)
(111.871 0 0)
(111.931 0 0)
(111.99 0 0)
(112.05 0 0)
(112.109 0 0)
(112.169 0 0)
(112.228 0 0)
(112.288 0 0)
(112.347 0 0)
(112.406 0 0)
(112.466 0 0)
(112.525 0 0)
(112.585 0 0)
(112.644 0 0)
(112.704 0 0)
(112.763 0 0)
(112.823 0 0)
(112.882 0 0)
(112.941 0 0)
(113.001 0 0)
(113.06 0 0)
(113.12 0 0)
(113.179 0 0)
(113.239 0 0)
(113.298 0 0)
(113.358 0 0)
(113.417 0 0)
(113.476 0 0)
(113.536 0 0)
(113.595 0 0)
(113.655 0 0)
(113.714 0 0)
(113.774 0 0)
(113.833 0 0)
(113.893 0 0)
(113.952 0 0)
(114.011 0 0)
(114.071 0 0)
(114.13 0 0)
(114.19 0 0)
(114.249 0 0)
(114.309 0 0)
(114.368 0 0)
(114.428 0 0)
(114.487 0 0)
(114.546 0 0)
(114.606 0 0)
(114.665 0 0)
(114.725 0 0)
(114.784 0 0)
(114.844 0 0)
(114.903 0 0)
(114.963 0 0)
(115.022 0 0)
(115.082 0 0)
(115.141 0 0)
(115.2 0 0)
(115.26 0 0)
(115.319 0 0)
(115.379 0 0)
(115.438 0 0)
(115.498 0 0)
(115.557 0 0)
(115.617 0 0)
(115.676 0 0)
(115.735 0 0)
(115.795 0 0)
(115.854 0 0)
(115.914 0 0)
(115.973 0 0)
(116.033 0 0)
(116.092 0 0)
(116.152 0 0)
(116.211 0 0)
(116.27 0 0)
(116.33 0 0)
(116.389 0 0)
(116.449 0 0)
(116.508 0 0)
(116.568 0 0)
(116.627 0 0)
(116.687 0 0)
(116.746 0 0)
(116.805 0 0)
(116.865 0 0)
(116.924 0 0)
(116.984 0 0)
(117.043 0 0)
(117.103 0 0)
(117.162 0 0)
(117.222 0 0)
(117.281 0 0)
(117.341 0 0)
(117.4 0 0)
(117.459 0 0)
(117.519 0 0)
(117.578 0 0)
(117.638 0 0)
(117.697 0 0)
(117.757 0 0)
(117.816 0 0)
(117.876 0 0)
(117.935 0 0)
(117.994 0 0)
(118.054 0 0)
(118.113 0 0)
(118.173 0 0)
(118.232 0 0)
(118.292 0 0)
(118.351 0 0)
(118.411 0 0)
(118.47 0 0)
(118.529 0 0)
(118.589 0 0)
(118.648 0 0)
(118.708 0 0)
(118.767 0 0)
(118.827 0 0)
(118.886 0 0)
(118.946 0 0)
(119.005 0 0)
(119.065 0 0)
(119.124 0 0)
(119.183 0 0)
(119.243 0 0)
(119.302 0 0)
(119.362 0 0)
(119.421 0 0)
(119.481 0 0)
(119.54 0 0)
(119.6 0 0)
(119.659 0 0)
(119.718 0 0)
(119.778 0 0)
(119.837 0 0)
(119.897 0 0)
(119.956 0 0)
(120.016 0 0)
(120.075 0 0)
(120.135 0 0)
(120.194 0 0)
(120.253 0 0)
(120.313 0 0)
(120.372 0 0)
(120.432 0 0)
(120.491 0 0)
(120.551 0 0)
(120.61 0 0)
(120.67 0 0)
(120.729 0 0)
(120.788 0 0)
(120.848 0 0)
(120.907 0 0)
(120.967 0 0)
(121.026 0 0)
(121.086 0 0)
(121.145 0 0)
(121.205 0 0)
(121.264 0 0)
(121.324 0 0)
(121.383 0 0)
(121.442 0 0)
(121.502 0 0)
(121.561 0 0)
(121.621 0 0)
(121.68 0 0)
(121.74 0 0)
(121.799 0 0)
(121.859 0 0)
(121.918 0 0)
(121.977 0 0)
(122.037 0 0)
(122.096 0 0)
(122.156 0 0)
(122.215 0 0)
(122.275 0 0)
(122.334 0 0)
(122.394 0 0)
(122.453 0 0)
(122.512 0 0)
(122.572 0 0)
(122.631 0 0)
(122.691 0 0)
(122.75 0 0)
(122.81 0 0)
(122.869 0 0)
(122.929 0 0)
(122.988 0 0)
(123.047 0 0)
(123.107 0 0)
(123.166 0 0)
(123.226 0 0)
(123.285 0 0)
(123.345 0 0)
(123.404 0 0)
(123.464 0 0)
(123.523 0 0)
(123.583 0 0)
(123.642 0 0)
(123.701 0 0)
(123.761 0 0)
(123.82 0 0)
(123.88 0 0)
(123.939 0 0)
(123.999 0 0)
(124.058 0 0)
(124.118 0 0)
(124.177 0 0)
(124.236 0 0)
(124.296 0 0)
(124.355 0 0)
(124.415 0 0)
(124.474 0 0)
(124.534 0 0)
(124.593 0 0)
(124.653 0 0)
(124.712 0 0)
(124.771 0 0)
(124.831 0 0)
(124.89 0 0)
(124.95 0 0)
(125.009 0 0)
(125.069 0 0)
(125.128 0 0)
(125.188 0 0)
(125.247 0 0)
(125.306 0 0)
(125.366 0 0)
(125.425 0 0)
(125.485 0 0)
(125.544 0 0)
(125.604 0 0)
(125.663 0 0)
(125.723 0 0)
(125.782 0 0)
(125.842 0 0)
(125.901 0 0)
(125.96 0 0)
(126.02 0 0)
(126.079 0 0)
(126.139 0 0)
(126.198 0 0)
(126.258 0 0)
(126.317 0 0)
(126.377 0 0)
(126.436 0 0)
(126.495 0 0)
(126.555 0 0)
(126.614 0 0)
(126.674 0 0)
(126.733 0 0)
(126.793 0 0)
(126.852 0 0)
(126.912 0 0)
(126.971 0 0)
(127.03 0 0)
(127.09 0 0)
(127.149 0 0)
(127.209 0 0)
(127.268 0 0)
(127.328 0 0)
(127.387 0 0)
(127.447 0 0)
(127.506 0 0)
(127.565 0 0)
(127.625 0 0)
(127.684 0 0)
(127.744 0 0)
(127.803 0 0)
(127.863 0 0)
(127.922 0 0)
(127.982 0 0)
(128.041 0 0)
(128.1 0 0)
(128.16 0 0)
(128.219 0 0)
(128.279 0 0)
(128.338 0 0)
(128.398 0 0)
(128.457 0 0)
(128.517 0 0)
(128.576 0 0)
(128.636 0 0)
(128.695 0 0)
(128.754 0 0)
(128.814 0 0)
(128.873 0 0)
(128.933 0 0)
(128.992 0 0)
(129.052 0 0)
(129.111 0 0)
(129.171 0 0)
(129.23 0 0)
(129.289 0 0)
(129.349 0 0)
(129.408 0 0)
(129.468 0 0)
(129.527 0 0)
(129.587 0 0)
(129.646 0 0)
(129.706 0 0)
(129.765 0 0)
(129.824 0 0)
(129.884 0 0)
(129.943 0 0)
(130.003 0 0)
(130.062 0 0)
(130.122 0 0)
(130.181 0 0)
(130.241 0 0)
(130.3 0 0)
(130.359 0 0)
(130.419 0 0)
(130.478 0 0)
(130.538 0 0)
(130.597 0 0)
(130.657 0 0)
(130.716 0 0)
(130.776 0 0)
(130.835 0 0)
(130.895 0 0)
(130.954 0 0)
(131.013 0 0)
(131.073 0 0)
(131.132 0 0)
(131.192 0 0)
(131.251 0 0)
(131.311 0 0)
(131.37 0 0)
(131.43 0 0)
(131.489 0 0)
(131.548 0 0)
(131.608 0 0)
(131.667 0 0)
(131.727 0 0)
(131.786 0 0)
(131.846 0 0)
(131.905 0 0)
(131.965 0 0)
(132.024 0 0)
(132.083 0 0)
(132.143 0 0)
(132.202 0 0)
(132.262 0 0)
(132.321 0 0)
(132.381 0 0)
(132.44 0 0)
(132.5 0 0)
(132.559 0 0)
(132.618 0 0)
(132.678 0 0)
(132.737 0 0)
(132.797 0 0)
(132.856 0 0)
(132.916 0 0)
(132.975 0 0)
(133.035 0 0)
(133.094 0 0)
(133.153 0 0)
(133.213 0 0)
(133.272 0 0)
(133.332 0 0)
(133.391 0 0)
(133.451 0 0)
(133.51 0 0)
(133.57 0 0)
(133.629 0 0)
(133.689 0 0)
(133.748 0 0)
(133.807 0 0)
(133.867 0 0)
(133.926 0 0)
(133.986 0 0)
(134.045 0 0)
(134.105 0 0)
(134.164 0 0)
(134.224 0 0)
(134.283 0 0)
(134.342 0 0)
(134.402 0 0)
(134.461 0 0)
(134.521 0 0)
(134.58 0 0)
(134.64 0 0)
(134.699 0 0)
(134.759 0 0)
(134.818 0 0)
(134.877 0 0)
(134.937 0 0)
(134.996 0 0)
(135.056 0 0)
(135.115 0 0)
(135.175 0 0)
(135.234 0 0)
(135.294 0 0)
(135.353 0 0)
(135.412 0 0)
(135.472 0 0)
(135.531 0 0)
(135.591 0 0)
(135.65 0 0)
(135.71 0 0)
(135.769 0 0)
(135.829 0 0)
(135.888 0 0)
(135.947 0 0)
(136.007 0 0)
(136.066 0 0)
(136.126 0 0)
(136.185 0 0)
(136.245 0 0)
(136.304 0 0)
(136.364 0 0)
(136.423 0 0)
(136.482 0 0)
(136.542 0 0)
(136.601 0 0)
(136.661 0 0)
(136.72 0 0)
(136.78 0 0)
(136.839 0 0)
(136.899 0 0)
(136.958 0 0)
(137.018 0 0)
(137.077 0 0)
(137.136 0 0)
(137.196 0 0)
(137.255 0 0)
(137.315 0 0)
(137.374 0 0)
(137.434 0 0)
(137.493 0 0)
(137.553 0 0)
(137.612 0 0)
(137.671 0 0)
(137.731 0 0)
(137.79 0 0)
(137.85 0 0)
(137.909 0 0)
(137.969 0 0)
(138.028 0 0)
(138.088 0 0)
(138.147 0 0)
(138.206 0 0)
(138.266 0 0)
(138.325 0 0)
(138.385 0 0)
(138.444 0 0)
(138.504 0 0)
(138.563 0 0)
(138.623 0 0)
(138.682 0 0)
(138.741 0 0)
(138.801 0 0)
(138.86 0 0)
(138.92 0 0)
(138.979 0 0)
(139.039 0 0)
(139.098 0 0)
(139.158 0 0)
(139.217 0 0)
(139.276 0 0)
(139.336 0 0)
(139.395 0 0)
(139.455 0 0)
(139.514 0 0)
(139.574 0 0)
(139.633 0 0)
(139.693 0 0)
(139.752 0 0)
(139.811 0 0)
(139.871 0 0)
(139.93 0 0)
(139.99 0 0)
(140.049 0 0)
(140.109 0 0)
(140.168 0 0)
(140.228 0 0)