/*--------------------------------*- C++ -*----------------------------------*\
  =========                 |
  \\      /  F ield         | OpenFOAM: The Open Source CFD Toolbox
   \\    /   O peration     | Website:  https://openfoam.org
    \\  /    A nd           | Version:  9
     \\/     M anipulation  |
\*---------------------------------------------------------------------------*/
FoamFile
{
    format      ascii;
    class       volScalarField;
    location    "0.049";
    object      p;
}
// * * * * * * * * * * * * * * * * * * * * * * * * * * * * * * * * * * * * * //

dimensions      [1 -1 -2 0 0 0 0];

internalField   nonuniform List<scalar> 
100
(
11716.6
11704.8
11673.1
11643.1
11632.2
11616.1
11599.7
11585.8
11572.7
11560.3
11549.1
11539
11529.7
11521.5
11514.6
11508.6
11503.9
11500.4
11498.1
11497.2
11497.2
11497.2
11497.4
11497.8
11498.9
11501.8
11508.9
11523.1
11550.9
11607
11713.2
11863.3
11946.9
11986.8
12017.5
12063.4
12123.2
12193.2
12261.4
12321.2
12375.7
12424.7
12469.4
12522.1
12582.8
12651
12727.9
12805.9
12880.6
12951
13021.1
13090.6
13150.8
13205.3
13274.6
13413.6
13695.2
14285.2
15576.2
18757.8
25607.1
27516.5
22306.7
18423.9
18451.8
18584.4
18887
19285.5
19407.2
19405.2
19399.2
19384.5
19380.8
19380.9
19381.3
19377.3
19376.6
19376.2
19377
19375.7
19374.4
19375.7
19373.2
19373.2
19374.8
19369.8
19369.9
19371.7
19369
19372
19372.1
19359
19355.7
19367
19373.2
19360.6
19354.1
19350.7
19360.6
19354.5
)
;

boundaryField
{
    sides
    {
        type            zeroGradient;
    }
    empty
    {
        type            empty;
    }
}


// ************************************************************************* //
