/*--------------------------------*- C++ -*----------------------------------*\
  =========                 |
  \\      /  F ield         | OpenFOAM: The Open Source CFD Toolbox
   \\    /   O peration     | Website:  https://openfoam.org
    \\  /    A nd           | Version:  9
     \\/     M anipulation  |
\*---------------------------------------------------------------------------*/
FoamFile
{
    format      ascii;
    class       volScalarField;
    location    "0.047";
    object      rho;
}
// * * * * * * * * * * * * * * * * * * * * * * * * * * * * * * * * * * * * * //

dimensions      [1 -3 0 0 0 0 0];

internalField   nonuniform List<scalar> 
10000
(
0.169322
0.16932
0.169318
0.169315
0.169313
0.16931
0.169308
0.169306
0.169303
0.169301
0.169299
0.169296
0.169294
0.169292
0.169289
0.169287
0.169285
0.169282
0.16928
0.169277
0.169275
0.169273
0.16927
0.169268
0.169266
0.169263
0.169261
0.169259
0.169256
0.169254
0.169252
0.169249
0.169247
0.169245
0.169242
0.16924
0.169238
0.169235
0.169233
0.169231
0.169228
0.169226
0.169224
0.169221
0.169219
0.169217
0.169214
0.169212
0.16921
0.169207
0.169205
0.169203
0.1692
0.169198
0.169196
0.169194
0.169192
0.169189
0.169187
0.169185
0.169182
0.16918
0.169178
0.169175
0.169173
0.169171
0.169169
0.169167
0.169165
0.169163
0.169161
0.169158
0.169156
0.169154
0.169151
0.169149
0.169147
0.169145
0.169143
0.169141
0.169139
0.169137
0.169135
0.169133
0.169131
0.169129
0.169127
0.169125
0.169123
0.169121
0.169119
0.169116
0.169114
0.169112
0.16911
0.169107
0.169105
0.169103
0.169101
0.169099
0.169097
0.169095
0.169094
0.169092
0.169091
0.16909
0.169089
0.169088
0.169087
0.169086
0.169085
0.169085
0.169084
0.169083
0.169083
0.169082
0.169082
0.169081
0.169081
0.169081
0.16908
0.16908
0.16908
0.169079
0.169079
0.169079
0.169079
0.169078
0.169078
0.169078
0.169078
0.169077
0.169077
0.169077
0.169077
0.169077
0.169076
0.169076
0.169076
0.169076
0.169076
0.169076
0.169076
0.169075
0.169075
0.169075
0.169075
0.169075
0.169075
0.169075
0.169075
0.169075
0.169075
0.169075
0.169074
0.169074
0.169074
0.169074
0.169074
0.169074
0.169074
0.169074
0.169074
0.169074
0.169075
0.169075
0.169075
0.169075
0.169075
0.169075
0.169075
0.169075
0.169075
0.169075
0.169075
0.169075
0.169076
0.169076
0.169076
0.169076
0.169076
0.169076
0.169076
0.169077
0.169077
0.169077
0.169077
0.169077
0.169077
0.169078
0.169078
0.169078
0.169078
0.169078
0.169078
0.169079
0.169079
0.169079
0.169079
0.169079
0.169079
0.16908
0.16908
0.16908
0.16908
0.16908
0.16908
0.16908
0.169081
0.169081
0.169081
0.169081
0.169081
0.169081
0.169081
0.169081
0.169081
0.169082
0.169082
0.169082
0.169082
0.169082
0.169082
0.169082
0.169082
0.169082
0.169082
0.169082
0.169082
0.169082
0.169082
0.169082
0.169082
0.169082
0.169082
0.169082
0.169082
0.169082
0.169082
0.169082
0.169082
0.169082
0.169082
0.169082
0.169082
0.169082
0.169082
0.169082
0.169082
0.169081
0.169081
0.169081
0.169081
0.169081
0.169081
0.169081
0.169081
0.169081
0.169081
0.169081
0.169081
0.16908
0.16908
0.16908
0.16908
0.16908
0.16908
0.16908
0.16908
0.16908
0.16908
0.16908
0.16908
0.16908
0.16908
0.169079
0.169079
0.169079
0.169079
0.169079
0.169079
0.169079
0.169079
0.169079
0.169079
0.169079
0.169079
0.169079
0.169079
0.169079
0.169079
0.169079
0.169079
0.169079
0.169079
0.16908
0.16908
0.16908
0.16908
0.16908
0.16908
0.16908
0.16908
0.16908
0.16908
0.16908
0.16908
0.169081
0.169081
0.169081
0.169081
0.169081
0.169081
0.169081
0.169081
0.169082
0.169082
0.169082
0.169082
0.169082
0.169082
0.169082
0.169082
0.169083
0.169083
0.169083
0.169083
0.169083
0.169083
0.169083
0.169084
0.169084
0.169084
0.169084
0.169084
0.169084
0.169084
0.169085
0.169085
0.169085
0.169085
0.169085
0.169085
0.169085
0.169086
0.169086
0.169086
0.169086
0.169086
0.169086
0.169086
0.169086
0.169087
0.169087
0.169087
0.169087
0.169087
0.169087
0.169087
0.169087
0.169088
0.169088
0.169088
0.169088
0.169088
0.169088
0.169088
0.169089
0.169089
0.169089
0.169089
0.169089
0.169089
0.169089
0.16909
0.16909
0.16909
0.16909
0.16909
0.16909
0.169091
0.169091
0.169091
0.169091
0.169091
0.169092
0.169092
0.169092
0.169092
0.169092
0.169093
0.169093
0.169093
0.169093
0.169093
0.169094
0.169094
0.169094
0.169094
0.169095
0.169095
0.169095
0.169095
0.169096
0.169096
0.169096
0.169096
0.169097
0.169097
0.169097
0.169097
0.169097
0.169098
0.169098
0.169098
0.169098
0.169099
0.169099
0.169099
0.169099
0.1691
0.1691
0.1691
0.1691
0.1691
0.169101
0.169101
0.169101
0.169101
0.169101
0.169102
0.169102
0.169102
0.169102
0.169102
0.169102
0.169103
0.169103
0.169103
0.169103
0.169103
0.169103
0.169103
0.169103
0.169104
0.169104
0.169104
0.169104
0.169104
0.169104
0.169104
0.169104
0.169104
0.169104
0.169104
0.169104
0.169104
0.169104
0.169105
0.169105
0.169105
0.169105
0.169105
0.169105
0.169105
0.169105
0.169105
0.169105
0.169105
0.169105
0.169105
0.169105
0.169105
0.169105
0.169105
0.169105
0.169105
0.169105
0.169105
0.169105
0.169105
0.169105
0.169105
0.169105
0.169105
0.169106
0.169106
0.169106
0.169106
0.169106
0.169106
0.169106
0.169106
0.169106
0.169107
0.169107
0.169107
0.169107
0.169107
0.169107
0.169108
0.169108
0.169108
0.169108
0.169108
0.169109
0.169109
0.169109
0.169109
0.16911
0.16911
0.16911
0.16911
0.169111
0.169111
0.169111
0.169111
0.169112
0.169112
0.169112
0.169112
0.169113
0.169113
0.169113
0.169114
0.169114
0.169114
0.169114
0.169115
0.169115
0.169115
0.169116
0.169116
0.169116
0.169116
0.169117
0.169117
0.169117
0.169117
0.169118
0.169118
0.169118
0.169118
0.169119
0.169119
0.169119
0.169119
0.16912
0.16912
0.16912
0.16912
0.16912
0.169121
0.169121
0.169121
0.169121
0.169121
0.169121
0.169122
0.169122
0.169122
0.169122
0.169122
0.169122
0.169123
0.169123
0.169123
0.169123
0.169123
0.169123
0.169123
0.169123
0.169124
0.169124
0.169124
0.169124
0.169124
0.169124
0.169124
0.169125
0.169125
0.169125
0.169125
0.169125
0.169125
0.169125
0.169126
0.169126
0.169126
0.169126
0.169126
0.169126
0.169127
0.169127
0.169127
0.169127
0.169128
0.169128
0.169128
0.169128
0.169129
0.169129
0.169129
0.169129
0.16913
0.16913
0.16913
0.169131
0.169131
0.169131
0.169132
0.169132
0.169133
0.169133
0.169134
0.169134
0.169134
0.169135
0.169135
0.169136
0.169136
0.169137
0.169137
0.169138
0.169139
0.169139
0.16914
0.16914
0.169141
0.169142
0.169142
0.169143
0.169144
0.169144
0.169145
0.169146
0.169146
0.169147
0.169148
0.169148
0.169149
0.16915
0.169151
0.169151
0.169152
0.169153
0.169154
0.169155
0.169155
0.169156
0.169157
0.169158
0.169159
0.169159
0.16916
0.169161
0.169162
0.169163
0.169164
0.169165
0.169165
0.169166
0.169167
0.169168
0.169169
0.16917
0.169171
0.169172
0.169173
0.169174
0.169175
0.169176
0.169177
0.169178
0.169178
0.169179
0.16918
0.169181
0.169182
0.169183
0.169185
0.169186
0.169187
0.169188
0.169189
0.16919
0.169191
0.169192
0.169193
0.169194
0.169195
0.169196
0.169197
0.169198
0.1692
0.169201
0.169202
0.169203
0.169204
0.169205
0.169206
0.169208
0.169209
0.16921
0.169211
0.169212
0.169213
0.169215
0.169216
0.169217
0.169218
0.169219
0.169221
0.169222
0.169223
0.169224
0.169225
0.169227
0.169228
0.169229
0.16923
0.169231
0.169233
0.169234
0.169235
0.169236
0.169238
0.169239
0.16924
0.169241
0.169242
0.169244
0.169245
0.169246
0.169247
0.169248
0.16925
0.169251
0.169252
0.169253
0.169254
0.169256
0.169257
0.169258
0.169259
0.16926
0.169261
0.169263
0.169264
0.169265
0.169266
0.169267
0.169268
0.16927
0.169271
0.169272
0.169273
0.169274
0.169275
0.169276
0.169277
0.169279
0.16928
0.169281
0.169282
0.169283
0.169284
0.169285
0.169286
0.169287
0.169288
0.169289
0.16929
0.169291
0.169293
0.169294
0.169295
0.169296
0.169297
0.169298
0.169299
0.1693
0.169301
0.169302
0.169303
0.169304
0.169305
0.169306
0.169307
0.169308
0.169309
0.16931
0.169311
0.169312
0.169314
0.169315
0.169316
0.169317
0.169318
0.169319
0.16932
0.169321
0.169322
0.169323
0.169325
0.169326
0.169327
0.169328
0.169329
0.16933
0.169332
0.169333
0.169334
0.169335
0.169337
0.169338
0.169339
0.16934
0.169342
0.169343
0.169344
0.169346
0.169347
0.169348
0.16935
0.169351
0.169353
0.169354
0.169356
0.169357
0.169358
0.16936
0.169362
0.169363
0.169365
0.169366
0.169368
0.169369
0.169371
0.169373
0.169374
0.169376
0.169378
0.169379
0.169381
0.169383
0.169385
0.169387
0.169388
0.16939
0.169392
0.169394
0.169396
0.169398
0.1694
0.169402
0.169404
0.169406
0.169408
0.16941
0.169412
0.169414
0.169417
0.169419
0.169421
0.169423
0.169425
0.169428
0.16943
0.169432
0.169435
0.169437
0.16944
0.169442
0.169445
0.169447
0.16945
0.169452
0.169455
0.169457
0.16946
0.169463
0.169466
0.169468
0.169471
0.169474
0.169477
0.16948
0.169483
0.169486
0.169489
0.169492
0.169495
0.169498
0.169501
0.169504
0.169507
0.169511
0.169514
0.169517
0.169521
0.169524
0.169528
0.169531
0.169535
0.169538
0.169542
0.169546
0.169549
0.169553
0.169557
0.169561
0.169565
0.169569
0.169573
0.169577
0.169581
0.169586
0.16959
0.169594
0.169598
0.169603
0.169607
0.169612
0.169616
0.169621
0.169625
0.16963
0.169635
0.16964
0.169644
0.169649
0.169654
0.169659
0.169664
0.169669
0.169674
0.169679
0.169685
0.16969
0.169695
0.1697
0.169706
0.169711
0.169717
0.169722
0.169727
0.169733
0.169739
0.169744
0.16975
0.169755
0.169761
0.169767
0.169773
0.169778
0.169784
0.16979
0.169796
0.169802
0.169808
0.169814
0.16982
0.169826
0.169832
0.169839
0.169845
0.169851
0.169857
0.169863
0.16987
0.169876
0.169882
0.169889
0.169895
0.169902
0.169908
0.169915
0.169921
0.169928
0.169934
0.169941
0.169947
0.169954
0.169961
0.169967
0.169974
0.169981
0.169987
0.169994
0.170001
0.170007
0.170014
0.170021
0.170028
0.170035
0.170041
0.170048
0.170055
0.170062
0.170069
0.170075
0.170082
0.170089
0.170096
0.170103
0.17011
0.170117
0.170124
0.17013
0.170137
0.170144
0.170151
0.170158
0.170165
0.170172
0.170179
0.170186
0.170193
0.1702
0.170207
0.170214
0.170221
0.170228
0.170235
0.170242
0.170249
0.170256
0.170263
0.17027
0.170277
0.170284
0.170291
0.170298
0.170305
0.170312
0.170319
0.170326
0.170333
0.17034
0.170347
0.170354
0.170362
0.170369
0.170376
0.170383
0.17039
0.170397
0.170405
0.170412
0.170419
0.170426
0.170433
0.170441
0.170448
0.170455
0.170462
0.17047
0.170477
0.170484
0.170492
0.170499
0.170506
0.170514
0.170521
0.170528
0.170536
0.170543
0.17055
0.170558
0.170565
0.170572
0.17058
0.170587
0.170595
0.170602
0.170609
0.170617
0.170624
0.170632
0.170639
0.170647
0.170654
0.170661
0.170669
0.170676
0.170684
0.170691
0.170699
0.170706
0.170714
0.170721
0.170729
0.170736
0.170744
0.170751
0.170759
0.170766
0.170774
0.170781
0.170789
0.170797
0.170804
0.170812
0.170819
0.170827
0.170834
0.170842
0.17085
0.170857
0.170865
0.170872
0.17088
0.170888
0.170895
0.170903
0.170911
0.170918
0.170926
0.170934
0.170941
0.170949
0.170957
0.170964
0.170972
0.17098
0.170988
0.170995
0.171003
0.171011
0.171019
0.171026
0.171034
0.171042
0.17105
0.171057
0.171065
0.171073
0.171081
0.171089
0.171097
0.171104
0.171112
0.17112
0.171128
0.171136
0.171144
0.171152
0.17116
0.171168
0.171176
0.171184
0.171192
0.1712
0.171208
0.171216
0.171224
0.171232
0.17124
0.171248
0.171256
0.171264
0.171272
0.17128
0.171288
0.171296
0.171304
0.171312
0.171321
0.171329
0.171337
0.171345
0.171353
0.171361
0.17137
0.171378
0.171386
0.171394
0.171403
0.171411
0.171419
0.171427
0.171436
0.171444
0.171452
0.17146
0.171469
0.171477
0.171485
0.171494
0.171502
0.17151
0.171519
0.171527
0.171535
0.171544
0.171552
0.171561
0.171569
0.171577
0.171586
0.171594
0.171602
0.171611
0.171619
0.171628
0.171636
0.171645
0.171653
0.171661
0.17167
0.171678
0.171687
0.171695
0.171704
0.171712
0.17172
0.171729
0.171737
0.171746
0.171754
0.171763
0.171771
0.171779
0.171788
0.171796
0.171805
0.171813
0.171822
0.17183
0.171838
0.171847
0.171855
0.171864
0.171872
0.171881
0.171889
0.171897
0.171906
0.171914
0.171923
0.171931
0.171939
0.171948
0.171956
0.171964
0.171973
0.171981
0.17199
0.171998
0.172006
0.172015
0.172023
0.172031
0.17204
0.172048
0.172056
0.172065
0.172073
0.172082
0.17209
0.172098
0.172107
0.172115
0.172123
0.172132
0.17214
0.172148
0.172157
0.172165
0.172173
0.172182
0.17219
0.172198
0.172207
0.172215
0.172223
0.172232
0.17224
0.172248
0.172257
0.172265
0.172273
0.172282
0.17229
0.172299
0.172307
0.172315
0.172324
0.172332
0.17234
0.172349
0.172357
0.172366
0.172374
0.172382
0.172391
0.172399
0.172408
0.172416
0.172424
0.172433
0.172441
0.17245
0.172458
0.172467
0.172475
0.172484
0.172492
0.172501
0.172509
0.172518
0.172526
0.172535
0.172543
0.172552
0.17256
0.172569
0.172577
0.172586
0.172594
0.172603
0.172611
0.17262
0.172629
0.172637
0.172646
0.172654
0.172663
0.172672
0.17268
0.172689
0.172697
0.172706
0.172715
0.172723
0.172732
0.17274
0.172749
0.172758
0.172766
0.172775
0.172783
0.172792
0.172801
0.172809
0.172818
0.172826
0.172835
0.172844
0.172852
0.172861
0.17287
0.172878
0.172887
0.172895
0.172904
0.172912
0.172921
0.17293
0.172938
0.172947
0.172955
0.172964
0.172973
0.172981
0.17299
0.172998
0.173007
0.173015
0.173024
0.173032
0.173041
0.173049
0.173058
0.173066
0.173075
0.173083
0.173092
0.1731
0.173109
0.173117
0.173126
0.173134
0.173143
0.173151
0.173159
0.173168
0.173176
0.173185
0.173193
0.173201
0.17321
0.173218
0.173227
0.173235
0.173243
0.173252
0.17326
0.173268
0.173277
0.173285
0.173293
0.173302
0.17331
0.173318
0.173327
0.173335
0.173343
0.173352
0.17336
0.173368
0.173376
0.173385
0.173393
0.173401
0.17341
0.173418
0.173426
0.173434
0.173443
0.173451
0.173459
0.173468
0.173476
0.173484
0.173492
0.173501
0.173509
0.173517
0.173526
0.173534
0.173542
0.17355
0.173559
0.173567
0.173575
0.173583
0.173592
0.1736
0.173608
0.173617
0.173625
0.173633
0.173642
0.17365
0.173658
0.173666
0.173675
0.173683
0.173691
0.1737
0.173708
0.173716
0.173725
0.173733
0.173741
0.17375
0.173758
0.173766
0.173775
0.173783
0.173791
0.1738
0.173808
0.173816
0.173825
0.173833
0.173841
0.17385
0.173858
0.173866
0.173875
0.173883
0.173892
0.1739
0.173908
0.173917
0.173925
0.173933
0.173942
0.17395
0.173959
0.173967
0.173975
0.173984
0.173992
0.174
0.174009
0.174017
0.174025
0.174034
0.174042
0.174051
0.174059
0.174067
0.174076
0.174084
0.174092
0.174101
0.174109
0.174118
0.174126
0.174134
0.174143
0.174151
0.174159
0.174168
0.174176
0.174184
0.174193
0.174201
0.17421
0.174218
0.174226
0.174235
0.174243
0.174251
0.17426
0.174268
0.174277
0.174285
0.174293
0.174302
0.17431
0.174318
0.174327
0.174335
0.174344
0.174352
0.17436
0.174369
0.174377
0.174386
0.174394
0.174402
0.174411
0.174419
0.174428
0.174436
0.174445
0.174453
0.174461
0.17447
0.174478
0.174487
0.174495
0.174504
0.174512
0.174521
0.174529
0.174538
0.174546
0.174555
0.174563
0.174572
0.17458
0.174589
0.174597
0.174606
0.174615
0.174623
0.174632
0.17464
0.174649
0.174658
0.174666
0.174675
0.174683
0.174692
0.174701
0.174709
0.174718
0.174727
0.174736
0.174744
0.174753
0.174762
0.17477
0.174779
0.174788
0.174797
0.174805
0.174814
0.174823
0.174832
0.174841
0.174849
0.174858
0.174867
0.174876
0.174885
0.174894
0.174902
0.174911
0.17492
0.174929
0.174938
0.174947
0.174956
0.174965
0.174974
0.174982
0.174991
0.175
0.175009
0.175018
0.175027
0.175036
0.175045
0.175054
0.175063
0.175072
0.175081
0.17509
0.175099
0.175107
0.175116
0.175125
0.175134
0.175143
0.175152
0.175161
0.17517
0.175179
0.175188
0.175197
0.175206
0.175215
0.175223
0.175232
0.175241
0.17525
0.175259
0.175268
0.175277
0.175286
0.175294
0.175303
0.175312
0.175321
0.17533
0.175339
0.175347
0.175356
0.175365
0.175374
0.175382
0.175391
0.1754
0.175409
0.175417
0.175426
0.175435
0.175444
0.175452
0.175461
0.17547
0.175478
0.175487
0.175495
0.175504
0.175513
0.175521
0.17553
0.175538
0.175547
0.175556
0.175564
0.175573
0.175581
0.17559
0.175598
0.175607
0.175615
0.175624
0.175632
0.175641
0.175649
0.175657
0.175666
0.175674
0.175683
0.175691
0.1757
0.175708
0.175716
0.175725
0.175733
0.175741
0.17575
0.175758
0.175767
0.175775
0.175783
0.175792
0.1758
0.175808
0.175817
0.175825
0.175833
0.175842
0.17585
0.175858
0.175866
0.175875
0.175883
0.175891
0.1759
0.175908
0.175916
0.175925
0.175933
0.175941
0.175949
0.175958
0.175966
0.175974
0.175983
0.175991
0.175999
0.176008
0.176016
0.176024
0.176033
0.176041
0.176049
0.176058
0.176066
0.176074
0.176083
0.176091
0.176099
0.176108
0.176116
0.176124
0.176133
0.176141
0.17615
0.176158
0.176166
0.176175
0.176183
0.176192
0.1762
0.176209
0.176217
0.176225
0.176234
0.176242
0.176251
0.176259
0.176268
0.176276
0.176285
0.176293
0.176302
0.17631
0.176319
0.176327
0.176336
0.176344
0.176353
0.176361
0.17637
0.176379
0.176387
0.176396
0.176404
0.176413
0.176421
0.17643
0.176439
0.176447
0.176456
0.176465
0.176473
0.176482
0.17649
0.176499
0.176508
0.176516
0.176525
0.176534
0.176542
0.176551
0.17656
0.176569
0.176577
0.176586
0.176595
0.176603
0.176612
0.176621
0.17663
0.176638
0.176647
0.176656
0.176665
0.176673
0.176682
0.176691
0.1767
0.176709
0.176717
0.176726
0.176735
0.176744
0.176753
0.176761
0.17677
0.176779
0.176788
0.176797
0.176805
0.176814
0.176823
0.176832
0.176841
0.17685
0.176859
0.176867
0.176876
0.176885
0.176894
0.176903
0.176912
0.176921
0.17693
0.176938
0.176947
0.176956
0.176965
0.176974
0.176983
0.176992
0.177001
0.17701
0.177019
0.177028
0.177036
0.177045
0.177054
0.177063
0.177072
0.177081
0.17709
0.177099
0.177108
0.177117
0.177126
0.177135
0.177144
0.177153
0.177162
0.177171
0.17718
0.177188
0.177197
0.177206
0.177215
0.177224
0.177233
0.177242
0.177251
0.17726
0.177269
0.177278
0.177287
0.177296
0.177305
0.177314
0.177323
0.177332
0.177341
0.177349
0.177358
0.177367
0.177376
0.177385
0.177394
0.177403
0.177412
0.177421
0.17743
0.177439
0.177447
0.177456
0.177465
0.177474
0.177483
0.177492
0.177501
0.177509
0.177518
0.177527
0.177536
0.177545
0.177553
0.177562
0.177571
0.17758
0.177589
0.177597
0.177606
0.177615
0.177624
0.177632
0.177641
0.17765
0.177658
0.177667
0.177676
0.177684
0.177693
0.177702
0.17771
0.177719
0.177728
0.177736
0.177745
0.177753
0.177762
0.177771
0.177779
0.177788
0.177796
0.177805
0.177813
0.177822
0.17783
0.177839
0.177847
0.177856
0.177864
0.177873
0.177881
0.17789
0.177898
0.177907
0.177915
0.177923
0.177932
0.17794
0.177949
0.177957
0.177965
0.177974
0.177982
0.17799
0.177999
0.178007
0.178016
0.178024
0.178032
0.178041
0.178049
0.178057
0.178066
0.178074
0.178082
0.17809
0.178099
0.178107
0.178115
0.178124
0.178132
0.17814
0.178149
0.178157
0.178165
0.178174
0.178182
0.17819
0.178199
0.178207
0.178215
0.178224
0.178232
0.17824
0.178249
0.178257
0.178265
0.178274
0.178282
0.17829
0.178299
0.178307
0.178315
0.178324
0.178332
0.178341
0.178349
0.178357
0.178366
0.178374
0.178383
0.178391
0.178399
0.178408
0.178416
0.178425
0.178433
0.178442
0.17845
0.178459
0.178467
0.178476
0.178484
0.178493
0.178502
0.17851
0.178519
0.178527
0.178536
0.178545
0.178553
0.178562
0.17857
0.178579
0.178588
0.178596
0.178605
0.178614
0.178623
0.178631
0.17864
0.178649
0.178658
0.178666
0.178675
0.178684
0.178693
0.178702
0.178711
0.178719
0.178728
0.178737
0.178746
0.178755
0.178764
0.178773
0.178782
0.178791
0.1788
0.178809
0.178818
0.178827
0.178836
0.178845
0.178854
0.178863
0.178872
0.178881
0.17889
0.178899
0.178908
0.178917
0.178926
0.178936
0.178945
0.178954
0.178963
0.178972
0.178981
0.17899
0.179
0.179009
0.179018
0.179027
0.179036
0.179046
0.179055
0.179064
0.179073
0.179082
0.179092
0.179101
0.17911
0.179119
0.179129
0.179138
0.179147
0.179156
0.179166
0.179175
0.179184
0.179193
0.179203
0.179212
0.179221
0.17923
0.17924
0.179249
0.179258
0.179267
0.179277
0.179286
0.179295
0.179304
0.179314
0.179323
0.179332
0.179341
0.17935
0.17936
0.179369
0.179378
0.179387
0.179396
0.179406
0.179415
0.179424
0.179433
0.179442
0.179451
0.17946
0.17947
0.179479
0.179488
0.179497
0.179506
0.179515
0.179524
0.179533
0.179542
0.179551
0.17956
0.179569
0.179578
0.179587
0.179596
0.179605
0.179614
0.179623
0.179632
0.179641
0.17965
0.179659
0.179668
0.179677
0.179686
0.179695
0.179703
0.179712
0.179721
0.17973
0.179739
0.179748
0.179756
0.179765
0.179774
0.179783
0.179791
0.1798
0.179809
0.179818
0.179826
0.179835
0.179844
0.179852
0.179861
0.17987
0.179878
0.179887
0.179896
0.179904
0.179913
0.179921
0.17993
0.179939
0.179947
0.179956
0.179964
0.179973
0.179981
0.17999
0.179998
0.180007
0.180016
0.180024
0.180033
0.180041
0.18005
0.180058
0.180067
0.180075
0.180083
0.180092
0.1801
0.180109
0.180117
0.180126
0.180134
0.180143
0.180151
0.18016
0.180168
0.180177
0.180185
0.180194
0.180202
0.18021
0.180219
0.180227
0.180236
0.180244
0.180253
0.180261
0.18027
0.180278
0.180287
0.180295
0.180304
0.180312
0.18032
0.180329
0.180337
0.180346
0.180354
0.180363
0.180371
0.18038
0.180389
0.180397
0.180406
0.180414
0.180423
0.180431
0.18044
0.180448
0.180457
0.180466
0.180474
0.180483
0.180491
0.1805
0.180509
0.180517
0.180526
0.180535
0.180543
0.180552
0.180561
0.180569
0.180578
0.180587
0.180595
0.180604
0.180613
0.180622
0.18063
0.180639
0.180648
0.180657
0.180666
0.180674
0.180683
0.180692
0.180701
0.18071
0.180719
0.180727
0.180736
0.180745
0.180754
0.180763
0.180772
0.180781
0.18079
0.180799
0.180808
0.180817
0.180826
0.180835
0.180844
0.180853
0.180862
0.180871
0.18088
0.180889
0.180898
0.180907
0.180916
0.180925
0.180935
0.180944
0.180953
0.180962
0.180971
0.18098
0.180989
0.180999
0.181008
0.181017
0.181026
0.181035
0.181044
0.181054
0.181063
0.181072
0.181081
0.18109
0.1811
0.181109
0.181118
0.181127
0.181137
0.181146
0.181155
0.181164
0.181173
0.181183
0.181192
0.181201
0.18121
0.18122
0.181229
0.181238
0.181247
0.181257
0.181266
0.181275
0.181284
0.181293
0.181303
0.181312
0.181321
0.18133
0.18134
0.181349
0.181358
0.181367
0.181376
0.181386
0.181395
0.181404
0.181413
0.181422
0.181432
0.181441
0.18145
0.181459
0.181468
0.181477
0.181486
0.181496
0.181505
0.181514
0.181523
0.181532
0.181541
0.18155
0.181559
0.181568
0.181577
0.181586
0.181595
0.181604
0.181613
0.181622
0.181631
0.18164
0.181649
0.181658
0.181667
0.181676
0.181685
0.181694
0.181703
0.181712
0.181721
0.18173
0.181739
0.181748
0.181756
0.181765
0.181774
0.181783
0.181792
0.181801
0.18181
0.181819
0.181827
0.181836
0.181845
0.181854
0.181863
0.181871
0.18188
0.181889
0.181898
0.181906
0.181915
0.181924
0.181933
0.181941
0.18195
0.181959
0.181968
0.181976
0.181985
0.181994
0.182003
0.182011
0.18202
0.182029
0.182037
0.182046
0.182055
0.182063
0.182072
0.182081
0.18209
0.182098
0.182107
0.182116
0.182124
0.182133
0.182142
0.18215
0.182159
0.182168
0.182176
0.182185
0.182194
0.182203
0.182211
0.18222
0.182229
0.182237
0.182246
0.182255
0.182264
0.182272
0.182281
0.18229
0.182299
0.182307
0.182316
0.182325
0.182334
0.182342
0.182351
0.18236
0.182369
0.182378
0.182386
0.182395
0.182404
0.182413
0.182422
0.18243
0.182439
0.182448
0.182457
0.182466
0.182475
0.182484
0.182493
0.182502
0.18251
0.182519
0.182528
0.182537
0.182546
0.182555
0.182564
0.182573
0.182582
0.182591
0.1826
0.182609
0.182618
0.182627
0.182636
0.182645
0.182654
0.182663
0.182672
0.182681
0.18269
0.1827
0.182709
0.182718
0.182727
0.182736
0.182745
0.182754
0.182763
0.182772
0.182782
0.182791
0.1828
0.182809
0.182818
0.182827
0.182837
0.182846
0.182855
0.182864
0.182873
0.182883
0.182892
0.182901
0.18291
0.182919
0.182929
0.182938
0.182947
0.182956
0.182966
0.182975
0.182984
0.182993
0.183002
0.183012
0.183021
0.18303
0.183039
0.183049
0.183058
0.183067
0.183076
0.183086
0.183095
0.183104
0.183113
0.183122
0.183132
0.183141
0.18315
0.183159
0.183169
0.183178
0.183187
0.183196
0.183205
0.183215
0.183224
0.183233
0.183242
0.183251
0.18326
0.18327
0.183279
0.183288
0.183297
0.183306
0.183315
0.183324
0.183333
0.183343
0.183352
0.183361
0.18337
0.183379
0.183388
0.183397
0.183406
0.183415
0.183424
0.183433
0.183442
0.183451
0.18346
0.183469
0.183478
0.183487
0.183496
0.183505
0.183514
0.183523
0.183532
0.183541
0.18355
0.183559
0.183568
0.183577
0.183586
0.183594
0.183603
0.183612
0.183621
0.18363
0.183639
0.183648
0.183657
0.183665
0.183674
0.183683
0.183692
0.183701
0.18371
0.183718
0.183727
0.183736
0.183745
0.183754
0.183762
0.183771
0.18378
0.183789
0.183798
0.183806
0.183815
0.183824
0.183833
0.183841
0.18385
0.183859
0.183868
0.183877
0.183885
0.183894
0.183903
0.183912
0.18392
0.183929
0.183938
0.183947
0.183955
0.183964
0.183973
0.183982
0.183991
0.183999
0.184008
0.184017
0.184026
0.184034
0.184043
0.184052
0.184061
0.18407
0.184079
0.184087
0.184096
0.184105
0.184114
0.184122
0.184132
0.18414
0.18415
0.184158
0.184167
0.184176
0.184185
0.184193
0.184203
0.184211
0.184221
0.184229
0.184239
0.184247
0.184257
0.184265
0.184275
0.184283
0.184293
0.184301
0.184311
0.184319
0.184329
0.184337
0.184347
0.184355
0.184365
0.184373
0.184383
0.184391
0.184401
0.184409
0.18442
0.184428
0.184438
0.184446
0.184456
0.184464
0.184475
0.184483
0.184493
0.184501
0.184511
0.184519
0.18453
0.184538
0.184548
0.184556
0.184567
0.184575
0.184585
0.184594
0.184604
0.184612
0.184623
0.184631
0.184641
0.18465
0.18466
0.184668
0.184679
0.184687
0.184698
0.184706
0.184716
0.184725
0.184735
0.184743
0.184754
0.184762
0.184773
0.184781
0.184792
0.1848
0.184811
0.184819
0.184829
0.184838
0.184848
0.184857
0.184867
0.184876
0.184886
0.184894
0.184905
0.184913
0.184924
0.184932
0.184943
0.184951
0.184962
0.18497
0.184981
0.184989
0.185
0.185008
0.185019
0.185027
0.185037
0.185046
0.185056
0.185065
0.185075
0.185083
0.185094
0.185102
0.185113
0.185121
0.185131
0.18514
0.18515
0.185159
0.185169
0.185178
0.185187
0.185196
0.185206
0.185215
0.185225
0.185234
0.185243
0.185252
0.185262
0.185271
0.18528
0.185289
0.185299
0.185308
0.185317
0.185326
0.185336
0.185345
0.185354
0.185363
0.185372
0.185382
0.185391
0.1854
0.185409
0.185418
0.185427
0.185436
0.185445
0.185454
0.185464
0.185473
0.185482
0.185491
0.1855
0.185509
0.185518
0.185527
0.185536
0.185545
0.185554
0.185563
0.185572
0.185581
0.18559
0.185598
0.185607
0.185616
0.185625
0.185634
0.185643
0.185652
0.185661
0.18567
0.185678
0.185687
0.185696
0.185705
0.185714
0.185723
0.185731
0.18574
0.185749
0.185758
0.185767
0.185775
0.185784
0.185793
0.185802
0.185811
0.185819
0.185828
0.185837
0.185846
0.185854
0.185863
0.185872
0.185881
0.185889
0.185898
0.185907
0.185916
0.185924
0.185933
0.185942
0.185951
0.185959
0.185968
0.185977
0.185986
0.185994
0.186003
0.186012
0.186021
0.186029
0.186038
0.186047
0.186056
0.186064
0.186073
0.186082
0.186091
0.186099
0.186108
0.186117
0.186126
0.186135
0.186143
0.186152
0.186161
0.18617
0.186179
0.186188
0.186196
0.186205
0.186214
0.186223
0.186232
0.186241
0.18625
0.186259
0.186268
0.186276
0.186285
0.186294
0.186303
0.186312
0.186321
0.18633
0.186339
0.186348
0.186357
0.186366
0.186375
0.186384
0.186393
0.186402
0.186411
0.18642
0.186429
0.186439
0.186448
0.186457
0.186466
0.186475
0.186484
0.186493
0.186503
0.186512
0.186521
0.18653
0.186539
0.186549
0.186558
0.186567
0.186576
0.186586
0.186595
0.186604
0.186613
0.186623
0.186632
0.186641
0.186651
0.18666
0.18667
0.186679
0.186688
0.186698
0.186707
0.186717
0.186726
0.186735
0.186745
0.186754
0.186764
0.186773
0.186783
0.186792
0.186802
0.186811
0.186821
0.18683
0.18684
0.186849
0.186859
0.186869
0.186878
0.186888
0.186897
0.186907
0.186916
0.186926
0.186936
0.186945
0.186955
0.186964
0.186974
0.186984
0.186993
0.187003
0.187013
0.187022
0.187032
0.187041
0.187051
0.187061
0.18707
0.18708
0.18709
0.187099
0.187109
0.187119
0.187128
0.187138
0.187148
0.187157
0.187167
0.187176
0.187186
0.187196
0.187205
0.187215
0.187225
0.187234
0.187244
0.187253
0.187263
0.187273
0.187282
0.187292
0.187302
0.187311
0.187321
0.18733
0.18734
0.187349
0.187359
0.187369
0.187378
0.187388
0.187397
0.187407
0.187416
0.187426
0.187435
0.187445
0.187454
0.187464
0.187473
0.187483
0.187492
0.187502
0.187511
0.18752
0.18753
0.187539
0.187549
0.187558
0.187567
0.187577
0.187586
0.187596
0.187605
0.187614
0.187624
0.187633
0.187642
0.187651
0.187661
0.18767
0.187679
0.187689
0.187698
0.187707
0.187716
0.187726
0.187735
0.187744
0.187753
0.187762
0.187772
0.187781
0.18779
0.187799
0.187808
0.187817
0.187827
0.187836
0.187845
0.187854
0.187863
0.187872
0.187881
0.18789
0.187899
0.187908
0.187917
0.187927
0.187936
0.187945
0.187954
0.187963
0.187972
0.187981
0.18799
0.187999
0.188008
0.188017
0.188026
0.188035
0.188044
0.188053
0.188062
0.188071
0.18808
0.188089
0.188098
0.188107
0.188115
0.188124
0.188133
0.188142
0.188151
0.18816
0.188169
0.188178
0.188187
0.188196
0.188205
0.188214
0.188223
0.188232
0.188241
0.18825
0.188259
0.188268
0.188277
0.188286
0.188295
0.188303
0.188312
0.188321
0.18833
0.188339
0.188348
0.188357
0.188366
0.188375
0.188384
0.188393
0.188402
0.188411
0.18842
0.188429
0.188438
0.188447
0.188456
0.188465
0.188474
0.188483
0.188492
0.188502
0.188511
0.18852
0.188529
0.188538
0.188547
0.188556
0.188565
0.188574
0.188583
0.188592
0.188602
0.188611
0.18862
0.188629
0.188638
0.188647
0.188656
0.188666
0.188675
0.188684
0.188693
0.188702
0.188712
0.188721
0.18873
0.188739
0.188749
0.188758
0.188767
0.188777
0.188786
0.188795
0.188804
0.188814
0.188823
0.188832
0.188842
0.188851
0.18886
0.18887
0.188879
0.188889
0.188898
0.188907
0.188917
0.188926
0.188936
0.188945
0.188954
0.188964
0.188973
0.188983
0.188992
0.189002
0.189011
0.189021
0.18903
0.18904
0.189049
0.189059
0.189068
0.189078
0.189087
0.189097
0.189106
0.189116
0.189125
0.189135
0.189145
0.189154
0.189164
0.189173
0.189183
0.189192
0.189202
0.189211
0.189221
0.189231
0.18924
0.18925
0.189259
0.189269
0.189279
0.189288
0.189298
0.189307
0.189317
0.189327
0.189336
0.189346
0.189356
0.189365
0.189375
0.189384
0.189394
0.189404
0.189413
0.189423
0.189432
0.189442
0.189452
0.189461
0.189471
0.18948
0.18949
0.1895
0.189509
0.189519
0.189528
0.189538
0.189547
0.189557
0.189567
0.189576
0.189586
0.189595
0.189605
0.189614
0.189624
0.189634
0.189643
0.189653
0.189662
0.189672
0.189681
0.189691
0.1897
0.18971
0.189719
0.189729
0.189738
0.189748
0.189757
0.189766
0.189776
0.189785
0.189795
0.189804
0.189814
0.189823
0.189833
0.189842
0.189851
0.189861
0.18987
0.18988
0.189889
0.189898
0.189908
0.189917
0.189926
0.189936
0.189945
0.189954
0.189964
0.189973
0.189982
0.189992
0.190001
0.19001
0.190019
0.190029
0.190038
0.190047
0.190057
0.190066
0.190075
0.190084
0.190094
0.190103
0.190112
0.190121
0.19013
0.19014
0.190149
0.190158
0.190167
0.190176
0.190186
0.190195
0.190204
0.190213
0.190222
0.190232
0.190241