/*--------------------------------*- C++ -*----------------------------------*\
  =========                 |
  \\      /  F ield         | OpenFOAM: The Open Source CFD Toolbox
   \\    /   O peration     | Website:  https://openfoam.org
    \\  /    A nd           | Version:  9
     \\/     M anipulation  |
\*---------------------------------------------------------------------------*/
FoamFile
{
    format      ascii;
    class       volScalarField;
    location    "0.014";
    object      ddt0(rho,e);
}
// * * * * * * * * * * * * * * * * * * * * * * * * * * * * * * * * * * * * * //

dimensions      [1 -1 -3 0 0 0 0];

internalField   nonuniform List<scalar> 
1000
(
-3.88827e+06
-3.8591e+06
-3.84956e+06
-3.84613e+06
-3.84044e+06
-3.83375e+06
-3.826e+06
-3.81706e+06
-3.80676e+06
-3.79488e+06
-3.78116e+06
-3.76529e+06
-3.74691e+06
-3.72559e+06
-3.70081e+06
-3.67201e+06
-3.63855e+06
-3.59974e+06
-3.55487e+06
-3.50323e+06
-3.44424e+06
-3.37744e+06
-3.30266e+06
-3.22001e+06
-3.12998e+06
-3.0334e+06
-2.93145e+06
-2.82564e+06
-2.71769e+06
-2.60944e+06
-2.50274e+06
-2.39934e+06
-2.3008e+06
-2.20837e+06
-2.12299e+06
-2.04519e+06
-1.97517e+06
-1.91282e+06
-1.85775e+06
-1.8094e+06
-1.76708e+06
-1.73004e+06
-1.69755e+06
-1.66887e+06
-1.64334e+06
-1.62037e+06
-1.59945e+06
-1.58015e+06
-1.56212e+06
-1.54507e+06
-1.52877e+06
-1.51305e+06
-1.49776e+06
-1.48281e+06
-1.46812e+06
-1.45363e+06
-1.43929e+06
-1.42509e+06
-1.41099e+06
-1.39698e+06
-1.38305e+06
-1.36919e+06
-1.35541e+06
-1.34169e+06
-1.32803e+06
-1.31443e+06
-1.3009e+06
-1.28743e+06
-1.27402e+06
-1.26068e+06
-1.24739e+06
-1.23417e+06
-1.22101e+06
-1.20791e+06
-1.19488e+06
-1.18191e+06
-1.169e+06
-1.15616e+06
-1.14338e+06
-1.13067e+06
-1.11802e+06
-1.10544e+06
-1.09292e+06
-1.08046e+06
-1.06807e+06
-1.05575e+06
-1.0435e+06
-1.0313e+06
-1.01918e+06
-1.00712e+06
-995123
-983195
-971332
-959536
-947805
-936140
-924542
-913009
-901542
-890141
-878805
-867536
-856332
-845194
-834121
-823114
-812172
-801296
-790485
-779739
-769058
-758443
-747892
-737406
-726985
-716628
-706336
-696108
-685944
-675845
-665809
-655838
-645930
-636086
-626305
-616587
-606933
-597341
-587813
-578347
-568944
-559604
-550325
-541109
-531955
-522863
-513832
-504863
-495955
-487109
-478323
-469599
-460935
-452332
-443789
-435306
-426884
-418521
-410218
-401975
-393791
-385666
-377600
-369593
-361645
-353756
-345925
-338152
-330437
-322780
-315180
-307638
-300154
-292726
-285356
-278042
-270785
-263585
-256440
-249352
-242320
-235343
-228422
-221557
-214746
-207991
-201290
-194645
-188053
-181516
-175033
-168605
-162229
-155908
-149640
-143425
-137263
-131155
-125099
-119095
-113144
-107245
-101398
-95602.7
-89859.2
-84167.2
-78526.4
-72936.9
-67398.2
-61910.4
-56473.1
-51086.3
-45749.7
-40463.2
-35226.5
-30039.6
-24902.2
-19814.2
-14775.4
-9785.59
-4844.63
47.6627
4891.46
9686.95
14434.3
19133.7
23785.2
28389.2
32945.7
37454.9
41917
46332.2
50700.6
55022.4
59297.8
63527
67710
71847.2
75938.6
79984.5
83985
87940.2
91850.4
95715.7
99536.3
103312
107044
110731
114375
117974
121531
125040
128517
131925
135343
138611
142049
145032
148755
150988
155791
155960
163942
158830
174712
157735
190163
150821
211232
139140
233514
131850
242194
149069
214653
209181
147812
292758
78627.2
348981
76379.9
300254
195266
149992
352914
55219.8
357089
172649
166796
377106
55447.2
346762
239691
106091
422149
104009
242144
379761
52465.1
364617
284228
79420.3
429062
199089
136493
448957
143415
190963
448676
112815
230942
443228
101627
249870
443956
102532
249182
451208
116545
228113
463109
146023
189443
471259
195531
141612
460348
269175
98368.9
416920
358403
83912.1
332805
440139
123244
220424
475533
225755
121081
428415
363129
94129.1
299993
462387
180097
152725
445450
343076
96889.9
300481
462456
199327
135940
417918
385107
116803
231165
463266
283401
102116
324904
449936
200988
129215
389102
410167
149336
168952
422485
368235
123350
201898
434949
337180
112162
220519
436166
320540
108574
223263
430955
319018
109576
210626
419942
331359
117023
184040
400211
354887
134586
148918
366129
382035
169218
114130
311976
402160
223234
93815.5
238859
398310
291613
104901
158598
354914
354801
159387
97213.4
267917
382072
248975
87686.3
160509
343445
335258
149354
84034.3
237317
361200
259500
90294.9
115227
291313
341495
187273
65190.4
155606
315709
303365
135935
59349.4
183672
321258
265972
98967.6
61588.9
199862
309571
236043
82737.4
58396.4
193572
299468
222434
66364.1
47565.7
184360
282872
212140
66041.1
32674.4
153087
267226
219726
65146.9
7283.7
124315
250611
212404
73901.9
10969.9
77818.8
192580
226273
119281
-9464.66
13869.2
158503
228250
138370
1776.2
-23770
92255.8
205585
166610
26486.4
-39385.5
29562.9
140120
173593
89170.9
-28632
-44080.8
62372.7
161887
138097
10671.2
-81218.6
-21383.3
116946
154078
57781.7
-53462.6
-76328.2
14405.4
131197
125441
-6123.54
-101939
-57300.6
66089.7
127630
60609.8
-54149
-95338.8
-32662.9
74291.9
118104
32529.9
-93820.6
-108952
1521.27
113481
82216.3
-19283.4
-77795.2
-83123.7
-6922.42
86696.8
51728.6
-7682.72
-28049.2
-45367.6
-25687.5
11105
29478.7
8611.96
-1740.22
-19681.7
-16902.1
-5120.54
4961.37
4836.05
864.98
-1465.92
-11468.3
-10384.8
-4231.55
4140.94
-2495.29
-6514.37
-1054.77
-3895.83
-16239.5
7174.09
701.358
-5507.89
-2895.97
1135.27
-4236.08
-18812
6178.83
2543.49
-8327.27
-9980.28
3130.69
3804.42
-10364.1
-6739.56
1114.11
1121.68
-6135.32
-15703.7
3675.94
486.94
3621.38
-14893.5
-16927.5
-1125.4
8305.34
4502.89
5582.88
-3747.09
-20271.6
-5723.97
3076.15
6654.19
-17193.4
-15949.7
5793.04
5280.49
-1127.56
-13486.4
-6862.42
-799.429
1464.83
-2634.64
-5286.65
-488.056
-3179.81
-6255.72
-7433.36
-6077.31
-1593.31
-7004.13
-9245.52
-1035.01
1985.04
-7812.5
-13391.4
3115.88
2070.94
-11203.7
-15058.4
3718.68
558.363
-1576.5
-9864.3
-6120.28
-2691.6
125.637
-5063.25
-10306.2
435.998
-4807.89
-3813.59
-5262.56
-5204.41
-5630.52
-4224.1
-6279.04
-2995.2
-3678.64
-3400.51
-5978.49
-6409.01
-6433.74
-2288.81
-5525.73
-4874.49
-6451.86
-4658.51
-7040.89
-8711.99
-4361.09
-2600.5
-5782.87
-9556.67
-2196.14
-4062.16
-5431.05
-9021.68
-1454.74
-4560.6
-5640.13
-8579.73
-3009
-6783.89
-4384.13
-6318.87
-6332.72
-5515.82
-4768.51
-7371.79
-11691.1
-575.054
-6161.21
-6312.01
-11426.6
-10629.2
-2282.53
-3884.34
-6917.09
-10782.8
-5083.61
-8183.22
-5495.4
-6609.59
-5563.63
-4933.33
-5722.5
-5618.17
-6998.92
-6614.36
-8232.46
-7165.75
-6320.93
-7926.7
-6853.54
-6454.77
-8752.94
-9302.96
-5979.49
-8609.87
-11027.5
-8103.69
-5923.45
-9794.95
-10037.3
-6824.07
-8051.03
-11654.5
-7478.65
-4849.53
-8599.58
-10115.4
-9347.97
-8091.27
-14299.5
-6987.96
-6582.01
-9302.83
-11215.6
-6828.59
-4963.68
-7543.23
-9744.31
-9027.17
-11027.4
-16519.7
-10908.6
-10630.4
-12021.2
-13484.1
-9140.82
-8867.39
-15159.9
-4735.52
-8992.38
-11489
-11921.3
-9116.3
-7173.33
-11463.4
-5651.78
-7494.74
-13063.7
-17014.6
-14432.6
-15026.3
-18843.3
-15616.1
-13719.2
-15867.7
-16471.5
-8341.45
-11704.3
-11915.1
-7133.24
-4905.85
-10039.6
-11022
-13800.5
-16645.9
-21428.1
-16784.5
-13925.2
-15196.4
-17325.2
-18981.9
-21138.4
-19770.5
-14871.5
-12746
-14605.9
-16673.8
-16262.2
-14599.9
-12062.9
-10856.2
-14817.1
-22382
-26702.5
-25991.6
-23112
-16865.8
-14894.4
-20557.7
-26223.8
-26564.5
-22496.7
-14482.2
-8865.6
-9024.07
-15336.2
-23385.9
-26442.9
-23647
-23528
-21882.1
-21353
-26264.8
-27461
-21829.6
-20235.3
-21485.8
-24759.8
-32904
-40433.3
-40679.4
-33540.2
-23519.9
-15096.1
-10697.7
-16442
-28492
-38445.8
-40942.4
-37912.7
-30725.9
-21489.9
-20163.9
-27013.3
-36471.7
-47628.7
-55237.3
-52420.8
-43508.1
-32989.9
-23459.7
-18355.2
-23165.3
-35396.7
-45077.3
-55150.7
-60937.4
-54648.3
-43751.8
-33652.6
-22716.7
-17740.3
-26119
-43630.3
-60699.2
-81401.7
-96478.4
-92917.4
-78733.6
-58625.4
-33890.1
-17745.3
-18023.8
-31586.4
-75578.1
-96905.3
-102250
-93965.1
-74987.6
-50919.4
-31344.6
-20837.5
-20900.7
-38346.7
-132270
-165494
-147197
-111225
-74002.2
-52995.1
-47295.8
-63605.6
-96464.4
-130709
-157902
-175567
-174847
-155837
-126397
-92235
-61442.6
-34498.6
-26422.8
-34022.2
-58040.2
-200908
-316501
-330998
-331607
-306201
-258762
-200159
-141192
-91418.9
-53368.9
-42186.7
-63045.9
-112156
-395636
-588544
-599876
-578707
-517682
-429532
-332002
-229634
-141591
-85218.2
-63762.2
-84268.7
-152359
-293260
-1.11878e+06
-1.44385e+06
-1.54115e+06
-1.52462e+06
-1.44134e+06
-1.30563e+06
-1.11085e+06
-927437
-733565
-517259
-354779
-241863
-126411
-69104
-80213.4
-71912.4
-1.40929e+06
-3.30193e+06
-1.46543e+07
-4.19597e+07
-1.39212e+08
-1.48676e+08
-1.41673e+08
-1.29429e+08
-1.16035e+08
-1.02331e+08
-8.90514e+07
-7.66561e+07
-6.52853e+07
-5.51165e+07
-4.60213e+07
-3.81115e+07
-3.12426e+07
-2.53523e+07
-2.05984e+07
-1.64758e+07
-1.30024e+07
-1.00032e+07
-8.18238e+06
-6.21442e+06
-4.43126e+06
-3.18775e+06
-3.18569e+06
-1.97321e+06
-1.01571e+06
-316496
-1.68331e+06
-559369
344772
1.17204e+06
-1.73628e+06
-487039
643667
1.55897e+06
190932
-2.0053e+06
6640.63
1.07373e+06
2.81639e+06
-2.46222e+06
-124949
1.0819e+06
2.66193e+06
-2.57215e+06
-54230.9
1.15742e+06
2.71548e+06
-2.73625e+06
-376420
1.0988e+06
2.60909e+06
-2.26879e+06
-1.00673e+06
-84661
2.19673e+06
1.49724e+06
-2.32516e+06
-1.09334e+06
-352210
2.27596e+06
1.2643e+06
-1.90281e+06
-1.35489e+06
-371855
1.31159e+06
878060
-440079
-757145
-179062
870867
311001
-596034
-394297
951076
459961
-122123
-540622
-192826
728009
309877
-250712
-529586
14372.9
537096
202190
2596.95
-791924
-407441
-219767
769768
913123
358051
-502398
-837684
-401348
-162846
22750.9
73694.6
)
;

boundaryField
{
    sides
    {
        type            calculated;
        value           nonuniform List<scalar> 2(73694.6 -3.88827e+06);
    }
    empty
    {
        type            empty;
    }
}


// ************************************************************************* //
