/*--------------------------------*- C++ -*----------------------------------*\
  =========                 |
  \\      /  F ield         | OpenFOAM: The Open Source CFD Toolbox
   \\    /   O peration     | Website:  https://openfoam.org
    \\  /    A nd           | Version:  9
     \\/     M anipulation  |
\*---------------------------------------------------------------------------*/
FoamFile
{
    format      ascii;
    class       volScalarField;
    location    "0.017";
    object      mag(U);
}
// * * * * * * * * * * * * * * * * * * * * * * * * * * * * * * * * * * * * * //

dimensions      [0 1 -1 0 0 0 0];

internalField   nonuniform List<scalar> 
100
(
70.3886
77.9098
82.3153
87.07
91.7346
96.4167
101.092
105.767
110.442
115.116
119.789
124.464
129.143
133.833
138.537
143.258
147.989
152.724
157.454
162.178
166.898
171.621
176.347
181.077
185.81
190.544
195.28
200.017
204.756
209.498
214.241
218.985
223.73
228.475
233.221
237.965
242.707
247.446
252.181
256.909
261.63
266.337
271.023
275.663
280.194
284.479
288.182
290.956
292.506
293.007
293.051
293.03
293.325
293.627
293.738
293.767
293.745
293.651
293.609
293.612
293.624
293.633
293.65
293.649
293.593
293.478
293.432
293.422
293.426
293.437
293.454
293.457
293.438
293.347
293.296
293.276
293.266
293.26
293.266
293.287
293.295
293.218
293.135
293.091
293.059
293.019
293.014
293.058
293.176
293.423
293.668
292.841
290.027
287.165
286.161
286.342
286.575
286.694
286.84
285.549
)
;

boundaryField
{
    sides
    {
        type            calculated;
        value           nonuniform List<scalar> 2(285.549 70.3886);
    }
    empty
    {
        type            empty;
    }
}


// ************************************************************************* //
