/*--------------------------------*- C++ -*----------------------------------*\
  =========                 |
  \\      /  F ield         | OpenFOAM: The Open Source CFD Toolbox
   \\    /   O peration     | Website:  https://openfoam.org
    \\  /    A nd           | Version:  9
     \\/     M anipulation  |
\*---------------------------------------------------------------------------*/
FoamFile
{
    format      ascii;
    class       volScalarField;
    location    "0.017";
    object      T;
}
// * * * * * * * * * * * * * * * * * * * * * * * * * * * * * * * * * * * * * //

dimensions      [0 0 0 1 0 0 0];

internalField   nonuniform List<scalar> 
100
(
323.411
320.641
318.911
317.088
315.335
313.611
311.915
310.233
308.556
306.883
305.214
303.55
301.894
300.247
298.609
296.981
295.362
293.747
292.134
290.523
288.914
287.309
285.708
284.112
282.52
280.932
279.347
277.766
276.189
274.616
273.047
271.482
269.921
268.365
266.813
265.266
263.724
262.188
260.658
259.134
257.617
256.108
254.611
253.133
251.694
250.343
249.158
248.302
247.815
247.645
247.617
247.622
247.535
247.448
247.42
247.392
247.387
247.406
247.418
247.426
247.426
247.421
247.409
247.391
247.403
247.432
247.453
247.456
247.453
247.443
247.428
247.408
247.413
247.435
247.456
247.462
247.46
247.456
247.445
247.424
247.415
247.436
247.461
247.485
247.503
247.505
247.489
247.442
247.369
247.2
247.188
247.491
248.484
249.6
251.101
253.174
257.294
265.406
282.316
321.697
)
;

boundaryField
{
    sides
    {
        type            zeroGradient;
    }
    empty
    {
        type            empty;
    }
}


// ************************************************************************* //
