/*--------------------------------*- C++ -*----------------------------------*\
  =========                 |
  \\      /  F ield         | OpenFOAM: The Open Source CFD Toolbox
   \\    /   O peration     | Website:  https://openfoam.org
    \\  /    A nd           | Version:  9
     \\/     M anipulation  |
\*---------------------------------------------------------------------------*/
FoamFile
{
    format      ascii;
    class       volVectorField;
    location    "0.017";
    object      U;
}
// * * * * * * * * * * * * * * * * * * * * * * * * * * * * * * * * * * * * * //

dimensions      [0 1 -1 0 0 0 0];

internalField   nonuniform List<vector> 
100
(
(70.3886 0 0)
(77.9098 0 0)
(82.3153 0 0)
(87.07 0 0)
(91.7346 0 0)
(96.4167 0 0)
(101.092 0 0)
(105.767 0 0)
(110.442 0 0)
(115.116 0 0)
(119.789 0 0)
(124.464 0 0)
(129.143 0 0)
(133.833 0 0)
(138.537 0 0)
(143.258 0 0)
(147.989 0 0)
(152.724 0 0)
(157.454 0 0)
(162.178 0 0)
(166.898 0 0)
(171.621 0 0)
(176.347 0 0)
(181.077 0 0)
(185.81 0 0)
(190.544 0 0)
(195.28 0 0)
(200.017 0 0)
(204.756 0 0)
(209.498 0 0)
(214.241 0 0)
(218.985 0 0)
(223.73 0 0)
(228.475 0 0)
(233.221 0 0)
(237.965 0 0)
(242.707 0 0)
(247.446 0 0)
(252.181 0 0)
(256.909 0 0)
(261.63 0 0)
(266.337 0 0)
(271.023 0 0)
(275.663 0 0)
(280.194 0 0)
(284.479 0 0)
(288.182 0 0)
(290.956 0 0)
(292.506 0 0)
(293.007 0 0)
(293.051 0 0)
(293.03 0 0)
(293.325 0 0)
(293.627 0 0)
(293.738 0 0)
(293.767 0 0)
(293.745 0 0)
(293.651 0 0)
(293.609 0 0)
(293.612 0 0)
(293.624 0 0)
(293.633 0 0)
(293.65 0 0)
(293.649 0 0)
(293.593 0 0)
(293.478 0 0)
(293.432 0 0)
(293.422 0 0)
(293.426 0 0)
(293.437 0 0)
(293.454 0 0)
(293.457 0 0)
(293.438 0 0)
(293.347 0 0)
(293.296 0 0)
(293.276 0 0)
(293.266 0 0)
(293.26 0 0)
(293.266 0 0)
(293.287 0 0)
(293.295 0 0)
(293.218 0 0)
(293.135 0 0)
(293.091 0 0)
(293.059 0 0)
(293.019 0 0)
(293.014 0 0)
(293.058 0 0)
(293.176 0 0)
(293.423 0 0)
(293.668 0 0)
(292.841 0 0)
(290.027 0 0)
(287.165 0 0)
(286.161 0 0)
(286.342 0 0)
(286.575 0 0)
(286.694 0 0)
(286.84 0 0)
(285.549 0 0)
)
;

boundaryField
{
    sides
    {
        type            zeroGradient;
    }
    empty
    {
        type            empty;
    }
}


// ************************************************************************* //
