/*--------------------------------*- C++ -*----------------------------------*\
  =========                 |
  \\      /  F ield         | OpenFOAM: The Open Source CFD Toolbox
   \\    /   O peration     | Website:  https://openfoam.org
    \\  /    A nd           | Version:  9
     \\/     M anipulation  |
\*---------------------------------------------------------------------------*/
FoamFile
{
    format      ascii;
    class       volScalarField;
    location    "0.05";
    object      rho;
}
// * * * * * * * * * * * * * * * * * * * * * * * * * * * * * * * * * * * * * //

dimensions      [1 -3 0 0 0 0 0];

internalField   nonuniform List<scalar> 
10000
(
0.157691
0.15769
0.157688
0.157686
0.157685
0.157683
0.157681
0.157679
0.157677
0.157675
0.157673
0.157671
0.157669
0.157668
0.157666
0.157664
0.157662
0.15766
0.157658
0.157656
0.157654
0.157652
0.15765
0.157649
0.157647
0.157645
0.157643
0.157641
0.157639
0.157638
0.157636
0.157634
0.157632
0.15763
0.157628
0.157627
0.157625
0.157623
0.157621
0.15762
0.157618
0.157616
0.157614
0.157613
0.157611
0.157609
0.157608
0.157606
0.157604
0.157603
0.157601
0.157599
0.157598
0.157596
0.157594
0.157593
0.157591
0.15759
0.157588
0.157587
0.157585
0.157584
0.157582
0.157581
0.157579
0.157578
0.157576
0.157575
0.157573
0.157572
0.157571
0.157569
0.157568
0.157567
0.157565
0.157564
0.157562
0.157561
0.15756
0.157559
0.157557
0.157556
0.157555
0.157554
0.157553
0.157552
0.157551
0.157549
0.157548
0.157547
0.157546
0.157545
0.157543
0.157542
0.157541
0.15754
0.15754
0.157539
0.157538
0.157537
0.157537
0.157536
0.157535
0.157534
0.157534
0.157533
0.157532
0.157531
0.15753
0.157529
0.157528
0.157527
0.157526
0.157525
0.157525
0.157524
0.157523
0.157523
0.157522
0.157522
0.157522
0.157522
0.157522
0.157522
0.157522
0.157523
0.157523
0.157524
0.157525
0.157526
0.157526
0.157527
0.157528
0.157529
0.15753
0.157532
0.157533
0.157534
0.157535
0.157537
0.157538
0.157539
0.157541
0.157542
0.157544
0.157545
0.157547
0.157549
0.15755
0.157552
0.157554
0.157555
0.157557
0.157559
0.157561
0.157563
0.157565
0.157567
0.157569
0.157571
0.157573
0.157575
0.157577
0.157579
0.157582
0.157584
0.157586
0.157589
0.157591
0.157593
0.157596
0.157598
0.157601
0.157604
0.157606
0.157609
0.157612
0.157614
0.157617
0.15762
0.157623
0.157626
0.157629
0.157632
0.157635
0.157638
0.157641
0.157644
0.157648
0.157651
0.157654
0.157658
0.157661
0.157664
0.157668
0.157671
0.157675
0.157679
0.157682
0.157686
0.15769
0.157693
0.157697
0.157701
0.157705
0.157709
0.157713
0.157717
0.157721
0.157725
0.157729
0.157733
0.157737
0.157742
0.157746
0.15775
0.157754
0.157759
0.157763
0.157768
0.157772
0.157777
0.157781
0.157786
0.15779
0.157795
0.157799
0.157804
0.157809
0.157814
0.157818
0.157823
0.157828
0.157833
0.157838
0.157842
0.157847
0.157852
0.157857
0.157862
0.157867
0.157872
0.157877
0.157882
0.157888
0.157893
0.157898
0.157903
0.157908
0.157913
0.157919
0.157924
0.157929
0.157934
0.15794
0.157945
0.15795
0.157956
0.157961
0.157966
0.157972
0.157977
0.157983
0.157988
0.157994
0.157999
0.158004
0.15801
0.158015
0.158021
0.158026
0.158032
0.158038
0.158043
0.158049
0.158054
0.15806
0.158065
0.158071
0.158076
0.158082
0.158088
0.158093
0.158099
0.158104
0.15811
0.158116
0.158121
0.158127
0.158133
0.158138
0.158144
0.15815
0.158155
0.158161
0.158167
0.158172
0.158178
0.158184
0.158189
0.158195
0.158201
0.158207
0.158212
0.158218
0.158224
0.15823
0.158235
0.158241
0.158247
0.158253
0.158258
0.158264
0.15827
0.158276
0.158282
0.158287
0.158293
0.158299
0.158305
0.158311
0.158317
0.158323
0.158328
0.158334
0.15834
0.158346
0.158352
0.158358
0.158364
0.15837
0.158376
0.158381
0.158387
0.158393
0.158399
0.158405
0.158411
0.158417
0.158423
0.158429
0.158435
0.158441
0.158447
0.158453
0.158459
0.158465
0.158471
0.158477
0.158484
0.15849
0.158496
0.158502
0.158508
0.158514
0.15852
0.158526
0.158532
0.158539
0.158545
0.158551
0.158557
0.158563
0.158569
0.158576
0.158582
0.158588
0.158594
0.1586
0.158607
0.158613
0.158619
0.158625
0.158632
0.158638
0.158644
0.158651
0.158657
0.158663
0.15867
0.158676
0.158682
0.158689
0.158695
0.158701
0.158708
0.158714
0.158721
0.158727
0.158733
0.15874
0.158746
0.158753
0.158759
0.158766
0.158772
0.158779
0.158785
0.158792
0.158798
0.158805
0.158811
0.158818
0.158824
0.158831
0.158837
0.158844
0.158851
0.158857
0.158864
0.15887
0.158877
0.158884
0.15889
0.158897
0.158903
0.15891
0.158917
0.158923
0.15893
0.158937
0.158943
0.15895
0.158957
0.158964
0.15897
0.158977
0.158984
0.15899
0.158997
0.159004
0.159011
0.159018
0.159024
0.159031
0.159038
0.159045
0.159051
0.159058
0.159065
0.159072
0.159079
0.159086
0.159092
0.159099
0.159106
0.159113
0.15912
0.159127
0.159133
0.15914
0.159147
0.159154
0.159161
0.159168
0.159175
0.159182
0.159189
0.159196
0.159203
0.159209
0.159216
0.159223
0.15923
0.159237
0.159244
0.159251
0.159258
0.159265
0.159272
0.159279
0.159286
0.159293
0.1593
0.159307
0.159314
0.159321
0.159328
0.159335
0.159342
0.159349
0.159356
0.159363
0.15937
0.159377
0.159384
0.159391
0.159398
0.159406
0.159413
0.15942
0.159427
0.159434
0.159441
0.159448
0.159455
0.159462
0.159469
0.159476
0.159483
0.15949
0.159498
0.159505
0.159512
0.159519
0.159526
0.159533
0.15954
0.159547
0.159555
0.159562
0.159569
0.159576
0.159583
0.15959
0.159597
0.159604
0.159612
0.159619
0.159626
0.159633
0.15964
0.159647
0.159654
0.159662
0.159669
0.159676
0.159683
0.15969
0.159697
0.159704
0.159712
0.159719
0.159726
0.159733
0.15974
0.159747
0.159754
0.159762
0.159769
0.159776
0.159783
0.15979
0.159797
0.159804
0.159812
0.159819
0.159826
0.159833
0.15984
0.159847
0.159854
0.159862
0.159869
0.159876
0.159883
0.15989
0.159897
0.159904
0.159911
0.159918
0.159926
0.159933
0.15994
0.159947
0.159954
0.159961
0.159968
0.159975
0.159982
0.159989
0.159997
0.160004
0.160011
0.160018
0.160025
0.160032
0.160039
0.160046
0.160053
0.16006
0.160067
0.160074
0.160081
0.160088
0.160095
0.160103
0.16011
0.160117
0.160124
0.160131
0.160138
0.160145
0.160152
0.160159
0.160166
0.160173
0.16018
0.160187
0.160194
0.160201
0.160208
0.160215
0.160222
0.160229
0.160236
0.160244
0.160251
0.160258
0.160265
0.160272
0.160279
0.160286
0.160293
0.1603
0.160307
0.160314
0.160321
0.160328
0.160335
0.160342
0.16035
0.160357
0.160364
0.160371
0.160378
0.160385
0.160392
0.160399
0.160406
0.160413
0.160421
0.160428
0.160435
0.160442
0.160449
0.160456
0.160463
0.160471
0.160478
0.160485
0.160492
0.160499
0.160507
0.160514
0.160521
0.160528
0.160535
0.160543
0.16055
0.160557
0.160564
0.160571
0.160579
0.160586
0.160593
0.1606
0.160608
0.160615
0.160622
0.160629
0.160637
0.160644
0.160651
0.160659
0.160666
0.160673
0.16068
0.160688
0.160695
0.160702
0.16071
0.160717
0.160724
0.160732
0.160739
0.160746
0.160754
0.160761
0.160768
0.160776
0.160783
0.16079
0.160798
0.160805
0.160812
0.16082
0.160827
0.160834
0.160842
0.160849
0.160856
0.160864
0.160871
0.160878
0.160886
0.160893
0.1609
0.160908
0.160915
0.160922
0.16093
0.160937
0.160944
0.160952
0.160959
0.160966
0.160974
0.160981
0.160988
0.160996
0.161003
0.16101
0.161018
0.161025
0.161032
0.16104
0.161047
0.161054
0.161062
0.161069
0.161076
0.161084
0.161091
0.161099
0.161106
0.161113
0.161121
0.161128
0.161135
0.161143
0.16115
0.161157
0.161165
0.161172
0.161179
0.161187
0.161194
0.161201
0.161209
0.161216
0.161223
0.161231
0.161238
0.161246
0.161253
0.16126
0.161268
0.161275
0.161282
0.16129
0.161297
0.161305
0.161312
0.161319
0.161327
0.161334
0.161342
0.161349
0.161356
0.161364
0.161371
0.161379
0.161386
0.161393
0.161401
0.161408
0.161416
0.161423
0.16143
0.161438
0.161445
0.161453
0.16146
0.161468
0.161475
0.161482
0.16149
0.161497
0.161505
0.161512
0.16152
0.161527
0.161534
0.161542
0.161549
0.161557
0.161564
0.161572
0.161579
0.161587
0.161594
0.161601
0.161609
0.161616
0.161624
0.161631
0.161639
0.161646
0.161654
0.161661
0.161668
0.161676
0.161683
0.161691
0.161698
0.161706
0.161713
0.161721
0.161728
0.161735
0.161743
0.16175
0.161758
0.161765
0.161773
0.16178
0.161788
0.161795
0.161802
0.16181
0.161817
0.161825
0.161832
0.16184
0.161847
0.161855
0.161862
0.16187
0.161877
0.161884
0.161892
0.161899
0.161907
0.161914
0.161922
0.161929
0.161937
0.161944
0.161951
0.161959
0.161966
0.161974
0.161981
0.161989
0.161996
0.162004
0.162011
0.162019
0.162026
0.162033
0.162041
0.162048
0.162056
0.162063
0.162071
0.162078
0.162086
0.162093
0.1621
0.162108
0.162115
0.162123
0.16213
0.162138
0.162145
0.162153
0.16216
0.162168
0.162175
0.162182
0.16219
0.162197
0.162205
0.162212
0.16222
0.162227
0.162235
0.162242
0.162249
0.162257
0.162264
0.162272
0.162279
0.162287
0.162294
0.162302
0.162309
0.162317
0.162324
0.162331
0.162339
0.162346
0.162354
0.162361
0.162369
0.162376
0.162384
0.162391
0.162399
0.162406
0.162413
0.162421
0.162428
0.162436
0.162443
0.162451
0.162458
0.162466
0.162473
0.162481
0.162488
0.162496
0.162503
0.162511
0.162518
0.162526
0.162533
0.162541
0.162548
0.162556
0.162563
0.162571
0.162578
0.162586
0.162593
0.162601
0.162608
0.162616
0.162623
0.162631
0.162638
0.162646
0.162653
0.162661
0.162668
0.162676
0.162683
0.162691
0.162699
0.162706
0.162714
0.162721
0.162729
0.162736
0.162744
0.162751
0.162759
0.162767
0.162774
0.162782
0.162789
0.162797
0.162804
0.162812
0.16282
0.162827
0.162835
0.162842
0.16285
0.162858
0.162865
0.162873
0.16288
0.162888
0.162895
0.162903
0.162911
0.162918
0.162926
0.162934
0.162941
0.162949
0.162956
0.162964
0.162972
0.162979
0.162987
0.162994
0.163002
0.16301
0.163017
0.163025
0.163033
0.16304
0.163048
0.163055
0.163063
0.163071
0.163078
0.163086
0.163094
0.163101
0.163109
0.163117
0.163124
0.163132
0.16314
0.163147
0.163155
0.163162
0.16317
0.163178
0.163185
0.163193
0.163201
0.163208
0.163216
0.163224
0.163231
0.163239
0.163247
0.163254
0.163262
0.16327
0.163277
0.163285
0.163293
0.1633
0.163308
0.163315
0.163323
0.163331
0.163338
0.163346
0.163354
0.163361
0.163369
0.163377
0.163384
0.163392
0.1634
0.163407
0.163415
0.163423
0.16343
0.163438
0.163446
0.163453
0.163461
0.163469
0.163476
0.163484
0.163491
0.163499
0.163507
0.163514
0.163522
0.16353
0.163537
0.163545
0.163553
0.16356
0.163568
0.163576
0.163583
0.163591
0.163598
0.163606
0.163614
0.163621
0.163629
0.163637
0.163644
0.163652
0.163659
0.163667
0.163675
0.163682
0.16369
0.163698
0.163705
0.163713
0.16372
0.163728
0.163736
0.163743
0.163751
0.163759
0.163766
0.163774
0.163782
0.163789
0.163797
0.163804
0.163812
0.16382
0.163827
0.163835
0.163843
0.16385
0.163858
0.163865
0.163873
0.163881
0.163888
0.163896
0.163904
0.163911
0.163919
0.163927
0.163934
0.163942
0.16395
0.163957
0.163965
0.163973
0.16398
0.163988
0.163996
0.164003
0.164011
0.164019
0.164026
0.164034
0.164042
0.164049
0.164057
0.164065
0.164072
0.16408
0.164088
0.164095
0.164103
0.164111
0.164119
0.164126
0.164134
0.164142
0.164149
0.164157
0.164165
0.164173
0.16418
0.164188
0.164196
0.164203
0.164211
0.164219
0.164227
0.164234
0.164242
0.16425
0.164258
0.164265
0.164273
0.164281
0.164289
0.164296
0.164304
0.164312
0.164319
0.164327
0.164335
0.164343
0.16435
0.164358
0.164366
0.164374
0.164381
0.164389
0.164397
0.164405
0.164412
0.16442
0.164428
0.164436
0.164443
0.164451
0.164459
0.164466
0.164474
0.164482
0.16449
0.164497
0.164505
0.164513
0.164521
0.164528
0.164536
0.164544
0.164551
0.164559
0.164567
0.164575
0.164582
0.16459
0.164598
0.164605
0.164613
0.164621
0.164629
0.164636
0.164644
0.164652
0.164659
0.164667
0.164675
0.164683
0.16469
0.164698
0.164706
0.164713
0.164721
0.164729
0.164737
0.164744
0.164752
0.16476
0.164767
0.164775
0.164783
0.164791
0.164798
0.164806
0.164814
0.164822
0.164829
0.164837
0.164845
0.164852
0.16486
0.164868
0.164876
0.164883
0.164891
0.164899
0.164907
0.164914
0.164922
0.16493
0.164938
0.164945
0.164953
0.164961
0.164968
0.164976
0.164984
0.164992
0.164999
0.165007
0.165015
0.165023
0.16503
0.165038
0.165046
0.165054
0.165061
0.165069
0.165077
0.165085
0.165092
0.1651
0.165108
0.165116
0.165123
0.165131
0.165139
0.165147
0.165154
0.165162
0.16517
0.165178
0.165185
0.165193
0.165201
0.165208
0.165216
0.165224
0.165232
0.165239
0.165247
0.165255
0.165262
0.16527
0.165278
0.165286
0.165293
0.165301
0.165309
0.165316
0.165324
0.165332
0.16534
0.165347
0.165355
0.165363
0.16537
0.165378
0.165386
0.165393
0.165401
0.165409
0.165416
0.165424
0.165432
0.165439
0.165447
0.165455
0.165463
0.16547
0.165478
0.165486
0.165493
0.165501
0.165509
0.165516
0.165524
0.165532
0.165539
0.165547
0.165555
0.165562
0.16557
0.165578
0.165585
0.165593
0.165601
0.165609
0.165616
0.165624
0.165632
0.165639
0.165647
0.165655
0.165662
0.16567
0.165678
0.165686
0.165693
0.165701
0.165709
0.165716
0.165724
0.165732
0.16574
0.165747
0.165755
0.165763
0.165771
0.165778
0.165786
0.165794
0.165802
0.165809
0.165817
0.165825
0.165833
0.16584
0.165848
0.165856
0.165864
0.165871
0.165879
0.165887
0.165895
0.165902
0.16591
0.165918
0.165926
0.165933
0.165941
0.165949
0.165957
0.165965
0.165972
0.16598
0.165988
0.165996
0.166003
0.166011
0.166019
0.166027
0.166034
0.166042
0.16605
0.166058
0.166065
0.166073
0.166081
0.166089
0.166096
0.166104
0.166112
0.166119
0.166127
0.166135
0.166143
0.16615
0.166158
0.166166
0.166173
0.166181
0.166189
0.166196
0.166204
0.166212
0.16622
0.166227
0.166235
0.166243
0.16625
0.166258
0.166266
0.166273
0.166281
0.166289
0.166296
0.166304
0.166311
0.166319
0.166327
0.166334
0.166342
0.16635
0.166357
0.166365
0.166373
0.16638
0.166388
0.166395
0.166403
0.166411
0.166418
0.166426
0.166433
0.166441
0.166449
0.166456
0.166464
0.166472
0.166479
0.166487
0.166494
0.166502
0.16651
0.166517
0.166525
0.166532
0.16654
0.166548
0.166555
0.166563
0.166571
0.166578
0.166586
0.166594
0.166601
0.166609
0.166616
0.166624
0.166632
0.166639
0.166647
0.166655
0.166662
0.16667
0.166678
0.166685
0.166693
0.166701
0.166709
0.166716
0.166724
0.166732
0.166739
0.166747
0.166755
0.166763
0.16677
0.166778
0.166786
0.166793
0.166801
0.166809
0.166817
0.166825
0.166832
0.16684
0.166848
0.166856
0.166863
0.166871
0.166879
0.166887
0.166895
0.166902
0.16691
0.166918
0.166926
0.166934
0.166942
0.166949
0.166957
0.166965
0.166973
0.166981
0.166989
0.166997
0.167004
0.167012
0.16702
0.167028
0.167036
0.167044
0.167052
0.16706
0.167067
0.167075
0.167083
0.167091
0.167099
0.167107
0.167115
0.167123
0.167131
0.167139
0.167147
0.167154
0.167162
0.16717
0.167178
0.167186
0.167194
0.167202
0.16721
0.167218
0.167226
0.167234
0.167242
0.16725
0.167257
0.167265
0.167273
0.167281
0.167289
0.167297
0.167305
0.167313
0.167321
0.167329
0.167337
0.167345
0.167353
0.167361
0.167369
0.167377
0.167384
0.167392
0.1674
0.167408
0.167416
0.167424
0.167432
0.16744
0.167448
0.167456
0.167464
0.167472
0.16748
0.167488
0.167495
0.167503
0.167511
0.167519
0.167527
0.167535
0.167543
0.167551
0.167559
0.167567
0.167575
0.167583
0.16759
0.167598
0.167606
0.167614
0.167622
0.16763
0.167638
0.167646
0.167654
0.167662
0.167669
0.167677
0.167685
0.167693
0.167701
0.167709
0.167717
0.167725
0.167732
0.16774
0.167748
0.167756
0.167764
0.167772
0.167779
0.167787
0.167795
0.167803
0.167811
0.167819
0.167826
0.167834
0.167842
0.16785
0.167858
0.167865
0.167873
0.167881
0.167889
0.167897
0.167904
0.167912
0.16792
0.167928
0.167935
0.167943
0.167951
0.167959
0.167966
0.167974
0.167982
0.167989
0.167997
0.168005
0.168013
0.16802
0.168028
0.168036
0.168043
0.168051
0.168059
0.168066
0.168074
0.168082
0.168089
0.168097
0.168105
0.168112
0.16812
0.168128
0.168135
0.168143
0.168151
0.168158
0.168166
0.168174
0.168181
0.168189
0.168197
0.168204
0.168212
0.16822
0.168227
0.168235
0.168242
0.16825
0.168258
0.168265
0.168273
0.168281
0.168288
0.168296
0.168304
0.168311
0.168319
0.168327
0.168334
0.168342
0.168349
0.168357
0.168365
0.168372
0.16838
0.168388
0.168395
0.168403
0.168411
0.168418
0.168426
0.168434
0.168441
0.168449
0.168457
0.168465
0.168472
0.16848
0.168488
0.168495
0.168503
0.168511
0.168518
0.168526
0.168534
0.168542
0.168549
0.168557
0.168565
0.168573
0.16858
0.168588
0.168596
0.168604
0.168611
0.168619
0.168627
0.168635
0.168643
0.16865
0.168658
0.168666
0.168674
0.168682
0.168689
0.168697
0.168705
0.168713
0.168721
0.168729
0.168736
0.168744
0.168752
0.16876
0.168768
0.168776
0.168784
0.168791
0.168799
0.168807
0.168815
0.168823
0.168831
0.168839
0.168847
0.168854
0.168862
0.16887
0.168878
0.168886
0.168894
0.168902
0.16891
0.168918
0.168926
0.168933
0.168941
0.168949
0.168957
0.168965
0.168973
0.168981
0.168989
0.168997
0.169005
0.169012
0.16902
0.169028
0.169036
0.169044
0.169052
0.16906
0.169068
0.169076
0.169084
0.169091
0.169099
0.169107
0.169115
0.169123
0.169131
0.169139
0.169147
0.169155
0.169162
0.16917
0.169178
0.169186
0.169194
0.169202
0.16921
0.169217
0.169225
0.169233
0.169241
0.169249
0.169257
0.169265
0.169272
0.16928
0.169288
0.169296
0.169304
0.169312
0.169319
0.169327
0.169335
0.169343
0.169351
0.169359
0.169366
0.169374
0.169382
0.16939
0.169398
0.169405
0.169413
0.169421
0.169429
0.169437
0.169444
0.169452
0.16946
0.169468
0.169476
0.169483
0.169491
0.169499
0.169507
0.169515
0.169522
0.16953
0.169538
0.169546
0.169554
0.169561
0.169569
0.169577
0.169585
0.169593
0.1696
0.169608
0.169616
0.169624
0.169632
0.16964
0.169647
0.169655
0.169663
0.169671
0.169679
0.169686
0.169694
0.169702
0.16971
0.169718
0.169726
0.169733
0.169741
0.169749
0.169757
0.169765
0.169773
0.169781
0.169788
0.169796
0.169804
0.169812
0.16982
0.169828
0.169836
0.169844
0.169851
0.169859
0.169867
0.169875
0.169883
0.169891
0.169899
0.169907
0.169915
0.169923
0.169931
0.169938
0.169946
0.169954
0.169962
0.16997
0.169978
0.169986
0.169994
0.170002
0.17001
0.170018
0.170026
0.170034
0.170042
0.17005
0.170058
0.170066
0.170074
0.170082
0.17009
0.170098
0.170106
0.170114
0.170122
0.17013
0.170138
0.170146
0.170154
0.170162
0.17017
0.170178
0.170186
0.170194
0.170202
0.17021
0.170218
0.170226
0.170234
0.170242
0.17025
0.170258
0.170266
0.170274
0.170282
0.17029
0.170298
0.170306
0.170314
0.170322
0.17033
0.170338
0.170346
0.170354
0.170362
0.17037
0.170378
0.170386
0.170394
0.170402
0.17041
0.170418
0.170426
0.170434
0.170442
0.17045
0.170458
0.170466
0.170474
0.170482
0.17049
0.170498
0.170506
0.170514
0.170521
0.170529
0.170537
0.170545
0.170553
0.170561
0.170569
0.170577
0.170585
0.170593
0.170601
0.170609
0.170617
0.170625
0.170633
0.170641
0.170649
0.170656
0.170664
0.170672
0.17068
0.170688
0.170696
0.170704
0.170712
0.17072
0.170728
0.170735
0.170743
0.170751
0.170759
0.170767
0.170775
0.170783
0.170791
0.170798
0.170806
0.170814
0.170822
0.17083
0.170838
0.170846
0.170853
0.170861
0.170869
0.170877
0.170885
0.170893
0.1709
0.170908
0.170916
0.170924
0.170932
0.17094
0.170948
0.170955
0.170963
0.170971
0.170979
0.170987
0.170995
0.171002
0.17101
0.171018
0.171026
0.171034
0.171042
0.171049
0.171057
0.171065
0.171073
0.171081
0.171089
0.171097
0.171104
0.171112
0.17112
0.171128
0.171136
0.171144
0.171152
0.171159
0.171167
0.171175
0.171183
0.171191
0.171199
0.171207
0.171215
0.171222
0.17123
0.171238
0.171246
0.171254
0.171262
0.17127
0.171278
0.171286
0.171294
0.171302
0.17131
0.171317
0.171325
0.171333
0.171341
0.171349
0.171357
0.171365
0.171373
0.171381
0.171389
0.171397
0.171405
0.171413
0.171421
0.171429
0.171437
0.171445
0.171453
0.171461
0.171469
0.171477
0.171485
0.171493
0.171501
0.171509
0.171517
0.171525
0.171533
0.171541
0.171549
0.171557
0.171565
0.171573
0.171581
0.171589
0.171597
0.171605
0.171613
0.171621
0.171629
0.171637
0.171645
0.171653
0.171661
0.171669
0.171677
0.171685
0.171693
0.171701
0.171709
0.171718
0.171726
0.171734
0.171742
0.17175
0.171758
0.171766
0.171774
0.171782
0.17179
0.171798
0.171806
0.171814
0.171822
0.17183
0.171838
0.171846
0.171854
0.171862
0.17187
0.171878
0.171886
0.171894
0.171902
0.17191
0.171918
0.171926
0.171934
0.171942
0.17195
0.171958
0.171966
0.171974
0.171982
0.17199
0.171998
0.172005
0.172013
0.172021
0.172029
0.172037
0.172045
0.172053
0.172061
0.172069
0.172077
0.172085
0.172093
0.172101
0.172109
0.172117
0.172125
0.172133
0.172141
0.172149
0.172157
0.172165
0.172173
0.172181
0.172188
0.172196
0.172204
0.172212
0.17222
0.172228
0.172236
0.172244
0.172252
0.17226
0.172268
0.172276
0.172284
0.172292
0.1723
0.172308
0.172316
0.172324
0.172332
0.17234
0.172348
0.172356
0.172364
0.172372
0.17238
0.172388
0.172396
0.172404
0.172412
0.17242
0.172429
0.172437
0.172445
0.172453
0.172461
0.172469
0.172477
0.172485
0.172493
0.172501
0.172509
0.172517
0.172526
0.172534
0.172542
0.17255
0.172558
0.172566
0.172574
0.172582
0.172591
0.172599
0.172607
0.172615
0.172623
0.172631
0.17264
0.172648
0.172656
0.172664
0.172672
0.17268
0.172689
0.172697
0.172705
0.172713
0.172721
0.17273
0.172738
0.172746
0.172754
0.172762
0.172771
0.172779
0.172787
0.172795
0.172803
0.172812
0.17282
0.172828
0.172836
0.172845
0.172853
0.172861
0.172869
0.172877
0.172886
0.172894
0.172902
0.17291
0.172918
0.172927
0.172935
0.172943
0.172951
0.17296
0.172968
0.172976
0.172984
0.172992
0.173
0.173009
0.173017
0.173025
0.173033
0.173041
0.173049
0.173058
0.173066
0.173074
0.173082
0.17309
0.173098
0.173107
0.173115
0.173123
0.173131
0.173139
0.173147
0.173156
0.173164
0.173172
0.17318
0.173188
0.173196
0.173204
0.173212
0.17322
0.173228
0.173237
0.173245
0.173253
0.173261
0.173269
0.173277
0.173285
0.173293
0.173301
0.173309
0.173317
0.173325
0.173333
0.173341
0.173349
0.173357
0.173365
0.173374
0.173382
0.17339
0.173398
0.173406
0.173414
0.173422
0.17343
0.173438
0.173446
0.173454
0.173462
0.17347
0.173478
0.173486
0.173494
0.173502
0.17351
0.173518
0.173526
0.173534
0.173542
0.17355
0.173558
0.173566
0.173574
0.173582
0.17359
0.173598
0.173606
0.173614
0.173622
0.17363
0.173638
0.173646
0.173654
0.173662
0.17367
0.173678
0.173686
0.173694
0.173702
0.17371
0.173718
0.173726
0.173734
0.173742
0.17375
0.173758
0.173766
0.173774
0.173782
0.17379
0.173798
0.173806
0.173814
0.173822
0.17383
0.173838
0.173846
0.173854
0.173862
0.17387
0.173878
0.173886
0.173894
0.173902
0.17391
0.173918
0.173926
0.173935
0.173943
0.173951
0.173959
0.173967
0.173975
0.173983
0.173991
0.173999
0.174007
0.174015
0.174023
0.174031
0.174039
0.174047
0.174055
0.174063
0.174071
0.174079
0.174087
0.174095
0.174103
0.174111
0.174119
0.174127
0.174135
0.174143
0.174151
0.174159
0.174167
0.174175
0.174183
0.174191
0.174199
0.174207
0.174215
0.174223
0.174231
0.174239
0.174247
0.174255
0.174263
0.174271
0.174279
0.174287
0.174295
0.174303
0.174311
0.174319
0.174327
0.174335
0.174343
0.174351
0.174359
0.174367
0.174375
0.174383
0.174392
0.1744
0.174408
0.174416
0.174424
0.174432
0.17444
0.174448
0.174456
0.174464
0.174472
0.17448
0.174488
0.174496
0.174504
0.174513
0.174521
0.174529
0.174537
0.174545
0.174553
0.174561
0.174569
0.174578
0.174586
0.174594
0.174602
0.17461
0.174618
0.174627
0.174635
0.174643
0.174651
0.174659
0.174668
0.174676
0.174684
0.174692
0.174701
0.174709
0.174717
0.174725
0.174734
0.174742
0.17475
0.174758
0.174767
0.174775
0.174783
0.174792
0.1748
0.174808
0.174817
0.174825
0.174833
0.174842
0.17485
0.174859
0.174867
0.174875
0.174884
0.174892
0.1749
0.174909
0.174917
0.174926
0.174934
0.174943
0.174951
0.174959
0.174968
0.174976
0.174985
0.174993
0.175001
0.17501
0.175018
0.175027
0.175035
0.175044
0.175052
0.175061
0.175069
0.175078
0.175086
0.175095
0.175103
0.175112
0.17512
0.175129
0.175137
0.175146
0.175153
0.175163
0.17517
0.17518
0.175187
0.175197
0.175204
0.175214
0.175221
0.17523
0.175238
0.175247
0.175255
0.175264
0.175271
0.175281
0.175288
0.175298
0.175305
0.175315
0.175322
0.175331
0.175339
0.175348
0.175355
0.175365
0.175372
0.175382
0.175389
0.175398
0.175405
0.175415
0.175422
0.175431
0.175439
0.175448
0.175455
0.175465
0.175472
0.175481
0.175488
0.175498
0.175505
0.175514
0.175521
0.17553
0.175538
0.175547
0.175554
0.175563
0.17557
0.17558
0.175587
0.175596
0.175603
0.175612
0.175619
0.175628
0.175636
0.175645
0.175652
0.175661
0.175668
0.175677
0.175684
0.175693
0.1757
0.175709
0.175716
0.175726
0.175733
0.175742
0.175749
0.175758
0.175765
0.175774
0.175781
0.17579
0.175797
0.175806
0.175813
0.175822
0.175829
0.175838
0.175845
0.175854
0.175861
0.17587
0.175877
0.175886
0.175893
0.175902
0.175909
0.175918
0.175925
0.175934
0.175941
0.17595
0.175957
0.175966
0.175973
0.175982
0.175989
0.175997
0.176005
0.176013
0.176021
0.176029
0.176037
0.176045
0.176053
0.176061
0.176069
0.176077
0.176085
0.176093
0.176101
0.176109
0.176117
0.176126
0.176134
0.176142
0.17615
0.176158
0.176166
0.176174
0.176182
0.17619
0.176198
0.176206
0.176214
0.176222
0.17623
0.176238
0.176247
0.176255
0.176263
0.176271
0.176279
0.176287
0.176295
0.176303
0.176312
0.17632
0.176328
0.176336
0.176344
0.176352
0.176361
0.176369
0.176377
0.176385
0.176393
0.176401
0.17641
0.176418
0.176426
0.176434
0.176443
0.176451
0.176459
0.176467
0.176476
0.176484
0.176492
0.1765
0.176509
0.176517
0.176525
0.176533
0.176542
0.17655
0.176558
0.176567
0.176575
0.176583
0.176592
0.1766
0.176608
0.176617
0.176625
0.176633
0.176642
0.17665
0.176658
0.176667
0.176675
0.176683
0.176692
0.1767
0.176708
0.176717
0.176725
0.176734
0.176742
0.17675
0.176759
0.176767
0.176776
0.176784
0.176792
0.176801
0.176809
0.176818
0.176826
0.176835
0.176843
0.176851
0.17686
0.176868
0.176877
0.176885
0.176894
0.176902
0.176911
0.176919
0.176928
0.176936
0.176945
0.176953
0.176961
0.17697
0.176978
0.176987
0.176995
0.177004
0.177012
0.177021
0.177029
0.177038
0.177046
0.177055
0.177063
0.177072
0.17708
0.177089
0.177097
0.177106
0.177114
0.177123
0.177131
0.17714
0.177148
0.177157
0.177165
0.177174
0.177182
0.177191
0.177199
0.177208
0.177216
0.177225
0.177233
0.177242
0.17725
0.177259
0.177267
0.177276
0.177284
0.177293
0.177301
0.17731
0.177318
0.177327
0.177335
0.177344
0.177352
0.177361
0.177369
0.177378
0.177386
0.177395
0.177403
0.177412
0.17742
0.177429
0.177437
0.177445
0.177454
0.177462
0.177471
0.177479
0.177487
0.177496
0.177504
0.177513
0.177521
0.177529
0.177538
0.177546
0.177555
0.177563
0.177571
0.17758
0.177588
0.177596
0.177605
0.177613
0.177621
0.17763
0.177638
0.177646
0.177655
0.177663
0.177671
0.177679
0.177688
0.177696
0.177704
0.177712
0.177721
0.177729
0.177737
0.177745
0.177754
0.177762
0.17777
0.177778
0.177786
0.177795
0.177803
0.177811
0.177819
0.177827
0.177835
0.177844
0.177852
0.17786
0.177868
0.177876
0.177884
0.177892
0.1779
0.177908
0.177917
0.177925
0.177933
0.177941
0.177949
0.177957
0.177965
0.177973
0.177981
0.177989
0.177997
0.178005
0.178013
0.178021
0.178029
0.178038
0.178046
0.178054
0.178062
0.17807
0.178078
0.178086
0.178094
0.178102
0.17811
0.178118
0.178126
0.178134
0.178142
0.17815
0.178158
0.178166
0.178174
0.178182
0.17819
0.178198
0.178206
0.178214
0.178222
0.17823
0.178238
0.178246
0.178254
0.178262
0.178271
0.178279
0.178287
0.178295
0.178303
0.178311
0.178319
0.178327
0.178335
0.178343
0.178351
0.178359
0.178368
0.178376
0.178384
0.178392
0.1784
0.178408
0.178416
0.178424
0.178433
0.178441
0.178449
0.178457
0.178465
0.178474
0.178482
0.17849
0.178498
0.178506
0.178515
0.178523
0.178531
0.178539
0.178548
0.178556
0.178564
0.178573
0.178581
0.178589
0.178598
0.178606
0.178614
0.178623
0.178631
0.178639
0.178648
0.178656
0.178665
0.178673
0.178681
0.17869
0.178698
0.178707
0.178715
0.178724
0.178732
0.178741
0.178749
0.178758
0.178766
0.178775
0.178783
0.178792
0.1788
0.178809
0.178817
0.178826
0.178834
0.178843
0.178852
0.17886
0.178869
0.178877
0.178886
0.178895
0.178903
0.178912
0.178921
0.178929
0.178938
0.178946
0.178955
0.178964
0.178973
0.178981
0.17899
0.178999
0.179007
0.179016
0.179025
0.179033
0.179042
0.179051
0.17906
0.179068
0.179077
0.179086
0.179095
0.179103
0.179112
0.179121
0.17913
0.179138
0.179147
0.179156
0.179165
0.179173
0.179182
0.179191
0.1792
0.179208
0.179217
0.179226
0.179235
0.179243
0.179252
0.179261
0.17927
0.179278
0.179287
0.179296
0.179305
0.179313
0.179322
0.179331
0.179339
0.179348
0.179357
0.179366
0.179374
0.179383
0.179392
0.1794
0.179409
0.179418
0.179426
0.179435
0.179444
0.179452
0.179461
0.17947
0.179478
0.179487
0.179496
0.179504
0.179513
0.179521
0.17953
0.179539
0.179547
0.179556
0.179564
0.179573
0.179581
0.17959
0.179599
0.179607
0.179616
0.179624
0.179633
0.179641
0.17965
0.179658
0.179666
0.179675
0.179683
0.179692
0.1797
0.179709
0.179717
0.179726
0.179734
0.179742
0.179751
0.179759
0.179767
0.179776
0.179784
0.179792
0.179801
0.179809
0.179817
0.179826
0.179834
0.179842
0.179851
0.179859
0.179867
0.179875
0.179884
0.179892
0.1799
0.179908
0.179917
0.179925
0.179933
0.179941
0.179949
0.179958
0.179966
0.179974
0.179982
0.17999
0.179999
0.180007
0.180015
0.180023
0.180031
0.180039
0.180048
0.180056
0.180064
0.180072
0.18008
0.180088
0.180096
0.180104
0.180113
0.180121
0.180129
0.180137
0.180145
0.180153
0.180161
0.180169
0.180178
0.180186
0.180194
0.180202
0.18021
0.180218
0.180226
0.180234
0.180243
0.180251
0.180259
0.180267
0.180275
0.180283
0.180291
0.1803
0.180308
0.180316
0.180324
0.180332
0.18034
0.180349
0.180357
0.180365
0.180373
0.180381
0.180389
0.180398
0.180406
0.180414
0.180422
0.180431
0.180439
0.180447
0.180455
0.180464
0.180472
0.18048
0.180488
0.180497
0.180505
0.180513
0.180522
0.18053
0.180538
0.180547
0.180555
0.180563
0.180572
0.18058
0.180588
0.180597
0.180605
0.180613
0.180622
0.18063
0.180639
0.180647
0.180656
0.180664
0.180672
0.180681
0.180689
0.180698
0.180706
0.180715
0.180723
0.180732
0.18074
0.180749
0.180757
0.180766
0.180775
0.180783
0.180792
0.1808
0.180809
0.180817
0.180826
0.180835
0.180843
0.180852
0.180861
0.180869
0.180878
0.180886
0.180895
0.180904
0.180912
0.180921
0.18093
0.180938
0.180947
0.180956
0.180965
0.180973
0.180982
0.180991
0.180999
0.181008
0.181017
0.181026
0.181034
0.181043
0.181052
0.181061
0.181069
0.181078
0.181087
0.181096
0.181104
0.181113
0.181122
0.181131
0.181139
0.181148
0.181157
0.181166
0.181175
0.181183
0.181192
0.181201
0.18121
0.181218
0.181227
0.181236
0.181245
0.181254
0.181262
0.181271
0.18128
0.181289
0.181297
0.181306
0.181315
0.181324
0.181332
0.181341
0.18135
0.181359
0.181367
0.181376
0.181385
0.181394
0.181402
0.181411
0.18142
0.181429
0.181437
0.181446
0.181455
0.181463
0.181472
0.181481
0.181489
0.181498
0.181507
0.181515
0.181524
0.181533
0.181541
0.18155
0.181559
0.181567
0.181576
0.181584
0.181593
0.181602
0.18161
0.181619
0.181627
0.181636