/*--------------------------------*- C++ -*----------------------------------*\
  =========                 |
  \\      /  F ield         | OpenFOAM: The Open Source CFD Toolbox
   \\    /   O peration     | Website:  https://openfoam.org
    \\  /    A nd           | Version:  9
     \\/     M anipulation  |
\*---------------------------------------------------------------------------*/
FoamFile
{
    format      ascii;
    class       volVectorField;
    location    "0.047";
    object      U;
}
// * * * * * * * * * * * * * * * * * * * * * * * * * * * * * * * * * * * * * //

dimensions      [0 1 -1 0 0 0 0];

internalField   nonuniform List<vector> 
100
(
(230.693 0 0)
(233.462 0 0)
(235.087 0 0)
(236.84 0 0)
(238.562 0 0)
(240.291 0 0)
(242.018 0 0)
(243.746 0 0)
(245.473 0 0)
(247.2 0 0)
(248.927 0 0)
(250.653 0 0)
(252.379 0 0)
(254.105 0 0)
(255.831 0 0)
(257.556 0 0)
(259.281 0 0)
(261.006 0 0)
(262.73 0 0)
(264.454 0 0)
(266.177 0 0)
(267.9 0 0)
(269.622 0 0)
(271.343 0 0)
(273.064 0 0)
(274.785 0 0)
(276.504 0 0)
(278.223 0 0)
(279.941 0 0)
(281.658 0 0)
(283.373 0 0)
(285.087 0 0)
(286.798 0 0)
(288.506 0 0)
(290.206 0 0)
(291.894 0 0)
(293.558 0 0)
(295.183 0 0)
(296.734 0 0)
(298.168 0 0)
(299.409 0 0)
(300.387 0 0)
(301.062 0 0)
(301.468 0 0)
(301.694 0 0)
(301.838 0 0)
(301.972 0 0)
(302.11 0 0)
(302.199 0 0)
(302.212 0 0)
(302.171 0 0)
(302.1 0 0)
(302.019 0 0)
(301.947 0 0)
(301.903 0 0)
(301.877 0 0)
(301.838 0 0)
(301.776 0 0)
(301.686 0 0)
(301.576 0 0)
(301.474 0 0)
(301.395 0 0)
(301.347 0 0)
(301.325 0 0)
(301.285 0 0)
(301.23 0 0)
(301.147 0 0)
(301.05 0 0)
(300.953 0 0)
(300.872 0 0)
(300.815 0 0)
(300.777 0 0)
(300.736 0 0)
(300.683 0 0)
(300.608 0 0)
(300.511 0 0)
(300.398 0 0)
(300.286 0 0)
(300.192 0 0)
(300.143 0 0)
(300.147 0 0)
(300.131 0 0)
(300.042 0 0)
(299.766 0 0)
(298.538 0 0)
(295.873 0 0)
(293.961 0 0)
(292.803 0 0)
(291.602 0 0)
(289.831 0 0)
(288.362 0 0)
(287.643 0 0)
(287.334 0 0)
(287.168 0 0)
(287.041 0 0)
(286.98 0 0)
(286.915 0 0)
(286.842 0 0)
(286.763 0 0)
(286.648 0 0)
)
;

boundaryField
{
    sides
    {
        type            zeroGradient;
    }
    empty
    {
        type            empty;
    }
}


// ************************************************************************* //
