/*--------------------------------*- C++ -*----------------------------------*\
  =========                 |
  \\      /  F ield         | OpenFOAM: The Open Source CFD Toolbox
   \\    /   O peration     | Website:  https://openfoam.org
    \\  /    A nd           | Version:  9
     \\/     M anipulation  |
\*---------------------------------------------------------------------------*/
FoamFile
{
    format      ascii;
    class       volScalarField;
    location    "0.043";
    object      T;
}
// * * * * * * * * * * * * * * * * * * * * * * * * * * * * * * * * * * * * * //

dimensions      [0 0 0 1 0 0 0];

internalField   nonuniform List<scalar> 
10000
(
179.485
179.486
179.488
179.49
179.492
179.495
179.497
179.499
179.501
179.503
179.505
179.507
179.509
179.511
179.513
179.515
179.517
179.519
179.521
179.523
179.525
179.527
179.529
179.531
179.533
179.535
179.537
179.539
179.541
179.543
179.545
179.547
179.549
179.551
179.553
179.555
179.557
179.559
179.561
179.563
179.565
179.567
179.569
179.571
179.573
179.575
179.577
179.579
179.581
179.583
179.585
179.587
179.589
179.591
179.593
179.595
179.597
179.599
179.601
179.603
179.605
179.607
179.609
179.611
179.613
179.615
179.617
179.619
179.621
179.622
179.624
179.626
179.628
179.63
179.632
179.634
179.636
179.638
179.64
179.642
179.644
179.646
179.648
179.65
179.652
179.654
179.656
179.658
179.659
179.661
179.663
179.665
179.667
179.669
179.671
179.673
179.675
179.677
179.679
179.681
179.683
179.684
179.686
179.688
179.69
179.692
179.694
179.696
179.698
179.7
179.702
179.703
179.705
179.707
179.709
179.711
179.713
179.715
179.717
179.719
179.721
179.723
179.725
179.726
179.728
179.73
179.731
179.733
179.735
179.737
179.739
179.741
179.743
179.745
179.747
179.749
179.751
179.752
179.754
179.756
179.758
179.759
179.761
179.762
179.764
179.765
179.767
179.768
179.77
179.772
179.774
179.776
179.778
179.78
179.782
179.784
179.786
179.788
179.79
179.792
179.794
179.796
179.798
179.8
179.801
179.803
179.804
179.805
179.806
179.807
179.807
179.808
179.808
179.809
179.809
179.809
179.809
179.809
179.809
179.809
179.809
179.809
179.809
179.809
179.809
179.809
179.809
179.809
179.809
179.808
179.808
179.808
179.807
179.807
179.807
179.806
179.806
179.806
179.805
179.805
179.805
179.804
179.804
179.804
179.803
179.803
179.803
179.802
179.802
179.802
179.801
179.801
179.801
179.8
179.8
179.8
179.799
179.799
179.799
179.798
179.798
179.798
179.797
179.797
179.797
179.796
179.796
179.796
179.795
179.795
179.795
179.794
179.794
179.794
179.794
179.793
179.793
179.793
179.792
179.792
179.792
179.791
179.791
179.791
179.79
179.79
179.79
179.789
179.789
179.789
179.788
179.788
179.788
179.787
179.787
179.787
179.786
179.786
179.786
179.785
179.785
179.785
179.784
179.784
179.784
179.783
179.783
179.783
179.782
179.782
179.782
179.781
179.781
179.781
179.78
179.78
179.78
179.779
179.779
179.779
179.778
179.778
179.778
179.777
179.777
179.777
179.776
179.776
179.776
179.776
179.775
179.775
179.775
179.774
179.774
179.774
179.773
179.773
179.773
179.772
179.772
179.772
179.771
179.771
179.771
179.77
179.77
179.77
179.769
179.769
179.769
179.768
179.768
179.768
179.767
179.767
179.767
179.766
179.766
179.766
179.765
179.765
179.765
179.764
179.764
179.764
179.763
179.763
179.763
179.762
179.762
179.762
179.761
179.761
179.761
179.76
179.76
179.76
179.759
179.759
179.759
179.758
179.758
179.758
179.758
179.757
179.757
179.757
179.756
179.756
179.756
179.755
179.755
179.755
179.754
179.754
179.754
179.753
179.753
179.753
179.752
179.752
179.752
179.751
179.751
179.751
179.75
179.75
179.75
179.749
179.749
179.749
179.748
179.748
179.748
179.747
179.747
179.747
179.746
179.746
179.746
179.745
179.745
179.745
179.744
179.744
179.744
179.743
179.743
179.743
179.742
179.742
179.742
179.742
179.741
179.741
179.741
179.74
179.74
179.74
179.739
179.739
179.739
179.738
179.738
179.738
179.737
179.737
179.737
179.736
179.736
179.736
179.735
179.735
179.735
179.734
179.734
179.734
179.733
179.733
179.733
179.732
179.732
179.732
179.731
179.731
179.731
179.73
179.73
179.73
179.729
179.729
179.729
179.728
179.728
179.728
179.727
179.727
179.727
179.727
179.726
179.726
179.726
179.725
179.725
179.725
179.724
179.724
179.724
179.723
179.723
179.723
179.722
179.722
179.722
179.721
179.721
179.721
179.72
179.72
179.72
179.719
179.719
179.719
179.718
179.718
179.718
179.717
179.717
179.717
179.716
179.716
179.716
179.715
179.715
179.715
179.714
179.714
179.714
179.713
179.713
179.713
179.713
179.712
179.712
179.712
179.711
179.711
179.711
179.71
179.71
179.71
179.709
179.709
179.709
179.708
179.708
179.708
179.707
179.707
179.707
179.706
179.706
179.706
179.705
179.705
179.705
179.704
179.704
179.704
179.703
179.703
179.703
179.702
179.702
179.702
179.702
179.701
179.701
179.7
179.7
179.7
179.7
179.699
179.699
179.698
179.698
179.698
179.698
179.697
179.697
179.697
179.696
179.696
179.696
179.695
179.695
179.695
179.694
179.694
179.694
179.693
179.693
179.693
179.692
179.692
179.692
179.691
179.691
179.691
179.69
179.69
179.69
179.689
179.689
179.689
179.689
179.688
179.688
179.688
179.687
179.687
179.687
179.686
179.686
179.686
179.685
179.685
179.685
179.684
179.684
179.684
179.683
179.683
179.683
179.682
179.682
179.682
179.681
179.681
179.681
179.68
179.68
179.68
179.679
179.679
179.679
179.678
179.678
179.678
179.678
179.677
179.677
179.677
179.676
179.676
179.676
179.675
179.675
179.675
179.674
179.674
179.674
179.673
179.673
179.673
179.672
179.672
179.672
179.671
179.671
179.671
179.67
179.67
179.67
179.669
179.669
179.669
179.668
179.668
179.668
179.668
179.667
179.667
179.667
179.666
179.666
179.666
179.665
179.665
179.665
179.664
179.664
179.664
179.663
179.663
179.663
179.662
179.662
179.662
179.661
179.661
179.661
179.66
179.66
179.66
179.659
179.659
179.659
179.659
179.658
179.658
179.658
179.657
179.657
179.657
179.656
179.656
179.656
179.655
179.655
179.655
179.654
179.654
179.654
179.653
179.653
179.653
179.652
179.652
179.652
179.651
179.651
179.651
179.651
179.65
179.65
179.65
179.649
179.649
179.649
179.648
179.648
179.648
179.647
179.647
179.647
179.646
179.646
179.646
179.645
179.645
179.645
179.644
179.644
179.644
179.643
179.643
179.643
179.643
179.642
179.642
179.642
179.641
179.641
179.641
179.64
179.64
179.64
179.639
179.639
179.639
179.638
179.638
179.638
179.637
179.637
179.637
179.636
179.636
179.636
179.636
179.635
179.635
179.635
179.634
179.634
179.634
179.633
179.633
179.633
179.632
179.632
179.632
179.631
179.631
179.631
179.63
179.63
179.63
179.629
179.629
179.629
179.629
179.628
179.628
179.628
179.627
179.627
179.627
179.626
179.626
179.626
179.625
179.625
179.625
179.624
179.624
179.624
179.623
179.623
179.623
179.623
179.622
179.622
179.622
179.621
179.621
179.621
179.62
179.62
179.62
179.619
179.619
179.619
179.618
179.618
179.618
179.618
179.617
179.617
179.617
179.616
179.616
179.616
179.615
179.615
179.615
179.614
179.614
179.614
179.613
179.613
179.613
179.612
179.612
179.612
179.612
179.611
179.611
179.611
179.61
179.61
179.61
179.609
179.609
179.609
179.608
179.608
179.608
179.607
179.607
179.607
179.607
179.606
179.606
179.606
179.605
179.605
179.605
179.604
179.604
179.604
179.603
179.603
179.603
179.603
179.602
179.602
179.602
179.601
179.601
179.601
179.6
179.6
179.6
179.599
179.599
179.599
179.598
179.598
179.598
179.598
179.597
179.597
179.597
179.596
179.596
179.596
179.595
179.595
179.595
179.594
179.594
179.594
179.594
179.593
179.593
179.593
179.592
179.592
179.592
179.591
179.591
179.591
179.59
179.59
179.59
179.59
179.589
179.589
179.589
179.588
179.588
179.588
179.587
179.587
179.587
179.586
179.586
179.586
179.586
179.585
179.585
179.585
179.584
179.584
179.584
179.583
179.583
179.583
179.582
179.582
179.582
179.582
179.581
179.581
179.581
179.58
179.58
179.58
179.579
179.579
179.579
179.579
179.578
179.578
179.578
179.577
179.577
179.577
179.576
179.576
179.576
179.575
179.575
179.575
179.575
179.574
179.574
179.574
179.573
179.573
179.573
179.572
179.572
179.572
179.572
179.571
179.571
179.571
179.57
179.57
179.57
179.569
179.569
179.569
179.569
179.568
179.568
179.568
179.567
179.567
179.567
179.566
179.566
179.566
179.566
179.565
179.565
179.565
179.564
179.564
179.564
179.563
179.563
179.563
179.563
179.562
179.562
179.562
179.561
179.561
179.561
179.561
179.56
179.56
179.56
179.559
179.559
179.559
179.558
179.558
179.558
179.558
179.557
179.557
179.557
179.556
179.556
179.556
179.555
179.555
179.555
179.555
179.554
179.554
179.554
179.553
179.553
179.553
179.553
179.552
179.552
179.552
179.551
179.551
179.551
179.551
179.55
179.55
179.55
179.549
179.549
179.549
179.548
179.548
179.548
179.548
179.547
179.547
179.547
179.546
179.546
179.546
179.546
179.545
179.545
179.545
179.544
179.544
179.544
179.544
179.543
179.543
179.543
179.542
179.542
179.542
179.542
179.541
179.541
179.541
179.54
179.54
179.54
179.54
179.539
179.539
179.539
179.538
179.538
179.538
179.538
179.537
179.537
179.537
179.536
179.536
179.536
179.536
179.535
179.535
179.535
179.534
179.534
179.534
179.534
179.533
179.533
179.533
179.532
179.532
179.532
179.532
179.531
179.531
179.531
179.531
179.53
179.53
179.53
179.529
179.529
179.529
179.529
179.528
179.528
179.528
179.527
179.527
179.527
179.527
179.526
179.526
179.526
179.526
179.525
179.525
179.525
179.524
179.524
179.524
179.524
179.523
179.523
179.523
179.523
179.522
179.522
179.522
179.521
179.521
179.521
179.521
179.52
179.52
179.52
179.52
179.519
179.519
179.519
179.518
179.518
179.518
179.518
179.517
179.517
179.517
179.517
179.516
179.516
179.516
179.516
179.515
179.515
179.515
179.514
179.514
179.514
179.514
179.513
179.513
179.513
179.513
179.512
179.512
179.512
179.512
179.511
179.511
179.511
179.51
179.51
179.51
179.51
179.509
179.509
179.509
179.509
179.508
179.508
179.508
179.508
179.507
179.507
179.507
179.507
179.506
179.506
179.506
179.506
179.505
179.505
179.505
179.505
179.504
179.504
179.504
179.504
179.503
179.503
179.503
179.503
179.502
179.502
179.502
179.502
179.501
179.501
179.501
179.501
179.5
179.5
179.5
179.5
179.499
179.499
179.499
179.499
179.498
179.498
179.498
179.498
179.497
179.497
179.497
179.497
179.496
179.496
179.496
179.496
179.495
179.495
179.495
179.495
179.494
179.494
179.494
179.494
179.493
179.493
179.493
179.493
179.492
179.492
179.492
179.492
179.492
179.491
179.491
179.491
179.491
179.49
179.49
179.49
179.49
179.489
179.489
179.489
179.489
179.488
179.488
179.488
179.488
179.488
179.487
179.487
179.487
179.487
179.486
179.486
179.486
179.486
179.486
179.485
179.485
179.485
179.485
179.484
179.484
179.484
179.484
179.484
179.483
179.483
179.483
179.483
179.482
179.482
179.482
179.482
179.482
179.481
179.481
179.481
179.481
179.48
179.48
179.48
179.48
179.48
179.479
179.479
179.479
179.479
179.479
179.478
179.478
179.478
179.478
179.477
179.477
179.477
179.477
179.477
179.476
179.476
179.476
179.476
179.476
179.475
179.475
179.475
179.475
179.475
179.474
179.474
179.474
179.474
179.474
179.473
179.473
179.473
179.473
179.473
179.472
179.472
179.472
179.472
179.472
179.471
179.471
179.471
179.471
179.471
179.471
179.47
179.47
179.47
179.47
179.47
179.469
179.469
179.469
179.469
179.469
179.468
179.468
179.468
179.468
179.468
179.468
179.467
179.467
179.467
179.467
179.467
179.467
179.466
179.466
179.466
179.466
179.466
179.465
179.465
179.465
179.465
179.465
179.465
179.464
179.464
179.464
179.464
179.464
179.464
179.464
179.463
179.463
179.463
179.463
179.463
179.463
179.462
179.462
179.462
179.462
179.462
179.462
179.461
179.461
179.461
179.461
179.461
179.461
179.461
179.46
179.46
179.46
179.46
179.46
179.46
179.46
179.459
179.459
179.459
179.459
179.459
179.459
179.459
179.458
179.458
179.458
179.458
179.458
179.458
179.458
179.458
179.457
179.457
179.457
179.457
179.457
179.457
179.457
179.457
179.456
179.456
179.456
179.456
179.456
179.456
179.456
179.456
179.455
179.455
179.455
179.455
179.455
179.455
179.455
179.455
179.455
179.454
179.454
179.454
179.454
179.454
179.454
179.454
179.454
179.454
179.454
179.453
179.453
179.453
179.453
179.453
179.453
179.453
179.453
179.453
179.453
179.453
179.453
179.452
179.452
179.452
179.452
179.452
179.452
179.452
179.452
179.452
179.452
179.452
179.452
179.452
179.451
179.451
179.451
179.451
179.451
179.451
179.451
179.451
179.451
179.451
179.451
179.451
179.451
179.451
179.451
179.451
179.451
179.451
179.45
179.45
179.45
179.45
179.45
179.45
179.45
179.45
179.45
179.45
179.45
179.45
179.45
179.45
179.45
179.45
179.45
179.45
179.45
179.45
179.45
179.45
179.45
179.45
179.45
179.45
179.45
179.45
179.45
179.45
179.45
179.45
179.45
179.45
179.45
179.45
179.45
179.45
179.45
179.45
179.45
179.45
179.45
179.45
179.45
179.45
179.45
179.45
179.45
179.45
179.45
179.45
179.45
179.45
179.45
179.45
179.45
179.45
179.451
179.451
179.451
179.451
179.451
179.451
179.451
179.451
179.451
179.451
179.451
179.451
179.451
179.451
179.451
179.451
179.452
179.452
179.452
179.452
179.452
179.452
179.452
179.452
179.452
179.452
179.452
179.453
179.453
179.453
179.453
179.453
179.453
179.453
179.453
179.453
179.454
179.454
179.454
179.454
179.454
179.454
179.454
179.454
179.455
179.455
179.455
179.455
179.455
179.455
179.456
179.456
179.456
179.456
179.456
179.456
179.456
179.457
179.457
179.457
179.457
179.457
179.458
179.458
179.458
179.458
179.458
179.458
179.459
179.459
179.459
179.459
179.46
179.46
179.46
179.46
179.46
179.461
179.461
179.461
179.461
179.462
179.462
179.462
179.462
179.463
179.463
179.463
179.463
179.464
179.464
179.464
179.464
179.465
179.465
179.465
179.465
179.466
179.466
179.466
179.467
179.467
179.467
179.467
179.468
179.468
179.468
179.469
179.469
179.469
179.47
179.47
179.47
179.471
179.471
179.471
179.472
179.472
179.472
179.473
179.473
179.474
179.474
179.474
179.475
179.475
179.475
179.476
179.476
179.477
179.477
179.477
179.478
179.478
179.479
179.479
179.479
179.48
179.48
179.481
179.481
179.482
179.482
179.483
179.483
179.483
179.484
179.484
179.485
179.485
179.486
179.486
179.487
179.487
179.488
179.488
179.489
179.489
179.49
179.49
179.491
179.491
179.492
179.493
179.493
179.494
179.494
179.495
179.495
179.496
179.496
179.497
179.498
179.498
179.499
179.499
179.5
179.501
179.501
179.502
179.502
179.503
179.504
179.504
179.505
179.506
179.506
179.507
179.508
179.508
179.509
179.51
179.51
179.511
179.512
179.512
179.513
179.514
179.515
179.515
179.516
179.517
179.518
179.518
179.519
179.52
179.521
179.521
179.522
179.523
179.524
179.525
179.525
179.526
179.527
179.528
179.529
179.529
179.53
179.531
179.532
179.533
179.534
179.535
179.536
179.536
179.537
179.538
179.539
179.54
179.541
179.542
179.543
179.544
179.545
179.546
179.547
179.548
179.549
179.55
179.551
179.552
179.553
179.554
179.555
179.556
179.557
179.558
179.559
179.56
179.561
179.562
179.563
179.564
179.565
179.566
179.567
179.569
179.57
179.571
179.572
179.573
179.574
179.575
179.577
179.578
179.579
179.58
179.581
179.583
179.584
179.585
179.586
179.588
179.589
179.59
179.591
179.593
179.594
179.595
179.597
179.598
179.599
179.6
179.602
179.603
179.605
179.606
179.607
179.609
179.61
179.611
179.613
179.614
179.616
179.617
179.619
179.62
179.622
179.623
179.625
179.626
179.628
179.629
179.631
179.632
179.634
179.635
179.637
179.638
179.64
179.642
179.643
179.645
179.646
179.648
179.65
179.651
179.653
179.655
179.656
179.658
179.66
179.661
179.663
179.665
179.667
179.668
179.67
179.672
179.674
179.675
179.677
179.679
179.681
179.683
179.685
179.686
179.688
179.69
179.692
179.694
179.696
179.698
179.7
179.702
179.704
179.706
179.708
179.71
179.712
179.714
179.716
179.718
179.72
179.722
179.724
179.726
179.728
179.73
179.732
179.734
179.736
179.738
179.741
179.743
179.745
179.747
179.749
179.751
179.754
179.756
179.758
179.76
179.763
179.765
179.767
179.769
179.772
179.774
179.776
179.779
179.781
179.783
179.786
179.788
179.791
179.793
179.795
179.798
179.8
179.803
179.805
179.808
179.81
179.812
179.815
179.817
179.82
179.822
179.825
179.828
179.83
179.833
179.835
179.838
179.84
179.843
179.846
179.848
179.851
179.854
179.856
179.859
179.862
179.864
179.867
179.87
179.872
179.875
179.878
179.881
179.883
179.886
179.889
179.892
179.895
179.897
179.9
179.903
179.906
179.909
179.912
179.914
179.917
179.92
179.923
179.926
179.929
179.932
179.935
179.938
179.941
179.944
179.947
179.95
179.953
179.956
179.959
179.962
179.965
179.968
179.971
179.974
179.977
179.98
179.983
179.986
179.989
179.992
179.995
179.998
180.002
180.005
180.008
180.011
180.014
180.017
180.02
180.024
180.027
180.03
180.033
180.036
180.04
180.043
180.046
180.049
180.052
180.056
180.059
180.062
180.066
180.069
180.072
180.075
180.079
180.082
180.085
180.089
180.092
180.095
180.099
180.102
180.105
180.109
180.112
180.115
180.119
180.122
180.125
180.129
180.132
180.136
180.139
180.142
180.146
180.149
180.153
180.156
180.159
180.163
180.166
180.17
180.173
180.177
180.18
180.184
180.187
180.19
180.194
180.197
180.201
180.204
180.208
180.211
180.215
180.218
180.222
180.225
180.229
180.232
180.236
180.239
180.243
180.247
180.25
180.254
180.257
180.261
180.264
180.268
180.271
180.275
180.278
180.282
180.286
180.289
180.293
180.296
180.3
180.303
180.307
180.311
180.314
180.318
180.321
180.325
180.329
180.332
180.336
180.339
180.343
180.347
180.35
180.354
180.357
180.361
180.365
180.368
180.372
180.375
180.379
180.383
180.386
180.39
180.394
180.397
180.401
180.404
180.408
180.412
180.415
180.419
180.423
180.426
180.43
180.434
180.437
180.441
180.445
180.448
180.452
180.455
180.459
180.463
180.466
180.47
180.474
180.477
180.481
180.485
180.488
180.492
180.496
180.499
180.503
180.507
180.51
180.514
180.518
180.521
180.525
180.529
180.532
180.536
180.54
180.543
180.547
180.551
180.554
180.558
180.562
180.566
180.569
180.573
180.577
180.58
180.584
180.588
180.591
180.595
180.599
180.602
180.606
180.61
180.613
180.617
180.621
180.624
180.628
180.632
180.636
180.639
180.643
180.647
180.65
180.654
180.658
180.661
180.665
180.669
180.672
180.676
180.68
180.684
180.687
180.691
180.695
180.698
180.702
180.706
180.709
180.713
180.717
180.721
180.724
180.728
180.732
180.735
180.739
180.743
180.746
180.75
180.754
180.758
180.761
180.765
180.769
180.772
180.776
180.78
180.783
180.787
180.791
180.795
180.798
180.802
180.806
180.809
180.813
180.817
180.82
180.824
180.828
180.832
180.835
180.839
180.843
180.846
180.85
180.854
180.857
180.861
180.865
180.869
180.872
180.876
180.88
180.883
180.887
180.891
180.895
180.898
180.902
180.906
180.909
180.913
180.917
180.921
180.924
180.928
180.932
180.935
180.939
180.943
180.946
180.95
180.954
180.958
180.961
180.965
180.969
180.972
180.976
180.98
180.984
180.987
180.991
180.995
180.998
181.002
181.006
181.01
181.013
181.017
181.021
181.024
181.028
181.032
181.036
181.039
181.043
181.047
181.05
181.054
181.058
181.062
181.065
181.069
181.073
181.076
181.08
181.084
181.087
181.091
181.095
181.099
181.102
181.106
181.11
181.113
181.117
181.121
181.125
181.128
181.132
181.136
181.14
181.143
181.147
181.151
181.154
181.158
181.162
181.166
181.169
181.173
181.177
181.18
181.184
181.188
181.192
181.195
181.199
181.203
181.206
181.21
181.214
181.218
181.221
181.225
181.229
181.232
181.236
181.24
181.244
181.247
181.251
181.255
181.258
181.262
181.266
181.27
181.273
181.277
181.281
181.284
181.288
181.292
181.296
181.299
181.303
181.307
181.311
181.314
181.318
181.322
181.325
181.329
181.333
181.337
181.34
181.344
181.348
181.351
181.355
181.359
181.363
181.366
181.37
181.374
181.378
181.381
181.385
181.389
181.392
181.396
181.4
181.404
181.407
181.411
181.415
181.418
181.422
181.426
181.43
181.433
181.437
181.441
181.445
181.448
181.452
181.456
181.459
181.463
181.467
181.471
181.474
181.478
181.482
181.486
181.489
181.493
181.497
181.5
181.504
181.508
181.512
181.515
181.519
181.523
181.527
181.53
181.534
181.538
181.541
181.545
181.549
181.553
181.556
181.56
181.564
181.568
181.571
181.575
181.579
181.582
181.586
181.59
181.594
181.597
181.601
181.605
181.609
181.612
181.616
181.62
181.624
181.627
181.631
181.635
181.638
181.642
181.646
181.65
181.653
181.657
181.661
181.664
181.668
181.672
181.676
181.679
181.683
181.687
181.691
181.694
181.698
181.702
181.706
181.709
181.713
181.717
181.721
181.724
181.728
181.732
181.736
181.739
181.743
181.747
181.75
181.754
181.758
181.761
181.765
181.769
181.773
181.776
181.78
181.784
181.788
181.791
181.795
181.799
181.803
181.806
181.81
181.814
181.818
181.821
181.825
181.829
181.833
181.836
181.84
181.844
181.848
181.851
181.855
181.859
181.863
181.866
181.87
181.873
181.878
181.881
181.885
181.888
181.893
181.896
181.9
181.903
181.908
181.911
181.915
181.918
181.923
181.926
181.93
181.933
181.937
181.941
181.945
181.948
181.952
181.956
181.96
181.963
181.967
181.971
181.975
181.978
181.982
181.986
181.99
181.993
181.997
182.001
182.005
182.008
182.012
182.016
182.02
182.023
182.027
182.03
182.035
182.038
182.042
182.045
182.05
182.053
182.057
182.06
182.065
182.068
182.072
182.075
182.08
182.083
182.087
182.09
182.095
182.098
182.102
182.105
182.11
182.113
182.117
182.12
182.125
182.128
182.132
182.135
182.14
182.143
182.147
182.15
182.155
182.158
182.162
182.165
182.17
182.173
182.177
182.18
182.185
182.188
182.192
182.195
182.2
182.203
182.207
182.21
182.215
182.218
182.222
182.225
182.23
182.233
182.237
182.24
182.245
182.248
182.252
182.255
182.26
182.263
182.267
182.27
182.275
182.277
182.282
182.285
182.29
182.292
182.297
182.3
182.305
182.307
182.312
182.315
182.32
182.322
182.327
182.33
182.335
182.338
182.342
182.345
182.35
182.353
182.357
182.36
182.365
182.368
182.372
182.375
182.38
182.383
182.387
182.39
182.395
182.398
182.402
182.405
182.41
182.413
182.417
182.42
182.425
182.428
182.432
182.436
182.44
182.443
182.447
182.451
182.454
182.458
182.462
182.466
182.469
182.473
182.477
182.481
182.484
182.488
182.492
182.496
182.5
182.503
182.507
182.511
182.515
182.518
182.522
182.526
182.53
182.533
182.537
182.541
182.545
182.548
182.552
182.556
182.56
182.563
182.567
182.571
182.575
182.578
182.582
182.586
182.59
182.593
182.597
182.601
182.605
182.609
182.612
182.616
182.62
182.624
182.627
182.631
182.635
182.639
182.642
182.646
182.65
182.654
182.657
182.661
182.665
182.669
182.672
182.676
182.68
182.684
182.687
182.691
182.695
182.699
182.703
182.706
182.71
182.714
182.718
182.721
182.725
182.729
182.733
182.736
182.74
182.744
182.748
182.751
182.755
182.759
182.763
182.767
182.77
182.774
182.778
182.782
182.785
182.789
182.793
182.797
182.8
182.804
182.808
182.812
182.815
182.819
182.823
182.827
182.831
182.834
182.838
182.842
182.846
182.849
182.853
182.857
182.861
182.864
182.868
182.872
182.876
182.88
182.883
182.887
182.891
182.895
182.898
182.902
182.906
182.91
182.913
182.917
182.921
182.925
182.929
182.932
182.936
182.94
182.944
182.947
182.951
182.955
182.959
182.962
182.966
182.97
182.974
182.978
182.981
182.985
182.989
182.993
182.996
183
183.004
183.008
183.011
183.015
183.019
183.023
183.027
183.03
183.034
183.038
183.042
183.045
183.049
183.053
183.057
183.061
183.064
183.068
183.072
183.076
183.079
183.083
183.087
183.091
183.094
183.098
183.102
183.106
183.11
183.113
183.117
183.121
183.125
183.128
183.132
183.136
183.14
183.144
183.147
183.151
183.155
183.159
183.162
183.166
183.17
183.174
183.178
183.181
183.185
183.189
183.193
183.196
183.2
183.204
183.208
183.212
183.215
183.219
183.223
183.227
183.23
183.234
183.238
183.242
183.246
183.249
183.253
183.257
183.261
183.264
183.268
183.272
183.276
183.28
183.283
183.287
183.291
183.295
183.298
183.302
183.306
183.31
183.314
183.317
183.321
183.325
183.329
183.332
183.336
183.34
183.344
183.348
183.351
183.355
183.359
183.363
183.367
183.37
183.374
183.378
183.382
183.385
183.389
183.393
183.397
183.401
183.404
183.408
183.412
183.416
183.419
183.423
183.427
183.431
183.435
183.438
183.442
183.446
183.45
183.454
183.457
183.461
183.465
183.469
183.472
183.476
183.48
183.484
183.488
183.491
183.495
183.499
183.503
183.507
183.51
183.514
183.518
183.522
183.525
183.529
183.533
183.537
183.541
183.544
183.548
183.552
183.556
183.56
183.563
183.567
183.571
183.575
183.578
183.582
183.586
183.59
183.594
183.597
183.601
183.605
183.609
183.613
183.616
183.62
183.624
183.628
183.632
183.635
183.639
183.643
183.647
183.65
183.654
183.658
183.662
183.666
183.669
183.673
183.677
183.681
183.685
183.688
183.692
183.696
183.7
183.704
183.707
183.711
183.715
183.719
183.723
183.726
183.73
183.734
183.738
183.742
183.745
183.749
183.753
183.757
183.76
183.764
183.768
183.772
183.776
183.779
183.783
183.787
183.791
183.795
183.798
183.802
183.806
183.81
183.814
183.817
183.821
183.825
183.829
183.833
183.836
183.84
183.844
183.848
183.852
183.855
183.859
183.863
183.867
183.871
183.874
183.878
183.882
183.886
183.89
183.893
183.897
183.901
183.905
183.909
183.912
183.916
183.92
183.924
183.928
183.931
183.935
183.939
183.943
183.947
183.95
183.954
183.958
183.962
183.965
183.969
183.973
183.977
183.981
183.984
183.988
183.992
183.996
184
184.004
184.007
184.011
184.015
184.019
184.023
184.026
184.03
184.034
184.038
184.042
184.045
184.049
184.053
184.057
184.061
184.064
184.068
184.072
184.076
184.08
184.083
184.087
184.091
184.095
184.099
184.102
184.106
184.11
184.114
184.118
184.121
184.125
184.129
184.133
184.137
184.14
184.144
184.148
184.152
184.156
184.159
184.163
184.167
184.171
184.175
184.178
184.182
184.186
184.19
184.194
184.197
184.201
184.205
184.209
184.213
184.217
184.22
184.224
184.228
184.232
184.236
184.239
184.243
184.247
184.251
184.255
184.258
184.262
184.266
184.27
184.274
184.277
184.281
184.285
184.289
184.293
184.297
184.3
184.304
184.308
184.312
184.316
184.319
184.323
184.327
184.331
184.335
184.338
184.342
184.346
184.35
184.354
184.357
184.361
184.365
184.369
184.373
184.377
184.38
184.384
184.388
184.392
184.396
184.399
184.403
184.407
184.411
184.415
184.418
184.422
184.426
184.43
184.434
184.438
184.441
184.445
184.449
184.453
184.457
184.46
184.464
184.468
184.472
184.476
184.48
184.483
184.487
184.491
184.495
184.499
184.502
184.506
184.51
184.514
184.518
184.521
184.525
184.529
184.533
184.537
184.541
184.544
184.548
184.552
184.556
184.56
184.563
184.567
184.571
184.575
184.579
184.583
184.586
184.59
184.594
184.598
184.602
184.605
184.609
184.613
184.617
184.621
184.625
184.628
184.632
184.636
184.64
184.644
184.647
184.651
184.655
184.659
184.663
184.667
184.67
184.674
184.678
184.682
184.686
184.689
184.693
184.697
184.701
184.705
184.709
184.712
184.716
184.72
184.724
184.728
184.732
184.735
184.739
184.743
184.747
184.751
184.754
184.758
184.762
184.766
184.77
184.774
184.777
184.781
184.785
184.789
184.793
184.797
184.8
184.804
184.808
184.812
184.816
184.82
184.823
184.827
184.831
184.835
184.838
184.843
184.846
184.85
184.854
184.858
184.861
184.866
184.869
184.873
184.876
184.881
184.884
184.889
184.892
184.896
184.899
184.904
184.907
184.912
184.915
184.92
184.922
184.927
184.93
184.935
184.937
184.943
184.945
184.95
184.953
184.958
184.96
184.966
184.968
184.973
184.976
184.981
184.983
184.988
184.991
184.996
184.999
185.004
185.006
185.011
185.014
185.019
185.022
185.027
185.029
185.034
185.037
185.042
185.045
185.05
185.052
185.057
185.06
185.065
185.068
185.073
185.075
185.08
185.083
185.088
185.091
185.096
185.098
185.103
185.106
185.111
185.114
185.119
185.121
185.126
185.129
185.134
185.137
185.142
185.144
185.149
185.152
185.157
185.16
185.165
185.167
185.172
185.175
185.18
185.183
185.188
185.19
185.195
185.198
185.203
185.206
185.211
185.213
185.218
185.221
185.226
185.229
185.234
185.236
185.241
185.244
185.249
185.252
185.257
185.259
185.264
185.267
185.272
185.275
185.279
185.283
185.287
185.291
185.295
185.298
185.302
185.306
185.31
185.314
185.317
185.322
185.325
185.329
185.332
185.337
185.34
185.345
185.348
185.353
185.355
185.36
185.363
185.368
185.371
185.376
185.378
185.383
185.386
185.391
185.394
185.399
185.401
185.407
185.409
185.414
185.417
185.422
185.424
185.43
185.432
185.437
185.44
185.445
185.447
185.453
185.455
185.46
185.463
185.468
185.471
185.476
185.478
185.483
185.486
185.491
185.494
185.499
185.501
185.506
185.509
185.514
185.517
185.522
185.524
185.529
185.532
185.537
185.54
185.545
185.547
185.553
185.555
185.56
185.563
185.568
185.57
185.576
185.578
185.583
185.586
185.591
185.594
185.599
185.601
185.606
185.609
185.614
185.617
185.622
185.624
185.629
185.632
185.637
185.64
185.645
185.647
185.653
185.655
185.66
185.663
185.668
185.671
185.676
185.678
185.683
185.686
185.691
185.694
185.699
185.701
185.706
185.709
185.714
185.717
185.722
185.724
185.73
185.732
185.737
185.74
185.745
185.748
185.753
185.755
185.76
185.763
185.768
185.771
185.776
185.778
185.783
185.786
185.791
185.794
185.799
185.801
185.807
185.809
185.814
185.817
185.822
185.825
185.83
185.832
185.837
185.84
185.845
185.848
185.853
185.855
185.861
185.863
185.868
185.871
185.876
185.878
185.884
185.886
185.891
185.894
185.899
185.902
185.907
185.909
185.914
185.917
185.922
185.925
185.93
185.932
185.938
185.94
185.945
185.948
185.953
185.956
185.961
185.963
185.968
185.971
185.976
185.979
185.984
185.986
185.992
185.994
185.999
186.002
186.007
186.01
186.015
186.017
186.022
186.025
186.03
186.033
186.038
186.04
186.046
186.048
186.053
186.056
186.061
186.064
186.069
186.071
186.076
186.079
186.084
186.087
186.092
186.095
186.1
186.102
186.107
186.11
186.115
186.118
186.123
186.125
186.131
186.133
186.138
186.141
186.146
186.149
186.154
186.156
186.161
186.164
186.169
186.172
186.177
186.179
186.185
186.187
186.192
186.195
186.2
186.203
186.208
186.21
186.216
186.218
186.223
186.226
186.231
186.234
186.239
186.241
186.246
186.249
186.254
186.257
186.262
186.264
186.27
186.272
186.277
186.28
186.285
186.288
186.293
186.295
186.301
186.303
186.308
186.311
186.316
186.319
186.324
186.326
186.331
186.334
186.339
186.342
186.347
186.35
186.355
186.357
186.362
186.365
186.37
186.373
186.378
186.38
186.386
186.388
186.393
186.396
186.401
186.404
186.409
186.411
186.417
186.419
186.424
186.427
186.432
186.435
186.44
186.442
186.448
186.45
186.455
186.458
186.463
186.466
186.471
186.473
186.479
186.481
186.486
186.489
186.494