/*--------------------------------*- C++ -*----------------------------------*\
  =========                 |
  \\      /  F ield         | OpenFOAM: The Open Source CFD Toolbox
   \\    /   O peration     | Website:  https://openfoam.org
    \\  /    A nd           | Version:  9
     \\/     M anipulation  |
\*---------------------------------------------------------------------------*/
FoamFile
{
    format      ascii;
    class       surfaceScalarField;
    location    "0.034";
    object      phi;
}
// * * * * * * * * * * * * * * * * * * * * * * * * * * * * * * * * * * * * * //

dimensions      [1 0 -1 0 0 0 0];

internalField   nonuniform List<scalar> 
99
(
62.663
66.5786
70.4659
74.3401
78.1929
82.018
85.8138
89.5946
93.3556
97.1029
100.861
104.608
108.334
112.072
115.8
119.485
123.154
126.839
130.506
134.116
137.695
141.291
144.897
148.458
151.952
155.417
158.903
162.413
165.876
169.274
172.624
175.946
179.313
182.686
185.994
189.265
192.499
195.761
199.041
202.308
205.544
208.756
211.923
215.059
218.15
221.235
224.298
227.331
230.352
233.357
236.34
239.346
242.384
245.402
248.384
251.361
254.367
257.417
260.512
263.615
266.678
269.728
272.842
276.052
279.325
282.589
285.803
288.991
292.226
295.575
299.043
302.548
305.998
309.396
312.82
316.326
319.929
323.619
327.343
331.049
334.734
338.456
342.242
346.117
350.05
354.053
358.067
362.119
366.152
370.233
374.324
378.484
382.689
386.913
391.139
395.314
399.428
403.486
407.524
)
;

boundaryField
{
    sides
    {
        type            calculated;
        value           nonuniform List<scalar> 2(411.616 -58.7309);
    }
    empty
    {
        type            empty;
        value           nonuniform List<scalar> 0();
    }
}


// ************************************************************************* //
