/*--------------------------------*- C++ -*----------------------------------*\
  =========                 |
  \\      /  F ield         | OpenFOAM: The Open Source CFD Toolbox
   \\    /   O peration     | Website:  https://openfoam.org
    \\  /    A nd           | Version:  9
     \\/     M anipulation  |
\*---------------------------------------------------------------------------*/
FoamFile
{
    format      ascii;
    class       volScalarField;
    location    "0.034";
    object      T;
}
// * * * * * * * * * * * * * * * * * * * * * * * * * * * * * * * * * * * * * //

dimensions      [0 0 0 1 0 0 0];

internalField   nonuniform List<scalar> 
100
(
219.956
219.812
219.675
219.528
219.438
219.34
219.291
219.24
219.168
219.122
219.032
218.857
218.746
218.595
218.374
218.211
218.103
217.934
217.712
217.556
217.479
217.366
217.171
216.981
216.881
216.838
216.767
216.611
216.447
216.36
216.339
216.333
216.3
216.195
216.137
216.139
216.162
216.186
216.186
216.174
216.176
216.195
216.257
216.359
216.527
216.695
216.84
217.035
217.268
217.508
217.799
218.113
218.388
218.667
219.012
219.404
219.806
220.201
220.576
220.941
221.355
221.843
222.334
222.769
223.156
223.549
224.008
224.54
225.092
225.602
226.034
226.422
226.865
227.405
227.983
228.537
229.049
229.52
229.965
230.451
230.982
231.554
232.082
232.619
233.077
233.591
234.003
234.557
234.966
235.592
235.977
236.634
236.967
237.606
237.948
238.644
239.057
239.955
240.36
241.388
)
;

boundaryField
{
    sides
    {
        type            zeroGradient;
    }
    empty
    {
        type            empty;
    }
}


// ************************************************************************* //
