/*--------------------------------*- C++ -*----------------------------------*\
  =========                 |
  \\      /  F ield         | OpenFOAM: The Open Source CFD Toolbox
   \\    /   O peration     | Website:  https://openfoam.org
    \\  /    A nd           | Version:  9
     \\/     M anipulation  |
\*---------------------------------------------------------------------------*/
FoamFile
{
    format      ascii;
    class       volScalarField;
    location    "0.036";
    object      mag(U);
}
// * * * * * * * * * * * * * * * * * * * * * * * * * * * * * * * * * * * * * //

dimensions      [0 1 -1 0 0 0 0];

internalField   nonuniform List<scalar> 
10000
(
5.27957
5.32115
5.36721
5.4051
5.43936
5.47382
5.50906
5.54457
5.58003
5.61541
5.65078
5.68616
5.72154
5.75692
5.7923
5.82769
5.86307
5.89845
5.93383
5.96922
6.0046
6.03998
6.07537
6.11075
6.14613
6.18152
6.2169
6.25229
6.28767
6.32305
6.35844
6.39382
6.42921
6.46459
6.49998
6.53537
6.57075
6.60614
6.64152
6.67691
6.71229
6.74768
6.78307
6.81846
6.85384
6.88923
6.92462
6.96
6.99539
7.03078
7.06617
7.10156
7.13695
7.17234
7.20772
7.24311
7.2785
7.31389
7.34928
7.38467
7.42006
7.45545
7.49084
7.52623
7.56162
7.59701
7.6324
7.66779
7.70318
7.73858
7.77397
7.80936
7.84475
7.88014
7.91554
7.95093
7.98632
8.02172
8.05711
8.0925
8.1279
8.16329
8.19868
8.23407
8.26947
8.30486
8.34025
8.37565
8.41104
8.44644
8.48183
8.51723
8.55263
8.58802
8.62342
8.65882
8.69421
8.72961
8.76501
8.80041
8.8358
8.8712
8.9066
8.942
8.97739
9.01279
9.04819
9.08359
9.11899
9.15438
9.18978
9.22518
9.26058
9.29598
9.33138
9.36678
9.40218
9.43758
9.47298
9.50838
9.54378
9.57918
9.61458
9.64998
9.68538
9.72078
9.75618
9.79158
9.82698
9.86238
9.89779
9.93319
9.96859
10.004
10.0394
10.0748
10.1102
10.1456
10.181
10.2164
10.2518
10.2872
10.3226
10.358
10.3934
10.4288
10.4642
10.4996
10.535
10.5705
10.6059
10.6413
10.6767
10.7121
10.7475
10.7829
10.8183
10.8537
10.8891
10.9245
10.9599
10.9953
11.0307
11.0661
11.1015
11.137
11.1724
11.2078
11.2432
11.2786
11.314
11.3494
11.3848
11.4202
11.4556
11.491
11.5264
11.5619
11.5973
11.6327
11.6681
11.7035
11.7389
11.7743
11.8097
11.8451
11.8806
11.916
11.9514
11.9868
12.0222
12.0576
12.093
12.1284
12.1638
12.1993
12.2347
12.2701
12.3055
12.3409
12.3763
12.4117
12.4472
12.4826
12.518
12.5534
12.5888
12.6242
12.6596
12.6951
12.7305
12.7659
12.8013
12.8367
12.8721
12.9075
12.943
12.9784
13.0138
13.0492
13.0846
13.12
13.1555
13.1909
13.2263
13.2617
13.2971
13.3325
13.368
13.4034
13.4388
13.4742
13.5096
13.5451
13.5805
13.6159
13.6513
13.6867
13.7222
13.7576
13.793
13.8284
13.8638
13.8993
13.9347
13.9701
14.0055
14.0409
14.0764
14.1118
14.1472
14.1826
14.218
14.2535
14.2889
14.3243
14.3597
14.3952
14.4306
14.466
14.5014
14.5369
14.5723
14.6077
14.6431
14.6786
14.714
14.7494
14.7848
14.8202
14.8557
14.8911
14.9265
14.9619
14.9974
15.0328
15.0682
15.1037
15.1391
15.1745
15.2099
15.2454
15.2808
15.3162
15.3516
15.3871
15.4225
15.4579
15.4934
15.5288
15.5642
15.5996
15.6351
15.6705
15.7059
15.7414
15.7768
15.8122
15.8476
15.8831
15.9185
15.9539
15.9894
16.0248
16.0602
16.0956
16.1311
16.1665
16.2019
16.2374
16.2728
16.3082
16.3437
16.3791
16.4145
16.45
16.4854
16.5208
16.5563
16.5917
16.6271
16.6626
16.698
16.7334
16.7689
16.8043
16.8397
16.8752
16.9106
16.946
16.9815
17.0169
17.0523
17.0878
17.1232
17.1586
17.1941
17.2295
17.2649
17.3004
17.3358
17.3713
17.4067
17.4421
17.4776
17.513
17.5484
17.5839
17.6193
17.6548
17.6902
17.7256
17.7611
17.7965
17.8319
17.8674
17.9028
17.9383
17.9737
18.0091
18.0446
18.08
18.1155
18.1509
18.1863
18.2218
18.2572
18.2927
18.3281
18.3635
18.399
18.4344
18.4699
18.5053
18.5407
18.5762
18.6116
18.6471
18.6825
18.718
18.7534
18.7888
18.8243
18.8597
18.8952
18.9306
18.9661
19.0015
19.0369
19.0724
19.1078
19.1433
19.1787
19.2142
19.2496
19.2851
19.3205
19.356
19.3914
19.4268
19.4623
19.4977
19.5332
19.5686
19.6041
19.6395
19.675
19.7104
19.7459
19.7813
19.8168
19.8522
19.8876
19.9231
19.9585
19.994
20.0294
20.0649
20.1003
20.1358
20.1712
20.2067
20.2421
20.2776
20.313
20.3485
20.3839
20.4194
20.4548
20.4903
20.5257
20.5612
20.5966
20.6321
20.6675
20.703
20.7384
20.7739
20.8093
20.8448
20.8802
20.9157
20.9511
20.9866
21.0221
21.0575
21.093
21.1284
21.1639
21.1993
21.2348
21.2702
21.3057
21.3411
21.3766
21.412
21.4475
21.483
21.5184
21.5539
21.5893
21.6248
21.6602
21.6957
21.7311
21.7666
21.8021
21.8375
21.873
21.9084
21.9439
21.9793
22.0148
22.0502
22.0857
22.1212
22.1566
22.1921
22.2275
22.263
22.2985
22.3339
22.3694
22.4048
22.4403
22.4757
22.5112
22.5467
22.5821
22.6176
22.653
22.6885
22.724
22.7594
22.7949
22.8303
22.8658
22.9013
22.9367
22.9722
23.0076
23.0431
23.0786
23.114
23.1495
23.185
23.2204
23.2559
23.2913
23.3268
23.3623
23.3977
23.4332
23.4687
23.5041
23.5396
23.575
23.6105
23.646
23.6814
23.7169
23.7524
23.7878
23.8233
23.8588
23.8942
23.9297
23.9652
24.0006
24.0361
24.0716
24.107
24.1425
24.178
24.2134
24.2489
24.2844
24.3198
24.3553
24.3908
24.4262
24.4617
24.4972
24.5326
24.5681
24.6036
24.639
24.6745
24.71
24.7454
24.7809
24.8164
24.8518
24.8873
24.9228
24.9582
24.9937
25.0292
25.0647
25.1001
25.1356
25.1711
25.2065
25.242
25.2775
25.3129
25.3484
25.3839
25.4194
25.4548
25.4903
25.5258
25.5612
25.5967
25.6322
25.6677
25.7031
25.7386
25.7741
25.8096
25.845
25.8805
25.916
25.9515
25.9869
26.0224
26.0579
26.0933
26.1288
26.1643
26.1998
26.2352
26.2707
26.3062
26.3417
26.3771
26.4126
26.4481
26.4836
26.519
26.5545
26.59
26.6255
26.661
26.6964
26.7319
26.7674
26.8029
26.8383
26.8738
26.9093
26.9448
26.9803
27.0157
27.0512
27.0867
27.1222
27.1576
27.1931
27.2286
27.2641
27.2996
27.335
27.3705
27.406
27.4415
27.477
27.5124
27.5479
27.5834
27.6189
27.6544
27.6898
27.7253
27.7608
27.7963
27.8318
27.8672
27.9027
27.9382
27.9737
28.0092
28.0447
28.0801
28.1156
28.1511
28.1866
28.2221
28.2576
28.293
28.3285
28.364
28.3995
28.435
28.4705
28.5059
28.5414
28.5769
28.6124
28.6479
28.6834
28.7188
28.7543
28.7898
28.8253
28.8608
28.8963
28.9318
28.9672
29.0027
29.0382
29.0737
29.1092
29.1447
29.1802
29.2157
29.2511
29.2866
29.3221
29.3576
29.3931
29.4286
29.4641
29.4996
29.535
29.5705
29.606
29.6415
29.677
29.7125
29.748
29.7835
29.819
29.8544
29.8899
29.9254
29.9609
29.9964
30.0319
30.0674
30.1029
30.1384
30.1739
30.2093
30.2448
30.2803
30.3158
30.3513
30.3868
30.4223
30.4578
30.4933
30.5288
30.5643
30.5998
30.6352
30.6707
30.7062
30.7417
30.7772
30.8127
30.8482
30.8837
30.9192
30.9547
30.9902
31.0257
31.0612
31.0967
31.1322
31.1677
31.2032
31.2386
31.2741
31.3096
31.3451
31.3806
31.4161
31.4516
31.4871
31.5226
31.5581
31.5936
31.6291
31.6646
31.7001
31.7356
31.7711
31.8066
31.8421
31.8776
31.9131
31.9486
31.9841
32.0196
32.0551
32.0906
32.1261
32.1616
32.1971
32.2326
32.2681
32.3036
32.3391
32.3746
32.4101
32.4456
32.4811
32.5166
32.5521
32.5876
32.6231
32.6586
32.6941
32.7296
32.7651
32.8006
32.8361
32.8716
32.9071
32.9426
32.9781
33.0136
33.0491
33.0846
33.1201
33.1556
33.1911
33.2266
33.2621
33.2976
33.3331
33.3686
33.4041
33.4396
33.4751
33.5106
33.5461
33.5816
33.6171
33.6526
33.6881
33.7236
33.7592
33.7947
33.8302
33.8657
33.9012
33.9367
33.9722
34.0077
34.0432
34.0787
34.1142
34.1497
34.1852
34.2207
34.2562
34.2917
34.3272
34.3628
34.3983
34.4338
34.4693
34.5048
34.5403
34.5758
34.6113
34.6468
34.6823
34.7178
34.7533
34.7889
34.8244
34.8599
34.8954
34.9309
34.9664
35.0019
35.0374
35.0729
35.1084
35.1439
35.1795
35.215
35.2505
35.286
35.3215
35.357
35.3925
35.428
35.4635
35.4991
35.5346
35.5701
35.6056
35.6411
35.6766
35.7121
35.7476
35.7832
35.8187
35.8542
35.8897
35.9252
35.9607
35.9962
36.0317
36.0673
36.1028
36.1383
36.1738
36.2093
36.2448
36.2803
36.3159
36.3514
36.3869
36.4224
36.4579
36.4934
36.5289
36.5645
36.6
36.6355
36.671
36.7065
36.742
36.7776
36.8131
36.8486
36.8841
36.9196
36.9551
36.9907
37.0262
37.0617
37.0972
37.1327
37.1682
37.2038
37.2393
37.2748
37.3103
37.3458
37.3813
37.4169
37.4524
37.4879
37.5234
37.5589
37.5945
37.63
37.6655
37.701
37.7365
37.7721
37.8076
37.8431
37.8786
37.9141
37.9497
37.9852
38.0207
38.0562
38.0917
38.1273
38.1628
38.1983
38.2338
38.2693
38.3049
38.3404
38.3759
38.4114
38.447
38.4825
38.518
38.5535
38.589
38.6246
38.6601
38.6956
38.7311
38.7667
38.8022
38.8377
38.8732
38.9088
38.9443
38.9798
39.0153
39.0509
39.0864
39.1219
39.1574
39.193
39.2285
39.264
39.2995
39.3351
39.3706
39.4061
39.4416
39.4772
39.5127
39.5482
39.5837
39.6193
39.6548
39.6903
39.7258
39.7614
39.7969
39.8324
39.8679
39.9035
39.939
39.9745
40.0101
40.0456
40.0811
40.1166
40.1522
40.1877
40.2232
40.2588
40.2943
40.3298
40.3653
40.4009
40.4364
40.4719
40.5075
40.543
40.5785
40.614
40.6496
40.6851
40.7206
40.7562
40.7917
40.8272
40.8628
40.8983
40.9338
40.9693
41.0049
41.0404
41.0759
41.1115
41.147
41.1825
41.2181
41.2536
41.2891
41.3247
41.3602
41.3957
41.4313
41.4668
41.5023
41.5379
41.5734
41.6089
41.6445
41.68
41.7155
41.7511
41.7866
41.8221
41.8577
41.8932
41.9287
41.9643
41.9998
42.0353
42.0709
42.1064
42.1419
42.1775
42.213
42.2485
42.2841
42.3196
42.3552
42.3907
42.4262
42.4618
42.4973
42.5328
42.5684
42.6039
42.6394
42.675
42.7105
42.7461
42.7816
42.8171
42.8527
42.8882
42.9237
42.9593
42.9948
43.0303
43.0659
43.1014
43.137
43.1725
43.208
43.2436
43.2791
43.3147
43.3502
43.3857
43.4213
43.4568
43.4924
43.5279
43.5634
43.599
43.6345
43.6701
43.7056
43.7411
43.7767
43.8122
43.8478
43.8833
43.9188
43.9544
43.9899
44.0255
44.061
44.0965
44.1321
44.1676
44.2032
44.2387
44.2742
44.3098
44.3453
44.3809
44.4164
44.452
44.4875
44.523
44.5586
44.5941
44.6297
44.6652
44.7008
44.7363
44.7718
44.8074
44.8429
44.8785
44.914
44.9496
44.9851
45.0207
45.0562
45.0917
45.1273
45.1628
45.1984
45.2339
45.2695
45.305
45.3406
45.3761
45.4116
45.4472
45.4827
45.5183
45.5538
45.5894
45.6249
45.6605
45.696
45.7316
45.7671
45.8027
45.8382
45.8737
45.9093
45.9448
45.9804
46.0159
46.0515
46.087
46.1226
46.1581
46.1937
46.2292
46.2648
46.3003
46.3359
46.3714
46.407
46.4425
46.4781
46.5136
46.5492
46.5847
46.6203
46.6558
46.6914
46.7269
46.7625
46.798
46.8336
46.8691
46.9047
46.9402
46.9758
47.0113
47.0469
47.0824
47.118
47.1535
47.1891
47.2246
47.2602
47.2957
47.3313
47.3668
47.4024
47.4379
47.4735
47.509
47.5446
47.5801
47.6157
47.6512
47.6868
47.7223
47.7579
47.7934
47.829
47.8645
47.9001
47.9357
47.9712
48.0068
48.0423
48.0779
48.1134
48.149
48.1845
48.2201
48.2556
48.2912
48.3267
48.3623
48.3979
48.4334
48.469
48.5045
48.5401
48.5756
48.6112
48.6467
48.6823
48.7178
48.7534
48.789
48.8245
48.8601
48.8956
48.9312
48.9667
49.0023
49.0378
49.0734
49.109
49.1445
49.1801
49.2156
49.2512
49.2867
49.3223
49.3579
49.3934
49.429
49.4645
49.5001
49.5356
49.5712
49.6068
49.6423
49.6779
49.7134
49.749
49.7846
49.8201
49.8557
49.8912
49.9268
49.9623
49.9979
50.0335
50.069
50.1046
50.1401
50.1757
50.2113
50.2468
50.2824
50.3179
50.3535
50.3891
50.4246
50.4602
50.4957
50.5313
50.5669
50.6024
50.638
50.6735
50.7091
50.7447
50.7802
50.8158
50.8513
50.8869
50.9225
50.958
50.9936
51.0292
51.0647
51.1003
51.1358
51.1714
51.207
51.2425
51.2781
51.3137
51.3492
51.3848
51.4203
51.4559
51.4915
51.527
51.5626
51.5982
51.6337
51.6693
51.7048
51.7404
51.776
51.8115
51.8471
51.8827
51.9182
51.9538
51.9894
52.0249
52.0605
52.096
52.1316
52.1672
52.2027
52.2383
52.2739
52.3094
52.345
52.3806
52.4161
52.4517
52.4873
52.5228
52.5584
52.594
52.6295
52.6651
52.7007
52.7362
52.7718
52.8074
52.8429
52.8785
52.9141
52.9496
52.9852
53.0208
53.0563
53.0919
53.1275
53.163
53.1986
53.2342
53.2697
53.3053
53.3409
53.3764
53.412
53.4476
53.4831
53.5187
53.5543
53.5898
53.6254
53.661
53.6965
53.7321
53.7677
53.8032
53.8388
53.8744
53.91
53.9455
53.9811
54.0167
54.0522
54.0878
54.1234
54.1589
54.1945
54.2301
54.2656
54.3012
54.3368
54.3724
54.4079
54.4435
54.4791
54.5146
54.5502
54.5858
54.6213
54.6569
54.6925
54.7281
54.7636
54.7992
54.8348
54.8703
54.9059
54.9415
54.9771
55.0126
55.0482
55.0838
55.1193
55.1549
55.1905
55.2261
55.2616
55.2972
55.3328
55.3683
55.4039
55.4395
55.4751
55.5106
55.5462
55.5818
55.6173
55.6529
55.6885
55.7241
55.7596
55.7952
55.8308
55.8664
55.9019
55.9375
55.9731
56.0087
56.0442
56.0798
56.1154
56.1509
56.1865
56.2221
56.2577
56.2932
56.3288
56.3644
56.4
56.4355
56.4711
56.5067
56.5423
56.5778
56.6134
56.649
56.6846
56.7201
56.7557
56.7913
56.8269
56.8624
56.898
56.9336
56.9692
57.0047
57.0403
57.0759
57.1115
57.147
57.1826
57.2182
57.2538
57.2893
57.3249
57.3605
57.3961
57.4317
57.4672
57.5028
57.5384
57.574
57.6095
57.6451
57.6807
57.7163
57.7518
57.7874
57.823
57.8586
57.8941
57.9297
57.9653
58.0009
58.0365
58.072
58.1076
58.1432
58.1788
58.2143
58.2499
58.2855
58.3211
58.3567
58.3922
58.4278
58.4634
58.499
58.5345
58.5701
58.6057
58.6413
58.6769
58.7124
58.748
58.7836
58.8192
58.8548
58.8903
58.9259
58.9615
58.9971
59.0327
59.0682
59.1038
59.1394
59.175
59.2105
59.2461
59.2817
59.3173
59.3529
59.3884
59.424
59.4596
59.4952
59.5308
59.5663
59.6019
59.6375
59.6731
59.7087
59.7442
59.7798
59.8154
59.851
59.8866
59.9222
59.9577
59.9933
60.0289
60.0645
60.1001
60.1356
60.1712
60.2068
60.2424
60.278
60.3135
60.3491
60.3847
60.4203
60.4559
60.4914
60.527
60.5626
60.5982
60.6338
60.6694
60.7049
60.7405
60.7761
60.8117
60.8473
60.8828
60.9184
60.954
60.9896
61.0252
61.0608
61.0963
61.1319
61.1675
61.2031
61.2387
61.2743
61.3098
61.3454
61.381
61.4166
61.4522
61.4877
61.5233
61.5589
61.5945
61.6301
61.6657
61.7012
61.7368
61.7724
61.808
61.8436
61.8792
61.9147
61.9503
61.9859
62.0215
62.0571
62.0927
62.1282
62.1638
62.1994
62.235
62.2706
62.3062
62.3417
62.3773
62.4129
62.4485
62.4841
62.5197
62.5552
62.5908
62.6264
62.662
62.6976
62.7332
62.7688
62.8043
62.8399
62.8755
62.9111
62.9467
62.9823
63.0178
63.0534
63.089
63.1246
63.1602
63.1958
63.2314
63.2669
63.3025
63.3381
63.3737
63.4093
63.4449
63.4804
63.516
63.5516
63.5872
63.6228
63.6584
63.694
63.7295
63.7651
63.8007
63.8363
63.8719
63.9075
63.9431
63.9786
64.0142
64.0498
64.0854
64.121
64.1566
64.1921
64.2277
64.2633
64.2989
64.3345
64.3701
64.4057
64.4412
64.4768
64.5124
64.548
64.5836
64.6192
64.6548
64.6903
64.7259
64.7615
64.7971
64.8327
64.8683
64.9039
64.9394
64.975
65.0106
65.0462
65.0818
65.1174
65.153
65.1886
65.2241
65.2597
65.2953
65.3309
65.3665
65.4021
65.4377
65.4732
65.5088
65.5444
65.58
65.6156
65.6512
65.6868
65.7223
65.7579
65.7935
65.8291
65.8647
65.9003
65.9359
65.9714
66.007
66.0426
66.0782
66.1138
66.1494
66.185
66.2206
66.2561
66.2917
66.3273
66.3629
66.3985
66.4341
66.4697
66.5052
66.5408
66.5764
66.612
66.6476
66.6832
66.7188
66.7544
66.7899
66.8255
66.8611
66.8967
66.9323
66.9679
67.0035
67.039
67.0746
67.1102
67.1458
67.1814
67.217
67.2526
67.2882
67.3237
67.3593
67.3949
67.4305
67.4661
67.5017
67.5373
67.5728
67.6084
67.644
67.6796
67.7152
67.7508
67.7864
67.822
67.8575
67.8931
67.9287
67.9643
67.9999
68.0355
68.0711
68.1066
68.1422
68.1778
68.2134
68.249
68.2846
68.3202
68.3557
68.3913
68.4269
68.4625
68.4981
68.5337
68.5693
68.6049
68.6404
68.676
68.7116
68.7472
68.7828
68.8184
68.854
68.8895
68.9251
68.9607
68.9963
69.0319
69.0675
69.1031
69.1386
69.1742
69.2098
69.2454
69.281
69.3166
69.3522
69.3878
69.4233
69.4589
69.4945
69.5301
69.5657
69.6013
69.6369
69.6724
69.708
69.7436
69.7792
69.8148
69.8504
69.886
69.9215
69.9571
69.9927
70.0283
70.0639
70.0995
70.1351
70.1706
70.2062
70.2418
70.2774
70.313
70.3486
70.3841
70.4197
70.4553
70.4909
70.5265
70.5621
70.5977
70.6332
70.6688
70.7044
70.74
70.7756
70.8112
70.8468
70.8823
70.9179
70.9535
70.9891
71.0247
71.0603
71.0958
71.1314
71.167
71.2026
71.2382
71.2738
71.3093
71.3449
71.3805
71.4161
71.4517
71.4873
71.5229
71.5584
71.594
71.6296
71.6652
71.7008
71.7364
71.7719
71.8075
71.8431
71.8787
71.9143
71.9499
71.9854
72.021
72.0566
72.0922
72.1278
72.1634
72.1989
72.2345
72.2701
72.3057
72.3413
72.3769
72.4124
72.448
72.4836
72.5192
72.5548
72.5903
72.6259
72.6615
72.6971
72.7327
72.7683
72.8038
72.8394
72.875
72.9106
72.9462
72.9817
73.0173
73.0529
73.0885
73.1241
73.1597
73.1952
73.2308
73.2664
73.302
73.3376
73.3731
73.4087
73.4443
73.4799
73.5155
73.551
73.5866
73.6222
73.6578
73.6934
73.7289
73.7645
73.8001
73.8357
73.8713
73.9068
73.9424
73.978
74.0136
74.0492
74.0847
74.1203
74.1559
74.1915
74.2271
74.2626
74.2982
74.3338
74.3694
74.4049
74.4405
74.4761
74.5117
74.5473
74.5828
74.6184
74.654
74.6896
74.7251
74.7607
74.7963
74.8319
74.8675
74.903
74.9386
74.9742
75.0098
75.0453
75.0809
75.1165
75.1521
75.1876
75.2232
75.2588
75.2944
75.3299
75.3655
75.4011
75.4367
75.4722
75.5078
75.5434
75.579
75.6145
75.6501
75.6857
75.7213
75.7568
75.7924
75.828
75.8636
75.8991
75.9347
75.9703
76.0059
76.0414
76.077
76.1126
76.1482
76.1837
76.2193
76.2549
76.2904
76.326
76.3616
76.3972
76.4327
76.4683
76.5039
76.5395
76.575
76.6106
76.6462
76.6817
76.7173
76.7529
76.7885
76.824
76.8596
76.8952
76.9307
76.9663
77.0019
77.0374
77.073
77.1086
77.1442
77.1797
77.2153
77.2509
77.2864
77.322
77.3576
77.3931
77.4287
77.4643
77.4998
77.5354
77.571
77.6065
77.6421
77.6777
77.7132
77.7488
77.7844
77.8199
77.8555
77.8911
77.9266
77.9622
77.9978
78.0333
78.0689
78.1045
78.14
78.1756
78.2112
78.2467
78.2823
78.3179
78.3534
78.389
78.4245
78.4601
78.4957
78.5312
78.5668
78.6024
78.6379
78.6735
78.709
78.7446
78.7802
78.8157
78.8513
78.8869
78.9224
78.958
78.9935
79.0291
79.0647
79.1002
79.1358
79.1713
79.2069
79.2425
79.278
79.3136
79.3491
79.3847
79.4202
79.4558
79.4914
79.5269
79.5625
79.598
79.6336
79.6692
79.7047
79.7403
79.7758
79.8114
79.8469
79.8825
79.918
79.9536
79.9892
80.0247
80.0603
80.0958
80.1314
80.1669
80.2025
80.238
80.2736
80.3091
80.3447
80.3802
80.4158
80.4513
80.4869
80.5225
80.558
80.5936
80.6291
80.6647
80.7002
80.7358
80.7713
80.8069
80.8424
80.878
80.9135
80.9491
80.9846
81.0201
81.0557
81.0912
81.1268
81.1623
81.1979
81.2334
81.269
81.3045
81.3401
81.3756
81.4112
81.4467
81.4823
81.5178
81.5533
81.5889
81.6244
81.66
81.6955
81.7311
81.7666
81.8021
81.8377
81.8732
81.9088
81.9443
81.9799
82.0154
82.0509
82.0865
82.122
82.1576
82.1931
82.2286
82.2642
82.2997
82.3353
82.3708
82.4063
82.4419
82.4774
82.5129
82.5485
82.584
82.6195
82.6551
82.6906
82.7262
82.7617
82.7972
82.8328
82.8683
82.9038
82.9394
82.9749
83.0104
83.046
83.0815
83.117
83.1525
83.1881
83.2236
83.2591
83.2947
83.3302
83.3657
83.4013
83.4368
83.4723
83.5078
83.5434
83.5789
83.6144
83.6499
83.6855
83.721
83.7565
83.7921
83.8276
83.8631
83.8986
83.9341
83.9697
84.0052
84.0407
84.0762
84.1118
84.1473
84.1828
84.2183
84.2538
84.2894
84.3249
84.3604
84.3959
84.4314
84.467
84.5025
84.538
84.5735
84.609
84.6445
84.6801
84.7156
84.7511
84.7866
84.8221
84.8576
84.8931
84.9287
84.9642
84.9997
85.0352
85.0707
85.1062
85.1417
85.1772
85.2127
85.2483
85.2838
85.3193
85.3548
85.3903
85.4258
85.4613
85.4968
85.5323
85.5678
85.6033
85.6388
85.6743
85.7098
85.7453
85.7808
85.8163
85.8519
85.8874
85.9229
85.9584
85.9939
86.0294
86.0649
86.1004
86.1358
86.1713
86.2068
86.2423
86.2778
86.3133
86.3488
86.3843
86.4198
86.4553
86.4908
86.5263
86.5618
86.5973
86.6328
86.6683
86.7038
86.7392
86.7747
86.8102
86.8457
86.8812
86.9167
86.9522
86.9877
87.0231
87.0586
87.0941
87.1296
87.1651
87.2006
87.2361
87.2715
87.307
87.3425
87.378
87.4135
87.4489
87.4844
87.5199
87.5554
87.5908
87.6263
87.6618
87.6973
87.7328
87.7682
87.8037
87.8392
87.8746
87.9101
87.9456
87.9811
88.0165
88.052
88.0875
88.1229
88.1584
88.1939
88.2293
88.2648
88.3003
88.3357
88.3712
88.4067
88.4421
88.4776
88.5131
88.5485
88.584
88.6194
88.6549
88.6904
88.7258
88.7613
88.7967
88.8322
88.8676
88.9031
88.9385
88.974
89.0095
89.0449
89.0804
89.1158
89.1513
89.1867
89.2222
89.2576
89.2931
89.3285
89.3639
89.3994
89.4348
89.4703
89.5057
89.5412
89.5766
89.612
89.6475
89.6829
89.7184
89.7538
89.7892
89.8247
89.8601
89.8956
89.931
89.9664
90.0019
90.0373
90.0727
90.1081
90.1436
90.179
90.2144
90.2499
90.2853
90.3207
90.3561
90.3916
90.427
90.4624
90.4978
90.5333
90.5687
90.6041
90.6395
90.6749
90.7104
90.7458
90.7812
90.8166
90.852
90.8874
90.9228
90.9583
90.9937
91.0291
91.0645
91.0999
91.1353
91.1707
91.2061
91.2415
91.2769
91.3123
91.3477
91.3831
91.4185
91.4539
91.4893
91.5247
91.5601
91.5955
91.6309
91.6663
91.7017
91.7371
91.7725
91.8079
91.8433
91.8787
91.914
91.9494
91.9848
92.0202
92.0556
92.091
92.1263
92.1617
92.1971
92.2325
92.2679
92.3032
92.3386
92.374
92.4094
92.4447
92.4801
92.5155
92.5509
92.5862
92.6216
92.657
92.6923
92.7277
92.763
92.7984
92.8338
92.8691
92.9045
92.9399
92.9752
93.0106
93.0459
93.0813
93.1166
93.152
93.1873
93.2227
93.258
93.2934
93.3287
93.3641
93.3994
93.4348
93.4701
93.5054
93.5408
93.5761
93.6114
93.6468
93.6821
93.7175
93.7528
93.7881
93.8234
93.8588
93.8941
93.9294
93.9648
94.0001
94.0354
94.0707
94.106
94.1414
94.1767
94.212
94.2473
94.2826
94.3179
94.3532
94.3886
94.4239
94.4592
94.4945
94.5298
94.5651
94.6004
94.6357
94.671
94.7063
94.7416
94.7769
94.8122
94.8475
94.8827
94.918
94.9533
94.9886
95.0239
95.0592
95.0945
95.1297
95.165
95.2003
95.2356
95.2709
95.3061
95.3414
95.3767
95.4119
95.4472
95.4825
95.5177
95.553
95.5883
95.6235
95.6588
95.694
95.7293
95.7646
95.7998
95.8351
95.8703
95.9056
95.9408
95.976
96.0113
96.0465
96.0818
96.117
96.1522
96.1875
96.2227
96.2579
96.2932
96.3284
96.3636
96.3989
96.4341
96.4693
96.5045
96.5397
96.5749
96.6102
96.6454
96.6806
96.7158
96.751
96.7862
96.8214
96.8566
96.8918
96.927
96.9622
96.9974
97.0326
97.0678
97.103
97.1382
97.1734
97.2085
97.2437
97.2789
97.3141
97.3492
97.3844
97.4196
97.4548
97.4899
97.5251
97.5603
97.5954
97.6306
97.6657
97.7009
97.7361
97.7712
97.8064
97.8415
97.8766
97.9118
97.9469
97.9821
98.0172
98.0523
98.0875
98.1226
98.1577
98.1929
98.228
98.2631
98.2982
98.3333
98.3685
98.4036
98.4387
98.4738
98.5089
98.544
98.5791
98.6142
98.6493
98.6844
98.7195
98.7546
98.7897
98.8248
98.8598
98.8949
98.93
98.9651
99.0001
99.0352
99.0703
99.1054
99.1404
99.1755
99.2105
99.2456
99.2806
99.3157
99.3507
99.3858
99.4208
99.4559
99.4909
99.5259
99.561
99.596
99.631
99.6661
99.7011
99.7361
99.7711
99.8061
99.8411
99.8762
99.9112
99.9462
99.9812
100.016
100.051
100.086
100.121
100.156
100.191
100.226
100.261
100.296
100.331
100.366
100.401
100.436
100.471
100.506
100.541
100.576
100.611
100.646
100.681
100.715
100.75
100.785
100.82
100.855
100.89
100.925
100.96
100.995
101.03
101.065
101.1
101.134
101.169
101.204
101.239
101.274
101.309
101.344
101.379
101.414
101.448
101.483
101.518
101.553
101.588
101.623
101.658
101.692
101.727
101.762
101.797
101.832
101.867
101.901
101.936
101.971
102.006
102.041
102.075
102.11
102.145
102.18
102.215
102.249
102.284
102.319
102.354
102.388
102.423
102.458
102.493
102.527
102.562
102.597
102.632
102.666
102.701
102.736
102.771
102.805
102.84
102.875
102.909
102.944
102.979
103.013
103.048
103.083
103.117
103.152
103.187
103.221
103.256
103.291
103.325
103.36
103.395
103.429
103.464
103.499
103.533
103.568
103.602
103.637
103.672
103.706
103.741
103.775
103.81
103.844
103.879
103.914
103.948
103.983
104.017
104.052
104.086
104.121
104.155
104.19
104.224
104.259
104.293
104.328
104.362
104.397
104.431
104.466
104.5
104.535
104.569
104.604
104.638
104.672
104.707
104.741
104.776
104.81
104.845
104.879
104.913
104.948
104.982
105.016
105.051
105.085
105.12
105.154
105.188
105.223
105.257
105.291
105.326
105.36
105.394
105.428
105.463
105.497
105.531
105.566
105.6
105.634
105.668
105.703
105.737
105.771
105.805
105.839
105.874
105.908
105.942
105.976
106.01
106.045
106.079
106.113
106.147
106.181
106.215
106.249
106.283
106.318
106.352
106.386
106.42
106.454
106.488
106.522
106.556
106.59
106.624
106.658
106.692
106.726
106.76
106.794
106.828
106.862
106.896
106.93
106.964
106.998
107.032
107.066
107.1
107.133
107.167
107.201
107.235
107.269
107.303
107.337
107.37
107.404
107.438
107.472
107.506
107.539
107.573
107.607
107.641
107.674
107.708
107.742
107.776
107.809
107.843
107.877
107.91
107.944
107.977
108.011
108.045
108.078
108.112
108.146
108.179
108.213
108.246
108.28
108.313
108.347
108.38
108.414
108.447
108.481
108.514
108.548
108.581
108.615
108.648
108.681
108.715
108.748
108.781
108.815
108.848
108.881
108.915
108.948
108.981
109.015
109.048
109.081
109.114
109.147
109.181
109.214
109.247
109.28
109.313
109.346
109.379
109.413
109.446
109.479
109.512
109.545
109.578
109.611
109.644
109.677
109.71
109.743
109.776
109.809
109.841
109.874
109.907
109.94
109.973
110.006
110.039
110.071
110.104
110.137
110.17
110.202
110.235
110.268
110.3
110.333
110.366
110.398
110.431
110.463
110.496
110.528
110.561
110.593
110.626
110.658
110.691
110.723
110.756
110.788
110.82
110.853
110.885
110.917
110.95
110.982
111.014
111.047
111.079
111.111
111.143
111.175
111.207
111.239
111.272
111.304
111.336
111.368
111.4
111.432
111.464
111.496
111.527
111.559
111.591
111.623
111.655
111.687
111.718
111.75
111.782
111.814
111.845
111.877
111.909
111.94
111.972
112.003
112.035
112.066
112.098
112.129
112.161
112.192
112.224
112.255
112.286
112.317
112.349
112.38
112.411
112.442
112.474
112.505
112.536
112.567
112.598
112.629
112.66
112.691
112.722
112.753
112.784
112.815
112.845
112.876
112.907
112.938
112.968
112.999
113.03
113.06
113.091
113.121
113.152
113.182
113.213
113.243
113.274
113.304
113.334
113.365
113.395
113.425
113.455
113.486
113.516
113.546
113.576
113.606
113.636
113.666
113.696
113.726
113.755
113.785
113.815
113.845
113.875
113.904
113.934
113.963
113.993
114.022
114.052
114.081
114.111
114.14
114.17
114.199
114.228
114.257
114.286
114.316
114.345
114.374
114.403
114.432
114.461
114.49
114.518
114.547
114.576
114.605
114.633
114.662
114.691
114.719
114.748
114.776
114.805
114.833
114.861
114.89
114.918
114.946
114.974
115.002
115.031
115.059
115.087
115.114
115.142
115.17
115.198
115.226
115.253
115.281
115.309
115.336
115.364
115.391
115.419
115.446
115.473
115.501
115.528
115.555
115.582
115.609
115.636
115.663
115.69
115.717
115.744
115.771
115.797
115.824
115.851
115.877
115.904
115.93
115.957
115.983
116.009
116.036
116.062
116.088
116.114
116.14
116.166
116.192
116.218
116.244
116.27
116.295
116.321
116.347
116.372
116.398
116.423
116.449
116.474
116.499
116.525
116.55
116.575
116.6
116.625
116.65
116.675
116.7
116.725
116.749
116.774
116.799
116.823
116.848
116.872
116.897
116.921
116.945
116.969
116.994
117.018
117.042
117.066
117.09
117.114
117.137
117.161
117.185
117.209
117.232
117.256
117.279
117.303
117.326
117.349
117.373
117.396
117.419
117.442
117.465
117.488
117.511
117.534
117.557
117.58
117.602
117.625
117.647
117.67
117.692
117.715
117.737
117.76
117.782
117.804
117.826
117.848
117.87
117.892
117.914
117.936
117.958
117.98
118.001
118.023
118.045
118.066
118.088
118.109
118.131
118.152
118.173
118.194
118.216
118.237
118.258
118.279
118.3
118.321
118.342
118.362
118.383
118.404
118.425
118.445
118.466
118.486
118.507
118.527
118.548
118.568
118.588
118.609
118.629
118.649
118.669
118.689
118.709
118.729
118.749
118.769
118.789
118.809
118.828
118.848
118.868
118.887
118.907
118.926
118.946
118.965
118.985
119.004
119.024
119.043
119.062
119.081
119.101
119.12
119.139
119.158
119.177
119.196
119.215
119.234
119.253
119.272
119.29
119.309
119.328
119.347
119.365
119.384
119.403
119.421
119.44
119.458
119.477
119.495
119.514
119.532
119.551
119.569
119.587
119.606
119.624
119.642
119.66
119.679
119.697
119.715
119.733
119.751
119.769
119.787
119.805
119.823
119.841
119.859
119.877
119.895
119.913
119.931
119.949
119.966
119.984
120.002
120.02
120.038
120.055
120.073
120.091
120.108
120.126
120.144
120.161
120.179
120.196
120.214
120.232
120.249
120.267
120.284
120.302
120.319
120.337
120.354
120.371
120.389
120.406
120.424
120.441
120.458
120.476
120.493
120.51
120.528
120.545
120.562
120.58
120.597
120.614
120.631
120.649
120.666
120.683
120.7
120.718
120.735
120.752
120.769
120.786
120.804
120.821
120.838
120.855
120.872
120.889
120.907
120.924
120.941
120.958
120.975
120.992
121.009
121.026
121.043
121.06
121.077
121.095
121.112
121.129
121.146
121.163
121.18
121.197
121.214
121.231
121.248
121.265
121.282
121.299
121.316
121.333
121.35
121.367
121.384
121.401
121.418
121.435
121.452
121.469
121.486
121.503
121.52
121.537
121.554
121.571
121.588
121.605
121.622
121.639
121.656
121.673
121.689
121.706
121.723
121.74
121.757
121.774
121.791
121.808
121.825
121.842
121.859
121.876
121.893
121.91
121.927
121.944
121.96
121.977
121.994
122.011
122.028
122.045
122.062
122.079
122.096
122.113
122.13
122.147
122.164
122.181
122.197
122.214
122.231
122.248
122.265
122.282
122.299
122.316
122.333
122.35
122.367
122.384
122.4
122.417
122.434
122.451
122.468
122.485
122.502
122.519
122.536
122.553
122.57
122.587
122.603
122.62
122.637
122.654
122.671
122.688
122.705
122.722
122.739
122.756
122.773
122.789
122.806
122.823
122.84
122.857
122.874
122.891
122.908
122.925
122.942
122.959
122.976
122.992
123.009
123.026
123.043
123.06
123.077
123.094
123.111
123.128
123.145
123.162
123.179
123.195
123.212
123.229
123.246
123.263
123.28
123.297
123.314
123.331
123.348
123.365
123.382
123.399
123.415
123.432
123.449
123.466
123.483
123.5
123.517
123.534
123.551
123.568
123.585
123.602
123.619
123.635
123.652
123.669
123.686
123.703
123.72
123.737
123.754
123.771
123.788
123.805
123.822
123.839
123.855
123.872
123.889
123.906
123.923
123.94
123.957
123.974
123.991
124.008
124.025
124.042
124.059
124.076
124.093
124.109
124.126
124.143
124.16
124.177
124.194
124.211
124.228
124.245
124.262
124.279
124.296
124.313
124.33
124.347
124.363
124.38
124.397
124.414
124.431
124.448
124.465
124.482
124.499
124.516
124.533
124.55
124.567
124.584
124.601
124.618
124.635
124.651
124.668
124.685
124.702
124.719
124.736
124.753
124.77
124.787
124.804
124.821
124.838
124.855
124.872
124.889
124.906
124.923
124.94
124.957
124.973
124.99
125.007
125.024
125.041
125.058
125.075
125.092
125.109
125.126
125.143
125.16
125.177
125.194
125.211
125.228
125.245
125.262
125.279
125.296
125.313
125.329
125.346
125.363
125.38
125.397
125.414
125.431
125.448
125.465
125.482
125.499
125.516
125.533
125.55
125.567
125.584
125.601
125.618
125.635
125.652
125.669
125.686
125.703
125.72
125.736
125.753
125.77
125.787
125.804
125.821
125.838
125.855
125.872
125.889
125.906
125.923
125.94
125.957
125.974
125.991
126.008
126.025
126.042
126.059
126.076
126.093
126.11
126.127
126.144
126.161
126.178
126.195
126.212
126.229