/*--------------------------------*- C++ -*----------------------------------*\
  =========                 |
  \\      /  F ield         | OpenFOAM: The Open Source CFD Toolbox
   \\    /   O peration     | Website:  https://openfoam.org
    \\  /    A nd           | Version:  9
     \\/     M anipulation  |
\*---------------------------------------------------------------------------*/
FoamFile
{
    format      ascii;
    class       volScalarField;
    location    "0.017";
    object      mag(U);
}
// * * * * * * * * * * * * * * * * * * * * * * * * * * * * * * * * * * * * * //

dimensions      [0 1 -1 0 0 0 0];

internalField   nonuniform List<scalar> 
1000
(
4.36566
5.75738
6.56164
7.38129
8.25868
9.13807
10.0086
10.8776
11.7479
12.6188
13.4897
14.3607
15.2317
16.1028
16.974
17.8453
18.7168
19.5883
20.4598
21.3315
22.2033
23.0751
23.947
24.819
25.6911
26.5632
27.4354
28.3076
29.1799
30.0523
30.9247
31.7971
32.6696
33.5421
34.4146
35.2872
36.1598
37.0324
37.905
38.7777
39.6503
40.5229
41.3955
42.2682
43.1407
44.0133
44.8859
45.7584
46.6308
47.5033
48.3756
49.248
50.1202
50.9924
51.8645
52.7365
53.6085
54.4803
55.3521
56.2237
57.0952
57.9666
58.8379
59.709
60.58
61.4508
62.3215
63.192
64.0623
64.9324
65.8023
66.672
67.5415
68.4107
69.2797
70.1485
71.017
71.8852
72.7532
73.6208
74.4882
75.3552
76.2219
77.0883
77.9542
78.8199
79.6851
80.5499
81.4143
82.2783
83.1418
84.0049
84.8675
85.7295
86.5911
87.4521
88.3125
89.1724
90.0317
90.8903
91.7483
92.6056
93.4622
94.3181
95.1732
96.0276
96.8811
97.7339
98.5857
99.4366
100.287
101.136
101.984
102.831
103.677
104.521
105.365
106.207
107.048
107.888
108.727
109.564
110.399
111.233
112.066
112.896
113.725
114.553
115.378
116.202
117.023
117.842
118.66
119.475
120.287
121.098
121.906
122.711
123.513
124.313
125.11
125.904
126.695
127.482
128.266
129.047
129.824
130.598
131.368
132.134
132.895
133.653
134.407
135.156
135.9
136.64
137.375
138.105
138.831
139.551
140.266
140.975
141.68
142.378
143.072
143.759
144.441
145.117
145.787
146.451
147.11
147.762
148.408
149.049
149.683
150.312
150.934
151.551
152.162
152.767
153.367
153.961
154.55
155.133
155.711
156.284
156.852
157.415
157.973
158.527
159.077
159.622
160.164
160.702
161.236
161.767
162.294
162.818
163.34
163.858
164.374
164.888
165.4
165.909
166.416
166.922
167.426
167.928
168.429
168.928
169.427
169.924
170.421
170.916
171.41
171.904
172.397
172.89
173.382
173.873
174.365
174.855
175.346
175.836
176.325
176.815
177.304
177.793
178.282
178.771
179.259
179.747
180.236
180.724
181.212
181.7
182.188
182.676
183.164
183.652
184.14
184.627
185.115
185.602
186.09
186.578
187.065
187.553
188.04
188.528
189.015
189.502
189.99
190.477
190.964
191.451
191.939
192.426
192.913
193.4
193.887
194.374
194.861
195.348
195.835
196.322
196.809
197.296
197.783
198.27
198.757
199.243
199.73
200.217
200.703
201.19
201.677
202.163
202.65
203.136
203.623
204.109
204.595
205.082
205.568
206.054
206.54
207.026
207.512
207.998
208.484
208.97
209.456
209.942
210.428
210.913
211.399
211.885
212.37
212.856
213.341
213.827
214.312
214.797
215.282
215.768
216.253
216.738
217.223
217.708
218.192
218.677
219.162
219.646
220.131
220.615
221.1
221.584
222.068
222.552
223.036
223.52
224.004
224.488
224.972
225.455
225.939
226.422
226.906
227.389
227.872
228.355
228.838
229.321
229.803
230.286
230.768
231.25
231.733
232.215
232.697
233.178
233.66
234.142
234.623
235.104
235.585
236.066
236.547
237.028
237.508
237.989
238.469
238.949
239.428
239.908
240.387
240.867
241.346
241.825
242.303
242.782
243.26
243.738
244.215
244.693
245.17
245.647
246.124
246.6
247.077
247.552
248.028
248.503
248.978
249.453
249.928
250.402
250.875
251.349
251.822
252.295
252.767
253.239
253.71
254.181
254.652
255.122
255.592
256.061
256.53
256.999
257.466
257.934
258.4
258.867
259.332
259.797
260.261
260.725
261.188
261.651
262.112
262.573
263.033
263.493
263.951
264.409
264.866
265.322
265.777
266.231
266.684
267.136
267.587
268.037
268.486
268.933
269.379
269.824
270.268
270.71
271.151
271.59
272.028
272.464
272.898
273.331
273.762
274.191
274.618
275.043
275.466
275.887
276.306
276.722
277.136
277.547
277.956
278.361
278.764
279.164
279.561
279.955
280.346
280.733
281.116
281.496
281.872
282.244
282.611
282.975
283.334
283.688
284.038
284.383
284.723
285.057
285.386
285.71
286.027
286.339
286.645
286.944
287.237
287.523
287.803
288.075
288.341
288.599
288.85
289.093
289.329
289.557
289.778
289.99
290.194
290.391
290.579
290.76
290.932
291.096
291.253
291.401
291.542
291.675
291.8
291.918
292.029
292.132
292.229
292.319
292.403
292.48
292.552
292.618
292.678
292.733
292.784
292.83
292.871
292.909
292.943
292.973
293.001
293.025
293.047
293.066
293.083
293.098
293.111
293.123
293.133
293.142
293.15
293.156
293.162
293.167
293.171
293.175
293.178
293.181
293.183
293.185
293.186
293.188
293.189
293.19
293.191
293.192
293.193
293.193
293.194
293.194
293.194
293.195
293.195
293.196
293.196
293.196
293.196
293.197
293.197
293.197
293.197
293.197
293.198
293.198
293.198
293.198
293.198
293.199
293.199
293.199
293.199
293.199
293.199
293.2
293.2
293.2
293.2
293.2
293.2
293.2
293.2
293.2
293.201
293.201
293.201
293.201
293.201
293.201
293.201
293.201
293.201
293.201
293.201
293.201
293.201
293.201
293.201
293.201
293.201
293.201
293.201
293.201
293.201
293.2
293.2
293.2
293.2
293.2
293.2
293.2
293.2
293.2
293.2
293.2
293.2
293.2
293.2
293.2
293.2
293.2
293.2
293.2
293.2
293.2
293.2
293.2
293.2
293.2
293.2
293.2
293.2
293.2
293.2
293.2
293.2
293.2
293.2
293.2
293.2
293.2
293.2
293.2
293.2
293.2
293.2
293.2
293.2
293.2
293.2
293.2
293.2
293.2
293.2
293.2
293.2
293.201
293.201
293.201
293.201
293.201
293.201
293.201
293.201
293.201
293.201
293.201
293.201
293.201
293.201
293.201
293.201
293.201
293.201
293.201
293.201
293.201
293.201
293.201
293.201
293.201
293.201
293.201
293.201
293.201
293.201
293.201
293.201
293.201
293.201
293.201
293.201
293.201
293.201
293.201
293.201
293.201
293.201
293.201
293.201
293.201
293.201
293.201
293.201
293.201
293.201
293.201
293.201
293.201
293.201
293.201
293.201
293.201
293.201
293.201
293.202
293.202
293.202
293.202
293.202
293.202
293.202
293.202
293.202
293.202
293.202
293.202
293.202
293.202
293.202
293.202
293.202
293.202
293.202
293.202
293.202
293.202
293.202
293.202
293.202
293.202
293.202
293.202
293.202
293.202
293.202
293.202
293.202
293.202
293.202
293.202
293.202
293.202
293.202
293.202
293.202
293.202
293.202
293.202
293.202
293.202
293.202
293.202
293.202
293.202
293.202
293.202
293.202
293.202
293.202
293.202
293.202
293.202
293.202
293.202
293.202
293.202
293.202
293.202
293.202
293.202
293.202
293.202
293.202
293.202
293.202
293.202
293.202
293.202
293.202
293.202
293.202
293.202
293.202
293.202
293.202
293.202
293.202
293.202
293.202
293.202
293.202
293.202
293.202
293.202
293.202
293.202
293.202
293.202
293.202
293.202
293.202
293.202
293.202
293.202
293.202
293.202
293.202
293.202
293.202
293.202
293.202
293.202
293.202
293.202
293.202
293.202
293.202
293.202
293.202
293.202
293.202
293.202
293.202
293.202
293.202
293.202
293.202
293.202
293.202
293.202
293.202
293.202
293.202
293.202
293.202
293.202
293.202
293.202
293.202
293.202
293.202
293.202
293.202
293.202
293.202
293.202
293.202
293.202
293.202
293.202
293.202
293.202
293.202
293.202
293.202
293.202
293.202
293.202
293.202
293.202
293.202
293.202
293.202
293.202
293.202
293.202
293.202
293.202
293.202
293.202
293.202
293.202
293.202
293.202
293.202
293.202
293.202
293.202
293.202
293.202
293.202
293.202
293.202
293.202
293.202
293.202
293.202
293.202
293.202
293.202
293.202
293.202
293.202
293.202
293.202
293.202
293.202
293.202
293.202
293.202
293.202
293.202
293.202
293.201
293.201
293.2
293.2
293.199
293.197
293.196
293.194
293.191
293.188
293.184
293.179
293.172
293.164
293.155
293.144
293.13
293.114
293.095
293.072
293.047
293.017
292.984
292.947
292.905
292.858
292.808
292.753
292.693
292.63
292.564
292.494
292.421
292.347
292.271
292.194
292.118
292.043
291.969
291.897
291.829
291.764
291.703
291.646
291.594
291.546
291.503
291.465
291.431
291.402
291.376
291.355
291.336
291.321
291.309
291.299
291.291
291.284
291.28
291.276
291.273
291.271
291.269
291.268
291.267
291.267
291.267
291.267
291.267
291.267
291.266
291.267
291.267
291.267
291.267
291.268
291.267
291.267
291.266
291.266
291.265
291.265
291.263
291.262
291.259
291.259
291.248
291.244
291.235
291.218
291.212
291.185
291.172
291.136
291.138
291.108
291.135
291.131
291.169
291.135
291.151
291.167
291.185
)
;

boundaryField
{
    sides
    {
        type            calculated;
        value           nonuniform List<scalar> 2(291.185 4.36566);
    }
    empty
    {
        type            empty;
    }
}


// ************************************************************************* //
