/*--------------------------------*- C++ -*----------------------------------*\
  =========                 |
  \\      /  F ield         | OpenFOAM: The Open Source CFD Toolbox
   \\    /   O peration     | Website:  https://openfoam.org
    \\  /    A nd           | Version:  9
     \\/     M anipulation  |
\*---------------------------------------------------------------------------*/
FoamFile
{
    format      ascii;
    class       volScalarField;
    location    "0.034";
    object      p;
}
// * * * * * * * * * * * * * * * * * * * * * * * * * * * * * * * * * * * * * //

dimensions      [1 -1 -2 0 0 0 0];

internalField   nonuniform List<scalar> 
1000
(
16068
16065.6
16062.3
16059.4
16056.7
16054.2
16051.6
16048.9
16046.3
16043.6
16041
16038.4
16035.7
16033.1
16030.5
16027.8
16025.2
16022.6
16020
16017.3
16014.7
16012.1
16009.5
16006.9
16004.2
16001.6
15999
15996.4
15993.8
15991.2
15988.6
15986
15983.3
15980.7
15978.1
15975.5
15972.9
15970.3
15967.7
15965.1
15962.5
15959.9
15957.3
15954.7
15952.1
15949.5
15946.9
15944.3
15941.7
15939.1
15936.5
15933.9
15931.3
15928.7
15926.1
15923.5
15920.9
15918.3
15915.7
15913.1
15910.5
15908
15905.4
15902.8
15900.2
15897.6
15895
15892.4
15889.8
15887.3
15884.7
15882.1
15879.5
15876.9
15874.4
15871.8
15869.2
15866.6
15864
15861.5
15858.9
15856.3
15853.7
15851.2
15848.6
15846
15843.5
15840.9
15838.3
15835.8
15833.2
15830.6
15828.1
15825.5
15822.9
15820.4
15817.8
15815.3
15812.7
15810.1
15807.6
15805
15802.5
15799.9
15797.4
15794.8
15792.3
15789.7
15787.2
15784.6
15782.1
15779.5
15777
15774.5
15771.9
15769.4
15766.8
15764.3
15761.8
15759.2
15756.7
15754.2
15751.6
15749.1
15746.6
15744.1
15741.5
15739
15736.5
15734
15731.5
15728.9
15726.4
15723.9
15721.4
15718.9
15716.4
15713.9
15711.4
15708.9
15706.4
15703.9
15701.4
15698.9
15696.4
15693.9
15691.4
15688.9
15686.4
15684
15681.5
15679
15676.5
15674
15671.6
15669.1
15666.6
15664.2
15661.7
15659.2
15656.8
15654.3
15651.9
15649.4
15647
15644.5
15642.1
15639.7
15637.2
15634.8
15632.4
15629.9
15627.5
15625.1
15622.7
15620.3
15617.8
15615.4
15613
15610.6
15608.2
15605.8
15603.4
15601.1
15598.7
15596.3
15593.9
15591.5
15589.2
15586.8
15584.5
15582.1
15579.8
15577.4
15575.1
15572.7
15570.4
15568.1
15565.7
15563.4
15561.1
15558.8
15556.5
15554.2
15551.9
15549.6
15547.4
15545.1
15542.8
15540.6
15538.3
15536
15533.8
15531.6
15529.3
15527.1
15524.9
15522.7
15520.5
15518.3
15516.1
15513.9
15511.8
15509.6
15507.4
15505.3
15503.1
15501
15498.9
15496.8
15494.7
15492.6
15490.5
15488.4
15486.3
15484.3
15482.2
15480.2
15478.2
15476.2
15474.2
15472.2
15470.2
15468.2
15466.3
15464.3
15462.4
15460.5
15458.6
15456.7
15454.8
15452.9
15451.1
15449.2
15447.4
15445.6
15443.8
15442.1
15440.3
15438.6
15436.8
15435.1
15433.4
15431.8
15430.1
15428.5
15426.9
15425.3
15423.7
15422.1
15420.6
15419.1
15417.6
15416.1
15414.7
15413.3
15411.9
15410.5
15409.2
15407.8
15406.5
15405.3
15404
15402.8
15401.6
15400.5
15399.4
15398.3
15397.2
15396.2
15395.2
15394.3
15393.3
15392.5
15391.6
15390.8
15390
15389.3
15388.6
15387.9
15387.3
15386.8
15386.2
15385.8
15385.3
15385
15384.6
15384.3
15384.1
15383.9
15383.8
15383.7
15383.7
15383.7
15383.7
15383.8
15383.9
15384.2
15384.5
15384.9
15385.4
15385.9
15386.5
15387.2
15388
15388.8
15389.7
15390.7
15391.8
15392.9
15394.1
15395.5
15396.9
15398.4
15399.9
15401.6
15403.4
15405.3
15407.2
15409.3
15411.5
15413.7
15416.1
15418.6
15421.2
15424
15426.8
15429.7
15432.8
15436
15439.3
15442.8
15446.4
15450.1
15453.9
15457.9
15462
15466.3
15470.7
15475.2
15479.9
15484.8
15489.7
15494.9
15500.2
15505.6
15511.2
15517
15522.9
15528.9
15535.2
15541.6
15548.1
15554.8
15561.7
15568.7
15575.9
15583.3
15590.8
15598.5
15606.4
15614.4
15622.6
15631
15639.5
15648.1
15657
15665.9
15675.1
15684.4
15693.8
15703.4
15713.1
15723
15733
15743.2
15753.5
15763.9
15774.5
15785.2
15796
15807
15818
15829.2
15840.5
15851.9
15863.4
15875
15886.8
15898.6
15910.5
15922.4
15934.5
15946.7
15958.9
15971.2
15983.6
15996
16008.6
16021.1
16033.8
16046.5
16059.2
16072.1
16084.9
16097.8
16110.8
16123.8
16136.8
16149.9
16163
16176.2
16189.4
16202.6
16215.8
16229.1
16242.4
16255.8
16269.1
16282.5
16295.9
16309.4
16322.8
16336.3
16349.8
16363.3
16376.9
16390.4
16404
16417.6
16431.2
16444.9
16458.5
16472.2
16485.9
16499.6
16513.3
16527
16540.8
16554.5
16568.3
16582.1
16595.9
16609.7
16623.6
16637.4
16651.3
16665.2
16679.1
16693
16706.9
16720.9
16734.8
16748.8
16762.8
16776.8
16790.8
16804.8
16818.8
16832.9
16847
16861
16875.1
16889.3
16903.4
16917.5
16931.7
16945.8
16960
16974.2
16988.4
17002.6
17016.9
17031.1
17045.4
17059.7
17074
17088.3
17102.6
17117
17131.3
17145.7
17160.1
17174.4
17188.9
17203.3
17217.7
17232.2
17246.6
17261.1
17275.6
17290.1
17304.6
17319.2
17333.7
17348.3
17362.9
17377.5
17392.1
17406.7
17421.3
17436
17450.6
17465.3
17480
17494.7
17509.4
17524.2
17538.9
17553.7
17568.5
17583.3
17598.1
17612.9
17627.7
17642.6
17657.5
17672.3
17687.2
17702.2
17717.1
17732
17747
17761.9
17776.9
17791.9
17806.9
17822
17837
17852.1
17867.1
17882.2
17897.3
17912.4
17927.6
17942.7
17957.9
17973.1
17988.2
18003.4
18018.7
18033.9
18049.1
18064.4
18079.7
18095
18110.3
18125.6
18141
18156.3
18171.7
18187.1
18202.5
18217.9
18233.3
18248.7
18264.2
18279.7
18295.2
18310.7
18326.2
18341.7
18357.3
18372.8
18388.4
18404
18419.6
18435.2
18450.9
18466.5
18482.2
18497.9
18513.6
18529.3
18545.1
18560.8
18576.6
18592.3
18608.1
18623.9
18639.8
18655.6
18671.5
18687.3
18703.2
18719.1
18735
18751
18766.9
18782.9
18798.8
18814.8
18830.8
18846.9
18862.9
18879
18895
18911.1
18927.2
18943.3
18959.5
18975.6
18991.8
19008
19024.2
19040.4
19056.6
19072.8
19089.1
19105.4
19121.7
19138
19154.3
19170.6
19187
19203.3
19219.7
19236.1
19252.5
19269
19285.4
19301.9
19318.4
19334.9
19351.4
19367.9
19384.4
19401
19417.6
19434.2
19450.8
19467.4
19484
19500.7
19517.3
19534
19550.7
19567.4
19584.2
19600.9
19617.7
19634.5
19651.3
19668.1
19684.9
19701.7
19718.6
19735.5
19752.4
19769.3
19786.2
19803.2
19820.1
19837.1
19854.1
19871.1
19888.1
19905.1
19922.2
19939.3
19956.4
19973.5
19990.6
20007.7
20024.9
20042
20059.2
20076.4
20093.6
20110.9
20128.1
20145.4
20162.7
20180
20197.3
20214.6
20232
20249.3
20266.7
20284.1
20301.5
20319
20336.4
20353.9
20371.3
20388.8
20406.4
20423.9
20441.4
20459
20476.6
20494.2
20511.8
20529.4
20547.1
20564.7
20582.4
20600.1
20617.8
20635.5
20653.3
20671.1
20688.8
20706.6
20724.4
20742.3
20760.1
20778
20795.9
20813.7
20831.7
20849.6
20867.5
20885.5
20903.5
20921.5
20939.5
20957.5
20975.6
20993.6
21011.7
21029.8
21047.9
21066.1
21084.2
21102.4
21120.5
21138.8
21157
21175.2
21193.4
21211.7
21230
21248.3
21266.6
21285
21303.3
21321.7
21340.1
21358.5
21376.9
21395.3
21413.8
21432.3
21450.7
21469.2
21487.8
21506.3
21524.9
21543.5
21562.1
21580.7
21599.3
21618
21636.6
21655.3
21674
21692.7
21711.5
21730.2
21749
21767.8
21786.6
21805.5
21824.3
21843.2
21862
21880.9
21899.9
21918.8
21937.7
21956.7
21975.7
21994.6
22013.6
22032.7
22051.7
22070.8
22089.8
22108.9
22128
22147.2
22166.3
22185.5
22204.6
22223.8
22243
22262.3
22281.5
22300.8
22320.1
22339.4
22358.7
22378.1
22397.5
22416.9
22436.3
22455.7
22475.2
22494.7
22514.2
22533.8
22553.3
22572.9
22592.6
22612.3
22632
22651.7
22671.5
22691.3
22711.2
22731.1
22751
22771
22791.1
22811.2
22831.4
22851.6
22871.9
22892.2
22912.7
22933.2
22953.7
22974.4
22995.2
23016
23036.9
23057.9
23079.1
23100.3
23121.6
23143
23164.6
23186.3
23208.1
23230
23252
23274.1
23296.4
23318.8
23341.4
23364.1
23386.9
23409.9
23432.9
23456.2
23479.5
23503
23526.5
23550.3
23574.1
23598
23622
23646.2
23670.4
23694.7
23719
23743.5
23768
23792.6
23817.1
23841.8
23866.4
23891.1
23915.8
23940.5
23965.2
23989.8
24014.4
24039
24063.6
24088.1
24112.5
24136.9
24161.2
24185.5
24209.7
24233.8
24257.8
24281.7
24305.5
24329.3
24353
24376.6
24400
24423.5
24446.8
24470
24493.2
24516.2
24539.2
24562.2
24585
24607.8
24630.5
24653.2
24675.8
24698.4
24720.9
24743.4
24765.8
24788.2
24810.5
24832.8
24855.1
24877.4
24899.6
24921.8
24944
24966.2
24988.4
25010.6
25032.7
25054.9
25077
25099.2
25121.3
25143.4
25165.5
25187.7
25209.8
25231.9
25254
25276.1
25298.2
25320.3
25342.4
25364.4
25386.5
25408.6
25430.7
25452.8
25474.9
25496.9
25519.1
25541.1
25563.3
25585.4
25607.5
25629.6
25651.8
25673.9
25696.1
25718.3
25740.5
25762.8
25785.1
25807.4
25829.9
25852.3
25875
25897.7
25920.6
25943.6
25966.9
25990.4
26014.3
26038.5
26063.2
26088.4
26114.1
26140.4
26167.4
26195
26223.5
26252.7
26282.8
26313.6
26345.3
26377.7
26410.8
26444.5
26478.8
26513.5
26548.6
26583.9
26619.3
26654.7
26690.1
26724.4
)
;

boundaryField
{
    sides
    {
        type            zeroGradient;
    }
    empty
    {
        type            empty;
    }
}


// ************************************************************************* //
