/*--------------------------------*- C++ -*----------------------------------*\
  =========                 |
  \\      /  F ield         | OpenFOAM: The Open Source CFD Toolbox
   \\    /   O peration     | Website:  https://openfoam.org
    \\  /    A nd           | Version:  9
     \\/     M anipulation  |
\*---------------------------------------------------------------------------*/
FoamFile
{
    format      ascii;
    class       volScalarField;
    location    "0.034";
    object      T;
}
// * * * * * * * * * * * * * * * * * * * * * * * * * * * * * * * * * * * * * //

dimensions      [0 0 0 1 0 0 0];

internalField   nonuniform List<scalar> 
1000
(
205.519
205.531
205.554
205.579
205.604
205.63
205.656
205.681
205.705
205.729
205.754
205.78
205.808
205.834
205.857
205.878
205.898
205.919
205.942
205.969
205.997
206.027
206.056
206.083
206.106
206.124
206.138
206.146
206.151
206.152
206.153
206.153
206.152
206.151
206.148
206.141
206.131
206.122
206.112
206.102
206.092
206.082
206.072
206.062
206.052
206.043
206.033
206.023
206.013
206.004
205.994
205.984
205.974
205.965
205.955
205.945
205.936
205.926
205.916
205.906
205.897
205.887
205.878
205.867
205.859
205.847
205.84
205.827
205.821
205.808
205.801
205.788
205.782
205.769
205.763
205.75
205.743
205.731
205.722
205.713
205.702
205.694
205.683
205.674
205.665
205.654
205.646
205.635
205.626
205.617
205.606
205.597
205.587
205.577
205.568
205.558
205.548
205.539
205.529
205.52
205.51
205.501
205.491
205.481
205.472
205.462
205.453
205.443
205.433
205.424
205.414
205.405
205.395
205.386
205.376
205.366
205.357
205.347
205.338
205.328
205.319
205.309
205.3
205.29
205.28
205.271
205.261
205.252
205.242
205.233
205.223
205.214
205.204
205.195
205.185
205.176
205.167
205.157
205.148
205.138
205.129
205.119
205.11
205.1
205.091
205.082
205.072
205.063
205.053
205.044
205.035
205.025
205.016
205.007
204.997
204.988
204.979
204.969
204.96
204.951
204.941
204.932
204.923
204.913
204.904
204.895
204.886
204.876
204.867
204.858
204.849
204.84
204.83
204.821
204.812
204.803
204.794
204.785
204.776
204.767
204.757
204.748
204.739
204.73
204.721
204.712
204.703
204.694
204.685
204.676
204.667
204.658
204.649
204.641
204.632
204.623
204.614
204.605
204.596
204.588
204.579
204.57
204.561
204.553
204.544
204.535
204.526
204.518
204.509
204.501
204.492
204.484
204.475
204.466
204.458
204.45
204.441
204.433
204.424
204.416
204.408
204.399
204.391
204.383
204.375
204.367
204.358
204.35
204.342
204.334
204.326
204.318
204.31
204.302
204.294
204.287
204.279
204.271
204.263
204.256
204.248
204.24
204.233
204.225
204.218
204.211
204.203
204.196
204.189
204.181
204.174
204.167
204.16
204.153
204.146
204.139
204.132
204.126
204.119
204.112
204.106
204.099
204.093
204.086
204.08
204.074
204.068
204.061
204.055
204.05
204.044
204.038
204.032
204.027
204.021
204.016
204.01
204.005
204
203.995
203.99
203.985
203.98
203.976
203.971
203.967
203.962
203.958
203.954
203.95
203.947
203.943
203.939
203.936
203.933
203.93
203.927
203.924
203.921
203.919
203.916
203.914
203.912
203.91
203.909
203.907
203.906
203.905
203.904
203.903
203.903
203.902
203.902
203.902
203.902
203.902
203.903
203.904
203.905
203.907
203.909
203.911
203.913
203.915
203.918
203.921
203.925
203.929
203.933
203.937
203.942
203.947
203.952
203.958
203.964
203.97
203.977
203.984
203.991
203.999
204.008
204.016
204.025
204.035
204.045
204.055
204.066
204.077
204.089
204.101
204.113
204.127
204.14
204.154
204.169
204.184
204.2
204.216
204.232
204.25
204.267
204.286
204.305
204.324
204.344
204.365
204.386
204.408
204.43
204.453
204.477
204.501
204.526
204.551
204.577
204.603
204.631
204.658
204.687
204.716
204.745
204.776
204.807
204.838
204.87
204.903
204.936
204.969
205.004
205.039
205.074
205.11
205.147
205.184
205.221
205.259
205.298
205.337
205.376
205.416
205.457
205.497
205.539
205.58
205.622
205.665
205.708
205.751
205.794
205.838
205.882
205.927
205.972
206.017
206.062
206.108
206.153
206.2
206.246
206.292
206.339
206.386
206.433
206.48
206.527
206.575
206.622
206.67
206.718
206.766
206.814
206.863
206.911
206.959
207.008
207.057
207.105
207.154
207.203
207.252
207.301
207.35
207.399
207.448
207.497
207.546
207.595
207.645
207.694
207.743
207.793
207.842
207.892
207.941
207.991
208.04
208.09
208.139
208.189
208.239
208.288
208.338
208.388
208.438
208.487
208.537
208.587
208.637
208.687
208.737
208.787
208.837
208.886
208.937
208.986
209.037
209.087
209.137
209.187
209.237
209.287
209.337
209.387
209.438
209.488
209.538
209.588
209.639
209.689
209.74
209.79
209.84
209.89
209.941
209.991
210.042
210.092
210.143
210.193
210.244
210.294
210.345
210.395
210.447
210.497
210.548
210.598
210.649
210.7
210.751
210.801
210.852
210.903
210.954
211.004
211.056
211.106
211.158
211.208
211.26
211.31
211.361
211.412
211.464
211.514
211.566
211.616
211.668
211.718
211.77
211.821
211.872
211.923
211.975
212.026
212.077
212.128
212.18
212.231
212.283
212.333
212.385
212.436
212.488
212.539
212.591
212.642
212.694
212.745
212.797
212.848
212.9
212.952
213.004
213.055
213.107
213.158
213.21
213.262
213.314
213.365
213.418
213.469
213.521
213.573
213.625
213.676
213.729
213.78
213.833
213.884
213.937
213.988
214.041
214.092
214.145
214.196
214.249
214.301
214.353
214.405
214.458
214.509
214.562
214.614
214.667
214.718
214.771
214.823
214.876
214.928
214.981
215.033
215.086
215.138
215.191
215.243
215.296
215.348
215.401
215.453
215.506
215.558
215.611
215.663
215.717
215.769
215.822
215.874
215.928
215.98
216.033
216.085
216.139
216.191
216.245
216.297
216.351
216.403
216.456
216.509
216.562
216.615
216.669
216.721
216.775
216.827
216.881
216.933
216.987
217.04
217.094
217.146
217.2
217.253
217.307
217.359
217.413
217.466
217.52
217.573
217.627
217.679
217.734
217.786
217.841
217.893
217.948
218
218.055
218.107
218.162
218.215
218.269
218.322
218.376
218.429
218.484
218.537
218.591
218.644
218.699
218.752
218.807
218.86
218.914
218.967
219.022
219.075
219.13
219.183
219.238
219.291
219.346
219.399
219.454
219.507
219.562
219.615
219.671
219.723
219.779
219.832
219.888
219.94
219.997
220.048
220.105
220.156
220.215
220.265
220.324
220.373
220.433
220.481
220.543
220.589
220.652
220.697
220.762
220.805
220.873
220.913
220.983
221.021
221.093
221.13
221.203
221.239
221.312
221.348
221.421
221.458
221.531
221.567
221.64
221.677
221.75
221.787
221.86
221.896
221.97
222.006
222.079
222.116
222.189
222.226
222.299
222.336
222.409
222.446
222.519
222.556
222.63
222.666
222.74
222.777
222.85
222.887
222.96
222.997
223.071
223.108
223.181
223.218
223.292
223.329
223.402
223.439
223.513
223.55
223.624
223.661
223.734
223.771
223.845
223.882
223.956
223.993
224.067
224.104
224.178
224.215
224.289
224.326
224.4
224.437
224.511
224.548
224.622
224.659
224.734
224.771
224.845
224.882
224.956
224.994
225.068
225.105
225.179
225.217
225.291
225.328
225.403
225.44
225.514
225.552
225.626
225.663
225.738
225.775
225.85
225.887
225.961
225.999
226.073
226.111
226.185
226.223
226.297
226.335
226.409
226.447
226.522
226.559
226.634
226.671
226.746
226.783
226.858
226.896
226.971
227.008
227.083
227.121
227.196
227.234
227.309
227.346
227.422
227.459
227.535
227.573
227.648
227.686
227.762
227.8
227.876
227.914
227.99
228.028
228.104
228.142
228.219
228.257
228.334
228.373
228.45
228.489
228.567
228.606
228.684
228.723
228.802
228.842
228.921
228.961
229.041
229.081
229.163
229.203
229.285
229.325
229.408
229.448
229.533
229.572
229.658
229.699
229.78
229.834
229.898
229.968
230.028
230.093
230.162
230.223
230.292
230.357
230.424
230.49
230.559
230.624
230.694
230.759
230.829
230.895
230.966
231.031
231.103
231.167
231.241
231.303
231.379
231.439
231.516
231.575
231.654
231.71
231.791
231.845
231.927
231.979
232.063
232.112
232.197
232.244
232.33
232.376
232.462
232.507
232.592
232.636
232.722
232.765
232.85
232.893
232.977
233.019
233.102
233.144
233.227
233.269
233.351
233.392
233.474
233.515
233.597
233.637
233.718
233.759
233.84
233.88
233.96
234
234.08
234.12
234.2
234.24
234.319
234.359
234.438
234.478
234.557
234.597
234.676
234.716
234.794
234.834
234.913
234.952
235.031
235.07
235.149
235.188
235.267
235.305
235.385
235.422
235.504
235.539
235.622
235.655
235.74
235.772
235.858
235.888
235.976
236.004
236.093
236.12
236.211
236.237
236.328
236.353
236.445
236.47
236.563
236.588
236.681
236.706
236.801
236.825
236.922
236.946
237.045
237.07
237.172
237.198
237.303
237.331
237.441
237.47
237.585
237.616
237.738
237.77
237.898
237.932
238.067
238.101
238.242
238.277
238.421
238.456
238.603
238.638
238.787
238.817
238.98
)
;

boundaryField
{
    sides
    {
        type            zeroGradient;
    }
    empty
    {
        type            empty;
    }
}


// ************************************************************************* //
