/*--------------------------------*- C++ -*----------------------------------*\
  =========                 |
  \\      /  F ield         | OpenFOAM: The Open Source CFD Toolbox
   \\    /   O peration     | Website:  https://openfoam.org
    \\  /    A nd           | Version:  9
     \\/     M anipulation  |
\*---------------------------------------------------------------------------*/
FoamFile
{
    format      ascii;
    class       volScalarField;
    location    "0.046";
    object      mag(U);
}
// * * * * * * * * * * * * * * * * * * * * * * * * * * * * * * * * * * * * * //

dimensions      [0 1 -1 0 0 0 0];

internalField   nonuniform List<scalar> 
10000
(
228.46
228.488
228.505
228.523
228.541
228.559
228.577
228.595
228.613
228.631
228.649
228.667
228.685
228.703
228.72
228.738
228.756
228.774
228.792
228.81
228.828
228.846
228.864
228.882
228.9
228.918
228.936
228.953
228.971
228.989
229.007
229.025
229.043
229.061
229.079
229.097
229.115
229.133
229.151
229.169
229.186
229.204
229.222
229.24
229.258
229.276
229.294
229.312
229.33
229.348
229.366
229.384
229.402
229.42
229.438
229.456
229.473
229.491
229.509
229.527
229.545
229.563
229.581
229.599
229.617
229.635
229.653
229.67
229.688
229.706
229.724
229.742
229.76
229.778
229.796
229.814
229.832
229.85
229.868
229.885
229.903
229.921
229.939
229.957
229.975
229.993
230.011
230.029
230.047
230.065
230.083
230.101
230.119
230.137
230.154
230.172
230.19
230.208
230.226
230.244
230.262
230.28
230.298
230.316
230.334
230.352
230.37
230.388
230.405
230.423
230.441
230.459
230.477
230.495
230.513
230.531
230.549
230.567
230.584
230.602
230.62
230.638
230.657
230.675
230.693
230.71
230.728
230.745
230.763
230.782
230.801
230.819
230.836
230.854
230.871
230.889
230.907
230.926
230.944
230.962
230.979
230.997
231.015
231.034
231.052
231.07
231.087
231.104
231.122
231.14
231.159
231.177
231.194
231.212
231.23
231.249
231.267
231.284
231.302
231.319
231.337
231.355
231.374
231.393
231.41
231.428
231.445
231.462
231.48
231.499
231.518
231.536
231.554
231.571
231.589
231.606
231.624
231.641
231.659
231.678
231.698
231.716
231.733
231.749
231.766
231.784
231.805
231.826
231.843
231.859
231.874
231.89
231.907
231.928
231.952
231.97
231.985
232
232.016
232.031
232.048
232.07
232.094
232.113
232.129
232.144
232.16
232.176
232.192
232.21
232.232
232.257
232.277
232.293
232.308
232.323
232.339
232.355
232.372
232.395
232.42
232.439
232.454
232.469
232.484
232.499
232.515
232.534
232.559
232.581
232.596
232.611
232.626
232.642
232.658
232.679
232.704
232.723
232.738
232.753
232.768
232.784
232.801
232.825
232.85
232.866
232.882
232.897
232.912
232.928
232.949
232.975
232.994
233.009
233.024
233.039
233.055
233.071
233.091
233.117
233.136
233.152
233.166
233.181
233.196
233.212
233.228
233.25
233.278
233.298
233.313
233.328
233.343
233.358
233.374
233.396
233.424
233.445
233.46
233.475
233.49
233.505
233.52
233.536
233.554
233.579
233.603
233.62
233.635
233.649
233.665
233.68
233.697
233.72
233.746
233.764
233.78
233.795
233.81
233.825
233.842
233.863
233.888
233.906
233.921
233.936
233.951
233.967
233.986
234.01
234.031
234.047
234.063
234.078
234.093
234.109
234.128
234.153
234.175
234.191
234.206
234.221
234.236
234.252
234.271
234.297
234.321
234.338
234.353
234.368
234.383
234.398
234.415
234.437
234.462
234.48
234.495
234.51
234.525
234.541
234.561
234.586
234.605
234.621
234.636
234.651
234.667
234.684
234.708
234.731
234.747
234.763
234.778
234.793
234.809
234.83
234.855
234.874
234.889
234.904
234.92
234.935
234.953
234.977
235
235.016
235.032
235.047
235.062
235.078
235.096
235.12
235.142
235.158
235.173
235.188
235.203
235.218
235.234
235.254
235.285
235.314
235.331
235.346
235.359
235.372
235.387
235.403
235.418
235.437
235.461
235.484
235.5
235.515
235.53
235.545
235.561
235.576
235.592
235.609
235.634
235.667
235.689
235.705
235.719
235.734
235.749
235.764
235.78
235.795
235.811
235.832
235.858
235.879
235.894
235.909
235.925
235.94
235.956
235.975
236
236.023
236.039
236.054
236.069
236.084
236.099
236.114
236.131
236.153
236.181
236.201
236.217
236.232
236.247
236.263
236.282
236.309
236.333
236.349
236.364
236.379
236.394
236.409
236.425
236.443
236.466
236.489
236.505
236.52
236.535
236.55
236.566
236.584
236.608
236.632
236.649
236.664
236.679
236.695
236.71
236.727
236.749
236.775
236.794
236.809
236.824
236.839
236.855
236.871
236.89
236.915
236.936
236.952
236.968
236.983
236.999
237.017
237.039
237.059
237.074
237.09
237.105
237.12
237.136
237.154
237.179
237.205
237.222
237.238
237.253
237.268
237.285
237.305
237.332
237.354
237.369
237.384
237.398
237.411
237.426
237.441
237.457
237.472
237.49
237.519
237.554
237.576
237.591
237.604
237.616
237.631
237.646
237.662
237.68
237.703
237.725
237.741
237.756
237.772
237.787
237.803
237.821
237.844
237.868
237.884
237.9
237.914
237.929
237.944
237.959
237.974
237.99
238.012
238.046
238.078
238.096
238.11
238.123
238.135
238.15
238.165
238.182
238.201
238.225
238.243
238.259
238.274
238.289
238.304
238.319
238.334
238.35
238.37
238.403
238.436
238.455
238.47
238.482
238.494
238.508
238.524
238.539
238.557
238.58
238.603
238.62
238.635
238.651
238.666
238.682
238.698
238.72
238.746
238.765
238.781
238.796
238.811
238.826
238.842
238.858
238.879
238.907
238.927
238.943
238.958
238.973
238.989
239.004
239.021
239.043
239.067
239.085
239.101
239.116
239.13
239.145
239.161
239.176
239.193
239.219
239.256
239.281
239.296
239.31
239.321
239.333
239.348
239.364
239.38
239.399
239.424
239.445
239.461
239.476
239.492
239.507
239.523
239.539
239.561
239.587
239.608
239.623
239.639
239.654
239.67
239.688
239.709
239.727
239.742
239.758
239.773
239.788
239.804
239.82
239.84
239.871
239.907
239.927
239.942
239.955
239.965
239.978
239.994
240.009
240.025
240.046
240.071
240.09
240.106
240.121
240.136
240.152
240.168
240.185
240.207
240.233
240.252
240.268
240.283
240.298
240.313
240.329
240.347
240.372
240.399
240.418
240.433
240.448
240.463
240.479
240.494
240.51
240.529
240.552
240.573
240.589
240.605
240.622
240.64
240.662
240.682
240.698
240.713
240.729
240.744
240.761
240.781
240.806
240.826
240.842
240.857
240.873
240.888
240.904
240.924
240.949
240.971
240.987
241.002
241.018
241.033
241.049
241.067
241.088
241.109
241.126
241.142
241.158
241.175
241.197
241.22
241.237
241.253
241.268
241.284
241.3
241.316
241.337
241.359
241.376
241.391
241.407
241.422
241.438
241.453
241.471
241.496
241.531
241.555
241.57
241.585
241.598
241.613
241.629
241.644
241.66
241.676
241.695
241.714
241.732
241.751
241.772
241.795
241.812
241.828
241.843
241.859
241.874
241.89
241.906
241.927
241.952
241.972
241.988
242.004
242.019
242.035
242.051
242.07
242.095
242.118
242.135
242.15
242.166
242.181
242.197
242.212
242.229
242.246
242.267
242.292
242.317
242.336
242.352
242.368
242.383
242.399
242.414
242.43
242.446
242.465
242.488
242.51
242.526
242.542
242.557
242.573
242.589
242.608
242.632
242.654
242.67
242.686
242.701
242.717
242.733
242.751
242.774
242.797
242.813
242.829
242.844
242.86
242.877
242.897
242.917
242.934
242.95
242.965
242.981
242.996
243.013
243.033
243.065
243.097
243.116
243.131
243.143
243.155
243.169
243.184
243.2
243.217
243.238
243.261
243.279
243.295
243.31
243.326
243.341
243.357
243.375
243.4
243.428
243.446
243.462
243.477
243.493
243.508
243.524
243.542
243.563
243.581
243.597
243.613
243.628
243.644
243.659
243.675
243.691
243.709
243.739
243.777
243.801
243.816
243.83
243.841
243.852
243.867
243.883
243.899
243.917
243.94
243.961
243.977
243.993
244.008
244.024
244.04
244.058
244.082
244.107
244.124
244.14
244.155
244.171
244.187
244.204
244.224
244.249
244.267
244.283
244.299
244.314
244.33
244.347
244.367
244.391
244.41
244.426
244.442
244.457
244.473
244.49
244.511
244.534
244.552
244.568
244.583
244.599
244.615
244.633
244.654
244.675
244.692
244.708
244.725
244.742
244.762
244.784
244.802
244.818
244.833
244.849
244.865
244.881
244.9
244.927
244.951
244.968
244.984
244.998
245.011
245.025
245.04
245.056
245.072
245.089
245.113
245.15
245.181
245.198
245.212
245.224
245.234
245.248
245.263
245.279
245.295
245.316
245.341
245.36
245.376
245.391
245.406
245.421
245.437
245.452
245.468
245.484
245.502
245.53
245.565
245.586
245.601
245.616
245.629
245.644
245.659
245.675
245.691
245.709
245.733
245.755
245.772
245.788
245.803
245.819
245.835
245.851
245.869
245.892
245.916
245.933
245.949
245.964
245.98
245.996
246.012
246.032
246.057
246.078
246.094
246.11
246.126
246.141
246.157
246.175
246.196
246.216
246.233
246.248
246.264
246.279
246.295
246.31
246.326
246.342
246.361
246.392
246.43
246.453
246.468
246.482
246.491
246.498
246.511
246.527
246.542
246.558
246.575
246.596
246.631
246.665
246.684
246.699
246.712
246.722
246.733
246.748
246.764
246.78
246.796
246.813
246.837
246.87
246.893
246.909
246.924
246.937
246.951
246.967
246.982
246.998
247.015
247.035
247.058
247.076
247.091
247.107
247.123
247.138
247.154
247.17
247.189
247.219
247.252
247.272
247.288
247.302
247.314
247.328
247.344
247.359
247.375
247.392
247.41
247.426
247.442
247.458
247.474
247.489
247.506
247.524
247.553
247.592
247.617
247.633
247.648
247.659
247.668
247.683
247.698
247.714
247.731
247.751
247.774
247.793
247.809
247.825
247.841
247.856
247.873
247.89
247.915
247.948
247.97
247.985
248
248.014
248.027
248.042
248.058
248.074
248.092
248.114
248.137
248.154
248.17
248.186
248.202
248.218
248.235
248.255
248.278
248.296
248.312
248.328
248.344
248.36
248.376
248.397
248.421
248.442
248.458
248.474
248.489
248.505
248.521
248.539
248.558
248.576
248.592
248.608
248.624
248.64
248.656
248.674
248.701
248.739
248.764
248.78
248.794
248.806
248.816
248.831
248.846
248.862
248.879
248.899
248.924
248.944
248.96
248.976
248.992
249.008
249.024
249.042
249.065
249.087
249.103
249.119
249.135
249.151
249.167
249.184
249.203
249.223
249.239
249.255
249.271
249.287
249.302
249.318
249.334
249.35
249.369
249.4
249.439
249.462
249.478
249.492
249.502
249.507
249.519
249.534
249.55
249.566
249.583
249.606
249.643
249.679
249.699
249.714
249.728
249.737
249.749
249.764
249.78
249.796
249.812
249.83
249.849
249.866
249.882
249.897
249.913
249.929
249.946
249.967
249.999
250.032
250.051
250.067
250.081
250.092
250.104
250.119
250.135
250.151
250.167
250.183
250.199
250.218
250.245
250.274
250.293
250.309
250.324
250.339
250.355
250.371
250.387
250.403
250.42
250.44
250.463
250.482
250.498
250.514
250.53
250.545
250.562
250.581
250.607
250.63
250.647
250.663
250.678
250.694
250.71
250.726
250.743
250.762
250.782
250.8
250.816
250.831
250.847
250.864
250.882
250.905
250.931
250.949
250.965
250.981
250.997
251.012
251.029
251.046
251.069
251.097
251.118
251.134
251.15
251.165
251.181
251.197
251.213
251.229
251.248
251.269
251.287
251.303
251.319
251.335
251.351
251.367
251.383
251.399
251.421
251.45
251.475
251.492
251.508
251.523
251.536
251.548
251.563
251.579
251.595
251.611
251.627
251.643
251.661
251.688
251.728
251.758
251.775
251.79
251.803
251.812
251.824
251.839
251.855
251.87
251.886
251.902
251.918
251.936
251.959
251.987
252.009
252.025
252.041
252.056
252.072
252.088
252.104
252.119
252.136
252.154
252.179
252.209
252.229
252.245
252.261
252.275
252.29
252.305
252.321
252.337
252.354
252.376
252.402
252.422
252.438
252.454
252.47
252.486
252.501
252.518
252.535
252.552
252.569
252.585
252.601
252.617
252.633
252.649
252.665
252.682
252.708
252.748
252.779
252.796
252.812
252.825
252.835
252.846
252.861
252.877
252.893
252.909
252.926
252.943
252.96
252.975
252.991
253.007
253.023
253.039
253.057
253.08
253.116
253.15
253.168
253.184
253.198
253.206
253.215
253.229
253.245
253.261
253.277
253.296
253.325
253.363
253.387
253.403
253.418
253.43
253.439
253.452
253.467
253.483
253.499
253.515
253.532
253.551
253.576
253.601
253.619
253.635
253.65
253.666
253.681
253.696
253.712
253.728
253.744
253.76
253.777
253.795
253.823
253.861
253.886
253.902
253.917
253.93
253.941
253.955
253.971
253.987
254.003
254.02
254.038
254.056
254.072
254.088
254.104
254.12
254.136
254.152
254.169
254.193
254.23
254.265
254.284
254.3
254.314
254.325
254.335
254.349
254.365
254.381
254.398
254.416
254.437
254.456
254.472
254.488
254.504
254.52
254.536
254.552
254.568
254.586
254.61
254.642
254.666
254.683
254.698
254.713
254.726
254.741
254.757
254.773
254.789
254.807
254.83
254.854
254.871
254.887
254.903
254.919
254.935
254.952
254.971
254.99
255.007
255.023
255.039
255.055
255.071
255.087
255.103
255.121
255.145
255.182
255.212
255.229
255.245
255.259
255.269
255.281
255.296
255.312
255.328
255.345
255.362
255.38
255.397
255.413
255.429
255.445
255.461
255.478
255.494
255.512
255.54
255.578
255.603
255.62
255.635
255.648
255.656
255.668
255.683
255.699
255.715
255.732
255.754
255.788
255.82
255.838
255.854
255.868
255.878
255.885
255.899
255.915
255.931
255.947
255.963
255.982
256.01
256.044
256.066
256.082
256.097
256.111
256.124
256.139
256.155
256.172
256.188
256.207
256.231
256.251
256.267
256.283
256.299
256.316
256.332
256.35
256.37
256.39
256.407
256.423
256.439
256.455
256.471
256.487
256.504
256.521
256.541
256.569
256.593
256.609
256.626
256.641
256.656
256.671
256.686
256.702
256.719
256.735
256.752
256.771
256.802
256.838
256.858
256.874
256.889
256.902
256.914
256.929
256.945
256.961
256.977
256.994
257.015
257.036
257.054
257.07
257.087
257.103
257.121
257.141
257.162
257.18
257.196
257.213
257.229
257.244
257.26
257.276
257.292
257.309
257.325
257.341
257.357
257.374
257.392
257.419
257.46
257.491
257.508
257.524
257.539
257.552
257.559
257.57
257.585
257.601
257.617
257.633
257.649
257.665
257.681
257.698
257.714
257.73
257.748
257.772
257.81
257.849
257.87
257.886
257.901
257.913
257.919
257.929
257.943
257.959
257.976
257.992
258.008
258.024
258.04
258.057
258.079
258.112
258.145
258.164
258.18
258.195
258.207
258.219
258.234
258.25
258.266
258.282
258.298
258.314
258.33
258.348
258.369
258.397
258.42
258.437
258.453
258.469
258.484
258.499
258.515
258.531
258.547
258.563
258.58
258.596
258.617
258.649
258.684
258.704
258.72
258.735
258.748
258.757
258.77
258.786
258.802
258.819
258.836
258.856
258.881
258.902
258.919
258.935
258.951
258.966
258.98
258.995
259.01
259.027
259.043
259.059
259.076
259.096
259.128
259.169
259.195
259.211
259.227
259.24
259.248
259.255
259.269
259.285
259.301
259.317
259.334
259.35
259.367
259.389
259.419
259.445
259.462
259.478
259.494
259.509
259.523
259.539
259.556
259.572
259.588
259.606
259.626
259.646
259.663
259.68
259.696
259.712
259.729
259.748
259.773
259.804
259.825
259.841
259.857
259.872
259.884
259.895
259.91
259.926
259.942
259.959
259.975
259.992
260.014
260.048
260.077
260.095
260.111
260.126
260.14
260.152
260.168
260.184
260.2
260.216
260.233
260.249
260.266
260.288
260.317
260.339
260.356
260.372
260.388
260.404
260.42
260.436
260.452
260.468
260.485
260.501
260.518
260.537
260.561
260.584
260.602
260.618
260.634
260.65
260.665
260.679
260.695
260.711
260.727
260.744
260.76
260.778
260.804
260.843
260.874
260.892
260.908
260.923
260.934
260.941
260.953
260.969
260.985
261.001
261.018
261.035
261.056
261.084
261.109
261.127
261.143
261.159
261.174
261.187
261.201
261.217
261.233
261.249
261.266
261.282
261.299
261.32
261.35
261.384
261.403
261.42
261.435
261.449
261.462
261.478
261.494
261.51
261.527
261.544
261.563
261.582
261.598
261.615
261.631
261.647
261.663
261.68
261.697
261.715
261.742
261.773
261.793
261.809
261.825
261.841
261.855
261.869
261.885
261.902
261.918
261.934
261.951
261.969
261.991
262.014
262.032
262.049
262.065
262.081
262.097
262.113
262.129
262.145
262.161
262.178
262.195
262.214
262.243
262.28
262.303
262.319
262.335
262.349
262.358
262.368
262.383
262.399
262.415
262.432
262.449
262.47
262.497
262.52
262.537
262.553
262.569
262.584
262.598
262.613
262.629
262.646
262.662
262.679
262.697
262.724
262.761
262.787
262.804
262.82
262.835
262.846
262.854
262.868
262.884
262.9
262.917
262.933
262.95
262.968
262.994
263.024
263.045
263.061
263.077
263.093
263.108
263.122
263.138
263.154
263.17
263.187
263.203
263.222
263.245
263.273
263.293
263.31
263.326
263.342
263.358
263.373
263.388
263.405
263.421
263.437
263.454
263.471
263.49
263.514
263.54
263.558
263.574
263.591
263.606
263.621
263.633
263.647
263.663
263.679
263.695
263.712
263.729
263.749
263.782
263.825
263.852
263.869
263.885
263.9
263.91
263.914
263.924
263.939
263.955
263.972
263.988
264.004
264.021
264.038
264.056
264.081
264.116
264.142
264.16
264.176
264.191
264.205
264.22
264.236
264.253
264.269
264.286
264.305
264.325
264.343
264.359
264.376
264.392
264.409
264.425
264.442
264.458
264.475
264.492
264.508
264.524
264.541
264.557
264.574
264.591
264.61
264.638
264.678
264.705
264.723
264.739
264.754
264.766
264.777
264.792
264.808
264.824
264.841
264.858
264.876
264.895
264.912
264.928
264.945
264.961
264.977
264.992
265.008
265.024
265.041
265.057
265.074
265.091
265.109
265.135
265.175
265.209
265.228
265.245
265.26
265.274
265.282
265.288
265.302
265.318
265.334
265.351
265.367
265.384
265.4
265.417
265.433
265.45
265.467
265.489
265.525
265.561
265.582
265.599
265.614
265.629
265.638
265.647
265.662
265.678
265.694
265.711
265.728
265.748
265.773
265.794
265.811
265.827
265.844
265.86
265.875
265.891
265.907
265.924
265.941
265.958
265.979
266.01
266.043
266.063
266.079
266.095
266.109
266.119
266.129
266.143
266.16
266.176
266.193
266.209
266.226
266.245
266.27
266.299
266.319
266.336
266.352
266.369
266.384
266.4
266.416
266.432
266.449
266.465
266.482
266.5
266.519
266.536
266.552
266.569
266.586
266.602
266.619
266.639
266.665
266.692
266.71
266.727
266.743
266.759
266.774
266.79
266.806
266.823
266.839
266.857
266.877
266.906
266.935
266.953
266.97
266.986
267.001
267.012
267.02
267.034
267.051
267.067
267.084
267.101
267.12
267.147
267.182
267.205
267.221
267.238
267.253
267.267
267.276
267.289
267.305
267.321
267.337
267.354
267.37
267.387
267.403
267.42
267.437
267.454
267.475
267.508
267.55
267.575
267.592
267.608
267.623
267.635
267.64
267.648
267.662
267.679
267.695
267.712
267.728
267.745
267.763
267.788
267.822
267.847
267.864
267.881
267.896
267.91
267.92
267.929
267.944
267.96
267.976
267.993
268.009
268.026
268.043
268.061
268.084
268.122
268.158
268.178
268.195
268.211
268.225
268.236
268.246
268.261
268.278
268.294
268.311
268.328
268.349
268.373
268.394
268.41
268.427
268.443
268.46
268.475
268.491
268.508
268.524
268.541
268.558
268.577
268.601
268.626
268.645
268.661
268.678
268.694
268.711
268.727
268.744
268.76
268.777
268.795
268.815
268.833
268.85
268.867
268.883
268.9
268.916
268.933
268.95
268.968
268.989
269.016
269.038
269.055
269.071
269.088
269.104
269.119
269.134
269.15
269.167
269.183
269.2
269.217
269.235
269.258
269.283
269.302
269.319
269.335
269.352
269.367
269.382
269.398
269.414
269.431
269.448
269.465
269.484
269.51
269.545
269.568
269.585
269.602
269.617
269.63
269.639
269.651
269.667
269.684
269.7
269.717
269.736
269.761
269.792
269.813
269.83
269.847
269.863
269.878
269.893
269.909
269.926
269.943
269.959
269.977
269.996
270.014
270.031
270.048
270.064
270.081
270.096
270.111
270.126
270.142
270.159
270.175
270.192
270.209
270.227
270.249
270.285
270.325
270.347
270.364
270.381
270.396
270.409
270.415
270.425
270.441
270.457
270.474
270.49
270.507
270.525
270.547
270.574
270.595
270.612
270.629
270.646
270.662
270.677
270.693
270.709
270.725
270.742
270.759
270.776
270.795
270.82
270.843
270.861
270.877
270.894
270.911
270.927
270.943
270.959
270.976
270.993
271.01
271.027
271.047
271.068
271.086
271.102
271.119
271.136
271.152
271.169
271.186
271.204
271.228
271.26
271.284
271.302
271.318
271.335
271.35
271.361
271.372
271.387
271.404
271.42
271.437
271.455
271.475
271.504
271.531
271.55
271.566
271.583
271.599
271.613
271.625
271.64
271.656
271.673
271.69
271.707
271.724
271.745
271.769
271.79
271.808
271.824
271.841
271.858
271.874
271.891
271.908
271.924
271.941
271.959
271.979
272.001
272.019
272.037
272.054
272.071
272.088
272.107
272.126
272.143
272.16
272.177
272.193
272.21
272.227
272.243
272.26
272.277
272.294
272.314
272.341
272.372
272.392
272.409
272.425
272.441
272.456
272.469
272.483
272.5
272.516
272.533
272.55
272.569
272.59
272.61
272.627
272.644
272.66
272.677
272.692
272.707
272.723
272.74
272.757
272.774
272.792
272.814
272.846
272.873
272.891
272.907
272.924
272.939
272.952
272.966
272.982
272.999
273.015
273.033
273.052
273.076
273.104
273.123
273.14
273.157
273.173
273.188
273.2
273.215
273.231
273.248
273.265
273.282
273.301
273.325
273.35
273.368
273.385
273.402
273.418
273.435
273.451
273.465
273.481
273.498
273.514
273.531
273.548
273.564
273.581
273.598
273.615
273.631
273.648
273.666
273.685
273.712
273.753
273.782
273.8
273.817
273.834
273.849
273.862
273.867
273.874
273.889
273.905
273.922
273.939
273.955
273.972
273.989
274.006
274.023
274.04
274.062
274.095
274.134
274.156
274.173
274.19
274.206
274.221
274.23
274.238
274.252
274.269
274.285
274.302
274.319
274.337
274.357
274.383
274.407
274.425
274.442
274.458
274.475
274.491
274.505
274.517
274.533
274.549
274.566
274.583
274.6
274.617
274.637
274.664
274.698
274.72
274.737
274.754
274.771
274.786
274.799
274.807
274.82
274.836
274.852
274.869
274.886
274.902
274.919
274.936
274.953
274.97
274.988
275.01
275.043
275.08
275.101
275.118
275.135
275.151
275.166
275.178
275.191
275.207
275.224
275.241
275.258
275.275
275.294
275.315
275.333
275.35
275.367
275.383
275.4
275.417
275.434
275.45
275.467
275.485
275.504
275.527
275.551
275.57
275.586
275.603
275.62
275.637
275.653
275.67
275.685
275.698
275.713
275.729
275.746
275.763
275.78
275.797
275.813
275.831
275.848
275.869
275.9
275.939
275.962
275.979
275.996
276.013
276.028
276.041
276.051
276.066
276.082
276.099
276.116
276.133
276.15
276.168
276.186
276.204
276.221
276.237
276.254
276.271
276.288
276.305
276.323
276.344
276.371
276.397
276.415
276.432
276.449
276.466
276.483
276.499
276.515
276.527
276.538
276.553
276.569
276.586
276.603
276.62
276.637
276.653
276.67
276.688
276.707
276.732
276.771
276.804
276.823
276.84
276.857
276.873
276.888
276.898
276.909
276.925
276.942
276.958
276.975
276.992
277.009
277.026
277.044
277.062
277.079
277.095
277.112
277.129
277.147
277.165
277.187
277.215
277.236
277.253
277.27
277.287
277.304
277.32
277.335
277.35
277.367
277.384
277.4
277.417
277.435
277.453
277.476
277.5
277.519
277.537
277.553
277.57
277.587
277.603
277.617
277.632
277.648
277.665
277.682
277.699
277.717
277.736
277.762
277.791
277.81
277.828
277.845
277.861
277.878
277.894
277.91
277.926
277.943
277.96
277.977
277.994
278.011
278.029
278.047
278.064
278.08
278.097
278.114
278.131
278.149
278.17
278.195
278.218
278.236
278.253
278.27
278.287
278.304
278.32
278.337
278.354
278.371
278.388
278.406
278.427
278.447
278.465
278.482
278.499
278.516
278.533
278.549
278.565
278.582
278.599
278.616
278.632
278.65
278.667
278.686
278.709
278.734
278.752
278.77
278.787
278.803
278.82
278.836
278.851
278.863
278.878
278.895
278.912
278.929
278.946
278.963
278.982
279.006
279.043
279.073
279.092
279.109
279.126
279.142
279.157
279.167
279.177
279.193
279.21
279.227
279.244
279.261
279.28
279.301
279.325
279.343
279.361
279.377
279.394
279.411
279.427
279.442
279.457
279.474
279.491
279.508
279.525
279.542
279.561
279.585
279.612
279.632
279.65
279.667
279.684
279.7
279.717
279.733
279.75
279.767
279.784
279.801
279.819
279.837
279.856
279.873
279.89
279.907
279.924
279.941
279.958
279.975
279.992
280.01
280.031
280.059
280.082
280.1
280.117
280.134
280.151
280.167
280.181
280.194
280.21
280.227
280.244
280.261
280.278
280.296
280.318
280.344
280.365
280.382
280.399
280.416
280.433
280.449
280.465
280.48
280.497
280.514
280.531
280.549
280.566
280.586
280.605
280.623
280.64
280.657
280.674
280.691
280.707
280.723
280.74
280.757
280.774
280.792
280.81
280.832
280.86
280.884
280.901
280.919
280.935
280.952
280.969
280.986
281.003
281.02
281.037
281.055
281.074
281.097
281.12
281.138
281.155
281.173
281.189
281.206
281.222
281.235
281.25
281.266
281.283
281.3
281.317
281.335
281.353
281.375
281.4
281.42
281.438
281.455
281.472
281.489
281.505
281.521
281.537
281.554
281.571
281.588
281.605
281.623
281.641
281.661
281.682
281.7
281.717
281.734
281.751
281.768
281.785
281.801
281.818
281.836
281.853
281.87
281.89
281.916
281.942
281.961
281.978
281.995
282.012
282.028
282.043
282.056
282.071
282.088
282.105
282.122
282.14
282.159
282.181
282.205
282.224
282.241
282.258
282.276
282.292
282.308
282.32
282.335
282.351
282.368
282.385
282.403
282.42
282.439
282.465
282.497
282.519
282.537
282.554
282.571
282.588
282.603
282.615
282.624
282.639
282.656
282.673
282.69
282.707
282.725
282.744
282.768
282.799
282.82
282.838
282.855
282.872
282.889
282.905
282.918
282.925
282.937
282.953
282.97
282.988
283.005
283.022
283.039
283.057
283.077
283.107
283.147
283.172
283.19
283.207
283.224
283.24
283.255
283.264
283.269
283.282
283.299
283.316
283.333
283.35
283.368
283.388
283.414
283.445
283.466
283.484
283.501
283.518
283.535
283.552
283.568
283.581
283.595
283.611
283.628
283.645
283.662
283.679
283.695
283.709
283.725
283.742
283.759
283.776
283.793
283.81
283.828
283.846
283.867
283.898
283.937
283.96
283.978
283.995
284.012
284.028
284.043
284.053
284.06
284.074
284.09
284.107
284.125
284.142
284.16
284.179
284.204
284.229
284.248
284.265
284.282
284.299
284.316
284.333
284.348
284.36
284.373
284.389
284.406
284.423
284.44
284.457
284.474
284.491
284.509
284.526
284.546
284.572
284.61
284.639
284.658
284.675
284.692
284.709
284.726
284.741
284.752
284.76
284.774
284.79
284.807
284.824
284.841
284.859
284.876
284.893
284.91
284.927
284.945
284.965
284.989
285.014
285.034
285.051
285.068
285.086
285.103
285.12
285.136
285.151
285.166
285.182
285.199
285.216
285.233
285.25
285.268
285.285
285.304
285.327
285.354
285.376
285.394
285.411
285.428
285.445
285.462
285.479
285.496
285.512
285.526
285.538
285.554
285.571
285.588
285.605
285.622
285.64
285.657
285.674
285.692
285.71
285.73
285.758
285.79
285.811
285.829
285.846
285.863
285.88
285.897
285.913
285.925
285.936
285.951
285.967
285.984
286.002
286.019
286.036
286.053
286.07
286.088
286.105
286.124
286.146
286.176
286.199
286.217
286.235
286.252
286.269
286.286
286.302
286.314
286.326
286.342
286.359
286.376
286.393
286.411
286.428
286.447
286.471
286.498
286.518
286.536
286.553
286.57
286.587
286.604
286.621
286.637
286.655
286.672
286.689
286.706
286.725
286.745
286.766
286.785
286.802
286.819
286.837
286.854
286.871
286.887
286.904
286.922
286.939
286.956
286.974
286.992
287.012
287.03
287.048
287.065
287.082
287.1
287.117
287.133
287.147
287.16
287.176
287.193
287.21
287.228
287.245
287.262
287.28
287.301
287.33
287.362
287.383
287.401
287.418
287.435
287.452
287.468
287.48
287.491
287.506
287.524
287.541
287.558
287.576
287.594
287.617
287.643
287.663
287.681
287.698
287.715
287.733
287.749
287.765
287.781
287.798
287.815
287.833
287.85
287.868
287.887
287.908
287.926
287.943
287.961
287.978
287.995
288.012
288.027
288.041
288.057
288.074
288.091
288.108
288.126
288.143
288.161
288.181
288.208
288.236
288.256
288.274
288.291
288.308
288.325
288.342
288.358
288.37
288.38
288.396
288.413
288.43
288.448
288.465
288.482
288.5
288.518
288.538
288.565
288.594
288.614
288.631
288.649
288.666
288.683
288.699
288.713
288.725
288.741
288.758
288.776
288.793
288.811
288.829
288.851
288.878
288.9
288.918
288.935
288.952
288.969
288.986
289.001
289.014
289.028
289.045
289.062
289.08
289.097
289.115
289.134
289.156
289.18
289.199
289.217
289.234
289.251
289.268
289.285
289.301
289.314
289.33
289.347
289.364
289.382
289.399
289.417
289.436
289.459
289.485
289.505
289.523
289.541
289.558
289.575
289.592
289.607
289.621
289.637
289.654
289.671
289.688
289.706
289.724
289.743
289.765
289.785
289.803
289.821
289.838
289.856
289.873
289.889
289.905
289.921
289.938
289.955
289.972
289.99
290.008
290.026
290.047
290.074
290.097
290.115
290.132
290.15
290.167
290.184
290.201
290.218
290.235
290.248
290.26
290.276
290.293
290.311
290.328
290.345
290.363
290.38
290.398
290.415
290.433
290.451
290.472
290.501
290.527
290.546
290.564
290.581
290.598
290.616
290.633
290.65
290.665
290.677
290.691
290.708
290.725
290.742
290.76
290.777
290.795
290.812
290.83
290.847
290.866
290.888
290.914
290.934
290.952
290.969
290.987
291.004
291.021
291.038
291.053
291.068
291.085
291.102
291.119
291.137
291.154
291.172
291.191
291.213
291.234
291.252
291.27
291.287
291.305
291.322
291.339
291.356
291.37
291.381
291.394
291.411
291.428
291.446
291.463
291.481
291.498
291.516
291.535
291.559
291.59
291.613
291.631
291.649
291.667
291.684
291.701
291.716
291.731
291.748
291.765
291.783
291.8
291.818
291.837
291.86
291.89
291.912
291.93
291.948
291.966
291.983
292
292.016
292.028
292.034
292.046
292.062
292.079
292.097
292.114
292.132
292.149
292.167
292.184
292.202
292.22
292.239
292.264
292.293
292.315
292.333
292.35
292.368
292.385
292.403
292.42
292.436
292.451
292.466
292.483
292.5
292.518
292.535
292.553
292.57
292.587
292.604
292.619
292.633
292.65
292.667
292.684
292.702
292.719
292.737
292.755
292.775
292.8
292.825
292.844
292.862
292.879
292.897
292.914
292.931
292.948
292.965
292.983
293
293.018
293.036
293.055
293.076
293.096
293.113
293.13
293.148
293.165
293.181
293.198
293.213
293.23
293.248
293.265
293.283
293.302
293.321
293.344
293.364
293.382
293.399
293.417
293.434
293.45
293.465
293.475
293.486
293.503
293.52
293.537
293.555
293.572
293.59
293.61
293.634
293.668
293.694
293.714
293.733
293.75
293.767
293.784
293.8
293.812
293.822
293.835
293.851
293.869
293.887
293.905
293.923
293.943
293.967
293.994
294.015
294.033
294.05
294.067
294.084
294.101
294.117
294.131
294.146
294.164
294.181
294.199
294.217
294.235
294.253
294.271
294.288
294.305
294.322
294.338
294.352
294.366
294.383
294.4
294.418
294.436
294.454
294.472
294.491
294.516
294.546
294.567
294.585
294.603
294.621
294.638
294.655
294.671
294.685
294.701
294.718
294.735
294.753
294.77
294.789
294.807
294.825
294.843
294.861
294.878
294.896
294.913
294.928
294.942
294.957
294.974
294.991
295.008
295.026
295.044
295.063
295.084
295.111