/*--------------------------------*- C++ -*----------------------------------*\
  =========                 |
  \\      /  F ield         | OpenFOAM: The Open Source CFD Toolbox
   \\    /   O peration     | Website:  https://openfoam.org
    \\  /    A nd           | Version:  9
     \\/     M anipulation  |
\*---------------------------------------------------------------------------*/
FoamFile
{
    format      ascii;
    class       volScalarField;
    location    "0.046";
    object      p;
}
// * * * * * * * * * * * * * * * * * * * * * * * * * * * * * * * * * * * * * //

dimensions      [1 -1 -2 0 0 0 0];

internalField   nonuniform List<scalar> 
10000
(
43400.2
43394.9
43391.7
43388.3
43384.9
43381.5
43378.1
43374.7
43371.3
43367.9
43364.5
43361.1
43357.7
43354.3
43350.9
43347.6
43344.2
43340.8
43337.4
43334
43330.6
43327.2
43323.8
43320.4
43317
43313.7
43310.3
43306.9
43303.5
43300.1
43296.7
43293.3
43290
43286.6
43283.2
43279.8
43276.4
43273
43269.6
43266.2
43262.8
43259.5
43256.1
43252.7
43249.3
43245.9
43242.5
43239.1
43235.7
43232.3
43229
43225.6
43222.2
43218.8
43215.4
43212
43208.7
43205.3
43201.9
43198.5
43195.1
43191.7
43188.4
43185
43181.6
43178.2
43174.9
43171.5
43168.1
43164.7
43161.3
43158
43154.6
43151.2
43147.8
43144.4
43141.1
43137.7
43134.3
43130.9
43127.6
43124.2
43120.8
43117.4
43114
43110.7
43107.3
43103.9
43100.5
43097.2
43093.8
43090.4
43087.1
43083.7
43080.3
43076.9
43073.5
43070.1
43066.8
43063.5
43060.1
43056.7
43053.3
43049.9
43046.5
43043.2
43039.8
43036.5
43033.1
43029.7
43026.3
43022.9
43019.6
43016.3
43012.9
43009.5
43006.1
43002.7
42999.3
42995.9
42992.6
42989.3
42986
42982.7
42979.3
42975.8
42972.3
42968.9
42965.5
42962.3
42959.1
42955.8
42952.4
42948.9
42945.4
42942
42938.7
42935.5
42932.1
42928.7
42925.3
42921.9
42918.5
42915.3
42912
42908.6
42905.1
42901.6
42898.3
42894.9
42891.7
42888.3
42884.9
42881.5
42878.2
42874.9
42871.6
42868.2
42864.8
42861.3
42857.9
42854.6
42851.5
42848.3
42844.9
42841.3
42837.8
42834.4
42831
42827.8
42824.6
42821.4
42818
42814.5
42811.1
42807.7
42804.3
42800.9
42797.5
42794.4
42791.4
42788.1
42784.5
42780.8
42777.2
42773.9
42771.3
42768.4
42764.8
42761
42757.2
42753.5
42750
42747.3
42745
42741.5
42737.7
42733.9
42730.1
42726.4
42722.9
42720.2
42718.1
42714.8
42711
42707.3
42703.5
42699.8
42696.2
42692.8
42690.2
42688.2
42685.2
42681.4
42677.6
42673.8
42670
42666.3
42662.9
42660.4
42658.5
42655.1
42651.3
42647.4
42643.5
42639.7
42636
42632.9
42630.9
42628.1
42624.3
42620.4
42616.6
42612.8
42609.2
42606.4
42604.4
42601
42597.2
42593.3
42589.5
42585.7
42582.3
42580.1
42577.9
42574.3
42570.4
42566.6
42562.8
42559.2
42556.4
42554.5
42551.3
42547.5
42543.6
42539.8
42536
42532.4
42529.5
42527.5
42524.4
42520.6
42516.7
42512.9
42509
42505.3
42501.7
42499.1
42497.5
42494.5
42490.7
42486.8
42482.9
42479.2
42475.6
42472.8
42471.3
42468.5
42464.7
42460.8
42456.9
42453
42449.2
42445.5
42442.3
42440.3
42438
42434.3
42430.5
42426.6
42422.8
42419
42415.5
42413.1
42411.3
42408
42404.1
42400.3
42396.4
42392.7
42389.1
42386.4
42384.3
42380.9
42377.1
42373.3
42369.5
42365.8
42362.5
42360.4
42357.7
42354
42350.1
42346.3
42342.5
42338.9
42335.7
42333.8
42331.2
42327.5
42323.6
42319.8
42316
42312.4
42309.1
42307.3
42305.1
42301.5
42297.7
42293.8
42290
42286.2
42282.7
42280.1
42278
42274.6
42270.8
42267
42263.2
42259.6
42256.6
42254.5
42251.4
42247.6
42243.8
42240
42236.3
42233
42230.7
42228.2
42224.6
42220.8
42217
42213.3
42209.7
42206.8
42204.8
42201.6
42197.8
42194
42190.2
42186.5
42183.2
42181
42178.5
42174.9
42171.1
42167.3
42163.5
42159.9
42156.6
42154.4
42151.8
42148.1
42144.3
42140.4
42136.6
42132.8
42129.3
42126.3
42125.4
42123.9
42120.3
42116.5
42112.3
42108.3
42104.4
42100.7
42097
42093.8
42091.7
42089.2
42085.5
42081.7
42077.9
42074.1
42070.3
42066.5
42062.8
42059.5
42057.4
42056.9
42054.2
42050.4
42046.6
42042.7
42038.9
42035.1
42031.3
42027.6
42024.1
42021.2
42019.4
42016.5
42012.8
42009
42005.2
42001.4
41997.8
41994.7
41992.8
41990.3
41986.6
41982.8
41978.9
41975.1
41971.3
41967.6
41964.1
41961.5
41960
41957
41953.3
41949.5
41945.7
41942.1
41939
41937.3
41935
41931.4
41927.6
41923.7
41919.9
41916.2
41912.5
41909.2
41906.9
41904.3
41900.7
41897
41893.2
41889.4
41885.8
41882.5
41880.2
41878
41874.5
41870.7
41866.9
41863.2
41859.5
41856
41853.3
41851.5
41848.4
41844.6
41840.8
41837.1
41833.3
41829.7
41826.6
41824.6
41821.9
41818.3
41814.5
41810.8
41807.1
41803.9
41801.4
41798.3
41794.6
41790.9
41787.1
41783.4
41779.7
41776.5
41774.6
41772.6
41769.2
41765.4
41761.7
41758
41754.4
41751.6
41750
41747.2
41743.5
41739.7
41735.7
41731.6
41727.7
41724
41720.2
41716.6
41713.5
41712
41711.8
41709
41705.2
41701.1
41696.8
41693
41689.2
41685.6
41682.4
41680.1
41677.4
41673.8
41670.1
41666.3
41662.6
41658.9
41655.7
41653.4
41651
41647.5
41643.7
41639.9
41636
41632.2
41628.4
41624.7
41621.3
41618.5
41618.3
41617.3
41613.9
41610
41605.8
41601.6
41597.8
41594
41590.5
41587.5
41585.2
41582
41578.3
41574.5
41570.7
41566.9
41563.2
41559.5
41556
41553.1
41552.5
41551.9
41548.6
41544.8
41540.5
41536.2
41532.3
41528.6
41525
41521.6
41519.2
41516.9
41513.4
41509.7
41505.9
41502.2
41498.5
41495.1
41492.4
41490.6
41487.5
41483.8
41480.1
41476.3
41472.6
41468.9
41465.5
41462.7
41461.2
41458.3
41454.7
41450.9
41447.2
41443.5
41439.8
41436.4
41433.8
41431.6
41428.3
41424.6
41420.8
41417
41413.2
41409.5
41405.9
41402.7
41400.6
41400.8
41398.6
41394.9
41390.9
41386.4
41382.1
41378.4
41374.7
41371.1
41368.1
41366.2
41363.4
41359.7
41356
41352.3
41348.6
41344.9
41341.5
41338.8
41337.2
41334.2
41330.6
41326.8
41323.2
41319.6
41316.4
41313.7
41310.3
41306.7
41303
41299.2
41295.5
41291.9
41288.4
41285.5
41284.7
41284.5
41281.4
41277.6
41273.5
41268.9
41264.8
41261.1
41257.5
41254
41251.1
41249.1
41246
41242.4
41238.7
41235
41231.3
41227.7
41224.3
41221.9
41220.1
41216.9
41213.2
41209.5
41205.8
41202.1
41198.5
41195.3
41193.2
41191.7
41188.5
41184.8
41181
41177.3
41173.6
41169.9
41166.4
41163.3
41161
41158.1
41154.6
41151.1
41147.6
41144.4
41141.9
41138.9
41135.3
41131.6
41127.9
41124.3
41120.8
41117.9
41115.9
41113
41109.4
41105.7
41102
41098.4
41094.9
41091.9
41090
41087.4
41083.8
41080.2
41076.5
41072.8
41069.2
41065.9
41063.3
41060.6
41057.2
41053.6
41050.1
41046.7
41044
41041.7
41038.4
41034.7
41031.1
41027.4
41023.8
41020.4
41017.7
41015.1
41011.7
41008
41004.3
41000.7
40997
40993.4
40990.2
40988.1
40988
40985.6
40982
40978.2
40974.2
40970.4
40966.7
40963
40959.4
40956
40952.8
40949.8
40946.6
40943.5
40940.9
40938.5
40935.2
40931.5
40927.9
40924.2
40920.6
40916.9
40913.5
40910.7
40908.8
40905.9
40902.3
40898.6
40894.9
40891.3
40887.8
40884.7
40882.8
40880.5
40877
40873.3
40869.7
40866
40862.3
40858.7
40855.2
40852
40849.2
40847.2
40845.3
40842.2
40838.6
40835
40831.4
40827.7
40824.1
40820.4
40816.9
40813.8
40811.6
40809
40805.5
40801.8
40798.2
40794.6
40791.1
40788
40785.8
40783.3
40779.8
40776.2
40772.5
40768.9
40765.4
40762.2
40760
40757.5
40754
40750.4
40746.8
40743.2
40739.8
40736.9
40734.2
40730.7
40727.1
40723.5
40719.8
40716.2
40712.8
40710
40709.4
40708.5
40705.2
40701.5
40697.4
40693
40689.2
40685.6
40682
40678.6
40675.9
40673.7
40670.4
40666.8
40663.2
40659.6
40656
40652.5
40649.3
40647.3
40645.8
40642.6
40638.9
40635.3
40631.6
40628
40624.5
40621.2
40618.5
40615.4
40611.8
40608.2
40604.6
40600.9
40597.3
40593.7
40590.2
40587.2
40586
40586.4
40584
40580.3
40576.4
40571.9
40567.7
40564
40560.4
40556.9
40553.7
40551.3
40548.6
40545.1
40541.5
40537.9
40534.3
40530.8
40527.6
40525.4
40523.4
40520.1
40516.5
40512.9
40509.3
40505.7
40502.4
40499.7
40497.6
40494.5
40490.9
40487.3
40483.6
40480.1
40476.7
40473.8
40471.8
40468.7
40465.2
40461.6
40458
40454.4
40451.1
40448.3
40446.1
40442.9
40439.3
40435.7
40432.1
40428.6
40425.4
40422.8
40420.2
40416.8
40413.3
40409.8
40406.4
40403.7
40401.3
40398
40394.4
40390.8
40387.2
40383.6
40380.2
40377.3
40375.6
40373.5
40370.1
40366.4
40362.7
40358.6
40354.7
40351.1
40347.5
40344
40340.8
40338.6
40338.9
40337.7
40334.2
40330.5
40326.3
40321.6
40317.8
40314.2
40310.6
40307.2
40304.5
40302.5
40299.5
40296
40292.4
40288.7
40285
40281.4
40277.8
40274.2
40270.8
40267.8
40266.2
40265.9
40263.1
40259.5
40255.7
40251.8
40248
40244.4
40240.9
40237.4
40234.3
40232.1
40229.6
40226.2
40222.7
40219.1
40215.5
40211.9
40208.5
40205.3
40203.1
40200.9
40197.5
40194
40190.4
40186.8
40183.3
40179.9
40177
40175.1
40172.4
40168.9
40165.3
40161.7
40158.2
40154.7
40151.4
40148.8
40146
40142.6
40139
40135.4
40131.8
40128.2
40124.6
40121.1
40117.7
40114.8
40113.8
40114.1
40111.5
40107.9
40104.1
40099.4
40094.3
40090.4
40086.8
40083.2
40079.7
40076.4
40073.8
40073.6
40073.1
40070
40066.3
40062.4
40057.7
40053.5
40049.8
40046.3
40042.7
40039.3
40036.1
40033.9
40033.3
40030.9
40027.4
40023.7
40019.8
40016
40012.3
40008.8
40005.3
40002
39999.2
39996.8
39993.6
39990
39986.5
39982.9
39979.4
39975.9
39972.5
39969.6
39968.4
39967.8
39964.9
39961.3
39957.5
39953.3
39949.5
39945.9
39942.4
39938.9
39935.6
39932.4
39929
39925.4
39921.9
39918.4
39914.8
39911.5
39908.5
39907.1
39907.7
39905.5
39902
39898.2
39893.9
39889.4
39885.6
39882.1
39878.6
39875.2
39872.4
39870.2
39867.2
39863.7
39860.2
39856.6
39853.1
39849.7
39846.6
39844.6
39843.9
39841.3
39837.8
39834.1
39830.2
39826.3
39822.7
39819.2
39815.7
39812.5
39810
39807.8
39804.5
39801
39797.5
39794
39790.5
39787.2
39784.5
39782.2
39779
39775.5
39772
39768.5
39765
39761.6
39758.8
39756.9
39754.1
39750.7
39747.2
39743.6
39740.1
39736.7
39733.4
39730.6
39727.4
39724
39720.5
39716.9
39713.4
39710.1
39707
39705.4
39705.7
39703.5
39700
39696.3
39692.1
39687.7
39684
39680.4
39677
39673.6
39670.9
39669
39666.1
39662.7
39659.2
39655.7
39652.2
39648.8
39645.6
39643.3
39640.8
39637.5
39634
39630.5
39627
39623.5
39620.2
39617.3
39614.5
39611.1
39607.6
39604.1
39600.6
39597.1
39593.6
39590.1
39586.8
39583.9
39582.8
39583.3
39580.8
39577.3
39573.5
39569.1
39563.7
39559.6
39556
39552.5
39549.1
39545.9
39543.5
39543.8
39543.6
39540.6
39537.1
39533.2
39528.7
39524.5
39520.9
39517.4
39513.9
39510.5
39507.5
39504.5
39501.1
39497.6
39494.1
39490.7
39487.2
39484
39481.3
39480.8
39480.1
39477
39473.4
39469.6
39465.3
39461.3
39457.7
39454.2
39450.7
39447.3
39443.8
39440.5
39437.5
39435.9
39434.7
39431.6
39428.1
39424.6
39421
39417.5
39414
39410.5
39407.1
39403.8
39401.1
39398.9
39395.8
39392.4
39388.9
39385.4
39382
39378.7
39375.8
39373.9
39371.6
39368.3
39364.8
39361.3
39357.8
39354.4
39350.9
39347.6
39344.7
39342
39338.8
39335.3
39331.9
39328.4
39325
39321.9
39319.7
39317.9
39314.8
39311.4
39307.9
39304.4
39301
39297.6
39294.4
39292.1
39290.8
39288
39284.6
39281.1
39277.6
39274.1
39270.6
39267.2
39263.8
39260.9
39258.3
39255.2
39251.7
39248.3
39244.8
39241.3
39237.9
39234.5
39231.3
39228.6
39227.6
39225.6
39222.2
39218.7
39215.1
39211.1
39207.1
39203.5
39200.1
39196.6
39193.2
39189.7
39186.4
39183.4
39181.6
39182.4
39181.1
39177.8
39174.3
39170.4
39165.7
39161.5
39158
39154.5
39151
39147.6
39144.2
39140.8
39137.7
39135.3
39134.1
39131.4
39128
39124.6
39121
39117.6
39114.1
39110.7
39107.2
39103.9
39100.9
39099
39097.9
39095.1
39091.6
39088.1
39084.4
39080.7
39077.2
39073.8
39070.4
39067.2
39064.6
39062.9
39060.1
39056.7
39053.3
39049.8
39046.4
39042.9
39039.6
39036.3
39033.2
39029.8
39026.4
39023
39019.5
39016.1
39012.7
39009.3
39006.3
39004.4
39005.1
39004
39000.8
38997.3
38993.4
38988.9
38984.8
38981.2
38977.8
38974.4
38971
38967.7
38964.5
38961.1
38957.7
38954.2
38950.8
38947.4
38944
38940.9
38938.6
38938.7
38938.1
38935.1
38931.6
38927.8
38923.1
38918.4
38914.7
38911.3
38907.9
38904.6
38901.7
38900.4
38900.8
38898.6
38895.2
38891.6
38887.5
38882.9
38879
38875.5
38872.1
38868.6
38865.2
38862
38859
38857.1
38855.2
38852
38848.6
38845.2
38841.7
38838.1
38834.6
38831.2
38827.8
38824.4
38821
38817.7
38814.8
38813.2
38813.6
38811.5
38808.1
38804.6
38800.7
38796.4
38792.7
38789.3
38785.9
38782.5
38779.2
38776.2
38773
38769.6
38766.2
38762.8
38759.4
38756
38752.7
38749.6
38747.3
38747.6
38747.3
38744.4
38740.9
38737.2
38732.9
38728.5
38724.9
38721.5
38718.1
38714.8
38711.7
38709.1
38706.2
38702.8
38699.4
38696
38692.6
38689.2
38685.8
38682.5
38679.5
38677.3
38676.7
38674.5
38671.2
38667.8
38664.1
38660.3
38656.7
38653.3
38649.9
38646.6
38643.6
38641.3
38639.1
38636
38632.6
38629.2
38625.8
38622.5
38619.2
38616.2
38613.4
38610.1
38606.8
38603.4
38600
38596.6
38593.2
38589.9
38586.9
38584.7
38584.9
38583.7
38580.5
38577
38573.3
38569
38564.9
38561.4
38558
38554.6
38551.3
38548.2
38545.2
38541.9
38538.5
38535.2
38531.8
38528.4
38525
38521.8
38518.9
38517.2
38517.6
38515.6
38512.3
38508.8
38504.9
38500.2
38496.1
38492.6
38489.2
38485.9
38482.8
38480.3
38480
38479.1
38476.1
38472.6
38469
38464.5
38459.8
38456
38452.6
38449.2
38445.9
38442.6
38439.8
38438.4
38438
38435.4
38432
38428.5
38424.7
38420.9
38417.4
38414.1
38410.7
38407.5
38404.6
38402.4
38399.7
38396.5
38393.1
38389.7
38386.4
38383.1
38380
38377.4
38374.6
38371.4
38368
38364.7
38361.3
38357.9
38354.6
38351.3
38348.1
38345.5
38344.1
38341.9
38338.7
38335.3
38331.9
38328.3
38324.7
38321.3
38317.9
38314.6
38311.2
38308.1
38305.4
38304.4
38304.2
38301.5
38298.1
38294.6
38290.7
38286.6
38283.1
38279.7
38276.4
38273.1
38270
38267.3
38264.9
38261.8
38258.5
38255.2
38251.9
38248.7
38246
38243.6
38240.6
38237.2
38233.9
38230.5
38227.2
38223.8
38220.4
38217.1
38213.7
38210.4
38207
38203.7
38200.5
38197.6
38196
38196.9
38195.8
38192.6
38189.3
38185.7
38181.8
38177
38172.8
38169.3
38165.9
38162.6
38159.3
38155.9
38152.6
38149.2
38145.9
38142.6
38139.3
38136.3
38134.1
38134.6
38135
38132.3
38129
38125.5
38121.4
38116.4
38112
38108.5
38105.1
38101.8
38098.4
38095.1
38091.8
38088.5
38085.4
38083
38082.6
38081.8
38078.9
38075.5
38072
38068.1
38064
38060.4
38057.1
38053.8
38050.4
38047.1
38043.8
38040.5
38037.4
38034.9
38033.6
38031.3
38028.1
38024.7
38021.4
38017.9
38014.4
38011
38007.7
38004.4
38001.1
37997.8
37994.7
37992.1
37991.3
37991.1
37988.3
37985
37981.5
37977.6
37973.1
37969.4
37966
37962.7
37959.4
37956.3
37953.6
37951.8
37949.2
37945.9
37942.6
37939.3
37935.8
37932.1
37928.6
37925.2
37921.9
37918.6
37915.3
37912.2
37909.6
37908.7
37909.6
37907.7
37904.4
37901
37897.3
37892.6
37887.8
37884.1
37880.8
37877.5
37874.1
37870.9
37867.6
37864.5
37862.1
37861.2
37859.3
37856.1
37852.8
37849.4
37845.9
37842.4
37839
37835.7
37832.4
37829.2
37826.1
37823.5
37820.8
37817.6
37814.4
37811.1
37807.8
37804.6
37801.8
37799.9
37799.1
37796.5
37793.2
37789.9
37786.4
37782.4
37778.3
37774.7
37771.4
37768.1
37764.9
37761.6
37758.6
37756.2
37755.8
37754.5
37751.4
37748.1
37744.7
37740.9
37737.1
37733.6
37730.3
37727
37723.7
37720.5
37717.2
37714.2
37711.7
37710.5
37708.1
37704.9
37701.6
37698.3
37695
37691.6
37688.3
37685.1
37681.8
37678.5
37675.2
37672.1
37669.2
37667.3
37665.1
37662
37658.7
37655.4
37652.1
37648.5
37645
37641.6
37638.3
37635.1
37631.8
37628.6
37625.7
37623.8
37624.4
37623.4
37620.4
37617.1
37613.5
37609.4
37604.6
37600.7
37597.4
37594.1
37590.8
37587.6
37584.5
37581.9
37580.7
37578.8
37575.7
37572.4
37569.1
37565.6
37561.8
37558.2
37554.9
37551.6
37548.4
37545.1
37541.9
37538.8
37536.2
37535.3
37534.8
37532
37528.7
37525.3
37521.7
37517.9
37514.5
37511.2
37508
37504.7
37501.6
37498.9
37496
37492.8
37489.5
37486.2
37483
37479.7
37476.5
37473.3
37470.5
37468.8
37467.9
37465.3
37462
37458.7
37455.4
37451.7
37448.2
37444.9
37441.6
37438.4
37435.1
37431.9
37429
37426.7
37424.5
37421.5
37418.2
37415
37411.7
37408.4
37405.1
37401.8
37398.5
37395.3
37392.1
37388.9
37386.2
37385
37385.1
37382.8
37379.6
37376.2
37372.6
37368.2
37363.9
37360.4
37357.1
37353.9
37350.7
37347.6
37345.1
37343.7
37341.4
37338.2
37335
37331.7
37328.3
37324.6
37321.2
37317.9
37314.7
37311.4
37308.3
37305.5
37303.8
37304.1
37302.3
37299.1
37295.8
37292.3
37288.2
37283.7
37280
37276.8
37273.5
37270.3
37267.1
37263.9
37261.1
37259.2
37258.3
37255.7
37252.5
37249.2
37245.9
37242.4
37238.8
37235.5
37232.2
37229
37225.8
37222.7
37219.8
37217.7
37216.3
37213.6
37210.4
37207.2
37203.9
37200.6
37197.1
37193.8
37190.5
37187.3
37184.1
37180.9
37177.8
37174.9
37173.1
37171.3
37168.3
37165.1
37161.9
37158.5
37155
37151
37147.4
37144.2
37140.9
37137.7
37134.5
37131.5
37128.9
37128.2
37129.4
37127.7
37124.6
37121.3
37117.9
37113.7
37108.4
37104.2
37100.8
37097.6
37094.4
37091.2
37087.9
37084.7
37081.6
37078.8
37076.8
37076.8
37075
37071.9
37068.6
37065.3
37061.7
37058.3
37055
37051.8
37048.6
37045.5
37042.6
37040
37037.1
37033.9
37030.7
37027.5
37024.2
37021
37017.9
37014.7
37011.6
37008.4
37005.2
37002
36998.8
36995.6
36992.4
36989.3
36986.6
36985.2
36985.9
36984.3
36981.2
36978
36974.6
36970.7
36966.6
36963.1
36959.9
36956.7
36953.5
36950.4
36947.4
36944.6
36941.5
36938.3
36935.1
36931.9
36928.7
36925.3
36922
36918.8
36915.6
36912.4
36909.2
36906.1
36903.3
36901.5
36902.3
36901.8
36898.9
36895.7
36892.4
36888.8
36884.2
36879.5
36875.9
36872.6
36869.4
36866.2
36863
36859.8
36856.6
36853.5
36850.3
36847.1
36844.2
36841.9
36841.7
36841.8
36839.1
36836
36832.7
36829.1
36824.8
36820.4
36817
36813.8
36810.6
36807.5
36804.4
36801.8
36799.9
36797.5
36794.4
36791.2
36788
36784.7
36781.4
36778.1
36774.9
36771.8
36768.6
36765.6
36763.2
36762.4
36761.8
36759
36755.8
36752.5
36749
36744.8
36740.5
36737.1
36733.9
36730.7
36727.6
36724.4
36721.3
36718.6
36716.7
36715.6
36712.9
36709.8
36706.6
36703.4
36700.1
36696.7
36693.5
36690.3
36687.2
36684
36680.9
36678
36675.2
36672.1
36668.9
36665.8
36662.6
36659.5
36656.5
36653.7
36652.1
36650.6
36647.7
36644.6
36641.4
36638.1
36634.8
36631.5
36628.3
36625.1
36622
36619
36616.4
36615.2
36614
36611.1
36608
36604.7
36601.3
36597.2
36592.8
36589.3
36586.1
36582.9
36579.8
36576.8
36574.1
36572.6
36572.4
36570.1
36567
36563.8
36560.5
36556.8
36552.5
36548.8
36545.5
36542.4
36539.2
36536
36532.9
36529.7
36526.6
36523.4
36520.3
36517.4
36514.9
36514.4
36515.3
36513.3
36510.2
36507
36503.7
36499.8
36494.8
36490.3
36486.8
36483.7
36480.5
36477.4
36474.2
36471.2
36468.4
36466.4
36466.1
36464.2
36461.2
36458
36454.7
36451.2
36446.9
36442.6
36439.2
36436
36432.8
36429.7
36426.6
36423.4
36420.4
36417.5
36415.4
36415.6
36415.6
36412.9
36409.8
36406.6
36403.1
36399
36394.9
36391.6
36388.4
36385.3
36382.2
36379.2
36376.6
36374.8
36372.2
36369.1
36366
36362.8
36359.6
36356.3
36353.1
36350
36346.8
36343.7
36340.7
36337.9
36336.1
36334.2
36331.3
36328.2
36325.1
36322
36318.8
36315.7
36312.6
36309.4
36306.4
36303.5
36300.9
36298
36294.9
36291.7
36288.6
36285.5
36282.4
36279.3
36276.2
36273.3
36270.9
36269.5
36267.1
36264
36260.9
36257.7
36254.6
36251.2
36247.8
36244.6
36241.5
36238.4
36235.3
36232.2
36229.4
36227.3
36225.5
36222.7
36219.6
36216.4
36213.3
36210.1
36206.7
36203.4
36200.3
36197.2
36194.1
36191
36188.3
36186.7
36186.5
36184.4
36181.3
36178.2
36174.9
36171.2
36166.8
36163.1
36159.9
36156.8
36153.7
36150.7
36147.9
36146
36145.2
36142.8
36139.7
36136.6
36133.4
36130.1
36126.8
36123.6
36120.4
36117.3
36114.3
36111.3
36108.6
36105.8
36102.7
36099.6
36096.5
36093.3
36090.1
36086.6
36083.3
36080.2
36077.1
36074
36070.9
36067.8
36065
36062.7
36062.5
36063.1
36060.9
36057.8
36054.7
36051.4
36047.7
36043
36038.9
36035.6
36032.5
36029.4
36026.3
36023.3
36020.4
36018
36016.6
36014.2
36011.2
36008.1
36005
36001.8
35998.5
35995.2
35992.1
35989
35985.9
35982.8
35979.8
35977.1
35975.3
35973.2
35970.3
35967.2
35964.1
35961
35957.8
35954.7
35951.6
35948.5
35945.4
35942.3
35939.4
35936.8
35934.4
35931.5
35928.4
35925.3
35922.2
35919.1
35916.1
35913.1
35910.3
35908.3
35907.6
35905.6
35902.6
35899.5
35896.4
35893.1
35889.2
35885.2
35881.9
35878.8
35875.7
35872.7
35869.7
35867.2
35866.1
35864.6
35861.8
35858.7
35855.6
35852.4
35849
35845.2
35841.8
35838.7
35835.6
35832.5
35829.5
35826.6
35824.1
35822.3
35819.9
35816.9
35813.8
35810.7
35807.6
35804.6
35801.5
35798.4
35795.3
35792.3
35789.4
35786.8
35784.5
35781.8
35778.8
35775.8
35772.8
35769.8
35767.1
35764.4
35761.4
35758.4
35755.3
35752.2
35749.1
35746.1
35743
35739.9
35736.9
35734
35731.4
35730
35729
35726.4
35723.4
35720.3
35717.2
35713.8
35710.1
35706.7
35703.6
35700.5
35697.5
35694.5
35691.7
35689.4
35686.8
35683.8
35680.7
35677.6
35674.5
35671.3
35667.9
35664.8
35661.7
35658.7
35655.7
35652.9
35650.6
35649.9
35648.4
35645.5
35642.5
35639.4
35636.1
35632.5
35629
35625.8
35622.8
35619.7
35616.8
35614.1
35612.3
35610.9
35608.2
35605.2
35602.1
35599
35595.7
35591.9
35588.5
35585.4
35582.4
35579.3
35576.4
35573.7
35571.8
35569.9
35567.1
35564.1
35561
35558
35554.9
35551.7
35548.3
35545.2
35542.1
35539
35536
35532.9
35529.9
35526.8
35523.8
35520.8
35517.7
35514.7
35511.8
35509.2
35507.7
35508.5
35507.3
35504.4
35501.4
35498.3
35495.1
35491.4
35486.5
35482
35478.7
35475.6
35472.5
35469.5
35466.5
35463.4
35460.4
35457.4
35454.4
35451.6
35449.2
35448.7
35449.1
35446.9
35443.9
35440.8
35437.7
35434.3
35430.1
35425.7
35422.4
35419.3
35416.3
35413.2
35410.2
35407.3
35404.8
35403.2
35401.3
35398.4
35395.4
35392.4
35389.3
35386.1
35382.6
35379
35375.7
35372.7
35369.7
35366.6
35363.7
35360.7
35358.2
35356.7
35356.4
35354.1
35351.2
35348.1
35345.1
35341.9
35338.2
35333.9
35330.2
35327.1
35324
35321
35317.9
35314.9
35311.9
35308.9
35305.9
35303
35300.2
35297.9
35297.5
35297.5
35295.1
35292.1
35289
35285.9
35282.6
35278.8
35275.3
35272.2
35269.2
35266.2
35263.2
35260.3
35257.6
35255.1
35252.3
35249.3
35246.3
35243.3
35240.3
35237.2
35234.2
35231.2
35228.2
35225.3
35222.6
35220.6
35218.7
35215.9
35212.9
35209.9
35206.9
35203.9
35200.9
35197.8
35194.6
35191
35187.6
35184.6
35181.6
35178.6
35175.6
35172.6
35169.6
35166.6
35163.8
35161.4
35160.6
35160.9
35158.8
35155.9
35152.9
35149.8
35146.6
35143
35138.9
35135.6
35132.6
35129.6
35126.6
35123.6
35120.7
35117.8
35115.1
35112.2
35109.2
35106.2
35103.2
35100.2
35097.2
35094.2
35091.4
35089
35087.7
35086
35083.2
35080.3
35077.3
35074.3
35071.3
35068.2
35065
35061.3
35057.4
35054.1
35051.1
35048.1
35045.1
35042.1
35039.1
35036.1
35033.2
35030.3
35027.6
35025.9
35026.3
35025.7
35023
35020
35017
35014
35010.7
35006.7
35002.8
34999.7
34996.7
34993.7
34990.7
34987.7
34984.7
34981.8
34979
34976.1
34973.1
34970.1
34967.2
34964.2
34961.3
34958.6
34956.4
34955.1
34952.7
34949.8
34946.8
34943.8
34940.8
34937.7
34934.5
34931.2
34928.2
34925.2
34922.2
34919.3
34916.4
34913.7
34911.6
34909.8
34907.1
34904.1
34901.2
34898.2
34895.2
34892
34888.6
34885.4
34882.3
34879.4
34876.4
34873.4
34870.6
34868
34866.4
34865.2
34862.6
34859.7
34856.7
34853.8
34850.8
34847.7
34844.5
34841.5
34838.5
34835.6
34832.6
34829.6
34826.7
34823.9
34821
34818
34815.1
34812.1
34809.2
34806.2
34803.4
34801
34799.4
34797.3
34794.4
34791.5
34788.5
34785.6
34782.6
34779.6
34776.6
34773.7
34770.7
34767.8
34765
34762.5
34760.1
34757.3
34754.4
34751.4
34748.5
34745.5
34742.5
34739.4
34736.3
34733.4
34730.4
34727.5
34724.5
34721.7
34719
34717.1
34715.3
34712.5
34709.6
34706.7
34703.7
34700.7
34697.7
34694.4
34690.7
34687.4
34684.4
34681.5
34678.5
34675.6
34672.7
34670.1
34668.3
34668.4
34667.3
34664.6
34661.7
34658.7
34655.7
34652.4
34648.4
34644.5
34641.4
34638.4
34635.4
34632.5
34629.6
34626.9
34624.6
34622.7
34620
34617.1
34614.1
34611.2
34608.2
34605.1
34601.8
34598.6
34595.6
34592.7
34589.8
34586.8
34584
34581.3
34579.4
34578.1
34575.6
34572.7
34569.8
34566.8
34563.9
34560.9
34557.8
34554.9
34551.9
34549
34546.1
34543.2
34540.6
34537.8
34534.9
34531.9
34529
34526.1
34523.1
34520.2
34517.3
34514.4
34511.6
34509.3
34508
34506
34503.2
34500.3
34497.4
34494.4
34491.4
34488
34484.5
34481.3
34478.4
34475.5
34472.6
34469.7
34466.9
34464.7
34463.1
34460.8
34457.9
34455
34452.1
34449.1
34446.1
34442.9
34439.8
34436.9
34433.9
34431
34428.1
34425.3
34422.8
34420.2
34417.4
34414.5
34411.6
34408.6
34405.7
34402.6
34399.6
34396.7
34393.7
34390.8
34388
34385.3
34383
34381.9
34379.9
34377.1
34374.2
34371.3
34368.3
34365.4
34362.4
34359.5
34356.6
34353.7
34350.9
34348.3
34346.3
34344.3
34341.5
34338.6
34335.7
34332.8
34329.8
34326.7
34323.2
34320
34317
34314.1
34311.2
34308.3
34305.4
34302.7
34300.5
34298.8
34296.4
34293.5
34290.6
34287.7
34284.8
34281.8
34278.8
34275.7
34272.8
34269.9
34267
34264.1
34261.2
34258.5
34256.1
34253.7
34250.9
34248
34245.1
34242.2
34239.3
34236.3
34233.4
34230.5
34227.6
34224.7
34221.9
34219.4
34217.9
34216.3
34213.6
34210.8
34207.9
34204.9
34202
34198.7
34195.2
34192
34189.1
34186.2
34183.3
34180.5
34177.8
34175.8
34173.9
34171.3
34168.4
34165.5
34162.6
34159.7
34156.5
34153
34149.7
34146.8
34143.9
34141
34138.1
34135.3
34132.7
34131
34130.4
34128.3
34125.5
34122.6
34119.7
34116.7
34113.6
34109.9
34105.9
34102.7
34099.8
34096.9
34094
34091.1
34088.3
34085.7
34083.9
34083
34080.8
34078
34075.1
34072.2
34069.3
34066.2
34062.7
34058.4
34054.8
34051.8
34048.9
34046
34043.1
34040.2
34037.4
34034.7
34032.3
34031.3
34031.8
34030
34027.2
34024.4
34021.5
34018.5
34015.3
34011.2
34006.5
34003.1
34000.1
33997.2
33994.4
33991.5
33988.7
33986.2
33984.7
33983.9
33981.7
33978.9
33976
33973.1
33970.2
33967.3
33964.2
33960.7
33957.4
33954.4
33951.5
33948.6
33945.7
33942.8
33939.8
33936.5
33933.4
33930.5
33927.6
33924.8
33921.9
33919.1
33916.2
33913.5
33911.3
33910.5
33910.8
33908.8
33906
33903.2
33900.3
33897.3
33894.1
33890.1
33885.7
33882.4
33879.5
33876.6
33873.8
33870.9
33868.2
33865.7
33863.9
33862.2
33859.6
33856.8
33853.9
33851
33848.2
33845.2
33842.1
33838.4
33834.9
33831.9
33829
33826.1
33823.3
33820.4
33817.6
33814.7
33811.9
33809.2
33806.7
33805.1
33805.4
33804.2
33801.6
33798.7
33795.9
33793
33790
33786.9
33783.2
33778.9
33775.6
33772.6
33769.7
33766.9
33764
33761.2
33758.3
33755.5
33752.7
33749.8
33747.1
33744.6
33742.7
33741.1
33738.6
33735.8
33733
33730.1
33727.3
33724.4
33721.4
33718.3
33715
33712
33709.2
33706.3
33703.5
33700.6
33697.8
33695
33692.4
33690.4
33689.1
33686.9
33684.1
33681.3
33678.4
33675.6
33672.7
33669.9
33667
33664
33660.6
33657.1
33654
33651.2
33648.3
33645.5
33642.6
33639.8
33637
33634.1
33631.3
33628.6
33626.3
33625.1
33624.4
33622.1
33619.3
33616.5
33613.6
33610.8
33607.9
33604.8
33601.3
33597.5
33594.3
33591.4
33588.6
33585.7
33582.9
33580.1
33577.3
33574.4
33571.6
33568.9
33566.3
33564.2
33563.1
33561.2
33558.5
33555.7
33552.9
33550
33547.2
33544.1
33540.6
33537
33534
33531.1
33528.3
33525.5
33522.6
33519.9
33517.3
33515.4
33514.1
33511.7
33508.9
33506.1
33503.3
33500.4
33497.6
33494.6
33491.7
33488.9
33486
33483.2
33480.4
33477.7
33475.3
33473.1
33470.5
33467.7
33464.9
33462.1
33459.3
33456.4
33453.5
33450.7
33447.8
33445
33442.2
33439.4
33436.8
33434.3
33431.7
33428.9
33426.1
33423.3
33420.5
33417.7
33414.7
33411.4
33408
33405
33402.2
33399.3
33396.5
33393.7
33391
33388.3
33386
33384.9
33384.3
33382
33379.2
33376.4
33373.6
33370.7
33367.7
33364.1
33360.3
33357.3
33354.5
33351.7
33348.9
33346.1
33343.6
33341.5
33340
33337.6
33334.8
33332.1
33329.3
33326.4
33323.5
33320.5
33317.6
33314.7
33311.9
33309.1
33306.3
33303.6
33301.1
33298.8
33296.1
33293.3
33290.5
33287.7
33284.9
33282
33279
33275.7
33272.7
33269.8
33267
33264.2
33261.4
33258.7
33256
33253.6
33252.1
33251
33248.5
33245.8
33243
33240.2
33237.4
33234.5
33231.5
33227.9
33224.1
33221.1
33218.2
33215.5
33212.7
33209.9
33207.1
33204.3
33201.7
33199.3
33197.9
33196.8
33194.4
33191.7
33188.9
33186.1
33183.3
33180.3
33177
33173.5
33170.5
33167.7
33164.9
33162.1
33159.4
33156.8
33154.7
33153.3
33151.1
33148.4
33145.6
33142.8
33140
33137.1
33134.1
33130.6
33127.4
33124.5
33121.8
33119
33116.3
33113.5
33111
33108.9
33107.1
33104.6
33101.8
33099
33096.2
33093.4
33090.6
33087.5
33084.2
33081.2
33078.4
33075.6
33072.8
33070.1
33067.4
33064.8
33062.9
33061.4
33059
33056.3
33053.5
33050.8
33048
33045.1
33042.1
33038.8
33035.8
33033
33030.2
33027.4
33024.7
33022
33019.4
33017.3
33015
33012.4
33009.6
33006.9
33004.1
33001.3
32998.4
32995.4
32992.4
32989.6
32986.8
32984
32981.3
32978.6
32976
32973.8
32972.4
32970.4
32967.7
32965
32962.2
32959.4
32956.6
32953.9
32951
32948.1
32944.8
32941.3
32938.3
32935.5
32932.8
32930
32927.2
32924.5
32921.7
32919
32916.2
32913.5
32910.9
32908.7
32907.5
32906
32903.5
32900.8
32898.1
32895.3
32892.5
32889.8
32886.9
32883.8
32880.3
32877.1
32874.3
32871.5
32868.7
32865.9
32863.2
32860.5
32857.7
32855
32852.3
32849.8
32847.7
32846.2
32843.8
32841.1
32838.3
32835.6
32832.8
32830
32827.2
32824.1
32821
32818.1
32815.4
32812.6
32809.9
32807.1
32804.5
32802
32799.9
32797.6
32795
32792.3
32789.6
32786.8
32784
32781.2
32778.3
32775.2
32771.5
32768.1
32765.3
32762.6
32759.8
32757.1
32754.4
32751.7
32749
32746.5
32744.7
32743.9
32741.9
32739.3
32736.6
32733.9
32731.1
32728.3
32725.3
32722.2
32719.4
32716.6
32713.9
32711.1
32708.5
32706
32704.1
32703.1
32701.1
32698.5
32695.7
32693
32690.3
32687.5
32684.5
32681
32676.6
32673.1
32670.2
32667.5
32664.7
32662
32659.3
32656.5
32653.8
32651.1
32648.4
32645.8
32643.3
32641.7
32640.6
32638.4
32635.8
32633.1
32630.4
32627.6
32624.9
32622.1
32619.2
32616.1
32613.1
32610.3
32607.5
32604.8
32602
32599.3
32596.6
32593.8
32591
32587.9
32584.8
32581.9
32579.2
32576.4
32573.7
32571
32568.3
32565.7
32563.3
32561.6
32560
32557.6
32554.9
32552.2
32549.4
32546.6
32543.9
32541.1
32538.3
32535.6
32532.9
32530.3
32527.6
32525.1
32522.8
32520.5
32517.8
32515
32512.3
32509.5
32506.7
32503.8
32500.8
32498
32495.3
32492.6
32490
32487.4
32485
32483.1
32480.7
32478
32475.3
32472.5
32469.8
32466.9
32463.8
32460
32456.4
32453.6
32450.8
32448.1
32445.4
32442.7
32440.1
32437.7
32436
32435.6
32434.2
32431.8
32429.2
32426.5
32423.8
32420.9
32418
32414.5
32410.6
32407.4
32404.5
32401.7
32399.1
32396.5
32393.9
32391.5
32389.7
32388.5
32386.3
32383.6
32380.8
32378.1
32375.3
32372.5
32369.6
32366.3
32363.4
32360.7
32358
32355.3
32352.7
32350.1
32347.5
32344.7
32342
32339.3
32336.5
32333.6
32330.3
32327.1
32324.4
32321.7
32319
32316.3
32313.7
32311.1
32308.7
32307.1
32306.1
32303.9
32301.3
32298.6
32296
32293.3
32290.5
32287.6
32284.4
32281.5
32278.7
32276
32273.3
32270.6
32268
32265.4
32262.8
32260.2
32257.5
32254.8
32252.1
32249.3
32246.4
32243.1
32240.1
32237.4
32234.6
32231.9
32229.2
32226.6
32224.1
32221.9
32220.6
32219.2
32216.8
32214.1
32211.5
32208.8
32206.1
32203.4
32200.5
32197.4
32193.5
32190.3
32187.4
32184.7
32181.9
32179.2
32176.6
32173.9
32171.2
32168.6
32166.1
32163.6
32161.4
32159.8
32158.9
32156.9
32154.2
32151.4
32148.7
32145.9
32143.1
32140.2
32136.9
32133.7
32131
32128.3
32125.6