/*--------------------------------*- C++ -*----------------------------------*\
  =========                 |
  \\      /  F ield         | OpenFOAM: The Open Source CFD Toolbox
   \\    /   O peration     | Website:  https://openfoam.org
    \\  /    A nd           | Version:  9
     \\/     M anipulation  |
\*---------------------------------------------------------------------------*/
FoamFile
{
    format      ascii;
    class       volScalarField;
    location    "0.046";
    object      rho;
}
// * * * * * * * * * * * * * * * * * * * * * * * * * * * * * * * * * * * * * //

dimensions      [1 -3 0 0 0 0 0];

internalField   nonuniform List<scalar> 
10000
(
0.550699
0.550651
0.550622
0.550591
0.55056
0.55053
0.550499
0.550468
0.550437
0.550406
0.550376
0.550345
0.550314
0.550283
0.550253
0.550222
0.550191
0.55016
0.55013
0.550099
0.550068
0.550037
0.550007
0.549976
0.549945
0.549915
0.549884
0.549853
0.549822
0.549792
0.549761
0.54973
0.5497
0.549669
0.549638
0.549607
0.549577
0.549546
0.549515
0.549484
0.549454
0.549423
0.549392
0.549361
0.549331
0.5493
0.549269
0.549238
0.549208
0.549177
0.549146
0.549116
0.549085
0.549054
0.549023
0.548993
0.548962
0.548931
0.548901
0.54887
0.548839
0.548809
0.548778
0.548747
0.548717
0.548686
0.548655
0.548625
0.548594
0.548563
0.548533
0.548502
0.548471
0.548441
0.54841
0.548379
0.548349
0.548318
0.548287
0.548257
0.548226
0.548195
0.548165
0.548134
0.548103
0.548073
0.548042
0.548011
0.547981
0.54795
0.547919
0.547889
0.547858
0.547828
0.547797
0.547766
0.547735
0.547705
0.547674
0.547644
0.547613
0.547583
0.547552
0.547521
0.54749
0.54746
0.547429
0.547399
0.547368
0.547337
0.547306
0.547276
0.547246
0.547215
0.547185
0.547154
0.547123
0.547092
0.547061
0.54703
0.547
0.54697
0.54694
0.54691
0.546879
0.546848
0.546816
0.546785
0.546754
0.546725
0.546696
0.546666
0.546635
0.546603
0.546571
0.54654
0.546511
0.546481
0.546451
0.54642
0.546388
0.546357
0.546327
0.546298
0.546267
0.546236
0.546205
0.546174
0.546143
0.546113
0.546083
0.546052
0.546022
0.545991
0.54596
0.545931
0.545901
0.54587
0.545838
0.545807
0.545776
0.545746
0.545718
0.545688
0.545657
0.545625
0.545593
0.545562
0.545531
0.545502
0.545473
0.545443
0.545413
0.545381
0.54535
0.545319
0.545288
0.545257
0.545226
0.545198
0.545171
0.545141
0.545108
0.545075
0.545042
0.545012
0.544988
0.544962
0.544929
0.544894
0.54486
0.544826
0.544794
0.544769
0.544748
0.544717
0.544683
0.544648
0.544613
0.544579
0.544547
0.544523
0.544503
0.544474
0.54444
0.544405
0.544371
0.544337
0.544304
0.544274
0.544249
0.544232
0.544204
0.54417
0.544135
0.5441
0.544066
0.544032
0.544001
0.543978
0.543961
0.54393
0.543895
0.54386
0.543825
0.54379
0.543756
0.543728
0.54371
0.543684
0.54365
0.543615
0.543579
0.543545
0.543512
0.543487
0.543468
0.543438
0.543403
0.543367
0.543332
0.543298
0.543267
0.543247
0.543227
0.543194
0.543159
0.543124
0.543089
0.543056
0.543031
0.543013
0.542984
0.54295
0.542914
0.542879
0.542845
0.542812
0.542786
0.542768
0.54274
0.542705
0.54267
0.542634
0.542599
0.542565
0.542533
0.542509
0.542495
0.542467
0.542432
0.542397
0.542361
0.542327
0.542294
0.542269
0.542256
0.54223
0.542195
0.54216
0.542124
0.542089
0.542054
0.54202
0.541991
0.541973
0.541951
0.541918
0.541883
0.541848
0.541813
0.541778
0.541747
0.541724
0.541708
0.541678
0.541643
0.541607
0.541572
0.541538
0.541506
0.54148
0.541461
0.541431
0.541396
0.541361
0.541326
0.541293
0.541263
0.541243
0.541219
0.541185
0.54115
0.541115
0.541081
0.541047
0.541019
0.541001
0.540977
0.540943
0.540908
0.540873
0.540839
0.540805
0.540776
0.540759
0.540739
0.540706
0.540671
0.540636
0.540601
0.540567
0.540535
0.540511
0.540492
0.540461
0.540426
0.540391
0.540357
0.540324
0.540296
0.540277
0.540249
0.540214
0.54018
0.540145
0.540111
0.54008
0.540059
0.540037
0.540004
0.539969
0.539935
0.5399
0.539868
0.539841
0.539823
0.539794
0.539759
0.539724
0.53969
0.539656
0.539626
0.539606
0.539583
0.53955
0.539515
0.53948
0.539446
0.539412
0.539383
0.539363
0.539338
0.539305
0.53927
0.539235
0.5392
0.539166
0.539133
0.539106
0.539097
0.539084
0.539051
0.539016
0.538978
0.538941
0.538906
0.538871
0.538838
0.538809
0.53879
0.538766
0.538733
0.538698
0.538663
0.538628
0.538594
0.538559
0.538526
0.538496
0.538476
0.538471
0.538446
0.538412
0.538377
0.538341
0.538307
0.538272
0.538237
0.538203
0.538171
0.538145
0.538128
0.538102
0.538068
0.538033
0.537998
0.537964
0.537931
0.537902
0.537885
0.537862
0.537829
0.537794
0.537758
0.537723
0.537688
0.537654
0.537623
0.537599
0.537585
0.537558
0.537524
0.537489
0.537454
0.537421
0.537393
0.537377
0.537357
0.537324
0.537289
0.537253
0.537218
0.537184
0.53715
0.53712
0.537099
0.537076
0.537043
0.537008
0.536973
0.536939
0.536906
0.536875
0.536855
0.536835
0.536803
0.536768
0.536733
0.536699
0.536665
0.536633
0.536609
0.536592
0.536563
0.536529
0.536494
0.53646
0.536426
0.536393
0.536364
0.536345
0.536321
0.536288
0.536253
0.536219
0.536186
0.536156
0.536133
0.536105
0.536071
0.536036
0.536002
0.535968
0.535935
0.535905
0.535887
0.53587
0.535838
0.535804
0.535769
0.535735
0.535703
0.535677
0.535662
0.535637
0.535603
0.535568
0.535531
0.535493
0.535458
0.535424
0.535389
0.535356
0.535327
0.535314
0.535312
0.535286
0.535252
0.535214
0.535175
0.535139
0.535105
0.535072
0.535042
0.535022
0.534997
0.534964
0.534929
0.534895
0.534861
0.534828
0.534797
0.534777
0.534755
0.534722
0.534688
0.534653
0.534617
0.534582
0.534548
0.534514
0.534482
0.534457
0.534455
0.534446
0.534414
0.534379
0.53434
0.534301
0.534266
0.534232
0.5342
0.534172
0.534151
0.534122
0.534088
0.534053
0.534018
0.533984
0.533949
0.533915
0.533883
0.533857
0.533851
0.533845
0.533815
0.53378
0.533741
0.533701
0.533666
0.533632
0.533598
0.533568
0.533546
0.533524
0.533492
0.533458
0.533424
0.53339
0.533356
0.533324
0.5333
0.533283
0.533255
0.533221
0.533186
0.533152
0.533118
0.533084
0.533052
0.533027
0.533013
0.532987
0.532953
0.532919
0.532884
0.53285
0.532817
0.532785
0.532762
0.532742
0.532711
0.532677
0.532642
0.532607
0.532573
0.532539
0.532506
0.532476
0.532457
0.532458
0.532438
0.532404
0.532367
0.532326
0.532287
0.532252
0.532219
0.532186
0.532158
0.53214
0.532115
0.532081
0.532047
0.532013
0.531979
0.531945
0.531914
0.531889
0.531874
0.531847
0.531813
0.531779
0.531745
0.531712
0.531683
0.531658
0.531627
0.531594
0.53156
0.531525
0.531491
0.531458
0.531426
0.531399
0.531392
0.53139
0.531362
0.531327
0.531289
0.531246
0.531209
0.531175
0.531141
0.531109
0.531083
0.531064
0.531036
0.531003
0.530969
0.530935
0.530901
0.530867
0.530837
0.530814
0.530798
0.530768
0.530734
0.5307
0.530666
0.530632
0.530599
0.530569
0.530551
0.530537
0.530507
0.530473
0.530439
0.530404
0.53037
0.530336
0.530304
0.530275
0.530254
0.530228
0.530196
0.530163
0.530131
0.530101
0.530079
0.530051
0.530018
0.529984
0.52995
0.529916
0.529884
0.529857
0.529839
0.529813
0.529779
0.529746
0.529712
0.529678
0.529646
0.529618
0.5296
0.529577
0.529544
0.52951
0.529476
0.529443
0.52941
0.529379
0.529355
0.52933
0.529299
0.529266
0.529233
0.529202
0.529178
0.529156
0.529126
0.529092
0.529058
0.529024
0.528991
0.52896
0.528935
0.528911
0.52888
0.528846
0.528812
0.528778
0.528745
0.528712
0.528682
0.528663
0.528661
0.528639
0.528606
0.528571
0.528534
0.528499
0.528465
0.528432
0.528398
0.528367
0.528337
0.52831
0.52828
0.528251
0.528227
0.528206
0.528175
0.528141
0.528108
0.528074
0.52804
0.528007
0.527975
0.527949
0.527932
0.527905
0.527871
0.527838
0.527804
0.52777
0.527738
0.52771
0.527692
0.527671
0.527639
0.527605
0.527571
0.527537
0.527504
0.52747
0.527438
0.527408
0.527382
0.527364
0.527347
0.527318
0.527285
0.527251
0.527218
0.527184
0.527151
0.527117
0.527085
0.527056
0.527036
0.527012
0.526979
0.526946
0.526912
0.526879
0.526846
0.526818
0.526798
0.526775
0.526743
0.526709
0.526675
0.526642
0.52661
0.52658
0.52656
0.526537
0.526505
0.526471
0.526438
0.526405
0.526373
0.526347
0.526321
0.526289
0.526256
0.526222
0.526189
0.526156
0.526124
0.526098
0.526093
0.526085
0.526054
0.52602
0.525982
0.525942
0.525906
0.525873
0.52584
0.525809
0.525784
0.525763
0.525733
0.5257
0.525666
0.525633
0.525599
0.525567
0.525538
0.52552
0.525505
0.525476
0.525442
0.525408
0.525375
0.525341
0.525309
0.525279
0.525254
0.525225
0.525192
0.525158
0.525125
0.525091
0.525058
0.525025
0.524992
0.524965
0.524953
0.524957
0.524934
0.524901
0.524865
0.524823
0.524784
0.52475
0.524717
0.524684
0.524655
0.524633
0.524608
0.524575
0.524542
0.524509
0.524475
0.524443
0.524414
0.524394
0.524375
0.524345
0.524311
0.524278
0.524245
0.524212
0.524181
0.524156
0.524136
0.524107
0.524074
0.524041
0.524008
0.523975
0.523943
0.523917
0.523898
0.52387
0.523837
0.523803
0.52377
0.523737
0.523706
0.523681
0.523661
0.523631
0.523598
0.523564
0.523531
0.523499
0.523469
0.523445
0.52342
0.523389
0.523357
0.523324
0.523294
0.523268
0.523246
0.523215
0.523182
0.523149
0.523116
0.523083
0.523051
0.523024
0.523009
0.522989
0.522957
0.522923
0.522889
0.522851
0.522815
0.522781
0.522748
0.522716
0.522686
0.522666
0.522669
0.522657
0.522626
0.522591
0.522552
0.522509
0.522473
0.52244
0.522407
0.522376
0.52235
0.522332
0.522304
0.522271
0.522238
0.522204
0.52217
0.522136
0.522103
0.52207
0.522038
0.52201
0.521996
0.521993
0.521967
0.521934
0.521899
0.521862
0.521827
0.521794
0.521761
0.521729
0.5217
0.52168
0.521657
0.521626
0.521593
0.521559
0.521526
0.521493
0.521461
0.521432
0.521412
0.521391
0.52136
0.521327
0.521294
0.521261
0.521228
0.521196
0.521169
0.521152
0.521127
0.521095
0.521061
0.521028
0.520995
0.520963
0.520933
0.520909
0.520883
0.520851
0.520818
0.520784
0.520751
0.520718
0.520685
0.520652
0.52062
0.520594
0.520584
0.520587
0.520563
0.52053
0.520494
0.52045
0.520404
0.520367
0.520334
0.520301
0.520268
0.520238
0.520214
0.520212
0.520207
0.520178
0.520144
0.520107
0.520064
0.520025
0.519991
0.519958
0.519925
0.519893
0.519864
0.519843
0.519838
0.519815
0.519783
0.519749
0.519713
0.519677
0.519644
0.519611
0.519578
0.519547
0.519522
0.519499
0.519469
0.519437
0.519404
0.519371
0.519338
0.519305
0.519274
0.519247
0.519236
0.519231
0.519203
0.51917
0.519135
0.519096
0.519061
0.519028
0.518995
0.518962
0.518931
0.518902
0.51887
0.518837
0.518804
0.518772
0.518739
0.518707
0.51868
0.518667
0.518672
0.518652
0.51862
0.518585
0.518544
0.518502
0.518468
0.518435
0.518402
0.518371
0.518345
0.518325
0.518297
0.518264
0.518231
0.518198
0.518166
0.518134
0.518105
0.518086
0.518081
0.518056
0.518024
0.51799
0.517953
0.517917
0.517883
0.517851
0.517819
0.517789
0.517766
0.517745
0.517715
0.517682
0.517649
0.517616
0.517584
0.517553
0.517528
0.517507
0.517478
0.517445
0.517412
0.517379
0.517347
0.517316
0.51729
0.517272
0.517246
0.517214
0.517182
0.517149
0.517116
0.517084
0.517054
0.517027
0.516998
0.516966
0.516933
0.516901
0.516868
0.516837
0.516809
0.516794
0.516796
0.516776
0.516744
0.516709
0.51667
0.516629
0.516594
0.516561
0.516529
0.516498
0.516472
0.516455
0.516428
0.516396
0.516364
0.516331
0.516299
0.516267
0.516238
0.516216
0.516193
0.516162
0.516129
0.516097
0.516064
0.516032
0.516001
0.515974
0.515948
0.515917
0.515884
0.515852
0.515819
0.515786
0.515754
0.515721
0.51569
0.515664
0.515654
0.515658
0.515635
0.515602
0.515567
0.515525
0.515476
0.515437
0.515404
0.515372
0.51534
0.51531
0.515288
0.51529
0.515289
0.515261
0.515228
0.515192
0.51515
0.515111
0.515077
0.515044
0.515012
0.514981
0.514952
0.514925
0.514893
0.514861
0.514828
0.514796
0.514764
0.514733
0.514709
0.514704
0.514697
0.514668
0.514635
0.5146
0.51456
0.514522
0.514489
0.514457
0.514424
0.514392
0.51436
0.514329
0.514301
0.514286
0.514275
0.514246
0.514214
0.514181
0.514147
0.514114
0.514082
0.51405
0.514018
0.513987
0.513962
0.513941
0.513913
0.513881
0.513848
0.513816
0.513784
0.513753
0.513726
0.513709
0.513687
0.513656
0.513624
0.513591
0.513559
0.513526
0.513494
0.513463
0.513436
0.513411
0.513381
0.513349
0.513317
0.513284
0.513253
0.513224
0.513203
0.513186
0.513158
0.513126
0.513093
0.513061
0.513028
0.512997
0.512967
0.512945
0.512933
0.512908
0.512876
0.512843
0.51281
0.512778
0.512745
0.512713
0.512682
0.512655
0.512631
0.512602
0.512569
0.512537
0.512505
0.512473
0.51244
0.512408
0.512378
0.512354
0.512344
0.512325
0.512294
0.512262
0.512228
0.512191
0.512153
0.51212
0.512088
0.512055
0.512023
0.511991
0.51196
0.511932
0.511916
0.511923
0.511911
0.51188
0.511847
0.511811
0.511767
0.511728
0.511695
0.511662
0.51163
0.511598
0.511566
0.511534
0.511505
0.511483
0.511472
0.511447
0.511415
0.511383
0.51135
0.511318
0.511285
0.511253
0.511221
0.51119
0.511162
0.511144
0.511134
0.511108
0.511076
0.511043
0.511008
0.510974
0.510941
0.510909
0.510877
0.510847
0.510823
0.510807
0.510781
0.51075
0.510717
0.510685
0.510653
0.510621
0.510589
0.510559
0.51053
0.510498
0.510466
0.510434
0.510402
0.51037
0.510338
0.510307
0.510279
0.510261
0.510267
0.510257
0.510227
0.510194
0.510158
0.510116
0.510077
0.510044
0.510012
0.50998
0.509949
0.509918
0.509888
0.509856
0.509824
0.509792
0.50976
0.509728
0.509696
0.509668
0.509646
0.509647
0.509641
0.509613
0.50958
0.509545
0.509501
0.509457
0.509423
0.509391
0.509359
0.509328
0.509301
0.509289
0.509293
0.509272
0.50924
0.509206
0.509168
0.509125
0.509088
0.509056
0.509024
0.508992
0.50896
0.508929
0.508901
0.508884
0.508866
0.508836
0.508805
0.508772
0.508739
0.508706
0.508674
0.508642
0.50861
0.508578
0.508546
0.508515
0.508488
0.508473
0.508476
0.508457
0.508425
0.508392
0.508356
0.508316
0.508281
0.508249
0.508217
0.508186
0.508155
0.508127
0.508097
0.508065
0.508033
0.508002
0.50797
0.507938
0.507907
0.507878
0.507857
0.507859
0.507857
0.507829
0.507797
0.507762
0.507721
0.50768
0.507647
0.507615
0.507583
0.507552
0.507523
0.507499
0.507471
0.50744
0.507408
0.507376
0.507345
0.507313
0.507281
0.50725
0.507221
0.507201
0.507196
0.507175
0.507144
0.507112
0.507078
0.507041
0.507008
0.506976
0.506945
0.506914
0.506885
0.506864
0.506843
0.506814
0.506782
0.506751
0.506719
0.506687
0.506657
0.506629
0.506602
0.506572
0.50654
0.506508
0.506477
0.506445
0.506413
0.506382
0.506354
0.506334
0.506335
0.506324
0.506294
0.506262
0.506227
0.506186
0.506148
0.506115
0.506083
0.506052
0.506021
0.505991
0.505963
0.505932
0.505901
0.505869
0.505837
0.505806
0.505774
0.505744
0.505716
0.505701
0.505704
0.505686
0.505655
0.505622
0.505586
0.505542
0.505503
0.50547
0.505438
0.505407
0.505378
0.505355
0.505352
0.505344
0.505315
0.505283
0.505248
0.505207
0.505162
0.505127
0.505095
0.505063
0.505032
0.505001
0.504975
0.504961
0.504958
0.504933
0.504902
0.504869
0.504834
0.504798
0.504765
0.504733
0.504702
0.504672
0.504644
0.504624
0.504599
0.504568
0.504536
0.504505
0.504473
0.504442
0.504413
0.504389
0.504363
0.504333
0.504301
0.50427
0.504238
0.504207
0.504175
0.504144
0.504114
0.50409
0.504077
0.504056
0.504025
0.503994
0.503962
0.503928
0.503894
0.503862
0.503831
0.503799
0.503768
0.503738
0.503713
0.503704
0.503702
0.503677
0.503645
0.503612
0.503575
0.503537
0.503504
0.503472
0.503441
0.50341
0.50338
0.503356
0.503333
0.503303
0.503272
0.503241
0.503211
0.503181
0.503156
0.503133
0.503104
0.503073
0.503041
0.50301
0.502978
0.502946
0.502915
0.502883
0.502852
0.50282
0.502789
0.502758
0.502727
0.502701
0.502685
0.502694
0.502683
0.502654
0.502622
0.502589
0.502552
0.502507
0.502467
0.502434
0.502403
0.502371
0.50234
0.502309
0.502277
0.502246
0.502214
0.502183
0.502152
0.502124
0.502104
0.502108
0.502112
0.502087
0.502055
0.502022
0.501984
0.501937
0.501896
0.501862
0.501831
0.501799
0.501768
0.501737
0.501706
0.501675
0.501646
0.501622
0.501619
0.501612
0.501584
0.501552
0.501519
0.501483
0.501444
0.501411
0.501379
0.501348
0.501316
0.501285
0.501254
0.501223
0.501194
0.50117
0.501158
0.501136
0.501106
0.501075
0.501043
0.50101
0.500977
0.500946
0.500914
0.500883
0.500852
0.500821
0.500792
0.500767
0.50076
0.500758
0.500732
0.5007
0.500667
0.500631
0.500589
0.500553
0.500522
0.500491
0.50046
0.50043
0.500405
0.500388
0.500363
0.500333
0.500302
0.50027
0.500237
0.500202
0.500169
0.500138
0.500106
0.500075
0.500044
0.500015
0.49999
0.499982
0.499991
0.499972
0.499942
0.499909
0.499874
0.49983
0.499785
0.499751
0.499719
0.499688
0.499657
0.499626
0.499595
0.499566
0.499543
0.499534
0.499517
0.499487
0.499456
0.499424
0.49939
0.499357
0.499326
0.499295
0.499264
0.499233
0.499204
0.499179
0.499154
0.499124
0.499093
0.499062
0.499032
0.499002
0.498974
0.498957
0.498949
0.498925
0.498894
0.498862
0.498829
0.498792
0.498753
0.49872
0.498688
0.498657
0.498626
0.498596
0.498567
0.498545
0.498541
0.498529
0.4985
0.498469
0.498436
0.498401
0.498364
0.498332
0.498301
0.49827
0.498239
0.498208
0.498177
0.498148
0.498125
0.498114
0.498091
0.498061
0.49803
0.497999
0.497967
0.497936
0.497905
0.497874
0.497843
0.497812
0.497781
0.497751
0.497725
0.497706
0.497685
0.497656
0.497625
0.497594
0.497562
0.497529
0.497496
0.497464
0.497433
0.497402
0.497371
0.497341
0.497314
0.497296
0.497301
0.497292
0.497263
0.497232
0.497199
0.49716
0.497114
0.497078
0.497046
0.497015
0.496984
0.496954
0.496925
0.496901
0.496889
0.496871
0.496842
0.496811
0.496779
0.496747
0.496711
0.496677
0.496645
0.496614
0.496583
0.496552
0.496522
0.496493
0.496468
0.49646
0.496455
0.496429
0.496398
0.496366
0.496332
0.496296
0.496264
0.496233
0.496202
0.496171
0.496142
0.496116
0.496088
0.496058
0.496027
0.495996
0.495965
0.495935
0.495904
0.495875
0.495848
0.495832
0.495824
0.495798
0.495768
0.495737
0.495705
0.49567
0.495637
0.495605
0.495575
0.495544
0.495513
0.495483
0.495455
0.495433
0.495413
0.495384
0.495354
0.495323
0.495292
0.495261
0.495229
0.495198
0.495167
0.495137
0.495106
0.495077
0.495051
0.495039
0.49504
0.495018
0.494988
0.494956
0.494922
0.494881
0.49484
0.494807
0.494776
0.494745
0.494715
0.494686
0.494662
0.494649
0.494627
0.494597
0.494567
0.494535
0.494503
0.494468
0.494436
0.494405
0.494374
0.494343
0.494314
0.494287
0.494272
0.494274
0.494257
0.494227
0.494196
0.494163
0.494124
0.494081
0.494046
0.494015
0.493984
0.493954
0.493923
0.493894
0.493867
0.49385
0.493841
0.493816
0.493786
0.493755
0.493723
0.49369
0.493656
0.493625
0.493594
0.493563
0.493533
0.493503
0.493476
0.493456
0.493443
0.493418
0.493388
0.493357
0.493326
0.493294
0.493261
0.49323
0.493199
0.493168
0.493138
0.493107
0.493078
0.493051
0.493034
0.493017
0.492989
0.492958
0.492928
0.492896
0.492863
0.492825
0.492791
0.49276
0.492729
0.492699
0.492668
0.49264
0.492616
0.492608
0.49262
0.492604
0.492575
0.492544
0.492511
0.492471
0.492421
0.492381
0.492349
0.492318
0.492288
0.492257
0.492227
0.492197
0.492167
0.49214
0.492122
0.492121
0.492105
0.492075
0.492044
0.492012
0.491978
0.491946
0.491915
0.491884
0.491854
0.491825
0.491797
0.491773
0.491745
0.491715
0.491684
0.491654
0.491623
0.491593
0.491563
0.491533
0.491503
0.491473
0.491442
0.491412
0.491382
0.491351
0.491321
0.491292
0.491266
0.491253
0.491259
0.491244
0.491215
0.491184
0.491152
0.491115
0.491076
0.491043
0.491012
0.490982
0.490952
0.490922
0.490894
0.490868
0.490839
0.490808
0.490778
0.490747
0.490716
0.490685
0.490653
0.490622
0.490592
0.490562
0.490532
0.490502
0.490476
0.490459
0.490466
0.490461
0.490434
0.490404
0.490373
0.490338
0.490294
0.490249
0.490215
0.490184
0.490154
0.490123
0.490093
0.490063
0.490033
0.490002
0.489972
0.489943
0.489915
0.489893
0.489891
0.489891
0.489867
0.489836
0.489805
0.489771
0.48973
0.489689
0.489656
0.489626
0.489596
0.489566
0.489537
0.489512
0.489494
0.489471
0.489441
0.489411
0.489381
0.48935
0.489318
0.489287
0.489256
0.489226
0.489196
0.489168
0.489144
0.489138
0.489132
0.489106
0.489075
0.489044
0.489011
0.488971
0.48893
0.488897
0.488866
0.488836
0.488806
0.488776
0.488747
0.48872
0.488703
0.488693
0.488668
0.488638
0.488608
0.488577
0.488546
0.488514
0.488483
0.488453
0.488422
0.488392
0.488363
0.488335
0.488308
0.488279
0.488249
0.488219
0.488189
0.488159
0.48813
0.488105
0.488089
0.488075
0.488047
0.488017
0.487987
0.487956
0.487924
0.487892
0.487862
0.487832
0.487802
0.487774
0.487749
0.487738
0.487726
0.487699
0.487669
0.487638
0.487606
0.487567
0.487525
0.487492
0.487461
0.487431
0.487401
0.487372
0.487346
0.487332
0.48733
0.487308
0.487279
0.487249
0.487217
0.487183
0.487142
0.487106
0.487075
0.487045
0.487015
0.486985
0.486955
0.486925
0.486895
0.486864
0.486835
0.486807
0.486784
0.486778
0.486787
0.486768
0.486739
0.486708
0.486677
0.48664
0.486592
0.486549
0.486516
0.486486
0.486456
0.486426
0.486396
0.486367
0.48634
0.486322
0.486319
0.4863
0.486271
0.486241
0.48621
0.486177
0.486136
0.486095
0.486062
0.486032
0.486002
0.485972
0.485942
0.485912
0.485883
0.485856
0.485836
0.485838
0.485837
0.485812
0.485782
0.485752
0.485719
0.48568
0.485641
0.485609
0.485578
0.485549
0.485519
0.485491
0.485466
0.485448
0.485424
0.485394
0.485364
0.485334
0.485304
0.485273
0.485242
0.485212
0.485182
0.485153
0.485124
0.485098
0.48508
0.485062
0.485035
0.485005
0.484975
0.484945
0.484915
0.484885
0.484855
0.484826
0.484796
0.484769
0.484744
0.484716
0.484687
0.484657
0.484627
0.484597
0.484567
0.484538
0.484509
0.484481
0.484458
0.484445
0.484422
0.484393
0.484363
0.484333
0.484302
0.48427
0.484237
0.484207
0.484177
0.484147
0.484118
0.484089
0.484062
0.484042
0.484025
0.483998
0.483969
0.483939
0.483909
0.483878
0.483845
0.483814
0.483784
0.483754
0.483725
0.483696
0.48367
0.483655
0.483653
0.483633
0.483603
0.483573
0.483542
0.483507
0.483465
0.483429
0.483398
0.483369
0.483339
0.48331
0.483284
0.483266
0.483258
0.483235
0.483206
0.483177
0.483146
0.483115
0.483083
0.483052
0.483022
0.482993
0.482963
0.482935
0.482909
0.482881
0.482852
0.482823
0.482793
0.482763
0.482732
0.482699
0.482668
0.482638
0.482608
0.482578
0.482549
0.48252
0.482492
0.48247
0.482469
0.482474
0.482453
0.482424
0.482394
0.482363
0.482327
0.482282
0.482243
0.482212
0.482182
0.482153
0.482123
0.482094
0.482066
0.482043
0.48203
0.482007
0.481978
0.481948
0.481918
0.481888
0.481857
0.481825
0.481795
0.481766
0.481736
0.481707
0.481679
0.481653
0.481635
0.481615
0.481587
0.481558
0.481528
0.481498
0.481468
0.481437
0.481408
0.481378
0.481349
0.48132
0.481292
0.481267
0.481244
0.481216
0.481187
0.481157
0.481128
0.481098
0.481069
0.48104
0.481013
0.480994
0.480987
0.480968
0.48094
0.48091
0.48088
0.480849
0.480812
0.480774
0.480742
0.480713
0.480683
0.480654
0.480626
0.480602
0.48059
0.480576
0.480548
0.480519
0.480489
0.480459
0.480426
0.48039
0.480358
0.480328
0.480299
0.48027
0.480241
0.480213
0.480188
0.480171
0.480148
0.480119
0.48009
0.48006
0.480031
0.480001
0.479972
0.479943
0.479913
0.479884
0.479856
0.479831
0.47981
0.479784
0.479755
0.479726
0.479697
0.479669
0.479643
0.479617
0.479588
0.479559
0.47953
0.4795
0.479471
0.479441
0.479412
0.479383
0.479353
0.479325
0.479301
0.479287
0.479278
0.479253
0.479224
0.479194
0.479164
0.479132
0.479096
0.479064
0.479034
0.479005
0.478976
0.478947
0.478921
0.478899
0.478873
0.478844
0.478815
0.478786
0.478756
0.478725
0.478693
0.478663
0.478633
0.478604
0.478575
0.478548
0.478527
0.47852
0.478505
0.478478
0.478448
0.478419
0.478388
0.478353
0.478319
0.478289
0.47826
0.478231
0.478202
0.478177
0.478159
0.478146
0.47812
0.478091
0.478061
0.478031
0.478
0.477964
0.477931
0.477902
0.477872
0.477843
0.477815
0.477789
0.477771
0.477753
0.477726
0.477697
0.477668
0.477639
0.477609
0.477578
0.477546
0.477515
0.477486
0.477457
0.477427
0.477398
0.477369
0.477339
0.47731
0.477281
0.477252
0.477223
0.477195
0.47717
0.477156
0.477163
0.477152
0.477125
0.477095
0.477066
0.477035
0.476999
0.476952
0.476909
0.476877
0.476847
0.476818
0.476789
0.47676
0.476731
0.476702
0.476673
0.476644
0.476617
0.476595
0.47659
0.476594
0.476572
0.476544
0.476514
0.476484
0.476451
0.476411
0.476369
0.476336
0.476307
0.476278
0.476249
0.47622
0.476192
0.476168
0.476153
0.476134
0.476107
0.476078
0.476049
0.476019
0.475989
0.475956
0.47592
0.475889
0.47586
0.475831
0.475801
0.475772
0.475744
0.475719
0.475705
0.475702
0.475681
0.475652
0.475623
0.475594
0.475564
0.475529
0.475487
0.475452
0.475422
0.475393
0.475363
0.475334
0.475304
0.475275
0.475246
0.475217
0.475189
0.475162
0.47514
0.475136
0.475136
0.475113
0.475085
0.475056
0.475026
0.474994
0.474958
0.474924
0.474894
0.474865
0.474836
0.474807
0.474779
0.474753
0.474729
0.474702
0.474673
0.474644
0.474615
0.474586
0.474557
0.474528
0.474499
0.474471
0.474443
0.474417
0.474398
0.47438
0.474353
0.474324
0.474295
0.474266
0.474237
0.474208
0.474178
0.474147
0.474112
0.47408
0.47405
0.474021
0.473992
0.473963
0.473935
0.473906
0.473878
0.473851
0.473828
0.47382
0.473824
0.473804
0.473775
0.473746
0.473717
0.473686
0.47365
0.473611
0.473579
0.47355
0.473521
0.473492
0.473464
0.473435
0.473408
0.473382
0.473354
0.473325
0.473297
0.473268
0.473239
0.47321
0.473181
0.473154
0.473131
0.473118
0.473102
0.473075
0.473047
0.473018
0.472989
0.47296
0.472931
0.4729
0.472865
0.472826
0.472795
0.472765
0.472736
0.472708
0.472679
0.47265
0.472622
0.472593
0.472565
0.47254
0.472523
0.472528
0.472521
0.472495
0.472467
0.472438
0.472408
0.472376
0.472338
0.472301
0.47227
0.472241
0.472212
0.472184
0.472155
0.472127
0.472099
0.472071
0.472043
0.472015
0.471986
0.471957
0.471928
0.4719
0.471874
0.471853
0.47184
0.471817
0.471789
0.47176
0.471732
0.471703
0.471673
0.471642
0.471611
0.471581
0.471553
0.471524
0.471495
0.471467
0.471441
0.471421
0.471403
0.471378
0.471349
0.471321
0.471292
0.471263
0.471232
0.471199
0.471168
0.471139
0.47111
0.471082
0.471053
0.471026
0.471001
0.470985
0.470974
0.470949
0.470921
0.470892
0.470863
0.470834
0.470805
0.470774
0.470745
0.470716
0.470688
0.470659
0.470631
0.470603
0.470575
0.470547
0.470519
0.47049
0.470462
0.470433
0.470405
0.470378
0.470354
0.470338
0.470318
0.470291
0.470262
0.470234
0.470205
0.470176
0.470148
0.470119
0.470091
0.470062
0.470034
0.470007
0.469983
0.46996
0.469932
0.469904
0.469875
0.469847
0.469818
0.469788
0.469759
0.46973
0.469701
0.469673
0.469644
0.469616
0.469589
0.469563
0.469545
0.469527
0.4695
0.469472
0.469443
0.469415
0.469386
0.469356
0.469324
0.469288
0.469257
0.469228
0.4692
0.469171
0.469143
0.469116
0.469091
0.469073
0.469075
0.469064
0.469038
0.469009
0.46898
0.46895
0.468918
0.468879
0.468841
0.468811
0.468782
0.468754
0.468726
0.468699
0.468673
0.468651
0.468633
0.468607
0.468579
0.46855
0.468521
0.468492
0.468462
0.46843
0.468399
0.46837
0.468341
0.468313
0.468284
0.468257
0.468232
0.468213
0.4682
0.468177
0.468149
0.46812
0.468092
0.468063
0.468034
0.468005
0.467976
0.467948
0.467919
0.467891
0.467864
0.467838
0.467811
0.467783
0.467754
0.467726
0.467697
0.467669
0.46764
0.467612
0.467584
0.467557
0.467535
0.467523
0.467503
0.467477
0.467448
0.46742
0.467391
0.467362
0.46733
0.467296
0.467265
0.467236
0.467208
0.46718
0.467151
0.467125
0.467103
0.467088
0.467065
0.467038
0.46701
0.466981
0.466953
0.466924
0.466893
0.466863
0.466834
0.466806
0.466777
0.466749
0.466722
0.466697
0.466673
0.466646
0.466618
0.466589
0.466561
0.466532
0.466503
0.466473
0.466445
0.466416
0.466388
0.46636
0.466334
0.466312
0.466301
0.466282
0.466255
0.466227
0.466199
0.466171
0.466142
0.466114
0.466086
0.466057
0.466029
0.466002
0.465976
0.465957
0.465937
0.46591
0.465882
0.465854
0.465826
0.465797
0.465767
0.465733
0.465702
0.465673
0.465645
0.465617
0.465589
0.465561
0.465535
0.465513
0.465497
0.465473
0.465445
0.465417
0.465389
0.465361
0.465332
0.465303
0.465273
0.465245
0.465216
0.465188
0.46516
0.465132
0.465105
0.465082
0.465059
0.465032
0.465004
0.464976
0.464948
0.46492
0.464891
0.464863
0.464835
0.464807
0.464779
0.464752
0.464727
0.464712
0.464696
0.464671
0.464643
0.464615
0.464586
0.464557
0.464526
0.464491
0.464461
0.464433
0.464405
0.464377
0.46435
0.464324
0.464304
0.464286
0.46426
0.464232
0.464204
0.464176
0.464147
0.464117
0.464082
0.46405
0.464022
0.463994
0.463966
0.463938
0.463911
0.463886
0.46387
0.463864
0.463843
0.463816
0.463787
0.463759
0.463731
0.4637
0.463664
0.463625
0.463594
0.463566
0.463538
0.46351
0.463482
0.463455
0.46343
0.463413
0.463404
0.463382
0.463355
0.463327
0.463298
0.46327
0.46324
0.463206
0.463164
0.463129
0.463099
0.463071
0.463043
0.463016
0.462988
0.46296
0.462934
0.462911
0.462901
0.462906
0.462889
0.462862
0.462834
0.462806
0.462777
0.462745
0.462706
0.46266
0.462627
0.462598
0.46257
0.462542
0.462514
0.462487
0.462463
0.462448
0.462441
0.462419
0.462391
0.462364
0.462336
0.462307
0.462279
0.462249
0.462215
0.462183
0.462154
0.462126
0.462098
0.46207
0.462041
0.462012
0.46198
0.46195
0.461922
0.461894
0.461866
0.461838
0.46181
0.461782
0.461756
0.461734
0.461727
0.46173
0.46171
0.461683
0.461656
0.461628
0.461599
0.461568
0.461529
0.461487
0.461454
0.461426
0.461398
0.46137
0.461342
0.461315
0.46129
0.461273
0.461257
0.461231
0.461204
0.461176
0.461149
0.461121
0.461092
0.461062
0.461026
0.460992
0.460963
0.460934
0.460906
0.460879
0.460851
0.460823
0.460795
0.460767
0.460741
0.460717
0.460701
0.460704
0.460692
0.460667
0.460639
0.460612
0.460584
0.460555
0.460525
0.460489
0.460447
0.460415
0.460385
0.460357
0.460329
0.460302
0.460274
0.460246
0.460219
0.460191
0.460164
0.460137
0.460112
0.460095
0.460079
0.460054
0.460026
0.459999
0.459971
0.459943
0.459916
0.459887
0.459857
0.459825
0.459796
0.459768
0.45974
0.459712
0.459684
0.459657
0.45963
0.459604
0.459584
0.459572
0.45955
0.459523
0.459496
0.459468
0.45944
0.459413
0.459385
0.459357
0.459327
0.459295
0.45926
0.45923
0.459202
0.459175
0.459147
0.459119
0.459092
0.459064
0.459036
0.459009
0.458982
0.45896
0.458948
0.458941
0.458919
0.458892
0.458864
0.458837
0.458809
0.458781
0.458751
0.458717
0.458679
0.458648
0.45862
0.458592
0.458564
0.458537
0.458509
0.458482
0.458454
0.458427
0.4584
0.458375
0.458355
0.458345
0.458326
0.458299
0.458272
0.458244
0.458216
0.458188
0.458158
0.458124
0.458089
0.458059
0.458032
0.458004
0.457977
0.457949
0.457923
0.457898
0.457879
0.457866
0.457842
0.457815
0.457788
0.45776
0.457732
0.457704
0.457675
0.457647
0.45762
0.457592
0.457565
0.457537
0.457511
0.457487
0.457466
0.45744
0.457413
0.457386
0.457358
0.45733
0.457303
0.457275
0.457247
0.45722
0.457192
0.457165
0.457138
0.457111
0.457087
0.457061
0.457034
0.457007
0.456979
0.456952
0.456924
0.456895
0.456864
0.45683
0.456801
0.456773
0.456746
0.456718
0.456691
0.456664
0.456638
0.456615
0.456605
0.456599
0.456576
0.456549
0.456521
0.456494