/*--------------------------------*- C++ -*----------------------------------*\
  =========                 |
  \\      /  F ield         | OpenFOAM: The Open Source CFD Toolbox
   \\    /   O peration     | Website:  https://openfoam.org
    \\  /    A nd           | Version:  9
     \\/     M anipulation  |
\*---------------------------------------------------------------------------*/
FoamFile
{
    format      ascii;
    class       volVectorField;
    location    "0.046";
    object      U;
}
// * * * * * * * * * * * * * * * * * * * * * * * * * * * * * * * * * * * * * //

dimensions      [0 1 -1 0 0 0 0];

internalField   nonuniform List<vector> 
10000
(
(228.46 0 0)
(228.488 0 0)
(228.505 0 0)
(228.523 0 0)
(228.541 0 0)
(228.559 0 0)
(228.577 0 0)
(228.595 0 0)
(228.613 0 0)
(228.631 0 0)
(228.649 0 0)
(228.667 0 0)
(228.685 0 0)
(228.703 0 0)
(228.72 0 0)
(228.738 0 0)
(228.756 0 0)
(228.774 0 0)
(228.792 0 0)
(228.81 0 0)
(228.828 0 0)
(228.846 0 0)
(228.864 0 0)
(228.882 0 0)
(228.9 0 0)
(228.918 0 0)
(228.936 0 0)
(228.953 0 0)
(228.971 0 0)
(228.989 0 0)
(229.007 0 0)
(229.025 0 0)
(229.043 0 0)
(229.061 0 0)
(229.079 0 0)
(229.097 0 0)
(229.115 0 0)
(229.133 0 0)
(229.151 0 0)
(229.169 0 0)
(229.186 0 0)
(229.204 0 0)
(229.222 0 0)
(229.24 0 0)
(229.258 0 0)
(229.276 0 0)
(229.294 0 0)
(229.312 0 0)
(229.33 0 0)
(229.348 0 0)
(229.366 0 0)
(229.384 0 0)
(229.402 0 0)
(229.42 0 0)
(229.438 0 0)
(229.456 0 0)
(229.473 0 0)
(229.491 0 0)
(229.509 0 0)
(229.527 0 0)
(229.545 0 0)
(229.563 0 0)
(229.581 0 0)
(229.599 0 0)
(229.617 0 0)
(229.635 0 0)
(229.653 0 0)
(229.67 0 0)
(229.688 0 0)
(229.706 0 0)
(229.724 0 0)
(229.742 0 0)
(229.76 0 0)
(229.778 0 0)
(229.796 0 0)
(229.814 0 0)
(229.832 0 0)
(229.85 0 0)
(229.868 0 0)
(229.885 0 0)
(229.903 0 0)
(229.921 0 0)
(229.939 0 0)
(229.957 0 0)
(229.975 0 0)
(229.993 0 0)
(230.011 0 0)
(230.029 0 0)
(230.047 0 0)
(230.065 0 0)
(230.083 0 0)
(230.101 0 0)
(230.119 0 0)
(230.137 0 0)
(230.154 0 0)
(230.172 0 0)
(230.19 0 0)
(230.208 0 0)
(230.226 0 0)
(230.244 0 0)
(230.262 0 0)
(230.28 0 0)
(230.298 0 0)
(230.316 0 0)
(230.334 0 0)
(230.352 0 0)
(230.37 0 0)
(230.388 0 0)
(230.405 0 0)
(230.423 0 0)
(230.441 0 0)
(230.459 0 0)
(230.477 0 0)
(230.495 0 0)
(230.513 0 0)
(230.531 0 0)
(230.549 0 0)
(230.567 0 0)
(230.584 0 0)
(230.602 0 0)
(230.62 0 0)
(230.638 0 0)
(230.657 0 0)
(230.675 0 0)
(230.693 0 0)
(230.71 0 0)
(230.728 0 0)
(230.745 0 0)
(230.763 0 0)
(230.782 0 0)
(230.801 0 0)
(230.819 0 0)
(230.836 0 0)
(230.854 0 0)
(230.871 0 0)
(230.889 0 0)
(230.907 0 0)
(230.926 0 0)
(230.944 0 0)
(230.962 0 0)
(230.979 0 0)
(230.997 0 0)
(231.015 0 0)
(231.034 0 0)
(231.052 0 0)
(231.07 0 0)
(231.087 0 0)
(231.104 0 0)
(231.122 0 0)
(231.14 0 0)
(231.159 0 0)
(231.177 0 0)
(231.194 0 0)
(231.212 0 0)
(231.23 0 0)
(231.249 0 0)
(231.267 0 0)
(231.284 0 0)
(231.302 0 0)
(231.319 0 0)
(231.337 0 0)
(231.355 0 0)
(231.374 0 0)
(231.393 0 0)
(231.41 0 0)
(231.428 0 0)
(231.445 0 0)
(231.462 0 0)
(231.48 0 0)
(231.499 0 0)
(231.518 0 0)
(231.536 0 0)
(231.554 0 0)
(231.571 0 0)
(231.589 0 0)
(231.606 0 0)
(231.624 0 0)
(231.641 0 0)
(231.659 0 0)
(231.678 0 0)
(231.698 0 0)
(231.716 0 0)
(231.733 0 0)
(231.749 0 0)
(231.766 0 0)
(231.784 0 0)
(231.805 0 0)
(231.826 0 0)
(231.843 0 0)
(231.859 0 0)
(231.874 0 0)
(231.89 0 0)
(231.907 0 0)
(231.928 0 0)
(231.952 0 0)
(231.97 0 0)
(231.985 0 0)
(232 0 0)
(232.016 0 0)
(232.031 0 0)
(232.048 0 0)
(232.07 0 0)
(232.094 0 0)
(232.113 0 0)
(232.129 0 0)
(232.144 0 0)
(232.16 0 0)
(232.176 0 0)
(232.192 0 0)
(232.21 0 0)
(232.232 0 0)
(232.257 0 0)
(232.277 0 0)
(232.293 0 0)
(232.308 0 0)
(232.323 0 0)
(232.339 0 0)
(232.355 0 0)
(232.372 0 0)
(232.395 0 0)
(232.42 0 0)
(232.439 0 0)
(232.454 0 0)
(232.469 0 0)
(232.484 0 0)
(232.499 0 0)
(232.515 0 0)
(232.534 0 0)
(232.559 0 0)
(232.581 0 0)
(232.596 0 0)
(232.611 0 0)
(232.626 0 0)
(232.642 0 0)
(232.658 0 0)
(232.679 0 0)
(232.704 0 0)
(232.723 0 0)
(232.738 0 0)
(232.753 0 0)
(232.768 0 0)
(232.784 0 0)
(232.801 0 0)
(232.825 0 0)
(232.85 0 0)
(232.866 0 0)
(232.882 0 0)
(232.897 0 0)
(232.912 0 0)
(232.928 0 0)
(232.949 0 0)
(232.975 0 0)
(232.994 0 0)
(233.009 0 0)
(233.024 0 0)
(233.039 0 0)
(233.055 0 0)
(233.071 0 0)
(233.091 0 0)
(233.117 0 0)
(233.136 0 0)
(233.152 0 0)
(233.166 0 0)
(233.181 0 0)
(233.196 0 0)
(233.212 0 0)
(233.228 0 0)
(233.25 0 0)
(233.278 0 0)
(233.298 0 0)
(233.313 0 0)
(233.328 0 0)
(233.343 0 0)
(233.358 0 0)
(233.374 0 0)
(233.396 0 0)
(233.424 0 0)
(233.445 0 0)
(233.46 0 0)
(233.475 0 0)
(233.49 0 0)
(233.505 0 0)
(233.52 0 0)
(233.536 0 0)
(233.554 0 0)
(233.579 0 0)
(233.603 0 0)
(233.62 0 0)
(233.635 0 0)
(233.649 0 0)
(233.665 0 0)
(233.68 0 0)
(233.697 0 0)
(233.72 0 0)
(233.746 0 0)
(233.764 0 0)
(233.78 0 0)
(233.795 0 0)
(233.81 0 0)
(233.825 0 0)
(233.842 0 0)
(233.863 0 0)
(233.888 0 0)
(233.906 0 0)
(233.921 0 0)
(233.936 0 0)
(233.951 0 0)
(233.967 0 0)
(233.986 0 0)
(234.01 0 0)
(234.031 0 0)
(234.047 0 0)
(234.063 0 0)
(234.078 0 0)
(234.093 0 0)
(234.109 0 0)
(234.128 0 0)
(234.153 0 0)
(234.175 0 0)
(234.191 0 0)
(234.206 0 0)
(234.221 0 0)
(234.236 0 0)
(234.252 0 0)
(234.271 0 0)
(234.297 0 0)
(234.321 0 0)
(234.338 0 0)
(234.353 0 0)
(234.368 0 0)
(234.383 0 0)
(234.398 0 0)
(234.415 0 0)
(234.437 0 0)
(234.462 0 0)
(234.48 0 0)
(234.495 0 0)
(234.51 0 0)
(234.525 0 0)
(234.541 0 0)
(234.561 0 0)
(234.586 0 0)
(234.605 0 0)
(234.621 0 0)
(234.636 0 0)
(234.651 0 0)
(234.667 0 0)
(234.684 0 0)
(234.708 0 0)
(234.731 0 0)
(234.747 0 0)
(234.763 0 0)
(234.778 0 0)
(234.793 0 0)
(234.809 0 0)
(234.83 0 0)
(234.855 0 0)
(234.874 0 0)
(234.889 0 0)
(234.904 0 0)
(234.92 0 0)
(234.935 0 0)
(234.953 0 0)
(234.977 0 0)
(235 0 0)
(235.016 0 0)
(235.032 0 0)
(235.047 0 0)
(235.062 0 0)
(235.078 0 0)
(235.096 0 0)
(235.12 0 0)
(235.142 0 0)
(235.158 0 0)
(235.173 0 0)
(235.188 0 0)
(235.203 0 0)
(235.218 0 0)
(235.234 0 0)
(235.254 0 0)
(235.285 0 0)
(235.314 0 0)
(235.331 0 0)
(235.346 0 0)
(235.359 0 0)
(235.372 0 0)
(235.387 0 0)
(235.403 0 0)
(235.418 0 0)
(235.437 0 0)
(235.461 0 0)
(235.484 0 0)
(235.5 0 0)
(235.515 0 0)
(235.53 0 0)
(235.545 0 0)
(235.561 0 0)
(235.576 0 0)
(235.592 0 0)
(235.609 0 0)
(235.634 0 0)
(235.667 0 0)
(235.689 0 0)
(235.705 0 0)
(235.719 0 0)
(235.734 0 0)
(235.749 0 0)
(235.764 0 0)
(235.78 0 0)
(235.795 0 0)
(235.811 0 0)
(235.832 0 0)
(235.858 0 0)
(235.879 0 0)
(235.894 0 0)
(235.909 0 0)
(235.925 0 0)
(235.94 0 0)
(235.956 0 0)
(235.975 0 0)
(236 0 0)
(236.023 0 0)
(236.039 0 0)
(236.054 0 0)
(236.069 0 0)
(236.084 0 0)
(236.099 0 0)
(236.114 0 0)
(236.131 0 0)
(236.153 0 0)
(236.181 0 0)
(236.201 0 0)
(236.217 0 0)
(236.232 0 0)
(236.247 0 0)
(236.263 0 0)
(236.282 0 0)
(236.309 0 0)
(236.333 0 0)
(236.349 0 0)
(236.364 0 0)
(236.379 0 0)
(236.394 0 0)
(236.409 0 0)
(236.425 0 0)
(236.443 0 0)
(236.466 0 0)
(236.489 0 0)
(236.505 0 0)
(236.52 0 0)
(236.535 0 0)
(236.55 0 0)
(236.566 0 0)
(236.584 0 0)
(236.608 0 0)
(236.632 0 0)
(236.649 0 0)
(236.664 0 0)
(236.679 0 0)
(236.695 0 0)
(236.71 0 0)
(236.727 0 0)
(236.749 0 0)
(236.775 0 0)
(236.794 0 0)
(236.809 0 0)
(236.824 0 0)
(236.839 0 0)
(236.855 0 0)
(236.871 0 0)
(236.89 0 0)
(236.915 0 0)
(236.936 0 0)
(236.952 0 0)
(236.968 0 0)
(236.983 0 0)
(236.999 0 0)
(237.017 0 0)
(237.039 0 0)
(237.059 0 0)
(237.074 0 0)
(237.09 0 0)
(237.105 0 0)
(237.12 0 0)
(237.136 0 0)
(237.154 0 0)
(237.179 0 0)
(237.205 0 0)
(237.222 0 0)
(237.238 0 0)
(237.253 0 0)
(237.268 0 0)
(237.285 0 0)
(237.305 0 0)
(237.332 0 0)
(237.354 0 0)
(237.369 0 0)
(237.384 0 0)
(237.398 0 0)
(237.411 0 0)
(237.426 0 0)
(237.441 0 0)
(237.457 0 0)
(237.472 0 0)
(237.49 0 0)
(237.519 0 0)
(237.554 0 0)
(237.576 0 0)
(237.591 0 0)
(237.604 0 0)
(237.616 0 0)
(237.631 0 0)
(237.646 0 0)
(237.662 0 0)
(237.68 0 0)
(237.703 0 0)
(237.725 0 0)
(237.741 0 0)
(237.756 0 0)
(237.772 0 0)
(237.787 0 0)
(237.803 0 0)
(237.821 0 0)
(237.844 0 0)
(237.868 0 0)
(237.884 0 0)
(237.9 0 0)
(237.914 0 0)
(237.929 0 0)
(237.944 0 0)
(237.959 0 0)
(237.974 0 0)
(237.99 0 0)
(238.012 0 0)
(238.046 0 0)
(238.078 0 0)
(238.096 0 0)
(238.11 0 0)
(238.123 0 0)
(238.135 0 0)
(238.15 0 0)
(238.165 0 0)
(238.182 0 0)
(238.201 0 0)
(238.225 0 0)
(238.243 0 0)
(238.259 0 0)
(238.274 0 0)
(238.289 0 0)
(238.304 0 0)
(238.319 0 0)
(238.334 0 0)
(238.35 0 0)
(238.37 0 0)
(238.403 0 0)
(238.436 0 0)
(238.455 0 0)
(238.47 0 0)
(238.482 0 0)
(238.494 0 0)
(238.508 0 0)
(238.524 0 0)
(238.539 0 0)
(238.557 0 0)
(238.58 0 0)
(238.603 0 0)
(238.62 0 0)
(238.635 0 0)
(238.651 0 0)
(238.666 0 0)
(238.682 0 0)
(238.698 0 0)
(238.72 0 0)
(238.746 0 0)
(238.765 0 0)
(238.781 0 0)
(238.796 0 0)
(238.811 0 0)
(238.826 0 0)
(238.842 0 0)
(238.858 0 0)
(238.879 0 0)
(238.907 0 0)
(238.927 0 0)
(238.943 0 0)
(238.958 0 0)
(238.973 0 0)
(238.989 0 0)
(239.004 0 0)
(239.021 0 0)
(239.043 0 0)
(239.067 0 0)
(239.085 0 0)
(239.101 0 0)
(239.116 0 0)
(239.13 0 0)
(239.145 0 0)
(239.161 0 0)
(239.176 0 0)
(239.193 0 0)
(239.219 0 0)
(239.256 0 0)
(239.281 0 0)
(239.296 0 0)
(239.31 0 0)
(239.321 0 0)
(239.333 0 0)
(239.348 0 0)
(239.364 0 0)
(239.38 0 0)
(239.399 0 0)
(239.424 0 0)
(239.445 0 0)
(239.461 0 0)
(239.476 0 0)
(239.492 0 0)
(239.507 0 0)
(239.523 0 0)
(239.539 0 0)
(239.561 0 0)
(239.587 0 0)
(239.608 0 0)
(239.623 0 0)
(239.639 0 0)
(239.654 0 0)
(239.67 0 0)
(239.688 0 0)
(239.709 0 0)
(239.727 0 0)
(239.742 0 0)
(239.758 0 0)
(239.773 0 0)
(239.788 0 0)
(239.804 0 0)
(239.82 0 0)
(239.84 0 0)
(239.871 0 0)
(239.907 0 0)
(239.927 0 0)
(239.942 0 0)
(239.955 0 0)
(239.965 0 0)
(239.978 0 0)
(239.994 0 0)
(240.009 0 0)
(240.025 0 0)
(240.046 0 0)
(240.071 0 0)
(240.09 0 0)
(240.106 0 0)
(240.121 0 0)
(240.136 0 0)
(240.152 0 0)
(240.168 0 0)
(240.185 0 0)
(240.207 0 0)
(240.233 0 0)
(240.252 0 0)
(240.268 0 0)
(240.283 0 0)
(240.298 0 0)
(240.313 0 0)
(240.329 0 0)
(240.347 0 0)
(240.372 0 0)
(240.399 0 0)
(240.418 0 0)
(240.433 0 0)
(240.448 0 0)
(240.463 0 0)
(240.479 0 0)
(240.494 0 0)
(240.51 0 0)
(240.529 0 0)
(240.552 0 0)
(240.573 0 0)
(240.589 0 0)
(240.605 0 0)
(240.622 0 0)
(240.64 0 0)
(240.662 0 0)
(240.682 0 0)
(240.698 0 0)
(240.713 0 0)
(240.729 0 0)
(240.744 0 0)
(240.761 0 0)
(240.781 0 0)
(240.806 0 0)
(240.826 0 0)
(240.842 0 0)
(240.857 0 0)
(240.873 0 0)
(240.888 0 0)
(240.904 0 0)
(240.924 0 0)
(240.949 0 0)
(240.971 0 0)
(240.987 0 0)
(241.002 0 0)
(241.018 0 0)
(241.033 0 0)
(241.049 0 0)
(241.067 0 0)
(241.088 0 0)
(241.109 0 0)
(241.126 0 0)
(241.142 0 0)
(241.158 0 0)
(241.175 0 0)
(241.197 0 0)
(241.22 0 0)
(241.237 0 0)
(241.253 0 0)
(241.268 0 0)
(241.284 0 0)
(241.3 0 0)
(241.316 0 0)
(241.337 0 0)
(241.359 0 0)
(241.376 0 0)
(241.391 0 0)
(241.407 0 0)
(241.422 0 0)
(241.438 0 0)
(241.453 0 0)
(241.471 0 0)
(241.496 0 0)
(241.531 0 0)
(241.555 0 0)
(241.57 0 0)
(241.585 0 0)
(241.598 0 0)
(241.613 0 0)
(241.629 0 0)
(241.644 0 0)
(241.66 0 0)
(241.676 0 0)
(241.695 0 0)
(241.714 0 0)
(241.732 0 0)
(241.751 0 0)
(241.772 0 0)
(241.795 0 0)
(241.812 0 0)
(241.828 0 0)
(241.843 0 0)
(241.859 0 0)
(241.874 0 0)
(241.89 0 0)
(241.906 0 0)
(241.927 0 0)
(241.952 0 0)
(241.972 0 0)
(241.988 0 0)
(242.004 0 0)
(242.019 0 0)
(242.035 0 0)
(242.051 0 0)
(242.07 0 0)
(242.095 0 0)
(242.118 0 0)
(242.135 0 0)
(242.15 0 0)
(242.166 0 0)
(242.181 0 0)
(242.197 0 0)
(242.212 0 0)
(242.229 0 0)
(242.246 0 0)
(242.267 0 0)
(242.292 0 0)
(242.317 0 0)
(242.336 0 0)
(242.352 0 0)
(242.368 0 0)
(242.383 0 0)
(242.399 0 0)
(242.414 0 0)
(242.43 0 0)
(242.446 0 0)
(242.465 0 0)
(242.488 0 0)
(242.51 0 0)
(242.526 0 0)
(242.542 0 0)
(242.557 0 0)
(242.573 0 0)
(242.589 0 0)
(242.608 0 0)
(242.632 0 0)
(242.654 0 0)
(242.67 0 0)
(242.686 0 0)
(242.701 0 0)
(242.717 0 0)
(242.733 0 0)
(242.751 0 0)
(242.774 0 0)
(242.797 0 0)
(242.813 0 0)
(242.829 0 0)
(242.844 0 0)
(242.86 0 0)
(242.877 0 0)
(242.897 0 0)
(242.917 0 0)
(242.934 0 0)
(242.95 0 0)
(242.965 0 0)
(242.981 0 0)
(242.996 0 0)
(243.013 0 0)
(243.033 0 0)
(243.065 0 0)
(243.097 0 0)
(243.116 0 0)
(243.131 0 0)
(243.143 0 0)
(243.155 0 0)
(243.169 0 0)
(243.184 0 0)
(243.2 0 0)
(243.217 0 0)
(243.238 0 0)
(243.261 0 0)
(243.279 0 0)
(243.295 0 0)
(243.31 0 0)
(243.326 0 0)
(243.341 0 0)
(243.357 0 0)
(243.375 0 0)
(243.4 0 0)
(243.428 0 0)
(243.446 0 0)
(243.462 0 0)
(243.477 0 0)
(243.493 0 0)
(243.508 0 0)
(243.524 0 0)
(243.542 0 0)
(243.563 0 0)
(243.581 0 0)
(243.597 0 0)
(243.613 0 0)
(243.628 0 0)
(243.644 0 0)
(243.659 0 0)
(243.675 0 0)
(243.691 0 0)
(243.709 0 0)
(243.739 0 0)
(243.777 0 0)
(243.801 0 0)
(243.816 0 0)
(243.83 0 0)
(243.841 0 0)
(243.852 0 0)
(243.867 0 0)
(243.883 0 0)
(243.899 0 0)
(243.917 0 0)
(243.94 0 0)
(243.961 0 0)
(243.977 0 0)
(243.993 0 0)
(244.008 0 0)
(244.024 0 0)
(244.04 0 0)
(244.058 0 0)
(244.082 0 0)
(244.107 0 0)
(244.124 0 0)
(244.14 0 0)
(244.155 0 0)
(244.171 0 0)
(244.187 0 0)
(244.204 0 0)
(244.224 0 0)
(244.249 0 0)
(244.267 0 0)
(244.283 0 0)
(244.299 0 0)
(244.314 0 0)
(244.33 0 0)
(244.347 0 0)
(244.367 0 0)
(244.391 0 0)
(244.41 0 0)
(244.426 0 0)
(244.442 0 0)
(244.457 0 0)
(244.473 0 0)
(244.49 0 0)
(244.511 0 0)
(244.534 0 0)
(244.552 0 0)
(244.568 0 0)
(244.583 0 0)
(244.599 0 0)
(244.615 0 0)
(244.633 0 0)
(244.654 0 0)
(244.675 0 0)
(244.692 0 0)
(244.708 0 0)
(244.725 0 0)
(244.742 0 0)
(244.762 0 0)
(244.784 0 0)
(244.802 0 0)
(244.818 0 0)
(244.833 0 0)
(244.849 0 0)
(244.865 0 0)
(244.881 0 0)
(244.9 0 0)
(244.927 0 0)
(244.951 0 0)
(244.968 0 0)
(244.984 0 0)
(244.998 0 0)
(245.011 0 0)
(245.025 0 0)
(245.04 0 0)
(245.056 0 0)
(245.072 0 0)
(245.089 0 0)
(245.113 0 0)
(245.15 0 0)
(245.181 0 0)
(245.198 0 0)
(245.212 0 0)
(245.224 0 0)
(245.234 0 0)
(245.248 0 0)
(245.263 0 0)
(245.279 0 0)
(245.295 0 0)
(245.316 0 0)
(245.341 0 0)
(245.36 0 0)
(245.376 0 0)
(245.391 0 0)
(245.406 0 0)
(245.421 0 0)
(245.437 0 0)
(245.452 0 0)
(245.468 0 0)
(245.484 0 0)
(245.502 0 0)
(245.53 0 0)
(245.565 0 0)
(245.586 0 0)
(245.601 0 0)
(245.616 0 0)
(245.629 0 0)
(245.644 0 0)
(245.659 0 0)
(245.675 0 0)
(245.691 0 0)
(245.709 0 0)
(245.733 0 0)
(245.755 0 0)
(245.772 0 0)
(245.788 0 0)
(245.803 0 0)
(245.819 0 0)
(245.835 0 0)
(245.851 0 0)
(245.869 0 0)
(245.892 0 0)
(245.916 0 0)
(245.933 0 0)
(245.949 0 0)
(245.964 0 0)
(245.98 0 0)
(245.996 0 0)
(246.012 0 0)
(246.032 0 0)
(246.057 0 0)
(246.078 0 0)
(246.094 0 0)
(246.11 0 0)
(246.126 0 0)
(246.141 0 0)
(246.157 0 0)
(246.175 0 0)
(246.196 0 0)
(246.216 0 0)
(246.233 0 0)
(246.248 0 0)
(246.264 0 0)
(246.279 0 0)
(246.295 0 0)
(246.31 0 0)
(246.326 0 0)
(246.342 0 0)
(246.361 0 0)
(246.392 0 0)
(246.43 0 0)
(246.453 0 0)
(246.468 0 0)
(246.482 0 0)
(246.491 0 0)
(246.498 0 0)
(246.511 0 0)
(246.527 0 0)
(246.542 0 0)
(246.558 0 0)
(246.575 0 0)
(246.596 0 0)
(246.631 0 0)
(246.665 0 0)
(246.684 0 0)
(246.699 0 0)
(246.712 0 0)
(246.722 0 0)
(246.733 0 0)
(246.748 0 0)
(246.764 0 0)
(246.78 0 0)
(246.796 0 0)
(246.813 0 0)
(246.837 0 0)
(246.87 0 0)
(246.893 0 0)
(246.909 0 0)
(246.924 0 0)
(246.937 0 0)
(246.951 0 0)
(246.967 0 0)
(246.982 0 0)
(246.998 0 0)
(247.015 0 0)
(247.035 0 0)
(247.058 0 0)
(247.076 0 0)
(247.091 0 0)
(247.107 0 0)
(247.123 0 0)
(247.138 0 0)
(247.154 0 0)
(247.17 0 0)
(247.189 0 0)
(247.219 0 0)
(247.252 0 0)
(247.272 0 0)
(247.288 0 0)
(247.302 0 0)
(247.314 0 0)
(247.328 0 0)
(247.344 0 0)
(247.359 0 0)
(247.375 0 0)
(247.392 0 0)
(247.41 0 0)
(247.426 0 0)
(247.442 0 0)
(247.458 0 0)
(247.474 0 0)
(247.489 0 0)
(247.506 0 0)
(247.524 0 0)
(247.553 0 0)
(247.592 0 0)
(247.617 0 0)
(247.633 0 0)
(247.648 0 0)
(247.659 0 0)
(247.668 0 0)
(247.683 0 0)
(247.698 0 0)
(247.714 0 0)
(247.731 0 0)
(247.751 0 0)
(247.774 0 0)
(247.793 0 0)
(247.809 0 0)
(247.825 0 0)
(247.841 0 0)
(247.856 0 0)
(247.873 0 0)
(247.89 0 0)
(247.915 0 0)
(247.948 0 0)
(247.97 0 0)
(247.985 0 0)
(248 0 0)
(248.014 0 0)
(248.027 0 0)
(248.042 0 0)
(248.058 0 0)
(248.074 0 0)
(248.092 0 0)
(248.114 0 0)
(248.137 0 0)
(248.154 0 0)
(248.17 0 0)
(248.186 0 0)
(248.202 0 0)
(248.218 0 0)
(248.235 0 0)
(248.255 0 0)
(248.278 0 0)
(248.296 0 0)
(248.312 0 0)
(248.328 0 0)
(248.344 0 0)
(248.36 0 0)
(248.376 0 0)
(248.397 0 0)
(248.421 0 0)
(248.442 0 0)
(248.458 0 0)
(248.474 0 0)
(248.489 0 0)
(248.505 0 0)
(248.521 0 0)
(248.539 0 0)
(248.558 0 0)
(248.576 0 0)
(248.592 0 0)
(248.608 0 0)
(248.624 0 0)
(248.64 0 0)
(248.656 0 0)
(248.674 0 0)
(248.701 0 0)
(248.739 0 0)
(248.764 0 0)
(248.78 0 0)
(248.794 0 0)
(248.806 0 0)
(248.816 0 0)
(248.831 0 0)
(248.846 0 0)
(248.862 0 0)
(248.879 0 0)
(248.899 0 0)
(248.924 0 0)
(248.944 0 0)
(248.96 0 0)
(248.976 0 0)
(248.992 0 0)
(249.008 0 0)
(249.024 0 0)
(249.042 0 0)
(249.065 0 0)
(249.087 0 0)
(249.103 0 0)
(249.119 0 0)
(249.135 0 0)
(249.151 0 0)
(249.167 0 0)
(249.184 0 0)
(249.203 0 0)
(249.223 0 0)
(249.239 0 0)
(249.255 0 0)
(249.271 0 0)
(249.287 0 0)
(249.302 0 0)
(249.318 0 0)
(249.334 0 0)
(249.35 0 0)
(249.369 0 0)
(249.4 0 0)
(249.439 0 0)
(249.462 0 0)
(249.478 0 0)
(249.492 0 0)
(249.502 0 0)
(249.507 0 0)
(249.519 0 0)
(249.534 0 0)
(249.55 0 0)
(249.566 0 0)
(249.583 0 0)
(249.606 0 0)
(249.643 0 0)
(249.679 0 0)
(249.699 0 0)
(249.714 0 0)
(249.728 0 0)
(249.737 0 0)
(249.749 0 0)
(249.764 0 0)
(249.78 0 0)
(249.796 0 0)
(249.812 0 0)
(249.83 0 0)
(249.849 0 0)
(249.866 0 0)
(249.882 0 0)
(249.897 0 0)
(249.913 0 0)
(249.929 0 0)
(249.946 0 0)
(249.967 0 0)
(249.999 0 0)
(250.032 0 0)
(250.051 0 0)
(250.067 0 0)
(250.081 0 0)
(250.092 0 0)
(250.104 0 0)
(250.119 0 0)
(250.135 0 0)
(250.151 0 0)
(250.167 0 0)
(250.183 0 0)
(250.199 0 0)
(250.218 0 0)
(250.245 0 0)
(250.274 0 0)
(250.293 0 0)
(250.309 0 0)
(250.324 0 0)
(250.339 0 0)
(250.355 0 0)
(250.371 0 0)
(250.387 0 0)
(250.403 0 0)
(250.42 0 0)
(250.44 0 0)
(250.463 0 0)
(250.482 0 0)
(250.498 0 0)
(250.514 0 0)
(250.53 0 0)
(250.545 0 0)
(250.562 0 0)
(250.581 0 0)
(250.607 0 0)
(250.63 0 0)
(250.647 0 0)
(250.663 0 0)
(250.678 0 0)
(250.694 0 0)
(250.71 0 0)
(250.726 0 0)
(250.743 0 0)
(250.762 0 0)
(250.782 0 0)
(250.8 0 0)
(250.816 0 0)
(250.831 0 0)
(250.847 0 0)
(250.864 0 0)
(250.882 0 0)
(250.905 0 0)
(250.931 0 0)
(250.949 0 0)
(250.965 0 0)
(250.981 0 0)
(250.997 0 0)
(251.012 0 0)
(251.029 0 0)
(251.046 0 0)
(251.069 0 0)
(251.097 0 0)
(251.118 0 0)
(251.134 0 0)
(251.15 0 0)
(251.165 0 0)
(251.181 0 0)
(251.197 0 0)
(251.213 0 0)
(251.229 0 0)
(251.248 0 0)
(251.269 0 0)
(251.287 0 0)
(251.303 0 0)
(251.319 0 0)
(251.335 0 0)
(251.351 0 0)
(251.367 0 0)
(251.383 0 0)
(251.399 0 0)
(251.421 0 0)
(251.45 0 0)
(251.475 0 0)
(251.492 0 0)
(251.508 0 0)
(251.523 0 0)
(251.536 0 0)
(251.548 0 0)
(251.563 0 0)
(251.579 0 0)
(251.595 0 0)
(251.611 0 0)
(251.627 0 0)
(251.643 0 0)
(251.661 0 0)
(251.688 0 0)
(251.728 0 0)
(251.758 0 0)
(251.775 0 0)
(251.79 0 0)
(251.803 0 0)
(251.812 0 0)
(251.824 0 0)
(251.839 0 0)
(251.855 0 0)
(251.87 0 0)
(251.886 0 0)
(251.902 0 0)
(251.918 0 0)
(251.936 0 0)
(251.959 0 0)
(251.987 0 0)
(252.009 0 0)
(252.025 0 0)
(252.041 0 0)
(252.056 0 0)
(252.072 0 0)
(252.088 0 0)
(252.104 0 0)
(252.119 0 0)
(252.136 0 0)
(252.154 0 0)
(252.179 0 0)
(252.209 0 0)
(252.229 0 0)
(252.245 0 0)
(252.261 0 0)
(252.275 0 0)
(252.29 0 0)
(252.305 0 0)
(252.321 0 0)
(252.337 0 0)
(252.354 0 0)
(252.376 0 0)
(252.402 0 0)
(252.422 0 0)
(252.438 0 0)
(252.454 0 0)
(252.47 0 0)
(252.486 0 0)
(252.501 0 0)
(252.518 0 0)
(252.535 0 0)
(252.552 0 0)
(252.569 0 0)
(252.585 0 0)
(252.601 0 0)
(252.617 0 0)
(252.633 0 0)
(252.649 0 0)
(252.665 0 0)
(252.682 0 0)
(252.708 0 0)
(252.748 0 0)
(252.779 0 0)
(252.796 0 0)
(252.812 0 0)
(252.825 0 0)
(252.835 0 0)
(252.846 0 0)
(252.861 0 0)
(252.877 0 0)
(252.893 0 0)
(252.909 0 0)
(252.926 0 0)
(252.943 0 0)
(252.96 0 0)
(252.975 0 0)
(252.991 0 0)
(253.007 0 0)
(253.023 0 0)
(253.039 0 0)
(253.057 0 0)
(253.08 0 0)
(253.116 0 0)
(253.15 0 0)
(253.168 0 0)
(253.184 0 0)
(253.198 0 0)
(253.206 0 0)
(253.215 0 0)
(253.229 0 0)
(253.245 0 0)
(253.261 0 0)
(253.277 0 0)
(253.296 0 0)
(253.325 0 0)
(253.363 0 0)
(253.387 0 0)
(253.403 0 0)
(253.418 0 0)
(253.43 0 0)
(253.439 0 0)
(253.452 0 0)
(253.467 0 0)
(253.483 0 0)
(253.499 0 0)
(253.515 0 0)
(253.532 0 0)
(253.551 0 0)
(253.576 0 0)
(253.601 0 0)
(253.619 0 0)
(253.635 0 0)
(253.65 0 0)
(253.666 0 0)
(253.681 0 0)
(253.696 0 0)
(253.712 0 0)
(253.728 0 0)
(253.744 0 0)
(253.76 0 0)
(253.777 0 0)
(253.795 0 0)
(253.823 0 0)
(253.861 0 0)
(253.886 0 0)
(253.902 0 0)
(253.917 0 0)
(253.93 0 0)
(253.941 0 0)
(253.955 0 0)
(253.971 0 0)
(253.987 0 0)
(254.003 0 0)
(254.02 0 0)
(254.038 0 0)
(254.056 0 0)
(254.072 0 0)
(254.088 0 0)
(254.104 0 0)
(254.12 0 0)
(254.136 0 0)
(254.152 0 0)
(254.169 0 0)
(254.193 0 0)
(254.23 0 0)
(254.265 0 0)
(254.284 0 0)
(254.3 0 0)
(254.314 0 0)
(254.325 0 0)
(254.335 0 0)
(254.349 0 0)
(254.365 0 0)
(254.381 0 0)
(254.398 0 0)
(254.416 0 0)
(254.437 0 0)
(254.456 0 0)
(254.472 0 0)
(254.488 0 0)
(254.504 0 0)
(254.52 0 0)
(254.536 0 0)
(254.552 0 0)
(254.568 0 0)
(254.586 0 0)
(254.61 0 0)
(254.642 0 0)
(254.666 0 0)
(254.683 0 0)
(254.698 0 0)
(254.713 0 0)
(254.726 0 0)
(254.741 0 0)
(254.757 0 0)
(254.773 0 0)
(254.789 0 0)
(254.807 0 0)
(254.83 0 0)
(254.854 0 0)
(254.871 0 0)
(254.887 0 0)
(254.903 0 0)
(254.919 0 0)
(254.935 0 0)
(254.952 0 0)
(254.971 0 0)
(254.99 0 0)
(255.007 0 0)
(255.023 0 0)
(255.039 0 0)
(255.055 0 0)
(255.071 0 0)
(255.087 0 0)
(255.103 0 0)
(255.121 0 0)
(255.145 0 0)
(255.182 0 0)
(255.212 0 0)
(255.229 0 0)
(255.245 0 0)
(255.259 0 0)
(255.269 0 0)
(255.281 0 0)
(255.296 0 0)
(255.312 0 0)
(255.328 0 0)
(255.345 0 0)
(255.362 0 0)
(255.38 0 0)
(255.397 0 0)
(255.413 0 0)
(255.429 0 0)
(255.445 0 0)
(255.461 0 0)
(255.478 0 0)
(255.494 0 0)
(255.512 0 0)
(255.54 0 0)
(255.578 0 0)
(255.603 0 0)
(255.62 0 0)
(255.635 0 0)
(255.648 0 0)
(255.656 0 0)
(255.668 0 0)
(255.683 0 0)
(255.699 0 0)
(255.715 0 0)
(255.732 0 0)
(255.754 0 0)
(255.788 0 0)
(255.82 0 0)
(255.838 0 0)
(255.854 0 0)
(255.868 0 0)
(255.878 0 0)
(255.885 0 0)
(255.899 0 0)
(255.915 0 0)
(255.931 0 0)
(255.947 0 0)
(255.963 0 0)
(255.982 0 0)
(256.01 0 0)
(256.044 0 0)
(256.066 0 0)
(256.082 0 0)
(256.097 0 0)
(256.111 0 0)
(256.124 0 0)
(256.139 0 0)
(256.155 0 0)
(256.172 0 0)
(256.188 0 0)
(256.207 0 0)
(256.231 0 0)
(256.251 0 0)
(256.267 0 0)
(256.283 0 0)
(256.299 0 0)
(256.316 0 0)
(256.332 0 0)
(256.35 0 0)
(256.37 0 0)
(256.39 0 0)
(256.407 0 0)
(256.423 0 0)
(256.439 0 0)
(256.455 0 0)
(256.471 0 0)
(256.487 0 0)
(256.504 0 0)
(256.521 0 0)
(256.541 0 0)
(256.569 0 0)
(256.593 0 0)
(256.609 0 0)
(256.626 0 0)
(256.641 0 0)
(256.656 0 0)
(256.671 0 0)
(256.686 0 0)
(256.702 0 0)
(256.719 0 0)
(256.735 0 0)
(256.752 0 0)
(256.771 0 0)
(256.802 0 0)
(256.838 0 0)
(256.858 0 0)
(256.874 0 0)
(256.889 0 0)
(256.902 0 0)
(256.914 0 0)
(256.929 0 0)
(256.945 0 0)
(256.961 0 0)
(256.977 0 0)
(256.994 0 0)
(257.015 0 0)
(257.036 0 0)
(257.054 0 0)
(257.07 0 0)
(257.087 0 0)
(257.103 0 0)
(257.121 0 0)
(257.141 0 0)
(257.162 0 0)
(257.18 0 0)
(257.196 0 0)
(257.213 0 0)
(257.229 0 0)
(257.244 0 0)
(257.26 0 0)
(257.276 0 0)
(257.292 0 0)
(257.309 0 0)
(257.325 0 0)
(257.341 0 0)
(257.357 0 0)
(257.374 0 0)
(257.392 0 0)
(257.419 0 0)
(257.46 0 0)
(257.491 0 0)
(257.508 0 0)
(257.524 0 0)
(257.539 0 0)
(257.552 0 0)
(257.559 0 0)
(257.57 0 0)
(257.585 0 0)
(257.601 0 0)
(257.617 0 0)
(257.633 0 0)
(257.649 0 0)
(257.665 0 0)
(257.681 0 0)
(257.698 0 0)
(257.714 0 0)
(257.73 0 0)
(257.748 0 0)
(257.772 0 0)
(257.81 0 0)
(257.849 0 0)
(257.87 0 0)
(257.886 0 0)
(257.901 0 0)
(257.913 0 0)
(257.919 0 0)
(257.929 0 0)
(257.943 0 0)
(257.959 0 0)
(257.976 0 0)
(257.992 0 0)
(258.008 0 0)
(258.024 0 0)
(258.04 0 0)
(258.057 0 0)
(258.079 0 0)
(258.112 0 0)
(258.145 0 0)
(258.164 0 0)
(258.18 0 0)
(258.195 0 0)
(258.207 0 0)
(258.219 0 0)
(258.234 0 0)
(258.25 0 0)
(258.266 0 0)
(258.282 0 0)
(258.298 0 0)
(258.314 0 0)
(258.33 0 0)
(258.348 0 0)
(258.369 0 0)
(258.397 0 0)
(258.42 0 0)
(258.437 0 0)
(258.453 0 0)
(258.469 0 0)
(258.484 0 0)
(258.499 0 0)
(258.515 0 0)
(258.531 0 0)
(258.547 0 0)
(258.563 0 0)
(258.58 0 0)
(258.596 0 0)
(258.617 0 0)
(258.649 0 0)
(258.684 0 0)
(258.704 0 0)
(258.72 0 0)
(258.735 0 0)
(258.748 0 0)
(258.757 0 0)
(258.77 0 0)
(258.786 0 0)
(258.802 0 0)
(258.819 0 0)
(258.836 0 0)
(258.856 0 0)
(258.881 0 0)
(258.902 0 0)
(258.919 0 0)
(258.935 0 0)
(258.951 0 0)
(258.966 0 0)
(258.98 0 0)
(258.995 0 0)
(259.01 0 0)
(259.027 0 0)
(259.043 0 0)
(259.059 0 0)
(259.076 0 0)
(259.096 0 0)
(259.128 0 0)
(259.169 0 0)
(259.195 0 0)
(259.211 0 0)
(259.227 0 0)
(259.24 0 0)
(259.248 0 0)
(259.255 0 0)
(259.269 0 0)
(259.285 0 0)
(259.301 0 0)
(259.317 0 0)
(259.334 0 0)
(259.35 0 0)
(259.367 0 0)
(259.389 0 0)
(259.419 0 0)
(259.445 0 0)
(259.462 0 0)
(259.478 0 0)
(259.494 0 0)
(259.509 0 0)
(259.523 0 0)
(259.539 0 0)
(259.556 0 0)
(259.572 0 0)
(259.588 0 0)
(259.606 0 0)
(259.626 0 0)
(259.646 0 0)
(259.663 0 0)
(259.68 0 0)
(259.696 0 0)
(259.712 0 0)
(259.729 0 0)
(259.748 0 0)
(259.773 0 0)
(259.804 0 0)
(259.825 0 0)
(259.841 0 0)
(259.857 0 0)
(259.872 0 0)
(259.884 0 0)
(259.895 0 0)
(259.91 0 0)
(259.926 0 0)
(259.942 0 0)
(259.959 0 0)
(259.975 0 0)
(259.992 0 0)
(260.014 0 0)
(260.048 0 0)
(260.077 0 0)
(260.095 0 0)
(260.111 0 0)
(260.126 0 0)
(260.14 0 0)
(260.152 0 0)
(260.168 0 0)
(260.184 0 0)
(260.2 0 0)
(260.216 0 0)
(260.233 0 0)
(260.249 0 0)
(260.266 0 0)
(260.288 0 0)
(260.317 0 0)
(260.339 0 0)
(260.356 0 0)
(260.372 0 0)
(260.388 0 0)
(260.404 0 0)
(260.42 0 0)
(260.436 0 0)
(260.452 0 0)
(260.468 0 0)
(260.485 0 0)
(260.501 0 0)
(260.518 0 0)
(260.537 0 0)
(260.561 0 0)
(260.584 0 0)
(260.602 0 0)
(260.618 0 0)
(260.634 0 0)
(260.65 0 0)
(260.665 0 0)
(260.679 0 0)
(260.695 0 0)
(260.711 0 0)
(260.727 0 0)
(260.744 0 0)
(260.76 0 0)
(260.778 0 0)
(260.804 0 0)
(260.843 0 0)
(260.874 0 0)
(260.892 0 0)
(260.908 0 0)
(260.923 0 0)
(260.934 0 0)
(260.941 0 0)
(260.953 0 0)
(260.969 0 0)
(260.985 0 0)
(261.001 0 0)
(261.018 0 0)
(261.035 0 0)
(261.056 0 0)
(261.084 0 0)
(261.109 0 0)
(261.127 0 0)
(261.143 0 0)
(261.159 0 0)
(261.174 0 0)
(261.187 0 0)
(261.201 0 0)
(261.217 0 0)
(261.233 0 0)
(261.249 0 0)
(261.266 0 0)
(261.282 0 0)
(261.299 0 0)
(261.32 0 0)
(261.35 0 0)
(261.384 0 0)
(261.403 0 0)
(261.42 0 0)
(261.435 0 0)
(261.449 0 0)
(261.462 0 0)
(261.478 0 0)
(261.494 0 0)
(261.51 0 0)
(261.527 0 0)
(261.544 0 0)
(261.563 0 0)
(261.582 0 0)
(261.598 0 0)
(261.615 0 0)
(261.631 0 0)
(261.647 0 0)
(261.663 0 0)
(261.68 0 0)
(261.697 0 0)
(261.715 0 0)
(261.742 0 0)
(261.773 0 0)
(261.793 0 0)
(261.809 0 0)
(261.825 0 0)
(261.841 0 0)
(261.855 0 0)
(261.869 0 0)
(261.885 0 0)
(261.902 0 0)
(261.918 0 0)
(261.934 0 0)
(261.951 0 0)
(261.969 0 0)
(261.991 0 0)
(262.014 0 0)
(262.032 0 0)
(262.049 0 0)
(262.065 0 0)
(262.081 0 0)
(262.097 0 0)
(262.113 0 0)
(262.129 0 0)
(262.145 0 0)
(262.161 0 0)
(262.178 0 0)
(262.195 0 0)
(262.214 0 0)
(262.243 0 0)
(262.28 0 0)
(262.303 0 0)
(262.319 0 0)
(262.335 0 0)
(262.349 0 0)
(262.358 0 0)
(262.368 0 0)
(262.383 0 0)
(262.399 0 0)
(262.415 0 0)
(262.432 0 0)
(262.449 0 0)
(262.47 0 0)
(262.497 0 0)
(262.52 0 0)
(262.537 0 0)
(262.553 0 0)
(262.569 0 0)
(262.584 0 0)
(262.598 0 0)
(262.613 0 0)
(262.629 0 0)
(262.646 0 0)
(262.662 0 0)
(262.679 0 0)
(262.697 0 0)
(262.724 0 0)
(262.761 0 0)
(262.787 0 0)
(262.804 0 0)
(262.82 0 0)
(262.835 0 0)
(262.846 0 0)
(262.854 0 0)
(262.868 0 0)
(262.884 0 0)
(262.9 0 0)
(262.917 0 0)
(262.933 0 0)
(262.95 0 0)
(262.968 0 0)
(262.994 0 0)
(263.024 0 0)
(263.045 0 0)
(263.061 0 0)
(263.077 0 0)
(263.093 0 0)
(263.108 0 0)
(263.122 0 0)
(263.138 0 0)
(263.154 0 0)
(263.17 0 0)
(263.187 0 0)
(263.203 0 0)
(263.222 0 0)
(263.245 0 0)
(263.273 0 0)
(263.293 0 0)
(263.31 0 0)
(263.326 0 0)
(263.342 0 0)
(263.358 0 0)
(263.373 0 0)
(263.388 0 0)
(263.405 0 0)
(263.421 0 0)
(263.437 0 0)
(263.454 0 0)
(263.471 0 0)
(263.49 0 0)
(263.514 0 0)
(263.54 0 0)
(263.558 0 0)
(263.574 0 0)
(263.591 0 0)
(263.606 0 0)
(263.621 0 0)
(263.633 0 0)
(263.647 0 0)
(263.663 0 0)
(263.679 0 0)
(263.695 0 0)
(263.712 0 0)
(263.729 0 0)
(263.749 0 0)
(263.782 0 0)
(263.825 0 0)
(263.852 0 0)
(263.869 0 0)
(263.885 0 0)
(263.9 0 0)
(263.91 0 0)
(263.914 0 0)
(263.924 0 0)
(263.939 0 0)
(263.955 0 0)
(263.972 0 0)
(263.988 0 0)
(264.004 0 0)
(264.021 0 0)
(264.038 0 0)
(264.056 0 0)
(264.081 0 0)
(264.116 0 0)
(264.142 0 0)
(264.16 0 0)
(264.176 0 0)
(264.191 0 0)
(264.205 0 0)
(264.22 0 0)
(264.236 0 0)
(264.253 0 0)
(264.269 0 0)
(264.286 0 0)
(264.305 0 0)
(264.325 0 0)
(264.343 0 0)
(264.359 0 0)
(264.376 0 0)
(264.392 0 0)
(264.409 0 0)
(264.425 0 0)
(264.442 0 0)
(264.458 0 0)
(264.475 0 0)
(264.492 0 0)
(264.508 0 0)
(264.524 0 0)
(264.541 0 0)
(264.557 0 0)
(264.574 0 0)
(264.591 0 0)
(264.61 0 0)
(264.638 0 0)
(264.678 0 0)
(264.705 0 0)
(264.723 0 0)
(264.739 0 0)
(264.754 0 0)
(264.766 0 0)
(264.777 0 0)
(264.792 0 0)
(264.808 0 0)
(264.824 0 0)
(264.841 0 0)
(264.858 0 0)
(264.876 0 0)
(264.895 0 0)
(264.912 0 0)
(264.928 0 0)
(264.945 0 0)
(264.961 0 0)
(264.977 0 0)
(264.992 0 0)
(265.008 0 0)
(265.024 0 0)
(265.041 0 0)
(265.057 0 0)
(265.074 0 0)
(265.091 0 0)
(265.109 0 0)
(265.135 0 0)
(265.175 0 0)
(265.209 0 0)
(265.228 0 0)
(265.245 0 0)
(265.26 0 0)
(265.274 0 0)
(265.282 0 0)
(265.288 0 0)
(265.302 0 0)
(265.318 0 0)
(265.334 0 0)
(265.351 0 0)
(265.367 0 0)
(265.384 0 0)
(265.4 0 0)
(265.417 0 0)
(265.433 0 0)
(265.45 0 0)
(265.467 0 0)
(265.489 0 0)
(265.525 0 0)
(265.561 0 0)
(265.582 0 0)
(265.599 0 0)
(265.614 0 0)
(265.629 0 0)
(265.638 0 0)
(265.647 0 0)
(265.662 0 0)
(265.678 0 0)
(265.694 0 0)
(265.711 0 0)
(265.728 0 0)
(265.748 0 0)
(265.773 0 0)
(265.794 0 0)
(265.811 0 0)
(265.827 0 0)
(265.844 0 0)
(265.86 0 0)
(265.875 0 0)
(265.891 0 0)
(265.907 0 0)
(265.924 0 0)
(265.941 0 0)
(265.958 0 0)
(265.979 0 0)
(266.01 0 0)
(266.043 0 0)
(266.063 0 0)
(266.079 0 0)
(266.095 0 0)
(266.109 0 0)
(266.119 0 0)
(266.129 0 0)
(266.143 0 0)
(266.16 0 0)
(266.176 0 0)
(266.193 0 0)
(266.209 0 0)
(266.226 0 0)
(266.245 0 0)
(266.27 0 0)
(266.299 0 0)