/*--------------------------------*- C++ -*----------------------------------*\
  =========                 |
  \\      /  F ield         | OpenFOAM: The Open Source CFD Toolbox
   \\    /   O peration     | Website:  https://openfoam.org
    \\  /    A nd           | Version:  9
     \\/     M anipulation  |
\*---------------------------------------------------------------------------*/
FoamFile
{
    format      ascii;
    class       volScalarField;
    location    "0.043";
    object      T;
}
// * * * * * * * * * * * * * * * * * * * * * * * * * * * * * * * * * * * * * //

dimensions      [0 0 0 1 0 0 0];

internalField   nonuniform List<scalar> 
100
(
196.914
196.811
196.694
196.62
196.561
196.498
196.466
196.42
196.381
196.382
196.391
196.402
196.414
196.439
196.458
196.458
196.433
196.414
196.405
196.384
196.314
196.262
196.252
196.254
196.258
196.25
196.219
196.206
196.207
196.219
196.237
196.241
196.243
196.252
196.282
196.356
196.525
196.825
197.228
197.606
197.973
198.367
198.618
198.945
199.371
199.631
200.029
200.528
200.697
200.899
201.342
201.689
201.877
202.165
202.703
203.103
203.32
203.599
204.16
204.707
204.954
205.057
205.277
205.853
206.241
206.422
206.665
207.271
208.215
210.026
213.733
221.331
236.297
253.864
246.212
237.688
232.24
231.665
231.457
231.362
231.37
231.501
231.621
231.616
231.527
231.39
231.356
231.371
231.476
231.523
231.521
231.527
231.453
231.413
231.417
231.45
231.474
231.478
231.382
231.474
)
;

boundaryField
{
    sides
    {
        type            zeroGradient;
    }
    empty
    {
        type            empty;
    }
}


// ************************************************************************* //
