/*--------------------------------*- C++ -*----------------------------------*\
  =========                 |
  \\      /  F ield         | OpenFOAM: The Open Source CFD Toolbox
   \\    /   O peration     | Website:  https://openfoam.org
    \\  /    A nd           | Version:  9
     \\/     M anipulation  |
\*---------------------------------------------------------------------------*/
FoamFile
{
    format      ascii;
    class       volScalarField;
    location    "0.031";
    object      p;
}
// * * * * * * * * * * * * * * * * * * * * * * * * * * * * * * * * * * * * * //

dimensions      [1 -1 -2 0 0 0 0];

internalField   nonuniform List<scalar> 
1000
(
18856.8
18853.8
18849.9
18846.5
18843.4
18840.3
18837.2
18834
18830.9
18827.7
18824.6
18821.4
18818.3
18815.1
18812
18808.9
18805.7
18802.6
18799.4
18796.3
18793.1
18790
18786.9
18783.7
18780.6
18777.4
18774.3
18771.1
18768
18764.9
18761.7
18758.6
18755.4
18752.3
18749.1
18746
18742.8
18739.7
18736.5
18733.4
18730.3
18727.1
18724
18720.8
18717.7
18714.5
18711.4
18708.2
18705.1
18701.9
18698.8
18695.6
18692.5
18689.3
18686.2
18683
18679.8
18676.7
18673.5
18670.4
18667.2
18664.1
18660.9
18657.8
18654.6
18651.4
18648.3
18645.1
18642
18638.8
18635.7
18632.5
18629.3
18626.2
18623
18619.8
18616.7
18613.5
18610.4
18607.2
18604
18600.9
18597.7
18594.5
18591.4
18588.2
18585
18581.9
18578.7
18575.5
18572.4
18569.2
18566
18562.9
18559.7
18556.5
18553.4
18550.2
18547
18543.9
18540.7
18537.5
18534.3
18531.2
18528
18524.8
18521.6
18518.5
18515.3
18512.1
18508.9
18505.8
18502.6
18499.4
18496.2
18493.1
18489.9
18486.7
18483.5
18480.4
18477.2
18474
18470.8
18467.7
18464.5
18461.3
18458.1
18454.9
18451.8
18448.6
18445.4
18442.2
18439
18435.9
18432.7
18429.5
18426.3
18423.1
18420
18416.8
18413.6
18410.4
18407.3
18404.1
18400.9
18397.7
18394.5
18391.4
18388.2
18385
18381.8
18378.6
18375.5
18372.3
18369.1
18365.9
18362.7
18359.6
18356.4
18353.2
18350
18346.8
18343.7
18340.5
18337.3
18334.1
18331
18327.8
18324.6
18321.4
18318.3
18315.1
18311.9
18308.8
18305.6
18302.4
18299.3
18296.1
18292.9
18289.8
18286.6
18283.4
18280.3
18277.1
18273.9
18270.8
18267.6
18264.5
18261.3
18258.1
18255
18251.8
18248.7
18245.5
18242.4
18239.2
18236.1
18233
18229.8
18226.7
18223.5
18220.4
18217.3
18214.1
18211
18207.9
18204.7
18201.6
18198.5
18195.4
18192.2
18189.1
18186
18182.9
18179.8
18176.7
18173.6
18170.5
18167.4
18164.3
18161.2
18158.1
18155
18151.9
18148.8
18145.8
18142.7
18139.6
18136.5
18133.5
18130.4
18127.4
18124.3
18121.3
18118.2
18115.2
18112.1
18109.1
18106.1
18103
18100
18097
18094
18091
18088
18085
18082
18079
18076.1
18073.1
18070.1
18067.2
18064.2
18061.3
18058.3
18055.4
18052.5
18049.6
18046.7
18043.8
18040.9
18038
18035.1
18032.2
18029.4
18026.5
18023.7
18020.8
18018
18015.2
18012.4
18009.6
18006.8
18004
18001.2
17998.5
17995.7
17993
17990.3
17987.6
17984.9
17982.2
17979.5
17976.9
17974.2
17971.6
17969
17966.4
17963.8
17961.2
17958.6
17956.1
17953.6
17951.1
17948.6
17946.1
17943.6
17941.2
17938.8
17936.4
17934
17931.6
17929.3
17927
17924.7
17922.4
17920.2
17917.9
17915.7
17913.5
17911.4
17909.3
17907.2
17905.1
17903
17901
17899
17897.1
17895.2
17893.3
17891.4
17889.6
17887.8
17886
17884.3
17882.6
17881
17879.3
17877.8
17876.2
17874.8
17873.3
17871.9
17870.5
17869.2
17868
17866.8
17865.6
17864.5
17863.4
17862.4
17861.5
17860.6
17859.8
17859
17858.3
17857.7
17857.1
17856.6
17856.1
17855.8
17855.5
17855.2
17855.1
17855
17855
17855
17855.1
17855.3
17855.5
17855.9
17856.5
17857.1
17857.8
17858.6
17859.5
17860.5
17861.6
17862.9
17864.2
17865.7
17867.3
17869
17870.8
17872.7
17874.8
17877
17879.4
17881.8
17884.5
17887.2
17890.1
17893.2
17896.4
17899.8
17903.3
17907
17910.9
17914.9
17919.1
17923.5
17928.1
17932.8
17937.7
17942.8
17948.2
17953.7
17959.4
17965.3
17971.4
17977.7
17984.2
17990.9
17997.8
18005
18012.3
18019.9
18027.7
18035.7
18044
18052.4
18061.1
18070
18079.2
18088.5
18098.1
18107.9
18118
18128.2
18138.7
18149.4
18160.3
18171.4
18182.8
18194.3
18206.1
18218.1
18230.3
18242.7
18255.2
18268
18281
18294.1
18307.5
18321
18334.7
18348.5
18362.5
18376.7
18391
18405.5
18420.2
18434.9
18449.8
18464.9
18480
18495.3
18510.7
18526.2
18541.8
18557.5
18573.3
18589.2
18605.2
18621.3
18637.4
18653.7
18670
18686.3
18702.8
18719.3
18735.8
18752.5
18769.1
18785.8
18802.6
18819.4
18836.3
18853.2
18870.1
18887.1
18904.1
18921.2
18938.2
18955.3
18972.5
18989.7
19006.9
19024.1
19041.3
19058.6
19075.9
19093.3
19110.6
19128
19145.4
19162.8
19180.3
19197.7
19215.2
19232.7
19250.2
19267.8
19285.4
19302.9
19320.6
19338.2
19355.8
19373.5
19391.2
19408.9
19426.6
19444.4
19462.1
19479.9
19497.7
19515.5
19533.4
19551.2
19569.1
19587
19604.9
19622.9
19640.8
19658.8
19676.8
19694.8
19712.8
19730.9
19749
19767
19785.2
19803.3
19821.4
19839.6
19857.8
19876
19894.2
19912.4
19930.7
19949
19967.3
19985.6
20003.9
20022.3
20040.7
20059.1
20077.5
20095.9
20114.4
20132.8
20151.3
20169.8
20188.3
20206.9
20225.5
20244
20262.6
20281.3
20299.9
20318.6
20337.2
20355.9
20374.7
20393.4
20412.1
20430.9
20449.7
20468.5
20487.4
20506.2
20525.1
20544
20562.9
20581.8
20600.8
20619.7
20638.7
20657.7
20676.7
20695.8
20714.8
20733.9
20753
20772.1
20791.3
20810.4
20829.6
20848.8
20868
20887.3
20906.5
20925.8
20945.1
20964.4
20983.8
21003.1
21022.5
21041.9
21061.3
21080.7
21100.2
21119.7
21139.2
21158.7
21178.2
21197.8
21217.3
21236.9
21256.5
21276.2
21295.8
21315.5
21335.2
21354.9
21374.6
21394.4
21414.1
21433.9
21453.7
21473.6
21493.4
21513.3
21533.2
21553.1
21573
21593
21612.9
21632.9
21652.9
21673
21693
21713.1
21733.2
21753.3
21773.4
21793.6
21813.7
21833.9
21854.1
21874.4
21894.6
21914.9
21935.2
21955.5
21975.8
21996.2
22016.5
22036.9
22057.3
22077.8
22098.2
22118.7
22139.2
22159.7
22180.2
22200.8
22221.3
22241.9
22262.5
22283.2
22303.8
22324.5
22345.2
22365.9
22386.6
22407.4
22428.2
22449
22469.8
22490.6
22511.5
22532.3
22553.2
22574.2
22595.1
22616.1
22637
22658
22679
22700.1
22721.1
22742.2
22763.3
22784.4
22805.6
22826.7
22847.9
22869.1
22890.3
22911.6
22932.8
22954.1
22975.4
22996.7
23018.1
23039.4
23060.8
23082.2
23103.7
23125.1
23146.6
23168.1
23189.6
23211.1
23232.6
23254.2
23275.8
23297.4
23319
23340.7
23362.3
23384
23405.7
23427.4
23449.2
23471
23492.8
23514.6
23536.4
23558.2
23580.1
23602
23623.9
23645.8
23667.8
23689.8
23711.7
23733.8
23755.8
23777.8
23799.9
23822
23844.1
23866.2
23888.4
23910.6
23932.8
23955
23977.2
23999.4
24021.7
24044
24066.3
24088.6
24111
24133.4
24155.8
24178.2
24200.6
24223
24245.5
24268
24290.5
24313
24335.6
24358.1
24380.7
24403.3
24426
24448.6
24471.3
24494
24516.7
24539.4
24562.1
24584.9
24607.7
24630.5
24653.3
24676.1
24699
24721.8
24744.7
24767.6
24790.6
24813.5
24836.5
24859.5
24882.5
24905.5
24928.6
24951.6
24974.7
24997.8
25020.9
25044.1
25067.2
25090.4
25113.6
25136.8
25160
25183.3
25206.5
25229.8
25253.1
25276.4
25299.8
25323.1
25346.5
25369.9
25393.3
25416.7
25440.1
25463.6
25487.1
25510.6
25534.1
25557.7
25581.2
25604.8
25628.4
25652
25675.6
25699.3
25722.9
25746.6
25770.3
25794
25817.7
25841.4
25865.1
25888.9
25912.7
25936.5
25960.2
25984.1
26007.9
26031.7
26055.5
26079.4
26103.3
26127.2
26151.1
26175
26198.9
26222.9
26246.8
26270.8
26294.8
26318.8
26342.8
26366.8
26390.9
26415
26439
26463.1
26487.3
26511.4
26535.5
26559.7
26583.9
26608.2
26632.4
26656.7
26681
26705.3
26729.7
26754.1
26778.5
26803
26827.5
26852.1
26876.7
26901.4
26926.1
26950.9
26975.7
27000.7
27025.7
27050.7
27075.9
27101.1
27126.5
27151.9
27177.5
27203.1
27228.9
27254.8
27280.8
27306.9
27333.2
27359.7
27386.2
27412.9
27439.8
27466.8
27494
27521.3
27548.8
27576.5
27604.2
27632.2
27660.3
27688.5
27716.9
27745.4
27774
27802.8
27831.6
27860.6
27889.6
27918.8
27947.9
27977.2
28006.4
28035.7
28065
28094.3
28123.5
28152.8
28181.9
28211
28240.1
28269
28297.8
28326.5
28355.1
28383.5
28411.8
28439.9
28467.9
28495.6
28523.3
28550.7
28577.9
28604.9
28631.8
28658.4
28684.9
28710.9
28737.1
28762.9
28788.6
28814.1
28839.5
28864.6
28889.6
28914.4
28939.1
28963.6
28987.9
29012.1
29036.2
29060
29083.8
29107.4
29130.9
29154.2
29177.4
29200.5
29223.4
29246.2
29268.9
29291.4
29313.8
29336.1
29358.2
29380.2
29402.1
29423.8
29445.4
29466.8
29488.1
29509.3
29530.3
29551.1
29571.8
29592.4
29612.8
29633
29653
29672.9
29692.6
29712.1
29731.5
29750.7
29769.7
29788.5
29807.1
29825.6
29843.9
29861.9
29879.8
29897.5
29915
29932.2
29949.3
29966.1
29982.8
29999.2
30015.4
30031.4
30047.2
30062.8
30078.2
30093.3
30108.3
30123.1
30137.8
30152.3
30166.8
30181.2
30195.8
30210.5
30225.7
30241.6
30258.3
30276.4
30296.2
)
;

boundaryField
{
    sides
    {
        type            zeroGradient;
    }
    empty
    {
        type            empty;
    }
}


// ************************************************************************* //
