/*--------------------------------*- C++ -*----------------------------------*\
  =========                 |
  \\      /  F ield         | OpenFOAM: The Open Source CFD Toolbox
   \\    /   O peration     | Website:  https://openfoam.org
    \\  /    A nd           | Version:  9
     \\/     M anipulation  |
\*---------------------------------------------------------------------------*/
FoamFile
{
    format      ascii;
    class       volScalarField;
    location    "0.031";
    object      rho;
}
// * * * * * * * * * * * * * * * * * * * * * * * * * * * * * * * * * * * * * //

dimensions      [1 -3 0 0 0 0 0];

internalField   nonuniform List<scalar> 
1000
(
0.304398
0.304329
0.304226
0.304127
0.304035
0.303945
0.30385
0.303753
0.303658
0.303567
0.30348
0.303394
0.303306
0.303213
0.303114
0.303013
0.302914
0.30282
0.302734
0.302657
0.30259
0.30253
0.302476
0.302425
0.302375
0.302325
0.302277
0.302234
0.302197
0.302161
0.302126
0.30209
0.302055
0.302019
0.301983
0.301948
0.301912
0.301876
0.30184
0.301804
0.301768
0.301732
0.301696
0.30166
0.301624
0.301588
0.301552
0.301516
0.30148
0.301443
0.301407
0.301371
0.301335
0.301299
0.301263
0.301227
0.301191
0.301155
0.301118
0.301082
0.301046
0.30101
0.300974
0.300938
0.300901
0.300865
0.300829
0.300793
0.300757
0.300721
0.300684
0.300648
0.300611
0.300576
0.300538
0.300504
0.300465
0.300432
0.300392
0.30036
0.300319
0.300288
0.300247
0.300215
0.300174
0.300142
0.300101
0.30007
0.300029
0.299997
0.299957
0.299923
0.299886
0.299848
0.299814
0.299775
0.299741
0.299704
0.299666
0.299632
0.299593
0.299558
0.299522
0.299484
0.299449
0.299412
0.299375
0.29934
0.299302
0.299266
0.29923
0.299193
0.299157
0.299121
0.299084
0.299047
0.299011
0.298974
0.298938
0.298901
0.298865
0.298828
0.298792
0.298755
0.298718
0.298682
0.298645
0.298609
0.298572
0.298536
0.298499
0.298462
0.298426
0.298389
0.298353
0.298316
0.298279
0.298243
0.298206
0.29817
0.298133
0.298096
0.29806
0.298023
0.297986
0.29795
0.297913
0.297877
0.29784
0.297803
0.297767
0.29773
0.297693
0.297657
0.29762
0.297584
0.297547
0.29751
0.297474
0.297437
0.2974
0.297364
0.297327
0.297291
0.297254
0.297217
0.297181
0.297144
0.297107
0.297071
0.297034
0.296998
0.296961
0.296924
0.296888
0.296851
0.296815
0.296778
0.296742
0.296705
0.296669
0.296632
0.296596
0.296559
0.296523
0.296486
0.29645
0.296413
0.296377
0.29634
0.296304
0.296267
0.296231
0.296195
0.296158
0.296122
0.296085
0.296049
0.296013
0.295976
0.29594
0.295904
0.295868
0.295831
0.295795
0.295759
0.295723
0.295687
0.295651
0.295615
0.295578
0.295542
0.295506
0.29547
0.295434
0.295398
0.295362
0.295327
0.295291
0.295255
0.295219
0.295183
0.295148
0.295112
0.295076
0.295041
0.295005
0.294969
0.294934
0.294898
0.294863
0.294828
0.294792
0.294757
0.294722
0.294686
0.294651
0.294616
0.294581
0.294546
0.294511
0.294476
0.294441
0.294406
0.294372
0.294337
0.294302
0.294268
0.294233
0.294199
0.294165
0.29413
0.294096
0.294062
0.294028
0.293994
0.29396
0.293926
0.293892
0.293859
0.293825
0.293792
0.293758
0.293725
0.293692
0.293659
0.293626
0.293593
0.29356
0.293527
0.293494
0.293462
0.29343
0.293397
0.293365
0.293333
0.293301
0.29327
0.293238
0.293207
0.293175
0.293144
0.293113
0.293082
0.293051
0.293021
0.29299
0.29296
0.29293
0.2929
0.29287
0.292841
0.292812
0.292782
0.292753
0.292725
0.292696
0.292668
0.29264
0.292612
0.292584
0.292557
0.292529
0.292502
0.292476
0.292449
0.292423
0.292397
0.292372
0.292346
0.292321
0.292296
0.292272
0.292248
0.292224
0.292201
0.292177
0.292155
0.292132
0.29211
0.292088
0.292067
0.292046
0.292026
0.292006
0.291986
0.291967
0.291948
0.29193
0.291912
0.291895
0.291878
0.291861
0.291846
0.29183
0.291816
0.291801
0.291788
0.291775
0.291763
0.291751
0.29174
0.29173
0.29172
0.291711
0.291703
0.291695
0.291688
0.291682
0.291677
0.291673
0.291669
0.291667
0.291665
0.291664
0.291664
0.291664
0.291665
0.291667
0.29167
0.291674
0.29168
0.291687
0.291696
0.291705
0.291716
0.291727
0.29174
0.291755
0.29177
0.291787
0.291805
0.291825
0.291846
0.291869
0.291893
0.291919
0.291946
0.291974
0.292005
0.292037
0.292071
0.292106
0.292144
0.292183
0.292224
0.292267
0.292312
0.292358
0.292407
0.292458
0.292511
0.292566
0.292623
0.292682
0.292744
0.292808
0.292874
0.292942
0.293013
0.293086
0.293162
0.29324
0.29332
0.293403
0.293489
0.293576
0.293667
0.29376
0.293855
0.293953
0.294054
0.294157
0.294263
0.294372
0.294483
0.294596
0.294713
0.294831
0.294953
0.295076
0.295203
0.295332
0.295463
0.295597
0.295733
0.295871
0.296012
0.296155
0.296301
0.296449
0.296599
0.29675
0.296905
0.297061
0.297219
0.297379
0.297541
0.297704
0.29787
0.298037
0.298205
0.298376
0.298548
0.298721
0.298896
0.299072
0.299249
0.299428
0.299608
0.299788
0.29997
0.300154
0.300337
0.300522
0.300708
0.300895
0.301082
0.30127
0.301459
0.301649
0.301839
0.30203
0.302221
0.302413
0.302605
0.302798
0.302991
0.303186
0.303379
0.303574
0.303769
0.303965
0.30416
0.304356
0.304552
0.304749
0.304945
0.305143
0.305339
0.305537
0.305735
0.305933
0.306131
0.30633
0.306528
0.306727
0.306926
0.307125
0.307325
0.307524
0.307724
0.307924
0.308124
0.308324
0.308525
0.308725
0.308926
0.309127
0.309328
0.30953
0.309731
0.309933
0.310135
0.310337
0.310539
0.310741
0.310943
0.311146
0.311349
0.311552
0.311755
0.311958
0.312162
0.312365
0.312569
0.312773
0.312977
0.313181
0.313385
0.31359
0.313795
0.314
0.314205
0.31441
0.314615
0.314821
0.315026
0.315232
0.315438
0.315645
0.315851
0.316057
0.316264
0.316471
0.316677
0.316885
0.317092
0.3173
0.317507
0.317715
0.317922
0.318131
0.318338
0.318547
0.318755
0.318965
0.319173
0.319382
0.319591
0.319801
0.32001
0.32022
0.320429
0.32064
0.320849
0.32106
0.32127
0.321481
0.321691
0.321903
0.322113
0.322325
0.322535
0.322748
0.322959
0.323171
0.323382
0.323595
0.323807
0.32402
0.324232
0.324445
0.324658
0.324871
0.325084
0.325298
0.325511
0.325725
0.325938
0.326153
0.326367
0.326582
0.326795
0.327011
0.327225
0.327441
0.327655
0.327871
0.328086
0.328302
0.328517
0.328734
0.328949
0.329166
0.329382
0.329599
0.329815
0.330033
0.330249
0.330467
0.330684
0.330902
0.331119
0.331338
0.331555
0.331774
0.331992
0.332211
0.332429
0.332649
0.332867
0.333087
0.333305
0.333525
0.333744
0.333965
0.334184
0.334405
0.334624
0.334846
0.335065
0.335287
0.335507
0.335729
0.335949
0.336172
0.336392
0.336615
0.336836
0.337059
0.33728
0.337503
0.337725
0.337949
0.338171
0.338395
0.338617
0.338841
0.339064
0.339288
0.339511
0.339736
0.339959
0.340184
0.340408
0.340634
0.340857
0.341083
0.341307
0.341534
0.341758
0.341985
0.34221
0.342436
0.342662
0.342889
0.343114
0.343342
0.343568
0.343795
0.344022
0.34425
0.344476
0.344705
0.344931
0.34516
0.345387
0.345617
0.345844
0.346073
0.346301
0.346531
0.346759
0.346989
0.347218
0.347448
0.347677
0.347908
0.348137
0.348368
0.348597
0.348829
0.349058
0.34929
0.34952
0.349752
0.349983
0.350215
0.350446
0.350679
0.35091
0.351143
0.351374
0.351608
0.351839
0.352073
0.352305
0.352539
0.352771
0.353006
0.353238
0.353473
0.353706
0.353942
0.354175
0.35441
0.354644
0.35488
0.355113
0.35535
0.355584
0.35582
0.356055
0.356291
0.356526
0.356763
0.356998
0.357236
0.357471
0.357709
0.357945
0.358183
0.358419
0.358657
0.358894
0.359132
0.359369
0.359608
0.359845
0.360084
0.360322
0.360561
0.360799
0.361039
0.361276
0.361517
0.361755
0.361995
0.362234
0.362475
0.362713
0.362955
0.363193
0.363435
0.363674
0.363916
0.364155
0.364398
0.364637
0.364881
0.365119
0.365364
0.365602
0.365848
0.366085
0.366332
0.366568
0.366817
0.367052
0.367303
0.367537
0.367789
0.368022
0.368277
0.368507
0.368765
0.368992
0.369254
0.369477
0.369743
0.369964
0.370233
0.37045
0.370724
0.370938
0.371214
0.371427
0.371704
0.371917
0.372195
0.372407
0.372686
0.372898
0.373177
0.37339
0.373669
0.373882
0.374161
0.374374
0.374654
0.374867
0.375147
0.375361
0.375641
0.375855
0.376135
0.376349
0.376631
0.376844
0.377127
0.377338
0.377624
0.377833
0.378122
0.378327
0.378621
0.378821
0.379119
0.379316
0.379618
0.379812
0.380117
0.380308
0.380616
0.380805
0.381116
0.381303
0.381615
0.381801
0.382114
0.382299
0.382614
0.382798
0.383113
0.383297
0.383614
0.383797
0.384114
0.384297
0.384614
0.384797
0.385115
0.385298
0.385617
0.385799
0.386119
0.386301
0.386621
0.386803
0.387124
0.387305
0.387627
0.387809
0.388132
0.388313
0.388637
0.388818
0.389143
0.389325
0.389651
0.389833
0.39016
0.390342
0.390671
0.390853
0.391184
0.391367
0.391699
0.391882
0.392217
0.392401
0.392739
0.392923
0.393263
0.393449
0.393792
0.39398
0.394326
0.394514
0.394864
0.395054
0.395408
0.3956
0.395957
0.39615
0.396512
0.396707
0.397074
0.39727
0.397641
0.39784
0.398214
0.398414
0.398793
0.398995
0.399378
0.399581
0.399967
0.400171
0.40056
0.400765
0.401157
0.401362
0.401756
0.401961
0.402355
0.40256
0.402955
0.403159
0.403554
0.403756
0.404149
0.404351
0.404742
0.404941
0.405329
0.405527
0.405912
0.406106
0.406487
0.406679
0.407056
0.407244
0.407616
0.407802
0.408169
0.408352
0.408714
0.408893
0.409247
0.409434
0.409753
0.409992
0.410247
0.410513
0.410771
0.411016
0.411274
0.411523
0.411773
0.412017
0.412266
0.412507
0.412752
0.41299
0.413232
0.413468
0.413706
0.413939
0.414175
0.414405
0.414638
0.414865
0.415095
0.415319
0.415547
0.415768
0.415993
0.416211
0.416433
0.416648
0.416868
0.417079
0.417297
0.417504
0.417719
0.417923
0.418136
0.418334
0.418546
0.418738
0.418949
0.419135
0.419347
0.419525
0.419737
0.419907
0.42012
0.420282
0.420495
0.420649
0.420864
0.421006
0.421225
0.421356
0.421577
0.421698
0.42192
0.422032
0.422254
0.422359
0.422578
0.422678
0.422893
0.422989
0.423199
0.423293
0.423498
0.423589
0.42379
0.423879
0.424079
0.424169
0.424372
0.424466
0.424682
0.424784
0.42503
0.425157
)
;

boundaryField
{
    sides
    {
        type            calculated;
        value           nonuniform List<scalar> 2(0.425157 0.304398);
    }
    empty
    {
        type            empty;
    }
}


// ************************************************************************* //
