/*--------------------------------*- C++ -*----------------------------------*\
  =========                 |
  \\      /  F ield         | OpenFOAM: The Open Source CFD Toolbox
   \\    /   O peration     | Website:  https://openfoam.org
    \\  /    A nd           | Version:  9
     \\/     M anipulation  |
\*---------------------------------------------------------------------------*/
FoamFile
{
    format      ascii;
    class       volScalarField;
    location    "0.031";
    object      T;
}
// * * * * * * * * * * * * * * * * * * * * * * * * * * * * * * * * * * * * * //

dimensions      [0 0 0 1 0 0 0];

internalField   nonuniform List<scalar> 
1000
(
215.322
215.337
215.366
215.396
215.426
215.455
215.486
215.519
215.551
215.579
215.605
215.63
215.656
215.687
215.721
215.756
215.791
215.822
215.848
215.866
215.878
215.884
215.887
215.887
215.887
215.887
215.885
215.879
215.869
215.859
215.848
215.837
215.826
215.816
215.805
215.794
215.784
215.773
215.763
215.752
215.742
215.731
215.721
215.71
215.7
215.689
215.679
215.668
215.658
215.647
215.636
215.626
215.615
215.605
215.594
215.584
215.573
215.563
215.552
215.542
215.531
215.521
215.51
215.499
215.489
215.478
215.468
215.457
215.447
215.436
215.426
215.415
215.405
215.393
215.384
215.372
215.363
215.35
215.343
215.328
215.321
215.307
215.3
215.286
215.279
215.265
215.258
215.244
215.237
215.223
215.215
215.203
215.192
215.182
215.17
215.162
215.149
215.139
215.129
215.117
215.108
215.097
215.086
215.076
215.064
215.054
215.044
215.032
215.022
215.012
215.001
214.99
214.98
214.969
214.958
214.948
214.937
214.926
214.916
214.905
214.894
214.884
214.873
214.862
214.852
214.841
214.83
214.819
214.809
214.798
214.787
214.777
214.766
214.755
214.745
214.734
214.723
214.712
214.702
214.691
214.68
214.67
214.659
214.648
214.637
214.627
214.616
214.605
214.595
214.584
214.573
214.562
214.552
214.541
214.53
214.52
214.509
214.498
214.487
214.477
214.466
214.455
214.445
214.434
214.423
214.412
214.402
214.391
214.38
214.37
214.359
214.348
214.337
214.327
214.316
214.305
214.295
214.284
214.273
214.262
214.252
214.241
214.23
214.22
214.209
214.198
214.188
214.177
214.166
214.156
214.145
214.134
214.124
214.113
214.102
214.092
214.081
214.07
214.06
214.049
214.038
214.028
214.017
214.007
213.996
213.985
213.975
213.964
213.954
213.943
213.932
213.922
213.911
213.901
213.89
213.88
213.869
213.859
213.848
213.838
213.827
213.817
213.806
213.796
213.785
213.775
213.764
213.754
213.744
213.733
213.723
213.712
213.702
213.692
213.681
213.671
213.661
213.65
213.64
213.63
213.62
213.609
213.599
213.589
213.579
213.568
213.558
213.548
213.538
213.528
213.518
213.508
213.498
213.488
213.478
213.468
213.458
213.448
213.438
213.428
213.418
213.408
213.399
213.389
213.379
213.369
213.36
213.35
213.34
213.331
213.321
213.312
213.302
213.293
213.283
213.274
213.265
213.255
213.246
213.237
213.228
213.218
213.209
213.2
213.191
213.182
213.173
213.164
213.156
213.147
213.138
213.129
213.121
213.112
213.104
213.095
213.087
213.079
213.07
213.062
213.054
213.046
213.038
213.03
213.022
213.014
213.007
212.999
212.992
212.984
212.977
212.97
212.962
212.955
212.948
212.941
212.935
212.928
212.921
212.915
212.909
212.902
212.896
212.89
212.884
212.879
212.873
212.867
212.862
212.857
212.852
212.847
212.842
212.837
212.833
212.829
212.825
212.821
212.817
212.813
212.81
212.807
212.804
212.801
212.798
212.796
212.794
212.792
212.79
212.789
212.787
212.786
212.786
212.785
212.785
212.785
212.785
212.785
212.786
212.787
212.788
212.79
212.792
212.795
212.798
212.801
212.804
212.808
212.812
212.817
212.822
212.828
212.833
212.84
212.846
212.854
212.861
212.869
212.878
212.887
212.896
212.906
212.917
212.928
212.94
212.952
212.964
212.978
212.992
213.006
213.021
213.037
213.053
213.07
213.087
213.106
213.125
213.144
213.164
213.185
213.207
213.229
213.252
213.276
213.3
213.325
213.351
213.378
213.405
213.433
213.462
213.492
213.522
213.553
213.585
213.618
213.651
213.685
213.72
213.755
213.792
213.829
213.866
213.905
213.944
213.984
214.024
214.066
214.107
214.15
214.193
214.237
214.281
214.326
214.371
214.417
214.464
214.511
214.559
214.607
214.655
214.704
214.754
214.804
214.854
214.905
214.956
215.007
215.059
215.111
215.163
215.216
215.269
215.322
215.375
215.429
215.483
215.537
215.591
215.646
215.7
215.755
215.81
215.865
215.92
215.976
216.031
216.087
216.142
216.198
216.254
216.31
216.365
216.422
216.478
216.534
216.59
216.647
216.703
216.759
216.816
216.872
216.929
216.985
217.042
217.099
217.155
217.212
217.269
217.326
217.383
217.439
217.496
217.553
217.61
217.667
217.724
217.781
217.838
217.895
217.952
218.01
218.067
218.124
218.181
218.238
218.296
218.353
218.41
218.468
218.525
218.582
218.64
218.697
218.755
218.812
218.87
218.927
218.985
219.043
219.1
219.158
219.215
219.273
219.331
219.389
219.446
219.504
219.562
219.62
219.678
219.736
219.793
219.851
219.909
219.967
220.025
220.083
220.141
220.2
220.257
220.316
220.374
220.432
220.49
220.549
220.606
220.665
220.723
220.782
220.839
220.898
220.956
221.015
221.073
221.132
221.19
221.249
221.307
221.366
221.424
221.483
221.541
221.6
221.658
221.717
221.775
221.835
221.893
221.952
222.01
222.07
222.128
222.187
222.246
222.305
222.363
222.423
222.481
222.541
222.599
222.659
222.717
222.777
222.835
222.895
222.954
223.013
223.072
223.132
223.19
223.25
223.309
223.369
223.427
223.487
223.546
223.606
223.665
223.725
223.783
223.843
223.902
223.962
224.021
224.081
224.14
224.201
224.26
224.32
224.379
224.439
224.498
224.558
224.618
224.678
224.737
224.797
224.857
224.917
224.976
225.037
225.096
225.157
225.216
225.276
225.336
225.396
225.456
225.516
225.576
225.637
225.696
225.757
225.816
225.877
225.937
225.997
226.057
226.118
226.178
226.238
226.298
226.359
226.419
226.48
226.539
226.6
226.66
226.721
226.781
226.842
226.902
226.963
227.023
227.084
227.144
227.205
227.265
227.326
227.386
227.448
227.508
227.569
227.629
227.69
227.75
227.812
227.872
227.933
227.993
228.055
228.115
228.177
228.237
228.298
228.358
228.42
228.48
228.542
228.602
228.664
228.724
228.786
228.846
228.908
228.968
229.03
229.09
229.152
229.212
229.274
229.334
229.396
229.456
229.518
229.579
229.641
229.701
229.763
229.823
229.885
229.946
230.008
230.068
230.13
230.191
230.253
230.313
230.375
230.436
230.498
230.559
230.621
230.681
230.743
230.804
230.866
230.927
230.989
231.05
231.112
231.173
231.235
231.296
231.358
231.419
231.481
231.542
231.604
231.665
231.727
231.788
231.85
231.911
231.974
232.035
232.097
232.158
232.22
232.281
232.344
232.405
232.467
232.528
232.591
232.651
232.715
232.775
232.838
232.898
232.962
233.022
233.086
233.145
233.21
233.269
233.334
233.392
233.459
233.515
233.583
233.639
233.708
233.762
233.832
233.885
233.957
234.008
234.083
234.131
234.208
234.254
234.333
234.377
234.458
234.5
234.583
234.624
234.707
234.749
234.831
234.873
234.956
234.997
235.08
235.121
235.204
235.246
235.329
235.37
235.453
235.495
235.577
235.619
235.702
235.743
235.827
235.868
235.952
235.992
236.077
236.116
236.203
236.24
236.329
236.363
236.455
236.486
236.58
236.61
236.706
236.733
236.831
236.857
236.957
236.981
237.082
237.105
237.207
237.229
237.331
237.353
237.456
237.478
237.581
237.602
237.705
237.726
237.83
237.85
237.954
237.975
238.079
238.099
238.203
238.223
238.328
238.347
238.452
238.472
238.577
238.596
238.702
238.721
238.827
238.845
238.952
238.97
239.077
239.095
239.203
239.221
239.328
239.346
239.455
239.473
239.581
239.599
239.709
239.726
239.837
239.854
239.965
239.983
240.095
240.112
240.226
240.243
240.357
240.375
240.49
240.507
240.624
240.642
240.76
240.777
240.897
240.914
241.035
241.052
241.174
241.191
241.315
241.332
241.457
241.474
241.6
241.617
241.744
241.761
241.889
241.905
242.034
242.05
242.179
242.195
242.325
242.34
242.469
242.484
242.613
242.628
242.756
242.77
242.898
242.912
243.038
243.051
243.177
243.189
243.314
243.326
243.449
243.46
243.582
243.593
243.712
243.723
243.841
243.851
243.962
243.991
244.066
244.131
244.188
244.247
244.313
244.369
244.43
244.488
244.549
244.605
244.664
244.721
244.779
244.835
244.893
244.947
245.004
245.058
245.115
245.168
245.224
245.276
245.332
245.383
245.438
245.489
245.543
245.593
245.647
245.696
245.749
245.797
245.85
245.897
245.949
245.995
246.047
246.091
246.144
246.185
246.239
246.277
246.333
246.367
246.425
246.455
246.515
246.542
246.603
246.627
246.691
246.709
246.776
246.789
246.859
246.867
246.939
246.944
247.016
247.02
247.091
247.094
247.164
247.166
247.235
247.236
247.304
247.305
247.372
247.373
247.441
247.442
247.513
247.516
247.593
247.598
247.686
)
;

boundaryField
{
    sides
    {
        type            zeroGradient;
    }
    empty
    {
        type            empty;
    }
}


// ************************************************************************* //
