/*--------------------------------*- C++ -*----------------------------------*\
  =========                 |
  \\      /  F ield         | OpenFOAM: The Open Source CFD Toolbox
   \\    /   O peration     | Website:  https://openfoam.org
    \\  /    A nd           | Version:  9
     \\/     M anipulation  |
\*---------------------------------------------------------------------------*/
FoamFile
{
    format      ascii;
    class       surfaceScalarField;
    location    "0.027";
    object      ddtCorrDdt0(phi);
}
// * * * * * * * * * * * * * * * * * * * * * * * * * * * * * * * * * * * * * //

dimensions      [1 0 -2 0 0 0 0];

internalField   nonuniform List<scalar> 
99
(
-1828.63
-2417.29
-2965.53
-3540.15
-4132.06
-4729.82
-5312.68
-5888.65
-6472.5
-7029.15
-7578.31
-8129.89
-8673.14
-9230.11
-9754.61
-10279.2
-10848.2
-11371.9
-11841.2
-12377
-12966
-13464.5
-13865.7
-14363.9
-14998.5
-15517.1
-15884.9
-16319.7
-16878.1
-17487.6
-17901
-18236.7
-18646.5
-19345
-19836.1
-20233.6
-20488.6
-20958.1
-21586.7
-22329.4
-22526.7
-23327.6
-23366
-21904.9
-23945.7
-26485.4
-20741
-15449.2
-37976.9
-82042.3
-27481.1
-24088.5
-20822.1
-15656.7
-4968.68
20864.3
95127.3
-297383
-53289.5
-20302.1
-12316.4
-1977.95
17096.9
64852.9
207976
-692688
-39106.9
-9172.25
826.337
15334.4
45331.1
211137
-304453
-19090.3
29242.4
175887
-150446
-13420.1
100559
106727
-379460
-13865.8
-8024.19
-9443.28
-1223.01
292110
50371.4
-447086
-35199.5
508733
9814.16
-380059
73510.4
261807
-119348
-34385.8
20200.6
-124241
226928
)
;

boundaryField
{
    sides
    {
        type            calculated;
        value           nonuniform List<scalar> 2(856.093 1232.51);
    }
    empty
    {
        type            empty;
        value           nonuniform List<scalar> 0();
    }
}


// ************************************************************************* //
