/*--------------------------------*- C++ -*----------------------------------*\
  =========                 |
  \\      /  F ield         | OpenFOAM: The Open Source CFD Toolbox
   \\    /   O peration     | Website:  https://openfoam.org
    \\  /    A nd           | Version:  9
     \\/     M anipulation  |
\*---------------------------------------------------------------------------*/
FoamFile
{
    format      ascii;
    class       surfaceScalarField;
    location    "0.027";
    object      phi_0;
}
// * * * * * * * * * * * * * * * * * * * * * * * * * * * * * * * * * * * * * //

dimensions      [1 0 -1 0 0 0 0];

internalField   nonuniform List<scalar> 
99
(
75.168
81.9364
88.6199
95.2573
101.864
108.453
115.043
121.607
128.146
134.674
141.146
147.605
154.006
160.385
166.741
173.021
179.289
185.561
191.744
197.858
204.006
210.153
216.19
222.138
228.105
234.124
240.065
245.876
251.638
257.493
263.329
269.024
274.64
280.256
285.96
291.612
297.121
302.558
307.893
313.267
318.574
323.855
329.09
334.277
339.548
344.668
349.986
354.368
358.604
365.25
371.556
376.792
381.746
386.32
390.28
392.941
392.295
391.053
414.263
419.779
423.983
427.538
430.198
430.82
425.063
434.396
452.936
456.592
459.255
461.046
461.428
456.793
454.415
472.93
473.89
470.41
465.123
480.729
480.52
470.998
484.836
490.317
491.706
493.126
494.56
489.368
476.423
497.476
504.116
489.93
476.282
502.98
510.562
488.219
483.123
498.096
500.35
499.336
495.782
)
;

boundaryField
{
    sides
    {
        type            calculated;
        value           nonuniform List<scalar> 2(496.604 -68.3574);
    }
    empty
    {
        type            empty;
        value           nonuniform List<scalar> 0();
    }
}


// ************************************************************************* //
