/*--------------------------------*- C++ -*----------------------------------*\
  =========                 |
  \\      /  F ield         | OpenFOAM: The Open Source CFD Toolbox
   \\    /   O peration     | Website:  https://openfoam.org
    \\  /    A nd           | Version:  9
     \\/     M anipulation  |
\*---------------------------------------------------------------------------*/
FoamFile
{
    format      ascii;
    class       volScalarField;
    location    "0.029";
    object      p;
}
// * * * * * * * * * * * * * * * * * * * * * * * * * * * * * * * * * * * * * //

dimensions      [1 -1 -2 0 0 0 0];

internalField   nonuniform List<scalar> 
10000
(
20103.1
20103
20102.8
20102.7
20102.6
20102.5
20102.3
20102.2
20102.1
20102
20101.8
20101.7
20101.6
20101.5
20101.3
20101.2
20101.1
20101
20100.9
20100.7
20100.6
20100.5
20100.4
20100.2
20100.1
20100
20099.9
20099.7
20099.6
20099.5
20099.4
20099.2
20099.1
20099
20098.9
20098.7
20098.6
20098.5
20098.4
20098.2
20098.1
20098
20097.9
20097.7
20097.6
20097.5
20097.4
20097.2
20097.1
20097
20096.9
20096.7
20096.6
20096.5
20096.4
20096.2
20096.1
20096
20095.9
20095.7
20095.6
20095.5
20095.4
20095.2
20095.1
20095
20094.9
20094.7
20094.6
20094.5
20094.4
20094.2
20094.1
20094
20093.8
20093.7
20093.6
20093.5
20093.3
20093.2
20093.1
20093
20092.8
20092.7
20092.6
20092.4
20092.3
20092.2
20092.1
20091.9
20091.8
20091.7
20091.6
20091.4
20091.3
20091.2
20091
20090.9
20090.8
20090.7
20090.5
20090.4
20090.3
20090.1
20090
20089.9
20089.8
20089.6
20089.5
20089.4
20089.2
20089.1
20089
20088.9
20088.7
20088.6
20088.5
20088.3
20088.2
20088.1
20088
20087.8
20087.7
20087.6
20087.4
20087.3
20087.2
20087
20086.9
20086.8
20086.7
20086.5
20086.4
20086.3
20086.1
20086
20085.9
20085.7
20085.6
20085.5
20085.4
20085.2
20085.1
20085
20084.8
20084.7
20084.6
20084.4
20084.3
20084.2
20084
20083.9
20083.8
20083.7
20083.5
20083.4
20083.3
20083.1
20083
20082.9
20082.7
20082.6
20082.5
20082.3
20082.2
20082.1
20081.9
20081.8
20081.7
20081.5
20081.4
20081.3
20081.2
20081
20080.9
20080.8
20080.6
20080.5
20080.4
20080.2
20080.1
20080
20079.8
20079.7
20079.6
20079.4
20079.3
20079.2
20079
20078.9
20078.8
20078.6
20078.5
20078.4
20078.2
20078.1
20078
20077.8
20077.7
20077.6
20077.4
20077.3
20077.2
20077
20076.9
20076.8
20076.6
20076.5
20076.3
20076.2
20076.1
20075.9
20075.8
20075.7
20075.5
20075.4
20075.3
20075.1
20075
20074.9
20074.7
20074.6
20074.5
20074.3
20074.2
20074.1
20073.9
20073.8
20073.6
20073.5
20073.4
20073.2
20073.1
20073
20072.8
20072.7
20072.6
20072.4
20072.3
20072.2
20072
20071.9
20071.7
20071.6
20071.5
20071.3
20071.2
20071.1
20070.9
20070.8
20070.7
20070.5
20070.4
20070.2
20070.1
20070
20069.8
20069.7
20069.6
20069.4
20069.3
20069.1
20069
20068.9
20068.7
20068.6
20068.5
20068.3
20068.2
20068
20067.9
20067.8
20067.6
20067.5
20067.4
20067.2
20067.1
20066.9
20066.8
20066.7
20066.5
20066.4
20066.2
20066.1
20066
20065.8
20065.7
20065.6
20065.4
20065.3
20065.1
20065
20064.9
20064.7
20064.6
20064.4
20064.3
20064.2
20064
20063.9
20063.7
20063.6
20063.5
20063.3
20063.2
20063
20062.9
20062.8
20062.6
20062.5
20062.3
20062.2
20062.1
20061.9
20061.8
20061.6
20061.5
20061.4
20061.2
20061.1
20060.9
20060.8
20060.7
20060.5
20060.4
20060.2
20060.1
20059.9
20059.8
20059.7
20059.5
20059.4
20059.2
20059.1
20059
20058.8
20058.7
20058.5
20058.4
20058.2
20058.1
20058
20057.8
20057.7
20057.5
20057.4
20057.2
20057.1
20057
20056.8
20056.7
20056.5
20056.4
20056.3
20056.1
20056
20055.8
20055.7
20055.5
20055.4
20055.3
20055.1
20055
20054.8
20054.7
20054.5
20054.4
20054.2
20054.1
20054
20053.8
20053.7
20053.5
20053.4
20053.2
20053.1
20053
20052.8
20052.7
20052.5
20052.4
20052.2
20052.1
20051.9
20051.8
20051.7
20051.5
20051.4
20051.2
20051.1
20050.9
20050.8
20050.6
20050.5
20050.3
20050.2
20050.1
20049.9
20049.8
20049.6
20049.5
20049.3
20049.2
20049
20048.9
20048.7
20048.6
20048.5
20048.3
20048.2
20048
20047.9
20047.7
20047.6
20047.4
20047.3
20047.1
20047
20046.8
20046.7
20046.6
20046.4
20046.3
20046.1
20046
20045.8
20045.7
20045.5
20045.4
20045.2
20045.1
20044.9
20044.8
20044.6
20044.5
20044.3
20044.2
20044
20043.9
20043.8
20043.6
20043.5
20043.3
20043.2
20043
20042.9
20042.7
20042.6
20042.4
20042.3
20042.1
20042
20041.8
20041.7
20041.5
20041.4
20041.2
20041.1
20040.9
20040.8
20040.6
20040.5
20040.3
20040.2
20040
20039.9
20039.7
20039.6
20039.4
20039.3
20039.1
20039
20038.8
20038.7
20038.5
20038.4
20038.2
20038.1
20037.9
20037.8
20037.6
20037.5
20037.3
20037.2
20037
20036.9
20036.7
20036.6
20036.4
20036.3
20036.1
20036
20035.8
20035.7
20035.5
20035.4
20035.2
20035.1
20034.9
20034.8
20034.6
20034.5
20034.3
20034.2
20034
20033.9
20033.7
20033.6
20033.4
20033.3
20033.1
20033
20032.8
20032.7
20032.5
20032.3
20032.2
20032
20031.9
20031.7
20031.6
20031.4
20031.3
20031.1
20031
20030.8
20030.7
20030.5
20030.4
20030.2
20030.1
20029.9
20029.7
20029.6
20029.4
20029.3
20029.1
20029
20028.8
20028.7
20028.5
20028.4
20028.2
20028.1
20027.9
20027.7
20027.6
20027.4
20027.3
20027.1
20027
20026.8
20026.7
20026.5
20026.4
20026.2
20026.1
20025.9
20025.7
20025.6
20025.4
20025.3
20025.1
20025
20024.8
20024.7
20024.5
20024.3
20024.2
20024
20023.9
20023.7
20023.6
20023.4
20023.3
20023.1
20022.9
20022.8
20022.6
20022.5
20022.3
20022.2
20022
20021.9
20021.7
20021.5
20021.4
20021.2
20021.1
20020.9
20020.8
20020.6
20020.4
20020.3
20020.1
20020
20019.8
20019.7
20019.5
20019.3
20019.2
20019
20018.9
20018.7
20018.6
20018.4
20018.2
20018.1
20017.9
20017.8
20017.6
20017.4
20017.3
20017.1
20017
20016.8
20016.7
20016.5
20016.3
20016.2
20016
20015.9
20015.7
20015.5
20015.4
20015.2
20015.1
20014.9
20014.8
20014.6
20014.4
20014.3
20014.1
20014
20013.8
20013.6
20013.5
20013.3
20013.2
20013
20012.8
20012.7
20012.5
20012.4
20012.2
20012
20011.9
20011.7
20011.6
20011.4
20011.2
20011.1
20010.9
20010.8
20010.6
20010.4
20010.3
20010.1
20010
20009.8
20009.6
20009.5
20009.3
20009.2
20009
20008.8
20008.7
20008.5
20008.3
20008.2
20008
20007.9
20007.7
20007.5
20007.4
20007.2
20007.1
20006.9
20006.7
20006.6
20006.4
20006.2
20006.1
20005.9
20005.8
20005.6
20005.4
20005.3
20005.1
20004.9
20004.8
20004.6
20004.5
20004.3
20004.1
20004
20003.8
20003.6
20003.5
20003.3
20003.1
20003
20002.8
20002.7
20002.5
20002.3
20002.2
20002
20001.8
20001.7
20001.5
20001.3
20001.2
20001
20000.9
20000.7
20000.5
20000.4
20000.2
20000
19999.9
19999.7
19999.5
19999.4
19999.2
19999
19998.9
19998.7
19998.6
19998.4
19998.2
19998.1
19997.9
19997.7
19997.6
19997.4
19997.2
19997.1
19996.9
19996.7
19996.6
19996.4
19996.2
19996.1
19995.9
19995.7
19995.6
19995.4
19995.2
19995.1
19994.9
19994.7
19994.6
19994.4
19994.2
19994.1
19993.9
19993.7
19993.6
19993.4
19993.2
19993.1
19992.9
19992.7
19992.6
19992.4
19992.2
19992.1
19991.9
19991.7
19991.6
19991.4
19991.2
19991.1
19990.9
19990.7
19990.6
19990.4
19990.2
19990.1
19989.9
19989.7
19989.6
19989.4
19989.2
19989
19988.9
19988.7
19988.5
19988.4
19988.2
19988
19987.9
19987.7
19987.5
19987.4
19987.2
19987
19986.9
19986.7
19986.5
19986.3
19986.2
19986
19985.8
19985.7
19985.5
19985.3
19985.2
19985
19984.8
19984.7
19984.5
19984.3
19984.1
19984
19983.8
19983.6
19983.5
19983.3
19983.1
19982.9
19982.8
19982.6
19982.4
19982.3
19982.1
19981.9
19981.8
19981.6
19981.4
19981.2
19981.1
19980.9
19980.7
19980.6
19980.4
19980.2
19980
19979.9
19979.7
19979.5
19979.4
19979.2
19979
19978.8
19978.7
19978.5
19978.3
19978.1
19978
19977.8
19977.6
19977.5
19977.3
19977.1
19976.9
19976.8
19976.6
19976.4
19976.2
19976.1
19975.9
19975.7
19975.6
19975.4
19975.2
19975
19974.9
19974.7
19974.5
19974.3
19974.2
19974
19973.8
19973.6
19973.5
19973.3
19973.1
19973
19972.8
19972.6
19972.4
19972.3
19972.1
19971.9
19971.7
19971.6
19971.4
19971.2
19971
19970.9
19970.7
19970.5
19970.3
19970.2
19970
19969.8
19969.6
19969.5
19969.3
19969.1
19968.9
19968.8
19968.6
19968.4
19968.2
19968.1
19967.9
19967.7
19967.5
19967.3
19967.2
19967
19966.8
19966.6
19966.5
19966.3
19966.1
19965.9
19965.8
19965.6
19965.4
19965.2
19965.1
19964.9
19964.7
19964.5
19964.3
19964.2
19964
19963.8
19963.6
19963.5
19963.3
19963.1
19962.9
19962.8
19962.6
19962.4
19962.2
19962
19961.9
19961.7
19961.5
19961.3
19961.2
19961
19960.8
19960.6
19960.4
19960.3
19960.1
19959.9
19959.7
19959.5
19959.4
19959.2
19959
19958.8
19958.6
19958.5
19958.3
19958.1
19957.9
19957.8
19957.6
19957.4
19957.2
19957
19956.9
19956.7
19956.5
19956.3
19956.1
19956
19955.8
19955.6
19955.4
19955.2
19955.1
19954.9
19954.7
19954.5
19954.3
19954.2
19954
19953.8
19953.6
19953.4
19953.3
19953.1
19952.9
19952.7
19952.5
19952.3
19952.2
19952
19951.8
19951.6
19951.4
19951.3
19951.1
19950.9
19950.7
19950.5
19950.4
19950.2
19950
19949.8
19949.6
19949.4
19949.3
19949.1
19948.9
19948.7
19948.5
19948.3
19948.2
19948
19947.8
19947.6
19947.4
19947.3
19947.1
19946.9
19946.7
19946.5
19946.3
19946.2
19946
19945.8
19945.6
19945.4
19945.2
19945.1
19944.9
19944.7
19944.5
19944.3
19944.1
19943.9
19943.8
19943.6
19943.4
19943.2
19943
19942.8
19942.7
19942.5
19942.3
19942.1
19941.9
19941.7
19941.6
19941.4
19941.2
19941
19940.8
19940.6
19940.4
19940.3
19940.1
19939.9
19939.7
19939.5
19939.3
19939.1
19939
19938.8
19938.6
19938.4
19938.2
19938
19937.8
19937.7
19937.5
19937.3
19937.1
19936.9
19936.7
19936.5
19936.4
19936.2
19936
19935.8
19935.6
19935.4
19935.2
19935
19934.9
19934.7
19934.5
19934.3
19934.1
19933.9
19933.7
19933.6
19933.4
19933.2
19933
19932.8
19932.6
19932.4
19932.2
19932.1
19931.9
19931.7
19931.5
19931.3
19931.1
19930.9
19930.7
19930.5
19930.4
19930.2
19930
19929.8
19929.6
19929.4
19929.2
19929
19928.8
19928.7
19928.5
19928.3
19928.1
19927.9
19927.7
19927.5
19927.3
19927.1
19927
19926.8
19926.6
19926.4
19926.2
19926
19925.8
19925.6
19925.4
19925.2
19925.1
19924.9
19924.7
19924.5
19924.3
19924.1
19923.9
19923.7
19923.5
19923.3
19923.2
19923
19922.8
19922.6
19922.4
19922.2
19922
19921.8
19921.6
19921.4
19921.2
19921.1
19920.9
19920.7
19920.5
19920.3
19920.1
19919.9
19919.7
19919.5
19919.3
19919.1
19918.9
19918.8
19918.6
19918.4
19918.2
19918
19917.8
19917.6
19917.4
19917.2
19917
19916.8
19916.6
19916.4
19916.2
19916.1
19915.9
19915.7
19915.5
19915.3
19915.1
19914.9
19914.7
19914.5
19914.3
19914.1
19913.9
19913.7
19913.5
19913.3
19913.2
19913
19912.8
19912.6
19912.4
19912.2
19912
19911.8
19911.6
19911.4
19911.2
19911
19910.8
19910.6
19910.4
19910.2
19910
19909.8
19909.7
19909.5
19909.3
19909.1
19908.9
19908.7
19908.5
19908.3
19908.1
19907.9
19907.7
19907.5
19907.3
19907.1
19906.9
19906.7
19906.5
19906.3
19906.1
19905.9
19905.7
19905.5
19905.3
19905.2
19905
19904.8
19904.6
19904.4
19904.2
19904
19903.8
19903.6
19903.4
19903.2
19903
19902.8
19902.6
19902.4
19902.2
19902
19901.8
19901.6
19901.4
19901.2
19901
19900.8
19900.6
19900.4
19900.2
19900
19899.8
19899.6
19899.4
19899.2
19899
19898.8
19898.6
19898.4
19898.2
19898
19897.8
19897.6
19897.4
19897.2
19897
19896.8
19896.6
19896.4
19896.3
19896.1
19895.9
19895.7
19895.5
19895.3
19895.1
19894.9
19894.7
19894.5
19894.3
19894.1
19893.9
19893.7
19893.5
19893.3
19893.1
19892.9
19892.7
19892.5
19892.3
19892.1
19891.9
19891.7
19891.5
19891.3
19891.1
19890.8
19890.6
19890.4
19890.2
19890
19889.8
19889.6
19889.4
19889.2
19889
19888.8
19888.6
19888.4
19888.2
19888
19887.8
19887.6
19887.4
19887.2
19887
19886.8
19886.6
19886.4
19886.2
19886
19885.8
19885.6
19885.4
19885.2
19885
19884.8
19884.6
19884.4
19884.2
19884
19883.8
19883.6
19883.4
19883.2
19883
19882.8
19882.6
19882.4
19882.2
19882
19881.7
19881.5
19881.3
19881.1
19880.9
19880.7
19880.5
19880.3
19880.1
19879.9
19879.7
19879.5
19879.3
19879.1
19878.9
19878.7
19878.5
19878.3
19878.1
19877.9
19877.7
19877.5
19877.3
19877
19876.8
19876.6
19876.4
19876.2
19876
19875.8
19875.6
19875.4
19875.2
19875
19874.8
19874.6
19874.4
19874.2
19874
19873.8
19873.6
19873.3
19873.1
19872.9
19872.7
19872.5
19872.3
19872.1
19871.9
19871.7
19871.5
19871.3
19871.1
19870.9
19870.7
19870.5
19870.2
19870
19869.8
19869.6
19869.4
19869.2
19869
19868.8
19868.6
19868.4
19868.2
19868
19867.8
19867.5
19867.3
19867.1
19866.9
19866.7
19866.5
19866.3
19866.1
19865.9
19865.7
19865.5
19865.3
19865.1
19864.8
19864.6
19864.4
19864.2
19864
19863.8
19863.6
19863.4
19863.2
19863
19862.8
19862.5
19862.3
19862.1
19861.9
19861.7
19861.5
19861.3
19861.1
19860.9
19860.7
19860.4
19860.2
19860
19859.8
19859.6
19859.4
19859.2
19859
19858.8
19858.6
19858.3
19858.1
19857.9
19857.7
19857.5
19857.3
19857.1
19856.9
19856.7
19856.4
19856.2
19856
19855.8
19855.6
19855.4
19855.2
19855
19854.8
19854.5
19854.3
19854.1
19853.9
19853.7
19853.5
19853.3
19853.1
19852.8
19852.6
19852.4
19852.2
19852
19851.8
19851.6
19851.4
19851.1
19850.9
19850.7
19850.5
19850.3
19850.1
19849.9
19849.7
19849.4
19849.2
19849
19848.8
19848.6
19848.4
19848.2
19847.9
19847.7
19847.5
19847.3
19847.1
19846.9
19846.7
19846.4
19846.2
19846
19845.8
19845.6
19845.4
19845.2
19844.9
19844.7
19844.5
19844.3
19844.1
19843.9
19843.7
19843.4
19843.2
19843
19842.8
19842.6
19842.4
19842.2
19841.9
19841.7
19841.5
19841.3
19841.1
19840.9
19840.6
19840.4
19840.2
19840
19839.8
19839.6
19839.4
19839.1
19838.9
19838.7
19838.5
19838.3
19838.1
19837.8
19837.6
19837.4
19837.2
19837
19836.8
19836.5
19836.3
19836.1
19835.9
19835.7
19835.5
19835.2
19835
19834.8
19834.6
19834.4
19834.1
19833.9
19833.7
19833.5
19833.3
19833.1
19832.8
19832.6
19832.4
19832.2
19832
19831.7
19831.5
19831.3
19831.1
19830.9
19830.7
19830.4
19830.2
19830
19829.8
19829.6
19829.3
19829.1
19828.9
19828.7
19828.5
19828.2
19828
19827.8
19827.6
19827.4
19827.2
19826.9
19826.7
19826.5
19826.3
19826.1
19825.8
19825.6
19825.4
19825.2
19825
19824.7
19824.5
19824.3
19824.1
19823.9
19823.6
19823.4
19823.2
19823
19822.7
19822.5
19822.3
19822.1
19821.9
19821.6
19821.4
19821.2
19821
19820.8
19820.5
19820.3
19820.1
19819.9
19819.6
19819.4
19819.2
19819
19818.8
19818.5
19818.3
19818.1
19817.9
19817.7
19817.4
19817.2
19817
19816.8
19816.5
19816.3
19816.1
19815.9
19815.6
19815.4
19815.2
19815
19814.8
19814.5
19814.3
19814.1
19813.9
19813.6
19813.4
19813.2
19813
19812.7
19812.5
19812.3
19812.1
19811.9
19811.6
19811.4
19811.2
19811
19810.7
19810.5
19810.3
19810.1
19809.8
19809.6
19809.4
19809.2
19808.9
19808.7
19808.5
19808.3
19808
19807.8
19807.6
19807.4
19807.1
19806.9
19806.7
19806.5
19806.2
19806
19805.8
19805.6
19805.3
19805.1
19804.9
19804.7
19804.4
19804.2
19804
19803.8
19803.5
19803.3
19803.1
19802.8
19802.6
19802.4
19802.2
19801.9
19801.7
19801.5
19801.3
19801
19800.8
19800.6
19800.4
19800.1
19799.9
19799.7
19799.4
19799.2
19799
19798.8
19798.5
19798.3
19798.1
19797.9
19797.6
19797.4
19797.2
19796.9
19796.7
19796.5
19796.3
19796
19795.8
19795.6
19795.3
19795.1
19794.9
19794.7
19794.4
19794.2
19794
19793.7
19793.5
19793.3
19793.1
19792.8
19792.6
19792.4
19792.1
19791.9
19791.7
19791.5
19791.2
19791
19790.8
19790.5
19790.3
19790.1
19789.8
19789.6
19789.4
19789.2
19788.9
19788.7
19788.5
19788.2
19788
19787.8
19787.5
19787.3
19787.1
19786.9
19786.6
19786.4
19786.2
19785.9
19785.7
19785.5
19785.2
19785
19784.8
19784.5
19784.3
19784.1
19783.8
19783.6
19783.4
19783.2
19782.9
19782.7
19782.5
19782.2
19782
19781.8
19781.5
19781.3
19781.1
19780.8
19780.6
19780.4
19780.1
19779.9
19779.7
19779.4
19779.2
19779
19778.7
19778.5
19778.3
19778
19777.8
19777.6
19777.3
19777.1
19776.9
19776.6
19776.4
19776.2
19775.9
19775.7
19775.5
19775.2
19775
19774.8
19774.5
19774.3
19774.1
19773.8
19773.6
19773.4
19773.1
19772.9
19772.7
19772.4
19772.2
19772
19771.7
19771.5
19771.3
19771
19770.8
19770.6
19770.3
19770.1
19769.8
19769.6
19769.4
19769.1
19768.9
19768.7
19768.4
19768.2
19768
19767.7
19767.5
19767.3
19767
19766.8
19766.5
19766.3
19766.1
19765.8
19765.6
19765.4
19765.1
19764.9
19764.7
19764.4
19764.2
19763.9
19763.7
19763.5
19763.2
19763
19762.8
19762.5
19762.3
19762.1
19761.8
19761.6
19761.3
19761.1
19760.9
19760.6
19760.4
19760.2
19759.9
19759.7
19759.4
19759.2
19759
19758.7
19758.5
19758.2
19758
19757.8
19757.5
19757.3
19757.1
19756.8
19756.6
19756.3
19756.1
19755.9
19755.6
19755.4
19755.1
19754.9
19754.7
19754.4
19754.2
19754
19753.7
19753.5
19753.2
19753
19752.8
19752.5
19752.3
19752
19751.8
19751.6
19751.3
19751.1
19750.8
19750.6
19750.4
19750.1
19749.9
19749.6
19749.4
19749.2
19748.9
19748.7
19748.4
19748.2
19747.9
19747.7
19747.5
19747.2
19747
19746.7
19746.5
19746.3
19746
19745.8
19745.5
19745.3
19745.1
19744.8
19744.6
19744.3
19744.1
19743.8
19743.6
19743.4
19743.1
19742.9
19742.6
19742.4
19742.2
19741.9
19741.7
19741.4
19741.2
19740.9
19740.7
19740.5
19740.2
19740
19739.7
19739.5
19739.2
19739
19738.8
19738.5
19738.3
19738
19737.8
19737.5
19737.3
19737
19736.8
19736.6
19736.3
19736.1
19735.8
19735.6
19735.3
19735.1
19734.9
19734.6
19734.4
19734.1
19733.9
19733.6
19733.4
19733.1
19732.9
19732.7
19732.4
19732.2
19731.9
19731.7
19731.4
19731.2
19730.9
19730.7
19730.4
19730.2
19730
19729.7
19729.5
19729.2
19729
19728.7
19728.5
19728.2
19728
19727.7
19727.5
19727.3
19727
19726.8
19726.5
19726.3
19726
19725.8
19725.5
19725.3
19725
19724.8
19724.5
19724.3
19724
19723.8
19723.6
19723.3
19723.1
19722.8
19722.6
19722.3
19722.1
19721.8
19721.6
19721.3
19721.1
19720.8
19720.6
19720.3
19720.1
19719.8
19719.6
19719.3
19719.1
19718.9
19718.6
19718.4
19718.1
19717.9
19717.6
19717.4
19717.1
19716.9
19716.6
19716.4
19716.1
19715.9
19715.6
19715.4
19715.1
19714.9
19714.6
19714.4
19714.1
19713.9
19713.6
19713.4
19713.1
19712.9
19712.6
19712.4
19712.1
19711.9
19711.6
19711.4
19711.1
19710.9
19710.6
19710.4
19710.1
19709.9
19709.6
19709.4
19709.1
19708.9
19708.6
19708.4
19708.1
19707.9
19707.6
19707.4
19707.1
19706.9
19706.6
19706.4
19706.1
19705.9
19705.6
19705.4
19705.1
19704.9
19704.6
19704.4
19704.1
19703.9
19703.6
19703.3
19703.1
19702.8
19702.6
19702.3
19702.1
19701.8
19701.6
19701.3
19701.1
19700.8
19700.6
19700.3
19700.1
19699.8
19699.6
19699.3
19699.1
19698.8
19698.6
19698.3
19698
19697.8
19697.5
19697.3
19697
19696.8
19696.5
19696.3
19696
19695.8
19695.5
19695.3
19695
19694.7
19694.5
19694.2
19694
19693.7
19693.5
19693.2
19693
19692.7
19692.5
19692.2
19692
19691.7
19691.4
19691.2
19690.9
19690.7
19690.4
19690.2
19689.9
19689.7
19689.4
19689.1
19688.9
19688.6
19688.4
19688.1
19687.9
19687.6
19687.4
19687.1
19686.8
19686.6
19686.3
19686.1
19685.8
19685.6
19685.3
19685.1
19684.8
19684.5
19684.3
19684
19683.8
19683.5
19683.3
19683
19682.7
19682.5
19682.2
19682
19681.7
19681.5
19681.2
19680.9
19680.7
19680.4
19680.2
19679.9
19679.7
19679.4
19679.1
19678.9
19678.6
19678.4
19678.1
19677.9
19677.6
19677.3
19677.1
19676.8
19676.6
19676.3
19676
19675.8
19675.5
19675.3
19675
19674.8
19674.5
19674.2
19674
19673.7
19673.5
19673.2
19672.9
19672.7
19672.4
19672.2
19671.9
19671.6
19671.4
19671.1
19670.9
19670.6
19670.3
19670.1
19669.8
19669.6
19669.3
19669
19668.8
19668.5
19668.3
19668
19667.7
19667.5
19667.2
19667
19666.7
19666.4
19666.2
19665.9
19665.7
19665.4
19665.1
19664.9
19664.6
19664.4
19664.1
19663.8
19663.6
19663.3
19663
19662.8
19662.5
19662.3
19662
19661.7
19661.5
19661.2
19661
19660.7
19660.4
19660.2
19659.9
19659.6
19659.4
19659.1
19658.9
19658.6
19658.3
19658.1
19657.8
19657.5
19657.3
19657
19656.8
19656.5
19656.2
19656
19655.7
19655.4
19655.2
19654.9
19654.7
19654.4
19654.1
19653.9
19653.6
19653.3
19653.1
19652.8
19652.5
19652.3
19652
19651.8
19651.5
19651.2
19651
19650.7
19650.4
19650.2
19649.9
19649.6
19649.4
19649.1
19648.8
19648.6
19648.3
19648.1
19647.8
19647.5
19647.3
19647
19646.7
19646.5
19646.2
19645.9
19645.7
19645.4
19645.1
19644.9
19644.6
19644.3
19644.1
19643.8
19643.5
19643.3
19643
19642.7
19642.5
19642.2
19641.9
19641.7
19641.4
19641.1
19640.9
19640.6
19640.3
19640.1
19639.8
19639.5
19639.3
19639
19638.7
19638.5
19638.2
19637.9
19637.7
19637.4
19637.1
19636.9
19636.6
19636.3
19636.1
19635.8
19635.5
19635.3
19635
19634.7
19634.5
19634.2
19633.9
19633.7
19633.4
19633.1
19632.9
19632.6
19632.3
19632.1
19631.8
19631.5
19631.3
19631
19630.7
19630.4
19630.2
19629.9
19629.6
19629.4
19629.1
19628.8
19628.6
19628.3
19628
19627.8
19627.5
19627.2
19627
19626.7
19626.4
19626.1
19625.9
19625.6
19625.3
19625.1
19624.8
19624.5
19624.3
19624
19623.7
19623.4
19623.2
19622.9
19622.6
19622.4
19622.1
19621.8
19621.6
19621.3
19621
19620.7
19620.5
19620.2
19619.9
19619.7
19619.4
19619.1
19618.8
19618.6
19618.3
19618
19617.8
19617.5
19617.2
19616.9
19616.7
19616.4
19616.1
19615.9
19615.6
19615.3
19615
19614.8
19614.5
19614.2
19614
19613.7
19613.4
19613.1
19612.9
19612.6
19612.3
19612
19611.8
19611.5
19611.2
19611
19610.7
19610.4
19610.1
19609.9
19609.6
19609.3
19609
19608.8
19608.5
19608.2
19607.9
19607.7
19607.4
19607.1
19606.9
19606.6
19606.3
19606
19605.8
19605.5
19605.2
19604.9
19604.7
19604.4
19604.1
19603.8
19603.6
19603.3
19603
19602.7
19602.5
19602.2
19601.9
19601.6
19601.4
19601.1
19600.8
19600.5
19600.3
19600
19599.7
19599.4
19599.2
19598.9
19598.6
19598.3
19598.1
19597.8
19597.5
19597.2
19597
19596.7
19596.4
19596.1
19595.9
19595.6
19595.3
19595
19594.8
19594.5
19594.2
19593.9
19593.6
19593.4
19593.1
19592.8
19592.5
19592.3
19592
19591.7
19591.4
19591.2
19590.9
19590.6
19590.3
19590
19589.8
19589.5
19589.2
19588.9
19588.7
19588.4
19588.1
19587.8
19587.6
19587.3
19587
19586.7
19586.4
19586.2
19585.9
19585.6
19585.3
19585.1
19584.8
19584.5
19584.2
19583.9
19583.7
19583.4
19583.1
19582.8
19582.5
19582.3
19582
19581.7
19581.4
19581.2
19580.9
19580.6
19580.3
19580
19579.8
19579.5
19579.2
19578.9
19578.6
19578.4
19578.1
19577.8
19577.5
19577.2
19577
19576.7
19576.4
19576.1
19575.8
19575.6
19575.3
19575
19574.7
19574.4
19574.2
19573.9
19573.6
19573.3
19573
19572.8
19572.5
19572.2
19571.9
19571.6
19571.4
19571.1
19570.8
19570.5
19570.2
19569.9
19569.7
19569.4
19569.1
19568.8
19568.5
19568.3
19568
19567.7
19567.4
19567.1
19566.8
19566.6
19566.3
19566
19565.7
19565.4
19565.2
19564.9
19564.6
19564.3
19564
19563.7
19563.5
19563.2
19562.9
19562.6
19562.3
19562
19561.8
19561.5
19561.2
19560.9
19560.6
19560.4
19560.1
19559.8
19559.5
19559.2
19558.9
19558.7
19558.4
19558.1
19557.8
19557.5
19557.2
19557
19556.7
19556.4
19556.1
19555.8
19555.5
19555.2
19555
19554.7
19554.4
19554.1
19553.8
19553.5
19553.3
19553
19552.7
19552.4
19552.1
19551.8
19551.6
19551.3
19551
19550.7
19550.4
19550.1
19549.8
19549.6
19549.3
19549
19548.7
19548.4
19548.1
19547.8
19547.6
19547.3
19547
19546.7
19546.4
19546.1
19545.8
19545.6
19545.3
19545
19544.7
19544.4
19544.1
19543.8
19543.6
19543.3
19543
19542.7
19542.4
19542.1
19541.8
19541.6
19541.3
19541
19540.7
19540.4
19540.1
19539.8
19539.5
19539.3
19539
19538.7
19538.4
19538.1
19537.8
19537.5
19537.2
19537
19536.7
19536.4
19536.1
19535.8
19535.5
19535.2
19534.9
19534.7
19534.4
19534.1
19533.8
19533.5
19533.2
19532.9
19532.6
19532.4
19532.1
19531.8
19531.5
19531.2
19530.9
19530.6
19530.3
19530
19529.8
19529.5
19529.2
19528.9
19528.6
19528.3
19528
19527.7
19527.4
19527.2
19526.9
19526.6
19526.3
19526
19525.7
19525.4
19525.1
19524.8
19524.5
19524.3
19524
19523.7
19523.4
19523.1
19522.8
19522.5
19522.2
19521.9
19521.7
19521.4
19521.1
19520.8
19520.5
19520.2
19519.9
19519.6
19519.3
19519
19518.7
19518.5
19518.2
19517.9
19517.6
19517.3
19517
19516.7
19516.4
19516.1
19515.8
19515.5
19515.3
19515
19514.7
19514.4
19514.1
19513.8
19513.5
19513.2
19512.9
19512.6
19512.3
19512
19511.8
19511.5
19511.2
19510.9
19510.6
19510.3
19510
19509.7
19509.4
19509.1
19508.8
19508.5
19508.2
19508
19507.7
19507.4
19507.1
19506.8
19506.5
19506.2
19505.9
19505.6
19505.3
19505
19504.7
19504.4
19504.2
19503.9
19503.6
19503.3
19503
19502.7
19502.4
19502.1
19501.8
19501.5
19501.2
19500.9
19500.6
19500.3
19500
19499.7
19499.5
19499.2
19498.9
19498.6
19498.3
19498
19497.7
19497.4
19497.1
19496.8
19496.5
19496.2
19495.9
19495.6
19495.3
19495
19494.7
19494.5
19494.2
19493.9
19493.6
19493.3
19493
19492.7
19492.4
19492.1
19491.8
19491.5
19491.2
19490.9
19490.6
19490.3
19490
19489.7
19489.4
19489.1
19488.8
19488.5
19488.3
19488
19487.7
19487.4
19487.1
19486.8
19486.5
19486.2
19485.9
19485.6
19485.3
19485
19484.7
19484.4
19484.1
19483.8
19483.5
19483.2
19482.9
19482.6
19482.3
19482
19481.7
19481.4
19481.1
19480.8
19480.6
19480.3
19480
19479.7
19479.4
19479.1
19478.8
19478.5
19478.2
19477.9
19477.6
19477.3
19477
19476.7
19476.4
19476.1
19475.8
19475.5
19475.2
19474.9
19474.6
19474.3
19474
19473.7
19473.4
19473.1
19472.8
19472.5
19472.2
19471.9
19471.6
19471.3
19471
19470.7
19470.4
19470.1
19469.8
19469.5
19469.2
19468.9
19468.6
19468.3
19468.1
19467.8
19467.5
19467.2
19466.9
19466.6
19466.3
19466
19465.7
19465.4
19465.1
19464.8
19464.5
19464.2
19463.9
19463.6
19463.3
19463
19462.7
19462.4
19462.1
19461.8
19461.5
19461.2
19460.9
19460.6
19460.3
19460
19459.7
19459.4
19459.1
19458.8
19458.5
19458.2
19457.9
19457.6
19457.3
19457
19456.7
19456.4
19456.1
19455.8
19455.5
19455.2
19454.9
19454.6
19454.3
19454
19453.7
19453.4
19453.1
19452.8
19452.5
19452.2
19451.9
19451.6
19451.3
19451
19450.7
19450.4
19450.1
19449.8
19449.5
19449.2
19448.9
19448.6
19448.3
19448
19447.7
19447.4
19447.1
19446.8
19446.5
19446.2
19445.9
19445.5
19445.2
19444.9
19444.6
19444.3
19444
19443.7
19443.4
19443.1
19442.8
19442.5
19442.2
19441.9
19441.6
19441.3
19441
19440.7
19440.4
19440.1
19439.8
19439.5
19439.2
19438.9
19438.6
19438.3
19438
19437.7
19437.4
19437.1
19436.8
19436.5
19436.2
19435.9
19435.6
19435.3
19435
19434.7
19434.4
19434.1
19433.8
19433.5
19433.2
19432.9
19432.6
19432.3
19432
19431.7
19431.3
19431
19430.7
19430.4
19430.1
19429.8
19429.5
19429.2
19428.9
19428.6
19428.3
19428
19427.7
19427.4
19427.1
19426.8
19426.5
19426.2
19425.9
19425.6
19425.3
19425
19424.7
19424.4
19424.1
19423.8
19423.5
19423.2
19422.9
19422.6
19422.2
19421.9
19421.6
19421.3
19421
19420.7
19420.4
19420.1
19419.8
19419.5
19419.2
19418.9
19418.6
19418.3
19418
19417.7
19417.4
19417.1
19416.8
19416.5
19416.2
19415.9
19415.6
19415.3
19415
19414.6
19414.3
19414
19413.7
19413.4
19413.1
19412.8
19412.5
19412.2
19411.9
19411.6
19411.3
19411
19410.7
19410.4
19410.1
19409.8
19409.5
19409.2
19408.9
19408.6
19408.3
19407.9
19407.6
19407.3
19407
19406.7
19406.4
19406.1
19405.8
19405.5
19405.2
19404.9
19404.6
19404.3
19404
19403.7
19403.4
19403.1
19402.8
19402.5
19402.2
19401.8
19401.5
19401.2
19400.9
19400.6
19400.3
19400
19399.7
19399.4
19399.1
19398.8
19398.5
19398.2
19397.9
19397.6
19397.3
19397
19396.7
19396.4
19396
19395.7
19395.4
19395.1
19394.8
19394.5
19394.2
19393.9
19393.6
19393.3
19393
19392.7
19392.4
19392.1
19391.8
19391.5
19391.2
19390.9
19390.5
19390.2
19389.9
19389.6
19389.3
19389
19388.7
19388.4
19388.1
19387.8
19387.5
19387.2
19386.9
19386.6
19386.3
19386
19385.7
19385.3
19385
19384.7
19384.4
19384.1
19383.8
19383.5
19383.2
19382.9
19382.6
19382.3
19382
19381.7
19381.4
19381.1
19380.8
19380.5
19380.1
19379.8
19379.5
19379.2
19378.9
19378.6
19378.3
19378
19377.7
19377.4
19377.1
19376.8
19376.5
19376.2
19375.9
19375.6
19375.3
19375
19374.6
19374.3
19374
19373.7
19373.4
19373.1
19372.8
19372.5
19372.2
19371.9
19371.6
19371.3
19371
19370.7
19370.4
19370.1
19369.8
19369.4
19369.1
19368.8
19368.5
19368.2
19367.9
19367.6
19367.3
19367
19366.7
19366.4
19366.1
19365.8
19365.5
19365.2
19364.9
19364.6
19364.3
19363.9
19363.6
19363.3
19363
19362.7
19362.4
19362.1
19361.8
19361.5
19361.2
19360.9
19360.6
19360.3
19360
19359.7
19359.4
19359.1
19358.8
19358.4
19358.1
19357.8
19357.5
19357.2
19356.9
19356.6
19356.3
19356
19355.7
19355.4
19355.1
19354.8
19354.5
19354.2
19353.9
19353.6
19353.3
19353
19352.7
19352.3
19352
19351.7
19351.4
19351.1
19350.8
19350.5
19350.2
19349.9
19349.6
19349.3
19349
19348.7
19348.4
19348.1
19347.8
19347.5
19347.2
19346.9
19346.6
19346.3
19346
19345.7
19345.3
19345
19344.7
19344.4
19344.1
19343.8
19343.5
19343.2
19342.9
19342.6
19342.3
19342
19341.7
19341.4
19341.1
19340.8
19340.5
19340.2
19339.9
19339.6
19339.3
19339
19338.7
19338.4
19338.1
19337.8
19337.5
19337.1
19336.8
19336.5
19336.2
19335.9
19335.6
19335.3
19335
19334.7
19334.4
19334.1
19333.8
19333.5
19333.2
19332.9
19332.6
19332.3
19332
19331.7
19331.4
19331.1
19330.8
19330.5
19330.2
19329.9
19329.6
19329.3
19329
19328.7
19328.4
19328.1
19327.8
19327.5
19327.2
19326.9
19326.6
19326.3
19326
19325.7
19325.4
19325.1
19324.8
19324.5
19324.2
19323.9
19323.6
19323.3
19323
19322.7
19322.4
19322.1
19321.8
19321.5
19321.2
19320.9
19320.6
19320.3
19320
19319.7
19319.4
19319.1
19318.8
19318.5
19318.2
19317.9
19317.6
19317.3
19317
19316.7
19316.4
19316.1
19315.8
19315.5
19315.2
19314.9
19314.6
19314.3
19314
19313.7
19313.4
19313.1
19312.8
19312.5
19312.2
19311.9
19311.6
19311.3
19311
19310.7
19310.4
19310.1
19309.8
19309.5
19309.3
19309
19308.7
19308.4
19308.1
19307.8
19307.5
19307.2
19306.9
19306.6
19306.3
19306
19305.7
19305.4
19305.1
19304.8
19304.5
19304.2
19303.9
19303.6
19303.4
19303.1
19302.8
19302.5
19302.2
19301.9
19301.6
19301.3
19301
19300.7
19300.4
19300.1
19299.8
19299.5
19299.3
19299
19298.7
19298.4
19298.1
19297.8
19297.5
19297.2
19296.9
19296.6
19296.3
19296.1
19295.8
19295.5
19295.2
19294.9
19294.6
19294.3
19294
19293.7
19293.4
19293.2
19292.9
19292.6
19292.3
19292
19291.7
19291.4
19291.1
19290.9
19290.6
19290.3
19290
19289.7
19289.4
19289.1
19288.8
19288.6
19288.3
19288
19287.7
19287.4
19287.1
19286.9
19286.6
19286.3
19286
19285.7
19285.4
19285.1
19284.9
19284.6
19284.3
19284
19283.7
19283.4
19283.2
19282.9
19282.6
19282.3
19282
19281.8
19281.5
19281.2
19280.9
19280.6
19280.4
19280.1
19279.8
19279.5
19279.2
19279
19278.7
19278.4
19278.1
19277.8
19277.6
19277.3
19277
19276.7
19276.5
19276.2
19275.9
19275.6
19275.4
19275.1
19274.8
19274.5
19274.3
19274
19273.7
19273.4
19273.2
19272.9
19272.6
19272.3
19272.1
19271.8
19271.5
19271.2
19271
19270.7
19270.4
19270.2
19269.9
19269.6
19269.4
19269.1
19268.8
19268.5
19268.3
19268
19267.7
19267.5
19267.2
19266.9
19266.7
19266.4
19266.1
19265.9
19265.6
19265.3
19265.1
19264.8
19264.6
19264.3
19264
19263.8
19263.5
19263.2
19263
19262.7
19262.5
19262.2
19261.9
19261.7
19261.4
19261.2
19260.9
19260.6
19260.4
19260.1
19259.9
19259.6
19259.3
19259.1
19258.8
19258.6
19258.3
19258.1
19257.8
19257.6
19257.3
19257.1
19256.8
19256.6
19256.3
19256
19255.8
19255.5
19255.3
19255
19254.8
19254.5
19254.3
19254.1
19253.8
19253.6
19253.3
19253.1
19252.8
19252.6
19252.3
19252.1
19251.8
19251.6
19251.4
19251.1
19250.9
19250.6
19250.4
19250.2
19249.9
19249.7
19249.4
19249.2
19249
19248.7
19248.5
19248.3
19248
19247.8
19247.5
19247.3
19247.1
19246.8
19246.6
19246.4
19246.2
19245.9
19245.7
19245.5
19245.2
19245
19244.8
19244.6