/*--------------------------------*- C++ -*----------------------------------*\
  =========                 |
  \\      /  F ield         | OpenFOAM: The Open Source CFD Toolbox
   \\    /   O peration     | Website:  https://openfoam.org
    \\  /    A nd           | Version:  9
     \\/     M anipulation  |
\*---------------------------------------------------------------------------*/
FoamFile
{
    format      ascii;
    class       volScalarField;
    location    "0.011";
    object      ddt0(p);
}
// * * * * * * * * * * * * * * * * * * * * * * * * * * * * * * * * * * * * * //

dimensions      [1 -1 -3 0 0 0 0];

internalField   nonuniform List<scalar> 
1000
(
-1.01587e-05
-5.82025e-06
-1.56755e-05
3.20105e-06
-1.57269e-06
-8.2845e-06
2.77274e-06
-3.55789e-06
-3.34954e-06
-6.52225e-06
6.61086e-06
-4.38999e-06
8.54328e-06
9.62701e-06
-4.17776e-06
2.39445e-06
1.99288e-05
1.79975e-06
-4.42465e-06
4.0786e-07
-4.10471e-06
-6.70881e-06
-9.32175e-06
-1.85098e-05
-2.36796e-05
-2.57914e-05
-5.37827e-05
-9.66159e-05
-0.000195836
-0.000366418
-0.000698008
-0.00130518
-0.00242004
-0.00445552
-0.00818591
-0.0149522
-0.0271416
-0.0489391
-0.0877887
-0.156574
-0.277536
-0.489024
-0.856404
-1.49047
-2.57768
-4.42943
-7.56201
-12.8248
-21.6042
-36.1454
-60.0533
-99.0684
-162.251
-263.774
-425.599
-681.434
-1082.49
-1705.79
-2665.88
-4131.22
-6346.59
-9663.23
-14578.4
-21786.4
-32241.3
-47233.6
-68477.5
-98206.1
-139265
-195197
-270285
-369553
-498667
-663732
-870936
-1.12605e+06
-1.43378e+06
-1.79705e+06
-2.2162e+06
-2.68841e+06
-3.20729e+06
-3.76288e+06
-4.3421e+06
-4.92965e+06
-5.50932e+06
-6.06538e+06
-6.58395e+06
-7.05399e+06
-7.4679e+06
-7.82174e+06
-8.11595e+06
-8.35468e+06
-8.54418e+06
-8.69155e+06
-8.80379e+06
-8.8873e+06
-8.9476e+06
-8.9893e+06
-9.01615e+06
-9.03117e+06
-9.03675e+06
-9.03479e+06
-9.02678e+06
-9.01393e+06
-8.99717e+06
-8.97726e+06
-8.95481e+06
-8.93031e+06
-8.90414e+06
-8.87662e+06
-8.84802e+06
-8.81852e+06
-8.78831e+06
-8.75751e+06
-8.72624e+06
-8.69457e+06
-8.66259e+06
-8.63035e+06
-8.59788e+06
-8.56523e+06
-8.53242e+06
-8.49947e+06
-8.46639e+06
-8.4332e+06
-8.39991e+06
-8.36651e+06
-8.33301e+06
-8.29942e+06
-8.26573e+06
-8.23194e+06
-8.19805e+06
-8.16407e+06
-8.12999e+06
-8.09581e+06
-8.06153e+06
-8.02715e+06
-7.99267e+06
-7.95809e+06
-7.92342e+06
-7.88865e+06
-7.85379e+06
-7.81883e+06
-7.78379e+06
-7.74867e+06
-7.71346e+06
-7.67818e+06
-7.64283e+06
-7.60741e+06
-7.57193e+06
-7.53639e+06
-7.50081e+06
-7.46517e+06
-7.4295e+06
-7.3938e+06
-7.35806e+06
-7.32231e+06
-7.28653e+06
-7.25075e+06
-7.21496e+06
-7.17917e+06
-7.14338e+06
-7.1076e+06
-7.07184e+06
-7.0361e+06
-7.00038e+06
-6.96469e+06
-6.92903e+06
-6.89341e+06
-6.85783e+06
-6.8223e+06
-6.78681e+06
-6.75138e+06
-6.716e+06
-6.68068e+06
-6.64542e+06
-6.61023e+06
-6.5751e+06
-6.54004e+06
-6.50505e+06
-6.47014e+06
-6.4353e+06
-6.40055e+06
-6.36587e+06
-6.33127e+06
-6.29676e+06
-6.26233e+06
-6.22799e+06
-6.19373e+06
-6.15957e+06
-6.1255e+06
-6.09151e+06
-6.05762e+06
-6.02383e+06
-5.99013e+06
-5.95652e+06
-5.92301e+06
-5.8896e+06
-5.85629e+06
-5.82307e+06
-5.78996e+06
-5.75695e+06
-5.72403e+06
-5.69122e+06
-5.65851e+06
-5.6259e+06
-5.59339e+06
-5.56099e+06
-5.52869e+06
-5.4965e+06
-5.46441e+06
-5.43242e+06
-5.40054e+06
-5.36876e+06
-5.33709e+06
-5.30552e+06
-5.27406e+06
-5.24271e+06
-5.21146e+06
-5.18032e+06
-5.14928e+06
-5.11835e+06
-5.08753e+06
-5.05681e+06
-5.0262e+06
-4.9957e+06
-4.9653e+06
-4.93501e+06
-4.90483e+06
-4.87475e+06
-4.84478e+06
-4.81492e+06
-4.78517e+06
-4.75552e+06
-4.72597e+06
-4.69654e+06
-4.66721e+06
-4.63798e+06
-4.60887e+06
-4.57986e+06
-4.55095e+06
-4.52215e+06
-4.49346e+06
-4.46488e+06
-4.4364e+06
-4.40802e+06
-4.37975e+06
-4.35159e+06
-4.32353e+06
-4.29558e+06
-4.26773e+06
-4.23999e+06
-4.21235e+06
-4.18481e+06
-4.15738e+06
-4.13006e+06
-4.10284e+06
-4.07572e+06
-4.04871e+06
-4.0218e+06
-3.99499e+06
-3.96829e+06
-3.94169e+06
-3.91519e+06
-3.88879e+06
-3.8625e+06
-3.83631e+06
-3.81022e+06
-3.78423e+06
-3.75835e+06
-3.73256e+06
-3.70688e+06
-3.6813e+06
-3.65582e+06
-3.63044e+06
-3.60516e+06
-3.57998e+06
-3.5549e+06
-3.52992e+06
-3.50504e+06
-3.48025e+06
-3.45557e+06
-3.43099e+06
-3.4065e+06
-3.38211e+06
-3.35782e+06
-3.33363e+06
-3.30953e+06
-3.28554e+06
-3.26164e+06
-3.23783e+06
-3.21413e+06
-3.19052e+06
-3.167e+06
-3.14358e+06
-3.12026e+06
-3.09703e+06
-3.0739e+06
-3.05086e+06
-3.02792e+06
-3.00507e+06
-2.98232e+06
-2.95965e+06
-2.93709e+06
-2.91461e+06
-2.89223e+06
-2.86995e+06
-2.84774e+06
-2.82565e+06
-2.80362e+06
-2.78173e+06
-2.75987e+06
-2.73816e+06
-2.71647e+06
-2.69495e+06
-2.67342e+06
-2.65236e+06
-2.62844e+06
-2.61181e+06
-2.58799e+06
-2.56721e+06
-2.54702e+06
-2.52516e+06
-2.50493e+06
-2.48446e+06
-2.46373e+06
-2.44358e+06
-2.42295e+06
-2.40256e+06
-2.38232e+06
-2.36207e+06
-2.3422e+06
-2.32226e+06
-2.30243e+06
-2.28274e+06
-2.26287e+06
-2.24322e+06
-2.22368e+06
-2.20417e+06
-2.18492e+06
-2.16569e+06
-2.14647e+06
-2.12741e+06
-2.10831e+06
-2.08928e+06
-2.07047e+06
-2.05167e+06
-2.03298e+06
-2.01445e+06
-1.99591e+06
-1.97741e+06
-1.95904e+06
-1.94072e+06
-1.92247e+06
-1.90438e+06
-1.88638e+06
-1.8684e+06
-1.8505e+06
-1.83271e+06
-1.81494e+06
-1.79723e+06
-1.77971e+06
-1.76223e+06
-1.74478e+06
-1.72747e+06
-1.71024e+06
-1.69301e+06
-1.67585e+06
-1.65887e+06
-1.64192e+06
-1.62497e+06
-1.60821e+06
-1.59155e+06
-1.57484e+06
-1.5582e+06
-1.54177e+06
-1.52536e+06
-1.5089e+06
-1.49265e+06
-1.47654e+06
-1.46036e+06
-1.4442e+06
-1.42829e+06
-1.41243e+06
-1.39649e+06
-1.38066e+06
-1.36508e+06
-1.34949e+06
-1.3338e+06
-1.31829e+06
-1.303e+06
-1.28765e+06
-1.27222e+06
-1.25704e+06
-1.24204e+06
-1.22694e+06
-1.21178e+06
-1.19689e+06
-1.18216e+06
-1.16732e+06
-1.15243e+06
-1.1378e+06
-1.12335e+06
-1.10879e+06
-1.09416e+06
-1.07977e+06
-1.06559e+06
-1.05132e+06
-1.03693e+06
-1.02276e+06
-1.00885e+06
-994876
-980754
-966769
-953086
-939421
-925586
-911779
-898280
-884913
-871399
-857795
-844421
-831301
-818127
-804785
-791519
-778559
-765704
-752695
-739590
-726696
-714068
-701416
-688587
-675763
-663219
-650857
-638389
-625765
-613231
-600984
-588847
-576570
-564168
-551900
-539908
-527985
-515908
-503722
-491693
-479931
-468215
-456346
-444383
-432573
-421012
-409510
-397879
-386154
-374541
-363178
-351930
-340580
-329104
-317718
-306610
-295646
-284616
-273500
-262456
-251636
-241034
-230484
-219881
-209305
-198947
-188889
-178995
-169121
-159292
-149671
-140408
-131439
-122605
-113878
-105373
-97247.7
-89537.1
-82101.4
-74856.5
-67869.6
-61270.9
-55122.3
-49380.2
-43938.7
-38767.9
-33921.5
-29541.6
-25578.5
-22174.1
-18151
-17032.6
-9694.58
-15030.1
-4751.27
-3708.25
-10571.5
-5794.58
3100.1
-7570.64
-541.535
14258.1
-13426.4
-24.6262
2673.45
-2214.24
3472.69
-244.667
5465.33
386.585
-2448.08
2475.58
4284.29
1264.12
1699.3
11295.4
-12008.9
9242.61
9954.43
-17244.4
-22372.1
6090.67
27659.1
-10803.8
1201.85
27876.9
-9280.98
-27133.4
9677.31
48325.9
-41926.5
-18315
30638.7
16717.2
-37542.6
4428.35
39057.9
-34256.2
-17396.3
31013.5
29279.8
-47772.1
-2214.17
27865.7
3716.66
-28800.7
5956.73
32226.2
-17102.5
-20336.4
9545.45
30407.6
-22066.9
-16924
13179.7
22961
-27155.4
-6326.52
17845.9
5070.58
-18713.8
1576.83
16320
-5547.99
-12356.7
2856.02
13757
-10304.1
-7015.65
7419.4
8069.32
-11146.5
-675.378
9166.42
2285.58
-9906.88
959.275
8018.38
-315.673
-7275.3
558.309
6112.31
-496.069
-5405.05
2080.64
5264.15
-5644.48
-2364.22
4316.55
3496.12
-5883.01
-1384.41
5689.06
1067.03
-5901.55
1874.46
5874.46
-1157.03
-3557.9
1809.29
4773.76
-4240.02
-2576.98
4919.1
-313.604
-3230
1376.4
4848.19
-5748.6
-1197.56
6884.51
-2733.35
-4413.35
3311.11
5240.79
-5361.12
-5373.28
7267.38
3475.45
-8480.76
1782.83
4783.42
-2398.8
-6082.91
6907.84
2667.06
-9503.58
3560.71
6959.39
-4330.01
-6979.8
7022.79
7763.6
-10423.4
-5128.06
9235.29
3176.9
-9224.18
2688.91
4844.5
-2393.68
-6883.29
9016.41
2364.08
-12005.9
5131.94
8739.32
-5560.12
-9251.44
9419.59
7526.11
-10996.6
1345.03
4249.2
-1798.06
-2117.94
3042.95
-1505.49
1573.92
1650.08
-4289.07
4313.77
2110.26
-6204.84
4054.12
5617.23
-8625.06
-5230.77
10877
7677.74
-13601.9
1264.89
4602.83
-2175.29
-4180.3
6893.52
-642.799
-4474.62
2731.89
3564.14
-4450.13
-1198.66
5382.92
-1727.94
-3880.28
3613.27
911.61
-3510.76
2826.55
1845.16
-3867.74
487.049
1838.87
-213.528
-2151.02
3362.53
20.8365
-2082.99
1718.22
1351.02
-1240.58
330.27
1446.19
-887.877
-863.279
2086.45
-45.5462
-1602.66
1929.59
1345.62
-2251.43
885.613
1875.46
-948.277
-797.064
1261.57
414.153
-943.826
905.912
789.301
-1148.57
170.175
1111.35
-719.674
-148.91
1551.61
-439.266
-1434.01
1285.68
620.053
87.6965
-953.551
1131.45
-355.76
891.331
283.797
-979.583
710.962
1018.44
-974.312
298.368
1801.61
-762.843
-824.34
1843.1
-47.16
-1362.78
1680.27
51.5176
1063.94
-1453.15
1397.54
319.224
874.361
-588.97
413.427
551.979
-591.637
1303.49
-1151.87
2116.04
-422.532
-88.3082
2798.27
-2087.56
-2037.29
4367.48
1737.32
-6278.59
2689.82
1122.63
4156.78
-8568.21
2869.51
5540.17
-2531.06
-3466.74
4749
-1350.8
-2598.59
691.202
4856.34
-1058.5
-8453.25
6888.48
-18001.9
14259.1
11094.4
-5616.35
-9627.19
12627.7
-3439.43
2927.42
15048.5
-22946.1
-26147.8
32137.7
-2844.67
-43868.3
44085.6
-29788.5
97058.5
-640006
972160
-1.57196e+06
1.47059e+06
-64033.7
-203204
-18687.8
-19616.1
-37304.4
-16938.4
13531
32605.3
50137.8
44981
-85417.8
-72278.3
4294.7
57642.1
22851.7
-21978.4
-15869.8
4150.34
13561.1
6262.7
3394.16
-2446.25
-5229.96
-627.109
6244.83
-10472.5
-6587.84
9734.47
3589.8
-2054.67
5083.91
3506.2
1637.81
990.013
531.833
-1758.77
849.809
-2931.21
-3501.19
2356.89
828.777
-4717.41
-1518.85
1553.62
-1449.16
-2653.08
-1403.62
-893.07
4219.72
6579.75
-2381.03
-3664.76
285.922
2418.52
2786.15
2074.38
2632.87
-422.752
6046.73
-2242.7
-979.483
5308.64
-3103.84
653.607
2442.43
436.182
-1636.49
-1364.74
2971.15
1427.27
-4069.53
-434.892
5289.5
-1819.23
-3886.53
472.009
791.009
285.292
888.907
-4055.13
-1849.22
4915.69
-710.831
-5474.03
3330.52
3841.41
353.877
-5367.92
3469.54
2497.54
-5100.01
3604.56
5371.24
-1641.8
-1177.98
1501.07
1131.71
2259.6
541.217
53.8793
123.391
9098.24
1805.47
-5533.14
724.567
3801.21
4103.12
-2947.38
-4697.71
-2130.64
8234.85
3434.75
-5377.83
227.92
2245.99
-925.062
-142.153
43.3936
2008.9
4592.05
-5783.77
771.782
4214.31
-2137.54
-2830.48
2565.19
1570.38
397.74
-600.06
-3751.15
3384.3
5065.01
-1834.61
-2908.86
3228.18
5423.11
-359.349
-1744.32
1788.25
5593.7
17632.8
2933.31
-6499.47
16630.1
66068.9
87927.3
-49221
64012.3
164066
140250
169470
231947
293559
365634
437546
500590
554452
599747
633011
648478
642977
616076
569766
508885
439383
366589
295088
228859
171122
123520
85851.8
56568.4
33295.7
21736
8091.66
9378.54
8604.05
1687.53
1019.53
-5963.53
-5009.77
-2298.04
-3536.23
1357.4
)
;

boundaryField
{
    sides
    {
        type            calculated;
        value           nonuniform List<scalar> 2(1357.4 -1.01587e-05);
    }
    empty
    {
        type            empty;
    }
}


// ************************************************************************* //
