/*--------------------------------*- C++ -*----------------------------------*\
  =========                 |
  \\      /  F ield         | OpenFOAM: The Open Source CFD Toolbox
   \\    /   O peration     | Website:  https://openfoam.org
    \\  /    A nd           | Version:  9
     \\/     M anipulation  |
\*---------------------------------------------------------------------------*/
FoamFile
{
    format      ascii;
    class       volScalarField;
    location    "0.011";
    object      ddt0(rho,e);
}
// * * * * * * * * * * * * * * * * * * * * * * * * * * * * * * * * * * * * * //

dimensions      [1 -1 -3 0 0 0 0];

internalField   nonuniform List<scalar> 
1000
(
-2.32204e-06
-4.21189e-06
-1.23408e-06
-3.75045e-07
-2.14835e-06
-3.48999e-07
-4.2096e-06
-2.83753e-06
-3.35236e-06
-2.21468e-06
3.66792e-06
-1.59745e-06
-3.12121e-07
2.04019e-06
-5.11101e-07
1.83137e-06
3.2038e-06
-2.46173e-06
3.02069e-06
4.09973e-06
-1.28438e-06
-6.85727e-07
-2.1256e-06
-2.78212e-06
-7.00063e-06
-1.14116e-05
-1.97937e-05
-3.55368e-05
-7.03108e-05
-0.000134098
-0.000246445
-0.000466928
-0.00086873
-0.00160245
-0.00294233
-0.00537354
-0.00974811
-0.0175902
-0.0315503
-0.0562667
-0.099739
-0.175753
-0.307797
-0.535706
-0.926496
-1.59213
-2.71822
-4.61015
-7.76641
-12.9942
-21.5899
-35.6177
-58.3357
-94.8405
-153.031
-245.028
-389.254
-613.407
-958.69
-1485.69
-2282.47
-3475.36
-5243.25
-7835.82
-11596.3
-16988.9
-24630
-35322.4
-50089.3
-70202.6
-97200.5
-132884
-179280
-238566
-312939
-404429
-514662
-644590
-794217
-962370
-1.14657e+06
-1.34303e+06
-1.54686e+06
-1.75239e+06
-1.95368e+06
-2.14502e+06
-2.32145e+06
-2.47912e+06
-2.61546e+06
-2.72927e+06
-2.82094e+06
-2.89218e+06
-2.94541e+06
-2.98331e+06
-3.0085e+06
-3.02335e+06
-3.0299e+06
-3.02984e+06
-3.02453e+06
-3.01508e+06
-3.00234e+06
-2.987e+06
-2.96961e+06
-2.95059e+06
-2.93028e+06
-2.90894e+06
-2.88681e+06
-2.86404e+06
-2.84078e+06
-2.81714e+06
-2.79321e+06
-2.76905e+06
-2.74473e+06
-2.7203e+06
-2.69579e+06
-2.67123e+06
-2.64665e+06
-2.62206e+06
-2.59749e+06
-2.57293e+06
-2.54841e+06
-2.52393e+06
-2.49949e+06
-2.47511e+06
-2.45077e+06
-2.42649e+06
-2.40227e+06
-2.3781e+06
-2.354e+06
-2.32995e+06
-2.30597e+06
-2.28205e+06
-2.25819e+06
-2.2344e+06
-2.21067e+06
-2.187e+06
-2.16341e+06
-2.13988e+06
-2.11642e+06
-2.09303e+06
-2.06972e+06
-2.04648e+06
-2.02331e+06
-2.00023e+06
-1.97722e+06
-1.9543e+06
-1.93146e+06
-1.90871e+06
-1.88605e+06
-1.86348e+06
-1.841e+06
-1.81862e+06
-1.79633e+06
-1.77414e+06
-1.75206e+06
-1.73008e+06
-1.70821e+06
-1.68644e+06
-1.66478e+06
-1.64323e+06
-1.6218e+06
-1.60047e+06
-1.57927e+06
-1.55818e+06
-1.53721e+06
-1.51636e+06
-1.49563e+06
-1.47502e+06
-1.45454e+06
-1.43417e+06
-1.41394e+06
-1.39383e+06
-1.37384e+06
-1.35398e+06
-1.33425e+06
-1.31465e+06
-1.29517e+06
-1.27583e+06
-1.25661e+06
-1.23753e+06
-1.21857e+06
-1.19975e+06
-1.18105e+06
-1.16249e+06
-1.14405e+06
-1.12575e+06
-1.10758e+06
-1.08954e+06
-1.07163e+06
-1.05385e+06
-1.03621e+06
-1.01869e+06
-1.0013e+06
-984051
-966927
-949935
-933073
-916341
-899739
-883267
-866925
-850712
-834628
-818673
-802847
-787149
-771579
-756137
-740823
-725635
-710574
-695640
-680832
-666150
-651593
-637161
-622853
-608670
-594611
-580676
-566864
-553174
-539607
-526161
-512838
-499635
-486553
-473592
-460750
-448028
-435425
-422941
-410575
-398326
-386195
-374181
-362284
-350502
-338836
-327286
-315850
-304528
-293320
-282225
-271244
-260375
-249618
-238972
-228438
-218015
-207701
-197498
-187404
-177419
-167542
-157773
-148112
-138558
-129111
-119770
-110534
-101404
-92378.5
-83457.6
-74640.6
-65927.1
-57316.6
-48808.6
-40402.9
-32098.8
-23895.9
-15793.8
-7792
109.883
7912.34
15615.8
23220.8
30727.6
38136.8
45448.8
52664
59783
66806
73733.7
80566.4
87304.5
93948.5
100499
106956
113320
119593
125772
131862
137857
143770
149572
155332
160899
166598
171751
177737
181829
189274
190284
202549
195148
220256
193093
245944
181349
279899
164589
309628
165465
302084
223600
225439
340331
115713
450802
71000.8
424336
213485
214584
456958
54483.4
477690
229737
187157
526137
65400
407479
398871
66357
546967
244222
163404
583948
143355
267016
572286
95376.8
339969
555671
76686
378906
550102
78725.1
378097
567198
94614.2
340741
599711
132625
270892
627989
208966
179273
622558
331790
98903.7
547751
486289
81073.6
393259
611497
178176
201253
621281
383285
84308.9
462953
587097
159456
212621
615709
411043
84606.4
397796
619516
241496
129727
531587
541401
140376
215320
595578
451049
97516.8
291027
611876
382899
86953.1
333818
608733
347765
83756.6
343418
601101
343980
80323.1
321467
591260
368844
81305.1
269474
571201
419138
97660.6
195687
524505
483588
147623
116381
435420
536917
243235
64653.2
300971
539323
373661
83627.6
149436
452971
488688
197360
51312.2
277705
506961
371417
82565.7
90724.7
376625
488923
251705
28558.2
152148
424899
433867
166463
13829.7
191065
431891
386410
116024
-173.94
200832
428520
351887
79092.8
-10861.4
192790
400965
329090
76058.1
-22659.7
146840
351789
337414
109614
-61918.5
60908.5
329587
359222
104984
-75372
26990.7
239720
316465
182362
-30167.5
-74802.2
117497
304372
246026
14739.1
-121915
-8812.46
224988
290942
95835.1
-121431
-109794
96188.5
262131
196750
-48531.3
-179107
-34256.3
176437
210914
73337.1
-105773
-162503
-11063.3
191328
204847
433.449
-203757
-163826
85222.4
241667
115047
-113390
-195904
-99876.2
130839
173461
40134.1
-69412.1
-112621
-96038
19719.1
108087
40091.9
-11114.9
-39183.6
-49685.5
-17695.7
6405.25
25761.5
8765
-1301.8
-26681.4
-23985.4
-10659.6
9237.65
-1653.2
4744.63
-2480.46
-14178.4
-12648.6
-9707.02
8010.77
-4950.33
-16686.3
4287.98
-6010.41
-15157.8
-15486.6
5292.01
5666.89
-26800.2
6219.46
473.734
-10139.6
-13693.8
4037.48
3258.45
-25108.4
-4221.38
1570.52
-5333.08
-19620.5
6308.44
-3310.66
-10731.4
-14679.3
3458.97
-869.836
-14731.9
-13500.8
-573.022
-93.9956
-12744.3
-9223.1
-3645.14
-3947.77
-15940
2155.89
-7572.19
-7969.69
-10805.2
-2575.14
-5249.27
-8503.61
-8465.72
-6940.37
-4100.87
-8621.56
-5110.45
-9529.66
-7484.61
-10029.8
-3614.06
-10692
-9411.94
-10567.5
-4280.82
-8170.85
-8869.23
-10285.9
-6468.19
-7962.29
-9285.06
-8634.44
-8717.93
-6983.84
-10394
-7257.75
-8748.06
-8003.99
-11223.9
-6868.64
-7646.14
-10328
-11704.7
-8646.99
-6699.21
-9699.85
-10390.4
-9626.3
-8447.88
-13207.9
-9952.82
-9048.05
-11645.8
-13578.2
-7942.07
-11431.4
-15164
-10288.1
-6575.38
-11299.1
-11841.5
-11814.6
-7809.5
-13314.2
-8905.36
-8021.65
-11564.2
-14255.6
-11554.7
-10545.3
-16810.7
-14653
-9312.56
-16088.3
-19932.5
-13246.5
-9910.87
-13695.4
-14872
-11283
-10228.3
-17098.8
-6930.31
-10199.9
-13630.9
-18219
-15425.8
-13981.7
-24286.2
-17197.8
-11011.3
-19549.3
-23548.5
-15047.4
-12367.6
-17413.3
-15435.5
-13986.1
-19520
-18667
-14602.9
-14493.4
-18147.5
-15934.4
-20742.6
-25007.2
-21197.3
-25537.5
-27011.9
-18574.4
-23050.1
-22312.7
-12181.5
-10924.9
-19147.2
-15163.7
-19816.4
-24556.3
-24549.2
-19956.3
-18940.6
-30098.7
-27131.7
-26609.1
-27533.8
-29721.2
-24189.8
-26218.2
-31659.3
-28438.2
-23683.3
-24594.9
-27219.4
-30794.7
-37679.7
-38789.5
-27066.7
-18663.4
-14571.5
-16155.5
-30632.1
-44987.4
-45059.8
-41913.6
-38818.6
-38026.5
-39441.4
-42228.8
-40854.5
-34187.8
-29468.7
-33592.5
-40254.3
-48384.1
-51832.3
-44253.8
-29664.8
-23518.3
-27952.1
-42106.8
-59663.6
-72553.1
-70261.7
-56221.7
-41615.6
-32259.5
-34938.6
-50481.2
-71173.4
-87793.7
-93341.7
-86351.7
-66919.6
-42911
-26221
-16973.4
-21353.6
-51075
-119648
-133000
-124347
-96650.7
-62278.6
-35714.2
-26192.6
-38427.3
-72711
-116787
-152680
-171439
-165851
-134597
-91737.3
-54413.5
-33137.3
-39877.3
-90681.4
-201278
-219945
-201613
-156971
-104375
-59744.6
-36475.2
-46498.7
-94974.6
-225033
-293952
-334340
-348232
-327456
-277670
-219128
-151973
-89256.9
-62402.6
-54035.2
-79113.6
-215541
-577830
-655952
-656454
-605116
-521019
-404645
-287024
-185246
-115338
-80898.5
-101423
-187175
-376409
-1.33767e+06
-1.61785e+06
-1.67137e+06
-1.6356e+06
-1.51616e+06
-1.33472e+06
-1.1111e+06
-862471
-622549
-428121
-295067
-155669
-90999
-105129
-327713
-1.28962e+06
-5.47361e+06
-1.61211e+07
-5.97588e+07
-1.58595e+08
-1.60712e+08
-1.49182e+08
-1.33863e+08
-1.17537e+08
-1.01482e+08
-8.64099e+07
-7.26533e+07
-6.03924e+07
-4.96529e+07
-4.04046e+07
-3.26163e+07
-2.59819e+07
-2.04879e+07
-1.59919e+07
-1.2379e+07
-9.50577e+06
-7.1983e+06
-5.38532e+06
-3.98769e+06
-2.91981e+06
-2.10884e+06
-1.50421e+06
-1.05287e+06
-719000
-475307
-314937
-191665
-101935
-55568
-29430.2
-8225.05
-1571.38
-144.151
2938.83
11508.6
31277.2
43932.9
51576.4
61716.4
72146.9
76353.7
73216.8
73646.2
71152.5
61929.1
54179
46273.5
38379.7
32541
23515.5
9988.84
5561.67
3255.59
2560.59
1683.15
-3677.43
-17151.1
-23877.2
-14919.3
-17109.2
-9915.99
-2706.82
-4748.45
-57.6876
3257.43
4722.95
14250.4
34546.9
33689.3
26872.3
17470.1
12766.7
11395.4
3703.98
-99.3057
852.102
-479.759
-6952.13
-17832.9
-16119.5
-10073.9
-2783.74
-3676.06
-5415.48
1147.63
5404.04
10982.8
13208.9
19495.5
14812.6
8258.19
10227.3
6448.46
42.7648
-1259.78
-822.837
-4988.97
-21646.9
-22464.8
-18731.4
-13844.3
-5295.03
-6548.23
-6335.78
-527.089
3540.35
7716.85
11830.3
20487.3
19921.5
20688
13409.2
3924.95
4503.44
3872.13
-58.2402
-1639.08
-5462.5
-23413.8
-21452
-23236.5
-15006.6
-7789.56
-7200.17
-4012.38
740.081
2040.28
4686.76
12597.4
10059.8
12313.4
9704.2
3062.66
2200.3
3726.77
4177.19
464.13
-2760.08
-1998.21
-9417.16
-13654.2
-28304
-20330.2
-3198.97
35740.9
73023.2
-69331.1
52750.6
135176
133663
140061
182764
229860
233616
312868
347565
337904
420001
365767
321522
429860
347379
252976
337344
239380
103298
198640
195446
66292.2
92174.9
109741
15938.8
-1335.8
39012.6
45322.5
22990.8
-5905.37
-3554.15
1552.3
651.133
-19989.6
-66872.2
-60967.1
-25706.4
)
;

boundaryField
{
    sides
    {
        type            calculated;
        value           nonuniform List<scalar> 2(-25706.4 -2.32204e-06);
    }
    empty
    {
        type            empty;
    }
}


// ************************************************************************* //
