/*--------------------------------*- C++ -*----------------------------------*\
  =========                 |
  \\      /  F ield         | OpenFOAM: The Open Source CFD Toolbox
   \\    /   O peration     | Website:  https://openfoam.org
    \\  /    A nd           | Version:  9
     \\/     M anipulation  |
\*---------------------------------------------------------------------------*/
FoamFile
{
    format      ascii;
    class       surfaceScalarField;
    location    "0.011";
    object      ddtCorrDdt0(phi);
}
// * * * * * * * * * * * * * * * * * * * * * * * * * * * * * * * * * * * * * //

dimensions      [1 0 -2 0 0 0 0];

internalField   nonuniform List<scalar> 
999
(
2.78736e-08
7.52477e-08
-1.99635e-08
-8.89435e-09
-2.04431e-08
-2.25612e-08
-1.64314e-08
7.485e-09
9.65855e-09
-4.82652e-09
-6.41116e-08
-8.05147e-08
1.82915e-08
-7.99777e-08
-1.8446e-08
4.11548e-08
-6.79456e-08
-1.22343e-08
1.40811e-08
-1.82209e-08
-5.32736e-09
-1.30746e-08
2.25587e-08
6.71767e-08
2.1048e-07
4.13646e-07
8.10797e-07
1.57727e-06
3.01178e-06
5.56201e-06
1.03964e-05
1.92799e-05
3.56831e-05
6.5595e-05
0.000119902
0.000218135
0.000394597
0.000709681
0.00126877
0.00225514
0.00398433
0.00699668
0.012211
0.0211783
0.0364975
0.062493
0.106303
0.179624
0.30146
0.502452
0.831575
1.36645
2.22899
3.60897
5.79892
9.24546
14.6234
22.9418
35.6924
55.0552
84.1771
127.542
191.453
284.637
418.99
610.454
879.993
1254.62
1768.33
2462.85
3387.87
4600.53
6163.83
8143.64
10604.2
13601.7
17177
21347.6
26099.7
31383.1
37108.4
43150.2
49354
55548.3
61559.8
67228.4
72420.2
77036.3
81015.1
84338.5
87035.3
89165.2
90802.8
92026
92907.9
93513.1
93896.3
94102.3
94167.5
94120.7
93984.7
93777.6
93513.8
93204.6
92859
92484.4
92086.5
91669.9
91238.4
90795.1
90342.3
89882.1
89416.1
88945.5
88471.4
87994.5
87515.7
87035.3
86553.8
86071.5
85588.6
85105.4
84621.9
84138.3
83654.6
83170.9
82687.2
82203.4
81719.7
81236
80752.3
80268.6
79784.9
79301.2
78817.5
78333.7
77850
77366.3
76882.6
76399
75915.5
75432
74948.8
74465.7
73982.9
73500.3
73018.1
72536.3
72055
71574.1
71093.8
70614.1
70135.1
69656.9
69179.4
68702.8
68227.1
67752.4
67278.7
66806.2
66334.7
65864.4
65395.4
64927.7
64461.3
63996.2
63532.6
63070.5
62609.9
62150.7
61693.2
61237.3
60783
60330.4
59879.4
59430.2
58982.7
58537
58093.1
57651
57210.7
56772.3
56335.7
55901
55468.2
55037.3
54608.2
54181.2
53756
53332.8
52911.6
52492.3
52075
51659.7
51246.3
50834.9
50425.6
50018.2
49612.8
49209.4
48808
48408.7
48011.3
47616
47222.6
46831.3
46442
46054.7
45669.4
45286.2
44904.9
44525.7
44148.5
43773.3
43400.1
43028.9
42659.7
42292.5
41927.3
41564.2
41203
40843.8
40486.6
40131.4
39778.2
39426.9
39077.7
38730.4
38385.1
38041.7
37700.4
37360.9
37023.5
36688
36354.4
36022.8
35693.1
35365.4
35039.6
34715.7
34393.8
34073.7
33755.6
33439.4
33125.1
32812.7
32502.2
32193.5
31886.8
31581.9
31278.9
30977.8
30678.6
30381.2
30085.6
29791.9
29500.1
29210.1
28921.9
28635.5
28351
28068.3
27787.4
27508.3
27231
26955.5
26681.7
26409.8
26139.7
25871.3
25604.7
25339.8
25076.7
24815.3
24555.7
24297.9
24041.7
23787.3
23534.6
23283.7
23034.4
22786.9
22541
22296.8
22054.4
21813.6
21574.5
21337
21101.2
20867.1
20634.6
20403.8
20174.6
19947.1
19721.2
19496.9
19274.2
19053.1
18833.8
18615.6
18400
18184.2
17973.1
17758.2
17553.9
17336.8
17143
16919.5
16739.6
16509.1
16338.1
16114.4
15926.6
15747.7
15496.9
15403.5
15084.7
15014.4
14731.3
14592.7
14450.2
14114.5
14179.2
13717.7
13737.4
13537.9
13163.6
13346.7
12821.2
12806.8
12783
12211.6
12470.5
12124.7
11749.3
12069.6
11487
11359.7
11601.8
10904.9
10974.1
11117.6
10380.3
10574.1
10652.2
9893.59
10141.3
10218.9
9437.44
9672.37
9829.13
9021.65
9163.72
9463.44
8663.29
8615.23
9086.49
8392.83
8057.84
8642.9
8215.67
7557.36
8076.05
8076.4
7215.64
7395.28
7845.68
7100.87
6726.79
7367.53
7133.5
6301.48
6621.8
7042.19
6270.55
5873.67
6532.1
6437.7
5547.85
5670.31
6280.93
5744.54
5031.64
5509.05
5888.44
5104.35
4651.18
5299.94
5438.83
4560.97
4325.59
5028.26
5004.44
4109.09
3995.29
4711.69
4623.39
3728.54
3638.96
4362.72
4306.56
3415
3254.94
3975.49
4045.34
3180.46
2859.54
3535.63
3810.34
3040.31
2496.09
3028.55
3545.16
2996.32
2232.37
2472.86
3173.54
3001.48
2142.14
1949.99
2636.44
2937.24
2247.16
1608.79
1971.1
2640.05
2434.39
1593.9
1369.58
2029.04
2443.1
1873.01
1125.1
1279.44
2013.91
2123.61
1372.94
822.842
1216.81
1894.2
1791.52
997.331
596.916
1101.68
1732.34
1525.34
706.283
384.122
959.301
1558.82
1301.24
506.571
210.945
752.294
1342.94
1164.5
432.41
37.3817
436.875
1125.97
1169.44
400.922
-194.316
180.798
946.491
1048.79
418.734
-162.793
-94.1072
518.298
963.078
645.932
-107.127
-385.53
128.704
792.07
801.781
107.633
-495.561
-279.156
479.268
842.538
395.8
-345.676
-564.587
8.55476
707.75
655.708
-53.106
-547.225
-367.036
227.328
665.984
465.114
-236.497
-668.857
-310.225
472.134
777.651
210.396
-595.584
-655.901
57.6723
543.283
750.266
-91.4527
-662.798
-401.796
90.2308
239.096
601.187
287.241
-444.571
-282.694
-112.182
70.7356
165.423
175.704
81.3981
-171.206
-78.516
62.0903
155.622
-189.847
253.75
-206.367
46.8367
321.427
-227.053
-603.586
-155.878
465.739
326.365
-633.721
453.735
612.469
-1622.91
-9.04558
1103.89
140.554
-998.358
103.158
1317.42
-747.663
-220.827
799.113
184.463
-1000.34
112.168
1184.91
-301.368
-432.284
279.608
1018.09
-1170.47
-116.156
690.222
394.67
-1256.75
-49.9414
966.45
199.215
-892.803
-39.8541
753.394
25.4658
-351.506
111.98
677.89
-507.094
-123.379
347.646
277.638
-647.509
-45.1096
376.084
122.026
-348.014
0.246711
337.667
14.76
-80.8962
117.545
301.038
-224.037
-56.7405
143.057
203.938
-221.674
-36.591
134.484
140.752
-224.466
-0.238789
191.998
43.6858
-60.7006
32.6762
192.718
-41.8099
-31.3604
90.5204
154.167
-123.317
-30.6311
194.003
130.76
-131.698
-3.25904
215.223
57.6832
-76.038
59.1651
146.661
-101.694
5.08428
227.055
18.5861
-35.0753
124.41
141.336
-154.312
-18.7459
336.729
79.2167
-206.862
84.107
144.521
-25.4656
-68.1114
222.305
112.173
-217.233
66.7998
150.366
-15.4935
-88.5506
331.099
153.702
-368.164
16.9474
417.851
41.6265
-141.932
134.623
170.712
-64.4098
-71.5933
279.194
125.012
-217.387
98.7548
199.177
-63.6714
-103.824
467.101
176.975
-442.611
45.4341
327.648
36.7332
-70.4448
280.621
102.155
-51.5347
79.5248
89.2067
-1.75382
229.107
49.6235
42.9856
353.733
4.79733
1.86293
482.771
54.545
-245.001
144.57
242.459
27.1527
-78.1637
314.941
131.252
-112.897
119.901
208.151
-76.3154
65.1467
286.547
81.9537
36.2875
184.569
186.231
-87.4165
79.2522
201.026
34.9875
123.093
242.171
104.016
34.3916
154.276
76.6273
20.977
167.485
214.402
104.515
142.96
212.689
161.466
117.051
219.877
158.819
72.8288
134.024
176.156
104.54
198.844
229.451
135.193
77.2247
175.745
158.381
148.783
257.916
307.561
221.536
187.698
185.773
116.417
158.889
261.354
315.093
336.717
364.924
322.99
184.051
119.669
129.455
86.6298
54.7561
380.798
499.601
503.066
464.956
294.557
178.58
166.65
133.82
182.326
430.751
540.232
598.983
675.12
606.421
435.714
233.279
226.773
154.251
127.386
655.114
816.285
840.725
694.264
515.035
306.276
202.242
170.951
203.806
679.262
1060.35
1133.44
1401.82
1329.72
1077.7
967.648
844.444
367.202
241.471
346.51
319.346
180.708
1652.98
2508.75
2709.68
2290.54
2193.86
1975.29
1162
886.392
844.606
317.057
461.845
413.656
888.139
3337.17
5963.84
6632.28
6064.02
6259.45
5654.71
4247.9
4090.95
3409.97
904.176
2000.43
938.682
-308.234
471.948
-1131.95
7010.84
-791.27
59997.8
46694.3
502555
648988
595306
553055
489769
425549
364776
309475
259260
214974
176393
142156
111807
89525.1
72164.8
56021.5
42774.7
32096.8
24308.7
18613.3
13624.3
9905.13
7095.15
4842.92
3374.94
2460.21
1514.93
745.194
594.451
440.583
181.098
107.698
111.008
59.4417
26.5563
-3.46048
-94.8928
-145.067
-195.699
-332.167
-277.881
-252.739
-334.085
-354.442
-288.628
-233.551
-315.014
-233.869
-195.597
-138.335
86.3989
-1.28379
-163.699
-61.953
4.04289
42.1389
37.7616
88.958
70.4127
138.906
131.544
-74.1487
95.758
32.7815
-12.0276
35.8822
11.4235
-26.4487
-204.686
-104.905
-78.6972
-113.615
-112.048
18.0395
28.3347
-89.6748
-46.0794
60.3675
11.2714
97.7068
55.1465
-67.304
124.878
49.344
-84.5456
-4.81688
74.6194
10.6955
-102.298
-111.155
76.835
-72.8369
-94.0975
150.398
30.9554
-50.8527
-1.79783
19.973
101.112
104.743
61.1102
63.0402
102.181
214.825
-95.5106
-39.6717
36.8012
47.4589
-25.0269
-201.278
-153.69
-43.2424
93.1503
-108.425
-59.0323
36.3234
0.326464
-2.61972
8.88781
51.8247
223.689
92.99
-14.2964
183.698
59.6335
-73.9845
5.1117
26.6309
10.6013
-29.971
-93.8532
-81.7068
85.4215
26.0645
-143.319
-28.5605
93.0994
30.4179
-93.9914
-14.209
23.4652
169.129
282.603
-454.78
-97.6213
301.149
947.221
-1562.12
-873.322
305.222
325.547
-752.972
-972.567
-1151.29
-1220.24
-1297.64
-1514.63
-1646.9
-1861.95
-1907.56
-1640.76
-1666.6
-1628.03
-1228.89
-1180.74
-1140.28
-682.309
-598.944
-775.92
-526.654
-325.066
-396.223
-250.073
-42.0633
-109.369
-162.968
-198.426
76.7144
68.5479
12.2936
-53.1384
-109.668
114.314
191.375
-9.97635
)
;

boundaryField
{
    sides
    {
        type            calculated;
        value           nonuniform List<scalar> 2(109.756 -1.13148e-08);
    }
    empty
    {
        type            empty;
        value           nonuniform List<scalar> 0();
    }
}


// ************************************************************************* //
