/*--------------------------------*- C++ -*----------------------------------*\
  =========                 |
  \\      /  F ield         | OpenFOAM: The Open Source CFD Toolbox
   \\    /   O peration     | Website:  https://openfoam.org
    \\  /    A nd           | Version:  9
     \\/     M anipulation  |
\*---------------------------------------------------------------------------*/
FoamFile
{
    format      ascii;
    class       volScalarField;
    location    "0.011";
    object      T;
}
// * * * * * * * * * * * * * * * * * * * * * * * * * * * * * * * * * * * * * //

dimensions      [0 0 0 1 0 0 0];

internalField   nonuniform List<scalar> 
1000
(
348.432
348.432
348.432
348.432
348.432
348.432
348.432
348.432
348.432
348.432
348.432
348.432
348.432
348.432
348.432
348.432
348.432
348.432
348.432
348.432
348.432
348.432
348.432
348.432
348.432
348.432
348.432
348.432
348.432
348.432
348.432
348.432
348.432
348.432
348.432
348.432
348.432
348.432
348.432
348.432
348.432
348.432
348.432
348.432
348.432
348.432
348.432
348.432
348.432
348.432
348.432
348.432
348.432
348.432
348.432
348.432
348.432
348.432
348.432
348.432
348.432
348.431
348.431
348.43
348.43
348.428
348.427
348.424
348.421
348.416
348.409
348.399
348.387
348.369
348.347
348.318
348.281
348.234
348.177
348.107
348.023
347.924
347.809
347.679
347.533
347.371
347.195
347.005
346.803
346.591
346.369
346.14
345.905
345.665
345.421
345.173
344.922
344.669
344.415
344.158
343.901
343.642
343.383
343.123
342.862
342.6
342.338
342.076
341.813
341.55
341.287
341.023
340.759
340.495
340.23
339.966
339.701
339.436
339.17
338.905
338.639
338.374
338.108
337.841
337.575
337.309
337.042
336.775
336.508
336.241
335.974
335.707
335.44
335.172
334.905
334.637
334.369
334.101
333.833
333.565
333.297
333.029
332.76
332.492
332.224
331.955
331.687
331.418
331.15
330.881
330.612
330.344
330.075
329.806
329.538
329.269
329
328.732
328.463
328.194
327.926
327.657
327.389
327.12
326.851
326.583
326.314
326.046
325.778
325.509
325.241
324.973
324.705
324.437
324.168
323.9
323.632
323.365
323.097
322.829
322.561
322.294
322.026
321.758
321.491
321.224
320.956
320.689
320.422
320.155
319.888
319.621
319.354
319.088
318.821
318.554
318.288
318.021
317.755
317.489
317.223
316.957
316.691
316.425
316.159
315.893
315.628
315.362
315.097
314.831
314.566
314.301
314.036
313.771
313.506
313.242
312.977
312.712
312.448
312.184
311.919
311.655
311.391
311.127
310.863
310.599
310.336
310.072
309.809
309.546
309.282
309.019
308.756
308.493
308.23
307.968
307.705
307.443
307.18
306.918
306.656
306.394
306.132
305.87
305.608
305.347
305.085
304.824
304.562
304.301
304.04
303.779
303.518
303.257
302.997
302.736
302.476
302.216
301.955
301.695
301.435
301.176
300.916
300.656
300.397
300.137
299.878
299.619
299.36
299.101
298.842
298.583
298.325
298.066
297.808
297.55
297.292
297.034
296.776
296.518
296.261
296.003
295.746
295.488
295.231
294.974
294.717
294.461
294.204
293.947
293.691
293.435
293.178
292.922
292.666
292.411
292.155
291.899
291.644
291.389
291.134
290.878
290.624
290.368
290.115
289.858
289.607
289.347
289.103
288.833
288.603
288.315
288.108
287.794
287.614
287.278
287.11
286.778
286.587
286.3
286.048
285.829
285.518
285.332
285.028
284.794
284.565
284.26
284.068
283.78
283.524
283.316
283.009
282.793
282.551
282.254
282.055
281.785
281.509
281.309
281.026
280.766
280.561
280.272
280.021
279.813
279.523
279.275
279.065
278.78
278.527
278.32
278.04
277.779
277.573
277.304
277.032
276.825
276.572
276.291
276.073
275.841
275.556
275.32
275.105
274.831
274.57
274.361
274.111
273.832
273.608
273.386
273.111
272.857
272.646
272.398
272.122
271.894
271.676
271.41
271.148
270.933
270.701
270.428
270.182
269.97
269.726
269.455
269.22
269.007
268.755
268.488
268.26
268.045
267.79
267.527
267.302
267.085
266.832
266.57
266.345
266.13
265.88
265.618
265.391
265.178
264.934
264.672
264.44
264.229
263.994
263.734
263.494
263.282
263.058
262.804
262.556
262.339
262.125
261.883
261.629
261.401
261.193
260.967
260.716
260.475
260.262
260.051
259.815
259.567
259.34
259.135
258.918
258.677
258.437
258.222
258.02
257.799
257.558
257.327
257.121
256.921
256.699
256.463
256.24
256.041
255.844
255.625
255.395
255.179
254.987
254.794
254.582
254.36
254.151
253.964
253.779
253.578
253.366
253.162
252.981
252.81
252.624
252.42
252.225
252.054
251.894
251.723
251.539
251.357
251.191
251.043
250.897
250.735
250.567
250.412
250.279
250.155
250.022
249.876
249.735
249.617
249.516
249.413
249.298
249.178
249.073
248.993
248.921
248.839
248.748
248.664
248.596
248.546
248.501
248.446
248.381
248.325
248.29
248.273
248.249
248.209
248.166
248.14
248.134
248.13
248.119
248.095
248.074
248.065
248.065
248.067
248.066
248.06
248.05
248.047
248.048
248.05
248.052
248.052
248.051
248.05
248.05
248.051
248.053
248.055
248.055
248.055
248.055
248.055
248.057
248.06
248.061
248.061
248.061
248.062
248.062
248.064
248.066
248.067
248.066
248.068
248.071
248.071
248.071
248.073
248.074
248.074
248.075
248.077
248.078
248.077
248.08
248.081
248.081
248.081
248.083
248.084
248.084
248.085
248.087
248.088
248.087
248.088
248.09
248.091
248.09
248.092
248.093
248.093
248.093
248.095
248.095
248.096
248.096
248.097
248.098
248.098
248.099
248.1
248.1
248.101
248.101
248.102
248.103
248.103
248.104
248.105
248.105
248.105
248.106
248.107
248.107
248.108
248.109
248.109
248.11
248.111
248.111
248.112
248.112
248.113
248.114
248.114
248.115
248.116
248.116
248.117
248.117
248.118
248.119
248.119
248.12
248.121
248.121
248.122
248.123
248.124
248.124
248.125
248.126
248.126
248.127
248.128
248.129
248.129
248.13
248.131
248.131
248.132
248.133
248.134
248.134
248.135
248.136
248.137
248.138
248.139
248.14
248.141
248.142
248.143
248.143
248.144
248.145
248.146
248.147
248.147
248.148
248.149
248.15
248.151
248.152
248.153
248.154
248.156
248.157
248.158
248.159
248.16
248.161
248.162
248.163
248.165
248.165
248.166
248.168
248.168
248.17
248.171
248.173
248.174
248.176
248.177
248.179
248.18
248.181
248.182
248.184
248.184
248.185
248.187
248.189
248.19
248.191
248.193
248.194
248.196
248.198
248.2
248.202
248.204
248.205
248.207
248.209
248.211
248.212
248.214
248.216
248.219
248.221
248.223
248.224
248.225
248.226
248.229
248.231
248.234
248.237
248.24
248.242
248.245
248.248
248.25
248.252
248.254
248.257
248.259
248.263
248.266
248.269
248.271
248.272
248.274
248.277
248.282
248.287
248.291
248.295
248.297
248.299
248.302
248.305
248.31
248.316
248.323
248.328
248.332
248.335
248.336
248.337
248.339
248.343
248.352
248.361
248.369
248.375
248.378
248.38
248.382
248.385
248.39
248.398
248.409
248.421
248.432
248.44
248.446
248.448
248.45
248.453
248.461
248.475
248.49
248.503
248.513
248.519
248.522
248.524
248.527
248.535
248.552
248.572
248.595
248.618
248.64
248.658
248.672
248.68
248.686
248.69
248.693
248.699
248.719
248.76
248.804
248.848
248.888
248.921
248.946
248.964
248.975
248.981
248.986
248.993
249.006
249.045
249.138
249.25
249.362
249.473
249.57
249.66
249.729
249.783
249.822
249.85
249.866
249.874
249.883
249.887
249.933
250.041
250.605
252.09
257.761
269.8
282.982
296.261
309.172
321.415
332.753
343.019
352.125
360.046
366.811
372.49
377.185
381.004
384.063
386.479
388.365
389.818
390.924
391.754
392.369
392.818
393.142
393.372
393.533
393.642
393.714
393.76
393.787
393.802
393.81
393.814
393.815
393.815
393.815
393.814
393.812
393.806
393.799
393.789
393.778
393.766
393.753
393.741
393.729
393.717
393.707
393.698
393.691
393.685
393.68
393.677
393.675
393.674
393.674
393.674
393.674
393.676
393.679
393.683
393.686
393.688
393.69
393.691
393.691
393.691
393.691
393.69
393.687
393.681
393.676
393.671
393.669
393.667
393.665
393.664
393.664
393.664
393.664
393.666
393.669
393.671
393.672
393.673
393.673
393.673
393.673
393.672
393.67
393.667
393.664
393.662
393.66
393.659
393.658
393.658
393.658
393.659
393.661
393.664
393.668
393.671
393.674
393.675
393.676
393.677
393.677
393.677
393.676
393.673
393.67
393.666
393.664
393.662
393.661
393.661
393.66
393.66
393.661
393.663
393.667
393.67
393.674
393.676
393.677
393.678
393.679
393.678
393.678
393.677
393.675
393.673
393.671
393.67
393.669
393.669
393.669
393.669
393.669
393.67
393.672
393.676
393.681
393.687
393.696
393.705
393.712
393.722
393.745
393.77
393.798
393.838
393.904
393.979
394.078
394.21
394.343
394.515
394.704
394.89
395.121
395.343
395.533
395.751
395.944
396.086
396.243
396.378
396.451
396.519
396.584
396.608
396.627
396.653
396.664
396.663
396.661
396.662
396.664
396.665
396.664
396.665
396.67
396.681
396.692
)
;

boundaryField
{
    sides
    {
        type            zeroGradient;
    }
    empty
    {
        type            empty;
    }
}


// ************************************************************************* //
