/*--------------------------------*- C++ -*----------------------------------*\
  =========                 |
  \\      /  F ield         | OpenFOAM: The Open Source CFD Toolbox
   \\    /   O peration     | Website:  https://openfoam.org
    \\  /    A nd           | Version:  9
     \\/     M anipulation  |
\*---------------------------------------------------------------------------*/
FoamFile
{
    format      ascii;
    class       volVectorField;
    location    "0.011";
    object      U;
}
// * * * * * * * * * * * * * * * * * * * * * * * * * * * * * * * * * * * * * //

dimensions      [0 1 -1 0 0 0 0];

internalField   nonuniform List<vector> 
1000
(
(7.4472e-13 0 0)
(1.44721e-12 0 0)
(1.43109e-12 0 0)
(1.3927e-12 0 0)
(1.80806e-12 0 0)
(1.82802e-12 0 0)
(2.4714e-12 0 0)
(2.64798e-12 0 0)
(3.54471e-12 0 0)
(3.2307e-12 0 0)
(3.76122e-12 0 0)
(2.9712e-12 0 0)
(3.46947e-12 0 0)
(2.71093e-12 0 0)
(2.73243e-12 0 0)
(1.75124e-12 0 0)
(1.51554e-12 0 0)
(7.13242e-13 0 0)
(8.97503e-13 0 0)
(4.81381e-13 0 0)
(6.77926e-13 0 0)
(4.29941e-13 0 0)
(1.0165e-12 0 0)
(1.3689e-12 0 0)
(3.21381e-12 0 0)
(5.07254e-12 0 0)
(9.2399e-12 0 0)
(1.59324e-11 0 0)
(2.93466e-11 0 0)
(5.40744e-11 0 0)
(1.00997e-10 0 0)
(1.88794e-10 0 0)
(3.52526e-10 0 0)
(6.55592e-10 0 0)
(1.21054e-09 0 0)
(2.2253e-09 0 0)
(4.0655e-09 0 0)
(7.38813e-09 0 0)
(1.33484e-08 0 0)
(2.39816e-08 0 0)
(4.28351e-08 0 0)
(7.60657e-08 0 0)
(1.34278e-07 0 0)
(2.35622e-07 0 0)
(4.10948e-07 0 0)
(7.12326e-07 0 0)
(1.22703e-06 0 0)
(2.10025e-06 0 0)
(3.5718e-06 0 0)
(6.03475e-06 0 0)
(1.01284e-05 0 0)
(1.68844e-05 0 0)
(2.79539e-05 0 0)
(4.59577e-05 0 0)
(7.502e-05 0 0)
(0.000121574 0 0)
(0.000195564 0 0)
(0.000312216 0 0)
(0.00049462 0 0)
(0.00077744 0 0)
(0.00121217 0 0)
(0.00187448 0 0)
(0.00287429 0 0)
(0.0043694 0 0)
(0.0065835 0 0)
(0.0098295 0 0)
(0.014539 0 0)
(0.0212986 0 0)
(0.0308925 0 0)
(0.044352 0 0)
(0.0630076 0 0)
(0.0885428 0 0)
(0.12304 0 0)
(0.169017 0 0)
(0.229434 0 0)
(0.307675 0 0)
(0.407477 0 0)
(0.532815 0 0)
(0.687735 0 0)
(0.876135 0 0)
(1.10152 0 0)
(1.36676 0 0)
(1.67385 0 0)
(2.02377 0 0)
(2.41636 0 0)
(2.85038 0 0)
(3.32356 0 0)
(3.83284 0 0)
(4.37453 0 0)
(4.94465 0 0)
(5.53912 0 0)
(6.15412 0 0)
(6.78618 0 0)
(7.43231 0 0)
(8.08998 0 0)
(8.75712 0 0)
(9.43203 0 0)
(10.1134 0 0)
(10.8 0 0)
(11.4911 0 0)
(12.1859 0 0)
(12.8839 0 0)
(13.5846 0 0)
(14.2877 0 0)
(14.9929 0 0)
(15.6999 0 0)
(16.4085 0 0)
(17.1186 0 0)
(17.8301 0 0)
(18.5428 0 0)
(19.2566 0 0)
(19.9715 0 0)
(20.6875 0 0)
(21.4044 0 0)
(22.1223 0 0)
(22.841 0 0)
(23.5606 0 0)
(24.2811 0 0)
(25.0024 0 0)
(25.7244 0 0)
(26.4473 0 0)
(27.171 0 0)
(27.8953 0 0)
(28.6205 0 0)
(29.3463 0 0)
(30.0729 0 0)
(30.8002 0 0)
(31.5281 0 0)
(32.2568 0 0)
(32.986 0 0)
(33.716 0 0)
(34.4465 0 0)
(35.1777 0 0)
(35.9095 0 0)
(36.6419 0 0)
(37.3748 0 0)
(38.1084 0 0)
(38.8424 0 0)
(39.577 0 0)
(40.3121 0 0)
(41.0477 0 0)
(41.7838 0 0)
(42.5204 0 0)
(43.2574 0 0)
(43.9949 0 0)
(44.7328 0 0)
(45.4711 0 0)
(46.2098 0 0)
(46.9489 0 0)
(47.6884 0 0)
(48.4282 0 0)
(49.1684 0 0)
(49.9089 0 0)
(50.6497 0 0)
(51.3909 0 0)
(52.1323 0 0)
(52.874 0 0)
(53.6161 0 0)
(54.3584 0 0)
(55.1009 0 0)
(55.8437 0 0)
(56.5867 0 0)
(57.33 0 0)
(58.0735 0 0)
(58.8172 0 0)
(59.5612 0 0)
(60.3053 0 0)
(61.0496 0 0)
(61.7941 0 0)
(62.5388 0 0)
(63.2837 0 0)
(64.0287 0 0)
(64.7739 0 0)
(65.5192 0 0)
(66.2647 0 0)
(67.0104 0 0)
(67.7561 0 0)
(68.5021 0 0)
(69.2481 0 0)
(69.9943 0 0)
(70.7406 0 0)
(71.487 0 0)
(72.2336 0 0)
(72.9802 0 0)
(73.727 0 0)
(74.4739 0 0)
(75.2208 0 0)
(75.9679 0 0)
(76.7151 0 0)
(77.4623 0 0)
(78.2097 0 0)
(78.9571 0 0)
(79.7046 0 0)
(80.4522 0 0)
(81.1999 0 0)
(81.9476 0 0)
(82.6954 0 0)
(83.4433 0 0)
(84.1913 0 0)
(84.9393 0 0)
(85.6874 0 0)
(86.4356 0 0)
(87.1838 0 0)
(87.932 0 0)
(88.6804 0 0)
(89.4288 0 0)
(90.1772 0 0)
(90.9257 0 0)
(91.6742 0 0)
(92.4228 0 0)
(93.1715 0 0)
(93.9201 0 0)
(94.6689 0 0)
(95.4176 0 0)
(96.1664 0 0)
(96.9153 0 0)
(97.6641 0 0)
(98.4131 0 0)
(99.162 0 0)
(99.911 0 0)
(100.66 0 0)
(101.409 0 0)
(102.158 0 0)
(102.907 0 0)
(103.656 0 0)
(104.406 0 0)
(105.155 0 0)
(105.904 0 0)
(106.653 0 0)
(107.402 0 0)
(108.152 0 0)
(108.901 0 0)
(109.65 0 0)
(110.4 0 0)
(111.149 0 0)
(111.898 0 0)
(112.648 0 0)
(113.397 0 0)
(114.146 0 0)
(114.896 0 0)
(115.645 0 0)
(116.395 0 0)
(117.144 0 0)
(117.894 0 0)
(118.643 0 0)
(119.392 0 0)
(120.142 0 0)
(120.891 0 0)
(121.641 0 0)
(122.39 0 0)
(123.14 0 0)
(123.889 0 0)
(124.639 0 0)
(125.388 0 0)
(126.138 0 0)
(126.887 0 0)
(127.637 0 0)
(128.386 0 0)
(129.136 0 0)
(129.885 0 0)
(130.635 0 0)
(131.384 0 0)
(132.133 0 0)
(132.883 0 0)
(133.632 0 0)
(134.382 0 0)
(135.131 0 0)
(135.88 0 0)
(136.63 0 0)
(137.379 0 0)
(138.129 0 0)
(138.878 0 0)
(139.627 0 0)
(140.376 0 0)
(141.126 0 0)
(141.875 0 0)
(142.624 0 0)
(143.373 0 0)
(144.123 0 0)
(144.872 0 0)
(145.621 0 0)
(146.37 0 0)
(147.119 0 0)
(147.868 0 0)
(148.617 0 0)
(149.366 0 0)
(150.115 0 0)
(150.864 0 0)
(151.613 0 0)
(152.362 0 0)
(153.111 0 0)
(153.86 0 0)
(154.609 0 0)
(155.358 0 0)
(156.106 0 0)
(156.855 0 0)
(157.604 0 0)
(158.353 0 0)
(159.101 0 0)
(159.85 0 0)
(160.598 0 0)
(161.347 0 0)
(162.095 0 0)
(162.844 0 0)
(163.592 0 0)
(164.34 0 0)
(165.089 0 0)
(165.837 0 0)
(166.585 0 0)
(167.333 0 0)
(168.081 0 0)
(168.829 0 0)
(169.577 0 0)
(170.325 0 0)
(171.073 0 0)
(171.821 0 0)
(172.568 0 0)
(173.316 0 0)
(174.064 0 0)
(174.811 0 0)
(175.559 0 0)
(176.306 0 0)
(177.053 0 0)
(177.801 0 0)
(178.548 0 0)
(179.295 0 0)
(180.042 0 0)
(180.789 0 0)
(181.536 0 0)
(182.283 0 0)
(183.03 0 0)
(183.777 0 0)
(184.523 0 0)
(185.27 0 0)
(186.016 0 0)
(186.762 0 0)
(187.509 0 0)
(188.255 0 0)
(189.001 0 0)
(189.747 0 0)
(190.493 0 0)
(191.239 0 0)
(191.984 0 0)
(192.73 0 0)
(193.475 0 0)
(194.221 0 0)
(194.966 0 0)
(195.711 0 0)
(196.456 0 0)
(197.201 0 0)
(197.946 0 0)
(198.69 0 0)
(199.435 0 0)
(200.179 0 0)
(200.924 0 0)
(201.668 0 0)
(202.412 0 0)
(203.155 0 0)
(203.899 0 0)
(204.643 0 0)
(205.386 0 0)
(206.129 0 0)
(206.872 0 0)
(207.615 0 0)
(208.358 0 0)
(209.1 0 0)
(209.842 0 0)
(210.585 0 0)
(211.327 0 0)
(212.068 0 0)
(212.81 0 0)
(213.551 0 0)
(214.292 0 0)
(215.033 0 0)
(215.774 0 0)
(216.514 0 0)
(217.254 0 0)
(217.994 0 0)
(218.734 0 0)
(219.473 0 0)
(220.212 0 0)
(220.951 0 0)
(221.69 0 0)
(222.428 0 0)
(223.166 0 0)
(223.904 0 0)
(224.641 0 0)
(225.378 0 0)
(226.115 0 0)
(226.852 0 0)
(227.588 0 0)
(228.323 0 0)
(229.058 0 0)
(229.793 0 0)
(230.528 0 0)
(231.262 0 0)
(231.995 0 0)
(232.729 0 0)
(233.461 0 0)
(234.193 0 0)
(234.925 0 0)
(235.656 0 0)
(236.387 0 0)
(237.117 0 0)
(237.847 0 0)
(238.576 0 0)
(239.304 0 0)
(240.032 0 0)
(240.759 0 0)
(241.486 0 0)
(242.212 0 0)
(242.937 0 0)
(243.661 0 0)
(244.385 0 0)
(245.107 0 0)
(245.829 0 0)
(246.55 0 0)
(247.271 0 0)
(247.99 0 0)
(248.708 0 0)
(249.425 0 0)
(250.142 0 0)
(250.857 0 0)
(251.571 0 0)
(252.284 0 0)
(252.995 0 0)
(253.705 0 0)
(254.415 0 0)
(255.122 0 0)
(255.828 0 0)
(256.533 0 0)
(257.236 0 0)
(257.937 0 0)
(258.637 0 0)
(259.335 0 0)
(260.031 0 0)
(260.725 0 0)
(261.417 0 0)
(262.107 0 0)
(262.795 0 0)
(263.48 0 0)
(264.163 0 0)
(264.843 0 0)
(265.521 0 0)
(266.195 0 0)
(266.867 0 0)
(267.536 0 0)
(268.201 0 0)
(268.863 0 0)
(269.522 0 0)
(270.177 0 0)
(270.827 0 0)
(271.474 0 0)
(272.116 0 0)
(272.754 0 0)
(273.387 0 0)
(274.015 0 0)
(274.637 0 0)
(275.255 0 0)
(275.866 0 0)
(276.471 0 0)
(277.07 0 0)
(277.662 0 0)
(278.247 0 0)
(278.825 0 0)
(279.395 0 0)
(279.957 0 0)
(280.51 0 0)
(281.055 0 0)
(281.59 0 0)
(282.116 0 0)
(282.632 0 0)
(283.137 0 0)
(283.631 0 0)
(284.114 0 0)
(284.585 0 0)
(285.044 0 0)
(285.49 0 0)
(285.923 0 0)
(286.342 0 0)
(286.748 0 0)
(287.139 0 0)
(287.516 0 0)
(287.878 0 0)
(288.224 0 0)
(288.555 0 0)
(288.87 0 0)
(289.17 0 0)
(289.453 0 0)
(289.721 0 0)
(289.972 0 0)
(290.208 0 0)
(290.428 0 0)
(290.632 0 0)
(290.821 0 0)
(290.996 0 0)
(291.155 0 0)
(291.301 0 0)
(291.433 0 0)
(291.553 0 0)
(291.66 0 0)
(291.755 0 0)
(291.84 0 0)
(291.914 0 0)
(291.98 0 0)
(292.035 0 0)
(292.082 0 0)
(292.124 0 0)
(292.159 0 0)
(292.188 0 0)
(292.212 0 0)
(292.231 0 0)
(292.244 0 0)
(292.257 0 0)
(292.267 0 0)
(292.275 0 0)
(292.28 0 0)
(292.283 0 0)
(292.284 0 0)
(292.284 0 0)
(292.284 0 0)
(292.284 0 0)
(292.284 0 0)
(292.283 0 0)
(292.282 0 0)
(292.281 0 0)
(292.279 0 0)
(292.278 0 0)
(292.277 0 0)
(292.274 0 0)
(292.273 0 0)
(292.273 0 0)
(292.272 0 0)
(292.27 0 0)
(292.268 0 0)
(292.265 0 0)
(292.262 0 0)
(292.26 0 0)
(292.259 0 0)
(292.257 0 0)
(292.253 0 0)
(292.251 0 0)
(292.251 0 0)
(292.248 0 0)
(292.245 0 0)
(292.244 0 0)
(292.242 0 0)
(292.239 0 0)
(292.237 0 0)
(292.236 0 0)
(292.233 0 0)
(292.23 0 0)
(292.229 0 0)
(292.228 0 0)
(292.226 0 0)
(292.224 0 0)
(292.223 0 0)
(292.222 0 0)
(292.219 0 0)
(292.218 0 0)
(292.217 0 0)
(292.216 0 0)
(292.213 0 0)
(292.212 0 0)
(292.212 0 0)
(292.211 0 0)
(292.209 0 0)
(292.209 0 0)
(292.208 0 0)
(292.207 0 0)
(292.206 0 0)
(292.205 0 0)
(292.205 0 0)
(292.204 0 0)
(292.203 0 0)
(292.203 0 0)
(292.203 0 0)
(292.202 0 0)
(292.201 0 0)
(292.201 0 0)
(292.2 0 0)
(292.2 0 0)
(292.199 0 0)
(292.199 0 0)
(292.198 0 0)
(292.198 0 0)
(292.198 0 0)
(292.198 0 0)
(292.197 0 0)
(292.197 0 0)
(292.197 0 0)
(292.196 0 0)
(292.196 0 0)
(292.196 0 0)
(292.196 0 0)
(292.195 0 0)
(292.195 0 0)
(292.195 0 0)
(292.195 0 0)
(292.195 0 0)
(292.194 0 0)
(292.194 0 0)
(292.194 0 0)
(292.194 0 0)
(292.194 0 0)
(292.194 0 0)
(292.194 0 0)
(292.193 0 0)
(292.193 0 0)
(292.193 0 0)
(292.193 0 0)
(292.193 0 0)
(292.192 0 0)
(292.193 0 0)
(292.192 0 0)
(292.192 0 0)
(292.192 0 0)
(292.192 0 0)
(292.192 0 0)
(292.192 0 0)
(292.192 0 0)
(292.192 0 0)
(292.192 0 0)
(292.192 0 0)
(292.192 0 0)
(292.192 0 0)
(292.192 0 0)
(292.192 0 0)
(292.192 0 0)
(292.192 0 0)
(292.192 0 0)
(292.192 0 0)
(292.192 0 0)
(292.192 0 0)
(292.192 0 0)
(292.192 0 0)
(292.192 0 0)
(292.192 0 0)
(292.192 0 0)
(292.192 0 0)
(292.192 0 0)
(292.192 0 0)
(292.192 0 0)
(292.192 0 0)
(292.192 0 0)
(292.192 0 0)
(292.192 0 0)
(292.192 0 0)
(292.192 0 0)
(292.192 0 0)
(292.192 0 0)
(292.192 0 0)
(292.192 0 0)
(292.192 0 0)
(292.192 0 0)
(292.192 0 0)
(292.193 0 0)
(292.192 0 0)
(292.192 0 0)
(292.193 0 0)
(292.193 0 0)
(292.192 0 0)
(292.192 0 0)
(292.193 0 0)
(292.192 0 0)
(292.192 0 0)
(292.192 0 0)
(292.192 0 0)
(292.192 0 0)
(292.192 0 0)
(292.192 0 0)
(292.192 0 0)
(292.192 0 0)
(292.192 0 0)
(292.192 0 0)
(292.192 0 0)
(292.192 0 0)
(292.192 0 0)
(292.193 0 0)
(292.192 0 0)
(292.192 0 0)
(292.192 0 0)
(292.192 0 0)
(292.192 0 0)
(292.192 0 0)
(292.192 0 0)
(292.192 0 0)
(292.192 0 0)
(292.192 0 0)
(292.192 0 0)
(292.192 0 0)
(292.192 0 0)
(292.192 0 0)
(292.192 0 0)
(292.192 0 0)
(292.192 0 0)
(292.192 0 0)
(292.192 0 0)
(292.192 0 0)
(292.192 0 0)
(292.192 0 0)
(292.192 0 0)
(292.193 0 0)
(292.192 0 0)
(292.192 0 0)
(292.193 0 0)
(292.193 0 0)
(292.192 0 0)
(292.193 0 0)
(292.193 0 0)
(292.192 0 0)
(292.192 0 0)
(292.193 0 0)
(292.192 0 0)
(292.192 0 0)
(292.192 0 0)
(292.192 0 0)
(292.192 0 0)
(292.192 0 0)
(292.192 0 0)
(292.192 0 0)
(292.192 0 0)
(292.192 0 0)
(292.192 0 0)
(292.192 0 0)
(292.192 0 0)
(292.192 0 0)
(292.192 0 0)
(292.192 0 0)
(292.192 0 0)
(292.192 0 0)
(292.192 0 0)
(292.192 0 0)
(292.191 0 0)
(292.191 0 0)
(292.191 0 0)
(292.191 0 0)
(292.191 0 0)
(292.191 0 0)
(292.191 0 0)
(292.191 0 0)
(292.191 0 0)
(292.191 0 0)
(292.191 0 0)
(292.191 0 0)
(292.191 0 0)
(292.191 0 0)
(292.191 0 0)
(292.191 0 0)
(292.191 0 0)
(292.191 0 0)
(292.191 0 0)
(292.191 0 0)
(292.191 0 0)
(292.191 0 0)
(292.191 0 0)
(292.191 0 0)
(292.191 0 0)
(292.191 0 0)
(292.191 0 0)
(292.191 0 0)
(292.191 0 0)
(292.191 0 0)
(292.191 0 0)
(292.19 0 0)
(292.19 0 0)
(292.19 0 0)
(292.19 0 0)
(292.19 0 0)
(292.19 0 0)
(292.19 0 0)
(292.19 0 0)
(292.19 0 0)
(292.189 0 0)
(292.189 0 0)
(292.189 0 0)
(292.189 0 0)
(292.189 0 0)
(292.188 0 0)
(292.188 0 0)
(292.188 0 0)
(292.188 0 0)
(292.189 0 0)
(292.189 0 0)
(292.188 0 0)
(292.187 0 0)
(292.187 0 0)
(292.187 0 0)
(292.187 0 0)
(292.186 0 0)
(292.187 0 0)
(292.187 0 0)
(292.187 0 0)
(292.187 0 0)
(292.187 0 0)
(292.189 0 0)
(292.191 0 0)
(292.19 0 0)
(292.189 0 0)
(292.188 0 0)
(292.189 0 0)
(292.188 0 0)
(292.188 0 0)
(292.189 0 0)
(292.188 0 0)
(292.189 0 0)
(292.191 0 0)
(292.192 0 0)
(292.197 0 0)
(292.205 0 0)
(292.224 0 0)
(292.252 0 0)
(292.324 0 0)
(292.408 0 0)
(292.654 0 0)
(292.739 0 0)
(292.407 0 0)
(292.129 0 0)
(292.042 0 0)
(292.052 0 0)
(292.079 0 0)
(292.106 0 0)
(292.13 0 0)
(292.147 0 0)
(292.158 0 0)
(292.163 0 0)
(292.166 0 0)
(292.173 0 0)
(292.183 0 0)
(292.189 0 0)
(292.187 0 0)
(292.185 0 0)
(292.186 0 0)
(292.188 0 0)
(292.189 0 0)
(292.188 0 0)
(292.188 0 0)
(292.187 0 0)
(292.188 0 0)
(292.188 0 0)
(292.188 0 0)
(292.188 0 0)
(292.189 0 0)
(292.19 0 0)
(292.189 0 0)
(292.189 0 0)
(292.189 0 0)
(292.189 0 0)
(292.189 0 0)
(292.189 0 0)
(292.189 0 0)
(292.189 0 0)
(292.189 0 0)
(292.189 0 0)
(292.189 0 0)
(292.19 0 0)
(292.19 0 0)
(292.19 0 0)
(292.19 0 0)
(292.19 0 0)
(292.19 0 0)
(292.19 0 0)
(292.19 0 0)
(292.19 0 0)
(292.19 0 0)
(292.19 0 0)
(292.189 0 0)
(292.189 0 0)
(292.189 0 0)
(292.189 0 0)
(292.189 0 0)
(292.188 0 0)
(292.188 0 0)
(292.187 0 0)
(292.187 0 0)
(292.186 0 0)
(292.186 0 0)
(292.186 0 0)
(292.185 0 0)
(292.185 0 0)
(292.184 0 0)
(292.184 0 0)
(292.183 0 0)
(292.183 0 0)
(292.183 0 0)
(292.183 0 0)
(292.183 0 0)
(292.183 0 0)
(292.183 0 0)
(292.183 0 0)
(292.183 0 0)
(292.183 0 0)
(292.184 0 0)
(292.184 0 0)
(292.184 0 0)
(292.184 0 0)
(292.184 0 0)
(292.185 0 0)
(292.185 0 0)
(292.185 0 0)
(292.186 0 0)
(292.186 0 0)
(292.186 0 0)
(292.186 0 0)
(292.186 0 0)
(292.187 0 0)
(292.187 0 0)
(292.187 0 0)
(292.187 0 0)
(292.186 0 0)
(292.186 0 0)
(292.186 0 0)
(292.186 0 0)
(292.186 0 0)
(292.186 0 0)
(292.185 0 0)
(292.185 0 0)
(292.184 0 0)
(292.184 0 0)
(292.183 0 0)
(292.183 0 0)
(292.182 0 0)
(292.182 0 0)
(292.181 0 0)
(292.181 0 0)
(292.181 0 0)
(292.181 0 0)
(292.181 0 0)
(292.18 0 0)
(292.18 0 0)
(292.18 0 0)
(292.18 0 0)
(292.179 0 0)
(292.179 0 0)
(292.179 0 0)
(292.179 0 0)
(292.179 0 0)
(292.179 0 0)
(292.179 0 0)
(292.179 0 0)
(292.179 0 0)
(292.179 0 0)
(292.179 0 0)
(292.179 0 0)
(292.179 0 0)
(292.179 0 0)
(292.179 0 0)
(292.179 0 0)
(292.179 0 0)
(292.179 0 0)
(292.179 0 0)
(292.178 0 0)
(292.178 0 0)
(292.177 0 0)
(292.176 0 0)
(292.174 0 0)
(292.172 0 0)
(292.167 0 0)
(292.161 0 0)
(292.154 0 0)
(292.144 0 0)
(292.124 0 0)
(292.092 0 0)
(292.052 0 0)
(291.992 0 0)
(291.897 0 0)
(291.771 0 0)
(291.613 0 0)
(291.41 0 0)
(291.156 0 0)
(290.846 0 0)
(290.48 0 0)
(290.06 0 0)
(289.594 0 0)
(289.09 0 0)
(288.563 0 0)
(288.026 0 0)
(287.498 0 0)
(286.995 0 0)
(286.53 0 0)
(286.115 0 0)
(285.756 0 0)
(285.456 0 0)
(285.214 0 0)
(285.025 0 0)
(284.884 0 0)
(284.781 0 0)
(284.71 0 0)
(284.663 0 0)
(284.633 0 0)
(284.616 0 0)
(284.607 0 0)
(284.602 0 0)
(284.599 0 0)
(284.597 0 0)
(284.597 0 0)
(284.598 0 0)
(284.599 0 0)
(284.599 0 0)
(284.599 0 0)
)
;

boundaryField
{
    sides
    {
        type            zeroGradient;
    }
    empty
    {
        type            empty;
    }
}


// ************************************************************************* //
