/*--------------------------------*- C++ -*----------------------------------*\
  =========                 |
  \\      /  F ield         | OpenFOAM: The Open Source CFD Toolbox
   \\    /   O peration     | Website:  https://openfoam.org
    \\  /    A nd           | Version:  9
     \\/     M anipulation  |
\*---------------------------------------------------------------------------*/
FoamFile
{
    format      ascii;
    class       volVectorField;
    location    "0.011";
    object      U_0;
}
// * * * * * * * * * * * * * * * * * * * * * * * * * * * * * * * * * * * * * //

dimensions      [0 1 -1 0 0 0 0];

internalField   nonuniform List<vector> 
1000
(
(7.15545e-13 0 0)
(1.32361e-12 0 0)
(1.35815e-12 0 0)
(1.4142e-12 0 0)
(1.84414e-12 0 0)
(1.90172e-12 0 0)
(2.52284e-12 0 0)
(2.65489e-12 0 0)
(3.52322e-12 0 0)
(3.23147e-12 0 0)
(3.84183e-12 0 0)
(3.13934e-12 0 0)
(3.55009e-12 0 0)
(2.79155e-12 0 0)
(2.84913e-12 0 0)
(1.73589e-12 0 0)
(1.56007e-12 0 0)
(7.85411e-13 0 0)
(8.82148e-13 0 0)
(4.81381e-13 0 0)
(6.99423e-13 0 0)
(4.29174e-13 0 0)
(9.78117e-13 0 0)
(1.2284e-12 0 0)
(2.80997e-12 0 0)
(4.20652e-12 0 0)
(7.53012e-12 0 0)
(1.2585e-11 0 0)
(2.29758e-11 0 0)
(4.21542e-11 0 0)
(7.87852e-11 0 0)
(1.47544e-10 0 0)
(2.76204e-10 0 0)
(5.15052e-10 0 0)
(9.53264e-10 0 0)
(1.75678e-09 0 0)
(3.21691e-09 0 0)
(5.85993e-09 0 0)
(1.06126e-08 0 0)
(1.91126e-08 0 0)
(3.42211e-08 0 0)
(6.09181e-08 0 0)
(1.07804e-07 0 0)
(1.89642e-07 0 0)
(3.31593e-07 0 0)
(5.76249e-07 0 0)
(9.95203e-07 0 0)
(1.70793e-06 0 0)
(2.91234e-06 0 0)
(4.93385e-06 0 0)
(8.30341e-06 0 0)
(1.38806e-05 0 0)
(2.30455e-05 0 0)
(3.79965e-05 0 0)
(6.22049e-05 0 0)
(0.000101105 0 0)
(0.000163127 0 0)
(0.000261229 0 0)
(0.000415137 0 0)
(0.000654587 0 0)
(0.00102393 0 0)
(0.00158865 0 0)
(0.00244426 0 0)
(0.00372857 0 0)
(0.0056379 0 0)
(0.00844831 0 0)
(0.0125427 0 0)
(0.0184446 0 0)
(0.0268584 0 0)
(0.0387165 0 0)
(0.0552309 0 0)
(0.077947 0 0)
(0.108794 0 0)
(0.150124 0 0)
(0.204734 0 0)
(0.275859 0 0)
(0.367117 0 0)
(0.482417 0 0)
(0.625808 0 0)
(0.801276 0 0)
(1.01251 0 0)
(1.26266 0 0)
(1.55407 0 0)
(1.88812 0 0)
(2.26508 0 0)
(2.68412 0 0)
(3.14334 0 0)
(3.63993 0 0)
(4.17041 0 0)
(4.73087 0 0)
(5.31723 0 0)
(5.92554 0 0)
(6.55218 0 0)
(7.19396 0 0)
(7.84819 0 0)
(8.51263 0 0)
(9.18543 0 0)
(9.86513 0 0)
(10.5505 0 0)
(11.2407 0 0)
(11.9348 0 0)
(12.6323 0 0)
(13.3327 0 0)
(14.0356 0 0)
(14.7407 0 0)
(15.4476 0 0)
(16.1563 0 0)
(16.8665 0 0)
(17.5781 0 0)
(18.291 0 0)
(19.0051 0 0)
(19.7203 0 0)
(20.4365 0 0)
(21.1537 0 0)
(21.8719 0 0)
(22.5909 0 0)
(23.3109 0 0)
(24.0317 0 0)
(24.7533 0 0)
(25.4758 0 0)
(26.199 0 0)
(26.923 0 0)
(27.6478 0 0)
(28.3733 0 0)
(29.0995 0 0)
(29.8265 0 0)
(30.5542 0 0)
(31.2825 0 0)
(32.0116 0 0)
(32.7413 0 0)
(33.4717 0 0)
(34.2027 0 0)
(34.9343 0 0)
(35.6665 0 0)
(36.3993 0 0)
(37.1327 0 0)
(37.8667 0 0)
(38.6013 0 0)
(39.3363 0 0)
(40.0719 0 0)
(40.808 0 0)
(41.5446 0 0)
(42.2817 0 0)
(43.0192 0 0)
(43.7572 0 0)
(44.4956 0 0)
(45.2344 0 0)
(45.9736 0 0)
(46.7133 0 0)
(47.4533 0 0)
(48.1936 0 0)
(48.9344 0 0)
(49.6754 0 0)
(50.4168 0 0)
(51.1585 0 0)
(51.9006 0 0)
(52.6429 0 0)
(53.3855 0 0)
(54.1283 0 0)
(54.8715 0 0)
(55.6148 0 0)
(56.3585 0 0)
(57.1023 0 0)
(57.8464 0 0)
(58.5907 0 0)
(59.3353 0 0)
(60.08 0 0)
(60.8249 0 0)
(61.57 0 0)
(62.3153 0 0)
(63.0608 0 0)
(63.8065 0 0)
(64.5523 0 0)
(65.2982 0 0)
(66.0444 0 0)
(66.7906 0 0)
(67.537 0 0)
(68.2836 0 0)
(69.0303 0 0)
(69.7771 0 0)
(70.524 0 0)
(71.2711 0 0)
(72.0183 0 0)
(72.7656 0 0)
(73.513 0 0)
(74.2605 0 0)
(75.0081 0 0)
(75.7558 0 0)
(76.5036 0 0)
(77.2515 0 0)
(77.9995 0 0)
(78.7476 0 0)
(79.4957 0 0)
(80.244 0 0)
(80.9923 0 0)
(81.7407 0 0)
(82.4892 0 0)
(83.2377 0 0)
(83.9863 0 0)
(84.735 0 0)
(85.4837 0 0)
(86.2326 0 0)
(86.9814 0 0)
(87.7304 0 0)
(88.4793 0 0)
(89.2284 0 0)
(89.9775 0 0)
(90.7266 0 0)
(91.4758 0 0)
(92.2251 0 0)
(92.9744 0 0)
(93.7237 0 0)
(94.4731 0 0)
(95.2225 0 0)
(95.972 0 0)
(96.7215 0 0)
(97.471 0 0)
(98.2206 0 0)
(98.9702 0 0)
(99.7199 0 0)
(100.47 0 0)
(101.219 0 0)
(101.969 0 0)
(102.719 0 0)
(103.469 0 0)
(104.218 0 0)
(104.968 0 0)
(105.718 0 0)
(106.468 0 0)
(107.218 0 0)
(107.968 0 0)
(108.718 0 0)
(109.468 0 0)
(110.218 0 0)
(110.968 0 0)
(111.718 0 0)
(112.468 0 0)
(113.218 0 0)
(113.968 0 0)
(114.718 0 0)
(115.468 0 0)
(116.218 0 0)
(116.968 0 0)
(117.719 0 0)
(118.469 0 0)
(119.219 0 0)
(119.969 0 0)
(120.719 0 0)
(121.469 0 0)
(122.219 0 0)
(122.97 0 0)
(123.72 0 0)
(124.47 0 0)
(125.22 0 0)
(125.97 0 0)
(126.72 0 0)
(127.47 0 0)
(128.221 0 0)
(128.971 0 0)
(129.721 0 0)
(130.471 0 0)
(131.221 0 0)
(131.971 0 0)
(132.721 0 0)
(133.471 0 0)
(134.222 0 0)
(134.972 0 0)
(135.722 0 0)
(136.472 0 0)
(137.222 0 0)
(137.972 0 0)
(138.722 0 0)
(139.472 0 0)
(140.222 0 0)
(140.972 0 0)
(141.722 0 0)
(142.472 0 0)
(143.221 0 0)
(143.971 0 0)
(144.721 0 0)
(145.471 0 0)
(146.221 0 0)
(146.971 0 0)
(147.72 0 0)
(148.47 0 0)
(149.22 0 0)
(149.97 0 0)
(150.719 0 0)
(151.469 0 0)
(152.218 0 0)
(152.968 0 0)
(153.718 0 0)
(154.467 0 0)
(155.217 0 0)
(155.966 0 0)
(156.715 0 0)
(157.465 0 0)
(158.214 0 0)
(158.963 0 0)
(159.713 0 0)
(160.462 0 0)
(161.211 0 0)
(161.96 0 0)
(162.709 0 0)
(163.458 0 0)
(164.207 0 0)
(164.956 0 0)
(165.705 0 0)
(166.454 0 0)
(167.203 0 0)
(167.952 0 0)
(168.7 0 0)
(169.449 0 0)
(170.198 0 0)
(170.946 0 0)
(171.695 0 0)
(172.443 0 0)
(173.191 0 0)
(173.94 0 0)
(174.688 0 0)
(175.436 0 0)
(176.184 0 0)
(176.932 0 0)
(177.68 0 0)
(178.428 0 0)
(179.176 0 0)
(179.924 0 0)
(180.671 0 0)
(181.419 0 0)
(182.166 0 0)
(182.914 0 0)
(183.661 0 0)
(184.409 0 0)
(185.156 0 0)
(185.903 0 0)
(186.65 0 0)
(187.397 0 0)
(188.144 0 0)
(188.89 0 0)
(189.637 0 0)
(190.384 0 0)
(191.13 0 0)
(191.877 0 0)
(192.623 0 0)
(193.369 0 0)
(194.115 0 0)
(194.861 0 0)
(195.607 0 0)
(196.353 0 0)
(197.098 0 0)
(197.844 0 0)
(198.589 0 0)
(199.334 0 0)
(200.079 0 0)
(200.824 0 0)
(201.569 0 0)
(202.313 0 0)
(203.058 0 0)
(203.802 0 0)
(204.546 0 0)
(205.291 0 0)
(206.034 0 0)
(206.778 0 0)
(207.522 0 0)
(208.265 0 0)
(209.008 0 0)
(209.751 0 0)
(210.494 0 0)
(211.237 0 0)
(211.979 0 0)
(212.721 0 0)
(213.463 0 0)
(214.205 0 0)
(214.947 0 0)
(215.688 0 0)
(216.429 0 0)
(217.17 0 0)
(217.911 0 0)
(218.651 0 0)
(219.391 0 0)
(220.131 0 0)
(220.87 0 0)
(221.61 0 0)
(222.349 0 0)
(223.087 0 0)
(223.826 0 0)
(224.564 0 0)
(225.302 0 0)
(226.039 0 0)
(226.776 0 0)
(227.513 0 0)
(228.249 0 0)
(228.985 0 0)
(229.721 0 0)
(230.456 0 0)
(231.19 0 0)
(231.925 0 0)
(232.659 0 0)
(233.392 0 0)
(234.125 0 0)
(234.857 0 0)
(235.589 0 0)
(236.321 0 0)
(237.051 0 0)
(237.782 0 0)
(238.512 0 0)
(239.241 0 0)
(239.969 0 0)
(240.697 0 0)
(241.424 0 0)
(242.151 0 0)
(242.876 0 0)
(243.601 0 0)
(244.326 0 0)
(245.049 0 0)
(245.772 0 0)
(246.494 0 0)
(247.214 0 0)
(247.934 0 0)
(248.653 0 0)
(249.371 0 0)
(250.088 0 0)
(250.804 0 0)
(251.519 0 0)
(252.232 0 0)
(252.945 0 0)
(253.656 0 0)
(254.365 0 0)
(255.074 0 0)
(255.781 0 0)
(256.486 0 0)
(257.19 0 0)
(257.892 0 0)
(258.592 0 0)
(259.291 0 0)
(259.988 0 0)
(260.683 0 0)
(261.375 0 0)
(262.066 0 0)
(262.754 0 0)
(263.44 0 0)
(264.124 0 0)
(264.805 0 0)
(265.483 0 0)
(266.159 0 0)
(266.831 0 0)
(267.501 0 0)
(268.167 0 0)
(268.829 0 0)
(269.489 0 0)
(270.144 0 0)
(270.796 0 0)
(271.443 0 0)
(272.086 0 0)
(272.724 0 0)
(273.358 0 0)
(273.987 0 0)
(274.61 0 0)
(275.228 0 0)
(275.84 0 0)
(276.446 0 0)
(277.046 0 0)
(277.638 0 0)
(278.224 0 0)
(278.803 0 0)
(279.373 0 0)
(279.936 0 0)
(280.49 0 0)
(281.036 0 0)
(281.572 0 0)
(282.098 0 0)
(282.615 0 0)
(283.12 0 0)
(283.615 0 0)
(284.099 0 0)
(284.571 0 0)
(285.03 0 0)
(285.477 0 0)
(285.911 0 0)
(286.331 0 0)
(286.737 0 0)
(287.129 0 0)
(287.506 0 0)
(287.869 0 0)
(288.216 0 0)
(288.547 0 0)
(288.863 0 0)
(289.163 0 0)
(289.447 0 0)
(289.715 0 0)
(289.967 0 0)
(290.204 0 0)
(290.424 0 0)
(290.629 0 0)
(290.818 0 0)
(290.993 0 0)
(291.153 0 0)
(291.299 0 0)
(291.431 0 0)
(291.551 0 0)
(291.658 0 0)
(291.754 0 0)
(291.839 0 0)
(291.914 0 0)
(291.979 0 0)
(292.034 0 0)
(292.082 0 0)
(292.124 0 0)
(292.159 0 0)
(292.188 0 0)
(292.212 0 0)
(292.23 0 0)
(292.244 0 0)
(292.257 0 0)
(292.268 0 0)
(292.275 0 0)
(292.28 0 0)
(292.283 0 0)
(292.284 0 0)
(292.284 0 0)
(292.284 0 0)
(292.285 0 0)
(292.284 0 0)
(292.283 0 0)
(292.282 0 0)
(292.281 0 0)
(292.279 0 0)
(292.278 0 0)
(292.276 0 0)
(292.275 0 0)
(292.274 0 0)
(292.274 0 0)
(292.272 0 0)
(292.269 0 0)
(292.268 0 0)
(292.265 0 0)
(292.262 0 0)
(292.26 0 0)
(292.259 0 0)
(292.256 0 0)
(292.253 0 0)
(292.252 0 0)
(292.251 0 0)
(292.247 0 0)
(292.245 0 0)
(292.244 0 0)
(292.241 0 0)
(292.239 0 0)
(292.238 0 0)
(292.236 0 0)
(292.232 0 0)
(292.23 0 0)
(292.23 0 0)
(292.228 0 0)
(292.225 0 0)
(292.224 0 0)
(292.223 0 0)
(292.221 0 0)
(292.219 0 0)
(292.218 0 0)
(292.217 0 0)
(292.215 0 0)
(292.213 0 0)
(292.213 0 0)
(292.212 0 0)
(292.211 0 0)
(292.209 0 0)
(292.209 0 0)
(292.208 0 0)
(292.207 0 0)
(292.206 0 0)
(292.206 0 0)
(292.205 0 0)
(292.204 0 0)
(292.203 0 0)
(292.203 0 0)
(292.202 0 0)
(292.201 0 0)
(292.201 0 0)
(292.201 0 0)
(292.2 0 0)
(292.2 0 0)
(292.199 0 0)
(292.199 0 0)
(292.198 0 0)
(292.198 0 0)
(292.198 0 0)
(292.197 0 0)
(292.197 0 0)
(292.197 0 0)
(292.197 0 0)
(292.196 0 0)
(292.196 0 0)
(292.196 0 0)
(292.196 0 0)
(292.195 0 0)
(292.195 0 0)
(292.195 0 0)
(292.195 0 0)
(292.195 0 0)
(292.194 0 0)
(292.194 0 0)
(292.194 0 0)
(292.194 0 0)
(292.194 0 0)
(292.194 0 0)
(292.193 0 0)
(292.193 0 0)
(292.193 0 0)
(292.193 0 0)
(292.193 0 0)
(292.193 0 0)
(292.193 0 0)
(292.193 0 0)
(292.192 0 0)
(292.192 0 0)
(292.192 0 0)
(292.192 0 0)
(292.192 0 0)
(292.192 0 0)
(292.192 0 0)
(292.192 0 0)
(292.192 0 0)
(292.192 0 0)
(292.192 0 0)
(292.192 0 0)
(292.192 0 0)
(292.192 0 0)
(292.192 0 0)
(292.192 0 0)
(292.192 0 0)
(292.192 0 0)
(292.192 0 0)
(292.192 0 0)
(292.192 0 0)
(292.192 0 0)
(292.192 0 0)
(292.192 0 0)
(292.192 0 0)
(292.192 0 0)
(292.192 0 0)
(292.192 0 0)
(292.192 0 0)
(292.192 0 0)
(292.192 0 0)
(292.192 0 0)
(292.192 0 0)
(292.192 0 0)
(292.192 0 0)
(292.192 0 0)
(292.192 0 0)
(292.192 0 0)
(292.192 0 0)
(292.192 0 0)
(292.192 0 0)
(292.193 0 0)
(292.192 0 0)
(292.192 0 0)
(292.192 0 0)
(292.193 0 0)
(292.192 0 0)
(292.192 0 0)
(292.193 0 0)
(292.192 0 0)
(292.192 0 0)
(292.192 0 0)
(292.192 0 0)
(292.192 0 0)
(292.192 0 0)
(292.192 0 0)
(292.192 0 0)
(292.192 0 0)
(292.192 0 0)
(292.192 0 0)
(292.192 0 0)
(292.192 0 0)
(292.192 0 0)
(292.193 0 0)
(292.193 0 0)
(292.192 0 0)
(292.192 0 0)
(292.192 0 0)
(292.192 0 0)
(292.192 0 0)
(292.192 0 0)
(292.192 0 0)
(292.192 0 0)
(292.192 0 0)
(292.192 0 0)
(292.192 0 0)
(292.192 0 0)
(292.192 0 0)
(292.192 0 0)
(292.192 0 0)
(292.192 0 0)
(292.192 0 0)
(292.192 0 0)
(292.192 0 0)
(292.192 0 0)
(292.192 0 0)
(292.192 0 0)
(292.193 0 0)
(292.193 0 0)
(292.192 0 0)
(292.193 0 0)
(292.193 0 0)
(292.192 0 0)
(292.193 0 0)
(292.193 0 0)
(292.192 0 0)
(292.192 0 0)
(292.193 0 0)
(292.192 0 0)
(292.192 0 0)
(292.192 0 0)
(292.192 0 0)
(292.192 0 0)
(292.192 0 0)
(292.192 0 0)
(292.192 0 0)
(292.192 0 0)
(292.192 0 0)
(292.192 0 0)
(292.192 0 0)
(292.192 0 0)
(292.192 0 0)
(292.192 0 0)
(292.192 0 0)
(292.192 0 0)
(292.192 0 0)
(292.192 0 0)
(292.192 0 0)
(292.192 0 0)
(292.191 0 0)
(292.191 0 0)
(292.191 0 0)
(292.191 0 0)
(292.191 0 0)
(292.191 0 0)
(292.191 0 0)
(292.191 0 0)
(292.191 0 0)
(292.191 0 0)
(292.191 0 0)
(292.191 0 0)
(292.191 0 0)
(292.191 0 0)
(292.191 0 0)
(292.191 0 0)
(292.191 0 0)
(292.191 0 0)
(292.191 0 0)
(292.191 0 0)
(292.191 0 0)
(292.191 0 0)
(292.191 0 0)
(292.191 0 0)
(292.191 0 0)
(292.191 0 0)
(292.191 0 0)
(292.191 0 0)
(292.191 0 0)
(292.191 0 0)
(292.19 0 0)
(292.19 0 0)
(292.19 0 0)
(292.19 0 0)
(292.19 0 0)
(292.19 0 0)
(292.19 0 0)
(292.19 0 0)
(292.19 0 0)
(292.19 0 0)
(292.189 0 0)
(292.189 0 0)
(292.189 0 0)
(292.189 0 0)
(292.188 0 0)
(292.188 0 0)
(292.188 0 0)
(292.188 0 0)
(292.188 0 0)
(292.189 0 0)
(292.189 0 0)
(292.188 0 0)
(292.187 0 0)
(292.187 0 0)
(292.187 0 0)
(292.186 0 0)
(292.186 0 0)
(292.187 0 0)
(292.187 0 0)
(292.187 0 0)
(292.187 0 0)
(292.188 0 0)
(292.19 0 0)
(292.191 0 0)
(292.19 0 0)
(292.188 0 0)
(292.188 0 0)
(292.189 0 0)
(292.188 0 0)
(292.189 0 0)
(292.188 0 0)
(292.188 0 0)
(292.19 0 0)
(292.191 0 0)
(292.193 0 0)
(292.199 0 0)
(292.21 0 0)
(292.231 0 0)
(292.265 0 0)
(292.345 0 0)
(292.466 0 0)
(292.709 0 0)
(292.685 0 0)
(292.305 0 0)
(292.084 0 0)
(292.036 0 0)
(292.059 0 0)
(292.089 0 0)
(292.115 0 0)
(292.136 0 0)
(292.15 0 0)
(292.158 0 0)
(292.162 0 0)
(292.168 0 0)
(292.179 0 0)
(292.187 0 0)
(292.188 0 0)
(292.185 0 0)
(292.185 0 0)
(292.187 0 0)
(292.189 0 0)
(292.189 0 0)
(292.188 0 0)
(292.187 0 0)
(292.187 0 0)
(292.188 0 0)
(292.188 0 0)
(292.188 0 0)
(292.189 0 0)
(292.189 0 0)
(292.189 0 0)
(292.189 0 0)
(292.189 0 0)
(292.189 0 0)
(292.189 0 0)
(292.189 0 0)
(292.189 0 0)
(292.189 0 0)
(292.189 0 0)
(292.189 0 0)
(292.189 0 0)
(292.19 0 0)
(292.19 0 0)
(292.19 0 0)
(292.19 0 0)
(292.19 0 0)
(292.19 0 0)
(292.19 0 0)
(292.191 0 0)
(292.191 0 0)
(292.191 0 0)
(292.19 0 0)
(292.19 0 0)
(292.189 0 0)
(292.189 0 0)
(292.189 0 0)
(292.189 0 0)
(292.188 0 0)
(292.188 0 0)
(292.188 0 0)
(292.187 0 0)
(292.187 0 0)
(292.186 0 0)
(292.186 0 0)
(292.186 0 0)
(292.185 0 0)
(292.185 0 0)
(292.184 0 0)
(292.184 0 0)
(292.183 0 0)
(292.183 0 0)
(292.183 0 0)
(292.183 0 0)
(292.183 0 0)
(292.183 0 0)
(292.183 0 0)
(292.183 0 0)
(292.183 0 0)
(292.183 0 0)
(292.184 0 0)
(292.184 0 0)
(292.184 0 0)
(292.184 0 0)
(292.185 0 0)
(292.185 0 0)
(292.185 0 0)
(292.185 0 0)
(292.186 0 0)
(292.186 0 0)
(292.186 0 0)
(292.186 0 0)
(292.186 0 0)
(292.186 0 0)
(292.187 0 0)
(292.187 0 0)
(292.187 0 0)
(292.186 0 0)
(292.186 0 0)
(292.186 0 0)
(292.186 0 0)
(292.186 0 0)
(292.186 0 0)
(292.185 0 0)
(292.185 0 0)
(292.184 0 0)
(292.183 0 0)
(292.183 0 0)
(292.183 0 0)
(292.182 0 0)
(292.182 0 0)
(292.181 0 0)
(292.181 0 0)
(292.181 0 0)
(292.181 0 0)
(292.18 0 0)
(292.18 0 0)
(292.18 0 0)
(292.18 0 0)
(292.18 0 0)
(292.179 0 0)
(292.179 0 0)
(292.179 0 0)
(292.179 0 0)
(292.179 0 0)
(292.179 0 0)
(292.179 0 0)
(292.179 0 0)
(292.179 0 0)
(292.179 0 0)
(292.179 0 0)
(292.179 0 0)
(292.179 0 0)
(292.179 0 0)
(292.179 0 0)
(292.179 0 0)
(292.179 0 0)
(292.179 0 0)
(292.179 0 0)
(292.178 0 0)
(292.178 0 0)
(292.177 0 0)
(292.176 0 0)
(292.175 0 0)
(292.172 0 0)
(292.168 0 0)
(292.163 0 0)
(292.157 0 0)
(292.145 0 0)
(292.125 0 0)
(292.097 0 0)
(292.061 0 0)
(292 0 0)
(291.908 0 0)
(291.789 0 0)
(291.637 0 0)
(291.44 0 0)
(291.191 0 0)
(290.888 0 0)
(290.527 0 0)
(290.113 0 0)
(289.651 0 0)
(289.15 0 0)
(288.623 0 0)
(288.085 0 0)
(287.553 0 0)
(287.045 0 0)
(286.575 0 0)
(286.153 0 0)
(285.788 0 0)
(285.482 0 0)
(285.234 0 0)
(285.04 0 0)
(284.894 0 0)
(284.788 0 0)
(284.715 0 0)
(284.666 0 0)
(284.635 0 0)
(284.617 0 0)
(284.607 0 0)
(284.602 0 0)
(284.599 0 0)
(284.597 0 0)
(284.597 0 0)
(284.599 0 0)
(284.599 0 0)
(284.599 0 0)
(284.599 0 0)
)
;

boundaryField
{
    sides
    {
        type            zeroGradient;
    }
    empty
    {
        type            empty;
    }
}


// ************************************************************************* //
