/*--------------------------------*- C++ -*----------------------------------*\
  =========                 |
  \\      /  F ield         | OpenFOAM: The Open Source CFD Toolbox
   \\    /   O peration     | Website:  https://openfoam.org
    \\  /    A nd           | Version:  9
     \\/     M anipulation  |
\*---------------------------------------------------------------------------*/
FoamFile
{
    format      ascii;
    class       volScalarField;
    location    "0.025";
    object      mag(U);
}
// * * * * * * * * * * * * * * * * * * * * * * * * * * * * * * * * * * * * * //

dimensions      [0 1 -1 0 0 0 0];

internalField   nonuniform List<scalar> 
100
(
37.8358
43.4142
49.2864
53.8289
58.4
63.0846
67.7765
72.4542
77.1402
81.8153
86.5078
91.197
95.88
100.58
105.262
109.961
114.65
119.324
124.026
128.715
133.37
138.045
142.738
147.396
152.025
156.67
161.326
165.947
170.534
175.124
179.719
184.28
188.793
193.291
197.778
202.235
206.648
211.002
215.325
219.607
223.826
227.986
232.067
236.077
239.975
243.771
247.515
251.177
254.724
258.163
261.448
264.52
267.398
270.131
272.733
275.176
277.462
279.574
281.48
283.18
284.703
286.074
287.311
288.406
289.345
290.132
290.788
291.342
291.809
292.192
292.494
292.72
292.883
292.993
293.054
293.068
293.047
292.994
292.908
292.797
292.661
292.501
292.333
292.174
292.034
291.912
291.81
291.725
291.658
291.61
291.583
291.566
291.559
291.559
291.558
291.553
291.547
291.542
291.54
291.54
)
;

boundaryField
{
    sides
    {
        type            calculated;
        value           nonuniform List<scalar> 2(291.54 37.8358);
    }
    empty
    {
        type            empty;
    }
}


// ************************************************************************* //
