/*--------------------------------*- C++ -*----------------------------------*\
  =========                 |
  \\      /  F ield         | OpenFOAM: The Open Source CFD Toolbox
   \\    /   O peration     | Website:  https://openfoam.org
    \\  /    A nd           | Version:  9
     \\/     M anipulation  |
\*---------------------------------------------------------------------------*/
FoamFile
{
    format      ascii;
    class       volVectorField;
    location    "0.023";
    object      U;
}
// * * * * * * * * * * * * * * * * * * * * * * * * * * * * * * * * * * * * * //

dimensions      [0 1 -1 0 0 0 0];

internalField   nonuniform List<vector> 
1000
(
(133.992 0 0)
(134.559 0 0)
(134.889 0 0)
(135.248 0 0)
(135.599 0 0)
(135.953 0 0)
(136.305 0 0)
(136.658 0 0)
(137.01 0 0)
(137.362 0 0)
(137.715 0 0)
(138.068 0 0)
(138.421 0 0)
(138.775 0 0)
(139.13 0 0)
(139.484 0 0)
(139.838 0 0)
(140.192 0 0)
(140.545 0 0)
(140.897 0 0)
(141.248 0 0)
(141.6 0 0)
(141.951 0 0)
(142.302 0 0)
(142.654 0 0)
(143.006 0 0)
(143.359 0 0)
(143.712 0 0)
(144.065 0 0)
(144.418 0 0)
(144.772 0 0)
(145.125 0 0)
(145.478 0 0)
(145.831 0 0)
(146.184 0 0)
(146.537 0 0)
(146.89 0 0)
(147.244 0 0)
(147.597 0 0)
(147.951 0 0)
(148.305 0 0)
(148.658 0 0)
(149.011 0 0)
(149.364 0 0)
(149.716 0 0)
(150.067 0 0)
(150.418 0 0)
(150.769 0 0)
(151.121 0 0)
(151.472 0 0)
(151.824 0 0)
(152.176 0 0)
(152.528 0 0)
(152.881 0 0)
(153.233 0 0)
(153.586 0 0)
(153.939 0 0)
(154.292 0 0)
(154.644 0 0)
(154.997 0 0)
(155.351 0 0)
(155.704 0 0)
(156.057 0 0)
(156.41 0 0)
(156.763 0 0)
(157.116 0 0)
(157.469 0 0)
(157.822 0 0)
(158.175 0 0)
(158.527 0 0)
(158.88 0 0)
(159.233 0 0)
(159.586 0 0)
(159.94 0 0)
(160.293 0 0)
(160.646 0 0)
(161 0 0)
(161.353 0 0)
(161.705 0 0)
(162.058 0 0)
(162.41 0 0)
(162.762 0 0)
(163.114 0 0)
(163.466 0 0)
(163.819 0 0)
(164.171 0 0)
(164.524 0 0)
(164.877 0 0)
(165.23 0 0)
(165.583 0 0)
(165.936 0 0)
(166.288 0 0)
(166.64 0 0)
(166.992 0 0)
(167.344 0 0)
(167.696 0 0)
(168.048 0 0)
(168.4 0 0)
(168.753 0 0)
(169.105 0 0)
(169.458 0 0)
(169.811 0 0)
(170.165 0 0)
(170.518 0 0)
(170.871 0 0)
(171.224 0 0)
(171.577 0 0)
(171.93 0 0)
(172.283 0 0)
(172.637 0 0)
(172.99 0 0)
(173.344 0 0)
(173.697 0 0)
(174.051 0 0)
(174.404 0 0)
(174.758 0 0)
(175.111 0 0)
(175.464 0 0)
(175.818 0 0)
(176.171 0 0)
(176.524 0 0)
(176.877 0 0)
(177.23 0 0)
(177.583 0 0)
(177.936 0 0)
(178.288 0 0)
(178.64 0 0)
(178.992 0 0)
(179.345 0 0)
(179.697 0 0)
(180.049 0 0)
(180.402 0 0)
(180.754 0 0)
(181.107 0 0)
(181.461 0 0)
(181.814 0 0)
(182.168 0 0)
(182.522 0 0)
(182.876 0 0)
(183.23 0 0)
(183.583 0 0)
(183.936 0 0)
(184.289 0 0)
(184.642 0 0)
(184.994 0 0)
(185.347 0 0)
(185.699 0 0)
(186.052 0 0)
(186.406 0 0)
(186.759 0 0)
(187.113 0 0)
(187.466 0 0)
(187.819 0 0)
(188.172 0 0)
(188.525 0 0)
(188.878 0 0)
(189.231 0 0)
(189.584 0 0)
(189.937 0 0)
(190.29 0 0)
(190.642 0 0)
(190.995 0 0)
(191.348 0 0)
(191.701 0 0)
(192.054 0 0)
(192.406 0 0)
(192.759 0 0)
(193.112 0 0)
(193.465 0 0)
(193.817 0 0)
(194.17 0 0)
(194.523 0 0)
(194.876 0 0)
(195.228 0 0)
(195.581 0 0)
(195.933 0 0)
(196.286 0 0)
(196.638 0 0)
(196.991 0 0)
(197.343 0 0)
(197.695 0 0)
(198.047 0 0)
(198.398 0 0)
(198.749 0 0)
(199.101 0 0)
(199.452 0 0)
(199.804 0 0)
(200.157 0 0)
(200.51 0 0)
(200.863 0 0)
(201.215 0 0)
(201.566 0 0)
(201.918 0 0)
(202.271 0 0)
(202.624 0 0)
(202.977 0 0)
(203.331 0 0)
(203.684 0 0)
(204.036 0 0)
(204.388 0 0)
(204.741 0 0)
(205.094 0 0)
(205.447 0 0)
(205.801 0 0)
(206.155 0 0)
(206.508 0 0)
(206.86 0 0)
(207.212 0 0)
(207.564 0 0)
(207.917 0 0)
(208.271 0 0)
(208.627 0 0)
(208.982 0 0)
(209.334 0 0)
(209.682 0 0)
(210.028 0 0)
(210.38 0 0)
(210.747 0 0)
(211.122 0 0)
(211.476 0 0)
(211.804 0 0)
(212.124 0 0)
(212.466 0 0)
(212.884 0 0)
(213.316 0 0)
(213.641 0 0)
(213.936 0 0)
(214.229 0 0)
(214.554 0 0)
(215.014 0 0)
(215.496 0 0)
(215.809 0 0)
(216.086 0 0)
(216.363 0 0)
(216.647 0 0)
(217.031 0 0)
(217.585 0 0)
(217.994 0 0)
(218.278 0 0)
(218.531 0 0)
(218.798 0 0)
(219.08 0 0)
(219.486 0 0)
(220.085 0 0)
(220.505 0 0)
(220.785 0 0)
(221.007 0 0)
(221.233 0 0)
(221.508 0 0)
(221.861 0 0)
(222.472 0 0)
(223.045 0 0)
(223.353 0 0)
(223.578 0 0)
(223.719 0 0)
(223.963 0 0)
(224.243 0 0)
(224.679 0 0)
(225.404 0 0)
(225.916 0 0)
(226.201 0 0)
(226.38 0 0)
(226.505 0 0)
(226.766 0 0)
(227.056 0 0)
(227.533 0 0)
(228.256 0 0)
(228.7 0 0)
(228.975 0 0)
(229.156 0 0)
(229.361 0 0)
(229.644 0 0)
(229.998 0 0)
(230.572 0 0)
(231.095 0 0)
(231.405 0 0)
(231.666 0 0)
(231.922 0 0)
(232.214 0 0)
(232.586 0 0)
(233.124 0 0)
(233.543 0 0)
(233.841 0 0)
(234.089 0 0)
(234.337 0 0)
(234.629 0 0)
(235.02 0 0)
(235.637 0 0)
(236.111 0 0)
(236.411 0 0)
(236.62 0 0)
(236.765 0 0)
(237.036 0 0)
(237.361 0 0)
(237.929 0 0)
(238.634 0 0)
(239.005 0 0)
(239.266 0 0)
(239.367 0 0)
(239.534 0 0)
(239.819 0 0)
(240.199 0 0)
(240.868 0 0)
(241.467 0 0)
(241.79 0 0)
(242.018 0 0)
(242.121 0 0)
(242.365 0 0)
(242.671 0 0)
(243.154 0 0)
(243.907 0 0)
(244.373 0 0)
(244.666 0 0)
(244.823 0 0)
(244.857 0 0)
(245.107 0 0)
(245.41 0 0)
(245.877 0 0)
(246.675 0 0)
(247.236 0 0)
(247.553 0 0)
(247.767 0 0)
(247.79 0 0)
(247.985 0 0)
(248.282 0 0)
(248.652 0 0)
(249.317 0 0)
(250.029 0 0)
(250.392 0 0)
(250.671 0 0)
(250.778 0 0)
(250.86 0 0)
(251.137 0 0)
(251.445 0 0)
(251.857 0 0)
(252.61 0 0)
(253.32 0 0)
(253.679 0 0)
(253.967 0 0)
(254.105 0 0)
(254.168 0 0)
(254.436 0 0)
(254.751 0 0)
(255.068 0 0)
(255.524 0 0)
(256.302 0 0)
(256.872 0 0)
(257.203 0 0)
(257.474 0 0)
(257.567 0 0)
(257.679 0 0)
(257.969 0 0)
(258.287 0 0)
(258.624 0 0)
(259.175 0 0)
(259.994 0 0)
(260.465 0 0)
(260.784 0 0)
(261.023 0 0)
(261.032 0 0)
(261.171 0 0)
(261.474 0 0)
(261.794 0 0)
(262.23 0 0)
(262.985 0 0)
(263.582 0 0)
(263.924 0 0)
(264.206 0 0)
(264.31 0 0)
(264.424 0 0)
(264.721 0 0)
(265.046 0 0)
(265.477 0 0)
(266.183 0 0)
(266.693 0 0)
(267.026 0 0)
(267.305 0 0)
(267.468 0 0)
(267.728 0 0)
(268.051 0 0)
(268.408 0 0)
(268.905 0 0)
(269.395 0 0)
(269.741 0 0)
(270.064 0 0)
(270.371 0 0)
(270.695 0 0)
(271.031 0 0)
(271.42 0 0)
(271.839 0 0)
(272.184 0 0)
(272.51 0 0)
(272.794 0 0)
(273.069 0 0)
(273.395 0 0)
(273.737 0 0)
(274.201 0 0)
(274.839 0 0)
(275.25 0 0)
(275.582 0 0)
(275.865 0 0)
(275.972 0 0)
(276.144 0 0)
(276.459 0 0)
(276.793 0 0)
(277.161 0 0)
(277.757 0 0)
(278.566 0 0)
(279.005 0 0)
(279.341 0 0)
(279.636 0 0)
(279.743 0 0)
(279.785 0 0)
(280.07 0 0)
(280.404 0 0)
(280.745 0 0)
(281.167 0 0)
(281.862 0 0)
(282.428 0 0)
(282.784 0 0)
(283.114 0 0)
(283.376 0 0)
(283.462 0 0)
(283.684 0 0)
(284.01 0 0)
(284.348 0 0)
(284.692 0 0)
(285.097 0 0)
(285.766 0 0)
(286.403 0 0)
(286.776 0 0)
(287.116 0 0)
(287.44 0 0)
(287.683 0 0)
(287.74 0 0)
(287.968 0 0)
(288.293 0 0)
(288.627 0 0)
(288.987 0 0)
(289.524 0 0)
(290.189 0 0)
(290.569 0 0)
(290.883 0 0)
(291.149 0 0)
(291.206 0 0)
(291.192 0 0)
(291.421 0 0)
(291.681 0 0)
(291.957 0 0)
(292.381 0 0)
(293.037 0 0)
(293.342 0 0)
(293.516 0 0)
(293.634 0 0)
(293.585 0 0)
(293.369 0 0)
(293.373 0 0)
(293.417 0 0)
(293.47 0 0)
(293.622 0 0)
(293.815 0 0)
(293.846 0 0)
(293.847 0 0)
(293.803 0 0)
(293.679 0 0)
(293.641 0 0)
(293.62 0 0)
(293.618 0 0)
(293.731 0 0)
(293.792 0 0)
(293.773 0 0)
(293.735 0 0)
(293.591 0 0)
(293.155 0 0)
(292.97 0 0)
(292.928 0 0)
(292.912 0 0)
(292.978 0 0)
(293.393 0 0)
(293.75 0 0)
(293.777 0 0)
(293.748 0 0)
(293.667 0 0)
(293.347 0 0)
(292.796 0 0)
(292.668 0 0)
(292.647 0 0)
(292.655 0 0)
(292.766 0 0)
(293.188 0 0)
(293.402 0 0)
(293.458 0 0)
(293.506 0 0)
(293.502 0 0)
(293.265 0 0)
(293.098 0 0)
(293.099 0 0)
(293.117 0 0)
(293.167 0 0)
(293.37 0 0)
(293.526 0 0)
(293.546 0 0)
(293.546 0 0)
(293.513 0 0)
(293.362 0 0)
(293.282 0 0)
(293.273 0 0)
(293.273 0 0)
(293.305 0 0)
(293.406 0 0)
(293.423 0 0)
(293.413 0 0)
(293.394 0 0)
(293.327 0 0)
(293.255 0 0)
(293.23 0 0)
(293.211 0 0)
(293.205 0 0)
(293.237 0 0)
(293.233 0 0)
(293.216 0 0)
(293.198 0 0)
(293.163 0 0)
(293.134 0 0)
(293.13 0 0)
(293.133 0 0)
(293.148 0 0)
(293.185 0 0)
(293.222 0 0)
(293.251 0 0)
(293.27 0 0)
(293.277 0 0)
(293.288 0 0)
(293.301 0 0)
(293.315 0 0)
(293.329 0 0)
(293.337 0 0)
(293.341 0 0)
(293.341 0 0)
(293.339 0 0)
(293.339 0 0)
(293.34 0 0)
(293.343 0 0)
(293.344 0 0)
(293.343 0 0)
(293.34 0 0)
(293.332 0 0)
(293.321 0 0)
(293.308 0 0)
(293.297 0 0)
(293.291 0 0)
(293.284 0 0)
(293.276 0 0)
(293.266 0 0)
(293.25 0 0)
(293.23 0 0)
(293.21 0 0)
(293.194 0 0)
(293.185 0 0)
(293.179 0 0)
(293.176 0 0)
(293.174 0 0)
(293.174 0 0)
(293.177 0 0)
(293.186 0 0)
(293.211 0 0)
(293.244 0 0)
(293.272 0 0)
(293.292 0 0)
(293.306 0 0)
(293.315 0 0)
(293.323 0 0)
(293.332 0 0)
(293.34 0 0)
(293.347 0 0)
(293.352 0 0)
(293.355 0 0)
(293.357 0 0)
(293.358 0 0)
(293.361 0 0)
(293.362 0 0)
(293.36 0 0)
(293.357 0 0)
(293.354 0 0)
(293.351 0 0)
(293.346 0 0)
(293.338 0 0)
(293.327 0 0)
(293.317 0 0)
(293.308 0 0)
(293.3 0 0)
(293.293 0 0)
(293.285 0 0)
(293.272 0 0)
(293.255 0 0)
(293.238 0 0)
(293.226 0 0)
(293.219 0 0)
(293.216 0 0)
(293.216 0 0)
(293.218 0 0)
(293.221 0 0)
(293.231 0 0)
(293.251 0 0)
(293.275 0 0)
(293.299 0 0)
(293.318 0 0)
(293.331 0 0)
(293.34 0 0)
(293.346 0 0)
(293.35 0 0)
(293.355 0 0)
(293.359 0 0)
(293.363 0 0)
(293.366 0 0)
(293.368 0 0)
(293.37 0 0)
(293.37 0 0)
(293.37 0 0)
(293.369 0 0)
(293.365 0 0)
(293.362 0 0)
(293.358 0 0)
(293.354 0 0)
(293.347 0 0)
(293.339 0 0)
(293.328 0 0)
(293.318 0 0)
(293.31 0 0)
(293.302 0 0)
(293.295 0 0)
(293.286 0 0)
(293.272 0 0)
(293.258 0 0)
(293.247 0 0)
(293.241 0 0)
(293.237 0 0)
(293.236 0 0)
(293.236 0 0)
(293.241 0 0)
(293.253 0 0)
(293.269 0 0)
(293.284 0 0)
(293.299 0 0)
(293.313 0 0)
(293.326 0 0)
(293.335 0 0)
(293.342 0 0)
(293.347 0 0)
(293.349 0 0)
(293.351 0 0)
(293.353 0 0)
(293.355 0 0)
(293.357 0 0)
(293.36 0 0)
(293.361 0 0)
(293.361 0 0)
(293.36 0 0)
(293.356 0 0)
(293.351 0 0)
(293.346 0 0)
(293.342 0 0)
(293.338 0 0)
(293.334 0 0)
(293.327 0 0)
(293.318 0 0)
(293.31 0 0)
(293.302 0 0)
(293.295 0 0)
(293.288 0 0)
(293.277 0 0)
(293.265 0 0)
(293.256 0 0)
(293.25 0 0)
(293.247 0 0)
(293.248 0 0)
(293.25 0 0)
(293.259 0 0)
(293.273 0 0)
(293.286 0 0)
(293.295 0 0)
(293.303 0 0)
(293.311 0 0)
(293.321 0 0)
(293.331 0 0)
(293.339 0 0)
(293.343 0 0)
(293.345 0 0)
(293.346 0 0)
(293.346 0 0)
(293.346 0 0)
(293.348 0 0)
(293.35 0 0)
(293.353 0 0)
(293.355 0 0)
(293.354 0 0)
(293.35 0 0)
(293.343 0 0)
(293.337 0 0)
(293.332 0 0)
(293.33 0 0)
(293.328 0 0)
(293.324 0 0)
(293.318 0 0)
(293.308 0 0)
(293.298 0 0)
(293.291 0 0)
(293.285 0 0)
(293.28 0 0)
(293.274 0 0)
(293.267 0 0)
(293.261 0 0)
(293.258 0 0)
(293.257 0 0)
(293.258 0 0)
(293.266 0 0)
(293.283 0 0)
(293.297 0 0)
(293.306 0 0)
(293.312 0 0)
(293.316 0 0)
(293.319 0 0)
(293.325 0 0)
(293.332 0 0)
(293.338 0 0)
(293.342 0 0)
(293.344 0 0)
(293.344 0 0)
(293.343 0 0)
(293.341 0 0)
(293.341 0 0)
(293.342 0 0)
(293.344 0 0)
(293.346 0 0)
(293.346 0 0)
(293.34 0 0)
(293.333 0 0)
(293.327 0 0)
(293.322 0 0)
(293.318 0 0)
(293.317 0 0)
(293.314 0 0)
(293.309 0 0)
(293.298 0 0)
(293.29 0 0)
(293.284 0 0)
(293.279 0 0)
(293.277 0 0)
(293.276 0 0)
(293.273 0 0)
(293.271 0 0)
(293.271 0 0)
(293.272 0 0)
(293.277 0 0)
(293.289 0 0)
(293.304 0 0)
(293.314 0 0)
(293.32 0 0)
(293.323 0 0)
(293.324 0 0)
(293.326 0 0)
(293.328 0 0)
(293.333 0 0)
(293.338 0 0)
(293.341 0 0)
(293.342 0 0)
(293.34 0 0)
(293.338 0 0)
(293.336 0 0)
(293.335 0 0)
(293.337 0 0)
(293.337 0 0)
(293.338 0 0)
(293.336 0 0)
(293.329 0 0)
(293.322 0 0)
(293.317 0 0)
(293.315 0 0)
(293.313 0 0)
(293.312 0 0)
(293.309 0 0)
(293.302 0 0)
(293.29 0 0)
(293.281 0 0)
(293.277 0 0)
(293.276 0 0)
(293.278 0 0)
(293.281 0 0)
(293.285 0 0)
(293.287 0 0)
(293.288 0 0)
(293.29 0 0)
(293.295 0 0)
(293.305 0 0)
(293.315 0 0)
(293.322 0 0)
(293.326 0 0)
(293.327 0 0)
(293.327 0 0)
(293.327 0 0)
(293.328 0 0)
(293.333 0 0)
(293.338 0 0)
(293.341 0 0)
(293.342 0 0)
(293.34 0 0)
(293.335 0 0)
(293.332 0 0)
(293.33 0 0)
(293.328 0 0)
(293.329 0 0)
(293.329 0 0)
(293.325 0 0)
(293.318 0 0)
(293.314 0 0)
(293.312 0 0)
(293.311 0 0)
(293.31 0 0)
(293.309 0 0)
(293.306 0 0)
(293.295 0 0)
(293.282 0 0)
(293.276 0 0)
(293.274 0 0)
(293.276 0 0)
(293.282 0 0)
(293.292 0 0)
(293.299 0 0)
(293.301 0 0)
(293.303 0 0)
(293.304 0 0)
(293.308 0 0)
(293.316 0 0)
(293.324 0 0)
(293.327 0 0)
(293.327 0 0)
(293.325 0 0)
(293.323 0 0)
(293.323 0 0)
(293.325 0 0)
(293.331 0 0)
(293.336 0 0)
(293.339 0 0)
(293.338 0 0)
(293.334 0 0)
(293.328 0 0)
(293.325 0 0)
(293.324 0 0)
(293.325 0 0)
(293.326 0 0)
(293.325 0 0)
(293.322 0 0)
(293.312 0 0)
(293.305 0 0)
(293.303 0 0)
(293.303 0 0)
(293.304 0 0)
(293.304 0 0)
(293.303 0 0)
(293.295 0 0)
(293.287 0 0)
(293.284 0 0)
(293.284 0 0)
(293.289 0 0)
(293.3 0 0)
(293.307 0 0)
(293.309 0 0)
(293.31 0 0)
(293.309 0 0)
(293.309 0 0)
(293.313 0 0)
(293.323 0 0)
(293.33 0 0)
(293.333 0 0)
(293.333 0 0)
(293.328 0 0)
(293.322 0 0)
(293.321 0 0)
(293.323 0 0)
(293.329 0 0)
(293.335 0 0)
(293.336 0 0)
(293.334 0 0)
(293.324 0 0)
(293.315 0 0)
(293.312 0 0)
(293.313 0 0)
(293.318 0 0)
(293.323 0 0)
(293.323 0 0)
(293.319 0 0)
(293.306 0 0)
(293.296 0 0)
(293.292 0 0)
(293.292 0 0)
(293.295 0 0)
(293.297 0 0)
(293.298 0 0)
(293.292 0 0)
(293.286 0 0)
(293.284 0 0)
(293.285 0 0)
(293.296 0 0)
(293.308 0 0)
(293.314 0 0)
(293.317 0 0)
(293.317 0 0)
(293.314 0 0)
(293.307 0 0)
(293.285 0 0)
(293.184 0 0)
(292.737 0 0)
(290.979 0 0)
(288.295 0 0)
(286.748 0 0)
(286.172 0 0)
(285.991 0 0)
(285.931 0 0)
(285.925 0 0)
(285.931 0 0)
(285.937 0 0)
(285.931 0 0)
(285.925 0 0)
(285.921 0 0)
(285.922 0 0)
(285.928 0 0)
(285.929 0 0)
(285.933 0 0)
(285.93 0 0)
(285.927 0 0)
(285.925 0 0)
(285.924 0 0)
(285.931 0 0)
(285.936 0 0)
(285.94 0 0)
(285.943 0 0)
(285.938 0 0)
(285.932 0 0)
(285.928 0 0)
(285.926 0 0)
(285.93 0 0)
(285.939 0 0)
(285.947 0 0)
(285.95 0 0)
(285.948 0 0)
(285.943 0 0)
(285.938 0 0)
(285.938 0 0)
(285.944 0 0)
(285.958 0 0)
(285.968 0 0)
(285.972 0 0)
(285.971 0 0)
(285.965 0 0)
(285.96 0 0)
(285.959 0 0)
(285.965 0 0)
(285.976 0 0)
(285.983 0 0)
(285.986 0 0)
(285.989 0 0)
(285.991 0 0)
(285.991 0 0)
(285.996 0 0)
(286.008 0 0)
(286.016 0 0)
(286.016 0 0)
(286.014 0 0)
(286.006 0 0)
(285.994 0 0)
(285.988 0 0)
(285.987 0 0)
(285.994 0 0)
(286 0 0)
(285.999 0 0)
(285.971 0 0)
(285.827 0 0)
(285.263 0 0)
(283.639 0 0)
(281.788 0 0)
(280.787 0 0)
(280.333 0 0)
(280.15 0 0)
(280.075 0 0)
(280.046 0 0)
(280.038 0 0)
(280.036 0 0)
(280.045 0 0)
(280.051 0 0)
(280.052 0 0)
(280.056 0 0)
(280.051 0 0)
(280.048 0 0)
(280.045 0 0)
(280.042 0 0)
(280.042 0 0)
(280.042 0 0)
(280.042 0 0)
(280.041 0 0)
(280.042 0 0)
)
;

boundaryField
{
    sides
    {
        type            zeroGradient;
    }
    empty
    {
        type            empty;
    }
}


// ************************************************************************* //
