/*--------------------------------*- C++ -*----------------------------------*\
  =========                 |
  \\      /  F ield         | OpenFOAM: The Open Source CFD Toolbox
   \\    /   O peration     | Website:  https://openfoam.org
    \\  /    A nd           | Version:  9
     \\/     M anipulation  |
\*---------------------------------------------------------------------------*/
FoamFile
{
    format      ascii;
    class       volScalarField;
    location    "0.04";
    object      ddt0(rho,e);
}
// * * * * * * * * * * * * * * * * * * * * * * * * * * * * * * * * * * * * * //

dimensions      [1 -1 -3 0 0 0 0];

internalField   nonuniform List<scalar> 
100
(
604895
604565
596986
595754
591523
589852
591341
584945
575420
570937
565883
556671
549631
546937
552335
546611
545453
554781
578124
557735
539803
538219
558643
567439
545648
533444
520420
527184
534375
551008
536170
530272
516410
512936
510153
501282
493166
452865
484942
478299
468528
476761
497316
503215
493242
482263
478678
483853
494790
501814
497870
483783
467391
460626
468653
487134
503477
505408
493506
478806
472070
475597
484082
485859
474042
455421
445658
455722
485281
520317
536779
520024
481964
451708
449719
482330
525551
543680
519070
468600
429037
426955
461686
500472
508306
488847
447441
410529
392665
392240
382035
321966
187307
-377823
565304
2.48394e+06
597632
596481
569666
435104
)
;

boundaryField
{
    sides
    {
        type            calculated;
        value           nonuniform List<scalar> 2(435104 604895);
    }
    empty
    {
        type            empty;
    }
}


// ************************************************************************* //
