/*--------------------------------*- C++ -*----------------------------------*\
  =========                 |
  \\      /  F ield         | OpenFOAM: The Open Source CFD Toolbox
   \\    /   O peration     | Website:  https://openfoam.org
    \\  /    A nd           | Version:  9
     \\/     M anipulation  |
\*---------------------------------------------------------------------------*/
FoamFile
{
    format      ascii;
    class       volScalarField;
    location    "0.04";
    object      ddt0(p);
}
// * * * * * * * * * * * * * * * * * * * * * * * * * * * * * * * * * * * * * //

dimensions      [1 -1 -3 0 0 0 0];

internalField   nonuniform List<scalar> 
100
(
-554530
-552600
-548512
-545969
-543502
-540730
-537768
-534858
-531923
-528770
-525518
-522382
-518942
-515239
-511178
-507921
-504542
-499991
-495939
-492831
-488435
-484899
-482672
-477312
-475846
-474516
-469749
-469182
-466618
-466232
-465594
-464408
-462936
-460711
-450223
-439540
-422499
-391367
-435953
-432740
-429449
-435427
-440643
-441650
-443876
-447028
-447866
-447524
-448602
-450954
-452789
-451706
-448257
-446287
-448907
-456283
-466234
-476004
-482680
-484277
-481473
-476538
-473209
-473099
-476321
-481979
-489113
-496170
-503217
-510237
-517521
-525813
-532268
-536182
-537618
-537537
-538343
-540280
-543030
-544520
-549014
-554270
-561047
-566617
-568663
-567660
-563129
-556849
-541033
-508453
-455268
-353977
-199767
376892
-222471
-3.47001e+06
-791582
-707109
-679575
-550214
)
;

boundaryField
{
    sides
    {
        type            calculated;
        value           nonuniform List<scalar> 2(-550214 -554530);
    }
    empty
    {
        type            empty;
    }
}


// ************************************************************************* //
