/*--------------------------------*- C++ -*----------------------------------*\
  =========                 |
  \\      /  F ield         | OpenFOAM: The Open Source CFD Toolbox
   \\    /   O peration     | Website:  https://openfoam.org
    \\  /    A nd           | Version:  9
     \\/     M anipulation  |
\*---------------------------------------------------------------------------*/
FoamFile
{
    format      ascii;
    class       surfaceScalarField;
    location    "0.04";
    object      ddtCorrDdt0(phi);
}
// * * * * * * * * * * * * * * * * * * * * * * * * * * * * * * * * * * * * * //

dimensions      [1 0 -2 0 0 0 0];

internalField   nonuniform List<scalar> 
99
(
-1022.3
-1183.63
-1343.36
-1502.65
-1661.6
-1823.12
-1983.62
-2139.52
-2295.56
-2454.44
-2610.17
-2764.49
-2926.46
-3091.8
-3262.88
-3418.44
-3581.28
-3794.96
-3940.95
-4086.46
-4246.27
-4397.36
-4596.92
-4737.15
-4850.36
-4992.21
-5140.4
-5264.14
-5447.28
-5578.56
-5764.73
-5918.68
-6293.07
-5840.38
-6320.45
-6697.91
-6082.16
-6731.34
-7229.25
-7171.2
-7204.31
-7349.74
-7451.74
-7509.07
-7613.96
-7750.88
-7890.32
-8060.56
-8266.9
-8470.14
-8617.31
-8687.77
-8743.13
-8873.62
-9120.38
-9449.18
-9786.65
-10059.4
-10225.4
-10292.4
-10297
-10294
-10324.4
-10383.3
-10470.6
-10596.1
-10768.6
-10989.3
-11231.3
-11466.5
-11635.7
-11735
-11773.4
-11809.6
-11871.8
-11984.5
-12076.9
-12081.6
-11981.9
-11854.6
-11806.3
-11866.1
-11967.5
-11949.8
-11725.7
-11293.4
-10654.9
-9760.84
-8367.69
-6037.21
-1935.88
6114.91
22655.5
109284
-249232
-30463.6
-15635
-14931.7
-14337.2
)
;

boundaryField
{
    sides
    {
        type            calculated;
        value           nonuniform List<scalar> 2(-13959.6 860.158);
    }
    empty
    {
        type            empty;
        value           nonuniform List<scalar> 0();
    }
}


// ************************************************************************* //
