/*--------------------------------*- C++ -*----------------------------------*\
  =========                 |
  \\      /  F ield         | OpenFOAM: The Open Source CFD Toolbox
   \\    /   O peration     | Website:  https://openfoam.org
    \\  /    A nd           | Version:  9
     \\/     M anipulation  |
\*---------------------------------------------------------------------------*/
FoamFile
{
    format      ascii;
    class       volScalarField;
    location    "0.04";
    object      p_0;
}
// * * * * * * * * * * * * * * * * * * * * * * * * * * * * * * * * * * * * * //

dimensions      [1 -1 -2 0 0 0 0];

internalField   nonuniform List<scalar> 
100
(
16343.6
16321
16265.3
16208.5
16166.8
16127.8
16088.4
16049.7
16012.4
15976.3
15941.3
15907.8
15875.7
15845.3
15816.4
15789.4
15764.3
15741
15720
15700.6
15684.1
15670
15657.6
15647.3
15639.5
15633.9
15630.1
15628.9
15628.8
15629
15629.5
15630.9
15634.3
15642
15656.1
15683.3
15723
15753.2
15801.3
15852.3
15898.9
15944.8
15990.7
16035.4
16079.6
16124.8
16171.9
16221
16273.3
16329.4
16389.9
16454.1
16521.3
16591.3
16664.9
16743
16826.4
16915.2
17008.9
17106
17205.2
17305.1
17405.6
17507
17609.9
17714.8
17821.8
17930.8
18041.6
18153.9
18267.8
18383.6
18501.4
18620.6
18740.4
18860.1
18979.7
19099.4
19219.3
19339.4
19459.6
19579.9
19700.1
19820.6
19940.8
20060.8
20179.9
20298.7
20415.8
20529.8
20637.4
20735.2
20808.8
20850.7
20825.7
21060.7
21174
21235.6
21300
21389
)
;

boundaryField
{
    sides
    {
        type            zeroGradient;
    }
    empty
    {
        type            empty;
    }
}


// ************************************************************************* //
