/*--------------------------------*- C++ -*----------------------------------*\
  =========                 |
  \\      /  F ield         | OpenFOAM: The Open Source CFD Toolbox
   \\    /   O peration     | Website:  https://openfoam.org
    \\  /    A nd           | Version:  9
     \\/     M anipulation  |
\*---------------------------------------------------------------------------*/
FoamFile
{
    format      ascii;
    class       volScalarField;
    location    "0.04";
    object      T;
}
// * * * * * * * * * * * * * * * * * * * * * * * * * * * * * * * * * * * * * //

dimensions      [0 0 0 1 0 0 0];

internalField   nonuniform List<scalar> 
100
(
206.137
206.024
205.895
205.78
205.692
205.625
205.531
205.432
205.371
205.326
205.277
205.248
205.243
205.239
205.217
205.19
205.175
205.141
205.035
204.934
204.902
204.888
204.847
204.745
204.678
204.671
204.682
204.703
204.699
204.66
204.638
204.641
204.664
204.723
204.79
204.896
205.039
205.126
205.296
205.496
205.684
205.881
206.053
206.19
206.334
206.511
206.711
206.914
207.11
207.3
207.506
207.739
208.004
208.29
208.583
208.872
209.157
209.456
209.793
210.169
210.563
210.949
211.312
211.657
212.01
212.395
212.815
213.248
213.661
214.032
214.369
214.715
215.118
215.577
216.061
216.519
216.908
217.248
217.584
217.978
218.429
218.915
219.369
219.776
220.139
220.519
220.91
221.36
221.806
222.244
222.592
222.892
223.072
223.219
223.093
223.694
224.213
224.466
224.581
225.12
)
;

boundaryField
{
    sides
    {
        type            zeroGradient;
    }
    empty
    {
        type            empty;
    }
}


// ************************************************************************* //
