/*--------------------------------*- C++ -*----------------------------------*\
  =========                 |
  \\      /  F ield         | OpenFOAM: The Open Source CFD Toolbox
   \\    /   O peration     | Website:  https://openfoam.org
    \\  /    A nd           | Version:  9
     \\/     M anipulation  |
\*---------------------------------------------------------------------------*/
FoamFile
{
    format      ascii;
    class       volVectorField;
    location    "0.04";
    object      U_0;
}
// * * * * * * * * * * * * * * * * * * * * * * * * * * * * * * * * * * * * * //

dimensions      [0 1 -1 0 0 0 0];

internalField   nonuniform List<vector> 
100
(
(49.463 0 0)
(51.6527 0 0)
(55.1104 0 0)
(58.094 0 0)
(60.5576 0 0)
(63.0185 0 0)
(65.5263 0 0)
(68.024 0 0)
(70.5105 0 0)
(72.997 0 0)
(75.4738 0 0)
(77.9364 0 0)
(80.3932 0 0)
(82.8446 0 0)
(85.2795 0 0)
(87.6952 0 0)
(90.1036 0 0)
(92.5015 0 0)
(94.8667 0 0)
(97.1933 0 0)
(99.5021 0 0)
(101.806 0 0)
(104.094 0 0)
(106.339 0 0)
(108.547 0 0)
(110.746 0 0)
(112.934 0 0)
(115.105 0 0)
(117.27 0 0)
(119.436 0 0)
(121.608 0 0)
(123.777 0 0)
(125.923 0 0)
(128.011 0 0)
(129.985 0 0)
(131.843 0 0)
(133.613 0 0)
(135.182 0 0)
(136.701 0 0)
(138.337 0 0)
(139.979 0 0)
(141.627 0 0)
(143.297 0 0)
(144.971 0 0)
(146.642 0 0)
(148.315 0 0)
(149.987 0 0)
(151.641 0 0)
(153.267 0 0)
(154.861 0 0)
(156.423 0 0)
(157.949 0 0)
(159.435 0 0)
(160.882 0 0)
(162.298 0 0)
(163.691 0 0)
(165.071 0 0)
(166.437 0 0)
(167.791 0 0)
(169.129 0 0)
(170.441 0 0)
(171.72 0 0)
(172.962 0 0)
(174.174 0 0)
(175.365 0 0)
(176.55 0 0)
(177.739 0 0)
(178.937 0 0)
(180.143 0 0)
(181.35 0 0)
(182.553 0 0)
(183.752 0 0)
(184.954 0 0)
(186.163 0 0)
(187.375 0 0)
(188.584 0 0)
(189.78 0 0)
(190.962 0 0)
(192.132 0 0)
(193.301 0 0)
(194.478 0 0)
(195.675 0 0)
(196.895 0 0)
(198.134 0 0)
(199.383 0 0)
(200.638 0 0)
(201.9 0 0)
(203.175 0 0)
(204.468 0 0)
(205.767 0 0)
(207.063 0 0)
(208.37 0 0)
(209.704 0 0)
(211.071 0 0)
(212.678 0 0)
(214.763 0 0)
(216.967 0 0)
(219.005 0 0)
(220.943 0 0)
(223.27 0 0)
)
;

boundaryField
{
    sides
    {
        type            zeroGradient;
    }
    empty
    {
        type            empty;
    }
}


// ************************************************************************* //
