/*--------------------------------*- C++ -*----------------------------------*\
  =========                 |
  \\      /  F ield         | OpenFOAM: The Open Source CFD Toolbox
   \\    /   O peration     | Website:  https://openfoam.org
    \\  /    A nd           | Version:  9
     \\/     M anipulation  |
\*---------------------------------------------------------------------------*/
FoamFile
{
    format      ascii;
    class       volScalarField;
    location    "0.016";
    object      ddt0(rho);
}
// * * * * * * * * * * * * * * * * * * * * * * * * * * * * * * * * * * * * * //

dimensions      [1 -3 -1 0 0 0 0];

internalField   nonuniform List<scalar> 
10000
(
-72.3628
-72.3587
-72.3723
-72.3843
-72.3901
-72.3916
-72.3932
-72.3939
-72.3936
-72.3936
-72.3936
-72.3937
-72.3937
-72.3937
-72.3938
-72.3938
-72.3938
-72.3939
-72.3939
-72.3939
-72.394
-72.394
-72.394
-72.394
-72.394
-72.394
-72.394
-72.394
-72.394
-72.394
-72.394
-72.394
-72.394
-72.394
-72.394
-72.3939
-72.3939
-72.3939
-72.3939
-72.3938
-72.3938
-72.3938
-72.3937
-72.3937
-72.3937
-72.3936
-72.3936
-72.3935
-72.3935
-72.3934
-72.3933
-72.3933
-72.3932
-72.3931
-72.3931
-72.393
-72.3929
-72.3929
-72.3928
-72.3927
-72.3926
-72.3925
-72.3924
-72.3923
-72.3922
-72.3921
-72.392
-72.3919
-72.3918
-72.3917
-72.3916
-72.3915
-72.3914
-72.3912
-72.3911
-72.391
-72.3909
-72.3907
-72.3906
-72.3904
-72.3903
-72.3902
-72.39
-72.3899
-72.3897
-72.3896
-72.3894
-72.3892
-72.3891
-72.3889
-72.3887
-72.3886
-72.3884
-72.3882
-72.388
-72.3879
-72.3877
-72.3875
-72.3873
-72.3871
-72.3869
-72.3867
-72.3865
-72.3863
-72.3861
-72.3859
-72.3857
-72.3855
-72.3853
-72.385
-72.3848
-72.3846
-72.3844
-72.3841
-72.3839
-72.3837
-72.3834
-72.3832
-72.3829
-72.3827
-72.3824
-72.3822
-72.3819
-72.3817
-72.3814
-72.3812
-72.3809
-72.3806
-72.3803
-72.3801
-72.3798
-72.3795
-72.3792
-72.3789
-72.3787
-72.3784
-72.3781
-72.3778
-72.3775
-72.3772
-72.3769
-72.3766
-72.3762
-72.3759
-72.3756
-72.3753
-72.375
-72.3747
-72.3743
-72.374
-72.3737
-72.3733
-72.373
-72.3726
-72.3723
-72.372
-72.3716
-72.3713
-72.3709
-72.3705
-72.3702
-72.3698
-72.3695
-72.3691
-72.3687
-72.3683
-72.368
-72.3676
-72.3672
-72.3668
-72.3664
-72.366
-72.3656
-72.3652
-72.3648
-72.3644
-72.364
-72.3636
-72.3632
-72.3628
-72.3624
-72.362
-72.3615
-72.3611
-72.3607
-72.3603
-72.3598
-72.3594
-72.359
-72.3585
-72.3581
-72.3576
-72.3572
-72.3567
-72.3563
-72.3558
-72.3553
-72.3549
-72.3544
-72.3539
-72.3535
-72.353
-72.3525
-72.352
-72.3516
-72.3511
-72.3506
-72.3501
-72.3496
-72.3491
-72.3486
-72.3481
-72.3476
-72.3471
-72.3466
-72.346
-72.3455
-72.345
-72.3445
-72.344
-72.3434
-72.3429
-72.3424
-72.3418
-72.3413
-72.3407
-72.3402
-72.3396
-72.3391
-72.3385
-72.338
-72.3374
-72.3368
-72.3363
-72.3357
-72.3351
-72.3346
-72.334
-72.3334
-72.3328
-72.3322
-72.3316
-72.3311
-72.3305
-72.3299
-72.3293
-72.3287
-72.328
-72.3274
-72.3268
-72.3262
-72.3256
-72.325
-72.3243
-72.3237
-72.3231
-72.3225
-72.3218
-72.3212
-72.3205
-72.3199
-72.3192
-72.3186
-72.3179
-72.3173
-72.3166
-72.316
-72.3153
-72.3146
-72.314
-72.3133
-72.3126
-72.3119
-72.3112
-72.3106
-72.3099
-72.3092
-72.3085
-72.3078
-72.3071
-72.3064
-72.3057
-72.305
-72.3043
-72.3035
-72.3028
-72.3021
-72.3014
-72.3007
-72.2999
-72.2992
-72.2985
-72.2977
-72.297
-72.2962
-72.2955
-72.2947
-72.294
-72.2932
-72.2925
-72.2917
-72.2909
-72.2902
-72.2894
-72.2886
-72.2878
-72.2871
-72.2863
-72.2855
-72.2847
-72.2839
-72.2831
-72.2823
-72.2815
-72.2807
-72.2799
-72.2791
-72.2783
-72.2775
-72.2766
-72.2758
-72.275
-72.2742
-72.2733
-72.2725
-72.2717
-72.2708
-72.27
-72.2691
-72.2683
-72.2674
-72.2666
-72.2657
-72.2648
-72.264
-72.2631
-72.2622
-72.2614
-72.2605
-72.2596
-72.2587
-72.2578
-72.2569
-72.2561
-72.2552
-72.2543
-72.2534
-72.2524
-72.2515
-72.2506
-72.2497
-72.2488
-72.2479
-72.247
-72.246
-72.2451
-72.2442
-72.2432
-72.2423
-72.2413
-72.2404
-72.2394
-72.2385
-72.2375
-72.2366
-72.2356
-72.2347
-72.2337
-72.2327
-72.2317
-72.2308
-72.2298
-72.2288
-72.2278
-72.2268
-72.2258
-72.2248
-72.2238
-72.2228
-72.2218
-72.2208
-72.2198
-72.2188
-72.2178
-72.2167
-72.2157
-72.2147
-72.2137
-72.2126
-72.2116
-72.2105
-72.2095
-72.2084
-72.2074
-72.2063
-72.2053
-72.2042
-72.2032
-72.2021
-72.201
-72.1999
-72.1989
-72.1978
-72.1967
-72.1956
-72.1945
-72.1934
-72.1923
-72.1912
-72.1901
-72.189
-72.1879
-72.1868
-72.1857
-72.1846
-72.1834
-72.1823
-72.1812
-72.18
-72.1789
-72.1778
-72.1766
-72.1755
-72.1743
-72.1732
-72.172
-72.1708
-72.1697
-72.1685
-72.1673
-72.1662
-72.165
-72.1638
-72.1626
-72.1614
-72.1603
-72.1591
-72.1579
-72.1567
-72.1555
-72.1542
-72.153
-72.1518
-72.1506
-72.1494
-72.1481
-72.1469
-72.1457
-72.1444
-72.1432
-72.142
-72.1407
-72.1395
-72.1382
-72.137
-72.1357
-72.1344
-72.1332
-72.1319
-72.1306
-72.1293
-72.1281
-72.1268
-72.1255
-72.1242
-72.1229
-72.1216
-72.1203
-72.119
-72.1177
-72.1164
-72.115
-72.1137
-72.1124
-72.1111
-72.1097
-72.1084
-72.1071
-72.1057
-72.1044
-72.103
-72.1017
-72.1003
-72.0989
-72.0976
-72.0962
-72.0948
-72.0934
-72.0921
-72.0907
-72.0893
-72.0879
-72.0865
-72.0851
-72.0837
-72.0823
-72.0809
-72.0795
-72.0781
-72.0766
-72.0752
-72.0738
-72.0723
-72.0709
-72.0695
-72.068
-72.0666
-72.0651
-72.0637
-72.0622
-72.0607
-72.0593
-72.0578
-72.0563
-72.0548
-72.0534
-72.0519
-72.0504
-72.0489
-72.0474
-72.0459
-72.0444
-72.0429
-72.0413
-72.0398
-72.0383
-72.0368
-72.0352
-72.0337
-72.0322
-72.0306
-72.0291
-72.0275
-72.0259
-72.0244
-72.0228
-72.0213
-72.0197
-72.0181
-72.0165
-72.0149
-72.0133
-72.0118
-72.0102
-72.0086
-72.0069
-72.0053
-72.0037
-72.0021
-72.0005
-71.9988
-71.9972
-71.9956
-71.9939
-71.9923
-71.9906
-71.989
-71.9873
-71.9857
-71.984
-71.9823
-71.9806
-71.979
-71.9773
-71.9756
-71.9739
-71.9722
-71.9705
-71.9688
-71.9671
-71.9654
-71.9636
-71.9619
-71.9602
-71.9584
-71.9567
-71.955
-71.9532
-71.9515
-71.9497
-71.9479
-71.9462
-71.9444
-71.9426
-71.9408
-71.9391
-71.9373
-71.9355
-71.9337
-71.9319
-71.9301
-71.9282
-71.9264
-71.9246
-71.9228
-71.9209
-71.9191
-71.9172
-71.9154
-71.9135
-71.9117
-71.9098
-71.9079
-71.9061
-71.9042
-71.9023
-71.9004
-71.8985
-71.8966
-71.8947
-71.8928
-71.8909
-71.889
-71.887
-71.8851
-71.8832
-71.8812
-71.8793
-71.8773
-71.8754
-71.8734
-71.8714
-71.8695
-71.8675
-71.8655
-71.8635
-71.8615
-71.8595
-71.8575
-71.8555
-71.8535
-71.8515
-71.8494
-71.8474
-71.8453
-71.8433
-71.8412
-71.8392
-71.8371
-71.835
-71.833
-71.8309
-71.8288
-71.8267
-71.8246
-71.8225
-71.8204
-71.8183
-71.8162
-71.814
-71.8119
-71.8097
-71.8076
-71.8054
-71.8033
-71.8011
-71.7989
-71.7968
-71.7946
-71.7924
-71.7902
-71.788
-71.7858
-71.7835
-71.7813
-71.7791
-71.7768
-71.7746
-71.7723
-71.7701
-71.7678
-71.7655
-71.7633
-71.761
-71.7587
-71.7564
-71.7541
-71.7518
-71.7494
-71.7471
-71.7448
-71.7424
-71.7401
-71.7377
-71.7354
-71.733
-71.7306
-71.7282
-71.7258
-71.7234
-71.721
-71.7186
-71.7162
-71.7137
-71.7113
-71.7089
-71.7064
-71.7039
-71.7015
-71.699
-71.6965
-71.694
-71.6915
-71.689
-71.6865
-71.6839
-71.6814
-71.6788
-71.6763
-71.6737
-71.6711
-71.6686
-71.666
-71.6634
-71.6608
-71.6581
-71.6555
-71.6529
-71.6502
-71.6476
-71.6449
-71.6423
-71.6396
-71.6369
-71.6342
-71.6315
-71.6287
-71.626
-71.6233
-71.6205
-71.6178
-71.615
-71.6122
-71.6094
-71.6066
-71.6038
-71.601
-71.5982
-71.5953
-71.5925
-71.5896
-71.5867
-71.5838
-71.581
-71.578
-71.5751
-71.5722
-71.5693
-71.5663
-71.5633
-71.5604
-71.5574
-71.5544
-71.5514
-71.5483
-71.5453
-71.5423
-71.5392
-71.5361
-71.533
-71.53
-71.5268
-71.5237
-71.5206
-71.5174
-71.5143
-71.5111
-71.5079
-71.5047
-71.5015
-71.4983
-71.495
-71.4918
-71.4885
-71.4852
-71.4819
-71.4786
-71.4753
-71.472
-71.4686
-71.4652
-71.4619
-71.4585
-71.4551
-71.4516
-71.4482
-71.4447
-71.4412
-71.4378
-71.4343
-71.4307
-71.4272
-71.4236
-71.4201
-71.4165
-71.4129
-71.4093
-71.4056
-71.402
-71.3983
-71.3946
-71.3909
-71.3872
-71.3835
-71.3797
-71.3759
-71.3721
-71.3683
-71.3645
-71.3607
-71.3568
-71.3529
-71.349
-71.3451
-71.3411
-71.3372
-71.3332
-71.3292
-71.3252
-71.3211
-71.3171
-71.313
-71.3089
-71.3048
-71.3007
-71.2965
-71.2923
-71.2881
-71.2839
-71.2796
-71.2754
-71.2711
-71.2668
-71.2624
-71.2581
-71.2537
-71.2493
-71.2449
-71.2405
-71.236
-71.2315
-71.227
-71.2225
-71.2179
-71.2133
-71.2087
-71.2041
-71.1994
-71.1947
-71.19
-71.1853
-71.1806
-71.1758
-71.171
-71.1661
-71.1613
-71.1564
-71.1515
-71.1466
-71.1416
-71.1366
-71.1316
-71.1266
-71.1215
-71.1164
-71.1113
-71.1061
-71.101
-71.0958
-71.0905
-71.0853
-71.08
-71.0747
-71.0693
-71.0639
-71.0585
-71.0531
-71.0476
-71.0421
-71.0366
-71.0311
-71.0255
-71.0199
-71.0142
-71.0085
-71.0028
-70.9971
-70.9913
-70.9855
-70.9797
-70.9738
-70.9679
-70.962
-70.956
-70.95
-70.9439
-70.9379
-70.9318
-70.9256
-70.9195
-70.9132
-70.907
-70.9007
-70.8944
-70.888
-70.8816
-70.8752
-70.8688
-70.8622
-70.8557
-70.8491
-70.8425
-70.8358
-70.8291
-70.8224
-70.8156
-70.8088
-70.8019
-70.795
-70.7881
-70.7811
-70.7741
-70.767
-70.7599
-70.7527
-70.7455
-70.7382
-70.7309
-70.7236
-70.7162
-70.7087
-70.7012
-70.6937
-70.6861
-70.6784
-70.6707
-70.6629
-70.6551
-70.6473
-70.6394
-70.6314
-70.6234
-70.6153
-70.6071
-70.5989
-70.5906
-70.5823
-70.5739
-70.5655
-70.5569
-70.5483
-70.5397
-70.531
-70.5222
-70.5133
-70.5043
-70.4953
-70.4862
-70.4771
-70.4678
-70.4585
-70.4491
-70.4396
-70.43
-70.4203
-70.4105
-70.4007
-70.3907
-70.3807
-70.3705
-70.3603
-70.3499
-70.3395
-70.3289
-70.3182
-70.3074
-70.2965
-70.2855
-70.2743
-70.263
-70.2516
-70.2401
-70.2284
-70.2166
-70.2046
-70.1925
-70.1802
-70.1678
-70.1552
-70.1424
-70.1295
-70.1164
-70.1031
-70.0897
-70.076
-70.0621
-70.0481
-70.0338
-70.0193
-70.0046
-69.9897
-69.9745
-69.9591
-69.9434
-69.9275
-69.9113
-69.8949
-69.8781
-69.8611
-69.8437
-69.8261
-69.8081
-69.7898
-69.7711
-69.7521
-69.7327
-69.713
-69.6928
-69.6722
-69.6512
-69.6298
-69.6079
-69.5856
-69.5627
-69.5394
-69.5155
-69.4911
-69.4662
-69.4406
-69.4145
-69.3877
-69.3603
-69.3322
-69.3034
-69.2739
-69.2436
-69.2125
-69.1807
-69.1479
-69.1143
-69.0798
-69.0443
-69.0079
-68.9704
-68.9318
-68.8921
-68.8512
-68.8092
-68.7658
-68.7211
-68.6751
-68.6276
-68.5785
-68.528
-68.4757
-68.4218
-68.366
-68.3084
-68.2488
-68.1871
-68.1233
-68.0572
-67.9888
-67.9179
-67.8443
-67.7681
-67.689
-67.6068
-67.5215
-67.4329
-67.3409
-67.2451
-67.1455
-67.0419
-66.934
-66.8217
-66.7046
-66.5827
-66.4555
-66.3228
-66.1844
-66.04
-65.8892
-65.7318
-65.5673
-65.3955
-65.216
-65.0284
-64.8323
-64.6273
-64.4131
-64.1892
-63.9552
-63.7107
-63.4552
-63.1883
-62.9095
-62.6185
-62.3148
-61.998
-61.6677
-61.3236
-60.9652
-60.5922
-60.2043
-59.8013
-59.3828
-58.9488
-58.4991
-58.0335
-57.5521
-57.0548
-56.5418
-56.0133
-55.4694
-54.9104
-54.3368
-53.7491
-53.1477
-52.5333
-51.9065
-51.2683
-50.6194
-49.9608
-49.2936
-48.6187
-47.9373
-47.2507
-46.56
-45.8666
-45.1717
-44.4768
-43.7832
-43.0922
-42.4052
-41.7236
-41.0488
-40.3819
-39.7243
-39.0771
-38.4416
-37.8188
-37.2098
-36.6154
-36.0365
-35.474
-34.9284
-34.4005
-33.8906
-33.3991
-32.9264
-32.4728
-32.0382
-31.6227
-31.2264
-30.849
-30.4904
-30.1502
-29.8282
-29.524
-29.2371
-28.967
-28.7132
-28.4751
-28.2521
-28.0436
-27.849
-27.6677
-27.499
-27.3422
-27.1967
-27.0619
-26.9371
-26.8218
-26.7152
-26.6169
-26.5263
-26.4429
-26.3661
-26.2954
-26.2303
-26.1705
-26.1155
-26.065
-26.0184
-25.9756
-25.9361
-25.8997
-25.866
-25.8349
-25.8061
-25.7794
-25.7545
-25.7313
-25.7097
-25.6893
-25.6702
-25.6522
-25.6352
-25.619
-25.6036
-25.5889
-25.5748
-25.5612
-25.5482
-25.5355
-25.5232
-25.5112
-25.4996
-25.4881
-25.477
-25.466
-25.4551
-25.4444
-25.4339
-25.4235
-25.4131
-25.4029
-25.3927
-25.3826
-25.3726
-25.3626
-25.3526
-25.3427
-25.3328
-25.323
-25.3131
-25.3033
-25.2936
-25.2838
-25.274
-25.2643
-25.2545
-25.2448
-25.2351
-25.2254
-25.2157
-25.206
-25.1963
-25.1866
-25.1769
-25.1672
-25.1576
-25.1479
-25.1382
-25.1285
-25.1189
-25.1092
-25.0996
-25.0899
-25.0802
-25.0706
-25.0609
-25.0513
-25.0416
-25.032
-25.0224
-25.0127
-25.0031
-24.9934
-24.9838
-24.9742
-24.9645
-24.9549
-24.9453
-24.9357
-24.926
-24.9164
-24.9068
-24.8972
-24.8876
-24.8779
-24.8683
-24.8587
-24.8491
-24.8395
-24.8299
-24.8203
-24.8107
-24.8011
-24.7915
-24.7819
-24.7723
-24.7627
-24.7531
-24.7435
-24.7339
-24.7244
-24.7148
-24.7052
-24.6956
-24.686
-24.6765
-24.6669
-24.6573
-24.6477
-24.6382
-24.6286
-24.619
-24.6095
-24.5999
-24.5903
-24.5808
-24.5712
-24.5617
-24.5521
-24.5426
-24.533
-24.5235
-24.5139
-24.5044
-24.4949
-24.4853
-24.4758
-24.4662
-24.4567
-24.4472
-24.4376
-24.4281
-24.4186
-24.4091
-24.3995
-24.39
-24.3805
-24.371
-24.3615
-24.3519
-24.3424
-24.3329
-24.3234
-24.3139
-24.3044
-24.2949
-24.2854
-24.2759
-24.2664
-24.2569
-24.2474
-24.2379
-24.2284
-24.2189
-24.2095
-24.2
-24.1905
-24.181
-24.1715
-24.162
-24.1526
-24.1431
-24.1336
-24.1242
-24.1147
-24.1052
-24.0958
-24.0863
-24.0768
-24.0674
-24.0579
-24.0485
-24.039
-24.0295
-24.0201
-24.0106
-24.0012
-23.9918
-23.9823
-23.9729
-23.9634
-23.954
-23.9446
-23.9351
-23.9257
-23.9163
-23.9068
-23.8974
-23.888
-23.8786
-23.8691
-23.8597
-23.8503
-23.8409
-23.8315
-23.822
-23.8126
-23.8032
-23.7938
-23.7844
-23.775
-23.7656
-23.7562
-23.7468
-23.7374
-23.728
-23.7186
-23.7092
-23.6998
-23.6905
-23.6811
-23.6717
-23.6623
-23.6529
-23.6436
-23.6342
-23.6248
-23.6154
-23.6061
-23.5967
-23.5873
-23.578
-23.5686
-23.5592
-23.5499
-23.5405
-23.5312
-23.5218
-23.5124
-23.5031
-23.4937
-23.4844
-23.4751
-23.4657
-23.4564
-23.447
-23.4377
-23.4283
-23.419
-23.4097
-23.4003
-23.391
-23.3817
-23.3724
-23.363
-23.3537
-23.3444
-23.3351
-23.3258
-23.3164
-23.3071
-23.2978
-23.2885
-23.2792
-23.2699
-23.2606
-23.2513
-23.242
-23.2327
-23.2234
-23.2141
-23.2048
-23.1955
-23.1862
-23.1769
-23.1676
-23.1584
-23.1491
-23.1398
-23.1305
-23.1212
-23.112
-23.1027
-23.0934
-23.0841
-23.0749
-23.0656
-23.0563
-23.0471
-23.0378
-23.0286
-23.0193
-23.0101
-23.0008
-22.9915
-22.9823
-22.973
-22.9638
-22.9546
-22.9453
-22.9361
-22.9268
-22.9176
-22.9084
-22.8991
-22.8899
-22.8807
-22.8714
-22.8622
-22.853
-22.8437
-22.8345
-22.8253
-22.8161
-22.8069
-22.7977
-22.7884
-22.7792
-22.77
-22.7608
-22.7516
-22.7424
-22.7332
-22.724
-22.7148
-22.7056
-22.6964
-22.6872
-22.678
-22.6688
-22.6596
-22.6505
-22.6413
-22.6321
-22.6229
-22.6137
-22.6046
-22.5954
-22.5862
-22.577
-22.5679
-22.5587
-22.5495
-22.5404
-22.5312
-22.522
-22.5129
-22.5037
-22.4946
-22.4854
-22.4763
-22.4671
-22.458
-22.4488
-22.4397
-22.4305
-22.4214
-22.4122
-22.4031
-22.394
-22.3848
-22.3757
-22.3666
-22.3574
-22.3483
-22.3392
-22.3301
-22.3209
-22.3118
-22.3027
-22.2936
-22.2845
-22.2753
-22.2662
-22.2571
-22.248
-22.2389
-22.2298
-22.2207
-22.2116
-22.2025
-22.1934
-22.1843
-22.1752
-22.1661
-22.157
-22.1479
-22.1389
-22.1298
-22.1207
-22.1116
-22.1025
-22.0934
-22.0844
-22.0753
-22.0662
-22.0572
-22.0481
-22.039
-22.03
-22.0209
-22.0118
-22.0028
-21.9937
-21.9847
-21.9756
-21.9665
-21.9575
-21.9484
-21.9394
-21.9303
-21.9213
-21.9123
-21.9032
-21.8942
-21.8851
-21.8761
-21.8671
-21.858
-21.849
-21.84
-21.831
-21.8219
-21.8129
-21.8039
-21.7949
-21.7858
-21.7768
-21.7678
-21.7588
-21.7498
-21.7408
-21.7318
-21.7228
-21.7138
-21.7048
-21.6958
-21.6868
-21.6778
-21.6688
-21.6598
-21.6508
-21.6418
-21.6328
-21.6238
-21.6148
-21.6059
-21.5969
-21.5879
-21.5789
-21.5699
-21.561
-21.552
-21.543
-21.5341
-21.5251
-21.5161
-21.5072
-21.4982
-21.4892
-21.4803
-21.4713
-21.4624
-21.4534
-21.4445
-21.4355
-21.4266
-21.4176
-21.4087
-21.3997
-21.3908
-21.3819
-21.3729
-21.364
-21.355
-21.3461
-21.3372
-21.3283
-21.3193
-21.3104
-21.3015
-21.2926
-21.2836
-21.2747
-21.2658
-21.2569
-21.248
-21.2391
-21.2302
-21.2213
-21.2123
-21.2034
-21.1945
-21.1856
-21.1767
-21.1678
-21.159
-21.1501
-21.1412
-21.1323
-21.1234
-21.1145
-21.1056
-21.0967
-21.0879
-21.079
-21.0701
-21.0612
-21.0523
-21.0435
-21.0346
-21.0257
-21.0169
-21.008
-20.9991
-20.9903
-20.9814
-20.9726
-20.9637
-20.9548
-20.946
-20.9371
-20.9283
-20.9194
-20.9106
-20.9017
-20.8929
-20.8841
-20.8752
-20.8664
-20.8576
-20.8487
-20.8399
-20.8311
-20.8222
-20.8134
-20.8046
-20.7957
-20.7869
-20.7781
-20.7693
-20.7605
-20.7517
-20.7428
-20.734
-20.7252
-20.7164
-20.7076
-20.6988
-20.69
-20.6812
-20.6724
-20.6636
-20.6548
-20.646
-20.6372
-20.6284
-20.6196
-20.6109
-20.6021
-20.5933
-20.5845
-20.5757
-20.5669
-20.5582
-20.5494
-20.5406
-20.5318
-20.5231
-20.5143
-20.5055
-20.4968
-20.488
-20.4793
-20.4705
-20.4617
-20.453
-20.4442
-20.4355
-20.4267
-20.418
-20.4092
-20.4005
-20.3917
-20.383
-20.3743
-20.3655
-20.3568
-20.348
-20.3393
-20.3306
-20.3218
-20.3131
-20.3044
-20.2957
-20.2869
-20.2782
-20.2695
-20.2608
-20.2521
-20.2434
-20.2346
-20.2259
-20.2172
-20.2085
-20.1998
-20.1911
-20.1824
-20.1737
-20.165
-20.1563
-20.1476
-20.1389
-20.1302
-20.1215
-20.1128
-20.1042
-20.0955
-20.0868
-20.0781
-20.0694
-20.0607
-20.0521
-20.0434
-20.0347
-20.026
-20.0174
-20.0087
-20
-19.9914
-19.9827
-19.9741
-19.9654
-19.9567
-19.9481
-19.9394
-19.9308
-19.9221
-19.9135
-19.9048
-19.8962
-19.8875
-19.8789
-19.8703
-19.8616
-19.853
-19.8443
-19.8357
-19.8271
-19.8184
-19.8098
-19.8012
-19.7926
-19.7839
-19.7753
-19.7667
-19.7581
-19.7495
-19.7409
-19.7322
-19.7236
-19.715
-19.7064
-19.6978
-19.6892
-19.6806
-19.672
-19.6634
-19.6548
-19.6462
-19.6376
-19.629
-19.6204
-19.6118
-19.6032
-19.5947
-19.5861
-19.5775
-19.5689
-19.5603
-19.5518
-19.5432
-19.5346
-19.526
-19.5175
-19.5089
-19.5003
-19.4918
-19.4832
-19.4746
-19.4661
-19.4575
-19.449
-19.4404
-19.4319
-19.4233
-19.4148
-19.4062
-19.3977
-19.3891
-19.3806
-19.372
-19.3635
-19.355
-19.3464
-19.3379
-19.3294
-19.3208
-19.3123
-19.3038
-19.2952
-19.2867
-19.2782
-19.2697
-19.2612
-19.2526
-19.2441
-19.2356
-19.2271
-19.2186
-19.2101
-19.2016
-19.1931
-19.1846
-19.1761
-19.1676
-19.1591
-19.1506
-19.1421
-19.1336
-19.1251
-19.1166
-19.1081
-19.0996
-19.0911
-19.0826
-19.0742
-19.0657
-19.0572
-19.0487
-19.0402
-19.0318
-19.0233
-19.0148
-19.0064
-18.9979
-18.9894
-18.981
-18.9725
-18.964
-18.9556
-18.9471
-18.9387
-18.9302
-18.9218
-18.9133
-18.9049
-18.8964
-18.888
-18.8795
-18.8711
-18.8627
-18.8542
-18.8458
-18.8374
-18.8289
-18.8205
-18.8121
-18.8036
-18.7952
-18.7868
-18.7784
-18.7699
-18.7615
-18.7531
-18.7447
-18.7363
-18.7279
-18.7195
-18.711
-18.7026
-18.6942
-18.6858
-18.6774
-18.669
-18.6606
-18.6522
-18.6438
-18.6354
-18.627
-18.6187
-18.6103
-18.6019
-18.5935
-18.5851
-18.5767
-18.5683
-18.56
-18.5516
-18.5432
-18.5348
-18.5265
-18.5181
-18.5097
-18.5014
-18.493
-18.4846
-18.4763
-18.4679
-18.4596
-18.4512
-18.4428
-18.4345
-18.4261
-18.4178
-18.4094
-18.4011
-18.3927
-18.3844
-18.3761
-18.3677
-18.3594
-18.351
-18.3427
-18.3344
-18.326
-18.3177
-18.3094
-18.3011
-18.2927
-18.2844
-18.2761
-18.2678
-18.2595
-18.2511
-18.2428
-18.2345
-18.2262
-18.2179
-18.2096
-18.2013
-18.193
-18.1847
-18.1764
-18.1681
-18.1598
-18.1515
-18.1432
-18.1349
-18.1266
-18.1183
-18.11
-18.1017
-18.0934
-18.0852
-18.0769
-18.0686
-18.0603
-18.052
-18.0438
-18.0355
-18.0272
-18.019
-18.0107
-18.0024
-17.9942
-17.9859
-17.9776
-17.9694
-17.9611
-17.9529
-17.9446
-17.9364
-17.9281
-17.9199
-17.9116
-17.9034
-17.8951
-17.8869
-17.8786
-17.8704
-17.8622
-17.8539
-17.8457
-17.8374
-17.8292
-17.821
-17.8128
-17.8045
-17.7963
-17.7881
-17.7799
-17.7716
-17.7634
-17.7552
-17.747
-17.7388
-17.7306
-17.7224
-17.7142
-17.7059
-17.6977
-17.6895
-17.6813
-17.6731
-17.6649
-17.6567
-17.6486
-17.6404
-17.6322
-17.624
-17.6158
-17.6076
-17.5994
-17.5912
-17.5831
-17.5749
-17.5667
-17.5585
-17.5503
-17.5422
-17.534
-17.5258
-17.5177
-17.5095
-17.5013
-17.4932
-17.485
-17.4768
-17.4687
-17.4605
-17.4524
-17.4442
-17.4361
-17.4279
-17.4198
-17.4116
-17.4035
-17.3953
-17.3872
-17.3791
-17.3709
-17.3628
-17.3546
-17.3465
-17.3384
-17.3303
-17.3221
-17.314
-17.3059
-17.2977
-17.2896
-17.2815
-17.2734
-17.2653
-17.2572
-17.249
-17.2409
-17.2328
-17.2247
-17.2166
-17.2085
-17.2004
-17.1923
-17.1842
-17.1761
-17.168
-17.1599
-17.1518
-17.1437
-17.1356
-17.1275
-17.1195
-17.1114
-17.1033
-17.0952
-17.0871
-17.079
-17.071
-17.0629
-17.0548
-17.0467
-17.0387
-17.0306
-17.0225
-17.0145
-17.0064
-16.9983
-16.9903
-16.9822
-16.9742
-16.9661
-16.9581
-16.95
-16.9419
-16.9339
-16.9259
-16.9178
-16.9098
-16.9017
-16.8937
-16.8856
-16.8776
-16.8696
-16.8615
-16.8535
-16.8455
-16.8374
-16.8294
-16.8214
-16.8134
-16.8053
-16.7973
-16.7893
-16.7813
-16.7733
-16.7652
-16.7572
-16.7492
-16.7412
-16.7332
-16.7252
-16.7172
-16.7092
-16.7012
-16.6932
-16.6852
-16.6772
-16.6692
-16.6612
-16.6532
-16.6452
-16.6372
-16.6292
-16.6213
-16.6133
-16.6053
-16.5973
-16.5893
-16.5814
-16.5734
-16.5654
-16.5574
-16.5495
-16.5415
-16.5335
-16.5256
-16.5176
-16.5096
-16.5017
-16.4937
-16.4858
-16.4778
-16.4698
-16.4619
-16.454
-16.446
-16.4381
-16.4301
-16.4222
-16.4141
-16.4064
-16.3982
-16.3906
-16.3822
-16.3748
-16.3662
-16.3591
-16.3501
-16.3436
-16.3338
-16.3283
-16.3173
-16.3133
-16.3004
-16.2987
-16.283
-16.2848
-16.2649
-16.2717
-16.2459
-16.2596
-16.2256
-16.2489
-16.204
-16.2397
-16.1809
-16.232
-16.1563
-16.2256
-16.1307
-16.2198
-16.1049
-16.2136
-16.0805
-16.2051
-16.0594
-16.192
-16.0442
-16.1717
-16.0377
-16.1414
-16.0422
-16.0993
-16.0592
-16.0447
-16.0833
-15.9905
-16.1087
-15.9305
-16.1377
-15.8717
-16.1603
-15.8255
-16.1656
-15.8012
-16.1441
-15.8065
-16.091
-15.844
-16.0078
-15.9079
-15.9047
-15.9829
-15.8006
-16.047
-15.7194
-16.0768
-15.6831
-16.0542
-15.7032
-15.9753
-15.7744
-15.8552
-15.8725
-15.7263
-15.9594
-15.6291
-15.9957
-15.5974
-15.9571
-15.6426
-15.8477
-15.7446
-15.7029
-15.8557
-15.578
-15.9187
-15.5247
-15.894
-15.5652
-15.7813
-15.6762
-15.6256
-15.7957
-15.4984
-15.8522
-15.4614
-15.8034
-15.53
-15.6643
-15.6595
-15.5039
-15.766
-15.4088
-15.774
-15.4303
-15.6661
-15.5479
-15.4987
-15.677
-15.3712
-15.7206
-15.3607
-15.6359
-15.4664
-15.469
-15.6042
-15.3277
-15.6624
-15.3055
-15.5845
-15.4098
-15.4157
-15.5501
-15.2742
-15.6042
-15.2607
-15.5149
-15.3754
-15.341
-15.5118
-15.2143
-15.5417
-15.2301
-15.4251
-15.3625
-15.2497
-15.4812
-15.1583
-15.465
-15.2206
-15.3138
-15.3653
-15.154
-15.4417
-15.1229
-15.3615
-15.2361
-15.1873
-15.3676
-15.0764
-15.3705
-15.125
-15.2262
-15.2679
-15.0673
-15.3407
-15.0442
-15.2504
-15.165
-15.0771
-15.283
-14.9924
-15.2523
-15.0725
-15.0901
-15.2107
-14.9616
-15.2331
-14.9957
-15.0966
-15.1351
-14.9422
-15.1987
-14.9335
-15.0932
-15.0624
-14.9271
-15.1546
-14.8834
-15.0791
-14.9964
-14.9111
-15.106
-14.8417
-15.0553
-14.9388
-14.8903
-15.0577
-14.8041
-15.0248
-14.8885
-14.8641
-15.0114
-14.7686
-14.989
-14.8449
-14.8321
-14.9681
-14.734
-14.9489
-14.8077
-14.7941
-14.9286
-14.6992
-14.9058
-14.7756
-14.7513
-14.8917
-14.6651
-14.8589
-14.7486
-14.7043
-14.8564
-14.6329
-14.8078
-14.7265
-14.654
-14.8214
-14.6035
-14.7522
-14.7083
-14.6028
-14.7839
-14.5793
-14.6915
-14.6928
-14.5529
-14.7415
-14.5615
-14.6261
-14.6778
-14.5075
-14.6916
-14.5507
-14.558
-14.6595
-14.4706
-14.6321
-14.5461
-14.4907
-14.6333
-14.4452
-14.5628
-14.5444
-14.4294
-14.5948
-14.4329
-14.4867
-14.5396
-14.3807
-14.5401
-14.4325
-14.4094
-14.5241
-14.3498
-14.4695
-14.438
-14.3401
-14.4902
-14.3387
-14.388
-14.4391
-14.289
-14.4333
-14.3438
-14.3064
-14.4238
-14.2631
-14.3559
-14.3536
-14.2392
-14.3821
-14.2617
-14.2693
-14.3515
-14.1994
-14.312
-14.2742
-14.1916
-14.322
-14.1909
-14.2243
-14.2805
-14.1415
-14.2588
-14.2035
-14.1407
-14.259
-14.1278
-14.1713
-14.214
-14.0852
-14.1993
-14.1405
-14.085
-14.1958
-14.0699
-14.1114
-14.1525
-14.0289
-14.1354
-14.084
-14.025
-14.1325
-14.0167
-14.0456
-14.095
-13.9732
-14.0672
-14.0331
-13.962
-14.0681
-13.9681
-13.9751
-14.0394
-13.9199
-13.9942
-13.9864
-13.8987
-14.0003
-13.9246
-13.9018
-13.9826
-13.8715
-13.9163
-13.9411
-13.839
-13.9266
-13.8857
-13.8291
-13.9203
-13.8302
-13.8353
-13.8929
-13.787
-13.8456
-13.8483
-13.7624
-13.8485
-13.7957
-13.7555
-13.8359
-13.746
-13.7597
-13.8062
-13.7078
-13.7656
-13.7635
-13.6848
-13.7646
-13.7149
-13.6761
-13.751
-13.6687
-13.6764
-13.7237
-13.6315
-13.6786
-13.6854
-13.6061
-13.6764
-13.6413
-13.5924
-13.6651
-13.5975
-13.5872
-13.643
-13.559
-13.5856
-13.6113
-13.5289
-13.583
-13.5729
-13.5083
-13.575
-13.5321
-13.4958
-13.5595
-13.4928
-13.4887
-13.536
-13.4581
-13.4837
-13.5056
-13.4299
-13.4775
-13.4705
-13.4085
-13.4675
-13.4335
-13.3931
-13.4523
-13.3969
-13.3821
-13.4313
-13.3632
-13.3733
-13.4051
-13.3337
-13.3645
-13.375
-13.3088
-13.3542
-13.3422
-13.2884
-13.341
-13.3086
-13.2719
-13.3241
-13.2757
-13.258
-13.3036
-13.2445
-13.2458
-13.2796
-13.2159
-13.2339
-13.2528
-13.1901
-13.2213
-13.2243
-13.1671
-13.2074
-13.1945
-13.1468
-13.1916
-13.1644
-13.1286
-13.1736
-13.1349
-13.1118
-13.1537
-13.1062
-13.0962
-13.1317
-13.0788
-13.0809
-13.1082
-13.0528
-13.0655
-13.0835
-13.0283
-13.0498
-13.0577
-13.0053
-13.0334
-13.0315
-12.9834
-13.0161
-13.0051
-12.9626
-12.998
-12.9787
-12.9427
-12.9789
-12.9526
-12.9234
-12.959
-12.9269
-12.9045
-12.9384
-12.9015
-12.8858
-12.917
-12.8769
-12.8672
-12.8951
-12.8527
-12.8485
-12.8729
-12.829
-12.8298
-12.8502
-12.8059
-12.8108
-12.8275
-12.7831
-12.7916
-12.8047
-12.7607
-12.7721
-12.7817
-12.7387
-12.7523
-12.7589
-12.7168
-12.7323
-12.7361
-12.6952
-12.7121
-12.7133
-12.6738
-12.6916
-12.6908
-12.6525
-12.6709
-12.6684
-12.6313
-12.65
-12.6461
-12.6101
-12.6289
-12.6241
-12.5889
-12.6078
-12.6021
-12.5679
-12.5864
-12.5804
-12.5468
-12.5648
-12.5588
-12.5257
-12.5433
-12.5372
-12.5047
-12.5215
-12.516
-12.4837
-12.4997
-12.4947
-12.4626
-12.4778
-12.4736
-12.4417
-12.4557
-12.4527
-12.4207
-12.4336
-12.4317
-12.3999
-12.4113
-12.4108
-12.3792
-12.389
-12.3901
-12.3584
-12.3666
-12.3692
-12.338
-12.3441
-12.3484
-12.3175
-12.3215
-12.3275
-12.2972
-12.299
-12.3065
-12.2772
-12.2763
-12.2855
-12.2572
-12.2537
-12.2642
-12.2374
-12.2312
-12.2428
-12.2179
-12.2086
-12.2213
-12.1984
-12.1863
-12.1993
-12.1791
-12.1641
-12.1772
-12.1599
-12.1421
-12.1549
-12.1405
-12.1206
-12.1321
-12.1214
-12.0992
-12.1093
-12.102
-12.0783
-12.0863
-12.0824
-12.0579
-12.0629
-12.0627
-12.0377
-12.0398
-12.0425
-12.0181
-12.0166
-12.0219
-11.9989
-11.9933
-12.001
-11.9798
-11.9706
-11.9793
-11.9611
-11.9481
-11.9572
-11.9426
-11.926
-11.9348
-11.9237
-11.9048
-11.9116
-11.905
-11.8839
-11.8884
-11.8857
-11.8638
-11.8651
-11.8658
-11.8444
-11.8415
-11.8456
-11.8253
-11.8185
-11.8244
-11.8068
-11.7958
-11.8025
-11.7885
-11.7736
-11.7802
-11.7699
-11.7525
-11.757
-11.7513
-11.7319
-11.7337
-11.732
-11.7121
-11.7104
-11.7119
-11.6933
-11.687
-11.6912
-11.6747
-11.6644
-11.6695
-11.6564
-11.6424
-11.6469
-11.6382
-11.6212
-11.624
-11.6193
-11.6012
-11.6005
-11.5999
-11.5819
-11.5772
-11.5795
-11.5632
-11.5545
-11.558
-11.5452
-11.5322
-11.5359
-11.5269
-11.5112
-11.5129
-11.5081
-11.4913
-11.4894
-11.4888
-11.472
-11.4665
-11.4681
-11.4538
-11.4438
-11.4466
-11.4356
-11.4221
-11.4241
-11.4171
-11.4017
-11.4009
-11.3983
-11.3821
-11.3779
-11.3781
-11.3636
-11.3551
-11.3569
-11.3455
-11.3332
-11.3348
-11.3271
-11.3127
-11.3117
-11.3084
-11.2931
-11.2887
-11.2884
-11.2745
-11.2662
-11.2671
-11.2565
-11.2443
-11.2451
-11.238
-11.224
-11.2221
-11.219
-11.2047
-11.1992
-11.1989
-11.1861
-11.177
-11.1774
-11.1682
-11.1556
-11.1551
-11.1496
-11.1357
-11.1323
-11.1301
-11.117
-11.1096
-11.1095
-11.0986
-11.088
-11.0875
-11.0805
-11.0674
-11.065
-11.0614
-11.0482
-11.0423
-11.0411
-11.03
-11.0202
-11.0198
-11.0116
-10.9996
-10.9973
-10.993
-10.9801
-10.9747
-10.9731
-10.9615
-10.9528
-10.9517
-10.9435
-10.9317
-10.9297
-10.9247
-10.9123
-10.9071
-10.9049
-10.8938
-10.8851
-10.8839
-10.8755
-10.8644
-10.8616
-10.8569
-10.8447
-10.8394
-10.837
-10.8263
-10.8175
-10.8158
-10.8081
-10.7968
-10.7938
-10.7891
-10.7777
-10.7714
-10.7693
-10.7592
-10.75
-10.7478
-10.7409
-10.7298
-10.7257
-10.7219
-10.7106
-10.7038
-10.7013
-10.6925
-10.6825
-10.6799
-10.6739
-10.6628
-10.6578
-10.6543
-10.6443
-10.636
-10.6337
-10.6258
-10.6156
-10.6117
-10.6071
-10.5963
-10.5899
-10.587
-10.5779
-10.5688
-10.5656
-10.5595
-10.5488
-10.5439
-10.5399
-10.5303
-10.5222
-10.5193
-10.5118
-10.5019
-10.4977
-10.4929
-10.4828
-10.4759
-10.4729
-10.4643
-10.4552
-10.4514
-10.4458
-10.4356
-10.4298
-10.4261
-10.417
-10.4087
-10.4051
-10.3987
-10.3886
-10.3837
-10.3792
-10.3701
-10.3622
-10.3588
-10.3516
-10.3421
-10.3374
-10.3325
-10.3231
-10.3159
-10.3124
-10.3046
-10.2956
-10.291
-10.2859
-10.2763
-10.2697
-10.2659
-10.2579
-10.2492
-10.2448
-10.2393
-10.2297
-10.2236
-10.2193
-10.2114
-10.2028
-10.1986
-10.1926
-10.1834
-10.1773
-10.173
-10.1649
-10.1565
-10.1523
-10.1461
-10.1372
-10.131
-10.1267
-10.1185
-10.1104
-10.106
-10.0999
-10.0909
-10.0848
-10.0804
-10.0722
-10.0643
-10.0597
-10.0538
-10.0447
-10.0387
-10.0341
-10.0262
-10.0182
-10.0135
-10.0076
-9.99875
-9.99261
-9.9879
-9.98033
-9.97208
-9.96743
-9.96148
-9.95296
-9.94641
-9.94187
-9.93439
-9.9262
-9.92126
-9.91552
-9.90719
-9.90032
-9.89587
-9.88853
-9.88045
-9.87505
-9.86973
-9.86141
-9.85443
-9.84977
-9.84288
-9.8347
-9.82899
-9.82392
-9.81577
-9.80863
-9.80367
-9.79735
-9.78897
-9.78309
-9.77802
-9.77035
-9.76281
-9.75772
-9.75177
-9.74345
-9.73722
-9.73214
-9.72503
-9.71708
-9.71187
-9.70611
-9.69817
-9.69133
-9.68639
-9.67965
-9.6716
-9.66598
-9.66052
-9.65296
-9.64559
-9.64065
-9.63424
-9.62637
-9.62008
-9.61501
-9.60773
-9.60014
-9.59481
-9.58893
-9.5812
-9.57437
-9.56942
-9.56254
-9.5549
-9.54897
-9.54366
-9.53607
-9.52894
-9.52368
-9.51749
-9.50975
-9.50333
-9.49822
-9.49109
-9.48369
-9.47795
-9.4724
-9.46471
-9.45793
-9.45261
-9.44624
-9.43855
-9.43242
-9.4271
-9.4199
-9.41268
-9.40704
-9.4013
-9.39362
-9.38707
-9.38165
-9.37521
-9.36758
-9.36163
-9.35613
-9.34897
-9.34183
-9.33624
-9.33037
-9.32279
-9.31632
-9.31083
-9.30439
-9.29683
-9.29093
-9.28531
-9.27827
-9.27115
-9.26557
-9.25963
-9.25219
-9.24569
-9.24016
-9.23377
-9.22628
-9.22035
-9.21467
-9.20779
-9.20062
-9.19502
-9.18907
-9.18181
-9.17519
-9.16965
-9.16334
-9.15594
-9.14989
-9.14421
-9.13751
-9.13028
-9.12461
-9.11869
-9.11164
-9.10484
-9.09929
-9.09309
-9.08582
-9.07955
-9.07391
-9.0674
-9.06015
-9.05432
-9.04848
-9.04166
-9.03468
-9.02906
-9.023
-9.01591
-9.00938
-9.00376
-8.99746
-8.99025
-8.98417
-8.97842
-8.97185
-8.96475
-8.95897
-8.95305
-8.94621
-8.93941
-8.93375
-8.92765
-8.92059
-8.9142
-8.90849
-8.9022
-8.89507
-8.88903
-8.88322
-8.87669