/*--------------------------------*- C++ -*----------------------------------*\
  =========                 |
  \\      /  F ield         | OpenFOAM: The Open Source CFD Toolbox
   \\    /   O peration     | Website:  https://openfoam.org
    \\  /    A nd           | Version:  9
     \\/     M anipulation  |
\*---------------------------------------------------------------------------*/
FoamFile
{
    format      ascii;
    class       volScalarField;
    location    "0.016";
    object      ddt0(rho,K);
}
// * * * * * * * * * * * * * * * * * * * * * * * * * * * * * * * * * * * * * //

dimensions      [1 -1 -3 0 0 0 0];

internalField   nonuniform List<scalar> 
10000
(
230.351
240.239
255.484
250.297
257.427
259.431
257.358
254.43
250.164
243.835
235.538
225.44
213.528
199.771
184.168
166.725
147.443
126.319
103.354
78.5501
51.9053
23.4195
-6.90599
-39.0722
-73.0805
-108.929
-146.617
-186.146
-227.517
-270.73
-315.783
-362.675
-411.408
-461.982
-514.398
-568.655
-624.753
-682.693
-742.473
-804.094
-867.556
-932.859
-1000
-1068.99
-1139.81
-1212.48
-1286.99
-1363.34
-1441.53
-1521.56
-1603.44
-1687.15
-1772.71
-1860.11
-1949.35
-2040.43
-2133.35
-2228.11
-2324.71
-2423.16
-2523.45
-2625.58
-2729.55
-2835.36
-2943.01
-3052.5
-3163.84
-3277.02
-3392.03
-3508.89
-3627.6
-3748.14
-3870.52
-3994.75
-4120.82
-4248.72
-4378.48
-4510.07
-4643.5
-4778.78
-4915.89
-5054.85
-5195.65
-5338.29
-5482.78
-5629.1
-5777.27
-5927.27
-6079.12
-6232.81
-6388.35
-6545.72
-6704.94
-6865.99
-7028.89
-7193.63
-7360.21
-7528.64
-7698.9
-7871.01
-8044.96
-8220.75
-8398.38
-8577.85
-8759.17
-8942.32
-9127.32
-9314.16
-9502.84
-9693.36
-9885.73
-10079.9
-10276
-10473.9
-10673.6
-10875.2
-11078.6
-11283.8
-11490.9
-11699.9
-11910.6
-12123.3
-12337.7
-12554
-12772.2
-12992.2
-13214
-13437.7
-13663.2
-13890.5
-14119.7
-14350.7
-14583.6
-14818.3
-15054.9
-15293.3
-15533.5
-15775.6
-16019.5
-16265.3
-16512.9
-16762.3
-17013.6
-17266.8
-17521.7
-17778.5
-18037.2
-18297.7
-18560
-18824.2
-19090.2
-19358.1
-19627.8
-19899.3
-20172.7
-20447.9
-20725
-21003.9
-21284.6
-21567.2
-21851.6
-22137.9
-22426
-22715.9
-23007.7
-23301.3
-23596.8
-23894.1
-24193.3
-24494.2
-24797.1
-25101.7
-25408.3
-25716.6
-26026.8
-26338.8
-26652.7
-26968.4
-27286
-27605.3
-27926.6
-28249.6
-28574.6
-28901.3
-29229.9
-29560.3
-29892.6
-30226.7
-30562.7
-30900.5
-31240.1
-31581.6
-31924.9
-32270
-32617
-32965.8
-33316.5
-33669
-34023.3
-34379.5
-34737.6
-35097.4
-35459.1
-35822.7
-36188
-36555.3
-36924.3
-37295.2
-37668
-38042.5
-38418.9
-38797.2
-39177.3
-39559.2
-39943
-40328.6
-40716
-41105.3
-41496.4
-41889.4
-42284.2
-42680.8
-43079.3
-43479.6
-43881.8
-44285.8
-44691.6
-45099.3
-45508.8
-45920.1
-46333.3
-46748.3
-47165.2
-47583.8
-48004.4
-48426.7
-48850.9
-49277
-49704.9
-50134.6
-50566.1
-50999.5
-51434.7
-51871.8
-52310.7
-52751.4
-53194
-53638.4
-54084.7
-54532.7
-54982.7
-55434.4
-55888
-56343.4
-56800.7
-57259.8
-57720.7
-58183.5
-58648.1
-59114.6
-59582.8
-60052.9
-60524.9
-60998.7
-61474.3
-61951.7
-62431
-62912.2
-63395.1
-63879.9
-64366.5
-64855
-65345.3
-65837.4
-66331.4
-66827.2
-67324.9
-67824.3
-68325.6
-68828.8
-69333.7
-69840.5
-70349.2
-70859.7
-71372
-71886.1
-72402.1
-72919.9
-73439.5
-73961
-74484.3
-75009.5
-75536.4
-76065.2
-76595.9
-77128.3
-77662.6
-78198.8
-78736.8
-79276.6
-79818.2
-80361.6
-80906.9
-81454.1
-82003
-82553.8
-83106.4
-83660.9
-84217.2
-84775.3
-85335.2
-85897
-86460.6
-87026.1
-87593.3
-88162.4
-88733.4
-89306.1
-89880.7
-90457.1
-91035.4
-91615.5
-92197.4
-92781.1
-93366.7
-93954.1
-94543.3
-95134.4
-95727.2
-96322
-96918.5
-97516.9
-98117.1
-98719.1
-99322.9
-99928.6
-100536
-101145
-101757
-102370
-102984
-103601
-104220
-104840
-105462
-106086
-106712
-107339
-107969
-108600
-109233
-109868
-110505
-111143
-111784
-112426
-113070
-113716
-114364
-115013
-115664
-116318
-116972
-117629
-118288
-118948
-119611
-120275
-120941
-121608
-122278
-122949
-123623
-124298
-124975
-125653
-126334
-127016
-127700
-128386
-129074
-129764
-130455
-131148
-131843
-132540
-133239
-133939
-134642
-135346
-136052
-136760
-137469
-138181
-138894
-139609
-140326
-141045
-141765
-142488
-143212
-143938
-144666
-145395
-146127
-146860
-147595
-148332
-149071
-149811
-150554
-151298
-152044
-152791
-153541
-154292
-155046
-155801
-156558
-157316
-158077
-158839
-159603
-160369
-161137
-161906
-162678
-163451
-164226
-165003
-165781
-166562
-167344
-168128
-168914
-169701
-170491
-171282
-172075
-172870
-173667
-174465
-175266
-176068
-176872
-177677
-178485
-179294
-180105
-180918
-181733
-182550
-183368
-184188
-185010
-185834
-186660
-187487
-188316
-189147
-189980
-190815
-191651
-192489
-193329
-194171
-195015
-195860
-196707
-197556
-198407
-199260
-200114
-200970
-201828
-202688
-203550
-204413
-205279
-206146
-207014
-207885
-208757
-209631
-210507
-211385
-212265
-213146
-214029
-214914
-215801
-216690
-217580
-218472
-219366
-220262
-221159
-222059
-222960
-223862
-224767
-225674
-226582
-227492
-228404
-229317
-230233
-231150
-232069
-232990
-233912
-234836
-235763
-236690
-237620
-238552
-239485
-240420
-241357
-242295
-243236
-244178
-245122
-246067
-247015
-247964
-248915
-249868
-250823
-251779
-252737
-253697
-254659
-255622
-256588
-257555
-258524
-259494
-260467
-261441
-262417
-263394
-264374
-265355
-266338
-267323
-268309
-269297
-270288
-271279
-272273
-273268
-274265
-275264
-276265
-277267
-278272
-279278
-280285
-281295
-282306
-283319
-284334
-285350
-286368
-287389
-288410
-289434
-290459
-291486
-292515
-293546
-294578
-295612
-296648
-297685
-298725
-299766
-300809
-301853
-302899
-303948
-304997
-306049
-307102
-308157
-309214
-310273
-311333
-312395
-313459
-314524
-315591
-316660
-317731
-318804
-319878
-320954
-322031
-323111
-324192
-325275
-326359
-327446
-328534
-329623
-330715
-331808
-332903
-334000
-335098
-336198
-337300
-338404
-339509
-340616
-341725
-342835
-343947
-345061
-346177
-347294
-348413
-349534
-350656
-351781
-352906
-354034
-355163
-356294
-357427
-358561
-359697
-360835
-361975
-363116
-364259
-365403
-366550
-367698
-368847
-369999
-371152
-372306
-373463
-374621
-375781
-376942
-378105
-379270
-380437
-381605
-382775
-383947
-385120
-386295
-387471
-388650
-389829
-391011
-392194
-393379
-394566
-395754
-396944
-398136
-399329
-400524
-401720
-402918
-404118
-405320
-406523
-407728
-408934
-410142
-411352
-412563
-413776
-414991
-416207
-417425
-418645
-419866
-421089
-422313
-423539
-424767
-425996
-427227
-428459
-429693
-430929
-432166
-433405
-434646
-435888
-437132
-438377
-439624
-440873
-442123
-443374
-444628
-445883
-447139
-448397
-449657
-450918
-452181
-453445
-454711
-455978
-457247
-458518
-459790
-461064
-462339
-463616
-464894
-466174
-467455
-468738
-470023
-471309
-472596
-473885
-475176
-476468
-477761
-479056
-480353
-481651
-482951
-484252
-485554
-486859
-488164
-489471
-490780
-492090
-493401
-494714
-496029
-497345
-498662
-499981
-501301
-502623
-503946
-505271
-506597
-507924
-509253
-510583
-511915
-513248
-514583
-515919
-517256
-518595
-519935
-521277
-522620
-523964
-525310
-526657
-528005
-529355
-530706
-532059
-533412
-534768
-536124
-537482
-538841
-540202
-541564
-542927
-544291
-545657
-547024
-548392
-549762
-551133
-552505
-553878
-555253
-556629
-558006
-559385
-560765
-562145
-563528
-564911
-566296
-567681
-569068
-570457
-571846
-573237
-574628
-576021
-577415
-578811
-580207
-581605
-583003
-584403
-585804
-587206
-588609
-590014
-591419
-592825
-594233
-595642
-597051
-598462
-599874
-601287
-602700
-604115
-605531
-606948
-608366
-609785
-611205
-612626
-614048
-615471
-616895
-618320
-619745
-621172
-622600
-624028
-625458
-626888
-628320
-629752
-631185
-632619
-634053
-635489
-636926
-638363
-639801
-641240
-642680
-644120
-645562
-647004
-648447
-649890
-651335
-652780
-654226
-655673
-657120
-658568
-660017
-661466
-662917
-664367
-665819
-667271
-668724
-670177
-671631
-673086
-674541
-675997
-677453
-678910
-680368
-681826
-683285
-684744
-686203
-687663
-689124
-690585
-692047
-693509
-694971
-696434
-697897
-699361
-700825
-702290
-703754
-705220
-706685
-708151
-709617
-711083
-712550
-714017
-715484
-716952
-718419
-719887
-721355
-722824
-724292
-725760
-727229
-728698
-730167
-731636
-733104
-734573
-736042
-737511
-738980
-740449
-741918
-743386
-744855
-746323
-747792
-749260
-750727
-752195
-753662
-755129
-756596
-758062
-759528
-760994
-762459
-763923
-765387
-766851
-768314
-769776
-771238
-772699
-774159
-775619
-777077
-778535
-779992
-781448
-782903
-784357
-785810
-787262
-788712
-790161
-791609
-793056
-794501
-795945
-797387
-798828
-800267
-801704
-803139
-804573
-806004
-807433
-808861
-810286
-811708
-813129
-814547
-815962
-817374
-818784
-820191
-821595
-822995
-824393
-825787
-827177
-828564
-829947
-831327
-832702
-834073
-835439
-836801
-838158
-839511
-840858
-842200
-843537
-844868
-846193
-847512
-848825
-850131
-851431
-852723
-854008
-855286
-856556
-857818
-859071
-860315
-861551
-862777
-863993
-865200
-866395
-867580
-868754
-869916
-871065
-872202
-873326
-874437
-875533
-876615
-877681
-878732
-879766
-880783
-881783
-882764
-883726
-884668
-885590
-886490
-887368
-888223
-889053
-889859
-890639
-891391
-892115
-892810
-893475
-894107
-894707
-895271
-895800
-896292
-896744
-897155
-897524
-897849
-898127
-898358
-898537
-898664
-898737
-898751
-898706
-898598
-898424
-898182
-897868
-897479
-897011
-896460
-895824
-895097
-894274
-893353
-892327
-891192
-889941
-888570
-887073
-885442
-883671
-881753
-879680
-877444
-875038
-872451
-869674
-866699
-863513
-860106
-856467
-852583
-848441
-844028
-839330
-834332
-829020
-823376
-817384
-811028
-804289
-797150
-789590
-781592
-773136
-764201
-754767
-744814
-734322
-723271
-711639
-699409
-686559
-673073
-658932
-644120
-628621
-612422
-595510
-577876
-559510
-540407
-520564
-499981
-478658
-456602
-433822
-410329
-386139
-361272
-335750
-309601
-282853
-255543
-227707
-199387
-170627
-141476
-111984
-82205.1
-52194.8
-22011.4
8285.51
38634.7
68974.3
99241.7
129374
159310
188988
218347
247329
275879
303940
331464
358401
384708
410343
435269
459453
482867
505486
527290
548262
568392
587672
606098
623671
640395
656276
671327
685561
698994
711645
723536
734690
745130
754884
763978
772440
780299
787584
794322
800544
806279
811553
816395
820833
824892
828597
831974
835046
837834
840362
842648
844711
846571
848244
849746
851092
852295
853369
854325
855175
855928
856594
857182
857699
858152
858549
858894
859194
859454
859677
859867
860029
860166
860280
860374
860450
860511
860557
860592
860616
860631
860637
860636
860629
860616
860598
860576
860551
860522
860490
860455
860419
860380
860340
860298
860255
860211
860165
860119
860072
860024
859975
859926
859877
859826
859776
859725
859673
859621
859569
859516
859463
859410
859356
859303
859248
859194
859139
859084
859029
858974
858918
858862
858806
858749
858692
858635
858578
858521
858463
858405
858347
858288
858229
858170
858111
858052
857992
857932
857872
857811
857751
857690
857629
857567
857506
857444
857382
857319
857257
857194
857131
857068
857004
856940
856876
856812
856747
856683
856618
856552
856487
856421
856355
856289
856223
856156
856089
856022
855955
855887
855820
855751
855683
855615
855546
855477
855408
855338
855269
855199
855128
855058
854987
854917
854845
854774
854703
854631
854559
854486
854414
854341
854268
854195
854122
854048
853974
853900
853826
853751
853676
853601
853526
853450
853375
853299
853223
853146
853070
852993
852916
852838
852761
852683
852605
852527
852448
852369
852290
852211
852132
852052
851972
851892
851812
851731
851651
851570
851488
851407
851325
851243
851161
851079
850996
850914
850831
850747
850664
850580
850496
850412
850328
850243
850158
850073
849988
849903
849817
849731
849645
849558
849472
849385
849298
849211
849123
849035
848947
848859
848771
848682
848593
848504
848415
848326
848236
848146
848056
847966
847875
847784
847693
847602
847510
847419
847327
847235
847142
847050
846957
846864
846771
846677
846584
846490
846396
846301
846207
846112
846017
845922
845827
845731
845635
845539
845443
845346
845250
845153
845056
844958
844861
844763
844665
844567
844469
844370
844271
844172
844073
843973
843874
843774
843674
843573
843473
843372
843271
843170
843068
842967
842865
842763
842661
842558
842456
842353
842250
842146
842043
841939
841835
841731
841627
841522
841418
841313
841207
841102
840996
840891
840785
840678
840572
840465
840358
840251
840144
840037
839929
839821
839713
839605
839496
839387
839278
839169
839060
838950
838841
838731
838620
838510
838400
838289
838178
838067
837955
837844
837732
837620
837508
837395
837282
837170
837057
836943
836830
836716
836602
836488
836374
836260
836145
836030
835915
835800
835684
835569
835453
835337
835220
835104
834987
834870
834753
834636
834519
834401
834283
834165
834047
833928
833810
833691
833572
833452
833333
833213
833093
832973
832853
832732
832612
832491
832370
832249
832127
832006
831884
831762
831639
831517
831394
831271
831148
831025
830902
830778
830654
830530
830406
830282
830157
830032
829907
829782
829657
829531
829405
829279
829153
829027
828900
828774
828647
828520
828392
828265
828137
828009
827881
827753
827624
827496
827367
827238
827109
826979
826850
826720
826590
826460
826329
826199
826068
825937
825806
825674
825543
825411
825279
825147
825015
824882
824750
824617
824484
824351
824217
824084
823950
823816
823682
823547
823413
823278
823143
823008
822873
822737
822602
822466
822330
822194
822057
821921
821784
821647
821510
821372
821235
821097
820959
820821
820683
820544
820406
820267
820128
819989
819849
819710
819570
819430
819290
819150
819009
818869
818728
818587
818446
818304
818163
818021
817879
817737
817595
817452
817309
817167
817024
816880
816737
816593
816450
816306
816162
816017
815873
815728
815584
815439
815293
815148
815003
814857
814711
814565
814419
814272
814126
813979
813832
813685
813537
813390
813242
813094
812946
812798
812650
812501
812352
812204
812055
811905
811756
811606
811456
811306
811156
811006
810856
810705
810554
810403
810252
810100
809949
809797
809645
809493
809341
809189
809036
808883
808730
808577
808424
808271
808117
807963
807809
807655
807501
807346
807192
807037
806882
806727
806571
806416
806260
806104
805948
805792
805636
805479
805323
805166
805009
804852
804694
804537
804379
804221
804063
803905
803746
803588
803429
803270
803111
802952
802793
802633
802473
802313
802153
801993
801833
801672
801512
801351
801190
801028
800867
800705
800544
800382
800220
800057
799895
799733
799570
799407
799244
799081
798917
798754
798590
798426
798262
798098
797934
797769
797604
797440
797275
797109
796944
796779
796613
796447
796281
796115
795949
795782
795615
795449
795282
795115
794947
794780
794612
794445
794277
794109
793940
793772
793603
793435
793266
793097
792927
792758
792589
792419
792249
792079
791909
791739
791568
791397
791227
791056
790885
790713
790542
790370
790199
790027
789855
789682
789510
789338
789165
788992
788819
788646
788473
788299
788125
787952
787778
787604
787429
787255
787081
786906
786731
786556
786381
786205
786030
785854
785679
785503
785327
785150
784974
784797
784621
784444
784267
784090
783912
783735
783557
783379
783202
783023
782845
782667
782488
782310
782131
781952
781773
781593
781414
781234
781055
780875
780695
780515
780334
780154
779973
779792
779611
779430
779249
779068
778886
778704
778523
778341
778159
777976
777794
777611
777429
777246
777063
776879
776696
776513
776329
776145
775961
775777
775593
775409
775224
775040
774855
774670
774485
774300
774114
773929
773743
773558
773372
773186
772999
772813
772626
772440
772253
772066
771879
771692
771504
771317
771129
770941
770753
770565
770377
770189
770000
769811
769623
769434
769245
769055
768866
768677
768487
768297
768107
767917
767727
767536
767346
767155
766965
766774
766583
766391
766200
766008
765817
765625
765433
765241
765049
764857
764664
764472
764279
764086
763893
763700
763506
763313
763119
762926
762732
762538
762344
762150
761955
761761
761566
761371
761176
760981
760786
760591
760395
760199
760004
759808
759612
759416
759219
759023
758826
758630
758433
758236
758039
757841
757644
757447
757249
757051
756853
756655
756457
756259
756060
755862
755663
755464
755265
755066
754867
754667
754468
754268
754068
753869
753668
753468
753268
753068
752867
752666
752465
752265
752063
751862
751661
751459
751258
751056
750854
750652
750450
750248
750045
749843
749640
749437
749235
749031
748828
748625
748422
748218
748014
747811
747607
747403
747198
746994
746790
746585
746380
746175
745971
745765
745560
745355
745149
744944
744738
744532
744326
744120
743914
743708
743501
743295
743088
742881
742674
742467
742260
742052
741845
741637
741430
741222
741014
740806
740597
740389
740181
739972
739763
739554
739345
739136
738927
738718
738508
738299
738089
737879
737669
737459
737249
737039
736828
736618
736407
736196
735985
735774
735563
735352
735141
734929
734717
734506
734294
734082
733870
733657
733445
733233
733020
732807
732594
732382
732168
731955
731742
731529
731315
731101
730888
730674
730460
730245
730031
729817
729602
729388
729173
728958
728743
728528
728313
728098
727882
727667
727451
727235
727019
726803
726587
726371
726155
725938
725721
725505
725288
725071
724854
724637
724420
724202
723985
723767
723549
723331
723113
722895
722677
722459
722240
722022
721803
721585
721366
721147
720928
720708
720489
720270
720050
719830
719611
719391
719171
718951
718730
718510
718290
718069
717848
717628
717407
717186
716965
716743
716522
716301
716079
715857
715636
715414
715192
714970
714748
714525
714303
714080
713858
713635
713412
713189
712966
712743
712519
712296
712072
711849
711625
711401
711177
710953
710729
710505
710280
710057
709831
709608
709381
709159
708930
708710
708478
708262
708024
707814
707568
707369
707109
706927
706645
706489
706174
706059
705694
705639
705201
705232
704693
704841
704165
704471
703615
704123
703043
703795
702451
703483
701849
703172
701253
702843
700689
702466
700190
702002
699796
701413
699547
700662
699473
699709
699582
698677
699650
697639
699861
696521
700053
695488
700030
694709
699696
694332
698945
694420
697707
694939
696071
695757
694276
696605
692641
697114
691499
696956
691126
695971
691594
694231
692677
692084
693889
690091
694636
688850
694419
688721
693056
689644
690839
691099
688482
692268
686839
692372
686501
691071
687478
688711
689108
686217
690319
684662
690179
684683
688449
686068
685798
687782
683487
688516
682653
687493
683572
685013
685396
682353
686625
680980
686082
681549
683775
683373
680973
684817
679372
684453
679843
682159
681705
679307
683160
677763
682660
678412
680197
680361
677394
681596
676217
680646
677289
677901
679272
675358
679971
674887
678302
676499
675354
678253
673452
678024
673970
675559
675949
672803
676956
672033
675489
673553
672551
675305
670695
674952
671376
672353
673357
669789
673964
669541
671996
671353
669111
672647
668031
671396
669446
668486
671149
666758
670567
667688
667816
669580
665635
669550
666094
667043
668022
664581
668398
664651
666137
666537
663523
667181
663311
665116
665135
662432
665929
662052
663987
663821
661292
664661
660861
662756
662603
660091
663394
659718
661442
661459
658846
662114
658633
660043
660383
657572
660803
657616
658562
659359
656293
659443
656670
657017
658350
655053
657999
655808
655423
657319
653891
656446
655024
653818
656215
652850
654777
654283
652263
654973
651965
653003
653532
650833
653540
651241
651175
652685
649603
651889
650632
649395
651632
648638
650040
650044
647785
650285
647937
648087
649328
646475
648608
647416
646201
648311
645547
646660
646902
644583
646878
644959
644627
646152
643400
645032
644527
642785
644946
642690
642948
643950
641396
643215
642278
640963
642915
640572
641126
641800
639439
641269
640156
639065
640854
638555
639171
639726
637482
639230
638148
637080
638789
636610
637103
637722
635524
637109
636239
635024
636713
634736
634938
635766
633581
634907
634405
632932
634590
632942
632697
633812
631695
632613
632620
630858
632380
631229
630426
631797
629910
630234
630823
628874
630044
629573
628199
629643
628248
627822
628923
627053
627584
627895
626121
627296
626673
625486
626810
625421
625078
626059
624289
624772
625060
623373
624424
623904
622697
623921
622712
622210
623212
621597
621827
622297
620639
621440
621232
619869
620959
620103
619268
620331
618992
618785
619536
617974
618345
618597
617087
617879
617563
616340
617333
616490
615717
616671
615438
615176
615887
614452
614670
614998
613557
614155
614030
612764
613590
613021
612065
612951
612011
611436
612230
611026
610854
611427
610094
610286
610554
609227
609707
609633
608424
609098
608682
607684
608443
607725
606993
607735
606779
606336
606978
605856
605700
606171
604967
605068
605326
604116
604428
604454
603301
603774
603561
602522
603094
602662
601772
602389
601763
601043
601658
600869
600332
600899
599989
599630
600118
599123
598931
599318
598272
598234
598500
597439
597530
597672
596620
596819
596837
595815
596101
595994
595023
595370
595153
594239
594631
594310
593463
593883
593469
592693
593123
592633
591925
592357
591800
591160
591583
590971
590396
590802
590149
589629
590018
589329
588862
589229
588513
588093
588436
587704
587319
587642
586895
586545
586845
586092
585767
586046
585292
584984
585249
584493
584201
584448
583698
583412
583648
582905
582621
582848
582112
581828
582045
581325
581030
581244
580537
580230
580441
579751
579429
579637
578968
578624
578833
578185
577819
578026
577405
577013
577218
576627
576204
576409
575848
575397
575595
575074
574588
574780
574299
573780
573962
573524
572975
573138
572752
572170
572314
571977
571369
571485
571202
570572
570651
570427
569776
569817
569646
568988
568978
568864
568203
568137
568078
567422
567298
567282
566650
566455
566483
565879
565616
565676
565111
564783
564857
564351
563949
564035
563587
563126
563201
562824
562312
562358
562061
561502
561514
561288
560708
560660
560510
559922
559805
559725
559142
558954
558922
558376
558101
558112
557613
557259
557287
556851
556428
556446
556094
555604
555600
555326
554799
554743
554552
554008
553880
553769
553226
553023
552963
552461
552166
552147
551699
551322
551314
550936
550496
550460
550176
549679
549604
549401
548886
548739
548611
548109
547873
547807
547337
547022
546977
546579
546180
546133
545817
545356
545276
545042
544558
544406
544259
543771
543543
543450
543002
542686
542619
542242
541842
541774
541473
541026
540907
540699
540227
540039
539903
539446
539177
539081
538683
538322
538243
537914
537495
537381
537141
536690
536510
536351
535902
535647
535531
535135
534789
534692
534366
533958
533833
533589
533153
532959
532797
532364
532097
531973
531595
531243
531128
530826
530414
530266
530040
529616
529391
529239
528831
528531
528405
528061
527688
527548
527287
526869
526682
526488
526081
525810
525670
525303
524959
524821
524527
524134
523953
523741
523330
523087
522923
522553
522226
522082
521776
521392
521219
520986
520590
520345
520177
519801
519489
519333
519026
518652
518471
518238
517842
517603
517421
517060
516740
516582
516276
515908
515716
515485
515101
514845
514669
514312
513993
513818
513533
513158
512955
512732
512358
512087
511906
511573
511234
511056
510782
510415
510184
509979
509614
509322
509141
508829
508481
508279
508037
507664
507414
507214
506876
506554
506368
506085
505726
505502
505278
504925
504634
504447
504132
503794
503583
503338
502976
502718
502514
502182
501864
501662
501391
501034
500799
500575
500235
499934
499736
499440
499097
498873
498634
498289
498006
497804
497490
497163
496942
496692
496342
496078
495865
495544
495227
495010
494747
494398
494148
493923
493600
493288
493077
492799
492459
492212
491981
491654
491350
491139
490851
490519
490272
490039
489707
489414
489196
488907
488576
488332
488095
487761
487474
487250
486963
486631
486392
486147
485819
485530
485306
485017
484688
484447
484199
483877
483583
483361
483069
482746
482498
482254
481931
481638
481412
481124
480803
480547
480308
479985
479693
479459
479180
478855
478598
478357
478041
477744
477507
477235
476908
476648
476405
476099
475793
475555
475286
474964
474694
474453
474155
473842
473601
473336
473021
472737
472501
472208
471895
471642
471387
471075
470783
470546
470260
469948
469683
469437
469128
468831
468586
468314
467998
467725
467482
467182
466879
466624
466366
466050
465769
465522
465238
464925
464665
464411
464105
463811
463561
463290
462975
462705
462453
462161
461854
461600
461337
461029
460743
460493
460213
459901
459637
459380
459083
458782
458532
458260
457953
457672
457422
457134
456828
456566
456305
456006
455710
455460
455183
454878
454599
454348
454056
453754
453492
453229
452929
452636
452384
452105
451803
451523
451271
450978
450679
450414
450152
449852
449560
449305
449028
448726
448446
448192
447901
447603
447335
447073
446774
446483
446224
445950
445649
445367
445111
444823
444526
444253
443994
443696
443405
443141
442871
442571
442286
442028
441745
441447
441171
440912
440619
440326
440057
439791
439493
439205
438943
438667
438369
438087
437828
437541
437246
436971
436709
436415
436124
435856
435587
435290
435004
434741
434462
434166
433885
433625
433337
433044
432768
432505
432212
431921
431653
431382
431088
430800
430537
430258
429964
429681
429419
429133
428840
428563
428298
428009
427717
427447
427176
426885
426595
426330
426053
425761
425475
425211
424929
424637
424356
424091
423806
423512
423238
422969
422682
422389
422121
421846
421558
421268
421001
420724
420433
420148
419881
419602
419308
419029
418760
418479
418184
417910
417638
417355
417062
416790
416518
416230
415941
415669
415397
415105
414821
414549
414275
413981
413700
413428
413152
412858
412579
412308
412027
411736
411457
411188
410903
410615
410336
410067
409779
409493
409216
408945
408656
408370
408096
407822
407534
407247
406977
406699
406412
406125
405856
405576
405289
405005
404735
404454
404165
403885
403613
403333
403042
402765
402491
402211
401920
401644
401369
401088
400798
400522
400249
399964
399677
399400
399128
398841
398557
398279
398007
397719
397435
397158
396885
396597
396313
396038
395762
395476
395191
394918
394640
394355
394069
393797
393518
393233
392948
392676
392397
392111
391828
391554
391277
390988
390708
390432
390156
389867
389587
389311
389034
388746
388466
388191
387912
387626
387344
387071
386790
386506
386223
385951
385669
385385
385103
384830
384549
384264
383983
383709
383429
383142
382864
382587
382309
382022
381743
381467
381189
380902
380623
380347
380068
379782
379502
379228
378947
378663
378381
378108
377827
377544
377261
376988
376707
376424
376142
375867
375588
375303
375023
374747
374470
374183
373904
373627
373350
373064
372785
372507
372231
371946
371665
371389
371111
370828
370545
370270
369991
369710
369426
369151
368872
368591
368308
368032
367755
367472
367190
366912
366637
366354
366072
365793
365519
365235
364955
364675
364400
364118
363836
363557
363281
363001
362718
362440
362163
361885
361600
361323
361045
360768
360483
360205
359927
359650
359367
359087
358811
358532
358251
357969
357694
357415
357135
356852
356577
356298
356019
355736
355459
355182
354902
354620
354342
354067
353785
353505
353225
352951
352670
352390
352109
351834
351555
351274
350994
350718
350440
350158
349879
349601
349325
349043
348764
348485
348210
347928
347649
347370
347095
346815
346534
346256
345980
345702
345419
345142
344864
344588
344305
344028
343750
343474
343192
342913
342636
342360
342080
341799
341523
341246
340967
340686
340410
340132
339855
339573
339296
339019
338742
338461
338183
337906
337629
337350
337070
336794
336516
336238
335957
335682
335404
335127
334846
334569
334292
334015
333735
333457
333181
332903
332625
332345
332070
331792
331515
331234
330959
330681
330404
330124
329847
329571
329294
329015
328736
328461
328183
327906
327626
327351
327073
326796
326516
326241
325964
325687
325408
325131
324855
324578
324300
324021
323746
323469
323192
322912
322638
322360
322084
321804
321529
321252
320976
320697
320420
320145
319868
319591
319312
319037
318760
318484
318205
317930
317653
317378
317098
316822
316546
316271
315993
315715
315440
315164
314888
314609
314334
314058
313783
313504
313228
312952
312677
312399
312122
311847
311571
311295
311017
310742
310466
310191
309913
309638
309361
309087
308809
308534
308257
307983
307706
307429
307154
306879
306604
306326
306051
305775
305501
305223
304948
304672
304398
304121
303846
303569
303295
303020
302743
302468
302192
301919
301642
301367
301090
300818
300541
300266
299989
299716
299440
299165
298889
298614
298340
298065
297789
297513
297240
296964
296690
296413
296140
295865
295591
295314
295040
294766
294492
294216
293941
293667
293393
293119
292842
292569
292294
292021
291744
291471
291196
290923
290648
290373
290099
289825
289551
289276
289002
288728
288455
288179
287906
287631
287359
287083
286810
286535
286262
285988
285714
285439
285166
284893
284619
284345
284070
283798
283524
283251
282975
282703
282429
282157
281882
281609
281335
281063
280789
280515
280242
279969
279696
279421
279149
278875
278604
278329
278057
277783
277511
277237
276964
276691
276419
276146
275872
275600
275326
275055
274781
274509
274235
273964
273691
273419
273145
272873
272600
272329
272055
271783
271511
271238
270967
270693
270422
270149
269878
269604
269333
269060
268789
268516
268244
267972
267700
267429
267156
266884
266612
266341
266068
265797
265524
265254
264982
264711
264438
264167
263895
263624
263352
263080
262809
262538
262267
261994
261724
261452
261182
260909
260639
260367
260097
259825
259554
259283
259012
258741
258470
258199
257928
257658
257387
257116
256844
256575
256303
256034
255761
255492
255221
254951
254680
254409
254139
253869
253598
253327
253057
252787
252517
252246
251977
251705
251437
251165
250896
250625
250356
250086
249816
249546
249275
249006
248736
248467
248196
247927
247656
247388
247117
246848
246578
246310
246039
245770
245500
245231
244962
244692
244423
244153
243885
243615
243346
243076
242808
242538
242270
242000
241731
241462
241194