/*--------------------------------*- C++ -*----------------------------------*\
  =========                 |
  \\      /  F ield         | OpenFOAM: The Open Source CFD Toolbox
   \\    /   O peration     | Website:  https://openfoam.org
    \\  /    A nd           | Version:  9
     \\/     M anipulation  |
\*---------------------------------------------------------------------------*/
FoamFile
{
    format      ascii;
    class       volScalarField;
    location    "0.016";
    object      ddt0(p);
}
// * * * * * * * * * * * * * * * * * * * * * * * * * * * * * * * * * * * * * //

dimensions      [1 -1 -3 0 0 0 0];

internalField   nonuniform List<scalar> 
10000
(
-9.04692e+06
-9.04689e+06
-9.04692e+06
-9.0469e+06
-9.0469e+06
-9.04689e+06
-9.04689e+06
-9.04688e+06
-9.04687e+06
-9.04687e+06
-9.04686e+06
-9.04685e+06
-9.04685e+06
-9.04684e+06
-9.04683e+06
-9.04682e+06
-9.04681e+06
-9.0468e+06
-9.04679e+06
-9.04678e+06
-9.04677e+06
-9.04676e+06
-9.04675e+06
-9.04674e+06
-9.04672e+06
-9.04671e+06
-9.0467e+06
-9.04668e+06
-9.04667e+06
-9.04666e+06
-9.04664e+06
-9.04663e+06
-9.04661e+06
-9.0466e+06
-9.04658e+06
-9.04656e+06
-9.04655e+06
-9.04653e+06
-9.04651e+06
-9.04649e+06
-9.04648e+06
-9.04646e+06
-9.04644e+06
-9.04642e+06
-9.0464e+06
-9.04638e+06
-9.04636e+06
-9.04634e+06
-9.04632e+06
-9.04629e+06
-9.04627e+06
-9.04625e+06
-9.04623e+06
-9.0462e+06
-9.04618e+06
-9.04615e+06
-9.04613e+06
-9.04611e+06
-9.04608e+06
-9.04606e+06
-9.04603e+06
-9.046e+06
-9.04598e+06
-9.04595e+06
-9.04592e+06
-9.04589e+06
-9.04587e+06
-9.04584e+06
-9.04581e+06
-9.04578e+06
-9.04575e+06
-9.04572e+06
-9.04569e+06
-9.04566e+06
-9.04563e+06
-9.04559e+06
-9.04556e+06
-9.04553e+06
-9.0455e+06
-9.04546e+06
-9.04543e+06
-9.0454e+06
-9.04536e+06
-9.04533e+06
-9.04529e+06
-9.04526e+06
-9.04522e+06
-9.04519e+06
-9.04515e+06
-9.04511e+06
-9.04507e+06
-9.04504e+06
-9.045e+06
-9.04496e+06
-9.04492e+06
-9.04488e+06
-9.04484e+06
-9.0448e+06
-9.04476e+06
-9.04472e+06
-9.04468e+06
-9.04464e+06
-9.0446e+06
-9.04455e+06
-9.04451e+06
-9.04447e+06
-9.04442e+06
-9.04438e+06
-9.04434e+06
-9.04429e+06
-9.04425e+06
-9.0442e+06
-9.04416e+06
-9.04411e+06
-9.04406e+06
-9.04402e+06
-9.04397e+06
-9.04392e+06
-9.04387e+06
-9.04382e+06
-9.04378e+06
-9.04373e+06
-9.04368e+06
-9.04363e+06
-9.04358e+06
-9.04353e+06
-9.04347e+06
-9.04342e+06
-9.04337e+06
-9.04332e+06
-9.04327e+06
-9.04321e+06
-9.04316e+06
-9.0431e+06
-9.04305e+06
-9.043e+06
-9.04294e+06
-9.04289e+06
-9.04283e+06
-9.04277e+06
-9.04272e+06
-9.04266e+06
-9.0426e+06
-9.04254e+06
-9.04249e+06
-9.04243e+06
-9.04237e+06
-9.04231e+06
-9.04225e+06
-9.04219e+06
-9.04213e+06
-9.04207e+06
-9.04201e+06
-9.04195e+06
-9.04188e+06
-9.04182e+06
-9.04176e+06
-9.0417e+06
-9.04163e+06
-9.04157e+06
-9.0415e+06
-9.04144e+06
-9.04137e+06
-9.04131e+06
-9.04124e+06
-9.04118e+06
-9.04111e+06
-9.04104e+06
-9.04097e+06
-9.04091e+06
-9.04084e+06
-9.04077e+06
-9.0407e+06
-9.04063e+06
-9.04056e+06
-9.04049e+06
-9.04042e+06
-9.04035e+06
-9.04028e+06
-9.04021e+06
-9.04013e+06
-9.04006e+06
-9.03999e+06
-9.03992e+06
-9.03984e+06
-9.03977e+06
-9.03969e+06
-9.03962e+06
-9.03954e+06
-9.03947e+06
-9.03939e+06
-9.03931e+06
-9.03924e+06
-9.03916e+06
-9.03908e+06
-9.039e+06
-9.03893e+06
-9.03885e+06
-9.03877e+06
-9.03869e+06
-9.03861e+06
-9.03853e+06
-9.03845e+06
-9.03837e+06
-9.03828e+06
-9.0382e+06
-9.03812e+06
-9.03804e+06
-9.03795e+06
-9.03787e+06
-9.03779e+06
-9.0377e+06
-9.03762e+06
-9.03753e+06
-9.03745e+06
-9.03736e+06
-9.03727e+06
-9.03719e+06
-9.0371e+06
-9.03701e+06
-9.03692e+06
-9.03683e+06
-9.03675e+06
-9.03666e+06
-9.03657e+06
-9.03648e+06
-9.03639e+06
-9.0363e+06
-9.0362e+06
-9.03611e+06
-9.03602e+06
-9.03593e+06
-9.03584e+06
-9.03574e+06
-9.03565e+06
-9.03556e+06
-9.03546e+06
-9.03537e+06
-9.03527e+06
-9.03518e+06
-9.03508e+06
-9.03498e+06
-9.03489e+06
-9.03479e+06
-9.03469e+06
-9.03459e+06
-9.03449e+06
-9.0344e+06
-9.0343e+06
-9.0342e+06
-9.0341e+06
-9.034e+06
-9.0339e+06
-9.03379e+06
-9.03369e+06
-9.03359e+06
-9.03349e+06
-9.03339e+06
-9.03328e+06
-9.03318e+06
-9.03307e+06
-9.03297e+06
-9.03287e+06
-9.03276e+06
-9.03265e+06
-9.03255e+06
-9.03244e+06
-9.03233e+06
-9.03223e+06
-9.03212e+06
-9.03201e+06
-9.0319e+06
-9.03179e+06
-9.03168e+06
-9.03157e+06
-9.03146e+06
-9.03135e+06
-9.03124e+06
-9.03113e+06
-9.03102e+06
-9.03091e+06
-9.03079e+06
-9.03068e+06
-9.03057e+06
-9.03045e+06
-9.03034e+06
-9.03022e+06
-9.03011e+06
-9.02999e+06
-9.02988e+06
-9.02976e+06
-9.02964e+06
-9.02953e+06
-9.02941e+06
-9.02929e+06
-9.02917e+06
-9.02905e+06
-9.02894e+06
-9.02882e+06
-9.0287e+06
-9.02858e+06
-9.02845e+06
-9.02833e+06
-9.02821e+06
-9.02809e+06
-9.02797e+06
-9.02784e+06
-9.02772e+06
-9.0276e+06
-9.02747e+06
-9.02735e+06
-9.02722e+06
-9.0271e+06
-9.02697e+06
-9.02684e+06
-9.02672e+06
-9.02659e+06
-9.02646e+06
-9.02633e+06
-9.02621e+06
-9.02608e+06
-9.02595e+06
-9.02582e+06
-9.02569e+06
-9.02556e+06
-9.02543e+06
-9.02529e+06
-9.02516e+06
-9.02503e+06
-9.0249e+06
-9.02476e+06
-9.02463e+06
-9.0245e+06
-9.02436e+06
-9.02423e+06
-9.02409e+06
-9.02396e+06
-9.02382e+06
-9.02368e+06
-9.02355e+06
-9.02341e+06
-9.02327e+06
-9.02313e+06
-9.023e+06
-9.02286e+06
-9.02272e+06
-9.02258e+06
-9.02244e+06
-9.0223e+06
-9.02215e+06
-9.02201e+06
-9.02187e+06
-9.02173e+06
-9.02158e+06
-9.02144e+06
-9.0213e+06
-9.02115e+06
-9.02101e+06
-9.02086e+06
-9.02072e+06
-9.02057e+06
-9.02043e+06
-9.02028e+06
-9.02013e+06
-9.01998e+06
-9.01984e+06
-9.01969e+06
-9.01954e+06
-9.01939e+06
-9.01924e+06
-9.01909e+06
-9.01894e+06
-9.01879e+06
-9.01863e+06
-9.01848e+06
-9.01833e+06
-9.01818e+06
-9.01802e+06
-9.01787e+06
-9.01771e+06
-9.01756e+06
-9.0174e+06
-9.01725e+06
-9.01709e+06
-9.01694e+06
-9.01678e+06
-9.01662e+06
-9.01646e+06
-9.01631e+06
-9.01615e+06
-9.01599e+06
-9.01583e+06
-9.01567e+06
-9.01551e+06
-9.01535e+06
-9.01518e+06
-9.01502e+06
-9.01486e+06
-9.0147e+06
-9.01453e+06
-9.01437e+06
-9.01421e+06
-9.01404e+06
-9.01388e+06
-9.01371e+06
-9.01354e+06
-9.01338e+06
-9.01321e+06
-9.01304e+06
-9.01288e+06
-9.01271e+06
-9.01254e+06
-9.01237e+06
-9.0122e+06
-9.01203e+06
-9.01186e+06
-9.01169e+06
-9.01152e+06
-9.01134e+06
-9.01117e+06
-9.011e+06
-9.01083e+06
-9.01065e+06
-9.01048e+06
-9.0103e+06
-9.01013e+06
-9.00995e+06
-9.00978e+06
-9.0096e+06
-9.00942e+06
-9.00925e+06
-9.00907e+06
-9.00889e+06
-9.00871e+06
-9.00853e+06
-9.00835e+06
-9.00817e+06
-9.00799e+06
-9.00781e+06
-9.00763e+06
-9.00744e+06
-9.00726e+06
-9.00708e+06
-9.00689e+06
-9.00671e+06
-9.00653e+06
-9.00634e+06
-9.00615e+06
-9.00597e+06
-9.00578e+06
-9.00559e+06
-9.00541e+06
-9.00522e+06
-9.00503e+06
-9.00484e+06
-9.00465e+06
-9.00446e+06
-9.00427e+06
-9.00408e+06
-9.00389e+06
-9.0037e+06
-9.00351e+06
-9.00331e+06
-9.00312e+06
-9.00293e+06
-9.00273e+06
-9.00254e+06
-9.00234e+06
-9.00215e+06
-9.00195e+06
-9.00175e+06
-9.00155e+06
-9.00136e+06
-9.00116e+06
-9.00096e+06
-9.00076e+06
-9.00056e+06
-9.00036e+06
-9.00016e+06
-8.99996e+06
-8.99976e+06
-8.99955e+06
-8.99935e+06
-8.99915e+06
-8.99894e+06
-8.99874e+06
-8.99854e+06
-8.99833e+06
-8.99812e+06
-8.99792e+06
-8.99771e+06
-8.9975e+06
-8.9973e+06
-8.99709e+06
-8.99688e+06
-8.99667e+06
-8.99646e+06
-8.99625e+06
-8.99604e+06
-8.99583e+06
-8.99561e+06
-8.9954e+06
-8.99519e+06
-8.99497e+06
-8.99476e+06
-8.99455e+06
-8.99433e+06
-8.99412e+06
-8.9939e+06
-8.99368e+06
-8.99346e+06
-8.99325e+06
-8.99303e+06
-8.99281e+06
-8.99259e+06
-8.99237e+06
-8.99215e+06
-8.99193e+06
-8.99171e+06
-8.99149e+06
-8.99126e+06
-8.99104e+06
-8.99082e+06
-8.99059e+06
-8.99037e+06
-8.99014e+06
-8.98992e+06
-8.98969e+06
-8.98946e+06
-8.98923e+06
-8.98901e+06
-8.98878e+06
-8.98855e+06
-8.98832e+06
-8.98809e+06
-8.98786e+06
-8.98763e+06
-8.98739e+06
-8.98716e+06
-8.98693e+06
-8.98669e+06
-8.98646e+06
-8.98622e+06
-8.98599e+06
-8.98575e+06
-8.98552e+06
-8.98528e+06
-8.98504e+06
-8.9848e+06
-8.98456e+06
-8.98432e+06
-8.98408e+06
-8.98384e+06
-8.9836e+06
-8.98336e+06
-8.98312e+06
-8.98288e+06
-8.98263e+06
-8.98239e+06
-8.98214e+06
-8.9819e+06
-8.98165e+06
-8.9814e+06
-8.98116e+06
-8.98091e+06
-8.98066e+06
-8.98041e+06
-8.98016e+06
-8.97991e+06
-8.97966e+06
-8.97941e+06
-8.97916e+06
-8.97891e+06
-8.97865e+06
-8.9784e+06
-8.97814e+06
-8.97789e+06
-8.97763e+06
-8.97738e+06
-8.97712e+06
-8.97686e+06
-8.9766e+06
-8.97635e+06
-8.97609e+06
-8.97583e+06
-8.97556e+06
-8.9753e+06
-8.97504e+06
-8.97478e+06
-8.97452e+06
-8.97425e+06
-8.97399e+06
-8.97372e+06
-8.97346e+06
-8.97319e+06
-8.97292e+06
-8.97265e+06
-8.97238e+06
-8.97212e+06
-8.97185e+06
-8.97157e+06
-8.9713e+06
-8.97103e+06
-8.97076e+06
-8.97049e+06
-8.97021e+06
-8.96994e+06
-8.96966e+06
-8.96939e+06
-8.96911e+06
-8.96883e+06
-8.96855e+06
-8.96827e+06
-8.96799e+06
-8.96771e+06
-8.96743e+06
-8.96715e+06
-8.96687e+06
-8.96659e+06
-8.9663e+06
-8.96602e+06
-8.96573e+06
-8.96545e+06
-8.96516e+06
-8.96487e+06
-8.96458e+06
-8.9643e+06
-8.96401e+06
-8.96372e+06
-8.96343e+06
-8.96313e+06
-8.96284e+06
-8.96255e+06
-8.96225e+06
-8.96196e+06
-8.96166e+06
-8.96137e+06
-8.96107e+06
-8.96077e+06
-8.96047e+06
-8.96017e+06
-8.95987e+06
-8.95957e+06
-8.95927e+06
-8.95897e+06
-8.95866e+06
-8.95836e+06
-8.95805e+06
-8.95775e+06
-8.95744e+06
-8.95713e+06
-8.95683e+06
-8.95652e+06
-8.95621e+06
-8.9559e+06
-8.95559e+06
-8.95527e+06
-8.95496e+06
-8.95465e+06
-8.95433e+06
-8.95401e+06
-8.9537e+06
-8.95338e+06
-8.95306e+06
-8.95274e+06
-8.95242e+06
-8.9521e+06
-8.95178e+06
-8.95146e+06
-8.95113e+06
-8.95081e+06
-8.95048e+06
-8.95016e+06
-8.94983e+06
-8.9495e+06
-8.94917e+06
-8.94884e+06
-8.94851e+06
-8.94818e+06
-8.94785e+06
-8.94751e+06
-8.94718e+06
-8.94684e+06
-8.94651e+06
-8.94617e+06
-8.94583e+06
-8.94549e+06
-8.94515e+06
-8.94481e+06
-8.94447e+06
-8.94412e+06
-8.94378e+06
-8.94343e+06
-8.94309e+06
-8.94274e+06
-8.94239e+06
-8.94204e+06
-8.94169e+06
-8.94134e+06
-8.94099e+06
-8.94063e+06
-8.94028e+06
-8.93992e+06
-8.93956e+06
-8.93921e+06
-8.93885e+06
-8.93849e+06
-8.93813e+06
-8.93776e+06
-8.9374e+06
-8.93703e+06
-8.93667e+06
-8.9363e+06
-8.93593e+06
-8.93556e+06
-8.93519e+06
-8.93482e+06
-8.93445e+06
-8.93407e+06
-8.9337e+06
-8.93332e+06
-8.93294e+06
-8.93257e+06
-8.93219e+06
-8.9318e+06
-8.93142e+06
-8.93104e+06
-8.93065e+06
-8.93027e+06
-8.92988e+06
-8.92949e+06
-8.9291e+06
-8.92871e+06
-8.92831e+06
-8.92792e+06
-8.92752e+06
-8.92713e+06
-8.92673e+06
-8.92633e+06
-8.92593e+06
-8.92553e+06
-8.92512e+06
-8.92472e+06
-8.92431e+06
-8.9239e+06
-8.92349e+06
-8.92308e+06
-8.92267e+06
-8.92225e+06
-8.92184e+06
-8.92142e+06
-8.921e+06
-8.92058e+06
-8.92016e+06
-8.91974e+06
-8.91931e+06
-8.91889e+06
-8.91846e+06
-8.91803e+06
-8.9176e+06
-8.91717e+06
-8.91673e+06
-8.9163e+06
-8.91586e+06
-8.91542e+06
-8.91498e+06
-8.91454e+06
-8.91409e+06
-8.91365e+06
-8.9132e+06
-8.91275e+06
-8.9123e+06
-8.91185e+06
-8.91139e+06
-8.91093e+06
-8.91048e+06
-8.91002e+06
-8.90955e+06
-8.90909e+06
-8.90862e+06
-8.90816e+06
-8.90769e+06
-8.90722e+06
-8.90674e+06
-8.90627e+06
-8.90579e+06
-8.90531e+06
-8.90483e+06
-8.90435e+06
-8.90386e+06
-8.90338e+06
-8.90289e+06
-8.9024e+06
-8.9019e+06
-8.90141e+06
-8.90091e+06
-8.90041e+06
-8.89991e+06
-8.8994e+06
-8.8989e+06
-8.89839e+06
-8.89788e+06
-8.89737e+06
-8.89685e+06
-8.89633e+06
-8.89581e+06
-8.89529e+06
-8.89477e+06
-8.89424e+06
-8.89371e+06
-8.89318e+06
-8.89265e+06
-8.89211e+06
-8.89157e+06
-8.89103e+06
-8.89049e+06
-8.88994e+06
-8.8894e+06
-8.88885e+06
-8.88829e+06
-8.88774e+06
-8.88718e+06
-8.88662e+06
-8.88605e+06
-8.88549e+06
-8.88492e+06
-8.88435e+06
-8.88377e+06
-8.8832e+06
-8.88262e+06
-8.88203e+06
-8.88145e+06
-8.88086e+06
-8.88027e+06
-8.87968e+06
-8.87908e+06
-8.87848e+06
-8.87788e+06
-8.87727e+06
-8.87667e+06
-8.87606e+06
-8.87544e+06
-8.87483e+06
-8.87421e+06
-8.87358e+06
-8.87296e+06
-8.87233e+06
-8.8717e+06
-8.87106e+06
-8.87042e+06
-8.86978e+06
-8.86914e+06
-8.86849e+06
-8.86784e+06
-8.86719e+06
-8.86653e+06
-8.86587e+06
-8.8652e+06
-8.86454e+06
-8.86387e+06
-8.86319e+06
-8.86251e+06
-8.86183e+06
-8.86115e+06
-8.86046e+06
-8.85977e+06
-8.85908e+06
-8.85838e+06
-8.85768e+06
-8.85697e+06
-8.85626e+06
-8.85555e+06
-8.85483e+06
-8.85411e+06
-8.85339e+06
-8.85266e+06
-8.85193e+06
-8.8512e+06
-8.85046e+06
-8.84972e+06
-8.84897e+06
-8.84822e+06
-8.84747e+06
-8.84671e+06
-8.84595e+06
-8.84518e+06
-8.84441e+06
-8.84364e+06
-8.84286e+06
-8.84208e+06
-8.84129e+06
-8.8405e+06
-8.83971e+06
-8.83891e+06
-8.83811e+06
-8.8373e+06
-8.83649e+06
-8.83567e+06
-8.83485e+06
-8.83403e+06
-8.8332e+06
-8.83236e+06
-8.83152e+06
-8.83068e+06
-8.82983e+06
-8.82898e+06
-8.82812e+06
-8.82726e+06
-8.8264e+06
-8.82552e+06
-8.82465e+06
-8.82377e+06
-8.82288e+06
-8.82199e+06
-8.82109e+06
-8.82019e+06
-8.81928e+06
-8.81837e+06
-8.81746e+06
-8.81653e+06
-8.8156e+06
-8.81467e+06
-8.81373e+06
-8.81279e+06
-8.81184e+06
-8.81088e+06
-8.80992e+06
-8.80895e+06
-8.80798e+06
-8.807e+06
-8.80601e+06
-8.80502e+06
-8.80402e+06
-8.80302e+06
-8.802e+06
-8.80099e+06
-8.79996e+06
-8.79893e+06
-8.79789e+06
-8.79685e+06
-8.79579e+06
-8.79473e+06
-8.79367e+06
-8.79259e+06
-8.79151e+06
-8.79042e+06
-8.78933e+06
-8.78822e+06
-8.78711e+06
-8.78599e+06
-8.78486e+06
-8.78372e+06
-8.78257e+06
-8.78141e+06
-8.78025e+06
-8.77907e+06
-8.77789e+06
-8.7767e+06
-8.77549e+06
-8.77428e+06
-8.77306e+06
-8.77182e+06
-8.77058e+06
-8.76932e+06
-8.76806e+06
-8.76678e+06
-8.76549e+06
-8.76419e+06
-8.76288e+06
-8.76155e+06
-8.76021e+06
-8.75886e+06
-8.7575e+06
-8.75612e+06
-8.75472e+06
-8.75332e+06
-8.7519e+06
-8.75046e+06
-8.74901e+06
-8.74754e+06
-8.74605e+06
-8.74455e+06
-8.74303e+06
-8.7415e+06
-8.73994e+06
-8.73837e+06
-8.73678e+06
-8.73517e+06
-8.73353e+06
-8.73188e+06
-8.73021e+06
-8.72851e+06
-8.72679e+06
-8.72505e+06
-8.72329e+06
-8.7215e+06
-8.71968e+06
-8.71784e+06
-8.71597e+06
-8.71407e+06
-8.71215e+06
-8.71019e+06
-8.70821e+06
-8.70619e+06
-8.70414e+06
-8.70206e+06
-8.69994e+06
-8.69779e+06
-8.6956e+06
-8.69337e+06
-8.6911e+06
-8.6888e+06
-8.68645e+06
-8.68406e+06
-8.68162e+06
-8.67914e+06
-8.67661e+06
-8.67403e+06
-8.6714e+06
-8.66872e+06
-8.66598e+06
-8.66318e+06
-8.66033e+06
-8.65742e+06
-8.65444e+06
-8.6514e+06
-8.64829e+06
-8.64511e+06
-8.64186e+06
-8.63853e+06
-8.63513e+06
-8.63164e+06
-8.62807e+06
-8.62441e+06
-8.62066e+06
-8.61682e+06
-8.61288e+06
-8.60884e+06
-8.60469e+06
-8.60043e+06
-8.59606e+06
-8.59157e+06
-8.58695e+06
-8.58221e+06
-8.57733e+06
-8.57231e+06
-8.56715e+06
-8.56183e+06
-8.55635e+06
-8.55071e+06
-8.5449e+06
-8.53891e+06
-8.53272e+06
-8.52635e+06
-8.51976e+06
-8.51297e+06
-8.50594e+06
-8.49869e+06
-8.49118e+06
-8.48342e+06
-8.4754e+06
-8.46709e+06
-8.45848e+06
-8.44956e+06
-8.44033e+06
-8.43074e+06
-8.42081e+06
-8.41049e+06
-8.39979e+06
-8.38867e+06
-8.37712e+06
-8.36511e+06
-8.35262e+06
-8.33962e+06
-8.3261e+06
-8.31202e+06
-8.29735e+06
-8.28207e+06
-8.26614e+06
-8.24952e+06
-8.2322e+06
-8.21411e+06
-8.19524e+06
-8.17554e+06
-8.15496e+06
-8.13346e+06
-8.11101e+06
-8.08755e+06
-8.06303e+06
-8.03741e+06
-8.01063e+06
-7.98264e+06
-7.9534e+06
-7.92284e+06
-7.89092e+06
-7.85757e+06
-7.82275e+06
-7.7864e+06
-7.74848e+06
-7.70892e+06
-7.66768e+06
-7.62471e+06
-7.57997e+06
-7.53341e+06
-7.485e+06
-7.4347e+06
-7.38249e+06
-7.32834e+06
-7.27223e+06
-7.21414e+06
-7.15409e+06
-7.09207e+06
-7.02809e+06
-6.96217e+06
-6.89435e+06
-6.82465e+06
-6.75314e+06
-6.67986e+06
-6.60488e+06
-6.5283e+06
-6.45018e+06
-6.37063e+06
-6.28977e+06
-6.20769e+06
-6.12455e+06
-6.04045e+06
-5.95556e+06
-5.87002e+06
-5.78397e+06
-5.6976e+06
-5.61105e+06
-5.52449e+06
-5.4381e+06
-5.35205e+06
-5.2665e+06
-5.18162e+06
-5.09759e+06
-5.01455e+06
-4.93267e+06
-4.8521e+06
-4.77298e+06
-4.69545e+06
-4.61962e+06
-4.54563e+06
-4.47357e+06
-4.40354e+06
-4.33563e+06
-4.2699e+06
-4.20643e+06
-4.14525e+06
-4.0864e+06
-4.02992e+06
-3.97581e+06
-3.92408e+06
-3.87473e+06
-3.82773e+06
-3.78306e+06
-3.74069e+06
-3.70058e+06
-3.66267e+06
-3.62691e+06
-3.59323e+06
-3.56158e+06
-3.53188e+06
-3.50406e+06
-3.47804e+06
-3.45374e+06
-3.43109e+06
-3.41e+06
-3.39039e+06
-3.37218e+06
-3.35529e+06
-3.33965e+06
-3.32518e+06
-3.3118e+06
-3.29944e+06
-3.28804e+06
-3.27752e+06
-3.26782e+06
-3.25888e+06
-3.25064e+06
-3.24305e+06
-3.23606e+06
-3.22961e+06
-3.22367e+06
-3.21818e+06
-3.2131e+06
-3.20841e+06
-3.20406e+06
-3.20003e+06
-3.19627e+06
-3.19278e+06
-3.18951e+06
-3.18646e+06
-3.18359e+06
-3.18089e+06
-3.17834e+06
-3.17592e+06
-3.17363e+06
-3.17144e+06
-3.16935e+06
-3.16734e+06
-3.16541e+06
-3.16354e+06
-3.16174e+06
-3.15998e+06
-3.15828e+06
-3.15661e+06
-3.15498e+06
-3.15338e+06
-3.15181e+06
-3.15026e+06
-3.14874e+06
-3.14723e+06
-3.14574e+06
-3.14426e+06
-3.1428e+06
-3.14134e+06
-3.1399e+06
-3.13847e+06
-3.13704e+06
-3.13562e+06
-3.1342e+06
-3.13279e+06
-3.13138e+06
-3.12998e+06
-3.12858e+06
-3.12718e+06
-3.12578e+06
-3.12439e+06
-3.123e+06
-3.12161e+06
-3.12022e+06
-3.11883e+06
-3.11745e+06
-3.11606e+06
-3.11468e+06
-3.1133e+06
-3.11191e+06
-3.11053e+06
-3.10915e+06
-3.10777e+06
-3.10639e+06
-3.10501e+06
-3.10364e+06
-3.10226e+06
-3.10088e+06
-3.0995e+06
-3.09813e+06
-3.09675e+06
-3.09538e+06
-3.094e+06
-3.09263e+06
-3.09125e+06
-3.08988e+06
-3.0885e+06
-3.08713e+06
-3.08576e+06
-3.08439e+06
-3.08301e+06
-3.08164e+06
-3.08027e+06
-3.0789e+06
-3.07753e+06
-3.07616e+06
-3.07479e+06
-3.07342e+06
-3.07205e+06
-3.07068e+06
-3.06932e+06
-3.06795e+06
-3.06658e+06
-3.06521e+06
-3.06385e+06
-3.06248e+06
-3.06111e+06
-3.05975e+06
-3.05838e+06
-3.05702e+06
-3.05565e+06
-3.05429e+06
-3.05293e+06
-3.05156e+06
-3.0502e+06
-3.04884e+06
-3.04747e+06
-3.04611e+06
-3.04475e+06
-3.04339e+06
-3.04203e+06
-3.04067e+06
-3.03931e+06
-3.03795e+06
-3.03659e+06
-3.03523e+06
-3.03387e+06
-3.03251e+06
-3.03116e+06
-3.0298e+06
-3.02844e+06
-3.02709e+06
-3.02573e+06
-3.02437e+06
-3.02302e+06
-3.02166e+06
-3.02031e+06
-3.01895e+06
-3.0176e+06
-3.01625e+06
-3.01489e+06
-3.01354e+06
-3.01219e+06
-3.01083e+06
-3.00948e+06
-3.00813e+06
-3.00678e+06
-3.00543e+06
-3.00408e+06
-3.00273e+06
-3.00138e+06
-3.00003e+06
-2.99868e+06
-2.99733e+06
-2.99598e+06
-2.99464e+06
-2.99329e+06
-2.99194e+06
-2.99059e+06
-2.98925e+06
-2.9879e+06
-2.98656e+06
-2.98521e+06
-2.98387e+06
-2.98252e+06
-2.98118e+06
-2.97983e+06
-2.97849e+06
-2.97715e+06
-2.9758e+06
-2.97446e+06
-2.97312e+06
-2.97178e+06
-2.97044e+06
-2.9691e+06
-2.96776e+06
-2.96642e+06
-2.96508e+06
-2.96374e+06
-2.9624e+06
-2.96106e+06
-2.95972e+06
-2.95838e+06
-2.95704e+06
-2.95571e+06
-2.95437e+06
-2.95303e+06
-2.9517e+06
-2.95036e+06
-2.94903e+06
-2.94769e+06
-2.94636e+06
-2.94502e+06
-2.94369e+06
-2.94236e+06
-2.94102e+06
-2.93969e+06
-2.93836e+06
-2.93703e+06
-2.93569e+06
-2.93436e+06
-2.93303e+06
-2.9317e+06
-2.93037e+06
-2.92904e+06
-2.92771e+06
-2.92638e+06
-2.92505e+06
-2.92372e+06
-2.9224e+06
-2.92107e+06
-2.91974e+06
-2.91841e+06
-2.91709e+06
-2.91576e+06
-2.91444e+06
-2.91311e+06
-2.91178e+06
-2.91046e+06
-2.90914e+06
-2.90781e+06
-2.90649e+06
-2.90516e+06
-2.90384e+06
-2.90252e+06
-2.9012e+06
-2.89987e+06
-2.89855e+06
-2.89723e+06
-2.89591e+06
-2.89459e+06
-2.89327e+06
-2.89195e+06
-2.89063e+06
-2.88931e+06
-2.88799e+06
-2.88668e+06
-2.88536e+06
-2.88404e+06
-2.88272e+06
-2.88141e+06
-2.88009e+06
-2.87877e+06
-2.87746e+06
-2.87614e+06
-2.87483e+06
-2.87351e+06
-2.8722e+06
-2.87089e+06
-2.86957e+06
-2.86826e+06
-2.86695e+06
-2.86563e+06
-2.86432e+06
-2.86301e+06
-2.8617e+06
-2.86039e+06
-2.85908e+06
-2.85777e+06
-2.85646e+06
-2.85515e+06
-2.85384e+06
-2.85253e+06
-2.85122e+06
-2.84991e+06
-2.8486e+06
-2.8473e+06
-2.84599e+06
-2.84468e+06
-2.84338e+06
-2.84207e+06
-2.84077e+06
-2.83946e+06
-2.83815e+06
-2.83685e+06
-2.83555e+06
-2.83424e+06
-2.83294e+06
-2.83164e+06
-2.83033e+06
-2.82903e+06
-2.82773e+06
-2.82643e+06
-2.82513e+06
-2.82382e+06
-2.82252e+06
-2.82122e+06
-2.81992e+06
-2.81862e+06
-2.81733e+06
-2.81603e+06
-2.81473e+06
-2.81343e+06
-2.81213e+06
-2.81084e+06
-2.80954e+06
-2.80824e+06
-2.80695e+06
-2.80565e+06
-2.80435e+06
-2.80306e+06
-2.80176e+06
-2.80047e+06
-2.79918e+06
-2.79788e+06
-2.79659e+06
-2.79529e+06
-2.794e+06
-2.79271e+06
-2.79142e+06
-2.79013e+06
-2.78884e+06
-2.78754e+06
-2.78625e+06
-2.78496e+06
-2.78367e+06
-2.78238e+06
-2.78109e+06
-2.77981e+06
-2.77852e+06
-2.77723e+06
-2.77594e+06
-2.77465e+06
-2.77337e+06
-2.77208e+06
-2.77079e+06
-2.76951e+06
-2.76822e+06
-2.76694e+06
-2.76565e+06
-2.76437e+06
-2.76308e+06
-2.7618e+06
-2.76052e+06
-2.75923e+06
-2.75795e+06
-2.75667e+06
-2.75539e+06
-2.75411e+06
-2.75282e+06
-2.75154e+06
-2.75026e+06
-2.74898e+06
-2.7477e+06
-2.74642e+06
-2.74514e+06
-2.74387e+06
-2.74259e+06
-2.74131e+06
-2.74003e+06
-2.73875e+06
-2.73748e+06
-2.7362e+06
-2.73492e+06
-2.73365e+06
-2.73237e+06
-2.7311e+06
-2.72982e+06
-2.72855e+06
-2.72727e+06
-2.726e+06
-2.72473e+06
-2.72345e+06
-2.72218e+06
-2.72091e+06
-2.71964e+06
-2.71836e+06
-2.71709e+06
-2.71582e+06
-2.71455e+06
-2.71328e+06
-2.71201e+06
-2.71074e+06
-2.70947e+06
-2.7082e+06
-2.70693e+06
-2.70567e+06
-2.7044e+06
-2.70313e+06
-2.70186e+06
-2.7006e+06
-2.69933e+06
-2.69806e+06
-2.6968e+06
-2.69553e+06
-2.69427e+06
-2.693e+06
-2.69174e+06
-2.69047e+06
-2.68921e+06
-2.68795e+06
-2.68668e+06
-2.68542e+06
-2.68416e+06
-2.6829e+06
-2.68164e+06
-2.68038e+06
-2.67911e+06
-2.67785e+06
-2.67659e+06
-2.67533e+06
-2.67407e+06
-2.67282e+06
-2.67156e+06
-2.6703e+06
-2.66904e+06
-2.66778e+06
-2.66653e+06
-2.66527e+06
-2.66401e+06
-2.66276e+06
-2.6615e+06
-2.66024e+06
-2.65899e+06
-2.65773e+06
-2.65648e+06
-2.65523e+06
-2.65397e+06
-2.65272e+06
-2.65147e+06
-2.65021e+06
-2.64896e+06
-2.64771e+06
-2.64646e+06
-2.64521e+06
-2.64395e+06
-2.6427e+06
-2.64145e+06
-2.6402e+06
-2.63895e+06
-2.6377e+06
-2.63646e+06
-2.63521e+06
-2.63396e+06
-2.63271e+06
-2.63146e+06
-2.63022e+06
-2.62897e+06
-2.62772e+06
-2.62648e+06
-2.62523e+06
-2.62399e+06
-2.62274e+06
-2.6215e+06
-2.62025e+06
-2.61901e+06
-2.61776e+06
-2.61652e+06
-2.61528e+06
-2.61403e+06
-2.61279e+06
-2.61155e+06
-2.61031e+06
-2.60907e+06
-2.60783e+06
-2.60659e+06
-2.60535e+06
-2.60411e+06
-2.60287e+06
-2.60163e+06
-2.60039e+06
-2.59915e+06
-2.59791e+06
-2.59667e+06
-2.59544e+06
-2.5942e+06
-2.59296e+06
-2.59173e+06
-2.59049e+06
-2.58925e+06
-2.58802e+06
-2.58678e+06
-2.58555e+06
-2.58431e+06
-2.58308e+06
-2.58185e+06
-2.58061e+06
-2.57938e+06
-2.57815e+06
-2.57692e+06
-2.57568e+06
-2.57445e+06
-2.57322e+06
-2.57199e+06
-2.57076e+06
-2.56953e+06
-2.5683e+06
-2.56707e+06
-2.56584e+06
-2.56461e+06
-2.56338e+06
-2.56216e+06
-2.56093e+06
-2.5597e+06
-2.55847e+06
-2.55725e+06
-2.55602e+06
-2.55479e+06
-2.55357e+06
-2.55234e+06
-2.55112e+06
-2.54989e+06
-2.54867e+06
-2.54745e+06
-2.54622e+06
-2.545e+06
-2.54378e+06
-2.54255e+06
-2.54133e+06
-2.54011e+06
-2.53889e+06
-2.53767e+06
-2.53645e+06
-2.53522e+06
-2.534e+06
-2.53278e+06
-2.53157e+06
-2.53035e+06
-2.52913e+06
-2.52791e+06
-2.52669e+06
-2.52547e+06
-2.52426e+06
-2.52304e+06
-2.52182e+06
-2.5206e+06
-2.51939e+06
-2.51817e+06
-2.51696e+06
-2.51574e+06
-2.51453e+06
-2.51331e+06
-2.5121e+06
-2.51089e+06
-2.50967e+06
-2.50846e+06
-2.50725e+06
-2.50603e+06
-2.50482e+06
-2.50361e+06
-2.5024e+06
-2.50119e+06
-2.49998e+06
-2.49877e+06
-2.49756e+06
-2.49635e+06
-2.49514e+06
-2.49393e+06
-2.49272e+06
-2.49151e+06
-2.4903e+06
-2.4891e+06
-2.48789e+06
-2.48668e+06
-2.48548e+06
-2.48427e+06
-2.48306e+06
-2.48186e+06
-2.48065e+06
-2.47945e+06
-2.47824e+06
-2.47704e+06
-2.47584e+06
-2.47463e+06
-2.47343e+06
-2.47223e+06
-2.47102e+06
-2.46982e+06
-2.46862e+06
-2.46742e+06
-2.46622e+06
-2.46502e+06
-2.46382e+06
-2.46262e+06
-2.46142e+06
-2.46022e+06
-2.45902e+06
-2.45782e+06
-2.45662e+06
-2.45542e+06
-2.45423e+06
-2.45303e+06
-2.45183e+06
-2.45063e+06
-2.44944e+06
-2.44824e+06
-2.44705e+06
-2.44585e+06
-2.44466e+06
-2.44346e+06
-2.44227e+06
-2.44107e+06
-2.43988e+06
-2.43869e+06
-2.43749e+06
-2.4363e+06
-2.43511e+06
-2.43392e+06
-2.43272e+06
-2.43153e+06
-2.43034e+06
-2.42915e+06
-2.42796e+06
-2.42677e+06
-2.42558e+06
-2.42439e+06
-2.4232e+06
-2.42202e+06
-2.42083e+06
-2.41964e+06
-2.41845e+06
-2.41726e+06
-2.41608e+06
-2.41489e+06
-2.4137e+06
-2.41252e+06
-2.41133e+06
-2.41015e+06
-2.40896e+06
-2.40778e+06
-2.40659e+06
-2.40541e+06
-2.40423e+06
-2.40304e+06
-2.40186e+06
-2.40068e+06
-2.3995e+06
-2.39831e+06
-2.39713e+06
-2.39595e+06
-2.39477e+06
-2.39359e+06
-2.39241e+06
-2.39123e+06
-2.39005e+06
-2.38887e+06
-2.38769e+06
-2.38651e+06
-2.38533e+06
-2.38416e+06
-2.38298e+06
-2.3818e+06
-2.38063e+06
-2.37945e+06
-2.37827e+06
-2.3771e+06
-2.37592e+06
-2.37475e+06
-2.37357e+06
-2.3724e+06
-2.37122e+06
-2.37005e+06
-2.36888e+06
-2.3677e+06
-2.36653e+06
-2.36536e+06
-2.36418e+06
-2.36301e+06
-2.36184e+06
-2.36067e+06
-2.3595e+06
-2.35833e+06
-2.35716e+06
-2.35599e+06
-2.35482e+06
-2.35365e+06
-2.35248e+06
-2.35131e+06
-2.35014e+06
-2.34898e+06
-2.34781e+06
-2.34664e+06
-2.34547e+06
-2.34431e+06
-2.34314e+06
-2.34198e+06
-2.34081e+06
-2.33965e+06
-2.33848e+06
-2.33732e+06
-2.33615e+06
-2.33499e+06
-2.33382e+06
-2.33266e+06
-2.3315e+06
-2.33034e+06
-2.32917e+06
-2.32801e+06
-2.32685e+06
-2.32569e+06
-2.32453e+06
-2.32337e+06
-2.32221e+06
-2.32105e+06
-2.31989e+06
-2.31873e+06
-2.31757e+06
-2.31641e+06
-2.31525e+06
-2.31409e+06
-2.31294e+06
-2.31178e+06
-2.31062e+06
-2.30947e+06
-2.30831e+06
-2.30715e+06
-2.306e+06
-2.30484e+06
-2.30369e+06
-2.30253e+06
-2.30138e+06
-2.30023e+06
-2.29907e+06
-2.29792e+06
-2.29677e+06
-2.29561e+06
-2.29446e+06
-2.29331e+06
-2.29216e+06
-2.29101e+06
-2.28985e+06
-2.2887e+06
-2.28755e+06
-2.2864e+06
-2.28525e+06
-2.2841e+06
-2.28296e+06
-2.28181e+06
-2.28066e+06
-2.27951e+06
-2.27836e+06
-2.27722e+06
-2.27607e+06
-2.27492e+06
-2.27377e+06
-2.27263e+06
-2.27148e+06
-2.27034e+06
-2.26919e+06
-2.26805e+06
-2.2669e+06
-2.26576e+06
-2.26462e+06
-2.26347e+06
-2.26233e+06
-2.26119e+06
-2.26004e+06
-2.2589e+06
-2.25776e+06
-2.25662e+06
-2.25548e+06
-2.25434e+06
-2.2532e+06
-2.25206e+06
-2.25092e+06
-2.24978e+06
-2.24864e+06
-2.2475e+06
-2.24636e+06
-2.24522e+06
-2.24408e+06
-2.24295e+06
-2.24181e+06
-2.24067e+06
-2.23954e+06
-2.2384e+06
-2.23726e+06
-2.23613e+06
-2.23499e+06
-2.23386e+06
-2.23272e+06
-2.23159e+06
-2.23045e+06
-2.22932e+06
-2.22819e+06
-2.22705e+06
-2.22592e+06
-2.22479e+06
-2.22366e+06
-2.22253e+06
-2.22139e+06
-2.22026e+06
-2.21913e+06
-2.218e+06
-2.21687e+06
-2.21574e+06
-2.21461e+06
-2.21348e+06
-2.21235e+06
-2.21123e+06
-2.2101e+06
-2.20897e+06
-2.20784e+06
-2.20672e+06
-2.20559e+06
-2.20446e+06
-2.20334e+06
-2.20221e+06
-2.20108e+06
-2.19996e+06
-2.19883e+06
-2.19771e+06
-2.19659e+06
-2.19546e+06
-2.19434e+06
-2.19321e+06
-2.19209e+06
-2.19097e+06
-2.18985e+06
-2.18873e+06
-2.1876e+06
-2.18648e+06
-2.18536e+06
-2.18424e+06
-2.18312e+06
-2.182e+06
-2.18088e+06
-2.17976e+06
-2.17864e+06
-2.17752e+06
-2.1764e+06
-2.17529e+06
-2.17417e+06
-2.17305e+06
-2.17193e+06
-2.17082e+06
-2.1697e+06
-2.16858e+06
-2.16747e+06
-2.16635e+06
-2.16524e+06
-2.16412e+06
-2.16301e+06
-2.16189e+06
-2.16078e+06
-2.15967e+06
-2.15855e+06
-2.15744e+06
-2.15633e+06
-2.15522e+06
-2.1541e+06
-2.15299e+06
-2.15188e+06
-2.15077e+06
-2.14966e+06
-2.14855e+06
-2.14744e+06
-2.14633e+06
-2.14522e+06
-2.14411e+06
-2.143e+06
-2.14189e+06
-2.14078e+06
-2.13968e+06
-2.13857e+06
-2.13746e+06
-2.13635e+06
-2.13525e+06
-2.13414e+06
-2.13304e+06
-2.13193e+06
-2.13083e+06
-2.12972e+06
-2.12862e+06
-2.12751e+06
-2.12641e+06
-2.1253e+06
-2.1242e+06
-2.1231e+06
-2.12199e+06
-2.12089e+06
-2.11979e+06
-2.11869e+06
-2.11759e+06
-2.11649e+06
-2.11538e+06
-2.11428e+06
-2.11318e+06
-2.11208e+06
-2.11098e+06
-2.10989e+06
-2.10879e+06
-2.10769e+06
-2.10659e+06
-2.10549e+06
-2.10439e+06
-2.1033e+06
-2.1022e+06
-2.1011e+06
-2.10001e+06
-2.09891e+06
-2.09782e+06
-2.09672e+06
-2.09562e+06
-2.09453e+06
-2.09344e+06
-2.09234e+06
-2.09125e+06
-2.09015e+06
-2.08906e+06
-2.08797e+06
-2.08688e+06
-2.08578e+06
-2.08469e+06
-2.0836e+06
-2.08251e+06
-2.08142e+06
-2.08033e+06
-2.07924e+06
-2.07815e+06
-2.07706e+06
-2.07597e+06
-2.07488e+06
-2.07379e+06
-2.0727e+06
-2.07161e+06
-2.07053e+06
-2.06944e+06
-2.06835e+06
-2.06726e+06
-2.06618e+06
-2.06509e+06
-2.06401e+06
-2.06292e+06
-2.06183e+06
-2.06075e+06
-2.05966e+06
-2.05858e+06
-2.0575e+06
-2.05641e+06
-2.05533e+06
-2.05425e+06
-2.05316e+06
-2.05208e+06
-2.051e+06
-2.04992e+06
-2.04884e+06
-2.04775e+06
-2.04667e+06
-2.04559e+06
-2.04451e+06
-2.04343e+06
-2.04235e+06
-2.04127e+06
-2.04019e+06
-2.03912e+06
-2.03804e+06
-2.03696e+06
-2.03588e+06
-2.0348e+06
-2.03373e+06
-2.03265e+06
-2.03157e+06
-2.0305e+06
-2.02942e+06
-2.02835e+06
-2.02727e+06
-2.0262e+06
-2.02512e+06
-2.02405e+06
-2.02297e+06
-2.0219e+06
-2.02083e+06
-2.01975e+06
-2.01868e+06
-2.01761e+06
-2.01654e+06
-2.01547e+06
-2.01439e+06
-2.01332e+06
-2.01225e+06
-2.01118e+06
-2.01011e+06
-2.00904e+06
-2.00797e+06
-2.0069e+06
-2.00583e+06
-2.00476e+06
-2.0037e+06
-2.00263e+06
-2.00156e+06
-2.00049e+06
-1.99943e+06
-1.99836e+06
-1.99729e+06
-1.99623e+06
-1.99516e+06
-1.9941e+06
-1.99303e+06
-1.99196e+06
-1.9909e+06
-1.98984e+06
-1.98877e+06
-1.98771e+06
-1.98665e+06
-1.98558e+06
-1.98452e+06
-1.98346e+06
-1.98239e+06
-1.98133e+06
-1.98027e+06
-1.97921e+06
-1.97815e+06
-1.97709e+06
-1.97603e+06
-1.97497e+06
-1.97391e+06
-1.97285e+06
-1.97179e+06
-1.97073e+06
-1.96967e+06
-1.96862e+06
-1.96756e+06
-1.9665e+06
-1.96544e+06
-1.96439e+06
-1.96333e+06
-1.96227e+06
-1.96122e+06
-1.96016e+06
-1.95911e+06
-1.95805e+06
-1.957e+06
-1.95594e+06
-1.95489e+06
-1.95383e+06
-1.95278e+06
-1.95173e+06
-1.95068e+06
-1.94962e+06
-1.94857e+06
-1.94752e+06
-1.94647e+06
-1.94542e+06
-1.94436e+06
-1.94331e+06
-1.94226e+06
-1.94121e+06
-1.94016e+06
-1.93911e+06
-1.93807e+06
-1.93702e+06
-1.93597e+06
-1.93492e+06
-1.93387e+06
-1.93282e+06
-1.93178e+06
-1.93073e+06
-1.92968e+06
-1.92864e+06
-1.92759e+06
-1.92655e+06
-1.9255e+06
-1.92445e+06
-1.92341e+06
-1.92237e+06
-1.92132e+06
-1.92028e+06
-1.91923e+06
-1.91819e+06
-1.91715e+06
-1.9161e+06
-1.91506e+06
-1.91402e+06
-1.91298e+06
-1.91194e+06
-1.9109e+06
-1.90986e+06
-1.90881e+06
-1.90777e+06
-1.90673e+06
-1.90569e+06
-1.90466e+06
-1.90362e+06
-1.90258e+06
-1.90154e+06
-1.9005e+06
-1.89946e+06
-1.89843e+06
-1.89739e+06
-1.89635e+06
-1.89532e+06
-1.89428e+06
-1.89324e+06
-1.89221e+06
-1.89117e+06
-1.89014e+06
-1.8891e+06
-1.88807e+06
-1.88703e+06
-1.886e+06
-1.88497e+06
-1.88393e+06
-1.8829e+06
-1.88187e+06
-1.88084e+06
-1.8798e+06
-1.87877e+06
-1.87774e+06
-1.87671e+06
-1.87568e+06
-1.87465e+06
-1.87362e+06
-1.87259e+06
-1.87156e+06
-1.87053e+06