/*--------------------------------*- C++ -*----------------------------------*\
  =========                 |
  \\      /  F ield         | OpenFOAM: The Open Source CFD Toolbox
   \\    /   O peration     | Website:  https://openfoam.org
    \\  /    A nd           | Version:  9
     \\/     M anipulation  |
\*---------------------------------------------------------------------------*/
FoamFile
{
    format      ascii;
    class       volScalarField;
    location    "0.016";
    object      rho;
}
// * * * * * * * * * * * * * * * * * * * * * * * * * * * * * * * * * * * * * //

dimensions      [1 -3 0 0 0 0 0];

internalField   nonuniform List<scalar> 
10000
(
0.74558
0.745553
0.745527
0.745514
0.745508
0.745504
0.745501
0.745499
0.745496
0.745493
0.745491
0.745488
0.745485
0.745483
0.74548
0.745477
0.745474
0.745472
0.745469
0.745466
0.745463
0.745461
0.745458
0.745455
0.745452
0.745449
0.745446
0.745444
0.745441
0.745438
0.745435
0.745432
0.745429
0.745426
0.745424
0.745421
0.745418
0.745415
0.745412
0.745409
0.745406
0.745403
0.7454
0.745397
0.745394
0.745391
0.745388
0.745385
0.745382
0.745379
0.745376
0.745373
0.74537
0.745367
0.745364
0.745361
0.745358
0.745355
0.745351
0.745348
0.745345
0.745342
0.745339
0.745336
0.745333
0.745329
0.745326
0.745323
0.74532
0.745317
0.745314
0.74531
0.745307
0.745304
0.745301
0.745297
0.745294
0.745291
0.745288
0.745284
0.745281
0.745278
0.745274
0.745271
0.745268
0.745264
0.745261
0.745258
0.745254
0.745251
0.745248
0.745244
0.745241
0.745237
0.745234
0.745231
0.745227
0.745224
0.74522
0.745217
0.745213
0.74521
0.745206
0.745203
0.745199
0.745196
0.745192
0.745189
0.745185
0.745182
0.745178
0.745175
0.745171
0.745167
0.745164
0.74516
0.745157
0.745153
0.745149
0.745146
0.745142
0.745138
0.745135
0.745131
0.745127
0.745124
0.74512
0.745116
0.745113
0.745109
0.745105
0.745102
0.745098
0.745094
0.74509
0.745086
0.745083
0.745079
0.745075
0.745071
0.745067
0.745064
0.74506
0.745056
0.745052
0.745048
0.745044
0.745041
0.745037
0.745033
0.745029
0.745025
0.745021
0.745017
0.745013
0.745009
0.745005
0.745001
0.744997
0.744993
0.744989
0.744985
0.744981
0.744977
0.744973
0.744969
0.744965
0.744961
0.744957
0.744953
0.744949
0.744945
0.744941
0.744937
0.744933
0.744928
0.744924
0.74492
0.744916
0.744912
0.744908
0.744904
0.744899
0.744895
0.744891
0.744887
0.744883
0.744878
0.744874
0.74487
0.744866
0.744861
0.744857
0.744853
0.744849
0.744844
0.74484
0.744836
0.744831
0.744827
0.744823
0.744818
0.744814
0.74481
0.744805
0.744801
0.744796
0.744792
0.744788
0.744783
0.744779
0.744774
0.74477
0.744765
0.744761
0.744756
0.744752
0.744748
0.744743
0.744739
0.744734
0.744729
0.744725
0.74472
0.744716
0.744711
0.744707
0.744702
0.744698
0.744693
0.744688
0.744684
0.744679
0.744675
0.74467
0.744665
0.744661
0.744656
0.744651
0.744647
0.744642
0.744637
0.744632
0.744628
0.744623
0.744618
0.744614
0.744609
0.744604
0.744599
0.744594
0.74459
0.744585
0.74458
0.744575
0.74457
0.744566
0.744561
0.744556
0.744551
0.744546
0.744541
0.744536
0.744531
0.744527
0.744522
0.744517
0.744512
0.744507
0.744502
0.744497
0.744492
0.744487
0.744482
0.744477
0.744472
0.744467
0.744462
0.744457
0.744452
0.744447
0.744442
0.744437
0.744432
0.744427
0.744422
0.744416
0.744411
0.744406
0.744401
0.744396
0.744391
0.744386
0.74438
0.744375
0.74437
0.744365
0.74436
0.744355
0.744349
0.744344
0.744339
0.744334
0.744328
0.744323
0.744318
0.744313
0.744307
0.744302
0.744297
0.744291
0.744286
0.744281
0.744275
0.74427
0.744265
0.744259
0.744254
0.744249
0.744243
0.744238
0.744232
0.744227
0.744221
0.744216
0.744211
0.744205
0.7442
0.744194
0.744189
0.744183
0.744178
0.744172
0.744167
0.744161
0.744156
0.74415
0.744144
0.744139
0.744133
0.744128
0.744122
0.744117
0.744111
0.744105
0.7441
0.744094
0.744088
0.744083
0.744077
0.744071
0.744066
0.74406
0.744054
0.744049
0.744043
0.744037
0.744031
0.744026
0.74402
0.744014
0.744008
0.744003
0.743997
0.743991
0.743985
0.743979
0.743974
0.743968
0.743962
0.743956
0.74395
0.743944
0.743938
0.743933
0.743927
0.743921
0.743915
0.743909
0.743903
0.743897
0.743891
0.743885
0.743879
0.743873
0.743867
0.743861
0.743855
0.743849
0.743843
0.743837
0.743831
0.743825
0.743819
0.743813
0.743807
0.743801
0.743795
0.743788
0.743782
0.743776
0.74377
0.743764
0.743758
0.743752
0.743745
0.743739
0.743733
0.743727
0.743721
0.743714
0.743708
0.743702
0.743696
0.743689
0.743683
0.743677
0.743671
0.743664
0.743658
0.743652
0.743645
0.743639
0.743633
0.743626
0.74362
0.743614
0.743607
0.743601
0.743594
0.743588
0.743582
0.743575
0.743569
0.743562
0.743556
0.743549
0.743543
0.743537
0.74353
0.743524
0.743517
0.743511
0.743504
0.743497
0.743491
0.743484
0.743478
0.743471
0.743465
0.743458
0.743452
0.743445
0.743438
0.743432
0.743425
0.743418
0.743412
0.743405
0.743398
0.743392
0.743385
0.743378
0.743372
0.743365
0.743358
0.743351
0.743345
0.743338
0.743331
0.743324
0.743318
0.743311
0.743304
0.743297
0.74329
0.743284
0.743277
0.74327
0.743263
0.743256
0.743249
0.743242
0.743236
0.743229
0.743222
0.743215
0.743208
0.743201
0.743194
0.743187
0.74318
0.743173
0.743166
0.743159
0.743152
0.743145
0.743138
0.743131
0.743124
0.743117
0.74311
0.743103
0.743096
0.743089
0.743081
0.743074
0.743067
0.74306
0.743053
0.743046
0.743039
0.743032
0.743024
0.743017
0.74301
0.743003
0.742996
0.742988
0.742981
0.742974
0.742967
0.742959
0.742952
0.742945
0.742938
0.74293
0.742923
0.742916
0.742908
0.742901
0.742894
0.742886
0.742879
0.742871
0.742864
0.742857
0.742849
0.742842
0.742834
0.742827
0.74282
0.742812
0.742805
0.742797
0.74279
0.742782
0.742775
0.742767
0.74276
0.742752
0.742745
0.742737
0.74273
0.742722
0.742714
0.742707
0.742699
0.742692
0.742684
0.742676
0.742669
0.742661
0.742653
0.742646
0.742638
0.74263
0.742623
0.742615
0.742607
0.7426
0.742592
0.742584
0.742576
0.742569
0.742561
0.742553
0.742545
0.742538
0.74253
0.742522
0.742514
0.742506
0.742498
0.742491
0.742483
0.742475
0.742467
0.742459
0.742451
0.742443
0.742435
0.742427
0.742419
0.742411
0.742403
0.742395
0.742387
0.742379
0.742371
0.742363
0.742355
0.742347
0.742339
0.742331
0.742323
0.742315
0.742307
0.742299
0.742291
0.742283
0.742275
0.742267
0.742258
0.74225
0.742242
0.742234
0.742226
0.742218
0.742209
0.742201
0.742193
0.742185
0.742176
0.742168
0.74216
0.742152
0.742143
0.742135
0.742127
0.742118
0.74211
0.742102
0.742093
0.742085
0.742077
0.742068
0.74206
0.742052
0.742043
0.742035
0.742026
0.742018
0.74201
0.742001
0.741993
0.741984
0.741976
0.741967
0.741959
0.74195
0.741942
0.741933
0.741925
0.741916
0.741907
0.741899
0.74189
0.741882
0.741873
0.741864
0.741856
0.741847
0.741839
0.74183
0.741821
0.741813
0.741804
0.741795
0.741786
0.741778
0.741769
0.74176
0.741752
0.741743
0.741734
0.741725
0.741716
0.741708
0.741699
0.74169
0.741681
0.741672
0.741663
0.741655
0.741646
0.741637
0.741628
0.741619
0.74161
0.741601
0.741592
0.741583
0.741574
0.741565
0.741556
0.741547
0.741538
0.741529
0.74152
0.741511
0.741502
0.741493
0.741484
0.741475
0.741466
0.741457
0.741448
0.741439
0.74143
0.74142
0.741411
0.741402
0.741393
0.741384
0.741375
0.741365
0.741356
0.741347
0.741338
0.741328
0.741319
0.74131
0.741301
0.741291
0.741282
0.741273
0.741263
0.741254
0.741245
0.741235
0.741226
0.741217
0.741207
0.741198
0.741188
0.741179
0.741169
0.74116
0.741151
0.741141
0.741132
0.741122
0.741113
0.741103
0.741094
0.741084
0.741074
0.741065
0.741055
0.741046
0.741036
0.741026
0.741017
0.741007
0.740998
0.740988
0.740978
0.740969
0.740959
0.740949
0.740939
0.74093
0.74092
0.74091
0.740901
0.740891
0.740881
0.740871
0.740861
0.740852
0.740842
0.740832
0.740822
0.740812
0.740802
0.740792
0.740782
0.740773
0.740763
0.740753
0.740743
0.740733
0.740723
0.740713
0.740703
0.740693
0.740683
0.740673
0.740663
0.740653
0.740643
0.740632
0.740622
0.740612
0.740602
0.740592
0.740582
0.740572
0.740561
0.740551
0.740541
0.740531
0.740521
0.74051
0.7405
0.74049
0.74048
0.740469
0.740459
0.740449
0.740438
0.740428
0.740418
0.740407
0.740397
0.740386
0.740376
0.740366
0.740355
0.740345
0.740334
0.740324
0.740313
0.740303
0.740292
0.740282
0.740271
0.740261
0.74025
0.740239
0.740229
0.740218
0.740208
0.740197
0.740186
0.740176
0.740165
0.740154
0.740144
0.740133
0.740122
0.740111
0.740101
0.74009
0.740079
0.740068
0.740057
0.740047
0.740036
0.740025
0.740014
0.740003
0.739992
0.739981
0.73997
0.739959
0.739948
0.739937
0.739926
0.739915
0.739904
0.739893
0.739882
0.739871
0.73986
0.739849
0.739838
0.739827
0.739815
0.739804
0.739793
0.739782
0.739771
0.739759
0.739748
0.739737
0.739726
0.739714
0.739703
0.739692
0.73968
0.739669
0.739657
0.739646
0.739635
0.739623
0.739612
0.7396
0.739589
0.739577
0.739566
0.739554
0.739543
0.739531
0.73952
0.739508
0.739496
0.739485
0.739473
0.739461
0.73945
0.739438
0.739426
0.739414
0.739403
0.739391
0.739379
0.739367
0.739355
0.739344
0.739332
0.73932
0.739308
0.739296
0.739284
0.739272
0.73926
0.739248
0.739236
0.739224
0.739212
0.7392
0.739188
0.739176
0.739164
0.739151
0.739139
0.739127
0.739115
0.739103
0.73909
0.739078
0.739066
0.739054
0.739041
0.739029
0.739016
0.739004
0.738992
0.738979
0.738967
0.738954
0.738942
0.738929
0.738917
0.738904
0.738892
0.738879
0.738866
0.738854
0.738841
0.738828
0.738816
0.738803
0.73879
0.738777
0.738764
0.738752
0.738739
0.738726
0.738713
0.7387
0.738687
0.738674
0.738661
0.738648
0.738635
0.738622
0.738609
0.738596
0.738583
0.738569
0.738556
0.738543
0.73853
0.738516
0.738503
0.73849
0.738476
0.738463
0.73845
0.738436
0.738423
0.738409
0.738396
0.738382
0.738368
0.738355
0.738341
0.738327
0.738314
0.7383
0.738286
0.738272
0.738259
0.738245
0.738231
0.738217
0.738203
0.738189
0.738175
0.738161
0.738147
0.738132
0.738118
0.738104
0.73809
0.738075
0.738061
0.738047
0.738032
0.738018
0.738003
0.737989
0.737974
0.737959
0.737945
0.73793
0.737915
0.7379
0.737885
0.73787
0.737855
0.73784
0.737825
0.73781
0.737795
0.73778
0.737764
0.737749
0.737733
0.737718
0.737702
0.737687
0.737671
0.737655
0.737639
0.737623
0.737607
0.737591
0.737575
0.737559
0.737543
0.737526
0.73751
0.737493
0.737477
0.73746
0.737443
0.737426
0.737409
0.737392
0.737375
0.737357
0.73734
0.737322
0.737305
0.737287
0.737269
0.737251
0.737232
0.737214
0.737195
0.737177
0.737158
0.737139
0.73712
0.7371
0.737081
0.737061
0.737041
0.737021
0.737
0.73698
0.736959
0.736938
0.736916
0.736895
0.736873
0.736851
0.736828
0.736805
0.736782
0.736759
0.736735
0.736711
0.736686
0.736661
0.736636
0.73661
0.736583
0.736557
0.736529
0.736501
0.736473
0.736444
0.736414
0.736384
0.736353
0.736322
0.736289
0.736256
0.736223
0.736188
0.736153
0.736116
0.736079
0.736041
0.736002
0.735962
0.735921
0.735878
0.735835
0.735791
0.735745
0.735698
0.73565
0.735601
0.73555
0.735498
0.735445
0.73539
0.735334
0.735277
0.735218
0.735158
0.735096
0.735033
0.734968
0.734902
0.734834
0.734765
0.734694
0.734622
0.734549
0.734474
0.734397
0.734319
0.73424
0.73416
0.734078
0.733994
0.73391
0.733824
0.733737
0.733649
0.733559
0.733469
0.733378
0.733285
0.733191
0.733097
0.733002
0.732905
0.732808
0.732711
0.732612
0.732513
0.732413
0.732312
0.732211
0.732109
0.732007
0.731905
0.731801
0.731698
0.731594
0.73149
0.731385
0.73128
0.731175
0.73107
0.730964
0.730858
0.730752
0.730646
0.73054
0.730433
0.730326
0.73022
0.730113
0.730006
0.729899
0.729791
0.729684
0.729577
0.72947
0.729362
0.729255
0.729148
0.72904
0.728933
0.728825
0.728718
0.72861
0.728502
0.728395
0.728287
0.72818
0.728072
0.727965
0.727857
0.72775
0.727642
0.727535
0.727427
0.727319
0.727212
0.727104
0.726997
0.726889
0.726782
0.726674
0.726567
0.72646
0.726352
0.726245
0.726137
0.72603
0.725923
0.725815
0.725708
0.7256
0.725493
0.725386
0.725278
0.725171
0.725064
0.724957
0.724849
0.724742
0.724635
0.724528
0.72442
0.724313
0.724206
0.724099
0.723992
0.723884
0.723777
0.72367
0.723563
0.723456
0.723349
0.723242
0.723135
0.723028
0.722921
0.722814
0.722707
0.7226
0.722493
0.722386
0.722279
0.722172
0.722065
0.721958
0.721851
0.721744
0.721637
0.72153
0.721423
0.721317
0.72121
0.721103
0.720996
0.720889
0.720782
0.720676
0.720569
0.720462
0.720355
0.720249
0.720142
0.720035
0.719929
0.719822
0.719715
0.719609
0.719502
0.719395
0.719289
0.719182
0.719076
0.718969
0.718862
0.718756
0.718649
0.718543
0.718436
0.71833
0.718223
0.718117
0.71801
0.717904
0.717798
0.717691
0.717585
0.717478
0.717372
0.717266
0.717159
0.717053
0.716947
0.71684
0.716734
0.716628
0.716521
0.716415
0.716309
0.716203
0.716096
0.71599
0.715884
0.715778
0.715672
0.715565
0.715459
0.715353
0.715247
0.715141
0.715035
0.714929
0.714823
0.714717
0.71461
0.714504
0.714398
0.714292
0.714186
0.71408
0.713974
0.713868
0.713762
0.713657
0.713551
0.713445
0.713339
0.713233
0.713127
0.713021
0.712915
0.712809
0.712704
0.712598
0.712492
0.712386
0.71228
0.712175
0.712069
0.711963
0.711857
0.711752
0.711646
0.71154
0.711435
0.711329
0.711223
0.711118
0.711012
0.710906
0.710801
0.710695
0.71059
0.710484
0.710379
0.710273
0.710167
0.710062
0.709956
0.709851
0.709746
0.70964
0.709535
0.709429
0.709324
0.709218
0.709113
0.709008
0.708902
0.708797
0.708691
0.708586
0.708481
0.708375
0.70827
0.708165
0.70806
0.707954
0.707849
0.707744
0.707639
0.707533
0.707428
0.707323
0.707218
0.707113
0.707007
0.706902
0.706797
0.706692
0.706587
0.706482
0.706377
0.706272
0.706167
0.706062
0.705957
0.705852
0.705747
0.705642
0.705537
0.705432
0.705327
0.705222
0.705117
0.705012
0.704907
0.704802
0.704697
0.704592
0.704488
0.704383
0.704278
0.704173
0.704068
0.703964
0.703859
0.703754
0.703649
0.703544
0.70344
0.703335
0.70323
0.703126
0.703021
0.702916
0.702812
0.702707
0.702602
0.702498
0.702393
0.702289
0.702184
0.702079
0.701975
0.70187
0.701766
0.701661
0.701557
0.701452
0.701348
0.701243
0.701139
0.701034
0.70093
0.700826
0.700721
0.700617
0.700512
0.700408
0.700304
0.700199
0.700095
0.699991
0.699886
0.699782
0.699678
0.699574
0.699469
0.699365
0.699261
0.699157
0.699052
0.698948
0.698844
0.69874
0.698636
0.698532
0.698427
0.698323
0.698219
0.698115
0.698011
0.697907
0.697803
0.697699
0.697595
0.697491
0.697387
0.697283
0.697179
0.697075
0.696971
0.696867
0.696763
0.696659
0.696555
0.696451
0.696347
0.696244
0.69614
0.696036
0.695932
0.695828
0.695724
0.695621
0.695517
0.695413
0.695309
0.695206
0.695102
0.694998
0.694894
0.694791
0.694687
0.694583
0.69448
0.694376
0.694272
0.694169
0.694065
0.693962
0.693858
0.693754
0.693651
0.693547
0.693444
0.69334
0.693237
0.693133
0.69303
0.692926
0.692823
0.692719
0.692616
0.692513
0.692409
0.692306
0.692202
0.692099
0.691996
0.691892
0.691789
0.691686
0.691582
0.691479
0.691376
0.691272
0.691169
0.691066
0.690963
0.690859
0.690756
0.690653
0.69055
0.690447
0.690343
0.69024
0.690137
0.690034
0.689931
0.689828
0.689725
0.689622
0.689519
0.689416
0.689313
0.689209
0.689106
0.689003
0.6889
0.688797
0.688695
0.688592
0.688489
0.688386
0.688283
0.68818
0.688077
0.687974
0.687871
0.687768
0.687666
0.687563
0.68746
0.687357
0.687254
0.687151
0.687049
0.686946
0.686843
0.68674
0.686638
0.686535
0.686432
0.68633
0.686227
0.686124
0.686022
0.685919
0.685816
0.685714
0.685611
0.685509
0.685406
0.685303
0.685201
0.685098
0.684996
0.684893
0.684791
0.684688
0.684586
0.684483
0.684381
0.684279
0.684176
0.684074
0.683971
0.683869
0.683767
0.683664
0.683562
0.683459
0.683357
0.683255
0.683153
0.68305
0.682948
0.682846
0.682743
0.682641
0.682539
0.682437
0.682335
0.682232
0.68213
0.682028
0.681926
0.681824
0.681722
0.681619
0.681517
0.681415
0.681313
0.681211
0.681109
0.681007
0.680905
0.680803
0.680701
0.680599
0.680497
0.680395
0.680293
0.680191
0.680089
0.679987
0.679885
0.679783
0.679681
0.67958
0.679478
0.679376
0.679274
0.679172
0.67907
0.678969
0.678867
0.678765
0.678663
0.678562
0.67846
0.678358
0.678256
0.678155
0.678053
0.677951
0.67785
0.677748
0.677646
0.677545
0.677443
0.677341
0.67724
0.677138
0.677037
0.676935
0.676834
0.676732
0.676631
0.676529
0.676428
0.676326
0.676225
0.676123
0.676022
0.67592
0.675819
0.675717
0.675616
0.675515
0.675413
0.675312
0.67521
0.675109
0.675008
0.674907
0.674805
0.674704
0.674603
0.674501
0.6744
0.674299
0.674198
0.674096
0.673995
0.673894
0.673793
0.673692
0.673591
0.673489
0.673388
0.673287
0.673186
0.673085
0.672984
0.672883
0.672782
0.672681
0.67258
0.672479
0.672378
0.672277
0.672176
0.672075
0.671974
0.671873
0.671772
0.671671
0.67157
0.671469
0.671368
0.671267
0.671166
0.671066
0.670965
0.670864
0.670763
0.670662
0.670561
0.670461
0.67036
0.670259
0.670158
0.670058
0.669957
0.669856
0.669756
0.669655
0.669554
0.669454
0.669353
0.669252
0.669152
0.669051
0.66895
0.66885
0.668749
0.668649
0.668548
0.668448
0.668347
0.668247
0.668146
0.668046
0.667945
0.667845
0.667744
0.667644
0.667543
0.667443
0.667343
0.667242
0.667142
0.667041
0.666941
0.666841
0.66674
0.66664
0.66654
0.666439
0.666339
0.666239
0.666139
0.666038
0.665938
0.665838
0.665738
0.665637
0.665537
0.665437
0.665337
0.665237
0.665137
0.665037
0.664936
0.664836
0.664736
0.664636
0.664536
0.664436
0.664336
0.664236
0.664136
0.664036
0.663936
0.663836
0.663736
0.663636
0.663536
0.663436
0.663336
0.663236
0.663136
0.663037
0.662937
0.662837
0.662737
0.662637
0.662537
0.662437
0.662338
0.662238
0.662138
0.662038
0.661939
0.661839
0.661739
0.661639
0.66154
0.66144
0.66134
0.661241
0.661141
0.661041
0.660942
0.660842
0.660742
0.660643
0.660543
0.660444
0.660344
0.660245
0.660145
0.660046
0.659946
0.659847
0.659747
0.659648
0.659548
0.659449
0.659349
0.65925
0.65915
0.659051
0.658952
0.658852
0.658753
0.658653
0.658554
0.658455
0.658355
0.658256
0.658157
0.658058
0.657958
0.657859
0.65776
0.657661
0.657561
0.657462
0.657363
0.657264
0.657165
0.657065
0.656966
0.656867
0.656768
0.656669
0.65657
0.656471
0.656372
0.656273
0.656173
0.656074
0.655975
0.655876
0.655777
0.655678
0.655579
0.65548
0.655381
0.655282
0.655184
0.655085
0.654986
0.654887
0.654788
0.654689
0.65459
0.654491
0.654392
0.654294
0.654195
0.654096
0.653997
0.653898
0.6538
0.653701
0.653602
0.653503
0.653405
0.653306
0.653207
0.653109
0.65301
0.652911
0.652813
0.652714
0.652615
0.652517
0.652418
0.65232
0.652221
0.652122
0.652024
0.651925
0.651827
0.651728
0.65163
0.651531
0.651433
0.651334
0.651236
0.651137
0.651039
0.650941
0.650842
0.650744
0.650645
0.650547
0.650449
0.65035
0.650252
0.650154
0.650055
0.649957
0.649859
0.64976
0.649662
0.649564
0.649466
0.649367
0.649269
0.649171
0.649073
0.648975
0.648876
0.648778
0.64868
0.648582
0.648484
0.648386
0.648288
0.648189
0.648091
0.647993
0.647895
0.647797
0.647699
0.647601
0.647503
0.647405
0.647307
0.647209
0.647111
0.647013
0.646915
0.646817
0.64672
0.646622
0.646524
0.646426
0.646328
0.64623
0.646132
0.646035
0.645937
0.645839
0.645741
0.645643
0.645546
0.645448
0.64535
0.645252
0.645155
0.645057
0.644959
0.644861
0.644764
0.644666
0.644569
0.644471
0.644373
0.644276
0.644178
0.64408
0.643983
0.643885
0.643788
0.64369
0.643593
0.643495
0.643398
0.6433
0.643203
0.643105
0.643008
0.64291
0.642813
0.642715
0.642618
0.642521
0.642423
0.642326
0.642228
0.642131
0.642034
0.641936
0.641839
0.641742
0.641644
0.641547
0.64145
0.641353
0.641255
0.641158
0.641061
0.640964
0.640867
0.640769
0.640672
0.640575
0.640478
0.640381
0.640284
0.640186
0.640089
0.639992
0.639895
0.639798
0.639701
0.639604
0.639507
0.63941
0.639313
0.639216
0.639119
0.639022
0.638925
0.638828
0.638731
0.638634
0.638537
0.63844
0.638343
0.638247
0.63815
0.638053
0.637956
0.637859
0.637762
0.637665
0.637569
0.637472
0.637375
0.637278
0.637182
0.637085
0.636988
0.636891
0.636795
0.636698
0.636601
0.636505
0.636408
0.636311
0.636215
0.636118
0.636021
0.635925
0.635828
0.635732
0.635635
0.635539
0.635442
0.635346
0.635249
0.635153
0.635056
0.63496
0.634863
0.634767
0.63467
0.634574
0.634477
0.634381
0.634284
0.634188
0.634092
0.633995
0.633899
0.633803
0.633706
0.63361
0.633514
0.633417
0.633321
0.633225
0.633129
0.633032
0.632936
0.63284
0.632744
0.632647
0.632551
0.632455
0.632359
0.632263
0.632167
0.63207
0.631974
0.631878
0.631782
0.631686
0.63159
0.631494
0.631398
0.631302
0.631206
0.63111
0.631014
0.630918
0.630822
0.630726
0.63063
0.630534
0.630438
0.630342
0.630246
0.63015
0.630054
0.629959
0.629863
0.629767
0.629671
0.629575
0.629479
0.629384
0.629288
0.629192
0.629096
0.629
0.628905
0.628809
0.628713
0.628618
0.628522
0.628426
0.628331
0.628235
0.628139
0.628044
0.627948
0.627852
0.627757
0.627661
0.627566
0.62747
0.627374
0.627279
0.627183
0.627088
0.626992
0.626897
0.626801
0.626706
0.62661
0.626515
0.626419
0.626324
0.626229
0.626133
0.626038
0.625942
0.625847
0.625752
0.625656
0.625561
0.625466
0.62537
0.625275
0.62518
0.625085
0.624989
0.624894
0.624799
0.624704
0.624608
0.624513
0.624418
0.624323
0.624228
0.624132
0.624037
0.623942
0.623847
0.623752
0.623657
0.623562
0.623467
0.623371
0.623276
0.623181
0.623086
0.622991
0.622896
0.622801
0.622706
0.622611
0.622516
0.622421
0.622327
0.622232
0.622137
0.622042
0.621947
0.621852
0.621757
0.621662
0.621568
0.621472
0.621378
0.621283
0.621188
0.621093
0.620999
0.620903
0.62081
0.620714
0.62062
0.620524
0.620431
0.620334
0.620243
0.620144
0.620054
0.619954
0.619865
0.619764
0.619677
0.619574
0.619488
0.619384
0.6193
0.619194
0.619112
0.619005
0.618923
0.618816
0.618734
0.618627
0.618544
0.618439
0.618354
0.618251
0.618163
0.618064
0.617972
0.617878
0.617782
0.617691
0.617591
0.617504
0.617401
0.617316
0.617212
0.617127
0.617025
0.616937
0.616838
0.616746
0.616652
0.616556
0.616465
0.616365
0.616278
0.616176
0.61609
0.615989
0.6159
0.615802
0.61571
0.615616
0.615519
0.61543
0.61533
0.615242
0.615142
0.615054
0.614955
0.614864
0.614769
0.614673
0.614583
0.614484
0.614396
0.614296
0.614207
0.61411
0.614017
0.613924
0.613827
0.613738
0.613639
0.61355
0.613451
0.613361
0.613266
0.613172
0.61308
0.612982
0.612894
0.612795
0.612705
0.612609
0.612516
0.612423
0.612326
0.612237
0.612139
0.612049
0.611953
0.61186
0.611767
0.611671
0.611581
0.611483
0.611394
0.611297
0.611205
0.611112
0.611016
0.610926
0.610829
0.610738
0.610643
0.61055
0.610458
0.610361
0.610272
0.610175
0.610084
0.609989
0.609895
0.609804
0.609707
0.609617
0.609521
0.609429
0.609336
0.609241
0.609151
0.609054
0.608963
0.608869
0.608775
0.608684
0.608588
0.608497
0.608402
0.60831
0.608217
0.608122
0.608032
0.607935
0.607844
0.607751
0.607656
0.607566
0.60747
0.607379
0.607285
0.607191
0.6071
0.607004
0.606914
0.606819
0.606726
0.606634
0.606539
0.606449
0.606354
0.606262
0.606169
0.606074
0.605984
0.605889
0.605797
0.605704
0.60561
0.60552
0.605424
0.605333
0.60524
0.605146
0.605055
0.60496
0.604869
0.604776
0.604682
0.604591
0.604496
0.604405
0.604312
0.604218
0.604128
0.604033
0.603942
0.603849
0.603755
0.603664
0.603569
0.603478
0.603385
0.603292
0.603201
0.603107
0.603015
0.602923
0.602829
0.602738
0.602644
0.602552
0.60246
0.602366
0.602276
0.602182
0.60209
0.601998
0.601904
0.601813
0.60172
0.601627
0.601536
0.601442
0.601351
0.601258
0.601165
0.601074
0.60098
0.600889
0.600797
0.600704
0.600613
0.600519
0.600428
0.600336
0.600242
0.600152
0.600058
0.599966
0.599875
0.599781
0.59969
0.599598
0.599505
0.599414
0.599321
0.599229
0.599137
0.599044
0.598954
0.598861
0.598769
0.598677
0.598584
0.598493
0.598401
0.598308
0.598218
0.598124
0.598033
0.597941
0.597848
0.597758
0.597665
0.597573
0.597482
0.597389
0.597298
0.597206
0.597113
0.597023
0.59693
0.596838
0.596747
0.596654
0.596564
0.596472
0.596379
0.596289
0.596196
0.596104
0.596013
0.595921
0.59583
0.595738
0.595646
0.595555
0.595462
0.595371
0.59528
0.595187
0.595097
0.595005
0.594913
0.594822
0.59473
0.594638
0.594547
0.594455
0.594364
0.594273
0.594181
0.59409
0.593998
0.593907
0.593816
0.593723
0.593633
0.593541
0.593449
0.593359
0.593267
0.593175
0.593085
0.592993
0.592902
0.592811
0.592719
0.592628
0.592536
0.592445
0.592354
0.592262
0.592171
0.592081
0.591989
0.591898
0.591807
0.591715
0.591625
0.591533
0.591442
0.591351
0.591259
0.591169
0.591078
0.590986
0.590895
0.590804
0.590713
0.590622
0.590531
0.59044
0.590349
0.590258
0.590167
0.590076
0.589985
0.589894
0.589804
0.589712
0.589622
0.589531
0.589439
0.589349
0.589258
0.589167
0.589077
0.588985
0.588895
0.588804
0.588713
0.588622
0.588531
0.58844
0.58835
0.588259
0.588168
0.588078
0.587987
0.587896
0.587806
0.587715
0.587624
0.587534
0.587443
0.587352
0.587262
0.587171
0.587081
0.58699
0.586899
0.586809
0.586718
0.586628
0.586537
0.586446
0.586356
0.586266
0.586175
0.586085
0.585994
0.585903
0.585813
0.585723
0.585632
0.585542
0.585452
0.585361
0.585271
0.58518
0.58509
0.585
0.584909
0.584819
0.584729
0.584638
0.584548
0.584458
0.584367
0.584278
0.584187
0.584097
0.584007
0.583917
0.583826
0.583736
0.583646
0.583556
0.583466
0.583375
0.583285
0.583195
0.583105
0.583015
0.582925
0.582835
0.582745
0.582655
0.582565
0.582475
0.582385
0.582295
0.582205
0.582115
0.582025
0.581935
0.581845
0.581755
0.581665
0.581575
0.581485
0.581395
0.581305
0.581215
0.581126
0.581036
0.580946
0.580856
0.580766
0.580676
0.580587
0.580497
0.580407
0.580318
0.580228
0.580138
0.580048
0.579958
0.579869
0.579779
0.579689
0.5796
0.57951
0.57942
0.579331
0.579241
0.579151
0.579062
0.578972
0.578883
0.578793
0.578704
0.578614
0.578525
0.578435
0.578345
0.578256
0.578167
0.578077
0.577988
0.577898
0.577809
0.577719
0.57763
0.57754
0.577451
0.577362
0.577272
0.577183
0.577094
0.577004
0.576915
0.576826
0.576736
0.576647
0.576558
0.576468
0.576379
0.57629
0.5762
0.576111
0.576022
0.575933
0.575844
0.575754
0.575665
0.575576
0.575487
0.575398
0.575309
0.57522
0.57513
0.575041
0.574952
0.574863
0.574774
0.574685
0.574596
0.574507
0.574418
0.574329
0.57424
0.574151
0.574062
0.573973
0.573884
0.573795
0.573706
0.573617
0.573528
0.573439
0.573351
0.573262
0.573173
0.573084
0.572995
0.572906
0.572817
0.572728
0.57264
0.572551
0.572462
0.572373
0.572285
0.572196
0.572107
0.572018
0.57193
0.571841
0.571752
0.571664
0.571575
0.571486
0.571398
0.571309
0.57122
0.571132
0.571043
0.570955
0.570866
0.570777
0.570689
0.5706
0.570512
0.570423
0.570335
0.570246
0.570158
0.570069
0.569981
0.569892
0.569804
0.569715
0.569627
0.569539
0.56945
0.569362
0.569273
0.569185
0.569097
0.569008
0.56892
0.568832
0.568743
0.568655
0.568567
0.568479
0.56839
0.568302
0.568214
0.568125
0.568037
0.567949
0.567861
0.567773
0.567684
0.567596
0.567508
0.56742
0.567332
0.567244
0.567156
0.567067
0.566979
0.566891
0.566803
0.566715
0.566627
0.566539
0.566451
0.566363
0.566275
0.566187
0.566099
0.566011
0.565923
0.565835
0.565747
0.565659
0.565571
0.565483
0.565396
0.565308
0.56522
0.565132
0.565044
0.564956
0.564868
0.564781
0.564693
0.564605
0.564517
0.564429
0.564342
0.564254
0.564166
0.564078
0.563991
0.563903
0.563815
0.563728
0.56364
0.563552
0.563465
0.563377
0.563289
0.563202
0.563114
0.563026
0.562939
0.562851
0.562764
0.562676
0.562589
0.562501
0.562414
0.562326
0.562239
0.562151
0.562064
0.561976
0.561889
0.561801
0.561714
0.561626
0.561539
0.561452
0.561364
0.561277
0.561189
0.561102
0.561015
0.560927
0.56084
0.560753
0.560665
0.560578
0.560491
0.560404
0.560316
0.560229
0.560142
0.560055
0.559967
0.55988
0.559793
0.559706
0.559619
0.559531
0.559444
0.559357
0.55927
0.559183
0.559096
0.559009
0.558922
0.558835
0.558747
0.55866
0.558573
0.558486
0.558399
0.558312
0.558225
0.558138
0.558051
0.557964
0.557877
0.557791
0.557704
0.557617
0.55753
0.557443
0.557356
0.557269
0.557182
0.557095
0.557009
0.556922
0.556835
0.556748
0.556661
0.556574
0.556488
0.556401
0.556314
0.556227
0.556141
0.556054
0.555967
0.555881
0.555794
0.555707
0.555621
0.555534
0.555447
0.555361
0.555274
0.555187
0.555101
0.555014
0.554928
0.554841
0.554754
0.554668
0.554581
0.554495
0.554408
0.554322
0.554235
0.554149
0.554062
0.553976
0.553889
0.553803
0.553717
0.55363
0.553544
0.553457
0.553371
0.553285
0.553198
0.553112
0.553026
0.552939
0.552853
0.552767
0.55268
0.552594
0.552508
0.552421
0.552335
0.552249
0.552163
0.552076
0.55199
0.551904
0.551818
0.551732
0.551646
0.551559
0.551473
0.551387
0.551301
0.551215
0.551129
0.551043
0.550957
0.550871
0.550784
0.550698
0.550612
0.550526
0.55044
0.550354
0.550268
0.550182
0.550096
0.55001
0.549924
0.549838
0.549753
0.549667
0.549581
0.549495
0.549409
0.549323
0.549237
0.549151
0.549066
0.54898
0.548894
0.548808
0.548722
0.548636
0.548551
0.548465
0.548379
0.548293
0.548208
0.548122
0.548036
0.547951
0.547865
0.547779
0.547694
0.547608
0.547522
0.547437
0.547351
0.547265
0.54718
0.547094
0.547009
0.546923
0.546837
0.546752
0.546666
0.546581
0.546495
0.54641
0.546324
0.546239
0.546153
0.546068
0.545982
0.545897
0.545812
0.545726
0.545641
0.545555
0.54547
0.545385
0.545299
0.545214
0.545128
0.545043
0.544958
0.544873
0.544787
0.544702
0.544617
0.544531
0.544446
0.544361
0.544276
0.54419
0.544105
0.54402
0.543935
0.54385
0.543764
0.543679
0.543594
0.543509
0.543424
0.543339
0.543254
0.543169
0.543083
0.542998
0.542913
0.542828
0.542743
0.542658
0.542573
0.542488
0.542403
0.542318
0.542233
0.542148
0.542063
0.541978
0.541893
0.541809
0.541724
0.541639
0.541554
0.541469
0.541384
0.541299
0.541214
0.54113
0.541045
0.54096
0.540875
0.54079
0.540706
0.540621
0.540536
0.540451
0.540366
0.540282
0.540197
0.540112
0.540028
0.539943
0.539858
0.539774
0.539689
0.539604
0.53952
0.539435
0.53935
0.539266
0.539181
0.539097
0.539012
0.538928
0.538843
0.538758
0.538674
0.538589
0.538505
0.53842
0.538336
0.538251
0.538167
0.538083
0.537998
0.537914
0.537829
0.537745
0.53766
0.537576
0.537492
0.537407
0.537323
0.537239
0.537154
0.53707
0.536986
0.536901
0.536817
0.536733
0.536649
0.536564
0.53648
0.536396
0.536312
0.536227
0.536143
0.536059
0.535975
0.535891
0.535807
0.535722
0.535638
0.535554
0.53547
0.535386
0.535302
0.535218
0.535134
0.53505
0.534966
0.534881
0.534797
0.534713
0.534629
0.534545
0.534461
0.534377
0.534293
0.53421
0.534126
0.534042
0.533958
0.533874
0.53379
0.533706
0.533622
0.533538
0.533454
0.533371
0.533287
0.533203
0.533119
0.533035
0.532951
0.532868
0.532784
0.5327
0.532616
0.532533
0.532449
0.532365
0.532282
0.532198
0.532114
0.53203
0.531947
0.531863
0.531779
0.531696
0.531612
0.531529
0.531445
0.531361
0.531278
0.531194
0.531111
0.531027
0.530944
0.53086
0.530777
0.530693
0.53061
0.530526
0.530443
0.530359
0.530276
0.530192
0.530109
0.530025
0.529942
0.529859
0.529775
0.529692
0.529608
0.529525
0.529442
0.529358
0.529275
0.529192
0.529108
0.529025
0.528942
0.528859