/*--------------------------------*- C++ -*----------------------------------*\
  =========                 |
  \\      /  F ield         | OpenFOAM: The Open Source CFD Toolbox
   \\    /   O peration     | Website:  https://openfoam.org
    \\  /    A nd           | Version:  9
     \\/     M anipulation  |
\*---------------------------------------------------------------------------*/
FoamFile
{
    format      ascii;
    class       volVectorField;
    location    "0.016";
    object      U_0;
}
// * * * * * * * * * * * * * * * * * * * * * * * * * * * * * * * * * * * * * //

dimensions      [0 1 -1 0 0 0 0];

internalField   nonuniform List<vector> 
10000
(
(1.09099 0 0)
(1.25988 0 0)
(1.32558 0 0)
(1.43084 0 0)
(1.5289 0 0)
(1.62461 0 0)
(1.72159 0 0)
(1.81897 0 0)
(1.9161 0 0)
(2.01315 0 0)
(2.11025 0 0)
(2.20737 0 0)
(2.30449 0 0)
(2.4016 0 0)
(2.49871 0 0)
(2.59582 0 0)
(2.69294 0 0)
(2.79005 0 0)
(2.88717 0 0)
(2.98428 0 0)
(3.0814 0 0)
(3.17851 0 0)
(3.27563 0 0)
(3.37275 0 0)
(3.46987 0 0)
(3.56699 0 0)
(3.66411 0 0)
(3.76123 0 0)
(3.85835 0 0)
(3.95547 0 0)
(4.0526 0 0)
(4.14972 0 0)
(4.24684 0 0)
(4.34397 0 0)
(4.4411 0 0)
(4.53822 0 0)
(4.63535 0 0)
(4.73248 0 0)
(4.82961 0 0)
(4.92674 0 0)
(5.02387 0 0)
(5.121 0 0)
(5.21813 0 0)
(5.31527 0 0)
(5.4124 0 0)
(5.50953 0 0)
(5.60667 0 0)
(5.70381 0 0)
(5.80094 0 0)
(5.89808 0 0)
(5.99522 0 0)
(6.09236 0 0)
(6.1895 0 0)
(6.28664 0 0)
(6.38378 0 0)
(6.48092 0 0)
(6.57806 0 0)
(6.67521 0 0)
(6.77235 0 0)
(6.8695 0 0)
(6.96664 0 0)
(7.06379 0 0)
(7.16094 0 0)
(7.25809 0 0)
(7.35523 0 0)
(7.45238 0 0)
(7.54954 0 0)
(7.64669 0 0)
(7.74384 0 0)
(7.84099 0 0)
(7.93815 0 0)
(8.0353 0 0)
(8.13245 0 0)
(8.22961 0 0)
(8.32677 0 0)
(8.42393 0 0)
(8.52108 0 0)
(8.61824 0 0)
(8.7154 0 0)
(8.81256 0 0)
(8.90972 0 0)
(9.00689 0 0)
(9.10405 0 0)
(9.20121 0 0)
(9.29838 0 0)
(9.39554 0 0)
(9.49271 0 0)
(9.58988 0 0)
(9.68704 0 0)
(9.78421 0 0)
(9.88138 0 0)
(9.97855 0 0)
(10.0757 0 0)
(10.1729 0 0)
(10.2701 0 0)
(10.3672 0 0)
(10.4644 0 0)
(10.5616 0 0)
(10.6588 0 0)
(10.7559 0 0)
(10.8531 0 0)
(10.9503 0 0)
(11.0475 0 0)
(11.1446 0 0)
(11.2418 0 0)
(11.339 0 0)
(11.4362 0 0)
(11.5334 0 0)
(11.6306 0 0)
(11.7277 0 0)
(11.8249 0 0)
(11.9221 0 0)
(12.0193 0 0)
(12.1165 0 0)
(12.2137 0 0)
(12.3109 0 0)
(12.408 0 0)
(12.5052 0 0)
(12.6024 0 0)
(12.6996 0 0)
(12.7968 0 0)
(12.894 0 0)
(12.9912 0 0)
(13.0884 0 0)
(13.1856 0 0)
(13.2828 0 0)
(13.38 0 0)
(13.4772 0 0)
(13.5744 0 0)
(13.6716 0 0)
(13.7688 0 0)
(13.866 0 0)
(13.9632 0 0)
(14.0604 0 0)
(14.1576 0 0)
(14.2548 0 0)
(14.352 0 0)
(14.4492 0 0)
(14.5464 0 0)
(14.6436 0 0)
(14.7408 0 0)
(14.838 0 0)
(14.9352 0 0)
(15.0324 0 0)
(15.1296 0 0)
(15.2269 0 0)
(15.3241 0 0)
(15.4213 0 0)
(15.5185 0 0)
(15.6157 0 0)
(15.7129 0 0)
(15.8101 0 0)
(15.9074 0 0)
(16.0046 0 0)
(16.1018 0 0)
(16.199 0 0)
(16.2962 0 0)
(16.3934 0 0)
(16.4907 0 0)
(16.5879 0 0)
(16.6851 0 0)
(16.7823 0 0)
(16.8796 0 0)
(16.9768 0 0)
(17.074 0 0)
(17.1712 0 0)
(17.2685 0 0)
(17.3657 0 0)
(17.4629 0 0)
(17.5601 0 0)
(17.6574 0 0)
(17.7546 0 0)
(17.8518 0 0)
(17.9491 0 0)
(18.0463 0 0)
(18.1435 0 0)
(18.2408 0 0)
(18.338 0 0)
(18.4352 0 0)
(18.5325 0 0)
(18.6297 0 0)
(18.7269 0 0)
(18.8242 0 0)
(18.9214 0 0)
(19.0187 0 0)
(19.1159 0 0)
(19.2131 0 0)
(19.3104 0 0)
(19.4076 0 0)
(19.5049 0 0)
(19.6021 0 0)
(19.6994 0 0)
(19.7966 0 0)
(19.8939 0 0)
(19.9911 0 0)
(20.0884 0 0)
(20.1856 0 0)
(20.2829 0 0)
(20.3801 0 0)
(20.4774 0 0)
(20.5746 0 0)
(20.6719 0 0)
(20.7691 0 0)
(20.8664 0 0)
(20.9636 0 0)
(21.0609 0 0)
(21.1581 0 0)
(21.2554 0 0)
(21.3527 0 0)
(21.4499 0 0)
(21.5472 0 0)
(21.6444 0 0)
(21.7417 0 0)
(21.839 0 0)
(21.9362 0 0)
(22.0335 0 0)
(22.1307 0 0)
(22.228 0 0)
(22.3253 0 0)
(22.4225 0 0)
(22.5198 0 0)
(22.6171 0 0)
(22.7143 0 0)
(22.8116 0 0)
(22.9089 0 0)
(23.0062 0 0)
(23.1034 0 0)
(23.2007 0 0)
(23.298 0 0)
(23.3952 0 0)
(23.4925 0 0)
(23.5898 0 0)
(23.6871 0 0)
(23.7843 0 0)
(23.8816 0 0)
(23.9789 0 0)
(24.0762 0 0)
(24.1735 0 0)
(24.2707 0 0)
(24.368 0 0)
(24.4653 0 0)
(24.5626 0 0)
(24.6599 0 0)
(24.7571 0 0)
(24.8544 0 0)
(24.9517 0 0)
(25.049 0 0)
(25.1463 0 0)
(25.2436 0 0)
(25.3409 0 0)
(25.4382 0 0)
(25.5354 0 0)
(25.6327 0 0)
(25.73 0 0)
(25.8273 0 0)
(25.9246 0 0)
(26.0219 0 0)
(26.1192 0 0)
(26.2165 0 0)
(26.3138 0 0)
(26.4111 0 0)
(26.5084 0 0)
(26.6057 0 0)
(26.703 0 0)
(26.8003 0 0)
(26.8976 0 0)
(26.9949 0 0)
(27.0922 0 0)
(27.1895 0 0)
(27.2868 0 0)
(27.3841 0 0)
(27.4814 0 0)
(27.5787 0 0)
(27.676 0 0)
(27.7733 0 0)
(27.8706 0 0)
(27.9679 0 0)
(28.0652 0 0)
(28.1625 0 0)
(28.2598 0 0)
(28.3572 0 0)
(28.4545 0 0)
(28.5518 0 0)
(28.6491 0 0)
(28.7464 0 0)
(28.8437 0 0)
(28.941 0 0)
(29.0383 0 0)
(29.1357 0 0)
(29.233 0 0)
(29.3303 0 0)
(29.4276 0 0)
(29.5249 0 0)
(29.6222 0 0)
(29.7196 0 0)
(29.8169 0 0)
(29.9142 0 0)
(30.0115 0 0)
(30.1089 0 0)
(30.2062 0 0)
(30.3035 0 0)
(30.4008 0 0)
(30.4982 0 0)
(30.5955 0 0)
(30.6928 0 0)
(30.7901 0 0)
(30.8875 0 0)
(30.9848 0 0)
(31.0821 0 0)
(31.1795 0 0)
(31.2768 0 0)
(31.3741 0 0)
(31.4715 0 0)
(31.5688 0 0)
(31.6661 0 0)
(31.7635 0 0)
(31.8608 0 0)
(31.9581 0 0)
(32.0555 0 0)
(32.1528 0 0)
(32.2501 0 0)
(32.3475 0 0)
(32.4448 0 0)
(32.5422 0 0)
(32.6395 0 0)
(32.7368 0 0)
(32.8342 0 0)
(32.9315 0 0)
(33.0289 0 0)
(33.1262 0 0)
(33.2236 0 0)
(33.3209 0 0)
(33.4183 0 0)
(33.5156 0 0)
(33.613 0 0)
(33.7103 0 0)
(33.8077 0 0)
(33.905 0 0)
(34.0024 0 0)
(34.0997 0 0)
(34.1971 0 0)
(34.2944 0 0)
(34.3918 0 0)
(34.4891 0 0)
(34.5865 0 0)
(34.6838 0 0)
(34.7812 0 0)
(34.8785 0 0)
(34.9759 0 0)
(35.0733 0 0)
(35.1706 0 0)
(35.268 0 0)
(35.3653 0 0)
(35.4627 0 0)
(35.5601 0 0)
(35.6574 0 0)
(35.7548 0 0)
(35.8522 0 0)
(35.9495 0 0)
(36.0469 0 0)
(36.1442 0 0)
(36.2416 0 0)
(36.339 0 0)
(36.4364 0 0)
(36.5337 0 0)
(36.6311 0 0)
(36.7285 0 0)
(36.8258 0 0)
(36.9232 0 0)
(37.0206 0 0)
(37.1179 0 0)
(37.2153 0 0)
(37.3127 0 0)
(37.4101 0 0)
(37.5074 0 0)
(37.6048 0 0)
(37.7022 0 0)
(37.7996 0 0)
(37.897 0 0)
(37.9943 0 0)
(38.0917 0 0)
(38.1891 0 0)
(38.2865 0 0)
(38.3839 0 0)
(38.4812 0 0)
(38.5786 0 0)
(38.676 0 0)
(38.7734 0 0)
(38.8708 0 0)
(38.9682 0 0)
(39.0655 0 0)
(39.1629 0 0)
(39.2603 0 0)
(39.3577 0 0)
(39.4551 0 0)
(39.5525 0 0)
(39.6499 0 0)
(39.7473 0 0)
(39.8447 0 0)
(39.942 0 0)
(40.0394 0 0)
(40.1368 0 0)
(40.2342 0 0)
(40.3316 0 0)
(40.429 0 0)
(40.5264 0 0)
(40.6238 0 0)
(40.7212 0 0)
(40.8186 0 0)
(40.916 0 0)
(41.0134 0 0)
(41.1108 0 0)
(41.2082 0 0)
(41.3056 0 0)
(41.403 0 0)
(41.5004 0 0)
(41.5978 0 0)
(41.6952 0 0)
(41.7926 0 0)
(41.89 0 0)
(41.9874 0 0)
(42.0848 0 0)
(42.1822 0 0)
(42.2796 0 0)
(42.3771 0 0)
(42.4745 0 0)
(42.5719 0 0)
(42.6693 0 0)
(42.7667 0 0)
(42.8641 0 0)
(42.9615 0 0)
(43.0589 0 0)
(43.1563 0 0)
(43.2538 0 0)
(43.3512 0 0)
(43.4486 0 0)
(43.546 0 0)
(43.6434 0 0)
(43.7408 0 0)
(43.8382 0 0)
(43.9357 0 0)
(44.0331 0 0)
(44.1305 0 0)
(44.2279 0 0)
(44.3253 0 0)
(44.4228 0 0)
(44.5202 0 0)
(44.6176 0 0)
(44.715 0 0)
(44.8125 0 0)
(44.9099 0 0)
(45.0073 0 0)
(45.1047 0 0)
(45.2022 0 0)
(45.2996 0 0)
(45.397 0 0)
(45.4944 0 0)
(45.5919 0 0)
(45.6893 0 0)
(45.7867 0 0)
(45.8842 0 0)
(45.9816 0 0)
(46.079 0 0)
(46.1764 0 0)
(46.2739 0 0)
(46.3713 0 0)
(46.4687 0 0)
(46.5662 0 0)
(46.6636 0 0)
(46.7611 0 0)
(46.8585 0 0)
(46.9559 0 0)
(47.0534 0 0)
(47.1508 0 0)
(47.2482 0 0)
(47.3457 0 0)
(47.4431 0 0)
(47.5406 0 0)
(47.638 0 0)
(47.7354 0 0)
(47.8329 0 0)
(47.9303 0 0)
(48.0278 0 0)
(48.1252 0 0)
(48.2227 0 0)
(48.3201 0 0)
(48.4175 0 0)
(48.515 0 0)
(48.6124 0 0)
(48.7099 0 0)
(48.8073 0 0)
(48.9048 0 0)
(49.0022 0 0)
(49.0997 0 0)
(49.1971 0 0)
(49.2946 0 0)
(49.392 0 0)
(49.4895 0 0)
(49.5869 0 0)
(49.6844 0 0)
(49.7818 0 0)
(49.8793 0 0)
(49.9768 0 0)
(50.0742 0 0)
(50.1717 0 0)
(50.2691 0 0)
(50.3666 0 0)
(50.464 0 0)
(50.5615 0 0)
(50.659 0 0)
(50.7564 0 0)
(50.8539 0 0)
(50.9513 0 0)
(51.0488 0 0)
(51.1463 0 0)
(51.2437 0 0)
(51.3412 0 0)
(51.4386 0 0)
(51.5361 0 0)
(51.6336 0 0)
(51.731 0 0)
(51.8285 0 0)
(51.926 0 0)
(52.0234 0 0)
(52.1209 0 0)
(52.2184 0 0)
(52.3158 0 0)
(52.4133 0 0)
(52.5108 0 0)
(52.6082 0 0)
(52.7057 0 0)
(52.8032 0 0)
(52.9007 0 0)
(52.9981 0 0)
(53.0956 0 0)
(53.1931 0 0)
(53.2905 0 0)
(53.388 0 0)
(53.4855 0 0)
(53.583 0 0)
(53.6804 0 0)
(53.7779 0 0)
(53.8754 0 0)
(53.9729 0 0)
(54.0703 0 0)
(54.1678 0 0)
(54.2653 0 0)
(54.3628 0 0)
(54.4603 0 0)
(54.5577 0 0)
(54.6552 0 0)
(54.7527 0 0)
(54.8502 0 0)
(54.9477 0 0)
(55.0451 0 0)
(55.1426 0 0)
(55.2401 0 0)
(55.3376 0 0)
(55.4351 0 0)
(55.5326 0 0)
(55.63 0 0)
(55.7275 0 0)
(55.825 0 0)
(55.9225 0 0)
(56.02 0 0)
(56.1175 0 0)
(56.215 0 0)
(56.3124 0 0)
(56.4099 0 0)
(56.5074 0 0)
(56.6049 0 0)
(56.7024 0 0)
(56.7999 0 0)
(56.8974 0 0)
(56.9949 0 0)
(57.0924 0 0)
(57.1899 0 0)
(57.2873 0 0)
(57.3848 0 0)
(57.4823 0 0)
(57.5798 0 0)
(57.6773 0 0)
(57.7748 0 0)
(57.8723 0 0)
(57.9698 0 0)
(58.0673 0 0)
(58.1648 0 0)
(58.2623 0 0)
(58.3598 0 0)
(58.4573 0 0)
(58.5548 0 0)
(58.6523 0 0)
(58.7498 0 0)
(58.8473 0 0)
(58.9448 0 0)
(59.0423 0 0)
(59.1398 0 0)
(59.2373 0 0)
(59.3348 0 0)
(59.4323 0 0)
(59.5298 0 0)
(59.6273 0 0)
(59.7248 0 0)
(59.8223 0 0)
(59.9198 0 0)
(60.0173 0 0)
(60.1148 0 0)
(60.2123 0 0)
(60.3098 0 0)
(60.4073 0 0)
(60.5048 0 0)
(60.6023 0 0)
(60.6998 0 0)
(60.7974 0 0)
(60.8949 0 0)
(60.9924 0 0)
(61.0899 0 0)
(61.1874 0 0)
(61.2849 0 0)
(61.3824 0 0)
(61.4799 0 0)
(61.5774 0 0)
(61.6749 0 0)
(61.7724 0 0)
(61.87 0 0)
(61.9675 0 0)
(62.065 0 0)
(62.1625 0 0)
(62.26 0 0)
(62.3575 0 0)
(62.455 0 0)
(62.5525 0 0)
(62.65 0 0)
(62.7476 0 0)
(62.8451 0 0)
(62.9426 0 0)
(63.0401 0 0)
(63.1376 0 0)
(63.2351 0 0)
(63.3326 0 0)
(63.4302 0 0)
(63.5277 0 0)
(63.6252 0 0)
(63.7227 0 0)
(63.8202 0 0)
(63.9177 0 0)
(64.0153 0 0)
(64.1128 0 0)
(64.2103 0 0)
(64.3078 0 0)
(64.4053 0 0)
(64.5029 0 0)
(64.6004 0 0)
(64.6979 0 0)
(64.7954 0 0)
(64.8929 0 0)
(64.9904 0 0)
(65.088 0 0)
(65.1855 0 0)
(65.283 0 0)
(65.3805 0 0)
(65.478 0 0)
(65.5756 0 0)
(65.6731 0 0)
(65.7706 0 0)
(65.8681 0 0)
(65.9657 0 0)
(66.0632 0 0)
(66.1607 0 0)
(66.2582 0 0)
(66.3557 0 0)
(66.4533 0 0)
(66.5508 0 0)
(66.6483 0 0)
(66.7458 0 0)
(66.8434 0 0)
(66.9409 0 0)
(67.0384 0 0)
(67.1359 0 0)
(67.2334 0 0)
(67.331 0 0)
(67.4285 0 0)
(67.526 0 0)
(67.6235 0 0)
(67.7211 0 0)
(67.8186 0 0)
(67.9161 0 0)
(68.0136 0 0)
(68.1112 0 0)
(68.2087 0 0)
(68.3062 0 0)
(68.4037 0 0)
(68.5013 0 0)
(68.5988 0 0)
(68.6963 0 0)
(68.7938 0 0)
(68.8914 0 0)
(68.9889 0 0)
(69.0864 0 0)
(69.1839 0 0)
(69.2815 0 0)
(69.379 0 0)
(69.4765 0 0)
(69.574 0 0)
(69.6716 0 0)
(69.7691 0 0)
(69.8666 0 0)
(69.9641 0 0)
(70.0617 0 0)
(70.1592 0 0)
(70.2567 0 0)
(70.3542 0 0)
(70.4518 0 0)
(70.5493 0 0)
(70.6468 0 0)
(70.7443 0 0)
(70.8419 0 0)
(70.9394 0 0)
(71.0369 0 0)
(71.1344 0 0)
(71.232 0 0)
(71.3295 0 0)
(71.427 0 0)
(71.5245 0 0)
(71.6221 0 0)
(71.7196 0 0)
(71.8171 0 0)
(71.9146 0 0)
(72.0121 0 0)
(72.1097 0 0)
(72.2072 0 0)
(72.3047 0 0)
(72.4022 0 0)
(72.4998 0 0)
(72.5973 0 0)
(72.6948 0 0)
(72.7923 0 0)
(72.8898 0 0)
(72.9874 0 0)
(73.0849 0 0)
(73.1824 0 0)
(73.2799 0 0)
(73.3775 0 0)
(73.475 0 0)
(73.5725 0 0)
(73.67 0 0)
(73.7675 0 0)
(73.865 0 0)
(73.9626 0 0)
(74.0601 0 0)
(74.1576 0 0)
(74.2551 0 0)
(74.3526 0 0)
(74.4502 0 0)
(74.5477 0 0)
(74.6452 0 0)
(74.7427 0 0)
(74.8402 0 0)
(74.9377 0 0)
(75.0352 0 0)
(75.1328 0 0)
(75.2303 0 0)
(75.3278 0 0)
(75.4253 0 0)
(75.5228 0 0)
(75.6203 0 0)
(75.7178 0 0)
(75.8153 0 0)
(75.9129 0 0)
(76.0104 0 0)
(76.1079 0 0)
(76.2054 0 0)
(76.3029 0 0)
(76.4004 0 0)
(76.4979 0 0)
(76.5954 0 0)
(76.6929 0 0)
(76.7904 0 0)
(76.8879 0 0)
(76.9854 0 0)
(77.0829 0 0)
(77.1804 0 0)
(77.2779 0 0)
(77.3754 0 0)
(77.4729 0 0)
(77.5704 0 0)
(77.6679 0 0)
(77.7654 0 0)
(77.8629 0 0)
(77.9604 0 0)
(78.0579 0 0)
(78.1554 0 0)
(78.2529 0 0)
(78.3504 0 0)
(78.4479 0 0)
(78.5454 0 0)
(78.6429 0 0)
(78.7404 0 0)
(78.8379 0 0)
(78.9353 0 0)
(79.0328 0 0)
(79.1303 0 0)
(79.2278 0 0)
(79.3253 0 0)
(79.4228 0 0)
(79.5202 0 0)
(79.6177 0 0)
(79.7152 0 0)
(79.8127 0 0)
(79.9102 0 0)
(80.0076 0 0)
(80.1051 0 0)
(80.2026 0 0)
(80.3001 0 0)
(80.3975 0 0)
(80.495 0 0)
(80.5925 0 0)
(80.6899 0 0)
(80.7874 0 0)
(80.8849 0 0)
(80.9823 0 0)
(81.0798 0 0)
(81.1773 0 0)
(81.2747 0 0)
(81.3722 0 0)
(81.4697 0 0)
(81.5671 0 0)
(81.6646 0 0)
(81.762 0 0)
(81.8595 0 0)
(81.9569 0 0)
(82.0544 0 0)
(82.1518 0 0)
(82.2493 0 0)
(82.3467 0 0)
(82.4442 0 0)
(82.5416 0 0)
(82.639 0 0)
(82.7365 0 0)
(82.8339 0 0)
(82.9314 0 0)
(83.0288 0 0)
(83.1262 0 0)
(83.2237 0 0)
(83.3211 0 0)
(83.4185 0 0)
(83.5159 0 0)
(83.6134 0 0)
(83.7108 0 0)
(83.8082 0 0)
(83.9056 0 0)
(84.003 0 0)
(84.1005 0 0)
(84.1979 0 0)
(84.2953 0 0)
(84.3927 0 0)
(84.4901 0 0)
(84.5875 0 0)
(84.6849 0 0)
(84.7823 0 0)
(84.8797 0 0)
(84.9771 0 0)
(85.0745 0 0)
(85.1719 0 0)
(85.2693 0 0)
(85.3667 0 0)
(85.4641 0 0)
(85.5614 0 0)
(85.6588 0 0)
(85.7562 0 0)
(85.8536 0 0)
(85.951 0 0)
(86.0483 0 0)
(86.1457 0 0)
(86.2431 0 0)
(86.3404 0 0)
(86.4378 0 0)
(86.5352 0 0)
(86.6325 0 0)
(86.7299 0 0)
(86.8272 0 0)
(86.9246 0 0)
(87.0219 0 0)
(87.1193 0 0)
(87.2166 0 0)
(87.3139 0 0)
(87.4113 0 0)
(87.5086 0 0)
(87.6059 0 0)
(87.7033 0 0)
(87.8006 0 0)
(87.8979 0 0)
(87.9952 0 0)
(88.0925 0 0)
(88.1899 0 0)
(88.2872 0 0)
(88.3845 0 0)
(88.4818 0 0)
(88.5791 0 0)
(88.6764 0 0)
(88.7737 0 0)
(88.871 0 0)
(88.9682 0 0)
(89.0655 0 0)
(89.1628 0 0)
(89.2601 0 0)
(89.3574 0 0)
(89.4546 0 0)
(89.5519 0 0)
(89.6492 0 0)
(89.7464 0 0)
(89.8437 0 0)
(89.9409 0 0)
(90.0382 0 0)
(90.1354 0 0)
(90.2327 0 0)
(90.3299 0 0)
(90.4271 0 0)
(90.5244 0 0)
(90.6216 0 0)
(90.7188 0 0)
(90.816 0 0)
(90.9133 0 0)
(91.0105 0 0)
(91.1077 0 0)
(91.2049 0 0)
(91.3021 0 0)
(91.3993 0 0)
(91.4965 0 0)
(91.5936 0 0)
(91.6908 0 0)
(91.788 0 0)
(91.8852 0 0)
(91.9823 0 0)
(92.0795 0 0)
(92.1767 0 0)
(92.2738 0 0)
(92.371 0 0)
(92.4681 0 0)
(92.5652 0 0)
(92.6624 0 0)
(92.7595 0 0)
(92.8566 0 0)
(92.9538 0 0)
(93.0509 0 0)
(93.148 0 0)
(93.2451 0 0)
(93.3422 0 0)
(93.4393 0 0)
(93.5364 0 0)
(93.6334 0 0)
(93.7305 0 0)
(93.8276 0 0)
(93.9247 0 0)
(94.0217 0 0)
(94.1188 0 0)
(94.2158 0 0)
(94.3129 0 0)
(94.4099 0 0)
(94.5069 0 0)
(94.604 0 0)
(94.701 0 0)
(94.798 0 0)
(94.895 0 0)
(94.992 0 0)
(95.089 0 0)
(95.186 0 0)
(95.283 0 0)
(95.3799 0 0)
(95.4769 0 0)
(95.5739 0 0)
(95.6708 0 0)
(95.7677 0 0)
(95.8647 0 0)
(95.9616 0 0)
(96.0585 0 0)
(96.1554 0 0)
(96.2524 0 0)
(96.3493 0 0)
(96.4461 0 0)
(96.543 0 0)
(96.6399 0 0)
(96.7368 0 0)
(96.8336 0 0)
(96.9305 0 0)
(97.0273 0 0)
(97.1241 0 0)
(97.221 0 0)
(97.3178 0 0)
(97.4146 0 0)
(97.5114 0 0)
(97.6081 0 0)
(97.7049 0 0)
(97.8017 0 0)
(97.8984 0 0)
(97.9952 0 0)
(98.0919 0 0)
(98.1886 0 0)
(98.2853 0 0)
(98.382 0 0)
(98.4787 0 0)
(98.5754 0 0)
(98.672 0 0)
(98.7687 0 0)
(98.8653 0 0)
(98.9619 0 0)
(99.0585 0 0)
(99.1551 0 0)
(99.2517 0 0)
(99.3483 0 0)
(99.4448 0 0)
(99.5414 0 0)
(99.6379 0 0)
(99.7344 0 0)
(99.8309 0 0)
(99.9274 0 0)
(100.024 0 0)
(100.12 0 0)
(100.217 0 0)
(100.313 0 0)
(100.409 0 0)
(100.506 0 0)
(100.602 0 0)
(100.699 0 0)
(100.795 0 0)
(100.891 0 0)
(100.987 0 0)
(101.084 0 0)
(101.18 0 0)
(101.276 0 0)
(101.372 0 0)
(101.468 0 0)
(101.565 0 0)
(101.661 0 0)
(101.757 0 0)
(101.853 0 0)
(101.949 0 0)
(102.045 0 0)
(102.141 0 0)
(102.237 0 0)
(102.333 0 0)
(102.428 0 0)
(102.524 0 0)
(102.62 0 0)
(102.716 0 0)
(102.812 0 0)
(102.907 0 0)
(103.003 0 0)
(103.099 0 0)
(103.194 0 0)
(103.29 0 0)
(103.385 0 0)
(103.481 0 0)
(103.576 0 0)
(103.671 0 0)
(103.767 0 0)
(103.862 0 0)
(103.957 0 0)
(104.052 0 0)
(104.147 0 0)
(104.242 0 0)
(104.337 0 0)
(104.432 0 0)
(104.527 0 0)
(104.622 0 0)
(104.716 0 0)
(104.811 0 0)
(104.905 0 0)
(105 0 0)
(105.094 0 0)
(105.188 0 0)
(105.283 0 0)
(105.377 0 0)
(105.471 0 0)
(105.564 0 0)
(105.658 0 0)
(105.752 0 0)
(105.845 0 0)
(105.939 0 0)
(106.032 0 0)
(106.125 0 0)
(106.218 0 0)
(106.311 0 0)
(106.404 0 0)
(106.496 0 0)
(106.588 0 0)
(106.681 0 0)
(106.773 0 0)
(106.864 0 0)
(106.956 0 0)
(107.047 0 0)
(107.138 0 0)
(107.229 0 0)
(107.32 0 0)
(107.41 0 0)
(107.501 0 0)
(107.591 0 0)
(107.68 0 0)
(107.769 0 0)
(107.858 0 0)
(107.947 0 0)
(108.035 0 0)
(108.123 0 0)
(108.211 0 0)
(108.298 0 0)
(108.385 0 0)
(108.471 0 0)
(108.557 0 0)
(108.643 0 0)
(108.728 0 0)
(108.812 0 0)
(108.896 0 0)
(108.98 0 0)
(109.063 0 0)
(109.145 0 0)
(109.227 0 0)
(109.308 0 0)
(109.389 0 0)
(109.469 0 0)
(109.548 0 0)
(109.627 0 0)
(109.705 0 0)
(109.783 0 0)
(109.86 0 0)
(109.936 0 0)
(110.011 0 0)
(110.086 0 0)
(110.16 0 0)
(110.234 0 0)
(110.306 0 0)
(110.378 0 0)
(110.45 0 0)
(110.52 0 0)
(110.59 0 0)
(110.659 0 0)
(110.728 0 0)
(110.795 0 0)
(110.862 0 0)
(110.929 0 0)
(110.994 0 0)
(111.06 0 0)
(111.124 0 0)
(111.188 0 0)
(111.251 0 0)
(111.314 0 0)
(111.376 0 0)
(111.437 0 0)
(111.498 0 0)
(111.558 0 0)
(111.618 0 0)
(111.678 0 0)
(111.736 0 0)
(111.795 0 0)
(111.853 0 0)
(111.911 0 0)
(111.968 0 0)
(112.025 0 0)
(112.081 0 0)
(112.137 0 0)
(112.193 0 0)
(112.249 0 0)
(112.304 0 0)
(112.359 0 0)
(112.414 0 0)
(112.468 0 0)
(112.523 0 0)
(112.577 0 0)
(112.631 0 0)
(112.685 0 0)
(112.738 0 0)
(112.792 0 0)
(112.845 0 0)
(112.898 0 0)
(112.951 0 0)
(113.004 0 0)
(113.057 0 0)
(113.11 0 0)
(113.163 0 0)
(113.215 0 0)
(113.268 0 0)
(113.321 0 0)
(113.373 0 0)
(113.425 0 0)
(113.478 0 0)
(113.53 0 0)
(113.582 0 0)
(113.635 0 0)
(113.687 0 0)
(113.739 0 0)
(113.791 0 0)
(113.844 0 0)
(113.896 0 0)
(113.948 0 0)
(114 0 0)
(114.052 0 0)
(114.104 0 0)
(114.156 0 0)
(114.208 0 0)
(114.261 0 0)
(114.313 0 0)
(114.365 0 0)
(114.417 0 0)
(114.469 0 0)
(114.521 0 0)
(114.573 0 0)
(114.625 0 0)
(114.677 0 0)
(114.729 0 0)
(114.781 0 0)
(114.833 0 0)
(114.885 0 0)
(114.937 0 0)
(114.989 0 0)
(115.041 0 0)
(115.093 0 0)
(115.145 0 0)
(115.197 0 0)
(115.249 0 0)
(115.301 0 0)
(115.353 0 0)
(115.405 0 0)
(115.457 0 0)
(115.509 0 0)
(115.561 0 0)
(115.613 0 0)
(115.665 0 0)
(115.718 0 0)
(115.77 0 0)
(115.822 0 0)
(115.874 0 0)
(115.926 0 0)
(115.978 0 0)
(116.03 0 0)
(116.082 0 0)
(116.134 0 0)
(116.186 0 0)
(116.238 0 0)
(116.29 0 0)
(116.342 0 0)
(116.394 0 0)
(116.446 0 0)
(116.498 0 0)
(116.55 0 0)
(116.602 0 0)
(116.654 0 0)
(116.706 0 0)
(116.758 0 0)
(116.81 0 0)
(116.862 0 0)
(116.914 0 0)
(116.966 0 0)
(117.018 0 0)
(117.07 0 0)
(117.122 0 0)
(117.174 0 0)
(117.226 0 0)
(117.278 0 0)
(117.33 0 0)
(117.382 0 0)
(117.434 0 0)
(117.486 0 0)
(117.538 0 0)
(117.59 0 0)
(117.642 0 0)
(117.694 0 0)
(117.746 0 0)
(117.798 0 0)
(117.85 0 0)
(117.902 0 0)
(117.954 0 0)
(118.006 0 0)
(118.058 0 0)
(118.111 0 0)
(118.163 0 0)
(118.215 0 0)
(118.267 0 0)
(118.319 0 0)
(118.371 0 0)
(118.423 0 0)
(118.475 0 0)
(118.527 0 0)
(118.579 0 0)
(118.631 0 0)
(118.683 0 0)
(118.735 0 0)
(118.787 0 0)
(118.839 0 0)
(118.891 0 0)
(118.943 0 0)
(118.995 0 0)
(119.047 0 0)
(119.099 0 0)
(119.151 0 0)
(119.203 0 0)
(119.255 0 0)
(119.307 0 0)
(119.359 0 0)
(119.411 0 0)
(119.463 0 0)
(119.515 0 0)
(119.567 0 0)
(119.619 0 0)
(119.671 0 0)
(119.723 0 0)
(119.775 0 0)
(119.827 0 0)
(119.879 0 0)
(119.931 0 0)
(119.983 0 0)
(120.035 0 0)
(120.087 0 0)
(120.139 0 0)
(120.191 0 0)
(120.243 0 0)
(120.295 0 0)
(120.347 0 0)
(120.399 0 0)
(120.451 0 0)
(120.504 0 0)
(120.556 0 0)
(120.608 0 0)
(120.66 0 0)
(120.712 0 0)
(120.764 0 0)
(120.816 0 0)
(120.868 0 0)
(120.92 0 0)
(120.972 0 0)
(121.024 0 0)
(121.076 0 0)
(121.128 0 0)
(121.18 0 0)
(121.232 0 0)
(121.284 0 0)
(121.336 0 0)
(121.388 0 0)
(121.44 0 0)
(121.492 0 0)
(121.544 0 0)
(121.596 0 0)
(121.648 0 0)
(121.7 0 0)
(121.752 0 0)
(121.804 0 0)
(121.856 0 0)
(121.908 0 0)
(121.96 0 0)
(122.012 0 0)
(122.064 0 0)
(122.116 0 0)
(122.168 0 0)
(122.22 0 0)
(122.272 0 0)
(122.324 0 0)
(122.376 0 0)
(122.428 0 0)
(122.48 0 0)
(122.532 0 0)
(122.584 0 0)
(122.636 0 0)
(122.688 0 0)
(122.74 0 0)
(122.792 0 0)
(122.844 0 0)
(122.897 0 0)
(122.949 0 0)
(123.001 0 0)
(123.053 0 0)
(123.105 0 0)
(123.157 0 0)
(123.209 0 0)
(123.261 0 0)
(123.313 0 0)
(123.365 0 0)
(123.417 0 0)
(123.469 0 0)
(123.521 0 0)
(123.573 0 0)
(123.625 0 0)
(123.677 0 0)
(123.729 0 0)
(123.781 0 0)
(123.833 0 0)
(123.885 0 0)
(123.937 0 0)
(123.989 0 0)
(124.041 0 0)
(124.093 0 0)
(124.145 0 0)
(124.197 0 0)
(124.249 0 0)
(124.301 0 0)
(124.353 0 0)
(124.405 0 0)
(124.457 0 0)
(124.509 0 0)
(124.561 0 0)
(124.613 0 0)
(124.665 0 0)
(124.717 0 0)
(124.769 0 0)
(124.821 0 0)
(124.873 0 0)
(124.925 0 0)
(124.977 0 0)
(125.029 0 0)
(125.081 0 0)
(125.133 0 0)
(125.185 0 0)
(125.237 0 0)
(125.289 0 0)
(125.342 0 0)
(125.394 0 0)
(125.446 0 0)
(125.498 0 0)
(125.55 0 0)
(125.602 0 0)
(125.654 0 0)
(125.706 0 0)
(125.758 0 0)
(125.81 0 0)
(125.862 0 0)
(125.914 0 0)
(125.966 0 0)
(126.018 0 0)
(126.07 0 0)
(126.122 0 0)
(126.174 0 0)
(126.226 0 0)
(126.278 0 0)
(126.33 0 0)
(126.382 0 0)
(126.434 0 0)
(126.486 0 0)
(126.538 0 0)
(126.59 0 0)
(126.642 0 0)
(126.694 0 0)
(126.746 0 0)
(126.798 0 0)
(126.85 0 0)
(126.902 0 0)
(126.954 0 0)
(127.006 0 0)
(127.058 0 0)
(127.11 0 0)
(127.162 0 0)
(127.214 0 0)
(127.266 0 0)
(127.318 0 0)
(127.37 0 0)
(127.422 0 0)
(127.474 0 0)
(127.526 0 0)
(127.578 0 0)
(127.63 0 0)
(127.682 0 0)
(127.735 0 0)
(127.787 0 0)
(127.839 0 0)
(127.891 0 0)
(127.943 0 0)
(127.995 0 0)
(128.047 0 0)
(128.099 0 0)
(128.151 0 0)
(128.203 0 0)
(128.255 0 0)
(128.307 0 0)
(128.359 0 0)
(128.411 0 0)
(128.463 0 0)
(128.515 0 0)
(128.567 0 0)
(128.619 0 0)
(128.671 0 0)
(128.723 0 0)
(128.775 0 0)
(128.827 0 0)
(128.879 0 0)
(128.931 0 0)
(128.983 0 0)
(129.035 0 0)
(129.087 0 0)
(129.139 0 0)
(129.191 0 0)
(129.243 0 0)
(129.295 0 0)
(129.347 0 0)
(129.399 0 0)
(129.451 0 0)
(129.503 0 0)
(129.555 0 0)
(129.607 0 0)
(129.659 0 0)
(129.711 0 0)
(129.763 0 0)
(129.815 0 0)
(129.867 0 0)
(129.919 0 0)
(129.971 0 0)
(130.023 0 0)
(130.075 0 0)
(130.127 0 0)
(130.18 0 0)
(130.232 0 0)
(130.284 0 0)
(130.336 0 0)
(130.388 0 0)
(130.44 0 0)
(130.492 0 0)
(130.544 0 0)
(130.596 0 0)
(130.648 0 0)
(130.7 0 0)
(130.752 0 0)
(130.804 0 0)
(130.856 0 0)
(130.908 0 0)
(130.96 0 0)
(131.012 0 0)
(131.064 0 0)
(131.116 0 0)
(131.168 0 0)
(131.22 0 0)
(131.272 0 0)
(131.324 0 0)
(131.376 0 0)
(131.428 0 0)
(131.48 0 0)
(131.532 0 0)
(131.584 0 0)
(131.636 0 0)
(131.688 0 0)
(131.74 0 0)
(131.792 0 0)
(131.844 0 0)
(131.896 0 0)
(131.948 0 0)
(132 0 0)
(132.052 0 0)
(132.104 0 0)
(132.156 0 0)
(132.208 0 0)
(132.26 0 0)
(132.312 0 0)
(132.364 0 0)
(132.416 0 0)
(132.468 0 0)
(132.52 0 0)
(132.572 0 0)
(132.625 0 0)
(132.677 0 0)
(132.729 0 0)
(132.781 0 0)
(132.833 0 0)
(132.885 0 0)
(132.937 0 0)
(132.989 0 0)
(133.041 0 0)
(133.093 0 0)
(133.145 0 0)
(133.197 0 0)
(133.249 0 0)
(133.301 0 0)
(133.353 0 0)
(133.405 0 0)
(133.457 0 0)
(133.509 0 0)
(133.561 0 0)
(133.613 0 0)
(133.665 0 0)
(133.717 0 0)
(133.769 0 0)
(133.821 0 0)
(133.873 0 0)
(133.925 0 0)
(133.977 0 0)
(134.029 0 0)
(134.081 0 0)
(134.133 0 0)
(134.185 0 0)
(134.237 0 0)
(134.289 0 0)
(134.341 0 0)
(134.393 0 0)
(134.445 0 0)
(134.497 0 0)
(134.549 0 0)
(134.601 0 0)
(134.653 0 0)
(134.705 0 0)
(134.757 0 0)
(134.809 0 0)
(134.861 0 0)
(134.913 0 0)
(134.965 0 0)
(135.017 0 0)
(135.069 0 0)
(135.122 0 0)
(135.174 0 0)
(135.226 0 0)
(135.278 0 0)
(135.33 0 0)
(135.382 0 0)
(135.434 0 0)
(135.486 0 0)
(135.538 0 0)
(135.59 0 0)
(135.642 0 0)
(135.694 0 0)
(135.746 0 0)
(135.798 0 0)
(135.85 0 0)
(135.902 0 0)
(135.954 0 0)
(136.006 0 0)
(136.058 0 0)
(136.11 0 0)
(136.162 0 0)
(136.214 0 0)
(136.266 0 0)
(136.318 0 0)
(136.37 0 0)
(136.422 0 0)
(136.474 0 0)
(136.526 0 0)
(136.578 0 0)
(136.63 0 0)
(136.682 0 0)
(136.734 0 0)
(136.786 0 0)
(136.838 0 0)
(136.89 0 0)
(136.942 0 0)
(136.994 0 0)
(137.046 0 0)
(137.098 0 0)
(137.15 0 0)
(137.202 0 0)
(137.254 0 0)
(137.306 0 0)
(137.358 0 0)
(137.41 0 0)
(137.462 0 0)
(137.514 0 0)
(137.566 0 0)
(137.619 0 0)
(137.671 0 0)
(137.723 0 0)
(137.775 0 0)
(137.827 0 0)
(137.879 0 0)
(137.931 0 0)
(137.983 0 0)
(138.035 0 0)
(138.087 0 0)
(138.139 0 0)
(138.191 0 0)
(138.243 0 0)
(138.295 0 0)
(138.347 0 0)
(138.399 0 0)
(138.451 0 0)
(138.503 0 0)
(138.555 0 0)
(138.607 0 0)
(138.659 0 0)
(138.711 0 0)
(138.763 0 0)
(138.815 0 0)
(138.867 0 0)
(138.919 0 0)
(138.971 0 0)
(139.023 0 0)
(139.075 0 0)
(139.127 0 0)
(139.179 0 0)
(139.231 0 0)
(139.283 0 0)
(139.335 0 0)
(139.387 0 0)
(139.439 0 0)
(139.491 0 0)
(139.543 0 0)
(139.595 0 0)
(139.647 0 0)
(139.699 0 0)
(139.751 0 0)
(139.803 0 0)
(139.855 0 0)
(139.907 0 0)
(139.959 0 0)
(140.011 0 0)
(140.063 0 0)
(140.115 0 0)
(140.168 0 0)
(140.22 0 0)
(140.272 0 0)
(140.324 0 0)
(140.376 0 0)
(140.428 0 0)
(140.48 0 0)
(140.532 0 0)
(140.584 0 0)
(140.636 0 0)
(140.688 0 0)
(140.74 0 0)
(140.792 0 0)
(140.844 0 0)
(140.896 0 0)
(140.948 0 0)
(141 0 0)
(141.052 0 0)
(141.104 0 0)
(141.156 0 0)
(141.208 0 0)
(141.26 0 0)
(141.312 0 0)
(141.364 0 0)
(141.416 0 0)
(141.468 0 0)
(141.52 0 0)
(141.572 0 0)
(141.624 0 0)
(141.676 0 0)
(141.728 0 0)
(141.78 0 0)
(141.832 0 0)
(141.884 0 0)
(141.936 0 0)
(141.988 0 0)
(142.04 0 0)
(142.092 0 0)
(142.144 0 0)
(142.196 0 0)
(142.248 0 0)
(142.3 0 0)
(142.352 0 0)
(142.404 0 0)
(142.456 0 0)
(142.508 0 0)
(142.56 0 0)
(142.612 0 0)
(142.664 0 0)
(142.716 0 0)
(142.769 0 0)
(142.821 0 0)
(142.873 0 0)
(142.925 0 0)
(142.977 0 0)
(143.029 0 0)
(143.081 0 0)
(143.133 0 0)
(143.185 0 0)
(143.237 0 0)
(143.289 0 0)
(143.341 0 0)
(143.393 0 0)
(143.445 0 0)
(143.497 0 0)
(143.549 0 0)
(143.601 0 0)
(143.653 0 0)
(143.705 0 0)
(143.757 0 0)
(143.809 0 0)
(143.861 0 0)
(143.913 0 0)
(143.965 0 0)
(144.017 0 0)
(144.069 0 0)
(144.121 0 0)
(144.173 0 0)
(144.225 0 0)
(144.277 0 0)
(144.329 0 0)
(144.381 0 0)
(144.433 0 0)
(144.485 0 0)
(144.537 0 0)
(144.589 0 0)
(144.641 0 0)
(144.693 0 0)
(144.745 0 0)
(144.797 0 0)
(144.849 0 0)
(144.901 0 0)
(144.953 0 0)
(145.005 0 0)
(145.057 0 0)
(145.109 0 0)
(145.161 0 0)
(145.213 0 0)
(145.265 0 0)
(145.317 0 0)
(145.37 0 0)
(145.422 0 0)
(145.474 0 0)
(145.526 0 0)
(145.578 0 0)
(145.63 0 0)
(145.682 0 0)
(145.734 0 0)
(145.786 0 0)
(145.838 0 0)
(145.89 0 0)
(145.942 0 0)
(145.994 0 0)
(146.046 0 0)
(146.098 0 0)
(146.15 0 0)
(146.202 0 0)
(146.254 0 0)
(146.306 0 0)
(146.358 0 0)
(146.41 0 0)
(146.462 0 0)
(146.514 0 0)
(146.566 0 0)
(146.618 0 0)
(146.67 0 0)
(146.722 0 0)
(146.774 0 0)
(146.826 0 0)
(146.878 0 0)
(146.93 0 0)
(146.982 0 0)
(147.034 0 0)
(147.086 0 0)
(147.138 0 0)
(147.19 0 0)
(147.242 0 0)
(147.294 0 0)
(147.346 0 0)
(147.398 0 0)
(147.45 0 0)
(147.502 0 0)
(147.554 0 0)
(147.606 0 0)
(147.658 0 0)
(147.71 0 0)
(147.762 0 0)
(147.814 0 0)
(147.866 0 0)
(147.918 0 0)
(147.97 0 0)
(148.022 0 0)
(148.075 0 0)
(148.127 0 0)
(148.179 0 0)
(148.231 0 0)
(148.283 0 0)
(148.335 0 0)
(148.387 0 0)
(148.439 0 0)
(148.491 0 0)
(148.543 0 0)
(148.595 0 0)
(148.647 0 0)
(148.699 0 0)
(148.751 0 0)
(148.803 0 0)
(148.855 0 0)
(148.907 0 0)
(148.959 0 0)
(149.011 0 0)
(149.063 0 0)
(149.115 0 0)
(149.167 0 0)
(149.219 0 0)
(149.271 0 0)
(149.323 0 0)
(149.375 0 0)
(149.427 0 0)
(149.479 0 0)
(149.531 0 0)
(149.583 0 0)
(149.635 0 0)
(149.687 0 0)
(149.739 0 0)
(149.791 0 0)
(149.843 0 0)
(149.895 0 0)
(149.947 0 0)
(149.999 0 0)
(150.051 0 0)
(150.103 0 0)
(150.155 0 0)
(150.207 0 0)
(150.259 0 0)
(150.311 0 0)
(150.363 0 0)
(150.415 0 0)
(150.467 0 0)
(150.519 0 0)
(150.571 0 0)
(150.623 0 0)
(150.675 0 0)
(150.727 0 0)
(150.779 0 0)
(150.831 0 0)
(150.884 0 0)
(150.936 0 0)
(150.988 0 0)
(151.04 0 0)
(151.092 0 0)
(151.144 0 0)
(151.196 0 0)
(151.248 0 0)
(151.3 0 0)
(151.352 0 0)
(151.404 0 0)
(151.456 0 0)
(151.508 0 0)
(151.56 0 0)
(151.612 0 0)
(151.664 0 0)
(151.716 0 0)
(151.768 0 0)
(151.82 0 0)
(151.872 0 0)
(151.924 0 0)
(151.976 0 0)
(152.028 0 0)
(152.08 0 0)
(152.132 0 0)
(152.184 0 0)
(152.236 0 0)
(152.288 0 0)
(152.34 0 0)
(152.392 0 0)
(152.444 0 0)
(152.496 0 0)
(152.548 0 0)
(152.6 0 0)
(152.652 0 0)
(152.704 0 0)
(152.756 0 0)
(152.808 0 0)
(152.86 0 0)
(152.912 0 0)
(152.964 0 0)
(153.016 0 0)
(153.068 0 0)
(153.12 0 0)
(153.172 0 0)
(153.224 0 0)
(153.276 0 0)
(153.328 0 0)
(153.38 0 0)
(153.432 0 0)
(153.484 0 0)
(153.536 0 0)
(153.588 0 0)
(153.64 0 0)
(153.692 0 0)
(153.745 0 0)
(153.797 0 0)
(153.849 0 0)
(153.901 0 0)
(153.953 0 0)
(154.005 0 0)
(154.057 0 0)
(154.109 0 0)
(154.161 0 0)
(154.213 0 0)
(154.265 0 0)
(154.317 0 0)
(154.369 0 0)
(154.421 0 0)
(154.473 0 0)
(154.525 0 0)
(154.577 0 0)
(154.629 0 0)
(154.681 0 0)
(154.733 0 0)
(154.785 0 0)
(154.837 0 0)
(154.889 0 0)
(154.941 0 0)
(154.993 0 0)
(155.045 0 0)
(155.097 0 0)
(155.149 0 0)
(155.201 0 0)
(155.253 0 0)
(155.305 0 0)
(155.357 0 0)
(155.409 0 0)
(155.461 0 0)
(155.513 0 0)
(155.565 0 0)
(155.617 0 0)
(155.669 0 0)
(155.721 0 0)
(155.773 0 0)
(155.825 0 0)
(155.877 0 0)
(155.929 0 0)
(155.981 0 0)
(156.033 0 0)
(156.085 0 0)
(156.137 0 0)
(156.189 0 0)
(156.241 0 0)
(156.293 0 0)
(156.345 0 0)
(156.397 0 0)
(156.449 0 0)
(156.501 0 0)
(156.553 0 0)
(156.605 0 0)
(156.657 0 0)
(156.709 0 0)
(156.762 0 0)
(156.814 0 0)
(156.866 0 0)
(156.918 0 0)
(156.97 0 0)
(157.022 0 0)
(157.074 0 0)
(157.126 0 0)
(157.178 0 0)
(157.23 0 0)
(157.282 0 0)
(157.334 0 0)
(157.386 0 0)
(157.438 0 0)
(157.49 0 0)
(157.542 0 0)
(157.594 0 0)
(157.646 0 0)
(157.698 0 0)
(157.75 0 0)
(157.802 0 0)
(157.854 0 0)
(157.906 0 0)
(157.958 0 0)
(158.01 0 0)
(158.062 0 0)
(158.114 0 0)
(158.166 0 0)
(158.218 0 0)
(158.27 0 0)
(158.322 0 0)
(158.374 0 0)
(158.426 0 0)
(158.478 0 0)
(158.53 0 0)
(158.582 0 0)
(158.634 0 0)
(158.686 0 0)
(158.738 0 0)
(158.79 0 0)
(158.842 0 0)
(158.894 0 0)
(158.946 0 0)
(158.998 0 0)
(159.05 0 0)
(159.102 0 0)
(159.154 0 0)
(159.206 0 0)
(159.258 0 0)
(159.31 0 0)
(159.362 0 0)
(159.414 0 0)
(159.466 0 0)
(159.518 0 0)
(159.57 0 0)
(159.622 0 0)
(159.674 0 0)
(159.726 0 0)
(159.778 0 0)
(159.83 0 0)
(159.883 0 0)
(159.935 0 0)
(159.987 0 0)
(160.039 0 0)
(160.091 0 0)
(160.143 0 0)
(160.195 0 0)
(160.247 0 0)
(160.299 0 0)
(160.351 0 0)
(160.403 0 0)
(160.455 0 0)
(160.507 0 0)
(160.559 0 0)
(160.611 0 0)
(160.663 0 0)
(160.715 0 0)
(160.767 0 0)
(160.819 0 0)
(160.871 0 0)
(160.923 0 0)
(160.975 0 0)
(161.027 0 0)
(161.079 0 0)
(161.131 0 0)
(161.183 0 0)
(161.235 0 0)
(161.287 0 0)
(161.339 0 0)
(161.391 0 0)
(161.443 0 0)
(161.495 0 0)
(161.547 0 0)
(161.599 0 0)
(161.651 0 0)
(161.703 0 0)