/*--------------------------------*- C++ -*----------------------------------*\
  =========                 |
  \\      /  F ield         | OpenFOAM: The Open Source CFD Toolbox
   \\    /   O peration     | Website:  https://openfoam.org
    \\  /    A nd           | Version:  9
     \\/     M anipulation  |
\*---------------------------------------------------------------------------*/
FoamFile
{
    format      ascii;
    class       volScalarField;
    location    "0.022";
    object      mag(U);
}
// * * * * * * * * * * * * * * * * * * * * * * * * * * * * * * * * * * * * * //

dimensions      [0 1 -1 0 0 0 0];

internalField   nonuniform List<scalar> 
1000
(
8.18918
9.05341
9.7743
10.3836
10.9884
11.612
12.2419
12.8697
13.4957
14.1216
14.7479
15.3743
16.0007
16.6271
17.2536
17.8802
18.507
19.1338
19.7607
20.3877
21.0148
21.6419
22.2692
22.8966
23.524
24.1516
24.7792
25.4069
26.0347
26.6626
27.2906
27.9187
28.5468
29.1751
29.8034
30.4319
31.0604
31.689
32.3177
32.9465
33.5754
34.2043
34.8334
35.4625
36.0917
36.721
37.3504
37.9799
38.6095
39.2391
39.8688
40.4987
41.1286
41.7586
42.3886
43.0188
43.649
44.2794
44.9098
45.5403
46.1709
46.8015
47.4323
48.0631
48.694
49.325
49.956
50.5872
51.2184
51.8497
52.4811
53.1126
53.7442
54.3758
55.0075
55.6393
56.2712
56.9031
57.5351
58.1673
58.7994
59.4317
60.0641
60.6965
61.329
61.9616
62.5942
63.2269
63.8597
64.4926
65.1256
65.7586
66.3917
67.0249
67.6582
68.2915
68.925
69.5584
70.192
70.8256
71.4594
72.0931
72.727
73.3609
73.9949
74.6289
75.263
75.8972
76.5315
77.1658
77.8001
78.4346
79.0691
79.7037
80.3383
80.973
81.6078
82.2427
82.8776
83.5126
84.1477
84.7828
85.418
86.0533
86.6887
87.3241
87.9596
88.5952
89.2308
89.8665
90.5023
91.1381
91.774
92.4099
93.046
93.682
94.3182
94.9544
95.5906
96.2269
96.8633
97.4997
98.1362
98.7727
99.4094
100.046
100.683
101.32
101.956
102.593
103.23
103.867
104.504
105.141
105.779
106.416
107.053
107.69
108.328
108.965
109.603
110.24
110.878
111.516
112.153
112.791
113.429
114.067
114.705
115.343
115.981
116.619
117.257
117.895
118.533
119.171
119.81
120.448
121.087
121.725
122.363
123.002
123.641
124.279
124.918
125.556
126.195
126.834
127.473
128.112
128.751
129.389
130.028
130.667
131.306
131.946
132.585
133.224
133.863
134.502
135.141
135.781
136.42
137.059
137.699
138.338
138.978
139.617
140.257
140.896
141.536
142.175
142.815
143.454
144.094
144.734
145.373
146.013
146.653
147.292
147.932
148.572
149.212
149.852
150.491
151.131
151.771
152.411
153.051
153.691
154.331
154.97
155.61
156.25
156.89
157.53
158.17
158.81
159.45
160.09
160.73
161.37
162.009
162.649
163.289
163.929
164.569
165.209
165.849
166.489
167.128
167.768
168.408
169.048
169.687
170.327
170.967
171.607
172.246
172.886
173.525
174.165
174.804
175.444
176.083
176.723
177.362
178.001
178.641
179.28
179.919
180.558
181.197
181.836
182.475
183.114
183.753
184.392
185.03
185.669
186.308
186.946
187.585
188.223
188.861
189.499
190.137
190.775
191.413
192.051
192.689
193.326
193.964
194.601
195.238
195.876
196.513
197.15
197.786
198.423
199.06
199.696
200.332
200.968
201.604
202.24
202.876
203.511
204.147
204.782
205.417
206.051
206.686
207.32
207.955
208.589
209.223
209.856
210.49
211.123
211.756
212.389
213.021
213.653
214.285
214.917
215.548
216.18
216.811
217.441
218.072
218.702
219.331
219.961
220.59
221.219
221.847
222.475
223.103
223.73
224.357
224.984
225.61
226.236
226.861
227.486
228.11
228.734
229.358
229.981
230.604
231.226
231.847
232.468
233.089
233.709
234.328
234.947
235.565
236.182
236.799
237.415
238.031
238.645
239.259
239.873
240.485
241.097
241.708
242.318
242.927
243.535
244.143
244.749
245.355
245.96
246.563
247.166
247.767
248.367
248.966
249.564
250.161
250.757
251.351
251.944
252.536
253.126
253.714
254.302
254.887
255.472
256.054
256.635
257.214
257.791
258.367
258.941
259.512
260.082
260.65
261.215
261.779
262.34
262.899
263.455
264.009
264.561
265.11
265.656
266.2
266.74
267.278
267.813
268.345
268.874
269.399
269.921
270.44
270.955
271.467
271.974
272.478
272.979
273.475
273.967
274.454
274.938
275.417
275.891
276.361
276.826
277.286
277.742
278.192
278.636
279.076
279.51
279.938
280.361
280.777
281.188
281.593
281.991
282.384
282.769
283.148
283.521
283.887
284.246
284.597
284.942
285.28
285.61
285.933
286.248
286.556
286.856
287.149
287.434
287.711
287.98
288.241
288.494
288.739
288.976
289.206
289.427
289.64
289.845
290.043
290.233
290.414
290.588
290.755
290.914
291.066
291.21
291.347
291.477
291.601
291.717
291.827
291.931
292.029
292.121
292.207
292.287
292.362
292.433
292.498
292.558
292.615
292.667
292.715
292.759
292.8
292.838
292.872
292.904
292.932
292.959
292.983
293.004
293.024
293.042
293.058
293.073
293.086
293.098
293.109
293.118
293.127
293.135
293.141
293.148
293.153
293.158
293.163
293.167
293.17
293.173
293.176
293.179
293.181
293.183
293.185
293.186
293.188
293.189
293.19
293.191
293.192
293.193
293.194
293.194
293.195
293.195
293.196
293.196
293.197
293.197
293.198
293.198
293.198
293.198
293.199
293.199
293.199
293.199
293.2
293.2
293.2
293.2
293.2
293.2
293.2
293.2
293.201
293.201
293.201
293.201
293.201
293.201
293.201
293.201
293.201
293.201
293.201
293.201
293.201
293.201
293.201
293.201
293.201
293.201
293.201
293.201
293.201
293.201
293.201
293.201
293.201
293.201
293.201
293.2
293.2
293.2
293.2
293.2
293.2
293.2
293.2
293.2
293.2
293.2
293.2
293.2
293.2
293.2
293.2
293.2
293.2
293.2
293.2
293.2
293.2
293.2
293.2
293.2
293.2
293.2
293.2
293.201
293.201
293.201
293.201
293.201
293.201
293.201
293.201
293.201
293.201
293.201
293.201
293.201
293.201
293.201
293.201
293.201
293.201
293.201
293.201
293.201
293.201
293.201
293.201
293.201
293.201
293.201
293.201
293.201
293.201
293.201
293.201
293.201
293.201
293.201
293.201
293.201
293.201
293.201
293.201
293.201
293.201
293.201
293.201
293.202
293.202
293.202
293.202
293.202
293.202
293.202
293.202
293.202
293.202
293.202
293.202
293.202
293.202
293.202
293.202
293.202
293.202
293.202
293.202
293.202
293.202
293.202
293.202
293.202
293.202
293.202
293.202
293.202
293.202
293.202
293.202
293.202
293.202
293.202
293.202
293.202
293.202
293.202
293.202
293.202
293.202
293.202
293.202
293.202
293.202
293.202
293.202
293.202
293.202
293.202
293.202
293.202
293.202
293.202
293.202
293.202
293.202
293.202
293.202
293.202
293.202
293.202
293.202
293.202
293.202
293.202
293.202
293.202
293.202
293.202
293.202
293.202
293.202
293.202
293.202
293.202
293.202
293.202
293.202
293.202
293.202
293.202
293.202
293.202
293.203
293.203
293.203
293.203
293.203
293.203
293.203
293.203
293.203
293.203
293.203
293.203
293.203
293.203
293.203
293.203
293.203
293.203
293.203
293.203
293.203
293.203
293.203
293.203
293.203
293.203
293.203
293.203
293.203
293.203
293.203
293.203
293.203
293.203
293.203
293.203
293.203
293.203
293.203
293.203
293.203
293.203
293.203
293.203
293.203
293.203
293.203
293.203
293.203
293.203
293.203
293.203
293.203
293.203
293.203
293.203
293.203
293.203
293.203
293.203
293.203
293.203
293.203
293.203
293.203
293.203
293.203
293.203
293.203
293.203
293.203
293.203
293.203
293.203
293.203
293.203
293.203
293.203
293.203
293.203
293.203
293.203
293.203
293.203
293.203
293.203
293.203
293.203
293.203
293.203
293.203
293.203
293.203
293.203
293.203
293.203
293.203
293.203
293.203
293.203
293.203
293.203
293.203
293.203
293.203
293.203
293.203
293.203
293.203
293.203
293.203
293.203
293.203
293.203
293.203
293.203
293.203
293.203
293.203
293.203
293.202
293.202
293.202
293.202
293.202
293.202
293.202
293.202
293.202
293.202
293.201
293.201
293.201
293.201
293.201
293.201
293.2
293.199
293.198
293.197
293.195
293.193
293.191
293.188
293.185
293.181
293.177
293.171
293.165
293.159
293.151
293.142
293.132
293.12
293.107
293.093
293.076
293.058
293.038
293.016
292.992
292.966
292.937
292.906
292.873
292.837
292.799
292.759
292.716
292.672
292.625
292.576
292.526
292.474
292.421
292.367
292.312
292.256
292.201
292.145
292.09
292.036
291.982
291.93
291.879
291.83
291.782
291.737
291.694
291.653
291.614
291.578
291.544
291.513
291.483
291.457
291.432
291.41
291.39
291.371
291.355
291.34
291.327
291.315
291.304
291.295
291.286
291.279
291.273
291.267
291.262
291.257
291.253
291.249
291.245
291.241
291.238
291.234
291.23
291.226
291.221
291.217
291.212
291.206
291.201
291.195
291.19
291.184
291.178
291.173
291.168
291.163
291.158
291.153
291.149
291.146
291.142
291.14
291.137
291.135
291.134
291.132
291.132
291.132
291.131
291.131
291.131
291.131
291.131
291.131
291.13
291.13
291.13
291.13
291.13
291.13
291.13
291.13
)
;

boundaryField
{
    sides
    {
        type            calculated;
        value           nonuniform List<scalar> 2(291.13 8.18918);
    }
    empty
    {
        type            empty;
    }
}


// ************************************************************************* //
