/*--------------------------------*- C++ -*----------------------------------*\
  =========                 |
  \\      /  F ield         | OpenFOAM: The Open Source CFD Toolbox
   \\    /   O peration     | Website:  https://openfoam.org
    \\  /    A nd           | Version:  9
     \\/     M anipulation  |
\*---------------------------------------------------------------------------*/
FoamFile
{
    format      ascii;
    class       surfaceScalarField;
    location    "0.022";
    object      phi;
}
// * * * * * * * * * * * * * * * * * * * * * * * * * * * * * * * * * * * * * //

dimensions      [1 0 -1 0 0 0 0];

internalField   nonuniform List<scalar> 
999
(
16.7571
17.9401
19.1219
20.3029
21.4843
22.6669
23.8507
25.035
26.2193
27.4038
28.5889
29.7742
30.9594
32.1444
33.3293
34.514
35.6986
36.8831
38.0675
39.2517
40.4358
41.6199
42.8037
43.9875
45.1711
46.3546
47.538
48.7212
49.9043
51.0873
52.2702
53.4529
54.6354
55.8179
57.0001
58.1823
59.3643
60.5461
61.7278
62.9094
64.0908
65.2721
66.4532
67.6341
68.8149
69.9956
71.176
72.3563
73.5365
74.7165
75.8963
77.076
78.2555
79.4348
80.6139
81.7929
82.9717
84.1503
85.3287
86.507
87.6851
88.863
90.0407
91.2182
92.3955
93.5727
94.7496
95.9264
97.103
98.2793
99.4555
100.631
101.807
102.983
104.158
105.333
106.508
107.683
108.858
110.032
111.206
112.38
113.554
114.727
115.9
117.073
118.246
119.419
120.591
121.763
122.935
124.106
125.278
126.449
127.62
128.791
129.961
131.131
132.301
133.471
134.64
135.81
136.979
138.147
139.316
140.484
141.652
142.819
143.986
145.154
146.32
147.487
148.653
149.819
150.985
152.15
153.315
154.48
155.645
156.809
157.973
159.137
160.3
161.463
162.626
163.789
164.951
166.113
167.274
168.436
169.597
170.757
171.918
173.078
174.238
175.397
176.557
177.715
178.874
180.032
181.19
182.347
183.504
184.661
185.818
186.974
188.129
189.285
190.44
191.595
192.749
193.903
195.057
196.211
197.363
198.516
199.668
200.82
201.972
203.122
204.274
205.424
206.573
207.724
208.872
210.021
211.17
212.318
213.466
214.613
215.76
216.906
218.052
219.198
220.343
221.488
222.632
223.776
224.92
226.063
227.206
228.348
229.49
230.632
231.773
232.913
234.053
235.193
236.332
237.471
238.609
239.747
240.885
242.022
243.158
244.294
245.43
246.565
247.7
248.834
249.967
251.101
252.233
253.365
254.497
255.628
256.759
257.889
259.019
260.148
261.277
262.405
263.533
264.66
265.787
266.913
268.038
269.163
270.288
271.412
272.535
273.658
274.78
275.902
277.023
278.144
279.264
280.383
281.502
282.62
283.738
284.855
285.972
287.088
288.203
289.318
290.432
291.545
292.658
293.771
294.882
295.993
297.104
298.213
299.323
300.431
301.539
302.646
303.753
304.858
305.964
307.068
308.172
309.275
310.377
311.479
312.58
313.68
314.78
315.879
316.977
318.074
319.171
320.267
321.362
322.457
323.55
324.643
325.736
326.827
327.918
329.007
330.096
331.185
332.272
333.358
334.444
335.529
336.613
337.696
338.779
339.86
340.941
342.021
343.1
344.178
345.255
346.331
347.406
348.481
349.554
350.627
351.699
352.769
353.839
354.908
355.975
357.042
358.108
359.172
360.236
361.299
362.36
363.421
364.48
365.539
366.596
367.652
368.708
369.762
370.814
371.866
372.917
373.966
375.014
376.061
377.107
378.152
379.195
380.237
381.278
382.318
383.356
384.393
385.429
386.463
387.496
388.527
389.557
390.586
391.614
392.639
393.664
394.687
395.708
396.728
397.747
398.763
399.778
400.792
401.804
402.814
403.823
404.83
405.835
406.838
407.84
408.84
409.838
410.834
411.828
412.821
413.811
414.799
415.785
416.77
417.752
418.732
419.71
420.685
421.659
422.63
423.598
424.565
425.529
426.49
427.449
428.406
429.36
430.311
431.259
432.205
433.148
434.088
435.025
435.959
436.89
437.817
438.742
439.664
440.582
441.496
442.407
443.315
444.219
445.119
446.016
446.908
447.797
448.682
449.562
450.438
451.31
452.177
453.04
453.899
454.752
455.601
456.444
457.283
458.116
458.944
459.767
460.584
461.396
462.201
463.001
463.795
464.582
465.363
466.138
466.906
467.667
468.421
469.169
469.909
470.642
471.367
472.085
472.794
473.496
474.19
474.876
475.553
476.222
476.883
477.534
478.176
478.81
479.434
480.049
480.654
481.249
481.835
482.411
482.977
483.533
484.079
484.614
485.139
485.654
486.158
486.651
487.134
487.605
488.066
488.516
488.955
489.383
489.801
490.207
490.602
490.987
491.36
491.722
492.074
492.415
492.745
493.065
493.374
493.672
493.96
494.238
494.506
494.763
495.011
495.249
495.478
495.698
495.908
496.109
496.301
496.485
496.661
496.828
496.987
497.139
497.283
497.42
497.549
497.672
497.789
497.899
498.003
498.101
498.193
498.28
498.362
498.438
498.51
498.578
498.641
498.7
498.756
498.807
498.855
498.9
498.941
498.98
499.016
499.049
499.08
499.108
499.135
499.159
499.181
499.202
499.221
499.238
499.254
499.269
499.282
499.294
499.306
499.316
499.325
499.334
499.341
499.348
499.355
499.36
499.366
499.37
499.375
499.378
499.382
499.385
499.388
499.39
499.392
499.394
499.396
499.397
499.399
499.4
499.401
499.402
499.403
499.403
499.404
499.405
499.405
499.405
499.406
499.406
499.406
499.406
499.406
499.406
499.406
499.406
499.406
499.406
499.406
499.406
499.406
499.406
499.406
499.405
499.405
499.405
499.405
499.405
499.404
499.404
499.404
499.404
499.404
499.403
499.403
499.403
499.403
499.402
499.402
499.402
499.402
499.401
499.401
499.401
499.401
499.4
499.4
499.4
499.4
499.399
499.399
499.399
499.399
499.398
499.398
499.398
499.398
499.397
499.397
499.397
499.397
499.396
499.396
499.396
499.395
499.395
499.395
499.395
499.394
499.394
499.394
499.394
499.393
499.393
499.393
499.392
499.392
499.392
499.392
499.391
499.391
499.391
499.39
499.39
499.39
499.39
499.389
499.389
499.389
499.388
499.388
499.388
499.387
499.387
499.387
499.387
499.386
499.386
499.386
499.385
499.385
499.385
499.384
499.384
499.384
499.383
499.383
499.383
499.383
499.382
499.382
499.382
499.381
499.381
499.381
499.38
499.38
499.38
499.379
499.379
499.379
499.378
499.378
499.378
499.377
499.377
499.377
499.376
499.376
499.376
499.375
499.375
499.374
499.374
499.374
499.373
499.373
499.373
499.372
499.372
499.372
499.371
499.371
499.37
499.37
499.37
499.369
499.369
499.369
499.368
499.368
499.367
499.367
499.367
499.366
499.366
499.366
499.365
499.365
499.364
499.364
499.364
499.363
499.363
499.362
499.362
499.362
499.361
499.361
499.36
499.36
499.359
499.359
499.359
499.358
499.358
499.357
499.357
499.357
499.356
499.356
499.355
499.355
499.354
499.354
499.353
499.353
499.353
499.352
499.352
499.351
499.351
499.35
499.35
499.349
499.349
499.348
499.348
499.347
499.347
499.347
499.346
499.346
499.345
499.345
499.344
499.344
499.343
499.343
499.342
499.342
499.341
499.341
499.34
499.34
499.339
499.339
499.338
499.338
499.337
499.337
499.336
499.335
499.335
499.334
499.334
499.333
499.333
499.332
499.332
499.331
499.331
499.33
499.329
499.329
499.328
499.328
499.327
499.327
499.326
499.325
499.325
499.324
499.324
499.323
499.322
499.322
499.321
499.321
499.32
499.319
499.319
499.318
499.318
499.317
499.316
499.316
499.315
499.314
499.314
499.313
499.312
499.312
499.311
499.31
499.31
499.309
499.308
499.308
499.307
499.306
499.306
499.305
499.304
499.304
499.303
499.302
499.301
499.301
499.3
499.299
499.298
499.298
499.297
499.296
499.295
499.295
499.294
499.293
499.292
499.292
499.291
499.29
499.289
499.288
499.288
499.287
499.286
499.285
499.284
499.284
499.283
499.282
499.281
499.28
499.279
499.279
499.278
499.277
499.276
499.275
499.274
499.273
499.272
499.271
499.27
499.27
499.269
499.268
499.267
499.266
499.265
499.264
499.263
499.262
499.261
499.26
499.259
499.258
499.257
499.256
499.255
499.254
499.253
499.251
499.25
499.249
499.248
499.247
499.246
499.245
499.244
499.243
499.241
499.24
499.239
499.237
499.236
499.234
499.233
499.231
499.229
499.227
499.225
499.222
499.22
499.217
499.214
499.211
499.208
499.205
499.201
499.197
499.192
499.188
499.183
499.178
499.172
499.166
499.16
499.153
499.146
499.139
499.131
499.124
499.116
499.107
499.099
499.09
499.081
499.072
499.064
499.055
499.046
499.037
499.028
499.019
499.011
499.003
498.995
498.987
498.98
498.973
498.965
498.96
498.953
498.947
498.942
498.936
498.932
498.927
498.922
498.918
498.914
498.911
498.907
498.904
498.9
498.898
498.895
498.892
498.889
498.886
498.884
498.881
498.879
498.876
498.873
498.871
498.868
498.866
498.863
498.86
498.857
498.854
498.852
498.848
498.845
498.842
498.839
498.836
498.832
498.829
498.826
498.822
498.819
498.816
498.813
498.809
498.806
498.803
498.8
498.797
498.794
498.791
498.788
498.785
498.782
498.779
498.776
498.773
498.77
498.767
498.763
498.76
498.757
498.754
498.751
498.747
498.744
498.741
498.737
498.734
498.73
)
;

boundaryField
{
    sides
    {
        type            calculated;
        value           nonuniform List<scalar> 2(498.726 -15.5735);
    }
    empty
    {
        type            empty;
        value           nonuniform List<scalar> 0();
    }
}


// ************************************************************************* //
