/*--------------------------------*- C++ -*----------------------------------*\
  =========                 |
  \\      /  F ield         | OpenFOAM: The Open Source CFD Toolbox
   \\    /   O peration     | Website:  https://openfoam.org
    \\  /    A nd           | Version:  9
     \\/     M anipulation  |
\*---------------------------------------------------------------------------*/
FoamFile
{
    format      ascii;
    class       volScalarField;
    location    "0.022";
    object      T;
}
// * * * * * * * * * * * * * * * * * * * * * * * * * * * * * * * * * * * * * //

dimensions      [0 0 0 1 0 0 0];

internalField   nonuniform List<scalar> 
1000
(
258.411
258.441
258.499
258.57
258.632
258.671
258.69
258.695
258.695
258.694
258.687
258.674
258.66
258.647
258.634
258.621
258.609
258.596
258.583
258.571
258.558
258.545
258.533
258.52
258.507
258.494
258.481
258.469
258.456
258.443
258.43
258.417
258.404
258.391
258.378
258.365
258.351
258.338
258.325
258.312
258.299
258.285
258.272
258.259
258.246
258.232
258.219
258.205
258.192
258.178
258.165
258.151
258.138
258.124
258.111
258.097
258.083
258.069
258.056
258.042
258.028
258.014
258
257.987
257.973
257.959
257.945
257.931
257.917
257.903
257.888
257.874
257.86
257.846
257.832
257.818
257.803
257.789
257.775
257.76
257.746
257.731
257.717
257.702
257.688
257.673
257.659
257.644
257.629
257.615
257.6
257.585
257.57
257.555
257.541
257.526
257.511
257.496
257.481
257.466
257.451
257.436
257.42
257.405
257.39
257.375
257.36
257.344
257.329
257.314
257.298
257.283
257.267
257.252
257.236
257.221
257.205
257.19
257.174
257.158
257.142
257.127
257.111
257.095
257.079
257.063
257.047
257.031
257.015
256.999
256.983
256.966
256.951
256.933
256.92
256.9
256.888
256.867
256.856
256.834
256.823
256.801
256.79
256.767
256.756
256.734
256.723
256.701
256.689
256.667
256.656
256.634
256.621
256.601
256.585
256.569
256.549
256.536
256.515
256.5
256.483
256.464
256.449
256.43
256.413
256.396
256.377
256.361
256.343
256.325
256.308
256.29
256.272
256.255
256.237
256.219
256.201
256.183
256.165
256.147
256.129
256.111
256.093
256.075
256.056
256.038
256.02
256.001
255.983
255.965
255.946
255.928
255.909
255.89
255.872
255.853
255.834
255.816
255.797
255.778
255.759
255.74
255.721
255.702
255.683
255.664
255.645
255.625
255.606
255.587
255.567
255.548
255.528
255.509
255.489
255.47
255.45
255.43
255.411
255.391
255.371
255.351
255.331
255.311
255.291
255.271
255.251
255.231
255.211
255.191
255.17
255.15
255.129
255.109
255.089
255.068
255.047
255.027
255.006
254.985
254.964
254.944
254.923
254.902
254.881
254.86
254.839
254.817
254.796
254.775
254.754
254.732
254.711
254.689
254.668
254.646
254.625
254.603
254.581
254.559
254.537
254.516
254.494
254.472
254.45
254.427
254.405
254.383
254.361
254.338
254.316
254.294
254.271
254.248
254.226
254.203
254.18
254.158
254.135
254.112
254.089
254.066
254.043
254.019
253.996
253.973
253.95
253.926
253.903
253.879
253.856
253.832
253.808
253.784
253.76
253.736
253.712
253.688
253.664
253.64
253.616
253.591
253.567
253.543
253.518
253.493
253.469
253.444
253.419
253.394
253.369
253.344
253.319
253.294
253.269
253.244
253.218
253.193
253.167
253.142
253.116
253.09
253.064
253.039
253.013
252.987
252.96
252.934
252.908
252.881
252.855
252.828
252.802
252.775
252.748
252.721
252.695
252.667
252.64
252.613
252.586
252.558
252.531
252.503
252.476
252.448
252.42
252.392
252.364
252.336
252.308
252.279
252.251
252.222
252.194
252.165
252.136
252.107
252.078
252.049
252.02
251.99
251.961
251.931
251.901
251.872
251.842
251.811
251.781
251.751
251.72
251.69
251.659
251.628
251.597
251.566
251.535
251.504
251.472
251.44
251.409
251.377
251.344
251.312
251.28
251.247
251.214
251.182
251.148
251.115
251.082
251.048
251.015
250.981
250.947
250.912
250.878
250.843
250.808
250.773
250.738
250.703
250.667
250.631
250.595
250.559
250.523
250.486
250.449
250.412
250.375
250.338
250.3
250.262
250.224
250.186
250.147
250.109
250.07
250.031
249.992
249.952
249.913
249.873
249.833
249.793
249.753
249.712
249.672
249.631
249.59
249.55
249.509
249.468
249.426
249.385
249.344
249.303
249.262
249.221
249.179
249.138
249.098
249.057
249.016
248.976
248.935
248.895
248.855
248.816
248.777
248.738
248.7
248.662
248.624
248.587
248.551
248.515
248.479
248.445
248.411
248.377
248.345
248.313
248.282
248.252
248.222
248.194
248.166
248.139
248.114
248.089
248.065
248.042
248.02
247.999
247.979
247.96
247.942
247.925
247.909
247.894
247.88
247.866
247.854
247.842
247.831
247.822
247.812
247.804
247.796
247.789
247.783
247.777
247.772
247.767
247.763
247.759
247.756
247.753
247.75
247.748
247.746
247.745
247.743
247.742
247.741
247.74
247.74
247.739
247.739
247.739
247.738
247.738
247.738
247.738
247.738
247.738
247.739
247.739
247.739
247.739
247.739
247.739
247.74
247.74
247.74
247.74
247.74
247.74
247.741
247.741
247.741
247.741
247.741
247.741
247.741
247.742
247.742
247.742
247.742
247.742
247.742
247.742
247.742
247.742
247.743
247.743
247.743
247.743
247.743
247.743
247.743
247.743
247.743
247.743
247.744
247.744
247.744
247.744
247.744
247.744
247.744
247.744
247.744
247.745
247.745
247.745
247.745
247.745
247.745
247.745
247.745
247.746
247.746
247.746
247.746
247.746
247.746
247.746
247.747
247.747
247.747
247.747
247.747
247.747
247.747
247.747
247.748
247.748
247.748
247.748
247.748
247.748
247.748
247.749
247.749
247.749
247.749
247.749
247.749
247.749
247.749
247.75
247.75
247.75
247.75
247.75
247.75
247.75
247.751
247.751
247.751
247.751
247.751
247.751
247.751
247.751
247.752
247.752
247.752
247.752
247.752
247.752
247.752
247.753
247.753
247.753
247.753
247.753
247.753
247.753
247.754
247.754
247.754
247.754
247.754
247.754
247.754
247.755
247.755
247.755
247.755
247.755
247.755
247.755
247.756
247.756
247.756
247.756
247.756
247.756
247.757
247.757
247.757
247.757
247.757
247.757
247.757
247.758
247.758
247.758
247.758
247.758
247.758
247.759
247.759
247.759
247.759
247.759
247.759
247.76
247.76
247.76
247.76
247.76
247.761
247.761
247.761
247.761
247.761
247.761
247.762
247.762
247.762
247.762
247.762
247.763
247.763
247.763
247.763
247.763
247.763
247.764
247.764
247.764
247.764
247.764
247.765
247.765
247.765
247.765
247.765
247.766
247.766
247.766
247.766
247.766
247.767
247.767
247.767
247.767
247.767
247.768
247.768
247.768
247.768
247.768
247.769
247.769
247.769
247.769
247.77
247.77
247.77
247.77
247.77
247.771
247.771
247.771
247.771
247.772
247.772
247.772
247.772
247.772
247.773
247.773
247.773
247.773
247.774
247.774
247.774
247.774
247.775
247.775
247.775
247.775
247.776
247.776
247.776
247.776
247.777
247.777
247.777
247.777
247.778
247.778
247.778
247.778
247.779
247.779
247.779
247.779
247.78
247.78
247.78
247.781
247.781
247.781
247.781
247.782
247.782
247.782
247.782
247.783
247.783
247.783
247.784
247.784
247.784
247.785
247.785
247.785
247.785
247.786
247.786
247.786
247.786
247.787
247.787
247.788
247.788
247.788
247.788
247.789
247.789
247.79
247.79
247.79
247.79
247.791
247.791
247.792
247.792
247.792
247.792
247.793
247.793
247.794
247.794
247.794
247.794
247.795
247.795
247.796
247.796
247.796
247.796
247.797
247.797
247.798
247.798
247.799
247.799
247.799
247.799
247.8
247.8
247.801
247.801
247.802
247.802
247.803
247.803
247.803
247.803
247.804
247.804
247.805
247.805
247.806
247.806
247.807
247.807
247.808
247.808
247.809
247.809
247.809
247.809
247.81
247.81
247.811
247.811
247.812
247.812
247.813
247.813
247.814
247.814
247.815
247.815
247.816
247.816
247.817
247.817
247.818
247.818
247.819
247.819
247.821
247.821
247.822
247.822
247.823
247.823
247.824
247.824
247.826
247.826
247.828
247.828
247.83
247.83
247.833
247.833
247.837
247.837
247.841
247.842
247.847
247.848
247.854
247.855
247.863
247.864
247.873
247.874
247.886
247.887
247.901
247.903
247.92
247.922
247.941
247.943
247.965
247.967
247.992
247.995
248.022
248.024
248.055
248.057
248.089
248.091
248.125
248.127
248.162
248.163
248.198
248.199
248.234
248.235
248.269
248.269
248.301
248.301
248.331
248.331
248.358
248.359
248.381
248.382
248.403
248.403
248.421
248.421
248.437
248.437
248.45
248.45
248.461
248.461
248.47
248.47
248.478
248.478
248.484
248.484
248.49
248.49
248.495
248.495
248.499
248.499
248.504
248.504
248.509
248.509
248.513
248.514
248.519
248.519
248.525
248.525
248.531
248.531
248.537
248.537
248.543
248.543
248.549
248.549
248.554
248.554
248.559
248.559
248.563
248.563
248.568
248.568
248.571
248.571
248.574
248.574
248.578
248.578
248.581
248.581
248.584
248.584
248.587
248.587
248.591
248.591
248.594
248.594
248.598
)
;

boundaryField
{
    sides
    {
        type            zeroGradient;
    }
    empty
    {
        type            empty;
    }
}


// ************************************************************************* //
