/*--------------------------------*- C++ -*----------------------------------*\
  =========                 |
  \\      /  F ield         | OpenFOAM: The Open Source CFD Toolbox
   \\    /   O peration     | Website:  https://openfoam.org
    \\  /    A nd           | Version:  9
     \\/     M anipulation  |
\*---------------------------------------------------------------------------*/
FoamFile
{
    format      ascii;
    class       volVectorField;
    location    "0.025";
    object      U;
}
// * * * * * * * * * * * * * * * * * * * * * * * * * * * * * * * * * * * * * //

dimensions      [0 1 -1 0 0 0 0];

internalField   nonuniform List<vector> 
100
(
(149.133 0 0)
(154.265 0 0)
(157.243 0 0)
(160.464 0 0)
(163.626 0 0)
(166.803 0 0)
(169.976 0 0)
(173.151 0 0)
(176.326 0 0)
(179.501 0 0)
(182.677 0 0)
(185.854 0 0)
(189.031 0 0)
(192.208 0 0)
(195.386 0 0)
(198.565 0 0)
(201.744 0 0)
(204.924 0 0)
(208.104 0 0)
(211.285 0 0)
(214.467 0 0)
(217.648 0 0)
(220.831 0 0)
(224.014 0 0)
(227.197 0 0)
(230.381 0 0)
(233.565 0 0)
(236.748 0 0)
(239.931 0 0)
(243.113 0 0)
(246.296 0 0)
(249.48 0 0)
(252.664 0 0)
(255.845 0 0)
(259.019 0 0)
(262.188 0 0)
(265.355 0 0)
(268.526 0 0)
(271.701 0 0)
(274.872 0 0)
(278.022 0 0)
(281.124 0 0)
(284.145 0 0)
(286.99 0 0)
(289.489 0 0)
(291.452 0 0)
(292.664 0 0)
(293.233 0 0)
(293.402 0 0)
(293.43 0 0)
(293.506 0 0)
(293.731 0 0)
(293.874 0 0)
(293.91 0 0)
(293.887 0 0)
(293.81 0 0)
(293.679 0 0)
(293.522 0 0)
(293.481 0 0)
(293.488 0 0)
(293.507 0 0)
(293.551 0 0)
(293.635 0 0)
(293.573 0 0)
(293.505 0 0)
(293.471 0 0)
(293.432 0 0)
(293.425 0 0)
(293.438 0 0)
(293.444 0 0)
(293.443 0 0)
(293.379 0 0)
(293.313 0 0)
(293.281 0 0)
(293.271 0 0)
(293.271 0 0)
(293.278 0 0)
(293.289 0 0)
(293.285 0 0)
(293.246 0 0)
(293.163 0 0)
(293.103 0 0)
(293.067 0 0)
(293.043 0 0)
(293.038 0 0)
(293.061 0 0)
(293.189 0 0)
(293.315 0 0)
(293.311 0 0)
(292.603 0 0)
(289.675 0 0)
(287.271 0 0)
(286.496 0 0)
(286.347 0 0)
(286.308 0 0)
(285.798 0 0)
(283.487 0 0)
(281.515 0 0)
(280.896 0 0)
(280.791 0 0)
)
;

boundaryField
{
    sides
    {
        type            zeroGradient;
    }
    empty
    {
        type            empty;
    }
}


// ************************************************************************* //
