/*--------------------------------*- C++ -*----------------------------------*\
  =========                 |
  \\      /  F ield         | OpenFOAM: The Open Source CFD Toolbox
   \\    /   O peration     | Website:  https://openfoam.org
    \\  /    A nd           | Version:  9
     \\/     M anipulation  |
\*---------------------------------------------------------------------------*/
FoamFile
{
    format      ascii;
    class       volVectorField;
    location    "0.046";
    object      U;
}
// * * * * * * * * * * * * * * * * * * * * * * * * * * * * * * * * * * * * * //

dimensions      [0 1 -1 0 0 0 0];

internalField   nonuniform List<vector> 
1000
(
(19.2572 0 0)
(19.5082 0 0)
(19.8314 0 0)
(20.0979 0 0)
(20.3303 0 0)
(20.5604 0 0)
(20.7962 0 0)
(21.0348 0 0)
(21.2734 0 0)
(21.5113 0 0)
(21.749 0 0)
(21.9867 0 0)
(22.2243 0 0)
(22.462 0 0)
(22.6996 0 0)
(22.9371 0 0)
(23.1746 0 0)
(23.4121 0 0)
(23.6495 0 0)
(23.8868 0 0)
(24.1241 0 0)
(24.3613 0 0)
(24.5984 0 0)
(24.8355 0 0)
(25.0725 0 0)
(25.3094 0 0)
(25.5462 0 0)
(25.783 0 0)
(26.0197 0 0)
(26.2563 0 0)
(26.4928 0 0)
(26.7292 0 0)
(26.9655 0 0)
(27.2018 0 0)
(27.4379 0 0)
(27.6739 0 0)
(27.9098 0 0)
(28.1456 0 0)
(28.3812 0 0)
(28.6168 0 0)
(28.8522 0 0)
(29.0876 0 0)
(29.3228 0 0)
(29.5578 0 0)
(29.7927 0 0)
(30.0275 0 0)
(30.2622 0 0)
(30.4966 0 0)
(30.731 0 0)
(30.9651 0 0)
(31.1992 0 0)
(31.433 0 0)
(31.6667 0 0)
(31.9002 0 0)
(32.1336 0 0)
(32.3668 0 0)
(32.5998 0 0)
(32.8327 0 0)
(33.0653 0 0)
(33.2977 0 0)
(33.53 0 0)
(33.762 0 0)
(33.9939 0 0)
(34.2255 0 0)
(34.4569 0 0)
(34.688 0 0)
(34.919 0 0)
(35.1497 0 0)
(35.3802 0 0)
(35.6104 0 0)
(35.8404 0 0)
(36.0701 0 0)
(36.2996 0 0)
(36.5288 0 0)
(36.7577 0 0)
(36.9863 0 0)
(37.2148 0 0)
(37.4429 0 0)
(37.6707 0 0)
(37.8982 0 0)
(38.1253 0 0)
(38.3522 0 0)
(38.5787 0 0)
(38.8049 0 0)
(39.0308 0 0)
(39.2563 0 0)
(39.4815 0 0)
(39.7063 0 0)
(39.9307 0 0)
(40.1547 0 0)
(40.3784 0 0)
(40.6016 0 0)
(40.8245 0 0)
(41.0469 0 0)
(41.2689 0 0)
(41.4905 0 0)
(41.7116 0 0)
(41.9323 0 0)
(42.1526 0 0)
(42.3726 0 0)
(42.5921 0 0)
(42.8108 0 0)
(43.029 0 0)
(43.2466 0 0)
(43.4637 0 0)
(43.6802 0 0)
(43.8963 0 0)
(44.1118 0 0)
(44.3268 0 0)
(44.5412 0 0)
(44.7551 0 0)
(44.9684 0 0)
(45.1811 0 0)
(45.3932 0 0)
(45.6047 0 0)
(45.8156 0 0)
(46.0258 0 0)
(46.2354 0 0)
(46.4443 0 0)
(46.6526 0 0)
(46.8601 0 0)
(47.067 0 0)
(47.2731 0 0)
(47.4785 0 0)
(47.6832 0 0)
(47.8871 0 0)
(48.0903 0 0)
(48.2927 0 0)
(48.4943 0 0)
(48.6951 0 0)
(48.895 0 0)
(49.0942 0 0)
(49.2925 0 0)
(49.4899 0 0)
(49.6865 0 0)
(49.8822 0 0)
(50.077 0 0)
(50.271 0 0)
(50.464 0 0)
(50.656 0 0)
(50.8472 0 0)
(51.0373 0 0)
(51.2265 0 0)
(51.4148 0 0)
(51.602 0 0)
(51.7883 0 0)
(51.9735 0 0)
(52.1577 0 0)
(52.3409 0 0)
(52.523 0 0)
(52.7041 0 0)
(52.8841 0 0)
(53.063 0 0)
(53.2409 0 0)
(53.4177 0 0)
(53.5933 0 0)
(53.7679 0 0)
(53.9414 0 0)
(54.1137 0 0)
(54.2849 0 0)
(54.455 0 0)
(54.624 0 0)
(54.7918 0 0)
(54.9585 0 0)
(55.124 0 0)
(55.2884 0 0)
(55.4516 0 0)
(55.6137 0 0)
(55.7747 0 0)
(55.9345 0 0)
(56.0932 0 0)
(56.2507 0 0)
(56.4071 0 0)
(56.5623 0 0)
(56.7165 0 0)
(56.8695 0 0)
(57.0214 0 0)
(57.1722 0 0)
(57.3219 0 0)
(57.4705 0 0)
(57.618 0 0)
(57.7645 0 0)
(57.9099 0 0)
(58.0543 0 0)
(58.1976 0 0)
(58.34 0 0)
(58.4813 0 0)
(58.6217 0 0)
(58.7611 0 0)
(58.8996 0 0)
(59.0371 0 0)
(59.1738 0 0)
(59.3095 0 0)
(59.4444 0 0)
(59.5784 0 0)
(59.7116 0 0)
(59.844 0 0)
(59.9756 0 0)
(60.1065 0 0)
(60.2366 0 0)
(60.366 0 0)
(60.4947 0 0)
(60.6227 0 0)
(60.7501 0 0)
(60.8768 0 0)
(61.0029 0 0)
(61.1285 0 0)
(61.2535 0 0)
(61.3779 0 0)
(61.5019 0 0)
(61.6253 0 0)
(61.7483 0 0)
(61.8708 0 0)
(61.9929 0 0)
(62.1145 0 0)
(62.2358 0 0)
(62.3567 0 0)
(62.4773 0 0)
(62.5975 0 0)
(62.7174 0 0)
(62.837 0 0)
(62.9564 0 0)
(63.0754 0 0)
(63.1943 0 0)
(63.3128 0 0)
(63.4312 0 0)
(63.5494 0 0)
(63.6674 0 0)
(63.7852 0 0)
(63.9028 0 0)
(64.0203 0 0)
(64.1376 0 0)
(64.2548 0 0)
(64.3719 0 0)
(64.4889 0 0)
(64.6058 0 0)
(64.7226 0 0)
(64.8393 0 0)
(64.956 0 0)
(65.0726 0 0)
(65.1891 0 0)
(65.3056 0 0)
(65.422 0 0)
(65.5384 0 0)
(65.6547 0 0)
(65.7711 0 0)
(65.8874 0 0)
(66.0037 0 0)
(66.1199 0 0)
(66.2362 0 0)
(66.3525 0 0)
(66.4687 0 0)
(66.585 0 0)
(66.7012 0 0)
(66.8175 0 0)
(66.9337 0 0)
(67.05 0 0)
(67.1663 0 0)
(67.2826 0 0)
(67.3989 0 0)
(67.5153 0 0)
(67.6316 0 0)
(67.748 0 0)
(67.8644 0 0)
(67.9808 0 0)
(68.0973 0 0)
(68.2137 0 0)
(68.3302 0 0)
(68.4468 0 0)
(68.5633 0 0)
(68.6799 0 0)
(68.7965 0 0)
(68.9132 0 0)
(69.0298 0 0)
(69.1465 0 0)
(69.2633 0 0)
(69.38 0 0)
(69.4968 0 0)
(69.6136 0 0)
(69.7305 0 0)
(69.8474 0 0)
(69.9643 0 0)
(70.0813 0 0)
(70.1983 0 0)
(70.3153 0 0)
(70.4324 0 0)
(70.5495 0 0)
(70.6666 0 0)
(70.7837 0 0)
(70.9009 0 0)
(71.0182 0 0)
(71.1354 0 0)
(71.2527 0 0)
(71.3701 0 0)
(71.4874 0 0)
(71.6048 0 0)
(71.7223 0 0)
(71.8397 0 0)
(71.9572 0 0)
(72.0748 0 0)
(72.1923 0 0)
(72.31 0 0)
(72.4276 0 0)
(72.5453 0 0)
(72.663 0 0)
(72.7807 0 0)
(72.8985 0 0)
(73.0164 0 0)
(73.1342 0 0)
(73.2521 0 0)
(73.37 0 0)
(73.488 0 0)
(73.606 0 0)
(73.724 0 0)
(73.8421 0 0)
(73.9602 0 0)
(74.0783 0 0)
(74.1965 0 0)
(74.3147 0 0)
(74.433 0 0)
(74.5513 0 0)
(74.6696 0 0)
(74.7879 0 0)
(74.9063 0 0)
(75.0247 0 0)
(75.1432 0 0)
(75.2617 0 0)
(75.3802 0 0)
(75.4988 0 0)
(75.6174 0 0)
(75.736 0 0)
(75.8547 0 0)
(75.9734 0 0)
(76.0922 0 0)
(76.211 0 0)
(76.3298 0 0)
(76.4486 0 0)
(76.5675 0 0)
(76.6864 0 0)
(76.8054 0 0)
(76.9244 0 0)
(77.0434 0 0)
(77.1625 0 0)
(77.2816 0 0)
(77.4007 0 0)
(77.5199 0 0)
(77.6391 0 0)
(77.7583 0 0)
(77.8776 0 0)
(77.9969 0 0)
(78.1163 0 0)
(78.2357 0 0)
(78.3551 0 0)
(78.4745 0 0)
(78.594 0 0)
(78.7135 0 0)
(78.8331 0 0)
(78.9527 0 0)
(79.0723 0 0)
(79.1919 0 0)
(79.3116 0 0)
(79.4314 0 0)
(79.5511 0 0)
(79.6709 0 0)
(79.7907 0 0)
(79.9106 0 0)
(80.0305 0 0)
(80.1504 0 0)
(80.2704 0 0)
(80.3904 0 0)
(80.5104 0 0)
(80.6305 0 0)
(80.7506 0 0)
(80.8707 0 0)
(80.9909 0 0)
(81.1111 0 0)
(81.2313 0 0)
(81.3516 0 0)
(81.4719 0 0)
(81.5923 0 0)
(81.7126 0 0)
(81.833 0 0)
(81.9535 0 0)
(82.0739 0 0)
(82.1945 0 0)
(82.315 0 0)
(82.4356 0 0)
(82.5562 0 0)
(82.6768 0 0)
(82.7975 0 0)
(82.9182 0 0)
(83.0389 0 0)
(83.1597 0 0)
(83.2805 0 0)
(83.4014 0 0)
(83.5222 0 0)
(83.6431 0 0)
(83.7641 0 0)
(83.885 0 0)
(84.0061 0 0)
(84.1271 0 0)
(84.2482 0 0)
(84.3693 0 0)
(84.4904 0 0)
(84.6116 0 0)
(84.7328 0 0)
(84.854 0 0)
(84.9753 0 0)
(85.0966 0 0)
(85.2179 0 0)
(85.3393 0 0)
(85.4607 0 0)
(85.5821 0 0)
(85.7036 0 0)
(85.8251 0 0)
(85.9466 0 0)
(86.0682 0 0)
(86.1898 0 0)
(86.3114 0 0)
(86.4331 0 0)
(86.5548 0 0)
(86.6765 0 0)
(86.7983 0 0)
(86.92 0 0)
(87.0419 0 0)
(87.1637 0 0)
(87.2856 0 0)
(87.4075 0 0)
(87.5295 0 0)
(87.6515 0 0)
(87.7735 0 0)
(87.8956 0 0)
(88.0176 0 0)
(88.1398 0 0)
(88.2619 0 0)
(88.3841 0 0)
(88.5063 0 0)
(88.6285 0 0)
(88.7508 0 0)
(88.8731 0 0)
(88.9955 0 0)
(89.1178 0 0)
(89.2403 0 0)
(89.3627 0 0)
(89.4852 0 0)
(89.6077 0 0)
(89.7302 0 0)
(89.8528 0 0)
(89.9754 0 0)
(90.098 0 0)
(90.2207 0 0)
(90.3434 0 0)
(90.4661 0 0)
(90.5888 0 0)
(90.7116 0 0)
(90.8345 0 0)
(90.9573 0 0)
(91.0802 0 0)
(91.2031 0 0)
(91.3261 0 0)
(91.449 0 0)
(91.5721 0 0)
(91.6951 0 0)
(91.8182 0 0)
(91.9413 0 0)
(92.0644 0 0)
(92.1876 0 0)
(92.3108 0 0)
(92.4341 0 0)
(92.5573 0 0)
(92.6806 0 0)
(92.804 0 0)
(92.9273 0 0)
(93.0507 0 0)
(93.1741 0 0)
(93.2976 0 0)
(93.4211 0 0)
(93.5446 0 0)
(93.6682 0 0)
(93.7917 0 0)
(93.9154 0 0)
(94.039 0 0)
(94.1627 0 0)
(94.2864 0 0)
(94.4101 0 0)
(94.5339 0 0)
(94.6577 0 0)
(94.7815 0 0)
(94.9054 0 0)
(95.0293 0 0)
(95.1532 0 0)
(95.2772 0 0)
(95.4012 0 0)
(95.5252 0 0)
(95.6492 0 0)
(95.7733 0 0)
(95.8974 0 0)
(96.0216 0 0)
(96.1458 0 0)
(96.27 0 0)
(96.3942 0 0)
(96.5185 0 0)
(96.6428 0 0)
(96.7671 0 0)
(96.8915 0 0)
(97.0159 0 0)
(97.1403 0 0)
(97.2647 0 0)
(97.3892 0 0)
(97.5137 0 0)
(97.6383 0 0)
(97.7629 0 0)
(97.8875 0 0)
(98.0121 0 0)
(98.1368 0 0)
(98.2615 0 0)
(98.3862 0 0)
(98.511 0 0)
(98.6358 0 0)
(98.7606 0 0)
(98.8855 0 0)
(99.0104 0 0)
(99.1353 0 0)
(99.2602 0 0)
(99.3852 0 0)
(99.5102 0 0)
(99.6353 0 0)
(99.7604 0 0)
(99.8855 0 0)
(100.011 0 0)
(100.136 0 0)
(100.261 0 0)
(100.386 0 0)
(100.511 0 0)
(100.637 0 0)
(100.762 0 0)
(100.887 0 0)
(101.013 0 0)
(101.138 0 0)
(101.264 0 0)
(101.389 0 0)
(101.515 0 0)
(101.64 0 0)
(101.766 0 0)
(101.891 0 0)
(102.017 0 0)
(102.143 0 0)
(102.268 0 0)
(102.394 0 0)
(102.52 0 0)
(102.645 0 0)
(102.771 0 0)
(102.897 0 0)
(103.023 0 0)
(103.149 0 0)
(103.275 0 0)
(103.401 0 0)
(103.527 0 0)
(103.653 0 0)
(103.779 0 0)
(103.905 0 0)
(104.031 0 0)
(104.157 0 0)
(104.283 0 0)
(104.409 0 0)
(104.536 0 0)
(104.662 0 0)
(104.788 0 0)
(104.914 0 0)
(105.041 0 0)
(105.167 0 0)
(105.294 0 0)
(105.42 0 0)
(105.546 0 0)
(105.673 0 0)
(105.799 0 0)
(105.926 0 0)
(106.053 0 0)
(106.179 0 0)
(106.306 0 0)
(106.432 0 0)
(106.559 0 0)
(106.686 0 0)
(106.813 0 0)
(106.939 0 0)
(107.066 0 0)
(107.193 0 0)
(107.32 0 0)
(107.447 0 0)
(107.574 0 0)
(107.701 0 0)
(107.828 0 0)
(107.955 0 0)
(108.082 0 0)
(108.209 0 0)
(108.336 0 0)
(108.463 0 0)
(108.59 0 0)
(108.717 0 0)
(108.845 0 0)
(108.972 0 0)
(109.099 0 0)
(109.226 0 0)
(109.354 0 0)
(109.481 0 0)
(109.609 0 0)
(109.736 0 0)
(109.863 0 0)
(109.991 0 0)
(110.118 0 0)
(110.246 0 0)
(110.373 0 0)
(110.501 0 0)
(110.628 0 0)
(110.756 0 0)
(110.884 0 0)
(111.011 0 0)
(111.139 0 0)
(111.267 0 0)
(111.395 0 0)
(111.522 0 0)
(111.65 0 0)
(111.778 0 0)
(111.906 0 0)
(112.034 0 0)
(112.162 0 0)
(112.29 0 0)
(112.418 0 0)
(112.546 0 0)
(112.674 0 0)
(112.802 0 0)
(112.93 0 0)
(113.058 0 0)
(113.186 0 0)
(113.314 0 0)
(113.442 0 0)
(113.571 0 0)
(113.699 0 0)
(113.827 0 0)
(113.956 0 0)
(114.084 0 0)
(114.212 0 0)
(114.341 0 0)
(114.469 0 0)
(114.598 0 0)
(114.726 0 0)
(114.855 0 0)
(114.983 0 0)
(115.112 0 0)
(115.24 0 0)
(115.369 0 0)
(115.498 0 0)
(115.626 0 0)
(115.755 0 0)
(115.884 0 0)
(116.012 0 0)
(116.141 0 0)
(116.27 0 0)
(116.398 0 0)
(116.527 0 0)
(116.656 0 0)
(116.784 0 0)
(116.913 0 0)
(117.042 0 0)
(117.17 0 0)
(117.299 0 0)
(117.427 0 0)
(117.556 0 0)
(117.684 0 0)
(117.813 0 0)
(117.941 0 0)
(118.07 0 0)
(118.198 0 0)
(118.326 0 0)
(118.454 0 0)
(118.582 0 0)
(118.71 0 0)
(118.838 0 0)
(118.965 0 0)
(119.093 0 0)
(119.22 0 0)
(119.348 0 0)
(119.475 0 0)
(119.602 0 0)
(119.728 0 0)
(119.855 0 0)
(119.981 0 0)
(120.107 0 0)
(120.233 0 0)
(120.359 0 0)
(120.484 0 0)
(120.609 0 0)
(120.734 0 0)
(120.858 0 0)
(120.982 0 0)
(121.106 0 0)
(121.23 0 0)
(121.353 0 0)
(121.475 0 0)
(121.597 0 0)
(121.719 0 0)
(121.84 0 0)
(121.961 0 0)
(122.082 0 0)
(122.201 0 0)
(122.321 0 0)
(122.44 0 0)
(122.558 0 0)
(122.676 0 0)
(122.793 0 0)
(122.91 0 0)
(123.026 0 0)
(123.141 0 0)
(123.256 0 0)
(123.37 0 0)
(123.484 0 0)
(123.597 0 0)
(123.71 0 0)
(123.822 0 0)
(123.933 0 0)
(124.043 0 0)
(124.153 0 0)
(124.263 0 0)
(124.372 0 0)
(124.48 0 0)
(124.588 0 0)
(124.695 0 0)
(124.802 0 0)
(124.908 0 0)
(125.014 0 0)
(125.12 0 0)
(125.224 0 0)
(125.329 0 0)
(125.433 0 0)
(125.537 0 0)
(125.641 0 0)
(125.744 0 0)
(125.847 0 0)
(125.95 0 0)
(126.053 0 0)
(126.155 0 0)
(126.258 0 0)
(126.36 0 0)
(126.463 0 0)
(126.565 0 0)
(126.668 0 0)
(126.771 0 0)
(126.874 0 0)
(126.977 0 0)
(127.08 0 0)
(127.184 0 0)
(127.288 0 0)
(127.392 0 0)
(127.497 0 0)
(127.602 0 0)
(127.708 0 0)
(127.814 0 0)
(127.92 0 0)
(128.027 0 0)
(128.135 0 0)
(128.243 0 0)
(128.352 0 0)
(128.461 0 0)
(128.571 0 0)
(128.682 0 0)
(128.793 0 0)
(128.904 0 0)
(129.017 0 0)
(129.13 0 0)
(129.243 0 0)
(129.358 0 0)
(129.473 0 0)
(129.588 0 0)
(129.704 0 0)
(129.821 0 0)
(129.939 0 0)
(130.057 0 0)
(130.175 0 0)
(130.294 0 0)
(130.414 0 0)
(130.534 0 0)
(130.655 0 0)
(130.776 0 0)
(130.898 0 0)
(131.02 0 0)
(131.143 0 0)
(131.266 0 0)
(131.39 0 0)
(131.514 0 0)
(131.639 0 0)
(131.764 0 0)
(131.889 0 0)
(132.015 0 0)
(132.141 0 0)
(132.267 0 0)
(132.394 0 0)
(132.521 0 0)
(132.648 0 0)
(132.776 0 0)
(132.904 0 0)
(133.032 0 0)
(133.16 0 0)
(133.289 0 0)
(133.418 0 0)
(133.547 0 0)
(133.676 0 0)
(133.806 0 0)
(133.936 0 0)
(134.066 0 0)
(134.196 0 0)
(134.326 0 0)
(134.456 0 0)
(134.587 0 0)
(134.718 0 0)
(134.849 0 0)
(134.979 0 0)
(135.111 0 0)
(135.242 0 0)
(135.373 0 0)
(135.504 0 0)
(135.635 0 0)
(135.767 0 0)
(135.898 0 0)
(136.029 0 0)
(136.161 0 0)
(136.292 0 0)
(136.423 0 0)
(136.554 0 0)
(136.684 0 0)
(136.815 0 0)
(136.945 0 0)
(137.075 0 0)
(137.204 0 0)
(137.333 0 0)
(137.462 0 0)
(137.59 0 0)
(137.717 0 0)
(137.844 0 0)
(137.97 0 0)
(138.095 0 0)
(138.219 0 0)
(138.342 0 0)
(138.464 0 0)
(138.585 0 0)
(138.704 0 0)
(138.822 0 0)
(138.938 0 0)
(139.053 0 0)
(139.166 0 0)
(139.277 0 0)
(139.387 0 0)
(139.494 0 0)
(139.599 0 0)
(139.702 0 0)
(139.803 0 0)
(139.902 0 0)
(139.998 0 0)
(140.092 0 0)
(140.184 0 0)
(140.273 0 0)
(140.36 0 0)
(140.444 0 0)
(140.526 0 0)
(140.606 0 0)
(140.683 0 0)
(140.759 0 0)
(140.832 0 0)
(140.904 0 0)
(140.974 0 0)
(141.042 0 0)
(141.109 0 0)
(141.174 0 0)
(141.239 0 0)
(141.302 0 0)
(141.365 0 0)
(141.427 0 0)
(141.489 0 0)
(141.551 0 0)
(141.612 0 0)
(141.674 0 0)
(141.736 0 0)
(141.799 0 0)
(141.862 0 0)
(141.926 0 0)
(141.992 0 0)
(142.058 0 0)
(142.125 0 0)
(142.194 0 0)
(142.264 0 0)
(142.335 0 0)
(142.408 0 0)
(142.483 0 0)
(142.559 0 0)
(142.636 0 0)
(142.715 0 0)
(142.796 0 0)
(142.878 0 0)
(142.962 0 0)
(143.048 0 0)
(143.135 0 0)
(143.223 0 0)
(143.313 0 0)
(143.404 0 0)
(143.497 0 0)
(143.592 0 0)
(143.687 0 0)
(143.784 0 0)
(143.882 0 0)
(143.982 0 0)
(144.082 0 0)
(144.184 0 0)
(144.288 0 0)
(144.392 0 0)
(144.497 0 0)
(144.604 0 0)
(144.711 0 0)
(144.82 0 0)
(144.929 0 0)
(145.04 0 0)
(145.152 0 0)
(145.264 0 0)
(145.377 0 0)
(145.492 0 0)
(145.607 0 0)
(145.723 0 0)
(145.84 0 0)
(145.958 0 0)
(146.077 0 0)
(146.196 0 0)
(146.316 0 0)
(146.437 0 0)
(146.559 0 0)
(146.682 0 0)
(146.805 0 0)
(146.929 0 0)
(147.054 0 0)
(147.179 0 0)
(147.305 0 0)
(147.432 0 0)
(147.559 0 0)
(147.688 0 0)
(147.816 0 0)
(147.946 0 0)
(148.076 0 0)
(148.207 0 0)
(148.338 0 0)
(148.47 0 0)
(148.602 0 0)
(148.736 0 0)
(148.869 0 0)
(149.004 0 0)
(149.138 0 0)
(149.274 0 0)
(149.41 0 0)
(149.546 0 0)
(149.683 0 0)
(149.821 0 0)
(149.959 0 0)
(150.098 0 0)
(150.237 0 0)
(150.377 0 0)
(150.517 0 0)
(150.658 0 0)
(150.799 0 0)
(150.94 0 0)
(151.083 0 0)
(151.225 0 0)
(151.368 0 0)
(151.512 0 0)
(151.656 0 0)
(151.8 0 0)
(151.945 0 0)
(152.091 0 0)
(152.236 0 0)
(152.383 0 0)
(152.529 0 0)
(152.676 0 0)
(152.824 0 0)
(152.972 0 0)
(153.12 0 0)
(153.269 0 0)
(153.418 0 0)
(153.568 0 0)
(153.718 0 0)
(153.868 0 0)
(154.019 0 0)
(154.17 0 0)
(154.322 0 0)
(154.474 0 0)
(154.626 0 0)
(154.779 0 0)
(154.932 0 0)
(155.085 0 0)
(155.239 0 0)
(155.393 0 0)
(155.548 0 0)
(155.703 0 0)
(155.859 0 0)
(156.017 0 0)
(156.29 0 0)
)
;

boundaryField
{
    sides
    {
        type            zeroGradient;
    }
    empty
    {
        type            empty;
    }
}


// ************************************************************************* //
