/*--------------------------------*- C++ -*----------------------------------*\
  =========                 |
  \\      /  F ield         | OpenFOAM: The Open Source CFD Toolbox
   \\    /   O peration     | Website:  https://openfoam.org
    \\  /    A nd           | Version:  9
     \\/     M anipulation  |
\*---------------------------------------------------------------------------*/
FoamFile
{
    format      ascii;
    class       volScalarField;
    location    "0.008";
    object      ddt0(rho);
}
// * * * * * * * * * * * * * * * * * * * * * * * * * * * * * * * * * * * * * //

dimensions      [1 -3 -1 0 0 0 0];

internalField   nonuniform List<scalar> 
1000
(
-3.07852e-14
6.26769e-12
1.65089e-11
-2.38489e-11
-4.16426e-11
-3.30339e-12
2.86941e-11
4.61041e-11
4.91247e-11
2.25211e-11
-2.31523e-11
1.69102e-12
9.15825e-12
3.62425e-11
2.03815e-11
-1.93473e-11
-1.40921e-11
-5.34471e-11
-2.28304e-11
-2.78807e-11
1.65647e-12
-1.8608e-11
-5.87475e-12
-4.82169e-12
-4.45503e-11
7.25851e-13
-4.5787e-11
-1.62707e-11
-5.83253e-13
2.51294e-11
2.03281e-11
-2.15165e-12
1.55933e-12
5.91198e-12
2.76016e-11
4.75967e-11
2.23522e-11
5.67129e-12
2.56857e-11
2.15089e-12
-4.08741e-11
-4.30303e-11
4.64277e-12
1.83351e-11
-1.26231e-11
-1.22972e-11
-1.87228e-12
1.90508e-12
-1.41296e-12
5.97656e-12
5.03195e-12
-2.14813e-11
2.21113e-11
-1.99727e-13
-5.60818e-13
3.80524e-11
-2.74774e-11
5.45253e-13
4.63798e-12
-4.63899e-11
-6.63666e-11
-4.38426e-11
-1.49685e-11
-4.06131e-11
-9.37777e-11
-5.14382e-11
-5.70661e-11
-9.28295e-11
1.89367e-11
4.53093e-11
6.41149e-11
1.69652e-11
6.73731e-12
-9.2223e-12
6.53436e-11
4.22761e-11
2.20179e-13
7.47969e-11
-4.80724e-11
6.06648e-12
2.1714e-11
-2.12282e-11
2.21376e-11
-4.37523e-11
-3.7559e-11
-5.12382e-12
2.23465e-12
2.61152e-13
-2.14231e-11
4.44981e-12
1.74867e-12
4.86587e-11
2.7095e-11
-3.15521e-12
-3.90381e-12
4.84651e-12
-4.29791e-11
-1.43116e-11
-4.79499e-11
2.42116e-12
-4.06429e-12
3.20237e-11
-1.55756e-11
-1.82833e-11
-7.11467e-12
4.49479e-13
-2.27515e-11
-7.01915e-13
-3.56557e-11
-4.47262e-11
-2.79615e-11
1.89645e-12
-2.39043e-11
2.06411e-11
2.06077e-11
-2.47301e-12
-5.77425e-11
-1.20475e-10
2.62688e-11
2.13589e-11
2.78109e-11
-4.20994e-11
1.89407e-11
2.72341e-11
3.96357e-11
7.74035e-11
1.55795e-11
2.73946e-12
2.75207e-11
-4.11853e-11
1.44925e-11
-2.61857e-12
-1.68538e-11
1.51992e-11
3.28841e-13
8.52966e-13
-6.75616e-11
-6.68057e-11
-1.58823e-10
-6.14293e-12
-2.41806e-11
2.16751e-11
-8.64593e-11
-1.57849e-10
-2.91883e-10
-6.72766e-10
-1.52104e-09
-2.90542e-09
-6.02998e-09
-1.18954e-08
-2.34495e-08
-4.62565e-08
-9.03591e-08
-1.75274e-07
-3.37908e-07
-6.46777e-07
-1.22937e-06
-2.31983e-06
-4.34571e-06
-8.08061e-06
-1.49126e-05
-2.73107e-05
-4.96279e-05
-8.94684e-05
-0.000159993
-0.00028376
-0.000499056
-0.000870205
-0.00150413
-0.00257668
-0.00437373
-0.00735473
-0.012249
-0.0201996
-0.0329744
-0.0532688
-0.085132
-0.134551
-0.210229
-0.324588
-0.495008
-0.745286
-1.10722
-1.62218
-2.34232
-3.33114
-4.66264
-6.4187
-8.68385
-11.5373
-15.0423
-19.2334
-24.1042
-29.5975
-35.6001
-41.947
-48.4331
-54.833
-60.9249
-66.5142
-71.4502
-75.6361
-79.0475
-81.7308
-83.7755
-85.2873
-86.3704
-87.1172
-87.6042
-87.8925
-88.0291
-88.0502
-87.983
-87.8481
-87.6612
-87.4343
-87.1763
-86.8944
-86.5938
-86.2789
-85.9527
-85.6177
-85.2759
-84.9286
-84.577
-84.2218
-83.8638
-83.5032
-83.1405
-82.7758
-82.4092
-82.0409
-81.6708
-81.2989
-80.9253
-80.5499
-80.1727
-79.7935
-79.4125
-79.0295
-78.6446
-78.2577
-77.8689
-77.4781
-77.0853
-76.6907
-76.2942
-75.8959
-75.4959
-75.0942
-74.6909
-74.2861
-73.8799
-73.4724
-73.0637
-72.6538
-72.2429
-71.8311
-71.4184
-71.005
-70.591
-70.1765
-69.7615
-69.3462
-68.9306
-68.5148
-68.099
-67.6831
-67.2673
-66.8517
-66.4362
-66.021
-65.6062
-65.1917
-64.7777
-64.3642
-63.9512
-63.5388
-63.1271
-62.716
-62.3057
-61.8961
-61.4873
-61.0793
-60.6722
-60.2659
-59.8605
-59.4561
-59.0526
-58.6501
-58.2486
-57.8481
-57.4486
-57.0502
-56.6528
-56.2565
-55.8613
-55.4672
-55.0742
-54.6824
-54.2917
-53.9021
-53.5137
-53.1265
-52.7404
-52.3556
-51.9719
-51.5894
-51.2081
-50.8281
-50.4492
-50.0716
-49.6952
-49.32
-48.9461
-48.5734
-48.2019
-47.8317
-47.4628
-47.0951
-46.7286
-46.3634
-45.9995
-45.6368
-45.2754
-44.9153
-44.5564
-44.1988
-43.8424
-43.4874
-43.1336
-42.781
-42.4298
-42.0798
-41.731
-41.3836
-41.0374
-40.6925
-40.3488
-40.0064
-39.6653
-39.3255
-38.9869
-38.6496
-38.3135
-37.9787
-37.6452
-37.3129
-36.982
-36.652
-36.324
-35.9957
-35.672
-35.3425
-35.0288
-34.6873
-34.4026
-34.0173
-33.8118
-33.3093
-33.2802
-32.5484
-32.7972
-31.7928
-32.2341
-31.2499
-31.3293
-31.1298
-30.074
-31.1804
-28.986
-30.6059
-28.9892
-28.841
-29.7382
-27.3147
-29.0899
-27.8857
-26.7434
-28.6336
-26.191
-26.5363
-27.6365
-24.9419
-26.161
-26.5586
-23.9563
-25.5385
-25.6245
-23.0689
-24.6851
-24.8727
-22.2584
-23.5883
-24.2887
-21.5946
-22.2646
-23.6991
-21.237
-20.7951
-22.8232
-21.2688
-19.4867
-21.3959
-21.431
-18.8533
-19.4419
-21.0787
-19.1383
-17.691
-19.5651
-19.7154
-17.2046
-17.2571
-19.1481
-18.0242
-15.8596
-16.8868
-18.2865
-16.4868
-14.8477
-16.3066
-17.2575
-15.2357
-13.9187
-15.4674
-16.2623
-14.2566
-12.9503
-14.4066
-15.3435
-13.5173
-11.9647
-13.1461
-14.409
-13.0114
-11.0982
-11.7033
-13.2983
-12.6604
-10.5439
-10.2202
-11.8207
-12.2411
-10.4191
-9.03069
-9.97831
-11.3338
-10.5487
-8.55355
-8.17178
-9.62848
-10.305
-8.84723
-7.16284
-7.46517
-8.9677
-9.10698
-7.36943
-6.02341
-6.68758
-8.05802
-7.92171
-6.21139
-4.9773
-5.64379
-7.06666
-6.94964
-5.15389
-3.94117
-4.62493
-5.87552
-5.88676
-4.5334
-3.14967
-3.15187
-4.49185
-5.25807
-4.02433
-2.15733
-1.93409
-3.25776
-4.16258
-3.47807
-1.86353
-0.956826
-1.6486
-2.90144
-3.00992
-1.82273
-0.534795
-0.206683
-1.16581
-2.43682
-2.19528
-0.393195
0.821097
0.144652
-1.41557
-2.01806
-0.877656
0.776654
1.18164
-0.100102
-1.43584
-1.21124
0.0549489
0.659475
1.15679
0.224483
-1.06896
-0.658716
-0.00854336
0.285287
0.473678
0.504291
-0.0811928
-0.255792
-0.102856
-0.0499937
0.196338
0.24638
0.145133
0.118975
-0.311894
-0.128079
0.102017
0.436349
0.0113749
-0.0380565
0.364344
-0.374588
-0.149709
0.544965
0.367974
-0.688612
0.114392
0.596566
-0.0300848
-0.489
0.214908
0.440411
-0.477935
-0.169121
0.581842
0.544788
-0.667483
-0.225334
0.539165
0.493129
-0.646055
-0.0416522
0.400302
0.048832
-0.313363
0.130336
0.425953
-0.191797
-0.146211
0.38676
0.207164
-0.328004
-0.0170713
0.390551
0.119907
-0.288641
0.0183142
0.348304
0.09365
-0.229234
0.00875665
0.322997
0.10513
-0.178447
0.00378296
0.272461
0.0892217
-0.127998
0.0459592
0.214071
0.0739753
-0.0829858
0.0763305
0.223609
0.0443229
-0.0803271
0.118965
0.214086
0.0271616
-0.0394827
0.120365
0.176452
-0.00374754
-0.0148362
0.152212
0.186596
-0.0726077
0.014316
0.240994
0.0784154
-0.0779984
0.140216
0.220347
0.0308876
-0.013228
0.188421
0.222298
-0.0806613
0.03546
0.311292
0.0551087
-0.0793656
0.185853
0.25486
0.0291264
-0.0399384
0.313509
0.112965
-0.0547665
0.141681
0.154832
0.157455
-0.020592
0.101328
0.450143
0.0533325
-0.151137
0.293055
0.400395
-0.0226227
-0.0976445
0.294242
0.24948
-0.0741976
0.173377
0.275954
0.146974
0.12817
0.20194
0.101965
0.156181
0.178458
0.16175
0.27762
0.234739
0.193105
0.264525
0.160804
0.208998
0.217772
0.119813
0.341797
0.196002
0.113254
0.396572
0.203198
0.0377728
0.446141
0.292435
0.0238444
0.31523
0.477682
0.216904
0.493077
0.504475
0.262092
0.118219
0.195784
0.251633
0.262373
0.550371
0.716031
0.574987
0.428301
0.364043
0.241689
0.100118
0.172029
0.409237
0.964882
0.982699
0.821833
0.565426
0.36892
0.213417
0.233102
0.382835
0.99764
1.24143
1.32228
1.21308
1.01391
0.739113
0.463388
0.274411
0.203266
0.394731
0.845819
2.23597
2.48302
2.35425
2.24721
1.89263
1.28554
0.864864
0.679109
0.367542
0.300067
0.773901
1.25848
4.93321
5.84585
5.90595
6.02526
5.66758
4.46667
3.57673
3.17064
1.86489
0.98403
1.25412
0.213476
-0.329585
0.63789
6.32773
19.3692
67.4997
228.873
615.694
583.257
533.02
467.876
399.589
334.633
276.938
225.325
180.419
142.524
112.004
87.2829
66.6432
49.5936
36.3577
27.6509
20.6429
13.8874
9.22047
6.8472
5.01819
3.21319
2.02038
1.00498
0.193469
0.581455
0.584669
0.0247719
-0.0921889
-0.263283
-0.043425
-0.0882646
-0.364313
-0.298355
-0.188349
-0.0252934
0.000242882
-0.0874898
-0.0972243
-0.177165
-0.168257
-0.223508
-0.28547
-0.375609
-0.296846
-0.114465
-0.145925
-0.224237
-0.135979
-0.0467522
-0.111648
-0.0828698
0.0560127
-0.00711772
-0.0286506
0.0074188
0.049293
0.170851
0.110717
0.067157
0.0363034
0.0377994
0.180767
0.0730736
-0.0513999
-0.0136485
-0.00452923
-0.0545538
-0.149078
-0.19952
-0.163188
-0.0440327
0.0669695
-0.0377405
-0.117971
-0.031729
0.0406022
0.0254068
0.119915
0.096632
0.0219429
0.165943
0.0432176
-0.0634999
0.0112252
0.0246943
0.00464824
-0.0663261
-0.113934
-0.140923
-0.00440083
-0.0212539
-0.0722221
-0.0331622
0.0313774
-0.0308877
-0.0153152
0.0336312
0.14051
0.147933
0.0882996
-0.0223494
0.0644068
0.124428
0.0102696
-0.0303996
0.00803387
-0.0146736
-0.106857
-0.176065
-0.0321715
-0.013598
-0.0907151
-0.0325831
0.0667635
0.00129908
-0.0494008
0.0294707
0.0808022
0.142788
0.181129
0.0895313
-0.00622007
0.112479
0.133439
0.0350058
0.00303211
-0.00474657
-0.0636611
-0.026277
-0.0671519
-0.0904462
0.0147998
0.0559211
-0.0298007
-0.0251842
0.0138136
0.0498863
-0.00321355
-0.0178952
0.010193
0.0807313
0.178339
0.148405
0.00374925
0.0714241
0.093574
-0.00246647
-0.064235
-0.0119745
-0.105093
-0.240448
-0.111678
-0.211142
-0.394915
0.107671
0.0937556
-0.126842
0.0513294
0.139954
0.108418
4.53211e-05
0.00166198
0.294978
0.250668
-0.119966
0.178535
0.300406
0.0124092
0.254791
0.180321
-0.31597
-0.214906
-0.338483
-0.325623
0.36046
-0.649732
1.79077
-0.367339
0.835855
1.89237
-1.12048
1.18828
0.978212
-3.92161
5.10732
-1.89059
-3.30953
16.0507
-4.4584
9.8894
11.319
-5.69411
13.8046
13.6777
-35.0729
63.8264
-31.861
11.8219
117.7
-70.5064
118.321
191.787
-372.443
954.498
-796.664
1726.37
4171.57
1393.74
311.366
46.4723
6.22725
0.825885
0.109649
0.01458
0.00194106
0.000258615
3.44658e-05
4.59283e-06
6.11852e-07
8.1493e-08
1.0854e-08
1.44158e-09
1.87855e-10
2.47469e-11
5.02379e-12
-8.30855e-12
-8.81435e-14
-3.55824e-12
-2.50788e-12
-9.07223e-14
1.12525e-11
2.44587e-13
-2.12639e-12
5.21977e-12
-2.68502e-13
-4.67698e-12
2.30663e-12
1.86929e-12
-2.72125e-12
-7.61675e-13
3.04177e-12
-4.83434e-12
-5.22022e-12
-3.62634e-12
-5.44635e-13
1.28963e-12
-2.01119e-12
3.242e-12
9.12979e-14
-6.68661e-13
-3.61719e-12
-2.77582e-12
-7.20897e-12
-1.47461e-13
7.98114e-13
2.22117e-12
-2.80516e-12
-5.93486e-14
8.53653e-12
7.63117e-12
1.84657e-12
6.39895e-13
-2.74045e-12
2.98645e-12
-5.17726e-13
3.01181e-13
-3.09871e-12
-2.62561e-12
3.18688e-12
8.18222e-14
-1.76692e-13
)
;

boundaryField
{
    sides
    {
        type            calculated;
        value           nonuniform List<scalar> 2(-1.76692e-13 -3.07852e-14);
    }
    empty
    {
        type            empty;
    }
}


// ************************************************************************* //
