/*--------------------------------*- C++ -*----------------------------------*\
  =========                 |
  \\      /  F ield         | OpenFOAM: The Open Source CFD Toolbox
   \\    /   O peration     | Website:  https://openfoam.org
    \\  /    A nd           | Version:  9
     \\/     M anipulation  |
\*---------------------------------------------------------------------------*/
FoamFile
{
    format      ascii;
    class       volScalarField;
    location    "0.008";
    object      ddt0(rho,e);
}
// * * * * * * * * * * * * * * * * * * * * * * * * * * * * * * * * * * * * * //

dimensions      [1 -1 -3 0 0 0 0];

internalField   nonuniform List<scalar> 
1000
(
3.76078e-06
-2.63869e-06
-3.70947e-06
-2.76529e-06
2.54395e-06
-2.76599e-06
-2.26972e-06
-3.01082e-06
-3.94705e-07
3.1053e-06
-2.15666e-07
3.41261e-06
4.69656e-06
2.22701e-07
1.01303e-06
7.63852e-07
-1.09641e-06
-4.41959e-06
-6.03501e-06
-4.29185e-06
-3.87503e-06
-5.34855e-07
-2.45012e-06
-9.0687e-07
-5.26952e-07
7.72861e-07
5.81343e-07
2.59495e-06
5.46043e-06
-6.48679e-07
-3.59737e-08
3.34008e-06
-2.88876e-07
1.23092e-06
-1.986e-06
-2.55578e-06
1.76618e-06
-2.54576e-07
-5.04764e-08
1.47123e-08
-3.11501e-07
-3.9727e-06
-3.36454e-06
-2.52832e-07
-5.45187e-06
-4.29637e-07
-1.45768e-06
2.79665e-07
2.45031e-06
-7.22502e-07
5.84669e-07
2.98381e-08
-7.49576e-07
6.17092e-06
1.32324e-06
6.98061e-06
1.65821e-06
-7.46595e-07
-2.96004e-07
1.5766e-06
-1.6984e-07
-4.66755e-06
-5.71661e-07
-3.12415e-06
2.02005e-06
-6.41776e-07
-4.7237e-06
-8.09149e-07
-7.13534e-07
1.26914e-06
-5.50859e-06
-1.50846e-06
-9.42623e-08
-8.63816e-07
2.10838e-06
5.63996e-08
3.90672e-06
8.66974e-07
2.62396e-06
1.07592e-06
1.219e-09
1.20676e-06
-6.45693e-07
2.13848e-06
-3.12254e-06
3.04196e-06
-9.42937e-07
6.28784e-07
4.99138e-06
4.88555e-07
2.33997e-07
1.3572e-06
-1.57828e-06
9.95313e-07
-9.06616e-07
-4.88461e-06
1.53356e-06
-1.04035e-06
1.61101e-06
-5.00026e-06
6.61347e-07
-1.23658e-06
-2.27115e-06
-5.67986e-07
-2.18896e-06
4.07485e-06
3.38451e-06
-3.47535e-06
-2.1375e-06
-4.39643e-06
-2.15189e-06
2.20261e-06
5.1723e-06
5.99352e-07
-4.53072e-06
1.25046e-06
-2.48224e-07
1.35194e-06
-4.07279e-06
2.23015e-06
6.43892e-07
-2.54665e-06
2.91619e-06
-3.55324e-06
3.54619e-06
1.31309e-06
1.2497e-06
-1.1161e-06
2.75379e-06
-6.67635e-07
4.3574e-06
-1.24797e-06
3.0378e-06
4.33382e-06
4.93397e-06
2.84157e-07
1.01137e-06
-3.44099e-06
1.96861e-06
-5.10763e-06
-6.79634e-07
7.73497e-07
-2.06596e-06
-6.25151e-06
-1.50831e-05
-3.71475e-05
-7.08827e-05
-0.000151891
-0.000300291
-0.000598692
-0.00118706
-0.0023316
-0.00455647
-0.00883814
-0.0170382
-0.03262
-0.0620003
-0.117005
-0.219207
-0.407631
-0.752319
-1.37788
-2.504
-4.51447
-8.07358
-14.3201
-25.1868
-43.921
-75.9216
-130.067
-220.793
-371.302
-618.425
-1019.9
-1665
-2689.89
-4299.1
-6795.06
-10617.4
-16393.5
-25001.3
-37642.3
-55921.8
-81926.2
-118285
-168191
-235360
-323881
-437947
-581434
-757339
-967130
-1.21011e+06
-1.4829e+06
-1.77927e+06
-2.09033e+06
-2.40523e+06
-2.71227e+06
-3.00013e+06
-3.25912e+06
-3.48203e+06
-3.66456e+06
-3.80617e+06
-3.90986e+06
-3.98064e+06
-4.02425e+06
-4.04622e+06
-4.05137e+06
-4.04368e+06
-4.02626e+06
-4.00154e+06
-3.97134e+06
-3.93704e+06
-3.89967e+06
-3.86002e+06
-3.81867e+06
-3.77609e+06
-3.7326e+06
-3.68848e+06
-3.64393e+06
-3.5991e+06
-3.5541e+06
-3.50904e+06
-3.46397e+06
-3.41895e+06
-3.37403e+06
-3.32922e+06
-3.28454e+06
-3.24003e+06
-3.19568e+06
-3.1515e+06
-3.1075e+06
-3.06368e+06
-3.02005e+06
-2.97661e+06
-2.93335e+06
-2.89029e+06
-2.84742e+06
-2.80474e+06
-2.76226e+06
-2.71998e+06
-2.6779e+06
-2.63602e+06
-2.59435e+06
-2.55289e+06
-2.51165e+06
-2.47063e+06
-2.42983e+06
-2.38926e+06
-2.34893e+06
-2.30884e+06
-2.269e+06
-2.22941e+06
-2.19007e+06
-2.15099e+06
-2.11218e+06
-2.07364e+06
-2.03538e+06
-1.99739e+06
-1.95969e+06
-1.92228e+06
-1.88516e+06
-1.84834e+06
-1.81182e+06
-1.7756e+06
-1.73968e+06
-1.70407e+06
-1.66877e+06
-1.63379e+06
-1.59912e+06
-1.56477e+06
-1.53073e+06
-1.49701e+06
-1.46361e+06
-1.43054e+06
-1.39778e+06
-1.36535e+06
-1.33324e+06
-1.30146e+06
-1.27e+06
-1.23886e+06
-1.20805e+06
-1.17755e+06
-1.14739e+06
-1.11754e+06
-1.08802e+06
-1.05882e+06
-1.02994e+06
-1.00138e+06
-973146
-945228
-917627
-890344
-863378
-836727
-810391
-784368
-758657
-733258
-708168
-683387
-658914
-634747
-610885
-587327
-564070
-541115
-518460
-496102
-474042
-452277
-430805
-409627
-388739
-368141
-347831
-327808
-308070
-288615
-269443
-250551
-231938
-213603
-195545
-177760
-160249
-143009
-126039
-109337
-92902.7
-76733.3
-60827.6
-45184.2
-29801.4
-14677.8
188.229
14798.3
29153.8
43256.4
57107.6
70708.8
84061.9
97168.1
110029
122647
135020
147158
159044
170725
182090
193411
204060
215454
224518
237707
241986
262672
252600
295870
249447
344441
228060
405258
205956
439732
245364
370647
411237
189755
622300
64817.3
642428
256617
308184
672128
41953.1
668805
401516
152192
811173
170956
366351
787688
70849.9
526588
735259
43889
606408
720148
41638.9
613195
756113
58436.1
542200
836839
113645
398066
911413
256734
206487
895974
511691
58166.9
710267
800823
107976
362928
931769
428656
72050.5
710083
831817
155796
246560
888071
626497
52038.1
432812
925320
459490
40450.3
548786
905312
371240
46782.9
580170
888196
357233
34199.6
538137
887054
408301
9914.64
429667
874346
522401
14594.8
259996
802297
676338
106530
72142.4
614069
803290
320620
-33821.6
310673
777972
604590
67682.8
12480.6
507922
770502
393796
-52279.6
95583.1
603333
703499
241102
-105656
148895
615569
631562
175491
-139541
114005
594676
614681
131215
-179264
77589.4
504698
561037
208024
-155585
-105129
346116
625875
306237
-204727
-224880
218038
535664
376704
-62447.1
-291451
-42664.8
373763
446703
129971
-219104
-282570
38377.1
451763
410546
-100459
-438068
-210992
279543
482078
159347
-321455
-414245
-71007.2
411899
331180
-23174
-254386
-304363
-101004
286173
211998
4333.65
-83184.2
-152479
-97511.9
2764.79
92706.6
45366.9
8447.07
-42948.2
-81029
-25534.4
-3120.5
33688.7
15173.4
-11707.5
-43366.5
-25887.4
-15464.6
-11523.2
22066.6
1055.62
-41660.1
-6992.73
-11988.4
-19203.8
-38896.8
20063.1
159.707
-21820.2
-10886.5
-5656.08
106.056
-36173.9
-22051.9
-3576.01
105.014
-38248.6
-10869.6
-982.592
-9893.62
-28564.8
8141.48
-12871.7
-16763.8
-21790.9
-13321.1
-3568.43
-32728.5
-2610.87
-16678.3
-13977.1
-30499.5
1667.4
-20228.4
-15510.4
-27491
279.814
-22032.2
-16233.8
-27331.1
-1297.59
-24041.3
-16124
-24972.4
-2925.81
-23331.4
-17779.1
-23905.1
-7138.01
-21727.6
-23429
-28309
-13011.1
-17879.7
-24481.5
-28330.8
-18526.5
-15308.4
-21179.1
-25674.6
-22174.2
-14622.6
-22303.6
-23082.6
-22200.9
-20838.2
-32623.7
-16862.9
-18633.4
-28815.4
-34985.2
-28251.3
-20410.1
-30199.9
-31379.1
-26262
-25693
-40591.6
-20865.5
-21847.1
-33607.2
-36415.8
-34806.5
-23890.7
-45004.9
-26867.2
-18405.2
-29847.9
-31969.6
-35544.7
-28847.1
-41739.6
-63441.1
-43297.9
-23897.3
-47946.4
-59206.3
-39861.6
-22687.4
-35241.3
-31651.3
-35187.1
-50735.8
-57602.1
-51938.2
-51093.3
-49502.3
-35859.9
-40355.1
-49297.8
-57475.9
-72327.7
-69681.3
-67104.3
-67687.8
-54892.3
-56424.8
-58694.8
-55801.5
-75387.4
-66535.7
-59456
-76275.2
-62892
-64199.7
-80684.5
-73645.9
-54122.7
-71398.5
-109283
-116752
-139493
-127812
-87160.7
-47740.1
-40925.1
-61722.2
-105221
-163892
-193775
-179272
-142050
-99028.3
-61023.1
-37831.1
-50652.3
-129937
-281355
-291339
-247439
-173996
-102999
-60830.9
-64761.2
-125576
-292858
-368817
-391393
-365848
-301398
-217664
-139547
-83814.3
-68007.5
-101509
-260917
-659463
-735981
-724626
-662224
-550791
-406613
-274302
-175940
-109802
-117910
-208853
-417348
-1.43896e+06
-1.73807e+06
-1.8035e+06
-1.78863e+06
-1.65348e+06
-1.38539e+06
-1.12597e+06
-852164
-563689
-375957
-255219
-114008
-49705.2
-413761
-1.6873e+06
-6.46368e+06
-1.89133e+07
-7.22487e+07
-1.78967e+08
-1.76492e+08
-1.60341e+08
-1.40178e+08
-1.19829e+08
-1.00426e+08
-8.28238e+07
-6.742e+07
-5.41668e+07
-4.29306e+07
-3.35902e+07
-2.59079e+07
-1.97768e+07
-1.49769e+07
-1.11619e+07
-8.12352e+06
-5.87047e+06
-4.27175e+06
-3.01585e+06
-2.04546e+06
-1.35232e+06
-901847
-583857
-385982
-237841
-72486.4
-12404.5
-13438.9
222.244
25738.7
152405
92496.8
38635.7
27311.6
21597.8
24832.2
11468.8
-736.154
1901.59
25356.4
92537.1
86703.9
85200.3
73472.5
79973.9
83979.2
64790.1
42991.5
36606.2
30265.3
15286.7
10398.9
12497.1
3793.78
-4651.12
-5559.47
-14681.6
-28170.4
-30923.8
-27861.3
-22475.8
-15322.8
6120.37
8866.52
-12309.5
663.09
6599.08
35414.3
46462.7
38421.7
31471
27108.4
26207.1
6868.49
-1738.98
-1184.95
5697.8
1371.64
-23058.5
-31579.4
-29400.9
-8087.13
-6818.29
-10119.2
-1920.94
3655.52
7410.53
20475
23659.6
18767.2
26091.8
15467.2
5830.01
4076.97
5003.7
-2208.55
-7566.68
-6732.22
-17402.8
-37855.1
-30686
-30517.2
-9053.8
-4393.17
-5535.12
-6355.08
476.841
12057.9
35883.5
26625.2
35585.2
25702.5
9728.7
6420.36
11741.7
3656.26
-4195.68
-1801.75
-312.113
-15275.7
-41869.9
-34969.6
-30674.3
-8194.48
109.261
-2304.81
-1735.58
6003.86
21138.3
28539.9
17268.3
11427.2
14086.9
11412.6
-679.429
-1187.09
1540.81
4647.04
473.874
-5972.65
-5959.69
-18068.6
-39011.3
-35840.8
-37849.9
-16309.7
-5248.22
-4829.24
-7463.41
-1917.09
42087.8
81056.1
74354.6
49416.9
5167.65
44381.8
13776.3
-11996.6
-6056.89
-312.151
7076.26
-47404.4
-43413.6
-20861.6
-39624.9
-56578.1
-15095.1
26074.2
-8583.7
25012.1
62149.7
1808.94
60038.5
15973.8
4785.6
99594.1
-72897.2
171463
58455.1
-33275.3
242608
-143148
-55393.6
199712
-570534
532571
877.393
-621069
1.60855e+06
515293
-178159
1.54746e+06
-538159
772291
2.74109e+06
-4.51991e+06
6.8998e+06
830709
-3.0975e+06
1.33738e+07
131585
3.10927e+06
2.70606e+07
-4.71447e+07
5.33599e+07
6.2313e+07
1.72501e+07
2.73833e+08
3.58645e+06
-7.15538e+06
-1.22997e+06
-148492
-18784.9
-2464.94
-326.955
-43.4991
-5.7939
-0.772068
-0.102884
-0.0137067
-0.0018265
-0.000243057
-3.23366e-05
-4.4628e-06
3.19862e-07
-4.86204e-07
3.22083e-07
7.59779e-08
-2.56433e-07
4.06118e-07
3.52797e-08
-9.13112e-07
-1.25762e-07
6.22865e-07
-4.88332e-07
-1.1044e-07
5.29859e-07
5.83014e-07
-2.30715e-07
-6.37601e-07
4.28427e-09
-3.14013e-07
8.17552e-07
4.67099e-07
-2.69285e-07
1.83046e-07
-8.68611e-08
1.37084e-07
-5.47105e-07
6.84739e-07
2.154e-07
7.85246e-08
-1.89859e-07
4.25918e-07
-1.02862e-08
8.51822e-08
1.91817e-07
4.05039e-07
-1.47964e-07
3.35745e-07
-1.09434e-06
-3.61805e-07
3.4588e-07
-2.7265e-07
5.39832e-08
3.04823e-07
-5.61145e-09
3.80817e-07
4.91234e-07
-2.2744e-07
-2.29174e-07
-5.35565e-07
)
;

boundaryField
{
    sides
    {
        type            calculated;
        value           nonuniform List<scalar> 2(-5.35565e-07 3.76078e-06);
    }
    empty
    {
        type            empty;
    }
}


// ************************************************************************* //
