/*--------------------------------*- C++ -*----------------------------------*\
  =========                 |
  \\      /  F ield         | OpenFOAM: The Open Source CFD Toolbox
   \\    /   O peration     | Website:  https://openfoam.org
    \\  /    A nd           | Version:  9
     \\/     M anipulation  |
\*---------------------------------------------------------------------------*/
FoamFile
{
    format      ascii;
    class       volScalarField;
    location    "0.008";
    object      p_0;
}
// * * * * * * * * * * * * * * * * * * * * * * * * * * * * * * * * * * * * * //

dimensions      [1 -1 -2 0 0 0 0];

internalField   nonuniform List<scalar> 
1000
(
100000
100000
100000
100000
100000
100000
100000
100000
100000
100000
100000
100000
100000
100000
100000
100000
100000
100000
100000
100000
100000
100000
100000
100000
100000
100000
100000
100000
100000
100000
100000
100000
100000
100000
100000
100000
100000
100000
100000
100000
100000
100000
100000
100000
100000
100000
100000
100000
100000
100000
100000
100000
100000
100000
100000
100000
100000
100000
100000
100000
100000
100000
100000
100000
100000
100000
100000
100000
100000
100000
100000
100000
100000
100000
100000
100000
100000
100000
100000
100000
100000
100000
100000
100000
100000
100000
100000
100000
100000
100000
100000
100000
100000
100000
100000
100000
100000
100000
100000
100000
100000
100000
100000
100000
100000
100000
100000
100000
100000
100000
100000
100000
100000
100000
100000
100000
100000
100000
100000
100000
100000
100000
100000
100000
100000
100000
100000
100000
100000
100000
100000
100000
100000
100000
100000
100000
100000
100000
100000
100000
100000
100000
100000
100000
100000
100000
100000
100000
100000
100000
100000
100000
100000
100000
100000
100000
100000
100000
100000
100000
100000
100000
100000
100000
100000
100000
100000
100000
100000
100000
100000
99999.9
99999.9
99999.9
99999.8
99999.6
99999.4
99999
99998.3
99997.4
99995.9
99993.6
99990.2
99985.2
99977.9
99967.5
99952.7
99932.2
99904.2
99866.7
99817.3
99753.4
99672.5
99572.1
99450
99304.5
99134.7
98940.3
98722.1
98481.5
98220.6
97942.1
97648.7
97343.3
97028.4
96706.1
96378.2
96046.2
95711.2
95373.9
95035.1
94695.3
94354.8
94013.9
93672.9
93331.8
92991
92650.4
92310.1
91970.3
91630.9
91292
90953.6
90615.8
90278.5
89941.9
89605.8
89270.4
88935.5
88601.3
88267.8
87934.9
87602.6
87271.1
86940.2
86610
86280.4
85951.6
85623.5
85296.2
84969.5
84643.6
84318.5
83994.1
83670.5
83347.6
83025.6
82704.3
82383.9
82064.3
81745.5
81427.5
81110.4
80794.2
80478.8
80164.3
79850.6
79537.8
79225.9
78914.9
78604.8
78295.6
77987.3
77680
77373.5
77067.9
76763.3
76459.6
76156.9
75855
75554.1
75254.1
74955.1
74657
74359.9
74063.7
73768.4
73474.1
73180.7
72888.2
72596.7
72306.2
72016.6
71727.9
71440.2
71153.5
70867.6
70582.8
70298.8
70015.8
69733.8
69452.7
69172.5
68893.2
68615
68337.6
68061.2
67785.7
67511.1
67237.5
66964.8
66693
66422.2
66152.3
65883.3
65615.2
65348.1
65081.9
64816.6
64552.2
64288.7
64026.1
63764.5
63503.8
63243.9
62985
62727
62469.9
62213.6
61958.3
61703.9
61450.4
61197.7
60946
60695.1
60445.2
60196.1
59947.9
59700.6
59454.1
59208.6
58963.9
58720.1
58477.1
58235.1
57993.8
57753.5
57514
57275.4
57037.7
56800.8
56564.7
56329.6
56095.2
55861.7
55629.1
55397.3
55166.4
54936.3
54707
54478.6
54251
54024.2
53798.3
53573.2
53349
53125.5
52902.9
52681.1
52460.2
52240
52020.7
51802.2
51584.5
51367.6
51151.5
50936.3
50721.8
50508.2
50295.4
50083.3
49872.1
49661.6
49452
49243.1
49035.1
48827.8
48621.3
48415.6
48210.7
48006.6
47803.3
47600.7
47398.9
47198
46997.7
46798.3
46599.7
46401.8
46204.7
46008.4
45812.8
45618
45424
45230.8
45038.3
44846.6
44655.7
44465.5
44276.1
44087.5
43899.6
43712.5
43526.2
43340.6
43155.8
42971.8
42788.5
42606
42424.3
42243.3
42063.1
41883.7
41705
41527.1
41350
41173.6
40998
40823.3
40649.2
40476
40303.5
40131.9
39961
39790.9
39621.6
39453.1
39285.3
39118.4
38952.3
38787.1
38622.6
38459
38296.2
38134.2
37973.1
37812.8
37653.4
37494.9
37337.2
37180.5
37024.6
36869.6
36715.6
36562.5
36410.3
36259.1
36108.9
35959.7
35811.5
35664.3
35518.2
35373.2
35229.2
35086.4
34944.7
34804.3
34665
34527
34390.2
34254.8
34120.7
33988
33856.8
33727
33598.8
33472.2
33347.2
33223.9
33102.4
32982.8
32865
32749.2
32635.5
32523.9
32414.5
32307.4
32202.7
32100.5
32000.9
31903.9
31809.7
31718.4
31630
31544.6
31462.4
31383.5
31307.9
31235.6
31166.8
31101.5
31039.8
30981.7
30927.2
30876.3
30829
30785.3
30745.1
30708.4
30675
30644.8
30617.8
30593.7
30572.4
30554
30537.9
30523.8
30512.3
30502.3
30493.7
30487.9
30482.4
30477.8
30474.6
30472
30469.9
30468.5
30468.1
30467.4
30467.4
30467.4
30467.4
30467.6
30467.7
30468.1
30468.8
30469.2
30469.3
30469.2
30470.1
30470.2
30470.5
30471.5
30471.7
30471.5
30472.3
30473.6
30473.6
30473.3
30474.7
30475.4
30475.2
30475.6
30476.9
30477.1
30476.6
30477.1
30478.5
30478.6
30478.3
30478.7
30479.9
30480
30479.7
30480.6
30481
30480.9
30481
30481.7
30481.8
30481.5
30481.9
30482.6
30482.5
30482.2
30482.7
30483.2
30483.1
30482.9
30483.3
30483.7
30483.6
30483.3
30483.7
30484
30483.9
30483.7
30484
30484.2
30484.1
30484
30484.2
30484.4
30484.3
30484.1
30484.3
30484.5
30484.4
30484.3
30484.4
30484.5
30484.4
30484.4
30484.6
30484.6
30484.4
30484.5
30484.7
30484.6
30484.5
30484.6
30484.8
30484.6
30484.5
30484.8
30484.8
30484.6
30484.7
30484.9
30484.8
30484.6
30484.8
30485
30484.7
30484.7
30485
30484.9
30484.7
30484.9
30485
30484.9
30484.8
30485
30485.1
30485
30484.7
30485
30485.3
30484.8
30484.7
30485.2
30485.1
30484.8
30484.8
30485.1
30484.9
30484.8
30484.9
30484.9
30484.8
30484.9
30484.8
30484.8
30484.8
30484.7
30484.8
30484.7
30484.7
30484.7
30484.6
30484.7
30484.7
30484.6
30484.7
30484.7
30484.4
30484.7
30484.7
30484.4
30484.7
30484.7
30484.5
30484.5
30484.7
30484.5
30484.5
30484.6
30484.6
30484.4
30484.5
30484.6
30484.5
30484.4
30484.5
30484.5
30484.4
30484.4
30484.4
30484.5
30484.3
30484.3
30484.3
30484.3
30484.3
30484.3
30484.2
30484.3
30484.3
30484.2
30484.3
30484.2
30484.3
30484.3
30484.3
30484.3
30484.4
30484.3
30484.5
30484.3
30484.3
30484.4
30484.5
30484.3
30484.4
30484.5
30484.4
30484.4
30484.3
30484.3
30484.5
30484.2
30484
30484
30484.2
30483.9
30484
30484.3
30484
30483.4
30483.8
30484.5
30484.6
30484.6
30485.6
30483.6
30492.8
30481.9
30537.5
30444.8
30452.6
30476.1
30484.4
30484.7
30485.7
30485.6
30484.2
30484.2
30485.3
30486
30485.4
30484.3
30483.7
30484.7
30485.9
30483.9
30483
30484.6
30485.4
30484.7
30484.2
30484.3
30484.2
30485
30485.6
30484.7
30484.2
30484.4
30484.5
30484.4
30483.7
30483.8
30484.2
30484.4
30484.4
30484.2
30484.2
30484.3
30484.3
30484.2
30484
30483.8
30483.8
30484
30483.7
30483.4
30483.4
30483.5
30483.4
30483.3
30483.4
30483.4
30483.3
30483.3
30483.4
30483.4
30483.4
30483.3
30483.4
30483.6
30483.7
30483.6
30483.5
30483.6
30483.8
30483.9
30483.8
30483.8
30484
30484.1
30484.3
30484.1
30484
30484.3
30484.4
30484.4
30484.3
30484.3
30484.2
30484.4
30484.3
30484.2
30484.3
30484.4
30484.3
30484.2
30484.2
30484.2
30484.3
30484.2
30484
30484
30484.1
30483.9
30483.8
30483.8
30483.8
30483.6
30483.4
30483.3
30483.3
30483.5
30483.2
30483
30483.1
30483.1
30483
30483
30483.1
30483.1
30482.9
30482.9
30483
30483
30482.9
30482.9
30483
30482.9
30482.8
30482.7
30482.6
30482.8
30482.9
30482.6
30482.5
30482.5
30482.5
30482.5
30482.5
30482.4
30482.5
30482.6
30482.5
30482.5
30482.6
30482.7
30482.7
30482.7
30482.8
30482.9
30482.9
30482.9
30482.8
30482.9
30483
30482.8
30482.6
30482.6
30482.5
30482.3
30482.1
30481.7
30481.3
30481.4
30481.3
30480.7
30480.8
30481
30480.8
30480.7
30480.9
30481
30480.9
30480.4
30480.4
30481
30480.9
30481.1
30481.8
30481.7
30482.2
30482.1
30481.2
30480.7
30477.7
30477.8
30477.2
30476.4
30479
30477.7
30478.9
30481.2
30472.5
30473.4
30465.3
30449
30450.4
30439.7
30427.5
30453.7
30422.9
30432.3
30439.8
30367.1
30382.9
30316.6
30170.7
30220.6
30014.2
29928.7
30082
29572.2
29891
29547.3
27866.4
29670.8
18782.8
12100.7
10371.5
10052.6
10007.1
10000.9
10000.1
10000
10000
10000
10000
10000
10000
10000
10000
10000
10000
10000
10000
10000
10000
10000
10000
10000
10000
10000
10000
10000
10000
10000
10000
10000
10000
10000
10000
10000
10000
10000
10000
10000
10000
10000
10000
10000
10000
10000
10000
10000
10000
10000
10000
10000
10000
10000
10000
10000
10000
10000
10000
10000
10000
10000
10000
10000
10000
)
;

boundaryField
{
    sides
    {
        type            zeroGradient;
    }
    empty
    {
        type            empty;
    }
}


// ************************************************************************* //
