/*--------------------------------*- C++ -*----------------------------------*\
  =========                 |
  \\      /  F ield         | OpenFOAM: The Open Source CFD Toolbox
   \\    /   O peration     | Website:  https://openfoam.org
    \\  /    A nd           | Version:  9
     \\/     M anipulation  |
\*---------------------------------------------------------------------------*/
FoamFile
{
    format      ascii;
    class       volScalarField;
    location    "0.005";
    object      ddt0(rho);
}
// * * * * * * * * * * * * * * * * * * * * * * * * * * * * * * * * * * * * * //

dimensions      [1 -3 -1 0 0 0 0];

internalField   nonuniform List<scalar> 
10000
(
3.55125e-10
2.25058e-10
7.20163e-10
4.40485e-10
7.73482e-10
6.17382e-10
4.52669e-10
1.85018e-10
2.26733e-10
1.74131e-11
4.98626e-10
-2.89081e-10
2.09491e-11
-2.6695e-10
3.07852e-10
-9.35134e-10
-3.39764e-10
-3.16067e-10
-3.99742e-10
-2.47214e-10
-7.05125e-10
-6.81876e-10
-6.1002e-10
-6.87054e-10
-1.16787e-09
-1.18591e-09
-6.35176e-10
-5.04165e-10
-2.09534e-10
2.36006e-10
-1.66271e-10
1.75748e-10
7.03253e-10
4.09403e-10
4.3739e-10
-4.02104e-10
2.46918e-10
2.05527e-10
-2.81603e-11
2.40347e-10
6.89854e-10
4.8999e-10
6.36464e-10
4.2532e-10
1.62435e-10
-4.35215e-11
2.3697e-10
3.92767e-10
2.21955e-10
8.6515e-10
4.62288e-10
-1.57112e-11
-1.67893e-10
-1.60732e-10
7.59193e-11
-6.34298e-11
2.95223e-10
-1.88325e-10
-9.46003e-12
8.47733e-10
-2.61688e-10
-1.37653e-10
-5.83731e-10
-3.63996e-10
-4.66123e-10
-1.5094e-10
-2.7375e-10
2.21301e-12
-2.6861e-11
-3.94913e-10
-2.09387e-10
-2.10846e-10
9.7322e-10
-2.54204e-10
-6.90222e-10
-2.39911e-10
5.00454e-10
-8.04659e-12
2.15551e-11
4.32457e-10
-4.14036e-11
5.96642e-10
-3.14433e-11
4.66978e-10
2.64039e-10
1.79823e-10
4.80752e-10
1.34739e-09
-5.58427e-10
4.48718e-10
1.77565e-10
-5.95119e-10
6.60546e-10
2.63742e-10
2.6654e-11
-4.79696e-10
-3.43927e-11
-3.7778e-10
-5.05365e-10
-1.42056e-10
-2.83342e-11
3.04845e-10
-2.90456e-10
-4.05025e-10
-4.1285e-10
1.54888e-10
-2.23299e-11
-1.39837e-10
1.46014e-11
-2.91363e-11
-2.68574e-10
-4.57623e-10
6.22947e-10
-1.16365e-11
4.49608e-10
-2.05655e-10
2.55597e-11
-5.417e-11
-3.64244e-11
-4.57779e-10
1.99762e-10
1.78251e-10
-8.45699e-10
-4.32592e-10
-1.15111e-09
-3.72021e-11
1.71615e-10
-7.71943e-10
-5.18133e-10
2.24751e-10
-8.48397e-10
1.94799e-10
-6.7914e-10
4.24074e-10
-2.4741e-11
-1.80365e-10
5.52745e-11
1.08428e-11
1.49966e-09
8.22153e-11
-2.87399e-10
2.14031e-10
-1.86846e-10
-2.24387e-11
8.94727e-11
-1.37906e-10
-2.66006e-11
-2.57022e-10
-4.56536e-10
2.31047e-10
-1.06988e-09
-2.72343e-11
-4.03146e-10
-1.81201e-10
-2.26963e-10
-4.19685e-10
6.51718e-10
-2.94228e-10
3.36176e-11
6.99941e-10
1.21221e-09
1.1063e-09
9.21736e-10
1.01797e-09
2.08896e-10
9.16061e-10
6.35829e-10
6.84487e-10
4.53537e-10
-1.40504e-10
6.08613e-10
-1.17629e-10
3.23134e-10
2.94419e-11
4.84184e-10
-1.07049e-09
-7.53013e-10
-2.08823e-10
-1.44906e-10
4.34016e-10
-4.94963e-10
-1.56992e-11
-2.66045e-10
-3.54879e-10
3.98788e-10
1.93886e-10
-6.46677e-10
-4.05857e-10
-6.66694e-10
-7.73314e-10
-2.81547e-10
-2.6509e-10
-3.66171e-11
4.05725e-11
3.74281e-10
1.61096e-10
-5.18166e-10
-4.07246e-10
-2.07088e-10
-4.80171e-10
-1.64548e-10
2.45204e-10
-2.7281e-10
-2.39984e-10
8.78922e-10
7.31041e-10
5.30985e-10
4.62527e-11
2.04129e-10
2.57416e-10
-4.33698e-10
9.66584e-10
8.55067e-10
-2.64741e-10
5.80273e-10
2.8912e-10
8.03351e-10
-4.53586e-10
1.10012e-09
-4.70305e-10
-1.98428e-10
-4.42694e-10
-4.93064e-10
-6.5366e-10
-2.64571e-10
-4.788e-10
-6.32537e-10
-7.12527e-10
-4.30927e-10
-3.96908e-10
-1.8026e-10
4.01281e-11
-2.51691e-10
-2.10835e-10
-1.24995e-11
-4.05779e-11
-4.24737e-10
-1.37919e-10
2.50477e-10
4.4406e-10
8.65081e-10
8.56915e-10
7.08193e-10
7.32951e-10
8.39314e-10
9.17365e-10
4.80178e-10
-2.22971e-10
-4.24349e-10
4.66477e-10
-5.54777e-10
-2.82865e-10
-3.21698e-10
2.30379e-10
-4.3153e-10
2.60183e-11
1.63791e-10
5.83979e-11
2.41489e-10
4.32803e-10
-5.52175e-11
3.40131e-11
4.89398e-11
-4.42281e-11
1.28755e-10
-1.04863e-09
-8.97562e-10
1.32085e-10
1.91962e-10
2.86941e-11
-2.30851e-10
-3.08529e-10
3.13293e-10
2.10551e-10
5.04327e-10
1.10008e-09
-2.30841e-10
6.70465e-10
-1.32106e-12
-6.27638e-10
-3.50291e-10
-1.0452e-11
6.6391e-10
2.60504e-10
1.01532e-09
-1.87088e-10
3.58202e-10
-5.23857e-10
-5.18203e-10
-4.75046e-10
-2.90883e-10
4.97333e-11
-4.13106e-10
-9.23002e-10
-1.28232e-09
-4.48563e-10
-8.66648e-10
-2.79682e-10
-3.5384e-12
-2.67412e-10
-3.93239e-10
6.32758e-10
1.35396e-09
6.25297e-10
-1.23296e-10
3.1214e-10
2.47046e-10
8.70307e-10
4.6111e-10
-1.12932e-09
6.91088e-10
7.70648e-10
2.22668e-10
1.99019e-10
-4.67792e-10
2.20513e-10
6.08085e-11
-6.8347e-10
-6.29298e-10
-8.84305e-10
2.58882e-10
5.09881e-11
-7.418e-10
1.90264e-10
-2.24381e-10
-3.82624e-10
-1.18347e-11
-5.92515e-10
-4.81621e-10
2.0431e-10
7.64846e-10
1.8893e-10
2.73494e-10
2.71057e-10
3.98622e-10
-9.8061e-11
-4.79827e-10
4.09487e-10
2.94075e-11
-2.19662e-10
4.7618e-10
-5.78323e-11
-2.97088e-11
6.44812e-10
-4.19295e-10
-2.16925e-11
3.50125e-11
-9.23784e-11
-1.39947e-10
-6.49295e-10
5.55843e-11
-1.06536e-09
-5.68719e-10
2.58086e-10
2.31606e-10
-1.88474e-10
1.80995e-10
-5.63813e-10
-2.59828e-10
-2.19286e-10
-2.35891e-10
6.08292e-10
2.48065e-10
2.08802e-10
7.27927e-11
1.13838e-09
6.93768e-10
5.16214e-10
8.36764e-10
4.9364e-10
6.14571e-10
8.42033e-10
5.82738e-10
2.98725e-10
-6.57823e-12
7.83833e-11
-6.3048e-10
1.53495e-11
-2.80634e-11
-4.61515e-10
-8.59083e-10
-1.08796e-09
-1.08848e-09
-2.96615e-10
-2.36749e-11
-3.26709e-11
5.40894e-12
-7.22455e-10
-1.88506e-10
4.58095e-11
-4.89121e-10
1.3885e-10
-1.95544e-10
8.39393e-10
1.11456e-09
-1.74904e-10
-1.69837e-10
2.36563e-10
-2.87949e-12
6.30847e-10
1.15235e-09
5.42412e-12
-3.80138e-11
-4.0275e-10
1.88976e-10
2.55253e-10
-6.54062e-10
1.04219e-11
2.91557e-10
2.91353e-11
1.59584e-10
4.12288e-11
-6.74815e-10
-2.70677e-10
1.66608e-10
5.17429e-10
4.33806e-10
6.47409e-10
2.54986e-10
-1.42846e-11
3.36464e-11
-1.76419e-10
-6.67408e-10
-3.62677e-11
-1.7703e-12
-4.57395e-10
2.10525e-10
6.73768e-10
4.11026e-10
8.96994e-10
2.27085e-10
8.91145e-10
1.7766e-10
7.62902e-10
6.01037e-10
4.87215e-10
2.02643e-10
2.40225e-10
6.88736e-10
-4.33136e-10
3.40528e-11
-4.67712e-10
-4.55673e-10
1.63805e-10
-3.47475e-11
-4.38527e-10
-7.16699e-10
-3.27332e-11
-4.02242e-10
-7.06013e-10
-1.26715e-09
-4.70147e-10
-9.23442e-10
-3.88047e-10
-1.15744e-09
-2.20077e-10
2.51275e-10
2.03037e-10
-2.74959e-10
6.89633e-10
6.76632e-10
-1.47502e-10
1.81163e-10
-1.46645e-10
3.26001e-11
-2.22705e-10
-2.99894e-10
-2.27948e-10
-3.74372e-11
-4.16131e-11
2.97837e-11
-1.81873e-10
-2.67182e-11
-2.27835e-10
-4.34634e-10
-4.55401e-10
-2.65105e-11
-6.92355e-10
-4.37655e-11
-3.69239e-10
-3.09005e-10
4.21917e-10
-2.9109e-10
4.9858e-11
-1.85421e-11
3.3317e-11
9.13635e-10
1.16626e-10
4.61135e-10
4.3341e-10
-6.05191e-12
6.99326e-10
-7.37189e-11
6.77023e-10
-3.00598e-11
9.24732e-12
1.92998e-10
-4.79281e-11
-2.27754e-10
-8.82417e-12
-7.04588e-10
-6.25649e-10
2.20509e-11
-8.95564e-10
2.44569e-11
-4.08515e-10
-2.86825e-10
-1.77913e-10
-4.41161e-10
-4.18654e-10
-8.07794e-10
-4.91848e-10
7.40701e-10
3.90626e-10
-7.5137e-11
6.31522e-10
8.28575e-10
-5.81716e-11
7.48122e-10
4.5972e-10
9.69791e-10
9.16762e-10
1.38345e-10
2.42425e-10
5.18045e-10
2.76904e-10
6.25001e-10
-7.61217e-11
4.12434e-12
-2.45906e-10
-1.82534e-10
-6.00266e-10
-6.6163e-10
-6.90216e-10
-4.38155e-10
1.58209e-11
7.90446e-10
-4.62708e-10
3.85401e-11
-4.91756e-11
-6.11075e-10
-3.41407e-10
-1.87199e-10
5.36202e-12
-2.30291e-10
2.99538e-10
1.65595e-10
-2.07769e-10
1.61041e-10
7.27419e-10
2.70982e-11
2.25554e-10
4.23688e-10
8.24483e-10
1.11458e-09
4.8238e-10
2.63873e-10
-4.28239e-10
-6.37007e-10
-2.12293e-10
-1.03298e-11
-7.38386e-10
-4.31468e-13
-2.38818e-10
1.31267e-10
-2.82542e-10
-2.48536e-10
4.33682e-10
8.3599e-10
4.15091e-10
1.95459e-10
2.13803e-11
2.45061e-11
-5.33918e-10
-4.37722e-11
2.56538e-10
-1.12241e-11
-4.28272e-10
3.68747e-10
-1.81771e-10
5.36232e-11
3.00506e-11
-5.40741e-11
-5.25117e-11
4.45066e-10
2.79639e-10
8.19011e-10
-9.23898e-12
9.61158e-11
-4.48924e-10
-7.47395e-10
-4.29379e-10
-1.51424e-11
-5.00774e-10
-1.92931e-10
-1.97094e-10
-2.63567e-10
-4.52413e-10
-6.97722e-10
-4.54028e-10
-2.80253e-10
-9.38891e-11
1.64676e-10
3.10622e-10
-1.76902e-10
7.09032e-10
-1.47491e-10
5.16317e-10
4.96612e-10
3.7062e-11
1.42844e-09
1.86121e-10
8.23129e-10
4.62656e-10
4.19346e-10
4.54029e-10
5.35098e-10
-6.98118e-10
4.11284e-10
4.15362e-10
1.16583e-10
4.17501e-10
8.1732e-11
4.61354e-11
-3.25126e-11
-4.48998e-10
-6.462e-10
-6.83414e-10
-8.50422e-10
-5.07892e-10
-4.20149e-10
-8.80755e-10
-1.309e-09
-7.02018e-10
-1.55146e-09
-1.11675e-09
-7.30109e-10
-4.17086e-10
-1.82481e-10
-6.31472e-10
4.564e-11
-5.69553e-11
1.04417e-11
-4.70401e-11
1.54154e-10
5.29318e-10
2.81067e-10
1.70012e-10
1.93062e-10
-4.48341e-10
-1.96475e-10
-6.38349e-10
2.97623e-10
-5.38342e-11
-6.5868e-10
-2.06996e-10
-1.67072e-11
6.34078e-11
-5.2599e-11
1.78709e-10
4.8418e-10
1.40313e-11
2.33944e-10
2.16872e-10
7.22906e-10
-2.77797e-11
8.48363e-10
1.85627e-10
5.27451e-11
3.02085e-10
-1.70397e-11
2.44251e-10
-2.40524e-10
-7.70285e-11
1.14092e-09
4.57232e-10
1.11938e-09
1.78586e-09
6.31079e-10
5.05332e-10
3.17999e-11
6.73214e-10
-2.28393e-10
4.89357e-10
6.25794e-10
5.26286e-10
-8.97053e-10
-1.76261e-09
1.0511e-10
-7.42264e-10
-4.55992e-10
-2.23315e-10
-3.15702e-10
2.92511e-11
-6.29086e-10
-2.4029e-10
2.69822e-11
-1.45674e-11
3.99183e-10
3.15983e-10
-2.1952e-10
6.62277e-10
-2.56685e-10
1.89745e-10
-1.31889e-09
9.76065e-11
3.24886e-11
-2.99862e-10
4.16879e-10
1.09885e-10
-1.07989e-09
8.33281e-12
8.67771e-12
3.11477e-10
-2.61468e-11
2.92793e-10
-2.13894e-10
-6.92875e-10
-4.78959e-10
-7.04798e-10
-7.51571e-11
-5.53557e-11
-9.08602e-10
-4.357e-10
6.06294e-10
2.59444e-10
-2.9003e-10
7.61853e-11
-1.44745e-11
5.85346e-10
6.22377e-11
-2.72699e-12
4.32464e-10
4.23866e-10
1.94158e-10
7.29267e-10
-1.54533e-11
-5.94986e-10
7.01303e-10
3.32478e-10
6.47738e-10
-6.04079e-10
-6.8158e-10
-8.55485e-10
4.14121e-10
2.79984e-10
1.29099e-10
-1.52141e-11
1.22663e-10
-1.49306e-11
-3.02028e-10
-4.30296e-10
-2.41517e-10
-9.63277e-10
2.5434e-10
-1.49419e-11
1.99398e-10
3.92147e-10
1.14643e-09
1.2505e-10
-1.09275e-10
-4.30237e-10
4.70198e-10
-5.72207e-10
4.28418e-10
-6.00129e-12
-2.2361e-10
-6.47167e-10
4.35807e-10
1.94562e-10
2.67477e-11
-2.13838e-10
-1.32408e-10
-8.43192e-10
-2.17535e-10
5.47754e-10
1.92895e-10
-1.13183e-09
-2.23782e-10
3.24141e-10
3.19984e-10
1.39085e-10
-6.11811e-10
-1.44881e-10
-2.10341e-10
-4.30203e-10
1.91587e-10
-5.56819e-10
4.14873e-10
-1.83726e-11
6.30128e-10
4.97796e-10
-4.1018e-10
7.34845e-12
4.0247e-10
6.59161e-10
-3.57632e-11
-3.14948e-11
2.16183e-10
2.63647e-10
-4.33457e-11
-7.14191e-10
-1.77589e-10
-2.13814e-10
-8.27094e-11
8.02868e-11
6.36905e-10
1.80608e-10
2.38695e-10
4.52955e-10
-2.08335e-11
9.70601e-11
2.90427e-11
6.69626e-10
-2.1597e-10
-1.68819e-11
-6.72279e-10
-2.22046e-10
-5.0423e-10
-8.22577e-12
-3.87813e-10
-7.37563e-10
-2.79343e-10
-6.73217e-10
-1.66937e-10
2.50531e-11
6.67242e-10
5.98008e-10
-2.06022e-10
-2.15387e-10
-2.77684e-12
4.59161e-10
3.22199e-10
7.14034e-10
1.06651e-09
4.6352e-10
7.49022e-10
-3.0052e-11
2.73489e-11
-3.16206e-11
-1.11664e-09
1.52115e-11
-2.46955e-10
1.09021e-09
6.64819e-10
-8.08879e-10
-4.40702e-10
2.94357e-11
-4.41386e-10
-8.36707e-10
-7.08592e-10
-7.57173e-10
-3.08623e-11
-1.03112e-09
3.36647e-10
2.39784e-11
4.76715e-10
2.95996e-10
-7.30199e-10
-6.06184e-10
5.96971e-10
2.44089e-10
7.07476e-10
-1.37204e-10
2.34926e-10
-1.58561e-10
6.56933e-10
7.48511e-10
-5.14453e-11
4.55117e-10
7.29708e-10
2.35974e-11
3.10603e-11
-8.67581e-10
-2.66754e-10
2.57298e-10
6.80737e-12
6.46473e-10
8.58751e-10
2.22596e-10
6.84636e-10
6.75243e-11
-2.85174e-10
7.61755e-10
1.24792e-11
-7.26979e-10
-4.90679e-10
-4.08698e-10
-7.15708e-10
2.44571e-10
2.41066e-10
-6.28895e-10
-2.65964e-10
-2.32869e-10
-9.00393e-10
1.8999e-10
-7.06881e-10
-6.67152e-10
-8.02261e-10
-6.48881e-10
-1.05973e-09
-5.92394e-10
2.07448e-10
-2.30533e-10
2.06163e-10
-1.94801e-10
7.76006e-11
3.73767e-10
6.66135e-11
2.29955e-10
3.80506e-10
2.60282e-10
-4.89643e-10
-1.94059e-11
-1.71413e-11
8.21435e-10
2.09874e-10
3.95031e-10
1.28874e-09
3.09097e-10
9.08786e-10
-6.43529e-10
2.13189e-10
6.78315e-10
3.98175e-10
4.11699e-10
4.69205e-10
4.06836e-10
4.51723e-10
1.33901e-11
-2.00065e-10
8.27414e-10
1.78923e-10
-2.22013e-10
-5.89737e-11
3.0873e-10
2.94738e-10
-4.31099e-10
1.38543e-10
-4.16949e-11
-3.08864e-11
-6.70422e-10
-4.74065e-10
-8.5582e-10
-7.09734e-10
-4.1683e-11
-7.74393e-10
-1.48189e-10
1.08742e-09
4.37516e-11
-4.49824e-10
2.0336e-10
4.48692e-10
-2.97053e-10
-5.78069e-11
1.41916e-10
1.26169e-11
-2.2065e-10
-6.56813e-12
1.25454e-10
3.94499e-10
-4.68163e-10
2.43061e-10
-2.59907e-10
-1.79535e-10
-4.10651e-10
-1.03231e-09
-8.29869e-10
2.04874e-10
-3.64056e-10
-4.01163e-10
-3.98638e-10
-1.65016e-10
-2.86916e-11
2.01356e-10
-1.86538e-10
-2.05661e-11
-2.75028e-11
-4.13601e-10
8.89952e-10
2.84167e-10
-3.19907e-11
4.15146e-10
9.07166e-10
8.20331e-10
6.53691e-10
2.28881e-10
6.76256e-10
1.39405e-10
2.57538e-11
2.8666e-10
8.60317e-10
2.35157e-10
-4.14017e-11
9.31799e-10
4.74286e-11
-2.11111e-11
4.97107e-10
-2.83324e-11
-5.20185e-10
-3.72597e-10
-2.05904e-10
-1.86859e-11
-4.44638e-10
-1.66987e-11
6.45837e-10
2.31311e-10
-4.86815e-10
-8.00193e-10
1.67505e-10
3.48547e-10
2.03835e-10
6.96065e-10
-9.26112e-10
3.1798e-10
-4.38411e-10
-1.60878e-10
1.75749e-10
2.30479e-10
2.51534e-10
1.10058e-09
-1.81014e-10
-7.94768e-10
-1.01537e-10
-4.1013e-10
-3.28081e-10
6.24498e-10
-3.43138e-10
6.71884e-10
-2.826e-10
-2.27232e-10
-2.24703e-10
4.03375e-10
-2.04329e-10
-3.80863e-10
1.10712e-11
-2.34538e-10
-3.97118e-10
-2.02657e-10
7.20668e-10
6.92843e-10
7.03172e-10
1.91219e-10
9.35862e-12
4.48159e-10
1.40648e-10
-2.10429e-10
8.56502e-10
-7.48622e-11
6.63534e-11
-3.89615e-10
-6.64594e-10
-3.98113e-10
-4.46186e-10
-1.16711e-09
-1.46683e-10
-1.09042e-09
-2.1106e-10
-5.29014e-10
2.64858e-11
1.09771e-09
2.48579e-10
1.74126e-10
2.13567e-10
-7.04824e-11
-8.45484e-12
-2.20374e-10
-9.2573e-11
2.58603e-10
-1.54911e-11
-5.54272e-10
-1.02562e-09
-5.07072e-10
-3.7298e-10
-6.3542e-10
5.68096e-12
6.68583e-10
-6.07662e-10
-2.20358e-10
2.13446e-10
4.27845e-10
1.93208e-10
8.89684e-10
-4.82689e-10
8.74674e-11
2.07686e-10
-1.10363e-09
-2.08209e-10
-4.84269e-11
-4.41607e-10
1.87839e-10
-4.12452e-10
3.98121e-10
1.93674e-10
-6.26318e-10
-2.03516e-10
-6.54454e-11
-6.57172e-10
-2.85753e-10
4.36731e-10
1.55468e-10
2.63228e-10
8.69154e-10
3.44909e-10
-1.7719e-10
2.76183e-10
-2.45131e-11
-6.45574e-10
7.10365e-10
4.73773e-10
5.25209e-11
-2.72226e-10
-3.90236e-10
-2.00609e-10
-2.69105e-10
7.04368e-11
1.93652e-10
-5.74405e-12
2.03216e-10
1.93727e-10
6.10564e-10
1.85911e-10
4.37359e-10
6.06788e-10
2.27699e-10
2.84749e-10
9.92071e-10
2.18252e-10
4.4461e-10
-8.60491e-12
-4.02159e-11
9.166e-10
3.83797e-10
2.24344e-10
1.9673e-11
6.03729e-10
8.989e-10
1.68185e-10
-2.24455e-10
-8.4039e-10
1.78158e-11
4.07131e-11
7.84094e-11
-4.90076e-11
-4.34595e-10
-5.24268e-10
2.67517e-10
3.16716e-10
-2.21725e-10
6.67041e-10
-1.95937e-10
-1.81467e-10
-4.69478e-10
1.61712e-11
-1.10033e-09
2.82335e-11
-3.82251e-10
-2.74593e-12
1.30846e-10
-2.25796e-10
6.5616e-10
8.44227e-10
4.41326e-10
1.58337e-10
-2.35403e-10
5.2488e-12
9.17529e-10
1.85586e-10
8.56969e-10
-2.39019e-10
1.71796e-10
2.9454e-10
2.3891e-11
4.54254e-10
6.97875e-10
6.65435e-10
3.94948e-10
-4.63701e-11
-4.53112e-10
-8.53783e-10
-6.74962e-10
-7.33925e-11
-2.02465e-10
4.25471e-11
-9.37193e-10
-7.46726e-10
-8.37046e-10
-1.8301e-10
-2.91725e-10
-2.09938e-10
1.22753e-10
-4.67529e-10
-8.50089e-10
-3.80457e-10
-1.84846e-10
2.44986e-10
-2.53732e-10
2.42939e-10
1.18566e-11
2.6408e-10
-4.73003e-10
-1.88125e-10
6.18274e-10
6.64955e-10
-2.18783e-10
6.08411e-10
-7.51682e-11
6.083e-10
6.91789e-10
-1.83716e-10
-1.16161e-09
-2.64108e-10
1.60036e-10
-1.34643e-09
-9.70712e-10
-8.0624e-10
1.9548e-10
-8.34201e-10
-1.85251e-10
-4.38003e-10
2.30997e-10
-2.58698e-10
6.98726e-10
-7.11619e-10
-4.48529e-10
2.65385e-10
-2.71781e-11
2.55749e-10
-2.17521e-10
-4.30436e-10
3.89834e-10
-4.49067e-10
1.4871e-11
-6.03304e-10
2.01463e-10
-3.85732e-10
3.84451e-10
2.34573e-11
7.06868e-10
9.03636e-10
4.04471e-10
-9.93921e-10
-6.51172e-10
5.35766e-10
1.42309e-10
-4.17289e-10
-2.04158e-10
1.57767e-10
-2.09942e-10
2.22449e-10
-4.34999e-11
3.83343e-10
-6.47371e-10
5.49387e-10
4.66598e-10
-3.79085e-10
9.26139e-12
1.14957e-09
-2.31301e-10
-2.60993e-10
-2.32016e-10
-5.5656e-10
5.18496e-10
2.50714e-10
-2.45844e-10
-2.50371e-10
7.23299e-10
-7.61795e-11
3.02991e-10
3.69279e-10
5.75315e-10
1.53004e-10
4.39675e-10
-7.08477e-10
-6.20589e-10
5.09123e-10
2.4085e-10
-1.94779e-10
2.01789e-10
-4.20879e-10
-5.94763e-10
-6.04033e-11
4.32931e-10
2.49351e-10
-1.94663e-10
-9.02438e-10
4.0349e-10
-4.32093e-11
-2.11791e-10
4.234e-10
1.30089e-09
1.19795e-11
-1.96772e-10
3.49966e-10
1.74759e-10
-6.92813e-10
-4.27943e-10
-8.54257e-11
-7.76805e-10
-2.79862e-10
-4.26431e-10
-7.05107e-10
-4.70692e-11
1.90694e-10
5.17984e-11
-4.93788e-10
-2.45355e-10
-1.60099e-10
6.75002e-10
-4.30401e-10
-4.95367e-10
-8.96212e-10
4.12577e-10
-4.26134e-10
-3.57261e-10
-1.73819e-11
-2.47348e-10
1.06568e-09
7.85746e-11
-1.63888e-11
6.405e-10
2.25767e-10
4.80443e-10
-1.82431e-10
-2.5062e-10
2.87673e-11
1.82497e-10
5.13955e-11
-6.82122e-10
-2.29222e-12
2.14499e-10
2.44405e-10
2.30701e-10
-1.73473e-10
6.03751e-10
4.3516e-10
2.2201e-11
-1.12299e-09
-5.85273e-11
1.8064e-11
1.99541e-10
-4.38757e-10
-5.01726e-11
4.6019e-10
-4.08395e-10
-2.72637e-11
9.283e-11
-4.51228e-10
-2.49593e-10
4.97803e-10
1.25216e-10
-4.44078e-10
-1.71863e-10
-1.7942e-10
-6.44271e-10
-8.3572e-10
4.61521e-10
-1.76715e-10
-1.10627e-11
-4.80742e-10
-2.0876e-10
-1.83707e-10
-4.12005e-10
-4.6631e-11
3.71989e-11
2.01676e-10
-2.34188e-10
6.78669e-10
-1.98175e-10
7.03418e-10
-3.38443e-10
-1.81102e-11
-2.86259e-11
2.70244e-10
4.65766e-10
8.92626e-10
3.12319e-10
-4.56295e-10
4.66998e-10
9.92727e-12
8.99838e-10
2.34302e-10
3.44902e-11
4.26524e-11
8.53347e-10
2.29148e-10
8.991e-10
-7.29782e-11
1.21176e-09
4.66246e-10
-1.84591e-10
1.14512e-10
3.15308e-10
8.96541e-10
3.67945e-10
6.09665e-10
4.1669e-10
-2.75442e-10
-6.89372e-10
-4.87602e-10
-8.98926e-10
4.76339e-10
1.96538e-10
2.12941e-10
3.28018e-11
-6.81734e-10
1.56436e-10
4.81828e-11
-8.38868e-10
2.20822e-11
-2.38682e-10
4.53956e-10
-6.61031e-10
-5.34764e-10
-5.48487e-10
-4.52515e-10
3.09786e-13
-2.12179e-10
1.34533e-10
-4.10441e-10
-1.13066e-09
-6.22597e-10
-6.55877e-10
4.18949e-10
9.37857e-11
-4.43784e-10
-5.04014e-10
6.74817e-10
1.13497e-09
6.3e-10
-2.33381e-11
-3.85906e-10
8.32045e-10
6.054e-10
1.17839e-10
1.50937e-11
-1.81674e-10
1.91415e-10
-5.7475e-10
-3.78559e-10
-7.02554e-10
3.85e-10
-1.97325e-10
3.10724e-10
-4.42676e-12
-2.9186e-10
-6.1334e-10
2.35848e-10
2.28451e-10
-2.16984e-10
1.47497e-11
5.39141e-11
2.18447e-10
-2.07582e-10
-1.98364e-10
-2.62431e-10
-3.02222e-10
-1.9422e-10
-6.71484e-10
-3.67705e-10
-6.81072e-10
-6.6962e-10
-1.80283e-10
-2.42305e-10
-3.98867e-10
-1.34926e-09
-5.64241e-11
6.70879e-10
-5.30001e-12
1.80031e-10
4.61508e-10
1.14342e-09
1.52895e-09
1.52833e-09
1.51358e-09
-3.74967e-12
3.92628e-10
-4.09036e-10
-5.28628e-10
1.96174e-11
-4.41444e-10
2.20243e-10
-2.96595e-11
2.05077e-10
-4.61094e-10
-2.25182e-10
2.98759e-11
2.08358e-10
-3.6731e-10
2.64313e-10
4.64482e-10
-3.23918e-10
-3.0793e-10
5.23503e-11
-6.08219e-10
-4.39417e-11
2.33309e-10
4.53366e-10
3.82515e-11
1.0193e-09
2.34671e-10
8.62661e-10
2.37876e-10
6.34428e-10
-4.70897e-10
-1.95255e-12
-6.60556e-10
1.78389e-10
-8.70662e-10
-6.13929e-10
-3.29483e-11
3.08654e-12
6.34211e-10
-4.26936e-10
-6.5207e-10
7.22816e-11
-7.90977e-10
-8.66263e-10
-1.00677e-09
-1.15859e-09
-1.92053e-10
-2.18205e-10
4.3189e-10
8.69741e-10
2.02814e-10
5.06714e-10
5.5091e-10
-4.51959e-10
-8.39375e-11
1.64845e-10
2.86574e-11
-4.68041e-10
-2.4859e-10
6.45747e-10
-2.05975e-10
-2.31317e-11
-2.07124e-10
-3.03077e-10
2.45631e-10
7.94064e-10
1.08477e-09
2.78061e-10
9.03981e-10
-1.79351e-10
-6.81227e-10
-1.60587e-10
-2.76997e-10
-9.09608e-10
-5.10422e-10
-6.40145e-10
-9.30596e-10
-5.70985e-10
-2.29777e-10
3.13562e-10
7.27395e-10
8.08507e-10
8.41857e-10
9.63071e-10
-1.08786e-09
2.68321e-11
8.37973e-10
-4.76443e-11
6.5238e-10
8.60506e-10
-6.40236e-11
-2.2643e-10
3.02494e-12
-2.38669e-10
2.81296e-10
-2.18856e-10
-1.73963e-10
2.25912e-11
-9.10739e-10
-6.794e-10
-8.9165e-10
-1.7119e-10
-3.00648e-10
-5.51894e-10
-4.97267e-10
-6.63761e-10
2.44497e-10
-6.38334e-11
-3.74939e-10
4.52884e-10
3.63805e-11
-9.04159e-10
-4.24795e-10
-6.45561e-10
9.59189e-11
4.60878e-11
-3.69732e-10
7.51961e-11
6.99927e-10
-4.31074e-10
-4.52747e-10
-4.54579e-10
-2.8592e-10
-4.05926e-10
-4.29696e-10
-7.01498e-10
-8.5872e-10
-3.88776e-10
2.03384e-10
4.51247e-10
6.24744e-10
4.89995e-10
-1.76192e-10
2.11118e-10
-4.65037e-10
9.08154e-10
4.26732e-10
4.63715e-10
-2.47008e-10
-3.20244e-11
-4.75295e-10
-6.5791e-10
-6.05363e-10
-7.75332e-11
7.17161e-10
6.78693e-10
1.07159e-10
5.55764e-11
-5.57337e-11
8.79327e-11
-6.94354e-10
2.77033e-11
-6.3631e-10
-2.18347e-10
-1.52079e-10
-7.3551e-10
4.15133e-10
2.51452e-10
-5.90634e-10
-1.94323e-10
2.28749e-10
5.29966e-10
8.8279e-10
4.60068e-10
5.00389e-10
6.57177e-10
5.93144e-10
1.29252e-09
-1.94768e-10
1.99386e-10
9.69134e-10
9.99962e-11
-2.60493e-10
-2.74748e-10
3.52157e-10
5.79685e-10
-2.38921e-10
4.80151e-10
8.25791e-12
-8.52382e-10
-2.13162e-10
-6.37829e-10
-2.85224e-10
-4.41347e-10
-4.54044e-10
-7.00687e-10
-6.73154e-10
-6.43085e-10
-4.02191e-10
-6.72789e-10
-4.28211e-10
-4.44826e-10
4.98283e-10
4.64156e-11
7.24866e-10
9.22812e-10
6.44281e-10
6.59852e-10
2.43949e-10
4.79444e-10
6.02896e-10
1.02092e-11
8.28139e-10
2.41834e-10
1.82168e-10
-7.41364e-11
-4.55311e-10
-6.29007e-10
3.76129e-10
-3.20162e-11
3.15343e-11
4.61926e-10
-6.2018e-10
4.54616e-10
1.75203e-10
-5.71242e-11
8.99399e-10
2.14582e-10
1.8895e-10
8.70177e-10
-4.24781e-11
2.22506e-10
2.07078e-10
-4.01193e-10
-2.49727e-10
-7.15897e-10
1.84831e-10
-8.80351e-10
-1.99585e-10
-1.5092e-09
-9.22078e-10
-7.48168e-10
-5.15331e-10
-9.07543e-10
-2.34031e-10
5.34776e-10
4.62925e-11
1.90989e-10
2.80092e-10
-2.43656e-10
-1.51613e-10
4.67402e-10
-4.14229e-11
3.64792e-11
1.60588e-10
-1.28697e-10
-1.59833e-10
-4.14594e-10
-1.38135e-11
3.88338e-10
7.76187e-10
2.97313e-10
-1.46855e-10
-4.99828e-10
3.49473e-11
2.19355e-10
4.12448e-10
-2.2014e-10
1.9602e-10
-3.59287e-10
-1.83279e-10
-3.1907e-11
-5.75134e-10
-9.56074e-10
-8.57736e-12
2.57035e-10
5.46516e-10
-1.84432e-10
6.87466e-11
1.84204e-10
8.62359e-10
2.22496e-10
1.34665e-10
2.39612e-10
-3.80229e-10
4.72904e-10
2.79259e-10
2.37865e-10
2.49583e-10
2.37043e-10
-3.07132e-11
7.6262e-10
-1.12308e-10
2.77355e-11
-2.01934e-10
-2.46419e-11
-7.77002e-10
-1.98258e-10
-6.93309e-10
1.11751e-10
-4.59043e-10
-6.79218e-10
-4.51642e-10
-4.86103e-10
-4.03658e-10
4.3318e-10
-2.48062e-10
-9.53131e-10
-1.28814e-09
-9.31301e-10
-8.718e-10
-2.94372e-10
5.18519e-10
4.23489e-10
-2.99931e-10
3.32792e-10
8.33794e-10
-2.85555e-10
7.28913e-11
2.70065e-10
3.98244e-10
4.33882e-10
6.64277e-10
6.92479e-10
4.07028e-10
5.18732e-10
5.95299e-10
-2.40868e-11
-1.93209e-10
6.32277e-10
8.56856e-10
-3.3237e-12
6.44226e-11
5.54586e-11
-6.61038e-11
-2.56328e-10
-9.29488e-10
7.22476e-11
4.73843e-10
-9.37675e-10
7.46302e-11
6.88414e-10
1.22215e-09
6.42517e-10
6.11435e-10
1.33787e-09
7.14323e-10
-3.65387e-11
-3.9792e-10
-1.40947e-10
-1.59962e-11
-8.95744e-10
2.27986e-11
-1.09657e-09
1.44898e-10
-8.96337e-10
-6.15444e-10
-6.77512e-11
-4.73667e-10
-9.50551e-10
-3.85534e-10
-5.72859e-10
-7.44476e-10
-2.50506e-11
2.75205e-11
-5.20056e-10
1.91779e-10
4.08622e-11
-3.79888e-10
-8.63304e-10
-2.78475e-10
-2.42315e-10
-7.22029e-12
-6.23019e-10
1.99124e-12
3.48006e-11
2.51203e-10
4.36222e-10
-1.91631e-11
1.00777e-09
2.56265e-10
-1.77271e-10
4.7514e-11
1.34099e-10
3.4664e-10
2.07888e-10
-2.3602e-10
7.44578e-10
-8.05786e-10
6.87711e-11
1.02647e-12
-3.47571e-11
-1.65485e-10
-2.64472e-10
-3.02487e-11
4.45278e-10
-1.02844e-10
4.63414e-10
6.65301e-10
6.51793e-10
4.07565e-11
2.34077e-10
8.15807e-10
8.38663e-10
6.37596e-10
6.78942e-10
1.2524e-09
9.33625e-10
2.55541e-10
-2.29636e-10
1.52671e-11
-1.04634e-09
-4.7327e-10
-4.22004e-10
-1.82768e-10
-1.1354e-10
4.55151e-10
-1.01812e-09
6.26199e-11
-4.69962e-10
-2.34997e-10
-2.44456e-11
-1.10789e-09
-9.23818e-10
-5.03794e-10
-2.45476e-10
2.33954e-10
-6.78388e-10
-6.17935e-10
-8.50407e-10
-6.39243e-10
-9.42963e-10
-7.21357e-10
-7.10399e-10
8.97593e-10
-7.36386e-11
2.26067e-10
5.00373e-10
-6.27796e-10
1.00621e-10
-6.90731e-11
-2.8057e-10
-2.35912e-10
-1.34217e-10
1.91851e-10
-3.46217e-10
2.21993e-10
6.68561e-10
-1.93763e-10
-1.76997e-10
6.40437e-12
-7.51569e-10
2.3269e-10
-7.08904e-10
-4.42225e-10
1.91051e-10
-1.42471e-11
-4.29918e-10
-2.49824e-10
3.78905e-10
3.85076e-10
-3.8569e-11
1.12307e-09
6.81469e-10
-2.31206e-10
5.83931e-12
2.10149e-10
6.34137e-10
9.03655e-12
1.43768e-11
4.10784e-10
6.51349e-11
-2.25902e-10
-2.41641e-10
2.39908e-10
-2.36355e-11
3.09348e-10
6.39311e-11
1.19173e-12
-1.07065e-11
-2.24462e-10
6.00974e-10
-2.07267e-11
-3.55386e-10
-6.0629e-11
2.01373e-10
-1.32666e-10
-1.7965e-11
6.02455e-10
-5.20578e-10
-3.59635e-11
-6.3613e-10
-4.43953e-10
-4.67168e-10
-4.88821e-10
-4.9983e-10
2.32633e-10
-3.48765e-10
-1.09944e-11
2.69626e-10
-4.00548e-10
3.54606e-11
1.31849e-11
-1.83919e-10
-1.17446e-11
2.93873e-10
-5.06127e-10
-4.2893e-12
2.05813e-10
6.41197e-10
9.24694e-10
1.4556e-10
3.98333e-10
2.48037e-10
5.63489e-11
1.14386e-09
3.29172e-10
-2.66885e-10
2.85947e-10
1.84034e-11
-2.41622e-10
-4.37612e-10
-7.05658e-10
6.55893e-10
1.84287e-10
-5.00827e-10
-6.43003e-10
3.88069e-10
1.54358e-09
2.04626e-10
-2.56109e-10
8.26887e-10
-2.44564e-10
6.732e-10
4.26491e-10
-1.514e-11
-6.71068e-10
3.82828e-10
-2.08353e-10
3.46391e-11
1.11779e-10
-3.24572e-10
1.57416e-10
1.32206e-11
-7.63461e-11
4.34411e-10
-5.3452e-10
-8.05773e-10
-4.63388e-10
-6.71657e-11
9.96122e-11
-2.36913e-10
-2.02732e-10
-9.78626e-10
-6.79724e-10
-8.6895e-10
-1.48858e-09
-6.71153e-10
-3.11854e-10
-8.79477e-10
-6.82909e-10
-6.18948e-10
-3.80493e-10
-6.61522e-10
7.61657e-10
-3.95725e-12
4.81934e-10
4.7525e-10
9.27535e-10
2.21063e-10
1.15224e-11
6.06158e-10
8.9395e-10
6.92312e-10
8.05164e-10
3.8121e-10
6.99727e-10
4.34216e-10
5.50566e-10
1.9932e-10
-7.31148e-10
-8.19374e-11
-4.33572e-10
-3.90243e-10
-5.32605e-11
-5.86277e-10
-3.71186e-10
-2.7772e-10
-6.32046e-10
-2.10515e-10
-5.21876e-11
-6.21733e-10
-4.60843e-11
-6.44122e-10
4.93288e-10
1.79589e-11
6.30135e-11
-2.21364e-10
1.65674e-10
-4.72067e-11
6.16357e-12
-8.41651e-12
3.85816e-10
-3.93016e-10
-5.83948e-11
5.29107e-10
-6.03807e-10
-4.71339e-10
9.17126e-10
4.32444e-10
6.39641e-10
4.72964e-10
1.13833e-09
2.0244e-10
1.09086e-09
1.20328e-09
6.74107e-10
5.10435e-10
3.04262e-10
5.59624e-10
-2.70013e-10
2.95398e-10
-2.78593e-12
7.07443e-11
1.87121e-10
1.42329e-10
-6.48201e-10
-6.97456e-10
-9.7737e-10
-6.49351e-10
-2.15406e-10
-8.91669e-10
4.33832e-11
-2.25309e-10
4.23591e-10
6.55861e-10
2.68468e-10
-6.49699e-10
-1.15903e-09
1.74159e-10
2.16092e-10
-5.07229e-11
-4.62065e-10
4.74238e-10
6.731e-12
7.06114e-10
6.3382e-10
-1.83457e-10
-4.15424e-11
-3.93054e-10
5.22789e-10
7.60347e-10
3.66829e-11
-3.22629e-10
-7.39199e-12
-9.78642e-10
2.23398e-10
6.25356e-11
-6.72399e-12
7.18159e-10
2.5208e-10
1.11079e-09
-2.45605e-10
-7.11309e-11
3.04272e-10
-6.36838e-10
-1.86635e-10
1.32244e-09
2.58821e-10
-8.38774e-10
1.72813e-10
4.41699e-11
-4.49234e-10
-2.27027e-10
-5.66329e-10
-3.40449e-10
-1.18442e-09
-1.22871e-09
-1.07244e-09
-8.72278e-10
-8.68998e-10
-4.59357e-10
-2.78869e-10
4.18281e-10
-2.07104e-10
1.94252e-10
6.24594e-10
6.11157e-11
3.13273e-11
-1.32176e-11
2.5398e-10
4.07639e-10
7.99113e-10
6.78097e-11
7.82966e-10
4.0602e-10
1.56698e-10
2.07087e-10
2.33273e-10
2.6238e-10
8.44255e-12
-3.88117e-10
-6.19625e-10
-2.4749e-10
-3.85259e-10
4.23939e-10
-1.08792e-09
2.04516e-10
-2.2629e-12
4.05475e-10
-1.00359e-09
-1.82546e-10
-5.15139e-10
2.77982e-10
-4.26377e-10
9.398e-11
7.00228e-10
4.01055e-10
2.08958e-10
-2.29303e-10
5.67901e-10
-1.87623e-10
1.77984e-10
1.24502e-11
-6.22706e-11
-1.85938e-10
-8.49989e-10
-4.43944e-10
1.61267e-10
7.31636e-10
3.6188e-10
-1.88952e-10
-7.26293e-11
2.98836e-10
1.55749e-10
4.60787e-10
5.71573e-10
7.40252e-10
-1.78088e-10
1.68323e-10
1.68168e-10
9.50724e-12
2.51989e-10
-8.77813e-10
-3.77949e-11
-5.37082e-10
2.42661e-10
2.74837e-10
6.83021e-10
4.93859e-10
7.28565e-10
4.32186e-10
5.14555e-10
-2.17421e-11
4.52981e-10
1.6585e-11
1.56334e-10
-4.30993e-10
-5.37518e-10
4.76035e-10
-1.55513e-10
2.04513e-10
-8.13707e-11
-7.70484e-10
-3.5483e-10
1.68654e-10
-6.75274e-12
2.64697e-10
-1.23464e-10
3.3383e-10
-2.62783e-10
-1.59993e-10
-1.57267e-10
-6.45506e-10
1.47497e-11
-3.04815e-10
-2.79937e-11
1.72009e-10
-3.69065e-10
-2.49469e-10
4.37209e-10
-8.0818e-10
-2.64974e-12
4.54834e-10
-2.45223e-10
-1.71822e-10
4.16857e-10
-1.67623e-10
5.0501e-10
2.18129e-10
-4.8953e-10
6.83343e-10
4.25578e-10
2.21743e-11
-5.06214e-10
-4.04417e-10
-5.08277e-10
-2.18027e-10
-8.51656e-10
-2.48459e-10
-6.62722e-10
-2.58756e-10
-9.80258e-10
-7.20112e-10
-8.55134e-10
-3.98777e-10
-1.90102e-10
-3.89847e-11
4.93558e-10
-4.40122e-11
-2.22761e-10
-5.71729e-12
8.77838e-12
1.73075e-11
2.75212e-10
1.99297e-10
1.47454e-10
9.51441e-10
3.98821e-10
-3.60895e-12
2.12091e-10
-2.33545e-10
-3.11038e-10
9.87366e-11
-4.97343e-10
-3.34197e-11
4.18934e-10
4.46149e-10
2.34133e-10
2.38341e-10
2.44354e-10
-8.9876e-11
-1.3488e-11
-3.99436e-10
-2.63357e-10
-7.00338e-10
1.91319e-11
-5.41159e-12
2.29853e-10
-6.20769e-11
1.46666e-10
-2.67545e-11
6.37445e-10
-2.57813e-10
-4.82446e-11
2.16672e-10
4.29776e-10
3.74074e-10
4.75046e-10
6.67414e-11
2.70513e-10
2.61426e-10
1.33238e-11
1.08225e-11
-6.37133e-10
-4.51111e-10
8.67522e-10
2.92667e-10
4.73524e-10
4.30383e-10
2.15936e-10
-2.6136e-10
3.68448e-10
-4.68828e-11
-1.83615e-10
-2.05186e-10
-1.80739e-10
-7.69302e-10
1.33851e-11
-2.64321e-10
-9.65624e-10
-6.82407e-10
2.25588e-10
7.14803e-12
-4.08381e-10
-2.25033e-10
-9.62438e-11
-8.6124e-10
-3.99051e-10
1.47144e-10
-2.28096e-10
7.22245e-12
-5.30294e-10
-6.75785e-10
-3.10353e-10
-1.51533e-10
-4.60103e-10
1.92694e-10
-5.01925e-10
1.59808e-10
1.90494e-10
-6.59559e-10
1.82518e-10
1.40797e-10
-1.53717e-10
1.9397e-10
1.94933e-10
4.58697e-10