/*--------------------------------*- C++ -*----------------------------------*\
  =========                 |
  \\      /  F ield         | OpenFOAM: The Open Source CFD Toolbox
   \\    /   O peration     | Website:  https://openfoam.org
    \\  /    A nd           | Version:  9
     \\/     M anipulation  |
\*---------------------------------------------------------------------------*/
FoamFile
{
    format      ascii;
    class       volScalarField;
    location    "0.005";
    object      mag(U);
}
// * * * * * * * * * * * * * * * * * * * * * * * * * * * * * * * * * * * * * //

dimensions      [0 1 -1 0 0 0 0];

internalField   nonuniform List<scalar> 
10000
(
5.69749e-12
6.51361e-12
6.78002e-12
6.86524e-12
7.52858e-12
7.42033e-12
8.34086e-12
8.23952e-12
8.5543e-12
8.39077e-12
9.27522e-12
8.35315e-12
8.5781e-12
8.46985e-12
8.11438e-12
7.93856e-12
7.31745e-12
6.86217e-12
6.25642e-12
5.70978e-12
5.3735e-12
4.84068e-12
3.97773e-12
3.30364e-12
2.13896e-12
1.15086e-12
3.37811e-14
7.67753e-13
7.0019e-13
6.56429e-13
4.14586e-13
1.42802e-13
4.3378e-13
1.2737e-12
1.37504e-12
1.07716e-12
8.52973e-13
1.12015e-12
1.53781e-12
2.14587e-12
2.42917e-12
2.53051e-12
3.4856e-12
3.57159e-12
4.18579e-12
4.30325e-12
4.2403e-12
4.4568e-12
5.04874e-12
5.39116e-12
6.33626e-12
6.36467e-12
7.01726e-12
6.76774e-12
7.04259e-12
6.9305e-12
7.04643e-12
6.71784e-12
6.64413e-12
6.33242e-12
6.86524e-12
6.92436e-12
6.86832e-12
6.48214e-12
6.29711e-12
6.15123e-12
5.94855e-12
5.81726e-12
5.87254e-12
6.09058e-12
5.94778e-12
5.40114e-12
5.6353e-12
5.33818e-12
5.12475e-12
4.62571e-12
4.93281e-12
5.15853e-12
5.28598e-12
5.11784e-12
5.44337e-12
5.55239e-12
6.195e-12
6.29557e-12
7.13856e-12
7.60613e-12
8.28635e-12
8.82839e-12
9.46639e-12
9.37349e-12
9.63913e-12
9.61917e-12
9.46793e-12
9.92934e-12
9.98769e-12
9.75353e-12
8.96351e-12
8.90132e-12
8.2495e-12
8.12973e-12
8.15968e-12
7.73204e-12
6.94816e-12
7.04643e-12
6.40306e-12
6.5259e-12
5.87331e-12
6.50286e-12
6.1236e-12
6.38463e-12
6.14432e-12
6.33396e-12
6.17503e-12
7.09403e-12
7.10709e-12
7.68674e-12
7.05104e-12
7.64682e-12
7.04797e-12
8.06371e-12
7.33281e-12
8.00843e-12
6.93665e-12
7.04413e-12
5.95162e-12
5.64836e-12
5.13396e-12
5.11784e-12
4.64414e-12
4.60114e-12
4.02226e-12
3.78502e-12
3.71362e-12
3.85949e-12
3.70517e-12
3.32744e-12
3.44337e-12
3.36352e-12
3.93166e-12
4.47907e-12
4.82763e-12
5.20613e-12
5.20383e-12
5.69442e-12
5.29212e-12
5.21074e-12
5.276e-12
5.14394e-12
5.16007e-12
5.05565e-12
4.18272e-12
3.38732e-12
2.9021e-12
2.47216e-12
2.20882e-12
2.26257e-12
2.31324e-12
2.36621e-12
2.27255e-12
2.9021e-12
3.29596e-12
4.27945e-12
4.46909e-12
5.68444e-12
5.96313e-12
7.0902e-12
6.90901e-12
8.28866e-12
8.25027e-12
9.0756e-12
9.04259e-12
9.28827e-12
9.01802e-12
9.70516e-12
9.20535e-12
9.60689e-12
8.04144e-12
8.56351e-12
7.90017e-12
8.56198e-12
7.91169e-12
8.15968e-12
7.0495e-12
7.10709e-12
6.99039e-12
7.7758e-12
7.36121e-12
6.99807e-12
6.28098e-12
5.81419e-12
5.56697e-12
5.75968e-12
5.39039e-12
5.56006e-12
5.23223e-12
5.4925e-12
4.98886e-12
5.1593e-12
4.92667e-12
4.98809e-12
4.54356e-12
4.78771e-12
4.49673e-12
4.19884e-12
4.08752e-12
4.82993e-12
5.45181e-12
5.74356e-12
5.45258e-12
5.78195e-12
5.91937e-12
6.25104e-12
6.96966e-12
7.11169e-12
7.1616e-12
7.87023e-12
8.51361e-12
8.38386e-12
8.71937e-12
8.99345e-12
8.22877e-12
7.51783e-12
7.20229e-12
6.73626e-12
6.18502e-12
5.57772e-12
5.18694e-12
4.58502e-12
3.93473e-12
3.44567e-12
3.37351e-12
3.41112e-12
3.34433e-12
3.44491e-12
3.76045e-12
3.43032e-12
3.35047e-12
2.92283e-12
3.08944e-12
3.2499e-12
4.29327e-12
4.357e-12
5.59154e-12
6.26563e-12
7.57388e-12
8.21649e-12
8.75392e-12
8.37004e-12
8.17042e-12
8.12129e-12
8.28098e-12
7.95929e-12
7.6376e-12
7.61687e-12
7.56697e-12
7.35046e-12
7.59154e-12
7.87561e-12
7.7067e-12
7.98002e-12
8.15584e-12
7.90401e-12
8.28482e-12
8.19422e-12
7.45257e-12
6.65949e-12
5.88175e-12
5.05488e-12
5.23454e-12
4.95277e-12
5.02341e-12
4.90057e-12
5.00498e-12
4.95891e-12
5.36736e-12
5.6568e-12
6.4353e-12
6.39077e-12
7.04106e-12
6.56966e-12
6.47292e-12
6.30939e-12
7.25219e-12
7.36352e-12
7.72359e-12
7.27446e-12
7.91016e-12
7.22609e-12
7.34739e-12
6.8806e-12
6.84989e-12
6.44605e-12
6.34624e-12
5.45719e-12
5.24682e-12
4.21573e-12
3.61765e-12
2.65566e-12
2.79769e-12
2.6595e-12
2.62034e-12
2.50441e-12
3.64836e-12
4.17581e-12
4.62417e-12
4.55277e-12
5.01266e-12
5.1854e-12
5.48713e-12
5.35661e-12
5.42417e-12
6.11285e-12
6.48751e-12
6.67023e-12
6.9259e-12
6.92743e-12
7.34739e-12
7.07791e-12
6.54202e-12
5.77504e-12
5.68828e-12
5.21381e-12
5.26985e-12
4.5259e-12
4.73473e-12
4.20498e-12
4.49673e-12
4.15508e-12
4.29634e-12
4.1021e-12
4.86755e-12
5.01957e-12
5.4687e-12
5.56314e-12
6.02763e-12
6.28329e-12
5.84951e-12
5.79116e-12
5.44721e-12
5.02417e-12
5.05872e-12
5.17772e-12
5.26678e-12
5.35124e-12
5.69058e-12
5.50095e-12
5.28444e-12
5.12091e-12
4.4522e-12
4.18195e-12
3.676e-12
3.33281e-12
2.44683e-12
2.45527e-12
2.32168e-12
2.43838e-12
1.94241e-12
1.8119e-12
1.4618e-12
1.63455e-12
1.79884e-12
2.43531e-12
2.25105e-12
2.58195e-12
2.78925e-12
3.4426e-12
4.03147e-12
4.60114e-12
5.31745e-12
6.33319e-12
6.60267e-12
7.45641e-12
7.85872e-12
8.14739e-12
7.28444e-12
7.48021e-12
6.90594e-12
7.05334e-12
6.83377e-12
6.84144e-12
5.96621e-12
5.63223e-12
4.52974e-12
4.09366e-12
3.6998e-12
3.69212e-12
3.26679e-12
2.98195e-12
2.44606e-12
2.15969e-12
2.51285e-12
2.63723e-12
2.47523e-12
2.68022e-12
3.13627e-12
3.3213e-12
4.04836e-12
3.71976e-12
4.18118e-12
4.37926e-12
4.80613e-12
5.352e-12
5.27907e-12
5.13089e-12
4.70018e-12
5.2284e-12
4.70479e-12
4.78617e-12
5.0188e-12
4.757e-12
5.08252e-12
5.11016e-12
4.30709e-12
4.00153e-12
3.67754e-12
3.86563e-12
3.93013e-12
4.26256e-12
4.3831e-12
4.30786e-12
3.75815e-12
4.24798e-12
3.85105e-12
4.06371e-12
3.85565e-12
4.06295e-12
3.64913e-12
3.99846e-12
3.99385e-12
4.7163e-12
5.36122e-12
6.11822e-12
7.09941e-12
7.99307e-12
8.76159e-12
9.21533e-12
9.98539e-12
1.01075e-11
9.91399e-12
1.04046e-11
1.01911e-11
9.85103e-12
9.50938e-12
9.55008e-12
8.78155e-12
8.90823e-12
7.91399e-12
7.55776e-12
6.53357e-12
6.66563e-12
5.25066e-12
4.7355e-12
3.31439e-12
2.60882e-12
1.32668e-12
1.09635e-12
4.23799e-13
9.85027e-13
1.05489e-12
1.60384e-12
1.85643e-12
2.27332e-12
1.97389e-12
2.67331e-12
2.50057e-12
2.44913e-12
2.20191e-12
1.72744e-12
1.84875e-12
2.08215e-12
2.10441e-12
2.21804e-12
2.22725e-12
2.14357e-12
2.2357e-12
2.26871e-12
2.30633e-12
1.64222e-12
1.05182e-12
6.64106e-13
4.29941e-13
5.4664e-13
7.02494e-13
3.15546e-13
3.60076e-13
1.11478e-12
1.30441e-12
1.84952e-12
2.34625e-12
2.98886e-12
3.07869e-12
3.42571e-12
3.514e-12
3.83646e-12
4.00997e-12
4.18732e-12
3.97005e-12
4.04299e-12
3.69366e-12
3.39961e-12
2.97811e-12
2.52207e-12
1.61689e-12
1.4641e-12
8.5067e-13
7.47023e-13
1.34357e-13
1.7428e-13
8.59883e-13
1.36276e-12
2.04453e-12
2.35547e-12
2.42994e-12
2.07754e-12
2.04836e-12
1.52169e-12
8.59115e-13
1.87332e-13
3.30134e-14
8.85987e-13
9.01342e-13
2.08061e-12
2.01996e-12
2.73704e-12
3.10863e-12
3.60383e-12
3.90249e-12
4.20345e-12
4.05911e-12
3.89865e-12
3.64759e-12
3.01727e-12
2.56583e-12
1.93167e-12
1.52936e-12
1.57466e-12
1.73819e-12
1.69904e-12
1.59616e-12
1.39808e-12
1.29136e-12
1.14779e-12
7.60075e-13
8.03069e-13
6.93281e-13
7.01726e-13
1.16315e-12
1.74817e-12
1.95623e-12
2.78771e-12
3.16237e-12
3.19385e-12
3.12859e-12
3.40652e-12
3.95239e-12
4.56506e-12
5.00959e-12
4.96045e-12
4.67408e-12
4.39845e-12
4.033e-12
3.795e-12
3.57619e-12
3.09942e-12
3.1332e-12
2.90057e-12
2.59193e-12
2.20422e-12
3.10479e-12
3.1094e-12
3.32514e-12
2.79001e-12
3.0856e-12
2.50287e-12
2.79001e-12
2.46218e-12
3.24145e-12
2.69404e-12
3.34356e-12
2.81228e-12
3.31516e-12
3.00191e-12
3.42418e-12
3.22072e-12
3.76276e-12
3.76967e-12
4.51208e-12
4.94817e-12
4.94049e-12
4.59193e-12
4.08368e-12
3.89404e-12
3.60153e-12
3.33589e-12
2.91592e-12
2.31094e-12
1.98157e-12
1.72514e-12
7.32436e-13
4.34548e-13
3.53166e-14
1.31286e-13
5.9117e-14
6.26486e-13
5.88866e-13
9.71207e-13
4.23799e-13
1.20537e-12
1.20998e-12
2.08061e-12
2.48138e-12
3.50709e-12
3.86103e-12
4.51055e-12
5.24759e-12
6.08751e-12
6.33089e-12
7.04183e-12
6.85142e-12
8.1282e-12
8.45142e-12
9.04796e-12
8.78923e-12
9.22915e-12
8.58501e-12
9.16236e-12
8.54278e-12
7.81419e-12
6.88751e-12
6.44835e-12
5.60076e-12
5.16314e-12
4.52897e-12
3.49327e-12
2.42149e-12
1.32821e-12
1.52015e-13
5.40498e-13
9.47407e-13
1.07869e-12
1.6476e-12
1.46027e-12
1.58234e-12
1.33973e-12
9.75046e-13
5.18233e-13
3.46256e-13
2.87907e-13
4.19961e-13
5.98079e-13
8.13818e-14
1.82725e-13
3.50863e-13
2.7332e-13
5.49711e-13
4.89826e-13
1.02725e-12
1.03647e-12
1.25604e-12
1.02265e-12
9.64297e-13
8.30708e-13
5.29749e-13
7.60075e-14
5.52014e-13
9.31284e-13
1.39577e-12
1.66065e-12
2.34779e-12
2.5666e-12
2.67562e-12
2.63646e-12
2.32245e-12
2.46756e-12
2.93282e-12
4.06295e-12
4.78387e-12
5.84106e-12
6.9973e-12
7.38885e-12
7.93396e-12
8.4376e-12
8.97963e-12
9.11246e-12
9.93242e-12
9.63837e-12
9.97311e-12
8.84528e-12
7.94163e-12
7.57695e-12
7.16467e-12
7.04259e-12
7.27446e-12
7.29058e-12
7.10785e-12
7.26448e-12
6.97119e-12
7.02417e-12
7.25833e-12
7.98693e-12
7.47177e-12
8.46831e-12
7.81649e-12
8.18885e-12
7.59461e-12
7.48636e-12
6.93818e-12
7.34586e-12
6.93434e-12
7.53242e-12
7.43492e-12
7.19461e-12
7.19307e-12
7.28674e-12
7.35353e-12
7.4449e-12
7.39115e-12
6.35315e-12
6.433e-12
5.8664e-12
6.08214e-12
5.65834e-12
5.7474e-12
4.91208e-12
5.04183e-12
5.11016e-12
5.31899e-12
5.01342e-12
5.47408e-12
5.39423e-12
5.71208e-12
5.56544e-12
5.80728e-12
6.1282e-12
6.84375e-12
6.55968e-12
7.08021e-12
6.33396e-12
6.67714e-12
6.8591e-12
7.67599e-12
7.40651e-12
7.3735e-12
6.11976e-12
6.31169e-12
5.80267e-12
6.37695e-12
6.13818e-12
7.11092e-12
6.30555e-12
6.56505e-12
5.48022e-12
5.28598e-12
4.35085e-12
4.34087e-12
3.52168e-12
3.94011e-12
3.55316e-12
4.62648e-12
4.68636e-12
5.46947e-12
4.65105e-12
4.9474e-12
4.59807e-12
5.2998e-12
5.43031e-12
5.78041e-12
5.43876e-12
6.07446e-12
6.24644e-12
6.59653e-12
5.92091e-12
6.47599e-12
6.06448e-12
5.95469e-12
5.60229e-12
5.92244e-12
5.1877e-12
5.34356e-12
4.79001e-12
5.55162e-12
5.70747e-12
5.87561e-12
5.29212e-12
5.95085e-12
5.49404e-12
5.70363e-12
5.57926e-12
5.85795e-12
5.99692e-12
6.65565e-12
7.28367e-12
7.5378e-12
7.34202e-12
7.62455e-12
7.86946e-12
7.94931e-12
8.22186e-12
8.47522e-12
8.34777e-12
8.39614e-12
7.93242e-12
7.8971e-12
7.62071e-12
7.67062e-12
7.41726e-12
8.0353e-12
7.63146e-12
8.19499e-12
8.09135e-12
8.44374e-12
8.93511e-12
9.61994e-12
9.20228e-12
9.79652e-12
9.15161e-12
8.85065e-12
7.86639e-12
7.28367e-12
6.64413e-12
6.3877e-12
5.55239e-12
5.65987e-12
5.19385e-12
5.29826e-12
5.37888e-12
5.80267e-12
6.53434e-12
7.10325e-12
6.75238e-12
6.39999e-12
6.8115e-12
7.03952e-12
7.73511e-12
8.4353e-12
8.82301e-12
9.35507e-12
9.91169e-12
1.01082e-11
9.85103e-12
9.75814e-12
9.36044e-12
9.36351e-12
9.76351e-12
1.01965e-11
1.01389e-11
9.43261e-12
9.20766e-12
8.79845e-12
8.628e-12
8.18962e-12
7.28444e-12
7.39499e-12
6.54125e-12
6.89979e-12
7.06102e-12
7.13703e-12
6.94509e-12
7.18233e-12
6.61726e-12
7.41112e-12
7.45181e-12
7.93396e-12
8.12896e-12
8.23799e-12
8.70094e-12
9.0733e-12
9.39883e-12
9.79959e-12
1.01213e-11
1.05128e-11
1.07263e-11
1.09328e-11
1.05397e-11
1.0281e-11
1.03931e-11
1.02863e-11
1.03493e-11
1.04829e-11
1.14165e-11
1.18126e-11
1.22564e-11
1.18119e-11
1.24376e-11
1.23478e-11
1.29036e-11
1.20268e-11
1.21105e-11
1.11777e-11
1.12499e-11
1.11846e-11
1.11324e-11
1.08959e-11
1.06679e-11
1.03432e-11
9.88789e-12
9.45027e-12
8.38693e-12
7.47638e-12
6.40766e-12
5.7282e-12
4.68483e-12
4.48905e-12
4.64414e-12
4.35162e-12
4.09519e-12
4.46141e-12
4.52667e-12
4.44529e-12
4.32705e-12
4.9927e-12
5.05028e-12
5.19692e-12
4.93588e-12
5.02264e-12
5.36275e-12
5.91246e-12
6.34471e-12
7.55699e-12
7.97388e-12
9.01418e-12
9.16697e-12
9.48405e-12
9.49019e-12
9.99537e-12
9.81265e-12
1.03148e-11
1.07754e-11
1.0737e-11
1.08522e-11
1.06027e-11
1.11992e-11
1.16591e-11
1.18549e-11
1.15209e-11
1.17021e-11
1.18779e-11
1.17704e-11
1.10779e-11
1.09458e-11
1.04714e-11
1.04138e-11
9.76965e-12
9.5946e-12
8.40536e-12
8.19269e-12
7.99e-12
7.47868e-12
7.68827e-12
8.62263e-12
8.22186e-12
8.30939e-12
7.73588e-12
8.11745e-12
7.72589e-12
7.84336e-12
7.71899e-12
7.82417e-12
7.92167e-12
7.98079e-12
8.27791e-12
8.433e-12
8.41841e-12
8.28098e-12
8.14048e-12
8.06371e-12
7.28444e-12
6.59576e-12
6.06525e-12
5.69212e-12
5.55853e-12
5.32129e-12
5.23454e-12
5.233e-12
5.42264e-12
5.1593e-12
4.74701e-12
4.92129e-12
4.714e-12
5.35431e-12
5.29903e-12
5.21918e-12
5.86486e-12
6.49442e-12
7.30977e-12
7.55545e-12
8.10516e-12
8.58808e-12
8.84605e-12
9.07177e-12
9.38731e-12
9.53626e-12
9.94624e-12
9.59e-12
1.00015e-11
1.0162e-11
1.12292e-11
1.10887e-11
1.17474e-11
1.12315e-11
1.15017e-11
1.07462e-11
1.13589e-11
1.05842e-11
1.11148e-11
1.09881e-11
1.15923e-11
1.10203e-11
1.08307e-11
9.92858e-12
1.03493e-11
9.78961e-12
1.05819e-11
1.01835e-11
1.03447e-11
9.72819e-12
1.04215e-11
1.01151e-11
1.09328e-11
1.06326e-11
1.10418e-11
1.12084e-11
1.14741e-11
1.11278e-11
1.05942e-11
1.01858e-11
1.01428e-11
1.06042e-11
1.06518e-11
1.11255e-11
1.1147e-11
1.08176e-11
1.09543e-11
1.07585e-11
1.06833e-11
1.0281e-11
1.06157e-11
1.02779e-11
1.03232e-11
1.05443e-11
1.16222e-11
1.16161e-11
1.18526e-11
1.16414e-11
1.23286e-11
1.25144e-11
1.26249e-11
1.25236e-11
1.38372e-11
1.35539e-11
1.31892e-11
1.20637e-11
1.17482e-11
1.10288e-11
1.10933e-11
1.04453e-11
9.97925e-12
9.09249e-12
8.70324e-12
8.09135e-12
8.43223e-12
8.42301e-12
9.27906e-12
9.22148e-12
9.89403e-12
9.51553e-12
9.80574e-12
9.15699e-12
9.22608e-12
9.1232e-12
9.18386e-12
8.39921e-12
8.56121e-12
8.00612e-12
7.94778e-12
7.50632e-12
7.90708e-12
7.48636e-12
7.3973e-12
7.17772e-12
7.97465e-12
8.14278e-12
8.91438e-12
8.90977e-12
9.17234e-12
8.95891e-12
8.4852e-12
7.85795e-12
7.85488e-12
6.95046e-12
6.88751e-12
6.16275e-12
6.26716e-12
5.96083e-12
6.58578e-12
5.85411e-12
6.74087e-12
6.07753e-12
6.91975e-12
6.8806e-12
7.57849e-12
7.17158e-12
8.33626e-12
8.18962e-12
8.80459e-12
7.709e-12
8.07753e-12
7.36966e-12
7.88636e-12
7.66371e-12
8.3639e-12
7.86025e-12
7.3996e-12
6.75699e-12
6.60498e-12
6.46371e-12
7.04567e-12
6.65642e-12
6.81841e-12
6.9305e-12
7.29519e-12
7.43799e-12
7.71515e-12
7.55929e-12
7.67599e-12
7.77273e-12
8.35622e-12
8.89672e-12
9.08712e-12
9.63913e-12
9.57695e-12
1.03624e-11
1.06088e-11
1.11524e-11
1.09182e-11
1.20921e-11
1.23424e-11
1.31432e-11
1.27009e-11
1.28437e-11
1.23716e-11
1.31984e-11
1.28936e-11
1.31547e-11
1.23961e-11
1.24883e-11
1.19224e-11
1.24668e-11
1.21451e-11
1.22434e-11
1.17673e-11
1.14933e-11
1.07977e-11
1.0929e-11
9.8948e-12
9.64988e-12
9.48251e-12
9.07868e-12
8.70862e-12
8.40305e-12
8.68098e-12
8.91898e-12
9.42032e-12
9.45948e-12
9.84259e-12
9.69211e-12
1.04353e-11
1.08483e-11
1.14219e-11
1.18457e-11
1.2185e-11
1.20445e-11
1.20368e-11
1.24553e-11
1.26625e-11
1.33689e-11
1.38587e-11
1.35785e-11
1.29812e-11
1.25067e-11
1.12867e-11
1.15148e-11
1.08675e-11
1.10119e-11
1.00706e-11
9.45948e-12
8.3662e-12
8.33395e-12
7.77196e-12
7.752e-12
7.80958e-12
7.43031e-12
7.30363e-12
7.33664e-12
7.1378e-12
7.17925e-12
7.17004e-12
7.31054e-12
7.31054e-12
7.57004e-12
7.43108e-12
7.73971e-12
7.84029e-12
8.66025e-12
8.85065e-12
9.64681e-12
9.82186e-12
1.05443e-11
1.09873e-11
1.1408e-11
1.07032e-11
1.09781e-11
1.0066e-11
1.04115e-11
8.95891e-12
8.58578e-12
7.47868e-12
8.11361e-12
7.23069e-12
7.37503e-12
6.7378e-12
6.91438e-12
6.39615e-12
6.6449e-12
6.22647e-12
6.51285e-12
6.07983e-12
6.63108e-12
6.22571e-12
6.5973e-12
5.8211e-12
6.1044e-12
5.57772e-12
5.65143e-12
4.84222e-12
5.37504e-12
5.22916e-12
5.36659e-12
5.88482e-12
6.37695e-12
7.00728e-12
6.66179e-12
6.49365e-12
5.90095e-12
6.78309e-12
5.90939e-12
5.90709e-12
5.33665e-12
5.45642e-12
5.71899e-12
5.86486e-12
5.69596e-12
6.33396e-12
6.44068e-12
7.22993e-12
7.15469e-12
7.41035e-12
7.42263e-12
8.43453e-12
7.79192e-12
8.04067e-12
7.08175e-12
7.83261e-12
7.42877e-12
7.92858e-12
7.29058e-12
7.87791e-12
7.65296e-12
8.78693e-12
8.47522e-12
1.00445e-11
9.64297e-12
1.09842e-11
1.0671e-11
1.10771e-11
9.88405e-12
1.05497e-11
1.03908e-11
1.05904e-11
1.00737e-11
1.00545e-11
9.33127e-12
9.66217e-12
9.72589e-12
1.01428e-11
9.45411e-12
9.74048e-12
9.24988e-12
9.49096e-12
9.09173e-12
9.85487e-12
9.9708e-12
1.06971e-11
1.02464e-11
1.10741e-11
1.04837e-11
1.04706e-11
9.93856e-12
9.98616e-12
8.72704e-12
8.88059e-12
7.79039e-12
8.03991e-12
7.79576e-12
8.60497e-12
8.28482e-12
8.57273e-12
7.79422e-12
8.53741e-12
8.34931e-12
8.36697e-12
7.44183e-12
7.39039e-12
6.98271e-12
6.36928e-12
5.9117e-12
5.83876e-12
5.88713e-12
6.33242e-12
6.7424e-12
7.32743e-12
7.86409e-12
8.25718e-12
8.82532e-12
9.04489e-12
8.70324e-12
9.22301e-12
9.02724e-12
8.77081e-12
8.38847e-12
8.81764e-12
8.53971e-12
9.26754e-12
8.82148e-12
9.1923e-12
9.74432e-12
1.01904e-11
9.20766e-12
9.1447e-12
9.06486e-12
9.32743e-12
8.85987e-12
8.93203e-12
8.64413e-12
8.73933e-12
8.35008e-12
8.63108e-12
7.65373e-12
7.3781e-12
6.95661e-12
7.64144e-12
7.96236e-12
7.89173e-12
7.5616e-12
7.1662e-12
6.5067e-12
6.48751e-12
6.52897e-12
6.61956e-12
6.02072e-12
6.40152e-12
6.23492e-12
6.52206e-12
6.05373e-12
5.7021e-12
6.15431e-12
6.06832e-12
5.89711e-12
5.42033e-12
5.92551e-12
5.83569e-12
6.3163e-12
6.25718e-12
6.73473e-12
7.10785e-12
7.82417e-12
8.0614e-12
8.26025e-12
8.12282e-12
8.48981e-12
8.26179e-12
9.25219e-12
9.04873e-12
9.9232e-12
9.84643e-12
1.06057e-11
1.08921e-11
1.18042e-11
1.2251e-11
1.34226e-11
1.35685e-11
1.40837e-11
1.38134e-11
1.45742e-11
1.51762e-11
1.60399e-11
1.59654e-11
1.6519e-11
1.53589e-11
1.54011e-11
1.44115e-11
1.47762e-11
1.48737e-11
1.53197e-11
1.46871e-11
1.47508e-11
1.42656e-11
1.44814e-11
1.3643e-11
1.34096e-11
1.30311e-11
1.32222e-11
1.25766e-11
1.22395e-11
1.11071e-11
1.12391e-11
1.05973e-11
1.09244e-11
1.05082e-11
1.11117e-11
9.84029e-12
9.98923e-12
8.95891e-12
9.6637e-12
8.84374e-12
9.07253e-12
8.08827e-12
8.70939e-12
8.70785e-12
9.80881e-12
9.64144e-12
1.0043e-11
1.02649e-11
1.08161e-11
1.0932e-11
1.0886e-11
1.10288e-11
1.08522e-11
1.0737e-11
1.07071e-11
1.02096e-11
1.00038e-11
1.02894e-11
1.04353e-11
1.04752e-11
1.00445e-11
9.72589e-12
8.94432e-12
9.2138e-12
9.18386e-12
8.98424e-12
9.30593e-12
9.06102e-12
8.92973e-12
8.86447e-12
8.952e-12
8.84681e-12
8.56812e-12
8.0829e-12
7.5424e-12
7.27139e-12
6.37081e-12
6.06601e-12
5.89097e-12
5.13243e-12
4.71323e-12
3.73358e-12
4.49442e-12
3.90249e-12
4.98655e-12
4.90747e-12
6.40229e-12
6.87599e-12
9.08328e-12
9.60919e-12
1.09013e-11
1.06318e-11
1.1527e-11
1.04775e-11
1.11263e-11
9.9424e-12
1.10464e-11
1.02418e-11
1.12184e-11
1.03854e-11
1.09781e-11
1.0337e-11
1.06103e-11
9.58232e-12
9.96313e-12
1.01297e-11
1.13382e-11
1.11086e-11
1.17151e-11
1.08583e-11
1.11293e-11
1.01627e-11
1.07155e-11
1.07601e-11
1.18242e-11
1.18625e-11
1.21858e-11
1.26779e-11
1.30679e-11
1.34318e-11
1.32115e-11
1.3504e-11
1.319e-11
1.31846e-11
1.30433e-11
1.27416e-11
1.24744e-11
1.25643e-11
1.26948e-11
1.22579e-11
1.16276e-11
1.20629e-11
1.06487e-11
1.04268e-11
9.07868e-12
9.32819e-12
8.62186e-12
8.96658e-12
9.21073e-12
9.67599e-12
1.00153e-11
1.08683e-11
1.08921e-11
1.09006e-11
1.10027e-11
1.14272e-11
1.09251e-11
1.14364e-11
1.12729e-11
1.15416e-11
1.12499e-11
1.18042e-11
1.12384e-11
1.17366e-11
1.21098e-11
1.30027e-11
1.36069e-11
1.44253e-11
1.4175e-11
1.37382e-11
1.34602e-11
1.32176e-11
1.31347e-11
1.26748e-11
1.17819e-11
1.05535e-11
1.02794e-11
9.68136e-12
9.90862e-12
1.00238e-11
1.05842e-11
1.11608e-11
1.11846e-11
1.09896e-11
1.0856e-11
1.09374e-11
1.15048e-11
1.18172e-11
1.26387e-11
1.30602e-11
1.27969e-11
1.24345e-11
1.24967e-11
1.32076e-11
1.29174e-11
1.32015e-11
1.23754e-11
1.24169e-11
1.12368e-11
1.11447e-11
1.01405e-11
1.04245e-11
9.4518e-12
9.15391e-12
8.86524e-12
8.79461e-12
8.509e-12
8.65488e-12
8.24182e-12
8.76543e-12
8.31015e-12
8.40612e-12
7.514e-12
7.60229e-12
7.02878e-12
6.87369e-12
5.93089e-12
6.55968e-12
6.07753e-12
6.2664e-12
5.39807e-12
5.76045e-12
4.59884e-12
4.69327e-12
3.28752e-12
4.06141e-12
2.78694e-12
3.88406e-12
3.48483e-12
4.52513e-12
4.27792e-12
5.00114e-12
4.25181e-12
5.22609e-12
4.88444e-12
6.37772e-12
5.97004e-12
6.96198e-12
6.5259e-12
6.67561e-12
5.66678e-12
5.81496e-12
4.81611e-12
5.80958e-12
5.71976e-12
6.68713e-12
5.73665e-12
6.59576e-12
6.28789e-12
6.92513e-12
6.72475e-12
6.86832e-12
6.32705e-12
6.44989e-12
5.86793e-12
6.30478e-12
6.26716e-12
6.1758e-12
5.92859e-12
6.0591e-12
6.17811e-12
7.0472e-12
7.48329e-12
8.01073e-12
8.62493e-12
9.31207e-12
1.07186e-11
1.06495e-11
1.10027e-11
1.10994e-11
1.14556e-11
1.09727e-11
1.09627e-11
1.05528e-11
1.05489e-11
1.0453e-11
1.0608e-11
1.05098e-11
1.02318e-11
9.93011e-12
9.64144e-12
9.17695e-12
9.0472e-12
8.57733e-12
8.17964e-12
7.10785e-12
6.39461e-12
5.4879e-12
5.16851e-12
4.30325e-12
4.68099e-12
4.11208e-12
5.5163e-12
5.87024e-12
7.1401e-12
7.42417e-12
8.46754e-12
8.54048e-12
9.42032e-12
9.52627e-12
1.02695e-11
1.02119e-11
1.11332e-11
1.08499e-11
1.12222e-11
1.05113e-11
1.05313e-11
9.86716e-12
1.04729e-11
1.01244e-11
1.04476e-11
9.73817e-12
9.74816e-12
9.86485e-12
9.86025e-12
1.0185e-11
1.05174e-11
1.0684e-11
1.07316e-11
1.09359e-11
1.11109e-11
1.09397e-11
1.09643e-11
1.00545e-11
9.98386e-12
9.76351e-12
9.58846e-12
8.60651e-12
7.9209e-12
6.79384e-12
6.36467e-12
5.91553e-12
5.52859e-12
4.65335e-12
5.41342e-12
5.05488e-12
5.80575e-12
5.49404e-12
6.15968e-12
5.7973e-12
6.91284e-12
6.53741e-12
7.41419e-12
6.91131e-12
7.57234e-12
6.98885e-12
7.50171e-12
7.1378e-12
8.10056e-12
7.91707e-12
9.09864e-12
8.97503e-12
8.85679e-12
7.95315e-12
8.48597e-12
8.28482e-12
9.12628e-12
8.73395e-12
9.10324e-12
7.92398e-12
8.43914e-12
7.91476e-12
8.19192e-12
7.32973e-12
8.14048e-12
7.61534e-12
8.07829e-12
7.79806e-12
8.51438e-12
8.50516e-12
9.49173e-12
9.37272e-12
9.5209e-12
9.24221e-12
9.54317e-12
9.69518e-12
9.59077e-12
9.74585e-12
1.04898e-11
1.01735e-11
1.10787e-11
1.07862e-11
1.09904e-11
1.00322e-11
9.84259e-12
9.27445e-12
8.21419e-12
7.52781e-12
7.25219e-12
7.04106e-12
6.62571e-12
6.09135e-12
5.57235e-12
4.94356e-12
4.64797e-12
4.04759e-12
3.83262e-12
2.84376e-12
1.82264e-12
8.46063e-13
1.25911e-13
2.76391e-14
4.94433e-13
8.42992e-13
1.10633e-12
1.4618e-12
1.74587e-12
1.93934e-12
1.89405e-12
2.18349e-12
2.43838e-12
3.21995e-12
3.89404e-12
4.74855e-12
4.79308e-12
5.30364e-12
5.05181e-12
5.13396e-12
5.38578e-12
5.89327e-12
6.19883e-12
6.1282e-12
6.36928e-12
6.28098e-12
6.3378e-12
5.80114e-12
5.81266e-12
5.99845e-12
6.1973e-12
6.23953e-12
6.68482e-12
7.82263e-12
8.58808e-12
9.38578e-12
1.03209e-11
1.08821e-11
1.18111e-11
1.11255e-11
1.10226e-11
1.09758e-11
1.079e-11
1.0529e-11
1.04576e-11
9.55238e-12
8.81303e-12
8.15123e-12
7.34739e-12
6.7639e-12
6.48751e-12
5.88636e-12
5.03876e-12
4.58272e-12
4.38694e-12
4.29788e-12
4.37158e-12
3.85258e-12
4.22264e-12
3.9378e-12
3.69289e-12
3.30287e-12
3.29366e-12
2.97734e-12
2.80306e-12
2.34548e-12
2.34318e-12
2.44529e-12
2.23953e-12
2.32092e-12
2.97043e-12
3.20844e-12
3.2522e-12
3.11324e-12
3.1808e-12
3.45028e-12
3.5785e-12
3.28675e-12
3.19539e-12
3.10095e-12
3.02264e-12
2.80076e-12
2.65566e-12
2.93665e-12
2.90825e-12
3.37658e-12
3.71823e-12
3.87331e-12
4.07139e-12
5.18387e-12
5.90555e-12
6.70171e-12
6.85757e-12
7.15008e-12
7.68981e-12
8.70324e-12
9.11322e-12
9.91399e-12
1.05766e-11
1.14825e-11
1.14157e-11
1.10986e-11
1.05581e-11
1.04238e-11
9.88635e-12
9.71745e-12
9.51706e-12
9.33203e-12
9.10171e-12
9.17081e-12
8.73165e-12
8.77234e-12
8.58117e-12
8.31015e-12
7.49787e-12
6.96428e-12
6.16198e-12
6.19039e-12
5.62072e-12
4.84452e-12
4.24414e-12
3.82648e-12
3.31669e-12
2.36314e-12
1.77888e-12
1.83416e-12
2.09673e-12
2.90287e-12
3.00268e-12
3.27063e-12
3.19846e-12
3.30748e-12
3.06564e-12
2.69021e-12
2.58195e-12
2.53205e-12
2.43454e-12
2.30095e-12
2.46218e-12
2.6595e-12
2.84222e-12
2.85834e-12
2.84529e-12
2.18426e-12
2.33166e-12
1.85489e-12
2.03378e-12
1.93243e-12
2.01996e-12
1.71593e-12
2.01535e-12
2.46756e-12
2.93051e-12
3.41343e-12
3.84567e-12
4.08368e-12
4.54433e-12
4.90287e-12
5.38886e-12
5.95392e-12
6.00459e-12
6.20344e-12
5.96697e-12
6.05219e-12
5.63684e-12
5.84874e-12
5.6806e-12
6.30018e-12
6.11745e-12
7.06102e-12
6.91515e-12
7.55008e-12
7.18156e-12
7.9163e-12
7.5186e-12
7.7282e-12
7.29672e-12
7.75814e-12
7.5662e-12
8.05449e-12
7.73357e-12
7.53396e-12
6.82532e-12
6.9044e-12
6.44989e-12
6.52974e-12
6.10901e-12
5.85104e-12
5.49097e-12
5.32974e-12
5.2806e-12
5.15316e-12
5.16083e-12
5.40728e-12
5.2568e-12
5.35277e-12
5.1163e-12
5.02724e-12
4.50057e-12
4.69788e-12
4.88828e-12
5.60767e-12
6.33012e-12
6.70862e-12
6.89749e-12
7.19998e-12
7.9186e-12
8.89365e-12
9.43875e-12
9.45871e-12
9.15468e-12
9.60151e-12
9.28213e-12
8.87292e-12
8.7424e-12
8.66639e-12
8.46601e-12
8.25104e-12
8.21419e-12
8.42916e-12
9.17695e-12
8.76543e-12
9.85411e-12
9.28443e-12
9.98923e-12
9.90324e-12
1.04146e-11
9.66601e-12
1.01574e-11
9.88405e-12
1.00361e-11
1.01597e-11
1.02426e-11
9.9662e-12
1.02787e-11
9.88712e-12
9.62762e-12
9.1424e-12
8.5543e-12
8.32628e-12
8.12129e-12
8.10286e-12
7.96467e-12
7.66678e-12
6.97119e-12
6.47983e-12
5.76736e-12
4.74318e-12
3.65604e-12
2.8737e-12
2.40844e-12
1.54779e-12
8.82916e-13
6.5259e-14
5.2284e-13
4.43761e-13
2.45681e-14
3.91554e-14
4.49135e-13
1.00652e-12
1.8357e-12
2.26794e-12
2.79692e-12
3.45258e-12
4.00537e-12
4.83761e-12
5.70747e-12
5.75661e-12
6.70171e-12
7.19615e-12
7.46716e-12
7.47254e-12
7.40805e-12
6.79231e-12
6.78079e-12
6.30786e-12
5.98694e-12
5.66601e-12
5.50172e-12
4.26026e-12
4.20498e-12
3.79577e-12
3.55393e-12
2.94356e-12
2.82687e-12
2.35239e-12
2.8023e-12
2.60422e-12
2.69021e-12
2.15431e-12
2.43301e-12
2.08522e-12
2.53665e-12
2.0023e-12
2.11669e-12
1.54702e-12
2.40921e-12
1.88406e-12
1.75508e-12
1.58771e-12
2.13589e-12
2.77926e-12
3.55239e-12
4.07446e-12
4.48137e-12
4.79615e-12
6.10978e-12
7.07331e-12
7.64375e-12
8.44298e-12
8.62033e-12
8.72244e-12
8.76927e-12
9.10939e-12
8.70017e-12
9.26063e-12
8.96965e-12
9.21073e-12
8.12282e-12
8.00229e-12
6.67714e-12
6.28098e-12
5.36045e-12
5.2307e-12
4.55124e-12
5.41112e-12
5.30594e-12
6.1305e-12
5.41649e-12
5.36659e-12
4.83224e-12
5.49404e-12
4.81611e-12
4.98655e-12
4.46525e-12
4.90747e-12
5.01266e-12
5.46947e-12
5.26371e-12
6.06908e-12
5.85104e-12
6.33242e-12
6.29864e-12
6.8829e-12
7.05258e-12
7.13933e-12
6.60037e-12
6.76467e-12
6.23799e-12
6.64797e-12
6.54432e-12
7.36735e-12
7.33664e-12
7.90478e-12
7.82801e-12
8.0591e-12
7.93472e-12
8.06447e-12
8.43453e-12
9.15775e-12
9.14163e-12
9.28827e-12
9.25295e-12
8.44681e-12
8.04067e-12
7.7328e-12
7.41265e-12
6.51208e-12
5.69596e-12
4.24567e-12
3.42034e-12
2.12053e-12
2.0261e-12
1.52552e-12
1.45719e-12
1.32514e-12
1.69289e-12
1.54702e-12
2.15355e-12
1.96545e-12
2.47216e-12
2.12284e-12
2.52514e-12
2.51593e-12
3.31208e-12
3.01957e-12
3.84337e-12
3.81343e-12
4.70325e-12
4.56122e-12
5.0925e-12
4.65181e-12
4.54049e-12
4.11976e-12
4.43531e-12
4.05604e-12
4.16429e-12
3.77043e-12
3.32974e-12
3.43185e-12
3.6737e-12
3.11324e-12
2.57427e-12
2.1236e-12
2.15355e-12
2.10671e-12
2.03992e-12
2.10211e-12
2.56506e-12
2.7117e-12
3.09942e-12
3.23454e-12
3.12475e-12
3.13857e-12
2.82303e-12
2.83761e-12
2.33781e-12
1.82648e-12
1.4595e-12
1.75969e-12
1.85719e-12
2.60345e-12
2.55355e-12
2.40921e-12
2.36391e-12
2.50748e-12
2.92744e-12
3.07562e-12
4.12744e-12
3.83339e-12
4.04068e-12
3.7213e-12
3.91093e-12
4.11592e-12
4.29788e-12
3.24683e-12
2.54664e-12
2.11132e-12
2.43147e-12
3.09865e-12
3.80191e-12
4.27638e-12
5.18079e-12
5.10325e-12
5.54778e-12
5.32974e-12
5.88482e-12
5.70363e-12
6.43146e-12
5.82647e-12
6.04452e-12
5.51246e-12
6.00766e-12
5.43569e-12
5.795e-12
4.95738e-12
5.27369e-12
4.87753e-12
5.19154e-12
4.63953e-12
4.85296e-12
5.01035e-12
4.86448e-12
5.14548e-12
5.3282e-12
4.94356e-12
5.11784e-12
4.77158e-12
4.97504e-12
5.30517e-12
5.45872e-12
5.13857e-12
4.77389e-12
4.22801e-12
4.79922e-12
4.25489e-12
4.18502e-12
4.05527e-12
4.51439e-12
4.79538e-12
4.81381e-12
4.28406e-12
4.60037e-12
5.17312e-12
5.71054e-12
5.25987e-12
5.1831e-12
4.92129e-12
4.74394e-12
4.1474e-12
3.25911e-12
2.60115e-12
2.06909e-12
2.06449e-12
1.33512e-12
7.66217e-13
3.07101e-15
2.74088e-13
3.99999e-13
1.00576e-13
2.47216e-13
6.50286e-13
7.47791e-13
1.29597e-12
1.44875e-12
1.82572e-12
2.10057e-12
2.61804e-12
2.77389e-12
3.51631e-12
3.40114e-12
3.40882e-12
3.19155e-12
3.74356e-12
3.46026e-12
3.45565e-12
3.04644e-12
3.49174e-12
3.72744e-12
4.20498e-12
3.83262e-12
4.51208e-12
4.22034e-12
4.32091e-12
3.82418e-12
3.95469e-12
3.31439e-12
3.41727e-12
2.92667e-12
2.9689e-12
2.71938e-12
2.48291e-12
2.34702e-12
2.37005e-12
2.41305e-12
2.61266e-12
2.75086e-12
2.99116e-12
2.90901e-12
3.15086e-12
3.58464e-12
3.51631e-12
3.44721e-12
3.54548e-12
3.39654e-12
3.33205e-12
3.06026e-12
3.82034e-12
4.50824e-12
5.09941e-12
5.23377e-12
5.61918e-12
5.4687e-12
5.83492e-12
5.90709e-12
5.96313e-12
5.84183e-12
5.65373e-12
4.82072e-12
4.44989e-12
4.18656e-12
3.7712e-12
2.89596e-12
2.37389e-12
1.9117e-12
2.03608e-12
1.57236e-12
1.52629e-12
8.62186e-13
8.94432e-13
6.70248e-13
6.85603e-13
4.01535e-13
3.42418e-13
9.44336e-14
3.43185e-13
3.57773e-13
4.80613e-13
6.20344e-13
4.25335e-13
5.3973e-13
6.41073e-13
1.14856e-12
1.18925e-12
1.16084e-12
1.28599e-12
1.63147e-12
1.54779e-12
1.22764e-12
1.21766e-12
6.18809e-13
6.54893e-13
2.96353e-13
6.90977e-13
3.81573e-13
3.23224e-13
1.25758e-12
1.48483e-12
2.15508e-12
2.00767e-12
2.42226e-12
2.0046e-12
2.63339e-12
2.43685e-12
3.07178e-12
2.45834e-12
2.55124e-12
2.17351e-12
2.45988e-12
9.90401e-13
9.24374e-13
2.39539e-13
4.00767e-13
2.76391e-14
5.83492e-13
9.21303e-14
1.95009e-13
1.45873e-14
6.50286e-13
8.09211e-13
1.70595e-12
1.89097e-12
2.43992e-12
2.67331e-12
3.34894e-12
3.35354e-12
3.86026e-12
3.62456e-12
4.06602e-12
3.96544e-12
3.45489e-12
2.53282e-12
2.16276e-12
2.28099e-12
2.44836e-12
1.9117e-12
1.99769e-12
1.66679e-12
1.77812e-12
1.38503e-12
1.53474e-12
8.86754e-13
1.16007e-12
4.76007e-13
6.74087e-13
3.00191e-13
7.96927e-13
6.21112e-13
9.71207e-13
5.64298e-13
1.28061e-12
6.60267e-13
1.20537e-12
8.8138e-13
1.34203e-12
1.06564e-12
1.62764e-12
1.25604e-12
1.54779e-12
1.2691e-12
1.18848e-12
8.0614e-13
7.31668e-13
5.27446e-13
9.79652e-13
1.31516e-12
1.3167e-12
1.04875e-12
1.07178e-12
1.44491e-12
1.6952e-12
1.58771e-12
1.5117e-12
1.53934e-12
1.66986e-12
1.57313e-12
1.83032e-12
1.50326e-12
1.2261e-12
6.15738e-13
3.08637e-13
2.33397e-13
6.44912e-14
1.40499e-13
4.29941e-13
2.72552e-13
5.0211e-13
5.81189e-13
6.98655e-13
3.26295e-13
1.64299e-13
9.44336e-14
4.85987e-13