/*--------------------------------*- C++ -*----------------------------------*\
  =========                 |
  \\      /  F ield         | OpenFOAM: The Open Source CFD Toolbox
   \\    /   O peration     | Website:  https://openfoam.org
    \\  /    A nd           | Version:  9
     \\/     M anipulation  |
\*---------------------------------------------------------------------------*/
FoamFile
{
    format      ascii;
    class       volScalarField;
    location    "0.005";
    object      p_0;
}
// * * * * * * * * * * * * * * * * * * * * * * * * * * * * * * * * * * * * * //

dimensions      [1 -1 -2 0 0 0 0];

internalField   nonuniform List<scalar> 
10000
(
100000
100000
100000
100000
100000
100000
100000
100000
100000
100000
100000
100000
100000
100000
100000
100000
100000
100000
100000
100000
100000
100000
100000
100000
100000
100000
100000
100000
100000
100000
100000
100000
100000
100000
100000
100000
100000
100000
100000
100000
100000
100000
100000
100000
100000
100000
100000
100000
100000
100000
100000
100000
100000
100000
100000
100000
100000
100000
100000
100000
100000
100000
100000
100000
100000
100000
100000
100000
100000
100000
100000
100000
100000
100000
100000
100000
100000
100000
100000
100000
100000
100000
100000
100000
100000
100000
100000
100000
100000
100000
100000
100000
100000
100000
100000
100000
100000
100000
100000
100000
100000
100000
100000
100000
100000
100000
100000
100000
100000
100000
100000
100000
100000
100000
100000
100000
100000
100000
100000
100000
100000
100000
100000
100000
100000
100000
100000
100000
100000
100000
100000
100000
100000
100000
100000
100000
100000
100000
100000
100000
100000
100000
100000
100000
100000
100000
100000
100000
100000
100000
100000
100000
100000
100000
100000
100000
100000
100000
100000
100000
100000
100000
100000
100000
100000
100000
100000
100000
100000
100000
100000
100000
100000
100000
100000
100000
100000
100000
100000
100000
100000
100000
100000
100000
100000
100000
100000
100000
100000
100000
100000
100000
100000
100000
100000
100000
100000
100000
100000
100000
100000
100000
100000
100000
100000
100000
100000
100000
100000
100000
100000
100000
100000
100000
100000
100000
100000
100000
100000
100000
100000
100000
100000
100000
100000
100000
100000
100000
100000
100000
100000
100000
100000
100000
100000
100000
100000
100000
100000
100000
100000
100000
100000
100000
100000
100000
100000
100000
100000
100000
100000
100000
100000
100000
100000
100000
100000
100000
100000
100000
100000
100000
100000
100000
100000
100000
100000
100000
100000
100000
100000
100000
100000
100000
100000
100000
100000
100000
100000
100000
100000
100000
100000
100000
100000
100000
100000
100000
100000
100000
100000
100000
100000
100000
100000
100000
100000
100000
100000
100000
100000
100000
100000
100000
100000
100000
100000
100000
100000
100000
100000
100000
100000
100000
100000
100000
100000
100000
100000
100000
100000
100000
100000
100000
100000
100000
100000
100000
100000
100000
100000
100000
100000
100000
100000
100000
100000
100000
100000
100000
100000
100000
100000
100000
100000
100000
100000
100000
100000
100000
100000
100000
100000
100000
100000
100000
100000
100000
100000
100000
100000
100000
100000
100000
100000
100000
100000
100000
100000
100000
100000
100000
100000
100000
100000
100000
100000
100000
100000
100000
100000
100000
100000
100000
100000
100000
100000
100000
100000
100000
100000
100000
100000
100000
100000
100000
100000
100000
100000
100000
100000
100000
100000
100000
100000
100000
100000
100000
100000
100000
100000
100000
100000
100000
100000
100000
100000
100000
100000
100000
100000
100000
100000
100000
100000
100000
100000
100000
100000
100000
100000
100000
100000
100000
100000
100000
100000
100000
100000
100000
100000
100000
100000
100000
100000
100000
100000
100000
100000
100000
100000
100000
100000
100000
100000
100000
100000
100000
100000
100000
100000
100000
100000
100000
100000
100000
100000
100000
100000
100000
100000
100000
100000
100000
100000
100000
100000
100000
100000
100000
100000
100000
100000
100000
100000
100000
100000
100000
100000
100000
100000
100000
100000
100000
100000
100000
100000
100000
100000
100000
100000
100000
100000
100000
100000
100000
100000
100000
100000
100000
100000
100000
100000
100000
100000
100000
100000
100000
100000
100000
100000
100000
100000
100000
100000
100000
100000
100000
100000
100000
100000
100000
100000
100000
100000
100000
100000
100000
100000
100000
100000
100000
100000
100000
100000
100000
100000
100000
100000
100000
100000
100000
100000
100000
100000
100000
100000
100000
100000
100000
100000
100000
100000
100000
100000
100000
100000
100000
100000
100000
100000
100000
100000
100000
100000
100000
100000
100000
100000
100000
100000
100000
100000
100000
100000
100000
100000
100000
100000
100000
100000
100000
100000
100000
100000
100000
100000
100000
100000
100000
100000
100000
100000
100000
100000
100000
100000
100000
100000
100000
100000
100000
100000
100000
100000
100000
100000
100000
100000
100000
100000
100000
100000
100000
100000
100000
100000
100000
100000
100000
100000
100000
100000
100000
100000
100000
100000
100000
100000
100000
100000
100000
100000
100000
100000
100000
100000
100000
100000
100000
100000
100000
100000
100000
100000
100000
100000
100000
100000
100000
100000
100000
100000
100000
100000
100000
100000
100000
100000
100000
100000
100000
100000
100000
100000
100000
100000
100000
100000
100000
100000
100000
100000
100000
100000
100000
100000
100000
100000
100000
100000
100000
100000
100000
100000
100000
100000
100000
100000
100000
100000
100000
100000
100000
100000
100000
100000
100000
100000
100000
100000
100000
100000
100000
100000
100000
100000
100000
100000
100000
100000
100000
100000
100000
100000
100000
100000
100000
100000
100000
100000
100000
100000
100000
100000
100000
100000
100000
100000
100000
100000
100000
100000
100000
100000
100000
100000
100000
100000
100000
100000
100000
100000
100000
100000
100000
100000
100000
100000
100000
100000
100000
100000
100000
100000
100000
100000
100000
100000
100000
100000
100000
100000
100000
100000
100000
100000
100000
100000
100000
100000
100000
100000
100000
100000
100000
100000
100000
100000
100000
100000
100000
100000
100000
100000
100000
100000
100000
100000
100000
100000
100000
100000
100000
100000
100000
100000
100000
100000
100000
100000
100000
100000
100000
100000
100000
100000
100000
100000
100000
100000
100000
100000
100000
100000
100000
100000
100000
100000
100000
100000
100000
100000
100000
100000
100000
100000
100000
100000
100000
100000
100000
100000
100000
100000
100000
100000
100000
100000
100000
100000
100000
100000
100000
100000
100000
100000
100000
100000
100000
100000
100000
100000
100000
100000
100000
100000
100000
100000
100000
100000
100000
100000
100000
100000
100000
100000
100000
100000
100000
100000
100000
100000
100000
100000
100000
100000
100000
100000
100000
100000
100000
100000
100000
100000
100000
100000
100000
100000
100000
100000
100000
100000
100000
100000
100000
100000
100000
100000
100000
100000
100000
100000
100000
100000
100000
100000
100000
100000
100000
100000
100000
100000
100000
100000
100000
100000
100000
100000
100000
100000
100000
100000
100000
100000
100000
100000
100000
100000
100000
100000
100000
100000
100000
100000
100000
100000
100000
100000
100000
100000
100000
100000
100000
100000
100000
100000
100000
100000
100000
100000
100000
100000
100000
100000
100000
100000
100000
100000
100000
100000
100000
100000
100000
100000
100000
100000
100000
100000
100000
100000
100000
100000
100000
100000
100000
100000
100000
100000
100000
100000
100000
100000
100000
100000
100000
100000
100000
100000
100000
100000
100000
100000
100000
100000
100000
100000
100000
100000
100000
100000
100000
100000
100000
100000
100000
100000
100000
100000
100000
100000
100000
100000
100000
100000
100000
100000
100000
100000
100000
100000
100000
100000
100000
100000
100000
100000
100000
100000
100000
100000
100000
100000
100000
100000
100000
100000
100000
100000
100000
100000
100000
100000
100000
100000
100000
100000
100000
100000
100000
100000
100000
100000
100000
100000
100000
100000
100000
100000
100000
100000
100000
100000
100000
100000
100000
100000
100000
100000
100000
100000
100000
100000
100000
100000
100000
100000
100000
100000
100000
100000
100000
100000
100000
100000
100000
100000
100000
100000
100000
100000
100000
100000
100000
100000
100000
100000
100000
100000
100000
100000
100000
100000
100000
100000
100000
100000
100000
100000
100000
100000
100000
100000
100000
100000
100000
100000
100000
100000
100000
100000
100000
100000
100000
100000
100000
100000
100000
100000
100000
100000
100000
100000
100000
100000
100000
100000
100000
100000
100000
100000
100000
100000
100000
100000
100000
100000
100000
100000
100000
100000
100000
100000
100000
100000
100000
100000
100000
100000
100000
100000
100000
100000
100000
100000
100000
100000
100000
100000
100000
100000
100000
100000
100000
100000
100000
100000
100000
100000
100000
100000
100000
100000
100000
100000
100000
100000
100000
100000
100000
100000
100000
100000
100000
100000
100000
100000
100000
100000
100000
100000
100000
100000
100000
100000
100000
100000
100000
100000
100000
100000
100000
100000
100000
100000
100000
100000
100000
100000
100000
100000
100000
100000
100000
100000
100000
100000
100000
100000
100000
100000
100000
100000
100000
100000
100000
100000
100000
100000
100000
100000
100000
100000
100000
100000
100000
100000
100000
100000
100000
100000
100000
100000
100000
100000
100000
100000
100000
100000
100000
100000
100000
100000
100000
100000
100000
100000
100000
100000
100000
100000
100000
100000
100000
100000
100000
100000
100000
100000
100000
100000
100000
100000
100000
100000
100000
100000
100000
100000
100000
100000
100000
100000
100000
100000
100000
100000
100000
100000
100000
100000
100000
100000
100000
100000
100000
100000
100000
100000
100000
100000
100000
100000
100000
100000
100000
100000
100000
100000
100000
100000
100000
100000
100000
100000
100000
100000
100000
100000
100000
100000
100000
100000
100000
100000
100000
100000
100000
100000
100000
100000
100000
100000
100000
100000
100000
100000
100000
100000
100000
100000
100000
100000
100000
100000
100000
100000
100000
100000
100000
100000
100000
100000
100000
100000
100000
100000
100000
100000
100000
100000
100000
100000
100000
100000
100000
100000
100000
100000
100000
100000
100000
100000
100000
100000
100000
100000
100000
100000
100000
100000
100000
100000
100000
100000
100000
100000
100000
100000
100000
100000
100000
100000
100000
100000
100000
100000
100000
100000
100000
100000
100000
100000
100000
100000
100000
100000
100000
100000
100000
100000
100000
100000
100000
100000
100000
100000
100000
100000
100000
100000
100000
100000
100000
100000
100000
100000
100000
100000
100000
100000
100000
100000
100000
100000
100000
100000
100000
100000
100000
100000
100000
100000
100000
100000
100000
100000
100000
100000
100000
100000
100000
100000
100000
100000
100000
100000
100000
100000
100000
100000
100000
100000
100000
100000
100000
100000
100000
100000
100000
100000
100000
100000
100000
100000
100000
100000
100000
100000
100000
100000
100000
100000
100000
100000
100000
100000
100000
100000
100000
100000
100000
100000
100000
100000
100000
100000
100000
100000
100000
100000
100000
100000
100000
100000
100000
100000
100000
100000
100000
100000
100000
100000
100000
100000
100000
100000
100000
100000
100000
100000
100000
100000
100000
100000
100000
100000
100000
100000
100000
100000
100000
100000
100000
100000
100000
100000
100000
100000
100000
100000
100000
100000
100000
100000
100000
100000
100000
100000
100000
100000
100000
100000
100000
100000
100000
100000
100000
100000
100000
100000
100000
100000
100000
100000
100000
100000
100000
100000
100000
100000
100000
100000
100000
100000
100000
100000
100000
100000
100000
100000
100000
100000
100000
100000
100000
100000
100000
100000
100000
100000
100000
100000
100000
100000
100000
100000
100000
100000
100000
100000
100000
100000
100000
100000
100000
100000
100000
100000
100000
100000
100000
100000
100000
100000
100000
100000
100000
100000
100000
100000
100000
100000
100000
100000
100000
100000
100000
100000
100000
100000
100000
100000
100000
100000
100000
100000
100000
100000
100000
100000
100000
100000
100000
100000
100000
100000
100000
100000
100000
100000
100000
100000
100000
100000
100000
100000
100000
100000
100000
100000
100000
100000
100000
100000
100000
100000
100000
100000
100000
100000
100000
100000
100000
100000
100000
100000
100000
100000
100000
100000
100000
100000
100000
100000
100000
100000
100000
100000
100000
100000
100000
100000
100000
100000
100000
100000
100000
100000
100000
100000
100000
100000
100000
100000
100000
100000
100000
100000
100000
100000
100000
100000
100000
100000
100000
100000
100000
100000
100000
100000
100000
100000
100000
100000
100000
100000
100000
100000
100000
100000
100000
100000
100000
100000
100000
100000
100000
100000
100000
100000
100000
100000
100000
100000
100000
100000
100000
100000
100000
100000
100000
100000
100000
100000
100000
100000
100000
100000
100000
100000
100000
100000
100000
100000
100000
100000
100000
100000
100000
100000
100000
100000
100000
100000
100000
100000
100000
100000
100000
100000
100000
100000
100000
100000
100000
100000
100000
100000
100000
100000
100000
100000
100000
100000
100000
100000
100000
100000
100000
100000
100000
100000
100000
100000
100000
100000
100000
100000
100000
100000
100000
100000
100000
100000
100000
100000
100000
100000
100000
100000
100000
100000
100000
100000
100000
100000
100000
100000
100000
100000
100000
100000
100000
100000
100000
100000
100000
100000
100000
100000
100000
100000
100000
100000
100000
100000
100000
100000
100000
100000
100000
100000
100000
100000
100000
100000
100000
100000
100000
100000
100000
100000
100000
100000
100000
100000
100000
100000
100000
100000
100000
100000
100000
100000
100000
100000
100000
100000
100000
100000
100000
100000
100000
100000
100000
100000
100000
100000
100000
100000
100000
100000
100000
100000
100000
100000
100000
100000
100000
100000
100000
100000
100000
100000
100000
100000
100000
100000
100000
100000
100000
100000
100000
100000
100000
100000
100000
100000
100000
100000
100000
100000
100000
100000
100000
100000
100000
100000
100000
100000
100000
100000
100000
100000
100000
100000
100000
100000
100000
100000
100000
100000
100000
100000
100000
100000
100000
100000
100000
100000
100000
100000
100000
100000
100000
100000
100000
100000
100000
100000
100000
100000
100000
100000
100000
100000
100000
100000
100000
100000
100000
100000
100000
100000
100000
100000
100000
100000
100000
100000
100000
100000
100000
100000
100000
100000
100000
100000
100000
100000
100000
100000
100000
100000
100000
100000
100000
100000
100000
100000
100000
100000
100000
100000
100000
100000
100000
100000
100000
100000
100000
100000
100000
100000
100000
100000
100000
100000
100000
100000
100000
100000
100000
100000
100000
100000
100000
100000
100000
100000
100000
100000
100000
100000
100000
100000
100000
100000
100000
100000
100000
100000
100000
100000
100000
100000
100000
100000
100000
100000
100000
100000
100000
100000
100000
100000
100000
100000
100000
100000
100000
100000
100000
100000
100000
100000
100000
100000
100000
100000
100000
100000
100000
100000
100000
100000
100000
100000
100000
100000
100000
100000
100000
100000
100000
100000
100000
100000
100000
100000
100000
100000
100000
100000
100000
100000
100000
100000
100000
100000
100000
100000
100000
100000
100000
100000
100000
100000
100000
100000
100000
100000
100000
100000
100000
100000
100000
100000
100000
100000
100000
100000
100000
100000
100000
100000
100000
100000
100000
100000
100000
100000
100000
100000
100000
100000
100000
100000
100000
100000
100000
100000
100000
100000
100000
100000
100000
100000
100000
100000
100000
100000
100000
100000
100000
100000
100000
100000
100000
100000
100000
100000
100000
100000
100000
100000
100000
100000
100000
100000
100000
100000
100000
100000
100000
100000
100000
100000
100000
100000
100000
100000
100000
100000
100000
100000
100000
100000
100000
100000
100000
100000
100000
100000
100000
100000
100000
100000
100000
100000
100000
100000
100000
100000
100000
100000
100000
100000
100000
100000
100000
100000
100000
100000
100000
100000
100000
100000
100000
100000
100000
100000
100000
100000
100000
100000
100000
100000
100000
100000
100000
100000
100000
100000
100000
100000
100000
100000
100000
100000
100000
100000
100000
100000
100000
100000
100000
100000
100000
100000
100000
100000
100000
100000
100000
100000
100000
100000
100000
100000
100000
100000
100000
100000
100000
100000
100000
100000
100000
100000
100000
100000
100000
100000
100000
100000
100000
100000
100000
100000
100000
100000
100000
100000
100000
100000
100000
100000
100000
100000
100000
100000
100000
100000
100000
100000
100000
100000
100000
100000
100000
100000
100000
100000
100000
100000
100000
100000
100000
100000
100000
100000
100000
100000
100000
100000
100000
100000
100000
100000
100000
100000
100000
100000
100000
100000
100000
100000
100000
100000
100000
100000
100000
100000
100000
100000
100000
100000
100000
100000
100000
100000
100000
100000
100000
100000
100000
100000
100000
100000
100000
100000
100000
100000
100000
100000
100000
100000
100000
100000
100000
100000
100000
100000
100000
100000
100000
100000
100000
100000
100000
100000
100000
100000
100000
100000
100000
100000
100000
100000
100000
100000
100000
100000
100000
100000
100000
100000
100000
100000
100000
100000
100000
100000
100000
100000
100000
100000
100000
100000
100000
100000
100000
100000
100000
100000
100000
100000
100000
100000
100000
100000
100000
100000
100000
100000
100000
100000
100000
100000
100000
100000
100000
100000
100000
100000
100000
100000
100000
100000
100000
100000
100000
100000
100000
100000
100000
100000
100000
100000
100000
100000
100000
100000
100000
100000
100000
100000
100000
100000
100000
100000
100000
100000
100000
100000
100000
100000
100000
100000
100000
100000
100000
100000
100000
100000
100000
100000
100000
100000
100000
100000
100000
100000
100000
100000
100000
100000
100000
100000
100000
100000
100000
100000
100000
100000
100000
100000
100000
100000
100000
100000
100000
100000
100000
100000
100000
100000
100000
100000
100000
100000
100000
100000
100000
100000
100000
100000
100000
100000
100000
100000
100000
100000
100000
100000
100000
100000
100000
100000
100000
100000
100000
100000
100000
100000
100000
100000
100000
100000
100000
100000
100000
100000
100000
100000
100000
100000
100000
100000
100000
100000
100000
100000
100000
100000
100000
100000
100000
100000
100000
100000
100000
100000
100000
100000
100000
100000
100000
100000
100000
100000
100000
100000
100000
100000
100000
100000
100000
100000
100000
100000
100000
100000
100000
100000
100000
100000
100000
100000
100000
100000
100000
100000
100000
100000
100000
100000
100000
100000
100000
100000
100000
100000
100000
100000
100000
100000
100000
100000
100000
100000
100000
100000
100000
100000
100000
100000
100000
100000
100000
100000
100000
100000
100000
100000
100000
100000
100000
100000
100000
100000
100000
100000
100000
100000
100000
100000
100000
100000
100000
100000
100000
100000
100000
100000
100000
100000
100000
100000
100000
100000
100000
100000
100000
100000
100000
100000
100000
100000
100000
100000
100000
100000
100000
100000
100000
100000
100000
100000
100000
100000
100000
100000
100000
100000
100000
100000
100000
100000
100000
100000
100000
100000
100000
100000
100000
100000
100000
100000
100000
100000
100000
100000
100000
100000
100000
100000
100000
100000
100000
100000
100000
100000
100000
100000
100000
100000
100000
100000
100000
100000
100000
100000
100000
100000
100000
100000
100000
100000
100000
100000
100000
100000
100000
100000
100000
100000
100000
100000
100000
100000
100000
100000
100000
100000
100000
100000
100000
100000
100000
100000
100000
100000
100000
100000
100000
100000
100000
100000
100000
100000
100000
100000
100000
100000
100000
100000
100000
100000
100000
100000
100000
100000
100000
100000
100000
100000
100000
100000
100000
100000
100000
100000
100000
100000
100000
100000
100000
100000
100000
100000
100000
100000
100000
100000
100000
100000
100000
100000
100000
100000
100000
100000
100000
100000
100000
100000
100000
100000
100000
100000
100000
100000
100000
100000
100000
100000
100000
100000
100000
100000
100000
100000
100000
100000
100000
100000
100000
100000
100000
100000
100000
100000
100000
100000
100000
100000
100000
100000
100000
100000
100000
100000
100000
100000
100000
100000
100000
100000
100000
100000
100000
100000
100000
100000
100000
100000
100000
100000
100000
100000
100000
100000
100000
100000
100000
100000
100000
100000
100000
100000
100000
100000
100000
100000
100000
100000
100000
100000
100000
100000
100000
100000
100000
100000
100000
100000
100000
100000
100000
100000
100000
100000
100000
100000
100000
100000
100000
100000
100000
100000
100000
100000
100000
100000
100000
100000
100000
100000
100000
100000
100000
100000
100000
100000
100000
100000
100000
100000
100000
100000
100000
100000
100000
100000
100000
100000
100000
100000
100000
100000
100000
100000
100000
100000
100000
100000
100000
100000
100000
100000
100000
100000
100000
100000
100000
100000
100000
100000
100000
100000
100000
100000
100000
100000
100000
100000
100000
100000
100000
100000
100000
100000
100000
100000
100000
100000
100000
100000
100000
100000
100000
100000
100000
100000
100000
100000
100000
100000
100000
100000
100000
100000
100000
100000
100000
100000
100000
100000
100000
100000
100000
100000
100000
100000
100000
100000
100000
100000
100000
100000
100000
100000
100000
100000
100000
100000
100000
100000
100000
100000
100000
100000
100000
100000
100000
100000
100000
100000
100000
100000
100000
100000
100000
100000
100000
100000
100000
100000
100000
100000
100000
100000
100000
100000
100000
100000
100000
100000
100000
100000
100000
100000
100000
100000
100000
100000
100000
100000
100000
100000
100000
100000
100000
100000
100000
100000
100000
100000
100000
100000
100000
100000
100000
100000
100000
100000
100000
100000
100000
100000
100000
100000
100000
99999.9
99999.9
99999.9
99999.9
99999.8
99999.8
99999.7
99999.6
99999.5
99999.3
99999.2
99998.9
99998.6
99998.3
99997.8
99997.2
99996.5
99995.6
99994.6
99993.3
99991.7
99989.8
99987.5
99984.8
99981.5
99977.6
99973.1
99967.7
99961.5
99954.3
99946
99936.5
99925.7
99913.5
99899.8
99884.4
99867.3
99848.4
99827.7
99805
99780.4
99753.8
99725.3
99694.8
99662.4
99628.1
99592
99554.2
99514.7
99473.6
99431
99387.1
99341.8
99295.4
99247.9
99199.3
99149.8
99099.5
99048.5
98996.7
98944.3
98891.3
98837.9
98783.9
98729.6
98674.8
98619.7
98564.3
98508.6
98452.7
98396.5
98340.1
98283.5
98226.8
98169.9
98112.8
98055.6
97998.3
97940.9
97883.4
97825.8
97768.2
97710.4
97652.6
97594.7
97536.8
97478.8
97420.8
97362.8
97304.7
97246.6
97188.4
97130.2
97072
97013.8
96955.6
96897.3
96839.1
96780.8
96722.5
96664.2
96605.9
96547.6
96489.3
96431
96372.7
96314.3
96256
96197.7
96139.4
96081.1
96022.8
95964.5
95906.2
95847.9
95789.6
95731.4
95673.1
95614.8
95556.6
95498.4
95440.1
95381.9
95323.7
95265.5
95207.3
95149.1
95091
95032.8
94974.7
94916.5
94858.4
94800.3
94742.2
94684.1
94626.1
94568
94510
94452
94393.9
94336
94278
94220
94162.1
94104.1
94046.2
93988.3
93930.4
93872.6
93814.7
93756.9
93699.1
93641.3
93583.5
93525.7
93468
93410.2
93352.5
93294.8
93237.1
93179.5
93121.9
93064.2
93006.6
92949.1
92891.5
92834
92776.4
92718.9
92661.5
92604
92546.6
92489.2
92431.8
92374.4
92317
92259.7
92202.4
92145.1
92087.8
92030.6
91973.4
91916.2
91859
91801.8
91744.7
91687.6
91630.5
91573.4
91516.4
91459.4
91402.4
91345.4
91288.5
91231.5
91174.6
91117.8
91060.9
91004.1
90947.3
90890.5
90833.8
90777
90720.3
90663.7
90607
90550.4
90493.8
90437.2
90380.6
90324.1
90267.6
90211.1
90154.7
90098.2
90041.8
89985.5
89929.1
89872.8
89816.5
89760.2
89704
89647.8
89591.6
89535.4
89479.3
89423.1
89367.1
89311
89255
89199
89143
89087
89031.1
88975.2
88919.3
88863.5
88807.6
88751.8
88696.1
88640.3
88584.6
88528.9
88473.3
88417.6
88362
88306.4
88250.9
88195.4
88139.9
88084.4
88029
87973.5
87918.2
87862.8
87807.5
87752.2
87696.9
87641.6
87586.4
87531.2
87476
87420.9
87365.8
87310.7
87255.6
87200.6
87145.6
87090.6
87035.7
86980.7
86925.8
86871
86816.1
86761.3
86706.6
86651.8
86597.1
86542.4
86487.7
86433.1
86378.4
86323.8
86269.3
86214.7
86160.2
86105.8
86051.3
85996.9
85942.5
85888.1
85833.8
85779.5
85725.2
85670.9
85616.7
85562.5
85508.3
85454.2
85400.1
85346
85291.9
85237.9
85183.9
85129.9
85076
85022.1
84968.2
84914.3
84860.5
84806.7
84752.9
84699.1
84645.4
84591.7
84538
84484.4
84430.8
84377.2
84323.6
84270.1
84216.6
84163.1
84109.7
84056.3
84002.9
83949.5
83896.2
83842.9
83789.6
83736.3
83683.1
83629.9
83576.8
83523.6
83470.5
83417.4
83364.4
83311.3
83258.3
83205.4
83152.4
83099.5
83046.6
82993.8
82940.9
82888.1
82835.4
82782.6
82729.9
82677.2
82624.5
82571.9
82519.3
82466.7
82414.1
82361.6
82309.1
82256.7
82204.2
82151.8
82099.4
82047
81994.7
81942.4
81890.1
81837.9
81785.7
81733.5
81681.3
81629.2
81577.1
81525
81472.9
81420.9
81368.9
81316.9
81265
81213.1
81161.2
81109.3
81057.5
81005.7
80953.9
80902.2
80850.5
80798.8
80747.1
80695.5
80643.9
80592.3
80540.7
80489.2
80437.7
80386.2
80334.8
80283.4
80232
80180.6
80129.3
80078
80026.7
79975.4
79924.2
79873
79821.9
79770.7
79719.6
79668.5
79617.5
79566.4
79515.4
79464.4
79413.5
79362.6
79311.7
79260.8
79210
79159.2
79108.4
79057.6
79006.9
78956.2
78905.5
78854.9
78804.3
78753.7
78703.1
78652.6
78602.1
78551.6
78501.1
78450.7
78400.3
78349.9
78299.6
78249.2
78199
78148.7
78098.5
78048.2
77998.1
77947.9
77897.8
77847.7
77797.6
77747.6
77697.5
77647.5
77597.6
77547.6
77497.7
77447.8
77398
77348.2
77298.4
77248.6
77198.8
77149.1
77099.4
77049.7
77000.1
76950.5
76900.9
76851.4
76801.8
76752.3
76702.8
76653.4
76604
76554.6
76505.2
76455.9
76406.5
76357.2
76308
76258.7
76209.5
76160.4
76111.2
76062.1
76013
75963.9
75914.9
75865.8
75816.8
75767.9
75718.9
75670
75621.1
75572.3
75523.4
75474.6
75425.9
75377.1
75328.4
75279.7
75231
75182.4
75133.7
75085.1
75036.6
74988
74939.5
74891
74842.6
74794.2
74745.7
74697.4
74649
74600.7
74552.4
74504.1
74455.9
74407.6
74359.5
74311.3
74263.1
74215
74166.9
74118.9
74070.8
74022.8
73974.9
73926.9
73879
73831.1
73783.2
73735.3
73687.5
73639.7
73591.9
73544.2
73496.5
73448.8
73401.1
73353.5
73305.9
73258.3
73210.7
73163.2
73115.7
73068.2
73020.7
72973.3
72925.9
72878.5
72831.2
72783.9
72736.6
72689.3
72642
72594.8
72547.6
72500.5
72453.3
72406.2
72359.1
72312.1
72265
72218
72171
72124.1
72077.1
72030.2
71983.3
71936.5
71889.7
71842.9
71796.1
71749.3
71702.6
71655.9
71609.2
71562.6
71516
71469.4
71422.8
71376.2
71329.7
71283.2
71236.8
71190.3
71143.9
71097.5
71051.2
71004.8
70958.5
70912.2
70866
70819.7
70773.5
70727.3
70681.2
70635
70588.9
70542.9
70496.8
70450.8
70404.8
70358.8
70312.8
70266.9
70221
70175.1
70129.3
70083.5
70037.7
69991.9
69946.1
69900.4
69854.7
69809
69763.4
69717.8
69672.2
69626.6
69581.1
69535.5
69490.1
69444.6
69399.1
69353.7
69308.3
69263
69217.6
69172.3
69127
69081.7
69036.5
68991.3
68946.1
68900.9
68855.8
68810.7
68765.6
68720.5
68675.5
68630.5
68585.5
68540.5
68495.6
68450.7
68405.8
68360.9
68316.1
68271.3
68226.5
68181.7
68137
68092.3
68047.6
68002.9
67958.3
67913.7
67869.1
67824.5
67780
67735.5
67691
67646.6
67602.1
67557.7
67513.3
67469
67424.6
67380.3
67336
67291.8
67247.5
67203.3
67159.1
67115
67070.8
67026.7
66982.6
66938.6
66894.5
66850.5
66806.5
66762.6
66718.6
66674.7
66630.8
66586.9
66543.1
66499.3
66455.5
66411.7
66368
66324.3
66280.6
66236.9
66193.3
66149.6
66106.1
66062.5
66018.9
65975.4
65931.9
65888.5
65845
65801.6
65758.2
65714.8
65671.5
65628.1
65584.8
65541.6
65498.3
65455.1
65411.9
65368.7
65325.5
65282.4
65239.3
65196.2
65153.2
65110.1
65067.1
65024.2
64981.2
64938.3
64895.3
64852.5
64809.6
64766.8
64724
64681.2
64638.4
64595.7
64552.9
64510.2
64467.6
64424.9
64382.3
64339.7
64297.1
64254.6
64212.1
64169.6
64127.1
64084.7
64042.2
63999.8
63957.4
63915.1
63872.8
63830.4
63788.2
63745.9
63703.7
63661.5
63619.3
63577.1
63535
63492.9
63450.8
63408.7
63366.7
63324.6
63282.6
63240.7
63198.7
63156.8
63114.9
63073
63031.2
62989.3
62947.5
62905.7
62864
62822.3
62780.5
62738.9
62697.2
62655.6
62613.9
62572.4
62530.8
62489.2
62447.7
62406.2
62364.7
62323.3
62281.9
62240.5
62199.1
62157.7
62116.4
62075.1
62033.8
61992.5
61951.3
61910.1
61868.9
61827.7
61786.6
61745.5
61704.4
61663.3
61622.3
61581.2
61540.2
61499.2
61458.3
61417.4
61376.4
61335.6
61294.7
61253.9
61213
61172.2
61131.5
61090.7
61050
61009.3
60968.6
60928
60887.4
60846.7
60806.2
60765.6
60725.1
60684.6
60644.1
60603.6
60563.1
60522.7
60482.3
60442
60401.6
60361.3
60321
60280.7
60240.4
60200.2
60160
60119.8
60079.6
60039.5
59999.4
59959.3
59919.2
59879.1
59839.1
59799.1
59759.1
59719.2
59679.2
59639.3
59599.4
59559.5
59519.7
59479.9
59440.1
59400.3
59360.5
59320.8
59281.1
59241.4
59201.8
59162.1
59122.5
59082.9
59043.3
59003.8
58964.3
58924.7
58885.3
58845.8
58806.4
58767
58727.6
58688.2
58648.9
58609.5
58570.2
58531
58491.7
58452.5
58413.3
58374.1
58334.9
58295.8
58256.7
58217.6
58178.5
58139.4
58100.4
58061.4
58022.4
57983.5
57944.5
57905.6
57866.7
57827.8
57789
57750.2
57711.3
57672.6
57633.8
57595.1
57556.4
57517.7
57479
57440.3
57401.7
57363.1
57324.5
57286
57247.4
57208.9
57170.4
57132
57093.5
57055.1
57016.7
56978.3
56940
56901.6
56863.3
56825
56786.7
56748.5
56710.3
56672.1
56633.9
56595.7
56557.6
56519.5
56481.4
56443.3
56405.3
56367.2
56329.2
56291.3
56253.3
56215.4
56177.4
56139.5
56101.7
56063.8
56026
55988.2
55950.4
55912.6
55874.9
55837.2
55799.5
55761.8
55724.2
55686.5
55648.9
55611.3
55573.8
55536.2
55498.7
55461.2
55423.7
55386.3
55348.8
55311.4
55274
55236.6
55199.3
55162
55124.7
55087.4
55050.1
55012.9
54975.7
54938.5
54901.3
54864.1
54827
54789.9
54752.8
54715.7
54678.7
54641.7
54604.7
54567.7
54530.7
54493.8
54456.9
54420
54383.1
54346.3
54309.4
54272.6
54235.8
54199.1
54162.3
54125.6
54088.9
54052.2
54015.6