/*--------------------------------*- C++ -*----------------------------------*\
  =========                 |
  \\      /  F ield         | OpenFOAM: The Open Source CFD Toolbox
   \\    /   O peration     | Website:  https://openfoam.org
    \\  /    A nd           | Version:  9
     \\/     M anipulation  |
\*---------------------------------------------------------------------------*/
FoamFile
{
    format      ascii;
    class       surfaceScalarField;
    location    "0.005";
    object      phi_0;
}
// * * * * * * * * * * * * * * * * * * * * * * * * * * * * * * * * * * * * * //

dimensions      [1 0 -1 0 0 0 0];

internalField   nonuniform List<scalar> 
9999
(
-2.50395e-11
-2.64322e-11
-2.78533e-11
-2.92459e-11
-3.0667e-11
-3.20028e-11
-3.41913e-11
-3.25997e-11
-3.42482e-11
-3.47598e-11
-3.4845e-11
-3.39639e-11
-3.34524e-11
-3.21734e-11
-3.29123e-11
-2.88765e-11
-2.89901e-11
-2.64606e-11
-2.37037e-11
-2.251e-11
-2.02078e-11
-1.82183e-11
-1.5973e-11
-1.19371e-11
-7.07701e-12
-2.72848e-12
1.02318e-12
2.52953e-12
3.0127e-12
1.76215e-12
1.56319e-12
-5.68434e-14
-2.75691e-12
-4.91696e-12
-4.34852e-12
-2.67164e-12
-3.58114e-12
-3.89377e-12
-6.6791e-12
-8.2423e-12
-8.46967e-12
-1.08002e-11
-1.30456e-11
-1.5234e-11
-1.54898e-11
-1.58593e-11
-1.74509e-11
-1.88436e-11
-2.02078e-11
-2.36469e-11
-2.58922e-11
-2.71712e-11
-2.74838e-11
-2.74838e-11
-2.86775e-11
-2.69438e-11
-2.79101e-11
-2.67164e-11
-2.58353e-11
-2.73985e-11
-2.82796e-11
-2.84501e-11
-2.79101e-11
-2.67733e-11
-2.52953e-11
-2.44711e-11
-2.41016e-11
-2.37321e-11
-2.45279e-11
-2.36184e-11
-2.18563e-11
-2.15152e-11
-2.34479e-11
-2.20268e-11
-1.85594e-11
-1.85878e-11
-2.03499e-11
-2.0691e-11
-2.13447e-11
-2.11742e-11
-2.10889e-11
-2.39027e-11
-2.40448e-11
-2.66596e-11
-2.96154e-11
-3.20313e-11
-3.38787e-11
-3.79998e-11
-3.68914e-11
-3.82556e-11
-3.89946e-11
-3.75451e-11
-3.88525e-11
-3.97335e-11
-3.93641e-11
-3.69482e-11
-3.6124e-11
-3.38503e-11
-3.21165e-11
-3.20597e-11
-3.09228e-11
-3.00702e-11
-2.79385e-11
-2.60911e-11
-2.49543e-11
-2.44427e-11
-2.42437e-11
-2.44711e-11
-2.4329e-11
-2.44995e-11
-2.47837e-11
-2.35332e-11
-2.66311e-11
-2.73133e-11
-2.99849e-11
-2.97575e-11
-2.93312e-11
-2.98428e-11
-3.10649e-11
-3.09228e-11
-3.23155e-11
-3.09797e-11
-2.87343e-11
-2.76259e-11
-2.32774e-11
-2.20837e-11
-2.18279e-11
-1.9071e-11
-1.79909e-11
-1.87015e-11
-1.52909e-11
-1.5234e-11
-1.48361e-11
-1.57456e-11
-1.36424e-11
-1.32445e-11
-1.3614e-11
-1.31024e-11
-1.76783e-11
-1.84457e-11
-1.86162e-11
-1.98384e-11
-2.11458e-11
-2.15152e-11
-2.02363e-11
-1.99236e-11
-2.08615e-11
-1.97531e-11
-2.02078e-11
-1.90994e-11
-1.39266e-11
-1.27898e-11
-1.04023e-11
-9.09495e-12
-9.49285e-12
-8.49809e-12
-1.02887e-11
-9.80549e-12
-1.02887e-11
-1.1795e-11
-1.6172e-11
-1.77067e-11
-2.01794e-11
-2.50111e-11
-2.50964e-11
-2.78249e-11
-2.9786e-11
-3.22871e-11
-3.61524e-11
-3.40492e-11
-3.70335e-11
-3.56408e-11
-3.6863e-11
-3.70903e-11
-3.85114e-11
-3.62661e-11
-3.23155e-11
-3.28271e-11
-3.24292e-11
-3.43334e-11
-3.19744e-11
-3.13776e-11
-2.81659e-11
-2.81091e-11
-3.04112e-11
-3.18039e-11
-2.91891e-11
-2.71427e-11
-2.46416e-11
-2.33626e-11
-2.305e-11
-2.251e-11
-2.1771e-11
-2.0691e-11
-2.16858e-11
-2.11742e-11
-1.92131e-11
-2.05773e-11
-1.94404e-11
-1.83036e-11
-1.73657e-11
-1.88152e-11
-1.68257e-11
-1.55751e-11
-1.71667e-11
-2.03215e-11
-2.24532e-11
-2.197e-11
-2.11173e-11
-2.33626e-11
-2.25953e-11
-2.55511e-11
-2.7768e-11
-2.86491e-11
-2.97007e-11
-3.1946e-11
-3.45324e-11
-3.20313e-11
-3.62377e-11
-3.52145e-11
-3.27702e-11
-2.96154e-11
-2.86491e-11
-2.62617e-11
-2.50679e-11
-2.24532e-11
-1.98384e-11
-1.76499e-11
-1.56035e-11
-1.33866e-11
-1.41256e-11
-1.39551e-11
-1.39551e-11
-1.55751e-11
-1.47793e-11
-1.4353e-11
-1.36708e-11
-1.19087e-11
-1.2875e-11
-1.60014e-11
-1.73657e-11
-2.05773e-11
-2.38174e-11
-2.7228e-11
-3.10365e-11
-3.43334e-11
-3.47313e-11
-3.27702e-11
-3.14628e-11
-3.31966e-11
-3.1946e-11
-3.04112e-11
-3.07523e-11
-2.97007e-11
-2.81943e-11
-2.95302e-11
-2.98428e-11
-2.99565e-11
-3.10081e-11
-3.2685e-11
-3.14913e-11
-3.12923e-11
-3.28555e-11
-3.11786e-11
-2.88765e-11
-2.46985e-11
-2.11173e-11
-2.06342e-11
-2.06342e-11
-2.0151e-11
-2.00089e-11
-1.9611e-11
-2.02078e-11
-2.02931e-11
-2.19131e-11
-2.51532e-11
-2.57785e-11
-2.80238e-11
-2.81091e-11
-2.63185e-11
-2.53237e-11
-2.70006e-11
-2.90186e-11
-2.95017e-11
-3.09797e-11
-3.03828e-11
-3.10365e-11
-2.8848e-11
-2.86491e-11
-2.62617e-11
-2.70575e-11
-2.58069e-11
-2.44995e-11
-2.19984e-11
-1.80478e-11
-1.42961e-11
-1.14539e-11
-9.54969e-12
-1.08002e-11
-9.89075e-12
-7.84439e-12
-1.11982e-11
-1.49498e-11
-1.78488e-11
-1.82752e-11
-1.84173e-11
-2.02363e-11
-2.17426e-11
-2.34195e-11
-2.06057e-11
-2.38742e-11
-2.6489e-11
-2.63469e-11
-2.7967e-11
-2.71427e-11
-2.94165e-11
-2.97291e-11
-2.81943e-11
-2.6148e-11
-2.36753e-11
-2.31353e-11
-2.24816e-11
-1.92983e-11
-1.94689e-11
-1.85878e-11
-1.74794e-11
-1.82752e-11
-1.69962e-11
-1.60867e-11
-1.7252e-11
-1.95257e-11
-2.06342e-11
-2.10889e-11
-2.24247e-11
-2.44995e-11
-2.36469e-11
-2.1231e-11
-2.17995e-11
-2.01226e-11
-1.93268e-11
-1.90141e-11
-1.99236e-11
-1.99236e-11
-2.24532e-11
-2.21689e-11
-2.12879e-11
-2.02931e-11
-1.95541e-11
-1.80194e-11
-1.5973e-11
-1.5973e-11
-1.15108e-11
-1.00613e-11
-1.00329e-11
-1.09139e-11
-9.15179e-12
-8.49809e-12
-6.70752e-12
-7.38964e-12
-7.24754e-12
-8.81073e-12
-1.00329e-11
-9.35074e-12
-1.10276e-11
-1.16813e-11
-1.51772e-11
-1.75362e-11
-1.95257e-11
-2.33342e-11
-2.53806e-11
-2.7768e-11
-3.07239e-11
-3.10365e-11
-3.13207e-11
-2.99281e-11
-2.86491e-11
-2.72564e-11
-2.83933e-11
-2.73133e-11
-2.52385e-11
-2.359e-11
-2.03784e-11
-1.62004e-11
-1.56319e-11
-1.40119e-11
-1.40403e-11
-1.30171e-11
-1.05729e-11
-8.21387e-12
-9.80549e-12
-9.32232e-12
-1.00897e-11
-9.57812e-12
-1.0715e-11
-1.33014e-11
-1.37561e-11
-1.40403e-11
-1.48361e-11
-1.53761e-11
-1.69678e-11
-2.04068e-11
-1.95541e-11
-2.09184e-11
-1.86446e-11
-1.9412e-11
-2.00941e-11
-1.84741e-11
-1.94404e-11
-1.9611e-11
-1.93268e-11
-2.07763e-11
-2.0151e-11
-1.62856e-11
-1.56888e-11
-1.44098e-11
-1.57456e-11
-1.66835e-11
-1.86446e-11
-1.86446e-11
-1.71099e-11
-1.78204e-11
-1.86731e-11
-1.64562e-11
-1.58593e-11
-1.67972e-11
-1.4694e-11
-1.5234e-11
-1.56319e-11
-1.76499e-11
-2.05205e-11
-2.22258e-11
-2.73985e-11
-2.92459e-11
-3.27702e-11
-3.55556e-11
-3.85398e-11
-3.84546e-11
-3.98757e-11
-4.09557e-11
-3.98188e-11
-4.0302e-11
-3.95914e-11
-3.80567e-11
-3.73461e-11
-3.66356e-11
-3.39355e-11
-3.00702e-11
-2.86491e-11
-2.60059e-11
-2.48122e-11
-1.96962e-11
-1.75078e-11
-1.16245e-11
-8.07177e-12
-4.63274e-12
-2.84217e-12
-2.27374e-12
-4.23483e-12
-4.63274e-12
-6.33804e-12
-7.56017e-12
-7.21911e-12
-8.75389e-12
-9.60654e-12
-9.32232e-12
-8.3844e-12
-6.9349e-12
-6.11067e-12
-7.61702e-12
-8.01492e-12
-8.52651e-12
-9.0381e-12
-9.97602e-12
-9.35074e-12
-1.04023e-11
-1.03739e-11
-9.09495e-12
-6.16751e-12
-4.5759e-12
-3.41061e-12
-2.07478e-12
-4.51905e-12
-2.58638e-12
-1.79057e-12
-3.75167e-12
-4.74643e-12
-7.19069e-12
-8.46967e-12
-1.11129e-11
-1.26761e-11
-1.25056e-11
-1.44667e-11
-1.43814e-11
-1.60298e-11
-1.69109e-11
-1.58025e-11
-1.58309e-11
-1.46656e-11
-1.3813e-11
-1.27613e-11
-1.03739e-11
-7.21911e-12
-5.99698e-12
-3.49587e-12
-2.50111e-12
-1.59162e-12
6.25278e-13
2.359e-12
4.77485e-12
6.82121e-12
1.00044e-11
1.13403e-11
8.98126e-12
8.07177e-12
7.90124e-12
4.9738e-12
2.21689e-12
1.19371e-12
-1.36424e-12
-2.70006e-12
-5.34328e-12
-8.41283e-12
-9.12337e-12
-1.12266e-11
-1.3614e-11
-1.49498e-11
-1.58877e-11
-1.56888e-11
-1.60298e-11
-1.48077e-11
-1.33014e-11
-1.16529e-11
-9.32232e-12
-6.59384e-12
-6.2812e-12
-7.27596e-12
-8.27072e-12
-7.61702e-12
-7.19069e-12
-7.19069e-12
-5.65592e-12
-4.51905e-12
-4.20641e-12
-3.89377e-12
-3.6664e-12
-4.74643e-12
-6.62226e-12
-7.70228e-12
-1.00897e-11
-1.30456e-11
-1.3074e-11
-1.22213e-11
-1.2875e-11
-1.44951e-11
-1.7792e-11
-1.8531e-11
-2.07763e-11
-1.92699e-11
-1.62572e-11
-1.60867e-11
-1.49498e-11
-1.28182e-11
-1.24487e-11
-1.1795e-11
-1.14824e-11
-1.06581e-11
-8.92442e-12
-9.66338e-12
-1.26477e-11
-1.27045e-11
-1.26192e-11
-1.25056e-11
-1.26761e-11
-1.03171e-11
-1.09992e-11
-1.21645e-11
-1.23919e-11
-1.24203e-11
-1.30456e-11
-1.2534e-11
-1.34719e-11
-1.27329e-11
-1.39551e-11
-1.45235e-11
-1.49214e-11
-1.68825e-11
-1.97815e-11
-2.03215e-11
-1.99805e-11
-1.80478e-11
-1.4893e-11
-1.53193e-11
-1.40687e-11
-1.18519e-11
-9.40759e-12
-8.10019e-12
-6.87805e-12
-4.26326e-12
-1.73372e-12
-2.55795e-13
1.10845e-12
2.84217e-13
-1.98952e-13
-1.90425e-12
-2.27374e-12
-2.81375e-12
-2.75691e-12
-4.77485e-12
-6.42331e-12
-8.72546e-12
-1.25624e-11
-1.4353e-11
-1.65699e-11
-1.83888e-11
-2.197e-11
-2.467e-11
-2.71996e-11
-2.75122e-11
-3.08091e-11
-3.36797e-11
-3.53566e-11
-3.65219e-11
-3.66072e-11
-3.56124e-11
-3.57261e-11
-3.5584e-11
-3.20597e-11
-2.94733e-11
-2.57216e-11
-2.3789e-11
-2.19984e-11
-1.98384e-11
-1.56604e-11
-1.20792e-11
-7.41807e-12
-2.92744e-12
6.82121e-13
2.27374e-12
4.17799e-12
5.85487e-12
6.2812e-12
5.59908e-12
6.62226e-12
4.5759e-12
3.43903e-12
1.39266e-12
-2.27374e-13
-1.64846e-12
-2.38742e-12
-1.56319e-12
2.55795e-13
1.19371e-12
9.66338e-13
1.33582e-12
1.9611e-12
3.0127e-12
4.3201e-12
4.12115e-12
4.51905e-12
4.14957e-12
3.38218e-12
3.04112e-12
1.73372e-12
-3.12639e-13
-2.50111e-12
-4.0643e-12
-6.45173e-12
-8.07177e-12
-9.72022e-12
-1.09708e-11
-1.07434e-11
-1.07434e-11
-9.12337e-12
-1.03171e-11
-1.40972e-11
-1.69109e-11
-2.0151e-11
-2.52385e-11
-2.89617e-11
-3.06954e-11
-3.22586e-11
-3.55556e-11
-3.55271e-11
-3.7744e-11
-3.98757e-11
-4.07567e-11
-3.84262e-11
-3.23439e-11
-3.18607e-11
-2.89333e-11
-2.75975e-11
-2.83364e-11
-2.87059e-11
-2.97575e-11
-2.86491e-11
-2.89333e-11
-2.79954e-11
-2.94449e-11
-3.14628e-11
-3.16902e-11
-3.22018e-11
-3.25997e-11
-3.23723e-11
-3.21165e-11
-2.87059e-11
-2.8507e-11
-2.81091e-11
-2.86207e-11
-2.93028e-11
-3.02407e-11
-2.81091e-11
-2.85354e-11
-2.77396e-11
-2.85922e-11
-2.85354e-11
-2.93312e-11
-2.74554e-11
-2.56364e-11
-2.44711e-11
-2.29363e-11
-2.25668e-11
-2.21405e-11
-1.9952e-11
-1.76215e-11
-1.93552e-11
-2.08047e-11
-2.00941e-11
-2.0151e-11
-2.08047e-11
-2.24532e-11
-2.21689e-11
-2.27658e-11
-2.33911e-11
-2.5949e-11
-2.65459e-11
-2.9047e-11
-2.81943e-11
-2.54659e-11
-2.77396e-11
-2.8848e-11
-3.22302e-11
-2.93312e-11
-2.71712e-11
-2.39027e-11
-2.36753e-11
-2.3249e-11
-2.47553e-11
-2.56364e-11
-2.6148e-11
-2.55227e-11
-2.45279e-11
-2.25953e-11
-2.04352e-11
-1.72804e-11
-1.56319e-11
-1.53761e-11
-1.48646e-11
-1.5973e-11
-2.03215e-11
-2.04921e-11
-2.03784e-11
-1.89573e-11
-2.03784e-11
-1.9412e-11
-2.27658e-11
-2.23679e-11
-2.305e-11
-2.27089e-11
-2.47837e-11
-2.51532e-11
-2.52385e-11
-2.44711e-11
-2.55511e-11
-2.34195e-11
-2.2311e-11
-2.33626e-11
-2.27374e-11
-1.98668e-11
-1.95257e-11
-2.12026e-11
-2.30216e-11
-2.47269e-11
-2.18563e-11
-2.27942e-11
-2.31353e-11
-2.15721e-11
-2.31921e-11
-2.23963e-11
-2.36469e-11
-2.413e-11
-2.75406e-11
-3.00986e-11
-2.87628e-11
-2.94733e-11
-3.02975e-11
-3.22302e-11
-3.20597e-11
-3.3225e-11
-3.41913e-11
-3.37934e-11
-3.33387e-11
-3.1406e-11
-3.09797e-11
-3.06102e-11
-2.82228e-11
-3.03544e-11
-3.10365e-11
-3.10365e-11
-3.15481e-11
-3.29408e-11
-3.49587e-11
-3.67493e-11
-3.62093e-11
-3.80567e-11
-3.73177e-11
-3.71756e-11
-3.36513e-11
-3.09228e-11
-2.79385e-11
-2.57785e-11
-2.47553e-11
-2.28511e-11
-2.29647e-11
-2.15437e-11
-2.19131e-11
-2.2311e-11
-2.50111e-11
-2.75691e-11
-2.80522e-11
-2.64606e-11
-2.65743e-11
-2.75975e-11
-2.95302e-11
-3.0667e-11
-3.5385e-11
-3.58398e-11
-3.92788e-11
-3.99893e-11
-4.01883e-11
-4.0103e-11
-3.66924e-11
-3.72609e-11
-3.62661e-11
-4.00746e-11
-4.17799e-11
-3.83977e-11
-3.72893e-11
-3.6664e-11
-3.49019e-11
-3.32534e-11
-3.16902e-11
-2.87343e-11
-2.87059e-11
-2.62048e-11
-2.80522e-11
-2.83933e-11
-2.84217e-11
-2.9587e-11
-2.73985e-11
-2.70006e-11
-3.00702e-11
-3.07807e-11
-3.30544e-11
-3.25713e-11
-3.39639e-11
-3.56977e-11
-3.68061e-11
-3.92788e-11
-3.98757e-11
-4.15525e-11
-4.37694e-11
-4.32578e-11
-4.27463e-11
-4.11262e-11
-3.99325e-11
-4.12115e-11
-4.05009e-11
-4.17231e-11
-4.47926e-11
-4.64695e-11
-4.89422e-11
-4.89422e-11
-4.8118e-11
-5.1017e-11
-5.22107e-11
-4.95106e-11
-4.85727e-11
-4.56168e-11
-4.34284e-11
-4.47358e-11
-4.57305e-11
-4.35989e-11
-4.34568e-11
-4.28599e-11
-3.92504e-11
-3.82272e-11
-3.51861e-11
-3.10365e-11
-2.58638e-11
-2.45279e-11
-2.03215e-11
-1.69962e-11
-1.83604e-11
-1.7252e-11
-1.60014e-11
-1.62856e-11
-1.72804e-11
-1.75362e-11
-1.67972e-11
-1.81615e-11
-1.94973e-11
-2.05205e-11
-1.95826e-11
-1.92415e-11
-2.00373e-11
-2.25384e-11
-2.46416e-11
-2.71427e-11
-3.20881e-11
-3.24576e-11
-3.70335e-11
-3.73177e-11
-3.73177e-11
-3.87672e-11
-3.92504e-11
-3.95346e-11
-4.22347e-11
-4.30589e-11
-4.29168e-11
-4.33431e-11
-4.31157e-11
-4.63274e-11
-4.83737e-11
-4.71232e-11
-4.63842e-11
-4.78622e-11
-4.81748e-11
-4.60147e-11
-4.41105e-11
-4.31157e-11
-4.2121e-11
-4.03872e-11
-3.95346e-11
-3.68061e-11
-3.29123e-11
-3.32534e-11
-3.15765e-11
-2.94165e-11
-3.45892e-11
-3.45892e-11
-3.22302e-11
-3.18323e-11
-3.2486e-11
-3.1406e-11
-3.00702e-11
-3.13207e-11
-3.00133e-11
-3.10081e-11
-3.0127e-11
-3.12639e-11
-3.33102e-11
-3.14344e-11
-3.29123e-11
-3.24576e-11
-3.31681e-11
-3.10365e-11
-2.75691e-11
-2.4869e-11
-2.40732e-11
-2.28795e-11
-2.08615e-11
-2.0691e-11
-2.00657e-11
-2.07478e-11
-2.14584e-11
-1.90994e-11
-1.97247e-11
-1.89573e-11
-1.95257e-11
-2.21974e-11
-2.12026e-11
-2.143e-11
-2.47837e-11
-2.75122e-11
-2.97007e-11
-3.11786e-11
-3.26281e-11
-3.46176e-11
-3.60103e-11
-3.66356e-11
-3.79146e-11
-3.99893e-11
-4.01599e-11
-3.93925e-11
-4.30305e-11
-4.36842e-11
-4.47073e-11
-4.65548e-11
-4.60432e-11
-4.59011e-11
-4.39115e-11
-4.34568e-11
-4.38263e-11
-4.25189e-11
-4.32578e-11
-4.52758e-11
-4.57021e-11
-4.42526e-11
-4.14389e-11
-4.09841e-11
-3.95346e-11
-4.04441e-11
-4.24336e-11
-4.04157e-11
-3.97051e-11
-4.04725e-11
-4.10694e-11
-4.21494e-11
-4.32578e-11
-4.29452e-11
-4.67253e-11
-4.61284e-11
-4.43379e-11
-4.30305e-11
-4.05578e-11
-3.96199e-11
-4.10694e-11
-4.13252e-11
-4.31157e-11
-4.33715e-11
-4.22347e-11
-4.23199e-11
-4.21494e-11
-4.24052e-11
-4.05578e-11
-4.17231e-11
-4.14104e-11
-4.13536e-11
-3.98472e-11
-4.37979e-11
-4.68958e-11
-4.718e-11
-4.78337e-11
-4.8459e-11
-5.03064e-11
-5.03633e-11
-4.93969e-11
-5.27507e-11
-5.48823e-11
-5.32623e-11
-5.01643e-11
-4.78622e-11
-4.60147e-11
-4.52189e-11
-4.20073e-11
-4.14673e-11
-3.72609e-11
-3.44471e-11
-3.35376e-11
-3.18039e-11
-3.44187e-11
-3.5044e-11
-3.71756e-11
-3.78009e-11
-3.78861e-11
-3.83409e-11
-3.75451e-11
-3.74598e-11
-3.76872e-11
-3.85114e-11
-3.54134e-11
-3.37934e-11
-3.3026e-11
-3.25997e-11
-3.03544e-11
-3.03544e-11
-3.10934e-11
-2.92175e-11
-2.78817e-11
-2.95586e-11
-3.20313e-11
-3.29976e-11
-3.61808e-11
-3.47598e-11
-3.58114e-11
-3.51292e-11
-3.12923e-11
-3.14344e-11
-3.00417e-11
-2.65459e-11
-2.6489e-11
-2.4869e-11
-2.52385e-11
-2.60343e-11
-2.45279e-11
-2.55795e-11
-2.61196e-11
-2.6489e-11
-2.67733e-11
-2.91607e-11
-2.91323e-11
-2.99565e-11
-3.28271e-11
-3.33387e-11
-3.19744e-11
-3.01554e-11
-3.0866e-11
-3.00133e-11
-3.04965e-11
-3.29976e-11
-3.28839e-11
-3.06954e-11
-2.84786e-11
-2.79101e-11
-2.54943e-11
-2.66596e-11
-2.78533e-11
-2.7228e-11
-2.76259e-11
-2.75122e-11
-2.97007e-11
-3.01839e-11
-3.14628e-11
-3.14913e-11
-3.07807e-11
-3.20313e-11
-3.50155e-11
-3.61524e-11
-3.77725e-11
-3.89662e-11
-3.82272e-11
-4.20641e-11
-4.27178e-11
-4.44231e-11
-4.52189e-11
-4.87148e-11
-5.33475e-11
-5.34328e-11
-5.26086e-11
-5.07612e-11
-5.14149e-11
-5.25517e-11
-5.18412e-11
-5.16138e-11
-4.97664e-11
-4.76632e-11
-4.80611e-11
-4.93117e-11
-4.88001e-11
-4.89422e-11
-4.718e-11
-4.43663e-11
-4.24052e-11
-4.21494e-11
-3.70619e-11
-3.7403e-11
-3.62661e-11
-3.50155e-11
-3.45608e-11
-3.26281e-11
-3.52145e-11
-3.72609e-11
-3.82272e-11
-3.83977e-11
-3.74882e-11
-3.97335e-11
-4.2121e-11
-4.40536e-11
-4.68958e-11
-4.75211e-11
-4.78906e-11
-4.74643e-11
-4.86011e-11
-4.92832e-11
-5.21823e-11
-5.41434e-11
-5.49676e-11
-5.38307e-11
-5.07043e-11
-4.77769e-11
-4.5759e-11
-4.47358e-11
-4.41389e-11
-4.29168e-11
-3.87956e-11
-3.57829e-11
-3.28839e-11
-3.15197e-11
-3.06102e-11
-3.16049e-11
-3.12355e-11
-2.94733e-11
-2.87059e-11
-2.81375e-11
-2.74269e-11
-2.94449e-11
-2.81659e-11
-2.92459e-11
-2.93028e-11
-3.02407e-11
-3.06386e-11
-3.00986e-11
-3.39924e-11
-3.56124e-11
-3.6863e-11
-3.98188e-11
-4.07567e-11
-4.3201e-11
-4.60432e-11
-4.5759e-11
-4.29736e-11
-4.17515e-11
-4.1581e-11
-3.74314e-11
-3.36513e-11
-3.03828e-11
-3.1406e-11
-2.98712e-11
-2.9388e-11
-2.74838e-11
-2.65743e-11
-2.53806e-11
-2.6489e-11
-2.51248e-11
-2.46416e-11
-2.59774e-11
-2.51532e-11
-2.4869e-11
-2.55795e-11
-2.39879e-11
-2.41585e-11
-2.33058e-11
-2.35048e-11
-2.05489e-11
-2.08331e-11
-2.089e-11
-2.13163e-11
-2.22542e-11
-2.50964e-11
-2.83649e-11
-2.91323e-11
-2.64322e-11
-2.32774e-11
-2.62617e-11
-2.52385e-11
-2.34763e-11
-2.27089e-11
-2.19984e-11
-2.18847e-11
-2.36753e-11
-2.26521e-11
-2.38458e-11
-2.44427e-11
-2.62332e-11
-2.97007e-11
-2.82512e-11
-2.98996e-11
-3.24576e-11
-3.30829e-11
-3.25997e-11
-3.06386e-11
-2.88196e-11
-3.0866e-11
-3.1747e-11
-3.12639e-11
-3.02691e-11
-3.25997e-11
-3.40776e-11
-3.55271e-11
-3.84546e-11
-4.06999e-11
-4.18652e-11
-4.41958e-11
-4.34852e-11
-4.03304e-11
-4.07852e-11
-4.29452e-11
-4.17231e-11
-4.19789e-11
-3.94778e-11
-3.76303e-11
-3.72609e-11
-3.96483e-11
-4.04725e-11
-3.97904e-11
-3.72324e-11
-3.8284e-11
-3.7403e-11
-3.64082e-11
-3.68914e-11
-4.0103e-11
-4.12399e-11
-4.10978e-11
-4.37694e-11
-4.41389e-11
-4.22915e-11
-4.05009e-11
-4.17799e-11
-3.70903e-11
-3.57261e-11
-3.35945e-11
-3.2145e-11
-3.1946e-11
-3.20881e-11
-3.50155e-11
-3.29976e-11
-3.23155e-11
-3.13207e-11
-3.47882e-11
-3.20881e-11
-3.01839e-11
-2.76827e-11
-2.7967e-11
-2.53522e-11
-2.31921e-11
-2.36184e-11
-2.1771e-11
-2.54943e-11
-2.67733e-11
-2.76827e-11
-3.07807e-11
-3.1747e-11
-3.47029e-11
-3.57545e-11
-3.57829e-11
-3.45608e-11
-3.64935e-11
-3.53282e-11
-3.28839e-11
-3.49303e-11
-3.47313e-11
-3.5584e-11
-3.66924e-11
-3.62945e-11
-3.75735e-11
-4.02167e-11
-3.90514e-11
-3.52429e-11
-3.54703e-11
-3.60387e-11
-3.56692e-11
-3.40492e-11
-3.51577e-11
-3.47882e-11
-3.33102e-11
-3.29123e-11
-3.41061e-11
-3.00133e-11
-2.82228e-11
-2.95017e-11
-3.18039e-11
-3.1946e-11
-3.10081e-11
-3.02975e-11
-2.76259e-11
-2.45848e-11
-2.66596e-11
-2.60911e-11
-2.59206e-11
-2.46985e-11
-2.56648e-11
-2.61196e-11
-2.48406e-11
-2.33911e-11
-2.41585e-11
-2.48974e-11
-2.33342e-11
-2.43574e-11
-2.251e-11
-2.45848e-11
-2.52669e-11
-2.55795e-11
-2.58922e-11
-2.69154e-11
-2.92175e-11
-3.14628e-11
-3.27702e-11
-3.14344e-11
-3.3225e-11
-3.30544e-11
-3.52998e-11
-3.76588e-11
-3.85398e-11
-3.91367e-11
-4.13252e-11
-4.26326e-11
-4.63842e-11
-4.77201e-11
-5.22675e-11
-5.52234e-11
-5.49392e-11
-5.58487e-11
-5.62181e-11
-6.05951e-11
-6.23004e-11
-6.45457e-11
-6.50857e-11
-6.41762e-11
-6.15898e-11
-5.97709e-11
-5.65024e-11
-5.82361e-11
-6.01119e-11
-5.97424e-11
-5.96003e-11
-5.70139e-11
-5.61329e-11
-5.61329e-11
-5.27791e-11
-5.31202e-11
-5.21823e-11
-5.2097e-11
-4.90843e-11
-4.63558e-11
-4.45652e-11
-4.35705e-11
-4.30305e-11
-4.22631e-11
-4.41105e-11
-4.27178e-11
-4.00462e-11
-3.77156e-11
-3.63514e-11
-3.77725e-11
-3.66356e-11
-3.41629e-11
-3.29123e-11
-3.41061e-11
-3.80851e-11
-4.0302e-11
-4.01883e-11
-3.99325e-11
-4.19504e-11
-4.41958e-11
-4.3002e-11
-4.29168e-11
-4.20073e-11
-4.31157e-11
-4.11831e-11
-4.14104e-11
-3.9023e-11
-3.97051e-11
-4.06715e-11
-4.12399e-11
-4.10694e-11
-3.93925e-11
-3.65503e-11
-3.53566e-11
-3.73177e-11
-3.58682e-11
-3.66356e-11
-3.74882e-11
-3.70903e-11
-3.56124e-11
-3.65787e-11
-3.57829e-11
-3.52145e-11
-3.35376e-11
-3.19176e-11
-3.08944e-11
-2.81943e-11
-2.47837e-11
-2.43006e-11
-2.31637e-11
-1.98668e-11
-1.57456e-11
-1.56319e-11
-1.69962e-11
-1.73088e-11
-1.86162e-11
-2.15721e-11
-2.56932e-11
-3.09512e-11
-3.79146e-11
-4.23768e-11
-4.26041e-11
-4.38547e-11
-4.35705e-11
-4.21494e-11
-4.24336e-11
-4.13252e-11
-4.18368e-11
-4.29452e-11
-4.30305e-11
-4.21778e-11
-4.21778e-11
-4.1922e-11
-4.09841e-11
-3.87388e-11
-3.93925e-11
-4.34e-11
-4.39115e-11
-4.47073e-11
-4.55032e-11
-4.36273e-11
-4.28884e-11
-4.18936e-11
-4.3741e-11
-4.48779e-11
-4.80895e-11
-4.7379e-11
-5.03348e-11
-5.22391e-11
-5.4996e-11
-5.43139e-11
-5.40581e-11
-5.33191e-11
-5.34044e-11
-5.21254e-11
-5.12728e-11
-5.05338e-11
-5.01927e-11
-5.07043e-11
-4.93117e-11
-4.6299e-11
-4.8118e-11
-4.58442e-11
-4.1922e-11
-3.96767e-11
-3.64651e-11
-3.63514e-11
-3.45892e-11
-3.60956e-11
-3.81135e-11
-3.90799e-11
-4.17231e-11
-4.39115e-11
-4.22915e-11
-4.29452e-11
-4.40252e-11
-4.42526e-11
-4.29168e-11
-4.39968e-11
-4.58726e-11
-4.52189e-11
-4.47642e-11
-4.62421e-11
-4.59295e-11
-4.61853e-11
-5.00506e-11
-5.43707e-11
-5.56781e-11
-5.82645e-11
-5.65876e-11
-5.34897e-11
-5.44844e-11
-5.36602e-11
-5.04201e-11
-4.91127e-11
-4.41389e-11
-4.08704e-11
-3.96767e-11
-3.81419e-11
-3.9222e-11
-4.08988e-11
-4.37979e-11
-4.43379e-11
-4.58726e-11
-4.28599e-11
-4.3201e-11
-4.61284e-11
-4.61569e-11
-4.86864e-11
-5.28075e-11
-5.22107e-11
-5.06759e-11
-5.06759e-11
-5.08464e-11
-5.38023e-11
-5.31486e-11
-5.16422e-11
-5.03917e-11
-4.75495e-11
-4.57021e-11
-4.07567e-11
-4.1581e-11
-3.94493e-11
-3.69198e-11
-3.60671e-11
-3.37366e-11
-3.44471e-11
-3.36797e-11
-3.25997e-11
-3.46176e-11
-3.39924e-11
-3.27702e-11
-3.15481e-11
-2.94449e-11
-2.89901e-11
-2.71143e-11
-2.53522e-11
-2.35332e-11
-2.54943e-11
-2.43574e-11
-2.34479e-11
-2.19416e-11
-2.17426e-11
-1.89289e-11
-1.60867e-11
-1.4694e-11
-1.31877e-11
-1.29319e-11
-1.47224e-11
-1.69109e-11
-1.75362e-11
-1.96962e-11
-1.82467e-11
-1.90425e-11
-1.92415e-11
-2.23679e-11
-2.40448e-11
-2.52101e-11
-2.67164e-11
-2.64606e-11
-2.43574e-11
-2.251e-11
-2.04921e-11
-2.02647e-11
-2.29079e-11
-2.51532e-11
-2.51248e-11
-2.49258e-11
-2.63753e-11
-2.76827e-11
-2.72564e-11
-2.75975e-11
-2.63185e-11
-2.6148e-11
-2.5608e-11
-2.35332e-11
-2.48974e-11
-2.56364e-11
-2.39879e-11
-2.42721e-11
-2.40448e-11
-2.60911e-11
-2.9786e-11
-3.00133e-11
-3.36229e-11
-3.52713e-11
-3.85398e-11
-4.36842e-11
-4.24905e-11
-4.28031e-11
-4.48779e-11
-4.45368e-11
-4.28315e-11
-4.32578e-11
-4.22347e-11
-4.35421e-11
-4.18083e-11
-4.33715e-11
-4.3002e-11
-4.04725e-11
-3.99609e-11
-3.75735e-11
-3.71756e-11
-3.57261e-11
-3.3566e-11
-3.11502e-11
-2.73701e-11
-2.3789e-11
-2.18563e-11
-1.92983e-11
-1.7792e-11
-1.66835e-11
-1.98384e-11
-2.14584e-11
-2.52101e-11
-2.82228e-11
-3.06102e-11
-3.29123e-11
-3.5044e-11
-3.73177e-11
-3.98188e-11
-4.02451e-11
-4.26894e-11
-4.36842e-11
-4.32863e-11
-4.34284e-11
-4.19789e-11
-3.98188e-11
-4.1382e-11
-4.0643e-11
-4.1382e-11
-4.20641e-11
-3.83977e-11
-4.00178e-11
-4.01599e-11
-3.91935e-11
-4.25189e-11
-4.31726e-11
-4.23768e-11
-4.49916e-11
-4.40536e-11
-4.35989e-11
-4.48779e-11
-4.2661e-11
-4.04441e-11
-3.90799e-11
-4.00178e-11
-3.65503e-11
-3.5044e-11
-2.98996e-11
-2.60911e-11
-2.53237e-11
-2.24247e-11
-2.04921e-11
-1.93836e-11
-2.13163e-11
-2.17142e-11
-2.251e-11
-2.24532e-11
-2.34479e-11
-2.42437e-11
-2.69438e-11
-2.71996e-11
-2.76259e-11
-2.92744e-11
-2.91607e-11
-2.86491e-11
-2.80806e-11
-2.96723e-11
-3.03544e-11
-3.40208e-11
-3.67208e-11
-3.4845e-11
-3.28271e-11
-3.20597e-11
-3.28839e-11
-3.55271e-11
-3.6124e-11
-3.65219e-11
-3.37934e-11
-3.3225e-11
-3.32534e-11
-3.15197e-11
-2.97575e-11
-3.06954e-11
-3.16902e-11
-3.2685e-11
-3.31113e-11
-3.26281e-11
-3.41913e-11
-3.70903e-11
-3.83693e-11
-3.69482e-11
-3.72324e-11
-3.6664e-11
-3.83693e-11
-3.79714e-11
-3.82556e-11
-4.05294e-11
-4.07852e-11
-4.11831e-11
-4.33147e-11
-4.1922e-11
-4.1581e-11
-3.94209e-11
-3.7943e-11
-3.46176e-11
-3.19744e-11
-2.85354e-11
-2.83364e-11
-2.71712e-11
-2.53522e-11
-2.26237e-11
-2.15437e-11
-1.9611e-11
-1.82183e-11
-1.70246e-11
-1.44951e-11
-9.35074e-12
-5.65592e-12
-1.84741e-12
-1.13687e-13
-7.95808e-13
-3.97904e-12
-3.97904e-12
-5.3717e-12
-7.7307e-12
-7.38964e-12
-8.49809e-12
-8.04334e-12
-1.00329e-11
-1.20508e-11
-1.44667e-11
-1.72236e-11
-1.95826e-11
-1.97247e-11
-2.10321e-11
-2.08047e-11
-1.9952e-11
-2.24532e-11
-2.44427e-11
-2.41016e-11
-2.52669e-11
-2.46985e-11
-2.52953e-11
-2.51532e-11
-2.13731e-11
-2.27374e-11
-2.49543e-11
-2.467e-11
-2.63469e-11
-2.92175e-11
-3.33102e-11
-3.66356e-11
-3.88241e-11
-4.30873e-11
-4.51053e-11
-4.4821e-11
-4.41673e-11
-4.36557e-11
-4.36273e-11
-4.17515e-11
-4.17515e-11
-3.85114e-11
-3.67208e-11
-3.3566e-11
-3.00702e-11
-2.73133e-11
-2.65459e-11
-2.43574e-11
-2.197e-11
-1.90994e-11
-1.71667e-11
-1.69393e-11
-1.75362e-11
-1.5433e-11
-1.63425e-11
-1.64562e-11
-1.53193e-11
-1.30456e-11
-1.23634e-11
-1.23066e-11
-1.12266e-11
-9.66338e-12
-8.44125e-12
-9.77707e-12
-9.0381e-12
-8.86757e-12
-9.63496e-12
-1.29887e-11
-1.3074e-11
-1.27045e-11
-1.26761e-11
-1.30171e-11
-1.46088e-11
-1.40687e-11
-1.2534e-11
-1.49214e-11
-1.20224e-11
-1.31877e-11
-1.13403e-11
-1.17382e-11
-1.1994e-11
-1.26192e-11
-1.4353e-11
-1.68257e-11
-1.60298e-11
-1.90425e-11
-2.24816e-11
-2.60059e-11
-2.75122e-11
-2.67164e-11
-2.91038e-11
-3.27418e-11
-3.49303e-11
-3.76303e-11
-4.08136e-11
-4.43947e-11
-4.54463e-11
-4.4281e-11
-4.47926e-11
-4.1581e-11
-4.01599e-11
-3.85114e-11
-3.85683e-11
-3.76019e-11
-3.80567e-11
-3.50155e-11
-3.63514e-11
-3.44471e-11
-3.34239e-11
-3.44471e-11
-3.02123e-11
-2.8308e-11
-2.48974e-11
-2.36469e-11
-2.35616e-11
-2.02363e-11
-1.7593e-11
-1.66835e-11
-1.48646e-11
-1.07718e-11
-9.06653e-12
-6.36646e-12
-8.44125e-12
-1.06581e-11
-1.15392e-11
-1.41256e-11
-1.26477e-11
-1.4154e-11
-1.28466e-11
-1.25624e-11
-1.15676e-11
-1.14824e-11
-1.06013e-11
-9.77707e-12
-1.06866e-11
-1.20792e-11
-1.1994e-11
-1.29603e-11
-1.29319e-11
-9.80549e-12
-1.01466e-11
-8.27072e-12
-6.82121e-12
-7.02016e-12
-7.36122e-12
-5.76961e-12
-6.0254e-12
-7.81597e-12
-9.2939e-12
-1.02318e-11
-1.32729e-11
-1.51203e-11
-1.59162e-11
-1.73088e-11
-1.96678e-11
-2.20837e-11
-2.42437e-11
-2.33626e-11
-2.40448e-11
-2.38742e-11
-2.35048e-11
-2.29647e-11
-2.30784e-11
-2.41016e-11
-2.52669e-11
-2.62048e-11
-2.75691e-11
-2.90754e-11
-2.88765e-11
-3.13207e-11
-3.11502e-11
-3.0866e-11
-3.00417e-11
-3.03828e-11
-3.12639e-11
-3.12355e-11
-3.36229e-11
-3.07523e-11
-3.00417e-11
-2.87912e-11
-2.61764e-11
-2.60059e-11
-2.49543e-11
-2.30784e-11
-2.29932e-11
-2.16005e-11
-2.12879e-11
-2.06057e-11
-1.99236e-11
-2.11173e-11
-2.09752e-11
-2.0691e-11
-2.01226e-11
-2.02931e-11
-1.85878e-11
-1.83036e-11
-1.85594e-11
-2.07763e-11
-2.39311e-11
-2.60911e-11
-2.81091e-11
-2.78817e-11
-2.92175e-11
-3.50155e-11
-3.74598e-11
-3.79146e-11
-3.73461e-11
-3.81135e-11
-3.87388e-11
-3.68061e-11
-3.49303e-11
-3.56692e-11
-3.49871e-11
-3.49587e-11
-3.23439e-11
-3.27987e-11
-3.62661e-11
-3.6863e-11
-3.64366e-11
-3.86535e-11
-3.82272e-11
-4.02167e-11
-4.08136e-11
-4.08136e-11
-3.79714e-11
-3.99609e-11
-3.9563e-11
-4.04725e-11
-4.0842e-11
-4.00178e-11
-3.93072e-11
-4.0302e-11
-3.89662e-11
-3.75735e-11
-3.5925e-11
-3.32534e-11
-3.14913e-11
-3.26281e-11
-3.18892e-11
-3.08944e-11
-2.94449e-11
-2.72848e-11
-2.51248e-11
-2.143e-11
-1.60014e-11
-1.24771e-11
-1.07434e-11
-7.64544e-12
-4.77485e-12
-1.53477e-12
1.0516e-12
2.33058e-12
6.25278e-13
-2.27374e-13
-1.42109e-12
-2.81375e-12
-6.30962e-12
-8.78231e-12
-9.63496e-12
-1.19655e-11
-1.42109e-11
-1.75646e-11
-2.06342e-11
-2.24816e-11
-2.45279e-11
-2.80806e-11
-2.94449e-11
-3.04112e-11
-2.82796e-11
-2.79101e-11
-2.69438e-11
-2.49543e-11
-2.4329e-11
-2.19131e-11
-2.20552e-11
-1.96678e-11
-1.59162e-11
-1.56604e-11
-1.46088e-11
-1.24771e-11
-1.14539e-11
-8.61178e-12
-1.06581e-11
-1.06013e-11
-1.05729e-11
-1.04308e-11
-9.18021e-12
-9.06653e-12
-9.77707e-12
-9.2939e-12
-9.37916e-12
-7.87281e-12
-8.27072e-12
-1.04308e-11
-8.04334e-12
-6.2812e-12
-7.27596e-12
-1.06866e-11
-1.23919e-11
-1.56035e-11
-1.82467e-11
-1.76783e-11
-2.27089e-11
-2.66311e-11
-2.97575e-11
-3.21734e-11
-3.35376e-11
-3.50724e-11
-3.47598e-11
-3.54987e-11
-3.53566e-11
-3.6664e-11
-3.66072e-11
-3.7204e-11
-3.47313e-11
-3.24576e-11
-2.85922e-11
-2.49258e-11
-2.35332e-11
-2.07763e-11
-1.91847e-11
-2.0151e-11
-2.09184e-11
-2.26805e-11
-2.30216e-11
-2.24532e-11
-1.90994e-11
-2.00089e-11
-2.1231e-11
-1.9071e-11
-1.80194e-11
-1.88436e-11
-1.90994e-11
-2.16858e-11
-2.16289e-11
-2.22826e-11
-2.42437e-11
-2.359e-11
-2.49543e-11
-2.71143e-11
-2.8507e-11
-2.78249e-11
-2.83649e-11
-2.56364e-11
-2.5608e-11
-2.5608e-11
-2.57216e-11
-2.78249e-11
-2.86207e-11
-3.16902e-11
-3.11218e-11
-3.21734e-11
-3.19176e-11
-3.14628e-11
-3.17186e-11
-3.49303e-11
-3.77156e-11
-3.67208e-11
-3.76872e-11
-3.54987e-11
-3.1946e-11
-3.16902e-11
-2.99849e-11
-2.83649e-11
-2.43006e-11
-1.9611e-11
-1.52625e-11
-1.08855e-11
-8.21387e-12
-7.87281e-12
-5.51381e-12
-6.33804e-12
-5.51381e-12
-6.62226e-12
-7.53175e-12
-7.81597e-12
-9.12337e-12
-9.15179e-12
-9.2939e-12
-8.98126e-12
-1.26477e-11
-1.22213e-11
-1.40972e-11
-1.52056e-11
-1.69678e-11
-1.87583e-11
-1.87299e-11
-1.94404e-11
-1.84741e-11
-1.81615e-11
-1.62288e-11
-1.73657e-11
-1.58877e-11
-1.69678e-11
-1.35287e-11
-1.40119e-11
-1.42677e-11
-1.47793e-11
-1.07434e-11
-9.63496e-12
-7.90124e-12
-8.44125e-12
-7.16227e-12
-6.65068e-12
-8.10019e-12
-9.86233e-12
-1.09139e-11
-1.21076e-11
-1.22498e-11
-1.19087e-11
-1.17666e-11
-1.12266e-11
-1.11129e-11
-8.81073e-12
-6.99174e-12
-7.24754e-12
-7.70228e-12
-9.2939e-12
-1.08571e-11
-9.6918e-12
-9.00968e-12
-9.72022e-12
-1.13971e-11
-1.22498e-11
-1.44098e-11
-1.70246e-11
-1.5774e-11
-1.50919e-11
-1.49782e-11
-1.52056e-11
-1.80478e-11
-1.44098e-11
-1.18234e-11
-7.87281e-12
-8.98126e-12
-1.1056e-11
-1.34435e-11
-1.63141e-11
-1.84173e-11
-2.06626e-11
-2.18847e-11
-2.17426e-11
-2.30784e-11
-2.27942e-11
-2.43574e-11
-2.53237e-11
-2.33342e-11
-2.34479e-11
-2.31353e-11
-2.33911e-11
-2.38174e-11
-2.16005e-11
-2.07763e-11
-2.11173e-11
-2.02078e-11
-2.04636e-11
-1.92131e-11
-2.04068e-11
-1.95826e-11
-2.04352e-11
-2.1771e-11
-2.07478e-11
-2.05205e-11
-1.86162e-11
-1.76215e-11
-1.98384e-11
-2.02363e-11
-2.00941e-11
-2.02931e-11
-1.66267e-11
-1.70814e-11
-1.9611e-11
-1.69109e-11
-1.64562e-11
-1.70246e-11
-1.85025e-11
-2.07194e-11
-1.93552e-11
-1.75078e-11
-1.9611e-11
-2.36469e-11
-2.31637e-11
-2.10605e-11
-2.04636e-11
-1.95257e-11
-1.91562e-11
-1.47224e-11
-1.21929e-11
-9.15179e-12
-9.00968e-12
-7.07701e-12
-3.69482e-12
-1.36424e-12
7.38964e-13
1.56319e-12
7.95808e-13
-9.9476e-13
-2.01794e-12
-1.98952e-12
-3.89377e-12
-5.00222e-12
-6.13909e-12
-7.75913e-12