/*--------------------------------*- C++ -*----------------------------------*\
  =========                 |
  \\      /  F ield         | OpenFOAM: The Open Source CFD Toolbox
   \\    /   O peration     | Website:  https://openfoam.org
    \\  /    A nd           | Version:  9
     \\/     M anipulation  |
\*---------------------------------------------------------------------------*/
FoamFile
{
    format      ascii;
    class       volVectorField;
    location    "0.011";
    object      U;
}
// * * * * * * * * * * * * * * * * * * * * * * * * * * * * * * * * * * * * * //

dimensions      [0 1 -1 0 0 0 0];

internalField   nonuniform List<vector> 
10000
(
(-1.62105e-12 0 0)
(-1.69691e-12 0 0)
(-1.66253e-12 0 0)
(-1.67384e-12 0 0)
(-1.59857e-12 0 0)
(-1.60247e-12 0 0)
(-1.66218e-12 0 0)
(-1.6825e-12 0 0)
(-1.56687e-12 0 0)
(-1.53418e-12 0 0)
(-1.58599e-12 0 0)
(-1.56614e-12 0 0)
(-1.49995e-12 0 0)
(-1.47328e-12 0 0)
(-1.62591e-12 0 0)
(-1.68167e-12 0 0)
(-1.69545e-12 0 0)
(-1.6813e-12 0 0)
(-1.60617e-12 0 0)
(-1.63678e-12 0 0)
(-1.68258e-12 0 0)
(-1.55863e-12 0 0)
(-1.55423e-12 0 0)
(-1.55721e-12 0 0)
(-1.50007e-12 0 0)
(-1.43457e-12 0 0)
(-1.47356e-12 0 0)
(-1.47666e-12 0 0)
(-1.57518e-12 0 0)
(-1.57967e-12 0 0)
(-1.62618e-12 0 0)
(-1.61372e-12 0 0)
(-1.49409e-12 0 0)
(-1.54453e-12 0 0)
(-1.53863e-12 0 0)
(-1.5862e-12 0 0)
(-1.63338e-12 0 0)
(-1.55442e-12 0 0)
(-1.60007e-12 0 0)
(-1.65565e-12 0 0)
(-1.62539e-12 0 0)
(-1.62155e-12 0 0)
(-1.65321e-12 0 0)
(-1.62746e-12 0 0)
(-1.61248e-12 0 0)
(-1.54355e-12 0 0)
(-1.58151e-12 0 0)
(-1.52286e-12 0 0)
(-1.48995e-12 0 0)
(-1.53708e-12 0 0)
(-1.5504e-12 0 0)
(-1.59781e-12 0 0)
(-1.6358e-12 0 0)
(-1.55751e-12 0 0)
(-1.57372e-12 0 0)
(-1.61656e-12 0 0)
(-1.56244e-12 0 0)
(-1.59628e-12 0 0)
(-1.60677e-12 0 0)
(-1.61894e-12 0 0)
(-1.71906e-12 0 0)
(-1.78803e-12 0 0)
(-1.87255e-12 0 0)
(-1.74514e-12 0 0)
(-1.57423e-12 0 0)
(-1.50901e-12 0 0)
(-1.39434e-12 0 0)
(-1.32049e-12 0 0)
(-1.23315e-12 0 0)
(-1.13116e-12 0 0)
(-1.0834e-12 0 0)
(-9.56218e-13 0 0)
(-7.91856e-13 0 0)
(-7.03056e-13 0 0)
(-7.21935e-13 0 0)
(-7.53974e-13 0 0)
(-7.91523e-13 0 0)
(-8.9401e-13 0 0)
(-8.56544e-13 0 0)
(-8.98181e-13 0 0)
(-8.91923e-13 0 0)
(-8.83979e-13 0 0)
(-9.78868e-13 0 0)
(-1.20584e-12 0 0)
(-1.31893e-12 0 0)
(-1.24315e-12 0 0)
(-1.17971e-12 0 0)
(-1.22968e-12 0 0)
(-1.15193e-12 0 0)
(-1.13325e-12 0 0)
(-1.20157e-12 0 0)
(-1.26179e-12 0 0)
(-1.3955e-12 0 0)
(-1.42434e-12 0 0)
(-1.53545e-12 0 0)
(-1.57567e-12 0 0)
(-1.52277e-12 0 0)
(-1.57445e-12 0 0)
(-1.59308e-12 0 0)
(-1.49431e-12 0 0)
(-1.44666e-12 0 0)
(-1.31692e-12 0 0)
(-1.21885e-12 0 0)
(-1.15085e-12 0 0)
(-9.6607e-13 0 0)
(-9.25787e-13 0 0)
(-9.14751e-13 0 0)
(-8.57826e-13 0 0)
(-7.80792e-13 0 0)
(-8.06731e-13 0 0)
(-8.27223e-13 0 0)
(-6.98369e-13 0 0)
(-7.58529e-13 0 0)
(-8.22341e-13 0 0)
(-8.10781e-13 0 0)
(-8.23735e-13 0 0)
(-8.66018e-13 0 0)
(-7.36498e-13 0 0)
(-7.49261e-13 0 0)
(-7.07027e-13 0 0)
(-5.7695e-13 0 0)
(-5.59331e-13 0 0)
(-4.5681e-13 0 0)
(-3.3012e-13 0 0)
(-3.59546e-13 0 0)
(-4.81204e-13 0 0)
(-4.48196e-13 0 0)
(-4.58705e-13 0 0)
(-5.40431e-13 0 0)
(-7.3163e-13 0 0)
(-8.67335e-13 0 0)
(-1.06202e-12 0 0)
(-1.0477e-12 0 0)
(-9.47136e-13 0 0)
(-9.67168e-13 0 0)
(-9.43829e-13 0 0)
(-9.64381e-13 0 0)
(-9.68578e-13 0 0)
(-1.09469e-12 0 0)
(-1.17061e-12 0 0)
(-1.22426e-12 0 0)
(-1.25498e-12 0 0)
(-1.16899e-12 0 0)
(-1.10456e-12 0 0)
(-9.97437e-13 0 0)
(-9.2807e-13 0 0)
(-9.74996e-13 0 0)
(-9.0801e-13 0 0)
(-8.78006e-13 0 0)
(-9.04805e-13 0 0)
(-1.06591e-12 0 0)
(-1.23751e-12 0 0)
(-1.37665e-12 0 0)
(-1.43679e-12 0 0)
(-1.38928e-12 0 0)
(-1.33856e-12 0 0)
(-1.43327e-12 0 0)
(-1.45596e-12 0 0)
(-1.36231e-12 0 0)
(-1.28535e-12 0 0)
(-1.30332e-12 0 0)
(-1.36134e-12 0 0)
(-1.33953e-12 0 0)
(-1.23799e-12 0 0)
(-1.13947e-12 0 0)
(-1.12194e-12 0 0)
(-1.19621e-12 0 0)
(-1.2693e-12 0 0)
(-1.29648e-12 0 0)
(-1.38324e-12 0 0)
(-1.2555e-12 0 0)
(-1.03268e-12 0 0)
(-1.01796e-12 0 0)
(-9.40039e-13 0 0)
(-9.97732e-13 0 0)
(-1.02259e-12 0 0)
(-1.02712e-12 0 0)
(-1.0615e-12 0 0)
(-9.25767e-13 0 0)
(-8.90177e-13 0 0)
(-9.30798e-13 0 0)
(-8.44867e-13 0 0)
(-8.72403e-13 0 0)
(-8.68132e-13 0 0)
(-8.35176e-13 0 0)
(-8.74558e-13 0 0)
(-8.30327e-13 0 0)
(-9.39487e-13 0 0)
(-1.01495e-12 0 0)
(-1.11274e-12 0 0)
(-1.19202e-12 0 0)
(-1.2617e-12 0 0)
(-1.38979e-12 0 0)
(-1.41999e-12 0 0)
(-1.4024e-12 0 0)
(-1.44531e-12 0 0)
(-1.48423e-12 0 0)
(-1.4284e-12 0 0)
(-1.34879e-12 0 0)
(-1.27581e-12 0 0)
(-1.19749e-12 0 0)
(-1.16786e-12 0 0)
(-1.20383e-12 0 0)
(-1.18454e-12 0 0)
(-1.26336e-12 0 0)
(-1.27675e-12 0 0)
(-1.26772e-12 0 0)
(-1.36329e-12 0 0)
(-1.62922e-12 0 0)
(-1.84471e-12 0 0)
(-1.94653e-12 0 0)
(-2.02351e-12 0 0)
(-2.06767e-12 0 0)
(-2.15373e-12 0 0)
(-2.1268e-12 0 0)
(-2.15548e-12 0 0)
(-2.15791e-12 0 0)
(-2.1948e-12 0 0)
(-2.17723e-12 0 0)
(-2.18e-12 0 0)
(-2.24884e-12 0 0)
(-2.30877e-12 0 0)
(-2.24115e-12 0 0)
(-2.13255e-12 0 0)
(-2.15104e-12 0 0)
(-2.13652e-12 0 0)
(-2.17498e-12 0 0)
(-2.1549e-12 0 0)
(-2.18724e-12 0 0)
(-2.14949e-12 0 0)
(-2.19093e-12 0 0)
(-2.20815e-12 0 0)
(-2.17626e-12 0 0)
(-2.08592e-12 0 0)
(-2.03954e-12 0 0)
(-2.00889e-12 0 0)
(-1.94138e-12 0 0)
(-1.79902e-12 0 0)
(-1.8325e-12 0 0)
(-1.8178e-12 0 0)
(-1.87586e-12 0 0)
(-1.94972e-12 0 0)
(-1.92447e-12 0 0)
(-1.89292e-12 0 0)
(-1.84206e-12 0 0)
(-1.85002e-12 0 0)
(-1.83004e-12 0 0)
(-1.80406e-12 0 0)
(-1.81583e-12 0 0)
(-1.79198e-12 0 0)
(-1.7774e-12 0 0)
(-1.71606e-12 0 0)
(-1.7125e-12 0 0)
(-1.74671e-12 0 0)
(-1.80296e-12 0 0)
(-1.93004e-12 0 0)
(-1.97608e-12 0 0)
(-1.95199e-12 0 0)
(-1.95005e-12 0 0)
(-1.98301e-12 0 0)
(-1.88563e-12 0 0)
(-1.86586e-12 0 0)
(-1.9143e-12 0 0)
(-1.95446e-12 0 0)
(-2.01661e-12 0 0)
(-2.18076e-12 0 0)
(-2.15339e-12 0 0)
(-2.09991e-12 0 0)
(-2.0971e-12 0 0)
(-2.11182e-12 0 0)
(-2.22419e-12 0 0)
(-2.12973e-12 0 0)
(-2.04718e-12 0 0)
(-1.93974e-12 0 0)
(-1.85269e-12 0 0)
(-1.90365e-12 0 0)
(-1.88363e-12 0 0)
(-1.95284e-12 0 0)
(-1.96417e-12 0 0)
(-1.90588e-12 0 0)
(-1.99841e-12 0 0)
(-2.13794e-12 0 0)
(-2.27413e-12 0 0)
(-2.43473e-12 0 0)
(-2.5603e-12 0 0)
(-2.61474e-12 0 0)
(-2.7422e-12 0 0)
(-2.87256e-12 0 0)
(-2.9218e-12 0 0)
(-2.86671e-12 0 0)
(-2.78727e-12 0 0)
(-2.80817e-12 0 0)
(-2.761e-12 0 0)
(-2.55385e-12 0 0)
(-2.51653e-12 0 0)
(-2.42111e-12 0 0)
(-2.32382e-12 0 0)
(-2.2264e-12 0 0)
(-2.19132e-12 0 0)
(-2.08422e-12 0 0)
(-1.97723e-12 0 0)
(-2.00017e-12 0 0)
(-1.99908e-12 0 0)
(-2.02129e-12 0 0)
(-2.0967e-12 0 0)
(-2.11319e-12 0 0)
(-2.11665e-12 0 0)
(-2.1399e-12 0 0)
(-2.06881e-12 0 0)
(-2.08973e-12 0 0)
(-2.08751e-12 0 0)
(-2.01239e-12 0 0)
(-1.89984e-12 0 0)
(-1.83738e-12 0 0)
(-1.89418e-12 0 0)
(-2.00255e-12 0 0)
(-2.08925e-12 0 0)
(-2.04752e-12 0 0)
(-1.98509e-12 0 0)
(-1.99627e-12 0 0)
(-2.13049e-12 0 0)
(-2.17226e-12 0 0)
(-2.15006e-12 0 0)
(-2.10416e-12 0 0)
(-2.11391e-12 0 0)
(-2.08744e-12 0 0)
(-2.05306e-12 0 0)
(-2.02758e-12 0 0)
(-1.9661e-12 0 0)
(-1.92144e-12 0 0)
(-1.93617e-12 0 0)
(-2.00471e-12 0 0)
(-2.03184e-12 0 0)
(-2.09832e-12 0 0)
(-2.15787e-12 0 0)
(-2.18568e-12 0 0)
(-2.37227e-12 0 0)
(-2.47099e-12 0 0)
(-2.38495e-12 0 0)
(-2.38755e-12 0 0)
(-2.32616e-12 0 0)
(-2.27939e-12 0 0)
(-2.2147e-12 0 0)
(-2.08451e-12 0 0)
(-1.98269e-12 0 0)
(-1.87458e-12 0 0)
(-1.79998e-12 0 0)
(-1.83864e-12 0 0)
(-1.81995e-12 0 0)
(-1.80202e-12 0 0)
(-1.73943e-12 0 0)
(-1.74512e-12 0 0)
(-1.77556e-12 0 0)
(-1.87528e-12 0 0)
(-1.75312e-12 0 0)
(-1.8201e-12 0 0)
(-1.88634e-12 0 0)
(-1.82661e-12 0 0)
(-1.76049e-12 0 0)
(-1.71584e-12 0 0)
(-1.67733e-12 0 0)
(-1.70997e-12 0 0)
(-1.72885e-12 0 0)
(-1.76599e-12 0 0)
(-1.84988e-12 0 0)
(-1.89482e-12 0 0)
(-1.90771e-12 0 0)
(-1.90225e-12 0 0)
(-1.92325e-12 0 0)
(-2.0471e-12 0 0)
(-2.21566e-12 0 0)
(-2.35499e-12 0 0)
(-2.48183e-12 0 0)
(-2.52038e-12 0 0)
(-2.61379e-12 0 0)
(-2.66175e-12 0 0)
(-2.68641e-12 0 0)
(-2.72889e-12 0 0)
(-2.71142e-12 0 0)
(-2.68117e-12 0 0)
(-2.62743e-12 0 0)
(-2.54863e-12 0 0)
(-2.51756e-12 0 0)
(-2.48065e-12 0 0)
(-2.50354e-12 0 0)
(-2.63335e-12 0 0)
(-2.50782e-12 0 0)
(-2.39244e-12 0 0)
(-2.37701e-12 0 0)
(-2.45367e-12 0 0)
(-2.49387e-12 0 0)
(-2.33867e-12 0 0)
(-2.05385e-12 0 0)
(-1.91214e-12 0 0)
(-1.84798e-12 0 0)
(-1.79313e-12 0 0)
(-1.78712e-12 0 0)
(-1.80206e-12 0 0)
(-1.70648e-12 0 0)
(-1.63639e-12 0 0)
(-1.51295e-12 0 0)
(-1.50682e-12 0 0)
(-1.4955e-12 0 0)
(-1.58402e-12 0 0)
(-1.68641e-12 0 0)
(-1.69395e-12 0 0)
(-1.66504e-12 0 0)
(-1.63759e-12 0 0)
(-1.60847e-12 0 0)
(-1.62713e-12 0 0)
(-1.67005e-12 0 0)
(-1.60407e-12 0 0)
(-1.65354e-12 0 0)
(-1.71736e-12 0 0)
(-1.63021e-12 0 0)
(-1.55215e-12 0 0)
(-1.53304e-12 0 0)
(-1.57563e-12 0 0)
(-1.49789e-12 0 0)
(-1.36659e-12 0 0)
(-1.27332e-12 0 0)
(-1.08646e-12 0 0)
(-8.83241e-13 0 0)
(-8.35781e-13 0 0)
(-9.45443e-13 0 0)
(-1.05664e-12 0 0)
(-1.12953e-12 0 0)
(-1.1143e-12 0 0)
(-1.10861e-12 0 0)
(-1.17557e-12 0 0)
(-1.21929e-12 0 0)
(-1.26519e-12 0 0)
(-1.3076e-12 0 0)
(-1.42178e-12 0 0)
(-1.39005e-12 0 0)
(-1.41713e-12 0 0)
(-1.45681e-12 0 0)
(-1.38611e-12 0 0)
(-1.31979e-12 0 0)
(-1.25705e-12 0 0)
(-1.24623e-12 0 0)
(-1.23733e-12 0 0)
(-1.37515e-12 0 0)
(-1.5133e-12 0 0)
(-1.58226e-12 0 0)
(-1.61408e-12 0 0)
(-1.54564e-12 0 0)
(-1.52272e-12 0 0)
(-1.54666e-12 0 0)
(-1.62374e-12 0 0)
(-1.65727e-12 0 0)
(-1.74418e-12 0 0)
(-1.81585e-12 0 0)
(-1.89475e-12 0 0)
(-2.09947e-12 0 0)
(-2.40769e-12 0 0)
(-2.56354e-12 0 0)
(-2.5549e-12 0 0)
(-2.42217e-12 0 0)
(-2.35228e-12 0 0)
(-2.39597e-12 0 0)
(-2.38019e-12 0 0)
(-2.43705e-12 0 0)
(-2.54923e-12 0 0)
(-2.61883e-12 0 0)
(-2.58713e-12 0 0)
(-2.59488e-12 0 0)
(-2.58925e-12 0 0)
(-2.60513e-12 0 0)
(-2.66484e-12 0 0)
(-2.64495e-12 0 0)
(-2.6009e-12 0 0)
(-2.72008e-12 0 0)
(-2.76267e-12 0 0)
(-2.71553e-12 0 0)
(-2.79754e-12 0 0)
(-2.95673e-12 0 0)
(-3.1095e-12 0 0)
(-3.21878e-12 0 0)
(-3.21924e-12 0 0)
(-3.30261e-12 0 0)
(-3.34206e-12 0 0)
(-3.34056e-12 0 0)
(-3.33033e-12 0 0)
(-3.18898e-12 0 0)
(-3.16047e-12 0 0)
(-3.14624e-12 0 0)
(-3.18964e-12 0 0)
(-3.14877e-12 0 0)
(-3.17088e-12 0 0)
(-3.22754e-12 0 0)
(-3.16155e-12 0 0)
(-3.08415e-12 0 0)
(-3.06701e-12 0 0)
(-3.01493e-12 0 0)
(-2.90302e-12 0 0)
(-2.99002e-12 0 0)
(-3.08721e-12 0 0)
(-3.05112e-12 0 0)
(-2.91569e-12 0 0)
(-2.74239e-12 0 0)
(-2.65555e-12 0 0)
(-2.68458e-12 0 0)
(-2.66572e-12 0 0)
(-2.58361e-12 0 0)
(-2.4902e-12 0 0)
(-2.51762e-12 0 0)
(-2.46397e-12 0 0)
(-2.42086e-12 0 0)
(-2.47015e-12 0 0)
(-2.51287e-12 0 0)
(-2.53258e-12 0 0)
(-2.48954e-12 0 0)
(-2.48656e-12 0 0)
(-2.59888e-12 0 0)
(-2.68318e-12 0 0)
(-2.69397e-12 0 0)
(-2.7551e-12 0 0)
(-2.73738e-12 0 0)
(-2.7449e-12 0 0)
(-2.72553e-12 0 0)
(-2.55331e-12 0 0)
(-2.62786e-12 0 0)
(-2.71175e-12 0 0)
(-2.70581e-12 0 0)
(-2.77016e-12 0 0)
(-2.77248e-12 0 0)
(-2.58354e-12 0 0)
(-2.44198e-12 0 0)
(-2.32047e-12 0 0)
(-2.24527e-12 0 0)
(-2.19191e-12 0 0)
(-2.13904e-12 0 0)
(-2.05121e-12 0 0)
(-1.8627e-12 0 0)
(-1.78451e-12 0 0)
(-1.76026e-12 0 0)
(-1.79998e-12 0 0)
(-1.89174e-12 0 0)
(-1.91661e-12 0 0)
(-1.90665e-12 0 0)
(-2.01641e-12 0 0)
(-2.1764e-12 0 0)
(-2.24667e-12 0 0)
(-2.28617e-12 0 0)
(-2.27094e-12 0 0)
(-2.32485e-12 0 0)
(-2.38815e-12 0 0)
(-2.45974e-12 0 0)
(-2.56363e-12 0 0)
(-2.7531e-12 0 0)
(-2.88531e-12 0 0)
(-2.88651e-12 0 0)
(-2.82573e-12 0 0)
(-2.8603e-12 0 0)
(-2.96024e-12 0 0)
(-2.90497e-12 0 0)
(-2.86835e-12 0 0)
(-2.77218e-12 0 0)
(-2.72067e-12 0 0)
(-2.59791e-12 0 0)
(-2.47781e-12 0 0)
(-2.48211e-12 0 0)
(-2.41202e-12 0 0)
(-2.29415e-12 0 0)
(-2.22203e-12 0 0)
(-2.20035e-12 0 0)
(-2.21001e-12 0 0)
(-2.14107e-12 0 0)
(-2.1979e-12 0 0)
(-2.14721e-12 0 0)
(-2.06191e-12 0 0)
(-2.20854e-12 0 0)
(-2.29977e-12 0 0)
(-2.23223e-12 0 0)
(-2.16791e-12 0 0)
(-2.02337e-12 0 0)
(-1.86054e-12 0 0)
(-1.77399e-12 0 0)
(-1.78955e-12 0 0)
(-1.78972e-12 0 0)
(-1.68313e-12 0 0)
(-1.63089e-12 0 0)
(-1.54094e-12 0 0)
(-1.50069e-12 0 0)
(-1.55263e-12 0 0)
(-1.57256e-12 0 0)
(-1.46325e-12 0 0)
(-1.51791e-12 0 0)
(-1.51867e-12 0 0)
(-1.55361e-12 0 0)
(-1.49452e-12 0 0)
(-1.52817e-12 0 0)
(-1.62571e-12 0 0)
(-1.63835e-12 0 0)
(-1.7238e-12 0 0)
(-1.80126e-12 0 0)
(-1.72312e-12 0 0)
(-1.63462e-12 0 0)
(-1.57905e-12 0 0)
(-1.52098e-12 0 0)
(-1.55407e-12 0 0)
(-1.47654e-12 0 0)
(-1.39995e-12 0 0)
(-1.42064e-12 0 0)
(-1.44416e-12 0 0)
(-1.36503e-12 0 0)
(-1.28128e-12 0 0)
(-1.18737e-12 0 0)
(-1.19146e-12 0 0)
(-1.17311e-12 0 0)
(-1.10542e-12 0 0)
(-1.14359e-12 0 0)
(-1.07163e-12 0 0)
(-1.04192e-12 0 0)
(-1.06084e-12 0 0)
(-1.02037e-12 0 0)
(-1.12495e-12 0 0)
(-1.19328e-12 0 0)
(-1.29023e-12 0 0)
(-1.4527e-12 0 0)
(-1.591e-12 0 0)
(-1.61594e-12 0 0)
(-1.612e-12 0 0)
(-1.65901e-12 0 0)
(-1.69586e-12 0 0)
(-1.65253e-12 0 0)
(-1.62872e-12 0 0)
(-1.68386e-12 0 0)
(-1.75971e-12 0 0)
(-1.65497e-12 0 0)
(-1.54347e-12 0 0)
(-1.40875e-12 0 0)
(-1.3398e-12 0 0)
(-1.25478e-12 0 0)
(-1.20713e-12 0 0)
(-1.10541e-12 0 0)
(-1.16425e-12 0 0)
(-1.22995e-12 0 0)
(-1.18854e-12 0 0)
(-1.11595e-12 0 0)
(-1.15167e-12 0 0)
(-1.27362e-12 0 0)
(-1.39397e-12 0 0)
(-1.45246e-12 0 0)
(-1.48895e-12 0 0)
(-1.4166e-12 0 0)
(-1.3617e-12 0 0)
(-1.40352e-12 0 0)
(-1.45133e-12 0 0)
(-1.40599e-12 0 0)
(-1.3633e-12 0 0)
(-1.41075e-12 0 0)
(-1.37122e-12 0 0)
(-1.32043e-12 0 0)
(-1.44678e-12 0 0)
(-1.50129e-12 0 0)
(-1.62056e-12 0 0)
(-1.666e-12 0 0)
(-1.71352e-12 0 0)
(-1.72507e-12 0 0)
(-1.81087e-12 0 0)
(-1.8969e-12 0 0)
(-1.84562e-12 0 0)
(-1.72119e-12 0 0)
(-1.66978e-12 0 0)
(-1.7044e-12 0 0)
(-1.60093e-12 0 0)
(-1.3169e-12 0 0)
(-1.11138e-12 0 0)
(-9.02888e-13 0 0)
(-8.80091e-13 0 0)
(-9.47982e-13 0 0)
(-1.07863e-12 0 0)
(-1.16384e-12 0 0)
(-1.01743e-12 0 0)
(-1.02787e-12 0 0)
(-9.95515e-13 0 0)
(-9.52081e-13 0 0)
(-9.38288e-13 0 0)
(-9.57946e-13 0 0)
(-1.05634e-12 0 0)
(-1.21704e-12 0 0)
(-1.48213e-12 0 0)
(-1.70308e-12 0 0)
(-1.79109e-12 0 0)
(-1.92989e-12 0 0)
(-2.10812e-12 0 0)
(-2.16937e-12 0 0)
(-2.24412e-12 0 0)
(-2.31056e-12 0 0)
(-2.29072e-12 0 0)
(-2.16146e-12 0 0)
(-2.04754e-12 0 0)
(-1.87477e-12 0 0)
(-1.75818e-12 0 0)
(-1.73008e-12 0 0)
(-1.5549e-12 0 0)
(-1.42382e-12 0 0)
(-1.49036e-12 0 0)
(-1.64766e-12 0 0)
(-1.80205e-12 0 0)
(-1.76529e-12 0 0)
(-1.77236e-12 0 0)
(-1.76474e-12 0 0)
(-1.71397e-12 0 0)
(-1.71484e-12 0 0)
(-1.66982e-12 0 0)
(-1.55669e-12 0 0)
(-1.47753e-12 0 0)
(-1.58063e-12 0 0)
(-1.58324e-12 0 0)
(-1.56289e-12 0 0)
(-1.59264e-12 0 0)
(-1.63713e-12 0 0)
(-1.72229e-12 0 0)
(-1.82093e-12 0 0)
(-1.87808e-12 0 0)
(-1.99157e-12 0 0)
(-2.0323e-12 0 0)
(-1.93852e-12 0 0)
(-1.98963e-12 0 0)
(-1.99326e-12 0 0)
(-1.97019e-12 0 0)
(-2.01589e-12 0 0)
(-1.91486e-12 0 0)
(-1.83553e-12 0 0)
(-1.79127e-12 0 0)
(-1.7642e-12 0 0)
(-1.62151e-12 0 0)
(-1.65647e-12 0 0)
(-1.66067e-12 0 0)
(-1.6325e-12 0 0)
(-1.75452e-12 0 0)
(-1.68783e-12 0 0)
(-1.56461e-12 0 0)
(-1.56893e-12 0 0)
(-1.5213e-12 0 0)
(-1.39256e-12 0 0)
(-1.27418e-12 0 0)
(-1.31782e-12 0 0)
(-1.38664e-12 0 0)
(-1.45501e-12 0 0)
(-1.5133e-12 0 0)
(-1.54528e-12 0 0)
(-1.48282e-12 0 0)
(-1.46119e-12 0 0)
(-1.3733e-12 0 0)
(-1.44937e-12 0 0)
(-1.49232e-12 0 0)
(-1.47133e-12 0 0)
(-1.49638e-12 0 0)
(-1.55983e-12 0 0)
(-1.67061e-12 0 0)
(-1.69283e-12 0 0)
(-1.77921e-12 0 0)
(-1.81307e-12 0 0)
(-1.72873e-12 0 0)
(-1.69121e-12 0 0)
(-1.58677e-12 0 0)
(-1.46438e-12 0 0)
(-1.4687e-12 0 0)
(-1.52198e-12 0 0)
(-1.48821e-12 0 0)
(-1.35064e-12 0 0)
(-1.31388e-12 0 0)
(-1.27308e-12 0 0)
(-1.17898e-12 0 0)
(-1.16545e-12 0 0)
(-1.13521e-12 0 0)
(-1.04319e-12 0 0)
(-9.85983e-13 0 0)
(-9.60603e-13 0 0)
(-9.66158e-13 0 0)
(-8.85791e-13 0 0)
(-8.67808e-13 0 0)
(-7.54697e-13 0 0)
(-7.53365e-13 0 0)
(-6.79393e-13 0 0)
(-5.9576e-13 0 0)
(-5.59531e-13 0 0)
(-5.19558e-13 0 0)
(-4.40165e-13 0 0)
(-4.37612e-13 0 0)
(-4.76472e-13 0 0)
(-3.93676e-13 0 0)
(-2.87699e-13 0 0)
(-3.83009e-13 0 0)
(-4.36398e-13 0 0)
(-3.77569e-13 0 0)
(-3.72481e-13 0 0)
(-3.48541e-13 0 0)
(-3.82953e-13 0 0)
(-3.14521e-13 0 0)
(-3.00362e-13 0 0)
(-2.66955e-13 0 0)
(-2.003e-13 0 0)
(-1.799e-13 0 0)
(-4.87469e-14 0 0)
(-1.5987e-15 0 0)
(8.09e-14 0 0)
(1.03276e-13 0 0)
(-1.10563e-14 0 0)
(2.98946e-14 0 0)
(-8.56442e-14 0 0)
(-2.75483e-13 0 0)
(-4.15991e-13 0 0)
(-5.19667e-13 0 0)
(-6.73945e-13 0 0)
(-8.21144e-13 0 0)
(-9.15268e-13 0 0)
(-9.2542e-13 0 0)
(-9.50534e-13 0 0)
(-9.59444e-13 0 0)
(-9.38555e-13 0 0)
(-1.01844e-12 0 0)
(-1.03989e-12 0 0)
(-1.08525e-12 0 0)
(-1.04368e-12 0 0)
(-9.19825e-13 0 0)
(-9.25446e-13 0 0)
(-8.63225e-13 0 0)
(-8.10201e-13 0 0)
(-6.71458e-13 0 0)
(-6.58398e-13 0 0)
(-6.19765e-13 0 0)
(-5.40883e-13 0 0)
(-4.72804e-13 0 0)
(-4.82266e-13 0 0)
(-4.60421e-13 0 0)
(-4.06082e-13 0 0)
(-3.1978e-13 0 0)
(-2.91568e-13 0 0)
(-2.5683e-13 0 0)
(-2.56619e-13 0 0)
(-1.51975e-13 0 0)
(-1.58261e-13 0 0)
(-2.52559e-13 0 0)
(-1.85087e-13 0 0)
(-1.38115e-13 0 0)
(-3.61706e-14 0 0)
(1.21254e-13 0 0)
(2.46207e-13 0 0)
(2.87328e-13 0 0)
(3.56942e-13 0 0)
(4.46701e-13 0 0)
(5.17718e-13 0 0)
(4.85975e-13 0 0)
(3.98776e-13 0 0)
(4.3453e-13 0 0)
(5.21816e-13 0 0)
(5.63625e-13 0 0)
(4.96798e-13 0 0)
(4.51922e-13 0 0)
(4.90276e-13 0 0)
(4.12286e-13 0 0)
(2.45447e-13 0 0)
(3.02641e-13 0 0)
(3.76415e-13 0 0)
(3.50067e-13 0 0)
(3.01483e-13 0 0)
(2.76343e-13 0 0)
(2.95214e-13 0 0)
(2.87941e-13 0 0)
(3.25376e-13 0 0)
(3.80891e-13 0 0)
(4.32655e-13 0 0)
(4.52573e-13 0 0)
(4.19157e-13 0 0)
(3.94576e-13 0 0)
(3.17762e-13 0 0)
(1.87389e-13 0 0)
(4.61595e-14 0 0)
(-3.10657e-13 0 0)
(-4.60462e-13 0 0)
(-4.32199e-13 0 0)
(-3.74705e-13 0 0)
(-3.8428e-13 0 0)
(-3.34514e-13 0 0)
(-3.13976e-13 0 0)
(-2.82879e-13 0 0)
(-3.46288e-13 0 0)
(-4.45161e-13 0 0)
(-6.49168e-13 0 0)
(-7.5764e-13 0 0)
(-8.61054e-13 0 0)
(-7.91928e-13 0 0)
(-7.28537e-13 0 0)
(-7.17782e-13 0 0)
(-7.30975e-13 0 0)
(-6.76757e-13 0 0)
(-6.1772e-13 0 0)
(-6.00374e-13 0 0)
(-6.17908e-13 0 0)
(-6.79871e-13 0 0)
(-6.92652e-13 0 0)
(-6.01803e-13 0 0)
(-5.98452e-13 0 0)
(-6.28101e-13 0 0)
(-5.8571e-13 0 0)
(-5.61882e-13 0 0)
(-4.16713e-13 0 0)
(-4.55754e-13 0 0)
(-4.9118e-13 0 0)
(-5.19586e-13 0 0)
(-5.31582e-13 0 0)
(-4.3637e-13 0 0)
(-3.62129e-13 0 0)
(-3.80042e-13 0 0)
(-3.54235e-13 0 0)
(-3.11441e-13 0 0)
(-2.39761e-13 0 0)
(-2.75882e-13 0 0)
(-3.32991e-13 0 0)
(-3.62917e-13 0 0)
(-3.60845e-13 0 0)
(-3.02257e-13 0 0)
(-2.49986e-13 0 0)
(-1.21528e-13 0 0)
(-1.15765e-13 0 0)
(-4.01421e-14 0 0)
(-8.2027e-14 0 0)
(-4.63881e-14 0 0)
(-8.47228e-14 0 0)
(-9.79507e-14 0 0)
(-1.1931e-13 0 0)
(-5.61882e-14 0 0)
(-8.01898e-14 0 0)
(2.93351e-14 0 0)
(-5.89549e-14 0 0)
(-2.00907e-13 0 0)
(-1.47755e-13 0 0)
(-1.89129e-13 0 0)
(-3.0439e-13 0 0)
(-2.083e-13 0 0)
(-1.03733e-13 0 0)
(-7.40546e-14 0 0)
(-7.29869e-14 0 0)
(-2.83664e-14 0 0)
(4.56967e-14 0 0)
(1.96553e-13 0 0)
(3.01044e-13 0 0)
(4.05463e-13 0 0)
(3.5649e-13 0 0)
(3.01583e-13 0 0)
(3.02082e-13 0 0)
(2.83743e-13 0 0)
(3.91172e-13 0 0)
(5.26317e-13 0 0)
(7.71501e-13 0 0)
(1.5735e-12 0 0)
(4.71356e-12 0 0)
(1.5554e-11 0 0)
(5.02211e-11 0 0)
(1.63131e-10 0 0)
(5.32511e-10 0 0)
(1.74397e-09 0 0)
(5.70788e-09 0 0)
(1.86916e-08 0 0)
(6.12095e-08 0 0)
(2.00448e-07 0 0)
(6.564e-07 0 0)
(2.14925e-06 0 0)
(7.03645e-06 0 0)
(2.30335e-05 0 0)
(7.53868e-05 0 0)
(0.000246688 0 0)
(0.000807063 0 0)
(0.00263977 0 0)
(0.00863225 0 0)
(0.0282223 0 0)
(0.0922657 0 0)
(0.301593 0 0)
(0.994704 0 0)
(2.94755 0 0)
(5.04636 0 0)
(6.21744 0 0)
(6.73674 0 0)
(7.12701 0 0)
(7.25791 0 0)
(7.31894 0 0)
(7.4197 0 0)
(7.49005 0 0)
(7.49432 0 0)
(7.50994 0 0)
(7.57922 0 0)
(7.64088 0 0)
(7.65362 0 0)
(7.65396 0 0)
(7.70762 0 0)
(7.76004 0 0)
(7.77855 0 0)
(7.77062 0 0)
(7.80473 0 0)
(7.84499 0 0)
(7.86243 0 0)
(7.85218 0 0)
(7.86973 0 0)
(7.89447 0 0)
(7.90521 0 0)
(7.89609 0 0)
(7.90187 0 0)
(7.91232 0 0)
(7.91508 0 0)
(7.9128 0 0)
(7.91811 0 0)
(7.9393 0 0)
(7.99825 0 0)
(8.1712 0 0)
(8.71954 0 0)
(10.3768 0 0)
(12.5692 0 0)
(13.9048 0 0)
(14.5348 0 0)
(14.9841 0 0)
(15.1627 0 0)
(15.2461 0 0)
(15.3608 0 0)
(15.429 0 0)
(15.4332 0 0)
(15.4493 0 0)
(15.5109 0 0)
(15.565 0 0)
(15.575 0 0)
(15.5743 0 0)
(15.6197 0 0)
(15.6662 0 0)
(15.6845 0 0)
(15.6773 0 0)
(15.7038 0 0)
(15.7407 0 0)
(15.7609 0 0)
(15.7535 0 0)
(15.7651 0 0)
(15.7903 0 0)
(15.8068 0 0)
(15.8023 0 0)
(15.8048 0 0)
(15.8195 0 0)
(15.8304 0 0)
(15.8288 0 0)
(15.8276 0 0)
(15.8348 0 0)
(15.8409 0 0)
(15.8408 0 0)
(15.839 0 0)
(15.8416 0 0)
(15.8446 0 0)
(15.8448 0 0)
(15.8436 0 0)
(15.8443 0 0)
(15.8455 0 0)
(15.8456 0 0)
(15.845 0 0)
(15.8451 0 0)
(15.8455 0 0)
(15.8456 0 0)
(15.8454 0 0)
(15.8453 0 0)
(15.8454 0 0)
(15.8455 0 0)
(15.8454 0 0)
(15.8454 0 0)
(15.8454 0 0)
(15.8455 0 0)
(15.8455 0 0)
(15.8454 0 0)
(15.8454 0 0)
(15.8454 0 0)
(15.8454 0 0)
(15.8454 0 0)
(15.8454 0 0)
(15.8454 0 0)
(15.8454 0 0)
(15.8454 0 0)
(15.8455 0 0)
(15.8455 0 0)
(15.8455 0 0)
(15.8455 0 0)
(15.8455 0 0)
(15.8455 0 0)
(15.8455 0 0)
(15.8455 0 0)
(15.8455 0 0)
(15.8455 0 0)
(15.8455 0 0)
(15.8454 0 0)
(15.8454 0 0)
(15.8454 0 0)
(15.8454 0 0)
(15.8455 0 0)
(15.8455 0 0)
(15.8455 0 0)
(15.8455 0 0)
(15.8455 0 0)
(15.8455 0 0)
(15.8454 0 0)
(15.8454 0 0)
(15.8454 0 0)
(15.8454 0 0)
(15.8454 0 0)
(15.8454 0 0)
(15.8454 0 0)
(15.8454 0 0)
(15.8454 0 0)
(15.8454 0 0)
(15.8454 0 0)
(15.8454 0 0)
(15.8455 0 0)
(15.8458 0 0)
(15.8469 0 0)
(15.8502 0 0)
(15.8611 0 0)
(15.8965 0 0)
(16.0116 0 0)
(16.3895 0 0)
(17.4703 0 0)
(18.6883 0 0)
(19.3903 0 0)
(19.6802 0 0)
(19.9247 0 0)
(20.0196 0 0)
(20.0337 0 0)
(20.0902 0 0)
(20.1543 0 0)
(20.1919 0 0)
(20.1913 0 0)
(20.2178 0 0)
(20.2791 0 0)
(20.3305 0 0)
(20.3398 0 0)
(20.3459 0 0)
(20.3987 0 0)
(20.4537 0 0)
(20.4797 0 0)
(20.478 0 0)
(20.5104 0 0)
(20.5649 0 0)
(20.6043 0 0)
(20.6059 0 0)
(20.6175 0 0)
(20.6656 0 0)
(20.7103 0 0)
(20.7233 0 0)
(20.7223 0 0)
(20.7565 0 0)
(20.7996 0 0)
(20.8242 0 0)
(20.8207 0 0)
(20.8371 0 0)
(20.8751 0 0)
(20.9051 0 0)
(20.9072 0 0)
(20.9094 0 0)
(20.9384 0 0)
(20.9667 0 0)
(20.9759 0 0)
(20.9719 0 0)
(20.9885 0 0)
(21.0117 0 0)
(21.0245 0 0)
(21.0204 0 0)
(21.0262 0 0)
(21.0422 0 0)
(21.0535 0 0)
(21.0514 0 0)
(21.0509 0 0)
(21.0588 0 0)
(21.065 0 0)
(21.063 0 0)
(21.0606 0 0)
(21.0636 0 0)
(21.07 0 0)
(21.0815 0 0)
(21.1121 0 0)
(21.2107 0 0)
(21.5396 0 0)
(22.1755 0 0)
(22.6278 0 0)
(22.8684 0 0)
(22.9583 0 0)
(23.0442 0 0)
(23.0837 0 0)
(23.088 0 0)
(23.0999 0 0)
(23.1291 0 0)
(23.1535 0 0)
(23.1575 0 0)
(23.1573 0 0)
(23.1779 0 0)
(23.2 0 0)
(23.2093 0 0)
(23.2052 0 0)
(23.2144 0 0)
(23.2314 0 0)
(23.2424 0 0)
(23.24 0 0)
(23.2411 0 0)
(23.2513 0 0)
(23.2598 0 0)
(23.2598 0 0)
(23.2573 0 0)
(23.2609 0 0)
(23.2652 0 0)
(23.2652 0 0)
(23.2641 0 0)
(23.2666 0 0)
(23.2762 0 0)
(23.3027 0 0)
(23.3816 0 0)
(23.6346 0 0)
(24.3826 0 0)
(25.299 0 0)
(25.8498 0 0)
(26.0686 0 0)
(26.2612 0 0)
(26.346 0 0)
(26.3564 0 0)
(26.3875 0 0)
(26.4447 0 0)
(26.4883 0 0)
(26.4922 0 0)
(26.496 0 0)
(26.539 0 0)
(26.5817 0 0)
(26.5963 0 0)
(26.5896 0 0)
(26.6111 0 0)
(26.6454 0 0)
(26.666 0 0)
(26.6606 0 0)
(26.6647 0 0)
(26.686 0 0)
(26.7027 0 0)
(26.7012 0 0)
(26.6968 0 0)
(26.7041 0 0)
(26.7126 0 0)
(26.7141 0 0)
(26.7133 0 0)
(26.7214 0 0)
(26.7526 0 0)
(26.8454 0 0)
(27.1323 0 0)
(27.605 0 0)
(27.903 0 0)
(28.0944 0 0)
(28.1492 0 0)
(28.1846 0 0)
(28.2309 0 0)
(28.2613 0 0)
(28.2597 0 0)
(28.2631 0 0)
(28.2899 0 0)
(28.3134 0 0)
(28.3159 0 0)
(28.3093 0 0)
(28.3208 0 0)
(28.3345 0 0)
(28.3382 0 0)
(28.3315 0 0)
(28.3318 0 0)
(28.3376 0 0)
(28.3429 0 0)
(28.3474 0 0)
(28.3618 0 0)
(28.4128 0 0)
(28.5796 0 0)
(29.0397 0 0)
(29.5418 0 0)
(29.8214 0 0)
(29.9457 0 0)
(30.0402 0 0)
(30.0705 0 0)
(30.0737 0 0)
(30.0966 0 0)
(30.1207 0 0)
(30.1301 0 0)
(30.1229 0 0)
(30.1292 0 0)
(30.1413 0 0)
(30.1454 0 0)
(30.1435 0 0)
(30.1459 0 0)
(30.1598 0 0)
(30.1991 0 0)
(30.3099 0 0)
(30.6074 0 0)
(30.931 0 0)
(31.1103 0 0)
(31.2198 0 0)
(31.2477 0 0)
(31.2667 0 0)
(31.2972 0 0)
(31.3184 0 0)
(31.3163 0 0)
(31.3147 0 0)
(31.3278 0 0)
(31.3403 0 0)
(31.3416 0 0)
(31.3397 0 0)
(31.3505 0 0)
(31.3885 0 0)
(31.4946 0 0)
(31.7953 0 0)
(32.2049 0 0)
(32.4498 0 0)
(32.6151 0 0)
(32.6721 0 0)
(32.6962 0 0)
(32.7403 0 0)
(32.7733 0 0)
(32.7792 0 0)
(32.7761 0 0)
(32.7967 0 0)
(32.8206 0 0)
(32.8298 0 0)
(32.8222 0 0)
(32.827 0 0)
(32.8392 0 0)
(32.8465 0 0)
(32.8483 0 0)
(32.859 0 0)
(32.9012 0 0)
(33.0318 0 0)
(33.3778 0 0)
(33.7591 0 0)
(33.9572 0 0)
(34.1002 0 0)
(34.1547 0 0)
(34.175 0 0)
(34.2116 0 0)
(34.2413 0 0)
(34.2529 0 0)
(34.2569 0 0)
(34.276 0 0)
(34.2967 0 0)
(34.3063 0 0)
(34.3033 0 0)
(34.313 0 0)
(34.3252 0 0)
(34.3282 0 0)
(34.3239 0 0)
(34.3268 0 0)
(34.3374 0 0)
(34.3617 0 0)
(34.424 0 0)
(34.6209 0 0)
(35.1287 0 0)
(35.6304 0 0)
(35.9355 0 0)
(36.0395 0 0)
(36.1253 0 0)
(36.1935 0 0)
(36.2213 0 0)
(36.2176 0 0)
(36.2367 0 0)
(36.277 0 0)
(36.3078 0 0)
(36.31 0 0)
(36.3091 0 0)
(36.3354 0 0)
(36.3643 0 0)
(36.3762 0 0)
(36.3704 0 0)
(36.3785 0 0)
(36.3986 0 0)
(36.413 0 0)
(36.411 0 0)
(36.4081 0 0)
(36.4163 0 0)
(36.4254 0 0)
(36.4256 0 0)
(36.4216 0 0)
(36.4235 0 0)
(36.4302 0 0)
(36.444 0 0)
(36.4763 0 0)
(36.5753 0 0)
(36.8969 0 0)
(37.5487 0 0)
(38.0654 0 0)
(38.3058 0 0)
(38.4762 0 0)
(38.5522 0 0)
(38.5702 0 0)
(38.6012 0 0)
(38.6392 0 0)
(38.6635 0 0)
(38.6634 0 0)
(38.6674 0 0)
(38.6934 0 0)
(38.7169 0 0)
(38.7202 0 0)
(38.7121 0 0)
(38.72 0 0)
(38.7318 0 0)
(38.7341 0 0)
(38.7329 0 0)
(38.7391 0 0)
(38.7663 0 0)
(38.8461 0 0)
(39.0819 0 0)
(39.4929 0 0)
(39.7707 0 0)
(39.9545 0 0)
(40.0269 0 0)
(40.0523 0 0)
(40.0945 0 0)
(40.1261 0 0)
(40.1366 0 0)
(40.1345 0 0)
(40.1498 0 0)
(40.1752 0 0)
(40.1909 0 0)
(40.1872 0 0)
(40.1869 0 0)
(40.1991 0 0)
(40.2096 0 0)
(40.2079 0 0)
(40.2038 0 0)
(40.2095 0 0)
(40.2275 0 0)
(40.2708 0 0)
(40.3903 0 0)
(40.7463 0 0)
(41.2827 0 0)
(41.6289 0 0)
(41.8318 0 0)
(41.8947 0 0)
(41.9448 0 0)
(41.994 0 0)
(42.0198 0 0)
(42.0166 0 0)
(42.0227 0 0)
(42.0494 0 0)
(42.0719 0 0)
(42.0724 0 0)
(42.065 0 0)
(42.0725 0 0)
(42.0851 0 0)
(42.0936 0 0)
(42.1 0 0)
(42.1242 0 0)
(42.2079 0 0)
(42.4649 0 0)
(42.8985 0 0)
(43.1922 0 0)
(43.3402 0 0)
(43.4485 0 0)
(43.4929 0 0)
(43.509 0 0)
(43.5387 0 0)
(43.5661 0 0)
(43.5793 0 0)
(43.5806 0 0)
(43.5928 0 0)
(43.6114 0 0)
(43.6223 0 0)
(43.6177 0 0)
(43.6199 0 0)
(43.6285 0 0)
(43.638 0 0)
(43.6476 0 0)
(43.6732 0 0)
(43.7554 0 0)
(44.0127 0 0)
(44.4663 0 0)
(44.7896 0 0)
(44.9323 0 0)
(45.0529 0 0)
(45.1071 0 0)
(45.1145 0 0)
(45.128 0 0)
(45.1655 0 0)
(45.1983 0 0)
(45.2034 0 0)
(45.1971 0 0)
(45.2131 0 0)
(45.235 0 0)
(45.2431 0 0)
(45.2334 0 0)
(45.2318 0 0)
(45.2417 0 0)
(45.2614 0 0)
(45.2966 0 0)
(45.3946 0 0)
(45.6906 0 0)
(46.1157 0 0)
(46.4093 0 0)
(46.5234 0 0)
(46.5945 0 0)
(46.6561 0 0)
(46.6829 0 0)
(46.6793 0 0)
(46.6884 0 0)
(46.7137 0 0)
(46.7307 0 0)
(46.7258 0 0)
(46.7215 0 0)
(46.7349 0 0)
(46.7736 0 0)
(46.8662 0 0)
(47.0973 0 0)
(47.3569 0 0)
(47.5074 0 0)
(47.6201 0 0)
(47.6588 0 0)
(47.6605 0 0)
(47.6856 0 0)
(47.7189 0 0)
(47.7345 0 0)
(47.7246 0 0)
(47.7244 0 0)
(47.7418 0 0)
(47.777 0 0)
(47.8441 0 0)
(48.0285 0 0)
(48.3447 0 0)
(48.5763 0 0)
(48.7317 0 0)
(48.7819 0 0)
(48.7963 0 0)
(48.8409 0 0)
(48.8845 0 0)
(48.9004 0 0)
(48.8899 0 0)
(48.8987 0 0)
(48.9214 0 0)
(48.9332 0 0)
(48.9362 0 0)
(48.9442 0 0)
(48.9832 0 0)
(49.1048 0 0)
(49.4132 0 0)
(49.7538 0 0)
(49.9183 0 0)
(50.047 0 0)
(50.1242 0 0)
(50.1455 0 0)
(50.1451 0 0)
(50.176 0 0)
(50.2155 0 0)
(50.235 0 0)
(50.2258 0 0)
(50.2254 0 0)
(50.2415 0 0)
(50.2569 0 0)
(50.2676 0 0)
(50.2843 0 0)
(50.3464 0 0)
(50.5487 0 0)
(50.9202 0 0)
(51.1994 0 0)
(51.3045 0 0)
(51.3916 0 0)
(51.4603 0 0)
(51.4889 0 0)
(51.4853 0 0)
(51.4983 0 0)
(51.5347 0 0)
(51.5621 0 0)
(51.5592 0 0)
(51.5491 0 0)
(51.5593 0 0)
(51.5786 0 0)
(51.6039 0 0)
(51.6505 0 0)
(51.7979 0 0)
(52.1323 0 0)
(52.434 0 0)
(52.6133 0 0)
(52.6668 0 0)
(52.7073 0 0)
(52.7594 0 0)
(52.7938 0 0)
(52.7932 0 0)
(52.7897 0 0)
(52.8107 0 0)
(52.8342 0 0)
(52.8396 0 0)
(52.8362 0 0)
(52.85 0 0)
(52.9044 0 0)
(53.0583 0 0)
(53.364 0 0)
(53.6035 0 0)
(53.7199 0 0)
(53.825 0 0)
(53.8713 0 0)
(53.8728 0 0)
(53.8822 0 0)
(53.9124 0 0)
(53.9358 0 0)
(53.9348 0 0)
(53.9305 0 0)
(53.9473 0 0)
(53.997 0 0)
(54.1145 0 0)
(54.3739 0 0)
(54.6318 0 0)
(54.7922 0 0)
(54.9063 0 0)
(54.9501 0 0)
(54.9634 0 0)
(54.9969 0 0)
(55.0317 0 0)
(55.0494 0 0)
(55.047 0 0)
(55.0584 0 0)
(55.0791 0 0)
(55.0886 0 0)
(55.0875 0 0)
(55.0964 0 0)
(55.1347 0 0)
(55.2443 0 0)
(55.5328 0 0)
(55.9045 0 0)
(56.1137 0 0)
(56.274 0 0)
(56.3543 0 0)
(56.3724 0 0)
(56.3848 0 0)
(56.4294 0 0)
(56.4729 0 0)
(56.4854 0 0)
(56.4768 0 0)
(56.4889 0 0)
(56.5152 0 0)
(56.5301 0 0)
(56.5251 0 0)
(56.5204 0 0)
(56.5363 0 0)
(56.5864 0 0)
(56.7127 0 0)
(57.0275 0 0)
(57.3861 0 0)
(57.5888 0 0)
(57.7475 0 0)
(57.8112 0 0)
(57.8177 0 0)
(57.8385 0 0)
(57.8863 0 0)
(57.9246 0 0)
(57.9277 0 0)
(57.9183 0 0)
(57.9349 0 0)
(57.9599 0 0)
(57.9702 0 0)
(57.9637 0 0)
(57.9616 0 0)
(57.9774 0 0)
(58.0211 0 0)
(58.1229 0 0)
(58.393 0 0)
(58.7671 0 0)
(59.0057 0 0)
(59.1789 0 0)
(59.2448 0 0)
(59.2556 0 0)
(59.2886 0 0)
(59.335 0 0)
(59.3636 0 0)
(59.3617 0 0)
(59.3593 0 0)
(59.3809 0 0)
(59.4051 0 0)
(59.4088 0 0)
(59.4009 0 0)
(59.4043 0 0)
(59.4232 0 0)
(59.4671 0 0)
(59.5674 0 0)
(59.8318 0 0)
(60.1896 0 0)
(60.4296 0 0)
(60.5828 0 0)
(60.6368 0 0)
(60.6613 0 0)
(60.705 0 0)
(60.741 0 0)
(60.7518 0 0)
(60.7493 0 0)
(60.7656 0 0)
(60.7914 0 0)
(60.8039 0 0)
(60.7964 0 0)
(60.794 0 0)
(60.8061 0 0)
(60.8334 0 0)
(60.8845 0 0)
(61.0198 0 0)
(61.3474 0 0)
(61.6833 0 0)
(61.9134 0 0)
(62.011 0 0)
(62.0425 0 0)
(62.093 0 0)
(62.1411 0 0)
(62.1648 0 0)
(62.1634 0 0)
(62.1677 0 0)
(62.1975 0 0)
(62.2262 0 0)
(62.2318 0 0)
(62.2195 0 0)
(62.2218 0 0)
(62.2355 0 0)
(62.2472 0 0)
(62.2567 0 0)
(62.2779 0 0)
(62.354 0 0)
(62.5932 0 0)
(63.0484 0 0)
(63.4099 0 0)
(63.5725 0 0)
(63.6783 0 0)
(63.7654 0 0)
(63.8026 0 0)
(63.804 0 0)
(63.8146 0 0)
(63.8535 0 0)
(63.8895 0 0)
(63.8965 0 0)
(63.8869 0 0)
(63.8955 0 0)
(63.9169 0 0)
(63.9304 0 0)
(63.9259 0 0)
(63.9196 0 0)
(63.9289 0 0)
(63.9548 0 0)
(64.0116 0 0)
(64.1592 0 0)
(64.514 0 0)
(64.8892 0 0)
(65.1332 0 0)
(65.2698 0 0)
(65.3165 0 0)
(65.3528 0 0)
(65.399 0 0)
(65.4317 0 0)
(65.4388 0 0)
(65.4392 0 0)
(65.4625 0 0)
(65.4924 0 0)
(65.5052 0 0)
(65.4975 0 0)
(65.4969 0 0)
(65.509 0 0)
(65.5239 0 0)
(65.5346 0 0)
(65.5457 0 0)
(65.5873 0 0)
(65.7298 0 0)
(66.0894 0 0)
(66.4755 0 0)
(66.6927 0 0)
(66.7891 0 0)
(66.8781 0 0)
(66.9306 0 0)
(66.9461 0 0)
(66.9514 0 0)
(66.9801 0 0)
(67.0142 0 0)
(67.0278 0 0)