/*--------------------------------*- C++ -*----------------------------------*\
  =========                 |
  \\      /  F ield         | OpenFOAM: The Open Source CFD Toolbox
   \\    /   O peration     | Website:  https://openfoam.org
    \\  /    A nd           | Version:  9
     \\/     M anipulation  |
\*---------------------------------------------------------------------------*/
FoamFile
{
    format      ascii;
    class       surfaceScalarField;
    location    "0.005";
    object      phi;
}
// * * * * * * * * * * * * * * * * * * * * * * * * * * * * * * * * * * * * * //

dimensions      [1 0 -1 0 0 0 0];

internalField   nonuniform List<scalar> 
999
(
-3.22089e-11
-3.27134e-11
-3.34808e-11
-3.11644e-11
-3.54561e-11
-3.68203e-11
-3.88951e-11
-3.52074e-11
-3.46745e-11
-3.07665e-11
-2.85851e-11
-2.92033e-11
-2.73985e-11
-3.0056e-11
-3.23581e-11
-2.98712e-11
-3.1946e-11
-3.0802e-11
-2.8102e-11
-2.34976e-11
-2.26805e-11
-1.91278e-11
-1.53406e-11
-1.62075e-11
-1.84031e-11
-2.01226e-11
-2.33058e-11
-2.26734e-11
-2.11102e-11
-2.47766e-11
-2.30642e-11
-2.33271e-11
-1.95612e-11
-1.87654e-11
-1.70886e-11
-1.7188e-11
-1.79128e-11
-1.94831e-11
-1.62785e-11
-1.04876e-11
-1.29745e-11
-1.50919e-11
-1.3749e-11
-1.67617e-11
-1.41824e-11
-1.27756e-11
-1.56106e-11
-1.5568e-11
-1.6378e-11
-1.65556e-11
-2.00373e-11
-1.73941e-11
-1.48574e-11
-1.11058e-11
-1.05302e-11
-8.29914e-12
-8.83205e-12
-7.73781e-12
-1.12124e-11
-1.38058e-11
-1.09992e-11
-9.05231e-12
-6.48726e-12
-3.95062e-12
-1.56319e-12
-7.74492e-13
2.56506e-12
2.30926e-12
3.19744e-13
-5.47118e-13
2.10321e-12
4.68248e-12
3.37508e-12
6.97042e-12
4.30589e-12
2.53664e-12
-7.03437e-13
3.83693e-12
5.71987e-12
1.35003e-13
3.03402e-12
5.18696e-12
5.30065e-12
2.65743e-12
4.81037e-12
3.55271e-12
-9.9476e-14
2.21689e-12
7.12674e-12
1.07718e-11
8.34177e-12
1.21005e-11
1.54543e-11
1.34932e-11
1.06297e-11
1.2399e-11
1.57385e-11
1.56177e-11
1.02247e-11
8.35598e-12
3.05533e-12
4.11404e-12
3.9293e-12
6.53699e-12
8.57625e-12
8.63309e-12
1.18803e-11
8.35598e-12
1.02958e-11
1.42677e-11
1.43885e-11
1.13189e-11
1.37135e-11
1.61791e-11
1.68825e-11
1.45803e-11
1.12337e-11
8.70415e-12
1.14255e-11
1.48574e-11
1.78986e-11
1.89715e-11
2.46203e-11
2.77893e-11
2.65459e-11
2.34479e-11
2.22471e-11
1.76215e-11
1.44809e-11
1.81473e-11
1.96962e-11
2.41087e-11
2.31921e-11
2.25384e-11
2.63256e-11
2.64038e-11
2.0691e-11
1.62999e-11
1.25979e-11
1.29319e-11
1.36424e-11
1.06652e-11
1.4019e-11
1.66551e-11
1.73301e-11
1.93339e-11
1.97105e-11
1.8062e-11
1.82823e-11
1.71028e-11
1.46727e-11
1.22782e-11
1.2804e-11
1.31379e-11
1.4289e-11
1.38058e-11
1.58735e-11
1.89786e-11
1.94618e-11
1.84244e-11
1.67972e-11
1.34932e-11
9.86944e-12
1.36069e-11
1.6108e-11
1.25766e-11
1.02531e-11
1.20011e-11
1.58948e-11
1.48077e-11
1.57456e-11
1.51061e-11
1.53548e-11
1.17311e-11
8.3773e-12
6.20304e-12
8.14993e-12
1.15747e-11
1.10987e-11
8.97415e-12
7.87281e-12
1.28182e-11
1.53051e-11
1.3948e-11
1.21432e-11
9.9476e-12
1.26477e-11
1.58664e-11
1.36495e-11
8.29203e-12
6.97042e-12
7.96518e-12
1.11839e-11
8.61888e-12
1.03242e-11
9.79838e-12
9.49996e-12
4.78195e-12
1.35003e-12
9.23706e-13
2.43006e-12
-3.90799e-13
-2.67875e-12
9.66338e-13
4.41247e-12
6.96332e-13
-3.93641e-12
-8.68994e-12
-6.21014e-12
-5.28644e-12
-4.59721e-12
-1.79767e-12
2.60059e-12
5.32197e-12
1.30171e-11
1.0921e-11
1.05516e-11
1.28395e-11
1.4424e-11
1.76925e-11
2.0556e-11
2.04992e-11
1.84173e-11
1.36637e-11
9.9547e-12
7.50333e-12
4.5759e-12
6.03961e-12
8.23519e-12
1.04592e-11
7.28306e-12
1.18376e-11
9.43601e-12
1.00471e-11
8.61178e-12
4.61853e-12
4.63274e-12
5.6346e-12
2.60769e-12
1.63425e-12
-1.90425e-12
-5.40012e-12
-4.91696e-12
-4.34142e-12
-5.03775e-12
-4.86722e-12
-2.08189e-12
-3.55271e-12
1.42109e-14
-1.56319e-13
-7.10543e-14
8.10019e-13
4.83169e-13
-1.81899e-12
-4.09983e-12
-8.64731e-12
-7.16227e-12
-1.34293e-12
8.03624e-12
2.58282e-11
6.16254e-11
1.31188e-10
2.72237e-10
5.7652e-10
1.22552e-09
2.58483e-09
5.40701e-09
1.12203e-08
2.30941e-08
4.7137e-08
9.54148e-08
1.9155e-07
3.81373e-07
7.52991e-07
1.47418e-06
2.86142e-06
5.50581e-06
1.05005e-05
1.98464e-05
3.7168e-05
6.89609e-05
0.000126738
0.000230675
0.000415722
0.000741695
0.00130971
0.0022885
0.00395594
0.00676331
0.011433
0.0191038
0.0315431
0.0514474
0.0828586
0.131721
0.206599
0.319564
0.487226
0.731838
1.08235
1.57521
2.2545
3.17124
4.38106
5.93993
7.8968
10.281
13.0793
16.2408
19.7193
23.481
27.4962
31.7349
36.1677
40.7657
45.5023
50.3531
55.2966
60.3138
65.3884
70.5064
75.6557
80.8264
86.0097
91.1985
96.3864
101.568
106.739
111.896
117.034
122.152
127.246
132.314
137.356
142.367
147.349
152.298
157.214
162.097
166.944
171.756
176.531
181.269
185.97
190.633
195.257
199.843
204.39
208.897
213.365
217.794
222.182
226.531
230.84
235.108
239.337
243.525
247.673
251.781
255.849
259.876
263.863
267.811
271.718
275.585
279.413
283.2
286.948
290.657
294.326
297.955
301.546
305.097
308.61
312.083
315.518
318.915
322.273
325.592
328.874
332.118
335.324
338.493
341.624
344.718
347.775
350.795
353.778
356.725
359.635
362.509
365.347
368.15
370.916
373.647
376.343
379.004
381.63
384.221
386.777
389.3
391.787
394.241
396.661
399.047
401.4
403.72
406.005
408.261
410.478
412.674
414.817
416.96
419.027
421.116
423.12
425.128
427.109
428.999
430.973
432.772
434.664
436.484
438.205
440.042
441.716
443.389
445.13
446.698
448.299
449.952
451.433
452.94
454.515
455.923
457.319
458.812
460.175
461.456
462.841
464.183
465.375
466.612
467.915
469.082
470.173
471.359
472.536
473.565
474.576
475.68
476.735
477.653
478.575
479.579
480.532
481.357
482.175
483.07
483.94
484.687
485.392
486.166
486.955
487.646
488.252
488.886
489.577
490.227
490.767
491.269
491.824
492.408
492.926
493.346
493.749
494.207
494.684
495.089
495.403
495.704
496.057
496.431
496.745
496.97
497.163
497.399
497.676
497.92
498.072
498.168
498.301
498.486
498.655
498.761
498.811
498.842
498.903
499.01
499.11
499.133
499.092
499.073
499.13
499.221
499.264
499.218
499.136
499.116
499.152
499.209
499.193
499.157
499.11
499.048
499.079
499.1
499.1
499.094
499.065
499.021
498.998
499.002
499.012
499.036
499.036
498.996
498.977
498.977
498.996
499.009
499.01
498.999
498.988
498.968
498.956
498.958
498.963
498.955
498.947
498.936
498.922
498.907
498.902
498.899
498.897
498.891
498.877
498.877
498.864
498.864
498.9
498.893
498.882
498.874
498.861
498.872
498.846
498.816
498.809
498.813
498.8
498.77
498.77
498.781
498.757
498.748
498.758
498.73
498.713
498.746
498.716
498.66
498.644
498.65
498.662
498.591
498.608
498.717
498.612
498.463
498.531
498.707
498.541
498.375
498.51
498.692
498.535
498.337
498.275
498.227
498.455
498.544
498.433
498.31
498.335
498.423
498.307
498.215
498.339
498.357
498.072
498.055
498.363
498.252
497.848
497.784
498.163
498.186
497.848
497.77
498.039
498.013
497.539
497.551
498.085
497.709
496.999
497.34
498.206
497.403
496.197
496.084
497.678
497.846
496.724
496.489
496.63
496.874
496.502
495.908
495.807
495.934
495.535
495.205
495.425
495.535
495.251
494.886
494.426
492.543
486.508
469.779
440.593
415.551
392.842
373.715
358.981
346.638
336.676
329.596
324.298
319.876
316.912
315.142
313.563
312.199
311.755
311.834
311.091
309.96
310.962
312.182
310.395
309.155
311.363
312.487
309.689
308.638
311.836
312.873
309.46
308.179
312.076
313.854
310.204
307.812
309.97
312.976
312.659
310.23
309.934
310.65
310.928
310.945
310.916
310.893
310.871
310.86
310.851
310.844
310.811
310.757
310.746
310.762
310.761
310.727
310.742
310.788
310.865
310.921
310.983
311.028
311.009
311.033
311.064
311.014
310.924
310.834
310.771
310.665
310.648
310.739
310.625
310.574
310.756
310.811
310.705
310.88
311.269
311.06
310.801
311.194
311.445
310.824
310.662
311.112
311.28
310.697
310.37
310.249
310.502
310.578
310.501
310.517
310.625
310.63
310.373
310.455
310.775
310.467
310.075
310.066
310.395
310.135
309.54
309.258
309.119
309.602
309.752
309.663
309.394
309.548
309.404
309.131
309.189
309.36
308.751
308.785
309.128
309.42
307.599
307.89
308.845
306.799
306.491
307.047
307.077
304.931
304.865
305.232
306.265
303.435
300.55
298.554
293.292
282.831
248.137
60.8066
11.6611
1.76493
0.259384
0.0380459
0.00556462
0.000813558
0.000118983
1.74031e-05
2.5455e-06
3.72285e-07
5.44377e-08
7.95744e-09
1.16195e-09
1.69059e-10
2.39306e-11
2.63078e-12
-5.98632e-13
-1.06937e-12
-1.03695e-12
-7.98916e-13
-1.09424e-12
-1.61826e-12
-7.96696e-13
4.93827e-13
3.11751e-13
-1.6076e-13
-1.73195e-13
-1.08358e-13
-3.32623e-13
-6.80789e-13
-7.04325e-13
-5.02265e-13
-7.53619e-13
-4.80505e-13
-4.58744e-13
-7.27862e-13
-1.40288e-12
-2.22444e-12
-2.27596e-12
-2.86171e-12
-3.32134e-12
-3.06155e-12
-2.70139e-12
-2.52687e-12
-2.18048e-12
-1.98597e-12
-8.0469e-13
-7.86038e-14
1.90958e-13
-2.46025e-13
-8.09575e-13
-8.66418e-13
-9.44134e-13
-8.30003e-13
-5.99076e-13
-5.01821e-13
-1.61204e-13
1.44773e-13
2.80664e-13
5.00933e-13
3.62377e-13
-3.37064e-13
-7.05658e-13
-1.01785e-12
-8.9706e-13
-6.24834e-13
-7.70939e-13
-1.30385e-12
-1.26654e-12
-1.00675e-12
-9.19265e-13
-6.87894e-13
-4.44533e-13
-3.57936e-13
-7.42073e-13
-9.40581e-13
-1.04228e-12
-1.11822e-12
-8.00693e-13
-3.39284e-13
-3.51719e-13
-7.94032e-13
-1.39933e-12
-1.21592e-12
-1.24079e-12
-1.19682e-12
-1.60005e-12
-2.47002e-12
-1.99352e-12
-9.10383e-13
-4.71179e-13
-8.65086e-13
-1.52633e-12
-1.85629e-12
-1.43396e-12
-3.51719e-13
-4.44089e-14
-6.77236e-13
-4.20997e-13
-1.61648e-13
2.68674e-13
8.3622e-13
6.78124e-13
1.42553e-13
-5.13367e-13
-1.00275e-12
-1.43263e-12
-1.39178e-12
-1.75726e-12
-1.3749e-12
-9.61897e-13
3.0731e-13
1.50591e-12
1.16041e-12
2.14939e-13
-4.44089e-14
-8.17124e-14
-1.02185e-12
-7.94032e-13
-6.55476e-13
-3.34843e-13
-6.72351e-13
-3.81029e-13
-4.9738e-14
-3.28626e-13
-6.11067e-13
-6.30163e-13
-4.31655e-13
-8.32667e-13
-3.78364e-13
-6.44818e-13
-1.04095e-12
-1.85363e-12
-1.39311e-12
-1.77813e-12
-2.16938e-12
-2.9674e-12
-3.48388e-12
-3.23297e-12
-2.79332e-12
-2.39941e-12
-2.0286e-12
-1.3225e-12
-6.20393e-13
-8.9706e-14
1.9984e-13
-7.6783e-13
-1.46416e-12
-8.65086e-13
-4.44089e-13
8.67306e-13
1.01963e-12
8.90399e-13
1.07914e-12
1.87539e-12
2.63434e-12
3.34177e-12
2.85549e-12
1.89004e-12
2.25953e-12
3.46034e-12
3.99947e-12
3.40172e-12
3.37019e-12
2.90967e-12
3.3471e-12
3.6251e-12
3.15881e-12
3.33245e-12
3.29514e-12
3.2534e-12
2.87192e-12
2.35056e-12
1.84874e-12
1.38378e-12
1.24833e-12
1.35136e-12
6.6569e-13
-6.03961e-14
-4.71623e-13
-1.14575e-13
5.48894e-13
6.17284e-13
-3.48166e-13
-5.55112e-13
4.08118e-13
8.07354e-13
2.04281e-14
1.5854e-13
2.05169e-13
5.24469e-13
1.02052e-12
1.19948e-12
1.28209e-12
7.9492e-13
5.75984e-13
6.46594e-13
1.2168e-12
1.35758e-12
7.62945e-13
1.22657e-12
1.71507e-12
2.23777e-12
2.66276e-12
3.08953e-12
3.07132e-12
3.86802e-12
4.22506e-12
3.97593e-12
4.01412e-12
4.11138e-12
3.61045e-12
2.6219e-12
2.79554e-12
3.61577e-12
4.43112e-12
4.39471e-12
4.42979e-12
4.09761e-12
3.30358e-12
)
;

boundaryField
{
    sides
    {
        type            calculated;
        value           nonuniform List<scalar> 2(2.87037e-12 2.9781e-11);
    }
    empty
    {
        type            empty;
        value           nonuniform List<scalar> 0();
    }
}


// ************************************************************************* //
