/*--------------------------------*- C++ -*----------------------------------*\
  =========                 |
  \\      /  F ield         | OpenFOAM: The Open Source CFD Toolbox
   \\    /   O peration     | Website:  https://openfoam.org
    \\  /    A nd           | Version:  9
     \\/     M anipulation  |
\*---------------------------------------------------------------------------*/
FoamFile
{
    format      ascii;
    class       volScalarField;
    location    "0.047";
    object      ddt0(rho,K);
}
// * * * * * * * * * * * * * * * * * * * * * * * * * * * * * * * * * * * * * //

dimensions      [1 -1 -3 0 0 0 0];

internalField   nonuniform List<scalar> 
1000
(
5.46952
-61.9316
-142.412
-204.329
-262.799
-324.02
-387.952
-453.642
-520.598
-588.715
-658.001
-728.517
-800.291
-873.245
-947.29
-1022.45
-1098.91
-1176.94
-1256.71
-1338.13
-1420.88
-1504.61
-1589.23
-1674.95
-1762.19
-1851.28
-1942.24
-2034.78
-2128.5
-2223.12
-2318.71
-2415.68
-2514.53
-2615.55
-2718.63
-2823.3
-2928.97
-3035.32
-3142.37
-3250.55
-3360.49
-3472.66
-3587.17
-3703.87
-3822.4
-3942.25
-4063
-4184.54
-4306.93
-4430.33
-4555.05
-4681.47
-4810.07
-4941.24
-5075.12
-5211.5
-5350.01
-5490.58
-5633.23
-5777.47
-5922.39
-6067.34
-6212.44
-6358.65
-6507.15
-6658.32
-6811.81
-6967.14
-7124.57
-7285.34
-7450.58
-7620.79
-7796.3
-7976.45
-8159.07
-8343.82
-8532.6
-8725.45
-8921.89
-9121.94
-9324.12
-9528.18
-9709.31
-9880.91
-10067.8
-10342.5
-10616.2
-10860.7
-11092.3
-11298.3
-11519.5
-11735.8
-11960.3
-12186
-12413.2
-12644.9
-12880.5
-13120.5
-13359.5
-13607.3
-13857.6
-14111.3
-14370.9
-14631.9
-14895
-15160.1
-15430.7
-15707.4
-15989.8
-16272
-16552.8
-16840.3
-17134.7
-17434.3
-17732.8
-18030.3
-18334.3
-18646.4
-18961.9
-19276.5
-19594
-19915.5
-20240.1
-20568.2
-20900.9
-21238.8
-21578.6
-21917.7
-22256.8
-22602.2
-22954.7
-23309.2
-23661.8
-24015.1
-24373.6
-24736.4
-25100.3
-25463.1
-25828.5
-26197.5
-26567.9
-26937.4
-27308.3
-27683.6
-28061.9
-28438.1
-28810
-29181.5
-29557.3
-29934.9
-30309.4
-30680.3
-31051.9
-31426.8
-31800.9
-32170.1
-32534.7
-32899.9
-33266
-33629.6
-33987.2
-34340.7
-34694.1
-35047.3
-35395.9
-35736.9
-36073
-36409.3
-36745
-37075.5
-37396.5
-37711.2
-38024.7
-38337.7
-38645.5
-38944.1
-39235.9
-39526.3
-39816.5
-40102.3
-40378.3
-40646
-40910.8
-41175.5
-41436.7
-41688.9
-41932.7
-42172.6
-42414.1
-42653.6
-42886
-43108.6
-43326.1
-43543.8
-43762.6
-43975.8
-44180.2
-44377.9
-44575.1
-44775.9
-44973.8
-45166.2
-45349.4
-45530.5
-45714.2
-45899
-46080.8
-46254.3
-46424
-46594.7
-46769.6
-46943.7
-47111.6
-47273.4
-47434.6
-47599.4
-47767.2
-47932
-48090.6
-48246.7
-48404.8
-48568.1
-48731.7
-48890.2
-49044.2
-49197.2
-49354.9
-49517.1
-49677.1
-49831.3
-49982.9
-50135.4
-50294.2
-50456.1
-50613.8
-50766.6
-50917.1
-51071.9
-51232.5
-51395.5
-51554
-51706.4
-51857.8
-52013.7
-52176
-52340.1
-52499.1
-52651.9
-52803.8
-52961.3
-53126
-53292
-53451.9
-53605.1
-53758.3
-53917.1
-54083.5
-54251.2
-54412.8
-54568.4
-54724.1
-54885.3
-55053.4
-55222.9
-55386.6
-55544.3
-55701.6
-55864.8
-56034.8
-56205.4
-56371.5
-56532.5
-56692.4
-56857
-57027.9
-57200.6
-57368.8
-57531.3
-57693
-57859
-58031
-58206.4
-58379
-58545.2
-58707.5
-58873.6
-59047.9
-59226.6
-59403.4
-59573.5
-59737.9
-59902.9
-60076.1
-60258
-60439.9
-60614.6
-60782
-60947.9
-61119.5
-61299.9
-61485.3
-61666.8
-61839.6
-62007.8
-62179.8
-62359.7
-62545.5
-62730.8
-62910
-63083
-63255.6
-63434.3
-63619.9
-63807.5
-63991.8
-64170.4
-64344.7
-64521.4
-64706.8
-64899
-65089.5
-65272.5
-65449.4
-65625.9
-65809
-66001.9
-66199.7
-66391.4
-66571.5
-66747.5
-66928.6
-67118.3
-67315.5
-67514.5
-67706.9
-67888.7
-68067.9
-68253.8
-68447.9
-68647.5
-68847.5
-69041.5
-69226.2
-69408.5
-69598.8
-69798.1
-70000.3
-70200
-70393.2
-70579.9
-70767.6
-70965.4
-71172.1
-71377.4
-71575
-71766.2
-71954.7
-72146.8
-72348.7
-72559.7
-72770.2
-72971.2
-73163.3
-73352.6
-73547
-73751.3
-73965.7
-74180.7
-74385
-74579.4
-74772.3
-74972.1
-75179.3
-75392.7
-75607.2
-75815.4
-76014.6
-76211
-76414.7
-76628.1
-76845.9
-77060.2
-77267.2
-77467.8
-77667.3
-77874.1
-78092.3
-78316.9
-78537
-78745.8
-78946.7
-79147.1
-79354.6
-79573.5
-79800.4
-80027.1
-80243.8
-80449.8
-80651.8
-80860.4
-81080.1
-81307.4
-81535
-81756
-81968.1
-82175.7
-82387.4
-82609
-82839.6
-83069.7
-83292
-83505.2
-83715.1
-83930.2
-84154.9
-84389.5
-84626.6
-84857.4
-85076
-85285.6
-85497.8
-85721
-85956.5
-86196.9
-86433.7
-86661.7
-86880.4
-87095.9
-87316.3
-87547.9
-87789.1
-88030.4
-88263.8
-88487.2
-88706.9
-88931.2
-89166.1
-89411.2
-89657.1
-89895.3
-90120.7
-90340.3
-90563.7
-90797.3
-91042.6
-91293.3
-91543.6
-91783.7
-92011.4
-92232.7
-92459.7
-92701.4
-92953.6
-93206.7
-93451.6
-93687.5
-93919.1
-94153.3
-94394.4
-94644.7
-94899.8
-95151.4
-95393.4
-95625.8
-95856.8
-96095.2
-96347.2
-96609
-96871.6
-97125.1
-97366.4
-97599.8
-97835
-98079.8
-98336.8
-98600.2
-98861.9
-99114.9
-99358.2
-99599.1
-99844.8
-100104
-100368
-100635
-100893
-101141
-101383
-101624
-101878
-102142
-102419
-102691
-102954
-103204
-103448
-103695
-103954
-104220
-104496
-104767
-105030
-105286
-105535
-105796
-106060
-106343
-106619
-106891
-107156
-107402
-107665
-107914
-108197
-108474
-108761
-109045
-109301
-109576
-109815
-110099
-110365
-110655
-110946
-111204
-111496
-111725
-112023
-112276
-112574
-112879
-113136
-113470
-113675
-114007
-114219
-114533
-114815
-115083
-115432
-115641
-116006
-116195
-116536
-116783
-117085
-117419
-117657
-118027
-118212
-118563
-118786
-119098
-119425
-119675
-120063
-120264
-120631
-120858
-121169
-121481
-121746
-122123
-122356
-122727
-122953
-123284
-123554
-123861
-124201
-124481
-124861
-125092
-125476
-125687
-126066
-126324
-126673
-127013
-127290
-127683
-127901
-128298
-128537
-128912
-129227
-129560
-129934
-130211
-130601
-130851
-131236
-131532
-131886
-132276
-132558
-133004
-133239
-133657
-133959
-134295
-134738
-135003
-135496
-135782
-136165
-136574
-136831
-137336
-137610
-138078
-138460
-138830
-139283
-139584
-140076
-140373
-140869
-141269
-141671
-142197
-142509
-143029
-143400
-143835
-144332
-144726
-145289
-145672
-146205
-146647
-147078
-147641
-148039
-148623
-149114
-149614
-150171
-150657
-151178
-151730
-152246
-152806
-153409
-153923
-154554
-155100
-155650
-156282
-156811
-157458
-158074
-158688
-159344
-159957
-160584
-161207
-161858
-162492
-163182
-163872
-164528
-165242
-165891
-166550
-167257
-167921
-168636
-169381
-170067
-170788
-171507
-172153
-172874
-173595
-174277
-175043
-175766
-176458
-177164
-177849
-178533
-179206
-179927
-180655
-181277
-182016
-182665
-183237
-183914
-184589
-185101
-185845
-186425
-186978
-187540
-188171
-188530
-189197
-189653
-190172
-190607
-191205
-191443
-191981
-192318
-192697
-193023
-193467
-193725
-194005
-194369
-194553
-194778
-195030
-195249
-195372
-195576
-195739
-195887
-195895
-196031
-196123
-196224
-196251
-196299
-196286
-196332
-196285
-196291
-196237
-196264
-196211
-196199
-196123
-196103
-195995
-195942
-195821
-195803
-195726
-195700
-195611
-195579
-195465
-195416
-195296
-195273
-195210
-195205
-195143
-195140
-195072
-195070
-195000
-195009
-194985
-195029
-195023
-195077
-195075
-195136
-195139
-195214
-195247
-195361
-195430
-195552
-195626
-195756
-195836
-195984
-196089
-196264
-196403
-196599
-196753
-196957
-197115
-197331
-197507
-197746
-197952
-198215
-198442
-198716
-198949
-199231
-199475
-199774
-200044
-200369
-200666
-201010
-201322
-201679
-202004
-202378
-202728
-203132
-203518
-203955
-204374
-204840
-205290
-205789
-206278
-206823
-207369
-207969
-208578
-209237
-209910
-210633
-211376
-212171
-212999
-213879
-214803
-215775
-216797
-217861
-218982
-220140
-221361
-222616
-223939
-225286
-226699
-228126
-229615
-231103
-232650
-234184
-235770
-237324
-238917
-240463
-242030
-243532
-245038
-246466
-247881
-249209
-250500
-251698
-252835
-253878
-254837
-255711
-256479
-257176
-257754
-258277
-258669
-259024
-259242
-259446
-259507
-259580
-259512
-259481
-259314
-259204
-258965
-258800
-258512
-258312
-257995
-257780
-257457
-257245
-256933
-256736
-256444
-256269
-256003
-255855
-255620
-255503
-255304
-255220
-255058
-255007
-254880
-254860
-254764
-254773
-254707
-254743
-254708
-254770
-254763
-254850
-254868
-254977
-255017
-255146
-255207
-255355
-255437
-255604
-255707
-255891
-256012
-256212
-256349
-256563
-256715
-256944
-257110
-257352
-257534
-257789
-257985
-258253
-258461
-258741
-258962
-259253
-259485
-259787
-260031
-260343
-260598
-260920
-261186
-261519
-261795
-262136
-262422
-262773
-263068
-263427
-263731
-264099
-264412
-264789
-265112
-265496
-265828
-266220
-266559
-266959
-267306
-267714
-268069
-268484
-268847
-269269
-269640
-270069
-270447
-270883
-271268
-271710
-272102
-272551
-272949
-273404
-273809
-274271
-274683
-275151
-275570
-276044
-276469
-276949
-277379
-277865
-278302
-278793
-279236
-279733
-280183
-280685
-281141
-281649
-282110
-282624
-283090
-283610
-284082
-284607
-285085
-285615
-286098
-286634
-287122
-287662
-288156
-288701
-289200
-289750
-290254
-290810
-291319
-291883
-292391
-292983
-293873
)
;

boundaryField
{
    sides
    {
        type            calculated;
        value           nonuniform List<scalar> 2(-293873 5.46952);
    }
    empty
    {
        type            empty;
    }
}


// ************************************************************************* //
