/*--------------------------------*- C++ -*----------------------------------*\
  =========                 |
  \\      /  F ield         | OpenFOAM: The Open Source CFD Toolbox
   \\    /   O peration     | Website:  https://openfoam.org
    \\  /    A nd           | Version:  9
     \\/     M anipulation  |
\*---------------------------------------------------------------------------*/
FoamFile
{
    format      ascii;
    class       volVectorField;
    location    "0.047";
    object      ddt0(rho,U);
}
// * * * * * * * * * * * * * * * * * * * * * * * * * * * * * * * * * * * * * //

dimensions      [1 -2 -2 0 0 0 0];

internalField   nonuniform List<vector> 
1000
(
(-47.3333 0 0)
(-50.7676 0 0)
(-54.8559 0 0)
(-57.9586 0 0)
(-60.8006 0 0)
(-63.7069 0 0)
(-66.6875 0 0)
(-69.6986 0 0)
(-72.7149 0 0)
(-75.7278 0 0)
(-78.7356 0 0)
(-81.7441 0 0)
(-84.7591 0 0)
(-87.7776 0 0)
(-90.7906 0 0)
(-93.7942 0 0)
(-96.7971 0 0)
(-99.8168 0 0)
(-102.865 0 0)
(-105.935 0 0)
(-109.007 0 0)
(-112.06 0 0)
(-115.091 0 0)
(-118.117 0 0)
(-121.163 0 0)
(-124.243 0 0)
(-127.353 0 0)
(-130.471 0 0)
(-133.573 0 0)
(-136.648 0 0)
(-139.707 0 0)
(-142.775 0 0)
(-145.88 0 0)
(-149.033 0 0)
(-152.222 0 0)
(-155.418 0 0)
(-158.592 0 0)
(-161.725 0 0)
(-164.823 0 0)
(-167.908 0 0)
(-171.015 0 0)
(-174.17 0 0)
(-177.381 0 0)
(-180.64 0 0)
(-183.925 0 0)
(-187.207 0 0)
(-190.461 0 0)
(-193.675 0 0)
(-196.848 0 0)
(-199.991 0 0)
(-203.126 0 0)
(-206.276 0 0)
(-209.468 0 0)
(-212.723 0 0)
(-216.045 0 0)
(-219.428 0 0)
(-222.852 0 0)
(-226.303 0 0)
(-229.767 0 0)
(-233.22 0 0)
(-236.627 0 0)
(-239.967 0 0)
(-243.244 0 0)
(-246.485 0 0)
(-249.727 0 0)
(-252.992 0 0)
(-256.282 0 0)
(-259.593 0 0)
(-262.945 0 0)
(-266.379 0 0)
(-269.922 0 0)
(-273.589 0 0)
(-277.391 0 0)
(-281.304 0 0)
(-285.264 0 0)
(-289.259 0 0)
(-293.325 0 0)
(-297.442 0 0)
(-301.588 0 0)
(-305.767 0 0)
(-309.943 0 0)
(-314.09 0 0)
(-317.607 0 0)
(-321.008 0 0)
(-324.551 0 0)
(-330.134 0 0)
(-335.575 0 0)
(-340.38 0 0)
(-344.861 0 0)
(-348.803 0 0)
(-352.983 0 0)
(-357.123 0 0)
(-361.414 0 0)
(-365.631 0 0)
(-369.805 0 0)
(-374.003 0 0)
(-378.29 0 0)
(-382.6 0 0)
(-386.779 0 0)
(-391.157 0 0)
(-395.586 0 0)
(-400.054 0 0)
(-404.566 0 0)
(-409.056 0 0)
(-413.61 0 0)
(-418.165 0 0)
(-422.757 0 0)
(-427.431 0 0)
(-432.246 0 0)
(-437.03 0 0)
(-441.68 0 0)
(-446.424 0 0)
(-451.319 0 0)
(-456.327 0 0)
(-461.223 0 0)
(-466.004 0 0)
(-470.928 0 0)
(-476.036 0 0)
(-481.162 0 0)
(-486.161 0 0)
(-491.191 0 0)
(-496.32 0 0)
(-501.49 0 0)
(-506.639 0 0)
(-511.82 0 0)
(-517.128 0 0)
(-522.468 0 0)
(-527.72 0 0)
(-532.872 0 0)
(-538.153 0 0)
(-543.604 0 0)
(-549.058 0 0)
(-554.374 0 0)
(-559.646 0 0)
(-565.051 0 0)
(-570.55 0 0)
(-576 0 0)
(-581.331 0 0)
(-586.714 0 0)
(-592.202 0 0)
(-597.69 0 0)
(-603.066 0 0)
(-608.418 0 0)
(-613.881 0 0)
(-619.434 0 0)
(-624.889 0 0)
(-630.169 0 0)
(-635.41 0 0)
(-640.788 0 0)
(-646.215 0 0)
(-651.505 0 0)
(-656.646 0 0)
(-661.817 0 0)
(-667.109 0 0)
(-672.373 0 0)
(-677.459 0 0)
(-682.401 0 0)
(-687.396 0 0)
(-692.458 0 0)
(-697.456 0 0)
(-702.258 0 0)
(-706.945 0 0)
(-711.673 0 0)
(-716.46 0 0)
(-721.136 0 0)
(-725.596 0 0)
(-729.929 0 0)
(-734.325 0 0)
(-738.768 0 0)
(-743.102 0 0)
(-747.176 0 0)
(-751.11 0 0)
(-755.079 0 0)
(-759.11 0 0)
(-763.038 0 0)
(-766.716 0 0)
(-770.238 0 0)
(-773.794 0 0)
(-777.429 0 0)
(-780.989 0 0)
(-784.293 0 0)
(-787.398 0 0)
(-790.496 0 0)
(-793.69 0 0)
(-796.845 0 0)
(-799.773 0 0)
(-802.482 0 0)
(-805.139 0 0)
(-807.928 0 0)
(-810.733 0 0)
(-813.374 0 0)
(-815.747 0 0)
(-818.022 0 0)
(-820.379 0 0)
(-822.848 0 0)
(-825.196 0 0)
(-827.311 0 0)
(-829.253 0 0)
(-831.237 0 0)
(-833.395 0 0)
(-835.506 0 0)
(-837.485 0 0)
(-839.201 0 0)
(-840.897 0 0)
(-842.725 0 0)
(-844.631 0 0)
(-846.472 0 0)
(-848.067 0 0)
(-849.565 0 0)
(-851.13 0 0)
(-852.861 0 0)
(-854.591 0 0)
(-856.141 0 0)
(-857.515 0 0)
(-858.889 0 0)
(-860.402 0 0)
(-862.03 0 0)
(-863.569 0 0)
(-864.915 0 0)
(-866.184 0 0)
(-867.532 0 0)
(-869.057 0 0)
(-870.598 0 0)
(-871.979 0 0)
(-873.217 0 0)
(-874.431 0 0)
(-875.799 0 0)
(-877.316 0 0)
(-878.762 0 0)
(-880.019 0 0)
(-881.193 0 0)
(-882.396 0 0)
(-883.8 0 0)
(-885.304 0 0)
(-886.667 0 0)
(-887.868 0 0)
(-888.993 0 0)
(-890.242 0 0)
(-891.674 0 0)
(-893.171 0 0)
(-894.524 0 0)
(-895.676 0 0)
(-896.796 0 0)
(-898.052 0 0)
(-899.501 0 0)
(-901 0 0)
(-902.332 0 0)
(-903.462 0 0)
(-904.557 0 0)
(-905.822 0 0)
(-907.301 0 0)
(-908.815 0 0)
(-910.131 0 0)
(-911.237 0 0)
(-912.332 0 0)
(-913.596 0 0)
(-915.082 0 0)
(-916.599 0 0)
(-917.918 0 0)
(-919.043 0 0)
(-920.161 0 0)
(-921.442 0 0)
(-922.922 0 0)
(-924.44 0 0)
(-925.773 0 0)
(-926.915 0 0)
(-928.036 0 0)
(-929.329 0 0)
(-930.814 0 0)
(-932.309 0 0)
(-933.658 0 0)
(-934.846 0 0)
(-935.993 0 0)
(-937.273 0 0)
(-938.735 0 0)
(-940.246 0 0)
(-941.611 0 0)
(-942.797 0 0)
(-943.954 0 0)
(-945.225 0 0)
(-946.667 0 0)
(-948.197 0 0)
(-949.634 0 0)
(-950.874 0 0)
(-951.989 0 0)
(-953.209 0 0)
(-954.659 0 0)
(-956.231 0 0)
(-957.735 0 0)
(-959.036 0 0)
(-960.162 0 0)
(-961.297 0 0)
(-962.661 0 0)
(-964.269 0 0)
(-965.867 0 0)
(-967.248 0 0)
(-968.41 0 0)
(-969.524 0 0)
(-970.791 0 0)
(-972.302 0 0)
(-973.944 0 0)
(-975.464 0 0)
(-976.725 0 0)
(-977.847 0 0)
(-979.067 0 0)
(-980.502 0 0)
(-982.097 0 0)
(-983.668 0 0)
(-985.058 0 0)
(-986.264 0 0)
(-987.452 0 0)
(-988.802 0 0)
(-990.337 0 0)
(-991.919 0 0)
(-993.399 0 0)
(-994.709 0 0)
(-995.893 0 0)
(-997.134 0 0)
(-998.605 0 0)
(-1000.26 0 0)
(-1001.85 0 0)
(-1003.23 0 0)
(-1004.43 0 0)
(-1005.61 0 0)
(-1006.96 0 0)
(-1008.57 0 0)
(-1010.31 0 0)
(-1011.87 0 0)
(-1013.11 0 0)
(-1014.23 0 0)
(-1015.47 0 0)
(-1016.95 0 0)
(-1018.62 0 0)
(-1020.33 0 0)
(-1021.84 0 0)
(-1023.06 0 0)
(-1024.21 0 0)
(-1025.52 0 0)
(-1027.05 0 0)
(-1028.71 0 0)
(-1030.38 0 0)
(-1031.88 0 0)
(-1033.12 0 0)
(-1034.29 0 0)
(-1035.67 0 0)
(-1037.27 0 0)
(-1038.94 0 0)
(-1040.54 0 0)
(-1041.95 0 0)
(-1043.18 0 0)
(-1044.43 0 0)
(-1045.93 0 0)
(-1047.67 0 0)
(-1049.35 0 0)
(-1050.83 0 0)
(-1052.13 0 0)
(-1053.35 0 0)
(-1054.66 0 0)
(-1056.22 0 0)
(-1058 0 0)
(-1059.76 0 0)
(-1061.26 0 0)
(-1062.52 0 0)
(-1063.71 0 0)
(-1065.01 0 0)
(-1066.56 0 0)
(-1068.37 0 0)
(-1070.18 0 0)
(-1071.71 0 0)
(-1072.97 0 0)
(-1074.19 0 0)
(-1075.57 0 0)
(-1077.14 0 0)
(-1078.85 0 0)
(-1080.59 0 0)
(-1082.15 0 0)
(-1083.48 0 0)
(-1084.72 0 0)
(-1086.15 0 0)
(-1087.81 0 0)
(-1089.57 0 0)
(-1091.24 0 0)
(-1092.71 0 0)
(-1094.02 0 0)
(-1095.28 0 0)
(-1096.73 0 0)
(-1098.45 0 0)
(-1100.32 0 0)
(-1102.07 0 0)
(-1103.53 0 0)
(-1104.78 0 0)
(-1106.01 0 0)
(-1107.41 0 0)
(-1109.09 0 0)
(-1110.95 0 0)
(-1112.8 0 0)
(-1114.4 0 0)
(-1115.72 0 0)
(-1116.93 0 0)
(-1118.3 0 0)
(-1119.93 0 0)
(-1121.74 0 0)
(-1123.55 0 0)
(-1125.19 0 0)
(-1126.6 0 0)
(-1127.9 0 0)
(-1129.28 0 0)
(-1130.9 0 0)
(-1132.73 0 0)
(-1134.54 0 0)
(-1136.14 0 0)
(-1137.52 0 0)
(-1138.81 0 0)
(-1140.22 0 0)
(-1141.85 0 0)
(-1143.71 0 0)
(-1145.62 0 0)
(-1147.37 0 0)
(-1148.82 0 0)
(-1150.04 0 0)
(-1151.32 0 0)
(-1152.86 0 0)
(-1154.68 0 0)
(-1156.61 0 0)
(-1158.44 0 0)
(-1160.06 0 0)
(-1161.44 0 0)
(-1162.75 0 0)
(-1164.16 0 0)
(-1165.82 0 0)
(-1167.71 0 0)
(-1169.58 0 0)
(-1171.26 0 0)
(-1172.7 0 0)
(-1174.04 0 0)
(-1175.48 0 0)
(-1177.16 0 0)
(-1179.07 0 0)
(-1180.99 0 0)
(-1182.72 0 0)
(-1184.15 0 0)
(-1185.43 0 0)
(-1186.79 0 0)
(-1188.39 0 0)
(-1190.24 0 0)
(-1192.21 0 0)
(-1194.16 0 0)
(-1195.86 0 0)
(-1197.27 0 0)
(-1198.53 0 0)
(-1199.91 0 0)
(-1201.62 0 0)
(-1203.56 0 0)
(-1205.51 0 0)
(-1207.26 0 0)
(-1208.8 0 0)
(-1210.24 0 0)
(-1211.72 0 0)
(-1213.36 0 0)
(-1215.19 0 0)
(-1217.12 0 0)
(-1218.96 0 0)
(-1220.58 0 0)
(-1221.98 0 0)
(-1223.33 0 0)
(-1224.85 0 0)
(-1226.66 0 0)
(-1228.68 0 0)
(-1230.71 0 0)
(-1232.52 0 0)
(-1234.06 0 0)
(-1235.41 0 0)
(-1236.79 0 0)
(-1238.38 0 0)
(-1240.23 0 0)
(-1242.22 0 0)
(-1244.16 0 0)
(-1245.89 0 0)
(-1247.41 0 0)
(-1248.86 0 0)
(-1250.41 0 0)
(-1252.24 0 0)
(-1254.18 0 0)
(-1256.18 0 0)
(-1257.95 0 0)
(-1259.52 0 0)
(-1260.93 0 0)
(-1262.33 0 0)
(-1263.98 0 0)
(-1265.87 0 0)
(-1268.01 0 0)
(-1270.04 0 0)
(-1271.87 0 0)
(-1273.4 0 0)
(-1274.8 0 0)
(-1276.25 0 0)
(-1277.95 0 0)
(-1279.8 0 0)
(-1281.85 0 0)
(-1283.77 0 0)
(-1285.55 0 0)
(-1287.13 0 0)
(-1288.57 0 0)
(-1290.26 0 0)
(-1292.01 0 0)
(-1294.13 0 0)
(-1296.11 0 0)
(-1298 0 0)
(-1299.72 0 0)
(-1301.05 0 0)
(-1302.7 0 0)
(-1304.08 0 0)
(-1306.14 0 0)
(-1308.08 0 0)
(-1310.22 0 0)
(-1312.3 0 0)
(-1313.76 0 0)
(-1315.62 0 0)
(-1316.72 0 0)
(-1318.76 0 0)
(-1320.4 0 0)
(-1322.54 0 0)
(-1324.67 0 0)
(-1326.14 0 0)
(-1328.3 0 0)
(-1329.13 0 0)
(-1331.38 0 0)
(-1332.7 0 0)
(-1334.93 0 0)
(-1337.31 0 0)
(-1338.7 0 0)
(-1341.62 0 0)
(-1341.9 0 0)
(-1344.8 0 0)
(-1345.21 0 0)
(-1347.72 0 0)
(-1349.54 0 0)
(-1351.1 0 0)
(-1354.26 0 0)
(-1354.59 0 0)
(-1358.06 0 0)
(-1357.96 0 0)
(-1360.94 0 0)
(-1361.98 0 0)
(-1364.15 0 0)
(-1366.95 0 0)
(-1367.8 0 0)
(-1371.29 0 0)
(-1371.06 0 0)
(-1374.16 0 0)
(-1374.67 0 0)
(-1376.97 0 0)
(-1379.52 0 0)
(-1380.57 0 0)
(-1384.32 0 0)
(-1384.37 0 0)
(-1387.7 0 0)
(-1388.2 0 0)
(-1390.4 0 0)
(-1392.59 0 0)
(-1393.84 0 0)
(-1397.3 0 0)
(-1397.9 0 0)
(-1401.2 0 0)
(-1401.64 0 0)
(-1404.14 0 0)
(-1405.41 0 0)
(-1407.42 0 0)
(-1410.04 0 0)
(-1411.47 0 0)
(-1414.84 0 0)
(-1415.3 0 0)
(-1418.73 0 0)
(-1418.74 0 0)
(-1422.06 0 0)
(-1422.95 0 0)
(-1425.66 0 0)
(-1428.11 0 0)
(-1429.38 0 0)
(-1432.83 0 0)
(-1432.91 0 0)
(-1436.41 0 0)
(-1436.84 0 0)
(-1439.89 0 0)
(-1441.74 0 0)
(-1443.96 0 0)
(-1446.9 0 0)
(-1447.99 0 0)
(-1451.2 0 0)
(-1451.71 0 0)
(-1454.78 0 0)
(-1456.13 0 0)
(-1458.56 0 0)
(-1461.64 0 0)
(-1462.68 0 0)
(-1466.76 0 0)
(-1466.83 0 0)
(-1470.33 0 0)
(-1471.59 0 0)
(-1473.49 0 0)
(-1477.36 0 0)
(-1477.85 0 0)
(-1482.61 0 0)
(-1483.42 0 0)
(-1486.03 0 0)
(-1489.08 0 0)
(-1489.25 0 0)
(-1494.03 0 0)
(-1494.43 0 0)
(-1498.45 0 0)
(-1500.79 0 0)
(-1502.88 0 0)
(-1506.47 0 0)
(-1507.17 0 0)
(-1511.39 0 0)
(-1511.93 0 0)
(-1516.15 0 0)
(-1518.5 0 0)
(-1520.86 0 0)
(-1525.45 0 0)
(-1526.03 0 0)
(-1530.39 0 0)
(-1531.94 0 0)
(-1534.64 0 0)
(-1538.41 0 0)
(-1540.23 0 0)
(-1545.09 0 0)
(-1546.57 0 0)
(-1550.77 0 0)
(-1553.2 0 0)
(-1555.39 0 0)
(-1559.92 0 0)
(-1561.36 0 0)
(-1566.14 0 0)
(-1569.15 0 0)
(-1572.26 0 0)
(-1576.33 0 0)
(-1579.03 0 0)
(-1582.28 0 0)
(-1586.05 0 0)
(-1589.07 0 0)
(-1592.84 0 0)
(-1597.29 0 0)
(-1600.06 0 0)
(-1604.88 0 0)
(-1608.07 0 0)
(-1611.27 0 0)
(-1615.87 0 0)
(-1618.54 0 0)
(-1623.27 0 0)
(-1627.35 0 0)
(-1631.33 0 0)
(-1635.99 0 0)
(-1639.81 0 0)
(-1643.82 0 0)
(-1647.67 0 0)
(-1651.97 0 0)
(-1655.9 0 0)
(-1660.76 0 0)
(-1665.56 0 0)
(-1669.7 0 0)
(-1674.81 0 0)
(-1678.73 0 0)
(-1682.75 0 0)
(-1687.6 0 0)
(-1691.64 0 0)
(-1696.54 0 0)
(-1701.96 0 0)
(-1706.29 0 0)
(-1711.21 0 0)
(-1716.08 0 0)
(-1719.64 0 0)
(-1724.54 0 0)
(-1729.42 0 0)
(-1733.62 0 0)
(-1739.31 0 0)
(-1744.26 0 0)
(-1748.68 0 0)
(-1753.4 0 0)
(-1757.76 0 0)
(-1762.18 0 0)
(-1766.44 0 0)
(-1771.6 0 0)
(-1776.97 0 0)
(-1780.54 0 0)
(-1786.27 0 0)
(-1790.49 0 0)
(-1793.48 0 0)
(-1798.41 0 0)
(-1803.42 0 0)
(-1805.71 0 0)
(-1812.22 0 0)
(-1815.97 0 0)
(-1819.43 0 0)
(-1823.16 0 0)
(-1828.32 0 0)
(-1828.84 0 0)
(-1835 0 0)
(-1837.57 0 0)
(-1841.54 0 0)
(-1844.11 0 0)
(-1849.85 0 0)
(-1849.38 0 0)
(-1854.52 0 0)
(-1856.19 0 0)
(-1859.01 0 0)
(-1860.87 0 0)
(-1865.33 0 0)
(-1866.51 0 0)
(-1868.33 0 0)
(-1871.64 0 0)
(-1872.54 0 0)
(-1873.81 0 0)
(-1876.09 0 0)
(-1877.93 0 0)
(-1878.59 0 0)
(-1880.42 0 0)
(-1881.88 0 0)
(-1883.15 0 0)
(-1882.64 0 0)
(-1884.04 0 0)
(-1884.87 0 0)
(-1885.89 0 0)
(-1886.21 0 0)
(-1886.91 0 0)
(-1886.9 0 0)
(-1887.56 0 0)
(-1887.02 0 0)
(-1887.35 0 0)
(-1886.92 0 0)
(-1887.61 0 0)
(-1887.38 0 0)
(-1887.72 0 0)
(-1887.25 0 0)
(-1887.47 0 0)
(-1886.51 0 0)
(-1886.4 0 0)
(-1885.35 0 0)
(-1885.69 0 0)
(-1885.29 0 0)
(-1885.54 0 0)
(-1884.94 0 0)
(-1885.04 0 0)
(-1884.03 0 0)
(-1883.89 0 0)
(-1882.73 0 0)
(-1882.91 0 0)
(-1882.53 0 0)
(-1882.85 0 0)
(-1882.4 0 0)
(-1882.64 0 0)
(-1881.95 0 0)
(-1882.1 0 0)
(-1881.24 0 0)
(-1881.45 0 0)
(-1881.19 0 0)
(-1881.76 0 0)
(-1881.64 0 0)
(-1882.2 0 0)
(-1881.92 0 0)
(-1882.43 0 0)
(-1882.03 0 0)
(-1882.61 0 0)
(-1882.57 0 0)
(-1883.52 0 0)
(-1883.84 0 0)
(-1884.77 0 0)
(-1884.99 0 0)
(-1885.87 0 0)
(-1885.99 0 0)
(-1886.96 0 0)
(-1887.29 0 0)
(-1888.48 0 0)
(-1889.18 0 0)
(-1890.52 0 0)
(-1891.29 0 0)
(-1892.59 0 0)
(-1893.24 0 0)
(-1894.57 0 0)
(-1895.32 0 0)
(-1896.82 0 0)
(-1897.87 0 0)
(-1899.55 0 0)
(-1900.77 0 0)
(-1902.47 0 0)
(-1903.62 0 0)
(-1905.3 0 0)
(-1906.44 0 0)
(-1908.24 0 0)
(-1909.61 0 0)
(-1911.6 0 0)
(-1913.22 0 0)
(-1915.31 0 0)
(-1916.99 0 0)
(-1919.1 0 0)
(-1920.77 0 0)
(-1922.96 0 0)
(-1924.78 0 0)
(-1927.17 0 0)
(-1929.29 0 0)
(-1931.87 0 0)
(-1934.2 0 0)
(-1936.92 0 0)
(-1939.37 0 0)
(-1942.24 0 0)
(-1944.9 0 0)
(-1948.04 0 0)
(-1951.09 0 0)
(-1954.56 0 0)
(-1958.04 0 0)
(-1961.82 0 0)
(-1965.66 0 0)
(-1969.76 0 0)
(-1973.97 0 0)
(-1978.45 0 0)
(-1983.19 0 0)
(-1988.14 0 0)
(-1993.51 0 0)
(-1998.97 0 0)
(-2004.93 0 0)
(-2010.87 0 0)
(-2017.41 0 0)
(-2023.84 0 0)
(-2030.97 0 0)
(-2037.94 0 0)
(-2045.72 0 0)
(-2053.22 0 0)
(-2061.55 0 0)
(-2069.48 0 0)
(-2078.26 0 0)
(-2086.5 0 0)
(-2095.63 0 0)
(-2104.14 0 0)
(-2113.55 0 0)
(-2122.18 0 0)
(-2131.68 0 0)
(-2140.28 0 0)
(-2149.66 0 0)
(-2158.01 0 0)
(-2167.05 0 0)
(-2175.03 0 0)
(-2183.6 0 0)
(-2191.1 0 0)
(-2198.99 0 0)
(-2205.87 0 0)
(-2212.88 0 0)
(-2218.96 0 0)
(-2224.93 0 0)
(-2230.15 0 0)
(-2235.01 0 0)
(-2239.34 0 0)
(-2243.1 0 0)
(-2246.56 0 0)
(-2249.23 0 0)
(-2251.85 0 0)
(-2253.47 0 0)
(-2255.31 0 0)
(-2255.99 0 0)
(-2257.15 0 0)
(-2257.05 0 0)
(-2257.68 0 0)
(-2257.01 0 0)
(-2257.25 0 0)
(-2256.15 0 0)
(-2256.09 0 0)
(-2254.66 0 0)
(-2254.4 0 0)
(-2252.76 0 0)
(-2252.4 0 0)
(-2250.68 0 0)
(-2250.33 0 0)
(-2248.67 0 0)
(-2248.38 0 0)
(-2246.81 0 0)
(-2246.61 0 0)
(-2245.17 0 0)
(-2245.07 0 0)
(-2243.77 0 0)
(-2243.81 0 0)
(-2242.7 0 0)
(-2242.91 0 0)
(-2242.02 0 0)
(-2242.37 0 0)
(-2241.67 0 0)
(-2242.16 0 0)
(-2241.61 0 0)
(-2242.22 0 0)
(-2241.82 0 0)
(-2242.55 0 0)
(-2242.31 0 0)
(-2243.17 0 0)
(-2243.09 0 0)
(-2244.05 0 0)
(-2244.11 0 0)
(-2245.17 0 0)
(-2245.32 0 0)
(-2246.47 0 0)
(-2246.73 0 0)
(-2247.95 0 0)
(-2248.33 0 0)
(-2249.65 0 0)
(-2250.14 0 0)
(-2251.54 0 0)
(-2252.13 0 0)
(-2253.59 0 0)
(-2254.25 0 0)
(-2255.77 0 0)
(-2256.5 0 0)
(-2258.08 0 0)
(-2258.88 0 0)
(-2260.52 0 0)
(-2261.4 0 0)
(-2263.1 0 0)
(-2264.06 0 0)
(-2265.81 0 0)
(-2266.84 0 0)
(-2268.65 0 0)
(-2269.73 0 0)
(-2271.58 0 0)
(-2272.72 0 0)
(-2274.61 0 0)
(-2275.81 0 0)
(-2277.75 0 0)
(-2279 0 0)
(-2280.99 0 0)
(-2282.3 0 0)
(-2284.32 0 0)
(-2285.68 0 0)
(-2287.74 0 0)
(-2289.14 0 0)
(-2291.24 0 0)
(-2292.69 0 0)
(-2294.82 0 0)
(-2296.31 0 0)
(-2298.48 0 0)
(-2300.01 0 0)
(-2302.22 0 0)
(-2303.8 0 0)
(-2306.04 0 0)
(-2307.67 0 0)
(-2309.94 0 0)
(-2311.6 0 0)
(-2313.9 0 0)
(-2315.59 0 0)
(-2317.92 0 0)
(-2319.65 0 0)
(-2322.01 0 0)
(-2323.78 0 0)
(-2326.17 0 0)
(-2327.98 0 0)
(-2330.4 0 0)
(-2332.24 0 0)
(-2334.69 0 0)
(-2336.57 0 0)
(-2339.04 0 0)
(-2340.94 0 0)
(-2343.44 0 0)
(-2345.36 0 0)
(-2347.88 0 0)
(-2349.84 0 0)
(-2352.39 0 0)
(-2354.38 0 0)
(-2356.96 0 0)
(-2358.98 0 0)
(-2361.58 0 0)
(-2363.63 0 0)
(-2366.25 0 0)
(-2368.33 0 0)
(-2370.97 0 0)
(-2373.07 0 0)
(-2375.73 0 0)
(-2377.86 0 0)
(-2380.55 0 0)
(-2382.7 0 0)
(-2385.41 0 0)
(-2387.6 0 0)
(-2390.33 0 0)
(-2392.54 0 0)
(-2395.29 0 0)
(-2397.52 0 0)
(-2400.29 0 0)
(-2402.54 0 0)
(-2405.33 0 0)
(-2407.61 0 0)
(-2410.42 0 0)
(-2412.73 0 0)
(-2415.56 0 0)
(-2417.88 0 0)
(-2420.73 0 0)
(-2423.07 0 0)
(-2425.94 0 0)
(-2428.3 0 0)
(-2431.18 0 0)
(-2433.57 0 0)
(-2436.47 0 0)
(-2438.88 0 0)
(-2441.82 0 0)
(-2444.18 0 0)
(-2447.32 0 0)
(-2450.91 0 0)
)
;

boundaryField
{
    sides
    {
        type            calculated;
        value           nonuniform List<vector> 2((-2450.91 0 0) (-47.3333 0 0));
    }
    empty
    {
        type            empty;
    }
}


// ************************************************************************* //
