/*--------------------------------*- C++ -*----------------------------------*\
  =========                 |
  \\      /  F ield         | OpenFOAM: The Open Source CFD Toolbox
   \\    /   O peration     | Website:  https://openfoam.org
    \\  /    A nd           | Version:  9
     \\/     M anipulation  |
\*---------------------------------------------------------------------------*/
FoamFile
{
    format      ascii;
    class       volScalarField;
    location    "0.047";
    object      ddt0(rho);
}
// * * * * * * * * * * * * * * * * * * * * * * * * * * * * * * * * * * * * * //

dimensions      [1 -3 -1 0 0 0 0];

internalField   nonuniform List<scalar> 
1000
(
-4.23164
-4.22984
-4.22663
-4.22392
-4.22139
-4.2187
-4.21588
-4.21319
-4.21065
-4.20796
-4.20492
-4.20178
-4.19892
-4.19634
-4.19361
-4.19034
-4.1867
-4.18322
-4.18033
-4.17784
-4.17512
-4.17163
-4.16741
-4.16309
-4.15936
-4.15648
-4.15404
-4.15125
-4.14748
-4.14266
-4.13734
-4.13235
-4.12834
-4.12542
-4.1231
-4.12056
-4.11701
-4.1121
-4.10601
-4.09943
-4.0932
-4.08805
-4.0843
-4.08175
-4.07978
-4.07755
-4.07427
-4.06944
-4.06295
-4.05519
-4.04686
-4.03872
-4.03154
-4.02583
-4.02172
-4.01909
-4.01749
-4.01621
-4.01446
-4.01164
-4.00728
-4.00121
-3.99345
-3.98407
-3.97336
-3.96195
-3.95047
-3.93954
-3.92976
-3.92152
-3.9148
-3.90968
-3.90639
-3.90454
-3.90377
-3.90398
-3.90443
-3.90414
-3.90272
-3.90033
-3.89705
-3.89197
-3.88554
-3.88643
-3.8775
-3.86614
-3.8516
-3.84254
-3.83474
-3.83224
-3.82546
-3.82396
-3.82216
-3.81726
-3.8104
-3.80144
-3.79411
-3.78485
-3.77234
-3.76134
-3.75185
-3.7423
-3.73041
-3.71778
-3.70759
-3.69694
-3.68428
-3.67098
-3.65998
-3.64936
-3.63583
-3.62171
-3.60912
-3.59831
-3.58513
-3.56958
-3.55563
-3.54371
-3.53114
-3.51541
-3.49995
-3.48662
-3.47361
-3.45821
-3.44163
-3.42726
-3.41399
-3.39908
-3.38144
-3.36509
-3.35113
-3.33699
-3.32007
-3.30207
-3.28648
-3.27231
-3.25662
-3.23824
-3.22101
-3.20618
-3.1914
-3.17403
-3.15569
-3.1394
-3.12526
-3.10998
-3.09202
-3.07382
-3.05863
-3.04477
-3.02884
-3.01076
-2.99401
-2.98028
-2.96682
-2.95091
-2.93347
-2.9183
-2.90567
-2.893
-2.87779
-2.8617
-2.84785
-2.83673
-2.82525
-2.81136
-2.79664
-2.78456
-2.77503
-2.76537
-2.75297
-2.73998
-2.72944
-2.72179
-2.71408
-2.70373
-2.6924
-2.68353
-2.67781
-2.67258
-2.66466
-2.65514
-2.64743
-2.64334
-2.64038
-2.63514
-2.62765
-2.62087
-2.618
-2.61703
-2.61478
-2.60942
-2.60386
-2.60119
-2.60189
-2.60191
-2.59924
-2.5948
-2.59218
-2.59358
-2.59524
-2.59568
-2.59268
-2.59033
-2.5911
-2.59405
-2.59661
-2.59578
-2.59394
-2.59386
-2.59718
-2.60108
-2.60254
-2.6016
-2.60115
-2.60345
-2.60802
-2.61146
-2.61202
-2.61158
-2.6127
-2.61698
-2.62176
-2.62415
-2.62443
-2.62452
-2.62731
-2.63266
-2.63701
-2.63844
-2.63863
-2.63941
-2.64352
-2.64931
-2.65294
-2.654
-2.65387
-2.65573
-2.66049
-2.66632
-2.66992
-2.67038
-2.67038
-2.67256
-2.67781
-2.68383
-2.68724
-2.68749
-2.6872
-2.68958
-2.69529
-2.70156
-2.70476
-2.70473
-2.70455
-2.70697
-2.71279
-2.71902
-2.72217
-2.72232
-2.72234
-2.72484
-2.73038
-2.73647
-2.73977
-2.74015
-2.74019
-2.7428
-2.74829
-2.75387
-2.75725
-2.75818
-2.75849
-2.7608
-2.76584
-2.77159
-2.77517
-2.77606
-2.77651
-2.77861
-2.78318
-2.78903
-2.79346
-2.79495
-2.7946
-2.79577
-2.80029
-2.80655
-2.8118
-2.81406
-2.81375
-2.81355
-2.81666
-2.82328
-2.82974
-2.83302
-2.83316
-2.83259
-2.8342
-2.83928
-2.84619
-2.8513
-2.85267
-2.85204
-2.85276
-2.85653
-2.86253
-2.86818
-2.87124
-2.87171
-2.87191
-2.87437
-2.87939
-2.88505
-2.88925
-2.89104
-2.89105
-2.89184
-2.89579
-2.90222
-2.90783
-2.9104
-2.91042
-2.9102
-2.9123
-2.91798
-2.92534
-2.93028
-2.93075
-2.92959
-2.93021
-2.9339
-2.94021
-2.94696
-2.95113
-2.95121
-2.95024
-2.95155
-2.95574
-2.96176
-2.9678
-2.97157
-2.97186
-2.97114
-2.97316
-2.97823
-2.98415
-2.98896
-2.99136
-2.99131
-2.99148
-2.99503
-3.00156
-3.00749
-3.01062
-3.0114
-3.01114
-3.01202
-3.0161
-3.02308
-3.02976
-3.03306
-3.03319
-3.03229
-3.03297
-3.03684
-3.04396
-3.05109
-3.05453
-3.05458
-3.05399
-3.05558
-3.05946
-3.0652
-3.07115
-3.07492
-3.07564
-3.07533
-3.07729
-3.08221
-3.08838
-3.09331
-3.09579
-3.09611
-3.09596
-3.098
-3.10352
-3.11087
-3.11667
-3.11885
-3.11843
-3.11774
-3.11917
-3.12395
-3.13105
-3.13791
-3.14159
-3.14188
-3.14084
-3.14169
-3.14581
-3.15207
-3.1583
-3.16237
-3.16371
-3.16357
-3.16454
-3.16832
-3.1746
-3.18062
-3.18419
-3.18495
-3.18467
-3.18575
-3.18953
-3.19602
-3.20305
-3.20816
-3.20962
-3.2084
-3.20786
-3.21033
-3.21621
-3.22335
-3.22932
-3.23268
-3.23333
-3.23296
-3.23385
-3.23774
-3.24417
-3.25044
-3.25438
-3.25547
-3.25542
-3.25654
-3.26043
-3.26698
-3.27362
-3.27806
-3.27892
-3.2781
-3.27823
-3.28097
-3.28671
-3.29374
-3.30051
-3.30445
-3.30498
-3.30373
-3.3039
-3.30783
-3.31439
-3.32102
-3.32539
-3.3273
-3.32798
-3.32923
-3.33217
-3.33733
-3.34357
-3.3488
-3.35148
-3.35162
-3.35132
-3.35277
-3.35756
-3.36466
-3.37183
-3.37655
-3.37814
-3.37766
-3.37755
-3.37972
-3.38477
-3.39129
-3.39723
-3.40093
-3.40214
-3.40269
-3.40429
-3.409
-3.4148
-3.42125
-3.42519
-3.427
-3.42687
-3.42681
-3.42939
-3.43451
-3.44235
-3.44903
-3.45343
-3.45454
-3.45432
-3.4546
-3.45757
-3.46214
-3.46884
-3.47408
-3.47777
-3.47929
-3.47941
-3.48215
-3.48543
-3.49275
-3.49844
-3.5032
-3.50614
-3.50486
-3.50706
-3.50629
-3.51281
-3.51795
-3.52527
-3.53179
-3.53188
-3.536
-3.53231
-3.53835
-3.54025
-3.54739
-3.55431
-3.5543
-3.56148
-3.55487
-3.56302
-3.56132
-3.56931
-3.57856
-3.57763
-3.59245
-3.58011
-3.59462
-3.58345
-3.59407
-3.59726
-3.59817
-3.61502
-3.60327
-3.62323
-3.6069
-3.62203
-3.61716
-3.62406
-3.63693
-3.63037
-3.65016
-3.63256
-3.64848
-3.63813
-3.64601
-3.65611
-3.6514
-3.67336
-3.6584
-3.6762
-3.66564
-3.6722
-3.67826
-3.67532
-3.69388
-3.68433
-3.70127
-3.68988
-3.69892
-3.69547
-3.6996
-3.70937
-3.7077
-3.72468
-3.71325
-3.73075
-3.71458
-3.73097
-3.72311
-3.73339
-3.74064
-3.73668
-3.75338
-3.73757
-3.75464
-3.7419
-3.75442
-3.75521
-3.75946
-3.77038
-3.76344
-3.77667
-3.76383
-3.77552
-3.77032
-3.77558
-3.78653
-3.77801
-3.79814
-3.77996
-3.79426
-3.7869
-3.78555
-3.80246
-3.7873
-3.81215
-3.79924
-3.80337
-3.81102
-3.79152
-3.81495
-3.79691
-3.81272
-3.81211
-3.80912
-3.81945
-3.80272
-3.81831
-3.79922
-3.81409
-3.81094
-3.80773
-3.82451
-3.80383
-3.81766
-3.805
-3.80261
-3.80935
-3.79785
-3.81379
-3.79796
-3.80677
-3.7985
-3.78778
-3.79772
-3.77892
-3.79004
-3.7843
-3.77903
-3.78166
-3.77136
-3.76537
-3.76345
-3.75408
-3.75093
-3.75314
-3.73956
-3.74389
-3.7327
-3.72112
-3.7213
-3.70354
-3.70359
-3.69718
-3.68923
-3.68665
-3.67593
-3.66623
-3.65451
-3.64623
-3.634
-3.62953
-3.62392
-3.61196
-3.60803
-3.59295
-3.5784
-3.5707
-3.55546
-3.54741
-3.54362
-3.52991
-3.52111
-3.51161
-3.49039
-3.4808
-3.47103
-3.45518
-3.45255
-3.44337
-3.42974
-3.41879
-3.40507
-3.39209
-3.37815
-3.37261
-3.36936
-3.35099
-3.35212
-3.34076
-3.31953
-3.31606
-3.3144
-3.28979
-3.3034
-3.29374
-3.2832
-3.27587
-3.28296
-3.25048
-3.26933
-3.25761
-3.26074
-3.25219
-3.27414
-3.24249
-3.26301
-3.2536
-3.25785
-3.2534
-3.2762
-3.27043
-3.27214
-3.28735
-3.28782
-3.2886
-3.30283
-3.31437
-3.32012
-3.33405
-3.34777
-3.36066
-3.3636
-3.38062
-3.39461
-3.41065
-3.42586
-3.44447
-3.46007
-3.47868
-3.49046
-3.50956
-3.52469
-3.54724
-3.56606
-3.58875
-3.60702
-3.62911
-3.64415
-3.66584
-3.68146
-3.70622
-3.72692
-3.7515
-3.77094
-3.79412
-3.81052
-3.83274
-3.84781
-3.87173
-3.89221
-3.91644
-3.93572
-3.95866
-3.97518
-3.99655
-4.01074
-4.03192
-4.05016
-4.07265
-4.0907
-4.11194
-4.12729
-4.14677
-4.1596
-4.17879
-4.19348
-4.2137
-4.22977
-4.24855
-4.26249
-4.27961
-4.29114
-4.30753
-4.31931
-4.33599
-4.34941
-4.36573
-4.37836
-4.39325
-4.40357
-4.41741
-4.42711
-4.4409
-4.45165
-4.46536
-4.47617
-4.48884
-4.49784
-4.50929
-4.51696
-4.528
-4.53616
-4.54719
-4.55594
-4.56632
-4.57404
-4.58316
-4.58921
-4.59734
-4.60282
-4.61041
-4.61604
-4.6228
-4.62761
-4.63283
-4.63574
-4.63916
-4.64049
-4.64234
-4.64287
-4.64302
-4.64234
-4.6401
-4.63703
-4.63178
-4.62587
-4.61749
-4.60923
-4.5977
-4.58725
-4.57221
-4.55885
-4.5398
-4.52299
-4.49982
-4.47977
-4.45294
-4.43029
-4.4001
-4.37467
-4.34108
-4.31305
-4.27637
-4.24628
-4.20763
-4.17675
-4.13703
-4.10609
-4.06641
-4.03612
-3.99734
-3.96862
-3.93232
-3.90668
-3.87459
-3.85289
-3.82617
-3.8089
-3.78821
-3.77584
-3.76193
-3.75487
-3.74825
-3.74696
-3.74774
-3.75199
-3.75977
-3.769
-3.78312
-3.79666
-3.81632
-3.83363
-3.85805
-3.8787
-3.9069
-3.93006
-3.96087
-3.9854
-4.01775
-4.04287
-4.07601
-4.10139
-4.13479
-4.16023
-4.19338
-4.21845
-4.25086
-4.27509
-4.30645
-4.32973
-4.36001
-4.38253
-4.41177
-4.43362
-4.46176
-4.48279
-4.50975
-4.5298
-4.55562
-4.57475
-4.59957
-4.61802
-4.64197
-4.65987
-4.68299
-4.70028
-4.72257
-4.73917
-4.76068
-4.77669
-4.79754
-4.81314
-4.83344
-4.84872
-4.8685
-4.88341
-4.90263
-4.91707
-4.93574
-4.94971
-4.96789
-4.98148
-4.99925
-5.01259
-5.02999
-5.0431
-5.06014
-5.073
-5.08967
-5.10224
-5.11855
-5.13084
-5.14682
-5.15885
-5.17453
-5.18637
-5.20178
-5.21342
-5.22855
-5.23998
-5.25484
-5.26606
-5.28064
-5.29164
-5.30597
-5.31678
-5.33089
-5.34156
-5.35548
-5.36603
-5.37974
-5.39013
-5.40362
-5.41381
-5.42709
-5.43712
-5.45021
-5.46011
-5.47303
-5.48283
-5.49561
-5.50532
-5.51794
-5.52755
-5.54
-5.54946
-5.56174
-5.57106
-5.58318
-5.59237
-5.60435
-5.61345
-5.6253
-5.63432
-5.64606
-5.65501
-5.66662
-5.67547
-5.68695
-5.69569
-5.70704
-5.71569
-5.72693
-5.73551
-5.74665
-5.75518
-5.76622
-5.77467
-5.7856
-5.79396
-5.80478
-5.81305
-5.82376
-5.83196
-5.84259
-5.85072
-5.86126
-5.86934
-5.87978
-5.88778
-5.89813
-5.90605
-5.91631
-5.92416
-5.93433
-5.94212
-5.95222
-5.95997
-5.97
-5.97732
-5.98795
-5.9937
)
;

boundaryField
{
    sides
    {
        type            calculated;
        value           nonuniform List<scalar> 2(-5.9937 -4.23164);
    }
    empty
    {
        type            empty;
    }
}


// ************************************************************************* //
