/*--------------------------------*- C++ -*----------------------------------*\
  =========                 |
  \\      /  F ield         | OpenFOAM: The Open Source CFD Toolbox
   \\    /   O peration     | Website:  https://openfoam.org
    \\  /    A nd           | Version:  9
     \\/     M anipulation  |
\*---------------------------------------------------------------------------*/
FoamFile
{
    format      ascii;
    class       volScalarField;
    location    "0.047";
    object      ddt0(p);
}
// * * * * * * * * * * * * * * * * * * * * * * * * * * * * * * * * * * * * * //

dimensions      [1 -1 -3 0 0 0 0];

internalField   nonuniform List<scalar> 
1000
(
-305281
-305199
-305057
-304943
-304836
-304724
-304607
-304485
-304359
-304232
-304100
-303964
-303822
-303675
-303523
-303370
-303215
-303058
-302897
-302730
-302558
-302382
-302203
-302021
-301836
-301644
-301446
-301241
-301032
-300820
-300608
-300394
-300175
-299950
-299716
-299477
-299233
-298987
-298740
-298489
-298233
-297971
-297703
-297430
-297153
-296874
-296592
-296305
-296012
-295714
-295410
-295101
-294787
-294469
-294145
-293817
-293489
-293155
-292812
-292459
-292101
-291742
-291383
-291015
-290630
-290229
-289819
-289408
-288999
-288582
-288148
-287695
-287224
-286732
-286239
-285751
-285242
-284710
-284160
-283586
-283006
-282416
-281817
-281747
-280991
-280169
-279079
-278271
-277489
-277084
-276351
-275845
-275218
-274569
-273971
-273257
-272609
-271897
-271163
-270462
-269690
-268921
-268165
-267380
-266556
-265706
-264880
-264050
-263211
-262328
-261415
-260526
-259624
-258712
-257774
-256807
-255839
-254874
-253899
-252905
-251896
-250863
-249814
-248775
-247741
-246690
-245614
-244518
-243414
-242313
-241212
-240098
-238972
-237836
-236691
-235545
-234399
-233250
-232093
-230927
-229759
-228597
-227443
-226293
-225142
-223987
-222830
-221676
-220530
-219393
-218265
-217145
-216035
-214937
-213853
-212783
-211725
-210678
-209647
-208634
-207642
-206670
-205718
-204783
-203868
-202976
-202109
-201268
-200453
-199662
-198893
-198148
-197430
-196741
-196080
-195448
-194844
-194270
-193725
-193209
-192722
-192262
-191827
-191418
-191036
-190682
-190357
-190059
-189786
-189539
-189315
-189116
-188939
-188784
-188650
-188536
-188442
-188368
-188314
-188279
-188262
-188262
-188276
-188304
-188346
-188402
-188472
-188554
-188649
-188754
-188870
-188995
-189128
-189270
-189418
-189574
-189737
-189908
-190085
-190268
-190456
-190650
-190848
-191050
-191255
-191464
-191676
-191890
-192107
-192327
-192549
-192773
-192998
-193225
-193454
-193685
-193918
-194153
-194390
-194628
-194867
-195107
-195347
-195588
-195829
-196071
-196314
-196558
-196802
-197047
-197291
-197537
-197782
-198028
-198273
-198519
-198766
-199013
-199262
-199511
-199761
-200011
-200261
-200511
-200761
-201012
-201262
-201513
-201765
-202017
-202269
-202522
-202775
-203027
-203279
-203531
-203783
-204035
-204287
-204540
-204793
-205047
-205301
-205556
-205810
-206065
-206319
-206574
-206829
-207085
-207340
-207596
-207851
-208107
-208362
-208618
-208873
-209129
-209384
-209640
-209896
-210152
-210409
-210667
-210924
-211182
-211439
-211696
-211954
-212211
-212468
-212725
-212983
-213240
-213498
-213756
-214014
-214272
-214530
-214788
-215047
-215307
-215566
-215826
-216086
-216346
-216606
-216866
-217126
-217386
-217645
-217905
-218165
-218425
-218686
-218948
-219209
-219471
-219733
-219994
-220256
-220517
-220779
-221041
-221303
-221565
-221828
-222091
-222355
-222620
-222884
-223148
-223412
-223677
-223942
-224206
-224471
-224735
-225000
-225265
-225531
-225797
-226064
-226331
-226597
-226864
-227131
-227398
-227665
-227933
-228201
-228469
-228738
-229006
-229275
-229545
-229814
-230084
-230354
-230624
-230894
-231165
-231436
-231707
-231978
-232250
-232521
-232793
-233065
-233338
-233611
-233883
-234156
-234430
-234703
-234978
-235252
-235527
-235803
-236078
-236353
-236628
-236904
-237180
-237457
-237733
-238010
-238287
-238564
-238842
-239121
-239399
-239678
-239957
-240237
-240516
-240796
-241077
-241358
-241639
-241920
-242201
-242482
-242763
-243045
-243327
-243609
-243891
-244174
-244456
-244740
-245024
-245308
-245593
-245878
-246163
-246448
-246734
-247019
-247305
-247592
-247878
-248165
-248452
-248739
-249027
-249315
-249604
-249893
-250182
-250471
-250761
-251050
-251340
-251631
-251922
-252213
-252505
-252797
-253089
-253381
-253674
-253967
-254261
-254554
-254848
-255142
-255436
-255731
-256026
-256322
-256618
-256914
-257211
-257507
-257805
-258102
-258400
-258698
-258997
-259295
-259594
-259893
-260193
-260493
-260794
-261094
-261395
-261696
-261997
-262299
-262601
-262903
-263206
-263510
-263813
-264116
-264420
-264725
-265029
-265335
-265640
-265946
-266252
-266558
-266865
-267172
-267479
-267787
-268095
-268403
-268712
-269020
-269329
-269639
-269948
-270259
-270568
-270879
-271189
-271500
-271811
-272123
-272435
-272747
-273059
-273371
-273684
-273997
-274310
-274624
-274937
-275253
-275566
-275881
-276195
-276510
-276825
-277139
-277455
-277769
-278085
-278398
-278714
-279028
-279342
-279658
-279971
-280287
-280601
-280916
-281229
-281543
-281857
-282170
-282484
-282796
-283109
-283420
-283731
-284042
-284351
-284662
-284970
-285279
-285585
-285891
-286196
-286499
-286803
-287103
-287405
-287703
-288001
-288296
-288590
-288882
-289172
-289461
-289746
-290031
-290311
-290590
-290865
-291138
-291408
-291673
-291937
-292196
-292452
-292703
-292951
-293193
-293431
-293666
-293893
-294118
-294335
-294548
-294754
-294953
-295149
-295334
-295516
-295688
-295853
-296012
-296159
-296302
-296432
-296555
-296669
-296772
-296866
-296948
-297021
-297080
-297130
-297167
-297191
-297205
-297202
-297189
-297161
-297117
-297062
-296989
-296903
-296800
-296682
-296548
-296395
-296229
-296042
-295840
-295620
-295381
-295125
-294850
-294555
-294243
-293910
-293558
-293187
-292795
-292385
-291955
-291504
-291034
-290543
-290034
-289505
-288956
-288389
-287803
-287198
-286575
-285934
-285276
-284601
-283911
-283204
-282484
-281750
-281001
-280242
-279471
-278690
-277901
-277104
-276300
-275493
-274681
-273868
-273056
-272244
-271437
-270635
-269841
-269056
-268282
-267522
-266777
-266051
-265347
-264663
-264006
-263376
-262774
-262205
-261672
-261173
-260716
-260301
-259928
-259602
-259326
-259096
-258922
-258800
-258734
-258722
-258772
-258879
-259054
-259290
-259569
-259948
-260309
-260873
-261410
-261936
-262717
-263418
-264241
-264982
-265900
-266912
-268064
-269007
-270242
-271476
-272741
-273990
-275286
-276667
-278107
-279558
-281093
-282654
-284229
-285820
-287445
-289089
-290756
-292420
-294141
-295839
-297579
-299332
-301083
-302834
-304570
-306315
-308070
-309803
-311534
-313269
-314985
-316687
-318389
-320081
-321757
-323404
-325012
-326655
-328225
-329806
-331366
-332901
-334422
-335903
-337380
-338828
-340255
-341652
-343023
-344369
-345698
-347001
-348287
-349548
-350781
-351996
-353178
-354338
-355477
-356590
-357686
-358760
-359812
-360846
-361855
-362844
-363808
-364747
-365668
-366565
-367442
-368299
-369131
-369943
-370726
-371483
-372214
-372912
-373582
-374219
-374822
-375392
-375918
-376402
-376839
-377220
-377547
-377812
-378011
-378140
-378191
-378162
-378043
-377828
-377513
-377089
-376553
-375896
-375115
-374206
-373160
-371982
-370662
-369198
-367593
-365843
-363954
-361926
-359766
-357479
-355078
-352569
-349967
-347286
-344543
-341755
-338942
-336123
-333322
-330561
-327865
-325258
-322764
-320406
-318209
-316192
-314375
-312776
-311409
-310289
-309424
-308821
-308484
-308415
-308607
-309059
-309759
-310699
-311862
-313236
-314802
-316544
-318443
-320482
-322639
-324899
-327241
-329650
-332109
-334604
-337122
-339652
-342181
-344703
-347207
-349690
-352142
-354562
-356946
-359290
-361594
-363857
-366077
-368257
-370393
-372489
-374544
-376560
-378538
-380479
-382385
-384257
-386096
-387904
-389681
-391430
-393150
-394844
-396512
-398155
-399775
-401372
-402948
-404503
-406037
-407552
-409048
-410526
-411986
-413430
-414857
-416268
-417664
-419045
-420411
-421764
-423103
-424428
-425740
-427040
-428328
-429604
-430868
-432121
-433363
-434595
-435815
-437026
-438226
-439417
-440597
-441769
-442931
-444085
-445229
-446366
-447493
-448613
-449725
-450829
-451926
-453015
-454097
-455172
-456240
-457301
-458355
-459403
-460443
-461478
-462506
-463528
-464544
-465554
-466558
-467557
-468550
-469537
-470519
-471496
-472467
-473434
-474395
-475352
-476304
-477251
-478192
-479130
-480062
-480990
-481914
-482833
-483748
-484659
-485566
-486469
-487368
-488263
-489154
-490042
-490925
-491806
-492682
-493555
-494424
-495291
-496153
-497012
-497868
-498721
-499570
-500416
-501258
-502098
-502934
-503768
-504598
-505426
-506251
-507067
-507889
-508678
)
;

boundaryField
{
    sides
    {
        type            calculated;
        value           nonuniform List<scalar> 2(-508678 -305281);
    }
    empty
    {
        type            empty;
    }
}


// ************************************************************************* //
