/*--------------------------------*- C++ -*----------------------------------*\
  =========                 |
  \\      /  F ield         | OpenFOAM: The Open Source CFD Toolbox
   \\    /   O peration     | Website:  https://openfoam.org
    \\  /    A nd           | Version:  9
     \\/     M anipulation  |
\*---------------------------------------------------------------------------*/
FoamFile
{
    format      ascii;
    class       surfaceScalarField;
    location    "0.047";
    object      ddtCorrDdt0(phi);
}
// * * * * * * * * * * * * * * * * * * * * * * * * * * * * * * * * * * * * * //

dimensions      [1 0 -2 0 0 0 0];

internalField   nonuniform List<scalar> 
999
(
-201.219
-213.188
-225.122
-237.056
-248.984
-260.922
-272.898
-284.916
-296.965
-309.012
-321.048
-333.094
-345.16
-357.224
-369.258
-381.267
-393.302
-405.428
-417.666
-429.965
-442.231
-454.407
-466.512
-478.635
-490.869
-503.246
-515.717
-528.18
-540.551
-552.817
-565.052
-577.374
-589.872
-602.558
-615.348
-628.113
-640.746
-653.213
-665.567
-677.932
-690.437
-703.157
-716.09
-729.182
-742.331
-755.418
-768.364
-781.151
-793.795
-806.351
-818.91
-831.576
-844.446
-857.584
-870.991
-884.597
-898.331
-912.164
-926.032
-939.793
-953.314
-966.546
-979.554
-992.515
-1005.55
-1018.69
-1031.9
-1045.2
-1058.71
-1072.62
-1087.03
-1101.95
-1117.4
-1133.21
-1149.06
-1165.1
-1181.52
-1198.04
-1214.73
-1231.51
-1248.09
-1264.73
-1279.48
-1292.92
-1304.67
-1337.85
-1349.2
-1372.34
-1385.48
-1403.1
-1419.98
-1436.04
-1454.28
-1470.16
-1487.75
-1504.2
-1521.88
-1538.64
-1555.79
-1573.67
-1591.14
-1609.28
-1627.37
-1645.47
-1663.57
-1681.82
-1700.44
-1719.45
-1738.76
-1757.45
-1776.22
-1795.58
-1815.36
-1835.26
-1854.56
-1873.89
-1893.97
-1914.49
-1934.75
-1954.82
-1975.15
-1995.67
-2016.28
-2036.99
-2058.01
-2079.31
-2100.48
-2121.26
-2142.09
-2163.58
-2185.42
-2206.97
-2228.14
-2249.47
-2271.26
-2293.17
-2314.75
-2336.19
-2357.92
-2379.85
-2401.57
-2423.03
-2444.66
-2466.71
-2488.74
-2510.21
-2531.23
-2552.45
-2574.06
-2595.51
-2616.38
-2636.99
-2657.89
-2679.01
-2699.73
-2719.79
-2739.65
-2759.75
-2779.86
-2799.47
-2818.45
-2837.28
-2856.31
-2875.23
-2893.5
-2911.08
-2928.53
-2946.21
-2963.77
-2980.59
-2996.6
-3012.39
-3028.38
-3044.31
-3059.53
-3073.92
-3088.07
-3102.44
-3116.83
-3130.58
-3143.4
-3155.79
-3168.37
-3181.06
-3193.23
-3204.51
-3215.24
-3226.12
-3237.31
-3248.21
-3258.24
-3267.53
-3276.79
-3286.44
-3296.08
-3305.01
-3313.12
-3320.96
-3329.24
-3337.78
-3345.98
-3353.37
-3360.19
-3367.22
-3374.69
-3382.19
-3389.07
-3395.26
-3401.38
-3407.96
-3414.89
-3421.46
-3427.31
-3432.8
-3438.57
-3444.85
-3451.19
-3456.97
-3462.2
-3467.42
-3473.16
-3479.3
-3485.15
-3490.39
-3495.29
-3500.45
-3506.22
-3512.15
-3517.57
-3522.43
-3527.18
-3532.38
-3538.2
-3543.94
-3549.08
-3553.73
-3558.46
-3563.82
-3569.68
-3575.39
-3580.41
-3584.95
-3589.69
-3595.1
-3601
-3606.67
-3611.6
-3616.04
-3620.75
-3626.24
-3632.23
-3637.9
-3642.75
-3647.15
-3651.85
-3657.35
-3663.35
-3669.04
-3673.93
-3678.41
-3683.2
-3688.72
-3694.72
-3700.43
-3705.39
-3709.91
-3714.72
-3720.28
-3726.24
-3731.94
-3737.02
-3741.69
-3746.53
-3752.01
-3757.96
-3763.72
-3768.82
-3773.51
-3778.36
-3783.78
-3789.72
-3795.66
-3801.02
-3805.74
-3810.4
-3815.73
-3821.77
-3827.93
-3833.55
-3838.41
-3842.92
-3847.91
-3853.85
-3860.27
-3866.24
-3871.33
-3875.88
-3880.63
-3886.18
-3892.48
-3898.82
-3904.39
-3909.16
-3913.83
-3919.13
-3925.19
-3931.53
-3937.46
-3942.65
-3947.44
-3952.51
-3958.27
-3964.5
-3970.64
-3976.22
-3981.21
-3986.06
-3991.47
-3997.71
-4004.22
-4010.17
-4015.33
-4020.08
-4025.13
-4031.05
-4037.76
-4044.37
-4049.98
-4054.68
-4059.4
-4064.84
-4071.12
-4077.88
-4084.34
-4089.83
-4094.55
-4099.45
-4105.13
-4111.51
-4118.18
-4124.53
-4130.02
-4134.84
-4139.91
-4145.86
-4152.42
-4158.96
-4164.97
-4170.27
-4175.22
-4180.72
-4187.19
-4194.04
-4200.38
-4205.94
-4210.98
-4216.03
-4221.75
-4228.42
-4235.51
-4242.04
-4247.58
-4252.47
-4257.43
-4263.14
-4269.86
-4277.1
-4283.78
-4289.37
-4294.33
-4299.52
-4305.42
-4311.98
-4318.88
-4325.48
-4331.27
-4336.41
-4341.74
-4347.91
-4354.76
-4361.62
-4367.91
-4373.47
-4378.61
-4384.02
-4390.34
-4397.52
-4404.77
-4411.19
-4416.62
-4421.59
-4426.85
-4432.99
-4440.07
-4447.5
-4454.4
-4460.23
-4465.3
-4470.45
-4476.45
-4483.33
-4490.58
-4497.48
-4503.59
-4509.01
-4514.36
-4520.36
-4527.25
-4534.52
-4541.36
-4547.34
-4552.68
-4558.07
-4564.14
-4571.12
-4578.66
-4585.99
-4592.39
-4597.74
-4602.74
-4608.36
-4615.06
-4622.56
-4630.09
-4637
-4643.01
-4648.39
-4653.8
-4659.95
-4667.05
-4674.57
-4681.68
-4687.92
-4693.47
-4699.03
-4705.27
-4712.45
-4720.11
-4727.42
-4733.75
-4739.17
-4744.45
-4750.36
-4757.24
-4764.88
-4772.72
-4780.04
-4786.28
-4791.61
-4796.87
-4803.04
-4810.33
-4818.12
-4825.54
-4832.13
-4838.08
-4843.91
-4850.14
-4857.08
-4864.61
-4872.16
-4879.1
-4885.13
-4890.63
-4896.36
-4903
-4910.66
-4918.77
-4926.47
-4933.17
-4938.95
-4944.41
-4950.35
-4957.23
-4964.9
-4972.75
-4980.1
-4986.6
-4992.53
-4998.54
-5005.3
-5012.83
-5020.7
-5028.25
-5034.95
-5040.91
-5046.52
-5052.63
-5059.69
-5067.74
-5076.1
-5083.83
-5090.55
-5096.4
-5102.11
-5108.4
-5115.5
-5123.3
-5131.25
-5138.65
-5145.36
-5151.4
-5157.67
-5164.54
-5172.27
-5180.48
-5188.23
-5195.46
-5201.55
-5207.51
-5213.56
-5220.43
-5228.43
-5236.6
-5245.05
-5252.14
-5258.76
-5264.68
-5270.95
-5278.3
-5285.88
-5294.43
-5301.62
-5308.87
-5314.86
-5321.02
-5328.15
-5335.25
-5344.49
-5352.02
-5360.63
-5367.06
-5373.41
-5380.02
-5385.85
-5394.5
-5401.27
-5410.71
-5417.72
-5425.31
-5432.04
-5437.8
-5445.84
-5452.25
-5462.19
-5469.5
-5478.18
-5484.72
-5490.45
-5497.67
-5503.27
-5512.97
-5520.19
-5529.78
-5537.38
-5544.13
-5551.8
-5557.21
-5565.98
-5572.86
-5582.28
-5590.41
-5598.21
-5605.7
-5611.58
-5619.1
-5625.64
-5634.89
-5643.01
-5652.61
-5660.29
-5668.08
-5674.96
-5681.61
-5690.02
-5697.2
-5707.53
-5714.99
-5724.42
-5731.49
-5738.64
-5746.5
-5753.44
-5763.25
-5771.4
-5781.72
-5789.78
-5798.37
-5805.82
-5812.98
-5821.83
-5829.39
-5840.4
-5848.64
-5858.86
-5867.17
-5874.31
-5883.84
-5890.15
-5901.68
-5910.42
-5920.92
-5932.06
-5938.89
-5950.21
-5956.66
-5966.54
-5976.91
-5985.75
-5998.49
-6007.35
-6018.7
-6027.29
-6037.13
-6046.65
-6056.15
-6069.29
-6078.7
-6092.6
-6102.95
-6112.82
-6124.66
-6133.17
-6146.08
-6157.25
-6170.63
-6183.32
-6194.67
-6207.93
-6217.16
-6230.6
-6242.54
-6254.97
-6270.55
-6282.81
-6297.16
-6310.7
-6322.61
-6336.64
-6350.22
-6363.8
-6380.23
-6394.67
-6409.85
-6425.88
-6438.67
-6454.27
-6468.81
-6483.59
-6501.21
-6517.34
-6534.62
-6551.58
-6567.23
-6582.95
-6599.25
-6615.71
-6633.27
-6652.59
-6670.5
-6689.01
-6707.07
-6722.95
-6740.68
-6758.46
-6776.34
-6796.96
-6816.47
-6834.98
-6854.56
-6871.43
-6888.33
-6907.88
-6926.04
-6945.82
-6967.11
-6985.87
-7004.14
-7022.29
-7039.85
-7057.19
-7076.03
-7097.09
-7114.99
-7133.59
-7153.49
-7167.92
-7183.74
-7203.63
-7218.25
-7235.82
-7256.35
-7270.78
-7285.15
-7302.94
-7314.32
-7327.66
-7345.11
-7358.19
-7371.27
-7387.89
-7398.46
-7407.81
-7421.43
-7430.35
-7439.76
-7452.6
-7463.46
-7469.34
-7480.7
-7488.14
-7492.31
-7500.26
-7507.91
-7513.28
-7517.6
-7524.98
-7530.1
-7531.56
-7533.15
-7537.9
-7541.56
-7544.35
-7546.43
-7547.49
-7548.77
-7549.36
-7548.92
-7548.2
-7549.28
-7550.1
-7550.16
-7549.99
-7549.31
-7548.26
-7545.87
-7543.3
-7542.2
-7542.03
-7541.63
-7541.01
-7539.9
-7538.42
-7535.71
-7533.26
-7531.34
-7530.9
-7530.76
-7530.58
-7530.07
-7529.3
-7528.07
-7526.69
-7525.58
-7525.16
-7526.03
-7526.82
-7527.63
-7528.36
-7528.6
-7528.98
-7529.41
-7530.17
-7532.3
-7534.75
-7537.19
-7539.63
-7541.66
-7543.8
-7545.92
-7548.45
-7551.65
-7555.29
-7559.42
-7563.68
-7567.7
-7571.74
-7575.61
-7579.76
-7584.33
-7589.34
-7594.88
-7600.66
-7606.46
-7612.26
-7617.81
-7623.5
-7629.37
-7635.64
-7642.44
-7649.6
-7657.05
-7664.64
-7672.14
-7679.77
-7687.44
-7695.45
-7703.91
-7712.86
-7722.3
-7732.14
-7742.19
-7752.59
-7763.17
-7774.25
-7785.85
-7798.18
-7811.27
-7825.14
-7839.65
-7854.94
-7870.74
-7887.41
-7904.78
-7923.21
-7942.62
-7963.24
-7984.9
-8007.75
-8031.54
-8056.53
-8082.41
-8109.59
-8137.78
-8167.3
-8197.87
-8229.53
-8262.05
-8295.48
-8329.54
-8364.29
-8399.57
-8435.4
-8471.49
-8507.77
-8543.97
-8579.92
-8615.39
-8650.18
-8684.22
-8717.32
-8749.46
-8780.23
-8809.76
-8837.52
-8863.71
-8887.81
-8910.18
-8930.31
-8948.7
-8964.84
-8979.3
-8991.53
-9002.1
-9010.57
-9017.5
-9022.54
-9026.22
-9028.32
-9029.42
-9029.3
-9028.47
-9026.72
-9024.43
-9021.47
-9018.09
-9014.3
-9010.3
-9006.16
-9002.04
-8998
-8994.11
-8990.41
-8986.89
-8983.61
-8980.52
-8977.74
-8975.22
-8973.09
-8971.29
-8969.9
-8968.84
-8968.15
-8967.71
-8967.61
-8967.71
-8968.13
-8968.79
-8969.77
-8971.01
-8972.55
-8974.33
-8976.37
-8978.58
-8981.03
-8983.62
-8986.42
-8989.4
-8992.6
-8995.99
-8999.6
-9003.38
-9007.35
-9011.46
-9015.72
-9020.08
-9024.58
-9029.19
-9033.95
-9038.83
-9043.86
-9049.03
-9054.34
-9059.77
-9065.33
-9070.99
-9076.77
-9082.63
-9088.61
-9094.68
-9100.86
-9107.13
-9113.52
-9119.99
-9126.58
-9133.25
-9140.01
-9146.85
-9153.78
-9160.78
-9167.87
-9175.02
-9182.26
-9189.57
-9196.98
-9204.47
-9212.05
-9219.7
-9227.43
-9235.22
-9243.08
-9250.99
-9258.98
-9267.02
-9275.14
-9283.32
-9291.58
-9299.9
-9308.3
-9316.77
-9325.3
-9333.88
-9342.53
-9351.21
-9359.96
-9368.75
-9377.6
-9386.5
-9395.46
-9404.47
-9413.55
-9422.69
-9431.88
-9441.13
-9450.43
-9459.77
-9469.16
-9478.59
-9488.07
-9497.6
-9507.18
-9516.81
-9526.5
-9536.23
-9546.02
-9555.85
-9565.73
-9575.64
-9585.6
-9595.6
-9605.65
-9615.75
-9625.89
-9636.07
-9646.3
-9656.57
-9666.88
-9677.22
-9687.6
-9698.01
-9708.47
-9718.96
-9729.5
-9740.07
-9750.69
-9761.36
-9772.06
-9782.8
-9793.58
)
;

boundaryField
{
    sides
    {
        type            calculated;
        value           nonuniform List<scalar> 2(-9804.38 189.247);
    }
    empty
    {
        type            empty;
        value           nonuniform List<scalar> 0();
    }
}


// ************************************************************************* //
