/*--------------------------------*- C++ -*----------------------------------*\
  =========                 |
  \\      /  F ield         | OpenFOAM: The Open Source CFD Toolbox
   \\    /   O peration     | Website:  https://openfoam.org
    \\  /    A nd           | Version:  9
     \\/     M anipulation  |
\*---------------------------------------------------------------------------*/
FoamFile
{
    format      ascii;
    class       volScalarField;
    location    "0.047";
    object      p_0;
}
// * * * * * * * * * * * * * * * * * * * * * * * * * * * * * * * * * * * * * //

dimensions      [1 -1 -2 0 0 0 0];

internalField   nonuniform List<scalar> 
1000
(
9708.29
9707.34
9705.4
9703.72
9702.32
9700.98
9699.63
9698.26
9696.9
9695.56
9694.23
9692.91
9691.61
9690.31
9689.03
9687.77
9686.51
9685.27
9684.03
9682.82
9681.61
9680.42
9679.24
9678.08
9676.92
9675.79
9674.66
9673.55
9672.45
9671.37
9670.3
9669.25
9668.21
9667.19
9666.18
9665.18
9664.2
9663.24
9662.29
9661.36
9660.44
9659.54
9658.66
9657.79
9656.94
9656.1
9655.28
9654.48
9653.7
9652.93
9652.19
9651.45
9650.74
9650.05
9649.37
9648.72
9648.08
9647.46
9646.86
9646.28
9645.72
9645.18
9644.66
9644.16
9643.68
9643.23
9642.79
9642.38
9641.99
9641.63
9641.28
9640.96
9640.67
9640.4
9640.16
9639.95
9639.76
9639.6
9639.47
9639.36
9639.29
9639.25
9639.24
9639.25
9639.28
9639.34
9639.47
9639.63
9639.85
9640.09
9640.36
9640.67
9641.01
9641.38
9641.78
9642.22
9642.69
9643.2
9643.75
9644.34
9644.96
9645.63
9646.34
9647.08
9647.88
9648.71
9649.59
9650.51
9651.47
9652.49
9653.55
9654.65
9655.81
9657.01
9658.26
9659.57
9660.92
9662.32
9663.78
9665.29
9666.85
9668.47
9670.14
9671.87
9673.65
9675.5
9677.39
9679.35
9681.37
9683.44
9685.57
9687.77
9690.02
9692.34
9694.72
9697.16
9699.66
9702.23
9704.85
9707.55
9710.3
9713.12
9716.01
9718.95
9721.97
9725.05
9728.19
9731.4
9734.67
9738
9741.4
9744.87
9748.39
9751.98
9755.64
9759.35
9763.13
9766.97
9770.87
9774.84
9778.86
9782.94
9787.08
9791.27
9795.53
9799.83
9804.2
9808.61
9813.08
9817.6
9822.17
9826.79
9831.46
9836.18
9840.94
9845.75
9850.6
9855.49
9860.42
9865.4
9870.41
9875.46
9880.54
9885.66
9890.81
9896
9901.22
9906.46
9911.74
9917.04
9922.37
9927.73
9933.11
9938.51
9943.94
9949.38
9954.85
9960.34
9965.84
9971.37
9976.91
9982.46
9988.03
9993.62
9999.22
10004.8
10010.5
10016.1
10021.7
10027.4
10033.1
10038.8
10044.5
10050.2
10055.9
10061.6
10067.3
10073.1
10078.8
10084.5
10090.3
10096.1
10101.8
10107.6
10113.4
10119.2
10125
10130.8
10136.6
10142.4
10148.2
10154.1
10159.9
10165.7
10171.6
10177.4
10183.3
10189.1
10195
10200.9
10206.7
10212.6
10218.5
10224.4
10230.3
10236.2
10242.1
10248
10253.9
10259.8
10265.7
10271.6
10277.6
10283.5
10289.4
10295.4
10301.3
10307.3
10313.2
10319.2
10325.2
10331.1
10337.1
10343.1
10349.1
10355.1
10361.1
10367
10373
10379.1
10385.1
10391.1
10397.1
10403.1
10409.2
10415.2
10421.2
10427.3
10433.3
10439.4
10445.4
10451.5
10457.5
10463.6
10469.7
10475.8
10481.9
10487.9
10494
10500.1
10506.2
10512.3
10518.5
10524.6
10530.7
10536.8
10542.9
10549.1
10555.2
10561.4
10567.5
10573.7
10579.8
10586
10592.1
10598.3
10604.5
10610.7
10616.9
10623
10629.2
10635.4
10641.6
10647.9
10654.1
10660.3
10666.5
10672.7
10679
10685.2
10691.4
10697.7
10703.9
10710.2
10716.5
10722.7
10729
10735.3
10741.6
10747.8
10754.1
10760.4
10766.7
10773
10779.3
10785.7
10792
10798.3
10804.6
10811
10817.3
10823.6
10830
10836.4
10842.7
10849.1
10855.4
10861.8
10868.2
10874.6
10881
10887.4
10893.8
10900.2
10906.6
10913
10919.4
10925.8
10932.3
10938.7
10945.1
10951.6
10958
10964.5
10970.9
10977.4
10983.9
10990.3
10996.8
11003.3
11009.8
11016.3
11022.8
11029.3
11035.8
11042.3
11048.8
11055.4
11061.9
11068.4
11075
11081.5
11088.1
11094.6
11101.2
11107.7
11114.3
11120.9
11127.5
11134
11140.6
11147.2
11153.8
11160.4
11167.1
11173.7
11180.3
11186.9
11193.5
11200.2
11206.8
11213.5
11220.1
11226.8
11233.4
11240.1
11246.8
11253.5
11260.2
11266.8
11273.5
11280.2
11286.9
11293.6
11300.4
11307.1
11313.8
11320.5
11327.3
11334
11340.8
11347.5
11354.3
11361
11367.8
11374.6
11381.4
11388.1
11394.9
11401.7
11408.5
11415.3
11422.1
11428.9
11435.8
11442.6
11449.4
11456.3
11463.1
11469.9
11476.8
11483.7
11490.5
11497.4
11504.3
11511.1
11518
11524.9
11531.8
11538.7
11545.6
11552.5
11559.4
11566.4
11573.3
11580.2
11587.1
11594.1
11601
11608
11614.9
11621.9
11628.9
11635.9
11642.8
11649.8
11656.8
11663.8
11670.8
11677.8
11684.8
11691.8
11698.9
11705.9
11712.9
11720
11727
11734.1
11741.1
11748.2
11755.2
11762.3
11769.4
11776.5
11783.6
11790.7
11797.7
11804.9
11812
11819.1
11826.2
11833.3
11840.5
11847.6
11854.7
11861.9
11869
11876.2
11883.3
11890.5
11897.7
11904.9
11912.1
11919.2
11926.4
11933.6
11940.9
11948.1
11955.3
11962.5
11969.7
11977
11984.2
11991.5
11998.7
12006
12013.2
12020.5
12027.8
12035
12042.3
12049.6
12056.9
12064.2
12071.5
12078.8
12086.1
12093.5
12100.8
12108.1
12115.5
12122.8
12130.2
12137.5
12144.9
12152.3
12159.6
12167
12174.4
12181.8
12189.2
12196.6
12204
12211.4
12218.8
12226.2
12233.7
12241.1
12248.6
12256
12263.5
12270.9
12278.4
12285.9
12293.3
12300.8
12308.3
12315.8
12323.3
12330.8
12338.3
12345.9
12353.4
12360.9
12368.5
12376
12383.6
12391.2
12398.7
12406.3
12413.9
12421.5
12429.1
12436.7
12444.3
12451.9
12459.5
12467.2
12474.8
12482.5
12490.1
12497.8
12505.5
12513.2
12520.9
12528.6
12536.3
12544
12551.8
12559.5
12567.3
12575
12582.8
12590.6
12598.4
12606.2
12614
12621.9
12629.7
12637.6
12645.5
12653.4
12661.3
12669.2
12677.1
12685.1
12693.1
12701.1
12709.1
12717.1
12725.1
12733.2
12741.3
12749.4
12757.5
12765.6
12773.8
12782
12790.2
12798.5
12806.7
12815
12823.3
12831.7
12840.1
12848.5
12856.9
12865.4
12873.9
12882.4
12891
12899.6
12908.2
12916.9
12925.6
12934.4
12943.2
12952
12960.9
12969.9
12978.8
12987.9
12997
13006.1
13015.3
13024.5
13033.8
13043.1
13052.5
13062
13071.5
13081.1
13090.7
13100.4
13110.2
13120
13129.9
13139.9
13149.9
13160.1
13170.2
13180.5
13190.8
13201.2
13211.7
13222.3
13232.9
13243.6
13254.4
13265.3
13276.3
13287.3
13298.4
13309.6
13320.9
13332.3
13343.7
13355.3
13366.9
13378.6
13390.4
13402.2
13414.2
13426.2
13438.3
13450.5
13462.7
13475.1
13487.5
13499.9
13512.5
13525.1
13537.8
13550.5
13563.3
13576.2
13589.1
13602.1
13615.1
13628.2
13641.3
13654.5
13667.7
13680.9
13694.2
13707.4
13720.7
13734.1
13747.4
13760.8
13774.1
13787.5
13800.9
13814.3
13827.6
13841
13854.3
13867.6
13880.9
13894.2
13907.4
13920.7
13933.8
13947
13960.1
13973.1
13986.2
13999.1
14012
14024.9
14037.7
14050.5
14063.2
14075.8
14088.4
14100.9
14113.3
14125.7
14138
14150.3
14162.4
14174.6
14186.6
14198.6
14210.5
14222.3
14234.1
14245.8
14257.4
14269
14280.5
14292
14303.3
14314.6
14325.9
14337.1
14348.2
14359.3
14370.3
14381.2
14392.1
14402.9
14413.7
14424.4
14435.1
14445.7
14456.3
14466.8
14477.3
14487.7
14498.1
14508.5
14518.8
14529
14539.3
14549.4
14559.6
14569.7
14579.8
14589.9
14599.9
14609.9
14619.8
14629.8
14639.7
14649.6
14659.4
14669.3
14679.1
14688.9
14698.7
14708.4
14718.2
14727.9
14737.6
14747.4
14757.1
14766.8
14776.5
14786.1
14795.8
14805.5
14815.2
14824.9
14834.7
14844.4
14854.1
14863.9
14873.7
14883.6
14893.4
14903.3
14913.3
14923.3
14933.4
14943.6
14953.8
14964.2
14974.6
14985.1
14995.7
15006.5
15017.4
15028.4
15039.6
15051
15062.5
15074.2
15086.1
15098.1
15110.4
15122.9
15135.6
15148.5
15161.6
15175
15188.5
15202.3
15216.3
15230.6
15245
15259.6
15274.4
15289.5
15304.6
15320
15335.5
15351.1
15366.8
15382.6
15398.5
15414.5
15430.5
15446.6
15462.7
15478.7
15494.8
15510.8
15526.8
15542.7
15558.6
15574.4
15590.1
15605.7
15621.3
15636.7
15652
15667.2
15682.3
15697.3
15712.2
15726.9
15741.6
15756.1
15770.5
15784.9
15799.1
15813.2
15827.2
15841.1
15854.9
15868.6
15882.2
15895.8
15909.2
15922.6
15935.9
15949.1
15962.2
15975.2
15988.2
16001.1
16013.9
16026.7
16039.4
16052
16064.6
16077.1
16089.5
16101.9
16114.2
16126.5
16138.7
16150.8
16162.9
16175
16187
16198.9
16210.8
16222.7
16234.5
16246.3
16258
16269.6
16281.2
16292.8
16304.4
16315.8
16327.3
16338.7
16350.1
16361.4
16372.7
16383.9
16395.2
16406.3
16417.5
16428.6
16439.6
16450.7
16461.7
16472.6
16483.6
16494.5
16505.3
16516.2
16527
16537.7
16548.5
16559.2
16569.9
16580.5
16591.1
16601.7
16612.3
16622.8
16633.3
16643.8
16654.2
16664.7
16675.1
16685.4
16695.8
16706.1
16716.4
16726.6
16736.9
16747.1
16757.3
16767.5
16777.6
16787.7
16797.8
16807.9
16818
16828
16838
16848
16857.9
16867.9
16877.8
16887.7
16897.6
16907.4
16917.3
16927.1
16936.9
16946.7
16956.4
16966.2
16975.9
16985.6
16995.2
17004.9
17014.5
17024.2
17033.8
17043.4
17052.9
17062.5
17072
17081.5
17091
17100.5
17109.9
17119.4
17128.8
17138.2
17147.6
17156.7
)
;

boundaryField
{
    sides
    {
        type            zeroGradient;
    }
    empty
    {
        type            empty;
    }
}


// ************************************************************************* //
