/*--------------------------------*- C++ -*----------------------------------*\
  =========                 |
  \\      /  F ield         | OpenFOAM: The Open Source CFD Toolbox
   \\    /   O peration     | Website:  https://openfoam.org
    \\  /    A nd           | Version:  9
     \\/     M anipulation  |
\*---------------------------------------------------------------------------*/
FoamFile
{
    format      ascii;
    class       surfaceScalarField;
    location    "0.047";
    object      phi_0;
}
// * * * * * * * * * * * * * * * * * * * * * * * * * * * * * * * * * * * * * //

dimensions      [1 0 -1 0 0 0 0];

internalField   nonuniform List<scalar> 
999
(
17.312
17.4812
17.6503
17.8192
17.9881
18.1568
18.3255
18.494
18.6624
18.8307
18.9989
19.167
19.3349
19.5028
19.6705
19.8382
20.0056
20.173
20.3402
20.5073
20.6743
20.8412
21.0079
21.1744
21.3407
21.507
21.6732
21.8392
22.0051
22.1708
22.3363
22.5016
22.6667
22.8318
22.9967
23.1615
23.3262
23.4907
23.6549
23.8189
23.9826
24.1461
24.3095
24.4728
24.636
24.7991
24.962
25.1248
25.2873
25.4496
25.6114
25.773
25.9342
26.0953
26.2561
26.4169
26.5776
26.7382
26.8988
27.0593
27.2196
27.3796
27.5394
27.6987
27.8577
28.0161
28.1742
28.3317
28.4889
28.6458
28.8024
28.9588
29.115
29.2712
29.4274
29.5835
29.7397
29.8959
30.052
30.208
30.3639
30.5196
30.675
30.8304
30.9855
31.1402
31.2942
31.4479
31.6013
31.7546
31.9076
32.0606
32.2135
32.3662
32.5186
32.6706
32.8224
32.9738
33.1247
33.2752
33.4252
33.5749
33.7241
33.8728
34.0211
34.169
34.3164
34.4632
34.6096
34.7556
34.901
35.0459
35.1903
35.3342
35.4776
35.6204
35.7626
35.9044
36.0456
36.1862
36.3262
36.4657
36.6046
36.743
36.8806
37.0177
37.1543
37.2902
37.4255
37.5601
37.6942
37.8276
37.9604
38.0925
38.224
38.3549
38.4851
38.6147
38.7435
38.8718
38.9994
39.1264
39.2526
39.3782
39.5032
39.6276
39.7513
39.8742
39.9966
40.1184
40.2395
40.3599
40.4797
40.5989
40.7176
40.8356
40.953
41.0697
41.1859
41.3016
41.4167
41.5312
41.6451
41.7586
41.8716
41.9841
42.0959
42.2073
42.3183
42.4289
42.539
42.6486
42.7578
42.8667
42.9753
43.0834
43.1911
43.2984
43.4056
43.5125
43.619
43.7252
43.8311
43.9369
44.0425
44.1479
44.253
44.3578
44.4626
44.5672
44.6718
44.7762
44.8804
44.9844
45.0885
45.1926
45.2965
45.4003
45.504
45.6078
45.7116
45.8154
45.9191
46.0227
46.1264
46.2301
46.334
46.4378
46.5416
46.6453
46.7492
46.8533
46.9574
47.0614
47.1655
47.2696
47.3739
47.4784
47.5829
47.6873
47.7918
47.8965
48.0014
48.1064
48.2113
48.3163
48.4214
48.5267
48.6322
48.7377
48.8433
48.9489
49.0546
49.1606
49.2667
49.3728
49.479
49.5852
49.6916
49.7983
49.9051
50.0119
50.1187
50.2256
50.3327
50.4401
50.5476
50.6551
50.7626
50.8702
50.978
51.086
51.1942
51.3024
51.4106
51.5189
51.6274
51.7361
51.845
51.9539
52.0628
52.1718
52.281
52.3905
52.5001
52.6097
52.7193
52.829
52.9389
53.0491
53.1594
53.2697
53.38
53.4905
53.6011
53.712
53.823
53.934
54.0451
54.1562
54.2676
54.3791
54.4909
54.6026
54.7144
54.8263
54.9383
55.0505
55.163
55.2756
55.3881
55.5007
55.6133
55.7263
55.8395
55.9528
56.0661
56.1794
56.2928
56.4063
56.5202
56.6342
56.7483
56.8624
56.9765
57.0908
57.2053
57.32
57.4349
57.5497
57.6646
57.7796
57.8948
58.0102
58.1257
58.2414
58.357
58.4727
58.5885
58.7046
58.8209
58.9374
59.0538
59.1702
59.2867
59.4034
59.5204
59.6376
59.7548
59.872
59.9892
60.1066
60.2242
60.3421
60.4601
60.5782
60.6962
60.8142
60.9325
61.0509
61.1697
61.2885
61.4074
61.5262
61.6452
61.7643
61.8837
62.0032
62.1229
62.2425
62.3622
62.482
62.602
62.7223
62.8428
62.9632
63.0837
63.2042
63.3248
63.4457
63.5669
63.6882
63.8096
63.9309
64.0522
64.1736
64.2954
64.4174
64.5396
64.6618
64.784
64.9062
65.0286
65.1512
65.274
65.397
65.5201
65.6431
65.7662
65.8894
66.013
66.1367
66.2605
66.3844
66.5082
66.6321
66.7563
66.8807
67.0054
67.1301
67.2549
67.3796
67.5044
67.6293
67.7546
67.8801
68.0057
68.1314
68.257
68.3827
68.5085
68.6346
68.761
68.8875
69.014
69.1405
69.2671
69.3939
69.5208
69.6481
69.7754
69.9028
70.0302
70.1577
70.2852
70.4131
70.5412
70.6695
70.7979
70.9262
71.0546
71.183
71.3116
71.4406
71.5697
71.699
71.8284
71.9577
72.087
72.2165
72.3463
72.4763
72.6065
72.7367
72.8669
72.9972
73.1276
73.2583
73.3892
73.5204
73.6515
73.7826
73.9138
74.045
74.1765
74.3082
74.4403
74.5724
74.7046
74.8368
74.9689
75.1013
75.2338
75.3667
75.4997
75.6328
75.7659
75.8991
76.0324
76.1658
76.2996
76.4335
76.5676
76.7017
76.8357
76.9698
77.1041
77.2387
77.3736
77.5087
77.6438
77.7789
77.914
78.0492
78.1846
78.3202
78.4561
78.5921
78.7282
78.8643
79.0005
79.1369
79.2735
79.4103
79.5473
79.6844
79.8215
79.9585
80.0957
80.2331
80.3708
80.5088
80.6469
80.7851
80.9232
81.0614
81.1997
81.3382
81.477
81.6159
81.755
81.8942
82.0334
82.1727
82.3121
82.4518
82.5917
82.7319
82.8721
83.0123
83.1526
83.2928
83.4334
83.5741
83.7151
83.8564
83.9976
84.1391
84.2804
84.4219
84.5635
84.7054
84.8476
84.9898
85.1322
85.2744
85.4169
85.5594
85.7022
85.8453
85.9884
86.1321
86.2753
86.4191
86.5624
86.7062
86.8501
86.994
87.1386
87.2827
87.4277
87.5719
87.7168
87.8615
88.0065
88.1519
88.2972
88.4432
88.5885
88.7344
88.8799
89.0258
89.172
89.3181
89.465
89.6113
89.7584
89.905
90.0519
90.199
90.3461
90.4938
90.6412
90.7892
90.9368
91.0848
91.2326
91.3806
91.529
91.6773
91.8263
91.9748
92.124
92.2726
92.4218
92.5708
92.7201
92.8697
93.0192
93.1693
93.3188
93.469
93.6187
93.7689
93.9191
94.0695
94.2203
94.3708
94.5219
94.6724
94.8234
94.9743
95.1253
95.2767
95.4279
95.5798
95.731
95.8828
96.0342
96.1857
96.3378
96.4892
96.6417
96.7937
96.9458
97.0983
97.2499
97.4025
97.5544
97.7069
97.8594
98.0118
98.1646
98.3167
98.4694
98.6214
98.7739
98.9264
99.0787
99.2317
99.3838
99.5365
99.6887
99.8408
99.9932
100.145
100.298
100.45
100.602
100.754
100.905
101.057
101.208
101.36
101.511
101.662
101.814
101.965
102.115
102.266
102.416
102.566
102.716
102.866
103.015
103.165
103.314
103.462
103.611
103.759
103.907
104.054
104.202
104.349
104.495
104.642
104.787
104.933
105.078
105.223
105.367
105.512
105.655
105.799
105.941
106.084
106.225
106.367
106.508
106.649
106.79
106.929
107.069
107.207
107.346
107.484
107.621
107.759
107.895
108.032
108.167
108.302
108.437
108.572
108.706
108.84
108.974
109.107
109.239
109.372
109.503
109.636
109.767
109.899
110.03
110.161
110.291
110.422
110.552
110.683
110.813
110.944
111.073
111.204
111.334
111.464
111.594
111.725
111.856
111.987
112.119
112.25
112.382
112.514
112.646
112.779
112.913
113.046
113.181
113.315
113.451
113.586
113.723
113.86
113.998
114.136
114.275
114.415
114.555
114.696
114.838
114.981
115.124
115.269
115.414
115.559
115.706
115.853
116.002
116.151
116.301
116.452
116.603
116.756
116.909
117.063
117.218
117.374
117.53
117.688
117.846
118.005
118.165
118.325
118.487
118.649
118.811
118.975
119.14
119.305
119.471
119.637
119.804
119.972
120.14
120.31
120.48
120.65
120.821
120.993
121.165
121.338
121.511
121.685
121.86
122.035
122.211
122.387
122.564
122.741
122.918
123.096
123.275
123.454
123.634
123.814
123.994
124.175
124.356
124.537
124.719
124.901
125.084
125.267
125.45
125.634
125.818
126.002
126.186
126.371
126.556
126.741
126.926
127.112
127.297
127.483
127.669
127.854
128.04
128.226
128.411
128.597
128.782
128.967
129.152
129.336
129.52
129.704
129.886
130.069
130.25
130.431
130.611
130.79
130.969
131.146
131.322
131.497
131.67
131.843
132.014
132.184
132.352
132.519
132.685
132.849
133.012
133.173
133.333
133.492
133.649
133.805
133.96
134.114
134.267
134.42
134.571
134.722
134.873
135.023
135.173
135.323
135.473
135.623
135.773
135.924
136.075
136.227
136.38
136.533
136.687
136.843
136.999
137.156
137.315
137.474
137.635
137.796
137.959
138.123
138.289
138.455
138.623
138.792
138.962
139.133
139.305
139.478
139.653
139.828
140.004
140.182
140.36
140.54
140.72
140.901
141.083
141.266
141.45
141.635
141.821
142.007
142.194
142.382
142.571
142.761
142.951
143.142
143.334
143.527
143.72
143.914
144.109
144.304
144.5
144.697
144.894
145.092
145.291
145.49
145.69
145.891
146.092
146.294
146.496
146.699
146.903
147.107
147.311
147.517
147.723
147.929
148.136
148.343
148.551
148.76
148.969
149.179
149.389
149.6
149.811
150.022
150.235
150.447
150.661
150.874
151.088
151.303
151.518
151.734
151.95
152.167
152.384
152.601
152.819
153.038
153.257
153.476
153.696
153.916
154.137
154.358
154.579
154.801
155.024
155.247
155.47
155.694
155.918
156.142
156.367
156.593
156.819
157.045
157.271
157.498
157.726
157.954
158.182
158.411
158.64
158.869
159.099
159.329
159.56
159.791
160.022
160.254
160.486
160.719
160.952
161.185
161.419
161.653
161.887
162.122
162.357
162.593
162.829
163.065
163.301
163.538
163.776
164.013
164.252
164.49
164.729
164.968
165.207
)
;

boundaryField
{
    sides
    {
        type            calculated;
        value           nonuniform List<scalar> 2(165.447 -17.1427);
    }
    empty
    {
        type            empty;
        value           nonuniform List<scalar> 0();
    }
}


// ************************************************************************* //
