/*--------------------------------*- C++ -*----------------------------------*\
  =========                 |
  \\      /  F ield         | OpenFOAM: The Open Source CFD Toolbox
   \\    /   O peration     | Website:  https://openfoam.org
    \\  /    A nd           | Version:  9
     \\/     M anipulation  |
\*---------------------------------------------------------------------------*/
FoamFile
{
    format      ascii;
    class       volScalarField;
    location    "0.047";
    object      rho;
}
// * * * * * * * * * * * * * * * * * * * * * * * * * * * * * * * * * * * * * //

dimensions      [1 -3 0 0 0 0 0];

internalField   nonuniform List<scalar> 
1000
(
0.190561
0.190538
0.19049
0.190445
0.190404
0.190364
0.190324
0.190284
0.190244
0.190203
0.190163
0.190123
0.190083
0.190044
0.190004
0.189965
0.189925
0.189886
0.189847
0.189808
0.189769
0.189731
0.189693
0.189655
0.189616
0.189578
0.18954
0.189503
0.189466
0.18943
0.189393
0.189356
0.189318
0.189281
0.189245
0.18921
0.189175
0.189141
0.189106
0.189071
0.189035
0.189
0.188964
0.188929
0.188896
0.188863
0.188831
0.1888
0.188769
0.188737
0.188705
0.188672
0.188638
0.188604
0.188571
0.188539
0.188508
0.188478
0.18845
0.188423
0.188397
0.188371
0.188346
0.188319
0.188293
0.188265
0.188236
0.188206
0.188175
0.188144
0.188113
0.188083
0.188054
0.188027
0.188002
0.187979
0.187959
0.187941
0.187925
0.187912
0.1879
0.18789
0.187881
0.187872
0.187865
0.187858
0.187852
0.187848
0.187844
0.187842
0.187841
0.187841
0.187844
0.187849
0.187854
0.18786
0.187867
0.187875
0.187884
0.187892
0.187901
0.187911
0.187921
0.187931
0.187942
0.187955
0.187967
0.18798
0.187994
0.188008
0.188023
0.188039
0.188055
0.188072
0.18809
0.188108
0.188127
0.188146
0.188167
0.188189
0.18821
0.188233
0.188256
0.188281
0.188306
0.188331
0.188358
0.188386
0.188414
0.188443
0.188472
0.188503
0.188535
0.188567
0.1886
0.188634
0.18867
0.188706
0.188742
0.188779
0.188818
0.188858
0.188898
0.188939
0.188981
0.189024
0.189068
0.189113
0.189158
0.189204
0.189252
0.189301
0.189349
0.189399
0.18945
0.189502
0.189555
0.189608
0.189662
0.189717
0.189774
0.18983
0.189887
0.189945
0.190005
0.190065
0.190126
0.190186
0.190248
0.190311
0.190375
0.190439
0.190504
0.190569
0.190635
0.190702
0.190769
0.190836
0.190905
0.190974
0.191044
0.191113
0.191183
0.191254
0.191325
0.191397
0.19147
0.191542
0.191614
0.191688
0.191762
0.191836
0.19191
0.191984
0.192059
0.192135
0.19221
0.192286
0.192362
0.192437
0.192514
0.192591
0.192668
0.192745
0.192822
0.192899
0.192977
0.193055
0.193132
0.19321
0.193288
0.193366
0.193445
0.193523
0.193602
0.19368
0.193758
0.193838
0.193917
0.193996
0.194075
0.194153
0.194233
0.194313
0.194392
0.194472
0.194551
0.19463
0.19471
0.19479
0.19487
0.19495
0.195029
0.195109
0.19519
0.19527
0.19535
0.19543
0.19551
0.19559
0.195671
0.195752
0.195832
0.195912
0.195993
0.196073
0.196155
0.196236
0.196316
0.196397
0.196477
0.196558
0.19664
0.196721
0.196802
0.196883
0.196964
0.197045
0.197127
0.197209
0.19729
0.197371
0.197452
0.197534
0.197616
0.197698
0.197779
0.197861
0.197942
0.198024
0.198106
0.198189
0.19827
0.198352
0.198434
0.198516
0.198599
0.198681
0.198763
0.198845
0.198927
0.19901
0.199092
0.199175
0.199258
0.19934
0.199422
0.199505
0.199588
0.199671
0.199754
0.199837
0.199919
0.200002
0.200085
0.200169
0.200252
0.200335
0.200418
0.200501
0.200584
0.200668
0.200752
0.200836
0.200919
0.201002
0.201085
0.201169
0.201253
0.201337
0.201421
0.201504
0.201588
0.201672
0.201756
0.201841
0.201925
0.202009
0.202093
0.202177
0.202261
0.202346
0.202431
0.202515
0.202599
0.202683
0.202768
0.202853
0.202939
0.203023
0.203108
0.203192
0.203277
0.203362
0.203447
0.203533
0.203618
0.203703
0.203787
0.203873
0.203958
0.204044
0.20413
0.204215
0.2043
0.204385
0.204471
0.204557
0.204643
0.204729
0.204815
0.2049
0.204986
0.205072
0.205159
0.205245
0.205331
0.205417
0.205503
0.205589
0.205676
0.205763
0.20585
0.205936
0.206022
0.206108
0.206195
0.206282
0.206369
0.206456
0.206543
0.20663
0.206716
0.206803
0.20689
0.206978
0.207066
0.207153
0.20724
0.207327
0.207414
0.207502
0.20759
0.207678
0.207765
0.207852
0.20794
0.208027
0.208116
0.208204
0.208293
0.20838
0.208468
0.208555
0.208643
0.208732
0.208821
0.20891
0.208998
0.209086
0.209174
0.209262
0.209351
0.20944
0.209529
0.209618
0.209707
0.209795
0.209884
0.209973
0.210063
0.210152
0.210241
0.21033
0.210419
0.210508
0.210597
0.210687
0.210777
0.210867
0.210956
0.211045
0.211134
0.211224
0.211314
0.211404
0.211495
0.211585
0.211674
0.211764
0.211854
0.211944
0.212035
0.212126
0.212216
0.212306
0.212396
0.212486
0.212577
0.212668
0.212759
0.21285
0.21294
0.213031
0.213121
0.213212
0.213303
0.213395
0.213486
0.213578
0.213668
0.213759
0.21385
0.213941
0.214033
0.214125
0.214217
0.214308
0.214399
0.214491
0.214583
0.214675
0.214767
0.214859
0.214951
0.215043
0.215134
0.215226
0.215318
0.215411
0.215504
0.215597
0.215689
0.215781
0.215873
0.215965
0.216058
0.216151
0.216244
0.216337
0.216429
0.216522
0.216615
0.216708
0.216801
0.216895
0.216988
0.217081
0.217174
0.217266
0.21736
0.217453
0.217548
0.217642
0.217735
0.217829
0.217922
0.218016
0.218109
0.218203
0.218297
0.218392
0.218486
0.218579
0.218673
0.218767
0.218862
0.218956
0.219051
0.219146
0.21924
0.219335
0.219428
0.219523
0.219617
0.219713
0.219808
0.219903
0.219998
0.220092
0.220188
0.220282
0.220378
0.220473
0.220569
0.220664
0.220758
0.220855
0.220948
0.221045
0.22114
0.221236
0.221333
0.221427
0.221526
0.221617
0.221718
0.221809
0.221909
0.222003
0.2221
0.222197
0.222291
0.22239
0.222482
0.222583
0.222676
0.222775
0.222872
0.222967
0.223067
0.223159
0.223259
0.223353
0.223452
0.223549
0.223645
0.223745
0.223839
0.223939
0.224033
0.224133
0.22423
0.224327
0.224427
0.224522
0.224623
0.224716
0.224818
0.224913
0.225013
0.225111
0.225209
0.225309
0.225403
0.225507
0.225599
0.225704
0.225797
0.225901
0.225997
0.226097
0.226196
0.226294
0.226395
0.226492
0.226593
0.226693
0.226792
0.226894
0.226991
0.227094
0.22719
0.227294
0.227392
0.227494
0.227596
0.227694
0.227799
0.227896
0.227999
0.2281
0.228201
0.228306
0.228404
0.22851
0.22861
0.228713
0.228817
0.228917
0.229024
0.229124
0.229231
0.229333
0.229438
0.229543
0.229645
0.229753
0.229855
0.229963
0.230069
0.230174
0.230283
0.230387
0.230497
0.230603
0.230711
0.230821
0.230927
0.23104
0.231147
0.231259
0.231368
0.231478
0.231591
0.231702
0.231816
0.231929
0.232042
0.232156
0.232271
0.232385
0.232502
0.232619
0.232735
0.232855
0.232972
0.233092
0.233212
0.233331
0.233453
0.233574
0.233698
0.233822
0.233947
0.234072
0.234197
0.234324
0.234451
0.234581
0.23471
0.234841
0.234973
0.235105
0.235238
0.235372
0.235506
0.235643
0.23578
0.235918
0.236058
0.236199
0.236339
0.236481
0.236624
0.236767
0.236913
0.237059
0.237207
0.237355
0.237504
0.237654
0.237804
0.237956
0.23811
0.238262
0.23842
0.238574
0.238731
0.238888
0.239048
0.239203
0.239368
0.239524
0.23969
0.239848
0.240017
0.240171
0.240345
0.240499
0.240675
0.240828
0.24101
0.241159
0.241344
0.241492
0.241678
0.241825
0.242015
0.24216
0.24235
0.242496
0.242685
0.24283
0.24302
0.243165
0.243354
0.243499
0.243688
0.243832
0.244019
0.244162
0.244349
0.244491
0.244677
0.244818
0.245003
0.245143
0.245325
0.245464
0.245645
0.245782
0.245962
0.246098
0.246276
0.246411
0.246587
0.24672
0.246894
0.247025
0.247197
0.247328
0.247498
0.247627
0.247795
0.247921
0.248087
0.248213
0.248377
0.248501
0.248663
0.248786
0.248946
0.249067
0.249225
0.249345
0.249501
0.24962
0.249774
0.249892
0.250045
0.250161
0.250312
0.250426
0.250576
0.250689
0.250838
0.25095
0.251097
0.251209
0.251355
0.251465
0.251609
0.251719
0.251862
0.251971
0.252113
0.252221
0.252362
0.252469
0.252609
0.252715
0.252855
0.252961
0.253099
0.253204
0.253342
0.253447
0.253584
0.253688
0.253825
0.253929
0.254065
0.254168
0.254304
0.254407
0.254543
0.254646
0.254781
0.254884
0.255019
0.255122
0.255257
0.25536
0.255495
0.255598
0.255734
0.255838
0.255974
0.256079
0.256216
0.256321
0.25646
0.256566
0.256706
0.256814
0.256956
0.257066
0.257211
0.257322
0.25747
0.257584
0.257735
0.257853
0.258008
0.258128
0.258288
0.258412
0.258576
0.258705
0.258874
0.259007
0.259182
0.25932
0.259501
0.259643
0.25983
0.259976
0.26017
0.260321
0.26052
0.260675
0.260879
0.261038
0.261247
0.261409
0.261623
0.261787
0.262004
0.262171
0.26239
0.262558
0.262778
0.262947
0.263168
0.263337
0.263558
0.263726
0.263945
0.264112
0.26433
0.264495
0.264711
0.264874
0.265087
0.265248
0.265458
0.265617
0.265824
0.26598
0.266183
0.266337
0.266538
0.266689
0.266886
0.267035
0.26723
0.267377
0.267568
0.267712
0.267901
0.268044
0.268229
0.26837
0.268554
0.268692
0.268873
0.26901
0.269189
0.269324
0.269501
0.269635
0.26981
0.269942
0.270114
0.270245
0.270416
0.270546
0.270715
0.270843
0.27101
0.271137
0.271303
0.271429
0.271593
0.271718
0.271881
0.272004
0.272165
0.272288
0.272448
0.272569
0.272728
0.272848
0.273006
0.273125
0.273281
0.2734
0.273554
0.273672
0.273826
0.273943
0.274095
0.274211
0.274363
0.274478
0.274628
0.274742
0.274892
0.275005
0.275154
0.275267
0.275414
0.275526
0.275673
0.275784
0.27593
0.27604
0.276185
0.276295
0.276439
0.276548
0.276691
0.2768
0.276942
0.27705
0.277191
0.277299
0.277439
0.277546
0.277686
0.277792
0.277931
0.278037
0.278175
0.27828
0.278418
0.278523
0.278659
0.278763
0.2789
0.279003
0.279139
0.279242
0.279377
0.279479
0.279613
0.279716
0.279849
0.279951
0.280084
0.280185
0.280317
0.280418
0.28055
0.28065
0.280781
0.280881
0.281012
0.281111
0.281241
0.28134
0.28147
0.281568
0.281697
0.281795
0.281924
0.282021
0.282149
0.282247
0.282374
0.282471
0.282598
0.282695
0.282821
0.282917
0.283043
0.283135
0.283269
0.283325
)
;

boundaryField
{
    sides
    {
        type            calculated;
        value           nonuniform List<scalar> 2(0.283325 0.190561);
    }
    empty
    {
        type            empty;
    }
}


// ************************************************************************* //
