/*--------------------------------*- C++ -*----------------------------------*\
  =========                 |
  \\      /  F ield         | OpenFOAM: The Open Source CFD Toolbox
   \\    /   O peration     | Website:  https://openfoam.org
    \\  /    A nd           | Version:  9
     \\/     M anipulation  |
\*---------------------------------------------------------------------------*/
FoamFile
{
    format      ascii;
    class       volVectorField;
    location    "0.047";
    object      U;
}
// * * * * * * * * * * * * * * * * * * * * * * * * * * * * * * * * * * * * * //

dimensions      [0 1 -1 0 0 0 0];

internalField   nonuniform List<vector> 
1000
(
(22.4887 0 0)
(22.7178 0 0)
(23.0336 0 0)
(23.2909 0 0)
(23.512 0 0)
(23.7304 0 0)
(23.9546 0 0)
(24.1818 0 0)
(24.4089 0 0)
(24.6354 0 0)
(24.8615 0 0)
(25.0876 0 0)
(25.3137 0 0)
(25.5398 0 0)
(25.7657 0 0)
(25.9916 0 0)
(26.2174 0 0)
(26.443 0 0)
(26.6686 0 0)
(26.8941 0 0)
(27.1195 0 0)
(27.3448 0 0)
(27.57 0 0)
(27.795 0 0)
(28.02 0 0)
(28.2448 0 0)
(28.4695 0 0)
(28.694 0 0)
(28.9184 0 0)
(29.1427 0 0)
(29.3668 0 0)
(29.5908 0 0)
(29.8146 0 0)
(30.0383 0 0)
(30.2618 0 0)
(30.4852 0 0)
(30.7083 0 0)
(30.9313 0 0)
(31.1541 0 0)
(31.3767 0 0)
(31.5992 0 0)
(31.8214 0 0)
(32.0435 0 0)
(32.2653 0 0)
(32.487 0 0)
(32.7084 0 0)
(32.9296 0 0)
(33.1506 0 0)
(33.3713 0 0)
(33.5918 0 0)
(33.8121 0 0)
(34.0321 0 0)
(34.2519 0 0)
(34.4714 0 0)
(34.6907 0 0)
(34.9098 0 0)
(35.1285 0 0)
(35.347 0 0)
(35.5652 0 0)
(35.7831 0 0)
(36.0007 0 0)
(36.2181 0 0)
(36.4351 0 0)
(36.6518 0 0)
(36.8681 0 0)
(37.0842 0 0)
(37.2999 0 0)
(37.5152 0 0)
(37.7302 0 0)
(37.9449 0 0)
(38.1592 0 0)
(38.3731 0 0)
(38.5866 0 0)
(38.7997 0 0)
(39.0123 0 0)
(39.2246 0 0)
(39.4364 0 0)
(39.6477 0 0)
(39.8585 0 0)
(40.0688 0 0)
(40.2787 0 0)
(40.4879 0 0)
(40.6968 0 0)
(40.9053 0 0)
(41.1136 0 0)
(41.321 0 0)
(41.5274 0 0)
(41.7329 0 0)
(41.9378 0 0)
(42.1421 0 0)
(42.3459 0 0)
(42.5491 0 0)
(42.7519 0 0)
(42.954 0 0)
(43.1555 0 0)
(43.3564 0 0)
(43.5567 0 0)
(43.7564 0 0)
(43.9553 0 0)
(44.1536 0 0)
(44.3512 0 0)
(44.5481 0 0)
(44.7442 0 0)
(44.9396 0 0)
(45.1343 0 0)
(45.3282 0 0)
(45.5212 0 0)
(45.7135 0 0)
(45.9049 0 0)
(46.0956 0 0)
(46.2853 0 0)
(46.4742 0 0)
(46.6623 0 0)
(46.8494 0 0)
(47.0357 0 0)
(47.221 0 0)
(47.4054 0 0)
(47.5889 0 0)
(47.7714 0 0)
(47.9529 0 0)
(48.1334 0 0)
(48.313 0 0)
(48.4916 0 0)
(48.6691 0 0)
(48.8456 0 0)
(49.021 0 0)
(49.1954 0 0)
(49.3688 0 0)
(49.541 0 0)
(49.7122 0 0)
(49.8822 0 0)
(50.0512 0 0)
(50.219 0 0)
(50.3857 0 0)
(50.5513 0 0)
(50.7157 0 0)
(50.879 0 0)
(51.0411 0 0)
(51.2021 0 0)
(51.3619 0 0)
(51.5205 0 0)
(51.6779 0 0)
(51.8342 0 0)
(51.9893 0 0)
(52.1432 0 0)
(52.2959 0 0)
(52.4475 0 0)
(52.5979 0 0)
(52.7471 0 0)
(52.8951 0 0)
(53.042 0 0)
(53.1877 0 0)
(53.3323 0 0)
(53.4757 0 0)
(53.618 0 0)
(53.7591 0 0)
(53.8992 0 0)
(54.0381 0 0)
(54.176 0 0)
(54.3127 0 0)
(54.4484 0 0)
(54.5831 0 0)
(54.7168 0 0)
(54.8494 0 0)
(54.981 0 0)
(55.1117 0 0)
(55.2414 0 0)
(55.3702 0 0)
(55.498 0 0)
(55.625 0 0)
(55.7511 0 0)
(55.8764 0 0)
(56.0008 0 0)
(56.1244 0 0)
(56.2473 0 0)
(56.3694 0 0)
(56.4908 0 0)
(56.6115 0 0)
(56.7315 0 0)
(56.8509 0 0)
(56.9697 0 0)
(57.0878 0 0)
(57.2054 0 0)
(57.3225 0 0)
(57.439 0 0)
(57.555 0 0)
(57.6706 0 0)
(57.7857 0 0)
(57.9004 0 0)
(58.0146 0 0)
(58.1285 0 0)
(58.242 0 0)
(58.3552 0 0)
(58.4681 0 0)
(58.5807 0 0)
(58.693 0 0)
(58.805 0 0)
(58.9168 0 0)
(59.0284 0 0)
(59.1397 0 0)
(59.2509 0 0)
(59.3619 0 0)
(59.4727 0 0)
(59.5834 0 0)
(59.6939 0 0)
(59.8043 0 0)
(59.9146 0 0)
(60.0248 0 0)
(60.1349 0 0)
(60.2449 0 0)
(60.3549 0 0)
(60.4648 0 0)
(60.5746 0 0)
(60.6844 0 0)
(60.7941 0 0)
(60.9038 0 0)
(61.0135 0 0)
(61.1232 0 0)
(61.2328 0 0)
(61.3424 0 0)
(61.452 0 0)
(61.5617 0 0)
(61.6713 0 0)
(61.7809 0 0)
(61.8906 0 0)
(62.0002 0 0)
(62.1099 0 0)
(62.2195 0 0)
(62.3292 0 0)
(62.439 0 0)
(62.5487 0 0)
(62.6585 0 0)
(62.7683 0 0)
(62.8781 0 0)
(62.988 0 0)
(63.0978 0 0)
(63.2078 0 0)
(63.3177 0 0)
(63.4277 0 0)
(63.5377 0 0)
(63.6478 0 0)
(63.7579 0 0)
(63.868 0 0)
(63.9782 0 0)
(64.0884 0 0)
(64.1986 0 0)
(64.3089 0 0)
(64.4192 0 0)
(64.5296 0 0)
(64.64 0 0)
(64.7504 0 0)
(64.8609 0 0)
(64.9714 0 0)
(65.082 0 0)
(65.1926 0 0)
(65.3033 0 0)
(65.414 0 0)
(65.5247 0 0)
(65.6355 0 0)
(65.7463 0 0)
(65.8571 0 0)
(65.968 0 0)
(66.079 0 0)
(66.1899 0 0)
(66.301 0 0)
(66.412 0 0)
(66.5231 0 0)
(66.6343 0 0)
(66.7455 0 0)
(66.8567 0 0)
(66.968 0 0)
(67.0793 0 0)
(67.1906 0 0)
(67.302 0 0)
(67.4135 0 0)
(67.525 0 0)
(67.6365 0 0)
(67.748 0 0)
(67.8596 0 0)
(67.9713 0 0)
(68.083 0 0)
(68.1947 0 0)
(68.3065 0 0)
(68.4183 0 0)
(68.5301 0 0)
(68.642 0 0)
(68.754 0 0)
(68.8659 0 0)
(68.9779 0 0)
(69.09 0 0)
(69.2021 0 0)
(69.3142 0 0)
(69.4264 0 0)
(69.5386 0 0)
(69.6509 0 0)
(69.7632 0 0)
(69.8755 0 0)
(69.9879 0 0)
(70.1003 0 0)
(70.2127 0 0)
(70.3252 0 0)
(70.4377 0 0)
(70.5503 0 0)
(70.6629 0 0)
(70.7755 0 0)
(70.8882 0 0)
(71.0009 0 0)
(71.1137 0 0)
(71.2265 0 0)
(71.3393 0 0)
(71.4522 0 0)
(71.5651 0 0)
(71.6781 0 0)
(71.791 0 0)
(71.9041 0 0)
(72.0171 0 0)
(72.1302 0 0)
(72.2433 0 0)
(72.3565 0 0)
(72.4697 0 0)
(72.5829 0 0)
(72.6962 0 0)
(72.8095 0 0)
(72.9229 0 0)
(73.0363 0 0)
(73.1497 0 0)
(73.2631 0 0)
(73.3766 0 0)
(73.4902 0 0)
(73.6037 0 0)
(73.7173 0 0)
(73.8309 0 0)
(73.9446 0 0)
(74.0583 0 0)
(74.172 0 0)
(74.2858 0 0)
(74.3996 0 0)
(74.5134 0 0)
(74.6273 0 0)
(74.7412 0 0)
(74.8552 0 0)
(74.9691 0 0)
(75.0832 0 0)
(75.1972 0 0)
(75.3113 0 0)
(75.4254 0 0)
(75.5395 0 0)
(75.6537 0 0)
(75.7679 0 0)
(75.8822 0 0)
(75.9964 0 0)
(76.1107 0 0)
(76.2251 0 0)
(76.3395 0 0)
(76.4539 0 0)
(76.5683 0 0)
(76.6828 0 0)
(76.7973 0 0)
(76.9118 0 0)
(77.0264 0 0)
(77.141 0 0)
(77.2557 0 0)
(77.3703 0 0)
(77.485 0 0)
(77.5998 0 0)
(77.7145 0 0)
(77.8293 0 0)
(77.9442 0 0)
(78.059 0 0)
(78.1739 0 0)
(78.2888 0 0)
(78.4038 0 0)
(78.5188 0 0)
(78.6338 0 0)
(78.7489 0 0)
(78.864 0 0)
(78.9791 0 0)
(79.0942 0 0)
(79.2094 0 0)
(79.3246 0 0)
(79.4399 0 0)
(79.5551 0 0)
(79.6704 0 0)
(79.7858 0 0)
(79.9011 0 0)
(80.0165 0 0)
(80.132 0 0)
(80.2474 0 0)
(80.3629 0 0)
(80.4785 0 0)
(80.594 0 0)
(80.7096 0 0)
(80.8252 0 0)
(80.9409 0 0)
(81.0565 0 0)
(81.1723 0 0)
(81.288 0 0)
(81.4038 0 0)
(81.5196 0 0)
(81.6354 0 0)
(81.7513 0 0)
(81.8672 0 0)
(81.9831 0 0)
(82.0991 0 0)
(82.215 0 0)
(82.3311 0 0)
(82.4471 0 0)
(82.5632 0 0)
(82.6793 0 0)
(82.7954 0 0)
(82.9116 0 0)
(83.0278 0 0)
(83.144 0 0)
(83.2603 0 0)
(83.3766 0 0)
(83.4929 0 0)
(83.6093 0 0)
(83.7257 0 0)
(83.8421 0 0)
(83.9585 0 0)
(84.075 0 0)
(84.1915 0 0)
(84.308 0 0)
(84.4246 0 0)
(84.5412 0 0)
(84.6578 0 0)
(84.7745 0 0)
(84.8912 0 0)
(85.0079 0 0)
(85.1246 0 0)
(85.2414 0 0)
(85.3582 0 0)
(85.4751 0 0)
(85.5919 0 0)
(85.7088 0 0)
(85.8258 0 0)
(85.9427 0 0)
(86.0597 0 0)
(86.1767 0 0)
(86.2938 0 0)
(86.4108 0 0)
(86.5279 0 0)
(86.6451 0 0)
(86.7622 0 0)
(86.8794 0 0)
(86.9967 0 0)
(87.1139 0 0)
(87.2312 0 0)
(87.3485 0 0)
(87.4659 0 0)
(87.5832 0 0)
(87.7006 0 0)
(87.8181 0 0)
(87.9355 0 0)
(88.053 0 0)
(88.1705 0 0)
(88.2881 0 0)
(88.4057 0 0)
(88.5233 0 0)
(88.6409 0 0)
(88.7586 0 0)
(88.8763 0 0)
(88.994 0 0)
(89.1118 0 0)
(89.2296 0 0)
(89.3474 0 0)
(89.4652 0 0)
(89.5831 0 0)
(89.701 0 0)
(89.819 0 0)
(89.9369 0 0)
(90.0549 0 0)
(90.173 0 0)
(90.291 0 0)
(90.4091 0 0)
(90.5272 0 0)
(90.6454 0 0)
(90.7635 0 0)
(90.8817 0 0)
(91 0 0)
(91.1182 0 0)
(91.2365 0 0)
(91.3548 0 0)
(91.4732 0 0)
(91.5916 0 0)
(91.71 0 0)
(91.8284 0 0)
(91.9469 0 0)
(92.0654 0 0)
(92.1839 0 0)
(92.3025 0 0)
(92.4211 0 0)
(92.5397 0 0)
(92.6583 0 0)
(92.777 0 0)
(92.8957 0 0)
(93.0145 0 0)
(93.1332 0 0)
(93.252 0 0)
(93.3708 0 0)
(93.4897 0 0)
(93.6086 0 0)
(93.7275 0 0)
(93.8464 0 0)
(93.9654 0 0)
(94.0844 0 0)
(94.2035 0 0)
(94.3225 0 0)
(94.4416 0 0)
(94.5607 0 0)
(94.6799 0 0)
(94.7991 0 0)
(94.9183 0 0)
(95.0375 0 0)
(95.1568 0 0)
(95.2761 0 0)
(95.3954 0 0)
(95.5147 0 0)
(95.6341 0 0)
(95.7535 0 0)
(95.873 0 0)
(95.9925 0 0)
(96.112 0 0)
(96.2315 0 0)
(96.351 0 0)
(96.4706 0 0)
(96.5902 0 0)
(96.7099 0 0)
(96.8296 0 0)
(96.9493 0 0)
(97.069 0 0)
(97.1888 0 0)
(97.3085 0 0)
(97.4283 0 0)
(97.5482 0 0)
(97.6681 0 0)
(97.788 0 0)
(97.9079 0 0)
(98.0278 0 0)
(98.1478 0 0)
(98.2678 0 0)
(98.3878 0 0)
(98.5079 0 0)
(98.628 0 0)
(98.7481 0 0)
(98.8682 0 0)
(98.9884 0 0)
(99.1086 0 0)
(99.2288 0 0)
(99.349 0 0)
(99.4692 0 0)
(99.5895 0 0)
(99.7098 0 0)
(99.8301 0 0)
(99.9505 0 0)
(100.071 0 0)
(100.191 0 0)
(100.312 0 0)
(100.432 0 0)
(100.552 0 0)
(100.673 0 0)
(100.793 0 0)
(100.914 0 0)
(101.034 0 0)
(101.155 0 0)
(101.275 0 0)
(101.396 0 0)
(101.516 0 0)
(101.637 0 0)
(101.758 0 0)
(101.878 0 0)
(101.999 0 0)
(102.119 0 0)
(102.24 0 0)
(102.36 0 0)
(102.481 0 0)
(102.602 0 0)
(102.722 0 0)
(102.843 0 0)
(102.963 0 0)
(103.084 0 0)
(103.204 0 0)
(103.325 0 0)
(103.445 0 0)
(103.566 0 0)
(103.686 0 0)
(103.806 0 0)
(103.927 0 0)
(104.047 0 0)
(104.167 0 0)
(104.288 0 0)
(104.408 0 0)
(104.528 0 0)
(104.648 0 0)
(104.768 0 0)
(104.888 0 0)
(105.008 0 0)
(105.127 0 0)
(105.247 0 0)
(105.367 0 0)
(105.486 0 0)
(105.606 0 0)
(105.725 0 0)
(105.844 0 0)
(105.963 0 0)
(106.082 0 0)
(106.201 0 0)
(106.319 0 0)
(106.438 0 0)
(106.556 0 0)
(106.674 0 0)
(106.792 0 0)
(106.91 0 0)
(107.028 0 0)
(107.145 0 0)
(107.262 0 0)
(107.379 0 0)
(107.496 0 0)
(107.613 0 0)
(107.729 0 0)
(107.845 0 0)
(107.96 0 0)
(108.076 0 0)
(108.191 0 0)
(108.305 0 0)
(108.42 0 0)
(108.534 0 0)
(108.647 0 0)
(108.761 0 0)
(108.873 0 0)
(108.986 0 0)
(109.098 0 0)
(109.21 0 0)
(109.321 0 0)
(109.431 0 0)
(109.541 0 0)
(109.651 0 0)
(109.76 0 0)
(109.869 0 0)
(109.977 0 0)
(110.084 0 0)
(110.191 0 0)
(110.297 0 0)
(110.403 0 0)
(110.508 0 0)
(110.612 0 0)
(110.716 0 0)
(110.819 0 0)
(110.921 0 0)
(111.022 0 0)
(111.123 0 0)
(111.223 0 0)
(111.322 0 0)
(111.42 0 0)
(111.517 0 0)
(111.614 0 0)
(111.71 0 0)
(111.805 0 0)
(111.898 0 0)
(111.991 0 0)
(112.084 0 0)
(112.175 0 0)
(112.265 0 0)
(112.354 0 0)
(112.442 0 0)
(112.529 0 0)
(112.616 0 0)
(112.701 0 0)
(112.785 0 0)
(112.868 0 0)
(112.95 0 0)
(113.031 0 0)
(113.111 0 0)
(113.19 0 0)
(113.268 0 0)
(113.345 0 0)
(113.42 0 0)
(113.495 0 0)
(113.569 0 0)
(113.641 0 0)
(113.713 0 0)
(113.784 0 0)
(113.853 0 0)
(113.922 0 0)
(113.99 0 0)
(114.056 0 0)
(114.122 0 0)
(114.187 0 0)
(114.251 0 0)
(114.315 0 0)
(114.377 0 0)
(114.439 0 0)
(114.5 0 0)
(114.56 0 0)
(114.619 0 0)
(114.678 0 0)
(114.736 0 0)
(114.794 0 0)
(114.851 0 0)
(114.908 0 0)
(114.965 0 0)
(115.021 0 0)
(115.076 0 0)
(115.132 0 0)
(115.187 0 0)
(115.242 0 0)
(115.298 0 0)
(115.353 0 0)
(115.408 0 0)
(115.463 0 0)
(115.518 0 0)
(115.574 0 0)
(115.629 0 0)
(115.685 0 0)
(115.742 0 0)
(115.798 0 0)
(115.856 0 0)
(115.913 0 0)
(115.972 0 0)
(116.03 0 0)
(116.09 0 0)
(116.15 0 0)
(116.211 0 0)
(116.273 0 0)
(116.336 0 0)
(116.399 0 0)
(116.463 0 0)
(116.528 0 0)
(116.595 0 0)
(116.662 0 0)
(116.73 0 0)
(116.799 0 0)
(116.87 0 0)
(116.941 0 0)
(117.013 0 0)
(117.087 0 0)
(117.162 0 0)
(117.238 0 0)
(117.315 0 0)
(117.393 0 0)
(117.472 0 0)
(117.553 0 0)
(117.634 0 0)
(117.717 0 0)
(117.801 0 0)
(117.886 0 0)
(117.972 0 0)
(118.06 0 0)
(118.148 0 0)
(118.238 0 0)
(118.329 0 0)
(118.421 0 0)
(118.514 0 0)
(118.608 0 0)
(118.703 0 0)
(118.799 0 0)
(118.896 0 0)
(118.995 0 0)
(119.094 0 0)
(119.194 0 0)
(119.295 0 0)
(119.397 0 0)
(119.501 0 0)
(119.604 0 0)
(119.709 0 0)
(119.815 0 0)
(119.922 0 0)
(120.029 0 0)
(120.137 0 0)
(120.246 0 0)
(120.356 0 0)
(120.466 0 0)
(120.577 0 0)
(120.689 0 0)
(120.802 0 0)
(120.915 0 0)
(121.029 0 0)
(121.143 0 0)
(121.258 0 0)
(121.374 0 0)
(121.49 0 0)
(121.607 0 0)
(121.724 0 0)
(121.842 0 0)
(121.96 0 0)
(122.079 0 0)
(122.198 0 0)
(122.318 0 0)
(122.438 0 0)
(122.558 0 0)
(122.679 0 0)
(122.8 0 0)
(122.922 0 0)
(123.043 0 0)
(123.166 0 0)
(123.288 0 0)
(123.411 0 0)
(123.533 0 0)
(123.656 0 0)
(123.78 0 0)
(123.903 0 0)
(124.026 0 0)
(124.15 0 0)
(124.273 0 0)
(124.397 0 0)
(124.52 0 0)
(124.643 0 0)
(124.766 0 0)
(124.889 0 0)
(125.011 0 0)
(125.133 0 0)
(125.254 0 0)
(125.375 0 0)
(125.496 0 0)
(125.615 0 0)
(125.734 0 0)
(125.851 0 0)
(125.968 0 0)
(126.083 0 0)
(126.197 0 0)
(126.31 0 0)
(126.421 0 0)
(126.53 0 0)
(126.638 0 0)
(126.743 0 0)
(126.847 0 0)
(126.948 0 0)
(127.048 0 0)
(127.144 0 0)
(127.239 0 0)
(127.331 0 0)
(127.42 0 0)
(127.506 0 0)
(127.59 0 0)
(127.671 0 0)
(127.749 0 0)
(127.825 0 0)
(127.897 0 0)
(127.967 0 0)
(128.035 0 0)
(128.099 0 0)
(128.162 0 0)
(128.222 0 0)
(128.28 0 0)
(128.336 0 0)
(128.39 0 0)
(128.442 0 0)
(128.493 0 0)
(128.543 0 0)
(128.592 0 0)
(128.64 0 0)
(128.687 0 0)
(128.735 0 0)
(128.782 0 0)
(128.829 0 0)
(128.876 0 0)
(128.925 0 0)
(128.973 0 0)
(129.023 0 0)
(129.073 0 0)
(129.125 0 0)
(129.178 0 0)
(129.233 0 0)
(129.288 0 0)
(129.346 0 0)
(129.405 0 0)
(129.465 0 0)
(129.528 0 0)
(129.592 0 0)
(129.657 0 0)
(129.725 0 0)
(129.794 0 0)
(129.865 0 0)
(129.937 0 0)
(130.011 0 0)
(130.087 0 0)
(130.164 0 0)
(130.243 0 0)
(130.323 0 0)
(130.405 0 0)
(130.489 0 0)
(130.573 0 0)
(130.66 0 0)
(130.747 0 0)
(130.836 0 0)
(130.926 0 0)
(131.017 0 0)
(131.11 0 0)
(131.203 0 0)
(131.298 0 0)
(131.394 0 0)
(131.491 0 0)
(131.59 0 0)
(131.689 0 0)
(131.789 0 0)
(131.89 0 0)
(131.992 0 0)
(132.096 0 0)
(132.2 0 0)
(132.305 0 0)
(132.411 0 0)
(132.518 0 0)
(132.625 0 0)
(132.734 0 0)
(132.843 0 0)
(132.954 0 0)
(133.065 0 0)
(133.176 0 0)
(133.289 0 0)
(133.402 0 0)
(133.516 0 0)
(133.631 0 0)
(133.747 0 0)
(133.863 0 0)
(133.98 0 0)
(134.098 0 0)
(134.216 0 0)
(134.335 0 0)
(134.455 0 0)
(134.576 0 0)
(134.697 0 0)
(134.818 0 0)
(134.941 0 0)
(135.064 0 0)
(135.187 0 0)
(135.311 0 0)
(135.436 0 0)
(135.561 0 0)
(135.687 0 0)
(135.814 0 0)
(135.941 0 0)
(136.068 0 0)
(136.196 0 0)
(136.325 0 0)
(136.454 0 0)
(136.584 0 0)
(136.714 0 0)
(136.845 0 0)
(136.976 0 0)
(137.108 0 0)
(137.241 0 0)
(137.373 0 0)
(137.507 0 0)
(137.64 0 0)
(137.775 0 0)
(137.909 0 0)
(138.044 0 0)
(138.18 0 0)
(138.316 0 0)
(138.453 0 0)
(138.59 0 0)
(138.727 0 0)
(138.865 0 0)
(139.003 0 0)
(139.142 0 0)
(139.281 0 0)
(139.421 0 0)
(139.561 0 0)
(139.701 0 0)
(139.842 0 0)
(139.983 0 0)
(140.125 0 0)
(140.267 0 0)
(140.41 0 0)
(140.552 0 0)
(140.696 0 0)
(140.839 0 0)
(140.983 0 0)
(141.128 0 0)
(141.272 0 0)
(141.417 0 0)
(141.563 0 0)
(141.709 0 0)
(141.855 0 0)
(142.001 0 0)
(142.148 0 0)
(142.295 0 0)
(142.443 0 0)
(142.591 0 0)
(142.739 0 0)
(142.888 0 0)
(143.037 0 0)
(143.186 0 0)
(143.336 0 0)
(143.486 0 0)
(143.636 0 0)
(143.787 0 0)
(143.938 0 0)
(144.089 0 0)
(144.24 0 0)
(144.392 0 0)
(144.544 0 0)
(144.697 0 0)
(144.85 0 0)
(145.003 0 0)
(145.156 0 0)
(145.311 0 0)
(145.465 0 0)
(145.622 0 0)
(145.893 0 0)
)
;

boundaryField
{
    sides
    {
        type            zeroGradient;
    }
    empty
    {
        type            empty;
    }
}


// ************************************************************************* //
