/*--------------------------------*- C++ -*----------------------------------*\
  =========                 |
  \\      /  F ield         | OpenFOAM: The Open Source CFD Toolbox
   \\    /   O peration     | Website:  https://openfoam.org
    \\  /    A nd           | Version:  9
     \\/     M anipulation  |
\*---------------------------------------------------------------------------*/
FoamFile
{
    format      ascii;
    class       surfaceScalarField;
    location    "0.002";
    object      phi;
}
// * * * * * * * * * * * * * * * * * * * * * * * * * * * * * * * * * * * * * //

dimensions      [1 0 -1 0 0 0 0];

internalField   nonuniform List<scalar> 
99
(
1.44951e-12
-1.42109e-12
-1.15818e-12
0
1.15818e-12
1.44951e-12
-1.42109e-12
-1.15818e-12
0
5.18696e-13
7.10543e-15
-5.82645e-13
7.10543e-15
-7.10543e-15
0
7.10543e-15
-7.10543e-15
5.82645e-13
5.32907e-13
-7.10543e-15
-2.55795e-13
2.43006e-12
2.30997e-11
1.75596e-10
1.31667e-09
9.39134e-09
6.49573e-08
4.25445e-07
2.6867e-06
1.60058e-05
9.13155e-05
0.00048917
0.00248788
0.0118071
0.0526028
0.216735
0.825386
2.8647
8.9673
24.7984
57.4342
109.859
179.27
255.625
327.144
385.282
432.423
464.365
478.361
493.23
502.608
500.679
487.691
459.863
403.024
345.939
318.979
307.482
301.775
294.151
262.08
75.3812
15.812
2.16707
0.274025
0.0337758
0.00411816
0.000499809
6.05924e-05
7.34523e-06
8.89328e-07
1.07061e-07
1.27575e-08
1.49576e-09
1.71759e-10
1.91167e-11
1.98552e-12
1.55875e-13
5.32907e-15
0
0
0
0
0
0
0
0
0
0
0
8.88178e-16
2.15827e-13
2.66454e-13
-2.66454e-13
-2.1716e-13
0
2.15383e-13
2.32703e-13
-3.5616e-13
)
;

boundaryField
{
    sides
    {
        type            calculated;
        value           nonuniform List<scalar> 2(-5.40604e-13 -2.49711e-12);
    }
    empty
    {
        type            empty;
        value           nonuniform List<scalar> 0();
    }
}


// ************************************************************************* //
