/*--------------------------------*- C++ -*----------------------------------*\
  =========                 |
  \\      /  F ield         | OpenFOAM: The Open Source CFD Toolbox
   \\    /   O peration     | Website:  https://openfoam.org
    \\  /    A nd           | Version:  9
     \\/     M anipulation  |
\*---------------------------------------------------------------------------*/
FoamFile
{
    format      ascii;
    class       volScalarField;
    location    "0.036";
    object      p;
}
// * * * * * * * * * * * * * * * * * * * * * * * * * * * * * * * * * * * * * //

dimensions      [1 -1 -2 0 0 0 0];

internalField   nonuniform List<scalar> 
1000
(
14632.6
14630.2
14626.5
14624.2
14622.2
14620.1
14617.9
14615.6
14613.3
14611.1
14608.9
14606.7
14604.4
14602.2
14600
14597.8
14595.5
14593.3
14591.1
14588.8
14586.6
14584.4
14582.2
14579.9
14577.7
14575.5
14573.2
14571
14568.8
14566.6
14564.3
14562.1
14559.9
14557.6
14555.4
14553.2
14551
14548.7
14546.5
14544.3
14542
14539.8
14537.6
14535.3
14533.1
14530.9
14528.6
14526.4
14524.2
14522
14519.7
14517.5
14515.3
14513
14510.8
14508.6
14506.3
14504.1
14501.9
14499.6
14497.4
14495.2
14492.9
14490.7
14488.5
14486.2
14484
14481.8
14479.6
14477.3
14475.1
14472.9
14470.6
14468.4
14466.2
14463.9
14461.7
14459.5
14457.2
14455
14452.8
14450.6
14448.3
14446.1
14443.9
14441.7
14439.4
14437.2
14435
14432.7
14430.5
14428.3
14426.1
14423.9
14421.6
14419.4
14417.2
14415
14412.7
14410.5
14408.3
14406.1
14403.9
14401.6
14399.4
14397.2
14395
14392.8
14390.6
14388.3
14386.1
14383.9
14381.7
14379.5
14377.3
14375.1
14372.9
14370.7
14368.5
14366.3
14364.1
14361.9
14359.6
14357.4
14355.3
14353.1
14350.9
14348.7
14346.5
14344.3
14342.1
14339.9
14337.7
14335.5
14333.3
14331.2
14329
14326.8
14324.6
14322.4
14320.3
14318.1
14315.9
14313.7
14311.6
14309.4
14307.2
14305.1
14302.9
14300.8
14298.6
14296.5
14294.3
14292.2
14290
14287.9
14285.7
14283.6
14281.5
14279.3
14277.2
14275.1
14273
14270.8
14268.7
14266.6
14264.5
14262.4
14260.3
14258.2
14256.1
14254
14251.9
14249.8
14247.7
14245.6
14243.5
14241.5
14239.4
14237.4
14235.4
14233.4
14231.3
14229.3
14227.2
14225.1
14223
14220.9
14219
14217
14215.1
14213.2
14211.3
14209.4
14207.4
14205.4
14203.2
14201.1
14199
14197
14195.1
14193.3
14191.5
14189.8
14188.1
14186.4
14184.7
14182.9
14180.9
14178.8
14176.5
14174.3
14172.2
14170.2
14168.3
14166.6
14165
14163.5
14162.1
14160.8
14159.4
14158.1
14156.7
14155.2
14153.5
14151.5
14149.3
14146.9
14144.4
14142.1
14139.8
14138.1
14138.6
14139.3
14139.7
14141.2
14143.7
14143.8
14145.4
14146.6
14145.5
14145.6
14147.4
14146.8
14145.9
14148
14148.5
14146.5
14147.5
14149.7
14148.1
14147.3
14150.5
14150.4
14148
14150
14152.3
14149.7
14149.3
14154.3
14153.3
14149
14152.5
14155.8
14151.7
14150.7
14157
14156.6
14150.5
14153.8
14160.8
14154.2
14149.7
14163.6
14164.6
14149.9
14153.9
14168.9
14162.4
14148.8
14160.3
14176.1
14160.5
14144.8
14172.4
14185.4
14151.3
14149.6
14194.7
14185.7
14141.9
14162.3
14210.2
14185.7
14136.3
14164.4
14226.9
14196.4
14136.9
14175.7
14238.6
14192.8
14141
14200.6
14250.7
14186.8
14144.2
14219.1
14267.9
14198.1
14145.6
14212.9
14283.8
14233
14162.7
14207.5
14288.6
14249.4
14175.6
14218.3
14299.7
14260.5
14182.9
14219.3
14314.6
14292.2
14195.6
14189.6
14306.8
14337.8
14244.5
14199.1
14280.4
14344.4
14280
14215.1
14277.1
14358.1
14307.3
14222.9
14248.1
14369.7
14378.1
14264.6
14221.6
14296.1
14396.5
14375.2
14264.3
14238.8
14354.4
14426.3
14371.1
14274.1
14262.5
14388.4
14433.9
14349.9
14289.5
14358.5
14446.6
14403.2
14314
14325.3
14458.6
14482
14377.1
14325.3
14384.5
14510.3
14537.6
14430.6
14367.6
14345
14469.3
14551
14517.7
14421
14420
14544.5
14571.3
14488.6
14453.1
14556.5
14614.4
14554.8
14494.7
14549.4
14650.1
14641.2
14568
14571.7
14661.3
14672
14623.8
14620.7
14701.1
14714.5
14667.5
14666.5
14762.4
14772.9
14706.1
14707.5
14813.1
14823.8
14746.2
14707.8
14740.4
14889.6
14922.6
14839.4
14771.1
14802.1
14915.5
14925.1
14839
14815
14922.1
14967.8
14896.5
14840.4
14927.5
15035
15063.3
14967.8
14912.2
14893.3
14880.5
15039.4
15115.5
15093.7
14985.9
14954.4
15044.9
15149.8
15143.4
15059.2
15042.3
15149.5
15194.5
15167.7
15113.8
15111.3
15217.2
15248.6
15263
15277.5
15290.2
15301.4
15312.9
15326.5
15342.3
15359.6
15376
15390.4
15404.1
15418.4
15433.3
15448.3
15463.7
15479.2
15494.6
15510.8
15528.9
15549.7
15572.4
15597.8
15621.8
15544.4
15486.2
15473.1
15489.7
15562.4
15572.3
15583.1
15604.5
15627.8
15654
15671.2
15675.9
15682.6
15689.7
15693.7
15686.6
15698.7
15734.1
15739.1
15731.6
15758.2
15785.5
15788
15779.6
15813.2
15834.5
15837.3
15825.8
15847.7
15874.8
15881.4
15879.7
15865.8
15895.8
15931.5
15945.2
15953.3
15932.8
15924.3
16006.5
16038.1
16053.2
16067.2
16080.7
16093.6
16105.8
16117.2
16128.3
16139.8
16152.1
16165.4
16179.6
16194.9
16211
16227.7
16244.9
16262.3
16279.9
16297.4
16314.7
16331.5
16347.6
16362.4
16375.7
16386.9
16395.8
16402.4
16407.1
16411.1
16415.8
16421.7
16429.1
16438.1
16448.9
16461.3
16475
16489.6
16504.9
16520.5
16536
16550.9
16564.9
16577.3
16587.9
16596.6
16604.4
16612.8
16622.5
16633.6
16646.1
16659.7
16674
16688.8
16703.7
16718.4
16732.7
16746.7
16760.6
16775
16790.1
16806.1
16823.1
16841
16859.8
16879.2
16899.1
16919.1
16939.3
16959.4
16979.2
16998.7
17017.6
17035.7
17052.8
17068.7
17083
17095.6
17105.9
17113.8
17118.9
17121.8
17123.4
17125.4
17128.7
17133.7
17140.7
17149.8
17161
17174.1
17188.8
17204.6
17221.3
17238.3
17255.5
17272.4
17288.7
17303.7
17317.1
17328.3
17337.4
17345.2
17353.5
17363.4
17375
17388.4
17403.6
17419.9
17437
17454.4
17471.6
17488.2
17503.8
17517.8
17530.1
17541
17552
17564.2
17578
17593.7
17611.2
17630.3
17650.5
17671.4
17692.5
17713.5
17733.8
17752.7
17769.3
17783.4
17794.8
17804.7
17814.9
17826.8
17840.7
17856.6
17874.5
17894.1
17914.7
17935.9
17956.9
17977.2
17996.1
18012.9
18027.3
18039.5
18050.6
18062.2
18075.1
18089.8
18106.2
18124.7
18144.9
18166.6
18189.4
18212.7
18236.2
18259.2
18281.1
18301.1
18318.4
18332.5
18342.9
18350.3
18356.3
18362.9
18371.4
18382.2
18395.7
18412.1
18431.4
18453.3
18477.5
18503.3
18530.1
18557.3
18584.4
18611.3
18637.9
18664.1
18690
18715.5
18740.5
18765.2
18789.7
18813.9
18837.8
18860.8
18882.5
18902
18918.6
18931.6
18940.8
18947.4
18954.2
18963
18975.1
18990.5
19009.5
19032.6
19059.1
19088.1
19118.5
19149.5
19180.8
19212.1
19243.4
19275
19307.2
19340.1
19373.7
19407.8
19442.4
19477
19511.9
19546.7
19580.9
19613.7
19645.5
19677.3
19709.6
19741.9
19774.3
19807.2
19840.5
19874.1
19908.2
19942.6
19977.2
20011.9
20046.4
20080.3
20113.7
20147
20180.7
20215.2
20250.8
20287
20323.9
20361.4
20399.4
20437.8
20476.7
20516
20555.7
20595.1
20634.5
20674.2
20713.2
20749.9
20784.3
20818.3
20852.7
20888.4
20925.8
20965.2
21006
21048.1
21091.2
21135.4
21180.5
21226.5
21273.6
21321.9
21371.8
21422.8
21473.6
21522
21566
21604.3
21638.2
21671.9
21707.7
21743.8
21779.3
21815
21851.4
21888.2
21925.7
21964.1
22003.6
22043.9
22084.8
22126.2
22168
22210.1
22252.3
22294.8
22337.4
22379.9
22422.6
22465.6
22509
22552.8
22596.6
22640.8
22685.8
22732.4
22779.1
22823.4
22863.3
22899.1
22933
22966.7
22999.3
23029.8
23057
23083.3
23111.9
23143.4
23177.9
23215.4
23254.1
23292.8
23331.7
23370.7
23410.2
23450.7
23492.7
23536.4
23581.5
23626.7
23670.4
23712
23751
23787.2
23820.4
23854.3
23890.1
23926
23960.2
23993.6
24029.4
24067.9
24107.8
24148.2
24188.5
24228.8
24269.3
24309.9
24350.2
24390
24429.1
24466.9
24503.4
24538.9
24573.2
24605.6
24635.4
24663.1
24690.9
24720.5
24751.8
24783.8
24815.5
24845.4
24872.7
24899.5
24928.7
24961.6
24997.8
25037.1
25078.9
25121.4
25164
25206.7
25248.9
25289.8
25328.2
25362.7
25393.1
25420.2
25445.7
25471.6
25498.5
25525.8
25553.3
25581
25609.2
25637.9
25667
25696.4
25725.8
25754.9
25783.3
25810.8
25837.2
25862.2
25886.1
25909.4
25932.8
25956.8
25982.2
26009.2
26037.8
26067.7
26098.2
26128.4
26158
26186.5
26213.4
26238.5
26261.9
26284.5
26306.7
26329.3
26353.1
26379.1
26407.2
26435.8
26462.9
26487.3
26508.2
26526
26541.4
26555.8
26570.8
26587.2
26604.6
26622.1
26638.9
26655
26671.6
26690.1
26711.1
26733.4
26754.6
26772.5
26786
26795.4
26803
26809.8
26818.3
26828.9
26841.3
26856
26871.5
26887.3
26903
26919
26934.4
26948.7
26961.8
26975.2
26989.3
27003.8
27015.7
27024.3
27029.4
27033.1
27035
27036
27037.9
27039.9
27042.4
27047.5
27056.8
27069.1
27089.1
27119.8
27147.3
27167.8
27177.6
27185
27192.5
27201.6
27210.4
27217.3
27222.6
27228.2
27231.6
27235
27241
27253.3
27277.9
27305.9
27328.3
27350.5
27375.5
27404.3
27436.8
27473.9
27510.3
27538.6
27557.4
27572.2
27585
27597.1
27608.7
27624.5
27639.5
27651.1
)
;

boundaryField
{
    sides
    {
        type            zeroGradient;
    }
    empty
    {
        type            empty;
    }
}


// ************************************************************************* //
