/*--------------------------------*- C++ -*----------------------------------*\
  =========                 |
  \\      /  F ield         | OpenFOAM: The Open Source CFD Toolbox
   \\    /   O peration     | Website:  https://openfoam.org
    \\  /    A nd           | Version:  9
     \\/     M anipulation  |
\*---------------------------------------------------------------------------*/
FoamFile
{
    format      ascii;
    class       surfaceScalarField;
    location    "0.036";
    object      phi;
}
// * * * * * * * * * * * * * * * * * * * * * * * * * * * * * * * * * * * * * //

dimensions      [1 0 -1 0 0 0 0];

internalField   nonuniform List<scalar> 
999
(
17.0303
17.3709
17.7114
18.0519
18.3923
18.7325
19.0727
19.4128
19.7528
20.0927
20.4326
20.7723
21.1119
21.4515
21.791
22.1304
22.4697
22.8089
23.148
23.4871
23.8261
24.1651
24.504
24.8428
25.1816
25.5202
25.8587
26.1972
26.5356
26.8739
27.2122
27.5506
27.889
28.2274
28.5658
28.9042
29.2425
29.5809
29.9193
30.2576
30.5959
30.9341
31.2723
31.6104
31.9484
32.2864
32.6243
32.9621
33.2999
33.6376
33.9753
34.3128
34.6503
34.9877
35.3251
35.6623
35.9996
36.3367
36.6739
37.0109
37.3478
37.6846
38.0214
38.3581
38.6947
39.0314
39.3678
39.7044
40.0406
40.377
40.7132
41.0492
41.3855
41.7213
42.0573
42.3932
42.7288
43.0647
43.4002
43.7357
44.0714
44.4066
44.7419
45.0774
45.4123
45.7475
46.0827
46.4174
46.7523
47.0873
47.4217
47.7564
48.0912
48.4254
48.7598
49.0945
49.4285
49.7625
50.097
50.4308
50.7644
51.0986
51.4325
51.7657
52.0995
52.4334
52.7664
53.0996
53.4334
53.7665
54.0991
54.4326
54.7658
55.0981
55.4308
55.7641
56.0966
56.4285
56.7614
57.0942
57.4259
57.7578
58.0905
58.4227
58.7539
59.0858
59.4182
59.7497
60.0806
60.4124
60.7444
61.0753
61.406
61.7377
62.0691
62.3995
62.73
63.0614
63.3923
63.7223
64.0526
64.3836
64.7141
65.0436
65.3736
65.7042
66.0343
66.3634
66.6931
67.0234
67.3531
67.6818
68.011
68.3409
68.6703
68.9986
69.3273
69.6569
69.9861
70.314
70.6418
70.9708
71.2999
71.6277
71.9551
72.2835
72.6125
72.9402
73.2667
73.5939
73.9221
74.2499
74.5764
74.9031
75.231
75.5592
75.8859
76.2113
76.5375
76.8645
77.1908
77.5158
77.8411
78.1681
78.4958
78.8221
79.1471
79.4725
79.7985
80.1234
80.4467
80.7697
81.0942
81.4196
81.7444
82.0689
82.3948
82.7219
83.0478
83.3713
83.6931
84.0153
84.3383
84.6603
84.9804
85.3003
85.6219
85.9461
86.2711
86.5963
86.9218
87.2476
87.5731
87.8967
88.2171
88.5361
88.8552
89.1743
89.4918
89.8077
90.1234
90.4405
90.759
91.0785
91.3991
91.7224
92.049
92.3774
92.7042
93.0289
93.3543
93.647
93.9481
94.2163
94.4681
94.7835
95.0203
95.2557
95.6204
95.8992
96.1442
96.504
96.8139
97.0441
97.3695
97.7326
97.9713
98.2219
98.6313
98.9167
99.115
99.486
99.8479
100.044
100.32
100.755
101.019
101.189
101.633
102.015
102.106
102.388
102.904
103.143
103.257
103.724
104.151
104.212
104.423
105.084
105.347
105.227
105.807
106.51
106.3
106.319
107.302
107.688
107.248
107.504
108.702
108.924
108.139
108.721
110.247
109.814
108.973
110.728
111.844
110.125
109.915
112.63
113.214
110.822
110.653
114.121
114.819
111.78
111.646
115.511
115.88
112.726
113.122
116.953
116.692
113.579
114.406
118.367
118.062
114.57
114.722
119.493
120.06
116.048
115.622
120.374
121.204
117.24
116.802
121.543
122.392
118.299
117.643
122.651
124.044
119.896
118.434
121.614
125.104
123.814
120.289
120.864
125.689
125.847
121.714
121.567
126.783
127.525
122.84
121.795
127.153
129.409
126.523
123.439
123.247
129.479
130.944
126.297
124.434
125.889
131.418
132.296
126.871
125.554
128.322
132.651
132.039
127.708
127.501
133.172
134.032
129.127
127.79
132.601
135.563
133.541
129.67
128.853
135.725
137.595
136.35
131.496
130.208
131.391
137.518
138.503
133.488
131.917
135.433
138.642
137.002
133.586
134.652
139.428
139.153
135.015
134.132
139.849
140.769
137.564
135.89
138.81
140.486
139.116
137.22
139.492
141.245
140.027
137.951
140.895
142.959
140.914
138.614
142.07
144.307
142.004
139.311
137.91
144.334
146.706
146.012
141.034
139.872
145.203
146.799
144.428
141.489
143.251
147.417
146.68
142.473
142.231
148.942
150.531
149.478
144.668
143.712
142.386
144.974
151.003
152.08
147.014
144.874
144.474
151.192
152.18
148.702
146.475
148.134
152.014
152.153
148.96
147.676
150.306
153.039
153.401
153.672
153.958
154.215
154.434
154.656
154.941
155.294
155.655
155.984
156.287
156.576
156.873
157.216
157.591
157.949
158.283
158.635
159.059
159.565
160.143
160.792
161.601
161.004
156.121
155.195
154.331
157.297
158.223
158.52
158.748
158.832
158.97
159.099
159.075
159.048
159.038
158.954
158.652
157.972
159.53
159.654
159.248
158.914
160.552
160.585
160.074
160.116
161.694
161.826
161.491
161.23
163.024
163.344
163.498
162.846
162.85
165.039
165.504
165.762
165.481
163.82
165.707
168.136
168.514
168.787
169.05
169.314
169.585
169.865
170.148
170.428
170.703
170.974
171.239
171.498
171.751
172.002
172.249
172.492
172.735
172.98
173.227
173.478
173.731
173.99
174.262
174.544
174.841
175.153
175.479
175.814
176.147
176.472
176.791
177.098
177.394
177.679
177.958
178.231
178.501
178.765
179.027
179.296
179.572
179.853
180.145
180.452
180.769
181.084
181.392
181.694
181.985
182.268
182.546
182.824
183.1
183.373
183.651
183.935
184.22
184.505
184.784
185.058
185.328
185.591
185.851
186.106
186.357
186.608
186.862
187.116
187.372
187.628
187.883
188.145
188.416
188.694
188.98
189.277
189.582
189.9
190.237
190.593
190.96
191.329
191.692
192.046
192.386
192.714
193.029
193.334
193.626
193.912
194.195
194.475
194.757
195.036
195.316
195.604
195.902
196.215
196.544
196.883
197.219
197.547
197.866
198.176
198.478
198.769
199.059
199.343
199.623
199.908
200.198
200.504
200.821
201.145
201.477
201.797
202.106
202.409
202.704
202.992
203.272
203.545
203.814
204.081
204.358
204.644
204.942
205.253
205.574
205.899
206.229
206.563
206.893
207.21
207.515
207.806
208.085
208.359
208.634
208.911
209.201
209.508
209.824
210.149
210.481
210.818
211.155
211.481
211.799
212.106
212.399
212.678
212.949
213.224
213.498
213.776
214.059
214.349
214.653
214.972
215.309
215.667
216.041
216.421
216.794
217.158
217.504
217.835
218.15
218.446
218.722
218.986
219.247
219.506
219.766
220.032
220.299
220.563
220.836
221.112
221.392
221.682
221.976
222.264
222.558
222.857
223.157
223.472
223.806
224.148
224.503
224.885
225.275
225.657
226.021
226.376
226.709
227.023
227.304
227.571
227.826
228.068
228.32
228.569
228.832
229.099
229.358
229.619
229.881
230.136
230.392
230.645
230.903
231.163
231.423
231.694
231.965
232.237
232.502
232.758
233.009
233.271
233.528
233.784
234.053
234.334
234.623
234.902
235.171
235.439
235.698
235.957
236.206
236.452
236.712
236.969
237.235
237.499
237.754
238.018
238.281
238.548
238.806
239.056
239.311
239.559
239.803
240.046
240.294
240.548
240.82
241.082
241.341
241.606
241.875
242.154
242.419
242.663
242.904
243.149
243.376
243.565
243.729
243.909
244.119
244.369
244.64
244.912
245.194
245.471
245.752
246.03
246.297
246.584
246.877
247.16
247.455
247.747
248.018
248.283
248.543
248.807
249.079
249.325
249.595
249.895
250.16
250.413
250.685
250.964
251.246
251.51
251.777
252.053
252.307
252.547
252.8
253.058
253.327
253.624
253.93
254.258
254.587
254.905
255.237
255.607
255.983
256.354
256.704
257.012
257.301
257.602
257.902
258.197
258.503
258.805
259.099
259.386
259.665
259.95
260.238
260.531
260.833
261.158
261.504
261.847
262.179
262.514
262.867
263.233
263.581
263.897
264.212
264.549
264.871
265.156
265.441
265.756
266.094
266.419
266.728
267.058
267.415
267.764
268.11
268.472
268.855
269.251
269.643
270.022
270.383
270.752
271.141
271.541
271.943
272.339
272.742
273.149
273.531
273.871
274.192
274.523
274.858
275.187
275.511
275.843
276.193
276.564
276.96
277.381
277.819
278.257
278.683
279.109
279.536
279.96
280.39
280.822
281.242
281.651
282.06
282.463
282.874
283.307
283.744
284.181
284.622
285.08
285.552
286.022
286.474
286.923
287.369
287.787
288.202
288.642
289.095
289.541
289.994
290.462
290.944
291.432
291.903
292.365
292.826
293.288
293.778
294.287
294.784
295.273
295.762
296.246
296.756
297.292
297.84
298.398
298.946
299.481
300.016
300.56
301.109
301.644
302.173
302.725
303.294
303.86
304.437
305.044
305.679
306.323
306.966
307.586
308.21
308.829
309.465
310.094
310.688
311.245
311.787
312.334
312.893
313.457
314.03
314.596
315.196
315.841
316.511
317.184
317.859
318.484
319.106
319.749
320.409
321.08
321.753
322.461
323.129
323.881
324.549
325.261
326.001
326.745
327.473
328.192
328.943
329.733
330.581
331.467
332.381
333.325
334.262
335.193
336.123
337.038
337.886
338.712
339.556
340.398
341.217
341.982
342.7
343.419
344.184
344.964
345.715
346.369
346.987
347.553
348.147
348.655
)
;

boundaryField
{
    sides
    {
        type            calculated;
        value           nonuniform List<scalar> 2(349.142 -16.6896);
    }
    empty
    {
        type            empty;
        value           nonuniform List<scalar> 0();
    }
}


// ************************************************************************* //
