/*--------------------------------*- C++ -*----------------------------------*\
  =========                 |
  \\      /  F ield         | OpenFOAM: The Open Source CFD Toolbox
   \\    /   O peration     | Website:  https://openfoam.org
    \\  /    A nd           | Version:  9
     \\/     M anipulation  |
\*---------------------------------------------------------------------------*/
FoamFile
{
    format      ascii;
    class       volScalarField;
    location    "0.036";
    object      T;
}
// * * * * * * * * * * * * * * * * * * * * * * * * * * * * * * * * * * * * * //

dimensions      [0 0 0 1 0 0 0];

internalField   nonuniform List<scalar> 
1000
(
200.79
200.785
200.78
200.777
200.775
200.772
200.77
200.767
200.765
200.762
200.76
200.757
200.755
200.753
200.751
200.748
200.746
200.744
200.742
200.74
200.737
200.734
200.731
200.728
200.725
200.722
200.719
200.716
200.713
200.71
200.707
200.703
200.698
200.692
200.686
200.679
200.672
200.664
200.656
200.647
200.639
200.63
200.622
200.613
200.604
200.595
200.586
200.577
200.569
200.56
200.551
200.542
200.533
200.524
200.516
200.506
200.499
200.488
200.481
200.47
200.464
200.452
200.446
200.434
200.428
200.417
200.41
200.4
200.391
200.384
200.373
200.366
200.356
200.347
200.34
200.329
200.322
200.313
200.302
200.296
200.285
200.276
200.269
200.258
200.25
200.243
200.232
200.224
200.217
200.205
200.197
200.19
200.179
200.17
200.164
200.153
200.143
200.137
200.127
200.116
200.111
200.101
200.09
200.083
200.076
200.064
200.056
200.05
200.039
200.028
200.022
200.014
200.002
199.994
199.988
199.977
199.966
199.961
199.953
199.941
199.932
199.927
199.917
199.905
199.898
199.892
199.881
199.87
199.865
199.857
199.845
199.836
199.83
199.822
199.81
199.801
199.796
199.786
199.775
199.767
199.761
199.751
199.74
199.733
199.727
199.716
199.705
199.699
199.692
199.682
199.671
199.664
199.658
199.648
199.637
199.629
199.624
199.614
199.602
199.595
199.59
199.581
199.569
199.56
199.555
199.548
199.536
199.526
199.52
199.514
199.504
199.493
199.485
199.48
199.472
199.46
199.45
199.445
199.44
199.429
199.418
199.411
199.406
199.399
199.387
199.377
199.371
199.366
199.356
199.345
199.338
199.334
199.327
199.316
199.306
199.3
199.295
199.285
199.273
199.264
199.26
199.255
199.246
199.235
199.229
199.226
199.221
199.211
199.2
199.192
199.186
199.179
199.168
199.157
199.15
199.147
199.141
199.133
199.125
199.12
199.118
199.114
199.106
199.097
199.091
199.086
199.078
199.066
199.054
199.046
199.039
199.033
199.033
199.034
199.036
199.043
199.056
199.056
199.06
199.064
199.06
199.062
199.07
199.068
199.062
199.07
199.073
199.066
199.07
199.079
199.071
199.067
199.081
199.082
199.072
199.079
199.089
199.078
199.076
199.097
199.095
199.076
199.089
199.103
199.087
199.082
199.108
199.108
199.082
199.093
199.123
199.099
199.078
199.133
199.141
199.08
199.092
199.155
199.133
199.075
199.119
199.186
199.127
199.056
199.162
199.224
199.09
199.073
199.259
199.233
199.047
199.116
199.32
199.236
199.026
199.124
199.389
199.282
199.026
199.167
199.439
199.27
199.042
199.268
199.488
199.244
199.053
199.346
199.561
199.29
199.058
199.312
199.619
199.435
199.132
199.293
199.64
199.502
199.184
199.335
199.681
199.544
199.211
199.335
199.739
199.674
199.267
199.223
199.701
199.845
199.476
199.272
199.584
199.863
199.621
199.337
199.566
199.913
199.733
199.371
199.446
199.956
200.011
199.551
199.364
199.641
200.069
200.011
199.547
199.429
199.883
200.193
199.999
199.584
199.519
200.025
200.228
199.906
199.642
199.896
200.272
200.124
199.744
199.763
200.312
200.425
200.011
199.787
199.994
200.525
200.647
200.234
199.962
199.859
200.342
200.691
200.585
200.178
200.151
200.656
200.781
200.456
200.291
200.691
200.941
200.72
200.46
200.65
201.073
201.056
200.756
200.749
201.115
201.169
200.979
200.947
201.271
201.336
201.153
201.126
201.514
201.572
201.307
201.285
201.711
201.771
201.463
201.303
201.395
202.006
202.144
201.836
201.546
201.639
202.107
202.163
201.828
201.713
202.128
202.328
202.064
201.824
202.137
202.581
202.701
202.343
202.104
202.028
201.958
202.571
202.886
202.828
202.389
202.257
202.581
203.014
203.008
202.67
202.586
202.999
203.189
203.102
202.884
202.857
203.271
203.399
203.454
203.509
203.555
203.598
203.641
203.694
203.756
203.822
203.885
203.94
203.992
204.046
204.101
204.157
204.215
204.274
204.332
204.394
204.464
204.543
204.629
204.725
204.822
204.545
204.303
204.251
204.297
204.587
204.625
204.667
204.752
204.845
204.942
205.006
205.016
205.037
205.065
205.081
205.056
205.091
205.231
205.251
205.222
205.313
205.423
205.435
205.401
205.521
205.605
205.616
205.573
205.646
205.753
205.775
205.773
205.72
205.826
205.967
206.016
206.046
205.976
205.928
206.237
206.358
206.415
206.462
206.516
206.565
206.611
206.647
206.69
206.732
206.779
206.826
206.878
206.936
206.994
207.051
207.116
207.182
207.247
207.31
207.372
207.431
207.494
207.548
207.593
207.635
207.665
207.691
207.706
207.721
207.741
207.761
207.788
207.823
207.864
207.911
207.957
208.008
208.061
208.121
208.179
208.228
208.277
208.324
208.362
208.391
208.421
208.454
208.488
208.526
208.572
208.623
208.674
208.722
208.779
208.833
208.883
208.932
208.981
209.028
209.088
209.143
209.205
209.269
209.336
209.405
209.479
209.549
209.617
209.686
209.753
209.826
209.897
209.961
210.018
210.075
210.123
210.167
210.207
210.238
210.256
210.263
210.269
210.274
210.283
210.301
210.326
210.36
210.399
210.445
210.503
210.555
210.616
210.672
210.73
210.793
210.851
210.905
210.95
210.986
211.011
211.039
211.073
211.109
211.152
211.195
211.247
211.304
211.355
211.425
211.486
211.547
211.603
211.642
211.687
211.72
211.758
211.808
211.859
211.914
211.971
212.031
212.101
212.172
212.251
212.325
212.389
212.453
212.502
212.549
212.594
212.646
212.687
212.721
212.758
212.808
212.862
212.932
213.005
213.082
213.158
213.231
213.287
213.336
213.388
213.431
213.479
213.51
213.552
213.598
213.652
213.712
213.785
213.869
213.95
214.027
214.109
214.183
214.255
214.325
214.381
214.432
214.47
214.494
214.512
214.527
214.547
214.574
214.618
214.666
214.73
214.808
214.901
214.997
215.093
215.191
215.287
215.375
215.471
215.569
215.65
215.741
215.82
215.892
215.965
216.047
216.113
216.188
216.257
216.31
216.353
216.404
216.436
216.455
216.475
216.505
216.539
216.581
216.643
216.713
216.823
216.91
217.041
217.151
217.266
217.383
217.47
217.579
217.683
217.787
217.889
218.007
218.104
218.23
218.318
218.439
218.526
218.632
218.725
218.827
218.938
219.061
219.176
219.28
219.406
219.51
219.614
219.696
219.789
219.887
219.997
220.1
220.229
220.333
220.478
220.589
220.71
220.825
220.926
221.046
221.164
221.267
221.387
221.483
221.618
221.731
221.861
221.981
222.117
222.239
222.374
222.493
222.594
222.727
222.833
222.955
223.05
223.152
223.273
223.413
223.539
223.67
223.825
224.022
224.217
224.375
224.514
224.605
224.714
224.821
224.929
225.052
225.154
225.281
225.398
225.484
225.605
225.713
225.808
225.916
226.047
226.17
226.313
226.427
226.553
226.711
226.794
226.898
227.046
227.168
227.285
227.397
227.514
227.659
227.77
227.891
228.041
228.179
228.291
228.428
228.538
228.643
228.741
228.834
228.923
229.032
229.118
229.188
229.255
229.32
229.41
229.533
229.65
229.756
229.874
229.991
230.093
230.213
230.33
230.458
230.586
230.701
230.829
230.945
231.061
231.151
231.248
231.346
231.449
231.538
231.614
231.702
231.809
231.935
232.033
232.116
232.243
232.392
232.523
232.62
232.711
232.828
232.948
233.032
233.112
233.218
233.313
233.4
233.472
233.55
233.634
233.727
233.832
233.911
233.982
234.048
234.136
234.233
234.302
234.373
234.471
234.599
234.714
234.819
234.928
235.048
235.167
235.281
235.382
235.474
235.554
235.624
235.688
235.761
235.841
235.916
235.995
236.074
236.142
236.211
236.29
236.372
236.453
236.544
236.614
236.68
236.75
236.827
236.898
236.954
237.006
237.065
237.142
237.201
237.28
237.379
237.465
237.53
237.603
237.689
237.764
237.832
237.881
237.935
238.012
238.082
238.164
238.243
238.297
238.35
238.417
238.468
238.529
238.59
238.62
238.654
238.686
238.721
238.779
238.835
238.886
238.92
238.958
239.012
239.075
239.117
239.168
239.225
239.267
239.288
239.297
239.311
239.341
239.382
239.428
239.467
239.488
239.519
239.568
239.62
239.661
239.682
239.705
239.726
239.773
239.831
239.871
239.876
239.871
239.869
239.877
239.901
239.922
239.928
239.93
239.936
239.946
239.973
240.034
240.122
240.175
240.22
240.233
240.245
240.275
240.312
240.345
240.38
240.397
240.402
240.398
240.388
240.393
240.412
240.455
240.533
240.609
240.677
240.746
240.824
240.914
241.007
241.086
241.146
241.178
241.203
241.235
241.276
241.306
241.36
241.37
241.4
)
;

boundaryField
{
    sides
    {
        type            zeroGradient;
    }
    empty
    {
        type            empty;
    }
}


// ************************************************************************* //
