/*--------------------------------*- C++ -*----------------------------------*\
  =========                 |
  \\      /  F ield         | OpenFOAM: The Open Source CFD Toolbox
   \\    /   O peration     | Website:  https://openfoam.org
    \\  /    A nd           | Version:  9
     \\/     M anipulation  |
\*---------------------------------------------------------------------------*/
FoamFile
{
    format      ascii;
    class       volScalarField;
    location    "0.037";
    object      p;
}
// * * * * * * * * * * * * * * * * * * * * * * * * * * * * * * * * * * * * * //

dimensions      [1 -1 -2 0 0 0 0];

internalField   nonuniform List<scalar> 
100
(
47361.6
46667.4
46250
45805.6
45372.6
44941.3
44513.9
44089.9
43669.2
43252
42838.1
42427.5
42020.3
41616.4
41215.8
40818.4
40424.4
40033.6
39646
39261.6
38880.5
38502.5
38127.8
37756.2
37387.7
37022.4
36660.2
36301.2
35945.2
35592.4
35242.6
34896
34552.4
34212
33874.9
33541
33210.9
32885.3
32566.1
32256.9
31964.6
31698.4
31474
31303.2
31192.6
31128.9
31091.2
31061.8
31028.5
30993.6
30969.3
30955.7
30950
30946.8
30943.4
30937.2
30926.7
30915.6
30906.2
30901.3
30899.6
30899.3
30898.4
30891.7
30880.7
30869
30858.5
30851.2
30847.2
30845.3
30843.2
30836.8
30827.3
30816.6
30806.1
30797.4
30791.2
30788.3
30787
30784.7
30780
30772.2
30757
30734.9
30720.4
30728
30839.5
31195.4
31472.9
31574
31631.4
31734
31986.3
32216.9
32301.7
32303.8
32304.5
32304.9
32304.9
32300.8
)
;

boundaryField
{
    sides
    {
        type            zeroGradient;
    }
    empty
    {
        type            empty;
    }
}


// ************************************************************************* //
