/*--------------------------------*- C++ -*----------------------------------*\
  =========                 |
  \\      /  F ield         | OpenFOAM: The Open Source CFD Toolbox
   \\    /   O peration     | Website:  https://openfoam.org
    \\  /    A nd           | Version:  9
     \\/     M anipulation  |
\*---------------------------------------------------------------------------*/
FoamFile
{
    format      ascii;
    class       volScalarField;
    location    "0.007";
    object      mag(U);
}
// * * * * * * * * * * * * * * * * * * * * * * * * * * * * * * * * * * * * * //

dimensions      [0 1 -1 0 0 0 0];

internalField   nonuniform List<scalar> 
1000
(
9.41403e-13
9.65322e-13
9.04822e-13
7.96254e-13
7.88734e-13
8.65287e-13
8.43865e-13
7.09483e-13
6.59049e-13
6.31455e-13
5.6548e-13
6.65055e-13
7.60242e-13
6.36489e-13
5.89807e-13
5.9714e-13
6.21751e-13
6.01157e-13
6.39756e-13
5.954e-13
5.56707e-13
4.99536e-13
5.91418e-13
6.32326e-13
5.99932e-13
5.65831e-13
5.49416e-13
5.69383e-13
5.29298e-13
5.21026e-13
5.57055e-13
6.15299e-13
5.53937e-13
5.27466e-13
5.40638e-13
4.93932e-13
4.27723e-13
4.38998e-13
3.89518e-13
3.34173e-13
3.66026e-13
3.4275e-13
3.07056e-13
2.64203e-13
2.60303e-13
3.04554e-13
3.89137e-13
3.06108e-13
3.30925e-13
3.70778e-13
3.84201e-13
4.00467e-13
3.54178e-13
2.73019e-13
3.1507e-13
3.50696e-13
3.01435e-13
3.30317e-13
3.87128e-13
3.58746e-13
3.34883e-13
2.77724e-13
2.98429e-13
2.49444e-13
2.10768e-13
1.94005e-13
1.9509e-13
2.15974e-13
2.63723e-13
2.77023e-13
2.385e-13
2.31319e-13
2.07019e-13
2.56808e-13
2.55737e-13
2.61005e-13
2.93367e-13
2.48199e-13
2.48731e-13
2.72623e-13
3.16274e-13
3.25731e-13
3.56275e-13
4.04173e-13
3.75025e-13
3.5892e-13
3.03366e-13
2.72327e-13
2.65033e-13
2.20161e-13
1.68252e-13
2.1906e-13
2.83556e-13
2.38173e-13
2.20702e-13
2.32582e-13
2.7272e-13
2.12167e-13
1.62879e-13
1.65476e-13
1.70248e-13
1.44146e-13
1.44549e-13
1.79814e-13
2.09179e-13
2.55299e-13
1.7701e-13
1.74386e-13
1.97322e-13
2.19222e-13
1.75364e-13
1.82427e-13
1.05539e-13
1.35203e-13
1.94352e-13
1.99954e-13
2.02978e-13
8.37636e-14
8.52716e-14
1.19978e-13
6.69955e-14
3.96179e-14
1.69945e-14
2.46234e-14
2.74367e-14
2.6263e-15
3.76383e-15
5.83762e-14
3.31544e-15
5.43692e-14
8.07407e-14
1.01492e-13
8.78928e-14
7.68845e-14
4.16603e-14
9.49797e-15
3.07938e-14
2.67117e-14
1.80851e-14
6.91253e-14
2.52746e-14
1.04418e-13
6.04554e-14
2.42577e-15
4.65812e-14
6.75413e-14
7.47517e-14
2.4964e-14
1.29961e-15
5.85127e-14
6.8402e-14
6.69853e-14
3.57356e-14
9.70088e-14
8.26041e-14
1.7342e-14
6.54549e-15
5.35483e-14
7.73909e-14
8.46147e-14
5.89385e-14
3.39577e-14
3.73799e-14
2.11871e-14
1.71419e-13
1.84264e-13
2.12657e-13
2.00805e-13
2.59148e-13
2.60022e-13
2.83734e-13
2.59479e-13
2.32469e-13
2.28659e-13
1.88653e-13
1.92479e-13
1.15576e-13
7.9201e-14
2.22242e-14
1.23402e-13
1.1425e-13
6.76817e-16
9.72516e-14
2.00194e-13
3.06867e-13
3.46763e-13
4.79143e-13
5.73008e-13
6.26578e-13
5.61624e-13
4.90714e-13
3.7119e-13
4.32187e-13
4.83773e-13
5.01929e-13
4.42087e-13
3.87996e-13
3.74415e-13
3.41066e-13
2.96199e-13
3.04888e-13
3.16162e-13
3.76116e-13
4.5505e-13
4.20612e-13
4.7061e-13
4.16288e-13
4.55812e-13
4.1528e-13
2.40886e-13
6.12207e-14
3.0986e-14
1.95082e-14
1.71428e-14
8.23181e-14
5.98083e-14
1.05632e-13
7.04802e-14
2.52716e-13
8.96237e-13
2.42008e-12
6.9826e-12
1.96507e-11
5.54841e-11
1.53243e-10
4.14043e-10
1.10381e-09
2.92531e-09
7.72256e-09
2.03306e-08
5.34388e-08
1.40358e-07
3.68719e-07
9.69751e-07
2.55595e-06
6.75739e-06
1.7936e-05
4.78342e-05
0.000128267
0.000345997
0.000939188
0.00256573
0.00705381
0.0195124
0.054295
0.151944
0.427722
1.21229
3.49416
8.54093
13.4273
16.5964
18.7458
20.3628
21.6952
22.8756
23.9796
25.0536
26.1259
27.2131
28.3227
29.4557
30.6087
31.7766
32.9541
34.1373
35.3233
36.5105
37.698
38.8854
40.0726
41.2594
42.446
43.6321
44.818
46.0035
47.1886
48.3735
49.5579
50.7421
51.926
53.1095
54.2927
55.4756
56.6582
57.8406
59.0226
60.2044
61.386
62.5673
63.7483
64.9291
66.1098
67.2902
68.4704
69.6504
70.8303
72.01
73.1895
74.3688
75.5481
76.7271
77.9061
79.0849
80.2635
81.4421
82.6205
83.7988
84.9771
86.1552
87.3332
88.5111
89.689
90.8667
92.0444
93.222
94.3995
95.577
96.7544
97.9317
99.1089
100.286
101.463
102.64
103.817
104.994
106.171
107.348
108.525
109.702
110.879
112.056
113.232
114.409
115.586
116.762
117.939
119.116
120.292
121.469
122.645
123.822
124.999
126.175
127.352
128.528
129.705
130.881
132.058
133.234
134.411
135.588
136.764
137.941
139.117
140.294
141.47
142.647
143.824
145
146.177
147.354
148.53
149.707
150.884
152.061
153.237
154.414
155.591
156.768
157.945
159.122
160.299
161.476
162.653
163.83
165.007
166.184
167.361
168.538
169.715
170.892
172.07
173.247
174.424
175.602
176.779
177.956
179.134
180.311
181.489
182.666
183.844
185.022
186.199
187.377
188.555
189.733
190.91
192.088
193.266
194.444
195.622
196.8
197.978
199.156
200.335
201.513
202.691
203.869
205.047
206.226
207.404
208.582
209.761
210.939
212.118
213.296
214.475
215.653
216.832
218.01
219.189
220.368
221.546
222.725
223.904
225.082
226.261
227.44
228.618
229.797
230.976
232.154
233.333
234.512
235.69
236.869
238.047
239.226
240.405
241.583
242.762
243.94
245.118
246.297
247.475
248.653
249.831
251.009
252.187
253.365
254.543
255.721
256.898
258.076
259.253
260.43
261.607
262.784
263.961
265.138
266.314
267.49
268.667
269.842
271.018
272.193
273.369
274.543
275.717
276.891
278.064
279.236
280.407
281.577
282.743
283.906
285.063
286.208
287.334
288.424
289.458
290.403
291.227
291.904
292.428
292.814
293.095
293.299
293.45
293.554
293.619
293.652
293.665
293.669
293.67
293.669
293.669
293.67
293.669
293.661
293.625
293.557
293.503
293.475
293.463
293.459
293.456
293.451
293.431
293.381
293.333
293.304
293.29
293.284
293.279
293.272
293.255
293.208
293.14
293.091
293.07
293.063
293.065
293.084
293.132
293.179
293.22
293.263
293.315
293.366
293.402
293.418
293.423
293.42
293.41
293.404
293.405
293.418
293.437
293.445
293.445
293.426
293.387
293.363
293.354
293.353
293.354
293.354
293.347
293.313
293.269
293.244
293.234
293.229
293.225
293.216
293.184
293.145
293.127
293.125
293.141
293.21
293.282
293.316
293.329
293.331
293.328
293.327
293.333
293.363
293.391
293.403
293.405
293.39
293.37
293.362
293.363
293.379
293.395
293.399
293.393
293.357
293.32
293.305
293.302
293.308
293.318
293.319
293.309
293.266
293.224
293.204
293.198
293.197
293.199
293.198
293.194
293.19
293.192
293.209
293.267
293.329
293.361
293.369
293.367
293.346
293.332
293.33
293.347
293.385
293.407
293.41
293.399
293.367
293.35
293.347
293.36
293.383
293.393
293.391
293.359
293.31
293.287
293.283
293.292
293.312
293.32
293.318
293.28
293.221
293.191
293.183
293.186
293.21
293.234
293.242
293.241
293.237
293.24
293.271
293.329
293.365
293.38
293.38
293.349
293.323
293.319
293.334
293.375
293.404
293.412
293.401
293.353
293.326
293.325
293.339
293.369
293.386
293.388
293.355
293.292
293.262
293.261
293.281
293.314
293.332
293.332
293.28
293.204
293.17
293.168
293.183
293.232
293.283
293.302
293.29
293.259
293.261
293.292
293.325
293.367
293.401
293.397
293.333
293.289
293.289
293.319
293.361
293.401
293.442
293.422
293.336
293.298
293.305
293.317
293.334
293.372
293.4
293.335
293.271
293.284
293.386
293.696
294.647
290.074
288.582
293.705
297.529
298.86
297.017
291.189
289.688
289.648
289.783
290.32
292.317
296.232
297.433
297.234
296.306
293.015
290.278
289.815
289.799
290.365
293.342
296.412
296.9
296.951
296.138
292.573
290.163
289.9
290.105
290.872
293.84
296.168
296.529
296.421
295.721
292.738
290.569
290.256
290.301
291.049
294.124
295.932
296.2
296.194
295.393
292.293
290.604
290.445
290.582
291.393
294.167
295.634
295.833
295.66
294.918
292.28
290.936
290.83
290.938
291.752
294.362
295.444
295.636
295.575
294.678
292.024
291.133
291.073
291.198
292.049
294.491
295.425
295.497
295.294
294.456
292.179
291.428
291.365
291.478
292.265
294.426
295.157
295.268
295.152
294.227
292.105
291.582
291.511
291.626
292.475
294.456
295.029
295.031
294.839
293.935
292.156
291.713
291.662
291.801
292.568
294.279
294.736
294.791
294.67
293.764
292.173
291.846
291.791
291.93
292.812
294.398
294.73
294.729
294.559
293.685
292.313
292.002
292.009
292.176
292.934
294.283
294.562
294.572
294.446
293.635
292.42
292.175
292.125
292.259
293.079
294.272
294.461
294.461
294.321
293.556
292.432
292.201
292.229
292.388
293.103
294.117
294.288
294.287
294.163
293.464
292.479
292.282
292.254
292.387
293.136
294.02
294.169
294.204
294.09
293.417
292.539
292.399
292.422
292.567
293.237
293.99
294.124
294.118
294.006
293.438
292.669
292.529
292.525
292.638
293.254
293.95
294.085
294.111
293.99
293.322
292.74
292.688
292.679
292.485
289.523
258.416
96.1264
7.36944
0.497924
0.0329837
0.00218037
0.000144061
9.51419e-06
6.28187e-07
4.1473e-08
2.73841e-09
1.81055e-10
1.21368e-11
1.09432e-12
3.41141e-13
2.96861e-13
3.55675e-13
4.59059e-13
4.83331e-13
4.49487e-13
5.34866e-13
4.97209e-13
5.10222e-13
5.435e-13
4.53137e-13
4.3272e-13
5.45923e-13
5.96757e-13
5.07102e-13
2.89118e-13
1.84235e-13
1.98763e-13
1.64292e-13
9.08994e-14
9.12758e-14
1.91142e-13
1.79107e-13
1.73294e-13
8.38645e-14
2.16339e-14
7.06136e-14
1.58779e-14
4.33648e-14
6.19538e-14
2.85217e-14
9.72882e-14
1.82464e-13
1.60246e-13
1.83339e-13
1.08668e-13
4.66534e-14
4.1194e-14
8.6654e-15
6.74666e-14
1.55633e-13
2.48959e-13
2.63571e-13
2.22471e-13
2.48093e-13
2.96286e-13
2.97851e-13
1.46222e-13
8.18015e-14
2.60615e-14
2.02643e-14
9.54455e-14
1.38982e-13
2.55231e-14
4.56129e-14
2.14548e-14
1.48605e-14
5.08535e-14
8.21534e-14
1.47318e-13
2.61891e-13
1.9956e-13
1.15513e-13
9.15287e-14
3.24723e-14
8.53319e-14
4.18122e-14
8.17396e-14
1.72236e-13
2.14455e-13
2.63412e-13
2.72771e-13
1.96692e-13
1.01759e-13
8.5597e-14
1.53458e-13
1.3674e-13
3.65628e-14
1.74096e-13
2.87227e-13
3.12922e-13
3.31381e-13
2.5045e-13
1.7055e-13
2.28725e-13
2.20414e-13
1.67206e-13
1.43442e-13
2.46677e-13
3.68577e-13
4.80662e-13
5.45082e-13
5.71726e-13
5.04976e-13
5.04139e-13
4.57727e-13
4.31262e-13
4.32743e-13
3.73296e-13
)
;

boundaryField
{
    sides
    {
        type            calculated;
        value           nonuniform List<scalar> 2(3.73296e-13 9.41403e-13);
    }
    empty
    {
        type            empty;
    }
}


// ************************************************************************* //
