/*--------------------------------*- C++ -*----------------------------------*\
  =========                 |
  \\      /  F ield         | OpenFOAM: The Open Source CFD Toolbox
   \\    /   O peration     | Website:  https://openfoam.org
    \\  /    A nd           | Version:  9
     \\/     M anipulation  |
\*---------------------------------------------------------------------------*/
FoamFile
{
    format      ascii;
    class       volVectorField;
    location    "0.007";
    object      U;
}
// * * * * * * * * * * * * * * * * * * * * * * * * * * * * * * * * * * * * * //

dimensions      [0 1 -1 0 0 0 0];

internalField   nonuniform List<vector> 
1000
(
(-9.41403e-13 0 0)
(-9.65322e-13 0 0)
(-9.04822e-13 0 0)
(-7.96254e-13 0 0)
(-7.88734e-13 0 0)
(-8.65287e-13 0 0)
(-8.43865e-13 0 0)
(-7.09483e-13 0 0)
(-6.59049e-13 0 0)
(-6.31455e-13 0 0)
(-5.6548e-13 0 0)
(-6.65055e-13 0 0)
(-7.60242e-13 0 0)
(-6.36489e-13 0 0)
(-5.89807e-13 0 0)
(-5.9714e-13 0 0)
(-6.21751e-13 0 0)
(-6.01157e-13 0 0)
(-6.39756e-13 0 0)
(-5.954e-13 0 0)
(-5.56707e-13 0 0)
(-4.99536e-13 0 0)
(-5.91418e-13 0 0)
(-6.32326e-13 0 0)
(-5.99932e-13 0 0)
(-5.65831e-13 0 0)
(-5.49416e-13 0 0)
(-5.69383e-13 0 0)
(-5.29298e-13 0 0)
(-5.21026e-13 0 0)
(-5.57055e-13 0 0)
(-6.15299e-13 0 0)
(-5.53937e-13 0 0)
(-5.27466e-13 0 0)
(-5.40638e-13 0 0)
(-4.93932e-13 0 0)
(-4.27723e-13 0 0)
(-4.38998e-13 0 0)
(-3.89518e-13 0 0)
(-3.34173e-13 0 0)
(-3.66026e-13 0 0)
(-3.4275e-13 0 0)
(-3.07056e-13 0 0)
(-2.64203e-13 0 0)
(-2.60303e-13 0 0)
(-3.04554e-13 0 0)
(-3.89137e-13 0 0)
(-3.06108e-13 0 0)
(-3.30925e-13 0 0)
(-3.70778e-13 0 0)
(-3.84201e-13 0 0)
(-4.00467e-13 0 0)
(-3.54178e-13 0 0)
(-2.73019e-13 0 0)
(-3.1507e-13 0 0)
(-3.50696e-13 0 0)
(-3.01435e-13 0 0)
(-3.30317e-13 0 0)
(-3.87128e-13 0 0)
(-3.58746e-13 0 0)
(-3.34883e-13 0 0)
(-2.77724e-13 0 0)
(-2.98429e-13 0 0)
(-2.49444e-13 0 0)
(-2.10768e-13 0 0)
(-1.94005e-13 0 0)
(-1.9509e-13 0 0)
(-2.15974e-13 0 0)
(-2.63723e-13 0 0)
(-2.77023e-13 0 0)
(-2.385e-13 0 0)
(-2.31319e-13 0 0)
(-2.07019e-13 0 0)
(-2.56808e-13 0 0)
(-2.55737e-13 0 0)
(-2.61005e-13 0 0)
(-2.93367e-13 0 0)
(-2.48199e-13 0 0)
(-2.48731e-13 0 0)
(-2.72623e-13 0 0)
(-3.16274e-13 0 0)
(-3.25731e-13 0 0)
(-3.56275e-13 0 0)
(-4.04173e-13 0 0)
(-3.75025e-13 0 0)
(-3.5892e-13 0 0)
(-3.03366e-13 0 0)
(-2.72327e-13 0 0)
(-2.65033e-13 0 0)
(-2.20161e-13 0 0)
(-1.68252e-13 0 0)
(-2.1906e-13 0 0)
(-2.83556e-13 0 0)
(-2.38173e-13 0 0)
(-2.20702e-13 0 0)
(-2.32582e-13 0 0)
(-2.7272e-13 0 0)
(-2.12167e-13 0 0)
(-1.62879e-13 0 0)
(-1.65476e-13 0 0)
(-1.70248e-13 0 0)
(-1.44146e-13 0 0)
(-1.44549e-13 0 0)
(-1.79814e-13 0 0)
(-2.09179e-13 0 0)
(-2.55299e-13 0 0)
(-1.7701e-13 0 0)
(-1.74386e-13 0 0)
(-1.97322e-13 0 0)
(-2.19222e-13 0 0)
(-1.75364e-13 0 0)
(-1.82427e-13 0 0)
(-1.05539e-13 0 0)
(-1.35203e-13 0 0)
(-1.94352e-13 0 0)
(-1.99954e-13 0 0)
(-2.02978e-13 0 0)
(-8.37636e-14 0 0)
(-8.52716e-14 0 0)
(-1.19978e-13 0 0)
(-6.69955e-14 0 0)
(-3.96179e-14 0 0)
(-1.69945e-14 0 0)
(2.46234e-14 0 0)
(-2.74367e-14 0 0)
(2.6263e-15 0 0)
(-3.76383e-15 0 0)
(5.83762e-14 0 0)
(-3.31544e-15 0 0)
(-5.43692e-14 0 0)
(-8.07407e-14 0 0)
(-1.01492e-13 0 0)
(-8.78928e-14 0 0)
(-7.68845e-14 0 0)
(-4.16603e-14 0 0)
(9.49797e-15 0 0)
(-3.07938e-14 0 0)
(-2.67117e-14 0 0)
(-1.80851e-14 0 0)
(-6.91253e-14 0 0)
(-2.52746e-14 0 0)
(-1.04418e-13 0 0)
(-6.04554e-14 0 0)
(-2.42577e-15 0 0)
(-4.65812e-14 0 0)
(-6.75413e-14 0 0)
(-7.47517e-14 0 0)
(-2.4964e-14 0 0)
(1.29961e-15 0 0)
(-5.85127e-14 0 0)
(-6.8402e-14 0 0)
(-6.69853e-14 0 0)
(-3.57356e-14 0 0)
(-9.70088e-14 0 0)
(-8.26041e-14 0 0)
(-1.7342e-14 0 0)
(-6.54549e-15 0 0)
(-5.35483e-14 0 0)
(-7.73909e-14 0 0)
(-8.46147e-14 0 0)
(-5.89385e-14 0 0)
(-3.39577e-14 0 0)
(-3.73799e-14 0 0)
(-2.11871e-14 0 0)
(-1.71419e-13 0 0)
(-1.84264e-13 0 0)
(-2.12657e-13 0 0)
(-2.00805e-13 0 0)
(-2.59148e-13 0 0)
(-2.60022e-13 0 0)
(-2.83734e-13 0 0)
(-2.59479e-13 0 0)
(-2.32469e-13 0 0)
(-2.28659e-13 0 0)
(-1.88653e-13 0 0)
(-1.92479e-13 0 0)
(-1.15576e-13 0 0)
(-7.9201e-14 0 0)
(-2.22242e-14 0 0)
(1.23402e-13 0 0)
(1.1425e-13 0 0)
(6.76817e-16 0 0)
(-9.72516e-14 0 0)
(-2.00194e-13 0 0)
(-3.06867e-13 0 0)
(-3.46763e-13 0 0)
(-4.79143e-13 0 0)
(-5.73008e-13 0 0)
(-6.26578e-13 0 0)
(-5.61624e-13 0 0)
(-4.90714e-13 0 0)
(-3.7119e-13 0 0)
(-4.32187e-13 0 0)
(-4.83773e-13 0 0)
(-5.01929e-13 0 0)
(-4.42087e-13 0 0)
(-3.87996e-13 0 0)
(-3.74415e-13 0 0)
(-3.41066e-13 0 0)
(-2.96199e-13 0 0)
(-3.04888e-13 0 0)
(-3.16162e-13 0 0)
(-3.76116e-13 0 0)
(-4.5505e-13 0 0)
(-4.20612e-13 0 0)
(-4.7061e-13 0 0)
(-4.16288e-13 0 0)
(-4.55812e-13 0 0)
(-4.1528e-13 0 0)
(-2.40886e-13 0 0)
(-6.12207e-14 0 0)
(3.0986e-14 0 0)
(-1.95082e-14 0 0)
(1.71428e-14 0 0)
(8.23181e-14 0 0)
(5.98083e-14 0 0)
(1.05632e-13 0 0)
(7.04802e-14 0 0)
(2.52716e-13 0 0)
(8.96237e-13 0 0)
(2.42008e-12 0 0)
(6.9826e-12 0 0)
(1.96507e-11 0 0)
(5.54841e-11 0 0)
(1.53243e-10 0 0)
(4.14043e-10 0 0)
(1.10381e-09 0 0)
(2.92531e-09 0 0)
(7.72256e-09 0 0)
(2.03306e-08 0 0)
(5.34388e-08 0 0)
(1.40358e-07 0 0)
(3.68719e-07 0 0)
(9.69751e-07 0 0)
(2.55595e-06 0 0)
(6.75739e-06 0 0)
(1.7936e-05 0 0)
(4.78342e-05 0 0)
(0.000128267 0 0)
(0.000345997 0 0)
(0.000939188 0 0)
(0.00256573 0 0)
(0.00705381 0 0)
(0.0195124 0 0)
(0.054295 0 0)
(0.151944 0 0)
(0.427722 0 0)
(1.21229 0 0)
(3.49416 0 0)
(8.54093 0 0)
(13.4273 0 0)
(16.5964 0 0)
(18.7458 0 0)
(20.3628 0 0)
(21.6952 0 0)
(22.8756 0 0)
(23.9796 0 0)
(25.0536 0 0)
(26.1259 0 0)
(27.2131 0 0)
(28.3227 0 0)
(29.4557 0 0)
(30.6087 0 0)
(31.7766 0 0)
(32.9541 0 0)
(34.1373 0 0)
(35.3233 0 0)
(36.5105 0 0)
(37.698 0 0)
(38.8854 0 0)
(40.0726 0 0)
(41.2594 0 0)
(42.446 0 0)
(43.6321 0 0)
(44.818 0 0)
(46.0035 0 0)
(47.1886 0 0)
(48.3735 0 0)
(49.5579 0 0)
(50.7421 0 0)
(51.926 0 0)
(53.1095 0 0)
(54.2927 0 0)
(55.4756 0 0)
(56.6582 0 0)
(57.8406 0 0)
(59.0226 0 0)
(60.2044 0 0)
(61.386 0 0)
(62.5673 0 0)
(63.7483 0 0)
(64.9291 0 0)
(66.1098 0 0)
(67.2902 0 0)
(68.4704 0 0)
(69.6504 0 0)
(70.8303 0 0)
(72.01 0 0)
(73.1895 0 0)
(74.3688 0 0)
(75.5481 0 0)
(76.7271 0 0)
(77.9061 0 0)
(79.0849 0 0)
(80.2635 0 0)
(81.4421 0 0)
(82.6205 0 0)
(83.7988 0 0)
(84.9771 0 0)
(86.1552 0 0)
(87.3332 0 0)
(88.5111 0 0)
(89.689 0 0)
(90.8667 0 0)
(92.0444 0 0)
(93.222 0 0)
(94.3995 0 0)
(95.577 0 0)
(96.7544 0 0)
(97.9317 0 0)
(99.1089 0 0)
(100.286 0 0)
(101.463 0 0)
(102.64 0 0)
(103.817 0 0)
(104.994 0 0)
(106.171 0 0)
(107.348 0 0)
(108.525 0 0)
(109.702 0 0)
(110.879 0 0)
(112.056 0 0)
(113.232 0 0)
(114.409 0 0)
(115.586 0 0)
(116.762 0 0)
(117.939 0 0)
(119.116 0 0)
(120.292 0 0)
(121.469 0 0)
(122.645 0 0)
(123.822 0 0)
(124.999 0 0)
(126.175 0 0)
(127.352 0 0)
(128.528 0 0)
(129.705 0 0)
(130.881 0 0)
(132.058 0 0)
(133.234 0 0)
(134.411 0 0)
(135.588 0 0)
(136.764 0 0)
(137.941 0 0)
(139.117 0 0)
(140.294 0 0)
(141.47 0 0)
(142.647 0 0)
(143.824 0 0)
(145 0 0)
(146.177 0 0)
(147.354 0 0)
(148.53 0 0)
(149.707 0 0)
(150.884 0 0)
(152.061 0 0)
(153.237 0 0)
(154.414 0 0)
(155.591 0 0)
(156.768 0 0)
(157.945 0 0)
(159.122 0 0)
(160.299 0 0)
(161.476 0 0)
(162.653 0 0)
(163.83 0 0)
(165.007 0 0)
(166.184 0 0)
(167.361 0 0)
(168.538 0 0)
(169.715 0 0)
(170.892 0 0)
(172.07 0 0)
(173.247 0 0)
(174.424 0 0)
(175.602 0 0)
(176.779 0 0)
(177.956 0 0)
(179.134 0 0)
(180.311 0 0)
(181.489 0 0)
(182.666 0 0)
(183.844 0 0)
(185.022 0 0)
(186.199 0 0)
(187.377 0 0)
(188.555 0 0)
(189.733 0 0)
(190.91 0 0)
(192.088 0 0)
(193.266 0 0)
(194.444 0 0)
(195.622 0 0)
(196.8 0 0)
(197.978 0 0)
(199.156 0 0)
(200.335 0 0)
(201.513 0 0)
(202.691 0 0)
(203.869 0 0)
(205.047 0 0)
(206.226 0 0)
(207.404 0 0)
(208.582 0 0)
(209.761 0 0)
(210.939 0 0)
(212.118 0 0)
(213.296 0 0)
(214.475 0 0)
(215.653 0 0)
(216.832 0 0)
(218.01 0 0)
(219.189 0 0)
(220.368 0 0)
(221.546 0 0)
(222.725 0 0)
(223.904 0 0)
(225.082 0 0)
(226.261 0 0)
(227.44 0 0)
(228.618 0 0)
(229.797 0 0)
(230.976 0 0)
(232.154 0 0)
(233.333 0 0)
(234.512 0 0)
(235.69 0 0)
(236.869 0 0)
(238.047 0 0)
(239.226 0 0)
(240.405 0 0)
(241.583 0 0)
(242.762 0 0)
(243.94 0 0)
(245.118 0 0)
(246.297 0 0)
(247.475 0 0)
(248.653 0 0)
(249.831 0 0)
(251.009 0 0)
(252.187 0 0)
(253.365 0 0)
(254.543 0 0)
(255.721 0 0)
(256.898 0 0)
(258.076 0 0)
(259.253 0 0)
(260.43 0 0)
(261.607 0 0)
(262.784 0 0)
(263.961 0 0)
(265.138 0 0)
(266.314 0 0)
(267.49 0 0)
(268.667 0 0)
(269.842 0 0)
(271.018 0 0)
(272.193 0 0)
(273.369 0 0)
(274.543 0 0)
(275.717 0 0)
(276.891 0 0)
(278.064 0 0)
(279.236 0 0)
(280.407 0 0)
(281.577 0 0)
(282.743 0 0)
(283.906 0 0)
(285.063 0 0)
(286.208 0 0)
(287.334 0 0)
(288.424 0 0)
(289.458 0 0)
(290.403 0 0)
(291.227 0 0)
(291.904 0 0)
(292.428 0 0)
(292.814 0 0)
(293.095 0 0)
(293.299 0 0)
(293.45 0 0)
(293.554 0 0)
(293.619 0 0)
(293.652 0 0)
(293.665 0 0)
(293.669 0 0)
(293.67 0 0)
(293.669 0 0)
(293.669 0 0)
(293.67 0 0)
(293.669 0 0)
(293.661 0 0)
(293.625 0 0)
(293.557 0 0)
(293.503 0 0)
(293.475 0 0)
(293.463 0 0)
(293.459 0 0)
(293.456 0 0)
(293.451 0 0)
(293.431 0 0)
(293.381 0 0)
(293.333 0 0)
(293.304 0 0)
(293.29 0 0)
(293.284 0 0)
(293.279 0 0)
(293.272 0 0)
(293.255 0 0)
(293.208 0 0)
(293.14 0 0)
(293.091 0 0)
(293.07 0 0)
(293.063 0 0)
(293.065 0 0)
(293.084 0 0)
(293.132 0 0)
(293.179 0 0)
(293.22 0 0)
(293.263 0 0)
(293.315 0 0)
(293.366 0 0)
(293.402 0 0)
(293.418 0 0)
(293.423 0 0)
(293.42 0 0)
(293.41 0 0)
(293.404 0 0)
(293.405 0 0)
(293.418 0 0)
(293.437 0 0)
(293.445 0 0)
(293.445 0 0)
(293.426 0 0)
(293.387 0 0)
(293.363 0 0)
(293.354 0 0)
(293.353 0 0)
(293.354 0 0)
(293.354 0 0)
(293.347 0 0)
(293.313 0 0)
(293.269 0 0)
(293.244 0 0)
(293.234 0 0)
(293.229 0 0)
(293.225 0 0)
(293.216 0 0)
(293.184 0 0)
(293.145 0 0)
(293.127 0 0)
(293.125 0 0)
(293.141 0 0)
(293.21 0 0)
(293.282 0 0)
(293.316 0 0)
(293.329 0 0)
(293.331 0 0)
(293.328 0 0)
(293.327 0 0)
(293.333 0 0)
(293.363 0 0)
(293.391 0 0)
(293.403 0 0)
(293.405 0 0)
(293.39 0 0)
(293.37 0 0)
(293.362 0 0)
(293.363 0 0)
(293.379 0 0)
(293.395 0 0)
(293.399 0 0)
(293.393 0 0)
(293.357 0 0)
(293.32 0 0)
(293.305 0 0)
(293.302 0 0)
(293.308 0 0)
(293.318 0 0)
(293.319 0 0)
(293.309 0 0)
(293.266 0 0)
(293.224 0 0)
(293.204 0 0)
(293.198 0 0)
(293.197 0 0)
(293.199 0 0)
(293.198 0 0)
(293.194 0 0)
(293.19 0 0)
(293.192 0 0)
(293.209 0 0)
(293.267 0 0)
(293.329 0 0)
(293.361 0 0)
(293.369 0 0)
(293.367 0 0)
(293.346 0 0)
(293.332 0 0)
(293.33 0 0)
(293.347 0 0)
(293.385 0 0)
(293.407 0 0)
(293.41 0 0)
(293.399 0 0)
(293.367 0 0)
(293.35 0 0)
(293.347 0 0)
(293.36 0 0)
(293.383 0 0)
(293.393 0 0)
(293.391 0 0)
(293.359 0 0)
(293.31 0 0)
(293.287 0 0)
(293.283 0 0)
(293.292 0 0)
(293.312 0 0)
(293.32 0 0)
(293.318 0 0)
(293.28 0 0)
(293.221 0 0)
(293.191 0 0)
(293.183 0 0)
(293.186 0 0)
(293.21 0 0)
(293.234 0 0)
(293.242 0 0)
(293.241 0 0)
(293.237 0 0)
(293.24 0 0)
(293.271 0 0)
(293.329 0 0)
(293.365 0 0)
(293.38 0 0)
(293.38 0 0)
(293.349 0 0)
(293.323 0 0)
(293.319 0 0)
(293.334 0 0)
(293.375 0 0)
(293.404 0 0)
(293.412 0 0)
(293.401 0 0)
(293.353 0 0)
(293.326 0 0)
(293.325 0 0)
(293.339 0 0)
(293.369 0 0)
(293.386 0 0)
(293.388 0 0)
(293.355 0 0)
(293.292 0 0)
(293.262 0 0)
(293.261 0 0)
(293.281 0 0)
(293.314 0 0)
(293.332 0 0)
(293.332 0 0)
(293.28 0 0)
(293.204 0 0)
(293.17 0 0)
(293.168 0 0)
(293.183 0 0)
(293.232 0 0)
(293.283 0 0)
(293.302 0 0)
(293.29 0 0)
(293.259 0 0)
(293.261 0 0)
(293.292 0 0)
(293.325 0 0)
(293.367 0 0)
(293.401 0 0)
(293.397 0 0)
(293.333 0 0)
(293.289 0 0)
(293.289 0 0)
(293.319 0 0)
(293.361 0 0)
(293.401 0 0)
(293.442 0 0)
(293.422 0 0)
(293.336 0 0)
(293.298 0 0)
(293.305 0 0)
(293.317 0 0)
(293.334 0 0)
(293.372 0 0)
(293.4 0 0)
(293.335 0 0)
(293.271 0 0)
(293.284 0 0)
(293.386 0 0)
(293.696 0 0)
(294.647 0 0)
(290.074 0 0)
(288.582 0 0)
(293.705 0 0)
(297.529 0 0)
(298.86 0 0)
(297.017 0 0)
(291.189 0 0)
(289.688 0 0)
(289.648 0 0)
(289.783 0 0)
(290.32 0 0)
(292.317 0 0)
(296.232 0 0)
(297.433 0 0)
(297.234 0 0)
(296.306 0 0)
(293.015 0 0)
(290.278 0 0)
(289.815 0 0)
(289.799 0 0)
(290.365 0 0)
(293.342 0 0)
(296.412 0 0)
(296.9 0 0)
(296.951 0 0)
(296.138 0 0)
(292.573 0 0)
(290.163 0 0)
(289.9 0 0)
(290.105 0 0)
(290.872 0 0)
(293.84 0 0)
(296.168 0 0)
(296.529 0 0)
(296.421 0 0)
(295.721 0 0)
(292.738 0 0)
(290.569 0 0)
(290.256 0 0)
(290.301 0 0)
(291.049 0 0)
(294.124 0 0)
(295.932 0 0)
(296.2 0 0)
(296.194 0 0)
(295.393 0 0)
(292.293 0 0)
(290.604 0 0)
(290.445 0 0)
(290.582 0 0)
(291.393 0 0)
(294.167 0 0)
(295.634 0 0)
(295.833 0 0)
(295.66 0 0)
(294.918 0 0)
(292.28 0 0)
(290.936 0 0)
(290.83 0 0)
(290.938 0 0)
(291.752 0 0)
(294.362 0 0)
(295.444 0 0)
(295.636 0 0)
(295.575 0 0)
(294.678 0 0)
(292.024 0 0)
(291.133 0 0)
(291.073 0 0)
(291.198 0 0)
(292.049 0 0)
(294.491 0 0)
(295.425 0 0)
(295.497 0 0)
(295.294 0 0)
(294.456 0 0)
(292.179 0 0)
(291.428 0 0)
(291.365 0 0)
(291.478 0 0)
(292.265 0 0)
(294.426 0 0)
(295.157 0 0)
(295.268 0 0)
(295.152 0 0)
(294.227 0 0)
(292.105 0 0)
(291.582 0 0)
(291.511 0 0)
(291.626 0 0)
(292.475 0 0)
(294.456 0 0)
(295.029 0 0)
(295.031 0 0)
(294.839 0 0)
(293.935 0 0)
(292.156 0 0)
(291.713 0 0)
(291.662 0 0)
(291.801 0 0)
(292.568 0 0)
(294.279 0 0)
(294.736 0 0)
(294.791 0 0)
(294.67 0 0)
(293.764 0 0)
(292.173 0 0)
(291.846 0 0)
(291.791 0 0)
(291.93 0 0)
(292.812 0 0)
(294.398 0 0)
(294.73 0 0)
(294.729 0 0)
(294.559 0 0)
(293.685 0 0)
(292.313 0 0)
(292.002 0 0)
(292.009 0 0)
(292.176 0 0)
(292.934 0 0)
(294.283 0 0)
(294.562 0 0)
(294.572 0 0)
(294.446 0 0)
(293.635 0 0)
(292.42 0 0)
(292.175 0 0)
(292.125 0 0)
(292.259 0 0)
(293.079 0 0)
(294.272 0 0)
(294.461 0 0)
(294.461 0 0)
(294.321 0 0)
(293.556 0 0)
(292.432 0 0)
(292.201 0 0)
(292.229 0 0)
(292.388 0 0)
(293.103 0 0)
(294.117 0 0)
(294.288 0 0)
(294.287 0 0)
(294.163 0 0)
(293.464 0 0)
(292.479 0 0)
(292.282 0 0)
(292.254 0 0)
(292.387 0 0)
(293.136 0 0)
(294.02 0 0)
(294.169 0 0)
(294.204 0 0)
(294.09 0 0)
(293.417 0 0)
(292.539 0 0)
(292.399 0 0)
(292.422 0 0)
(292.567 0 0)
(293.237 0 0)
(293.99 0 0)
(294.124 0 0)
(294.118 0 0)
(294.006 0 0)
(293.438 0 0)
(292.669 0 0)
(292.529 0 0)
(292.525 0 0)
(292.638 0 0)
(293.254 0 0)
(293.95 0 0)
(294.085 0 0)
(294.111 0 0)
(293.99 0 0)
(293.322 0 0)
(292.74 0 0)
(292.688 0 0)
(292.679 0 0)
(292.485 0 0)
(289.523 0 0)
(258.416 0 0)
(96.1264 0 0)
(7.36944 0 0)
(0.497924 0 0)
(0.0329837 0 0)
(0.00218037 0 0)
(0.000144061 0 0)
(9.51419e-06 0 0)
(6.28187e-07 0 0)
(4.1473e-08 0 0)
(2.73841e-09 0 0)
(1.81055e-10 0 0)
(1.21368e-11 0 0)
(1.09432e-12 0 0)
(3.41141e-13 0 0)
(2.96861e-13 0 0)
(3.55675e-13 0 0)
(4.59059e-13 0 0)
(4.83331e-13 0 0)
(4.49487e-13 0 0)
(5.34866e-13 0 0)
(4.97209e-13 0 0)
(5.10222e-13 0 0)
(5.435e-13 0 0)
(4.53137e-13 0 0)
(4.3272e-13 0 0)
(5.45923e-13 0 0)
(5.96757e-13 0 0)
(5.07102e-13 0 0)
(2.89118e-13 0 0)
(1.84235e-13 0 0)
(1.98763e-13 0 0)
(1.64292e-13 0 0)
(9.08994e-14 0 0)
(9.12758e-14 0 0)
(1.91142e-13 0 0)
(1.79107e-13 0 0)
(1.73294e-13 0 0)
(8.38645e-14 0 0)
(-2.16339e-14 0 0)
(-7.06136e-14 0 0)
(1.58779e-14 0 0)
(4.33648e-14 0 0)
(6.19538e-14 0 0)
(2.85217e-14 0 0)
(-9.72882e-14 0 0)
(-1.82464e-13 0 0)
(-1.60246e-13 0 0)
(-1.83339e-13 0 0)
(-1.08668e-13 0 0)
(-4.66534e-14 0 0)
(4.1194e-14 0 0)
(8.6654e-15 0 0)
(6.74666e-14 0 0)
(1.55633e-13 0 0)
(2.48959e-13 0 0)
(2.63571e-13 0 0)
(2.22471e-13 0 0)
(2.48093e-13 0 0)
(2.96286e-13 0 0)
(2.97851e-13 0 0)
(1.46222e-13 0 0)
(8.18015e-14 0 0)
(2.60615e-14 0 0)
(2.02643e-14 0 0)
(9.54455e-14 0 0)
(1.38982e-13 0 0)
(2.55231e-14 0 0)
(-4.56129e-14 0 0)
(-2.14548e-14 0 0)
(-1.48605e-14 0 0)
(5.08535e-14 0 0)
(8.21534e-14 0 0)
(1.47318e-13 0 0)
(2.61891e-13 0 0)
(1.9956e-13 0 0)
(1.15513e-13 0 0)
(9.15287e-14 0 0)
(-3.24723e-14 0 0)
(-8.53319e-14 0 0)
(4.18122e-14 0 0)
(8.17396e-14 0 0)
(1.72236e-13 0 0)
(2.14455e-13 0 0)
(2.63412e-13 0 0)
(2.72771e-13 0 0)
(1.96692e-13 0 0)
(1.01759e-13 0 0)
(8.5597e-14 0 0)
(1.53458e-13 0 0)
(1.3674e-13 0 0)
(-3.65628e-14 0 0)
(-1.74096e-13 0 0)
(-2.87227e-13 0 0)
(-3.12922e-13 0 0)
(-3.31381e-13 0 0)
(-2.5045e-13 0 0)
(-1.7055e-13 0 0)
(-2.28725e-13 0 0)
(-2.20414e-13 0 0)
(-1.67206e-13 0 0)
(-1.43442e-13 0 0)
(-2.46677e-13 0 0)
(-3.68577e-13 0 0)
(-4.80662e-13 0 0)
(-5.45082e-13 0 0)
(-5.71726e-13 0 0)
(-5.04976e-13 0 0)
(-5.04139e-13 0 0)
(-4.57727e-13 0 0)
(-4.31262e-13 0 0)
(-4.32743e-13 0 0)
(-3.73296e-13 0 0)
)
;

boundaryField
{
    sides
    {
        type            zeroGradient;
    }
    empty
    {
        type            empty;
    }
}


// ************************************************************************* //
