/*--------------------------------*- C++ -*----------------------------------*\
  =========                 |
  \\      /  F ield         | OpenFOAM: The Open Source CFD Toolbox
   \\    /   O peration     | Website:  https://openfoam.org
    \\  /    A nd           | Version:  9
     \\/     M anipulation  |
\*---------------------------------------------------------------------------*/
FoamFile
{
    format      ascii;
    class       surfaceScalarField;
    location    "0.026";
    object      phi;
}
// * * * * * * * * * * * * * * * * * * * * * * * * * * * * * * * * * * * * * //

dimensions      [1 0 -1 0 0 0 0];

internalField   nonuniform List<scalar> 
9999
(
4.99204
5.06923
5.14641
5.22358
5.30076
5.37793
5.4551
5.53226
5.60942
5.68657
5.76373
5.84088
5.91804
5.99518
6.07231
6.14943
6.22656
6.30369
6.38084
6.45798
6.53512
6.61224
6.68934
6.76643
6.84351
6.92059
6.99767
7.07477
7.15189
7.22902
7.30618
7.38335
7.46054
7.53775
7.61496
7.69218
7.76941
7.84664
7.92386
8.00109
8.07833
8.15557
8.23281
8.31005
8.38729
8.46453
8.54177
8.61901
8.69624
8.77348
8.85072
8.92795
9.00519
9.08243
9.15966
9.2369
9.31413
9.39137
9.4686
9.54584
9.62307
9.70031
9.77754
9.85478
9.93201
10.0092
10.0865
10.1637
10.2409
10.3182
10.3954
10.4726
10.5499
10.6271
10.7043
10.7816
10.8588
10.936
11.0132
11.0905
11.1677
11.2449
11.3222
11.3994
11.4766
11.5538
11.6311
11.7083
11.7855
11.8627
11.94
12.0172
12.0944
12.1716
12.2489
12.3261
12.4033
12.4805
12.5578
12.635
12.7122
12.7894
12.8666
12.9439
13.0211
13.0983
13.1755
13.2528
13.33
13.4072
13.4844
13.5616
13.6388
13.7161
13.7933
13.8705
13.9477
14.0249
14.1022
14.1794
14.2566
14.3338
14.411
14.4882
14.5654
14.6427
14.7199
14.7971
14.8743
14.9515
15.0287
15.1059
15.1831
15.2604
15.3376
15.4148
15.492
15.5692
15.6464
15.7236
15.8008
15.878
15.9552
16.0325
16.1097
16.1869
16.2641
16.3413
16.4185
16.4957
16.5729
16.6501
16.7273
16.8045
16.8817
16.9589
17.0361
17.1133
17.1905
17.2677
17.3449
17.4221
17.4993
17.5765
17.6537
17.7309
17.8081
17.8853
17.9625
18.0397
18.1169
18.1941
18.2713
18.3485
18.4257
18.5029
18.5801
18.6573
18.7345
18.8117
18.8889
18.9661
19.0433
19.1205
19.1977
19.2749
19.352
19.4292
19.5064
19.5836
19.6608
19.738
19.8152
19.8924
19.9696
20.0468
20.124
20.2011
20.2783
20.3555
20.4327
20.5099
20.5871
20.6643
20.7414
20.8186
20.8958
20.973
21.0502
21.1274
21.2045
21.2817
21.3589
21.4361
21.5133
21.5905
21.6676
21.7448
21.822
21.8992
21.9764
22.0535
22.1307
22.2079
22.2851
22.3622
22.4394
22.5166
22.5938
22.6709
22.7481
22.8253
22.9025
22.9796
23.0568
23.134
23.2112
23.2883
23.3655
23.4427
23.5198
23.597
23.6742
23.7514
23.8285
23.9057
23.9829
24.06
24.1372
24.2144
24.2915
24.3687
24.4459
24.523
24.6002
24.6774
24.7545
24.8317
24.9088
24.986
25.0632
25.1403
25.2175
25.2947
25.3718
25.449
25.5261
25.6033
25.6805
25.7576
25.8348
25.9119
25.9891
26.0662
26.1434
26.2206
26.2977
26.3749
26.452
26.5292
26.6063
26.6835
26.7606
26.8378
26.9149
26.9921
27.0692
27.1464
27.2235
27.3007
27.3778
27.455
27.5321
27.6093
27.6864
27.7636
27.8407
27.9179
27.995
28.0722
28.1493
28.2264
28.3036
28.3807
28.4579
28.535
28.6122
28.6893
28.7664
28.8436
28.9207
28.9979
29.075
29.1521
29.2293
29.3064
29.3836
29.4607
29.5378
29.615
29.6921
29.7692
29.8464
29.9235
30.0006
30.0778
30.1549
30.232
30.3092
30.3863
30.4634
30.5405
30.6177
30.6948
30.7719
30.8491
30.9262
31.0033
31.0804
31.1576
31.2347
31.3118
31.3889
31.4661
31.5432
31.6203
31.6974
31.7746
31.8517
31.9288
32.0059
32.083
32.1602
32.2373
32.3144
32.3915
32.4686
32.5458
32.6229
32.7
32.7771
32.8542
32.9313
33.0084
33.0856
33.1627
33.2398
33.3169
33.394
33.4711
33.5482
33.6253
33.7024
33.7796
33.8567
33.9338
34.0109
34.088
34.1651
34.2422
34.3193
34.3964
34.4735
34.5506
34.6277
34.7048
34.7819
34.859
34.9361
35.0132
35.0903
35.1674
35.2445
35.3216
35.3987
35.4758
35.5529
35.63
35.7071
35.7842
35.8613
35.9384
36.0155
36.0926
36.1697
36.2468
36.3239
36.401
36.478
36.5551
36.6322
36.7093
36.7864
36.8635
36.9406
37.0177
37.0948
37.1718
37.2489
37.326
37.4031
37.4802
37.5573
37.6343
37.7114
37.7885
37.8656
37.9427
38.0197
38.0968
38.1739
38.251
38.3281
38.4051
38.4822
38.5593
38.6364
38.7134
38.7905
38.8676
38.9447
39.0217
39.0988
39.1759
39.2529
39.33
39.4071
39.4842
39.5612
39.6383
39.7154
39.7924
39.8695
39.9466
40.0236
40.1007
40.1778
40.2548
40.3319
40.4089
40.486
40.5631
40.6401
40.7172
40.7942
40.8713
40.9484
41.0254
41.1025
41.1795
41.2566
41.3336
41.4107
41.4878
41.5648
41.6419
41.7189
41.796
41.873
41.9501
42.0271
42.1042
42.1812
42.2583
42.3353
42.4124
42.4894
42.5665
42.6435
42.7205
42.7976
42.8746
42.9517
43.0287
43.1058
43.1828
43.2598
43.3369
43.4139
43.491
43.568
43.645
43.7221
43.7991
43.8761
43.9532
44.0302
44.1072
44.1843
44.2613
44.3383
44.4154
44.4924
44.5694
44.6465
44.7235
44.8005
44.8776
44.9546
45.0316
45.1086
45.1857
45.2627
45.3397
45.4167
45.4938
45.5708
45.6478
45.7248
45.8018
45.8789
45.9559
46.0329
46.1099
46.1869
46.2639
46.341
46.418
46.495
46.572
46.649
46.726
46.803
46.8801
46.9571
47.0341
47.1111
47.1881
47.2651
47.3421
47.4191
47.4961
47.5731
47.6501
47.7271
47.8042
47.8812
47.9582
48.0352
48.1122
48.1892
48.2662
48.3432
48.4202
48.4972
48.5742
48.6512
48.7281
48.8051
48.8821
48.9591
49.0361
49.1131
49.1901
49.2671
49.3441
49.4211
49.4981
49.5751
49.6521
49.729
49.806
49.883
49.96
50.037
50.114
50.191
50.2679
50.3449
50.4219
50.4989
50.5759
50.6528
50.7298
50.8068
50.8838
50.9608
51.0377
51.1147
51.1917
51.2687
51.3456
51.4226
51.4996
51.5765
51.6535
51.7305
51.8075
51.8844
51.9614
52.0384
52.1153
52.1923
52.2693
52.3462
52.4232
52.5002
52.5771
52.6541
52.731
52.808
52.885
52.9619
53.0389
53.1158
53.1928
53.2698
53.3467
53.4237
53.5006
53.5776
53.6545
53.7315
53.8084
53.8854
53.9623
54.0393
54.1162
54.1932
54.2701
54.3471
54.424
54.501
54.5779
54.6549
54.7318
54.8087
54.8857
54.9626
55.0396
55.1165
55.1934
55.2704
55.3473
55.4243
55.5012
55.5781
55.6551
55.732
55.8089
55.8859
55.9628
56.0397
56.1167
56.1936
56.2705
56.3474
56.4244
56.5013
56.5782
56.6551
56.7321
56.809
56.8859
56.9628
57.0398
57.1167
57.1936
57.2705
57.3474
57.4244
57.5013
57.5782
57.6551
57.732
57.8089
57.8859
57.9628
58.0397
58.1166
58.1935
58.2704
58.3473
58.4242
58.5011
58.578
58.6549
58.7319
58.8088
58.8857
58.9626
59.0395
59.1164
59.1933
59.2702
59.3471
59.424
59.5009
59.5778
59.6547
59.7316
59.8085
59.8853
59.9622
60.0391
60.116
60.1929
60.2698
60.3467
60.4236
60.5005
60.5774
60.6542
60.7311
60.808
60.8849
60.9618
61.0387
61.1156
61.1924
61.2693
61.3462
61.4231
61.5
61.5768
61.6537
61.7306
61.8075
61.8843
61.9612
62.0381
62.1149
62.1918
62.2687
62.3456
62.4224
62.4993
62.5762
62.653
62.7299
62.8068
62.8836
62.9605
63.0374
63.1142
63.1911
63.2679
63.3448
63.4217
63.4985
63.5754
63.6522
63.7291
63.8059
63.8828
63.9596
64.0365
64.1133
64.1902
64.2671
64.3439
64.4207
64.4976
64.5744
64.6513
64.7281
64.805
64.8818
64.9587
65.0355
65.1123
65.1892
65.266
65.3429
65.4197
65.4965
65.5734
65.6502
65.727
65.8039
65.8807
65.9575
66.0344
66.1112
66.188
66.2649
66.3417
66.4185
66.4954
66.5722
66.649
66.7258
66.8027
66.8795
66.9563
67.0331
67.1099
67.1868
67.2636
67.3404
67.4172
67.494
67.5708
67.6477
67.7245
67.8013
67.8781
67.9549
68.0317
68.1085
68.1853
68.2621
68.3389
68.4158
68.4926
68.5694
68.6462
68.723
68.7998
68.8766
68.9534
69.0302
69.107
69.1838
69.2606
69.3374
69.4142
69.4909
69.5677
69.6445
69.7213
69.7981
69.8749
69.9517
70.0285
70.1053
70.1821
70.2588
70.3356
70.4124
70.4892
70.566
70.6428
70.7195
70.7963
70.8731
70.9499
71.0267
71.1034
71.1802
71.257
71.3338
71.4105
71.4873
71.5641
71.6408
71.7176
71.7944
71.8711
71.9479
72.0247
72.1014
72.1782
72.255
72.3317
72.4085
72.4853
72.562
72.6388
72.7155
72.7923
72.869
72.9458
73.0226
73.0993
73.1761
73.2528
73.3296
73.4063
73.4831
73.5598
73.6366
73.7133
73.7901
73.8668
73.9435
74.0203
74.097
74.1738
74.2505
74.3272
74.404
74.4807
74.5575
74.6342
74.7109
74.7877
74.8644
74.9411
75.0179
75.0946
75.1713
75.2481
75.3248
75.4015
75.4782
75.555
75.6317
75.7084
75.7851
75.8619
75.9386
76.0153
76.092
76.1687
76.2454
76.3222
76.3989
76.4756
76.5523
76.629
76.7057
76.7824
76.8591
76.9359
77.0126
77.0893
77.166
77.2427
77.3194
77.3961
77.4728
77.5495
77.6262
77.7029
77.7796
77.8563
77.933
78.0097
78.0864
78.1631
78.2398
78.3165
78.3932
78.4698
78.5465
78.6232
78.6999
78.7766
78.8533
78.93
79.0066
79.0833
79.16
79.2367
79.3134
79.3901
79.4667
79.5434
79.6201
79.6968
79.7734
79.8501
79.9268
80.0035
80.0801
80.1568
80.2335
80.3101
80.3868
80.4635
80.5401
80.6168
80.6935
80.7701
80.8468
80.9234
81.0001
81.0768
81.1534
81.2301
81.3067
81.3834
81.46
81.5367
81.6133
81.69
81.7666
81.8433
81.9199
81.9966
82.0732
82.1499
82.2265
82.3032
82.3798
82.4564
82.5331
82.6097
82.6864
82.763
82.8396
82.9163
82.9929
83.0695
83.1462
83.2228
83.2994
83.3761
83.4527
83.5293
83.6059
83.6826
83.7592
83.8358
83.9124
83.9891
84.0657
84.1423
84.2189
84.2955
84.3722
84.4488
84.5254
84.602
84.6786
84.7552
84.8318
84.9084
84.9851
85.0617
85.1383
85.2149
85.2915
85.3681
85.4447
85.5213
85.5979
85.6745
85.7511
85.8277
85.9043
85.9809
86.0575
86.1341
86.2107
86.2872
86.3638
86.4404
86.517
86.5936
86.6702
86.7468
86.8234
86.8999
86.9765
87.0531
87.1297
87.2063
87.2828
87.3594
87.436
87.5126
87.5892
87.6657
87.7423
87.8189
87.8954
87.972
88.0486
88.1251
88.2017
88.2783
88.3548
88.4314
88.508
88.5845
88.6611
88.7376
88.8142
88.8908
88.9673
89.0439
89.1204
89.197
89.2735
89.3501
89.4266
89.5032
89.5797
89.6563
89.7328
89.8094
89.8859
89.9625
90.039
90.1155
90.1921
90.2686
90.3452
90.4217
90.4982
90.5748
90.6513
90.7278
90.8044
90.8809
90.9574
91.0339
91.1105
91.187
91.2635
91.34
91.4166
91.4931
91.5696
91.6461
91.7227
91.7992
91.8757
91.9522
92.0287
92.1052
92.1817
92.2583
92.3348
92.4113
92.4878
92.5643
92.6408
92.7173
92.7938
92.8703
92.9468
93.0233
93.0998
93.1763
93.2528
93.3293
93.4058
93.4823
93.5588
93.6353
93.7118
93.7883
93.8647
93.9412
94.0177
94.0942
94.1707
94.2472
94.3237
94.4001
94.4766
94.5531
94.6296
94.7061
94.7825
94.859
94.9355
95.0119
95.0884
95.1649
95.2414
95.3178
95.3943
95.4708
95.5472
95.6237
95.7002
95.7766
95.8531
95.9295
96.006
96.0824
96.1589
96.2354
96.3118
96.3883
96.4647
96.5412
96.6176
96.6941
96.7705
96.847
96.9234
96.9999
97.0763
97.1527
97.2292
97.3056
97.3821
97.4585
97.5349
97.6114
97.6878
97.7642
97.8407
97.9171
97.9935
98.07
98.1464
98.2228
98.2992
98.3757
98.4521
98.5285
98.6049
98.6813
98.7578
98.8342
98.9106
98.987
99.0634
99.1398
99.2162
99.2927
99.3691
99.4455
99.5219
99.5983
99.6747
99.7511
99.8275
99.9039
99.9803
100.057
100.133
100.209
100.286
100.362
100.439
100.515
100.591
100.668
100.744
100.821
100.897
100.973
101.05
101.126
101.203
101.279
101.355
101.432
101.508
101.584
101.661
101.737
101.814
101.89
101.966
102.043
102.119
102.195
102.272
102.348
102.425
102.501
102.577
102.654
102.73
102.806
102.883
102.959
103.035
103.112
103.188
103.264
103.341
103.417
103.493
103.57
103.646
103.723
103.799
103.875
103.952
104.028
104.104
104.181
104.257
104.333
104.41
104.486
104.562
104.639
104.715
104.791
104.868
104.944
105.02
105.096
105.173
105.249
105.325
105.402
105.478
105.554
105.631
105.707
105.783
105.86
105.936
106.012
106.089
106.165
106.241
106.317
106.394
106.47
106.546
106.623
106.699
106.775
106.852
106.928
107.004
107.08
107.157
107.233
107.309
107.386
107.462
107.538
107.614
107.691
107.767
107.843
107.92
107.996
108.072
108.148
108.225
108.301
108.377
108.453
108.53
108.606
108.682
108.759
108.835
108.911
108.987
109.064
109.14
109.216
109.292
109.369
109.445
109.521
109.597
109.674
109.75
109.826
109.902
109.979
110.055
110.131
110.207
110.284
110.36
110.436
110.512
110.589
110.665
110.741
110.817
110.893
110.97
111.046
111.122
111.198
111.275
111.351
111.427
111.503
111.579
111.656
111.732
111.808
111.884
111.961
112.037
112.113
112.189
112.265
112.342
112.418
112.494
112.57
112.646
112.723
112.799
112.875
112.951
113.027
113.104
113.18
113.256
113.332
113.408
113.485
113.561
113.637
113.713
113.789
113.865
113.942
114.018
114.094
114.17
114.246
114.323
114.399
114.475
114.551
114.627
114.703
114.78
114.856
114.932
115.008
115.084
115.16
115.236
115.313
115.389
115.465
115.541
115.617
115.693
115.77
115.846
115.922
115.998
116.074
116.15
116.226
116.303
116.379
116.455
116.531
116.607
116.683
116.759
116.835
116.912
116.988
117.064
117.14
117.216
117.292
117.368
117.444
117.521
117.597
117.673
117.749
117.825
117.901
117.977
118.053
118.129
118.206
118.282
118.358
118.434
118.51
118.586
118.662
118.738
118.814
118.891
118.967
119.043
119.119
119.195
119.271
119.347
119.423
119.499
119.575
119.651
119.727
119.804
119.88
119.956
120.032
120.108
120.184
120.26
120.336
120.412
120.488
120.564
120.64
120.716
120.792
120.868
120.945
121.021
121.097
121.173
121.249
121.325
121.401
121.477
121.553
121.629
121.705
121.781
121.857
121.933
122.009
122.085
122.161
122.237
122.313
122.389
122.465
122.541
122.617
122.694
122.77
122.846
122.922
122.998
123.074
123.15
123.226
123.302
123.378
123.454
123.53
123.606
123.682
123.758
123.834
123.91
123.986
124.062
124.138
124.214
124.29
124.366
124.442
124.518
124.594
124.67
124.746
124.822
124.898
124.974
125.05
125.126
125.202
125.278
125.354
125.43
125.506
125.582
125.657
125.733
125.809
125.885
125.961
126.037
126.113
126.189
126.265
126.341
126.417
126.493
126.569
126.645
126.721
126.797
126.873
126.949
127.025
127.101
127.177
127.253
127.329
127.404
127.48
127.556
127.632
127.708
127.784
127.86
127.936
128.012
128.088
128.164
128.24
128.316
128.392
128.468
128.543
128.619
128.695
128.771
128.847
128.923
128.999
129.075
129.151
129.227
129.303
129.378
129.454
129.53
129.606
129.682
129.758
129.834
129.91
129.986
130.062
130.137
130.213
130.289
130.365
130.441
130.517
130.593
130.669
130.744
130.82
130.896
130.972
131.048
131.124
131.2
131.276
131.351
131.427
131.503
131.579
131.655
131.731
131.807
131.882
131.958
132.034
132.11
132.186
132.262
132.338
132.413
132.489
132.565
132.641
132.717
132.793
132.868
132.944
133.02
133.096
133.172
133.248
133.323
133.399
133.475
133.551
133.627
133.703
133.778
133.854
133.93
134.006
134.082
134.157
134.233
134.309
134.385
134.461
134.536
134.612
134.688
134.764
134.84
134.915
134.991
135.067
135.143
135.219
135.294
135.37
135.446
135.522
135.598
135.673
135.749
135.825
135.901
135.976
136.052
136.128
136.204
136.28
136.355
136.431
136.507
136.583
136.658
136.734
136.81
136.886
136.961
137.037
137.113
137.189
137.264
137.34
137.416
137.492
137.567
137.643
137.719
137.795
137.87
137.946
138.022
138.098
138.173
138.249
138.325
138.4
138.476
138.552
138.628
138.703
138.779
138.855
138.93
139.006
139.082
139.158
139.233
139.309
139.385
139.46
139.536
139.612
139.688
139.763
139.839
139.915
139.99
140.066
140.142
140.217
140.293
140.369
140.444
140.52
140.596
140.672
140.747
140.823
140.899
140.974
141.05
141.126
141.201
141.277
141.353
141.428
141.504
141.58
141.655
141.731
141.807
141.882
141.958
142.033
142.109
142.185
142.26
142.336
142.412
142.487
142.563
142.639
142.714
142.79
142.866
142.941
143.017
143.092
143.168
143.244
143.319
143.395
143.471
143.546
143.622
143.697
143.773
143.849
143.924
144
144.075
144.151
144.227
144.302
144.378
144.454
144.529
144.605
144.68
144.756
144.831
144.907
144.983
145.058
145.134
145.209
145.285
145.361
145.436
145.512
145.587
145.663
145.738
145.814
145.89
145.965
146.041
146.116
146.192
146.267
146.343
146.419
146.494
146.57
146.645
146.721
146.796
146.872
146.947
147.023
147.099
147.174
147.25
147.325
147.401
147.476
147.552
147.627
147.703
147.778
147.854
147.929
148.005
148.08
148.156
148.232
148.307
148.383
148.458
148.534
148.609
148.685
148.76
148.836
148.911
148.987
149.062
149.138
149.213
149.289
149.364
149.44
149.515
149.591
149.666
149.742
149.817
149.893
149.968
150.043
150.119
150.194
150.27
150.345
150.421
150.496
150.572
150.647
150.723
150.798
150.874
150.949
151.025
151.1
151.176
151.251
151.326
151.402
151.477
151.553
151.628
151.704
151.779
151.855
151.93
152.005
152.081
152.156
152.232
152.307
152.383
152.458
152.533
152.609
152.684
152.76
152.835
152.911
152.986
153.061
153.137
153.212
153.288
153.363
153.438
153.514
153.589
153.665
153.74
153.815
153.891
153.966
154.042
154.117
154.192
154.268
154.343
154.419
154.494
154.569
154.645
154.72
154.795
154.871
154.946
155.022
155.097
155.172
155.248
155.323
155.398
155.474
155.549
155.624
155.7
155.775
155.85
155.926
156.001
156.077
156.152
156.227
156.303
156.378
156.453
156.529
156.604
156.679
156.755
156.83
156.905
156.981
157.056
157.131
157.206
157.282
157.357
157.432
157.508
157.583
157.658
157.734
157.809
157.884
157.96
158.035
158.11
158.185
158.261
158.336
158.411
158.487
158.562
158.637
158.712
158.788
158.863
158.938
159.014
159.089
159.164
159.239
159.315
159.39
159.465
159.541
159.616
159.691
159.766
159.842
159.917
159.992
160.067
160.143
160.218
160.293
160.368
160.444
160.519
160.594
160.669
160.745
160.82
160.895
160.97
161.045
161.121
161.196
161.271
161.346
161.422
161.497
161.572
161.647
161.722
161.798
161.873
161.948
162.023
162.098
162.174
162.249
162.324
162.399
162.474
162.55
162.625
162.7
162.775
162.85
162.926
163.001
163.076
163.151
163.226
163.302
163.377
163.452
163.527
163.602
163.677
163.753
163.828
163.903
163.978
164.053
164.128
164.203
164.279
164.354
164.429
164.504
164.579
164.654
164.73
164.805
164.88
164.955
165.03
165.105
165.18
165.255
165.331
165.406
165.481
165.556
165.631
165.706
165.781
165.856
165.932
166.007
166.082
166.157
166.232
166.307
166.382
166.457
166.532
166.607
166.683
166.758
166.833
166.908
166.983
167.058
167.133
167.208
167.283
167.358
167.433
167.508
167.584
167.659
167.734
167.809
167.884
167.959
168.034
168.109
168.184
168.259
168.334
168.409
168.484
168.559
168.634
168.709
168.784
168.86
168.935
169.01
169.085
169.16
169.235
169.31
169.385
169.46
169.535
169.61
169.685
169.76
169.835
169.91
169.985
170.06
170.135
170.21
170.285
170.36
170.435
170.51
170.585
170.66
170.735
170.81
170.885
170.96
171.035
171.11
171.185
171.26
171.335
171.41
171.485
171.56
171.635
171.71
171.785
171.86
171.935
172.01
172.084
172.159
172.234
172.309
172.384
172.459
172.534
172.609
172.684
172.759
172.834
172.909
172.984
173.059
173.134
173.209
173.284
173.359
173.433
173.508
173.583
173.658
173.733
173.808
173.883
173.958
174.033
174.108
174.183
174.257
174.332
174.407
174.482
174.557
174.632
174.707
174.782
174.857
174.932
175.006
175.081
175.156
175.231
175.306
175.381
175.456
175.531
175.605
175.68
175.755
175.83
175.905
175.98
176.055
176.129
176.204
176.279
176.354
176.429
176.504
176.579
176.653
176.728
176.803
176.878
176.953
177.028
177.102
177.177
177.252
177.327
177.402
177.477
177.551
177.626
177.701
177.776
177.851
177.925
178
178.075
178.15
178.225
178.299
178.374
178.449
178.524
178.599
178.673
178.748
178.823
178.898
178.973
179.047
179.122
179.197
179.272
179.346
179.421
179.496
179.571
179.646
179.72
179.795
179.87
179.945
180.019
180.094
180.169
180.244
180.318
180.393
180.468
180.543
180.617
180.692
180.767
180.841
180.916
180.991
181.066
181.14
181.215
181.29
181.365
181.439
181.514
181.589
181.663
181.738
181.813
181.888
181.962
182.037
182.112
182.186
182.261
182.336
182.41
182.485
182.56
182.634
182.709
182.784
182.858
182.933
183.008
183.083
183.157
183.232
183.307
183.381
183.456
183.53
183.605
183.68
183.754
183.829
183.904
183.978
184.053
184.128
184.202
184.277
184.352
184.426
184.501
184.576
184.65
184.725
184.799
184.874
184.949
185.023
185.098
185.173
185.247
185.322
185.396
185.471
185.546
185.62
185.695
185.769
185.844
185.919
185.993
186.068
186.142
186.217
186.291
186.366
186.441
186.515
186.59
186.664
186.739
186.814
186.888
186.963
187.037
187.112
187.186
187.261
187.335
187.41
187.485
187.559
187.634
187.708
187.783
187.857
187.932
188.006
188.081
188.155
188.23
188.304
188.379
188.454
188.528
188.603
188.677
188.752
188.826
188.901
188.975
189.05
189.124
189.199
189.273
189.348
189.422
189.497
189.571
189.646
189.72
189.795
189.869
189.944
190.018
190.093
190.167
190.242
190.316
190.39
190.465
190.539
190.614
190.688
190.763
190.837
190.912
190.986
191.061
191.135
191.209
191.284
191.358
191.433
191.507
191.582
191.656
191.731
191.805
191.879
191.954
192.028
192.103
192.177
192.252
192.326
192.4
192.475
192.549
192.624
192.698
192.772
192.847
192.921
192.996
193.07
193.144
193.219
193.293
193.368
193.442
193.516
193.591
193.665
193.739
193.814
193.888
193.963
194.037
194.111
194.186
194.26
194.334
194.409
194.483
194.557
194.632
194.706
194.78
194.855
194.929
195.003
195.078
195.152
195.226
195.301
195.375
195.449
195.524
195.598
195.672
195.747
195.821
195.895
195.97
196.044
196.118
196.193
196.267
196.341
196.415
196.49
196.564
196.638
196.713
196.787
196.861
196.936
197.01
197.084
197.158
197.233
197.307
197.381
197.455
197.53
197.604
197.678
197.752
197.827
197.901
197.975
198.049
198.124
198.198
198.272
198.346
198.421
198.495
198.569
198.643
198.718
198.792
198.866
198.94
199.015
199.089
199.163
199.237
199.311
199.386
199.46
199.534
199.608
199.682
199.757
199.831
199.905
199.979
200.053
200.128
200.202
200.276
200.35
200.424
200.498
200.573
200.647
200.721
200.795
200.869
200.943
201.018
201.092
201.166
201.24
201.314
201.388
201.463
201.537
201.611
201.685
201.759
201.833
201.907
201.982
202.056
202.13
202.204
202.278
202.352
202.426
202.5
202.575
202.649
202.723
202.797
202.871
202.945
203.019
203.093
203.167
203.241
203.316
203.39
203.464
203.538
203.612
203.686
203.76
203.834
203.908
203.982
204.056
204.13
204.204
204.279
204.353
204.427
204.501
204.575
204.649
204.723
204.797
204.871
204.945
205.019
205.093
205.167
205.241
205.315
205.389
205.463
205.537
205.611
205.685
205.759
205.833
205.907
205.981
206.055
206.129
206.203
206.277
206.351
206.425
206.499
206.573
206.647
206.721
206.795
206.869
206.943
207.017
207.091
207.165
207.239
207.313
207.387
207.461
207.535
207.609
207.683
207.757
207.831
207.905
207.979
208.053
208.127
208.201
208.275
208.348
208.422
208.496
208.57
208.644
208.718
208.792
208.866
208.94
209.014
209.088
209.162
209.236
209.309
209.383
209.457
209.531
209.605
209.679
209.753
209.827
209.901
209.974
210.048
210.122
210.196
210.27
210.344
210.418
210.492
210.566
210.639
210.713
210.787
210.861
210.935
211.009
211.083
211.156
211.23
211.304
211.378
211.452
211.526
211.599
211.673
211.747
211.821
211.895
211.969
212.042
212.116
212.19
212.264
212.338
212.411
212.485
212.559
212.633
212.707
212.78
212.854
212.928
213.002
213.076
213.149
213.223
213.297
213.371
213.445
213.518
213.592
213.666
213.74
213.813
213.887
213.961
214.035
214.108
214.182
214.256
214.33
214.403
214.477
214.551
214.625
214.698
214.772
214.846
214.92
214.993
215.067
215.141
215.214
215.288
215.362
215.436
215.509
215.583
215.657
215.73
215.804
215.878
215.951
216.025
216.099
216.173
216.246
216.32
216.394
216.467
216.541
216.615
216.688
216.762
216.836
216.909
216.983
217.057
217.13
217.204
217.278
217.351
217.425
217.499
217.572
217.646
217.719
217.793
217.867
217.94
218.014
218.088
218.161
218.235
218.308
218.382
218.456
218.529
218.603
218.676
218.75
218.824
218.897
218.971
219.044
219.118
219.192
219.265
219.339
219.412
219.486
219.56
219.633
219.707
219.78
219.854
219.927
220.001
220.075
220.148
220.222
220.295
220.369
220.442
220.516
220.589
220.663
220.736
220.81
220.884
220.957
221.031
221.104
221.178
221.251
221.325
221.398
221.472
221.545
221.619
221.692
221.766
221.839
221.913
221.986
222.06
222.133
222.207
222.28
222.354
222.427
222.501
222.574
222.648
222.721
222.795
222.868
222.941
223.015
223.088
223.162
223.235
223.309
223.382
223.456
223.529
223.602
223.676
223.749
223.823
223.896
223.97
224.043
224.117
224.19
224.263
224.337
224.41
224.484
224.557
224.63
224.704
224.777
224.851
224.924
224.997
225.071
225.144
225.218
225.291
225.364
225.438
225.511
225.584
225.658
225.731
225.805
225.878
225.951
226.025
226.098
226.171
226.245
226.318
226.391
226.465
226.538
226.611
226.685
226.758
226.831
226.905
226.978
227.051
227.125
227.198
227.271
227.345
227.418
227.491
227.565
227.638
227.711
227.784
227.858
227.931
228.004
228.078
228.151
228.224
228.298
228.371
228.444
228.517
228.591
228.664
228.737
228.81
228.884
228.957
229.03
229.103
229.177
229.25
229.323
229.396
229.47
229.543
229.616
229.689
229.763
229.836
229.909
229.982
230.055
230.129
230.202
230.275
230.348
230.422
230.495
230.568
230.641
230.714
230.788
230.861
230.934
231.007
231.08
231.153
231.227
231.3
231.373
231.446
231.519
231.592
231.666
231.739
231.812
231.885
231.958
232.031
232.105
232.178
232.251
232.324
232.397
232.47
232.543
232.616
232.69
232.763
232.836
232.909
232.982
233.055
233.128
233.201
233.275
233.348
233.421
233.494
233.567
233.64
233.713
233.786
233.859
233.932
234.005
234.079
234.152
234.225
234.298
234.371
234.444
234.517
234.59
234.663
234.736
234.809
234.882
234.955
235.028
235.101
235.174
235.247
235.32
235.393
235.466
235.539
235.612
235.686
235.759
235.832
235.905
235.978
236.051
236.124
236.197
236.27
236.343
236.416
236.489
236.562
236.635
236.707
236.78
236.853
236.926
236.999
237.072
237.145
237.218
237.291
237.364
237.437
237.51
237.583
237.656
237.729
237.802
237.875
237.948
238.021
238.094
238.167
238.239
238.312
238.385
238.458
238.531
238.604
238.677
238.75
238.823
238.896
238.969
239.041
239.114
239.187
239.26
239.333
239.406
239.479
239.552
239.625
239.697
239.77
239.843
239.916
239.989
240.062
240.135
240.207
240.28
240.353
240.426
240.499
240.572
240.645
240.717
240.79
240.863
240.936
241.009
241.081
241.154
241.227
241.3
241.373
241.446
241.518
241.591
241.664
241.737
241.81
241.882
241.955
242.028
242.101
242.173
242.246
242.319
242.392
242.465
242.537
242.61
242.683
242.756
242.828
242.901
242.974
243.047
243.119
243.192
243.265
243.338
243.41
243.483
243.556
243.628
243.701
243.774
243.847
243.919
243.992
244.065
244.137
244.21
244.283
244.356
244.428
244.501
244.574
244.646
244.719
244.792
244.864
244.937
245.01
245.082
245.155
245.228
245.3
245.373
245.446
245.518
245.591
245.664
245.736
245.809
245.882
245.954
246.027
246.1
246.172
246.245
246.317
246.39
246.463
246.535
246.608
246.68
246.753
246.826
246.898
246.971
247.043
247.116
247.189
247.261
247.334
247.406
247.479
247.552
247.624
247.697
247.769
247.842
247.914
247.987
248.06
248.132
248.205
248.277
248.35
248.422
248.495
248.567
248.64
248.712
248.785
248.857
248.93
249.002
249.075
249.148
249.22
249.293
249.365
249.438
249.51
249.583
249.655
249.728
249.8
249.872
249.945
250.017
250.09
250.162
250.235
250.307
250.38
250.452
250.525
250.597
250.67
250.742
250.815
250.887
250.959
251.032
251.104
251.177
251.249
251.322
251.394
251.466
251.539
251.611
251.684
251.756
251.829
251.901
251.973
252.046
252.118
252.191
252.263
252.335
252.408
252.48
252.552
252.625
252.697
252.77
252.842
252.914
252.987
253.059
253.131
253.204
253.276
253.348
253.421
253.493
253.565
253.638
253.71
253.782
253.855
253.927
253.999
254.072
254.144
254.216
254.289
254.361
254.433
254.506
254.578
254.65
254.723
254.795
254.867
254.939
255.012
255.084
255.156
255.229
255.301
255.373
255.445
255.518
255.59
255.662
255.734
255.807
255.879
255.951
256.023
256.096
256.168
256.24
256.312
256.384
256.457
256.529
256.601
256.673
256.746
256.818
256.89
256.962
257.034
257.107
257.179
257.251
257.323
257.395
257.468
257.54
257.612
257.684
257.756
257.828
257.901
257.973
258.045
258.117
258.189
258.261
258.334
258.406
258.478
258.55
258.622
258.694
258.766
258.838
258.911
258.983
259.055
259.127
259.199
259.271
259.343
259.415
259.487
259.56
259.632
259.704
259.776
259.848
259.92
259.992
260.064
260.136
260.208
260.28
260.352
260.424
260.497
260.569
260.641
260.713
260.785
260.857
260.929
261.001
261.073
261.145
261.217
261.289
261.361
261.433
261.505
261.577
261.649
261.721
261.793
261.865
261.937
262.009
262.081
262.153
262.225
262.297
262.369
262.441
262.513
262.585
262.657
262.729
262.801
262.873
262.945
263.017
263.089
263.161
263.233
263.304
263.376
263.448
263.52
263.592
263.664
263.736
263.808
263.88
263.952
264.024
264.096
264.167
264.239
264.311
264.383
264.455
264.527
264.599
264.671
264.743
264.814
264.886
264.958
265.03
265.102
265.174
265.246
265.318
265.389
265.461
265.533
265.605
265.677
265.749
265.82
265.892
265.964
266.036
266.108
266.18
266.251
266.323
266.395
266.467
266.539
266.61
266.682
266.754
266.826
266.898
266.969
267.041
267.113
267.185
267.256
267.328
267.4
267.472
267.543
267.615
267.687
267.759
267.83
267.902
267.974
268.046
268.117
268.189
268.261
268.333
268.404
268.476
268.548
268.619
268.691
268.763
268.835
268.906
268.978
269.05
269.121
269.193
269.265
269.336
269.408
269.48
269.551
269.623
269.695
269.766
269.838
269.91
269.981
270.053
270.125
270.196
270.268
270.34
270.411
270.483
270.554
270.626
270.698
270.769
270.841
270.913
270.984
271.056
271.127
271.199
271.271
271.342
271.414
271.485
271.557
271.628
271.7
271.772
271.843
271.915
271.986
272.058
272.129
272.201
272.273
272.344
272.416
272.487
272.559
272.63
272.702
272.773
272.845
272.916
272.988
273.059
273.131
273.202
273.274
273.345
273.417
273.488
273.56
273.631
273.703
273.774
273.846
273.917
273.989
274.06
274.132
274.203
274.275
274.346
274.417
274.489
274.56
274.632
274.703
274.775
274.846
274.918
274.989
275.06
275.132
275.203
275.275
275.346
275.417
275.489
275.56
275.632
275.703
275.774
275.846
275.917
275.989
276.06
276.131
276.203
276.274
276.345
276.417
276.488
276.559
276.631
276.702
276.774
276.845
276.916
276.988
277.059
277.13
277.202
277.273
277.344
277.415
277.487
277.558
277.629
277.701
277.772
277.843
277.915
277.986
278.057
278.128
278.2
278.271
278.342
278.413
278.485
278.556
278.627
278.698
278.77
278.841
278.912
278.983
279.055
279.126
279.197
279.268
279.34
279.411
279.482
279.553
279.624
279.696
279.767
279.838
279.909
279.98
280.052
280.123
280.194
280.265
280.336
280.408
280.479
280.55
280.621
280.692
280.763
280.834
280.906
280.977
281.048
281.119
281.19
281.261
281.332
281.404
281.475
281.546
281.617
281.688
281.759
281.83
281.901
281.972
282.043
282.115
282.186
282.257
282.328
282.399
282.47
282.541
282.612
282.683
282.754
282.825
282.896
282.967
283.038
283.109
283.18
283.251
283.322
283.393
283.464
283.535
283.607
283.678
283.749
283.82
283.891