/*--------------------------------*- C++ -*----------------------------------*\
  =========                 |
  \\      /  F ield         | OpenFOAM: The Open Source CFD Toolbox
   \\    /   O peration     | Website:  https://openfoam.org
    \\  /    A nd           | Version:  9
     \\/     M anipulation  |
\*---------------------------------------------------------------------------*/
FoamFile
{
    format      ascii;
    class       volVectorField;
    location    "0.026";
    object      U;
}
// * * * * * * * * * * * * * * * * * * * * * * * * * * * * * * * * * * * * * //

dimensions      [0 1 -1 0 0 0 0];

internalField   nonuniform List<vector> 
10000
(
(3.33873 0 0)
(3.40813 0 0)
(3.47155 0 0)
(3.52449 0 0)
(3.57516 0 0)
(3.62694 0 0)
(3.67955 0 0)
(3.73225 0 0)
(3.78483 0 0)
(3.83735 0 0)
(3.88987 0 0)
(3.94239 0 0)
(3.99492 0 0)
(4.04745 0 0)
(4.09998 0 0)
(4.15251 0 0)
(4.20504 0 0)
(4.25758 0 0)
(4.31011 0 0)
(4.36264 0 0)
(4.41517 0 0)
(4.46769 0 0)
(4.52022 0 0)
(4.57275 0 0)
(4.62529 0 0)
(4.67782 0 0)
(4.73036 0 0)
(4.7829 0 0)
(4.83545 0 0)
(4.88799 0 0)
(4.94053 0 0)
(4.99307 0 0)
(5.04561 0 0)
(5.09815 0 0)
(5.15069 0 0)
(5.20322 0 0)
(5.25576 0 0)
(5.30829 0 0)
(5.36083 0 0)
(5.41337 0 0)
(5.4659 0 0)
(5.51844 0 0)
(5.57098 0 0)
(5.62352 0 0)
(5.67605 0 0)
(5.72859 0 0)
(5.78113 0 0)
(5.83367 0 0)
(5.88621 0 0)
(5.93875 0 0)
(5.99128 0 0)
(6.04382 0 0)
(6.09636 0 0)
(6.1489 0 0)
(6.20144 0 0)
(6.25398 0 0)
(6.30653 0 0)
(6.35907 0 0)
(6.41161 0 0)
(6.46415 0 0)
(6.51669 0 0)
(6.56923 0 0)
(6.62178 0 0)
(6.67432 0 0)
(6.72686 0 0)
(6.77941 0 0)
(6.83195 0 0)
(6.88449 0 0)
(6.93704 0 0)
(6.98958 0 0)
(7.04213 0 0)
(7.09467 0 0)
(7.14722 0 0)
(7.19976 0 0)
(7.25231 0 0)
(7.30486 0 0)
(7.3574 0 0)
(7.40995 0 0)
(7.4625 0 0)
(7.51504 0 0)
(7.56759 0 0)
(7.62014 0 0)
(7.67269 0 0)
(7.72524 0 0)
(7.77779 0 0)
(7.83033 0 0)
(7.88288 0 0)
(7.93543 0 0)
(7.98798 0 0)
(8.04053 0 0)
(8.09308 0 0)
(8.14564 0 0)
(8.19819 0 0)
(8.25074 0 0)
(8.30329 0 0)
(8.35584 0 0)
(8.40839 0 0)
(8.46095 0 0)
(8.5135 0 0)
(8.56605 0 0)
(8.61861 0 0)
(8.67116 0 0)
(8.72371 0 0)
(8.77627 0 0)
(8.82882 0 0)
(8.88138 0 0)
(8.93393 0 0)
(8.98649 0 0)
(9.03904 0 0)
(9.0916 0 0)
(9.14415 0 0)
(9.19671 0 0)
(9.24927 0 0)
(9.30182 0 0)
(9.35438 0 0)
(9.40694 0 0)
(9.4595 0 0)
(9.51206 0 0)
(9.56461 0 0)
(9.61717 0 0)
(9.66973 0 0)
(9.72229 0 0)
(9.77485 0 0)
(9.82741 0 0)
(9.87997 0 0)
(9.93253 0 0)
(9.98509 0 0)
(10.0377 0 0)
(10.0902 0 0)
(10.1428 0 0)
(10.1953 0 0)
(10.2479 0 0)
(10.3005 0 0)
(10.353 0 0)
(10.4056 0 0)
(10.4581 0 0)
(10.5107 0 0)
(10.5633 0 0)
(10.6158 0 0)
(10.6684 0 0)
(10.721 0 0)
(10.7735 0 0)
(10.8261 0 0)
(10.8787 0 0)
(10.9312 0 0)
(10.9838 0 0)
(11.0364 0 0)
(11.0889 0 0)
(11.1415 0 0)
(11.1941 0 0)
(11.2466 0 0)
(11.2992 0 0)
(11.3518 0 0)
(11.4043 0 0)
(11.4569 0 0)
(11.5095 0 0)
(11.562 0 0)
(11.6146 0 0)
(11.6672 0 0)
(11.7197 0 0)
(11.7723 0 0)
(11.8249 0 0)
(11.8775 0 0)
(11.93 0 0)
(11.9826 0 0)
(12.0352 0 0)
(12.0877 0 0)
(12.1403 0 0)
(12.1929 0 0)
(12.2455 0 0)
(12.298 0 0)
(12.3506 0 0)
(12.4032 0 0)
(12.4558 0 0)
(12.5083 0 0)
(12.5609 0 0)
(12.6135 0 0)
(12.6661 0 0)
(12.7186 0 0)
(12.7712 0 0)
(12.8238 0 0)
(12.8764 0 0)
(12.9289 0 0)
(12.9815 0 0)
(13.0341 0 0)
(13.0867 0 0)
(13.1392 0 0)
(13.1918 0 0)
(13.2444 0 0)
(13.297 0 0)
(13.3496 0 0)
(13.4021 0 0)
(13.4547 0 0)
(13.5073 0 0)
(13.5599 0 0)
(13.6124 0 0)
(13.665 0 0)
(13.7176 0 0)
(13.7702 0 0)
(13.8228 0 0)
(13.8754 0 0)
(13.9279 0 0)
(13.9805 0 0)
(14.0331 0 0)
(14.0857 0 0)
(14.1383 0 0)
(14.1908 0 0)
(14.2434 0 0)
(14.296 0 0)
(14.3486 0 0)
(14.4012 0 0)
(14.4538 0 0)
(14.5064 0 0)
(14.5589 0 0)
(14.6115 0 0)
(14.6641 0 0)
(14.7167 0 0)
(14.7693 0 0)
(14.8219 0 0)
(14.8745 0 0)
(14.927 0 0)
(14.9796 0 0)
(15.0322 0 0)
(15.0848 0 0)
(15.1374 0 0)
(15.19 0 0)
(15.2426 0 0)
(15.2952 0 0)
(15.3477 0 0)
(15.4003 0 0)
(15.4529 0 0)
(15.5055 0 0)
(15.5581 0 0)
(15.6107 0 0)
(15.6633 0 0)
(15.7159 0 0)
(15.7685 0 0)
(15.8211 0 0)
(15.8737 0 0)
(15.9262 0 0)
(15.9788 0 0)
(16.0314 0 0)
(16.084 0 0)
(16.1366 0 0)
(16.1892 0 0)
(16.2418 0 0)
(16.2944 0 0)
(16.347 0 0)
(16.3996 0 0)
(16.4522 0 0)
(16.5048 0 0)
(16.5574 0 0)
(16.61 0 0)
(16.6626 0 0)
(16.7152 0 0)
(16.7678 0 0)
(16.8204 0 0)
(16.873 0 0)
(16.9255 0 0)
(16.9781 0 0)
(17.0307 0 0)
(17.0833 0 0)
(17.1359 0 0)
(17.1885 0 0)
(17.2411 0 0)
(17.2937 0 0)
(17.3463 0 0)
(17.3989 0 0)
(17.4515 0 0)
(17.5041 0 0)
(17.5567 0 0)
(17.6093 0 0)
(17.6619 0 0)
(17.7145 0 0)
(17.7671 0 0)
(17.8197 0 0)
(17.8724 0 0)
(17.925 0 0)
(17.9776 0 0)
(18.0302 0 0)
(18.0828 0 0)
(18.1354 0 0)
(18.188 0 0)
(18.2406 0 0)
(18.2932 0 0)
(18.3458 0 0)
(18.3984 0 0)
(18.451 0 0)
(18.5036 0 0)
(18.5562 0 0)
(18.6088 0 0)
(18.6614 0 0)
(18.714 0 0)
(18.7666 0 0)
(18.8192 0 0)
(18.8719 0 0)
(18.9245 0 0)
(18.9771 0 0)
(19.0297 0 0)
(19.0823 0 0)
(19.1349 0 0)
(19.1875 0 0)
(19.2401 0 0)
(19.2927 0 0)
(19.3453 0 0)
(19.3979 0 0)
(19.4506 0 0)
(19.5032 0 0)
(19.5558 0 0)
(19.6084 0 0)
(19.661 0 0)
(19.7136 0 0)
(19.7662 0 0)
(19.8188 0 0)
(19.8715 0 0)
(19.9241 0 0)
(19.9767 0 0)
(20.0293 0 0)
(20.0819 0 0)
(20.1345 0 0)
(20.1871 0 0)
(20.2398 0 0)
(20.2924 0 0)
(20.345 0 0)
(20.3976 0 0)
(20.4502 0 0)
(20.5028 0 0)
(20.5555 0 0)
(20.6081 0 0)
(20.6607 0 0)
(20.7133 0 0)
(20.7659 0 0)
(20.8185 0 0)
(20.8712 0 0)
(20.9238 0 0)
(20.9764 0 0)
(21.029 0 0)
(21.0816 0 0)
(21.1343 0 0)
(21.1869 0 0)
(21.2395 0 0)
(21.2921 0 0)
(21.3447 0 0)
(21.3974 0 0)
(21.45 0 0)
(21.5026 0 0)
(21.5552 0 0)
(21.6078 0 0)
(21.6605 0 0)
(21.7131 0 0)
(21.7657 0 0)
(21.8183 0 0)
(21.871 0 0)
(21.9236 0 0)
(21.9762 0 0)
(22.0288 0 0)
(22.0815 0 0)
(22.1341 0 0)
(22.1867 0 0)
(22.2393 0 0)
(22.292 0 0)
(22.3446 0 0)
(22.3972 0 0)
(22.4498 0 0)
(22.5025 0 0)
(22.5551 0 0)
(22.6077 0 0)
(22.6603 0 0)
(22.713 0 0)
(22.7656 0 0)
(22.8182 0 0)
(22.8709 0 0)
(22.9235 0 0)
(22.9761 0 0)
(23.0287 0 0)
(23.0814 0 0)
(23.134 0 0)
(23.1866 0 0)
(23.2393 0 0)
(23.2919 0 0)
(23.3445 0 0)
(23.3972 0 0)
(23.4498 0 0)
(23.5024 0 0)
(23.5551 0 0)
(23.6077 0 0)
(23.6603 0 0)
(23.713 0 0)
(23.7656 0 0)
(23.8182 0 0)
(23.8709 0 0)
(23.9235 0 0)
(23.9761 0 0)
(24.0288 0 0)
(24.0814 0 0)
(24.134 0 0)
(24.1867 0 0)
(24.2393 0 0)
(24.2919 0 0)
(24.3446 0 0)
(24.3972 0 0)
(24.4499 0 0)
(24.5025 0 0)
(24.5551 0 0)
(24.6078 0 0)
(24.6604 0 0)
(24.713 0 0)
(24.7657 0 0)
(24.8183 0 0)
(24.871 0 0)
(24.9236 0 0)
(24.9762 0 0)
(25.0289 0 0)
(25.0815 0 0)
(25.1342 0 0)
(25.1868 0 0)
(25.2394 0 0)
(25.2921 0 0)
(25.3447 0 0)
(25.3974 0 0)
(25.45 0 0)
(25.5027 0 0)
(25.5553 0 0)
(25.6079 0 0)
(25.6606 0 0)
(25.7132 0 0)
(25.7659 0 0)
(25.8185 0 0)
(25.8712 0 0)
(25.9238 0 0)
(25.9765 0 0)
(26.0291 0 0)
(26.0817 0 0)
(26.1344 0 0)
(26.187 0 0)
(26.2397 0 0)
(26.2923 0 0)
(26.345 0 0)
(26.3976 0 0)
(26.4503 0 0)
(26.5029 0 0)
(26.5556 0 0)
(26.6082 0 0)
(26.6609 0 0)
(26.7135 0 0)
(26.7662 0 0)
(26.8188 0 0)
(26.8715 0 0)
(26.9241 0 0)
(26.9768 0 0)
(27.0294 0 0)
(27.0821 0 0)
(27.1347 0 0)
(27.1874 0 0)
(27.24 0 0)
(27.2927 0 0)
(27.3453 0 0)
(27.398 0 0)
(27.4506 0 0)
(27.5033 0 0)
(27.5559 0 0)
(27.6086 0 0)
(27.6612 0 0)
(27.7139 0 0)
(27.7666 0 0)
(27.8192 0 0)
(27.8719 0 0)
(27.9245 0 0)
(27.9772 0 0)
(28.0298 0 0)
(28.0825 0 0)
(28.1351 0 0)
(28.1878 0 0)
(28.2405 0 0)
(28.2931 0 0)
(28.3458 0 0)
(28.3984 0 0)
(28.4511 0 0)
(28.5037 0 0)
(28.5564 0 0)
(28.6091 0 0)
(28.6617 0 0)
(28.7144 0 0)
(28.767 0 0)
(28.8197 0 0)
(28.8724 0 0)
(28.925 0 0)
(28.9777 0 0)
(29.0303 0 0)
(29.083 0 0)
(29.1357 0 0)
(29.1883 0 0)
(29.241 0 0)
(29.2937 0 0)
(29.3463 0 0)
(29.399 0 0)
(29.4516 0 0)
(29.5043 0 0)
(29.557 0 0)
(29.6096 0 0)
(29.6623 0 0)
(29.715 0 0)
(29.7676 0 0)
(29.8203 0 0)
(29.873 0 0)
(29.9256 0 0)
(29.9783 0 0)
(30.031 0 0)
(30.0836 0 0)
(30.1363 0 0)
(30.189 0 0)
(30.2416 0 0)
(30.2943 0 0)
(30.347 0 0)
(30.3996 0 0)
(30.4523 0 0)
(30.505 0 0)
(30.5576 0 0)
(30.6103 0 0)
(30.663 0 0)
(30.7157 0 0)
(30.7683 0 0)
(30.821 0 0)
(30.8737 0 0)
(30.9263 0 0)
(30.979 0 0)
(31.0317 0 0)
(31.0844 0 0)
(31.137 0 0)
(31.1897 0 0)
(31.2424 0 0)
(31.295 0 0)
(31.3477 0 0)
(31.4004 0 0)
(31.4531 0 0)
(31.5057 0 0)
(31.5584 0 0)
(31.6111 0 0)
(31.6638 0 0)
(31.7164 0 0)
(31.7691 0 0)
(31.8218 0 0)
(31.8745 0 0)
(31.9271 0 0)
(31.9798 0 0)
(32.0325 0 0)
(32.0852 0 0)
(32.1378 0 0)
(32.1905 0 0)
(32.2432 0 0)
(32.2959 0 0)
(32.3486 0 0)
(32.4012 0 0)
(32.4539 0 0)
(32.5066 0 0)
(32.5593 0 0)
(32.612 0 0)
(32.6646 0 0)
(32.7173 0 0)
(32.77 0 0)
(32.8227 0 0)
(32.8754 0 0)
(32.928 0 0)
(32.9807 0 0)
(33.0334 0 0)
(33.0861 0 0)
(33.1388 0 0)
(33.1915 0 0)
(33.2441 0 0)
(33.2968 0 0)
(33.3495 0 0)
(33.4022 0 0)
(33.4549 0 0)
(33.5076 0 0)
(33.5602 0 0)
(33.6129 0 0)
(33.6656 0 0)
(33.7183 0 0)
(33.771 0 0)
(33.8237 0 0)
(33.8764 0 0)
(33.929 0 0)
(33.9817 0 0)
(34.0344 0 0)
(34.0871 0 0)
(34.1398 0 0)
(34.1925 0 0)
(34.2452 0 0)
(34.2979 0 0)
(34.3505 0 0)
(34.4032 0 0)
(34.4559 0 0)
(34.5086 0 0)
(34.5613 0 0)
(34.614 0 0)
(34.6667 0 0)
(34.7194 0 0)
(34.7721 0 0)
(34.8248 0 0)
(34.8774 0 0)
(34.9301 0 0)
(34.9828 0 0)
(35.0355 0 0)
(35.0882 0 0)
(35.1409 0 0)
(35.1936 0 0)
(35.2463 0 0)
(35.299 0 0)
(35.3517 0 0)
(35.4044 0 0)
(35.4571 0 0)
(35.5098 0 0)
(35.5625 0 0)
(35.6152 0 0)
(35.6679 0 0)
(35.7206 0 0)
(35.7732 0 0)
(35.8259 0 0)
(35.8786 0 0)
(35.9313 0 0)
(35.984 0 0)
(36.0367 0 0)
(36.0894 0 0)
(36.1421 0 0)
(36.1948 0 0)
(36.2475 0 0)
(36.3002 0 0)
(36.3529 0 0)
(36.4056 0 0)
(36.4583 0 0)
(36.511 0 0)
(36.5637 0 0)
(36.6164 0 0)
(36.6691 0 0)
(36.7218 0 0)
(36.7745 0 0)
(36.8272 0 0)
(36.8799 0 0)
(36.9326 0 0)
(36.9853 0 0)
(37.038 0 0)
(37.0907 0 0)
(37.1434 0 0)
(37.1962 0 0)
(37.2489 0 0)
(37.3016 0 0)
(37.3543 0 0)
(37.407 0 0)
(37.4597 0 0)
(37.5124 0 0)
(37.5651 0 0)
(37.6178 0 0)
(37.6705 0 0)
(37.7232 0 0)
(37.7759 0 0)
(37.8286 0 0)
(37.8813 0 0)
(37.934 0 0)
(37.9867 0 0)
(38.0394 0 0)
(38.0922 0 0)
(38.1449 0 0)
(38.1976 0 0)
(38.2503 0 0)
(38.303 0 0)
(38.3557 0 0)
(38.4084 0 0)
(38.4611 0 0)
(38.5138 0 0)
(38.5665 0 0)
(38.6193 0 0)
(38.672 0 0)
(38.7247 0 0)
(38.7774 0 0)
(38.8301 0 0)
(38.8828 0 0)
(38.9355 0 0)
(38.9882 0 0)
(39.041 0 0)
(39.0937 0 0)
(39.1464 0 0)
(39.1991 0 0)
(39.2518 0 0)
(39.3045 0 0)
(39.3572 0 0)
(39.41 0 0)
(39.4627 0 0)
(39.5154 0 0)
(39.5681 0 0)
(39.6208 0 0)
(39.6735 0 0)
(39.7262 0 0)
(39.779 0 0)
(39.8317 0 0)
(39.8844 0 0)
(39.9371 0 0)
(39.9898 0 0)
(40.0426 0 0)
(40.0953 0 0)
(40.148 0 0)
(40.2007 0 0)
(40.2534 0 0)
(40.3061 0 0)
(40.3589 0 0)
(40.4116 0 0)
(40.4643 0 0)
(40.517 0 0)
(40.5698 0 0)
(40.6225 0 0)
(40.6752 0 0)
(40.7279 0 0)
(40.7806 0 0)
(40.8334 0 0)
(40.8861 0 0)
(40.9388 0 0)
(40.9915 0 0)
(41.0443 0 0)
(41.097 0 0)
(41.1497 0 0)
(41.2024 0 0)
(41.2552 0 0)
(41.3079 0 0)
(41.3606 0 0)
(41.4133 0 0)
(41.4661 0 0)
(41.5188 0 0)
(41.5715 0 0)
(41.6242 0 0)
(41.677 0 0)
(41.7297 0 0)
(41.7824 0 0)
(41.8351 0 0)
(41.8879 0 0)
(41.9406 0 0)
(41.9933 0 0)
(42.0461 0 0)
(42.0988 0 0)
(42.1515 0 0)
(42.2042 0 0)
(42.257 0 0)
(42.3097 0 0)
(42.3624 0 0)
(42.4152 0 0)
(42.4679 0 0)
(42.5206 0 0)
(42.5734 0 0)
(42.6261 0 0)
(42.6788 0 0)
(42.7316 0 0)
(42.7843 0 0)
(42.837 0 0)
(42.8898 0 0)
(42.9425 0 0)
(42.9952 0 0)
(43.048 0 0)
(43.1007 0 0)
(43.1534 0 0)
(43.2062 0 0)
(43.2589 0 0)
(43.3116 0 0)
(43.3644 0 0)
(43.4171 0 0)
(43.4698 0 0)
(43.5226 0 0)
(43.5753 0 0)
(43.628 0 0)
(43.6808 0 0)
(43.7335 0 0)
(43.7863 0 0)
(43.839 0 0)
(43.8917 0 0)
(43.9445 0 0)
(43.9972 0 0)
(44.05 0 0)
(44.1027 0 0)
(44.1554 0 0)
(44.2082 0 0)
(44.2609 0 0)
(44.3137 0 0)
(44.3664 0 0)
(44.4191 0 0)
(44.4719 0 0)
(44.5246 0 0)
(44.5774 0 0)
(44.6301 0 0)
(44.6828 0 0)
(44.7356 0 0)
(44.7883 0 0)
(44.8411 0 0)
(44.8938 0 0)
(44.9466 0 0)
(44.9993 0 0)
(45.052 0 0)
(45.1048 0 0)
(45.1575 0 0)
(45.2103 0 0)
(45.263 0 0)
(45.3158 0 0)
(45.3685 0 0)
(45.4213 0 0)
(45.474 0 0)
(45.5268 0 0)
(45.5795 0 0)
(45.6323 0 0)
(45.685 0 0)
(45.7377 0 0)
(45.7905 0 0)
(45.8432 0 0)
(45.896 0 0)
(45.9487 0 0)
(46.0015 0 0)
(46.0542 0 0)
(46.107 0 0)
(46.1597 0 0)
(46.2125 0 0)
(46.2652 0 0)
(46.318 0 0)
(46.3707 0 0)
(46.4235 0 0)
(46.4762 0 0)
(46.529 0 0)
(46.5817 0 0)
(46.6345 0 0)
(46.6873 0 0)
(46.74 0 0)
(46.7928 0 0)
(46.8455 0 0)
(46.8983 0 0)
(46.951 0 0)
(47.0038 0 0)
(47.0565 0 0)
(47.1093 0 0)
(47.162 0 0)
(47.2148 0 0)
(47.2676 0 0)
(47.3203 0 0)
(47.3731 0 0)
(47.4258 0 0)
(47.4786 0 0)
(47.5313 0 0)
(47.5841 0 0)
(47.6369 0 0)
(47.6896 0 0)
(47.7424 0 0)
(47.7951 0 0)
(47.8479 0 0)
(47.9006 0 0)
(47.9534 0 0)
(48.0062 0 0)
(48.0589 0 0)
(48.1117 0 0)
(48.1644 0 0)
(48.2172 0 0)
(48.27 0 0)
(48.3227 0 0)
(48.3755 0 0)
(48.4282 0 0)
(48.481 0 0)
(48.5338 0 0)
(48.5865 0 0)
(48.6393 0 0)
(48.6921 0 0)
(48.7448 0 0)
(48.7976 0 0)
(48.8504 0 0)
(48.9031 0 0)
(48.9559 0 0)
(49.0086 0 0)
(49.0614 0 0)
(49.1142 0 0)
(49.1669 0 0)
(49.2197 0 0)
(49.2725 0 0)
(49.3252 0 0)
(49.378 0 0)
(49.4308 0 0)
(49.4835 0 0)
(49.5363 0 0)
(49.5891 0 0)
(49.6418 0 0)
(49.6946 0 0)
(49.7474 0 0)
(49.8001 0 0)
(49.8529 0 0)
(49.9057 0 0)
(49.9585 0 0)
(50.0112 0 0)
(50.064 0 0)
(50.1168 0 0)
(50.1695 0 0)
(50.2223 0 0)
(50.2751 0 0)
(50.3279 0 0)
(50.3806 0 0)
(50.4334 0 0)
(50.4862 0 0)
(50.5389 0 0)
(50.5917 0 0)
(50.6445 0 0)
(50.6973 0 0)
(50.75 0 0)
(50.8028 0 0)
(50.8556 0 0)
(50.9084 0 0)
(50.9611 0 0)
(51.0139 0 0)
(51.0667 0 0)
(51.1195 0 0)
(51.1722 0 0)
(51.225 0 0)
(51.2778 0 0)
(51.3306 0 0)
(51.3833 0 0)
(51.4361 0 0)
(51.4889 0 0)
(51.5417 0 0)
(51.5945 0 0)
(51.6472 0 0)
(51.7 0 0)
(51.7528 0 0)
(51.8056 0 0)
(51.8583 0 0)
(51.9111 0 0)
(51.9639 0 0)
(52.0167 0 0)
(52.0695 0 0)
(52.1222 0 0)
(52.175 0 0)
(52.2278 0 0)
(52.2806 0 0)
(52.3334 0 0)
(52.3862 0 0)
(52.4389 0 0)
(52.4917 0 0)
(52.5445 0 0)
(52.5973 0 0)
(52.6501 0 0)
(52.7029 0 0)
(52.7556 0 0)
(52.8084 0 0)
(52.8612 0 0)
(52.914 0 0)
(52.9668 0 0)
(53.0196 0 0)
(53.0723 0 0)
(53.1251 0 0)
(53.1779 0 0)
(53.2307 0 0)
(53.2835 0 0)
(53.3363 0 0)
(53.3891 0 0)
(53.4419 0 0)
(53.4946 0 0)
(53.5474 0 0)
(53.6002 0 0)
(53.653 0 0)
(53.7058 0 0)
(53.7586 0 0)
(53.8114 0 0)
(53.8642 0 0)
(53.917 0 0)
(53.9697 0 0)
(54.0225 0 0)
(54.0753 0 0)
(54.1281 0 0)
(54.1809 0 0)
(54.2337 0 0)
(54.2865 0 0)
(54.3393 0 0)
(54.3921 0 0)
(54.4449 0 0)
(54.4977 0 0)
(54.5505 0 0)
(54.6032 0 0)
(54.656 0 0)
(54.7088 0 0)
(54.7616 0 0)
(54.8144 0 0)
(54.8672 0 0)
(54.92 0 0)
(54.9728 0 0)
(55.0256 0 0)
(55.0784 0 0)
(55.1312 0 0)
(55.184 0 0)
(55.2368 0 0)
(55.2896 0 0)
(55.3424 0 0)
(55.3952 0 0)
(55.448 0 0)
(55.5008 0 0)
(55.5536 0 0)
(55.6064 0 0)
(55.6592 0 0)
(55.712 0 0)
(55.7648 0 0)
(55.8176 0 0)
(55.8704 0 0)
(55.9232 0 0)
(55.976 0 0)
(56.0288 0 0)
(56.0816 0 0)
(56.1344 0 0)
(56.1872 0 0)
(56.24 0 0)
(56.2928 0 0)
(56.3456 0 0)
(56.3984 0 0)
(56.4512 0 0)
(56.504 0 0)
(56.5568 0 0)
(56.6096 0 0)
(56.6624 0 0)
(56.7152 0 0)
(56.768 0 0)
(56.8208 0 0)
(56.8736 0 0)
(56.9264 0 0)
(56.9792 0 0)
(57.032 0 0)
(57.0849 0 0)
(57.1377 0 0)
(57.1905 0 0)
(57.2433 0 0)
(57.2961 0 0)
(57.3489 0 0)
(57.4017 0 0)
(57.4545 0 0)
(57.5073 0 0)
(57.5601 0 0)
(57.6129 0 0)
(57.6657 0 0)
(57.7186 0 0)
(57.7714 0 0)
(57.8242 0 0)
(57.877 0 0)
(57.9298 0 0)
(57.9826 0 0)
(58.0354 0 0)
(58.0882 0 0)
(58.141 0 0)
(58.1939 0 0)
(58.2467 0 0)
(58.2995 0 0)
(58.3523 0 0)
(58.4051 0 0)
(58.4579 0 0)
(58.5107 0 0)
(58.5635 0 0)
(58.6164 0 0)
(58.6692 0 0)
(58.722 0 0)
(58.7748 0 0)
(58.8276 0 0)
(58.8804 0 0)
(58.9332 0 0)
(58.9861 0 0)
(59.0389 0 0)
(59.0917 0 0)
(59.1445 0 0)
(59.1973 0 0)
(59.2502 0 0)
(59.303 0 0)
(59.3558 0 0)
(59.4086 0 0)
(59.4614 0 0)
(59.5142 0 0)
(59.5671 0 0)
(59.6199 0 0)
(59.6727 0 0)
(59.7255 0 0)
(59.7783 0 0)
(59.8312 0 0)
(59.884 0 0)
(59.9368 0 0)
(59.9896 0 0)
(60.0424 0 0)
(60.0953 0 0)
(60.1481 0 0)
(60.2009 0 0)
(60.2537 0 0)
(60.3066 0 0)
(60.3594 0 0)
(60.4122 0 0)
(60.465 0 0)
(60.5179 0 0)
(60.5707 0 0)
(60.6235 0 0)
(60.6763 0 0)
(60.7292 0 0)
(60.782 0 0)
(60.8348 0 0)
(60.8876 0 0)
(60.9405 0 0)
(60.9933 0 0)
(61.0461 0 0)
(61.0989 0 0)
(61.1518 0 0)
(61.2046 0 0)
(61.2574 0 0)
(61.3102 0 0)
(61.3631 0 0)
(61.4159 0 0)
(61.4687 0 0)
(61.5216 0 0)
(61.5744 0 0)
(61.6272 0 0)
(61.6801 0 0)
(61.7329 0 0)
(61.7857 0 0)
(61.8385 0 0)
(61.8914 0 0)
(61.9442 0 0)
(61.997 0 0)
(62.0499 0 0)
(62.1027 0 0)
(62.1555 0 0)
(62.2084 0 0)
(62.2612 0 0)
(62.314 0 0)
(62.3669 0 0)
(62.4197 0 0)
(62.4725 0 0)
(62.5254 0 0)
(62.5782 0 0)
(62.631 0 0)
(62.6839 0 0)
(62.7367 0 0)
(62.7895 0 0)
(62.8424 0 0)
(62.8952 0 0)
(62.9481 0 0)
(63.0009 0 0)
(63.0537 0 0)
(63.1066 0 0)
(63.1594 0 0)
(63.2122 0 0)
(63.2651 0 0)
(63.3179 0 0)
(63.3708 0 0)
(63.4236 0 0)
(63.4764 0 0)
(63.5293 0 0)
(63.5821 0 0)
(63.635 0 0)
(63.6878 0 0)
(63.7406 0 0)
(63.7935 0 0)
(63.8463 0 0)
(63.8992 0 0)
(63.952 0 0)
(64.0048 0 0)
(64.0577 0 0)
(64.1105 0 0)
(64.1634 0 0)
(64.2162 0 0)
(64.2691 0 0)
(64.3219 0 0)
(64.3747 0 0)
(64.4276 0 0)
(64.4804 0 0)
(64.5333 0 0)
(64.5861 0 0)
(64.639 0 0)
(64.6918 0 0)
(64.7447 0 0)
(64.7975 0 0)
(64.8504 0 0)
(64.9032 0 0)
(64.956 0 0)
(65.0089 0 0)
(65.0617 0 0)
(65.1146 0 0)
(65.1674 0 0)
(65.2203 0 0)
(65.2731 0 0)
(65.326 0 0)
(65.3788 0 0)
(65.4317 0 0)
(65.4845 0 0)
(65.5374 0 0)
(65.5902 0 0)
(65.6431 0 0)
(65.6959 0 0)
(65.7488 0 0)
(65.8016 0 0)
(65.8545 0 0)
(65.9073 0 0)
(65.9602 0 0)
(66.013 0 0)
(66.0659 0 0)
(66.1188 0 0)
(66.1716 0 0)
(66.2245 0 0)
(66.2773 0 0)
(66.3302 0 0)
(66.383 0 0)
(66.4359 0 0)
(66.4887 0 0)
(66.5416 0 0)
(66.5944 0 0)
(66.6473 0 0)
(66.7002 0 0)
(66.753 0 0)
(66.8059 0 0)
(66.8587 0 0)
(66.9116 0 0)
(66.9644 0 0)
(67.0173 0 0)
(67.0702 0 0)
(67.123 0 0)
(67.1759 0 0)
(67.2287 0 0)
(67.2816 0 0)
(67.3344 0 0)
(67.3873 0 0)
(67.4402 0 0)
(67.493 0 0)
(67.5459 0 0)
(67.5987 0 0)
(67.6516 0 0)
(67.7045 0 0)
(67.7573 0 0)
(67.8102 0 0)
(67.8631 0 0)
(67.9159 0 0)
(67.9688 0 0)
(68.0216 0 0)
(68.0745 0 0)
(68.1274 0 0)
(68.1802 0 0)
(68.2331 0 0)
(68.286 0 0)
(68.3388 0 0)
(68.3917 0 0)
(68.4445 0 0)
(68.4974 0 0)
(68.5503 0 0)
(68.6031 0 0)
(68.656 0 0)
(68.7089 0 0)
(68.7617 0 0)
(68.8146 0 0)
(68.8675 0 0)
(68.9203 0 0)
(68.9732 0 0)
(69.0261 0 0)
(69.0789 0 0)
(69.1318 0 0)
(69.1847 0 0)
(69.2376 0 0)
(69.2904 0 0)
(69.3433 0 0)
(69.3962 0 0)
(69.449 0 0)
(69.5019 0 0)
(69.5548 0 0)
(69.6076 0 0)
(69.6605 0 0)
(69.7134 0 0)
(69.7663 0 0)
(69.8191 0 0)
(69.872 0 0)
(69.9249 0 0)
(69.9777 0 0)
(70.0306 0 0)
(70.0835 0 0)
(70.1364 0 0)
(70.1892 0 0)
(70.2421 0 0)
(70.295 0 0)
(70.3479 0 0)
(70.4007 0 0)
(70.4536 0 0)
(70.5065 0 0)
(70.5594 0 0)
(70.6122 0 0)
(70.6651 0 0)
(70.718 0 0)
(70.7709 0 0)
(70.8238 0 0)
(70.8766 0 0)
(70.9295 0 0)
(70.9824 0 0)
(71.0353 0 0)
(71.0881 0 0)
(71.141 0 0)
(71.1939 0 0)
(71.2468 0 0)
(71.2997 0 0)
(71.3525 0 0)
(71.4054 0 0)
(71.4583 0 0)
(71.5112 0 0)
(71.5641 0 0)
(71.6169 0 0)
(71.6698 0 0)
(71.7227 0 0)
(71.7756 0 0)
(71.8285 0 0)
(71.8813 0 0)
(71.9342 0 0)
(71.9871 0 0)
(72.04 0 0)
(72.0929 0 0)
(72.1458 0 0)
(72.1986 0 0)
(72.2515 0 0)
(72.3044 0 0)
(72.3573 0 0)
(72.4102 0 0)
(72.4631 0 0)
(72.516 0 0)
(72.5688 0 0)
(72.6217 0 0)
(72.6746 0 0)
(72.7275 0 0)
(72.7804 0 0)
(72.8333 0 0)
(72.8862 0 0)
(72.9391 0 0)
(72.9919 0 0)
(73.0448 0 0)
(73.0977 0 0)
(73.1506 0 0)
(73.2035 0 0)
(73.2564 0 0)
(73.3093 0 0)
(73.3622 0 0)
(73.4151 0 0)
(73.4679 0 0)
(73.5208 0 0)
(73.5737 0 0)
(73.6266 0 0)
(73.6795 0 0)
(73.7324 0 0)
(73.7853 0 0)
(73.8382 0 0)
(73.8911 0 0)
(73.944 0 0)
(73.9969 0 0)
(74.0498 0 0)
(74.1027 0 0)
(74.1556 0 0)
(74.2084 0 0)
(74.2613 0 0)
(74.3142 0 0)
(74.3671 0 0)
(74.42 0 0)
(74.4729 0 0)
(74.5258 0 0)
(74.5787 0 0)
(74.6316 0 0)
(74.6845 0 0)
(74.7374 0 0)
(74.7903 0 0)
(74.8432 0 0)
(74.8961 0 0)
(74.949 0 0)
(75.0019 0 0)
(75.0548 0 0)
(75.1077 0 0)
(75.1606 0 0)
(75.2135 0 0)
(75.2664 0 0)
(75.3193 0 0)
(75.3722 0 0)
(75.4251 0 0)
(75.478 0 0)
(75.5309 0 0)
(75.5838 0 0)
(75.6367 0 0)
(75.6896 0 0)
(75.7425 0 0)
(75.7954 0 0)
(75.8483 0 0)
(75.9012 0 0)
(75.9541 0 0)
(76.007 0 0)
(76.0599 0 0)
(76.1128 0 0)
(76.1657 0 0)
(76.2186 0 0)
(76.2715 0 0)
(76.3244 0 0)
(76.3773 0 0)
(76.4302 0 0)
(76.4832 0 0)
(76.5361 0 0)
(76.589 0 0)
(76.6419 0 0)
(76.6948 0 0)
(76.7477 0 0)
(76.8006 0 0)
(76.8535 0 0)
(76.9064 0 0)
(76.9593 0 0)
(77.0122 0 0)
(77.0651 0 0)
(77.118 0 0)
(77.171 0 0)
(77.2239 0 0)
(77.2768 0 0)
(77.3297 0 0)
(77.3826 0 0)
(77.4355 0 0)
(77.4884 0 0)
(77.5413 0 0)
(77.5942 0 0)
(77.6472 0 0)
(77.7001 0 0)
(77.753 0 0)
(77.8059 0 0)
(77.8588 0 0)
(77.9117 0 0)
(77.9646 0 0)
(78.0175 0 0)
(78.0705 0 0)
(78.1234 0 0)
(78.1763 0 0)
(78.2292 0 0)
(78.2821 0 0)
(78.335 0 0)
(78.3879 0 0)
(78.4409 0 0)
(78.4938 0 0)
(78.5467 0 0)
(78.5996 0 0)
(78.6525 0 0)
(78.7054 0 0)
(78.7584 0 0)
(78.8113 0 0)
(78.8642 0 0)
(78.9171 0 0)
(78.97 0 0)
(79.023 0 0)
(79.0759 0 0)
(79.1288 0 0)
(79.1817 0 0)
(79.2346 0 0)
(79.2875 0 0)
(79.3405 0 0)
(79.3934 0 0)
(79.4463 0 0)
(79.4992 0 0)
(79.5522 0 0)
(79.6051 0 0)
(79.658 0 0)
(79.7109 0 0)
(79.7638 0 0)
(79.8168 0 0)
(79.8697 0 0)
(79.9226 0 0)
(79.9755 0 0)
(80.0285 0 0)
(80.0814 0 0)
(80.1343 0 0)
(80.1872 0 0)
(80.2402 0 0)
(80.2931 0 0)
(80.346 0 0)
(80.3989 0 0)
(80.4519 0 0)
(80.5048 0 0)
(80.5577 0 0)
(80.6106 0 0)
(80.6636 0 0)
(80.7165 0 0)
(80.7694 0 0)
(80.8223 0 0)
(80.8753 0 0)
(80.9282 0 0)
(80.9811 0 0)
(81.0341 0 0)
(81.087 0 0)
(81.1399 0 0)
(81.1928 0 0)
(81.2458 0 0)
(81.2987 0 0)
(81.3516 0 0)
(81.4046 0 0)
(81.4575 0 0)
(81.5104 0 0)
(81.5634 0 0)
(81.6163 0 0)
(81.6692 0 0)
(81.7222 0 0)
(81.7751 0 0)
(81.828 0 0)
(81.881 0 0)
(81.9339 0 0)
(81.9868 0 0)
(82.0398 0 0)
(82.0927 0 0)
(82.1456 0 0)
(82.1986 0 0)
(82.2515 0 0)
(82.3044 0 0)
(82.3574 0 0)
(82.4103 0 0)
(82.4632 0 0)
(82.5162 0 0)
(82.5691 0 0)
(82.622 0 0)
(82.675 0 0)
(82.7279 0 0)
(82.7809 0 0)
(82.8338 0 0)
(82.8867 0 0)
(82.9397 0 0)
(82.9926 0 0)
(83.0456 0 0)
(83.0985 0 0)
(83.1514 0 0)
(83.2044 0 0)
(83.2573 0 0)
(83.3103 0 0)
(83.3632 0 0)
(83.4161 0 0)
(83.4691 0 0)
(83.522 0 0)
(83.575 0 0)
(83.6279 0 0)
(83.6808 0 0)
(83.7338 0 0)
(83.7867 0 0)
(83.8397 0 0)
(83.8926 0 0)
(83.9456 0 0)
(83.9985 0 0)
(84.0514 0 0)
(84.1044 0 0)
(84.1573 0 0)
(84.2103 0 0)
(84.2632 0 0)
(84.3162 0 0)
(84.3691 0 0)
(84.4221 0 0)
(84.475 0 0)
(84.528 0 0)
(84.5809 0 0)
(84.6338 0 0)
(84.6868 0 0)
(84.7397 0 0)
(84.7927 0 0)
(84.8456 0 0)
(84.8986 0 0)
(84.9515 0 0)
(85.0045 0 0)
(85.0574 0 0)
(85.1104 0 0)
(85.1633 0 0)
(85.2163 0 0)
(85.2692 0 0)
(85.3222 0 0)
(85.3751 0 0)
(85.4281 0 0)
(85.481 0 0)
(85.534 0 0)
(85.5869 0 0)
(85.6399 0 0)
(85.6928 0 0)
(85.7458 0 0)
(85.7987 0 0)
(85.8517 0 0)
(85.9046 0 0)
(85.9576 0 0)
(86.0106 0 0)
(86.0635 0 0)
(86.1165 0 0)
(86.1694 0 0)
(86.2224 0 0)
(86.2753 0 0)
(86.3283 0 0)
(86.3812 0 0)
(86.4342 0 0)
(86.4872 0 0)
(86.5401 0 0)
(86.5931 0 0)
(86.646 0 0)
(86.699 0 0)
(86.7519 0 0)
(86.8049 0 0)
(86.8579 0 0)
(86.9108 0 0)
(86.9638 0 0)
(87.0167 0 0)
(87.0697 0 0)
(87.1226 0 0)
(87.1756 0 0)
(87.2286 0 0)
(87.2815 0 0)
(87.3345 0 0)
(87.3874 0 0)
(87.4404 0 0)
(87.4934 0 0)
(87.5463 0 0)
(87.5993 0 0)
(87.6523 0 0)
(87.7052 0 0)
(87.7582 0 0)
(87.8111 0 0)
(87.8641 0 0)
(87.9171 0 0)
(87.97 0 0)
(88.023 0 0)
(88.076 0 0)
(88.1289 0 0)
(88.1819 0 0)
(88.2349 0 0)
(88.2878 0 0)
(88.3408 0 0)
(88.3937 0 0)
(88.4467 0 0)
(88.4997 0 0)
(88.5526 0 0)
(88.6056 0 0)
(88.6586 0 0)
(88.7115 0 0)
(88.7645 0 0)
(88.8175 0 0)
(88.8704 0 0)
(88.9234 0 0)
(88.9764 0 0)
(89.0294 0 0)
(89.0823 0 0)
(89.1353 0 0)
(89.1883 0 0)
(89.2412 0 0)
(89.2942 0 0)
(89.3472 0 0)
(89.4001 0 0)
(89.4531 0 0)
(89.5061 0 0)
(89.5591 0 0)
(89.612 0 0)
(89.665 0 0)
(89.718 0 0)
(89.7709 0 0)
(89.8239 0 0)
(89.8769 0 0)
(89.9299 0 0)
(89.9828 0 0)
(90.0358 0 0)
(90.0888 0 0)
(90.1418 0 0)
(90.1947 0 0)
(90.2477 0 0)
(90.3007 0 0)
(90.3537 0 0)
(90.4066 0 0)
(90.4596 0 0)
(90.5126 0 0)
(90.5656 0 0)
(90.6185 0 0)
(90.6715 0 0)
(90.7245 0 0)
(90.7775 0 0)
(90.8304 0 0)
(90.8834 0 0)
(90.9364 0 0)
(90.9894 0 0)
(91.0424 0 0)
(91.0953 0 0)
(91.1483 0 0)
(91.2013 0 0)
(91.2543 0 0)
(91.3073 0 0)
(91.3602 0 0)
(91.4132 0 0)
(91.4662 0 0)
(91.5192 0 0)
(91.5722 0 0)
(91.6251 0 0)
(91.6781 0 0)
(91.7311 0 0)
(91.7841 0 0)
(91.8371 0 0)
(91.8901 0 0)
(91.943 0 0)
(91.996 0 0)
(92.049 0 0)
(92.102 0 0)
(92.155 0 0)
(92.208 0 0)
(92.2609 0 0)
(92.3139 0 0)
(92.3669 0 0)
(92.4199 0 0)
(92.4729 0 0)
(92.5259 0 0)
(92.5789 0 0)
(92.6318 0 0)
(92.6848 0 0)
(92.7378 0 0)
(92.7908 0 0)
(92.8438 0 0)
(92.8968 0 0)
(92.9498 0 0)
(93.0028 0 0)
(93.0557 0 0)
(93.1087 0 0)
(93.1617 0 0)
(93.2147 0 0)
(93.2677 0 0)
(93.3207 0 0)
(93.3737 0 0)
(93.4267 0 0)
(93.4797 0 0)
(93.5327 0 0)
(93.5856 0 0)
(93.6386 0 0)
(93.6916 0 0)
(93.7446 0 0)
(93.7976 0 0)
(93.8506 0 0)
(93.9036 0 0)
(93.9566 0 0)
(94.0096 0 0)
(94.0626 0 0)
(94.1156 0 0)
(94.1686 0 0)
(94.2216 0 0)
(94.2746 0 0)
(94.3276 0 0)
(94.3805 0 0)
(94.4335 0 0)
(94.4865 0 0)
(94.5395 0 0)
(94.5925 0 0)
(94.6455 0 0)
(94.6985 0 0)
(94.7515 0 0)
(94.8045 0 0)
(94.8575 0 0)
(94.9105 0 0)
(94.9635 0 0)
(95.0165 0 0)
(95.0695 0 0)
(95.1225 0 0)
(95.1755 0 0)
(95.2285 0 0)
(95.2815 0 0)
(95.3345 0 0)
(95.3875 0 0)
(95.4405 0 0)
(95.4935 0 0)
(95.5465 0 0)
(95.5995 0 0)
(95.6525 0 0)
(95.7055 0 0)
(95.7585 0 0)
(95.8115 0 0)
(95.8645 0 0)
(95.9175 0 0)
(95.9705 0 0)
(96.0235 0 0)
(96.0765 0 0)
(96.1295 0 0)
(96.1825 0 0)
(96.2355 0 0)
(96.2885 0 0)
(96.3416 0 0)
(96.3946 0 0)
(96.4476 0 0)
(96.5006 0 0)
(96.5536 0 0)
(96.6066 0 0)
(96.6596 0 0)
(96.7126 0 0)
(96.7656 0 0)
(96.8186 0 0)
(96.8716 0 0)
(96.9246 0 0)
(96.9776 0 0)
(97.0306 0 0)
(97.0836 0 0)
(97.1367 0 0)
(97.1897 0 0)
(97.2427 0 0)
(97.2957 0 0)
(97.3487 0 0)
(97.4017 0 0)
(97.4547 0 0)
(97.5077 0 0)
(97.5607 0 0)
(97.6137 0 0)
(97.6668 0 0)
(97.7198 0 0)
(97.7728 0 0)
(97.8258 0 0)
(97.8788 0 0)
(97.9318 0 0)
(97.9848 0 0)
(98.0378 0 0)
(98.0909 0 0)
(98.1439 0 0)
(98.1969 0 0)
(98.2499 0 0)
(98.3029 0 0)
(98.3559 0 0)
(98.4089 0 0)
(98.462 0 0)
(98.515 0 0)
(98.568 0 0)
(98.621 0 0)
(98.674 0 0)
(98.727 0 0)
(98.7801 0 0)
(98.8331 0 0)
(98.8861 0 0)
(98.9391 0 0)
(98.9921 0 0)
(99.0451 0 0)
(99.0982 0 0)
(99.1512 0 0)
(99.2042 0 0)
(99.2572 0 0)
(99.3102 0 0)
(99.3633 0 0)
(99.4163 0 0)
(99.4693 0 0)
(99.5223 0 0)
(99.5753 0 0)
(99.6284 0 0)
(99.6814 0 0)
(99.7344 0 0)
(99.7874 0 0)
(99.8404 0 0)
(99.8935 0 0)
(99.9465 0 0)
(99.9995 0 0)
(100.053 0 0)
(100.106 0 0)
(100.159 0 0)
(100.212 0 0)
(100.265 0 0)
(100.318 0 0)
(100.371 0 0)
(100.424 0 0)
(100.477 0 0)
(100.53 0 0)
(100.583 0 0)
(100.636 0 0)
(100.689 0 0)
(100.742 0 0)
(100.795 0 0)
(100.848 0 0)
(100.901 0 0)
(100.954 0 0)
(101.007 0 0)
(101.06 0 0)
(101.113 0 0)
(101.166 0 0)
(101.219 0 0)
(101.272 0 0)
(101.325 0 0)
(101.378 0 0)
(101.431 0 0)
(101.484 0 0)
(101.537 0 0)
(101.59 0 0)
(101.643 0 0)
(101.696 0 0)
(101.749 0 0)
(101.802 0 0)
(101.855 0 0)
(101.908 0 0)
(101.962 0 0)
(102.015 0 0)
(102.068 0 0)
(102.121 0 0)
(102.174 0 0)
(102.227 0 0)
(102.28 0 0)
(102.333 0 0)
(102.386 0 0)
(102.439 0 0)
(102.492 0 0)
(102.545 0 0)
(102.598 0 0)
(102.651 0 0)
(102.704 0 0)
(102.757 0 0)
(102.81 0 0)
(102.863 0 0)
(102.916 0 0)
(102.969 0 0)
(103.022 0 0)
(103.075 0 0)
(103.128 0 0)
(103.181 0 0)
(103.234 0 0)
(103.287 0 0)
(103.34 0 0)
(103.393 0 0)
(103.447 0 0)
(103.5 0 0)
(103.553 0 0)
(103.606 0 0)
(103.659 0 0)
(103.712 0 0)
(103.765 0 0)
(103.818 0 0)
(103.871 0 0)
(103.924 0 0)
(103.977 0 0)
(104.03 0 0)
(104.083 0 0)
(104.136 0 0)
(104.189 0 0)
(104.242 0 0)
(104.295 0 0)
(104.348 0 0)
(104.401 0 0)
(104.454 0 0)
(104.507 0 0)
(104.56 0 0)
(104.613 0 0)
(104.667 0 0)
(104.72 0 0)
(104.773 0 0)
(104.826 0 0)
(104.879 0 0)
(104.932 0 0)
(104.985 0 0)
(105.038 0 0)
(105.091 0 0)
(105.144 0 0)
(105.197 0 0)
(105.25 0 0)
(105.303 0 0)
(105.356 0 0)
(105.409 0 0)
(105.462 0 0)
(105.515 0 0)
(105.568 0 0)
(105.621 0 0)
(105.674 0 0)
(105.727 0 0)
(105.781 0 0)
(105.834 0 0)
(105.887 0 0)
(105.94 0 0)
(105.993 0 0)
(106.046 0 0)
(106.099 0 0)
(106.152 0 0)
(106.205 0 0)
(106.258 0 0)
(106.311 0 0)
(106.364 0 0)
(106.417 0 0)
(106.47 0 0)
(106.523 0 0)
(106.576 0 0)
(106.629 0 0)
(106.682 0 0)
(106.735 0 0)
(106.789 0 0)
(106.842 0 0)
(106.895 0 0)
(106.948 0 0)
(107.001 0 0)
(107.054 0 0)
(107.107 0 0)
(107.16 0 0)
(107.213 0 0)
(107.266 0 0)
(107.319 0 0)
(107.372 0 0)
(107.425 0 0)
(107.478 0 0)
(107.531 0 0)
(107.584 0 0)
(107.637 0 0)
(107.691 0 0)
(107.744 0 0)
(107.797 0 0)
(107.85 0 0)
(107.903 0 0)
(107.956 0 0)
(108.009 0 0)
(108.062 0 0)
(108.115 0 0)
(108.168 0 0)
(108.221 0 0)
(108.274 0 0)
(108.327 0 0)
(108.38 0 0)
(108.433 0 0)
(108.486 0 0)
(108.539 0 0)
(108.593 0 0)
(108.646 0 0)
(108.699 0 0)
(108.752 0 0)
(108.805 0 0)
(108.858 0 0)
(108.911 0 0)
(108.964 0 0)
(109.017 0 0)
(109.07 0 0)
(109.123 0 0)
(109.176 0 0)
(109.229 0 0)
(109.282 0 0)
(109.335 0 0)
(109.389 0 0)
(109.442 0 0)
(109.495 0 0)
(109.548 0 0)
(109.601 0 0)
(109.654 0 0)
(109.707 0 0)
(109.76 0 0)
(109.813 0 0)
(109.866 0 0)
(109.919 0 0)
(109.972 0 0)
(110.025 0 0)
(110.078 0 0)
(110.132 0 0)
(110.185 0 0)
(110.238 0 0)
(110.291 0 0)
(110.344 0 0)
(110.397 0 0)
(110.45 0 0)
(110.503 0 0)
(110.556 0 0)
(110.609 0 0)
(110.662 0 0)
(110.715 0 0)
(110.768 0 0)
(110.821 0 0)
(110.875 0 0)
(110.928 0 0)
(110.981 0 0)
(111.034 0 0)
(111.087 0 0)
(111.14 0 0)
(111.193 0 0)
(111.246 0 0)
(111.299 0 0)
(111.352 0 0)
(111.405 0 0)
(111.458 0 0)
(111.511 0 0)
(111.565 0 0)
(111.618 0 0)
(111.671 0 0)
(111.724 0 0)
(111.777 0 0)
(111.83 0 0)
(111.883 0 0)
(111.936 0 0)
(111.989 0 0)
(112.042 0 0)
(112.095 0 0)
(112.148 0 0)
(112.201 0 0)
(112.255 0 0)
(112.308 0 0)
(112.361 0 0)
(112.414 0 0)
(112.467 0 0)
(112.52 0 0)
(112.573 0 0)
(112.626 0 0)
(112.679 0 0)
(112.732 0 0)
(112.785 0 0)
(112.838 0 0)
(112.892 0 0)
(112.945 0 0)
(112.998 0 0)
(113.051 0 0)
(113.104 0 0)
(113.157 0 0)
(113.21 0 0)
(113.263 0 0)
(113.316 0 0)
(113.369 0 0)
(113.422 0 0)
(113.476 0 0)
(113.529 0 0)
(113.582 0 0)
(113.635 0 0)
(113.688 0 0)
(113.741 0 0)
(113.794 0 0)
(113.847 0 0)
(113.9 0 0)
(113.953 0 0)
(114.006 0 0)
(114.059 0 0)
(114.113 0 0)
(114.166 0 0)
(114.219 0 0)
(114.272 0 0)
(114.325 0 0)
(114.378 0 0)
(114.431 0 0)
(114.484 0 0)
(114.537 0 0)
(114.59 0 0)
(114.644 0 0)
(114.697 0 0)
(114.75 0 0)
(114.803 0 0)
(114.856 0 0)