/*--------------------------------*- C++ -*----------------------------------*\
  =========                 |
  \\      /  F ield         | OpenFOAM: The Open Source CFD Toolbox
   \\    /   O peration     | Website:  https://openfoam.org
    \\  /    A nd           | Version:  9
     \\/     M anipulation  |
\*---------------------------------------------------------------------------*/
FoamFile
{
    format      ascii;
    class       surfaceScalarField;
    location    "0.023";
    object      phi;
}
// * * * * * * * * * * * * * * * * * * * * * * * * * * * * * * * * * * * * * //

dimensions      [1 0 -1 0 0 0 0];

internalField   nonuniform List<scalar> 
99
(
79.4412
89.2419
98.9962
108.735
118.451
128.13
137.762
147.34
156.868
166.335
175.766
185.126
194.44
203.72
212.914
222.085
231.157
240.223
249.232
258.095
266.982
275.878
284.594
293.196
301.885
310.539
318.951
327.284
335.734
344.072
352.15
360.088
368.196
376.238
383.923
391.393
398.906
406.59
413.854
420.793
427.393
434.199
440.978
447.188
452.907
458.173
463.493
468.806
473.402
477.278
480.499
483.477
486.73
489.417
491.32
492.692
493.586
494.616
495.866
496.649
497.1
497.271
497.334
497.355
497.508
497.711
497.787
497.818
497.723
497.628
497.644
497.628
497.601
497.554
497.577
497.501
497.419
497.289
497.203
497.19
497.174
497.106
497.007
496.837
496.661
496.635
496.681
496.726
496.566
496.306
496.147
496.088
496.055
496.006
495.87
495.616
495.433
495.308
495.189
)
;

boundaryField
{
    sides
    {
        type            calculated;
        value           nonuniform List<scalar> 2(495.049 -69.5279);
    }
    empty
    {
        type            empty;
        value           nonuniform List<scalar> 0();
    }
}


// ************************************************************************* //
