/*--------------------------------*- C++ -*----------------------------------*\
  =========                 |
  \\      /  F ield         | OpenFOAM: The Open Source CFD Toolbox
   \\    /   O peration     | Website:  https://openfoam.org
    \\  /    A nd           | Version:  9
     \\/     M anipulation  |
\*---------------------------------------------------------------------------*/
FoamFile
{
    format      ascii;
    class       volScalarField;
    location    "0.023";
    object      T;
}
// * * * * * * * * * * * * * * * * * * * * * * * * * * * * * * * * * * * * * //

dimensions      [0 0 0 1 0 0 0];

internalField   nonuniform List<scalar> 
100
(
262.148
261.977
261.889
261.736
261.476
261.16
260.829
260.497
260.175
259.835
259.553
259.159
258.952
258.517
258.298
257.927
257.633
257.378
256.963
256.717
256.504
256.089
255.745
255.589
255.322
254.89
254.619
254.475
254.182
253.774
253.543
253.433
253.199
252.782
252.518
252.431
252.29
251.928
251.557
251.418
251.366
251.224
250.84
250.504
250.417
250.389
250.289
249.971
249.557
249.425
249.432
249.406
249.232
248.797
248.578
248.583
248.634
248.619
248.488
248.235
248.177
248.197
248.282
248.333
248.327
248.289
248.257
248.257
248.284
248.357
248.406
248.425
248.43
248.436
248.446
248.486
248.569
248.647
248.717
248.763
248.811
248.89
248.98
249.081
249.194
249.295
249.337
249.355
249.395
249.488
249.59
249.646
249.668
249.688
249.734
249.85
249.961
250.046
250.078
250.175
)
;

boundaryField
{
    sides
    {
        type            zeroGradient;
    }
    empty
    {
        type            empty;
    }
}


// ************************************************************************* //
