/*--------------------------------*- C++ -*----------------------------------*\
  =========                 |
  \\      /  F ield         | OpenFOAM: The Open Source CFD Toolbox
   \\    /   O peration     | Website:  https://openfoam.org
    \\  /    A nd           | Version:  9
     \\/     M anipulation  |
\*---------------------------------------------------------------------------*/
FoamFile
{
    format      ascii;
    class       surfaceScalarField;
    location    "0.024";
    object      phi_0;
}
// * * * * * * * * * * * * * * * * * * * * * * * * * * * * * * * * * * * * * //

dimensions      [1 0 -1 0 0 0 0];

internalField   nonuniform List<scalar> 
99
(
80.7498
89.6366
98.454
107.235
115.999
124.74
133.447
142.107
150.73
159.287
167.813
176.283
184.693
193.072
201.375
209.664
217.875
226.009
234.167
242.249
250.187
258.14
266.129
273.978
281.69
289.428
297.224
304.854
312.337
319.855
327.434
334.855
342.098
349.251
356.569
363.855
370.853
377.735
384.526
391.561
398.448
404.996
411.423
417.578
424.162
430.507
436.467
442.219
447.52
452.91
458.502
463.476
467.841
471.503
475.085
479.357
482.329
484.336
486.508
489.87
491.331
492.293
492.586
494.807
495.231
495.561
493.918
494.234
497.075
497.335
497.654
497.043
494.943
496.793
497.415
497.221
495.845
497.645
497.817
494.549
495.835
497.323
497.31
496.676
494.762
499.271
501.177
493.033
490.055
499.68
498.488
487.844
495.056
502.989
490.585
486.166
501.733
499.289
487.345
)
;

boundaryField
{
    sides
    {
        type            calculated;
        value           nonuniform List<scalar> 2(496.548 -71.7685);
    }
    empty
    {
        type            empty;
        value           nonuniform List<scalar> 0();
    }
}


// ************************************************************************* //
