/*--------------------------------*- C++ -*----------------------------------*\
  =========                 |
  \\      /  F ield         | OpenFOAM: The Open Source CFD Toolbox
   \\    /   O peration     | Website:  https://openfoam.org
    \\  /    A nd           | Version:  9
     \\/     M anipulation  |
\*---------------------------------------------------------------------------*/
FoamFile
{
    format      ascii;
    class       volVectorField;
    location    "0.024";
    object      U_0;
}
// * * * * * * * * * * * * * * * * * * * * * * * * * * * * * * * * * * * * * //

dimensions      [0 1 -1 0 0 0 0];

internalField   nonuniform List<vector> 
100
(
(37.9233 0 0)
(43.8791 0 0)
(49.9342 0 0)
(54.5857 0 0)
(59.4407 0 0)
(64.3618 0 0)
(69.2651 0 0)
(74.1567 0 0)
(79.0622 0 0)
(83.9511 0 0)
(88.867 0 0)
(93.7683 0 0)
(98.6698 0 0)
(103.591 0 0)
(108.487 0 0)
(113.412 0 0)
(118.308 0 0)
(123.208 0 0)
(128.141 0 0)
(133.025 0 0)
(137.892 0 0)
(142.813 0 0)
(147.721 0 0)
(152.561 0 0)
(157.409 0 0)
(162.303 0 0)
(167.167 0 0)
(171.966 0 0)
(176.769 0 0)
(181.602 0 0)
(186.4 0 0)
(191.129 0 0)
(195.843 0 0)
(200.566 0 0)
(205.262 0 0)
(209.896 0 0)
(214.463 0 0)
(219.013 0 0)
(223.533 0 0)
(227.984 0 0)
(232.36 0 0)
(236.644 0 0)
(240.881 0 0)
(245.021 0 0)
(249.053 0 0)
(253 0 0)
(256.808 0 0)
(260.516 0 0)
(264.054 0 0)
(267.392 0 0)
(270.593 0 0)
(273.631 0 0)
(276.464 0 0)
(279.044 0 0)
(281.345 0 0)
(283.426 0 0)
(285.285 0 0)
(286.88 0 0)
(288.23 0 0)
(289.368 0 0)
(290.277 0 0)
(290.957 0 0)
(291.461 0 0)
(291.853 0 0)
(292.175 0 0)
(292.403 0 0)
(292.523 0 0)
(292.577 0 0)
(292.638 0 0)
(292.699 0 0)
(292.731 0 0)
(292.74 0 0)
(292.721 0 0)
(292.708 0 0)
(292.722 0 0)
(292.726 0 0)
(292.7 0 0)
(292.671 0 0)
(292.65 0 0)
(292.587 0 0)
(292.522 0 0)
(292.506 0 0)
(292.485 0 0)
(292.435 0 0)
(292.357 0 0)
(292.31 0 0)
(292.312 0 0)
(292.215 0 0)
(292.019 0 0)
(291.952 0 0)
(291.959 0 0)
(291.796 0 0)
(291.671 0 0)
(291.744 0 0)
(291.702 0 0)
(291.473 0 0)
(291.514 0 0)
(291.689 0 0)
(291.584 0 0)
(291.477 0 0)
)
;

boundaryField
{
    sides
    {
        type            zeroGradient;
    }
    empty
    {
        type            empty;
    }
}


// ************************************************************************* //
