/*--------------------------------*- C++ -*----------------------------------*\
  =========                 |
  \\      /  F ield         | OpenFOAM: The Open Source CFD Toolbox
   \\    /   O peration     | Website:  https://openfoam.org
    \\  /    A nd           | Version:  9
     \\/     M anipulation  |
\*---------------------------------------------------------------------------*/
FoamFile
{
    format      ascii;
    class       surfaceScalarField;
    location    "0.004";
    object      phi;
}
// * * * * * * * * * * * * * * * * * * * * * * * * * * * * * * * * * * * * * //

dimensions      [1 0 -1 0 0 0 0];

internalField   nonuniform List<scalar> 
99
(
9.62785e-12
1.0445e-12
-1.89715e-12
0
1.91136e-12
2.18847e-12
-2.19558e-12
-1.91847e-12
4.05009e-13
4.62563e-12
2.10463e-11
1.13104e-10
5.99329e-10
3.09002e-09
1.54688e-08
7.50298e-08
3.52417e-07
1.60002e-06
7.01506e-06
2.9644e-05
0.000120581
0.000471107
0.00176478
0.00632243
0.02161
0.0702459
0.216427
0.629305
1.7181
4.37531
10.3055
22.2169
43.2306
73.0454
110.569
153.429
198.422
242.715
284.387
322.374
356.328
385.71
411.79
432.721
449.521
466.131
476.256
481.743
489.18
495.958
496.607
493.784
491.165
493.517
493.664
492.591
491.581
487.546
477.316
448.684
390.032
350
328.091
315.519
308.281
305.243
304.087
301.751
298.047
293.68
287.095
257.716
88.1581
21.6383
3.63952
0.555071
0.082806
0.012211
0.00177831
0.000255498
3.62093e-05
5.06201e-06
6.98253e-07
9.50635e-08
1.27783e-08
1.69632e-09
2.2226e-10
2.87046e-11
3.54605e-12
4.14779e-13
3.05977e-13
4.63629e-13
4.16556e-13
-2.93987e-13
-5.27578e-13
-3.07754e-13
1.9007e-13
2.62013e-13
-6.84786e-13
)
;

boundaryField
{
    sides
    {
        type            calculated;
        value           nonuniform List<scalar> 2(-1.05574e-12 -1.11701e-11);
    }
    empty
    {
        type            empty;
        value           nonuniform List<scalar> 0();
    }
}


// ************************************************************************* //
