/*--------------------------------*- C++ -*----------------------------------*\
  =========                 |
  \\      /  F ield         | OpenFOAM: The Open Source CFD Toolbox
   \\    /   O peration     | Website:  https://openfoam.org
    \\  /    A nd           | Version:  9
     \\/     M anipulation  |
\*---------------------------------------------------------------------------*/
FoamFile
{
    format      ascii;
    class       volScalarField;
    location    "0.021";
    object      ddt0(rho,K);
}
// * * * * * * * * * * * * * * * * * * * * * * * * * * * * * * * * * * * * * //

dimensions      [1 -1 -3 0 0 0 0];

internalField   nonuniform List<scalar> 
1000
(
2918.92
2584.91
2502.5
2359.36
2086.48
1760.57
1414.4
1035.03
609.822
139.585
-371.084
-919.224
-1510.66
-2144.41
-2819.47
-3535.61
-4293.69
-5093.01
-5933.7
-6816.64
-7740.6
-8705.36
-9712.67
-10762.2
-11852.5
-12983.3
-14155.4
-15369.7
-16626.6
-17925.3
-19265.4
-20647
-22069.8
-23533.9
-25039.6
-26587
-28175.9
-29806.3
-31478.4
-33192.3
-34948
-36745
-38583.5
-40463.7
-42385.8
-44349.6
-46355
-48401.7
-50489.8
-52619.3
-54790.2
-57002.8
-59257.1
-61553.4
-63891.6
-66271.6
-68693.2
-71156.6
-73661.5
-76208
-78795.6
-81424.5
-84094.6
-86806
-89559.2
-92354
-95190.7
-98069.3
-100990
-103952
-106955
-110001
-113087
-116215
-119385
-122595
-125847
-129141
-132476
-135852
-139271
-142730
-146232
-149774
-153359
-156984
-160651
-164360
-168110
-171901
-175734
-179608
-183523
-187480
-191477
-195516
-199596
-203717
-207880
-212083
-216328
-220614
-224942
-229310
-233720
-238170
-242661
-247194
-251767
-256382
-261037
-265733
-270470
-275248
-280066
-284925
-289824
-294763
-299743
-304763
-309823
-314925
-320068
-325253
-330480
-335750
-341063
-346418
-351817
-357257
-362739
-368261
-373823
-379423
-385062
-390738
-396451
-402201
-407990
-413813
-419683
-425577
-431536
-437495
-443560
-449566
-455758
-461796
-468112
-474215
-480593
-486874
-493165
-499565
-506028
-512522
-518998
-525558
-532119
-538816
-545304
-552317
-558597
-565882
-572343
-579283
-586490
-592781
-600477
-607040
-613943
-621698
-627977
-635767
-642941
-649569
-657770
-664401
-671816
-679737
-686322
-694527
-701873
-708788
-717506
-724283
-731683
-740656
-747106
-754940
-763938
-770475
-778734
-787280
-794048
-803005
-811117
-817721
-827342
-835738
-841911
-851632
-860279
-866840
-876485
-884907
-891734
-901918
-910659
-916594
-926757
-936379
-942654
-952353
-962198
-968458
-978044
-988967
-995275
-1.00334e+06
-1.0149e+06
-1.0224e+06
-1.02996e+06
-1.04183e+06
-1.04986e+06
-1.0561e+06
-1.06763e+06
-1.07781e+06
-1.08404e+06
-1.09425e+06
-1.10572e+06
-1.11195e+06
-1.12002e+06
-1.1332e+06
-1.14183e+06
-1.14761e+06
-1.1596e+06
-1.17065e+06
-1.17608e+06
-1.18582e+06
-1.19961e+06
-1.2067e+06
-1.21299e+06
-1.2263e+06
-1.237e+06
-1.24196e+06
-1.25264e+06
-1.26696e+06
-1.2736e+06
-1.2799e+06
-1.2939e+06
-1.30516e+06
-1.30976e+06
-1.31984e+06
-1.33506e+06
-1.34262e+06
-1.34783e+06
-1.36154e+06
-1.37479e+06
-1.37957e+06
-1.38751e+06
-1.40343e+06
-1.41363e+06
-1.41748e+06
-1.42921e+06
-1.44519e+06
-1.45213e+06
-1.4571e+06
-1.4716e+06
-1.4861e+06
-1.49094e+06
-1.49765e+06
-1.51379e+06
-1.52653e+06
-1.53042e+06
-1.53909e+06
-1.55593e+06
-1.56689e+06
-1.57054e+06
-1.58099e+06
-1.59804e+06
-1.60761e+06
-1.61135e+06
-1.62309e+06
-1.64008e+06
-1.64877e+06
-1.65275e+06
-1.66535e+06
-1.68226e+06
-1.69043e+06
-1.69455e+06
-1.70754e+06
-1.72443e+06
-1.73245e+06
-1.73661e+06
-1.74959e+06
-1.76662e+06
-1.77494e+06
-1.77901e+06
-1.7916e+06
-1.80889e+06
-1.81791e+06
-1.82177e+06
-1.83353e+06
-1.85103e+06
-1.86111e+06
-1.86481e+06
-1.87529e+06
-1.89282e+06
-1.9044e+06
-1.90819e+06
-1.91698e+06
-1.93416e+06
-1.94749e+06
-1.95188e+06
-1.95872e+06
-1.97479e+06
-1.98995e+06
-1.99565e+06
-2.00052e+06
-2.0146e+06
-2.03119e+06
-2.039e+06
-2.04241e+06
-2.05355e+06
-2.07063e+06
-2.08118e+06
-2.08419e+06
-2.09174e+06
-2.10776e+06
-2.1211e+06
-2.1251e+06
-2.12908e+06
-2.14208e+06
-2.15722e+06
-2.16363e+06
-2.16501e+06
-2.1732e+06
-2.18794e+06
-2.19728e+06
-2.19784e+06
-2.20034e+06
-2.21145e+06
-2.22252e+06
-2.22408e+06
-2.22141e+06
-2.22557e+06
-2.23496e+06
-2.23797e+06
-2.23176e+06
-2.22676e+06
-2.22943e+06
-2.23155e+06
-2.22334e+06
-2.20916e+06
-2.20013e+06
-2.19592e+06
-2.18527e+06
-2.16372e+06
-2.14029e+06
-2.12297e+06
-2.10595e+06
-2.07856e+06
-2.04184e+06
-2.00669e+06
-1.9767e+06
-1.94253e+06
-1.89639e+06
-1.84401e+06
-1.79571e+06
-1.75077e+06
-1.69865e+06
-1.6353e+06
-1.56946e+06
-1.50969e+06
-1.45184e+06
-1.38568e+06
-1.31074e+06
-1.23752e+06
-1.17209e+06
-1.1077e+06
-1.03566e+06
-958544
-886618
-823618
-762065
-694306
-624162
-562012
-509978
-459188
-403113
-346933
-300063
-263120
-227221
-186442
-146108
-115078
-93256.1
-71977.8
-45686.9
-19071.5
-709.464
8860.64
18414.4
33957.1
50656.2
60245.6
62183.1
63982.5
71659.8
82336.4
87853.8
85419.6
81886.5
85132.5
92931.2
96076.1
91733
86511.3
86560.4
91108.5
94498.8
91663.2
84392.1
80947.9
84869.5
89255.1
86808.2
79432.4
74540.3
76200.5
80775.9
80673.8
73984
67463.1
67167.2
71001.7
72682.7
68690
61446.3
57647.3
60424.3
64302.5
62501.2
55649.6
49836.6
49836.5
54224.8
55762.3
50315.4
42958
40634.1
43657.5
46856.6
44935.2
38075.1
32681.1
33236
36904.8
38203.7
34232.5
27130.4
23566
26687.3
30781.4
29322.4
23089.3
17561.3
17172.5
21248.9
23850.1
20519
13772.5
9879.54
12195
17142.7
17420.9
11620.1
6142.66
5767.04
9121.41
12227.1
11220.5
5819.4
1319.41
2222.05
6664.85
9426.63
6858.89
666.639
-2339.59
1184.89
6318.46
6977.13
2407.24
-2873.67
-3051.85
1759.8
5566.58
5119.17
-1099.74
-4549.85
-1468.35
1472.41
2513.28
5185.54
211.583
-4345.14
-1651.61
-140.428
702.768
1407.27
1521.73
-87.2401
-971.844
-215.009
-113.194
-115.186
1634.91
152.525
-530.709
1744.01
-1068.51
-2919.76
-1212.14
4340.14
-227.974
-5323.96
471.737
8120.62
7147.06
-2971.85
-3428.61
-2085.85
-1425.43
-954.174
-166.197
-268.829
-53.4588
150.287
730.909
359.358
-24.8485
-950.836
-2948.12
-4299.19
-6389.38
-5886.19
1727.11
19055.7
12761.3
-8418.14
-11036.9
-5157.53
6520.98
14373.4
1784.15
-7997.55
-1681.23
10048
12496.1
187.551
-7736
-5439.69
-3123.69
-1787.25
-1083.62
-720.009
-422.785
-257.86
-123.873
160.027
504.623
670.458
698.647
519.038
143.625
-202.202
-235.365
-525.039
-741.694
-810.239
-924.461
-1827.91
-3047.46
-4487.22
-6056.61
-4313.82
5942.13
13700.7
9357.49
1426.69
-2336.33
2961.83
7437.86
5434.26
-164.186
-4115.94
-4040.65
-3955.2
-3925.4
-3968.54
-3779.27
-3536.79
-3383.24
-3134.55
-3209.29
-2224.52
2290.37
4979.62
1465.05
-1762.44
3319.24
7048.83
4266.38
-541.458
-999.111
5077.36
5845.55
1116.43
-3160.1
1419.05
5811.32
3920.07
-1438.45
-4194.84
266.113
5578.25
4008.89
-2517.74
-4646.47
1723.36
6102.57
4098.16
-2767.76
-6987.99
-3515.26
4695.31
7325.38
5230.42
-4259.69
-11663.5
-10684.2
-9450.95
-6874.45
166.775
7082.18
6615.38
4724.62
1532.11
-1234.84
1861.54
4211.79
3181.3
868.442
-2165.56
-355.335
4546.05
4946.47
2944.14
-3384.11
-6462.03
-466.413
8291.23
6768.41
-2845.86
-9376.74
-5797.45
3579.79
9789.56
6842.41
-2858.82
-9372.22
-7055.59
-3272.94
327.477
1234.35
222.745
1705.87
1646.83
265.676
109.657
1184.85
1202.13
-263.513
-28.083
1744.62
813.145
-925.766
215.148
1609.01
272.275
-712.849
697.556
1510.8
688.141
-397.857
1201.14
2317.26
414.771
-659.175
1195.49
1978.42
463.424
-147.771
815.09
1388.24
261.418
-148.814
1309.56
368.756
-352.878
549.414
1108.93
-3.66759
169.203
8.73728
2204.19
996.264
-1798.62
-139.789
1625.67
620.513
-105.255
-704.619
912.5
2604.2
93.3034
-1327.5
820.826
1984.91
114.596
-806.653
999.309
1755.82
-93.7543
-902.453
-157.47
1956.91
1332.15
-953.559
-277.362
2207.83
1557.31
-1300.39
-1131.55
1262.61
2424.91
241.782
-1520.54
-440.71
2092.36
1172.37
-645.762
-243.02
2160.68
2145.12
-863.461
-1657.22
1316.19
3463.59
1426.17
-2410.99
-1768.35
2631.4
3925.81
130.18
-3560.79
-335.648
3709.12
2951.48
53.9224
-2714.46
-254.534
3853.17
1295.24
-3128.73
-148.381
3746.89
4733.09
1347.71
-4419.6
-2183.06
4145.6
3886.24
-1100.16
-3837.22
774.358
4706.74
3193.09
-2731
-3077.3
1917.33
5067.46
1190.07
-3185.39
-1407.4
3328.47
5167.31
-76.6528
-3924.78
-398.093
3788.67
2974.74
-2784.69
-3247.48
2253.66
4480.63
2359.51
-2396.4
-2270.18
3399.33
2936.31
-1876.55
-1402.14
2325.22
3693.95
-625.706
-1036.54
1633.57
2560.34
-831.351
844.685
3899.05
-1327.68
-922.715
4499.52
661.804
-4434.7
3755.56
3767.02
-6626.97
-3143.04
8116.29
6552.6
-12258.7
-8112.94
13915
7119.82
-18199.7
-1256.98
19589.8
-12191.4
-11301.7
21338.6
1481.32
-30922.9
20880.4
34629.9
-52354
-14115
54837.1
-3994.34
-66413.1
15026.1
84271.1
-78202.8
-52331
93205.6
14499.9
-118733
17758.7
148209
-116727
-119144
156892
71417.8
-233246
-10615.1
243383
-77483.1
-266576
145989
273510
-364650
-128822
326814
7475.7
-424163
161892
329477
-456012
-59656.9
446963
-380372
-152735
555567
-197036
-512186
500162
235222
-697911
122317
815933
-736559
-350218
846647
35610.2
-947486
176823
1.12115e+06
-877191
-777391
981370
390470
-1.25184e+06
-59891.9
1.27888e+06
-412425
-1.18488e+06
724374
1.0417e+06
-1.38787e+06
-375035
1.2072e+06
-11830.8
-1.27258e+06
295052
1.2598e+06
-1.18777e+06
-593559
1.01511e+06
138548
-1.19326e+06
338878
960489
-1.00885e+06
-274635
1.04508e+06
-255570
-839747
682069
397025
-883149
226463
633417
-708825
-78763.8
669747
-539383
-138846
607398
-356853
-155462
529203
-291478
-225370
407616
-62180.5
-323510
289133
117042
-337708
168097
218335
-259134
-7265.44
301236
-153858
-133495
191216
54166.4
-169312
84259.2
132305
-130275
-34771.3
113768
-13609
-59541.5
70226.9
46560.5
-48790
17180.6
59419
-20596.8
-22871.4
35722.7
23781.4
-24953.9
11618.2
37789.3
3396.85
-10781.5
27879.9
23632.5
-8576.92
5834.05
25888.9
7183.62
-1918.31
25311
7986.25
-6280.39
12414
18222.2
-2807.46
2322.1
)
;

boundaryField
{
    sides
    {
        type            calculated;
        value           nonuniform List<scalar> 2(2322.1 2918.92);
    }
    empty
    {
        type            empty;
    }
}


// ************************************************************************* //
