/*--------------------------------*- C++ -*----------------------------------*\
  =========                 |
  \\      /  F ield         | OpenFOAM: The Open Source CFD Toolbox
   \\    /   O peration     | Website:  https://openfoam.org
    \\  /    A nd           | Version:  9
     \\/     M anipulation  |
\*---------------------------------------------------------------------------*/
FoamFile
{
    format      ascii;
    class       volScalarField;
    location    "0.021";
    object      ddt0(rho);
}
// * * * * * * * * * * * * * * * * * * * * * * * * * * * * * * * * * * * * * //

dimensions      [1 -3 -1 0 0 0 0];

internalField   nonuniform List<scalar> 
1000
(
-33.1459
-33.1284
-33.0924
-33.063
-33.0805
-33.1208
-33.1562
-33.1718
-33.1718
-33.1797
-33.2077
-33.2069
-33.2008
-33.1953
-33.1906
-33.1863
-33.1823
-33.1782
-33.1741
-33.1702
-33.1661
-33.1619
-33.1578
-33.1538
-33.1496
-33.1452
-33.1408
-33.1364
-33.1321
-33.1278
-33.1234
-33.119
-33.1145
-33.1099
-33.1053
-33.1007
-33.096
-33.0912
-33.0865
-33.0817
-33.0769
-33.072
-33.0671
-33.0622
-33.0572
-33.0522
-33.0471
-33.042
-33.0369
-33.0317
-33.0264
-33.0211
-33.0158
-33.0104
-33.0051
-32.9997
-32.9942
-32.9888
-32.9832
-32.9777
-32.9721
-32.9664
-32.9606
-32.9548
-32.949
-32.9431
-32.9372
-32.9313
-32.9254
-32.9194
-32.9134
-32.9073
-32.9012
-32.895
-32.8888
-32.8826
-32.8762
-32.8699
-32.8635
-32.857
-32.8506
-32.8441
-32.8375
-32.8309
-32.8243
-32.8176
-32.8109
-32.8041
-32.7973
-32.7904
-32.7835
-32.7766
-32.7696
-32.7625
-32.7555
-32.7483
-32.7411
-32.7339
-32.7266
-32.7192
-32.7119
-32.7044
-32.697
-32.6894
-32.6819
-32.6743
-32.6666
-32.6589
-32.6511
-32.6433
-32.6354
-32.6275
-32.6196
-32.6116
-32.6036
-32.5956
-32.5875
-32.5794
-32.5713
-32.5632
-32.555
-32.5467
-32.5384
-32.5299
-32.5214
-32.5127
-32.5038
-32.4949
-32.4858
-32.4766
-32.4672
-32.4579
-32.4485
-32.4391
-32.4297
-32.4204
-32.4112
-32.4018
-32.393
-32.3832
-32.3751
-32.3641
-32.3579
-32.3436
-32.3418
-32.321
-32.3269
-32.2973
-32.3104
-32.2779
-32.2842
-32.2686
-32.2552
-32.2479
-32.2397
-32.2276
-32.2154
-32.208
-32.1943
-32.1928
-32.1566
-32.193
-32.1154
-32.1764
-32.1124
-32.1128
-32.1454
-32.045
-32.1345
-32.0607
-32.0343
-32.113
-31.9836
-32.0543
-32.0414
-31.9504
-32.0519
-31.9572
-31.9548
-32.0074
-31.8921
-31.967
-31.9372
-31.8506
-31.9688
-31.8619
-31.8205
-31.9536
-31.8001
-31.7929
-31.9101
-31.7575
-31.7845
-31.8387
-31.7044
-31.7929
-31.7898
-31.6237
-31.7659
-31.784
-31.5726
-31.7006
-31.7328
-31.5649
-31.6714
-31.6619
-31.497
-31.6503
-31.672
-31.427
-31.551
-31.6386
-31.4339
-31.504
-31.584
-31.3617
-31.4267
-31.6005
-31.3765
-31.3
-31.507
-31.3762
-31.257
-31.4691
-31.3855
-31.1443
-31.3252
-31.4182
-31.1649
-31.2179
-31.387
-31.1434
-31.0476
-31.328
-31.2509
-30.9824
-31.1592
-31.2614
-30.9631
-30.9695
-31.2532
-31.0707
-30.8346
-31.0726
-31.1328
-30.8069
-30.851
-31.1387
-30.9301
-30.6893
-30.9435
-31.0262
-30.6779
-30.6727
-30.9923
-30.8347
-30.527
-30.7406
-30.9273
-30.5921
-30.4531
-30.7859
-30.7748
-30.3945
-30.4664
-30.789
-30.5898
-30.2709
-30.495
-30.7202
-30.4012
-30.1835
-30.487
-30.6033
-30.2353
-30.1245
-30.4527
-30.4671
-30.0903
-30.0705
-30.3959
-30.331
-29.9636
-30.005
-30.3136
-30.2013
-29.8513
-29.9303
-30.2227
-30.0839
-29.7459
-29.8378
-30.1178
-29.9722
-29.641
-29.7268
-30.0022
-29.8703
-29.5396
-29.6016
-29.8781
-29.7776
-29.4434
-29.4637
-29.7409
-29.6881
-29.3536
-29.3158
-29.5856
-29.5969
-29.2735
-29.1637
-29.4104
-29.4945
-29.2041
-29.0161
-29.2117
-29.3701
-29.1416
-28.8811
-28.9942
-29.2092
-29.0743
-28.7667
-28.7667
-29.0016
-28.9833
-28.6748
-28.5452
-28.7434
-28.8428
-28.5921
-28.3457
-28.4424
-28.6242
-28.488
-28.1742
-28.1183
-28.3091
-28.313
-28.0123
-27.7938
-27.8952
-28.0095
-27.8052
-27.4721
-27.3983
-27.5283
-27.4631
-27.1109
-26.8314
-26.8462
-26.8787
-26.6051
-26.1769
-25.967
-25.9665
-25.8078
-25.351
-24.8951
-24.7008
-24.5823
-24.2014
-23.5959
-23.1148
-22.8712
-22.5713
-21.9736
-21.2578
-20.7433
-20.4031
-19.9111
-19.1422
-18.3597
-17.8169
-17.3809
-16.7387
-15.8716
-15.0856
-14.5513
-14.0597
-13.3479
-12.4852
-11.7636
-11.2819
-10.8148
-10.1357
-9.34991
-8.74904
-8.38699
-8.00609
-7.419
-6.7712
-6.32593
-6.09786
-5.8372
-5.38016
-4.8773
-4.5756
-4.47282
-4.33163
-4.00288
-3.61927
-3.41808
-3.41563
-3.37564
-3.13926
-2.84141
-2.70778
-2.75438
-2.78146
-2.63124
-2.38397
-2.25898
-2.33112
-2.41971
-2.31873
-2.08949
-1.97544
-2.05086
-2.14292
-2.09241
-1.9212
-1.77719
-1.79151
-1.91738
-1.9421
-1.77597
-1.59715
-1.59222
-1.71165
-1.76641
-1.65401
-1.46771
-1.39967
-1.49728
-1.58973
-1.52529
-1.35747
-1.24387
-1.27183
-1.38026
-1.40258
-1.26181
-1.09428
-1.06743
-1.16497
-1.23655
-1.16527
-0.986869
-0.878872
-0.941798
-1.05118
-1.03796
-0.895215
-0.74901
-0.727525
-0.825816
-0.888873
-0.80893
-0.654895
-0.558879
-0.590232
-0.697276
-0.720239
-0.584242
-0.426308
-0.402223
-0.493026
-0.568015
-0.521951
-0.371279
-0.257261
-0.285516
-0.396138
-0.440626
-0.339848
-0.178655
-0.129649
-0.225943
-0.316261
-0.287981
-0.173674
-0.0671517
-0.059292
-0.156628
-0.234521
-0.187114
-0.0582483
0.0293828
-0.00984247
-0.135795
-0.188482
-0.0893367
0.0461749
0.0752805
-0.0196084
-0.132083
-0.12741
-0.00311899
0.0923149
0.0820174
-0.0486461
-0.11379
-0.0520058
0.0240594
0.0583104
0.0854233
-0.00887412
-0.0740158
-0.0277701
0.00275456
0.0267471
0.03424
0.0255966
-0.0038807
-0.0128074
0.00120408
0.00357656
0.010401
0.0390749
0.0065952
-0.00602868
0.0245235
-0.0207744
-0.0175818
0.0150636
0.0776522
-0.00743869
-0.0667413
0.0153334
0.0926
0.0658418
-0.0594205
-0.0191632
-0.0127736
-0.0113619
-0.0052092
0.00961013
0.0091574
0.0126928
0.00900021
0.0155155
0.0051183
0.00466873
-0.00329695
-0.0187002
-0.0271362
-0.0495768
-0.0414117
0.015596
0.23917
0.112987
-0.132477
-0.0925093
-0.0339173
0.0914098
0.157126
-0.025316
-0.0959569
-0.000719898
0.114687
0.126266
-0.0268329
-0.0841566
-0.0316037
-0.0150017
-0.00636608
-0.00215471
-0.000410848
0.00261443
0.00346459
0.00351714
0.00565282
0.00838255
0.00977984
0.00943669
0.0079606
0.00487768
0.0026137
0.00349107
-0.000853986
-0.0023532
-0.00374101
-0.00306735
-0.0132439
-0.0207648
-0.0374371
-0.0538197
-0.0346188
0.0712638
0.141734
0.0721181
-0.00677868
-0.0311109
0.0426495
0.0796305
0.0465429
-0.00931781
-0.0396696
-0.0251136
-0.0253496
-0.0249004
-0.0257221
-0.0244721
-0.0232132
-0.0218436
-0.0215549
-0.0261667
-0.0192445
0.0340724
0.053984
-0.000226904
-0.0302844
0.0494731
0.0742977
0.0295514
-0.014192
-0.0135033
0.0676749
0.0556872
-0.00393897
-0.0410632
0.0330946
0.0652322
0.0319721
-0.0205765
-0.0430905
0.0135491
0.0712211
0.0395433
-0.0373277
-0.0481882
0.0375392
0.0689795
0.0355799
-0.0321666
-0.0678159
-0.0266544
0.0725971
0.0740779
0.0507768
-0.0507025
-0.113325
-0.0743726
-0.071542
-0.054591
0.0178928
0.0807501
0.0519657
0.0386584
0.0072899
-0.0191514
0.0323323
0.0451453
0.0260933
0.012664
-0.0289059
-0.00399145
0.0656576
0.0454149
0.0250805
-0.0379398
-0.0650205
0.00525053
0.11003
0.0648075
-0.0479731
-0.0932754
-0.0388644
0.0571044
0.109621
0.0611251
-0.0392342
-0.0884724
-0.0452206
-0.0173823
0.0135092
0.0172232
0.00088768
0.0258162
0.0189182
0.00246283
0.00374101
0.0174098
0.016908
-0.00335026
0.0017122
0.0275534
0.0106889
-0.0105681
0.0097865
0.0230079
0.00133142
-0.00559196
0.0143969
0.0202832
0.00939052
-0.0034659
0.0219767
0.0304017
0.00271254
-0.00531726
0.0209047
0.0266087
0.00603915
0.00197913
0.0148132
0.0208663
0.0054155
0.00163104
0.0230179
0.00555209
-0.000248913
0.010313
0.0171508
-0.000345756
0.0101663
0.00303622
0.0381033
0.0169086
-0.0213721
0.00570604
0.0217451
0.00271844
0.0023742
-0.00181287
0.0232783
0.0399545
0.000452385
-0.0108096
0.0193333
0.027926
0.00149
-0.00461895
0.0191883
0.0253275
-0.00035764
-0.00462141
0.00232701
0.030926
0.0206402
-0.0109438
-0.000206257
0.0351411
0.0230811
-0.016214
-0.00544524
0.0245434
0.0316095
0.00181391
-0.0125323
0.00133032
0.0327017
0.0113597
-0.0046318
0.0053238
0.0338641
0.0297006
-0.0102086
-0.0100201
0.033178
0.0482948
0.0159179
-0.024155
-0.0078186
0.0411396
0.0441207
-0.000888827
-0.0384434
0.0112604
0.0490757
0.0257432
0.00684207
-0.0229062
0.00623785
0.0567114
0.0137586
-0.0376589
0.0161509
0.050044
0.0556776
0.0206548
-0.0498108
-0.011566
0.0671892
0.0416747
-0.0181387
-0.0364566
0.0292253
0.059982
0.0359064
-0.0317639
-0.0195098
0.0327494
0.0619501
0.00859072
-0.0339406
-6.68712e-05
0.0531669
0.0646345
-0.00966135
-0.038703
0.0175251
0.0533693
0.0337656
-0.0290282
-0.0236778
0.0372158
0.0526211
0.0286547
-0.0197855
-0.00920397
0.0599414
0.0373112
-0.0209955
5.52619e-05
0.0391147
0.0544526
-0.00684366
0.00333398
0.0327073
0.0401633
-0.00884068
0.0287984
0.0700621
-0.0139435
0.0133354
0.0771195
0.0137903
-0.0438307
0.07994
0.0543116
-0.0892589
0.00290169
0.130232
0.0963507
-0.150944
-0.0254374
0.239605
0.0847989
-0.212327
0.0910368
0.315493
-0.197243
-0.0537381
0.324498
0.0197707
-0.366079
0.429065
0.5045
-0.795899
0.13631
0.774932
-0.112612
-0.68312
0.408175
1.32175
-1.31798
-0.204505
1.43741
0.00829071
-1.33916
0.567152
2.27532
-1.97631
-0.952479
2.62261
0.548511
-2.98775
0.888605
3.36725
-1.21052
-2.85881
2.85216
3.79942
-5.82874
0.386904
4.74461
-0.0775639
-4.92785
3.6781
4.56393
-7.2702
1.52314
7.29199
-6.50481
-0.43577
8.42792
-3.9773
-5.41154
8.53816
2.14092
-9.51123
3.6763
12.3264
-13.1653
-0.694758
11.759
-1.45312
-10.7269
4.19473
16.763
-15.7988
-6.09401
15.9475
1.78038
-16.1873
3.58552
17.6808
-7.83965
-13.5676
13.7282
13.2897
-22.8164
2.31987
15.8503
-2.68396
-14.6139
6.89851
18.4126
-21.3654
-1.56956
14.7472
-0.38488
-15.4663
8.23053
13.4375
-17.1246
0.270608
14.7821
-6.39156
-9.38565
12.2355
4.04747
-12.9348
5.84571
8.47492
-12.5071
1.49293
10.2146
-10.2117
0.187337
9.18383
-7.15015
-0.47824
8.3354
-6.03049
-1.82847
5.90993
-2.68899
-4.05769
4.94883
0.75421
-4.83126
3.33608
2.248
-4.43808
0.761591
4.44464
-3.31742
-1.17881
2.76976
0.19871
-2.40527
1.63963
1.57137
-2.22972
0.0779088
1.59269
-0.62152
-0.753012
1.07679
0.358022
-0.824339
0.343166
0.757588
-0.457221
-0.211936
0.552605
0.230256
-0.373734
0.288654
0.4573
0.0161126
-0.101075
0.469796
0.294404
-0.125813
0.181477
0.390722
0.110778
0.0225277
0.46915
0.123009
-0.00487419
0.263633
0.313648
0.00264505
0.162557
)
;

boundaryField
{
    sides
    {
        type            calculated;
        value           nonuniform List<scalar> 2(0.162557 -33.1459);
    }
    empty
    {
        type            empty;
    }
}


// ************************************************************************* //
