/*--------------------------------*- C++ -*----------------------------------*\
  =========                 |
  \\      /  F ield         | OpenFOAM: The Open Source CFD Toolbox
   \\    /   O peration     | Website:  https://openfoam.org
    \\  /    A nd           | Version:  9
     \\/     M anipulation  |
\*---------------------------------------------------------------------------*/
FoamFile
{
    format      ascii;
    class       volScalarField;
    location    "0.021";
    object      p;
}
// * * * * * * * * * * * * * * * * * * * * * * * * * * * * * * * * * * * * * //

dimensions      [1 -1 -2 0 0 0 0];

internalField   nonuniform List<scalar> 
1000
(
38910.3
38901
38892.4
38884.7
38877.2
38869.5
38861.7
38854
38846.2
38838.4
38830.7
38822.9
38815.1
38807.3
38799.4
38791.6
38783.7
38775.9
38768
38760.1
38752.2
38744.3
38736.4
38728.5
38720.6
38712.6
38704.7
38696.7
38688.7
38680.7
38672.7
38664.7
38656.6
38648.6
38640.5
38632.5
38624.4
38616.3
38608.2
38600.1
38591.9
38583.8
38575.6
38567.5
38559.3
38551.1
38542.9
38534.7
38526.4
38518.2
38509.9
38501.6
38493.4
38485.1
38476.8
38468.4
38460.1
38451.7
38443.4
38435
38426.6
38418.2
38409.8
38401.4
38392.9
38384.5
38376
38367.5
38359
38350.5
38342
38333.4
38324.9
38316.3
38307.7
38299.1
38290.5
38281.9
38273.2
38264.6
38255.9
38247.2
38238.6
38229.8
38221.1
38212.4
38203.6
38194.9
38186.1
38177.3
38168.5
38159.6
38150.8
38141.9
38133.1
38124.2
38115.3
38106.4
38097.4
38088.5
38079.5
38070.5
38061.6
38052.5
38043.5
38034.5
38025.4
38016.4
38007.3
37998.2
37989.1
37979.9
37970.8
37961.6
37952.5
37943.3
37934
37924.8
37915.6
37906.3
37897
37887.7
37878.4
37869.1
37859.8
37850.4
37841
37831.6
37822.2
37812.8
37803.4
37793.9
37784.5
37775
37765.5
37756
37746.5
37736.9
37727.4
37717.8
37708.2
37698.6
37688.9
37679.3
37669.6
37659.9
37650.2
37640.5
37630.8
37621
37611.2
37601.4
37591.6
37581.8
37571.9
37562.1
37552.2
37542.3
37532.4
37522.4
37512.5
37502.5
37492.5
37482.5
37472.5
37462.5
37452.4
37442.3
37432.2
37422.1
37412
37401.8
37391.6
37381.5
37371.2
37361
37350.8
37340.5
37330.2
37319.9
37309.6
37299.3
37288.9
37278.5
37268.1
37257.7
37247.3
37236.8
37226.3
37215.8
37205.3
37194.8
37184.2
37173.6
37163
37152.4
37141.8
37131.1
37120.5
37109.8
37099
37088.3
37077.5
37066.8
37056
37045.1
37034.3
37023.4
37012.5
37001.6
36990.7
36979.8
36968.8
36957.8
36946.8
36935.8
36924.7
36913.6
36902.5
36891.4
36880.3
36869.1
36857.9
36846.7
36835.5
36824.2
36813
36801.7
36790.3
36779
36767.6
36756.2
36744.8
36733.4
36721.9
36710.4
36698.9
36687.4
36675.8
36664.3
36652.6
36641
36629.4
36617.7
36606
36594.3
36582.5
36570.7
36558.9
36547.1
36535.3
36523.4
36511.5
36499.5
36487.6
36475.6
36463.6
36451.6
36439.5
36427.4
36415.3
36403.2
36391
36378.8
36366.6
36354.4
36342.1
36329.8
36317.5
36305.1
36292.7
36280.3
36267.9
36255.4
36242.9
36230.4
36217.9
36205.3
36192.7
36180.1
36167.4
36154.7
36142
36129.3
36116.5
36103.7
36090.8
36078
36065.1
36052.2
36039.2
36026.3
36013.3
36000.2
35987.2
35974.1
35961
35947.8
35934.6
35921.4
35908.2
35894.9
35881.6
35868.3
35854.9
35841.6
35828.1
35814.7
35801.2
35787.7
35774.2
35760.6
35747
35733.4
35719.7
35706
35692.3
35678.5
35664.7
35650.9
35637
35623.1
35609.1
35595.1
35581.1
35567.1
35553
35538.8
35524.6
35510.4
35496.1
35481.8
35467.4
35453
35438.5
35423.9
35409.3
35394.6
35379.9
35365
35350.1
35335.1
35320
35304.8
35289.5
35274.1
35258.5
35242.8
35226.9
35210.9
35194.6
35178.2
35161.5
35144.6
35127.4
35109.9
35092.1
35073.9
35055.3
35036.3
35016.9
34997
34976.5
34955.4
34933.8
34911.4
34888.4
34864.7
34840.1
34814.8
34788.6
34761.5
34733.4
34704.5
34674.5
34643.5
34611.5
34578.4
34544.3
34509.2
34472.9
34435.7
34397.4
34358.1
34317.8
34276.5
34234.4
34191.3
34147.4
34102.7
34057.2
34011.1
33964.3
33916.9
33869
33820.5
33771.7
33722.4
33672.9
33623
33572.9
33522.7
33472.3
33421.7
33371.1
33320.5
33269.9
33219.3
33168.7
33118.3
33067.9
33017.7
32967.6
32917.7
32868
32818.5
32769.2
32720.1
32671.3
32622.7
32574.4
32526.4
32478.7
32431.2
32384.1
32337.3
32290.8
32244.7
32198.9
32153.5
32108.4
32063.8
32019.5
31975.7
31932.2
31889.2
31846.6
31804.5
31762.9
31721.7
31681
31640.8
31601.2
31562
31523.5
31485.4
31448
31411.1
31374.9
31339.2
31304.2
31269.9
31236.2
31203.1
31170.8
31139.2
31108.2
31078.1
31048.6
31019.9
30992
30964.9
30938.5
30913
30888.2
30864.3
30841.2
30818.9
30797.4
30776.8
30757
30738
30719.9
30702.6
30686.1
30670.4
30655.5
30641.4
30628.1
30615.5
30603.7
30592.6
30582.2
30572.5
30563.5
30555.1
30547.3
30540.2
30533.6
30527.5
30522
30516.9
30512.3
30508.2
30504.4
30501.1
30498.1
30495.4
30493
30490.9
30489.1
30487.5
30486.1
30485
30484
30483.1
30482.4
30481.8
30481.3
30480.9
30480.6
30480.4
30480.2
30480.1
30480
30479.9
30479.9
30480
30480
30480
30480
30480
30480.1
30480.2
30480.2
30480.4
30480.5
30480.7
30480.7
30480.7
30481
30481.1
30481
30481
30481.2
30481.4
30481.5
30481.6
30481.7
30481.9
30482
30482.1
30482.2
30482.3
30482.4
30482.5
30482.6
30482.8
30482.9
30483.2
30483.3
30483.4
30483.2
30483.1
30483.4
30483.6
30483.8
30483.8
30483.6
30483.7
30484
30484.1
30484
30483.9
30484
30484.2
30484.3
30484.4
30484.5
30484.6
30484.6
30484.7
30484.8
30484.8
30484.9
30484.9
30485
30485
30485
30485.1
30485.1
30485.2
30485.2
30485.2
30485.3
30485.3
30485.4
30485.5
30485.5
30485.7
30485.7
30485.7
30485.5
30485.4
30485.4
30485.5
30485.5
30485.4
30485.3
30485.4
30485.4
30485.5
30485.6
30485.6
30485.7
30485.8
30485.8
30485.9
30485.9
30486
30486
30486
30485.9
30485.9
30485.9
30485.9
30485.8
30485.7
30485.8
30485.8
30485.7
30485.6
30485.6
30485.7
30485.7
30485.6
30485.5
30485.6
30485.6
30485.6
30485.6
30485.5
30485.5
30485.6
30485.6
30485.5
30485.5
30485.5
30485.6
30485.7
30485.6
30485.5
30485.4
30485.5
30485.6
30485.8
30485.9
30486
30486
30485.9
30485.8
30485.7
30485.7
30485.7
30485.7
30485.6
30485.6
30485.6
30485.6
30485.6
30485.6
30485.5
30485.5
30485.5
30485.6
30485.6
30485.5
30485.4
30485.4
30485.6
30485.7
30485.6
30485.5
30485.4
30485.4
30485.6
30485.7
30485.7
30485.7
30485.7
30485.7
30485.7
30485.7
30485.7
30485.7
30485.7
30485.7
30485.7
30485.7
30485.7
30485.6
30485.7
30485.7
30485.6
30485.6
30485.7
30485.7
30485.6
30485.6
30485.7
30485.7
30485.6
30485.6
30485.6
30485.6
30485.6
30485.6
30485.6
30485.6
30485.6
30485.6
30485.6
30485.6
30485.6
30485.6
30485.6
30485.6
30485.6
30485.6
30485.7
30485.6
30485.6
30485.7
30485.7
30485.7
30485.6
30485.7
30485.7
30485.7
30485.7
30485.7
30485.7
30485.7
30485.7
30485.7
30485.7
30485.7
30485.7
30485.7
30485.7
30485.7
30485.7
30485.7
30485.7
30485.7
30485.7
30485.7
30485.7
30485.8
30485.7
30485.7
30485.7
30485.7
30485.8
30485.7
30485.7
30485.7
30485.8
30485.7
30485.7
30485.7
30485.8
30485.8
30485.7
30485.7
30485.7
30485.8
30485.7
30485.7
30485.7
30485.8
30485.8
30485.7
30485.7
30485.7
30485.7
30485.7
30485.7
30485.6
30485.7
30485.7
30485.7
30485.6
30485.6
30485.7
30485.7
30485.6
30485.6
30485.6
30485.7
30485.7
30485.6
30485.5
30485.6
30485.7
30485.6
30485.5
30485.5
30485.6
30485.6
30485.6
30485.5
30485.5
30485.6
30485.6
30485.5
30485.5
30485.6
30485.6
30485.6
30485.5
30485.5
30485.6
30485.6
30485.6
30485.5
30485.6
30485.6
30485.6
30485.6
30485.6
30485.7
30485.7
30485.7
30485.8
30485.8
30485.8
30485.9
30486
30485.9
30486
30486.2
30486.2
30486.2
30486.4
30486.7
30486.7
30486.7
30487.1
30487.5
30487.4
30487.5
30488.1
30488.4
30488.3
30488.9
30489.5
30489.5
30489.9
30491.1
30491.3
30491.1
30492.9
30493.9
30493.6
30494.5
30496.8
30497.7
30497
30499.6
30502.2
30501.6
30502.8
30506.9
30508.5
30507.4
30511.4
30516.6
30515.7
30516.6
30524.2
30527
30526.5
30530.4
30539.6
30541.3
30538.7
30550.7
30557.5
30556.4
30561
30574.7
30577.1
30574.4
30590.6
30598.8
30596.2
30611.4
30621.9
30619.6
30629.1
30651.5
30649.6
30653.9
30675.6
30686
30678.8
30704.2
30722.9
30717.5
30728.3
30758.6
30768.8
30758.5
30786.5
30817.3
30809.7
30814.6
30853.8
30867
30860.4
30877.6
30917.8
30919.5
30909.1
30955.2
30973.2
30965.3
30980.2
31017.6
31027.6
31014.4
31052.9
31077.7
31071.6
31082.5
31117.4
31124.9
31116.5
31152.9
31167.9
31161.1
31173.9
31206.5
31203.6
31207.6
31233.9
31239.8
31234.5
31260.1
31270.1
31264.2
31284.9
31295.1
31290.7
31306.4
31317.1
31313.5
31325.7
31335.8
31332.6
31337.9
31351.3
31349.8
31352.5
31363.7
31363.8
31362.2
31371.5
31375.2
31372.4
31377.9
31382.6
31381.2
31382.5
31387.7
31387.7
31386.3
31390.9
31392.5
31391.4
31392.5
31394.7
31394.2
31394
31395.6
31395.7
31395.1
31395.9
31396.6
31396.3
31396
31396.8
31396.7
31396.2
31396.3
31396.7
31396.3
31395.9
31396.2
31396.2
31395.8
31395.8
31396
31395.6
31395.6
31395.8
31395.7
31395.5
31395.6
)
;

boundaryField
{
    sides
    {
        type            zeroGradient;
    }
    empty
    {
        type            empty;
    }
}


// ************************************************************************* //
