/*--------------------------------*- C++ -*----------------------------------*\
  =========                 |
  \\      /  F ield         | OpenFOAM: The Open Source CFD Toolbox
   \\    /   O peration     | Website:  https://openfoam.org
    \\  /    A nd           | Version:  9
     \\/     M anipulation  |
\*---------------------------------------------------------------------------*/
FoamFile
{
    format      ascii;
    class       volScalarField;
    location    "0.021";
    object      p_0;
}
// * * * * * * * * * * * * * * * * * * * * * * * * * * * * * * * * * * * * * //

dimensions      [1 -1 -2 0 0 0 0];

internalField   nonuniform List<scalar> 
1000
(
38945.9
38936.6
38928
38920.3
38912.8
38905.1
38897.3
38889.5
38881.8
38874
38866.2
38858.4
38850.6
38842.8
38835
38827.1
38819.3
38811.4
38803.5
38795.6
38787.7
38779.8
38771.9
38764
38756
38748.1
38740.1
38732.1
38724.1
38716.1
38708.1
38700.1
38692
38684
38675.9
38667.8
38659.8
38651.7
38643.5
38635.4
38627.3
38619.1
38611
38602.8
38594.6
38586.4
38578.2
38570
38561.7
38553.5
38545.2
38536.9
38528.6
38520.3
38512
38503.7
38495.3
38487
38478.6
38470.2
38461.8
38453.4
38445
38436.5
38428.1
38419.6
38411.1
38402.6
38394.1
38385.6
38377.1
38368.5
38360
38351.4
38342.8
38334.2
38325.6
38316.9
38308.3
38299.6
38291
38282.3
38273.6
38264.8
38256.1
38247.4
38238.6
38229.8
38221
38212.2
38203.4
38194.6
38185.7
38176.8
38168
38159.1
38150.2
38141.2
38132.3
38123.3
38114.4
38105.4
38096.4
38087.4
38078.3
38069.3
38060.2
38051.1
38042
38032.9
38023.8
38014.7
38005.5
37996.3
37987.1
37977.9
37968.7
37959.5
37950.2
37940.9
37931.7
37922.3
37913
37903.7
37894.3
37885
37875.6
37866.2
37856.8
37847.3
37837.9
37828.4
37818.9
37809.4
37799.9
37790.4
37780.9
37771.3
37761.8
37752.2
37742.6
37732.9
37723.3
37713.6
37703.9
37694.2
37684.5
37674.8
37665
37655.3
37645.5
37635.7
37625.8
37616
37606.1
37596.3
37586.4
37576.5
37566.5
37556.6
37546.6
37536.6
37526.6
37516.6
37506.6
37496.5
37486.4
37476.3
37466.2
37456.1
37446
37435.8
37425.6
37415.4
37405.2
37394.9
37384.7
37374.4
37364.1
37353.8
37343.4
37333.1
37322.7
37312.3
37301.9
37291.4
37281
37270.5
37260
37249.5
37239
37228.4
37217.8
37207.3
37196.6
37186
37175.3
37164.7
37154
37143.3
37132.5
37121.8
37111
37100.2
37089.4
37078.5
37067.7
37056.8
37045.9
37035
37024
37013.1
37002.1
36991.1
36980
36969
36957.9
36946.8
36935.7
36924.6
36913.4
36902.2
36891
36879.8
36868.5
36857.3
36846
36834.6
36823.3
36811.9
36800.6
36789.1
36777.7
36766.2
36754.8
36743.3
36731.7
36720.2
36708.6
36697
36685.4
36673.7
36662
36650.3
36638.6
36626.9
36615.1
36603.3
36591.5
36579.6
36567.7
36555.8
36543.9
36532
36520
36508
36496
36483.9
36471.8
36459.7
36447.6
36435.4
36423.2
36411
36398.8
36386.5
36374.2
36361.9
36349.5
36337.1
36324.7
36312.3
36299.8
36287.3
36274.8
36262.3
36249.7
36237.1
36224.5
36211.8
36199.1
36186.4
36173.7
36160.9
36148.1
36135.2
36122.4
36109.5
36096.6
36083.6
36070.7
36057.7
36044.6
36031.6
36018.5
36005.3
35992.2
35979
35965.8
35952.6
35939.3
35926
35912.7
35899.3
35885.9
35872.5
35859
35845.6
35832
35818.5
35804.9
35791.3
35777.7
35764
35750.3
35736.6
35722.8
35709
35695.1
35681.3
35667.4
35653.4
35639.4
35625.4
35611.3
35597.2
35583.1
35568.9
35554.7
35540.4
35526
35511.7
35497.2
35482.7
35468.2
35453.6
35438.9
35424.1
35409.3
35394.4
35379.4
35364.3
35349.1
35333.8
35318.4
35302.9
35287.2
35271.4
35255.4
35239.2
35222.8
35206.2
35189.4
35172.2
35154.8
35137.1
35119.1
35100.6
35081.8
35062.5
35042.7
35022.4
35001.6
34980.1
34958
34935.3
34911.8
34887.5
34862.5
34836.6
34809.8
34782.1
34753.4
34723.8
34693.2
34661.5
34628.8
34595
34560.2
34524.4
34487.5
34449.5
34410.5
34370.5
34329.6
34287.7
34244.9
34201.2
34156.7
34111.4
34065.4
34018.8
33971.5
33923.6
33875.3
33826.4
33777.2
33727.6
33677.8
33627.6
33577.3
33526.8
33476.1
33425.4
33374.6
33323.8
33273.1
33222.3
33171.7
33121.1
33070.6
33020.3
32970.2
32920.2
32870.4
32820.8
32771.5
32722.3
32673.5
32624.8
32576.5
32528.4
32480.6
32433.2
32386
32339.2
32292.6
32246.5
32200.7
32155.2
32110.1
32065.4
32021.1
31977.2
31933.8
31890.7
31848.1
31806
31764.3
31723.1
31682.4
31642.1
31602.5
31563.3
31524.7
31486.6
31449.1
31412.2
31375.9
31340.3
31305.2
31270.8
31237.1
31204.1
31171.7
31140
31109.1
31078.9
31049.4
31020.7
30992.7
30965.6
30939.2
30913.6
30888.8
30864.9
30841.7
30819.4
30797.9
30777.3
30757.4
30738.4
30720.3
30702.9
30686.4
30670.7
30655.8
30641.6
30628.3
30615.7
30603.9
30592.8
30582.4
30572.7
30563.6
30555.2
30547.5
30540.3
30533.7
30527.6
30522.1
30517
30512.4
30508.2
30504.5
30501.1
30498.1
30495.4
30493.1
30491
30489.1
30487.5
30486.1
30485
30484
30483.1
30482.4
30481.8
30481.3
30481
30480.6
30480.4
30480.2
30480.1
30480
30479.9
30479.9
30479.9
30480
30480
30480
30480
30480.1
30480.2
30480.2
30480.4
30480.5
30480.6
30480.6
30480.8
30480.9
30481
30481
30481.1
30481.3
30481.4
30481.5
30481.6
30481.7
30481.9
30482
30482.1
30482.2
30482.3
30482.4
30482.5
30482.7
30482.8
30483
30483.2
30483.3
30483.2
30483.1
30483.2
30483.5
30483.7
30483.8
30483.7
30483.6
30483.8
30484
30484
30483.9
30483.9
30484.1
30484.2
30484.3
30484.4
30484.5
30484.6
30484.6
30484.7
30484.8
30484.8
30484.9
30484.9
30485
30485
30485
30485.1
30485.1
30485.2
30485.2
30485.3
30485.3
30485.4
30485.4
30485.5
30485.6
30485.7
30485.7
30485.5
30485.4
30485.4
30485.5
30485.5
30485.4
30485.3
30485.3
30485.4
30485.5
30485.5
30485.6
30485.7
30485.7
30485.8
30485.8
30485.9
30485.9
30486
30486
30485.9
30485.9
30485.9
30485.9
30485.8
30485.7
30485.7
30485.8
30485.8
30485.7
30485.6
30485.7
30485.7
30485.6
30485.6
30485.5
30485.6
30485.7
30485.6
30485.5
30485.5
30485.6
30485.6
30485.6
30485.5
30485.5
30485.6
30485.6
30485.6
30485.5
30485.4
30485.4
30485.6
30485.7
30485.9
30485.9
30486
30485.9
30485.8
30485.7
30485.7
30485.7
30485.7
30485.7
30485.6
30485.6
30485.6
30485.6
30485.6
30485.6
30485.5
30485.5
30485.6
30485.7
30485.6
30485.5
30485.4
30485.6
30485.7
30485.7
30485.5
30485.4
30485.4
30485.6
30485.7
30485.7
30485.7
30485.7
30485.7
30485.7
30485.7
30485.7
30485.7
30485.7
30485.7
30485.7
30485.7
30485.7
30485.6
30485.7
30485.7
30485.7
30485.6
30485.7
30485.7
30485.6
30485.6
30485.6
30485.7
30485.6
30485.6
30485.6
30485.6
30485.6
30485.6
30485.6
30485.6
30485.6
30485.6
30485.6
30485.6
30485.6
30485.6
30485.6
30485.6
30485.6
30485.6
30485.6
30485.6
30485.6
30485.7
30485.7
30485.7
30485.6
30485.7
30485.7
30485.7
30485.7
30485.6
30485.7
30485.7
30485.7
30485.7
30485.7
30485.7
30485.7
30485.7
30485.7
30485.7
30485.7
30485.7
30485.7
30485.7
30485.7
30485.7
30485.7
30485.7
30485.7
30485.7
30485.7
30485.7
30485.8
30485.7
30485.7
30485.7
30485.8
30485.7
30485.7
30485.7
30485.8
30485.8
30485.7
30485.7
30485.7
30485.8
30485.8
30485.7
30485.7
30485.7
30485.8
30485.7
30485.7
30485.7
30485.7
30485.7
30485.7
30485.7
30485.7
30485.7
30485.7
30485.6
30485.6
30485.6
30485.7
30485.7
30485.6
30485.6
30485.6
30485.7
30485.6
30485.6
30485.6
30485.7
30485.7
30485.6
30485.5
30485.6
30485.6
30485.6
30485.5
30485.5
30485.6
30485.6
30485.6
30485.5
30485.5
30485.6
30485.6
30485.5
30485.5
30485.5
30485.6
30485.6
30485.5
30485.6
30485.6
30485.6
30485.6
30485.6
30485.7
30485.7
30485.7
30485.7
30485.8
30485.8
30485.8
30485.9
30485.9
30485.9
30486.1
30486.1
30486.1
30486.3
30486.5
30486.6
30486.5
30486.8
30487.2
30487.3
30487.2
30487.6
30488.1
30488.2
30488.3
30489.1
30489.3
30489.2
30490.4
30490.9
30490.8
30491.5
30493.2
30493.4
30493.1
30495.4
30496.7
30496.4
30497.5
30500.3
30501.4
30500.5
30504.3
30507.1
30506.3
30508.1
30513.2
30515.1
30513.7
30518.7
30525.2
30524.2
30525.1
30534.6
30538.2
30537.2
30541.6
30552.9
30554.4
30552.4
30567.1
30573.6
30571.9
30578.2
30592.6
30592.3
30597.7
30615.8
30615.2
30617.8
30637.5
30647.1
30641.9
30662.2
30677
30674.4
30683.9
30710.8
30716.2
30708.6
30742.1
30759.7
30752.7
30764.7
30798.1
30809
30798.1
30827
30859.7
30851.5
30856.1
30896.9
30910.8
30903.9
30920.8
30962.5
30963.7
30953.3
30999.8
31017.1
31009.2
31023.9
31062.7
31069.3
31059.8
31099.8
31116.3
31110.5
31124.2
31161.4
31156.3
31157.5
31187.3
31200.6
31192.6
31218.5
31234.9
31230.1
31241.3
31264.4
31260.5
31268.3
31289.9
31287
31292.1
31311
31310.3
31314.1
31331.1
31331.9
31330.9
31343.7
31348.9
31345.8
31357.3
31363.1
31360.3
31364.9
31373
31371.4
31373.2
31380.7
31381.1
31379.2
31385.1
31387.4
31385.8
31387.6
31391.8
31391.3
31391.1
31393.7
31394.2
31393.3
31394.7
31395.7
31395
31395.2
31396.4
31396.3
31395.9
31396.3
31396.9
31396.3
31396.1
31396.6
31396.5
31396
31396.1
31396.4
31396
31395.8
31396
31395.8
31395.5
31395.8
31395.8
31395.5
31395.6
31395.7
)
;

boundaryField
{
    sides
    {
        type            zeroGradient;
    }
    empty
    {
        type            empty;
    }
}


// ************************************************************************* //
