/*--------------------------------*- C++ -*----------------------------------*\
  =========                 |
  \\      /  F ield         | OpenFOAM: The Open Source CFD Toolbox
   \\    /   O peration     | Website:  https://openfoam.org
    \\  /    A nd           | Version:  9
     \\/     M anipulation  |
\*---------------------------------------------------------------------------*/
FoamFile
{
    format      ascii;
    class       volScalarField;
    location    "0.021";
    object      rho;
}
// * * * * * * * * * * * * * * * * * * * * * * * * * * * * * * * * * * * * * //

dimensions      [1 -3 0 0 0 0 0];

internalField   nonuniform List<scalar> 
1000
(
0.509423
0.509241
0.509013
0.508765
0.508538
0.508357
0.508219
0.508109
0.508008
0.507912
0.507831
0.507762
0.507692
0.507621
0.507549
0.507476
0.507403
0.50733
0.507257
0.507184
0.50711
0.507037
0.506963
0.506889
0.506815
0.506741
0.506667
0.506593
0.506519
0.506444
0.50637
0.506295
0.50622
0.506145
0.50607
0.505995
0.50592
0.505844
0.505769
0.505693
0.505617
0.505541
0.505465
0.505389
0.505313
0.505236
0.50516
0.505083
0.505006
0.504929
0.504852
0.504775
0.504698
0.50462
0.504543
0.504465
0.504387
0.504309
0.504231
0.504153
0.504074
0.503996
0.503917
0.503839
0.50376
0.503681
0.503601
0.503522
0.503443
0.503363
0.503283
0.503204
0.503124
0.503043
0.502963
0.502883
0.502802
0.502722
0.502641
0.50256
0.502479
0.502398
0.502316
0.502235
0.502153
0.502071
0.501989
0.501907
0.501825
0.501742
0.50166
0.501577
0.501494
0.501411
0.501328
0.501245
0.501162
0.501078
0.500994
0.500911
0.500827
0.500742
0.500658
0.500574
0.500489
0.500404
0.500319
0.500234
0.500149
0.500064
0.499978
0.499892
0.499807
0.499721
0.499634
0.499548
0.499462
0.499375
0.499288
0.499201
0.499114
0.499027
0.498939
0.498852
0.498764
0.498676
0.498588
0.4985
0.498411
0.498323
0.498234
0.498145
0.498056
0.497967
0.497878
0.497788
0.497699
0.497609
0.497519
0.497429
0.497338
0.497248
0.497157
0.497067
0.496974
0.496886
0.49679
0.496704
0.496605
0.496523
0.496419
0.49634
0.496235
0.496154
0.496049
0.495969
0.495863
0.495782
0.495676
0.495594
0.49549
0.495403
0.495307
0.495208
0.495124
0.495016
0.494932
0.494833
0.494733
0.494649
0.49454
0.494452
0.494358
0.494251
0.494169
0.494063
0.493966
0.493877
0.493768
0.49368
0.493581
0.493476
0.49339
0.493283
0.493184
0.493097
0.492984
0.49289
0.4928
0.492686
0.492594
0.492499
0.492388
0.492297
0.492196
0.492087
0.491999
0.491893
0.491782
0.491696
0.491591
0.491477
0.491389
0.491284
0.491174
0.491083
0.490975
0.490863
0.490775
0.49067
0.490552
0.490461
0.490359
0.490242
0.490149
0.490047
0.489926
0.48983
0.489736
0.489615
0.489509
0.489416
0.489299
0.489189
0.489099
0.488985
0.488864
0.488771
0.488667
0.488545
0.488445
0.488347
0.488223
0.48811
0.48802
0.487905
0.487782
0.487687
0.487582
0.487454
0.487346
0.487254
0.487132
0.48701
0.486915
0.486806
0.486676
0.486568
0.486473
0.48635
0.486225
0.486128
0.486021
0.485888
0.485775
0.48568
0.485558
0.485427
0.485325
0.485222
0.485089
0.484966
0.484869
0.484753
0.484617
0.484504
0.484406
0.48428
0.484146
0.48404
0.483936
0.483804
0.483674
0.48357
0.48346
0.483324
0.483198
0.483095
0.482979
0.482841
0.482718
0.482614
0.482493
0.482354
0.482233
0.482127
0.482003
0.481864
0.481743
0.481636
0.481509
0.481369
0.481248
0.481139
0.481012
0.480871
0.480748
0.480637
0.480509
0.480368
0.480242
0.48013
0.480003
0.479861
0.479731
0.479617
0.479491
0.479349
0.479216
0.479099
0.478975
0.478833
0.478695
0.478576
0.478453
0.478313
0.478171
0.478046
0.477925
0.477787
0.477642
0.477511
0.47739
0.477255
0.477109
0.476971
0.476848
0.476717
0.47657
0.476426
0.476297
0.476169
0.476025
0.475876
0.475739
0.47561
0.475471
0.475319
0.475173
0.47504
0.474903
0.474752
0.474598
0.474456
0.474319
0.474169
0.47401
0.473856
0.473712
0.473564
0.473401
0.473234
0.473078
0.472925
0.47276
0.472582
0.472407
0.47224
0.472068
0.471881
0.471685
0.471495
0.471307
0.471108
0.470892
0.470671
0.470455
0.470235
0.469999
0.469747
0.469492
0.469238
0.468976
0.468694
0.468397
0.468099
0.467799
0.467486
0.467152
0.466807
0.46646
0.466109
0.465743
0.465358
0.464963
0.464568
0.464169
0.463755
0.463324
0.462886
0.462451
0.462012
0.461559
0.461093
0.460624
0.460159
0.459692
0.459214
0.458726
0.458237
0.457755
0.457272
0.456781
0.456283
0.455786
0.455296
0.454809
0.454315
0.453816
0.453319
0.45283
0.452345
0.451857
0.451363
0.45087
0.450387
0.449911
0.449432
0.448948
0.448466
0.447993
0.447526
0.44706
0.446591
0.446121
0.445659
0.445207
0.444757
0.444304
0.44385
0.443403
0.442966
0.442535
0.442102
0.441667
0.441238
0.440818
0.440407
0.439997
0.439586
0.439178
0.438778
0.438389
0.438006
0.437622
0.437239
0.436863
0.436499
0.436144
0.435792
0.435439
0.435091
0.434756
0.434431
0.434113
0.433796
0.433482
0.433177
0.432886
0.432604
0.432327
0.432052
0.431783
0.431526
0.431283
0.431048
0.430815
0.430586
0.430367
0.430162
0.429968
0.42978
0.429594
0.429415
0.429247
0.429093
0.428947
0.428806
0.428666
0.428535
0.428417
0.428309
0.428207
0.428108
0.428012
0.427924
0.427848
0.427779
0.427714
0.42765
0.427589
0.427536
0.427493
0.427456
0.427417
0.427378
0.427344
0.427317
0.427298
0.427279
0.427259
0.427238
0.427221
0.427211
0.427205
0.427197
0.427188
0.427179
0.427172
0.427169
0.427168
0.427166
0.427164
0.427161
0.427159
0.427159
0.427159
0.427159
0.42716
0.42716
0.427159
0.427159
0.427159
0.42716
0.427161
0.427162
0.427164
0.427165
0.427164
0.427165
0.427167
0.427168
0.427168
0.427168
0.427169
0.427171
0.427172
0.427174
0.427175
0.427175
0.427176
0.427177
0.427178
0.427179
0.42718
0.427181
0.427182
0.427183
0.427184
0.427187
0.427188
0.427189
0.427187
0.427186
0.427188
0.42719
0.427192
0.427192
0.42719
0.427191
0.427193
0.427194
0.427193
0.427192
0.427193
0.427194
0.427196
0.427196
0.427197
0.427198
0.427198
0.427199
0.427199
0.4272
0.4272
0.4272
0.4272
0.427201
0.427201
0.427201
0.427201
0.427202
0.427202
0.427202
0.427202
0.427203
0.427203
0.427204
0.427204
0.427205
0.427206
0.427205
0.427203
0.427202
0.427202
0.427203
0.427202
0.427201
0.427201
0.427201
0.427201
0.427202
0.427202
0.427203
0.427203
0.427203
0.427204
0.427204
0.427204
0.427205
0.427205
0.427205
0.427204
0.427203
0.427204
0.427203
0.427202
0.427201
0.427201
0.427201
0.4272
0.427199
0.427199
0.4272
0.427199
0.427198
0.427197
0.427197
0.427198
0.427198
0.427197
0.427196
0.427196
0.427197
0.427196
0.427195
0.427194
0.427195
0.427195
0.427196
0.427195
0.427193
0.427193
0.427193
0.427194
0.427196
0.427196
0.427197
0.427197
0.427196
0.427195
0.427194
0.427193
0.427193
0.427193
0.427192
0.427192
0.427191
0.427191
0.427191
0.427191
0.427189
0.427189
0.427189
0.42719
0.42719
0.427189
0.427187
0.427187
0.427189
0.427189
0.427189
0.427187
0.427186
0.427186
0.427187
0.427188
0.427188
0.427187
0.427187
0.427187
0.427186
0.427186
0.427186
0.427185
0.427185
0.427185
0.427185
0.427184
0.427184
0.427184
0.427184
0.427183
0.427183
0.427183
0.427183
0.427182
0.427182
0.427181
0.427181
0.427181
0.42718
0.42718
0.42718
0.42718
0.427179
0.427179
0.427179
0.427178
0.427178
0.427178
0.427177
0.427177
0.427177
0.427177
0.427176
0.427176
0.427176
0.427176
0.427175
0.427174
0.427174
0.427174
0.427174
0.427174
0.427174
0.427173
0.427173
0.427173
0.427172
0.427172
0.427172
0.427171
0.427171
0.42717
0.42717
0.42717
0.42717
0.427169
0.427169
0.427169
0.427169
0.427168
0.427168
0.427168
0.427167
0.427167
0.427167
0.427167
0.427166
0.427166
0.427165
0.427165
0.427165
0.427165
0.427164
0.427164
0.427164
0.427163
0.427163
0.427162
0.427162
0.427162
0.42716
0.42716
0.42716
0.42716
0.427159
0.427158
0.427158
0.427158
0.427158
0.427157
0.427156
0.427156
0.427156
0.427155
0.427155
0.427154
0.427154
0.427154
0.427153
0.427152
0.427151
0.427151
0.427151
0.42715
0.427149
0.427149
0.427149
0.427149
0.427147
0.427146
0.427147
0.427147
0.427146
0.427145
0.427144
0.427144
0.427144
0.427143
0.427142
0.427142
0.427142
0.427141
0.42714
0.427139
0.427139
0.42714
0.427139
0.427138
0.427137
0.427137
0.427137
0.427136
0.427135
0.427135
0.427135
0.427134
0.427133
0.427133
0.427133
0.427133
0.427132
0.427132
0.427132
0.427131
0.427131
0.427131
0.42713
0.42713
0.427131
0.427131
0.427131
0.427133
0.427135
0.427134
0.427133
0.427136
0.427139
0.427138
0.427138
0.427143
0.427146
0.427145
0.42715
0.427155
0.427155
0.427159
0.427169
0.427171
0.427168
0.427185
0.427193
0.427189
0.427199
0.427219
0.427227
0.427221
0.427245
0.42727
0.427263
0.427276
0.427315
0.427329
0.427319
0.427359
0.427407
0.427397
0.427408
0.427481
0.427506
0.427502
0.427542
0.427628
0.427643
0.427622
0.427737
0.4278
0.427784
0.427837
0.427966
0.427985
0.427964
0.42812
0.428197
0.428174
0.428333
0.428429
0.428409
0.428508
0.428725
0.428699
0.428759
0.428966
0.42906
0.428999
0.429249
0.429432
0.429366
0.429492
0.429781
0.429866
0.429782
0.430059
0.430352
0.430268
0.43034
0.430719
0.430833
0.430775
0.430961
0.431336
0.431346
0.431261
0.43171
0.431878
0.431786
0.431964
0.432318
0.4324
0.432295
0.432672
0.432914
0.432848
0.43298
0.433306
0.43338
0.43331
0.433663
0.433792
0.433729
0.433867
0.434174
0.434132
0.434188
0.43444
0.434497
0.434458
0.434708
0.434799
0.434748
0.43495
0.435041
0.435002
0.435162
0.435262
0.435228
0.435361
0.435451
0.435422
0.435483
0.43561
0.435591
0.435624
0.435732
0.435728
0.43572
0.435807
0.435838
0.435809
0.435862
0.435903
0.435886
0.435899
0.435945
0.435942
0.435928
0.43597
0.435982
0.43597
0.435981
0.436
0.435993
0.435992
0.436006
0.436004
0.435997
0.436002
0.436006
0.435999
0.435994
0.435997
0.435992
0.435983
0.43598
0.435978
0.43597
0.435962
0.43596
0.435954
0.435945
0.435939
0.435936
0.435925
0.435919
0.435916
0.435908
0.435902
0.435894
)
;

boundaryField
{
    sides
    {
        type            calculated;
        value           nonuniform List<scalar> 2(0.435894 0.509423);
    }
    empty
    {
        type            empty;
    }
}


// ************************************************************************* //
