/*--------------------------------*- C++ -*----------------------------------*\
  =========                 |
  \\      /  F ield         | OpenFOAM: The Open Source CFD Toolbox
   \\    /   O peration     | Website:  https://openfoam.org
    \\  /    A nd           | Version:  9
     \\/     M anipulation  |
\*---------------------------------------------------------------------------*/
FoamFile
{
    format      ascii;
    class       volVectorField;
    location    "0.021";
    object      U_0;
}
// * * * * * * * * * * * * * * * * * * * * * * * * * * * * * * * * * * * * * //

dimensions      [0 1 -1 0 0 0 0];

internalField   nonuniform List<vector> 
1000
(
(9.40857 0 0)
(10.3343 0 0)
(11.0715 0 0)
(11.6998 0 0)
(12.3352 0 0)
(12.9919 0 0)
(13.6523 0 0)
(14.3095 0 0)
(14.9649 0 0)
(15.6206 0 0)
(16.2768 0 0)
(16.9329 0 0)
(17.5888 0 0)
(18.2449 0 0)
(18.9011 0 0)
(19.5575 0 0)
(20.2139 0 0)
(20.8705 0 0)
(21.5272 0 0)
(22.184 0 0)
(22.8409 0 0)
(23.4979 0 0)
(24.155 0 0)
(24.8123 0 0)
(25.4696 0 0)
(26.1271 0 0)
(26.7847 0 0)
(27.4424 0 0)
(28.1002 0 0)
(28.7581 0 0)
(29.4161 0 0)
(30.0742 0 0)
(30.7325 0 0)
(31.3908 0 0)
(32.0493 0 0)
(32.7079 0 0)
(33.3666 0 0)
(34.0254 0 0)
(34.6843 0 0)
(35.3433 0 0)
(36.0024 0 0)
(36.6617 0 0)
(37.321 0 0)
(37.9805 0 0)
(38.64 0 0)
(39.2997 0 0)
(39.9595 0 0)
(40.6194 0 0)
(41.2794 0 0)
(41.9395 0 0)
(42.5998 0 0)
(43.2601 0 0)
(43.9205 0 0)
(44.5811 0 0)
(45.2417 0 0)
(45.9025 0 0)
(46.5633 0 0)
(47.2243 0 0)
(47.8854 0 0)
(48.5466 0 0)
(49.2079 0 0)
(49.8693 0 0)
(50.5308 0 0)
(51.1924 0 0)
(51.8542 0 0)
(52.516 0 0)
(53.1779 0 0)
(53.8399 0 0)
(54.5021 0 0)
(55.1643 0 0)
(55.8267 0 0)
(56.4891 0 0)
(57.1517 0 0)
(57.8144 0 0)
(58.4771 0 0)
(59.14 0 0)
(59.803 0 0)
(60.4661 0 0)
(61.1293 0 0)
(61.7926 0 0)
(62.4559 0 0)
(63.1194 0 0)
(63.783 0 0)
(64.4467 0 0)
(65.1105 0 0)
(65.7744 0 0)
(66.4384 0 0)
(67.1025 0 0)
(67.7667 0 0)
(68.4311 0 0)
(69.0955 0 0)
(69.76 0 0)
(70.4246 0 0)
(71.0893 0 0)
(71.7541 0 0)
(72.419 0 0)
(73.084 0 0)
(73.7491 0 0)
(74.4144 0 0)
(75.0797 0 0)
(75.7451 0 0)
(76.4106 0 0)
(77.0762 0 0)
(77.7419 0 0)
(78.4077 0 0)
(79.0736 0 0)
(79.7396 0 0)
(80.4057 0 0)
(81.0719 0 0)
(81.7381 0 0)
(82.4045 0 0)
(83.071 0 0)
(83.7376 0 0)
(84.4042 0 0)
(85.071 0 0)
(85.7379 0 0)
(86.4048 0 0)
(87.0719 0 0)
(87.7391 0 0)
(88.4063 0 0)
(89.0737 0 0)
(89.7411 0 0)
(90.4087 0 0)
(91.0763 0 0)
(91.7441 0 0)
(92.4119 0 0)
(93.0798 0 0)
(93.7478 0 0)
(94.4159 0 0)
(95.0841 0 0)
(95.7523 0 0)
(96.4207 0 0)
(97.0891 0 0)
(97.7576 0 0)
(98.4261 0 0)
(99.0948 0 0)
(99.7635 0 0)
(100.432 0 0)
(101.101 0 0)
(101.77 0 0)
(102.439 0 0)
(103.109 0 0)
(103.778 0 0)
(104.447 0 0)
(105.117 0 0)
(105.786 0 0)
(106.456 0 0)
(107.126 0 0)
(107.796 0 0)
(108.466 0 0)
(109.136 0 0)
(109.806 0 0)
(110.476 0 0)
(111.146 0 0)
(111.817 0 0)
(112.487 0 0)
(113.158 0 0)
(113.828 0 0)
(114.499 0 0)
(115.17 0 0)
(115.841 0 0)
(116.512 0 0)
(117.183 0 0)
(117.854 0 0)
(118.525 0 0)
(119.196 0 0)
(119.867 0 0)
(120.539 0 0)
(121.21 0 0)
(121.882 0 0)
(122.553 0 0)
(123.225 0 0)
(123.897 0 0)
(124.569 0 0)
(125.241 0 0)
(125.913 0 0)
(126.585 0 0)
(127.257 0 0)
(127.929 0 0)
(128.602 0 0)
(129.274 0 0)
(129.947 0 0)
(130.619 0 0)
(131.292 0 0)
(131.964 0 0)
(132.637 0 0)
(133.31 0 0)
(133.983 0 0)
(134.656 0 0)
(135.329 0 0)
(136.002 0 0)
(136.675 0 0)
(137.348 0 0)
(138.021 0 0)
(138.695 0 0)
(139.368 0 0)
(140.042 0 0)
(140.715 0 0)
(141.389 0 0)
(142.062 0 0)
(142.736 0 0)
(143.41 0 0)
(144.084 0 0)
(144.758 0 0)
(145.432 0 0)
(146.106 0 0)
(146.78 0 0)
(147.454 0 0)
(148.128 0 0)
(148.802 0 0)
(149.477 0 0)
(150.151 0 0)
(150.825 0 0)
(151.5 0 0)
(152.174 0 0)
(152.849 0 0)
(153.523 0 0)
(154.198 0 0)
(154.872 0 0)
(155.547 0 0)
(156.222 0 0)
(156.897 0 0)
(157.572 0 0)
(158.247 0 0)
(158.921 0 0)
(159.596 0 0)
(160.271 0 0)
(160.946 0 0)
(161.621 0 0)
(162.296 0 0)
(162.972 0 0)
(163.647 0 0)
(164.322 0 0)
(164.997 0 0)
(165.672 0 0)
(166.348 0 0)
(167.023 0 0)
(167.698 0 0)
(168.374 0 0)
(169.049 0 0)
(169.724 0 0)
(170.4 0 0)
(171.075 0 0)
(171.751 0 0)
(172.426 0 0)
(173.102 0 0)
(173.777 0 0)
(174.453 0 0)
(175.128 0 0)
(175.803 0 0)
(176.479 0 0)
(177.155 0 0)
(177.83 0 0)
(178.505 0 0)
(179.181 0 0)
(179.857 0 0)
(180.532 0 0)
(181.207 0 0)
(181.883 0 0)
(182.558 0 0)
(183.234 0 0)
(183.909 0 0)
(184.585 0 0)
(185.26 0 0)
(185.936 0 0)
(186.611 0 0)
(187.286 0 0)
(187.962 0 0)
(188.637 0 0)
(189.312 0 0)
(189.987 0 0)
(190.663 0 0)
(191.338 0 0)
(192.013 0 0)
(192.688 0 0)
(193.363 0 0)
(194.038 0 0)
(194.713 0 0)
(195.388 0 0)
(196.063 0 0)
(196.738 0 0)
(197.413 0 0)
(198.087 0 0)
(198.762 0 0)
(199.437 0 0)
(200.111 0 0)
(200.786 0 0)
(201.46 0 0)
(202.135 0 0)
(202.809 0 0)
(203.483 0 0)
(204.157 0 0)
(204.832 0 0)
(205.506 0 0)
(206.179 0 0)
(206.853 0 0)
(207.527 0 0)
(208.201 0 0)
(208.874 0 0)
(209.548 0 0)
(210.221 0 0)
(210.895 0 0)
(211.568 0 0)
(212.241 0 0)
(212.914 0 0)
(213.587 0 0)
(214.259 0 0)
(214.932 0 0)
(215.604 0 0)
(216.277 0 0)
(216.949 0 0)
(217.621 0 0)
(218.293 0 0)
(218.965 0 0)
(219.636 0 0)
(220.308 0 0)
(220.979 0 0)
(221.65 0 0)
(222.321 0 0)
(222.992 0 0)
(223.662 0 0)
(224.332 0 0)
(225.002 0 0)
(225.672 0 0)
(226.342 0 0)
(227.011 0 0)
(227.68 0 0)
(228.349 0 0)
(229.017 0 0)
(229.686 0 0)
(230.353 0 0)
(231.021 0 0)
(231.688 0 0)
(232.355 0 0)
(233.021 0 0)
(233.687 0 0)
(234.352 0 0)
(235.017 0 0)
(235.681 0 0)
(236.345 0 0)
(237.008 0 0)
(237.67 0 0)
(238.332 0 0)
(238.992 0 0)
(239.652 0 0)
(240.311 0 0)
(240.969 0 0)
(241.626 0 0)
(242.282 0 0)
(242.936 0 0)
(243.588 0 0)
(244.24 0 0)
(244.889 0 0)
(245.537 0 0)
(246.182 0 0)
(246.825 0 0)
(247.466 0 0)
(248.104 0 0)
(248.739 0 0)
(249.371 0 0)
(249.999 0 0)
(250.624 0 0)
(251.245 0 0)
(251.861 0 0)
(252.473 0 0)
(253.081 0 0)
(253.683 0 0)
(254.279 0 0)
(254.87 0 0)
(255.455 0 0)
(256.033 0 0)
(256.605 0 0)
(257.17 0 0)
(257.728 0 0)
(258.279 0 0)
(258.822 0 0)
(259.357 0 0)
(259.885 0 0)
(260.405 0 0)
(260.917 0 0)
(261.421 0 0)
(261.917 0 0)
(262.405 0 0)
(262.885 0 0)
(263.357 0 0)
(263.822 0 0)
(264.28 0 0)
(264.73 0 0)
(265.174 0 0)
(265.611 0 0)
(266.041 0 0)
(266.465 0 0)
(266.884 0 0)
(267.296 0 0)
(267.704 0 0)
(268.107 0 0)
(268.505 0 0)
(268.898 0 0)
(269.288 0 0)
(269.674 0 0)
(270.056 0 0)
(270.435 0 0)
(270.811 0 0)
(271.184 0 0)
(271.554 0 0)
(271.922 0 0)
(272.287 0 0)
(272.65 0 0)
(273.011 0 0)
(273.37 0 0)
(273.727 0 0)
(274.082 0 0)
(274.435 0 0)
(274.786 0 0)
(275.136 0 0)
(275.484 0 0)
(275.83 0 0)
(276.174 0 0)
(276.517 0 0)
(276.858 0 0)
(277.197 0 0)
(277.535 0 0)
(277.87 0 0)
(278.204 0 0)
(278.536 0 0)
(278.865 0 0)
(279.193 0 0)
(279.519 0 0)
(279.842 0 0)
(280.163 0 0)
(280.482 0 0)
(280.798 0 0)
(281.112 0 0)
(281.424 0 0)
(281.733 0 0)
(282.039 0 0)
(282.342 0 0)
(282.642 0 0)
(282.94 0 0)
(283.234 0 0)
(283.525 0 0)
(283.813 0 0)
(284.097 0 0)
(284.378 0 0)
(284.655 0 0)
(284.928 0 0)
(285.198 0 0)
(285.463 0 0)
(285.725 0 0)
(285.982 0 0)
(286.235 0 0)
(286.483 0 0)
(286.727 0 0)
(286.966 0 0)
(287.2 0 0)
(287.43 0 0)
(287.654 0 0)
(287.873 0 0)
(288.087 0 0)
(288.296 0 0)
(288.499 0 0)
(288.696 0 0)
(288.888 0 0)
(289.074 0 0)
(289.255 0 0)
(289.429 0 0)
(289.598 0 0)
(289.761 0 0)
(289.918 0 0)
(290.068 0 0)
(290.213 0 0)
(290.352 0 0)
(290.485 0 0)
(290.611 0 0)
(290.732 0 0)
(290.847 0 0)
(290.956 0 0)
(291.059 0 0)
(291.157 0 0)
(291.249 0 0)
(291.335 0 0)
(291.417 0 0)
(291.493 0 0)
(291.564 0 0)
(291.63 0 0)
(291.691 0 0)
(291.748 0 0)
(291.8 0 0)
(291.848 0 0)
(291.893 0 0)
(291.933 0 0)
(291.97 0 0)
(292.004 0 0)
(292.034 0 0)
(292.061 0 0)
(292.086 0 0)
(292.108 0 0)
(292.127 0 0)
(292.144 0 0)
(292.16 0 0)
(292.173 0 0)
(292.184 0 0)
(292.194 0 0)
(292.203 0 0)
(292.21 0 0)
(292.217 0 0)
(292.222 0 0)
(292.226 0 0)
(292.229 0 0)
(292.232 0 0)
(292.234 0 0)
(292.236 0 0)
(292.237 0 0)
(292.238 0 0)
(292.239 0 0)
(292.239 0 0)
(292.239 0 0)
(292.239 0 0)
(292.239 0 0)
(292.239 0 0)
(292.239 0 0)
(292.238 0 0)
(292.238 0 0)
(292.237 0 0)
(292.236 0 0)
(292.236 0 0)
(292.235 0 0)
(292.235 0 0)
(292.234 0 0)
(292.233 0 0)
(292.233 0 0)
(292.231 0 0)
(292.23 0 0)
(292.229 0 0)
(292.228 0 0)
(292.228 0 0)
(292.227 0 0)
(292.226 0 0)
(292.225 0 0)
(292.225 0 0)
(292.224 0 0)
(292.223 0 0)
(292.222 0 0)
(292.221 0 0)
(292.221 0 0)
(292.22 0 0)
(292.219 0 0)
(292.219 0 0)
(292.218 0 0)
(292.218 0 0)
(292.218 0 0)
(292.216 0 0)
(292.214 0 0)
(292.213 0 0)
(292.213 0 0)
(292.213 0 0)
(292.213 0 0)
(292.211 0 0)
(292.21 0 0)
(292.209 0 0)
(292.209 0 0)
(292.208 0 0)
(292.207 0 0)
(292.206 0 0)
(292.205 0 0)
(292.205 0 0)
(292.205 0 0)
(292.205 0 0)
(292.205 0 0)
(292.204 0 0)
(292.204 0 0)
(292.203 0 0)
(292.203 0 0)
(292.203 0 0)
(292.202 0 0)
(292.202 0 0)
(292.201 0 0)
(292.201 0 0)
(292.201 0 0)
(292.201 0 0)
(292.2 0 0)
(292.2 0 0)
(292.2 0 0)
(292.2 0 0)
(292.2 0 0)
(292.199 0 0)
(292.199 0 0)
(292.199 0 0)
(292.2 0 0)
(292.2 0 0)
(292.2 0 0)
(292.199 0 0)
(292.198 0 0)
(292.197 0 0)
(292.197 0 0)
(292.197 0 0)
(292.196 0 0)
(292.196 0 0)
(292.196 0 0)
(292.196 0 0)
(292.196 0 0)
(292.196 0 0)
(292.196 0 0)
(292.197 0 0)
(292.197 0 0)
(292.197 0 0)
(292.197 0 0)
(292.198 0 0)
(292.198 0 0)
(292.198 0 0)
(292.198 0 0)
(292.198 0 0)
(292.197 0 0)
(292.197 0 0)
(292.197 0 0)
(292.197 0 0)
(292.197 0 0)
(292.196 0 0)
(292.196 0 0)
(292.196 0 0)
(292.196 0 0)
(292.196 0 0)
(292.196 0 0)
(292.196 0 0)
(292.195 0 0)
(292.195 0 0)
(292.195 0 0)
(292.195 0 0)
(292.195 0 0)
(292.195 0 0)
(292.195 0 0)
(292.195 0 0)
(292.195 0 0)
(292.195 0 0)
(292.195 0 0)
(292.195 0 0)
(292.195 0 0)
(292.195 0 0)
(292.196 0 0)
(292.196 0 0)
(292.195 0 0)
(292.195 0 0)
(292.195 0 0)
(292.195 0 0)
(292.196 0 0)
(292.197 0 0)
(292.198 0 0)
(292.198 0 0)
(292.198 0 0)
(292.198 0 0)
(292.197 0 0)
(292.197 0 0)
(292.197 0 0)
(292.197 0 0)
(292.197 0 0)
(292.196 0 0)
(292.196 0 0)
(292.196 0 0)
(292.196 0 0)
(292.196 0 0)
(292.196 0 0)
(292.196 0 0)
(292.196 0 0)
(292.196 0 0)
(292.196 0 0)
(292.196 0 0)
(292.196 0 0)
(292.196 0 0)
(292.196 0 0)
(292.197 0 0)
(292.197 0 0)
(292.196 0 0)
(292.196 0 0)
(292.196 0 0)
(292.196 0 0)
(292.197 0 0)
(292.197 0 0)
(292.197 0 0)
(292.197 0 0)
(292.197 0 0)
(292.197 0 0)
(292.197 0 0)
(292.197 0 0)
(292.197 0 0)
(292.197 0 0)
(292.197 0 0)
(292.197 0 0)
(292.197 0 0)
(292.197 0 0)
(292.197 0 0)
(292.197 0 0)
(292.197 0 0)
(292.197 0 0)
(292.197 0 0)
(292.197 0 0)
(292.197 0 0)
(292.197 0 0)
(292.197 0 0)
(292.197 0 0)
(292.197 0 0)
(292.197 0 0)
(292.197 0 0)
(292.197 0 0)
(292.197 0 0)
(292.197 0 0)
(292.196 0 0)
(292.196 0 0)
(292.196 0 0)
(292.196 0 0)
(292.196 0 0)
(292.196 0 0)
(292.196 0 0)
(292.196 0 0)
(292.196 0 0)
(292.196 0 0)
(292.196 0 0)
(292.196 0 0)
(292.196 0 0)
(292.196 0 0)
(292.196 0 0)
(292.196 0 0)
(292.196 0 0)
(292.196 0 0)
(292.196 0 0)
(292.196 0 0)
(292.196 0 0)
(292.196 0 0)
(292.196 0 0)
(292.196 0 0)
(292.196 0 0)
(292.196 0 0)
(292.196 0 0)
(292.196 0 0)
(292.196 0 0)
(292.196 0 0)
(292.196 0 0)
(292.196 0 0)
(292.195 0 0)
(292.195 0 0)
(292.196 0 0)
(292.195 0 0)
(292.195 0 0)
(292.195 0 0)
(292.195 0 0)
(292.195 0 0)
(292.195 0 0)
(292.195 0 0)
(292.195 0 0)
(292.195 0 0)
(292.195 0 0)
(292.195 0 0)
(292.195 0 0)
(292.195 0 0)
(292.195 0 0)
(292.195 0 0)
(292.195 0 0)
(292.195 0 0)
(292.195 0 0)
(292.195 0 0)
(292.195 0 0)
(292.195 0 0)
(292.195 0 0)
(292.195 0 0)
(292.195 0 0)
(292.195 0 0)
(292.195 0 0)
(292.195 0 0)
(292.195 0 0)
(292.195 0 0)
(292.195 0 0)
(292.195 0 0)
(292.195 0 0)
(292.195 0 0)
(292.195 0 0)
(292.195 0 0)
(292.195 0 0)
(292.195 0 0)
(292.195 0 0)
(292.195 0 0)
(292.195 0 0)
(292.195 0 0)
(292.195 0 0)
(292.195 0 0)
(292.195 0 0)
(292.195 0 0)
(292.195 0 0)
(292.195 0 0)
(292.195 0 0)
(292.195 0 0)
(292.196 0 0)
(292.195 0 0)
(292.195 0 0)
(292.195 0 0)
(292.196 0 0)
(292.196 0 0)
(292.196 0 0)
(292.195 0 0)
(292.195 0 0)
(292.196 0 0)
(292.196 0 0)
(292.196 0 0)
(292.195 0 0)
(292.196 0 0)
(292.196 0 0)
(292.196 0 0)
(292.196 0 0)
(292.196 0 0)
(292.196 0 0)
(292.196 0 0)
(292.196 0 0)
(292.195 0 0)
(292.195 0 0)
(292.196 0 0)
(292.196 0 0)
(292.195 0 0)
(292.195 0 0)
(292.196 0 0)
(292.195 0 0)
(292.195 0 0)
(292.195 0 0)
(292.195 0 0)
(292.195 0 0)
(292.195 0 0)
(292.194 0 0)
(292.194 0 0)
(292.194 0 0)
(292.194 0 0)
(292.193 0 0)
(292.193 0 0)
(292.193 0 0)
(292.192 0 0)
(292.192 0 0)
(292.191 0 0)
(292.19 0 0)
(292.19 0 0)
(292.189 0 0)
(292.188 0 0)
(292.187 0 0)
(292.186 0 0)
(292.185 0 0)
(292.183 0 0)
(292.182 0 0)
(292.181 0 0)
(292.179 0 0)
(292.176 0 0)
(292.175 0 0)
(292.172 0 0)
(292.168 0 0)
(292.165 0 0)
(292.162 0 0)
(292.157 0 0)
(292.152 0 0)
(292.15 0 0)
(292.144 0 0)
(292.136 0 0)
(292.132 0 0)
(292.128 0 0)
(292.118 0 0)
(292.108 0 0)
(292.104 0 0)
(292.095 0 0)
(292.08 0 0)
(292.07 0 0)
(292.063 0 0)
(292.046 0 0)
(292.027 0 0)
(292.02 0 0)
(292.005 0 0)
(291.978 0 0)
(291.961 0 0)
(291.952 0 0)
(291.925 0 0)
(291.892 0 0)
(291.878 0 0)
(291.86 0 0)
(291.817 0 0)
(291.786 0 0)
(291.774 0 0)
(291.742 0 0)
(291.689 0 0)
(291.662 0 0)
(291.64 0 0)
(291.586 0 0)
(291.544 0 0)
(291.521 0 0)
(291.463 0 0)
(291.398 0 0)
(291.364 0 0)
(291.301 0 0)
(291.221 0 0)
(291.18 0 0)
(291.123 0 0)
(291.026 0 0)
(290.965 0 0)
(290.924 0 0)
(290.817 0 0)
(290.721 0 0)
(290.678 0 0)
(290.59 0 0)
(290.463 0 0)
(290.393 0 0)
(290.347 0 0)
(290.216 0 0)
(290.093 0 0)
(290.057 0 0)
(289.97 0 0)
(289.814 0 0)
(289.725 0 0)
(289.682 0 0)
(289.549 0 0)
(289.394 0 0)
(289.341 0 0)
(289.268 0 0)
(289.098 0 0)
(288.984 0 0)
(288.94 0 0)
(288.825 0 0)
(288.657 0 0)
(288.583 0 0)
(288.539 0 0)
(288.379 0 0)
(288.248 0 0)
(288.211 0 0)
(288.11 0 0)
(287.948 0 0)
(287.873 0 0)
(287.827 0 0)
(287.687 0 0)
(287.567 0 0)
(287.515 0 0)
(287.41 0 0)
(287.286 0 0)
(287.237 0 0)
(287.164 0 0)
(287.032 0 0)
(286.959 0 0)
(286.914 0 0)
(286.811 0 0)
(286.728 0 0)
(286.689 0 0)
(286.604 0 0)
(286.52 0 0)
(286.485 0 0)
(286.411 0 0)
(286.334 0 0)
(286.298 0 0)
(286.233 0 0)
(286.163 0 0)
(286.133 0 0)
(286.086 0 0)
(286.028 0 0)
(285.998 0 0)
(285.965 0 0)
(285.908 0 0)
(285.878 0 0)
(285.855 0 0)
(285.814 0 0)
(285.785 0 0)
(285.769 0 0)
(285.735 0 0)
(285.703 0 0)
(285.695 0 0)
(285.679 0 0)
(285.651 0 0)
(285.637 0 0)
(285.628 0 0)
(285.61 0 0)
(285.597 0 0)
(285.592 0 0)
(285.581 0 0)
(285.569 0 0)
(285.564 0 0)
(285.558 0 0)
(285.547 0 0)
(285.542 0 0)
(285.54 0 0)
(285.534 0 0)
(285.529 0 0)
(285.528 0 0)
(285.526 0 0)
(285.522 0 0)
(285.521 0 0)
(285.521 0 0)
(285.519 0 0)
(285.517 0 0)
(285.517 0 0)
(285.517 0 0)
(285.516 0 0)
(285.515 0 0)
(285.516 0 0)
(285.516 0 0)
(285.515 0 0)
(285.515 0 0)
(285.515 0 0)
(285.515 0 0)
(285.515 0 0)
(285.516 0 0)
(285.516 0 0)
(285.516 0 0)
(285.516 0 0)
)
;

boundaryField
{
    sides
    {
        type            zeroGradient;
    }
    empty
    {
        type            empty;
    }
}


// ************************************************************************* //
