/*--------------------------------*- C++ -*----------------------------------*\
  =========                 |
  \\      /  F ield         | OpenFOAM: The Open Source CFD Toolbox
   \\    /   O peration     | Website:  https://openfoam.org
    \\  /    A nd           | Version:  9
     \\/     M anipulation  |
\*---------------------------------------------------------------------------*/
FoamFile
{
    format      ascii;
    class       volScalarField;
    location    "0.026";
    object      rho;
}
// * * * * * * * * * * * * * * * * * * * * * * * * * * * * * * * * * * * * * //

dimensions      [1 -3 0 0 0 0 0];

internalField   nonuniform List<scalar> 
10000
(
0.663381
0.663283
0.663224
0.66316
0.663097
0.663034
0.662971
0.662908
0.662845
0.662783
0.66272
0.662656
0.662593
0.66253
0.662466
0.662403
0.662339
0.662276
0.662213
0.662149
0.662086
0.662024
0.661961
0.661897
0.661834
0.661771
0.661708
0.661644
0.661581
0.661518
0.661455
0.661392
0.661329
0.661266
0.661204
0.661142
0.661079
0.661016
0.660954
0.660891
0.660828
0.660765
0.660703
0.66064
0.660577
0.660514
0.660451
0.660388
0.660325
0.660262
0.660199
0.660137
0.660074
0.660011
0.659948
0.659885
0.659822
0.659759
0.659696
0.659633
0.65957
0.659507
0.659444
0.659381
0.659318
0.659255
0.659192
0.659129
0.659066
0.659003
0.65894
0.658877
0.658814
0.658751
0.658687
0.658624
0.658561
0.658498
0.658435
0.658372
0.658309
0.658246
0.658183
0.65812
0.658057
0.657994
0.657932
0.657869
0.657806
0.657743
0.65768
0.657617
0.657555
0.657492
0.657429
0.657367
0.657304
0.657241
0.657178
0.657115
0.657053
0.65699
0.656928
0.656866
0.656804
0.656741
0.656679
0.656616
0.656553
0.65649
0.656428
0.656365
0.656302
0.65624
0.656177
0.656115
0.656052
0.65599
0.655927
0.655864
0.655801
0.655738
0.655675
0.655613
0.655551
0.655489
0.655426
0.655363
0.655299
0.655236
0.655174
0.655112
0.65505
0.654988
0.654925
0.654862
0.654799
0.654736
0.654674
0.654611
0.654549
0.654486
0.654424
0.654362
0.6543
0.654237
0.654175
0.654112
0.654048
0.653985
0.653923
0.653862
0.653802
0.65374
0.653677
0.653611
0.653546
0.653483
0.653422
0.653364
0.653306
0.653245
0.65318
0.653113
0.653047
0.652984
0.652923
0.652864
0.652805
0.652742
0.652678
0.652614
0.652551
0.65249
0.652428
0.652365
0.6523
0.652235
0.652173
0.652116
0.652062
0.652004
0.651936
0.651864
0.651792
0.651723
0.651663
0.651622
0.651582
0.651518
0.651442
0.651364
0.651289
0.651218
0.651158
0.651117
0.651078
0.651016
0.650942
0.650867
0.650795
0.650729
0.650671
0.650619
0.650563
0.6505
0.650435
0.650372
0.650312
0.650253
0.65019
0.650121
0.650051
0.649984
0.649923
0.649876
0.649834
0.649773
0.649699
0.649623
0.649548
0.649479
0.649422
0.649389
0.649346
0.649273
0.649194
0.649118
0.649049
0.649006
0.648978
0.648908
0.648825
0.648742
0.648668
0.648613
0.648616
0.648573
0.648489
0.648391
0.648298
0.648216
0.648144
0.648103
0.648123
0.648087
0.648003
0.647899
0.647798
0.647715
0.647643
0.647603
0.647621
0.647582
0.647497
0.647396
0.647302
0.647223
0.647157
0.64715
0.647137
0.64706
0.646968
0.646877
0.6468
0.64674
0.646736
0.646694
0.64661
0.646516
0.64643
0.646357
0.646313
0.646325
0.64628
0.646194
0.646092
0.645997
0.645916
0.645846
0.645818
0.645836
0.645786
0.645699
0.645597
0.645507
0.645432
0.645375
0.645378
0.645338
0.645254
0.645157
0.645067
0.644992
0.644937
0.644948
0.644924
0.644844
0.644746
0.644642
0.644556
0.644475
0.644402
0.644351
0.64437
0.644396
0.644338
0.64425
0.644147
0.64405
0.643967
0.643887
0.643816
0.643777
0.64379
0.643743
0.643658
0.643556
0.643465
0.643391
0.643339
0.643349
0.643312
0.643228
0.643124
0.643026
0.642949
0.642886
0.642886
0.642886
0.642814
0.642719
0.642609
0.642521
0.642449
0.642406
0.642427
0.642392
0.642309
0.642202
0.642097
0.642016
0.641948
0.64193
0.641953
0.641901
0.641813
0.641701
0.641596
0.641515
0.641447
0.641426
0.641455
0.641412
0.641326
0.641217
0.641111
0.641029
0.640959
0.640928
0.640967
0.640952
0.640873
0.640772
0.640646
0.640549
0.640471
0.640404
0.640386
0.640414
0.640368
0.640282
0.640172
0.640065
0.639983
0.639915
0.639888
0.639917
0.639876
0.639792
0.639683
0.639576
0.639494
0.639425
0.639398
0.639426
0.639386
0.639302
0.639194
0.639086
0.639004
0.638935
0.638907
0.638937
0.638899
0.638814
0.638703
0.638579
0.638489
0.638415
0.638356
0.638369
0.638434
0.638409
0.638328
0.638226
0.638089
0.63798
0.637896
0.637817
0.637747
0.637705
0.637735
0.637739
0.637668
0.637575
0.637455
0.637357
0.63728
0.637215
0.637206
0.637228
0.637172
0.637084
0.636972
0.636872
0.636795
0.63673
0.63672
0.636734
0.636673
0.636584
0.636481
0.636395
0.636323
0.636283
0.636284
0.636224
0.636137
0.636035
0.635948
0.635877
0.635835
0.635861
0.635838
0.635757
0.635651
0.635517
0.635419
0.635343
0.635281
0.635283
0.635362
0.635367
0.635294
0.635199
0.635063
0.634921
0.634828
0.634748
0.634673
0.634611
0.634602
0.634657
0.634639
0.634561
0.63446
0.63433
0.63423
0.634152
0.634085
0.634068
0.634106
0.634074
0.633992
0.633885
0.633764
0.633675
0.633602
0.633549
0.633568
0.633581
0.633514
0.633423
0.633301
0.633197
0.633118
0.633051
0.633032
0.63307
0.633037
0.632955
0.632849
0.632732
0.632646
0.632573
0.632524
0.632544
0.632539
0.632465
0.632371
0.632256
0.632167
0.632094
0.63204
0.632055
0.632054
0.631981
0.631888
0.631771
0.631678
0.631604
0.631545
0.631551
0.631569
0.631508
0.631419
0.631306
0.631207
0.631129
0.631064
0.631049
0.631063
0.631004
0.630917
0.630815
0.630729
0.630657
0.63061
0.630611
0.630559
0.630475
0.630378
0.630292
0.630221
0.630175
0.630192
0.630158
0.630077
0.629975
0.62987
0.629789
0.629722
0.629695
0.629725
0.629687
0.629605
0.629498
0.629384
0.6293
0.62923
0.629186
0.629214
0.62921
0.629136
0.629042
0.628924
0.628832
0.628757
0.628695
0.628694
0.628702
0.628637
0.628548
0.628442
0.628356
0.628285
0.628238
0.628267
0.628282
0.628216
0.628126
0.627997
0.627857
0.627764
0.627685
0.627609
0.627545
0.627523
0.627581
0.627609
0.627547
0.627459
0.627337
0.627207
0.627119
0.627045
0.626983
0.626978
0.627017
0.626975
0.626893
0.626785
0.626668
0.626583
0.626511
0.626461
0.626479
0.626484
0.626415
0.626324
0.626205
0.626106
0.62603
0.625965
0.625951
0.625981
0.625936
0.625852
0.625742
0.625627
0.625544
0.625475
0.625433
0.625465
0.625472
0.625404
0.625312
0.625184
0.625072
0.624992
0.624923
0.624889
0.624936
0.624975
0.624921
0.624835
0.624722
0.624589
0.624494
0.624415
0.624338
0.624261
0.624186
0.624121
0.624093
0.624141
0.624159
0.624094
0.624006
0.623885
0.623766
0.623682
0.62361
0.623554
0.62356
0.623583
0.623526
0.62344
0.623329
0.623226
0.623147
0.623079
0.623048
0.623084
0.623066
0.62299
0.622896
0.622787
0.622701
0.622627
0.622562
0.622532
0.622489
0.622413
0.622334
0.622259
0.622195
0.622183
0.622184
0.622118
0.622032
0.62194
0.621864
0.621799
0.621786
0.621796
0.621734
0.621645
0.621518
0.621381
0.621292
0.621218
0.621155
0.621144
0.621215
0.621237
0.621174
0.621085
0.620963
0.62083
0.620741
0.620666
0.620601
0.620577
0.620608
0.620574
0.620496
0.620397
0.620296
0.620217
0.620149
0.620115
0.620136
0.620096
0.620016
0.619913
0.619807
0.619727
0.619659
0.619621
0.61965
0.619632
0.619557
0.61946
0.61934
0.619249
0.619175
0.619114
0.619108
0.619137
0.619088
0.619005
0.618897
0.618788
0.618707
0.618639
0.618595
0.618621
0.618614
0.618542
0.61845
0.618334
0.618243
0.618168
0.618106
0.618096
0.618118
0.618065
0.617981
0.617872
0.617769
0.61769
0.617622
0.617586
0.617612
0.617585
0.617508
0.61741
0.617298
0.617214
0.617143
0.61709
0.617103
0.617108
0.617041
0.616954
0.616846
0.616759
0.616688
0.616633
0.616646
0.616665
0.616605
0.616517
0.616392
0.616253
0.616163
0.61609
0.616031
0.616032
0.616102
0.616093
0.61602
0.615927
0.615792
0.615669
0.615586
0.615515
0.615457
0.615458
0.615502
0.615463
0.615384
0.615282
0.615163
0.615076
0.615003
0.614942
0.614934
0.614953
0.614899
0.614816
0.614712
0.614616
0.61454
0.614474
0.614446
0.614455
0.6144
0.614318
0.614221
0.614136
0.614065
0.614009
0.614012
0.613993
0.61392
0.613832
0.613745
0.613672
0.613613
0.613612
0.613598
0.613525
0.613433
0.613316
0.613225
0.613152
0.613092
0.613087
0.613128
0.613088
0.613008
0.612904
0.612778
0.612688
0.612615
0.612552
0.612537
0.612575
0.612541
0.612463
0.612364
0.612249
0.612163
0.612092
0.612034
0.612034
0.612055
0.612
0.611917
0.611809
0.611703
0.611624
0.611556
0.61151
0.61153
0.611523
0.611452
0.611364
0.611258
0.611173
0.611102
0.611044
0.611043
0.611035
0.610965
0.610878
0.610778
0.610697
0.610629
0.610581
0.610596
0.610574
0.610499
0.610406
0.610296
0.610212
0.610142
0.610085
0.610089
0.610096
0.610033
0.609948
0.609841
0.609749
0.609675
0.609611
0.609589
0.609605
0.609555
0.609474
0.609374
0.609279
0.609204
0.609138
0.609109
0.609123
0.609074
0.608995
0.6089
0.608813
0.608741
0.608681
0.608674
0.60867
0.608604
0.608521
0.608434
0.608361
0.608299
0.608291
0.608276
0.608204
0.608111
0.607971
0.607841
0.607759
0.60769
0.607639
0.607662
0.607771
0.607791
0.607727
0.60764
0.607515
0.607332
0.60721
0.60713
0.60706
0.607001
0.606998
0.60708
0.607101
0.607039
0.606954
0.606834
0.60668
0.60658
0.606504
0.606437
0.606389
0.606412
0.606465
0.606424
0.606347
0.606249
0.606137
0.606054
0.605983
0.605924
0.605919
0.605908
0.605837
0.605747
0.605618
0.605505
0.605428
0.605361
0.605326
0.605376
0.605452
0.605418
0.605341
0.605242
0.605087
0.604943
0.604857
0.604783
0.604719
0.604689
0.604737
0.604775
0.604722
0.604641
0.604534
0.604408
0.60432
0.604247
0.604182
0.604149
0.604176
0.604151
0.604078
0.603987
0.603886
0.603806
0.603738
0.603686
0.603696
0.603685
0.603615
0.603528
0.603419
0.603333
0.603261
0.6032
0.603185
0.603217
0.603179
0.603103
0.603016
0.602937
0.602865
0.602804
0.602749
0.602677
0.602598
0.6025
0.602394
0.602315
0.602247
0.6022
0.602228
0.602323
0.602315
0.602244
0.602155
0.602018
0.601851
0.60175
0.601675
0.601607
0.601552
0.601559
0.601639
0.601641
0.601574
0.601491
0.601389
0.6013
0.601226
0.601154
0.601087
0.601017
0.600943
0.600867
0.600792
0.60072
0.600656
0.600621
0.600662
0.600693
0.600638
0.600556
0.600444
0.600295
0.600194
0.600119
0.600053
0.600009
0.600039
0.600091
0.600049
0.599972
0.599872
0.599737
0.599636
0.599561
0.599493
0.599444
0.599459
0.599486
0.599433
0.599354
0.59925
0.599139
0.599059
0.598989
0.598931
0.598923
0.598943
0.598892
0.598813
0.598714
0.598616
0.598541
0.598474
0.598427
0.598438
0.598412
0.598339
0.598253
0.598164
0.59809
0.598025
0.597988
0.597991
0.597941
0.597864
0.597781
0.597707
0.597639
0.597591
0.597559
0.597494
0.597419
0.597342
0.597269
0.597203
0.597159
0.597178
0.597164
0.597094
0.597008
0.596899
0.596811
0.596738
0.596673
0.596633
0.596635
0.596586
0.59651
0.596429
0.596355
0.596289
0.596248
0.596236
0.596177
0.5961
0.59601
0.595926
0.595854
0.59579
0.595757
0.59579
0.595785
0.59572
0.595643
0.595563
0.595487
0.59541
0.595329
0.595228
0.595117
0.595037
0.594969
0.594913
0.59492
0.595008
0.595021
0.594958
0.594874
0.594753
0.594597
0.594499
0.594425
0.59436
0.594319
0.594354
0.594423
0.59439
0.594315
0.594219
0.594065
0.59391
0.593821
0.593749
0.593685
0.593653
0.593706
0.593791
0.593763
0.59369
0.593598
0.593459
0.593325
0.593242
0.593171
0.59311
0.593086
0.593138
0.59315
0.593087
0.593003
0.592881
0.592704
0.59259
0.592514
0.592447
0.592394
0.592408
0.592522
0.592573
0.592522
0.592444
0.59234
0.592174
0.592026
0.591941
0.591869
0.591805
0.591764
0.591799
0.591883
0.591863
0.591792
0.591704
0.591573
0.591416
0.591321
0.591247
0.591176
0.591113
0.591073
0.591102
0.591128
0.591076
0.591001
0.590924
0.590856
0.590803
0.590798
0.590759
0.590684
0.590589
0.590443
0.590317
0.590236
0.590164
0.590094
0.590032
0.589996
0.59004
0.590149
0.590145
0.590078
0.589995
0.589873
0.589696
0.589578
0.589501
0.589432
0.589371
0.589348
0.589407
0.589454
0.589405
0.589328
0.589229
0.589092
0.588988
0.588914
0.588846
0.58879
0.588785
0.58883
0.588801
0.588729
0.58864
0.588522
0.588428
0.588356
0.58829
0.58824
0.588248
0.588245
0.58818
0.5881
0.588002
0.58792
0.58785
0.587789
0.587767
0.587778
0.587727
0.587651
0.587557
0.587467
0.587394
0.58733
0.587289
0.5873
0.587266
0.587194
0.587106
0.587012
0.586938
0.586872
0.586823
0.586831
0.586814
0.586746
0.586662
0.58656
0.586478
0.586408
0.586348
0.586327
0.586355
0.586318
0.586245
0.586155
0.586051
0.585971
0.585903
0.585843
0.585826
0.585843
0.585795
0.585721
0.58563
0.585542
0.58547
0.585402
0.585347
0.585315
0.585261
0.58519
0.585118
0.585048
0.584985
0.584944
0.584951
0.584912
0.58484
0.584754
0.584672
0.584602
0.584541
0.584514
0.584538
0.584504
0.584431
0.584341
0.584229
0.584144
0.584073
0.584008
0.58396
0.583947
0.583901
0.58383
0.583755
0.583684
0.58362
0.583576
0.583596
0.583595
0.58353
0.583448
0.583329
0.583201
0.583119
0.58305
0.58299
0.582968
0.583023
0.58304
0.582981
0.582902
0.582794
0.582663
0.582576
0.582506
0.582444
0.58241
0.582455
0.582516
0.582477
0.582404
0.582311
0.582167
0.582016
0.581928
0.581856
0.581786
0.581717
0.581648
0.581583
0.581529
0.581527
0.581618
0.581667
0.581619
0.581544
0.581447
0.581293
0.581145
0.581061
0.58099
0.580927
0.580882
0.580907
0.580987
0.58097
0.580902
0.580817
0.580693
0.580552
0.580465
0.580395
0.580332
0.580286
0.580306
0.580357
0.580319
0.580246
0.580155
0.580025
0.579918
0.579844
0.579778
0.579721
0.579709
0.579758
0.579741
0.579673
0.579589
0.579472
0.579364
0.579289
0.579222
0.579164
0.579145
0.579182
0.579158
0.579089
0.579005
0.578895
0.578806
0.578736
0.578672
0.578624
0.578636
0.578635
0.578573
0.578496
0.578398
0.578311
0.57824
0.578176
0.578129
0.578133
0.578104
0.578035
0.577955
0.577874
0.577805
0.577743
0.577708
0.577713
0.577666
0.577593
0.577507
0.577428
0.57736
0.577302
0.577286
0.577332
0.577316
0.577248
0.577162
0.577032
0.576863
0.576762
0.576688
0.576619
0.576551
0.576485
0.576428
0.576408
0.57648
0.576583
0.576562
0.576494
0.576411
0.576287
0.576107
0.57599
0.575915
0.575847
0.575786
0.575751
0.575792
0.575858
0.575824
0.575753
0.575666
0.575535
0.575408
0.575329
0.57526
0.575198
0.575158
0.575187
0.575222
0.575174
0.575101
0.575007
0.574888
0.574801
0.574732
0.574669
0.574626
0.574649
0.574686
0.57464
0.574567
0.574474
0.574337
0.574221
0.574144
0.574075
0.574007
0.57394
0.573883
0.573859
0.57391
0.573945
0.573895
0.573821
0.573728
0.5736
0.573502
0.57343
0.573363
0.573305
0.57328
0.57331
0.573287
0.573219
0.573138
0.57304
0.57296
0.572892
0.572832
0.572799
0.572828
0.572813
0.572747
0.572668
0.57256
0.572455
0.57238
0.572311
0.572243
0.572176
0.572109
0.572051
0.572023
0.572063
0.572074
0.572015
0.571941
0.571847
0.571752
0.571679
0.571612
0.571554
0.571527
0.571534
0.571485
0.571412
0.571319
0.571206
0.571125
0.571056
0.570995
0.570953
0.570976
0.570996
0.570944
0.570871
0.570783
0.57069
0.570617
0.570549
0.570481
0.570415
0.57035
0.570289
0.570238
0.570215
0.570247
0.570243
0.570182
0.570108
0.570018
0.569887
0.56977
0.569693
0.569625
0.56956
0.569502
0.569476
0.56953
0.569578
0.569535
0.569463
0.569376
0.569248
0.569135
0.56906
0.568992
0.56893
0.568883
0.568896
0.568912
0.56886
0.568787
0.568696
0.5686
0.568526
0.56846
0.568401
0.568371
0.568373
0.568323
0.568252
0.56817
0.568093
0.568026
0.567966
0.567934
0.567935
0.567885
0.567814
0.567727
0.567639
0.567569
0.567504
0.567451
0.567446
0.567456
0.567403
0.567331
0.567248
0.567171
0.567104
0.567038
0.566981
0.566932
0.56687
0.566805
0.56674
0.566684
0.566658
0.566697
0.566694
0.566631
0.566554
0.566444
0.56628
0.566164
0.56609
0.566023
0.565959
0.565905
0.565894
0.565972
0.566026
0.565982
0.565911
0.565824
0.565688
0.565547
0.565463
0.565395
0.565332
0.565278
0.565272
0.565334
0.56533
0.565267
0.565191
0.565086
0.564966
0.564886
0.564818
0.564757
0.564711
0.564725
0.56475
0.564702
0.56463
0.564539
0.564419
0.56433
0.564262
0.564199
0.564149
0.564153
0.564207
0.564182
0.564116
0.564036
0.563923
0.563802
0.563723
0.563655
0.563588
0.563522
0.563456
0.563397
0.56336
0.563389
0.563426
0.563381
0.56331
0.563225
0.563108
0.563014
0.562944
0.562879
0.562822
0.562794
0.56282
0.562794
0.562728
0.562648
0.562543
0.562453
0.562384
0.562322
0.56227
0.562269
0.562297
0.562255
0.562185
0.562099
0.561991
0.561909
0.561842
0.561781
0.561739
0.561761
0.561788
0.561739
0.561667
0.561577
0.561439
0.561319
0.561243
0.561176
0.56111
0.561046
0.560991
0.560973
0.561034
0.561073
0.561025
0.560955
0.560868
0.56074
0.560628
0.560554
0.560488
0.560427
0.560382
0.560396
0.560447
0.560415
0.560348
0.560269
0.560158
0.56005
0.559975
0.559909
0.559843
0.559777
0.559711
0.559647
0.55959
0.559558
0.559594
0.559615
0.559563
0.559492
0.559403
0.559283
0.559193
0.559125
0.55906
0.559004
0.558978
0.559009
0.558991
0.558927
0.558852
0.558752
0.558659
0.55859
0.558525
0.558467
0.558434
0.558447
0.558411
0.558344
0.558273
0.558205
0.558145
0.558101
0.558117
0.558117
0.558058
0.557983
0.557879
0.557724
0.557614
0.557541
0.557475
0.557409
0.557344
0.557279
0.557218
0.557167
0.557166
0.557262
0.557327
0.557287
0.557219
0.557136
0.557007
0.556819
0.556706
0.556633
0.556568
0.556508
0.556466
0.55649
0.556586
0.556588
0.556528
0.556455
0.556357
0.556204
0.556085
0.556012
0.555946
0.555886
0.555837
0.555844
0.555907
0.555888
0.555824
0.555749
0.555644
0.55552
0.555439
0.555373
0.55531
0.555256
0.555239
0.555269
0.555239
0.555174
0.555097
0.554998
0.554916
0.554849
0.554787
0.554734
0.554724
0.554732
0.554681
0.554612
0.554533
0.55446
0.554395
0.554337
0.554305
0.554325
0.554298
0.554232
0.554153
0.554039
0.55391
0.55383
0.553763
0.553698
0.553633
0.553574
0.553528
0.553539
0.553612
0.553602
0.55354
0.553467
0.553367
0.553244
0.553161
0.553095
0.553034
0.552985
0.55299
0.553064
0.553062
0.553002
0.552928
0.552827
0.55265
0.552484
0.552397
0.55233
0.552265
0.552201
0.552138
0.552084
0.552061
0.552125
0.552244
0.552238
0.552178
0.552105
0.552008
0.551847
0.551699
0.551618
0.551552
0.55149
0.551435
0.551415
0.551477
0.551526
0.551483
0.551415
0.551333
0.551209
0.551078
0.550999
0.550934
0.550872
0.55082
0.55081
0.550864
0.550858
0.550798
0.550725
0.550627
0.550501
0.550415
0.550349
0.550286
0.550231
0.550209
0.550246
0.550234
0.550172
0.550099
0.550001
0.549894
0.54982
0.549756
0.549696
0.549649
0.549656
0.549666
0.549613
0.549543
0.549457
0.549357
0.549283
0.549219
0.54916
0.549117
0.549133
0.549164
0.549121
0.549054
0.548979
0.548894
0.548823
0.548758
0.548693
0.548629
0.548562
0.54849
0.548399
0.5483
0.548228
0.548164
0.548104
0.548057
0.548063
0.548162
0.548199
0.548152
0.548083
0.548
0.547868
0.547714
0.547627
0.54756
0.547497
0.547439
0.547396
0.547414
0.54746
0.547425
0.54736
0.547284
0.547179
0.547079
0.547009
0.546945
0.546886
0.54684
0.546847
0.546841
0.546783
0.546713
0.546624
0.546534
0.546466
0.546404
0.546349
0.546322
0.546347
0.54632
0.546257
0.546181
0.546075
0.545973
0.545903
0.54584
0.545784
0.545756
0.545802
0.54585
0.54581
0.545744
0.545665
0.545548
0.545412
0.545329
0.545263
0.545199
0.545136
0.545072
0.545009
0.544946
0.544889
0.544849
0.54487
0.544929
0.544901
0.544837
0.544763
0.544658
0.544528
0.544445
0.54438
0.544318
0.544264
0.544242
0.544292
0.544312
0.544261
0.544193
0.544107
0.543976
0.54386
0.543788
0.543724
0.543665
0.543616
0.543616
0.543679
0.543672
0.543613
0.543543
0.543454
0.543349
0.543274
0.54321
0.543147
0.543088
0.543039
0.542991
0.54293
0.542867
0.542804
0.542741
0.542684
0.542644
0.54266
0.542659
0.542602
0.542533
0.542443
0.542324
0.542239
0.542175
0.542114
0.542062
0.542049
0.542098
0.542089
0.542029
0.541959
0.541862
0.541731
0.541641
0.541575
0.541513
0.541459
0.541432
0.541476
0.541496
0.541446
0.541378
0.541295
0.54117
0.541064
0.540994
0.540932
0.540874
0.54083
0.540843
0.54089
0.540856
0.540793
0.540718
0.540614
0.54051
0.54044
0.540377
0.54032
0.540278
0.540296
0.540342
0.540306
0.540242
0.540166
0.540054
0.539898
0.539801
0.539734
0.539671
0.539608
0.539546
0.539487
0.539437
0.539429
0.539513
0.539583
0.539549
0.539485
0.539411
0.539308
0.539145
0.539024
0.538952
0.538888
0.538826
0.538763
0.538702
0.538643
0.538595
0.538592
0.538669
0.538692
0.538641
0.538575
0.538494
0.538373
0.538249
0.538174
0.53811
0.538049
0.537994
0.537961
0.537989
0.53799
0.537935
0.537868
0.537783
0.537675
0.537596
0.537532
0.537472
0.537419
0.537399
0.537429
0.537404
0.537342
0.537271
0.537175
0.537074
0.537004
0.536942
0.536884
0.536836
0.536838
0.536858
0.536813
0.536748
0.536671
0.536573
0.536492
0.536428
0.536368
0.536313
0.536284
0.536303
0.536276
0.536214
0.536145
0.536065
0.535995
0.535933
0.535873
0.53582
0.535781
0.535729
0.535668
0.535605
0.535541
0.535479
0.535418
0.535363
0.535328
0.535332
0.535293
0.53523
0.535159
0.535078
0.535011
0.534949
0.534892
0.534849
0.534858
0.534859
0.534806
0.534741
0.534665
0.53458
0.53451
0.534446
0.534383
0.534319
0.534254
0.534192
0.53413
0.534068
0.534009
0.533958
0.53394
0.533972
0.533948
0.533887
0.533816
0.533719
0.533598
0.533518
0.533455
0.533395
0.533343
0.533322
0.533369
0.53338
0.533327
0.533261
0.53318
0.533064
0.532968
0.532901
0.53284
0.532783
0.532736
0.532738
0.532757
0.532713
0.532649
0.532574
0.532472
0.532385
0.532321
0.53226
0.532206
0.532171
0.532196
0.532194
0.532139
0.532073
0.531989
0.531879
0.531798
0.531734
0.531674
0.53162
0.531587
0.531616
0.531627
0.531576
0.531512
0.531439
0.53137
0.531308
0.531248
0.531196
0.531148
0.531089
0.531026
0.530956
0.530862
0.530743
0.530664
0.530601
0.530543
0.530494
0.530487
0.530571
0.530627
0.530588
0.530525
0.530452
0.530343
0.530179
0.530072
0.530005
0.529944
0.529885
0.529836
0.529826
0.529891
0.529907
0.529856
0.529791
0.529713
0.529592
0.529471
0.529398
0.529336
0.529277
0.529224
0.529197
0.529235
0.529248
0.529197
0.529133
0.529055
0.528946
0.528856
0.528791
0.528731
0.528675
0.528635
0.52865
0.528675
0.528632
0.528569
0.528495
0.528389
0.528285
0.528216
0.528155
0.528096
0.528045
0.528027
0.528028
0.527978
0.527914
0.527837
0.527731
0.527643
0.527579
0.52752
0.527468
0.527443
0.527495
0.527546
0.527508
0.527446
0.527374
0.527268
0.527118
0.527023
0.526957
0.526897
0.526841
0.526795
0.526799
0.526863
0.526853
0.526795
0.526729
0.526644
0.526519
0.52642
0.526354
0.526294
0.526237
0.526189
0.526184
0.526228
0.526205
0.526145
0.526077
0.525987
0.525866
0.525783
0.52572
0.52566
0.525605
0.525566
0.525584
0.525609
0.525566
0.525503
0.525431
0.525329
0.525227
0.525159
0.525098
0.52504
0.524988
0.524965
0.524993
0.524971
0.524913
0.524847
0.524764
0.52468
0.524616
0.524556
0.524499
0.524452
0.524448
0.524463
0.524419
0.524358
0.524292
0.524214
0.524114
0.524035
0.523973
0.523912
0.523852
0.523792
0.523732
0.523672
0.523613
0.523559
0.523519
0.523534
0.523575
0.523541
0.52348
0.523411
0.523317
0.523195
0.523114
0.523052
0.522993
0.522938
0.522896
0.522906
0.52293
0.522887
0.522826
0.522755
0.522663
0.522584
0.522522
0.522463
0.52241
0.522379
0.522415
0.522439
0.522394
0.522331
0.522258
0.522148
0.521999
0.521908
0.521844
0.521784
0.521724
0.521665
0.521605
0.521546
0.521487
0.521434
0.521396
0.521419
0.521492
0.521475
0.521418
0.521353
0.521271
0.521145
0.521033
0.520964
0.520904
0.520845
0.520792
0.520758
0.520784
0.520803
0.520756
0.520694
0.520623
0.520525
0.520436
0.520372
0.520312
0.520256
0.52021
0.520205
0.52022
0.520176
0.520114
0.520043
0.519944
0.519849
0.519784
0.519724
0.519668
0.51962
0.519614
0.51965
0.519622
0.519563
0.519497
0.51941
0.519303
0.519229
0.519168
0.519109
0.519055
0.519013
0.519019
0.519016
0.518964
0.518902
0.51883
0.518751
0.518687
0.518628
0.518571
0.518523
0.518504
0.518472
0.518414
0.518353
0.518284
0.518211
0.518149
0.51809
0.518035
0.51799
0.517984
0.517969
0.517913
0.517851
0.517781
0.517713
0.517653
0.517595
0.517539
0.517496
0.517459
0.517405
0.517346
0.517287
0.517228
0.51717
0.517115
0.517073
0.51707
0.517041
0.516983
0.51692
0.516843
0.516762
0.516698
0.516639
0.516583
0.516536
0.516526
0.516515
0.516461
0.516399
0.516326
0.516241
0.516175
0.516116
0.51606
0.516013
0.516006
0.516036
0.516003
0.515944
0.515877
0.515787
0.515673
0.515596
0.515536
0.515478
0.515424
0.515383
0.515395
0.515422
0.515382
0.515322
0.515255
0.515162
0.515043
0.514964
0.514902
0.514844
0.514785
0.514728
0.514675
0.514636
0.514652
0.514686
0.514649
0.514589
0.514524
0.514438
0.514339
0.51427
0.51421
0.514152
0.514098
0.514057
0.514063
0.514065
0.514015
0.513954
0.513886
0.513807
0.513743
0.513684
0.513626
0.513571
0.513524
0.513477
0.51342
0.513362
0.513303
0.513245
0.513187
0.513133
0.513091
0.51309
0.51307
0.513014
0.512953
0.512879
0.512794
0.512728
0.51267
0.512613
0.512561
0.512533
0.512545
0.512513
0.512455
0.512392
0.512317
0.512248
0.512189
0.512131
0.512076
0.512031
0.511996
0.511945
0.511887
0.511828
0.51177
0.511712
0.511655
0.511602
0.511564
0.511566
0.511536
0.511478
0.511416
0.511342
0.511268
0.511207
0.511149
0.511094
0.511047
0.511023
0.510987
0.510931
0.510872
0.510811
0.510751
0.510693
0.510637
0.510586
0.510555
0.510526
0.510472
0.510413
0.510351
0.510283
0.510221
0.510163
0.510107
0.510058
0.510038
0.510045
0.510004
0.509945
0.50988
0.509795
0.509715
0.509654
0.509597
0.509542
0.509497
0.509493
0.509506
0.509463
0.509404
0.509338
0.509253
0.509174
0.509113
0.509055
0.509
0.508953
0.50893
0.508893
0.508836
0.508777
0.50871
0.508625
0.50855
0.50849
0.508433
0.508379
0.508336
0.508336
0.508372
0.508341
0.508284
0.508221
0.508142
0.508044
0.507974
0.507915
0.507858
0.507804
0.50776
0.507757
0.50777
0.507727
0.507668
0.507605
0.507527
0.507447
0.507385
0.507327
0.507269
0.507211
0.507152
0.507088
0.507025
0.506966
0.506909
0.506852
0.506798
0.506754
0.506748
0.506803
0.506796
0.506743
0.506683
0.50661
0.5065
0.506372
0.506297
0.506238
0.506181
0.506127
0.506083
0.50608
0.506132
0.506117
0.506063
0.506003
0.50593
0.505822
0.505723
0.505658
0.5056
0.505544
0.505491
0.505449
0.505451
0.505464
0.50542
0.505361
0.505297
0.505214
0.505133
0.505071
0.505014
0.504958
0.504907
0.504874
0.504878
0.504846
0.504789
0.50473
0.504662
0.504596
0.504538
0.504481
0.504424
0.504368
0.504312
0.504258
0.504207
0.504162
0.50413
0.504108
0.504062
0.504005
0.503948
0.503891
0.503831
0.503768
0.50371
0.503653
0.503597
0.503546
0.503509
0.503509
0.50348
0.503424
0.503365
0.503298
0.503232
0.503175
0.503118
0.503063
0.503011
0.502966
0.502914
0.502858
0.502801
0.502745
0.502688
0.502635
0.502589
0.502575
0.502556
0.502504
0.502446
0.502382
0.502307
0.502241
0.502184
0.502128
0.502075
0.502035
0.502035
0.502017
0.501963
0.501904
0.501835
0.501749
0.501679
0.501621
0.501565
0.501511
0.501465
0.501453
0.501445
0.501396
0.501339
0.501276
0.501211
0.501153
0.501096
0.501041
0.500989
0.500948
0.500902
0.500847
0.500791
0.500735
0.500679
0.500623
0.500571
0.500533
0.500514
0.500471
0.500415
0.500358
0.500299
0.50024
0.500184
0.500129
0.500077
0.500038
0.500039
0.500015
0.499961
0.499902
0.499833
0.499736
0.499645
0.499583
0.499526
0.49947
0.499414
0.499358
0.499303
0.499253
0.499217
0.499237
0.499277
0.499243
0.499188
0.499127
0.499052
0.498941
0.498844
0.498782
0.498725
0.49867
0.498618
0.498576
0.498577
0.498594
0.498553
0.498496
0.498435
0.498357
0.498273
0.498211
0.498155
0.4981
0.498049
0.498014
0.498015
0.497985
0.49793
0.49787
0.4978
0.497718
0.497654
0.497598
0.497543
0.497494
0.497462
0.497482
0.497478
0.497428
0.49737
0.497304
0.49721
0.49709
0.497015
0.496956
0.4969
0.496845
0.496789
0.496735
0.496688
0.496662
0.496697
0.496712
0.496667
0.49661
0.496548
0.496469
0.496367
0.496295
0.496237
0.496182
0.496127
0.496078
0.496047
0.496054
0.496023
0.495968
0.49591
0.495842
0.495771
0.495712
0.495657
0.495603
0.495555
0.495534
0.495552
0.495523
0.495468
0.49541
0.49534
0.495247
0.495168
0.495108
0.495053
0.494997
0.494942
0.494887
0.494831
0.494776
0.494724
0.494679
0.494668
0.494714
0.494708
0.494658
0.494602
0.494543
0.494475
0.494376
0.494224
0.494125
0.494062
0.494006
0.493951
0.493896
0.493845
0.493804
0.493808
0.493891
0.493913
0.493869
0.493813
0.493752
0.493674
0.493551
0.493442
0.493377
0.493321
0.493266
0.493213
0.493165
0.493139
0.493164
0.493154
0.493104
0.493047
0.492983
0.492898
0.492814
0.492753
0.492698
0.492643
0.492592
0.492551
0.492547
0.492533
0.492483
0.492426
0.492365
0.492291
0.492226
0.49217
0.492116
0.492063
0.492017
0.491993
0.491962
0.49191
0.491855
0.491798
0.491741
0.491686
0.491632
0.491579
0.491533
0.491514
0.491507
0.491461
0.491406
0.49135
0.491289
0.491218
0.49115
0.491091
0.491033
0.490975
0.49091
0.49084
0.490781
0.490726
0.490671
0.490617
0.490566
0.490524
0.49052
0.490581
0.490584
0.490536
0.49048
0.490417
0.490334
0.490206
0.490109
0.490048
0.489993
0.489939
0.489887
0.489843
0.489832
0.489862
0.489835
0.489782
0.489724
0.489659
0.489572
0.489498
0.489441
0.489386
0.489333
0.489283
0.489249
0.489233
0.489189
0.489135
0.489079
0.489019
0.488955
0.488899
0.488844
0.488791
0.488744
0.488718
0.488716
0.488675
0.48862
0.488563
0.488494
0.488421
0.488362
0.488308
0.488255
0.488206
0.488172
0.488142
0.488092
0.488038
0.487981
0.487916
0.487843
0.487785
0.48773
0.487678
0.487631
0.48761
0.487646
0.487647
0.487599
0.487543
0.48748
0.487392
0.487257
0.487164
0.487104
0.48705
0.486997
0.48695
0.486926
0.486974
0.487052
0.487031
0.48698
0.486924
0.486858
0.486764
0.486594
0.48645
0.486378
0.486321
0.486267
0.486213
0.48616
0.486109
0.486066
0.486058
0.486131
0.486171
0.486134
0.48608
0.486023
0.485955
0.485853
0.48573
0.485657
0.485601
0.485547
0.485494
0.485444
0.485408
0.485418
0.485435
0.485395
0.48534
0.485283
0.485214
0.485124
0.485055
0.484999
0.484945
0.484893
0.484846
0.484819
0.484829
0.4848
0.484747
0.484691
0.484627
0.484539
0.484457
0.484399
0.484345
0.484291
0.484241
0.484199
0.484194
0.484196
0.484152
0.484098
0.484042
0.483977
0.483913
0.483858
0.483804
0.483751
0.4837
0.483656
0.483617
0.483567
0.483514
0.483461
0.483407
0.483354
0.483303
0.483259
0.483224
0.483177
0.483124
0.483071
0.483017
0.482964
0.48291
0.482858
0.482808
0.482768
0.482743
0.4827
0.482647
0.482594
0.482539
0.482482
0.482427
0.482373
0.48232
0.482269
0.482223
0.482198
0.482171
0.482121
0.482068
0.482014
0.481958
0.4819
0.481844
0.48179
0.481737
0.481684
0.481631
0.481577
0.481524
0.481472
0.481422
0.481383
0.481369
0.481335
0.481283
0.48123
0.481176
0.481118
0.481062
0.481008
0.480955
0.480903
0.480852
0.480811
0.480792
0.480757
0.480706
0.480653
0.480599
0.480545
0.480492
0.480439
0.480389
0.480345
0.48032
0.480284
0.480232
0.480178
0.48012
0.480049
0.47994
0.479843
0.479782
0.479729
0.479676
0.479625
0.479579
0.479556