/*--------------------------------*- C++ -*----------------------------------*\
  =========                 |
  \\      /  F ield         | OpenFOAM: The Open Source CFD Toolbox
   \\    /   O peration     | Website:  https://openfoam.org
    \\  /    A nd           | Version:  9
     \\/     M anipulation  |
\*---------------------------------------------------------------------------*/
FoamFile
{
    format      ascii;
    class       volScalarField;
    location    "0.03";
    object      mag(U);
}
// * * * * * * * * * * * * * * * * * * * * * * * * * * * * * * * * * * * * * //

dimensions      [0 1 -1 0 0 0 0];

internalField   nonuniform List<scalar> 
100
(
177.843
182.144
184.644
187.346
190
192.665
195.328
197.991
200.654
203.318
205.981
208.645
211.308
213.972
216.636
219.299
221.963
224.626
227.29
229.953
232.616
235.278
237.94
240.602
243.263
245.924
248.584
251.243
253.901
256.557
259.212
261.866
264.518
267.168
269.816
272.461
275.102
277.738
280.364
282.973
285.543
288.024
290.344
292.343
293.883
294.855
295.327
295.495
295.553
295.639
295.792
295.872
295.849
295.763
295.651
295.54
295.453
295.383
295.292
295.203
295.133
295.048
294.933
294.817
294.712
294.557
294.445
294.412
294.386
294.339
294.252
294.137
293.965
293.839
293.805
293.795
293.786
293.756
293.668
293.468
293.314
293.255
293.225
293.221
293.259
293.339
293.282
293.025
291.674
288.631
286.939
286.396
286.204
285.867
284.31
282.175
281.174
280.853
280.78
280.777
)
;

boundaryField
{
    sides
    {
        type            calculated;
        value           nonuniform List<scalar> 2(280.777 177.843);
    }
    empty
    {
        type            empty;
    }
}


// ************************************************************************* //
