/*--------------------------------*- C++ -*----------------------------------*\
  =========                 |
  \\      /  F ield         | OpenFOAM: The Open Source CFD Toolbox
   \\    /   O peration     | Website:  https://openfoam.org
    \\  /    A nd           | Version:  9
     \\/     M anipulation  |
\*---------------------------------------------------------------------------*/
FoamFile
{
    format      ascii;
    class       volScalarField;
    location    "0.03";
    object      p;
}
// * * * * * * * * * * * * * * * * * * * * * * * * * * * * * * * * * * * * * //

dimensions      [1 -1 -2 0 0 0 0];

internalField   nonuniform List<scalar> 
100
(
52122.6
51198.1
50643.8
50054.5
49481.4
48911.5
48347.7
47789.2
47236.1
46688.5
46146.1
45609.1
45077.3
44550.7
44029.3
43513
43001.9
42495.8
41994.7
41498.6
41007.5
40521.3
40040
39563.5
39091.9
38625.1
38163.1
37705.9
37253.5
36805.8
36362.9
35924.9
35491.5
35063
34639.3
34220.3
33806.3
33397.4
32994.1
32597.6
32210.8
31839.4
31497.6
31198.3
30965.4
30812.2
30728.2
30686
30658.6
30627.4
30587.4
30555.8
30537.9
30528.2
30523.6
30521.7
30517.1
30506.3
30490.3
30475.5
30468.5
30467.5
30472.1
30474.7
30468.3
30447.2
30428.3
30420.3
30416.9
30417
30420.9
30421.3
30406.2
30391.8
30386.9
30383.7
30381.1
30379.4
30378.5
30371.5
30367.7
30370.1
30371.3
30369.9
30361.6
30342.6
30321.8
30329.3
30498.5
30898.3
31146.9
31229.1
31271.3
31329.7
31552.4
31855.3
31992.7
32026.9
32032.1
32032.1
)
;

boundaryField
{
    sides
    {
        type            zeroGradient;
    }
    empty
    {
        type            empty;
    }
}


// ************************************************************************* //
