/*--------------------------------*- C++ -*----------------------------------*\
  =========                 |
  \\      /  F ield         | OpenFOAM: The Open Source CFD Toolbox
   \\    /   O peration     | Website:  https://openfoam.org
    \\  /    A nd           | Version:  9
     \\/     M anipulation  |
\*---------------------------------------------------------------------------*/
FoamFile
{
    format      ascii;
    class       volVectorField;
    location    "0.038";
    object      U;
}
// * * * * * * * * * * * * * * * * * * * * * * * * * * * * * * * * * * * * * //

dimensions      [0 1 -1 0 0 0 0];

internalField   nonuniform List<vector> 
1000
(
(209.452 0 0)
(209.796 0 0)
(209.997 0 0)
(210.216 0 0)
(210.43 0 0)
(210.646 0 0)
(210.861 0 0)
(211.076 0 0)
(211.292 0 0)
(211.507 0 0)
(211.723 0 0)
(211.938 0 0)
(212.154 0 0)
(212.369 0 0)
(212.584 0 0)
(212.799 0 0)
(213.015 0 0)
(213.23 0 0)
(213.445 0 0)
(213.66 0 0)
(213.875 0 0)
(214.091 0 0)
(214.306 0 0)
(214.521 0 0)
(214.737 0 0)
(214.952 0 0)
(215.167 0 0)
(215.383 0 0)
(215.598 0 0)
(215.813 0 0)
(216.029 0 0)
(216.244 0 0)
(216.459 0 0)
(216.675 0 0)
(216.89 0 0)
(217.105 0 0)
(217.321 0 0)
(217.536 0 0)
(217.751 0 0)
(217.967 0 0)
(218.182 0 0)
(218.397 0 0)
(218.613 0 0)
(218.828 0 0)
(219.043 0 0)
(219.259 0 0)
(219.474 0 0)
(219.689 0 0)
(219.905 0 0)
(220.12 0 0)
(220.335 0 0)
(220.551 0 0)
(220.766 0 0)
(220.982 0 0)
(221.197 0 0)
(221.411 0 0)
(221.626 0 0)
(221.842 0 0)
(222.058 0 0)
(222.274 0 0)
(222.489 0 0)
(222.704 0 0)
(222.919 0 0)
(223.134 0 0)
(223.35 0 0)
(223.566 0 0)
(223.781 0 0)
(223.996 0 0)
(224.211 0 0)
(224.426 0 0)
(224.642 0 0)
(224.859 0 0)
(225.074 0 0)
(225.288 0 0)
(225.501 0 0)
(225.715 0 0)
(225.932 0 0)
(226.152 0 0)
(226.37 0 0)
(226.584 0 0)
(226.795 0 0)
(227.005 0 0)
(227.219 0 0)
(227.438 0 0)
(227.657 0 0)
(227.874 0 0)
(228.088 0 0)
(228.3 0 0)
(228.514 0 0)
(228.729 0 0)
(228.946 0 0)
(229.163 0 0)
(229.378 0 0)
(229.592 0 0)
(229.806 0 0)
(230.022 0 0)
(230.237 0 0)
(230.452 0 0)
(230.668 0 0)
(230.883 0 0)
(231.098 0 0)
(231.313 0 0)
(231.528 0 0)
(231.743 0 0)
(231.958 0 0)
(232.173 0 0)
(232.388 0 0)
(232.603 0 0)
(232.818 0 0)
(233.033 0 0)
(233.248 0 0)
(233.463 0 0)
(233.678 0 0)
(233.894 0 0)
(234.109 0 0)
(234.324 0 0)
(234.539 0 0)
(234.754 0 0)
(234.969 0 0)
(235.184 0 0)
(235.399 0 0)
(235.614 0 0)
(235.829 0 0)
(236.044 0 0)
(236.259 0 0)
(236.474 0 0)
(236.689 0 0)
(236.904 0 0)
(237.119 0 0)
(237.334 0 0)
(237.549 0 0)
(237.764 0 0)
(237.979 0 0)
(238.194 0 0)
(238.409 0 0)
(238.624 0 0)
(238.839 0 0)
(239.054 0 0)
(239.269 0 0)
(239.484 0 0)
(239.699 0 0)
(239.914 0 0)
(240.129 0 0)
(240.344 0 0)
(240.559 0 0)
(240.774 0 0)
(240.989 0 0)
(241.204 0 0)
(241.419 0 0)
(241.634 0 0)
(241.849 0 0)
(242.064 0 0)
(242.279 0 0)
(242.494 0 0)
(242.709 0 0)
(242.924 0 0)
(243.139 0 0)
(243.354 0 0)
(243.569 0 0)
(243.784 0 0)
(243.999 0 0)
(244.214 0 0)
(244.429 0 0)
(244.644 0 0)
(244.859 0 0)
(245.074 0 0)
(245.289 0 0)
(245.504 0 0)
(245.719 0 0)
(245.934 0 0)
(246.148 0 0)
(246.363 0 0)
(246.578 0 0)
(246.793 0 0)
(247.008 0 0)
(247.223 0 0)
(247.438 0 0)
(247.653 0 0)
(247.868 0 0)
(248.083 0 0)
(248.298 0 0)
(248.513 0 0)
(248.728 0 0)
(248.942 0 0)
(249.157 0 0)
(249.372 0 0)
(249.587 0 0)
(249.802 0 0)
(250.017 0 0)
(250.232 0 0)
(250.447 0 0)
(250.661 0 0)
(250.876 0 0)
(251.091 0 0)
(251.306 0 0)
(251.521 0 0)
(251.736 0 0)
(251.951 0 0)
(252.166 0 0)
(252.38 0 0)
(252.595 0 0)
(252.81 0 0)
(253.025 0 0)
(253.24 0 0)
(253.454 0 0)
(253.669 0 0)
(253.884 0 0)
(254.099 0 0)
(254.314 0 0)
(254.529 0 0)
(254.743 0 0)
(254.958 0 0)
(255.174 0 0)
(255.389 0 0)
(255.604 0 0)
(255.819 0 0)
(256.034 0 0)
(256.249 0 0)
(256.464 0 0)
(256.679 0 0)
(256.894 0 0)
(257.109 0 0)
(257.324 0 0)
(257.539 0 0)
(257.753 0 0)
(257.968 0 0)
(258.183 0 0)
(258.397 0 0)
(258.612 0 0)
(258.826 0 0)
(259.041 0 0)
(259.255 0 0)
(259.47 0 0)
(259.685 0 0)
(259.899 0 0)
(260.114 0 0)
(260.329 0 0)
(260.544 0 0)
(260.758 0 0)
(260.973 0 0)
(261.188 0 0)
(261.402 0 0)
(261.617 0 0)
(261.832 0 0)
(262.047 0 0)
(262.261 0 0)
(262.476 0 0)
(262.691 0 0)
(262.906 0 0)
(263.12 0 0)
(263.335 0 0)
(263.55 0 0)
(263.764 0 0)
(263.979 0 0)
(264.194 0 0)
(264.408 0 0)
(264.623 0 0)
(264.838 0 0)
(265.052 0 0)
(265.267 0 0)
(265.482 0 0)
(265.696 0 0)
(265.911 0 0)
(266.126 0 0)
(266.34 0 0)
(266.555 0 0)
(266.77 0 0)
(266.984 0 0)
(267.199 0 0)
(267.414 0 0)
(267.628 0 0)
(267.843 0 0)
(268.058 0 0)
(268.272 0 0)
(268.487 0 0)
(268.701 0 0)
(268.916 0 0)
(269.131 0 0)
(269.346 0 0)
(269.56 0 0)
(269.774 0 0)
(269.989 0 0)
(270.204 0 0)
(270.42 0 0)
(270.634 0 0)
(270.848 0 0)
(271.061 0 0)
(271.276 0 0)
(271.492 0 0)
(271.708 0 0)
(271.923 0 0)
(272.136 0 0)
(272.349 0 0)
(272.563 0 0)
(272.779 0 0)
(272.997 0 0)
(273.212 0 0)
(273.425 0 0)
(273.636 0 0)
(273.849 0 0)
(274.065 0 0)
(274.284 0 0)
(274.502 0 0)
(274.714 0 0)
(274.925 0 0)
(275.135 0 0)
(275.349 0 0)
(275.569 0 0)
(275.791 0 0)
(276.004 0 0)
(276.213 0 0)
(276.422 0 0)
(276.633 0 0)
(276.851 0 0)
(277.077 0 0)
(277.293 0 0)
(277.502 0 0)
(277.71 0 0)
(277.919 0 0)
(278.133 0 0)
(278.359 0 0)
(278.58 0 0)
(278.791 0 0)
(278.999 0 0)
(279.207 0 0)
(279.418 0 0)
(279.64 0 0)
(279.866 0 0)
(280.078 0 0)
(280.287 0 0)
(280.495 0 0)
(280.705 0 0)
(280.924 0 0)
(281.152 0 0)
(281.365 0 0)
(281.574 0 0)
(281.782 0 0)
(281.991 0 0)
(282.208 0 0)
(282.439 0 0)
(282.654 0 0)
(282.863 0 0)
(283.07 0 0)
(283.279 0 0)
(283.492 0 0)
(283.721 0 0)
(283.942 0 0)
(284.151 0 0)
(284.359 0 0)
(284.567 0 0)
(284.778 0 0)
(285.001 0 0)
(285.225 0 0)
(285.436 0 0)
(285.644 0 0)
(285.853 0 0)
(286.063 0 0)
(286.283 0 0)
(286.506 0 0)
(286.718 0 0)
(286.927 0 0)
(287.138 0 0)
(287.354 0 0)
(287.577 0 0)
(287.79 0 0)
(288.001 0 0)
(288.212 0 0)
(288.428 0 0)
(288.651 0 0)
(288.864 0 0)
(289.074 0 0)
(289.283 0 0)
(289.495 0 0)
(289.713 0 0)
(289.934 0 0)
(290.146 0 0)
(290.356 0 0)
(290.566 0 0)
(290.779 0 0)
(291 0 0)
(291.217 0 0)
(291.428 0 0)
(291.638 0 0)
(291.849 0 0)
(292.064 0 0)
(292.285 0 0)
(292.499 0 0)
(292.709 0 0)
(292.919 0 0)
(293.131 0 0)
(293.348 0 0)
(293.566 0 0)
(293.777 0 0)
(293.987 0 0)
(294.197 0 0)
(294.409 0 0)
(294.626 0 0)
(294.84 0 0)
(295.049 0 0)
(295.257 0 0)
(295.466 0 0)
(295.675 0 0)
(295.89 0 0)
(296.098 0 0)
(296.303 0 0)
(296.507 0 0)
(296.71 0 0)
(296.913 0 0)
(297.118 0 0)
(297.316 0 0)
(297.512 0 0)
(297.704 0 0)
(297.894 0 0)
(298.083 0 0)
(298.268 0 0)
(298.448 0 0)
(298.622 0 0)
(298.788 0 0)
(298.947 0 0)
(299.102 0 0)
(299.25 0 0)
(299.389 0 0)
(299.52 0 0)
(299.635 0 0)
(299.733 0 0)
(299.815 0 0)
(299.882 0 0)
(299.932 0 0)
(299.967 0 0)
(299.979 0 0)
(299.987 0 0)
(299.996 0 0)
(300 0 0)
(300.001 0 0)
(300.002 0 0)
(300.001 0 0)
(299.989 0 0)
(299.969 0 0)
(299.938 0 0)
(299.9 0 0)
(299.847 0 0)
(299.794 0 0)
(299.761 0 0)
(299.732 0 0)
(299.704 0 0)
(299.678 0 0)
(299.651 0 0)
(299.623 0 0)
(299.586 0 0)
(299.542 0 0)
(299.506 0 0)
(299.47 0 0)
(299.437 0 0)
(299.407 0 0)
(299.378 0 0)
(299.344 0 0)
(299.317 0 0)
(299.304 0 0)
(299.297 0 0)
(299.298 0 0)
(299.316 0 0)
(299.352 0 0)
(299.385 0 0)
(299.412 0 0)
(299.446 0 0)
(299.474 0 0)
(299.496 0 0)
(299.512 0 0)
(299.521 0 0)
(299.515 0 0)
(299.501 0 0)
(299.501 0 0)
(299.503 0 0)
(299.503 0 0)
(299.503 0 0)
(299.5 0 0)
(299.494 0 0)
(299.479 0 0)
(299.452 0 0)
(299.436 0 0)
(299.425 0 0)
(299.413 0 0)
(299.399 0 0)
(299.383 0 0)
(299.362 0 0)
(299.329 0 0)
(299.292 0 0)
(299.266 0 0)
(299.244 0 0)
(299.225 0 0)
(299.21 0 0)
(299.197 0 0)
(299.188 0 0)
(299.183 0 0)
(299.179 0 0)
(299.178 0 0)
(299.175 0 0)
(299.162 0 0)
(299.18 0 0)
(299.204 0 0)
(299.225 0 0)
(299.244 0 0)
(299.259 0 0)
(299.269 0 0)
(299.265 0 0)
(299.247 0 0)
(299.247 0 0)
(299.25 0 0)
(299.252 0 0)
(299.253 0 0)
(299.25 0 0)
(299.241 0 0)
(299.21 0 0)
(299.193 0 0)
(299.187 0 0)
(299.18 0 0)
(299.173 0 0)
(299.164 0 0)
(299.153 0 0)
(299.137 0 0)
(299.103 0 0)
(299.072 0 0)
(299.055 0 0)
(299.039 0 0)
(299.024 0 0)
(299.009 0 0)
(298.992 0 0)
(298.97 0 0)
(298.934 0 0)
(298.918 0 0)
(298.911 0 0)
(298.908 0 0)
(298.909 0 0)
(298.918 0 0)
(298.934 0 0)
(298.937 0 0)
(298.946 0 0)
(298.963 0 0)
(298.978 0 0)
(298.99 0 0)
(298.999 0 0)
(299.003 0 0)
(298.994 0 0)
(298.982 0 0)
(298.984 0 0)
(298.986 0 0)
(298.988 0 0)
(298.988 0 0)
(298.984 0 0)
(298.97 0 0)
(298.949 0 0)
(298.942 0 0)
(298.937 0 0)
(298.931 0 0)
(298.923 0 0)
(298.91 0 0)
(298.885 0 0)
(298.861 0 0)
(298.848 0 0)
(298.836 0 0)
(298.823 0 0)
(298.809 0 0)
(298.79 0 0)
(298.759 0 0)
(298.736 0 0)
(298.724 0 0)
(298.714 0 0)
(298.706 0 0)
(298.698 0 0)
(298.685 0 0)
(298.67 0 0)
(298.678 0 0)
(298.697 0 0)
(298.717 0 0)
(298.735 0 0)
(298.744 0 0)
(298.737 0 0)
(298.738 0 0)
(298.744 0 0)
(298.749 0 0)
(298.754 0 0)
(298.758 0 0)
(298.76 0 0)
(298.755 0 0)
(298.722 0 0)
(298.698 0 0)
(298.694 0 0)
(298.692 0 0)
(298.69 0 0)
(298.687 0 0)
(298.684 0 0)
(298.681 0 0)
(298.676 0 0)
(298.669 0 0)
(298.662 0 0)
(298.653 0 0)
(298.642 0 0)
(298.623 0 0)
(298.583 0 0)
(298.557 0 0)
(298.542 0 0)
(298.53 0 0)
(298.518 0 0)
(298.504 0 0)
(298.477 0 0)
(298.457 0 0)
(298.451 0 0)
(298.45 0 0)
(298.455 0 0)
(298.467 0 0)
(298.482 0 0)
(298.493 0 0)
(298.487 0 0)
(298.486 0 0)
(298.494 0 0)
(298.5 0 0)
(298.505 0 0)
(298.508 0 0)
(298.507 0 0)
(298.493 0 0)
(298.479 0 0)
(298.478 0 0)
(298.478 0 0)
(298.478 0 0)
(298.475 0 0)
(298.466 0 0)
(298.444 0 0)
(298.43 0 0)
(298.424 0 0)
(298.418 0 0)
(298.412 0 0)
(298.402 0 0)
(298.383 0 0)
(298.357 0 0)
(298.344 0 0)
(298.334 0 0)
(298.324 0 0)
(298.313 0 0)
(298.296 0 0)
(298.266 0 0)
(298.249 0 0)
(298.24 0 0)
(298.235 0 0)
(298.23 0 0)
(298.225 0 0)
(298.215 0 0)
(298.204 0 0)
(298.211 0 0)
(298.222 0 0)
(298.233 0 0)
(298.241 0 0)
(298.246 0 0)
(298.236 0 0)
(298.228 0 0)
(298.229 0 0)
(298.231 0 0)
(298.231 0 0)
(298.229 0 0)
(298.215 0 0)
(298.201 0 0)
(298.199 0 0)
(298.198 0 0)
(298.196 0 0)
(298.193 0 0)
(298.184 0 0)
(298.161 0 0)
(298.145 0 0)
(298.138 0 0)
(298.133 0 0)
(298.127 0 0)
(298.119 0 0)
(298.106 0 0)
(298.077 0 0)
(298.058 0 0)
(298.047 0 0)
(298.038 0 0)
(298.03 0 0)
(298.021 0 0)
(298.008 0 0)
(297.98 0 0)
(297.965 0 0)
(297.961 0 0)
(297.961 0 0)
(297.966 0 0)
(297.974 0 0)
(297.977 0 0)
(297.962 0 0)
(297.959 0 0)
(297.964 0 0)
(297.969 0 0)
(297.974 0 0)
(297.976 0 0)
(297.972 0 0)
(297.952 0 0)
(297.943 0 0)
(297.942 0 0)
(297.942 0 0)
(297.942 0 0)
(297.94 0 0)
(297.932 0 0)
(297.909 0 0)
(297.896 0 0)
(297.891 0 0)
(297.887 0 0)
(297.883 0 0)
(297.878 0 0)
(297.871 0 0)
(297.855 0 0)
(297.827 0 0)
(297.814 0 0)
(297.806 0 0)
(297.799 0 0)
(297.791 0 0)
(297.781 0 0)
(297.765 0 0)
(297.737 0 0)
(297.726 0 0)
(297.721 0 0)
(297.719 0 0)
(297.717 0 0)
(297.716 0 0)
(297.708 0 0)
(297.698 0 0)
(297.703 0 0)
(297.708 0 0)
(297.712 0 0)
(297.714 0 0)
(297.711 0 0)
(297.693 0 0)
(297.686 0 0)
(297.686 0 0)
(297.687 0 0)
(297.686 0 0)
(297.682 0 0)
(297.665 0 0)
(297.648 0 0)
(297.644 0 0)
(297.642 0 0)
(297.64 0 0)
(297.636 0 0)
(297.626 0 0)
(297.601 0 0)
(297.586 0 0)
(297.579 0 0)
(297.575 0 0)
(297.57 0 0)
(297.565 0 0)
(297.558 0 0)
(297.541 0 0)
(297.511 0 0)
(297.497 0 0)
(297.491 0 0)
(297.486 0 0)
(297.482 0 0)
(297.478 0 0)
(297.469 0 0)
(297.446 0 0)
(297.436 0 0)
(297.438 0 0)
(297.443 0 0)
(297.449 0 0)
(297.452 0 0)
(297.443 0 0)
(297.426 0 0)
(297.423 0 0)
(297.423 0 0)
(297.424 0 0)
(297.425 0 0)
(297.424 0 0)
(297.412 0 0)
(297.394 0 0)
(297.387 0 0)
(297.382 0 0)
(297.374 0 0)
(297.354 0 0)
(297.337 0 0)
(297.332 0 0)
(297.33 0 0)
(297.328 0 0)
(297.325 0 0)
(297.322 0 0)
(297.318 0 0)
(297.314 0 0)
(297.309 0 0)
(297.295 0 0)
(297.25 0 0)
(297.204 0 0)
(297.192 0 0)
(297.186 0 0)
(297.182 0 0)
(297.18 0 0)
(297.178 0 0)
(297.178 0 0)
(297.18 0 0)
(297.185 0 0)
(297.19 0 0)
(297.194 0 0)
(297.199 0 0)
(297.204 0 0)
(297.208 0 0)
(297.204 0 0)
(297.169 0 0)
(297.124 0 0)
(297.116 0 0)
(297.115 0 0)
(297.116 0 0)
(297.117 0 0)
(297.119 0 0)
(297.12 0 0)
(297.121 0 0)
(297.121 0 0)
(297.119 0 0)
(297.114 0 0)
(297.095 0 0)
(297.043 0 0)
(297.02 0 0)
(297.014 0 0)
(297.012 0 0)
(297.009 0 0)
(297.006 0 0)
(297.002 0 0)
(296.999 0 0)
(296.995 0 0)
(296.992 0 0)
(296.989 0 0)
(296.983 0 0)
(296.97 0 0)
(296.928 0 0)
(296.891 0 0)
(296.885 0 0)
(296.884 0 0)
(296.888 0 0)
(296.893 0 0)
(296.897 0 0)
(296.9 0 0)
(296.903 0 0)
(296.906 0 0)
(296.909 0 0)
(296.91 0 0)
(296.897 0 0)
(296.841 0 0)
(296.806 0 0)
(296.801 0 0)
(296.8 0 0)
(296.8 0 0)
(296.801 0 0)
(296.802 0 0)
(296.803 0 0)
(296.804 0 0)
(296.804 0 0)
(296.802 0 0)
(296.8 0 0)
(296.798 0 0)
(296.796 0 0)
(296.792 0 0)
(296.776 0 0)
(296.733 0 0)
(296.713 0 0)
(296.706 0 0)
(296.702 0 0)
(296.698 0 0)
(296.694 0 0)
(296.69 0 0)
(296.683 0 0)
(296.659 0 0)
(296.631 0 0)
(296.624 0 0)
(296.622 0 0)
(296.619 0 0)
(296.606 0 0)
(296.558 0 0)
(296.399 0 0)
(295.82 0 0)
(293.785 0 0)
(291.226 0 0)
(289.906 0 0)
(289.471 0 0)
(289.292 0 0)
(289.216 0 0)
(289.168 0 0)
(289.143 0 0)
(289.11 0 0)
(289.115 0 0)
(289.123 0 0)
(289.13 0 0)
(289.133 0 0)
(289.125 0 0)
(289.128 0 0)
(289.131 0 0)
(289.138 0 0)
(289.147 0 0)
(289.147 0 0)
(289.137 0 0)
(289.076 0 0)
(289.001 0 0)
(288.984 0 0)
(288.98 0 0)
(288.986 0 0)
(288.991 0 0)
(288.997 0 0)
(289.004 0 0)
(289.002 0 0)
(289.002 0 0)
(289.004 0 0)
(289.008 0 0)
(289.014 0 0)
(289.025 0 0)
(289.034 0 0)
(289.037 0 0)
(289.035 0 0)
(289.023 0 0)
(288.962 0 0)
(288.905 0 0)
(288.9 0 0)
(288.903 0 0)
(288.906 0 0)
(288.911 0 0)
(288.92 0 0)
(288.931 0 0)
(288.942 0 0)
(288.948 0 0)
(288.949 0 0)
(288.942 0 0)
(288.916 0 0)
(288.838 0 0)
(288.571 0 0)
(287.728 0 0)
(285.937 0 0)
(284.341 0 0)
(283.526 0 0)
(283.167 0 0)
(283.01 0 0)
(282.94 0 0)
(282.913 0 0)
(282.904 0 0)
(282.899 0 0)
(282.899 0 0)
(282.892 0 0)
(282.869 0 0)
(282.816 0 0)
(282.764 0 0)
(282.756 0 0)
(282.758 0 0)
(282.759 0 0)
(282.763 0 0)
(282.775 0 0)
(282.777 0 0)
(282.778 0 0)
(282.773 0 0)
(282.746 0 0)
(282.725 0 0)
(282.721 0 0)
(282.722 0 0)
(282.724 0 0)
(282.724 0 0)
(282.718 0 0)
(282.689 0 0)
(282.661 0 0)
(282.656 0 0)
(282.655 0 0)
(282.656 0 0)
(282.656 0 0)
(282.652 0 0)
(282.635 0 0)
(282.616 0 0)
(282.613 0 0)
(282.613 0 0)
(282.613 0 0)
(282.612 0 0)
(282.608 0 0)
(282.59 0 0)
(282.558 0 0)
(282.549 0 0)
(282.546 0 0)
(282.542 0 0)
(282.534 0 0)
(282.514 0 0)
(282.503 0 0)
(282.5 0 0)
(282.5 0 0)
(282.499 0 0)
(282.498 0 0)
(282.494 0 0)
(282.484 0 0)
(282.45 0 0)
(282.43 0 0)
(282.425 0 0)
(282.423 0 0)
(282.42 0 0)
(282.417 0 0)
(282.413 0 0)
(282.404 0 0)
(282.371 0 0)
(282.311 0 0)
(282.294 0 0)
(282.289 0 0)
(282.286 0 0)
(282.284 0 0)
(282.286 0 0)
(282.298 0 0)
)
;

boundaryField
{
    sides
    {
        type            zeroGradient;
    }
    empty
    {
        type            empty;
    }
}


// ************************************************************************* //
