/*--------------------------------*- C++ -*----------------------------------*\
  =========                 |
  \\      /  F ield         | OpenFOAM: The Open Source CFD Toolbox
   \\    /   O peration     | Website:  https://openfoam.org
    \\  /    A nd           | Version:  9
     \\/     M anipulation  |
\*---------------------------------------------------------------------------*/
FoamFile
{
    format      ascii;
    class       volScalarField;
    location    "0.044";
    object      ddt0(rho);
}
// * * * * * * * * * * * * * * * * * * * * * * * * * * * * * * * * * * * * * //

dimensions      [1 -3 -1 0 0 0 0];

internalField   nonuniform List<scalar> 
1000
(
-5.12753
-5.12567
-5.12278
-5.12022
-5.11772
-5.11497
-5.11226
-5.10989
-5.1076
-5.10489
-5.10184
-5.09908
-5.09696
-5.09507
-5.09258
-5.0892
-5.08555
-5.0826
-5.08073
-5.07936
-5.07742
-5.0742
-5.06995
-5.06568
-5.06246
-5.06071
-5.05993
-5.05897
-5.05673
-5.0528
-5.04764
-5.04236
-5.0381
-5.03557
-5.03476
-5.03493
-5.03491
-5.03356
-5.03022
-5.0249
-5.01825
-5.01134
-5.00531
-5.00108
-4.99901
-4.99891
-5.00013
-5.0018
-5.00298
-5.00289
-5.00091
-4.9967
-4.9903
-4.98209
-4.97275
-4.96311
-4.95418
-4.9469
-4.94161
-4.93855
-4.93804
-4.93983
-4.94335
-4.94827
-4.95428
-4.96066
-4.96644
-4.97106
-4.97437
-4.97605
-4.97593
-4.97453
-4.97295
-4.97149
-4.96952
-4.96873
-4.96804
-4.96632
-4.96865
-4.97747
-4.98972
-4.98696
-4.97248
-4.97152
-4.9793
-4.96898
-4.95725
-4.96352
-4.96447
-4.9496
-4.94404
-4.95213
-4.94766
-4.93182
-4.93055
-4.93905
-4.92962
-4.91448
-4.91445
-4.92386
-4.91072
-4.89743
-4.89799
-4.90667
-4.89168
-4.87909
-4.87914
-4.88853
-4.87347
-4.85971
-4.85883
-4.86858
-4.8549
-4.83919
-4.83736
-4.84543
-4.83568
-4.81991
-4.81435
-4.82154
-4.8145
-4.79912
-4.79239
-4.79342
-4.7943
-4.77804
-4.76649
-4.76479
-4.77025
-4.75735
-4.743
-4.7357
-4.73912
-4.73328
-4.71906
-4.70907
-4.70318
-4.70549
-4.69237
-4.68102
-4.67251
-4.66793
-4.67242
-4.66505
-4.64144
-4.63122
-4.61219
-4.60471
-4.58854
-4.57695
-4.57105
-4.56269
-4.55279
-4.54093
-4.5323
-4.52404
-4.51392
-4.50245
-4.48914
-4.47883
-4.47027
-4.45987
-4.44606
-4.43095
-4.41992
-4.41112
-4.39924
-4.38309
-4.36764
-4.35618
-4.34578
-4.33205
-4.31492
-4.29934
-4.28739
-4.2761
-4.26094
-4.2426
-4.22538
-4.21224
-4.20033
-4.18501
-4.16578
-4.14717
-4.13257
-4.12031
-4.1048
-4.08518
-4.06491
-4.04869
-4.03546
-4.02017
-4.00051
-3.97944
-3.96161
-3.94735
-3.9323
-3.91318
-3.89156
-3.87225
-3.85667
-3.8421
-3.82407
-3.80265
-3.7823
-3.76573
-3.75161
-3.73484
-3.71449
-3.69358
-3.67617
-3.66176
-3.64703
-3.62808
-3.60798
-3.58971
-3.57544
-3.56289
-3.54651
-3.52795
-3.50902
-3.4948
-3.4833
-3.47097
-3.45513
-3.43708
-3.42214
-3.4112
-3.40227
-3.3906
-3.3754
-3.35998
-3.34843
-3.341
-3.33448
-3.32417
-3.31085
-3.29862
-3.29028
-3.28653
-3.28216
-3.27329
-3.26214
-3.2527
-3.24801
-3.24729
-3.24479
-3.23774
-3.22926
-3.22302
-3.2219
-3.22287
-3.22173
-3.2167
-3.21036
-3.20727
-3.20819
-3.21097
-3.21101
-3.20758
-3.20378
-3.20288
-3.20587
-3.20974
-3.21065
-3.20846
-3.20633
-3.20693
-3.21103
-3.21633
-3.21859
-3.21721
-3.2154
-3.21659
-3.2219
-3.22838
-3.2322
-3.23188
-3.2297
-3.23016
-3.23593
-3.24383
-3.24897
-3.24963
-3.24779
-3.24784
-3.25252
-3.26058
-3.26723
-3.26904
-3.26784
-3.26792
-3.27189
-3.27891
-3.28571
-3.28922
-3.28899
-3.28872
-3.29233
-3.29903
-3.30566
-3.30969
-3.31062
-3.31042
-3.31243
-3.31857
-3.3264
-3.33198
-3.33349
-3.33239
-3.33277
-3.33764
-3.3464
-3.35438
-3.35733
-3.35603
-3.35481
-3.35769
-3.36511
-3.374
-3.37995
-3.38079
-3.3792
-3.38003
-3.38508
-3.39244
-3.3995
-3.40379
-3.40438
-3.40388
-3.40661
-3.4133
-3.42065
-3.42549
-3.42717
-3.42686
-3.42773
-3.43325
-3.44222
-3.44918
-3.45131
-3.45066
-3.45019
-3.4528
-3.46013
-3.46958
-3.47584
-3.47696
-3.47587
-3.47589
-3.47892
-3.48625
-3.49538
-3.50128
-3.50189
-3.50086
-3.5024
-3.50713
-3.5144
-3.52149
-3.52525
-3.52533
-3.52544
-3.529
-3.53555
-3.54294
-3.54895
-3.55134
-3.55013
-3.54934
-3.55347
-3.56215
-3.57088
-3.57624
-3.57779
-3.5766
-3.57576
-3.57915
-3.58734
-3.59646
-3.60214
-3.6036
-3.60303
-3.60343
-3.60694
-3.61391
-3.62197
-3.62713
-3.62827
-3.62763
-3.62935
-3.63485
-3.64263
-3.6501
-3.65429
-3.6547
-3.65316
-3.65404
-3.65958
-3.66865
-3.67732
-3.68222
-3.68292
-3.68156
-3.68164
-3.68547
-3.69323
-3.70196
-3.70777
-3.70939
-3.70886
-3.70974
-3.71402
-3.72095
-3.72831
-3.73343
-3.7352
-3.7345
-3.73471
-3.73916
-3.74766
-3.75706
-3.76296
-3.76423
-3.76274
-3.762
-3.76485
-3.7719
-3.78096
-3.78848
-3.79219
-3.79251
-3.79228
-3.79413
-3.79942
-3.80696
-3.81426
-3.81808
-3.81815
-3.81771
-3.82031
-3.82719
-3.83563
-3.84273
-3.84672
-3.84762
-3.84697
-3.84695
-3.85064
-3.85849
-3.86781
-3.87472
-3.87728
-3.87712
-3.87738
-3.88058
-3.88691
-3.89447
-3.90065
-3.90351
-3.9039
-3.90411
-3.90705
-3.91372
-3.92233
-3.93033
-3.93455
-3.93508
-3.93375
-3.93407
-3.93817
-3.94549
-3.95425
-3.961
-3.96453
-3.96513
-3.96545
-3.96823
-3.97436
-3.98224
-3.98877
-3.99224
-3.99299
-3.99318
-3.99492
-3.99997
-4.00789
-4.01665
-4.02315
-4.02588
-4.02578
-4.02547
-4.02782
-4.03329
-4.0408
-4.04797
-4.05297
-4.05496
-4.05555
-4.05722
-4.06204
-4.06985
-4.07829
-4.08419
-4.0866
-4.08623
-4.08612
-4.08871
-4.09442
-4.10273
-4.1101
-4.11596
-4.11789
-4.11915
-4.1204
-4.12416
-4.13071
-4.13773
-4.14427
-4.14775
-4.14916
-4.14947
-4.15126
-4.15592
-4.16383
-4.1722
-4.17985
-4.18251
-4.18369
-4.18306
-4.18559
-4.19191
-4.19896
-4.20769
-4.21045
-4.21348
-4.21303
-4.21488
-4.22044
-4.22539
-4.23637
-4.2401
-4.24748
-4.24696
-4.24823
-4.25048
-4.25217
-4.26332
-4.2659
-4.27794
-4.27654
-4.28094
-4.28171
-4.28158
-4.29356
-4.29214
-4.30981
-4.30606
-4.3155
-4.31478
-4.31189
-4.32465
-4.3155
-4.3404
-4.32992
-4.35043
-4.34331
-4.34768
-4.3538
-4.34574
-4.3695
-4.35648
-4.38533
-4.37155
-4.38723
-4.38236
-4.38031
-4.39605
-4.38383
-4.41375
-4.39915
-4.42043
-4.41333
-4.41434
-4.42545
-4.41444
-4.44052
-4.42877
-4.45194
-4.44535
-4.45235
-4.45574
-4.44973
-4.466
-4.45771
-4.48049
-4.47323
-4.48964
-4.48251
-4.48874
-4.49009
-4.49026
-4.50812
-4.49972
-4.52656
-4.50775
-4.53068
-4.51514
-4.52847
-4.53137
-4.53301
-4.55138
-4.54112
-4.56217
-4.54665
-4.56388
-4.55487
-4.56643
-4.57217
-4.57309
-4.5911
-4.57861
-4.59917
-4.58375
-4.59738
-4.59922
-4.59669
-4.62398
-4.60335
-4.63451
-4.61742
-4.62229
-4.63456
-4.61659
-4.64718
-4.63489
-4.65187
-4.65338
-4.64841
-4.66023
-4.64258
-4.66918
-4.65243
-4.67642
-4.67751
-4.67124
-4.69079
-4.66572
-4.68923
-4.6761
-4.69171
-4.69814
-4.69432
-4.71197
-4.6901
-4.70859
-4.6968
-4.70137
-4.71951
-4.70356
-4.72942
-4.71253
-4.71524
-4.71977
-4.70797
-4.7233
-4.72191
-4.7256
-4.72947
-4.72687
-4.71871
-4.7259
-4.71583
-4.72269
-4.72917
-4.72054
-4.73139
-4.71938
-4.71782
-4.71603
-4.71156
-4.71476
-4.71404
-4.71507
-4.70743
-4.70862
-4.69611
-4.6929
-4.69736
-4.68457
-4.69195
-4.68991
-4.67466
-4.67464
-4.66787
-4.65421
-4.65582
-4.65611
-4.64571
-4.6425
-4.63745
-4.62383
-4.6112
-4.61139
-4.60532
-4.59082
-4.59957
-4.58683
-4.56282
-4.57068
-4.55052
-4.5324
-4.54755
-4.52981
-4.51512
-4.52434
-4.49901
-4.47918
-4.48545
-4.4683
-4.45144
-4.46521
-4.44845
-4.42762
-4.42835
-4.41733
-4.38706
-4.39954
-4.39001
-4.37733
-4.36857
-4.37896
-4.33917
-4.3454
-4.33418
-4.33322
-4.30778
-4.33918
-4.30506
-4.31192
-4.29649
-4.30786
-4.27438
-4.29825
-4.28724
-4.29075
-4.28097
-4.29323
-4.28822
-4.27298
-4.28715
-4.29304
-4.28709
-4.2987
-4.30632
-4.30977
-4.31027
-4.31851
-4.32707
-4.33123
-4.3442
-4.35781
-4.37049
-4.37851
-4.39017
-4.40075
-4.41635
-4.42697
-4.44499
-4.46112
-4.48016
-4.49544
-4.51445
-4.52833
-4.54815
-4.56336
-4.58506
-4.60361
-4.62703
-4.64565
-4.66885
-4.68614
-4.70928
-4.72601
-4.75015
-4.77044
-4.79558
-4.81521
-4.84003
-4.85881
-4.88338
-4.90142
-4.92581
-4.94464
-4.96949
-4.98891
-5.01321
-5.03137
-5.05497
-5.07215
-5.09531
-5.11255
-5.13572
-5.15385
-5.17648
-5.19365
-5.21532
-5.2313
-5.25232
-5.26775
-5.28831
-5.30394
-5.32395
-5.33921
-5.35832
-5.37237
-5.39057
-5.40356
-5.42124
-5.43439
-5.45172
-5.46507
-5.48175
-5.49449
-5.51029
-5.52178
-5.53677
-5.54751
-5.56207
-5.57311
-5.58727
-5.59811
-5.61152
-5.62133
-5.63396
-5.64294
-5.65501
-5.66379
-5.67543
-5.68425
-5.6953
-5.70359
-5.71377
-5.72105
-5.73026
-5.73656
-5.74478
-5.75045
-5.75758
-5.76246
-5.76818
-5.77179
-5.77568
-5.77749
-5.77918
-5.77905
-5.77829
-5.77629
-5.77274
-5.76857
-5.76175
-5.75483
-5.74423
-5.73409
-5.71933
-5.70578
-5.68667
-5.66978
-5.64625
-5.62608
-5.5982
-5.57489
-5.54293
-5.5167
-5.48112
-5.45245
-5.41403
-5.38368
-5.34351
-5.31247
-5.27187
-5.24126
-5.20168
-5.1726
-5.13555
-5.10912
-5.0761
-5.0534
-5.02583
-5.0079
-4.98698
-4.97459
-4.96118
-4.9548
-4.94932
-4.94904
-4.95148
-4.95614
-4.96838
-4.97729
-4.99398
-5.01085
-5.0336
-5.05217
-5.0786
-5.10422
-5.13299
-5.15757
-5.19043
-5.2193
-5.25038
-5.27854
-5.31273
-5.34174
-5.37388
-5.40101
-5.43587
-5.46232
-5.49534
-5.51912
-5.55235
-5.57735
-5.60879
-5.6306
-5.66058
-5.68394
-5.71291
-5.73412
-5.76162
-5.78237
-5.80935
-5.82984
-5.85561
-5.87457
-5.89943
-5.91839
-5.9426
-5.96067
-5.98405
-6.00171
-6.02454
-6.04181
-6.0639
-6.08045
-6.10199
-6.11841
-6.13946
-6.15523
-6.17572
-6.1913
-6.2114
-6.22667
-6.24627
-6.26106
-6.28029
-6.29497
-6.31382
-6.32804
-6.34642
-6.36028
-6.37835
-6.39208
-6.40986
-6.4233
-6.44077
-6.45405
-6.47124
-6.48431
-6.50119
-6.514
-6.5306
-6.54318
-6.5595
-6.5718
-6.58785
-6.59999
-6.61582
-6.6278
-6.6434
-6.65523
-6.67065
-6.68242
-6.69766
-6.70923
-6.72422
-6.73558
-6.75037
-6.76162
-6.77622
-6.78725
-6.80164
-6.81247
-6.82669
-6.83746
-6.85155
-6.86226
-6.87623
-6.8863
-6.90106
-6.90927
)
;

boundaryField
{
    sides
    {
        type            calculated;
        value           nonuniform List<scalar> 2(-6.90927 -5.12753);
    }
    empty
    {
        type            empty;
    }
}


// ************************************************************************* //
