/*--------------------------------*- C++ -*----------------------------------*\
  =========                 |
  \\      /  F ield         | OpenFOAM: The Open Source CFD Toolbox
   \\    /   O peration     | Website:  https://openfoam.org
    \\  /    A nd           | Version:  9
     \\/     M anipulation  |
\*---------------------------------------------------------------------------*/
FoamFile
{
    format      ascii;
    class       volScalarField;
    location    "0.044";
    object      ddt0(rho,e);
}
// * * * * * * * * * * * * * * * * * * * * * * * * * * * * * * * * * * * * * //

dimensions      [1 -1 -3 0 0 0 0];

internalField   nonuniform List<scalar> 
1000
(
586821
586476
585921
585419
584917
584347
583797
583355
582933
582381
581725
581155
580787
580494
580030
579308
578507
577912
577637
577514
577223
576560
575596
574633
573990
573786
573866
573886
573526
572663
571443
570194
569264
568864
568980
569381
569720
569665
569022
567798
566188
564504
563084
562194
561950
562306
563079
564000
564777
565159
564957
564090
562582
560556
558223
555824
553626
551878
550719
550246
550530
551519
553091
555116
557424
559797
562008
563886
565345
566356
566917
567116
567174
567226
567244
567481
567856
567969
569295
572447
576768
576646
572908
573305
576132
573683
570869
573456
574477
570639
569668
572848
572159
568152
568467
571852
569708
566002
566919
570431
567304
564050
565260
568591
565061
562013
563148
566600
563090
559891
560678
564351
561246
557697
558018
561520
559443
555759
555237
558329
557400
553767
552647
554194
555654
551896
549673
550097
552961
550210
547262
546419
548454
548219
545026
543454
543033
545250
542675
540654
539446
539446
540929
539498
535832
535108
533406
532622
530267
528556
528289
527782
526457
524494
523449
522982
522114
520407
518379
517295
516837
515759
513692
511509
510495
510014
508656
506191
504041
503072
502423
500787
498137
495975
494967
494273
492456
489661
487227
486072
485331
483581
480676
478000
476564
475842
474168
471307
468305
466545
465685
464213
461454
458304
456146
455075
453779
451285
448052
445520
444107
443001
440860
437696
434846
433119
432116
430313
427431
424368
422338
421183
419899
417315
414347
411889
410595
409775
407762
405050
402181
400664
399907
398833
396642
393725
391675
390760
390379
389110
386710
384166
382698
382381
382254
380901
378566
376478
375480
375782
375820
374431
372275
370550
370163
370880
370982
369644
367801
366561
366787
367577
367670
366534
364942
364260
364717
365672
365747
364731
363552
363196
363965
364953
365015
364112
363188
363045
363920
365120
365377
364518
363503
363366
364441
365847
366435
365768
364523
364056
365165
366896
367788
367326
366103
365442
366159
367878
369171
369003
367924
367226
367684
369052
370348
370654
369837
369005
369332
370588
371815
372261
371775
370945
370776
371841
373409
374299
373970
372859
372190
372864
374702
376306
376399
375215
374055
374129
375559
377431
378422
377883
376613
376067
376781
378183
379494
379969
379336
378380
378390
379589
380988
381634
381332
380433
379886
380733
382608
383878
383701
382687
381730
381697
383079
385096
386156
385675
384530
383719
383808
385183
387096
388042
387400
386265
385905
386500
387856
389159
389459
388658
387863
388104
389239
390622
391594
391479
390284
389217
389624
391394
393179
393952
393583
392391
391305
391486
393104
395001
395866
395466
394456
393738
393952
395200
396776
397480
396979
395942
395614
396419
397905
399294
399702
398979
397669
397084
397895
399761
401509
402123
401480
400217
399390
399682
401155
402916
403800
403428
402410
401817
402240
403457
404799
405472
405138
404064
403262
403730
405412
407361
408259
407768
406451
405358
405340
406579
408419
409801
410036
409257
408315
407995
408705
410086
411395
411658
410799
409782
409676
410853
412494
413733
414040
413424
412338
411445
411662
413123
415022
416199
416069
415126
414305
414366
415366
416729
417681
417637
416850
416011
415987
417079
418754
420242
420596
419844
418533
417717
418036
419314
421026
422135
422274
421539
420716
420632
421550
422991
424026
424142
423445
422577
422172
422759
424206
425900
426918
426803
425838
424811
424580
425281
426596
427804
428362
428018
427252
426811
427314
428711
430295
431116
430890
429830
428848
428675
429436
430975
432228
433031
432657
432080
431496
431667
432673
433816
434814
434894
434352
433481
433051
433480
434882
436421
437744
437570
436951
435789
435572
436492
437627
439266
439114
439041
437925
437496
438180
438677
440985
441112
442337
441188
440578
440262
439774
442124
441899
444512
443094
443417
442648
441611
444202
442773
447066
444937
446762
445536
443662
446480
442723
449177
445019
450156
447004
447296
448115
444680
450785
445858
453487
448328
452007
449521
447882
451577
446886
454828
449422
454775
451614
450888
453188
448855
455645
451086
457000
453989
455051
455034
452195
456038
452513
458306
455087
458971
455791
456621
455990
455000
459317
455757
462769
456089
461927
456231
459195
459031
458489
462966
458859
464143
458464
462607
458883
461328
462032
461292
465678
460924
466082
460455
463543
463102
461353
468551
461384
469753
463661
464159
466885
460547
468779
464160
468327
467862
465465
468111
461931
469031
463142
469483
468966
466255
471304
462986
469251
464544
468472
469662
467800
472392
465155
470043
465869
466626
471475
466120
473332
467749
468070
468965
464990
469181
468386
469147
469994
468932
466240
468186
464991
466909
468750
466097
469329
465744
465337
464901
463708
464855
464871
465457
463492
464222
460890
460398
462252
458983
461810
461863
458004
458761
457548
454315
455715
456764
454658
454757
454353
451425
448842
450151
449624
446612
450615
448211
442470
446321
441806
437934
444070
440365
437605
442037
436121
431877
435468
432044
428711
434561
431250
426714
428627
426996
419573
424939
423668
421414
420288
424855
414317
417518
415416
416315
409794
420227
410920
413811
409911
413942
404410
411953
408903
410058
407083
410703
408767
403966
407319
408413
405860
407949
409392
408753
407571
408569
409137
408453
410069
411579
412904
412795
413617
413841
415355
415438
417436
418746
420841
421693
423537
423762
425715
426187
428521
429729
432335
433431
435848
436455
438791
439197
441773
443083
445909
447038
449663
450479
453060
453707
456261
457160
459906
461026
463624
464421
466874
467444
469832
470503
473020
474063
476528
477418
479691
480309
482468
483017
485175
485914
488054
488831
490824
491354
493165
493479
495254
495735
497552
498236
499997
500629
502227
502587
504033
504270
505711
506148
507602
508105
509432
509732
510916
511063
512187
512387
513515
513854
514937
515254
516208
516365
517174
517207
517913
517960
518573
518640
519101
519083
519316
519115
519076
518720
518418
518007
517420
516943
515992
515349
513954
513064
511177
510051
507665
506355
503470
502002
498625
497002
493150
491363
487078
485142
480510
478479
473627
471578
466657
464660
459831
457938
453367
451625
447480
445944
442392
441126
438314
437373
435406
434813
433740
433484
433307
433103
434459
434152
435574
436498
438673
439133
441552
443388
445880
446873
450162
452106
454617
456181
459526
461318
464148
465321
469066
470316
473592
474279
477807
479052
482232
482789
485812
486956
489919
490675
493387
494162
496921
497802
500354
500972
503434
504182
506591
507233
509518
510150
512405
513052
515197
515745
517841
518439
520476
520988
522954
523488
525432
525964
527832
528300
530135
530637
532430
532869
534590
534989
536686
537106
538770
539166
540796
541200
542805
543201
544766
545136
546667
547017
548510
548825
550285
550595
552035
552345
553761
554066
555468
555791
557174
557478
558825
559103
560430
560709
562011
562263
563533
563757
565010
565245
566491
566739
567977
568085
569578
569234
)
;

boundaryField
{
    sides
    {
        type            calculated;
        value           nonuniform List<scalar> 2(569234 586821);
    }
    empty
    {
        type            empty;
    }
}


// ************************************************************************* //
