/*--------------------------------*- C++ -*----------------------------------*\
  =========                 |
  \\      /  F ield         | OpenFOAM: The Open Source CFD Toolbox
   \\    /   O peration     | Website:  https://openfoam.org
    \\  /    A nd           | Version:  9
     \\/     M anipulation  |
\*---------------------------------------------------------------------------*/
FoamFile
{
    format      ascii;
    class       volScalarField;
    location    "0.044";
    object      ddt0(rho,K);
}
// * * * * * * * * * * * * * * * * * * * * * * * * * * * * * * * * * * * * * //

dimensions      [1 -1 -3 0 0 0 0];

internalField   nonuniform List<scalar> 
1000
(
99.4817
37.73
-34.6889
-94.0375
-149.153
-206.324
-266.186
-327.724
-390.275
-453.769
-518.479
-584.737
-652.666
-722.101
-792.751
-864.431
-937.143
-1011
-1086.07
-1162.33
-1239.74
-1318.33
-1398.35
-1480.15
-1563.89
-1649.36
-1736.06
-1823.54
-1911.64
-2000.47
-2090.32
-2181.69
-2275.11
-2370.77
-2468.36
-2567.27
-2667.03
-2767.45
-2868.52
-2970.37
-3073.3
-3177.62
-3283.58
-3391.42
-3501.61
-3614.65
-3730.56
-3848.56
-3967.49
-4086.18
-4204.16
-4321.94
-4440.32
-4559.95
-4681.53
-4805.09
-4929.54
-5054.6
-5181.89
-5312.42
-5446.04
-5583.83
-5727.13
-5874.22
-6021.6
-6168.61
-6316.88
-6465.91
-6614.74
-6765.85
-6921
-7077.37
-7230.85
-7385.21
-7542.56
-7700.19
-7861.96
-8024.37
-8191.79
-8379.33
-8559.69
-8717.93
-8879.23
-9055.5
-9244.49
-9416.47
-9585.3
-9775.98
-9960.97
-10130.5
-10317.3
-10518.2
-10707.5
-10894.2
-11092
-11299.6
-11490
-11674.8
-11883.2
-12110.2
-12304.7
-12497.3
-12720.8
-12952.7
-13147
-13352.9
-13587.8
-13829.4
-14033.9
-14251.3
-14486.3
-14734.8
-14960.1
-15177.9
-15415.1
-15672
-15917.8
-16150.4
-16389
-16651.9
-16905.8
-17149.6
-17398.9
-17672.5
-17938.7
-18174.6
-18443.1
-18722.3
-19016.6
-19286.2
-19545.8
-19809.8
-20111.5
-20405.5
-20681.6
-20979.1
-21270.7
-21582.8
-21887.4
-22182.2
-22482.5
-22740.9
-23015.2
-23343.9
-23668.4
-24137.9
-24624.5
-25008
-25346.3
-25695.7
-26049.8
-26391.4
-26732.4
-27096.2
-27468.7
-27821
-28170.1
-28546.1
-28926.6
-29311
-29704.4
-30105.7
-30506.1
-30896.6
-31303.3
-31733
-32163
-32579.8
-32996.9
-33429.6
-33872.8
-34317.1
-34762.4
-35217.1
-35681.1
-36145.3
-36605.6
-37068.8
-37541.1
-38024.9
-38514.9
-39004
-39491
-39983.4
-40488.6
-41004.6
-41518.5
-42026.4
-42535
-43056.1
-43589.6
-44123.9
-44652
-45179.8
-45717.9
-46267.3
-46817.7
-47361
-47900.8
-48448.6
-49007.4
-49570.3
-50126.6
-50676.3
-51230.3
-51794.2
-52364.2
-52927.2
-53480.4
-54031
-54588.9
-55152.8
-55714.6
-56264.3
-56809.3
-57356.4
-57910.4
-58465
-59005.5
-59536
-60061
-60593.3
-61127.8
-61654.8
-62167.3
-62667.8
-63169.9
-63675.4
-64178.8
-64667.1
-65138.3
-65601.4
-66067.5
-66537.5
-67002.6
-67449.4
-67879.8
-68304.6
-68731.1
-69161.3
-69580.8
-69978.9
-70362.2
-70742.3
-71128.1
-71517.7
-71894.8
-72251.2
-72595.6
-72938.6
-73288.4
-73636.5
-73971
-74287.2
-74592.9
-74902
-75217.1
-75532.2
-75833.9
-76120.1
-76400
-76683.4
-76973.7
-77262
-77537
-77798.6
-78056.6
-78319.6
-78590.3
-78861.8
-79121.3
-79367
-79608.9
-79857.8
-80117.4
-80378.7
-80629.9
-80866.5
-81095.8
-81332.2
-81584.4
-81842.5
-82091
-82324.4
-82548.9
-82778.8
-83023
-83277.8
-83527.7
-83761.5
-83985.4
-84213.5
-84454.4
-84705.4
-84955.8
-85195.3
-85422.2
-85649
-85888.7
-86138.9
-86389.1
-86630.8
-86862.4
-87090.6
-87326.7
-87577.4
-87834.4
-88084
-88319.8
-88546.9
-88779.3
-89027.8
-89290.4
-89550.8
-89794.2
-90022.9
-90252.2
-90496.4
-90756.8
-91022.9
-91278.8
-91516.8
-91746.5
-91985.6
-92240.7
-92504.9
-92769
-93023.6
-93265.2
-93503.1
-93753.2
-94018.1
-94285.7
-94544.4
-94791.8
-95032.3
-95277.8
-95541.5
-95819
-96089.7
-96342.8
-96585.8
-96829.9
-97086.1
-97360.8
-97644.1
-97915.7
-98168
-98412.4
-98661.6
-98923.1
-99202.1
-99488.9
-99763.7
-100018
-100267
-100526
-100798
-101081
-101363
-101633
-101889
-102146
-102417
-102701
-102989
-103272
-103541
-103795
-104052
-104329
-104626
-104924
-105208
-105477
-105736
-105996
-106275
-106574
-106878
-107168
-107441
-107706
-107975
-108258
-108556
-108860
-109153
-109428
-109696
-109975
-110271
-110578
-110884
-111177
-111453
-111721
-112000
-112301
-112618
-112934
-113234
-113515
-113788
-114068
-114365
-114680
-115001
-115309
-115599
-115879
-116166
-116470
-116786
-117105
-117414
-117709
-117992
-118280
-118589
-118917
-119251
-119568
-119865
-120149
-120436
-120742
-121068
-121405
-121734
-122046
-122342
-122636
-122940
-123262
-123596
-123929
-124245
-124544
-124841
-125154
-125489
-125832
-126169
-126491
-126798
-127098
-127401
-127724
-128068
-128421
-128762
-129082
-129388
-129698
-130023
-130364
-130713
-131055
-131381
-131694
-132007
-132334
-132682
-133041
-133398
-133735
-134054
-134363
-134681
-135021
-135377
-135743
-136098
-136437
-136760
-137083
-137419
-137774
-138140
-138499
-138841
-139170
-139496
-139831
-140185
-140556
-140932
-141297
-141641
-141970
-142299
-142643
-143005
-143379
-143753
-144114
-144460
-144797
-145142
-145505
-145886
-146272
-146644
-146996
-147333
-147671
-148026
-148400
-148790
-149174
-149551
-149906
-150257
-150608
-150975
-151359
-151747
-152133
-152501
-152858
-153208
-153568
-153947
-154345
-154747
-155146
-155515
-155875
-156225
-156595
-156989
-157388
-157799
-158173
-158549
-158905
-159275
-159669
-160061
-160491
-160876
-161285
-161645
-162017
-162396
-162771
-163208
-163591
-164035
-164394
-164790
-165165
-165532
-165981
-166342
-166829
-167177
-167611
-167982
-168335
-168796
-169110
-169652
-169960
-170474
-170807
-171213
-171637
-171960
-172504
-172796
-173376
-173666
-174156
-174509
-174878
-175375
-175676
-176271
-176558
-177094
-177436
-177831
-178303
-178615
-179192
-179503
-180060
-180410
-180854
-181277
-181630
-182146
-182485
-183049
-183398
-183918
-184271
-184718
-185135
-185540
-186078
-186423
-187029
-187301
-187879
-188179
-188687
-189126
-189549
-190105
-190443
-191021
-191324
-191874
-192229
-192739
-193208
-193640
-194205
-194540
-195127
-195444
-195980
-196433
-196848
-197500
-197781
-198465
-198779
-199262
-199809
-200119
-200812
-201172
-201763
-202238
-202661
-203222
-203551
-204234
-204577
-205244
-205737
-206170
-206817
-207107
-207792
-208186
-208814
-209375
-209855
-210515
-210858
-211534
-211968
-212539
-213229
-213642
-214406
-214824
-215408
-216015
-216490
-217199
-217773
-218398
-219031
-219616
-220163
-220845
-221390
-222084
-222785
-223364
-224118
-224686
-225351
-226024
-226681
-227414
-228122
-228855
-229522
-230276
-230920
-231655
-232466
-233137
-233993
-234778
-235458
-236281
-237055
-237778
-238646
-239512
-240294
-241150
-241999
-242782
-243583
-244507
-245385
-246196
-247224
-248068
-248818
-249862
-250662
-251485
-252616
-253455
-254326
-255420
-256203
-257040
-258117
-258981
-259850
-260999
-261868
-262698
-263724
-264638
-265372
-266491
-267405
-268278
-269185
-270252
-270852
-271857
-272698
-273607
-274289
-275466
-276036
-276946
-277656
-278566
-279067
-280048
-280714
-281449
-282077
-282863
-283454
-283874
-284675
-285298
-285752
-286341
-286957
-287428
-287846
-288256
-288721
-289075
-289538
-289925
-290334
-290603
-290894
-291121
-291437
-291618
-291897
-292102
-292362
-292516
-292725
-292813
-292980
-293040
-293195
-293272
-293442
-293506
-293644
-293663
-293776
-293774
-293880
-293909
-294035
-294061
-294175
-294191
-294314
-294329
-294442
-294466
-294606
-294656
-294801
-294854
-295014
-295080
-295252
-295338
-295533
-295649
-295860
-295989
-296215
-296362
-296612
-296783
-297057
-297255
-297547
-297766
-298077
-298315
-298646
-298906
-299262
-299550
-299930
-300244
-300641
-300975
-301391
-301742
-302178
-302549
-303006
-303403
-303881
-304300
-304793
-305228
-305739
-306192
-306724
-307200
-307753
-308254
-308828
-309353
-309950
-310500
-311122
-311701
-312355
-312972
-313663
-314324
-315059
-315771
-316558
-317329
-318176
-319016
-319934
-320858
-321859
-322881
-323977
-325107
-326308
-327555
-328868
-330241
-331673
-333177
-334731
-336368
-338042
-339805
-341589
-343466
-345343
-347309
-349256
-351283
-353269
-355321
-357312
-359348
-361303
-363277
-365153
-367016
-368771
-370480
-372076
-373593
-375002
-376301
-377502
-378565
-379549
-380372
-381145
-381726
-382315
-382665
-383051
-383258
-383496
-383530
-383641
-383609
-383621
-383473
-383451
-383293
-383207
-383014
-382954
-382776
-382704
-382526
-382518
-382370
-382374
-382238
-382312
-382245
-382339
-382289
-382414
-382435
-382606
-382653
-382844
-382928
-383171
-383302
-383567
-383716
-384007
-384194
-384517
-384731
-385074
-385315
-385687
-385955
-386343
-386629
-387039
-387352
-387783
-388114
-388561
-388912
-389379
-389749
-390230
-390616
-391114
-391520
-392035
-392454
-392980
-393413
-393954
-394404
-394959
-395424
-395992
-396471
-397053
-397545
-398138
-398643
-399247
-399765
-400381
-400910
-401537
-402077
-402716
-403268
-403916
-404479
-405138
-405715
-406385
-406971
-407650
-408246
-408934
-409540
-410238
-410853
-411560
-412184
-412900
-413535
-414260
-414905
-415645
-416288
-417073
-418258
)
;

boundaryField
{
    sides
    {
        type            calculated;
        value           nonuniform List<scalar> 2(-418258 99.4817);
    }
    empty
    {
        type            empty;
    }
}


// ************************************************************************* //
