/*--------------------------------*- C++ -*----------------------------------*\
  =========                 |
  \\      /  F ield         | OpenFOAM: The Open Source CFD Toolbox
   \\    /   O peration     | Website:  https://openfoam.org
    \\  /    A nd           | Version:  9
     \\/     M anipulation  |
\*---------------------------------------------------------------------------*/
FoamFile
{
    format      ascii;
    class       volScalarField;
    location    "0.044";
    object      p;
}
// * * * * * * * * * * * * * * * * * * * * * * * * * * * * * * * * * * * * * //

dimensions      [1 -1 -2 0 0 0 0];

internalField   nonuniform List<scalar> 
1000
(
10731.7
10730.5
10728.1
10726.1
10724.4
10722.8
10721.1
10719.4
10717.7
10716.1
10714.4
10712.7
10711.1
10709.4
10707.8
10706.1
10704.5
10702.8
10701.2
10699.6
10698
10696.4
10694.7
10693.1
10691.6
10690
10688.4
10686.8
10685.2
10683.7
10682.1
10680.6
10679
10677.5
10676
10674.4
10672.9
10671.4
10669.9
10668.4
10666.9
10665.4
10664
10662.5
10661
10659.6
10658.1
10656.7
10655.2
10653.8
10652.4
10651
10649.6
10648.2
10646.8
10645.4
10644
10642.7
10641.3
10640
10638.6
10637.3
10636
10634.7
10633.4
10632.1
10630.8
10629.5
10628.2
10627
10625.7
10624.5
10623.3
10622.1
10620.8
10619.6
10618.5
10617.3
10616.1
10615
10613.8
10612.7
10611.6
10610.4
10609.3
10608.3
10607.2
10606.1
10605.1
10604
10603
10602
10601
10600
10599
10598.1
10597.1
10596.2
10595.3
10594.4
10593.5
10592.6
10591.8
10591
10590.1
10589.3
10588.5
10587.8
10587
10586.3
10585.6
10584.9
10584.2
10583.5
10582.9
10582.3
10581.7
10581.1
10580.5
10580
10579.5
10579
10578.5
10578
10577.6
10577.2
10576.8
10576.4
10576.1
10575.7
10575.4
10575.2
10574.9
10574.7
10574.5
10574.4
10574.2
10574.1
10574
10574
10573.9
10574
10574
10574
10574.1
10574.2
10574.4
10574.7
10575
10575.3
10575.7
10576.1
10576.5
10577
10577.5
10578.1
10578.7
10579.3
10580
10580.7
10581.5
10582.3
10583.2
10584.1
10585
10586
10587.1
10588.2
10589.3
10590.5
10591.8
10593.1
10594.5
10595.9
10597.4
10598.9
10600.5
10602.2
10603.9
10605.7
10607.5
10609.4
10611.4
10613.4
10615.5
10617.7
10620
10622.3
10624.6
10627.1
10629.6
10632.2
10634.8
10637.6
10640.4
10643.2
10646.2
10649.2
10652.3
10655.5
10658.7
10662.1
10665.5
10668.9
10672.5
10676.1
10679.9
10683.7
10687.5
10691.5
10695.5
10699.6
10703.8
10708
10712.4
10716.8
10721.2
10725.8
10730.4
10735.1
10739.9
10744.8
10749.7
10754.7
10759.7
10764.8
10770
10775.3
10780.6
10786
10791.4
10796.9
10802.5
10808.1
10813.8
10819.5
10825.3
10831.1
10837
10842.9
10848.9
10854.9
10861
10867.1
10873.2
10879.4
10885.6
10891.9
10898.2
10904.5
10910.9
10917.2
10923.7
10930.1
10936.6
10943.1
10949.6
10956.1
10962.7
10969.3
10975.9
10982.5
10989.2
10995.8
11002.5
11009.2
11015.9
11022.6
11029.4
11036.1
11042.9
11049.6
11056.4
11063.2
11070
11076.8
11083.7
11090.5
11097.3
11104.2
11111.1
11117.9
11124.8
11131.7
11138.6
11145.5
11152.4
11159.3
11166.2
11173.1
11180.1
11187
11194
11200.9
11207.9
11214.8
11221.8
11228.8
11235.8
11242.7
11249.7
11256.7
11263.7
11270.7
11277.8
11284.8
11291.8
11298.8
11305.9
11312.9
11320
11327
11334.1
11341.2
11348.2
11355.3
11362.4
11369.5
11376.6
11383.7
11390.8
11397.9
11405
11412.1
11419.2
11426.4
11433.5
11440.6
11447.8
11454.9
11462.1
11469.3
11476.4
11483.6
11490.8
11498
11505.2
11512.4
11519.6
11526.8
11534
11541.2
11548.4
11555.7
11562.9
11570.1
11577.4
11584.6
11591.9
11599.2
11606.4
11613.7
11621
11628.3
11635.6
11642.9
11650.2
11657.5
11664.8
11672.1
11679.4
11686.7
11694.1
11701.4
11708.8
11716.1
11723.5
11730.8
11738.2
11745.6
11753
11760.4
11767.8
11775.2
11782.6
11790
11797.4
11804.8
11812.2
11819.7
11827.1
11834.5
11842
11849.5
11856.9
11864.4
11871.9
11879.3
11886.8
11894.3
11901.8
11909.3
11916.8
11924.3
11931.9
11939.4
11946.9
11954.5
11962
11969.6
11977.1
11984.7
11992.3
11999.8
12007.4
12015
12022.6
12030.2
12037.8
12045.4
12053
12060.7
12068.3
12075.9
12083.6
12091.2
12098.9
12106.5
12114.2
12121.9
12129.6
12137.2
12144.9
12152.6
12160.3
12168.1
12175.8
12183.5
12191.2
12199
12206.7
12214.4
12222.2
12230
12237.7
12245.5
12253.3
12261.1
12268.9
12276.7
12284.5
12292.3
12300.1
12307.9
12315.7
12323.6
12331.4
12339.3
12347.1
12355
12362.8
12370.7
12378.6
12386.5
12394.4
12402.3
12410.2
12418.1
12426
12433.9
12441.9
12449.8
12457.7
12465.7
12473.7
12481.6
12489.6
12497.6
12505.5
12513.5
12521.5
12529.5
12537.5
12545.5
12553.6
12561.6
12569.6
12577.7
12585.7
12593.8
12601.8
12609.9
12618
12626
12634.1
12642.2
12650.3
12658.4
12666.5
12674.6
12682.8
12690.9
12699
12707.2
12715.3
12723.5
12731.6
12739.8
12748
12756.2
12764.4
12772.6
12780.8
12789
12797.2
12805.4
12813.6
12821.9
12830.1
12838.4
12846.6
12854.9
12863.1
12871.4
12879.7
12888
12896.3
12904.6
12912.9
12921.2
12929.5
12937.9
12946.2
12954.5
12962.9
12971.2
12979.6
12988
12996.3
13004.7
13013.1
13021.5
13029.9
13038.3
13046.7
13055.2
13063.6
13072
13080.5
13088.9
13097.4
13105.8
13114.3
13122.8
13131.2
13139.7
13148.2
13156.7
13165.2
13173.8
13182.3
13190.8
13199.3
13207.9
13216.4
13225
13233.5
13242.1
13250.7
13259.3
13267.9
13276.5
13285.1
13293.7
13302.3
13310.9
13319.5
13328.2
13336.8
13345.5
13354.1
13362.8
13371.5
13380.1
13388.8
13397.5
13406.2
13414.9
13423.6
13432.4
13441.1
13449.8
13458.6
13467.3
13476.1
13484.8
13493.6
13502.4
13511.2
13519.9
13528.7
13537.5
13546.4
13555.2
13564
13572.8
13581.7
13590.5
13599.4
13608.2
13617.1
13626
13634.9
13643.8
13652.7
13661.6
13670.5
13679.4
13688.3
13697.3
13706.2
13715.2
13724.1
13733.1
13742.1
13751.1
13760
13769
13778.1
13787.1
13796.1
13805.1
13814.2
13823.2
13832.3
13841.4
13850.5
13859.5
13868.7
13877.8
13886.9
13896
13905.2
13914.3
13923.5
13932.7
13941.8
13951
13960.3
13969.5
13978.7
13988
13997.2
14006.5
14015.8
14025.1
14034.4
14043.7
14053.1
14062.5
14071.8
14081.2
14090.7
14100.1
14109.6
14119
14128.5
14138
14147.6
14157.1
14166.7
14176.3
14185.9
14195.6
14205.3
14215
14224.7
14234.5
14244.3
14254.1
14263.9
14273.8
14283.7
14293.7
14303.7
14313.7
14323.7
14333.8
14344
14354.2
14364.4
14374.6
14384.9
14395.3
14405.7
14416.2
14426.7
14437.2
14447.8
14458.5
14469.2
14480
14490.8
14501.7
14512.7
14523.7
14534.8
14546
14557.2
14568.5
14579.9
14591.3
14602.8
14614.4
14626.1
14637.8
14649.7
14661.6
14673.6
14685.7
14697.8
14710.1
14722.4
14734.8
14747.4
14760
14772.7
14785.5
14798.3
14811.3
14824.4
14837.6
14850.8
14864.2
14877.6
14891.2
14904.8
14918.5
14932.4
14946.3
14960.3
14974.4
14988.6
15002.9
15017.2
15031.7
15046.2
15060.8
15075.5
15090.3
15105.1
15120
15135
15150
15165.1
15180.3
15195.5
15210.8
15226.1
15241.5
15256.9
15272.3
15287.8
15303.3
15318.8
15334.3
15349.9
15365.5
15381.1
15396.6
15412.2
15427.8
15443.4
15458.9
15474.5
15490
15505.5
15520.9
15536.4
15551.8
15567.1
15582.4
15597.7
15612.9
15628
15643.1
15658.2
15673.2
15688.1
15703
15717.7
15732.5
15747.1
15761.7
15776.2
15790.7
15805
15819.3
15833.5
15847.7
15861.7
15875.7
15889.6
15903.4
15917.2
15930.9
15944.5
15958
15971.5
15984.8
15998.1
16011.4
16024.6
16037.7
16050.7
16063.7
16076.6
16089.4
16102.2
16114.9
16127.5
16140.1
16152.7
16165.2
16177.6
16190
16202.3
16214.6
16226.8
16239
16251.2
16263.3
16275.3
16287.4
16299.3
16311.3
16323.2
16335.1
16346.9
16358.7
16370.5
16382.3
16394
16405.7
16417.4
16429.1
16440.7
16452.3
16463.9
16475.5
16487.1
16498.7
16510.2
16521.8
16533.3
16544.8
16556.4
16567.9
16579.4
16591
16602.5
16614.1
16625.7
16637.3
16648.9
16660.6
16672.4
16684.2
16696
16707.9
16719.9
16732
16744.1
16756.4
16768.8
16781.3
16794
16806.8
16819.8
16832.9
16846.3
16859.8
16873.6
16887.6
16901.8
16916.2
16931
16945.9
16961.2
16976.7
16992.5
17008.5
17024.9
17041.4
17058.3
17075.4
17092.7
17110.3
17128.1
17146.1
17164.2
17182.5
17201
17219.6
17238.3
17257
17275.9
17294.7
17313.6
17332.5
17351.4
17370.2
17389
17407.7
17426.3
17444.8
17463.3
17481.6
17499.8
17517.9
17535.8
17553.7
17571.4
17589
17606.4
17623.7
17640.9
17658
17674.9
17691.7
17708.4
17725
17741.5
17757.8
17774.1
17790.2
17806.3
17822.2
17838.1
17853.8
17869.5
17885.1
17900.6
17916
17931.3
17946.6
17961.7
17976.8
17991.8
18006.8
18021.7
18036.5
18051.2
18065.9
18080.5
18095.1
18109.5
18124
18138.3
18152.6
18166.9
18181.1
18195.2
18209.3
18223.3
18237.3
18251.2
18265.1
18278.9
18292.7
18306.4
18320.1
18333.7
18347.3
18360.9
18374.4
18387.8
18401.2
18414.6
18427.9
18441.2
18454.5
18467.7
18480.8
18493.9
18507
18520.1
18533.1
18546.1
18559
18571.9
18584.8
18597.6
18610.4
18623.2
18635.9
18648.6
18661.2
18673.9
18686.5
18699
18711.6
18724.1
18736.5
18749
18761.4
18773.8
18786.1
18798.4
18810.4
)
;

boundaryField
{
    sides
    {
        type            zeroGradient;
    }
    empty
    {
        type            empty;
    }
}


// ************************************************************************* //
