/*--------------------------------*- C++ -*----------------------------------*\
  =========                 |
  \\      /  F ield         | OpenFOAM: The Open Source CFD Toolbox
   \\    /   O peration     | Website:  https://openfoam.org
    \\  /    A nd           | Version:  9
     \\/     M anipulation  |
\*---------------------------------------------------------------------------*/
FoamFile
{
    format      ascii;
    class       volScalarField;
    location    "0.044";
    object      p_0;
}
// * * * * * * * * * * * * * * * * * * * * * * * * * * * * * * * * * * * * * //

dimensions      [1 -1 -2 0 0 0 0];

internalField   nonuniform List<scalar> 
1000
(
10735.5
10734.3
10732
10729.9
10728.2
10726.6
10724.9
10723.2
10721.5
10719.9
10718.2
10716.5
10714.9
10713.2
10711.5
10709.9
10708.3
10706.6
10705
10703.4
10701.7
10700.1
10698.5
10696.9
10695.3
10693.7
10692.2
10690.6
10689
10687.5
10685.9
10684.3
10682.8
10681.3
10679.7
10678.2
10676.7
10675.2
10673.7
10672.2
10670.7
10669.2
10667.7
10666.2
10664.8
10663.3
10661.9
10660.4
10659
10657.6
10656.1
10654.7
10653.3
10651.9
10650.5
10649.2
10647.8
10646.4
10645.1
10643.7
10642.4
10641
10639.7
10638.4
10637.1
10635.8
10634.5
10633.2
10632
10630.7
10629.4
10628.2
10627
10625.8
10624.5
10623.3
10622.2
10621
10619.8
10618.6
10617.5
10616.4
10615.2
10614.1
10613
10611.9
10610.8
10609.8
10608.7
10607.7
10606.7
10605.6
10604.6
10603.7
10602.7
10601.7
10600.8
10599.8
10598.9
10598
10597.1
10596.3
10595.4
10594.6
10593.7
10592.9
10592.1
10591.4
10590.6
10589.9
10589.2
10588.5
10587.8
10587.1
10586.5
10585.8
10585.2
10584.6
10584.1
10583.5
10583
10582.5
10582
10581.5
10581.1
10580.7
10580.3
10579.9
10579.6
10579.3
10579
10578.7
10578.4
10578.2
10578
10577.8
10577.7
10577.6
10577.5
10577.4
10577.4
10577.4
10577.4
10577.4
10577.5
10577.6
10577.8
10578.1
10578.4
10578.7
10579
10579.5
10579.9
10580.4
10580.9
10581.4
10582
10582.6
10583.3
10584
10584.8
10585.6
10586.4
10587.3
10588.3
10589.3
10590.3
10591.4
10592.6
10593.8
10595
10596.3
10597.7
10599.1
10600.6
10602.1
10603.7
10605.3
10607
10608.8
10610.6
10612.5
10614.5
10616.5
10618.6
10620.8
10623
10625.3
10627.6
10630.1
10632.6
10635.1
10637.8
10640.5
10643.3
10646.1
10649.1
10652.1
10655.2
10658.3
10661.6
10664.9
10668.3
10671.8
10675.3
10678.9
10682.6
10686.4
10690.3
10694.2
10698.2
10702.3
10706.5
10710.7
10715
10719.4
10723.9
10728.4
10733.1
10737.7
10742.5
10747.3
10752.3
10757.2
10762.3
10767.4
10772.6
10777.8
10783.1
10788.5
10793.9
10799.4
10805
10810.6
10816.2
10822
10827.7
10833.6
10839.4
10845.4
10851.3
10857.3
10863.4
10869.5
10875.6
10881.8
10888
10894.3
10900.6
10906.9
10913.3
10919.6
10926.1
10932.5
10939
10945.5
10952
10958.5
10965.1
10971.7
10978.3
10984.9
10991.5
10998.2
11004.9
11011.6
11018.3
11025
11031.8
11038.5
11045.3
11052
11058.8
11065.6
11072.4
11079.2
11086.1
11092.9
11099.8
11106.6
11113.5
11120.3
11127.2
11134.1
11141
11147.9
11154.8
11161.7
11168.7
11175.6
11182.5
11189.5
11196.4
11203.4
11210.3
11217.3
11224.3
11231.2
11238.2
11245.2
11252.2
11259.2
11266.2
11273.2
11280.3
11287.3
11294.3
11301.3
11308.4
11315.4
11322.5
11329.5
11336.6
11343.7
11350.7
11357.8
11364.9
11372
11379.1
11386.2
11393.3
11400.4
11407.5
11414.7
11421.8
11428.9
11436.1
11443.2
11450.4
11457.5
11464.7
11471.9
11479
11486.2
11493.4
11500.6
11507.8
11515
11522.2
11529.4
11536.6
11543.8
11551
11558.3
11565.5
11572.8
11580
11587.3
11594.5
11601.8
11609.1
11616.3
11623.6
11630.9
11638.2
11645.5
11652.8
11660.1
11667.4
11674.8
11682.1
11689.4
11696.8
11704.1
11711.5
11718.8
11726.2
11733.5
11740.9
11748.3
11755.7
11763.1
11770.5
11777.9
11785.3
11792.7
11800.1
11807.5
11815
11822.4
11829.8
11837.3
11844.7
11852.2
11859.7
11867.1
11874.6
11882.1
11889.6
11897.1
11904.6
11912.1
11919.6
11927.1
11934.7
11942.2
11949.7
11957.3
11964.8
11972.4
11979.9
11987.5
11995.1
12002.7
12010.2
12017.8
12025.4
12033
12040.6
12048.3
12055.9
12063.5
12071.1
12078.8
12086.4
12094.1
12101.7
12109.4
12117.1
12124.8
12132.4
12140.1
12147.8
12155.5
12163.2
12170.9
12178.7
12186.4
12194.1
12201.9
12209.6
12217.4
12225.1
12232.9
12240.7
12248.4
12256.2
12264
12271.8
12279.6
12287.4
12295.2
12303
12310.9
12318.7
12326.5
12334.4
12342.2
12350.1
12358
12365.8
12373.7
12381.6
12389.5
12397.4
12405.3
12413.2
12421.1
12429
12437
12444.9
12452.8
12460.8
12468.7
12476.7
12484.7
12492.6
12500.6
12508.6
12516.6
12524.6
12532.6
12540.6
12548.6
12556.6
12564.7
12572.7
12580.7
12588.8
12596.9
12604.9
12613
12621.1
12629.1
12637.2
12645.3
12653.4
12661.5
12669.6
12677.8
12685.9
12694
12702.2
12710.3
12718.5
12726.6
12734.8
12743
12751.2
12759.3
12767.5
12775.7
12783.9
12792.1
12800.4
12808.6
12816.8
12825.1
12833.3
12841.6
12849.8
12858.1
12866.4
12874.6
12882.9
12891.2
12899.5
12907.8
12916.1
12924.5
12932.8
12941.1
12949.4
12957.8
12966.1
12974.5
12982.9
12991.2
12999.6
13008
13016.4
13024.8
13033.2
13041.6
13050
13058.5
13066.9
13075.3
13083.8
13092.2
13100.7
13109.1
13117.6
13126.1
13134.6
13143.1
13151.6
13160.1
13168.6
13177.1
13185.6
13194.2
13202.7
13211.3
13219.8
13228.4
13236.9
13245.5
13254.1
13262.7
13271.3
13279.9
13288.5
13297.1
13305.7
13314.3
13323
13331.6
13340.3
13348.9
13357.6
13366.2
13374.9
13383.6
13392.3
13401
13409.7
13418.4
13427.1
13435.8
13444.6
13453.3
13462.1
13470.8
13479.6
13488.3
13497.1
13505.9
13514.7
13523.5
13532.3
13541.1
13549.9
13558.7
13567.5
13576.4
13585.2
13594.1
13602.9
13611.8
13620.7
13629.6
13638.4
13647.3
13656.2
13665.1
13674.1
13683
13691.9
13700.9
13709.8
13718.8
13727.7
13736.7
13745.7
13754.7
13763.7
13772.7
13781.7
13790.7
13799.8
13808.8
13817.8
13826.9
13836
13845
13854.1
13863.2
13872.3
13881.4
13890.6
13899.7
13908.9
13918
13927.2
13936.4
13945.6
13954.8
13964
13973.2
13982.4
13991.7
14001
14010.2
14019.5
14028.8
14038.2
14047.5
14056.8
14066.2
14075.6
14085
14094.4
14103.9
14113.3
14122.8
14132.3
14141.8
14151.3
14160.9
14170.5
14180.1
14189.7
14199.4
14209.1
14218.8
14228.5
14238.3
14248
14257.9
14267.7
14277.6
14287.5
14297.5
14307.5
14317.5
14327.5
14337.6
14347.8
14358
14368.2
14378.4
14388.7
14399.1
14409.5
14420
14430.5
14441
14451.6
14462.3
14473
14483.8
14494.6
14505.5
14516.5
14527.5
14538.6
14549.7
14561
14572.3
14583.6
14595.1
14606.6
14618.2
14629.8
14641.6
14653.4
14665.3
14677.3
14689.4
14701.5
14713.8
14726.1
14738.5
14751
14763.6
14776.3
14789.1
14802
14815
14828
14841.2
14854.4
14867.8
14881.2
14894.8
14908.4
14922.1
14935.9
14949.9
14963.9
14977.9
14992.1
15006.4
15020.8
15035.2
15049.7
15064.3
15079
15093.8
15108.6
15123.5
15138.5
15153.5
15168.6
15183.8
15199
15214.3
15229.6
15245
15260.4
15275.8
15291.3
15306.8
15322.3
15337.9
15353.5
15369
15384.6
15400.2
15415.8
15431.4
15447
15462.5
15478.1
15493.6
15509.1
15524.6
15540
15555.4
15570.8
15586.1
15601.4
15616.6
15631.8
15646.9
15662
15677
15691.9
15706.8
15721.6
15736.4
15751
15765.6
15780.2
15794.6
15809
15823.3
15837.5
15851.7
15865.8
15879.8
15893.7
15907.5
15921.3
15935
15948.6
15962.2
15975.7
15989.1
16002.4
16015.6
16028.8
16042
16055
16068
16080.9
16093.8
16106.6
16119.3
16132
16144.6
16157.1
16169.6
16182.1
16194.5
16206.8
16219.1
16231.4
16243.6
16255.7
16267.8
16279.9
16291.9
16303.9
16315.9
16327.8
16339.7
16351.6
16363.4
16375.2
16387
16398.7
16410.4
16422.1
16433.8
16445.4
16457.1
16468.7
16480.3
16491.9
16503.4
16515
16526.6
16538.1
16549.6
16561.2
16572.7
16584.3
16595.8
16607.4
16618.9
16630.5
16642.2
16653.8
16665.5
16677.2
16689
16700.8
16712.8
16724.7
16736.8
16749
16761.2
16773.6
16786.1
16798.8
16811.6
16824.5
16837.7
16851
16864.5
16878.2
16892.2
16906.4
16920.8
16935.5
16950.5
16965.7
16981.2
16996.9
17013
17029.3
17045.8
17062.6
17079.7
17097
17114.6
17132.3
17150.3
17168.4
17186.8
17205.2
17223.8
17242.5
17261.3
17280.1
17299
17317.9
17336.7
17355.6
17374.5
17393.3
17412
17430.6
17449.2
17467.6
17486
17504.2
17522.3
17540.3
17558.2
17575.9
17593.5
17611
17628.3
17645.6
17662.6
17679.6
17696.5
17713.2
17729.8
17746.3
17762.7
17778.9
17795.1
17811.2
17827.1
17843
17858.8
17874.5
17890.1
17905.6
17921
17936.4
17951.7
17966.8
17982
17997
18012
18026.9
18041.7
18056.4
18071.1
18085.8
18100.3
18114.8
18129.3
18143.7
18158
18172.2
18186.5
18200.6
18214.7
18228.7
18242.7
18256.7
18270.6
18284.4
18298.2
18311.9
18325.6
18339.3
18352.9
18366.4
18380
18393.4
18406.8
18420.2
18433.6
18446.9
18460.1
18473.3
18486.5
18499.7
18512.8
18525.8
18538.8
18551.8
18564.8
18577.7
18590.6
18603.4
18616.2
18629
18641.7
18654.4
18667.1
18679.8
18692.4
18704.9
18717.5
18730
18742.5
18754.9
18767.4
18779.8
18792.1
18804.4
18816.4
)
;

boundaryField
{
    sides
    {
        type            zeroGradient;
    }
    empty
    {
        type            empty;
    }
}


// ************************************************************************* //
