/*--------------------------------*- C++ -*----------------------------------*\
  =========                 |
  \\      /  F ield         | OpenFOAM: The Open Source CFD Toolbox
   \\    /   O peration     | Website:  https://openfoam.org
    \\  /    A nd           | Version:  9
     \\/     M anipulation  |
\*---------------------------------------------------------------------------*/
FoamFile
{
    format      ascii;
    class       surfaceScalarField;
    location    "0.044";
    object      phi_0;
}
// * * * * * * * * * * * * * * * * * * * * * * * * * * * * * * * * * * * * * //

dimensions      [1 0 -1 0 0 0 0];

internalField   nonuniform List<scalar> 
999
(
17.9391
18.1441
18.3491
18.5539
18.7586
18.9632
19.1677
19.3721
19.5764
19.7806
19.9846
20.1886
20.3925
20.5963
20.8
21.0035
21.207
21.4103
21.6135
21.8167
22.0198
22.2227
22.4255
22.6282
22.8307
23.0331
23.2355
23.4378
23.6401
23.8422
24.0441
24.2458
24.4474
24.6488
24.8502
25.0516
25.253
25.4543
25.6555
25.8565
26.0572
26.2577
26.4579
26.6579
26.8579
27.0579
27.2579
27.4579
27.6581
27.8582
28.0582
28.2581
28.4577
28.657
28.8559
29.0544
29.2526
29.4505
29.6481
29.8457
30.0432
30.2408
30.4385
30.6364
30.8346
31.033
31.2317
31.4305
31.6295
31.8286
32.0276
32.2266
32.4255
32.6243
32.8231
33.0219
33.2206
33.4193
33.618
33.8171
34.0167
34.2162
34.4151
34.6139
34.8131
35.0119
35.2101
35.4087
35.6073
35.8052
36.003
36.2011
36.399
36.5963
36.7935
36.9911
37.1882
37.3848
37.5814
37.7784
37.9748
38.1707
38.3666
38.5629
38.7585
38.9537
39.1489
39.3444
39.5393
39.7337
39.9281
40.1228
40.317
40.5106
40.7041
40.8979
41.0913
41.2841
41.4767
41.6696
41.8621
42.0541
42.2458
42.4375
42.6293
42.8204
43.0111
43.2017
43.3925
43.5828
43.7725
43.9619
44.1515
44.3408
44.5296
44.718
44.9061
45.0943
45.282
45.4692
45.6561
45.8429
46.0298
46.2164
46.402
46.5873
46.7718
46.9559
47.1395
47.3226
47.5054
47.6879
47.87
48.0517
48.2329
48.4139
48.5945
48.7746
48.9541
49.1333
49.3121
49.4905
49.6683
49.8456
50.0224
50.1988
50.3748
50.5501
50.7248
50.8991
51.0729
51.2462
51.4188
51.5907
51.7622
51.9333
52.1037
52.2734
52.4424
52.6109
52.7789
52.9463
53.113
53.2789
53.4442
53.609
53.7732
53.9366
54.0992
54.2611
54.4225
54.5833
54.7434
54.9025
55.061
55.2189
55.3762
55.5327
55.6884
55.8433
55.9975
56.1512
56.3042
56.4563
56.6076
56.7582
56.9083
57.0577
57.2062
57.354
57.501
57.6475
57.7934
57.9385
58.0828
58.2264
58.3694
58.512
58.6538
58.7949
58.9353
59.0751
59.2144
59.3533
59.4915
59.6289
59.7658
59.9023
60.0384
60.174
60.309
60.4434
60.5773
60.711
60.8444
60.9773
61.1098
61.2417
61.3733
61.5048
61.6361
61.767
61.8975
62.0276
62.1575
62.2874
62.4172
62.5467
62.6759
62.8048
62.9337
63.0626
63.1915
63.3201
63.4485
63.5768
63.7052
63.8336
63.962
64.0903
64.2185
64.3466
64.4748
64.6032
64.7317
64.86
64.9883
65.1165
65.245
65.3736
65.5024
65.6311
65.7597
65.8883
66.0172
66.1463
66.2756
66.4049
66.5341
66.6633
66.7927
66.9225
67.0525
67.1824
67.3123
67.4423
67.5724
67.7028
67.8335
67.9642
68.095
68.2257
68.3565
68.4877
68.6191
68.7507
68.8823
69.0138
69.1455
69.2775
69.4097
69.5421
69.6745
69.8069
69.9394
70.0722
70.2052
70.3385
70.4718
70.6051
70.7384
70.8719
71.0058
71.14
71.2743
71.4085
71.5427
71.677
71.8116
71.9466
72.0818
72.217
72.3522
72.4874
72.6228
72.7585
72.8945
73.0306
73.1668
73.3029
73.4392
73.5757
73.7126
73.8496
73.9867
74.1237
74.2608
74.3982
74.5359
74.6738
74.8119
74.9499
75.0879
75.226
75.3644
75.5032
75.6423
75.7813
75.9204
76.0594
76.1986
76.338
76.4778
76.6179
76.758
76.898
77.0381
77.1784
77.3189
77.4598
77.6008
77.7418
77.8828
78.024
78.1654
78.3071
78.4491
78.5912
78.7332
78.8751
79.0173
79.1598
79.3026
79.4456
79.5888
79.7318
79.8748
80.018
80.1615
80.3054
80.4495
80.5936
80.7377
80.8819
81.0261
81.1707
81.3156
81.4607
81.6058
81.7509
81.8961
82.0415
82.1872
82.3332
82.4793
82.6255
82.7717
82.9178
83.0642
83.2109
83.358
83.5053
83.6526
83.7999
83.9472
84.0946
84.2423
84.3904
84.5387
84.6871
84.8354
84.9838
85.1324
85.2812
85.4304
85.5797
85.7291
85.8785
86.0279
86.1774
86.3273
86.4776
86.6281
86.7787
86.9292
87.0797
87.2303
87.3812
87.5324
87.684
87.8356
87.9873
88.139
88.2908
88.4428
88.5951
88.7476
88.9003
89.0531
89.2058
89.3586
89.5117
89.6651
89.8188
89.9727
90.1266
90.2805
90.4343
90.5884
90.7427
90.8974
91.0524
91.2075
91.3626
91.5177
91.6729
91.8284
91.9842
92.1402
92.2963
92.4525
92.6086
92.7649
92.9215
93.0784
93.2356
93.393
93.5504
93.7077
93.8651
94.0226
94.1804
94.3386
94.497
94.6556
94.8142
94.9728
95.1316
95.2905
95.4498
95.6094
95.7691
95.9288
96.0885
96.2483
96.4083
96.5686
96.7293
96.8902
97.0513
97.2123
97.3733
97.5344
97.6958
97.8574
98.0193
98.1814
98.3436
98.5058
98.6681
98.8306
98.9934
99.1565
99.3199
99.4834
99.6468
99.8103
99.9738
100.138
100.302
100.466
100.631
100.795
100.96
101.125
101.29
101.455
101.621
101.787
101.952
102.118
102.284
102.45
102.617
102.783
102.95
103.117
103.285
103.452
103.619
103.787
103.954
104.122
104.291
104.459
104.628
104.796
104.965
105.134
105.303
105.472
105.642
105.811
105.981
106.151
106.321
106.491
106.662
106.833
107.004
107.175
107.346
107.517
107.689
107.86
108.032
108.204
108.377
108.549
108.722
108.894
109.067
109.24
109.413
109.587
109.761
109.934
110.108
110.283
110.456
110.631
110.805
110.981
111.156
111.331
111.506
111.682
111.857
112.033
112.209
112.385
112.562
112.739
112.915
113.092
113.269
113.446
113.624
113.802
113.98
114.158
114.336
114.514
114.692
114.871
115.05
115.229
115.409
115.588
115.767
115.947
116.127
116.307
116.487
116.668
116.848
117.03
117.21
117.391
117.573
117.754
117.936
118.118
118.3
118.482
118.664
118.847
119.029
119.212
119.395
119.579
119.762
119.946
120.129
120.313
120.497
120.681
120.866
121.05
121.235
121.42
121.605
121.79
121.975
122.161
122.346
122.532
122.719
122.904
123.091
123.277
123.463
123.649
123.837
124.024
124.21
124.398
124.585
124.772
124.959
125.147
125.335
125.523
125.711
125.899
126.087
126.275
126.463
126.652
126.84
127.029
127.218
127.406
127.595
127.783
127.972
128.161
128.35
128.539
128.728
128.917
129.106
129.295
129.484
129.673
129.862
130.051
130.24
130.429
130.617
130.806
130.994
131.183
131.371
131.56
131.748
131.936
132.124
132.311
132.499
132.687
132.874
133.061
133.248
133.435
133.621
133.807
133.993
134.179
134.365
134.55
134.735
134.92
135.104
135.289
135.472
135.656
135.84
136.022
136.205
136.387
136.568
136.75
136.931
137.112
137.293
137.473
137.652
137.832
138.01
138.188
138.367
138.545
138.722
138.899
139.076
139.251
139.427
139.603
139.778
139.953
140.128
140.301
140.475
140.649
140.822
140.994
141.168
141.34
141.512
141.684
141.857
142.028
142.2
142.371
142.543
142.714
142.886
143.057
143.228
143.4
143.571
143.743
143.915
144.087
144.259
144.432
144.605
144.778
144.951
145.125
145.299
145.474
145.649
145.825
146.001
146.177
146.354
146.532
146.711
146.89
147.07
147.25
147.431
147.613
147.796
147.979
148.163
148.348
148.534
148.721
148.908
149.097
149.286
149.476
149.667
149.858
150.051
150.245
150.439
150.634
150.83
151.027
151.225
151.424
151.624
151.824
152.025
152.228
152.43
152.634
152.839
153.044
153.25
153.457
153.665
153.874
154.083
154.293
154.504
154.715
154.927
155.14
155.354
155.568
155.783
155.999
156.215
156.432
156.649
156.867
157.086
157.305
157.525
157.745
157.966
158.188
158.41
158.632
158.855
159.078
159.302
159.527
159.752
159.977
160.203
160.429
160.656
160.883
161.11
161.338
161.566
161.794
162.023
162.252
162.482
162.712
162.942
163.172
163.403
163.633
163.864
164.095
164.326
164.557
164.789
165.02
165.251
165.482
165.712
165.943
166.173
166.403
166.632
166.861
167.089
167.317
167.544
167.769
167.994
168.218
168.441
168.663
168.884
169.103
169.321
169.538
169.753
169.967
170.179
170.39
170.6
170.808
171.015
171.22
171.424
171.628
171.83
172.031
172.231
172.43
172.629
172.828
173.026
173.224
173.422
173.62
173.818
174.017
174.216
174.416
174.616
174.818
175.02
175.223
175.427
175.632
175.839
176.046
176.255
176.465
176.676
176.889
177.102
177.317
177.533
177.751
177.969
178.189
178.41
178.632
178.855
179.08
179.305
179.531
179.759
179.987
180.216
180.447
180.678
180.911
181.144
181.378
181.613
181.849
182.086
182.323
182.562
182.801
183.041
183.282
183.524
183.766
184.01
184.254
184.498
184.744
184.99
185.237
185.485
185.733
185.982
186.232
186.483
186.734
186.986
187.238
187.491
187.745
188
188.255
188.511
188.767
189.024
189.281
189.54
189.798
190.058
190.318
190.578
190.84
191.101
191.364
191.627
191.89
192.154
192.419
192.684
192.95
193.216
193.483
193.75
194.018
194.286
194.555
194.825
195.095
195.365
195.636
195.908
196.18
196.452
196.725
196.999
197.273
197.547
197.822
198.098
198.374
)
;

boundaryField
{
    sides
    {
        type            calculated;
        value           nonuniform List<scalar> 2(198.65 -17.734);
    }
    empty
    {
        type            empty;
        value           nonuniform List<scalar> 0();
    }
}


// ************************************************************************* //
