/*--------------------------------*- C++ -*----------------------------------*\
  =========                 |
  \\      /  F ield         | OpenFOAM: The Open Source CFD Toolbox
   \\    /   O peration     | Website:  https://openfoam.org
    \\  /    A nd           | Version:  9
     \\/     M anipulation  |
\*---------------------------------------------------------------------------*/
FoamFile
{
    format      ascii;
    class       volScalarField;
    location    "0.044";
    object      rho_0;
}
// * * * * * * * * * * * * * * * * * * * * * * * * * * * * * * * * * * * * * //

dimensions      [1 -3 0 0 0 0 0];

internalField   nonuniform List<scalar> 
1000
(
0.204632
0.204603
0.204547
0.204494
0.204446
0.204398
0.204351
0.204302
0.204254
0.204206
0.204158
0.20411
0.204062
0.204014
0.203967
0.203919
0.203872
0.203823
0.203776
0.203728
0.203681
0.203635
0.203588
0.20354
0.203492
0.203444
0.203397
0.203351
0.203306
0.20326
0.203214
0.203167
0.203119
0.203072
0.203024
0.202978
0.202934
0.20289
0.202846
0.202802
0.202757
0.202711
0.202664
0.202616
0.202569
0.202522
0.202477
0.202433
0.202391
0.20235
0.20231
0.202269
0.202229
0.202187
0.202144
0.202099
0.202052
0.202005
0.201957
0.201909
0.201861
0.201815
0.201771
0.201729
0.201689
0.201653
0.201619
0.201587
0.201557
0.201529
0.201502
0.201476
0.20145
0.201425
0.2014
0.201376
0.201353
0.20133
0.201309
0.201289
0.201273
0.20126
0.201246
0.201228
0.201215
0.201202
0.201186
0.201171
0.201159
0.201146
0.20113
0.201116
0.201105
0.201092
0.201076
0.201064
0.201054
0.20104
0.201025
0.201015
0.201005
0.200992
0.200978
0.200969
0.200959
0.200947
0.200934
0.200926
0.200917
0.200906
0.200895
0.200886
0.200879
0.200869
0.200859
0.200851
0.200845
0.200836
0.200827
0.20082
0.200815
0.200808
0.2008
0.200793
0.200789
0.200784
0.200777
0.200771
0.200768
0.200765
0.20076
0.200755
0.200752
0.20075
0.200748
0.200745
0.200742
0.200741
0.200741
0.20074
0.200739
0.200739
0.20074
0.200741
0.200741
0.200742
0.200745
0.200749
0.200753
0.200757
0.200762
0.200768
0.200774
0.200781
0.200787
0.200795
0.200803
0.200812
0.200821
0.20083
0.200841
0.200852
0.200864
0.200876
0.200888
0.200902
0.200916
0.200932
0.200947
0.200963
0.20098
0.200998
0.201017
0.201035
0.201055
0.201076
0.201098
0.201121
0.201143
0.201167
0.201192
0.201218
0.201245
0.201272
0.2013
0.201329
0.20136
0.201391
0.201423
0.201455
0.201489
0.201524
0.201561
0.201597
0.201634
0.201673
0.201713
0.201754
0.201796
0.201838
0.201882
0.201927
0.201974
0.202021
0.202068
0.202117
0.202167
0.202218
0.202271
0.202324
0.202377
0.202433
0.202489
0.202547
0.202605
0.202664
0.202724
0.202786
0.202849
0.202912
0.202976
0.203041
0.203107
0.203174
0.203243
0.203312
0.203381
0.203452
0.203523
0.203596
0.20367
0.203744
0.203818
0.203893
0.20397
0.204047
0.204125
0.204203
0.204282
0.204361
0.204442
0.204524
0.204605
0.204687
0.204769
0.204852
0.204936
0.20502
0.205105
0.205189
0.205274
0.20536
0.205447
0.205534
0.205621
0.205707
0.205794
0.205882
0.205971
0.206059
0.206148
0.206236
0.206325
0.206414
0.206504
0.206594
0.206684
0.206774
0.206863
0.206954
0.207045
0.207136
0.207227
0.207317
0.207408
0.207499
0.207591
0.207683
0.207774
0.207865
0.207956
0.208048
0.208141
0.208233
0.208326
0.208417
0.208509
0.208601
0.208694
0.208787
0.20888
0.208972
0.209064
0.209156
0.209249
0.209343
0.209436
0.209529
0.209621
0.209714
0.209807
0.209901
0.209995
0.210088
0.210181
0.210274
0.210367
0.210461
0.210556
0.210649
0.210743
0.210836
0.210929
0.211024
0.211118
0.211213
0.211307
0.2114
0.211494
0.211588
0.211683
0.211778
0.211872
0.211966
0.21206
0.212155
0.212249
0.212345
0.21244
0.212534
0.212629
0.212723
0.212818
0.212914
0.213009
0.213104
0.213199
0.213294
0.213389
0.213485
0.213581
0.213677
0.213772
0.213867
0.213962
0.214057
0.214154
0.21425
0.214346
0.214442
0.214537
0.214632
0.214729
0.214825
0.214922
0.215018
0.215114
0.21521
0.215306
0.215403
0.2155
0.215597
0.215693
0.215789
0.215886
0.215983
0.21608
0.216178
0.216275
0.216371
0.216468
0.216564
0.216662
0.21676
0.216858
0.216955
0.217052
0.217149
0.217246
0.217344
0.217442
0.21754
0.217638
0.217736
0.217833
0.217931
0.218029
0.218128
0.218226
0.218324
0.218422
0.21852
0.218618
0.218717
0.218816
0.218915
0.219014
0.219112
0.21921
0.219308
0.219407
0.219507
0.219607
0.219706
0.219804
0.219903
0.220002
0.220101
0.220201
0.220301
0.220401
0.2205
0.220599
0.220698
0.220798
0.220898
0.220999
0.221099
0.221198
0.221297
0.221397
0.221497
0.221598
0.221699
0.2218
0.2219
0.222
0.222099
0.2222
0.222301
0.222402
0.222504
0.222604
0.222705
0.222805
0.222906
0.223008
0.223109
0.223211
0.223312
0.223413
0.223513
0.223615
0.223717
0.223819
0.223921
0.224023
0.224124
0.224225
0.224327
0.224429
0.224531
0.224634
0.224736
0.224838
0.22494
0.225042
0.225145
0.225247
0.22535
0.225453
0.225555
0.225658
0.22576
0.225863
0.225966
0.22607
0.226173
0.226276
0.226379
0.226482
0.226584
0.226688
0.226792
0.226896
0.226999
0.227103
0.227206
0.227309
0.227413
0.227517
0.227622
0.227726
0.22783
0.227934
0.228037
0.228141
0.228246
0.228351
0.228456
0.228561
0.228665
0.228769
0.228873
0.228978
0.229083
0.229188
0.229293
0.229398
0.229503
0.229608
0.229713
0.229818
0.229924
0.23003
0.230136
0.230241
0.230346
0.230451
0.230557
0.230663
0.230769
0.230875
0.230981
0.231087
0.231193
0.231299
0.231405
0.231512
0.231619
0.231725
0.231832
0.231938
0.232044
0.23215
0.232257
0.232364
0.232472
0.232579
0.232686
0.232793
0.2329
0.233006
0.233114
0.233222
0.233329
0.233437
0.233544
0.233651
0.233759
0.233866
0.233975
0.234083
0.234192
0.234299
0.234407
0.234514
0.234623
0.234731
0.234839
0.234949
0.235056
0.235166
0.235273
0.235382
0.23549
0.235599
0.23571
0.235817
0.235928
0.236035
0.236145
0.236253
0.236362
0.236473
0.236579
0.236694
0.236798
0.236913
0.237018
0.23713
0.237238
0.237348
0.237461
0.237567
0.237682
0.237787
0.237901
0.238008
0.238119
0.238231
0.238339
0.238454
0.23856
0.238674
0.238781
0.238893
0.239004
0.239114
0.239228
0.239336
0.239451
0.239558
0.239672
0.239781
0.239893
0.240006
0.240115
0.24023
0.240338
0.240454
0.240561
0.240676
0.240786
0.240899
0.241012
0.241122
0.241239
0.241345
0.241463
0.241569
0.241688
0.241796
0.241912
0.242024
0.242136
0.24225
0.242361
0.242476
0.242587
0.242702
0.242816
0.242928
0.243045
0.243154
0.243272
0.243381
0.243498
0.243611
0.243725
0.243843
0.243953
0.244071
0.244183
0.244298
0.244414
0.244526
0.244645
0.244757
0.244875
0.244989
0.245104
0.245221
0.245333
0.245454
0.245566
0.245686
0.245801
0.245917
0.246035
0.246149
0.246269
0.246384
0.246504
0.246622
0.246738
0.246859
0.246974
0.247095
0.247213
0.247332
0.247454
0.247571
0.247693
0.247811
0.247933
0.248053
0.248175
0.248297
0.248419
0.248541
0.248664
0.248788
0.248909
0.249035
0.249158
0.249284
0.24941
0.249534
0.249661
0.249787
0.249914
0.250042
0.250171
0.2503
0.250429
0.25056
0.250689
0.250821
0.250952
0.251084
0.251219
0.251352
0.251487
0.251623
0.251758
0.251895
0.252033
0.252172
0.252311
0.252452
0.252593
0.252734
0.252877
0.253021
0.253165
0.253311
0.253459
0.253606
0.253754
0.253905
0.254054
0.254206
0.25436
0.254513
0.254668
0.254826
0.254981
0.255139
0.2553
0.255459
0.25562
0.255785
0.255947
0.256113
0.256279
0.256447
0.256612
0.256785
0.256952
0.257127
0.257296
0.257475
0.257642
0.257826
0.257994
0.25818
0.258348
0.258542
0.258707
0.258904
0.259069
0.25927
0.259433
0.259639
0.259802
0.260011
0.260173
0.260385
0.260547
0.260758
0.260922
0.261135
0.261299
0.261513
0.261678
0.261892
0.262056
0.262271
0.262435
0.262649
0.262813
0.263028
0.263192
0.263406
0.263569
0.263782
0.263944
0.264156
0.264318
0.264529
0.26469
0.2649
0.265059
0.265268
0.265426
0.265632
0.265789
0.265994
0.26615
0.266353
0.266507
0.266708
0.26686
0.267059
0.26721
0.267406
0.267556
0.26775
0.267898
0.268091
0.268236
0.268427
0.268571
0.268759
0.268901
0.269087
0.269228
0.269412
0.269552
0.269733
0.269871
0.270051
0.270187
0.270365
0.270499
0.270675
0.270809
0.270983
0.271115
0.271287
0.271418
0.271588
0.271718
0.271887
0.272016
0.272183
0.27231
0.272477
0.272603
0.272768
0.272893
0.273057
0.273181
0.273344
0.273467
0.273629
0.273752
0.273912
0.274034
0.274194
0.274315
0.274474
0.274595
0.274753
0.274874
0.275031
0.275151
0.275308
0.275427
0.275584
0.275703
0.275859
0.275978
0.276133
0.276252
0.276408
0.276526
0.276682
0.276801
0.276956
0.277075
0.277231
0.277351
0.277508
0.277628
0.277785
0.277906
0.278065
0.278188
0.278349
0.278472
0.278636
0.278761
0.278927
0.279056
0.279225
0.279356
0.27953
0.279665
0.279843
0.279982
0.280166
0.280309
0.280498
0.280646
0.280843
0.280996
0.281199
0.281357
0.281568
0.281732
0.281949
0.282118
0.282343
0.282517
0.282748
0.282927
0.283164
0.283347
0.283589
0.283776
0.284022
0.284211
0.28446
0.284651
0.284902
0.285094
0.285345
0.285538
0.285789
0.28598
0.28623
0.286421
0.286668
0.286857
0.287102
0.287288
0.28753
0.287714
0.287952
0.288133
0.288369
0.288547
0.288779
0.288954
0.289182
0.289355
0.28958
0.28975
0.289971
0.290139
0.290357
0.290522
0.290738
0.290901
0.291113
0.291274
0.291484
0.291643
0.29185
0.292007
0.292212
0.292367
0.29257
0.292724
0.292924
0.293076
0.293274
0.293425
0.293621
0.29377
0.293965
0.294112
0.294305
0.294451
0.294642
0.294787
0.294976
0.29512
0.295307
0.29545
0.295636
0.295777
0.295962
0.296102
0.296285
0.296424
0.296606
0.296744
0.296925
0.297062
0.297241
0.297377
0.297555
0.29769
0.297866
0.298
0.298176
0.298309
0.298483
0.298616
0.298789
0.29892
0.299092
0.299223
0.299394
0.299524
0.299694
0.299823
0.299992
0.30012
0.300288
0.300416
0.300583
0.30071
0.300876
0.301002
0.301167
0.301292
0.301456
0.301581
0.301745
0.301869
0.302031
0.302155
0.302316
0.302434
0.302605
0.302682
)
;

boundaryField
{
    sides
    {
        type            calculated;
        value           nonuniform List<scalar> 2(0.302682 0.204632);
    }
    empty
    {
        type            empty;
    }
}


// ************************************************************************* //
