/*--------------------------------*- C++ -*----------------------------------*\
  =========                 |
  \\      /  F ield         | OpenFOAM: The Open Source CFD Toolbox
   \\    /   O peration     | Website:  https://openfoam.org
    \\  /    A nd           | Version:  9
     \\/     M anipulation  |
\*---------------------------------------------------------------------------*/
FoamFile
{
    format      ascii;
    class       volScalarField;
    location    "0.031";
    object      ddt0(rho,e);
}
// * * * * * * * * * * * * * * * * * * * * * * * * * * * * * * * * * * * * * //

dimensions      [1 -1 -3 0 0 0 0];

internalField   nonuniform List<scalar> 
10000
(
1.04834e+06
1.04825e+06
1.04813e+06
1.04799e+06
1.04783e+06
1.04771e+06
1.04762e+06
1.04749e+06
1.0473e+06
1.04713e+06
1.04705e+06
1.047e+06
1.04687e+06
1.04664e+06
1.04642e+06
1.04633e+06
1.04634e+06
1.0463e+06
1.0461e+06
1.0458e+06
1.04556e+06
1.0455e+06
1.04558e+06
1.04562e+06
1.04546e+06
1.04511e+06
1.04474e+06
1.04455e+06
1.0446e+06
1.04479e+06
1.04489e+06
1.04474e+06
1.04434e+06
1.04385e+06
1.0435e+06
1.04343e+06
1.04364e+06
1.04395e+06
1.04414e+06
1.04404e+06
1.04362e+06
1.04302e+06
1.04245e+06
1.04213e+06
1.04214e+06
1.04245e+06
1.04291e+06
1.0433e+06
1.04344e+06
1.04322e+06
1.04269e+06
1.04196e+06
1.04123e+06
1.04067e+06
1.04042e+06
1.04052e+06
1.04094e+06
1.04156e+06
1.04221e+06
1.04273e+06
1.043e+06
1.04295e+06
1.04255e+06
1.04186e+06
1.04097e+06
1.04e+06
1.03907e+06
1.03829e+06
1.03776e+06
1.03752e+06
1.03761e+06
1.03802e+06
1.03872e+06
1.03966e+06
1.04078e+06
1.04202e+06
1.04332e+06
1.04462e+06
1.04587e+06
1.04703e+06
1.04805e+06
1.04892e+06
1.04961e+06
1.05013e+06
1.05047e+06
1.05066e+06
1.05073e+06
1.05074e+06
1.05081e+06
1.05102e+06
1.05167e+06
1.05268e+06
1.05269e+06
1.05268e+06
1.05267e+06
1.05266e+06
1.05264e+06
1.05263e+06
1.05261e+06
1.0526e+06
1.05259e+06
1.05259e+06
1.05258e+06
1.05257e+06
1.05257e+06
1.05257e+06
1.05257e+06
1.05256e+06
1.05256e+06
1.05256e+06
1.05256e+06
1.05256e+06
1.05256e+06
1.05256e+06
1.05256e+06
1.05256e+06
1.05256e+06
1.05256e+06
1.05256e+06
1.05256e+06
1.05256e+06
1.05256e+06
1.05256e+06
1.05256e+06
1.05256e+06
1.05256e+06
1.05255e+06
1.05255e+06
1.05255e+06
1.05255e+06
1.05255e+06
1.05255e+06
1.05255e+06
1.05255e+06
1.05255e+06
1.05255e+06
1.05255e+06
1.05255e+06
1.05255e+06
1.05255e+06
1.05255e+06
1.05255e+06
1.05255e+06
1.05255e+06
1.05255e+06
1.05255e+06
1.05255e+06
1.05254e+06
1.05254e+06
1.05254e+06
1.05254e+06
1.05254e+06
1.05254e+06
1.05254e+06
1.05254e+06
1.05254e+06
1.05254e+06
1.05254e+06
1.05254e+06
1.05254e+06
1.05254e+06
1.05254e+06
1.05254e+06
1.05254e+06
1.05254e+06
1.05253e+06
1.05253e+06
1.05253e+06
1.05253e+06
1.05253e+06
1.05253e+06
1.05253e+06
1.05253e+06
1.05253e+06
1.05253e+06
1.05253e+06
1.05253e+06
1.05253e+06
1.05253e+06
1.05253e+06
1.05253e+06
1.05253e+06
1.05252e+06
1.05252e+06
1.05252e+06
1.05252e+06
1.05252e+06
1.05252e+06
1.05252e+06
1.05252e+06
1.05252e+06
1.05252e+06
1.05252e+06
1.05252e+06
1.05252e+06
1.05252e+06
1.05252e+06
1.05251e+06
1.05251e+06
1.05251e+06
1.05251e+06
1.05251e+06
1.05251e+06
1.05251e+06
1.05251e+06
1.05251e+06
1.05251e+06
1.05251e+06
1.05251e+06
1.05251e+06
1.0525e+06
1.0525e+06
1.0525e+06
1.0525e+06
1.0525e+06
1.0525e+06
1.0525e+06
1.0525e+06
1.0525e+06
1.0525e+06
1.0525e+06
1.0525e+06
1.0525e+06
1.0525e+06
1.05249e+06
1.05249e+06
1.05249e+06
1.05249e+06
1.05249e+06
1.05249e+06
1.05249e+06
1.05249e+06
1.05249e+06
1.05249e+06
1.05249e+06
1.05248e+06
1.05248e+06
1.05248e+06
1.05248e+06
1.05248e+06
1.05248e+06
1.05248e+06
1.05248e+06
1.05248e+06
1.05248e+06
1.05248e+06
1.05247e+06
1.05247e+06
1.05247e+06
1.05247e+06
1.05247e+06
1.05247e+06
1.05247e+06
1.05247e+06
1.05247e+06
1.05247e+06
1.05247e+06
1.05246e+06
1.05246e+06
1.05246e+06
1.05246e+06
1.05246e+06
1.05246e+06
1.05246e+06
1.05246e+06
1.05246e+06
1.05246e+06
1.05245e+06
1.05245e+06
1.05245e+06
1.05245e+06
1.05245e+06
1.05245e+06
1.05245e+06
1.05245e+06
1.05245e+06
1.05245e+06
1.05244e+06
1.05244e+06
1.05244e+06
1.05244e+06
1.05244e+06
1.05244e+06
1.05244e+06
1.05244e+06
1.05244e+06
1.05243e+06
1.05243e+06
1.05243e+06
1.05243e+06
1.05243e+06
1.05243e+06
1.05243e+06
1.05243e+06
1.05243e+06
1.05242e+06
1.05242e+06
1.05242e+06
1.05242e+06
1.05242e+06
1.05242e+06
1.05242e+06
1.05242e+06
1.05242e+06
1.05241e+06
1.05241e+06
1.05241e+06
1.05241e+06
1.05241e+06
1.05241e+06
1.05241e+06
1.05241e+06
1.0524e+06
1.0524e+06
1.0524e+06
1.0524e+06
1.0524e+06
1.0524e+06
1.0524e+06
1.0524e+06
1.0524e+06
1.05239e+06
1.05239e+06
1.05239e+06
1.05239e+06
1.05239e+06
1.05239e+06
1.05239e+06
1.05239e+06
1.05238e+06
1.05238e+06
1.05238e+06
1.05238e+06
1.05238e+06
1.05238e+06
1.05238e+06
1.05237e+06
1.05237e+06
1.05237e+06
1.05237e+06
1.05237e+06
1.05237e+06
1.05237e+06
1.05237e+06
1.05236e+06
1.05236e+06
1.05236e+06
1.05236e+06
1.05236e+06
1.05236e+06
1.05236e+06
1.05235e+06
1.05235e+06
1.05235e+06
1.05235e+06
1.05235e+06
1.05235e+06
1.05235e+06
1.05235e+06
1.05234e+06
1.05234e+06
1.05234e+06
1.05234e+06
1.05234e+06
1.05234e+06
1.05234e+06
1.05233e+06
1.05233e+06
1.05233e+06
1.05233e+06
1.05233e+06
1.05233e+06
1.05233e+06
1.05232e+06
1.05232e+06
1.05232e+06
1.05232e+06
1.05232e+06
1.05232e+06
1.05232e+06
1.05231e+06
1.05231e+06
1.05231e+06
1.05231e+06
1.05231e+06
1.05231e+06
1.0523e+06
1.0523e+06
1.0523e+06
1.0523e+06
1.0523e+06
1.0523e+06
1.0523e+06
1.05229e+06
1.05229e+06
1.05229e+06
1.05229e+06
1.05229e+06
1.05229e+06
1.05228e+06
1.05228e+06
1.05228e+06
1.05228e+06
1.05228e+06
1.05228e+06
1.05228e+06
1.05227e+06
1.05227e+06
1.05227e+06
1.05227e+06
1.05227e+06
1.05227e+06
1.05226e+06
1.05226e+06
1.05226e+06
1.05226e+06
1.05226e+06
1.05226e+06
1.05225e+06
1.05225e+06
1.05225e+06
1.05225e+06
1.05225e+06
1.05225e+06
1.05224e+06
1.05224e+06
1.05224e+06
1.05224e+06
1.05224e+06
1.05224e+06
1.05223e+06
1.05223e+06
1.05223e+06
1.05223e+06
1.05223e+06
1.05223e+06
1.05222e+06
1.05222e+06
1.05222e+06
1.05222e+06
1.05222e+06
1.05221e+06
1.05221e+06
1.05221e+06
1.05221e+06
1.05221e+06
1.05221e+06
1.0522e+06
1.0522e+06
1.0522e+06
1.0522e+06
1.0522e+06
1.0522e+06
1.05219e+06
1.05219e+06
1.05219e+06
1.05219e+06
1.05219e+06
1.05218e+06
1.05218e+06
1.05218e+06
1.05218e+06
1.05218e+06
1.05218e+06
1.05217e+06
1.05217e+06
1.05217e+06
1.05217e+06
1.05217e+06
1.05216e+06
1.05216e+06
1.05216e+06
1.05216e+06
1.05216e+06
1.05215e+06
1.05215e+06
1.05215e+06
1.05215e+06
1.05215e+06
1.05215e+06
1.05214e+06
1.05214e+06
1.05214e+06
1.05214e+06
1.05214e+06
1.05213e+06
1.05213e+06
1.05213e+06
1.05213e+06
1.05213e+06
1.05212e+06
1.05212e+06
1.05212e+06
1.05212e+06
1.05212e+06
1.05211e+06
1.05211e+06
1.05211e+06
1.05211e+06
1.05211e+06
1.0521e+06
1.0521e+06
1.0521e+06
1.0521e+06
1.0521e+06
1.05209e+06
1.05209e+06
1.05209e+06
1.05209e+06
1.05209e+06
1.05208e+06
1.05208e+06
1.05208e+06
1.05208e+06
1.05208e+06
1.05207e+06
1.05207e+06
1.05207e+06
1.05207e+06
1.05207e+06
1.05206e+06
1.05206e+06
1.05206e+06
1.05206e+06
1.05206e+06
1.05205e+06
1.05205e+06
1.05205e+06
1.05205e+06
1.05204e+06
1.05204e+06
1.05204e+06
1.05204e+06
1.05204e+06
1.05203e+06
1.05203e+06
1.05203e+06
1.05203e+06
1.05203e+06
1.05202e+06
1.05202e+06
1.05202e+06
1.05202e+06
1.05201e+06
1.05201e+06
1.05201e+06
1.05201e+06
1.05201e+06
1.052e+06
1.052e+06
1.052e+06
1.052e+06
1.05199e+06
1.05199e+06
1.05199e+06
1.05199e+06
1.05199e+06
1.05198e+06
1.05198e+06
1.05198e+06
1.05198e+06
1.05197e+06
1.05197e+06
1.05197e+06
1.05197e+06
1.05197e+06
1.05196e+06
1.05196e+06
1.05196e+06
1.05196e+06
1.05195e+06
1.05195e+06
1.05195e+06
1.05195e+06
1.05194e+06
1.05194e+06
1.05194e+06
1.05194e+06
1.05194e+06
1.05193e+06
1.05193e+06
1.05193e+06
1.05193e+06
1.05192e+06
1.05192e+06
1.05192e+06
1.05192e+06
1.05191e+06
1.05191e+06
1.05191e+06
1.05191e+06
1.0519e+06
1.0519e+06
1.0519e+06
1.0519e+06
1.05189e+06
1.05189e+06
1.05189e+06
1.05189e+06
1.05188e+06
1.05188e+06
1.05188e+06
1.05188e+06
1.05188e+06
1.05187e+06
1.05187e+06
1.05187e+06
1.05187e+06
1.05186e+06
1.05186e+06
1.05186e+06
1.05186e+06
1.05185e+06
1.05185e+06
1.05185e+06
1.05185e+06
1.05184e+06
1.05184e+06
1.05184e+06
1.05184e+06
1.05183e+06
1.05183e+06
1.05183e+06
1.05183e+06
1.05182e+06
1.05182e+06
1.05182e+06
1.05182e+06
1.05181e+06
1.05181e+06
1.05181e+06
1.0518e+06
1.0518e+06
1.0518e+06
1.0518e+06
1.05179e+06
1.05179e+06
1.05179e+06
1.05179e+06
1.05178e+06
1.05178e+06
1.05178e+06
1.05178e+06
1.05177e+06
1.05177e+06
1.05177e+06
1.05177e+06
1.05176e+06
1.05176e+06
1.05176e+06
1.05176e+06
1.05175e+06
1.05175e+06
1.05175e+06
1.05174e+06
1.05174e+06
1.05174e+06
1.05174e+06
1.05173e+06
1.05173e+06
1.05173e+06
1.05173e+06
1.05172e+06
1.05172e+06
1.05172e+06
1.05171e+06
1.05171e+06
1.05171e+06
1.05171e+06
1.0517e+06
1.0517e+06
1.0517e+06
1.0517e+06
1.05169e+06
1.05169e+06
1.05169e+06
1.05168e+06
1.05168e+06
1.05168e+06
1.05168e+06
1.05167e+06
1.05167e+06
1.05167e+06
1.05167e+06
1.05166e+06
1.05166e+06
1.05166e+06
1.05165e+06
1.05165e+06
1.05165e+06
1.05165e+06
1.05164e+06
1.05164e+06
1.05164e+06
1.05163e+06
1.05163e+06
1.05163e+06
1.05163e+06
1.05162e+06
1.05162e+06
1.05162e+06
1.05161e+06
1.05161e+06
1.05161e+06
1.05161e+06
1.0516e+06
1.0516e+06
1.0516e+06
1.05159e+06
1.05159e+06
1.05159e+06
1.05158e+06
1.05158e+06
1.05158e+06
1.05158e+06
1.05157e+06
1.05157e+06
1.05157e+06
1.05156e+06
1.05156e+06
1.05156e+06
1.05156e+06
1.05155e+06
1.05155e+06
1.05155e+06
1.05154e+06
1.05154e+06
1.05154e+06
1.05153e+06
1.05153e+06
1.05153e+06
1.05153e+06
1.05152e+06
1.05152e+06
1.05152e+06
1.05151e+06
1.05151e+06
1.05151e+06
1.0515e+06
1.0515e+06
1.0515e+06
1.0515e+06
1.05149e+06
1.05149e+06
1.05149e+06
1.05148e+06
1.05148e+06
1.05148e+06
1.05147e+06
1.05147e+06
1.05147e+06
1.05146e+06
1.05146e+06
1.05146e+06
1.05145e+06
1.05145e+06
1.05145e+06
1.05145e+06
1.05144e+06
1.05144e+06
1.05144e+06
1.05143e+06
1.05143e+06
1.05143e+06
1.05142e+06
1.05142e+06
1.05142e+06
1.05141e+06
1.05141e+06
1.05141e+06
1.0514e+06
1.0514e+06
1.0514e+06
1.05139e+06
1.05139e+06
1.05139e+06
1.05139e+06
1.05138e+06
1.05138e+06
1.05138e+06
1.05137e+06
1.05137e+06
1.05137e+06
1.05136e+06
1.05136e+06
1.05136e+06
1.05135e+06
1.05135e+06
1.05135e+06
1.05134e+06
1.05134e+06
1.05134e+06
1.05133e+06
1.05133e+06
1.05133e+06
1.05132e+06
1.05132e+06
1.05132e+06
1.05131e+06
1.05131e+06
1.05131e+06
1.0513e+06
1.0513e+06
1.0513e+06
1.05129e+06
1.05129e+06
1.05129e+06
1.05128e+06
1.05128e+06
1.05128e+06
1.05127e+06
1.05127e+06
1.05127e+06
1.05126e+06
1.05126e+06
1.05126e+06
1.05125e+06
1.05125e+06
1.05125e+06
1.05124e+06
1.05124e+06
1.05124e+06
1.05123e+06
1.05123e+06
1.05123e+06
1.05122e+06
1.05122e+06
1.05122e+06
1.05121e+06
1.05121e+06
1.05121e+06
1.0512e+06
1.0512e+06
1.05119e+06
1.05119e+06
1.05119e+06
1.05119e+06
1.05118e+06
1.05118e+06
1.05116e+06
1.05118e+06
1.05115e+06
1.05118e+06
1.05113e+06
1.05119e+06
1.05111e+06
1.0512e+06
1.05108e+06
1.05122e+06
1.05105e+06
1.05124e+06
1.05101e+06
1.05126e+06
1.05098e+06
1.05127e+06
1.05097e+06
1.05126e+06
1.05099e+06
1.05119e+06
1.05107e+06
1.05107e+06
1.05113e+06
1.05109e+06
1.05108e+06
1.0511e+06
1.05108e+06
1.05107e+06
1.05107e+06
1.05107e+06
1.05107e+06
1.05106e+06
1.05106e+06
1.05105e+06
1.05106e+06
1.05103e+06
1.05109e+06
1.05095e+06
1.05119e+06
1.05082e+06
1.05132e+06
1.05068e+06
1.05143e+06
1.05058e+06
1.05146e+06
1.0506e+06
1.05134e+06
1.05079e+06
1.05107e+06
1.0511e+06
1.05072e+06
1.05142e+06
1.05044e+06
1.05159e+06
1.05038e+06
1.05149e+06
1.05062e+06
1.0511e+06
1.05109e+06
1.05059e+06
1.05152e+06
1.05026e+06
1.05166e+06
1.05033e+06
1.05135e+06
1.05081e+06
1.05074e+06
1.05141e+06
1.05022e+06
1.05172e+06
1.05018e+06
1.05145e+06
1.0507e+06
1.05073e+06
1.05143e+06
1.05012e+06
1.05176e+06
1.05013e+06
1.05137e+06
1.05081e+06
1.05052e+06
1.05159e+06
1.04996e+06
1.05175e+06
1.05023e+06
1.05108e+06
1.05112e+06
1.05016e+06
1.05179e+06
1.0499e+06
1.05153e+06
1.0506e+06
1.05054e+06
1.05158e+06
1.04982e+06
1.05179e+06
1.05018e+06
1.05093e+06
1.05127e+06
1.0499e+06
1.05187e+06
1.04989e+06
1.05125e+06
1.05094e+06
1.05008e+06
1.05183e+06
1.04972e+06
1.0515e+06
1.05061e+06
1.0503e+06
1.05168e+06
1.04966e+06
1.05167e+06
1.0503e+06
1.05058e+06
1.05147e+06
1.04967e+06
1.05178e+06
1.05007e+06
1.05077e+06
1.05133e+06
1.04967e+06
1.05183e+06
1.04994e+06
1.05084e+06
1.05127e+06
1.04963e+06
1.05185e+06
1.04989e+06
1.05079e+06
1.05133e+06
1.04953e+06
1.05186e+06
1.04994e+06
1.05061e+06
1.05148e+06
1.0494e+06
1.0518e+06
1.05012e+06
1.0503e+06
1.05171e+06
1.0493e+06
1.05161e+06
1.05046e+06
1.04987e+06
1.05194e+06
1.04934e+06
1.05122e+06
1.05097e+06
1.04943e+06
1.05202e+06
1.04962e+06
1.05061e+06
1.05154e+06
1.04912e+06
1.05181e+06
1.05021e+06
1.04985e+06
1.052e+06
1.04915e+06
1.05118e+06
1.05105e+06
1.04918e+06
1.05205e+06
1.0497e+06
1.05023e+06
1.05179e+06
1.04899e+06
1.05155e+06
1.05052e+06
1.04948e+06
1.05203e+06
1.04932e+06
1.05072e+06
1.05137e+06
1.04899e+06
1.05178e+06
1.05011e+06
1.0497e+06
1.05197e+06
1.0491e+06
1.05092e+06
1.05121e+06
1.04894e+06
1.05186e+06
1.04999e+06
1.04966e+06
1.052e+06
1.04904e+06
1.0508e+06
1.05131e+06
1.04882e+06
1.05174e+06
1.05019e+06
1.04939e+06
1.05203e+06
1.0492e+06
1.05041e+06
1.05157e+06
1.04877e+06
1.05141e+06
1.05062e+06
1.04903e+06
1.05195e+06
1.04958e+06
1.04982e+06
1.05186e+06
1.04887e+06
1.05081e+06
1.05122e+06
1.04871e+06
1.05162e+06
1.05028e+06
1.04909e+06
1.052e+06
1.04935e+06
1.04987e+06
1.05187e+06
1.0487e+06
1.0508e+06
1.05127e+06
1.0485e+06
1.05162e+06
1.05038e+06
1.04878e+06
1.0521e+06
1.04944e+06
1.04946e+06
1.05212e+06
1.04869e+06
1.05034e+06
1.05171e+06
1.0483e+06
1.05119e+06
1.05099e+06
1.04831e+06
1.05184e+06
1.05012e+06
1.0487e+06
1.05218e+06
1.04929e+06
1.04934e+06
1.05216e+06
1.04864e+06
1.05011e+06
1.05182e+06
1.04825e+06
1.05087e+06
1.05124e+06
1.04816e+06
1.0515e+06
1.05052e+06
1.04836e+06
1.05192e+06
1.04979e+06
1.04878e+06
1.05209e+06
1.04913e+06
1.04934e+06
1.05202e+06
1.04862e+06
1.04997e+06
1.05174e+06
1.04828e+06
1.05059e+06
1.05131e+06
1.04815e+06
1.05113e+06
1.05077e+06
1.04819e+06
1.05155e+06
1.0502e+06
1.04839e+06
1.05183e+06
1.04965e+06
1.0487e+06
1.05197e+06
1.04916e+06
1.04907e+06
1.05199e+06
1.04873e+06
1.04948e+06
1.05189e+06
1.0484e+06
1.0499e+06
1.05172e+06
1.04815e+06
1.05029e+06
1.05148e+06
1.04799e+06
1.05064e+06
1.05121e+06
1.04791e+06
1.05094e+06
1.05093e+06
1.04788e+06
1.05119e+06
1.05066e+06
1.04789e+06
1.05139e+06
1.05039e+06
1.04793e+06
1.05155e+06
1.05015e+06
1.048e+06
1.05167e+06
1.04992e+06
1.04808e+06
1.05175e+06
1.04972e+06
1.04816e+06
1.05179e+06
1.04956e+06
1.04825e+06
1.05181e+06
1.04942e+06
1.04832e+06
1.05182e+06
1.0493e+06
1.04839e+06
1.05182e+06
1.0492e+06
1.04844e+06
1.05181e+06
1.04912e+06
1.04848e+06
1.0518e+06
1.04907e+06
1.0485e+06
1.05177e+06
1.04903e+06
1.04851e+06
1.05175e+06
1.04902e+06
1.04849e+06
1.05174e+06
1.04903e+06
1.04844e+06
1.05173e+06
1.04906e+06
1.04837e+06
1.05171e+06
1.04911e+06
1.04829e+06
1.05168e+06
1.04919e+06
1.04818e+06
1.05164e+06
1.04932e+06
1.04806e+06
1.05157e+06
1.04948e+06
1.04793e+06
1.05147e+06
1.04967e+06
1.04781e+06
1.05135e+06
1.04987e+06
1.0477e+06
1.05118e+06
1.05009e+06
1.04762e+06
1.05097e+06
1.05033e+06
1.04757e+06
1.05072e+06
1.05057e+06
1.04755e+06
1.05045e+06
1.05081e+06
1.04757e+06
1.05013e+06
1.05104e+06
1.04764e+06
1.04978e+06
1.05123e+06
1.0478e+06
1.04938e+06
1.05139e+06
1.04803e+06
1.04895e+06
1.05148e+06
1.04833e+06
1.04855e+06
1.05149e+06
1.0487e+06
1.04818e+06
1.05138e+06
1.04912e+06
1.04788e+06
1.05115e+06
1.04959e+06
1.04767e+06
1.05082e+06
1.05004e+06
1.04755e+06
1.05042e+06
1.05046e+06
1.04756e+06
1.04996e+06
1.05079e+06
1.0477e+06
1.04945e+06
1.05103e+06
1.04798e+06
1.04891e+06
1.05117e+06
1.04837e+06
1.04838e+06
1.05117e+06
1.04885e+06
1.04794e+06
1.05099e+06
1.0494e+06
1.04764e+06
1.05062e+06
1.04998e+06
1.04751e+06
1.05007e+06
1.05051e+06
1.04758e+06
1.04943e+06
1.0509e+06
1.04788e+06
1.04876e+06
1.05106e+06
1.04839e+06
1.04816e+06
1.05095e+06
1.04905e+06
1.04771e+06
1.05059e+06
1.04974e+06
1.0475e+06
1.05004e+06
1.05031e+06
1.04758e+06
1.04935e+06
1.05069e+06
1.04795e+06
1.04863e+06
1.05082e+06
1.04852e+06
1.04803e+06
1.05066e+06
1.04918e+06
1.04767e+06
1.05024e+06
1.04981e+06
1.04758e+06
1.0496e+06
1.05034e+06
1.04779e+06
1.04887e+06
1.05063e+06
1.04825e+06
1.0482e+06
1.05059e+06
1.04891e+06
1.04772e+06
1.05021e+06
1.04964e+06
1.04753e+06
1.04956e+06
1.05025e+06
1.04771e+06
1.04877e+06
1.05056e+06
1.04826e+06
1.04803e+06
1.05046e+06
1.04905e+06
1.04755e+06
1.04994e+06
1.04984e+06
1.0475e+06
1.04914e+06
1.05035e+06
1.04793e+06
1.0483e+06
1.05041e+06
1.04869e+06
1.04769e+06
1.05003e+06
1.04948e+06
1.04752e+06
1.04931e+06
1.05005e+06
1.04783e+06
1.04851e+06
1.05022e+06
1.04846e+06
1.04788e+06
1.04998e+06
1.04918e+06
1.04761e+06
1.04939e+06
1.04977e+06
1.04778e+06
1.04864e+06
1.05007e+06
1.04829e+06
1.04796e+06
1.04994e+06
1.04899e+06
1.0476e+06
1.04939e+06
1.04967e+06
1.04769e+06
1.04859e+06
1.05004e+06
1.04825e+06
1.04784e+06
1.04987e+06
1.04906e+06
1.04751e+06
1.04917e+06
1.04976e+06
1.04776e+06
1.04829e+06
1.04996e+06
1.04846e+06
1.04767e+06
1.04955e+06
1.04926e+06
1.04758e+06
1.04877e+06
1.04974e+06
1.04802e+06
1.04803e+06
1.04967e+06
1.04872e+06
1.04766e+06
1.04915e+06
1.04934e+06
1.04776e+06
1.04845e+06
1.0496e+06
1.04825e+06
1.04788e+06
1.04939e+06
1.0489e+06
1.04766e+06
1.04881e+06
1.04941e+06
1.0479e+06
1.04813e+06
1.04949e+06
1.04851e+06
1.04767e+06
1.04906e+06
1.04916e+06
1.04769e+06
1.04836e+06
1.04946e+06
1.04821e+06
1.04775e+06
1.0492e+06
1.04891e+06
1.0476e+06
1.04853e+06
1.04936e+06
1.048e+06
1.04785e+06
1.04923e+06
1.0487e+06
1.04759e+06
1.04863e+06
1.0492e+06
1.04788e+06
1.04796e+06
1.04918e+06
1.0485e+06
1.04763e+06
1.04869e+06
1.04902e+06
1.0478e+06
1.04807e+06
1.04911e+06
1.04832e+06
1.04768e+06
1.04874e+06
1.04884e+06
1.04772e+06
1.04816e+06
1.04905e+06
1.04815e+06
1.04769e+06
1.04878e+06
1.04873e+06
1.04763e+06
1.04818e+06
1.04902e+06
1.04806e+06
1.04765e+06
1.04877e+06
1.04867e+06
1.04758e+06
1.04814e+06
1.04898e+06
1.04803e+06
1.0476e+06
1.0487e+06
1.04866e+06
1.04756e+06
1.04804e+06
1.04893e+06
1.04806e+06
1.04754e+06
1.04858e+06
1.04865e+06
1.0476e+06
1.04793e+06
1.04881e+06
1.0481e+06
1.04753e+06
1.04843e+06
1.0486e+06
1.04765e+06
1.04786e+06
1.04869e+06
1.04812e+06
1.04753e+06
1.04832e+06
1.04855e+06
1.04767e+06
1.04779e+06
1.0486e+06
1.04812e+06
1.0475e+06
1.04822e+06
1.04854e+06
1.04767e+06
1.04766e+06
1.04854e+06
1.04818e+06
1.04743e+06
1.04805e+06
1.04856e+06
1.04775e+06
1.0475e+06
1.04839e+06
1.0483e+06
1.04744e+06
1.04782e+06
1.0485e+06
1.0479e+06
1.04741e+06
1.04816e+06
1.04835e+06
1.04755e+06
1.04764e+06
1.04835e+06
1.04801e+06
1.04741e+06
1.04796e+06
1.04831e+06
1.04764e+06
1.04753e+06
1.0482e+06
1.04806e+06
1.04742e+06
1.04779e+06
1.04828e+06
1.04771e+06
1.04741e+06
1.04806e+06
1.04814e+06
1.04743e+06
1.04759e+06
1.04822e+06
1.04784e+06
1.04732e+06
1.04784e+06
1.0482e+06
1.04754e+06
1.04738e+06
1.04806e+06
1.048e+06
1.04733e+06
1.04757e+06
1.04816e+06
1.04772e+06
1.04726e+06
1.04781e+06
1.04808e+06
1.04746e+06
1.04734e+06
1.04798e+06
1.04788e+06
1.04728e+06
1.04753e+06
1.04803e+06
1.04763e+06
1.04724e+06
1.04774e+06
1.04794e+06
1.04739e+06
1.04733e+06
1.04787e+06
1.04776e+06
1.04724e+06
1.0475e+06
1.04791e+06
1.04752e+06
1.04721e+06
1.04767e+06
1.04784e+06
1.0473e+06
1.04728e+06
1.0478e+06
1.04768e+06
1.04716e+06
1.04741e+06
1.04785e+06
1.04747e+06
1.04711e+06
1.04755e+06
1.0478e+06
1.04729e+06
1.04715e+06
1.04767e+06
1.04767e+06
1.04715e+06
1.04725e+06
1.04772e+06
1.0475e+06
1.04708e+06
1.04738e+06
1.04769e+06
1.04732e+06
1.04709e+06
1.04749e+06
1.04759e+06
1.04716e+06
1.04716e+06
1.04756e+06
1.04745e+06
1.04706e+06
1.04727e+06
1.04758e+06
1.04727e+06
1.04702e+06
1.04737e+06
1.04754e+06
1.04711e+06
1.04703e+06
1.04747e+06
1.04746e+06
1.04699e+06
1.04707e+06
1.04752e+06
1.04734e+06
1.04691e+06
1.04713e+06
1.04751e+06
1.04722e+06
1.04688e+06
1.0472e+06
1.04745e+06
1.0471e+06
1.04691e+06
1.04725e+06
1.04736e+06
1.047e+06
1.04697e+06
1.04728e+06
1.04723e+06
1.04692e+06
1.04704e+06
1.04729e+06
1.04709e+06
1.04688e+06
1.04711e+06
1.04727e+06
1.04697e+06
1.04685e+06
1.04718e+06
1.04723e+06
1.04686e+06
1.04684e+06
1.04722e+06
1.04716e+06
1.04678e+06
1.04686e+06
1.04722e+06
1.04709e+06
1.04672e+06
1.04688e+06
1.0472e+06
1.04701e+06
1.0467e+06
1.0469e+06
1.04715e+06
1.04692e+06
1.04671e+06
1.04693e+06
1.04708e+06
1.04683e+06
1.04673e+06
1.04696e+06
1.04699e+06
1.04675e+06
1.04675e+06
1.04699e+06
1.04691e+06
1.04667e+06
1.04678e+06
1.047e+06
1.04683e+06
1.0466e+06
1.0468e+06
1.047e+06
1.04676e+06
1.04655e+06
1.0468e+06
1.04698e+06
1.0467e+06
1.04652e+06
1.04679e+06
1.04694e+06
1.04665e+06
1.04651e+06
1.04678e+06
1.04688e+06
1.04661e+06
1.04651e+06
1.04676e+06
1.04681e+06
1.04657e+06
1.04654e+06
1.04674e+06
1.04673e+06
1.04653e+06
1.04656e+06
1.04672e+06
1.04664e+06
1.04648e+06
1.04658e+06
1.04672e+06
1.04656e+06
1.04643e+06
1.04659e+06
1.04671e+06
1.0465e+06
1.04637e+06
1.04658e+06
1.0467e+06
1.04646e+06
1.04632e+06
1.04656e+06
1.04667e+06
1.04643e+06
1.0463e+06
1.04652e+06
1.04663e+06
1.04641e+06
1.04629e+06
1.04648e+06
1.04657e+06
1.04638e+06
1.04629e+06
1.04646e+06
1.0465e+06
1.04634e+06
1.04629e+06
1.04644e+06
1.04644e+06
1.04628e+06
1.0463e+06
1.04643e+06
1.04639e+06
1.04622e+06
1.04628e+06
1.04643e+06
1.04635e+06
1.04617e+06
1.04625e+06
1.04642e+06
1.04632e+06
1.04613e+06
1.0462e+06
1.0464e+06
1.0463e+06
1.0461e+06
1.04617e+06
1.04635e+06
1.04628e+06
1.04608e+06
1.04614e+06
1.04629e+06
1.04624e+06
1.04608e+06
1.04612e+06
1.04625e+06
1.04618e+06
1.04606e+06
1.04611e+06
1.04621e+06
1.04612e+06
1.04602e+06
1.04611e+06
1.04619e+06
1.04608e+06
1.04597e+06
1.04609e+06
1.04618e+06
1.04605e+06
1.04593e+06
1.04604e+06
1.04616e+06
1.04603e+06
1.04589e+06
1.04599e+06
1.04612e+06
1.04602e+06
1.04588e+06
1.04595e+06
1.04607e+06
1.046e+06
1.04587e+06
1.04592e+06
1.04602e+06
1.04596e+06
1.04585e+06
1.0459e+06
1.04598e+06
1.0459e+06
1.04582e+06
1.04589e+06
1.04596e+06
1.04586e+06
1.04577e+06
1.04586e+06
1.04594e+06
1.04584e+06
1.04572e+06
1.04581e+06
1.04592e+06
1.04583e+06
1.0457e+06
1.04575e+06
1.04588e+06
1.04582e+06
1.04568e+06
1.04571e+06
1.04582e+06
1.04579e+06
1.04567e+06
1.04568e+06
1.04577e+06
1.04575e+06
1.04565e+06
1.04566e+06
1.04574e+06
1.04571e+06
1.04561e+06
1.04563e+06
1.04571e+06
1.04568e+06
1.04558e+06
1.04559e+06
1.04569e+06
1.04565e+06
1.04554e+06
1.04554e+06
1.04565e+06
1.04564e+06
1.04551e+06
1.0455e+06
1.0456e+06
1.04562e+06
1.0455e+06
1.04545e+06
1.04555e+06
1.04559e+06
1.04549e+06
1.04543e+06
1.0455e+06
1.04554e+06
1.04547e+06
1.04541e+06
1.04546e+06
1.0455e+06
1.04543e+06
1.04538e+06
1.04542e+06
1.04547e+06
1.0454e+06
1.04534e+06
1.04539e+06
1.04544e+06
1.04537e+06
1.0453e+06
1.04535e+06
1.04541e+06
1.04536e+06
1.04526e+06
1.04529e+06
1.04537e+06
1.04534e+06
1.04524e+06
1.04524e+06
1.04532e+06
1.04532e+06
1.04523e+06
1.0452e+06
1.04527e+06
1.04529e+06
1.04521e+06
1.04517e+06
1.04522e+06
1.04525e+06
1.04518e+06
1.04514e+06
1.04519e+06
1.04521e+06
1.04515e+06
1.0451e+06
1.04515e+06
1.04518e+06
1.04512e+06
1.04506e+06
1.0451e+06
1.04515e+06
1.04511e+06
1.04503e+06
1.04505e+06
1.04512e+06
1.04509e+06
1.04501e+06
1.045e+06
1.04507e+06
1.04507e+06
1.04499e+06
1.04496e+06
1.04501e+06
1.04504e+06
1.04497e+06
1.04493e+06
1.04497e+06
1.04499e+06
1.04495e+06
1.0449e+06
1.04492e+06
1.04495e+06
1.04492e+06
1.04487e+06
1.04488e+06
1.04492e+06
1.04489e+06
1.04483e+06
1.04484e+06
1.04489e+06
1.04486e+06
1.0448e+06
1.04479e+06
1.04485e+06
1.04485e+06
1.04477e+06
1.04474e+06
1.04479e+06
1.04482e+06
1.04476e+06
1.04471e+06
1.04473e+06
1.04478e+06
1.04475e+06
1.04468e+06
1.04469e+06
1.04472e+06
1.04472e+06
1.04466e+06
1.04465e+06
1.04468e+06
1.04468e+06
1.04463e+06
1.04462e+06
1.04465e+06
1.04464e+06
1.0446e+06
1.04457e+06
1.04461e+06
1.04462e+06
1.04457e+06
1.04453e+06
1.04455e+06
1.04459e+06
1.04456e+06
1.0445e+06
1.04449e+06
1.04454e+06
1.04454e+06
1.04448e+06
1.04445e+06
1.04448e+06
1.04451e+06
1.04447e+06
1.04443e+06
1.04443e+06
1.04446e+06
1.04443e+06
1.0444e+06
1.0444e+06
1.04442e+06
1.0444e+06
1.04436e+06
1.04437e+06
1.04439e+06
1.04437e+06
1.04432e+06
1.04431e+06
1.04435e+06
1.04435e+06
1.0443e+06
1.04426e+06
1.04429e+06
1.04432e+06
1.04429e+06
1.04423e+06
1.04423e+06
1.04427e+06
1.04427e+06
1.04422e+06
1.04419e+06
1.04421e+06
1.04422e+06
1.04419e+06
1.04417e+06
1.04417e+06
1.04418e+06
1.04415e+06
1.04413e+06
1.04414e+06
1.04415e+06
1.04412e+06
1.04408e+06
1.04409e+06
1.04412e+06
1.04411e+06
1.04405e+06
1.04403e+06
1.04406e+06
1.04408e+06
1.04405e+06
1.04399e+06
1.04399e+06
1.04403e+06
1.04403e+06
1.04398e+06
1.04396e+06
1.04397e+06
1.04398e+06
1.04396e+06
1.04394e+06
1.04393e+06
1.04393e+06
1.04391e+06
1.04389e+06
1.0439e+06
1.04391e+06
1.04388e+06
1.04384e+06
1.04385e+06
1.04388e+06
1.04387e+06
1.04382e+06
1.04378e+06
1.04381e+06
1.04384e+06
1.04381e+06
1.04376e+06
1.04375e+06
1.04377e+06
1.04378e+06
1.04375e+06
1.04372e+06
1.04372e+06
1.04372e+06
1.04371e+06
1.0437e+06
1.04369e+06
1.04369e+06
1.04366e+06
1.04365e+06
1.04365e+06
1.04367e+06
1.04364e+06
1.0436e+06
1.04359e+06
1.04362e+06
1.04363e+06
1.04359e+06
1.04355e+06
1.04355e+06
1.04358e+06
1.04357e+06
1.04353e+06
1.0435e+06
1.04351e+06
1.04353e+06
1.04351e+06
1.04348e+06
1.04347e+06
1.04347e+06
1.04346e+06
1.04345e+06
1.04345e+06
1.04344e+06
1.04342e+06
1.0434e+06
1.0434e+06
1.04341e+06
1.04341e+06
1.04337e+06
1.04334e+06
1.04335e+06
1.04337e+06
1.04336e+06
1.04331e+06
1.04329e+06
1.0433e+06
1.04332e+06
1.0433e+06
1.04327e+06
1.04325e+06
1.04326e+06
1.04326e+06
1.04324e+06
1.04323e+06
1.04322e+06
1.04321e+06
1.04319e+06
1.04319e+06
1.04319e+06
1.04319e+06
1.04316e+06
1.04313e+06
1.04314e+06
1.04315e+06
1.04314e+06
1.0431e+06
1.04308e+06
1.04309e+06
1.0431e+06
1.04309e+06
1.04305e+06
1.04304e+06
1.04304e+06
1.04305e+06
1.04303e+06
1.04301e+06
1.043e+06
1.043e+06
1.04299e+06
1.04297e+06
1.04297e+06
1.04296e+06
1.04295e+06
1.04292e+06
1.04292e+06
1.04293e+06
1.04292e+06
1.04289e+06
1.04287e+06
1.04287e+06
1.04288e+06
1.04287e+06
1.04284e+06
1.04282e+06
1.04282e+06
1.04283e+06
1.04281e+06
1.04279e+06
1.04278e+06
1.04278e+06
1.04277e+06
1.04275e+06
1.04274e+06
1.04274e+06
1.04273e+06
1.04271e+06
1.0427e+06
1.0427e+06
1.0427e+06
1.04268e+06
1.04265e+06
1.04264e+06
1.04265e+06
1.04265e+06
1.04263e+06
1.0426e+06
1.0426e+06
1.0426e+06
1.0426e+06
1.04257e+06
1.04256e+06
1.04255e+06
1.04255e+06
1.04254e+06
1.04252e+06
1.04251e+06
1.04251e+06
1.0425e+06
1.04248e+06
1.04247e+06
1.04247e+06
1.04246e+06
1.04244e+06
1.04242e+06
1.04241e+06
1.04242e+06
1.04241e+06
1.04239e+06
1.04237e+06
1.04236e+06
1.04237e+06
1.04236e+06
1.04234e+06
1.04232e+06
1.04232e+06
1.04231e+06
1.0423e+06
1.04228e+06
1.04228e+06
1.04228e+06
1.04226e+06
1.04224e+06
1.04223e+06
1.04223e+06
1.04223e+06
1.04221e+06
1.04219e+06
1.04218e+06
1.04218e+06
1.04217e+06
1.04215e+06
1.04214e+06
1.04213e+06
1.04213e+06
1.04211e+06
1.0421e+06
1.04209e+06
1.04209e+06
1.04207e+06
1.04205e+06
1.04204e+06
1.04204e+06
1.04204e+06
1.04202e+06
1.042e+06
1.04199e+06
1.04199e+06
1.04198e+06
1.04197e+06
1.04195e+06
1.04194e+06
1.04193e+06
1.04193e+06
1.04191e+06
1.0419e+06
1.04189e+06
1.04188e+06
1.04187e+06
1.04185e+06
1.04185e+06
1.04185e+06
1.04183e+06
1.04181e+06
1.0418e+06
1.04179e+06
1.04179e+06
1.04178e+06
1.04176e+06
1.04174e+06
1.04174e+06
1.04174e+06
1.04173e+06
1.04171e+06
1.0417e+06
1.04169e+06
1.04168e+06
1.04167e+06
1.04166e+06
1.04165e+06
1.04164e+06
1.04162e+06
1.0416e+06
1.0416e+06
1.0416e+06
1.04159e+06
1.04157e+06
1.04155e+06
1.04154e+06
1.04154e+06
1.04154e+06
1.04152e+06
1.0415e+06
1.04149e+06
1.04148e+06
1.04148e+06
1.04147e+06
1.04145e+06
1.04144e+06
1.04143e+06
1.04141e+06
1.04141e+06
1.0414e+06
1.0414e+06
1.04138e+06
1.04136e+06
1.04134e+06
1.04135e+06
1.04135e+06
1.04133e+06
1.04131e+06
1.04129e+06
1.04128e+06
1.04128e+06
1.04128e+06
1.04126e+06
1.04124e+06
1.04123e+06
1.04122e+06
1.04121e+06
1.04121e+06
1.0412e+06
1.04118e+06
1.04116e+06
1.04115e+06
1.04115e+06
1.04114e+06
1.04113e+06
1.04111e+06
1.04109e+06
1.04108e+06
1.04108e+06
1.04108e+06
1.04106e+06
1.04104e+06
1.04103e+06
1.04102e+06
1.04102e+06
1.04101e+06
1.04099e+06
1.04098e+06
1.04096e+06
1.04095e+06
1.04095e+06
1.04094e+06
1.04093e+06
1.04091e+06
1.0409e+06
1.04088e+06
1.04088e+06
1.04088e+06
1.04087e+06
1.04084e+06
1.04082e+06
1.04082e+06
1.04081e+06
1.04081e+06
1.04079e+06
1.04077e+06
1.04076e+06
1.04075e+06
1.04075e+06
1.04074e+06
1.04073e+06
1.04071e+06
1.0407e+06
1.04068e+06
1.04067e+06
1.04067e+06
1.04066e+06
1.04065e+06
1.04062e+06
1.04061e+06
1.04061e+06
1.04061e+06
1.04059e+06
1.04057e+06
1.04055e+06
1.04054e+06
1.04054e+06
1.04053e+06
1.04052e+06
1.0405e+06
1.04049e+06
1.04048e+06
1.04047e+06
1.04046e+06
1.04045e+06
1.04044e+06
1.04042e+06
1.04041e+06
1.0404e+06
1.04039e+06
1.04039e+06
1.04037e+06
1.04035e+06
1.04034e+06
1.04033e+06
1.04033e+06
1.04032e+06
1.0403e+06
1.04028e+06
1.04027e+06
1.04026e+06
1.04025e+06
1.04024e+06
1.04023e+06
1.04022e+06
1.0402e+06
1.04019e+06
1.04018e+06
1.04017e+06
1.04016e+06
1.04015e+06
1.04013e+06
1.04012e+06
1.04011e+06
1.0401e+06
1.0401e+06
1.04008e+06
1.04006e+06
1.04005e+06
1.04004e+06
1.04003e+06
1.04002e+06
1.04001e+06
1.03999e+06
1.03998e+06
1.03997e+06
1.03996e+06
1.03995e+06
1.03994e+06
1.03993e+06
1.03991e+06
1.0399e+06
1.03988e+06
1.03988e+06
1.03987e+06
1.03985e+06
1.03984e+06
1.03982e+06
1.03982e+06
1.03981e+06
1.0398e+06
1.03978e+06
1.03977e+06
1.03975e+06
1.03975e+06
1.03973e+06
1.03972e+06
1.03971e+06
1.0397e+06
1.03969e+06
1.03967e+06
1.03966e+06
1.03965e+06
1.03964e+06
1.03963e+06
1.03961e+06
1.0396e+06
1.03959e+06
1.03958e+06
1.03957e+06
1.03955e+06
1.03954e+06
1.03953e+06
1.03952e+06
1.03951e+06
1.03949e+06
1.03948e+06
1.03947e+06
1.03945e+06
1.03944e+06
1.03943e+06
1.03942e+06
1.03941e+06
1.03939e+06
1.03938e+06
1.03937e+06
1.03936e+06
1.03935e+06
1.03934e+06
1.03932e+06
1.03931e+06
1.03929e+06
1.03929e+06
1.03928e+06
1.03927e+06
1.03925e+06
1.03923e+06
1.03922e+06
1.03921e+06
1.0392e+06
1.03919e+06
1.03918e+06
1.03916e+06
1.03915e+06
1.03913e+06
1.03912e+06
1.03912e+06
1.03911e+06
1.03909e+06
1.03907e+06
1.03906e+06
1.03905e+06
1.03904e+06
1.03903e+06
1.03902e+06
1.039e+06
1.03899e+06
1.03897e+06
1.03896e+06
1.03895e+06
1.03894e+06
1.03893e+06
1.03891e+06
1.0389e+06
1.03888e+06
1.03888e+06
1.03887e+06
1.03886e+06
1.03884e+06