/*--------------------------------*- C++ -*----------------------------------*\
  =========                 |
  \\      /  F ield         | OpenFOAM: The Open Source CFD Toolbox
   \\    /   O peration     | Website:  https://openfoam.org
    \\  /    A nd           | Version:  9
     \\/     M anipulation  |
\*---------------------------------------------------------------------------*/
FoamFile
{
    format      ascii;
    class       volVectorField;
    location    "0.031";
    object      ddt0(rho,U);
}
// * * * * * * * * * * * * * * * * * * * * * * * * * * * * * * * * * * * * * //

dimensions      [1 -2 -2 0 0 0 0];

internalField   nonuniform List<vector> 
10000
(
(-0.305211 0 0)
(-1.70239 0 0)
(-2.86211 0 0)
(-3.82819 0 0)
(-4.7837 0 0)
(-5.77287 0 0)
(-6.77511 0 0)
(-7.77438 0 0)
(-8.7695 0 0)
(-9.76476 0 0)
(-10.7621 0 0)
(-11.7598 0 0)
(-12.7558 0 0)
(-13.7504 0 0)
(-14.7461 0 0)
(-15.7439 0 0)
(-16.7426 0 0)
(-17.7396 0 0)
(-18.7342 0 0)
(-19.728 0 0)
(-20.7234 0 0)
(-21.7214 0 0)
(-22.7203 0 0)
(-23.7169 0 0)
(-24.7101 0 0)
(-25.7012 0 0)
(-26.6934 0 0)
(-27.6893 0 0)
(-28.6891 0 0)
(-29.6903 0 0)
(-30.6888 0 0)
(-31.6822 0 0)
(-32.6707 0 0)
(-33.6583 0 0)
(-34.6501 0 0)
(-35.6487 0 0)
(-36.6522 0 0)
(-37.6562 0 0)
(-38.6561 0 0)
(-39.6491 0 0)
(-40.6354 0 0)
(-41.6186 0 0)
(-42.6041 0 0)
(-43.5962 0 0)
(-44.596 0 0)
(-45.6019 0 0)
(-46.6101 0 0)
(-47.6156 0 0)
(-48.6146 0 0)
(-49.606 0 0)
(-50.5904 0 0)
(-51.5703 0 0)
(-52.5499 0 0)
(-53.5336 0 0)
(-54.5256 0 0)
(-55.5278 0 0)
(-56.538 0 0)
(-57.5514 0 0)
(-58.5639 0 0)
(-59.5727 0 0)
(-60.575 0 0)
(-61.5681 0 0)
(-62.5518 0 0)
(-63.5286 0 0)
(-64.5009 0 0)
(-65.4708 0 0)
(-66.4425 0 0)
(-67.4195 0 0)
(-68.4032 0 0)
(-69.3954 0 0)
(-70.3971 0 0)
(-71.4072 0 0)
(-72.4253 0 0)
(-73.4503 0 0)
(-74.4798 0 0)
(-75.5126 0 0)
(-76.5466 0 0)
(-77.5802 0 0)
(-78.6127 0 0)
(-79.6445 0 0)
(-80.6756 0 0)
(-81.7013 0 0)
(-82.7174 0 0)
(-83.7273 0 0)
(-84.7359 0 0)
(-85.7388 0 0)
(-86.7367 0 0)
(-87.7357 0 0)
(-88.7356 0 0)
(-89.7399 0 0)
(-90.7592 0 0)
(-91.789 0 0)
(-92.7832 0 0)
(-93.7787 0 0)
(-94.7778 0 0)
(-95.7735 0 0)
(-96.7716 0 0)
(-97.7697 0 0)
(-98.764 0 0)
(-99.7622 0 0)
(-100.762 0 0)
(-101.759 0 0)
(-102.752 0 0)
(-103.747 0 0)
(-104.745 0 0)
(-105.744 0 0)
(-106.743 0 0)
(-107.741 0 0)
(-108.738 0 0)
(-109.735 0 0)
(-110.733 0 0)
(-111.73 0 0)
(-112.728 0 0)
(-113.726 0 0)
(-114.724 0 0)
(-115.722 0 0)
(-116.72 0 0)
(-117.717 0 0)
(-118.715 0 0)
(-119.713 0 0)
(-120.71 0 0)
(-121.707 0 0)
(-122.704 0 0)
(-123.702 0 0)
(-124.699 0 0)
(-125.696 0 0)
(-126.693 0 0)
(-127.69 0 0)
(-128.688 0 0)
(-129.687 0 0)
(-130.684 0 0)
(-131.681 0 0)
(-132.677 0 0)
(-133.673 0 0)
(-134.669 0 0)
(-135.666 0 0)
(-136.664 0 0)
(-137.662 0 0)
(-138.66 0 0)
(-139.658 0 0)
(-140.655 0 0)
(-141.652 0 0)
(-142.65 0 0)
(-143.647 0 0)
(-144.644 0 0)
(-145.641 0 0)
(-146.639 0 0)
(-147.636 0 0)
(-148.634 0 0)
(-149.632 0 0)
(-150.629 0 0)
(-151.626 0 0)
(-152.624 0 0)
(-153.622 0 0)
(-154.619 0 0)
(-155.616 0 0)
(-156.613 0 0)
(-157.61 0 0)
(-158.607 0 0)
(-159.605 0 0)
(-160.603 0 0)
(-161.6 0 0)
(-162.596 0 0)
(-163.593 0 0)
(-164.589 0 0)
(-165.585 0 0)
(-166.582 0 0)
(-167.579 0 0)
(-168.576 0 0)
(-169.574 0 0)
(-170.571 0 0)
(-171.569 0 0)
(-172.566 0 0)
(-173.563 0 0)
(-174.561 0 0)
(-175.558 0 0)
(-176.555 0 0)
(-177.552 0 0)
(-178.549 0 0)
(-179.546 0 0)
(-180.543 0 0)
(-181.54 0 0)
(-182.537 0 0)
(-183.535 0 0)
(-184.532 0 0)
(-185.53 0 0)
(-186.527 0 0)
(-187.524 0 0)
(-188.521 0 0)
(-189.518 0 0)
(-190.516 0 0)
(-191.513 0 0)
(-192.51 0 0)
(-193.507 0 0)
(-194.503 0 0)
(-195.499 0 0)
(-196.495 0 0)
(-197.492 0 0)
(-198.488 0 0)
(-199.485 0 0)
(-200.482 0 0)
(-201.479 0 0)
(-202.476 0 0)
(-203.473 0 0)
(-204.471 0 0)
(-205.468 0 0)
(-206.465 0 0)
(-207.462 0 0)
(-208.459 0 0)
(-209.456 0 0)
(-210.453 0 0)
(-211.449 0 0)
(-212.446 0 0)
(-213.443 0 0)
(-214.44 0 0)
(-215.437 0 0)
(-216.434 0 0)
(-217.43 0 0)
(-218.427 0 0)
(-219.424 0 0)
(-220.422 0 0)
(-221.419 0 0)
(-222.416 0 0)
(-223.414 0 0)
(-224.411 0 0)
(-225.407 0 0)
(-226.404 0 0)
(-227.4 0 0)
(-228.396 0 0)
(-229.392 0 0)
(-230.388 0 0)
(-231.385 0 0)
(-232.382 0 0)
(-233.378 0 0)
(-234.375 0 0)
(-235.372 0 0)
(-236.369 0 0)
(-237.366 0 0)
(-238.362 0 0)
(-239.359 0 0)
(-240.356 0 0)
(-241.353 0 0)
(-242.349 0 0)
(-243.346 0 0)
(-244.343 0 0)
(-245.34 0 0)
(-246.336 0 0)
(-247.333 0 0)
(-248.329 0 0)
(-249.326 0 0)
(-250.322 0 0)
(-251.319 0 0)
(-252.315 0 0)
(-253.312 0 0)
(-254.309 0 0)
(-255.306 0 0)
(-256.303 0 0)
(-257.3 0 0)
(-258.297 0 0)
(-259.293 0 0)
(-260.289 0 0)
(-261.286 0 0)
(-262.282 0 0)
(-263.278 0 0)
(-264.274 0 0)
(-265.271 0 0)
(-266.267 0 0)
(-267.264 0 0)
(-268.26 0 0)
(-269.257 0 0)
(-270.253 0 0)
(-271.25 0 0)
(-272.246 0 0)
(-273.243 0 0)
(-274.239 0 0)
(-275.236 0 0)
(-276.232 0 0)
(-277.229 0 0)
(-278.225 0 0)
(-279.222 0 0)
(-280.218 0 0)
(-281.214 0 0)
(-282.211 0 0)
(-283.207 0 0)
(-284.203 0 0)
(-285.2 0 0)
(-286.196 0 0)
(-287.193 0 0)
(-288.189 0 0)
(-289.186 0 0)
(-290.182 0 0)
(-291.178 0 0)
(-292.175 0 0)
(-293.171 0 0)
(-294.167 0 0)
(-295.163 0 0)
(-296.159 0 0)
(-297.156 0 0)
(-298.152 0 0)
(-299.148 0 0)
(-300.144 0 0)
(-301.141 0 0)
(-302.137 0 0)
(-303.133 0 0)
(-304.13 0 0)
(-305.126 0 0)
(-306.122 0 0)
(-307.118 0 0)
(-308.114 0 0)
(-309.111 0 0)
(-310.107 0 0)
(-311.103 0 0)
(-312.099 0 0)
(-313.095 0 0)
(-314.091 0 0)
(-315.088 0 0)
(-316.084 0 0)
(-317.08 0 0)
(-318.076 0 0)
(-319.072 0 0)
(-320.068 0 0)
(-321.065 0 0)
(-322.061 0 0)
(-323.057 0 0)
(-324.053 0 0)
(-325.048 0 0)
(-326.044 0 0)
(-327.04 0 0)
(-328.036 0 0)
(-329.032 0 0)
(-330.028 0 0)
(-331.024 0 0)
(-332.02 0 0)
(-333.017 0 0)
(-334.013 0 0)
(-335.009 0 0)
(-336.005 0 0)
(-337.001 0 0)
(-337.997 0 0)
(-338.993 0 0)
(-339.989 0 0)
(-340.985 0 0)
(-341.981 0 0)
(-342.977 0 0)
(-343.973 0 0)
(-344.969 0 0)
(-345.964 0 0)
(-346.96 0 0)
(-347.956 0 0)
(-348.952 0 0)
(-349.948 0 0)
(-350.944 0 0)
(-351.94 0 0)
(-352.936 0 0)
(-353.932 0 0)
(-354.927 0 0)
(-355.923 0 0)
(-356.919 0 0)
(-357.915 0 0)
(-358.91 0 0)
(-359.906 0 0)
(-360.901 0 0)
(-361.897 0 0)
(-362.892 0 0)
(-363.888 0 0)
(-364.884 0 0)
(-365.88 0 0)
(-366.875 0 0)
(-367.871 0 0)
(-368.867 0 0)
(-369.863 0 0)
(-370.859 0 0)
(-371.855 0 0)
(-372.851 0 0)
(-373.847 0 0)
(-374.842 0 0)
(-375.838 0 0)
(-376.834 0 0)
(-377.829 0 0)
(-378.825 0 0)
(-379.821 0 0)
(-380.816 0 0)
(-381.812 0 0)
(-382.807 0 0)
(-383.803 0 0)
(-384.798 0 0)
(-385.794 0 0)
(-386.79 0 0)
(-387.785 0 0)
(-388.781 0 0)
(-389.776 0 0)
(-390.772 0 0)
(-391.767 0 0)
(-392.763 0 0)
(-393.758 0 0)
(-394.753 0 0)
(-395.748 0 0)
(-396.744 0 0)
(-397.739 0 0)
(-398.734 0 0)
(-399.73 0 0)
(-400.725 0 0)
(-401.721 0 0)
(-402.716 0 0)
(-403.712 0 0)
(-404.707 0 0)
(-405.703 0 0)
(-406.699 0 0)
(-407.694 0 0)
(-408.69 0 0)
(-409.685 0 0)
(-410.681 0 0)
(-411.676 0 0)
(-412.672 0 0)
(-413.667 0 0)
(-414.662 0 0)
(-415.658 0 0)
(-416.653 0 0)
(-417.648 0 0)
(-418.643 0 0)
(-419.639 0 0)
(-420.634 0 0)
(-421.629 0 0)
(-422.624 0 0)
(-423.62 0 0)
(-424.615 0 0)
(-425.61 0 0)
(-426.605 0 0)
(-427.6 0 0)
(-428.595 0 0)
(-429.59 0 0)
(-430.585 0 0)
(-431.58 0 0)
(-432.575 0 0)
(-433.57 0 0)
(-434.565 0 0)
(-435.56 0 0)
(-436.555 0 0)
(-437.55 0 0)
(-438.546 0 0)
(-439.541 0 0)
(-440.536 0 0)
(-441.531 0 0)
(-442.527 0 0)
(-443.522 0 0)
(-444.517 0 0)
(-445.513 0 0)
(-446.508 0 0)
(-447.503 0 0)
(-448.498 0 0)
(-449.493 0 0)
(-450.488 0 0)
(-451.483 0 0)
(-452.478 0 0)
(-453.473 0 0)
(-454.468 0 0)
(-455.463 0 0)
(-456.458 0 0)
(-457.453 0 0)
(-458.448 0 0)
(-459.443 0 0)
(-460.438 0 0)
(-461.432 0 0)
(-462.427 0 0)
(-463.422 0 0)
(-464.417 0 0)
(-465.411 0 0)
(-466.406 0 0)
(-467.401 0 0)
(-468.395 0 0)
(-469.39 0 0)
(-470.385 0 0)
(-471.379 0 0)
(-472.374 0 0)
(-473.369 0 0)
(-474.364 0 0)
(-475.358 0 0)
(-476.353 0 0)
(-477.348 0 0)
(-478.343 0 0)
(-479.338 0 0)
(-480.333 0 0)
(-481.328 0 0)
(-482.323 0 0)
(-483.318 0 0)
(-484.312 0 0)
(-485.307 0 0)
(-486.302 0 0)
(-487.297 0 0)
(-488.291 0 0)
(-489.286 0 0)
(-490.281 0 0)
(-491.276 0 0)
(-492.27 0 0)
(-493.265 0 0)
(-494.259 0 0)
(-495.254 0 0)
(-496.248 0 0)
(-497.243 0 0)
(-498.237 0 0)
(-499.232 0 0)
(-500.226 0 0)
(-501.22 0 0)
(-502.215 0 0)
(-503.209 0 0)
(-504.203 0 0)
(-505.198 0 0)
(-506.192 0 0)
(-507.186 0 0)
(-508.181 0 0)
(-509.175 0 0)
(-510.17 0 0)
(-511.164 0 0)
(-512.159 0 0)
(-513.153 0 0)
(-514.147 0 0)
(-515.142 0 0)
(-516.136 0 0)
(-517.131 0 0)
(-518.125 0 0)
(-519.12 0 0)
(-520.114 0 0)
(-521.109 0 0)
(-522.103 0 0)
(-523.098 0 0)
(-524.092 0 0)
(-525.087 0 0)
(-526.081 0 0)
(-527.075 0 0)
(-528.07 0 0)
(-529.064 0 0)
(-530.058 0 0)
(-531.053 0 0)
(-532.047 0 0)
(-533.041 0 0)
(-534.035 0 0)
(-535.029 0 0)
(-536.023 0 0)
(-537.017 0 0)
(-538.011 0 0)
(-539.005 0 0)
(-539.999 0 0)
(-540.993 0 0)
(-541.987 0 0)
(-542.981 0 0)
(-543.975 0 0)
(-544.969 0 0)
(-545.963 0 0)
(-546.957 0 0)
(-547.951 0 0)
(-548.945 0 0)
(-549.939 0 0)
(-550.933 0 0)
(-551.927 0 0)
(-552.921 0 0)
(-553.915 0 0)
(-554.91 0 0)
(-555.904 0 0)
(-556.898 0 0)
(-557.892 0 0)
(-558.886 0 0)
(-559.88 0 0)
(-560.874 0 0)
(-561.868 0 0)
(-562.862 0 0)
(-563.856 0 0)
(-564.85 0 0)
(-565.844 0 0)
(-566.838 0 0)
(-567.832 0 0)
(-568.826 0 0)
(-569.819 0 0)
(-570.813 0 0)
(-571.807 0 0)
(-572.8 0 0)
(-573.794 0 0)
(-574.788 0 0)
(-575.781 0 0)
(-576.775 0 0)
(-577.769 0 0)
(-578.762 0 0)
(-579.756 0 0)
(-580.75 0 0)
(-581.743 0 0)
(-582.737 0 0)
(-583.731 0 0)
(-584.724 0 0)
(-585.718 0 0)
(-586.712 0 0)
(-587.705 0 0)
(-588.699 0 0)
(-589.693 0 0)
(-590.686 0 0)
(-591.68 0 0)
(-592.673 0 0)
(-593.667 0 0)
(-594.661 0 0)
(-595.654 0 0)
(-596.648 0 0)
(-597.642 0 0)
(-598.635 0 0)
(-599.629 0 0)
(-600.622 0 0)
(-601.616 0 0)
(-602.61 0 0)
(-603.603 0 0)
(-604.597 0 0)
(-605.59 0 0)
(-606.584 0 0)
(-607.577 0 0)
(-608.57 0 0)
(-609.564 0 0)
(-610.557 0 0)
(-611.55 0 0)
(-612.544 0 0)
(-613.537 0 0)
(-614.53 0 0)
(-615.523 0 0)
(-616.516 0 0)
(-617.51 0 0)
(-618.503 0 0)
(-619.496 0 0)
(-620.49 0 0)
(-621.483 0 0)
(-622.476 0 0)
(-623.469 0 0)
(-624.463 0 0)
(-625.456 0 0)
(-626.449 0 0)
(-627.442 0 0)
(-628.436 0 0)
(-629.429 0 0)
(-630.422 0 0)
(-631.415 0 0)
(-632.408 0 0)
(-633.401 0 0)
(-634.395 0 0)
(-635.388 0 0)
(-636.381 0 0)
(-637.374 0 0)
(-638.367 0 0)
(-639.36 0 0)
(-640.354 0 0)
(-641.347 0 0)
(-642.34 0 0)
(-643.333 0 0)
(-644.326 0 0)
(-645.319 0 0)
(-646.312 0 0)
(-647.305 0 0)
(-648.298 0 0)
(-649.291 0 0)
(-650.284 0 0)
(-651.276 0 0)
(-652.269 0 0)
(-653.262 0 0)
(-654.255 0 0)
(-655.248 0 0)
(-656.241 0 0)
(-657.234 0 0)
(-658.226 0 0)
(-659.219 0 0)
(-660.212 0 0)
(-661.205 0 0)
(-662.198 0 0)
(-663.191 0 0)
(-664.183 0 0)
(-665.176 0 0)
(-666.169 0 0)
(-667.162 0 0)
(-668.154 0 0)
(-669.147 0 0)
(-670.14 0 0)
(-671.133 0 0)
(-672.125 0 0)
(-673.118 0 0)
(-674.111 0 0)
(-675.103 0 0)
(-676.096 0 0)
(-677.089 0 0)
(-678.081 0 0)
(-679.074 0 0)
(-680.067 0 0)
(-681.059 0 0)
(-682.052 0 0)
(-683.045 0 0)
(-684.037 0 0)
(-685.03 0 0)
(-686.022 0 0)
(-687.015 0 0)
(-688.007 0 0)
(-689 0 0)
(-689.992 0 0)
(-690.985 0 0)
(-691.977 0 0)
(-692.969 0 0)
(-693.962 0 0)
(-694.954 0 0)
(-695.947 0 0)
(-696.939 0 0)
(-697.931 0 0)
(-698.924 0 0)
(-699.916 0 0)
(-700.909 0 0)
(-701.901 0 0)
(-702.893 0 0)
(-703.886 0 0)
(-704.878 0 0)
(-705.87 0 0)
(-706.862 0 0)
(-707.855 0 0)
(-708.847 0 0)
(-709.839 0 0)
(-710.832 0 0)
(-711.824 0 0)
(-712.816 0 0)
(-713.808 0 0)
(-714.8 0 0)
(-715.793 0 0)
(-716.785 0 0)
(-717.777 0 0)
(-718.769 0 0)
(-719.761 0 0)
(-720.753 0 0)
(-721.745 0 0)
(-722.737 0 0)
(-723.729 0 0)
(-724.721 0 0)
(-725.714 0 0)
(-726.706 0 0)
(-727.698 0 0)
(-728.69 0 0)
(-729.682 0 0)
(-730.674 0 0)
(-731.666 0 0)
(-732.658 0 0)
(-733.65 0 0)
(-734.642 0 0)
(-735.634 0 0)
(-736.626 0 0)
(-737.617 0 0)
(-738.609 0 0)
(-739.601 0 0)
(-740.593 0 0)
(-741.585 0 0)
(-742.577 0 0)
(-743.569 0 0)
(-744.561 0 0)
(-745.552 0 0)
(-746.544 0 0)
(-747.536 0 0)
(-748.528 0 0)
(-749.52 0 0)
(-750.511 0 0)
(-751.503 0 0)
(-752.495 0 0)
(-753.486 0 0)
(-754.478 0 0)
(-755.47 0 0)
(-756.461 0 0)
(-757.453 0 0)
(-758.445 0 0)
(-759.436 0 0)
(-760.428 0 0)
(-761.419 0 0)
(-762.411 0 0)
(-763.402 0 0)
(-764.394 0 0)
(-765.385 0 0)
(-766.377 0 0)
(-767.369 0 0)
(-768.36 0 0)
(-769.352 0 0)
(-770.343 0 0)
(-771.335 0 0)
(-772.326 0 0)
(-773.318 0 0)
(-774.309 0 0)
(-775.301 0 0)
(-776.292 0 0)
(-777.284 0 0)
(-778.275 0 0)
(-779.267 0 0)
(-780.258 0 0)
(-781.249 0 0)
(-782.241 0 0)
(-783.232 0 0)
(-784.223 0 0)
(-785.215 0 0)
(-786.206 0 0)
(-787.197 0 0)
(-788.189 0 0)
(-789.18 0 0)
(-790.171 0 0)
(-791.162 0 0)
(-792.153 0 0)
(-793.144 0 0)
(-794.136 0 0)
(-795.127 0 0)
(-796.118 0 0)
(-797.109 0 0)
(-798.101 0 0)
(-799.092 0 0)
(-800.082 0 0)
(-801.073 0 0)
(-802.064 0 0)
(-803.055 0 0)
(-804.046 0 0)
(-805.037 0 0)
(-806.029 0 0)
(-807.02 0 0)
(-808.011 0 0)
(-809.002 0 0)
(-809.993 0 0)
(-810.983 0 0)
(-811.974 0 0)
(-812.965 0 0)
(-813.956 0 0)
(-814.948 0 0)
(-815.939 0 0)
(-816.93 0 0)
(-817.921 0 0)
(-818.912 0 0)
(-819.902 0 0)
(-820.893 0 0)
(-821.883 0 0)
(-822.874 0 0)
(-823.865 0 0)
(-824.856 0 0)
(-825.848 0 0)
(-826.839 0 0)
(-827.829 0 0)
(-828.82 0 0)
(-829.81 0 0)
(-830.801 0 0)
(-831.79 0 0)
(-832.782 0 0)
(-833.772 0 0)
(-834.765 0 0)
(-835.754 0 0)
(-836.747 0 0)
(-837.734 0 0)
(-838.729 0 0)
(-839.713 0 0)
(-840.711 0 0)
(-841.69 0 0)
(-842.693 0 0)
(-843.668 0 0)
(-844.68 0 0)
(-845.648 0 0)
(-846.666 0 0)
(-847.624 0 0)
(-848.65 0 0)
(-849.601 0 0)
(-850.632 0 0)
(-851.579 0 0)
(-852.609 0 0)
(-853.565 0 0)
(-854.587 0 0)
(-855.56 0 0)
(-856.549 0 0)
(-857.55 0 0)
(-858.536 0 0)
(-859.527 0 0)
(-860.519 0 0)
(-861.505 0 0)
(-862.492 0 0)
(-863.484 0 0)
(-864.476 0 0)
(-865.468 0 0)
(-866.456 0 0)
(-867.447 0 0)
(-868.437 0 0)
(-869.429 0 0)
(-870.415 0 0)
(-871.415 0 0)
(-872.385 0 0)
(-873.41 0 0)
(-874.348 0 0)
(-875.411 0 0)
(-876.31 0 0)
(-877.408 0 0)
(-878.277 0 0)
(-879.391 0 0)
(-880.259 0 0)
(-881.356 0 0)
(-882.266 0 0)
(-883.297 0 0)
(-884.292 0 0)
(-885.228 0 0)
(-886.32 0 0)
(-887.17 0 0)
(-888.327 0 0)
(-889.139 0 0)
(-890.292 0 0)
(-891.158 0 0)
(-892.216 0 0)
(-893.204 0 0)
(-894.125 0 0)
(-895.249 0 0)
(-896.058 0 0)
(-897.249 0 0)
(-898.045 0 0)
(-899.189 0 0)
(-900.093 0 0)
(-901.075 0 0)
(-902.164 0 0)
(-902.981 0 0)
(-904.197 0 0)
(-904.956 0 0)
(-906.134 0 0)
(-907.017 0 0)
(-908.006 0 0)
(-909.096 0 0)
(-909.902 0 0)
(-911.133 0 0)
(-911.881 0 0)
(-913.052 0 0)
(-913.961 0 0)
(-914.911 0 0)
(-916.058 0 0)
(-916.802 0 0)
(-918.055 0 0)
(-918.823 0 0)
(-919.943 0 0)
(-920.939 0 0)
(-921.784 0 0)
(-923.017 0 0)
(-923.724 0 0)
(-924.962 0 0)
(-925.809 0 0)
(-926.79 0 0)
(-927.932 0 0)
(-928.66 0 0)
(-929.949 0 0)
(-930.696 0 0)
(-931.799 0 0)
(-932.839 0 0)
(-933.622 0 0)
(-934.905 0 0)
(-935.597 0 0)
(-936.797 0 0)
(-937.737 0 0)
(-938.593 0 0)
(-939.853 0 0)
(-940.527 0 0)
(-941.79 0 0)
(-942.631 0 0)
(-943.574 0 0)
(-944.786 0 0)
(-945.454 0 0)
(-946.762 0 0)
(-947.549 0 0)
(-948.576 0 0)
(-949.695 0 0)
(-950.406 0 0)
(-951.724 0 0)
(-952.449 0 0)
(-953.547 0 0)
(-954.624 0 0)
(-955.358 0 0)
(-956.68 0 0)
(-957.379 0 0)
(-958.508 0 0)
(-959.561 0 0)
(-960.295 0 0)
(-961.631 0 0)
(-962.319 0 0)
(-963.452 0 0)
(-964.523 0 0)
(-965.231 0 0)
(-966.581 0 0)
(-967.27 0 0)
(-968.364 0 0)
(-969.49 0 0)
(-970.154 0 0)
(-971.519 0 0)
(-972.247 0 0)
(-973.265 0 0)
(-974.474 0 0)
(-975.083 0 0)
(-976.435 0 0)
(-977.242 0 0)
(-978.142 0 0)
(-979.459 0 0)
(-980.039 0 0)
(-981.327 0 0)
(-982.273 0 0)
(-983.018 0 0)
(-984.416 0 0)
(-985.025 0 0)
(-986.171 0 0)
(-987.306 0 0)
(-987.912 0 0)
(-989.332 0 0)
(-990.069 0 0)
(-990.998 0 0)
(-992.325 0 0)
(-992.86 0 0)
(-994.177 0 0)
(-995.143 0 0)
(-995.836 0 0)
(-997.281 0 0)
(-997.893 0 0)
(-998.975 0 0)
(-1000.23 0 0)
(-1000.74 0 0)
(-1002.14 0 0)
(-1002.97 0 0)
(-1003.79 0 0)
(-1005.19 0 0)
(-1005.74 0 0)
(-1006.96 0 0)
(-1008.05 0 0)
(-1008.65 0 0)
(-1010.1 0 0)
(-1010.82 0 0)
(-1011.74 0 0)
(-1013.09 0 0)
(-1013.62 0 0)
(-1014.91 0 0)
(-1015.94 0 0)
(-1016.56 0 0)
(-1018.02 0 0)
(-1018.7 0 0)
(-1019.64 0 0)
(-1021.01 0 0)
(-1021.51 0 0)
(-1022.79 0 0)
(-1023.86 0 0)
(-1024.44 0 0)
(-1025.91 0 0)
(-1026.64 0 0)
(-1027.5 0 0)
(-1028.92 0 0)
(-1029.45 0 0)
(-1030.64 0 0)
(-1031.82 0 0)
(-1032.34 0 0)
(-1033.77 0 0)
(-1034.62 0 0)
(-1035.35 0 0)
(-1036.82 0 0)
(-1037.42 0 0)
(-1038.45 0 0)
(-1039.77 0 0)
(-1040.27 0 0)
(-1041.58 0 0)
(-1042.63 0 0)
(-1043.2 0 0)
(-1044.68 0 0)
(-1045.44 0 0)
(-1046.23 0 0)
(-1047.71 0 0)
(-1048.25 0 0)
(-1049.33 0 0)
(-1050.65 0 0)
(-1051.11 0 0)
(-1052.45 0 0)
(-1053.51 0 0)
(-1054.04 0 0)
(-1055.55 0 0)
(-1056.33 0 0)
(-1057.05 0 0)
(-1058.59 0 0)
(-1059.13 0 0)
(-1060.13 0 0)
(-1061.56 0 0)
(-1061.97 0 0)
(-1063.24 0 0)
(-1064.46 0 0)
(-1064.87 0 0)
(-1066.35 0 0)
(-1067.3 0 0)
(-1067.83 0 0)
(-1069.42 0 0)
(-1070.12 0 0)
(-1070.86 0 0)
(-1072.44 0 0)
(-1072.94 0 0)
(-1073.94 0 0)
(-1075.4 0 0)
(-1075.79 0 0)
(-1077.03 0 0)
(-1078.31 0 0)
(-1078.69 0 0)
(-1080.13 0 0)
(-1081.17 0 0)
(-1081.63 0 0)
(-1083.2 0 0)
(-1084.02 0 0)
(-1084.63 0 0)
(-1086.23 0 0)
(-1086.85 0 0)
(-1087.67 0 0)
(-1089.23 0 0)
(-1089.7 0 0)
(-1090.73 0 0)
(-1092.18 0 0)
(-1092.57 0 0)
(-1093.8 0 0)
(-1095.09 0 0)
(-1095.48 0 0)
(-1096.87 0 0)
(-1097.98 0 0)
(-1098.42 0 0)
(-1099.93 0 0)
(-1100.85 0 0)
(-1101.39 0 0)
(-1102.96 0 0)
(-1103.71 0 0)
(-1104.38 0 0)
(-1105.97 0 0)
(-1106.58 0 0)
(-1107.4 0 0)
(-1108.96 0 0)
(-1109.45 0 0)
(-1110.43 0 0)
(-1111.93 0 0)
(-1112.34 0 0)
(-1113.46 0 0)
(-1114.87 0 0)
(-1115.24 0 0)
(-1116.5 0 0)
(-1117.8 0 0)
(-1118.16 0 0)
(-1119.53 0 0)
(-1120.72 0 0)
(-1121.09 0 0)
(-1122.55 0 0)
(-1123.64 0 0)
(-1124.04 0 0)
(-1125.57 0 0)
(-1126.55 0 0)
(-1126.99 0 0)
(-1128.57 0 0)
(-1129.46 0 0)
(-1129.95 0 0)
(-1131.57 0 0)
(-1132.38 0 0)
(-1132.92 0 0)
(-1134.56 0 0)
(-1135.29 0 0)
(-1135.9 0 0)
(-1137.54 0 0)
(-1138.21 0 0)
(-1138.87 0 0)
(-1140.52 0 0)
(-1141.14 0 0)
(-1141.84 0 0)
(-1143.49 0 0)
(-1144.07 0 0)
(-1144.82 0 0)
(-1146.45 0 0)
(-1147 0 0)
(-1147.79 0 0)
(-1149.41 0 0)
(-1149.94 0 0)
(-1150.76 0 0)
(-1152.38 0 0)
(-1152.88 0 0)
(-1153.73 0 0)
(-1155.34 0 0)
(-1155.83 0 0)
(-1156.7 0 0)
(-1158.29 0 0)
(-1158.78 0 0)
(-1159.66 0 0)
(-1161.25 0 0)
(-1161.73 0 0)
(-1162.62 0 0)
(-1164.21 0 0)
(-1164.69 0 0)
(-1165.58 0 0)
(-1167.16 0 0)
(-1167.65 0 0)
(-1168.53 0 0)
(-1170.12 0 0)
(-1170.61 0 0)
(-1171.47 0 0)
(-1173.08 0 0)
(-1173.58 0 0)
(-1174.42 0 0)
(-1176.03 0 0)
(-1176.56 0 0)
(-1177.36 0 0)
(-1178.98 0 0)
(-1179.54 0 0)
(-1180.29 0 0)
(-1181.93 0 0)
(-1182.53 0 0)
(-1183.23 0 0)
(-1184.87 0 0)
(-1185.52 0 0)
(-1186.16 0 0)
(-1187.81 0 0)
(-1188.52 0 0)
(-1189.1 0 0)
(-1190.74 0 0)
(-1191.52 0 0)
(-1192.04 0 0)
(-1193.66 0 0)
(-1194.52 0 0)
(-1194.99 0 0)
(-1196.57 0 0)
(-1197.52 0 0)
(-1197.94 0 0)
(-1199.47 0 0)
(-1200.53 0 0)
(-1200.9 0 0)
(-1202.37 0 0)
(-1203.53 0 0)
(-1203.87 0 0)
(-1205.26 0 0)
(-1206.52 0 0)
(-1206.86 0 0)
(-1208.15 0 0)
(-1209.51 0 0)
(-1209.86 0 0)
(-1211.02 0 0)
(-1212.49 0 0)
(-1212.87 0 0)
(-1213.9 0 0)
(-1215.45 0 0)
(-1215.9 0 0)
(-1216.79 0 0)
(-1218.39 0 0)
(-1218.94 0 0)
(-1219.69 0 0)
(-1221.3 0 0)
(-1221.98 0 0)
(-1222.6 0 0)
(-1224.19 0 0)
(-1225.03 0 0)
(-1225.53 0 0)
(-1227.07 0 0)
(-1228.06 0 0)
(-1228.49 0 0)
(-1229.94 0 0)
(-1231.08 0 0)
(-1231.47 0 0)
(-1232.8 0 0)
(-1234.09 0 0)
(-1234.48 0 0)
(-1235.65 0 0)
(-1237.07 0 0)
(-1237.51 0 0)
(-1238.5 0 0)
(-1240.03 0 0)
(-1240.56 0 0)
(-1241.37 0 0)
(-1242.95 0 0)
(-1243.63 0 0)
(-1244.27 0 0)
(-1245.84 0 0)
(-1246.69 0 0)
(-1247.2 0 0)
(-1248.69 0 0)
(-1249.76 0 0)
(-1250.17 0 0)
(-1251.52 0 0)
(-1252.79 0 0)
(-1253.18 0 0)
(-1254.34 0 0)
(-1255.78 0 0)
(-1256.23 0 0)
(-1257.18 0 0)
(-1258.71 0 0)
(-1259.32 0 0)
(-1260.04 0 0)
(-1261.6 0 0)
(-1262.41 0 0)
(-1262.95 0 0)
(-1264.44 0 0)
(-1265.48 0 0)
(-1265.92 0 0)
(-1267.26 0 0)
(-1268.51 0 0)
(-1268.95 0 0)
(-1270.07 0 0)
(-1271.49 0 0)
(-1272.02 0 0)
(-1272.91 0 0)
(-1274.41 0 0)
(-1275.1 0 0)
(-1275.78 0 0)
(-1277.28 0 0)
(-1278.18 0 0)
(-1278.72 0 0)
(-1280.11 0 0)
(-1281.24 0 0)
(-1281.71 0 0)
(-1282.92 0 0)
(-1284.26 0 0)
(-1284.76 0 0)
(-1285.74 0 0)
(-1287.2 0 0)
(-1287.85 0 0)
(-1288.59 0 0)
(-1290.08 0 0)
(-1290.95 0 0)
(-1291.51 0 0)
(-1292.9 0 0)
(-1294.03 0 0)
(-1294.5 0 0)
(-1295.7 0 0)
(-1297.04 0 0)
(-1297.56 0 0)
(-1298.5 0 0)
(-1299.98 0 0)
(-1300.67 0 0)
(-1301.35 0 0)
(-1302.82 0 0)
(-1303.79 0 0)
(-1304.29 0 0)
(-1305.61 0 0)
(-1306.84 0 0)
(-1307.33 0 0)
(-1308.4 0 0)
(-1309.81 0 0)
(-1310.44 0 0)
(-1311.22 0 0)
(-1312.68 0 0)
(-1313.56 0 0)
(-1314.14 0 0)
(-1315.49 0 0)
(-1316.62 0 0)
(-1317.15 0 0)
(-1318.28 0 0)
(-1319.61 0 0)
(-1320.23 0 0)
(-1321.1 0 0)
(-1322.52 0 0)
(-1323.33 0 0)
(-1323.99 0 0)
(-1325.35 0 0)
(-1326.41 0 0)
(-1326.98 0 0)
(-1328.14 0 0)
(-1329.42 0 0)
(-1330.04 0 0)
(-1330.95 0 0)
(-1332.35 0 0)
(-1333.13 0 0)
(-1333.83 0 0)
(-1335.19 0 0)
(-1336.23 0 0)
(-1336.8 0 0)
(-1337.97 0 0)
(-1339.25 0 0)
(-1339.86 0 0)
(-1340.76 0 0)
(-1342.17 0 0)
(-1342.98 0 0)
(-1343.64 0 0)
(-1344.98 0 0)
(-1346.08 0 0)
(-1346.64 0 0)
(-1347.74 0 0)
(-1349.08 0 0)
(-1349.74 0 0)
(-1350.56 0 0)
(-1351.94 0 0)
(-1352.86 0 0)
(-1353.49 0 0)
(-1354.73 0 0)
(-1355.91 0 0)
(-1356.53 0 0)
(-1357.52 0 0)
(-1358.85 0 0)
(-1359.63 0 0)
(-1360.39 0 0)
(-1361.69 0 0)
(-1362.71 0 0)
(-1363.36 0 0)
(-1364.49 0 0)
(-1365.72 0 0)
(-1366.41 0 0)
(-1367.32 0 0)
(-1368.62 0 0)
(-1369.5 0 0)
(-1370.22 0 0)
(-1371.45 0 0)
(-1372.56 0 0)
(-1373.22 0 0)
(-1374.25 0 0)
(-1375.53 0 0)
(-1376.3 0 0)
(-1377.1 0 0)
(-1378.38 0 0)
(-1379.39 0 0)
(-1380.06 0 0)
(-1381.18 0 0)
(-1382.4 0 0)
(-1383.11 0 0)
(-1384 0 0)
(-1385.29 0 0)
(-1386.21 0 0)
(-1386.91 0 0)
(-1388.1 0 0)
(-1389.26 0 0)
(-1389.95 0 0)
(-1390.9 0 0)
(-1392.18 0 0)
(-1393.05 0 0)
(-1393.79 0 0)
(-1395 0 0)
(-1396.1 0 0)
(-1396.8 0 0)
(-1397.8 0 0)
(-1399.05 0 0)
(-1399.88 0 0)
(-1400.68 0 0)
(-1401.89 0 0)
(-1402.94 0 0)
(-1403.66 0 0)
(-1404.7 0 0)
(-1405.91 0 0)
(-1406.72 0 0)
(-1407.56 0 0)
(-1408.78 0 0)
(-1409.78 0 0)
(-1410.52 0 0)
(-1411.6 0 0)
(-1412.78 0 0)
(-1413.56 0 0)
(-1414.44 0 0)
(-1415.66 0 0)
(-1416.63 0 0)
(-1417.37 0 0)
(-1418.48 0 0)
(-1419.64 0 0)
(-1420.41 0 0)
(-1421.31 0 0)
(-1422.54 0 0)
(-1423.5 0 0)
(-1424.24 0 0)
(-1425.34 0 0)
(-1426.51 0 0)
(-1427.28 0 0)
(-1428.17 0 0)
(-1429.4 0 0)
(-1430.37 0 0)
(-1431.11 0 0)
(-1432.2 0 0)
(-1433.37 0 0)
(-1434.16 0 0)
(-1435.03 0 0)
(-1436.24 0 0)
(-1437.24 0 0)
(-1437.99 0 0)
(-1439.04 0 0)
(-1440.22 0 0)
(-1441.05 0 0)
(-1441.9 0 0)
(-1443.08 0 0)
(-1444.1 0 0)
(-1444.87 0 0)
(-1445.9 0 0)
(-1447.07 0 0)
(-1447.92 0 0)
(-1448.77 0 0)
(-1449.93 0 0)
(-1450.96 0 0)
(-1451.75 0 0)
(-1452.76 0 0)
(-1453.92 0 0)
(-1454.79 0 0)
(-1455.63 0 0)
(-1456.78 0 0)
(-1457.83 0 0)
(-1458.62 0 0)
(-1459.6 0 0)
(-1460.78 0 0)
(-1461.68 0 0)
(-1462.49 0 0)
(-1463.61 0 0)
(-1464.71 0 0)
(-1465.5 0 0)
(-1466.43 0 0)
(-1467.61 0 0)
(-1468.57 0 0)
(-1469.36 0 0)
(-1470.43 0 0)
(-1471.56 0 0)
(-1472.41 0 0)
(-1473.28 0 0)
(-1474.43 0 0)
(-1475.45 0 0)
(-1476.25 0 0)
(-1477.25 0 0)
(-1478.4 0 0)
(-1479.3 0 0)
(-1480.15 0 0)
(-1481.25 0 0)
(-1482.31 0 0)
(-1483.14 0 0)
(-1484.1 0 0)
(-1485.23 0 0)
(-1486.18 0 0)
(-1487.01 0 0)
(-1488.08 0 0)
(-1489.17 0 0)
(-1490.02 0 0)
(-1490.94 0 0)
(-1492.07 0 0)
(-1493.06 0 0)
(-1493.88 0 0)
(-1494.9 0 0)
(-1496.03 0 0)
(-1496.92 0 0)
(-1497.78 0 0)
(-1498.88 0 0)
(-1499.94 0 0)
(-1500.77 0 0)
(-1501.72 0 0)
(-1502.86 0 0)
(-1503.82 0 0)
(-1504.65 0 0)
(-1505.68 0 0)
(-1506.8 0 0)
(-1507.68 0 0)
(-1508.55 0 0)
(-1509.66 0 0)
(-1510.7 0 0)
(-1511.54 0 0)
(-1512.49 0 0)
(-1513.62 0 0)
(-1514.58 0 0)
(-1515.42 0 0)
(-1516.46 0 0)
(-1517.56 0 0)
(-1518.44 0 0)
(-1519.33 0 0)
(-1520.43 0 0)
(-1521.46 0 0)
(-1522.31 0 0)
(-1523.27 0 0)
(-1524.38 0 0)
(-1525.34 0 0)
(-1526.19 0 0)
(-1527.23 0 0)
(-1528.31 0 0)
(-1529.2 0 0)
(-1530.11 0 0)
(-1531.2 0 0)
(-1532.22 0 0)
(-1533.07 0 0)
(-1534.04 0 0)
(-1535.15 0 0)
(-1536.1 0 0)
(-1536.96 0 0)
(-1537.99 0 0)
(-1539.08 0 0)
(-1539.97 0 0)
(-1540.86 0 0)
(-1541.95 0 0)
(-1542.99 0 0)
(-1543.84 0 0)
(-1544.79 0 0)
(-1545.9 0 0)
(-1546.87 0 0)
(-1547.73 0 0)
(-1548.73 0 0)
(-1549.83 0 0)
(-1550.75 0 0)
(-1551.63 0 0)
(-1552.68 0 0)
(-1553.74 0 0)
(-1554.63 0 0)
(-1555.55 0 0)
(-1556.63 0 0)
(-1557.63 0 0)
(-1558.51 0 0)
(-1559.49 0 0)
(-1560.56 0 0)
(-1561.52 0 0)
(-1562.4 0 0)
(-1563.43 0 0)
(-1564.49 0 0)
(-1565.39 0 0)
(-1566.31 0 0)
(-1567.38 0 0)
(-1568.4 0 0)
(-1569.27 0 0)
(-1570.23 0 0)
(-1571.32 0 0)
(-1572.29 0 0)
(-1573.16 0 0)
(-1574.16 0 0)
(-1575.25 0 0)
(-1576.18 0 0)
(-1577.06 0 0)
(-1578.09 0 0)
(-1579.16 0 0)
(-1580.07 0 0)
(-1580.97 0 0)
(-1582.02 0 0)
(-1583.06 0 0)
(-1583.96 0 0)
(-1584.89 0 0)
(-1585.95 0 0)
(-1586.96 0 0)
(-1587.85 0 0)
(-1588.82 0 0)
(-1589.88 0 0)
(-1590.84 0 0)
(-1591.74 0 0)
(-1592.75 0 0)
(-1593.79 0 0)
(-1594.72 0 0)
(-1595.65 0 0)
(-1596.69 0 0)
(-1597.7 0 0)
(-1598.61 0 0)
(-1599.56 0 0)
(-1600.62 0 0)
(-1601.61 0 0)
(-1602.5 0 0)
(-1603.47 0 0)
(-1604.54 0 0)
(-1605.51 0 0)
(-1606.39 0 0)
(-1607.39 0 0)
(-1608.46 0 0)
(-1609.41 0 0)
(-1610.29 0 0)
(-1611.31 0 0)
(-1612.37 0 0)
(-1613.3 0 0)
(-1614.2 0 0)
(-1615.23 0 0)
(-1616.27 0 0)
(-1617.19 0 0)
(-1618.12 0 0)
(-1619.15 0 0)
(-1620.17 0 0)
(-1621.08 0 0)
(-1622.03 0 0)
(-1623.07 0 0)
(-1624.06 0 0)
(-1624.97 0 0)
(-1625.95 0 0)
(-1626.99 0 0)
(-1627.95 0 0)
(-1628.87 0 0)
(-1629.87 0 0)
(-1630.9 0 0)
(-1631.84 0 0)
(-1632.76 0 0)
(-1633.79 0 0)
(-1634.82 0 0)
(-1635.73 0 0)
(-1636.66 0 0)
(-1637.7 0 0)
(-1638.73 0 0)
(-1639.63 0 0)
(-1640.57 0 0)
(-1641.61 0 0)
(-1642.63 0 0)
(-1643.53 0 0)
(-1644.47 0 0)
(-1645.52 0 0)
(-1646.52 0 0)
(-1647.43 0 0)
(-1648.38 0 0)
(-1649.42 0 0)
(-1650.41 0 0)
(-1651.33 0 0)
(-1652.3 0 0)
(-1653.33 0 0)
(-1654.3 0 0)
(-1655.23 0 0)
(-1656.22 0 0)
(-1657.23 0 0)
(-1658.19 0 0)
(-1659.13 0 0)
(-1660.13 0 0)
(-1661.14 0 0)
(-1662.08 0 0)
(-1663.02 0 0)
(-1664.04 0 0)
(-1665.05 0 0)
(-1665.97 0 0)
(-1666.92 0 0)
(-1667.95 0 0)
(-1668.95 0 0)
(-1669.87 0 0)
(-1670.81 0 0)
(-1671.85 0 0)
(-1672.85 0 0)
(-1673.77 0 0)
(-1674.71 0 0)
(-1675.74 0 0)
(-1676.75 0 0)
(-1677.67 0 0)
(-1678.62 0 0)
(-1679.64 0 0)
(-1680.64 0 0)
(-1681.57 0 0)
(-1682.52 0 0)
(-1683.54 0 0)
(-1684.53 0 0)
(-1685.46 0 0)
(-1686.43 0 0)
(-1687.45 0 0)
(-1688.42 0 0)
(-1689.36 0 0)
(-1690.34 0 0)
(-1691.35 0 0)
(-1692.31 0 0)
(-1693.25 0 0)
(-1694.24 0 0)
(-1695.26 0 0)
(-1696.21 0 0)
(-1697.14 0 0)
(-1698.14 0 0)
(-1699.16 0 0)
(-1700.11 0 0)
(-1701.04 0 0)
(-1702.03 0 0)
(-1703.06 0 0)
(-1704.01 0 0)
(-1704.93 0 0)
(-1705.93 0 0)
(-1706.95 0 0)
(-1707.91 0 0)
(-1708.84 0 0)
(-1709.83 0 0)
(-1710.85 0 0)
(-1711.81 0 0)
(-1712.74 0 0)
(-1713.73 0 0)
(-1714.74 0 0)
(-1715.7 0 0)
(-1716.64 0 0)
(-1717.64 0 0)
(-1718.64 0 0)
(-1719.59 0 0)
(-1720.54 0 0)
(-1721.54 0 0)
(-1722.54 0 0)
(-1723.49 0 0)
(-1724.44 0 0)
(-1725.44 0 0)
(-1726.44 0 0)
(-1727.39 0 0)
(-1728.33 0 0)
(-1729.34 0 0)
(-1730.35 0 0)
(-1731.29 0 0)
(-1732.23 0 0)
(-1733.23 0 0)
(-1734.24 0 0)
(-1735.19 0 0)
(-1736.13 0 0)
(-1737.12 0 0)
(-1738.13 0 0)
(-1739.09 0 0)
(-1740.03 0 0)
(-1741.02 0 0)
(-1742.03 0 0)
(-1742.99 0 0)
(-1743.94 0 0)
(-1744.92 0 0)
(-1745.92 0 0)
(-1746.88 0 0)
(-1747.83 0 0)
(-1748.83 0 0)
(-1749.82 0 0)
(-1750.77 0 0)
(-1751.72 0 0)
(-1752.72 0 0)
(-1753.72 0 0)
(-1754.67 0 0)
(-1755.61 0 0)
(-1756.61 0 0)
(-1757.62 0 0)
(-1758.57 0 0)
(-1759.51 0 0)
(-1760.5 0 0)
(-1761.51 0 0)
(-1762.47 0 0)
(-1763.41 0 0)
(-1764.39 0 0)
(-1765.4 0 0)
(-1766.37 0 0)
(-1767.31 0 0)
(-1768.29 0 0)
(-1769.29 0 0)
(-1770.26 0 0)
(-1771.21 0 0)
(-1772.18 0 0)
(-1773.18 0 0)
(-1774.15 0 0)
(-1775.1 0 0)
(-1776.08 0 0)
(-1777.08 0 0)
(-1778.04 0 0)
(-1778.99 0 0)
(-1779.97 0 0)
(-1780.97 0 0)
(-1781.94 0 0)
(-1782.88 0 0)
(-1783.86 0 0)
(-1784.86 0 0)
(-1785.83 0 0)
(-1786.77 0 0)
(-1787.74 0 0)
(-1788.74 0 0)
(-1789.72 0 0)
(-1790.67 0 0)
(-1791.63 0 0)
(-1792.63 0 0)
(-1793.61 0 0)
(-1794.56 0 0)
(-1795.52 0 0)
(-1796.51 0 0)
(-1797.5 0 0)
(-1798.45 0 0)
(-1799.41 0 0)
(-1800.4 0 0)
(-1801.39 0 0)
(-1802.34 0 0)
(-1803.3 0 0)
(-1804.29 0 0)
(-1805.27 0 0)
(-1806.23 0 0)
(-1807.19 0 0)
(-1808.18 0 0)
(-1809.16 0 0)
(-1810.12 0 0)
(-1811.07 0 0)
(-1812.06 0 0)
(-1813.05 0 0)
(-1814.01 0 0)
(-1814.96 0 0)
(-1815.94 0 0)
(-1816.94 0 0)
(-1817.91 0 0)
(-1818.85 0 0)
(-1819.82 0 0)
(-1820.82 0 0)
(-1821.8 0 0)
(-1822.74 0 0)
(-1823.71 0 0)
(-1824.7 0 0)
(-1825.68 0 0)
(-1826.63 0 0)
(-1827.6 0 0)
(-1828.58 0 0)
(-1829.57 0 0)
(-1830.52 0 0)
(-1831.49 0 0)
(-1832.47 0 0)
(-1833.45 0 0)
(-1834.41 0 0)
(-1835.37 0 0)
(-1836.36 0 0)
(-1837.34 0 0)
(-1838.3 0 0)
(-1839.25 0 0)
(-1840.24 0 0)
(-1841.23 0 0)
(-1842.18 0 0)
(-1843.14 0 0)
(-1844.12 0 0)
(-1845.11 0 0)
(-1846.07 0 0)
(-1847.02 0 0)
(-1848 0 0)
(-1848.99 0 0)
(-1849.96 0 0)
(-1850.91 0 0)
(-1851.88 0 0)
(-1852.87 0 0)
(-1853.85 0 0)
(-1854.8 0 0)
(-1855.76 0 0)
(-1856.75 0 0)
(-1857.73 0 0)
(-1858.69 0 0)
(-1859.65 0 0)
(-1860.63 0 0)
(-1861.61 0 0)
(-1862.57 0 0)
(-1863.53 0 0)
(-1864.51 0 0)
(-1865.49 0 0)
(-1866.46 0 0)
(-1867.41 0 0)
(-1868.39 0 0)
(-1869.38 0 0)
(-1870.34 0 0)
(-1871.3 0 0)
(-1872.27 0 0)
(-1873.26 0 0)
(-1874.23 0 0)
(-1875.18 0 0)
(-1876.15 0 0)
(-1877.13 0 0)
(-1878.12 0 0)
(-1879.07 0 0)
(-1880.03 0 0)
(-1881.01 0 0)
(-1881.99 0 0)
(-1882.96 0 0)
(-1883.91 0 0)
(-1884.89 0 0)
(-1885.87 0 0)
(-1886.84 0 0)
(-1887.8 0 0)
(-1888.77 0 0)
(-1889.75 0 0)
(-1890.72 0 0)
(-1891.68 0 0)
(-1892.65 0 0)
(-1893.63 0 0)
(-1894.6 0 0)
(-1895.56 0 0)
(-1896.52 0 0)
(-1897.51 0 0)
(-1898.48 0 0)
(-1899.44 0 0)
(-1900.4 0 0)
(-1901.38 0 0)
(-1902.37 0 0)
(-1903.33 0 0)
(-1904.28 0 0)
(-1905.25 0 0)
(-1906.24 0 0)
(-1907.21 0 0)
(-1908.17 0 0)
(-1909.13 0 0)
(-1910.11 0 0)
(-1911.09 0 0)
(-1912.05 0 0)
(-1913.01 0 0)
(-1913.99 0 0)
(-1914.96 0 0)
(-1915.93 0 0)
(-1916.89 0 0)
(-1917.87 0 0)
(-1918.84 0 0)
(-1919.81 0 0)
(-1920.77 0 0)
(-1921.74 0 0)
(-1922.72 0 0)
(-1923.69 0 0)
(-1924.64 0 0)
(-1925.61 0 0)
(-1926.6 0 0)
(-1927.57 0 0)
(-1928.53 0 0)
(-1929.49 0 0)
(-1930.47 0 0)
(-1931.45 0 0)
(-1932.41 0 0)
(-1933.36 0 0)
(-1934.33 0 0)
(-1935.32 0 0)
(-1936.29 0 0)
(-1937.25 0 0)
(-1938.21 0 0)
(-1939.19 0 0)
(-1940.16 0 0)
(-1941.13 0 0)
(-1942.09 0 0)