/*--------------------------------*- C++ -*----------------------------------*\
  =========                 |
  \\      /  F ield         | OpenFOAM: The Open Source CFD Toolbox
   \\    /   O peration     | Website:  https://openfoam.org
    \\  /    A nd           | Version:  9
     \\/     M anipulation  |
\*---------------------------------------------------------------------------*/
FoamFile
{
    format      ascii;
    class       volScalarField;
    location    "0.031";
    object      ddt0(p);
}
// * * * * * * * * * * * * * * * * * * * * * * * * * * * * * * * * * * * * * //

dimensions      [1 -1 -3 0 0 0 0];

internalField   nonuniform List<scalar> 
10000
(
-1.05465e+06
-1.05464e+06
-1.05463e+06
-1.05462e+06
-1.05461e+06
-1.05461e+06
-1.0546e+06
-1.05459e+06
-1.05458e+06
-1.05457e+06
-1.05456e+06
-1.05456e+06
-1.05455e+06
-1.05454e+06
-1.05453e+06
-1.05453e+06
-1.05452e+06
-1.05451e+06
-1.0545e+06
-1.05449e+06
-1.05448e+06
-1.05447e+06
-1.05447e+06
-1.05446e+06
-1.05445e+06
-1.05444e+06
-1.05443e+06
-1.05443e+06
-1.05442e+06
-1.05441e+06
-1.0544e+06
-1.05439e+06
-1.05438e+06
-1.05438e+06
-1.05437e+06
-1.05436e+06
-1.05435e+06
-1.05434e+06
-1.05433e+06
-1.05433e+06
-1.05432e+06
-1.05431e+06
-1.0543e+06
-1.05429e+06
-1.05428e+06
-1.05428e+06
-1.05427e+06
-1.05426e+06
-1.05425e+06
-1.05424e+06
-1.05423e+06
-1.05423e+06
-1.05422e+06
-1.05421e+06
-1.0542e+06
-1.05419e+06
-1.05418e+06
-1.05417e+06
-1.05417e+06
-1.05416e+06
-1.05415e+06
-1.05414e+06
-1.05413e+06
-1.05412e+06
-1.05412e+06
-1.05411e+06
-1.0541e+06
-1.05409e+06
-1.05408e+06
-1.05407e+06
-1.05406e+06
-1.05406e+06
-1.05405e+06
-1.05404e+06
-1.05403e+06
-1.05402e+06
-1.05401e+06
-1.05401e+06
-1.054e+06
-1.05399e+06
-1.05398e+06
-1.05397e+06
-1.05396e+06
-1.05395e+06
-1.05394e+06
-1.05394e+06
-1.05393e+06
-1.05392e+06
-1.05391e+06
-1.0539e+06
-1.05389e+06
-1.05388e+06
-1.05388e+06
-1.05387e+06
-1.05386e+06
-1.05385e+06
-1.05384e+06
-1.05383e+06
-1.05382e+06
-1.05381e+06
-1.05381e+06
-1.0538e+06
-1.05379e+06
-1.05378e+06
-1.05377e+06
-1.05376e+06
-1.05375e+06
-1.05374e+06
-1.05374e+06
-1.05373e+06
-1.05372e+06
-1.05371e+06
-1.0537e+06
-1.05369e+06
-1.05368e+06
-1.05367e+06
-1.05367e+06
-1.05366e+06
-1.05365e+06
-1.05364e+06
-1.05363e+06
-1.05362e+06
-1.05361e+06
-1.0536e+06
-1.0536e+06
-1.05359e+06
-1.05358e+06
-1.05357e+06
-1.05356e+06
-1.05355e+06
-1.05354e+06
-1.05353e+06
-1.05352e+06
-1.05351e+06
-1.0535e+06
-1.0535e+06
-1.05349e+06
-1.05348e+06
-1.05347e+06
-1.05346e+06
-1.05345e+06
-1.05344e+06
-1.05343e+06
-1.05342e+06
-1.05342e+06
-1.05341e+06
-1.0534e+06
-1.05339e+06
-1.05338e+06
-1.05337e+06
-1.05336e+06
-1.05335e+06
-1.05334e+06
-1.05333e+06
-1.05333e+06
-1.05332e+06
-1.05331e+06
-1.0533e+06
-1.05329e+06
-1.05328e+06
-1.05327e+06
-1.05326e+06
-1.05325e+06
-1.05324e+06
-1.05323e+06
-1.05322e+06
-1.05322e+06
-1.05321e+06
-1.0532e+06
-1.05319e+06
-1.05318e+06
-1.05317e+06
-1.05316e+06
-1.05315e+06
-1.05314e+06
-1.05313e+06
-1.05312e+06
-1.05311e+06
-1.05311e+06
-1.0531e+06
-1.05309e+06
-1.05308e+06
-1.05307e+06
-1.05306e+06
-1.05305e+06
-1.05304e+06
-1.05303e+06
-1.05302e+06
-1.05301e+06
-1.053e+06
-1.053e+06
-1.05299e+06
-1.05298e+06
-1.05297e+06
-1.05296e+06
-1.05295e+06
-1.05294e+06
-1.05293e+06
-1.05292e+06
-1.05291e+06
-1.0529e+06
-1.05289e+06
-1.05288e+06
-1.05287e+06
-1.05286e+06
-1.05285e+06
-1.05285e+06
-1.05284e+06
-1.05283e+06
-1.05282e+06
-1.05281e+06
-1.0528e+06
-1.05279e+06
-1.05278e+06
-1.05277e+06
-1.05276e+06
-1.05275e+06
-1.05274e+06
-1.05273e+06
-1.05272e+06
-1.05271e+06
-1.0527e+06
-1.05269e+06
-1.05269e+06
-1.05268e+06
-1.05267e+06
-1.05266e+06
-1.05265e+06
-1.05264e+06
-1.05263e+06
-1.05262e+06
-1.05261e+06
-1.0526e+06
-1.05259e+06
-1.05258e+06
-1.05257e+06
-1.05256e+06
-1.05255e+06
-1.05254e+06
-1.05253e+06
-1.05252e+06
-1.05251e+06
-1.0525e+06
-1.05249e+06
-1.05248e+06
-1.05247e+06
-1.05246e+06
-1.05245e+06
-1.05245e+06
-1.05244e+06
-1.05243e+06
-1.05242e+06
-1.05241e+06
-1.0524e+06
-1.05239e+06
-1.05238e+06
-1.05237e+06
-1.05236e+06
-1.05235e+06
-1.05234e+06
-1.05233e+06
-1.05232e+06
-1.05231e+06
-1.0523e+06
-1.05229e+06
-1.05228e+06
-1.05227e+06
-1.05226e+06
-1.05225e+06
-1.05224e+06
-1.05223e+06
-1.05222e+06
-1.05221e+06
-1.0522e+06
-1.05219e+06
-1.05218e+06
-1.05217e+06
-1.05216e+06
-1.05215e+06
-1.05214e+06
-1.05213e+06
-1.05212e+06
-1.05211e+06
-1.0521e+06
-1.05209e+06
-1.05208e+06
-1.05207e+06
-1.05206e+06
-1.05205e+06
-1.05204e+06
-1.05203e+06
-1.05202e+06
-1.05201e+06
-1.052e+06
-1.05199e+06
-1.05198e+06
-1.05197e+06
-1.05196e+06
-1.05195e+06
-1.05194e+06
-1.05193e+06
-1.05192e+06
-1.05191e+06
-1.0519e+06
-1.05189e+06
-1.05188e+06
-1.05187e+06
-1.05186e+06
-1.05185e+06
-1.05184e+06
-1.05183e+06
-1.05182e+06
-1.05181e+06
-1.0518e+06
-1.05179e+06
-1.05178e+06
-1.05177e+06
-1.05176e+06
-1.05175e+06
-1.05174e+06
-1.05173e+06
-1.05172e+06
-1.05171e+06
-1.0517e+06
-1.05169e+06
-1.05168e+06
-1.05167e+06
-1.05166e+06
-1.05165e+06
-1.05164e+06
-1.05163e+06
-1.05162e+06
-1.05161e+06
-1.0516e+06
-1.05159e+06
-1.05158e+06
-1.05157e+06
-1.05156e+06
-1.05155e+06
-1.05154e+06
-1.05153e+06
-1.05152e+06
-1.05151e+06
-1.0515e+06
-1.05149e+06
-1.05148e+06
-1.05147e+06
-1.05146e+06
-1.05145e+06
-1.05144e+06
-1.05143e+06
-1.05142e+06
-1.05141e+06
-1.0514e+06
-1.05139e+06
-1.05138e+06
-1.05136e+06
-1.05135e+06
-1.05134e+06
-1.05133e+06
-1.05132e+06
-1.05131e+06
-1.0513e+06
-1.05129e+06
-1.05128e+06
-1.05127e+06
-1.05126e+06
-1.05125e+06
-1.05124e+06
-1.05123e+06
-1.05122e+06
-1.05121e+06
-1.0512e+06
-1.05119e+06
-1.05118e+06
-1.05117e+06
-1.05116e+06
-1.05115e+06
-1.05114e+06
-1.05113e+06
-1.05111e+06
-1.0511e+06
-1.05109e+06
-1.05108e+06
-1.05107e+06
-1.05106e+06
-1.05105e+06
-1.05104e+06
-1.05103e+06
-1.05102e+06
-1.05101e+06
-1.051e+06
-1.05099e+06
-1.05098e+06
-1.05097e+06
-1.05096e+06
-1.05095e+06
-1.05093e+06
-1.05092e+06
-1.05091e+06
-1.0509e+06
-1.05089e+06
-1.05088e+06
-1.05087e+06
-1.05086e+06
-1.05085e+06
-1.05084e+06
-1.05083e+06
-1.05082e+06
-1.05081e+06
-1.0508e+06
-1.05079e+06
-1.05078e+06
-1.05076e+06
-1.05075e+06
-1.05074e+06
-1.05073e+06
-1.05072e+06
-1.05071e+06
-1.0507e+06
-1.05069e+06
-1.05068e+06
-1.05067e+06
-1.05066e+06
-1.05065e+06
-1.05064e+06
-1.05062e+06
-1.05061e+06
-1.0506e+06
-1.05059e+06
-1.05058e+06
-1.05057e+06
-1.05056e+06
-1.05055e+06
-1.05054e+06
-1.05053e+06
-1.05052e+06
-1.05051e+06
-1.05049e+06
-1.05048e+06
-1.05047e+06
-1.05046e+06
-1.05045e+06
-1.05044e+06
-1.05043e+06
-1.05042e+06
-1.05041e+06
-1.0504e+06
-1.05039e+06
-1.05037e+06
-1.05036e+06
-1.05035e+06
-1.05034e+06
-1.05033e+06
-1.05032e+06
-1.05031e+06
-1.0503e+06
-1.05029e+06
-1.05028e+06
-1.05027e+06
-1.05025e+06
-1.05024e+06
-1.05023e+06
-1.05022e+06
-1.05021e+06
-1.0502e+06
-1.05019e+06
-1.05018e+06
-1.05017e+06
-1.05015e+06
-1.05014e+06
-1.05013e+06
-1.05012e+06
-1.05011e+06
-1.0501e+06
-1.05009e+06
-1.05008e+06
-1.05007e+06
-1.05005e+06
-1.05004e+06
-1.05003e+06
-1.05002e+06
-1.05001e+06
-1.05e+06
-1.04999e+06
-1.04998e+06
-1.04997e+06
-1.04995e+06
-1.04994e+06
-1.04993e+06
-1.04992e+06
-1.04991e+06
-1.0499e+06
-1.04989e+06
-1.04988e+06
-1.04986e+06
-1.04985e+06
-1.04984e+06
-1.04983e+06
-1.04982e+06
-1.04981e+06
-1.0498e+06
-1.04979e+06
-1.04977e+06
-1.04976e+06
-1.04975e+06
-1.04974e+06
-1.04973e+06
-1.04972e+06
-1.04971e+06
-1.04969e+06
-1.04968e+06
-1.04967e+06
-1.04966e+06
-1.04965e+06
-1.04964e+06
-1.04963e+06
-1.04962e+06
-1.0496e+06
-1.04959e+06
-1.04958e+06
-1.04957e+06
-1.04956e+06
-1.04955e+06
-1.04954e+06
-1.04952e+06
-1.04951e+06
-1.0495e+06
-1.04949e+06
-1.04948e+06
-1.04947e+06
-1.04946e+06
-1.04944e+06
-1.04943e+06
-1.04942e+06
-1.04941e+06
-1.0494e+06
-1.04939e+06
-1.04938e+06
-1.04936e+06
-1.04935e+06
-1.04934e+06
-1.04933e+06
-1.04932e+06
-1.04931e+06
-1.04929e+06
-1.04928e+06
-1.04927e+06
-1.04926e+06
-1.04925e+06
-1.04924e+06
-1.04922e+06
-1.04921e+06
-1.0492e+06
-1.04919e+06
-1.04918e+06
-1.04917e+06
-1.04915e+06
-1.04914e+06
-1.04913e+06
-1.04912e+06
-1.04911e+06
-1.0491e+06
-1.04909e+06
-1.04907e+06
-1.04906e+06
-1.04905e+06
-1.04904e+06
-1.04903e+06
-1.04902e+06
-1.049e+06
-1.04899e+06
-1.04898e+06
-1.04897e+06
-1.04896e+06
-1.04894e+06
-1.04893e+06
-1.04892e+06
-1.04891e+06
-1.0489e+06
-1.04889e+06
-1.04887e+06
-1.04886e+06
-1.04885e+06
-1.04884e+06
-1.04883e+06
-1.04881e+06
-1.0488e+06
-1.04879e+06
-1.04878e+06
-1.04877e+06
-1.04876e+06
-1.04874e+06
-1.04873e+06
-1.04872e+06
-1.04871e+06
-1.0487e+06
-1.04868e+06
-1.04867e+06
-1.04866e+06
-1.04865e+06
-1.04864e+06
-1.04862e+06
-1.04861e+06
-1.0486e+06
-1.04859e+06
-1.04858e+06
-1.04857e+06
-1.04855e+06
-1.04854e+06
-1.04853e+06
-1.04852e+06
-1.04851e+06
-1.04849e+06
-1.04848e+06
-1.04847e+06
-1.04846e+06
-1.04844e+06
-1.04843e+06
-1.04842e+06
-1.04841e+06
-1.0484e+06
-1.04838e+06
-1.04837e+06
-1.04836e+06
-1.04835e+06
-1.04834e+06
-1.04832e+06
-1.04831e+06
-1.0483e+06
-1.04829e+06
-1.04828e+06
-1.04826e+06
-1.04825e+06
-1.04824e+06
-1.04823e+06
-1.04821e+06
-1.0482e+06
-1.04819e+06
-1.04818e+06
-1.04817e+06
-1.04815e+06
-1.04814e+06
-1.04813e+06
-1.04812e+06
-1.04811e+06
-1.04809e+06
-1.04808e+06
-1.04807e+06
-1.04806e+06
-1.04804e+06
-1.04803e+06
-1.04802e+06
-1.04801e+06
-1.048e+06
-1.04798e+06
-1.04797e+06
-1.04796e+06
-1.04795e+06
-1.04793e+06
-1.04792e+06
-1.04791e+06
-1.0479e+06
-1.04788e+06
-1.04787e+06
-1.04786e+06
-1.04785e+06
-1.04784e+06
-1.04782e+06
-1.04781e+06
-1.0478e+06
-1.04779e+06
-1.04777e+06
-1.04776e+06
-1.04775e+06
-1.04774e+06
-1.04772e+06
-1.04771e+06
-1.0477e+06
-1.04769e+06
-1.04767e+06
-1.04766e+06
-1.04765e+06
-1.04764e+06
-1.04762e+06
-1.04761e+06
-1.0476e+06
-1.04759e+06
-1.04757e+06
-1.04756e+06
-1.04755e+06
-1.04754e+06
-1.04752e+06
-1.04751e+06
-1.0475e+06
-1.04749e+06
-1.04747e+06
-1.04746e+06
-1.04745e+06
-1.04744e+06
-1.04742e+06
-1.04741e+06
-1.0474e+06
-1.04739e+06
-1.04737e+06
-1.04736e+06
-1.04735e+06
-1.04734e+06
-1.04732e+06
-1.04731e+06
-1.0473e+06
-1.04728e+06
-1.04727e+06
-1.04726e+06
-1.04725e+06
-1.04723e+06
-1.04722e+06
-1.04721e+06
-1.0472e+06
-1.04718e+06
-1.04717e+06
-1.04716e+06
-1.04715e+06
-1.04713e+06
-1.04712e+06
-1.04711e+06
-1.04709e+06
-1.04708e+06
-1.04707e+06
-1.04706e+06
-1.04704e+06
-1.04703e+06
-1.04702e+06
-1.047e+06
-1.04699e+06
-1.04698e+06
-1.04697e+06
-1.04695e+06
-1.04694e+06
-1.04693e+06
-1.04692e+06
-1.0469e+06
-1.04689e+06
-1.04688e+06
-1.04686e+06
-1.04685e+06
-1.04684e+06
-1.04683e+06
-1.04681e+06
-1.0468e+06
-1.04679e+06
-1.04677e+06
-1.04676e+06
-1.04675e+06
-1.04673e+06
-1.04672e+06
-1.04671e+06
-1.0467e+06
-1.04668e+06
-1.04667e+06
-1.04666e+06
-1.04664e+06
-1.04663e+06
-1.04662e+06
-1.04661e+06
-1.04659e+06
-1.04658e+06
-1.04657e+06
-1.04655e+06
-1.04654e+06
-1.04653e+06
-1.04651e+06
-1.0465e+06
-1.04649e+06
-1.04647e+06
-1.04646e+06
-1.04645e+06
-1.04644e+06
-1.04642e+06
-1.04641e+06
-1.0464e+06
-1.04638e+06
-1.04637e+06
-1.04636e+06
-1.04634e+06
-1.04633e+06
-1.04632e+06
-1.0463e+06
-1.04629e+06
-1.04628e+06
-1.04627e+06
-1.04625e+06
-1.04624e+06
-1.04623e+06
-1.04621e+06
-1.0462e+06
-1.04619e+06
-1.04617e+06
-1.04616e+06
-1.04615e+06
-1.04613e+06
-1.04612e+06
-1.04611e+06
-1.04609e+06
-1.04608e+06
-1.04607e+06
-1.04605e+06
-1.04604e+06
-1.04603e+06
-1.04601e+06
-1.046e+06
-1.04599e+06
-1.04597e+06
-1.04596e+06
-1.04595e+06
-1.04593e+06
-1.04592e+06
-1.04591e+06
-1.04589e+06
-1.04588e+06
-1.04587e+06
-1.04585e+06
-1.04584e+06
-1.04583e+06
-1.04581e+06
-1.0458e+06
-1.04579e+06
-1.04577e+06
-1.04576e+06
-1.04575e+06
-1.04573e+06
-1.04572e+06
-1.04571e+06
-1.04569e+06
-1.04568e+06
-1.04567e+06
-1.04565e+06
-1.04564e+06
-1.04563e+06
-1.04561e+06
-1.0456e+06
-1.04558e+06
-1.04557e+06
-1.04556e+06
-1.04554e+06
-1.04553e+06
-1.04552e+06
-1.0455e+06
-1.04549e+06
-1.04548e+06
-1.04546e+06
-1.04545e+06
-1.04544e+06
-1.04542e+06
-1.04541e+06
-1.0454e+06
-1.04538e+06
-1.04537e+06
-1.04535e+06
-1.04534e+06
-1.04533e+06
-1.04531e+06
-1.0453e+06
-1.04529e+06
-1.04527e+06
-1.04526e+06
-1.04524e+06
-1.04523e+06
-1.04522e+06
-1.0452e+06
-1.04519e+06
-1.04518e+06
-1.04516e+06
-1.04515e+06
-1.04514e+06
-1.04512e+06
-1.04511e+06
-1.04509e+06
-1.04508e+06
-1.04507e+06
-1.04505e+06
-1.04504e+06
-1.04502e+06
-1.04501e+06
-1.045e+06
-1.04498e+06
-1.04497e+06
-1.04496e+06
-1.04494e+06
-1.04493e+06
-1.04491e+06
-1.0449e+06
-1.04489e+06
-1.04487e+06
-1.04486e+06
-1.04485e+06
-1.04483e+06
-1.04482e+06
-1.0448e+06
-1.04479e+06
-1.04478e+06
-1.04476e+06
-1.04475e+06
-1.04473e+06
-1.04472e+06
-1.04471e+06
-1.04469e+06
-1.04468e+06
-1.04467e+06
-1.04465e+06
-1.04464e+06
-1.04462e+06
-1.04461e+06
-1.04459e+06
-1.04458e+06
-1.04457e+06
-1.04455e+06
-1.04454e+06
-1.04453e+06
-1.04451e+06
-1.0445e+06
-1.04448e+06
-1.04447e+06
-1.04446e+06
-1.04444e+06
-1.04443e+06
-1.04441e+06
-1.0444e+06
-1.04438e+06
-1.04437e+06
-1.04435e+06
-1.04435e+06
-1.04433e+06
-1.04431e+06
-1.0443e+06
-1.04429e+06
-1.04427e+06
-1.04426e+06
-1.04424e+06
-1.04423e+06
-1.04422e+06
-1.0442e+06
-1.04419e+06
-1.04417e+06
-1.04416e+06
-1.04414e+06
-1.04413e+06
-1.04412e+06
-1.0441e+06
-1.04409e+06
-1.04407e+06
-1.04406e+06
-1.04405e+06
-1.04403e+06
-1.04402e+06
-1.044e+06
-1.04399e+06
-1.04397e+06
-1.04396e+06
-1.04394e+06
-1.04393e+06
-1.04392e+06
-1.0439e+06
-1.04389e+06
-1.04387e+06
-1.04386e+06
-1.04384e+06
-1.04383e+06
-1.04382e+06
-1.0438e+06
-1.04379e+06
-1.04377e+06
-1.04376e+06
-1.04374e+06
-1.04373e+06
-1.04371e+06
-1.0437e+06
-1.04369e+06
-1.04367e+06
-1.04366e+06
-1.04364e+06
-1.04363e+06
-1.04361e+06
-1.0436e+06
-1.04359e+06
-1.04357e+06
-1.04356e+06
-1.04354e+06
-1.04353e+06
-1.04351e+06
-1.0435e+06
-1.04348e+06
-1.04347e+06
-1.04346e+06
-1.04344e+06
-1.04342e+06
-1.04341e+06
-1.0434e+06
-1.04338e+06
-1.04337e+06
-1.04335e+06
-1.04334e+06
-1.04332e+06
-1.04332e+06
-1.04329e+06
-1.04329e+06
-1.04326e+06
-1.04325e+06
-1.04323e+06
-1.04322e+06
-1.04321e+06
-1.04319e+06
-1.04318e+06
-1.04316e+06
-1.04315e+06
-1.04313e+06
-1.04312e+06
-1.0431e+06
-1.04309e+06
-1.04308e+06
-1.04306e+06
-1.04305e+06
-1.04303e+06
-1.04302e+06
-1.043e+06
-1.04299e+06
-1.04297e+06
-1.04296e+06
-1.04294e+06
-1.04293e+06
-1.04291e+06
-1.0429e+06
-1.04288e+06
-1.04287e+06
-1.04285e+06
-1.04284e+06
-1.04282e+06
-1.04281e+06
-1.0428e+06
-1.04278e+06
-1.04276e+06
-1.04275e+06
-1.04274e+06
-1.04272e+06
-1.04271e+06
-1.04269e+06
-1.04268e+06
-1.04266e+06
-1.04265e+06
-1.04263e+06
-1.04262e+06
-1.0426e+06
-1.04259e+06
-1.04257e+06
-1.04256e+06
-1.04254e+06
-1.04253e+06
-1.04251e+06
-1.0425e+06
-1.04248e+06
-1.04247e+06
-1.04245e+06
-1.04244e+06
-1.04242e+06
-1.04241e+06
-1.04239e+06
-1.04238e+06
-1.04236e+06
-1.04235e+06
-1.04233e+06
-1.04232e+06
-1.0423e+06
-1.04229e+06
-1.04227e+06
-1.04226e+06
-1.04224e+06
-1.04223e+06
-1.04221e+06
-1.0422e+06
-1.04218e+06
-1.04217e+06
-1.04215e+06
-1.04214e+06
-1.04212e+06
-1.04211e+06
-1.04209e+06
-1.04208e+06
-1.04206e+06
-1.04205e+06
-1.04203e+06
-1.04201e+06
-1.042e+06
-1.04198e+06
-1.04197e+06
-1.04195e+06
-1.04194e+06
-1.04192e+06
-1.04191e+06
-1.04189e+06
-1.04188e+06
-1.04186e+06
-1.04185e+06
-1.04183e+06
-1.04182e+06
-1.0418e+06
-1.04179e+06
-1.04177e+06
-1.04176e+06
-1.04174e+06
-1.04172e+06
-1.04171e+06
-1.04169e+06
-1.04168e+06
-1.04166e+06
-1.04165e+06
-1.04163e+06
-1.04162e+06
-1.0416e+06
-1.04159e+06
-1.04157e+06
-1.04156e+06
-1.04154e+06
-1.04153e+06
-1.04151e+06
-1.04149e+06
-1.04148e+06
-1.04146e+06
-1.04145e+06
-1.04143e+06
-1.04142e+06
-1.0414e+06
-1.04139e+06
-1.04137e+06
-1.04136e+06
-1.04134e+06
-1.04132e+06
-1.04131e+06
-1.04129e+06
-1.04128e+06
-1.04126e+06
-1.04125e+06
-1.04123e+06
-1.04122e+06
-1.0412e+06
-1.04119e+06
-1.04117e+06
-1.04115e+06
-1.04114e+06
-1.04112e+06
-1.04111e+06
-1.04109e+06
-1.04108e+06
-1.04106e+06
-1.04104e+06
-1.04103e+06
-1.04101e+06
-1.041e+06
-1.04098e+06
-1.04097e+06
-1.04095e+06
-1.04094e+06
-1.04092e+06
-1.0409e+06
-1.04089e+06
-1.04087e+06
-1.04086e+06
-1.04084e+06
-1.04083e+06
-1.04081e+06
-1.04079e+06
-1.04078e+06
-1.04076e+06
-1.04075e+06
-1.04073e+06
-1.04072e+06
-1.0407e+06
-1.04068e+06
-1.04067e+06
-1.04065e+06
-1.04064e+06
-1.04062e+06
-1.04061e+06
-1.04059e+06
-1.04057e+06
-1.04056e+06
-1.04054e+06
-1.04053e+06
-1.04051e+06
-1.04049e+06
-1.04048e+06
-1.04046e+06
-1.04045e+06
-1.04043e+06
-1.04042e+06
-1.0404e+06
-1.04038e+06
-1.04037e+06
-1.04035e+06
-1.04034e+06
-1.04032e+06
-1.0403e+06
-1.04029e+06
-1.04027e+06
-1.04026e+06
-1.04024e+06
-1.04022e+06
-1.04021e+06
-1.04019e+06
-1.04018e+06
-1.04016e+06
-1.04014e+06
-1.04013e+06
-1.04011e+06
-1.0401e+06
-1.04008e+06
-1.04006e+06
-1.04005e+06
-1.04003e+06
-1.04002e+06
-1.04e+06
-1.03998e+06
-1.03997e+06
-1.03995e+06
-1.03994e+06
-1.03992e+06
-1.0399e+06
-1.03989e+06
-1.03987e+06
-1.03986e+06
-1.03984e+06
-1.03982e+06
-1.03981e+06
-1.03979e+06
-1.03977e+06
-1.03976e+06
-1.03974e+06
-1.03973e+06
-1.03971e+06
-1.03969e+06
-1.03968e+06
-1.03966e+06
-1.03965e+06
-1.03963e+06
-1.03961e+06
-1.0396e+06
-1.03958e+06
-1.03956e+06
-1.03955e+06
-1.03953e+06
-1.03952e+06
-1.0395e+06
-1.03948e+06
-1.03947e+06
-1.03945e+06
-1.03943e+06
-1.03942e+06
-1.0394e+06
-1.03939e+06
-1.03937e+06
-1.03935e+06
-1.03934e+06
-1.03932e+06
-1.0393e+06
-1.03929e+06
-1.03927e+06
-1.03925e+06
-1.03924e+06
-1.03922e+06
-1.03921e+06
-1.03919e+06
-1.03917e+06
-1.03916e+06
-1.03914e+06
-1.03912e+06
-1.03911e+06
-1.03909e+06
-1.03907e+06
-1.03906e+06
-1.03904e+06
-1.03902e+06
-1.03901e+06
-1.03899e+06
-1.03898e+06
-1.03896e+06
-1.03894e+06
-1.03893e+06
-1.03891e+06
-1.03889e+06
-1.03888e+06
-1.03886e+06
-1.03884e+06
-1.03883e+06
-1.03881e+06
-1.03879e+06
-1.03878e+06
-1.03876e+06
-1.03874e+06
-1.03873e+06
-1.03871e+06
-1.03869e+06
-1.03868e+06
-1.03866e+06
-1.03864e+06
-1.03863e+06
-1.03861e+06
-1.03859e+06
-1.03858e+06
-1.03856e+06
-1.03854e+06
-1.03853e+06
-1.03851e+06
-1.03849e+06
-1.03848e+06
-1.03846e+06
-1.03844e+06
-1.03843e+06
-1.03841e+06
-1.03839e+06
-1.03838e+06
-1.03836e+06
-1.03834e+06
-1.03833e+06
-1.03831e+06
-1.03829e+06
-1.03828e+06
-1.03826e+06
-1.03824e+06
-1.03823e+06
-1.03821e+06
-1.03819e+06
-1.03818e+06
-1.03816e+06
-1.03814e+06
-1.03813e+06
-1.03811e+06
-1.03809e+06
-1.03807e+06
-1.03806e+06
-1.03804e+06
-1.03802e+06
-1.03801e+06
-1.03799e+06
-1.03797e+06
-1.03796e+06
-1.03794e+06
-1.03792e+06
-1.03791e+06
-1.03789e+06
-1.03787e+06
-1.03786e+06
-1.03784e+06
-1.03782e+06
-1.0378e+06
-1.03779e+06
-1.03777e+06
-1.03775e+06
-1.03774e+06
-1.03772e+06
-1.0377e+06
-1.03769e+06
-1.03767e+06
-1.03765e+06
-1.03763e+06
-1.03762e+06
-1.0376e+06
-1.03758e+06
-1.03757e+06
-1.03755e+06
-1.03753e+06
-1.03751e+06
-1.0375e+06
-1.03748e+06
-1.03746e+06
-1.03745e+06
-1.03743e+06
-1.03741e+06
-1.0374e+06
-1.03738e+06
-1.03736e+06
-1.03734e+06
-1.03733e+06
-1.03731e+06
-1.03729e+06
-1.03727e+06
-1.03726e+06
-1.03724e+06
-1.03722e+06
-1.03721e+06
-1.03719e+06
-1.03717e+06
-1.03715e+06
-1.03714e+06
-1.03712e+06
-1.0371e+06
-1.03709e+06
-1.03707e+06
-1.03705e+06
-1.03703e+06
-1.03702e+06
-1.037e+06
-1.03698e+06
-1.03696e+06
-1.03695e+06
-1.03693e+06
-1.03691e+06
-1.0369e+06
-1.03688e+06
-1.03686e+06
-1.03684e+06
-1.03683e+06
-1.03681e+06
-1.03679e+06
-1.03677e+06
-1.03676e+06
-1.03674e+06
-1.03672e+06
-1.0367e+06
-1.03669e+06
-1.03667e+06
-1.03665e+06
-1.03663e+06
-1.03662e+06
-1.0366e+06
-1.03658e+06
-1.03656e+06
-1.03655e+06
-1.03653e+06
-1.03651e+06
-1.03649e+06
-1.03648e+06
-1.03646e+06
-1.03644e+06
-1.03642e+06
-1.03641e+06
-1.03639e+06
-1.03637e+06
-1.03635e+06
-1.03634e+06
-1.03632e+06
-1.0363e+06
-1.03628e+06
-1.03627e+06
-1.03625e+06
-1.03623e+06
-1.03621e+06
-1.0362e+06
-1.03618e+06
-1.03616e+06
-1.03614e+06
-1.03613e+06
-1.03611e+06
-1.03609e+06
-1.03607e+06
-1.03606e+06
-1.03604e+06
-1.03602e+06
-1.036e+06
-1.03598e+06
-1.03597e+06
-1.03595e+06
-1.03593e+06
-1.03591e+06
-1.0359e+06
-1.03588e+06
-1.03586e+06
-1.03584e+06
-1.03582e+06
-1.03581e+06
-1.03579e+06
-1.03577e+06
-1.03575e+06
-1.03574e+06
-1.03572e+06
-1.0357e+06
-1.03568e+06
-1.03566e+06
-1.03565e+06
-1.03563e+06
-1.03561e+06
-1.03559e+06
-1.03558e+06
-1.03556e+06
-1.03554e+06
-1.03552e+06
-1.0355e+06
-1.03549e+06
-1.03547e+06
-1.03545e+06
-1.03543e+06
-1.03541e+06
-1.0354e+06
-1.03538e+06
-1.03536e+06
-1.03534e+06
-1.03532e+06
-1.03531e+06
-1.03529e+06
-1.03527e+06
-1.03525e+06
-1.03523e+06
-1.03522e+06
-1.0352e+06
-1.03518e+06
-1.03516e+06
-1.03514e+06
-1.03513e+06
-1.03511e+06
-1.03509e+06
-1.03507e+06
-1.03505e+06
-1.03504e+06
-1.03502e+06
-1.035e+06
-1.03498e+06
-1.03496e+06
-1.03495e+06
-1.03493e+06
-1.03491e+06
-1.03489e+06
-1.03487e+06
-1.03486e+06
-1.03484e+06
-1.03482e+06
-1.0348e+06
-1.03478e+06
-1.03476e+06
-1.03475e+06
-1.03473e+06
-1.03471e+06
-1.03469e+06
-1.03467e+06
-1.03466e+06
-1.03464e+06
-1.03462e+06
-1.0346e+06
-1.03458e+06
-1.03456e+06
-1.03455e+06
-1.03453e+06
-1.03451e+06
-1.03449e+06
-1.03447e+06
-1.03445e+06
-1.03444e+06
-1.03442e+06
-1.0344e+06
-1.03438e+06
-1.03436e+06
-1.03434e+06
-1.03433e+06
-1.03431e+06
-1.03429e+06
-1.03427e+06
-1.03425e+06
-1.03423e+06
-1.03422e+06
-1.0342e+06
-1.03418e+06
-1.03416e+06
-1.03414e+06
-1.03412e+06
-1.03411e+06
-1.03409e+06
-1.03407e+06
-1.03405e+06
-1.03403e+06
-1.03401e+06
-1.034e+06
-1.03398e+06
-1.03396e+06
-1.03394e+06
-1.03392e+06
-1.0339e+06
-1.03388e+06
-1.03387e+06
-1.03385e+06
-1.03383e+06
-1.03381e+06
-1.03379e+06
-1.03377e+06
-1.03375e+06
-1.03374e+06
-1.03372e+06
-1.0337e+06
-1.03368e+06
-1.03366e+06
-1.03364e+06
-1.03362e+06
-1.03361e+06
-1.03359e+06
-1.03357e+06
-1.03355e+06
-1.03353e+06
-1.03351e+06
-1.03349e+06
-1.03348e+06
-1.03346e+06
-1.03344e+06
-1.03342e+06
-1.0334e+06
-1.03338e+06
-1.03336e+06
-1.03334e+06
-1.03333e+06
-1.03331e+06
-1.03329e+06
-1.03327e+06
-1.03325e+06
-1.03323e+06
-1.03321e+06
-1.03319e+06
-1.03318e+06
-1.03316e+06
-1.03314e+06
-1.03312e+06
-1.0331e+06
-1.03308e+06
-1.03306e+06
-1.03304e+06
-1.03303e+06
-1.03301e+06
-1.03299e+06
-1.03297e+06
-1.03295e+06
-1.03293e+06
-1.03291e+06
-1.03289e+06
-1.03287e+06
-1.03286e+06
-1.03284e+06
-1.03282e+06
-1.0328e+06
-1.03278e+06
-1.03276e+06
-1.03274e+06
-1.03272e+06
-1.0327e+06
-1.03268e+06
-1.03267e+06
-1.03265e+06
-1.03263e+06
-1.03261e+06
-1.03259e+06
-1.03257e+06
-1.03255e+06
-1.03253e+06
-1.03251e+06
-1.03249e+06
-1.03248e+06
-1.03246e+06
-1.03244e+06
-1.03242e+06
-1.0324e+06
-1.03238e+06
-1.03236e+06
-1.03234e+06
-1.03232e+06
-1.0323e+06
-1.03228e+06
-1.03227e+06
-1.03225e+06
-1.03223e+06
-1.03221e+06
-1.03219e+06
-1.03217e+06
-1.03215e+06
-1.03213e+06
-1.03211e+06
-1.03209e+06
-1.03207e+06
-1.03205e+06
-1.03203e+06
-1.03202e+06
-1.032e+06
-1.03198e+06
-1.03196e+06
-1.03194e+06
-1.03192e+06
-1.0319e+06
-1.03188e+06
-1.03186e+06
-1.03184e+06
-1.03182e+06
-1.0318e+06
-1.03178e+06
-1.03176e+06
-1.03174e+06
-1.03172e+06
-1.03171e+06
-1.03169e+06
-1.03167e+06
-1.03165e+06
-1.03163e+06
-1.03161e+06
-1.03159e+06
-1.03157e+06
-1.03155e+06
-1.03153e+06
-1.03151e+06
-1.03149e+06
-1.03147e+06
-1.03145e+06
-1.03143e+06
-1.03141e+06
-1.03139e+06
-1.03137e+06
-1.03135e+06
-1.03133e+06
-1.03131e+06
-1.0313e+06
-1.03128e+06
-1.03126e+06
-1.03124e+06
-1.03122e+06
-1.0312e+06
-1.03118e+06
-1.03116e+06
-1.03114e+06
-1.03112e+06
-1.0311e+06
-1.03108e+06
-1.03106e+06
-1.03104e+06
-1.03102e+06
-1.031e+06
-1.03098e+06
-1.03096e+06
-1.03094e+06
-1.03092e+06
-1.0309e+06
-1.03088e+06
-1.03086e+06
-1.03084e+06
-1.03083e+06
-1.03081e+06
-1.03079e+06
-1.03077e+06
-1.03075e+06
-1.03073e+06
-1.03071e+06
-1.03069e+06
-1.03067e+06
-1.03065e+06
-1.03063e+06
-1.03061e+06
-1.03059e+06
-1.03057e+06
-1.03055e+06
-1.03053e+06
-1.03051e+06
-1.03049e+06
-1.03047e+06
-1.03045e+06
-1.03043e+06
-1.03041e+06
-1.03039e+06
-1.03037e+06
-1.03035e+06
-1.03033e+06
-1.03031e+06
-1.0303e+06
-1.03028e+06
-1.03026e+06
-1.03024e+06
-1.03022e+06
-1.0302e+06
-1.03018e+06
-1.03016e+06
-1.03014e+06
-1.03012e+06
-1.0301e+06
-1.03008e+06
-1.03006e+06
-1.03004e+06
-1.03002e+06
-1.03e+06
-1.02998e+06
-1.02996e+06
-1.02994e+06
-1.02992e+06
-1.0299e+06
-1.02988e+06
-1.02986e+06
-1.02984e+06
-1.02982e+06
-1.0298e+06
-1.02978e+06
-1.02976e+06
-1.02974e+06
-1.02972e+06
-1.0297e+06
-1.02968e+06
-1.02966e+06
-1.02964e+06
-1.02962e+06
-1.0296e+06
-1.02958e+06
-1.02956e+06
-1.02954e+06
-1.02952e+06
-1.0295e+06
-1.02948e+06
-1.02946e+06
-1.02944e+06
-1.02942e+06
-1.0294e+06
-1.02938e+06
-1.02936e+06
-1.02934e+06
-1.02932e+06
-1.0293e+06
-1.02928e+06
-1.02926e+06
-1.02924e+06
-1.02922e+06
-1.0292e+06
-1.02917e+06
-1.02915e+06
-1.02913e+06
-1.02911e+06
-1.02909e+06
-1.02907e+06
-1.02905e+06
-1.02903e+06
-1.02901e+06
-1.02899e+06
-1.02897e+06
-1.02895e+06
-1.02893e+06
-1.02891e+06
-1.02889e+06
-1.02887e+06
-1.02885e+06
-1.02883e+06
-1.02881e+06
-1.02879e+06
-1.02877e+06
-1.02875e+06
-1.02873e+06
-1.02871e+06
-1.02869e+06
-1.02866e+06
-1.02864e+06
-1.02862e+06
-1.0286e+06
-1.02858e+06
-1.02856e+06
-1.02854e+06
-1.02852e+06
-1.0285e+06
-1.02848e+06
-1.02846e+06
-1.02844e+06
-1.02842e+06
-1.0284e+06
-1.02838e+06
-1.02836e+06
-1.02834e+06
-1.02832e+06
-1.02829e+06
-1.02827e+06
-1.02825e+06
-1.02823e+06
-1.02821e+06
-1.02819e+06
-1.02817e+06
-1.02815e+06
-1.02813e+06
-1.02811e+06
-1.02809e+06
-1.02807e+06
-1.02805e+06
-1.02803e+06
-1.02801e+06
-1.02798e+06
-1.02796e+06
-1.02794e+06
-1.02792e+06
-1.0279e+06
-1.02788e+06
-1.02786e+06
-1.02784e+06
-1.02782e+06
-1.0278e+06
-1.02778e+06
-1.02776e+06
-1.02774e+06
-1.02771e+06
-1.02769e+06
-1.02767e+06
-1.02765e+06
-1.02763e+06
-1.02761e+06
-1.02759e+06
-1.02757e+06
-1.02755e+06
-1.02753e+06
-1.02751e+06
-1.02749e+06
-1.02746e+06
-1.02744e+06
-1.02742e+06
-1.0274e+06
-1.02738e+06
-1.02736e+06
-1.02734e+06
-1.02732e+06
-1.0273e+06
-1.02728e+06
-1.02726e+06
-1.02723e+06
-1.02721e+06
-1.02719e+06
-1.02717e+06
-1.02715e+06
-1.02713e+06
-1.02711e+06
-1.02709e+06
-1.02707e+06
-1.02705e+06
-1.02702e+06
-1.027e+06
-1.02698e+06
-1.02696e+06
-1.02694e+06
-1.02692e+06
-1.0269e+06
-1.02688e+06
-1.02686e+06
-1.02683e+06
-1.02681e+06
-1.02679e+06
-1.02677e+06
-1.02675e+06
-1.02673e+06
-1.02671e+06
-1.02669e+06
-1.02667e+06
-1.02664e+06
-1.02662e+06
-1.0266e+06
-1.02658e+06
-1.02656e+06
-1.02654e+06
-1.02652e+06
-1.0265e+06
-1.02647e+06
-1.02645e+06
-1.02643e+06
-1.02641e+06
-1.02639e+06
-1.02637e+06
-1.02635e+06
-1.02633e+06
-1.0263e+06
-1.02628e+06
-1.02626e+06
-1.02624e+06
-1.02622e+06
-1.0262e+06
-1.02618e+06
-1.02616e+06
-1.02613e+06
-1.02611e+06
-1.02609e+06
-1.02607e+06
-1.02605e+06
-1.02603e+06
-1.02601e+06
-1.02598e+06
-1.02596e+06
-1.02594e+06
-1.02592e+06
-1.0259e+06
-1.02588e+06
-1.02586e+06
-1.02583e+06
-1.02581e+06
-1.02579e+06
-1.02577e+06
-1.02575e+06
-1.02573e+06
-1.02571e+06
-1.02568e+06
-1.02566e+06
-1.02564e+06
-1.02562e+06
-1.0256e+06
-1.02558e+06
-1.02555e+06
-1.02553e+06
-1.02551e+06
-1.02549e+06
-1.02547e+06
-1.02545e+06
-1.02542e+06
-1.0254e+06
-1.02538e+06
-1.02536e+06
-1.02534e+06
-1.02532e+06
-1.0253e+06
-1.02527e+06
-1.02525e+06
-1.02523e+06
-1.02521e+06
-1.02519e+06
-1.02516e+06
-1.02514e+06
-1.02512e+06
-1.0251e+06
-1.02508e+06
-1.02506e+06
-1.02503e+06
-1.02501e+06
-1.02499e+06
-1.02497e+06
-1.02495e+06
-1.02493e+06
-1.0249e+06
-1.02488e+06
-1.02486e+06
-1.02484e+06
-1.02482e+06
-1.02479e+06
-1.02477e+06
-1.02475e+06
-1.02473e+06
-1.02471e+06
-1.02469e+06
-1.02466e+06
-1.02464e+06
-1.02462e+06
-1.0246e+06
-1.02458e+06
-1.02455e+06
-1.02453e+06
-1.02451e+06
-1.02449e+06
-1.02447e+06
-1.02444e+06
-1.02442e+06
-1.0244e+06
-1.02438e+06
-1.02436e+06
-1.02433e+06
-1.02431e+06
-1.02429e+06
-1.02427e+06
-1.02425e+06
-1.02422e+06
-1.0242e+06
-1.02418e+06
-1.02416e+06
-1.02414e+06
-1.02411e+06
-1.02409e+06
-1.02407e+06
-1.02405e+06
-1.02403e+06
-1.024e+06
-1.02398e+06
-1.02396e+06
-1.02394e+06
-1.02392e+06
-1.02389e+06
-1.02387e+06
-1.02385e+06
-1.02383e+06
-1.0238e+06
-1.02378e+06
-1.02376e+06
-1.02374e+06
-1.02372e+06
-1.02369e+06
-1.02367e+06
-1.02365e+06
-1.02363e+06
-1.0236e+06
-1.02358e+06
-1.02356e+06
-1.02354e+06
-1.02352e+06
-1.02349e+06
-1.02347e+06
-1.02345e+06
-1.02343e+06
-1.0234e+06
-1.02338e+06
-1.02336e+06
-1.02334e+06
-1.02331e+06
-1.02329e+06
-1.02327e+06
-1.02325e+06
-1.02322e+06
-1.0232e+06
-1.02318e+06
-1.02316e+06
-1.02314e+06
-1.02311e+06
-1.02309e+06
-1.02307e+06
-1.02305e+06
-1.02302e+06
-1.023e+06
-1.02298e+06
-1.02296e+06
-1.02293e+06
-1.02291e+06
-1.02289e+06
-1.02287e+06
-1.02284e+06
-1.02282e+06
-1.0228e+06
-1.02278e+06
-1.02275e+06
-1.02273e+06
-1.02271e+06
-1.02269e+06
-1.02266e+06
-1.02264e+06
-1.02262e+06
-1.02259e+06
-1.02257e+06
-1.02255e+06
-1.02253e+06
-1.0225e+06
-1.02248e+06
-1.02246e+06
-1.02244e+06
-1.02241e+06
-1.02239e+06
-1.02237e+06
-1.02235e+06
-1.02232e+06
-1.0223e+06
-1.02228e+06
-1.02225e+06
-1.02223e+06
-1.02221e+06
-1.02219e+06
-1.02216e+06
-1.02214e+06
-1.02212e+06
-1.0221e+06
-1.02207e+06
-1.02205e+06
-1.02203e+06
-1.022e+06
-1.02198e+06
-1.02196e+06
-1.02194e+06
-1.02191e+06
-1.02189e+06
-1.02187e+06
-1.02184e+06
-1.02182e+06
-1.0218e+06
-1.02178e+06
-1.02175e+06
-1.02173e+06
-1.02171e+06
-1.02168e+06
-1.02166e+06
-1.02164e+06
-1.02161e+06
-1.02159e+06
-1.02157e+06
-1.02155e+06
-1.02152e+06
-1.0215e+06
-1.02148e+06
-1.02145e+06
-1.02143e+06
-1.02141e+06
-1.02138e+06
-1.02136e+06
-1.02134e+06
-1.02132e+06
-1.02129e+06
-1.02127e+06
-1.02125e+06
-1.02122e+06
-1.0212e+06
-1.02118e+06
-1.02115e+06
-1.02113e+06
-1.02111e+06
-1.02108e+06
-1.02106e+06
-1.02104e+06
-1.02102e+06
-1.02099e+06
-1.02097e+06
-1.02095e+06
-1.02092e+06
-1.0209e+06
-1.02088e+06
-1.02085e+06
-1.02083e+06
-1.02081e+06
-1.02078e+06
-1.02076e+06
-1.02074e+06
-1.02071e+06
-1.02069e+06
-1.02067e+06
-1.02064e+06
-1.02062e+06
-1.0206e+06
-1.02057e+06
-1.02055e+06
-1.02053e+06
-1.0205e+06
-1.02048e+06
-1.02046e+06
-1.02043e+06
-1.02041e+06
-1.02039e+06
-1.02036e+06
-1.02034e+06
-1.02032e+06
-1.02029e+06
-1.02027e+06
-1.02025e+06
-1.02022e+06
-1.0202e+06
-1.02018e+06
-1.02015e+06
-1.02013e+06
-1.02011e+06
-1.02008e+06
-1.02006e+06
-1.02003e+06
-1.02001e+06
-1.01999e+06
-1.01996e+06
-1.01994e+06
-1.01992e+06
-1.01989e+06
-1.01987e+06
-1.01985e+06
-1.01982e+06
-1.0198e+06
-1.01978e+06
-1.01975e+06
-1.01973e+06
-1.0197e+06
-1.01968e+06
-1.01966e+06
-1.01963e+06
-1.01961e+06
-1.01959e+06
-1.01956e+06
-1.01954e+06
-1.01952e+06
-1.01949e+06
-1.01947e+06
-1.01944e+06
-1.01942e+06
-1.0194e+06
-1.01937e+06
-1.01935e+06
-1.01933e+06
-1.0193e+06
-1.01928e+06
-1.01925e+06
-1.01923e+06
-1.01921e+06
-1.01918e+06
-1.01916e+06
-1.01913e+06
-1.01911e+06
-1.01909e+06