/*--------------------------------*- C++ -*----------------------------------*\
  =========                 |
  \\      /  F ield         | OpenFOAM: The Open Source CFD Toolbox
   \\    /   O peration     | Website:  https://openfoam.org
    \\  /    A nd           | Version:  9
     \\/     M anipulation  |
\*---------------------------------------------------------------------------*/
FoamFile
{
    format      ascii;
    class       volScalarField;
    location    "0.031";
    object      rho_0;
}
// * * * * * * * * * * * * * * * * * * * * * * * * * * * * * * * * * * * * * //

dimensions      [1 -3 0 0 0 0 0];

internalField   nonuniform List<scalar> 
10000
(
0.292593
0.292588
0.292581
0.292573
0.292566
0.292559
0.292552
0.292544
0.292537
0.29253
0.292523
0.292516
0.292508
0.292501
0.292494
0.292487
0.29248
0.292473
0.292465
0.292458
0.292451
0.292444
0.292437
0.29243
0.292423
0.292416
0.292408
0.292401
0.292394
0.292387
0.29238
0.292373
0.292366
0.292359
0.292352
0.292344
0.292337
0.29233
0.292323
0.292317
0.29231
0.292303
0.292296
0.292288
0.292281
0.292274
0.292267
0.29226
0.292254
0.292247
0.292241
0.292234
0.292227
0.292219
0.292212
0.292204
0.292197
0.29219
0.292184
0.292177
0.292171
0.292165
0.292159
0.292153
0.292146
0.29214
0.292132
0.292125
0.292117
0.29211
0.292102
0.292094
0.292087
0.29208
0.292073
0.292067
0.292062
0.292057
0.292053
0.292049
0.292045
0.292042
0.292039
0.292036
0.292034
0.292032
0.292029
0.292027
0.292025
0.292022
0.29202
0.292019
0.292017
0.292015
0.292014
0.292012
0.29201
0.292009
0.292007
0.292006
0.292004
0.292002
0.292001
0.291999
0.291997
0.291996
0.291994
0.291992
0.291991
0.291989
0.291987
0.291986
0.291984
0.291982
0.291981
0.291979
0.291977
0.291976
0.291974
0.291972
0.291971
0.291969
0.291967
0.291966
0.291964
0.291962
0.291961
0.291959
0.291957
0.291956
0.291954
0.291952
0.291951
0.291949
0.291947
0.291946
0.291944
0.291942
0.291941
0.291939
0.291937
0.291936
0.291934
0.291932
0.291931
0.291929
0.291927
0.291926
0.291924
0.291922
0.291921
0.291919
0.291917
0.291916
0.291914
0.291912
0.291911
0.291909
0.291907
0.291906
0.291904
0.291902
0.2919
0.291899
0.291897
0.291895
0.291894
0.291892
0.29189
0.291889
0.291887
0.291885
0.291884
0.291882
0.29188
0.291879
0.291877
0.291875
0.291873
0.291872
0.29187
0.291868
0.291867
0.291865
0.291863
0.291862
0.29186
0.291858
0.291857
0.291855
0.291853
0.291851
0.29185
0.291848
0.291846
0.291845
0.291843
0.291841
0.29184
0.291838
0.291836
0.291835
0.291833
0.291831
0.291829
0.291828
0.291826
0.291824
0.291823
0.291821
0.291819
0.291817
0.291816
0.291814
0.291812
0.291811
0.291809
0.291807
0.291806
0.291804
0.291802
0.2918
0.291799
0.291797
0.291795
0.291794
0.291792
0.29179
0.291788
0.291787
0.291785
0.291783
0.291782
0.29178
0.291778
0.291776
0.291775
0.291773
0.291771
0.29177
0.291768
0.291766
0.291764
0.291763
0.291761
0.291759
0.291758
0.291756
0.291754
0.291752
0.291751
0.291749
0.291747
0.291746
0.291744
0.291742
0.29174
0.291739
0.291737
0.291735
0.291733
0.291732
0.29173
0.291728
0.291727
0.291725
0.291723
0.291721
0.29172
0.291718
0.291716
0.291714
0.291713
0.291711
0.291709
0.291708
0.291706
0.291704
0.291702
0.291701
0.291699
0.291697
0.291695
0.291694
0.291692
0.29169
0.291688
0.291687
0.291685
0.291683
0.291681
0.29168
0.291678
0.291676
0.291675
0.291673
0.291671
0.291669
0.291668
0.291666
0.291664
0.291662
0.291661
0.291659
0.291657
0.291655
0.291654
0.291652
0.29165
0.291648
0.291647
0.291645
0.291643
0.291641
0.29164
0.291638
0.291636
0.291634
0.291633
0.291631
0.291629
0.291627
0.291626
0.291624
0.291622
0.29162
0.291619
0.291617
0.291615
0.291613
0.291612
0.29161
0.291608
0.291606
0.291605
0.291603
0.291601
0.291599
0.291597
0.291596
0.291594
0.291592
0.29159
0.291589
0.291587
0.291585
0.291583
0.291582
0.29158
0.291578
0.291576
0.291575
0.291573
0.291571
0.291569
0.291567
0.291566
0.291564
0.291562
0.29156
0.291559
0.291557
0.291555
0.291553
0.291552
0.29155
0.291548
0.291546
0.291544
0.291543
0.291541
0.291539
0.291537
0.291536
0.291534
0.291532
0.29153
0.291528
0.291527
0.291525
0.291523
0.291521
0.29152
0.291518
0.291516
0.291514
0.291512
0.291511
0.291509
0.291507
0.291505
0.291504
0.291502
0.2915
0.291498
0.291496
0.291495
0.291493
0.291491
0.291489
0.291487
0.291486
0.291484
0.291482
0.29148
0.291479
0.291477
0.291475
0.291473
0.291471
0.29147
0.291468
0.291466
0.291464
0.291462
0.291461
0.291459
0.291457
0.291455
0.291453
0.291452
0.29145
0.291448
0.291446
0.291444
0.291443
0.291441
0.291439
0.291437
0.291435
0.291434
0.291432
0.29143
0.291428
0.291426
0.291425
0.291423
0.291421
0.291419
0.291417
0.291416
0.291414
0.291412
0.29141
0.291408
0.291407
0.291405
0.291403
0.291401
0.291399
0.291397
0.291396
0.291394
0.291392
0.29139
0.291388
0.291387
0.291385
0.291383
0.291381
0.291379
0.291378
0.291376
0.291374
0.291372
0.29137
0.291368
0.291367
0.291365
0.291363
0.291361
0.291359
0.291358
0.291356
0.291354
0.291352
0.29135
0.291348
0.291347
0.291345
0.291343
0.291341
0.291339
0.291337
0.291336
0.291334
0.291332
0.29133
0.291328
0.291327
0.291325
0.291323
0.291321
0.291319
0.291317
0.291316
0.291314
0.291312
0.29131
0.291308
0.291306
0.291305
0.291303
0.291301
0.291299
0.291297
0.291295
0.291294
0.291292
0.29129
0.291288
0.291286
0.291284
0.291283
0.291281
0.291279
0.291277
0.291275
0.291273
0.291271
0.29127
0.291268
0.291266
0.291264
0.291262
0.29126
0.291259
0.291257
0.291255
0.291253
0.291251
0.291249
0.291247
0.291246
0.291244
0.291242
0.29124
0.291238
0.291236
0.291235
0.291233
0.291231
0.291229
0.291227
0.291225
0.291223
0.291222
0.29122
0.291218
0.291216
0.291214
0.291212
0.29121
0.291209
0.291207
0.291205
0.291203
0.291201
0.291199
0.291197
0.291196
0.291194
0.291192
0.29119
0.291188
0.291186
0.291184
0.291183
0.291181
0.291179
0.291177
0.291175
0.291173
0.291171
0.291169
0.291168
0.291166
0.291164
0.291162
0.29116
0.291158
0.291156
0.291155
0.291153
0.291151
0.291149
0.291147
0.291145
0.291143
0.291141
0.29114
0.291138
0.291136
0.291134
0.291132
0.29113
0.291128
0.291126
0.291125
0.291123
0.291121
0.291119
0.291117
0.291115
0.291113
0.291111
0.291109
0.291108
0.291106
0.291104
0.291102
0.2911
0.291098
0.291096
0.291094
0.291093
0.291091
0.291089
0.291087
0.291085
0.291083
0.291081
0.291079
0.291077
0.291076
0.291074
0.291072
0.29107
0.291068
0.291066
0.291064
0.291062
0.29106
0.291059
0.291057
0.291055
0.291053
0.291051
0.291049
0.291047
0.291045
0.291043
0.291041
0.29104
0.291038
0.291036
0.291034
0.291032
0.29103
0.291028
0.291026
0.291024
0.291022
0.291021
0.291019
0.291017
0.291015
0.291013
0.291011
0.291009
0.291007
0.291005
0.291003
0.291002
0.291
0.290998
0.290996
0.290994
0.290992
0.29099
0.290988
0.290986
0.290984
0.290982
0.29098
0.290979
0.290977
0.290975
0.290973
0.290971
0.290969
0.290967
0.290965
0.290963
0.290961
0.290959
0.290958
0.290956
0.290954
0.290952
0.29095
0.290948
0.290946
0.290944
0.290942
0.29094
0.290938
0.290936
0.290934
0.290933
0.290931
0.290929
0.290927
0.290925
0.290923
0.290921
0.290919
0.290917
0.290915
0.290913
0.290911
0.290909
0.290907
0.290906
0.290904
0.290902
0.2909
0.290898
0.290896
0.290894
0.290892
0.29089
0.290888
0.290886
0.290884
0.290882
0.29088
0.290878
0.290877
0.290875
0.290873
0.290871
0.290869
0.290867
0.290865
0.290863
0.290861
0.290859
0.290857
0.290855
0.290853
0.290851
0.290849
0.290847
0.290845
0.290844
0.290842
0.29084
0.290838
0.290836
0.290834
0.290832
0.29083
0.290828
0.290826
0.290824
0.290822
0.29082
0.290818
0.290816
0.290814
0.290812
0.29081
0.290808
0.290806
0.290805
0.290803
0.290801
0.290799
0.290797
0.290795
0.290793
0.290791
0.290789
0.290787
0.290785
0.290783
0.290781
0.290779
0.290777
0.290775
0.290773
0.290771
0.290769
0.290767
0.290765
0.290763
0.290761
0.290759
0.290757
0.290756
0.290754
0.290752
0.29075
0.290748
0.290746
0.290744
0.290742
0.29074
0.290738
0.290736
0.290734
0.290732
0.29073
0.290728
0.290726
0.290724
0.290722
0.29072
0.290718
0.290716
0.290714
0.290712
0.29071
0.290708
0.290706
0.290704
0.290702
0.2907
0.290698
0.290696
0.290694
0.290692
0.29069
0.290688
0.290686
0.290684
0.290682
0.29068
0.290678
0.290677
0.290675
0.290673
0.290671
0.290669
0.290667
0.290665
0.290663
0.290661
0.290659
0.290657
0.290655
0.290653
0.290651
0.290649
0.290647
0.290645
0.290643
0.290641
0.290639
0.290637
0.290635
0.290633
0.290631
0.290629
0.290627
0.290625
0.290623
0.290621
0.290619
0.290617
0.290615
0.290613
0.290611
0.290609
0.290607
0.290605
0.290603
0.290601
0.290599
0.290597
0.290595
0.290593
0.290591
0.290589
0.290587
0.290585
0.290583
0.290581
0.290579
0.290577
0.290575
0.290573
0.290571
0.290569
0.290567
0.290565
0.290562
0.290561
0.290558
0.290557
0.290555
0.290553
0.290551
0.290548
0.290547
0.290544
0.290543
0.29054
0.290539
0.290536
0.290534
0.290532
0.29053
0.290529
0.290526
0.290524
0.290522
0.29052
0.290518
0.290516
0.290514
0.290512
0.29051
0.290508
0.290506
0.290504
0.290502
0.2905
0.290498
0.290496
0.290494
0.290492
0.29049
0.290488
0.290486
0.290484
0.290482
0.29048
0.290478
0.290476
0.290474
0.290472
0.29047
0.290468
0.290466
0.290463
0.290462
0.290459
0.290457
0.290455
0.290453
0.290451
0.290449
0.290447
0.290445
0.290443
0.290441
0.290439
0.290437
0.290435
0.290433
0.290431
0.290429
0.290427
0.290425
0.290423
0.290421
0.290419
0.290417
0.290415
0.290412
0.290411
0.290408
0.290407
0.290404
0.290402
0.2904
0.290398
0.290396
0.290394
0.290392
0.29039
0.290388
0.290386
0.290384
0.290382
0.29038
0.290378
0.290376
0.290374
0.290371
0.29037
0.290367
0.290365
0.290363
0.290361
0.290359
0.290357
0.290355
0.290353
0.290351
0.290349
0.290347
0.290345
0.290343
0.29034
0.290339
0.290337
0.290334
0.290333
0.29033
0.290328
0.290326
0.290324
0.290322
0.29032
0.290318
0.290316
0.290314
0.290312
0.29031
0.290307
0.290306
0.290303
0.290301
0.290299
0.290297
0.290295
0.290293
0.290291
0.290289
0.290287
0.290285
0.290283
0.29028
0.290279
0.290277
0.290274
0.290272
0.29027
0.290268
0.290266
0.290264
0.290262
0.29026
0.290258
0.290256
0.290254
0.290251
0.29025
0.290247
0.290245
0.290243
0.290241
0.290239
0.290237
0.290235
0.290233
0.290231
0.290228
0.290227
0.290224
0.290222
0.29022
0.290218
0.290216
0.290214
0.290212
0.29021
0.290208
0.290205
0.290204
0.290201
0.290199
0.290197
0.290195
0.290193
0.290191
0.290189
0.290187
0.290185
0.290182
0.290181
0.290178
0.290176
0.290174
0.290172
0.29017
0.290168
0.290166
0.290164
0.290162
0.290159
0.290157
0.290155
0.290153
0.290151
0.290149
0.290147
0.290145
0.290143
0.29014
0.290139
0.290136
0.290134
0.290132
0.29013
0.290128
0.290126
0.290123
0.290122
0.290119
0.290117
0.290115
0.290113
0.290111
0.290109
0.290107
0.290104
0.290103
0.2901
0.290098
0.290096
0.290094
0.290092
0.29009
0.290088
0.290086
0.290084
0.290081
0.290079
0.290077
0.290075
0.290073
0.290071
0.290068
0.290067
0.290064
0.290062
0.29006
0.290058
0.290056
0.290054
0.290052
0.290049
0.290047
0.290045
0.290043
0.290041
0.290039
0.290037
0.290035
0.290032
0.29003
0.290028
0.290026
0.290024
0.290022
0.290019
0.290017
0.290015
0.290013
0.290011
0.290009
0.290007
0.290005
0.290003
0.29
0.289998
0.289996
0.289994
0.289992
0.28999
0.289987
0.289985
0.289983
0.289981
0.289979
0.289977
0.289975
0.289972
0.289971
0.289968
0.289966
0.289964
0.289962
0.28996
0.289958
0.289955
0.289953
0.289951
0.289949
0.289947
0.289945
0.289942
0.28994
0.289938
0.289936
0.289934
0.289932
0.289929
0.289927
0.289925
0.289923
0.289921
0.289919
0.289917
0.289914
0.289912
0.28991
0.289908
0.289906
0.289904
0.289901
0.289899
0.289897
0.289895
0.289893
0.289891
0.289888
0.289886
0.289884
0.289882
0.28988
0.289878
0.289875
0.289873
0.289871
0.289869
0.289867
0.289865
0.289862
0.28986
0.289858
0.289856
0.289854
0.289852
0.289849
0.289847
0.289845
0.289843
0.289841
0.289839
0.289836
0.289834
0.289832
0.28983
0.289828
0.289826
0.289823
0.289821
0.289819
0.289817
0.289815
0.289813
0.28981
0.289808
0.289806
0.289804
0.289802
0.289799
0.289797
0.289795
0.289793
0.289791
0.289788
0.289786
0.289784
0.289782
0.28978
0.289778
0.289775
0.289773
0.289771
0.289769
0.289767
0.289764
0.289762
0.28976
0.289758
0.289756
0.289753
0.289751
0.289749
0.289747
0.289745
0.289743
0.28974
0.289738
0.289736
0.289734
0.289731
0.289729
0.289727
0.289725
0.289723
0.289721
0.289718
0.289716
0.289714
0.289712
0.289709
0.289707
0.289705
0.289703
0.289701
0.289699
0.289696
0.289694
0.289692
0.28969
0.289687
0.289685
0.289683
0.289681
0.289679
0.289677
0.289674
0.289672
0.28967
0.289668
0.289665
0.289663
0.289661
0.289659
0.289657
0.289654
0.289652
0.28965
0.289648
0.289645
0.289643
0.289641
0.289639
0.289637
0.289634
0.289632
0.28963
0.289628
0.289626
0.289623
0.289621
0.289619
0.289617
0.289614
0.289612
0.28961
0.289608
0.289606
0.289603
0.289601
0.289599
0.289597
0.289594
0.289592
0.28959
0.289588
0.289585
0.289583
0.289581
0.289579
0.289576
0.289574
0.289572
0.28957
0.289568
0.289565
0.289563
0.289561
0.289559
0.289556
0.289554
0.289552
0.28955
0.289547
0.289545
0.289543
0.289541
0.289539
0.289536
0.289534
0.289532
0.28953
0.289527
0.289525
0.289523
0.289521
0.289518
0.289516
0.289514
0.289512
0.289509
0.289507
0.289505
0.289503
0.2895
0.289498
0.289496
0.289494
0.289491
0.289489
0.289487
0.289485
0.289482
0.28948
0.289478
0.289476
0.289473
0.289471
0.289469
0.289467
0.289464
0.289462
0.28946
0.289458
0.289455
0.289453
0.289451
0.289449
0.289446
0.289444
0.289442
0.28944
0.289437
0.289435
0.289433
0.289431
0.289428
0.289426
0.289424
0.289422
0.289419
0.289417
0.289415
0.289412
0.28941
0.289408
0.289406
0.289403
0.289401
0.289399
0.289397
0.289394
0.289392
0.28939
0.289387
0.289385
0.289383
0.289381
0.289378
0.289376
0.289374
0.289372
0.289369
0.289367
0.289365
0.289362
0.28936
0.289358
0.289356
0.289353
0.289351
0.289349
0.289347
0.289344
0.289342
0.28934
0.289337
0.289335
0.289333
0.289331
0.289328
0.289326
0.289324
0.289321
0.289319
0.289317
0.289315
0.289312
0.28931
0.289308
0.289305
0.289303
0.289301
0.289299
0.289296
0.289294
0.289292
0.289289
0.289287
0.289285
0.289283
0.28928
0.289278
0.289276
0.289273
0.289271
0.289269
0.289266
0.289264
0.289262
0.28926
0.289257
0.289255
0.289253
0.28925
0.289248
0.289246
0.289243
0.289241
0.289239
0.289237
0.289234
0.289232
0.28923
0.289227
0.289225
0.289223
0.28922
0.289218
0.289216
0.289213
0.289211
0.289209
0.289207
0.289204
0.289202
0.2892
0.289197
0.289195
0.289193
0.28919
0.289188
0.289186
0.289183
0.289181
0.289179
0.289177
0.289174
0.289172
0.28917
0.289167
0.289165
0.289163
0.28916
0.289158
0.289156
0.289153
0.289151
0.289149
0.289146
0.289144
0.289142
0.289139
0.289137
0.289135
0.289132
0.28913
0.289128
0.289126
0.289123
0.289121
0.289119
0.289116
0.289114
0.289112
0.289109
0.289107
0.289105
0.289102
0.2891
0.289098
0.289095
0.289093
0.289091
0.289088
0.289086
0.289084
0.289081
0.289079
0.289077
0.289074
0.289072
0.28907
0.289067
0.289065
0.289063
0.28906
0.289058
0.289056
0.289053
0.289051
0.289049
0.289046
0.289044
0.289041
0.289039
0.289037
0.289034
0.289032
0.28903
0.289027
0.289025
0.289023
0.28902
0.289018
0.289016
0.289013
0.289011
0.289009
0.289006
0.289004
0.289002
0.288999
0.288997
0.288995
0.288992
0.28899
0.288987
0.288985
0.288983
0.28898
0.288978
0.288976
0.288973
0.288971
0.288969
0.288966
0.288964
0.288962
0.288959
0.288957
0.288954
0.288952
0.28895
0.288947
0.288945
0.288943
0.28894
0.288938
0.288936
0.288933
0.288931
0.288928
0.288926
0.288924
0.288921
0.288919
0.288917
0.288914
0.288912
0.28891
0.288907
0.288905
0.288902
0.2889
0.288898
0.288895
0.288893
0.288891
0.288888
0.288886
0.288883
0.288881
0.288879
0.288876
0.288874
0.288872
0.288869
0.288867
0.288864
0.288862
0.28886
0.288857
0.288855
0.288853
0.28885
0.288848
0.288845
0.288843
0.288841
0.288838
0.288836
0.288834
0.288831
0.288829
0.288826
0.288824
0.288822
0.288819
0.288817
0.288814
0.288812
0.28881
0.288807
0.288805
0.288802
0.2888
0.288798
0.288795
0.288793
0.288791
0.288788
0.288786
0.288783
0.288781
0.288779
0.288776
0.288774
0.288771
0.288769
0.288767
0.288764
0.288762
0.288759
0.288757
0.288755
0.288752
0.28875
0.288747
0.288745
0.288743
0.28874
0.288738
0.288735
0.288733
0.288731
0.288728
0.288726
0.288723
0.288721
0.288719
0.288716
0.288714
0.288711
0.288709
0.288706
0.288704
0.288702
0.288699
0.288697
0.288694
0.288692
0.28869
0.288687
0.288685
0.288682
0.28868
0.288678
0.288675
0.288673
0.28867
0.288668
0.288665
0.288663
0.288661
0.288658
0.288656
0.288653
0.288651
0.288648
0.288646
0.288644
0.288641
0.288639
0.288636
0.288634
0.288632
0.288629
0.288627
0.288624
0.288622
0.288619
0.288617
0.288615
0.288612
0.28861
0.288607
0.288605
0.288602
0.2886
0.288598
0.288595
0.288593
0.28859
0.288588
0.288585
0.288583
0.288581
0.288578
0.288576
0.288573
0.288571
0.288568
0.288566
0.288563
0.288561
0.288559
0.288556
0.288554
0.288551
0.288549
0.288546
0.288544
0.288542
0.288539
0.288537
0.288534
0.288532
0.288529
0.288527
0.288524
0.288522
0.28852
0.288517
0.288515
0.288512
0.28851
0.288507
0.288505
0.288502
0.2885
0.288497
0.288495
0.288493
0.28849
0.288488
0.288485
0.288483
0.28848
0.288478
0.288475
0.288473
0.288471
0.288468
0.288466
0.288463
0.288461
0.288458
0.288456
0.288453
0.288451
0.288448
0.288446
0.288443
0.288441
0.288439
0.288436
0.288434
0.288431
0.288429
0.288426
0.288424
0.288421
0.288419
0.288416
0.288414
0.288411
0.288409
0.288407
0.288404
0.288402
0.288399
0.288397
0.288394
0.288392
0.288389
0.288387
0.288384
0.288382
0.288379
0.288377
0.288374
0.288372
0.288369
0.288367
0.288365
0.288362
0.28836
0.288357
0.288355
0.288352
0.28835
0.288347
0.288345
0.288342
0.28834
0.288337
0.288335
0.288332
0.28833
0.288327
0.288325
0.288322
0.28832
0.288317
0.288315
0.288312
0.28831
0.288307
0.288305
0.288302
0.2883
0.288297
0.288295
0.288293
0.28829
0.288288
0.288285
0.288283
0.28828
0.288278
0.288275
0.288273
0.28827
0.288268
0.288265
0.288263
0.28826
0.288258
0.288255
0.288253
0.28825
0.288248
0.288245
0.288243
0.28824
0.288238
0.288235
0.288233
0.28823
0.288228
0.288225
0.288223
0.28822
0.288218
0.288215
0.288213
0.28821
0.288208
0.288205
0.288203
0.2882
0.288198
0.288195
0.288193
0.28819
0.288188
0.288185
0.288183
0.28818
0.288178
0.288175
0.288172
0.28817
0.288167
0.288165
0.288162
0.28816
0.288157
0.288155
0.288152
0.28815
0.288147
0.288145
0.288142
0.28814
0.288137
0.288135
0.288132
0.28813
0.288127
0.288125
0.288122
0.28812
0.288117
0.288115
0.288112
0.28811
0.288107
0.288105
0.288102
0.288099
0.288097
0.288094
0.288092
0.288089
0.288087
0.288084
0.288082
0.288079
0.288077
0.288074
0.288072
0.288069
0.288067
0.288064
0.288062
0.288059
0.288056
0.288054
0.288051
0.288049
0.288046
0.288044
0.288041
0.288039
0.288036
0.288034
0.288031
0.288029
0.288026
0.288023
0.288021
0.288018
0.288016
0.288013
0.288011
0.288008
0.288006
0.288003
0.288001
0.287998
0.287996
0.287993
0.28799
0.287988
0.287985
0.287983
0.28798
0.287978
0.287975
0.287973
0.28797
0.287968
0.287965
0.287962
0.28796
0.287957
0.287955
0.287952
0.28795
0.287947
0.287945
0.287942
0.287939
0.287937
0.287934
0.287932
0.287929
0.287927
0.287924
0.287922
0.287919
0.287916
0.287914
0.287911
0.287909
0.287906
0.287904
0.287901
0.287899
0.287896
0.287893
0.287891
0.287888
0.287886
0.287883
0.287881
0.287878
0.287875
0.287873
0.28787
0.287868
0.287865
0.287863
0.28786
0.287857
0.287855
0.287852
0.28785
0.287847
0.287845
0.287842
0.287839
0.287837
0.287834
0.287832
0.287829
0.287827
0.287824
0.287821
0.287819
0.287816
0.287814
0.287811
0.287809
0.287806
0.287803
0.287801
0.287798
0.287796
0.287793
0.287791
0.287788
0.287785
0.287783
0.28778
0.287778
0.287775
0.287772
0.28777
0.287767
0.287765
0.287762
0.28776
0.287757
0.287754
0.287752
0.287749
0.287747
0.287744
0.287741
0.287739
0.287736
0.287734
0.287731
0.287728
0.287726
0.287723
0.287721
0.287718
0.287715
0.287713
0.28771
0.287708
0.287705
0.287703
0.2877
0.287697
0.287695
0.287692
0.28769
0.287687
0.287684
0.287682
0.287679
0.287677
0.287674
0.287671
0.287669
0.287666
0.287664
0.287661
0.287658
0.287656
0.287653
0.28765
0.287648
0.287645
0.287643
0.28764
0.287637
0.287635
0.287632
0.28763
0.287627
0.287624
0.287622
0.287619
0.287617
0.287614
0.287611
0.287609
0.287606
0.287604
0.287601
0.287598
0.287596
0.287593
0.28759
0.287588
0.287585
0.287583
0.28758
0.287577
0.287575
0.287572
0.28757
0.287567
0.287564
0.287562
0.287559
0.287556
0.287554
0.287551
0.287549
0.287546
0.287543
0.287541
0.287538
0.287535
0.287533
0.28753
0.287528
0.287525
0.287522
0.28752
0.287517
0.287514
0.287512
0.287509
0.287507
0.287504
0.287501
0.287499
0.287496
0.287493
0.287491
0.287488
0.287485
0.287483
0.28748
0.287478
0.287475
0.287472
0.28747
0.287467
0.287464
0.287462
0.287459
0.287456
0.287454
0.287451
0.287449
0.287446
0.287443
0.287441
0.287438
0.287435
0.287433
0.28743
0.287427
0.287425
0.287422
0.287419
0.287417
0.287414
0.287412
0.287409
0.287406
0.287404
0.287401
0.287398
0.287396
0.287393
0.28739
0.287388
0.287385
0.287382
0.28738
0.287377
0.287374
0.287372
0.287369
0.287367
0.287364
0.287361
0.287359
0.287356
0.287353
0.287351
0.287348
0.287345
0.287343
0.28734
0.287337
0.287335
0.287332
0.287329
0.287327
0.287324
0.287321
0.287319
0.287316
0.287313
0.287311
0.287308
0.287305
0.287303
0.2873
0.287297
0.287295
0.287292
0.287289
0.287287
0.287284
0.287281
0.287279
0.287276
0.287273
0.287271
0.287268
0.287265
0.287263
0.28726
0.287257
0.287255
0.287252
0.287249
0.287247
0.287244
0.287241
0.287239
0.287236
0.287233
0.287231
0.287228
0.287225
0.287223
0.28722
0.287217
0.287215
0.287212
0.287209
0.287207
0.287204
0.287201
0.287199
0.287196
0.287193
0.28719
0.287188
0.287185
0.287182
0.28718
0.287177
0.287174
0.287172
0.287169
0.287166
0.287164
0.287161
0.287158
0.287156
0.287153
0.28715
0.287148
0.287145
0.287142
0.287139
0.287137
0.287134
0.287131
0.287129
0.287126
0.287123
0.287121
0.287118
0.287115
0.287113
0.28711
0.287107
0.287104
0.287102
0.287099
0.287096
0.287094
0.287091
0.287088
0.287086
0.287083
0.28708
0.287077
0.287075
0.287072
0.287069
0.287067
0.287064
0.287061
0.287059
0.287056
0.287053
0.28705
0.287048
0.287045
0.287042
0.28704
0.287037
0.287034
0.287032
0.287029
0.287026
0.287023
0.287021
0.287018
0.287015
0.287013
0.28701
0.287007
0.287004
0.287002
0.286999
0.286996
0.286994
0.286991
0.286988
0.286985
0.286983
0.28698
0.286977
0.286975
0.286972
0.286969
0.286966
0.286964
0.286961
0.286958
0.286956
0.286953
0.28695
0.286947
0.286945
0.286942
0.286939
0.286937
0.286934
0.286931
0.286928
0.286926
0.286923
0.28692
0.286917
0.286915
0.286912
0.286909
0.286907
0.286904
0.286901
0.286898
0.286896
0.286893
0.28689
0.286888
0.286885
0.286882
0.286879
0.286877
0.286874
0.286871
0.286868
0.286866
0.286863
0.28686
0.286857
0.286855
0.286852
0.286849
0.286847
0.286844
0.286841
0.286838
0.286836
0.286833
0.28683
0.286827
0.286825
0.286822
0.286819
0.286816
0.286814
0.286811
0.286808
0.286806
0.286803
0.2868
0.286797
0.286795
0.286792
0.286789
0.286786
0.286784
0.286781
0.286778
0.286775
0.286773
0.28677
0.286767
0.286764
0.286762
0.286759
0.286756
0.286753
0.286751
0.286748
0.286745
0.286742
0.28674
0.286737
0.286734
0.286731
0.286729
0.286726
0.286723
0.28672
0.286718
0.286715
0.286712
0.286709
0.286707
0.286704
0.286701
0.286698
0.286696
0.286693
0.28669
0.286687
0.286685
0.286682
0.286679
0.286676
0.286674
0.286671
0.286668
0.286665
0.286663
0.28666
0.286657
0.286654
0.286651
0.286649
0.286646
0.286643
0.28664
0.286638
0.286635
0.286632
0.286629
0.286627
0.286624
0.286621
0.286618
0.286616
0.286613
0.28661
0.286607
0.286604
0.286602
0.286599
0.286596
0.286593
0.286591
0.286588
0.286585
0.286582
0.28658
0.286577
0.286574
0.286571
0.286568
0.286566
0.286563
0.28656
0.286557
0.286555
0.286552
0.286549
0.286546
0.286544
0.286541
0.286538
0.286535
0.286532
0.28653
0.286527
0.286524
0.286521
0.286519
0.286516
0.286513
0.28651
0.286507
0.286505
0.286502
0.286499
0.286496
0.286494
0.286491
0.286488
0.286485
0.286482
0.28648
0.286477
0.286474
0.286471
0.286468
0.286466
0.286463
0.28646
0.286457
0.286455
0.286452
0.286449
0.286446
0.286443
0.286441
0.286438
0.286435
0.286432
0.286429
0.286427
0.286424
0.286421
0.286418
0.286415
0.286413
0.28641
0.286407
0.286404
0.286402
0.286399
0.286396
0.286393
0.28639
0.286388
0.286385
0.286382
0.286379
0.286376
0.286374
0.286371
0.286368
0.286365
0.286362
0.28636
0.286357
0.286354
0.286351
0.286348
0.286346
0.286343
0.28634
0.286337
0.286334
0.286332
0.286329
0.286326
0.286323
0.28632
0.286318
0.286315
0.286312
0.286309
0.286306
0.286304
0.286301
0.286298
0.286295
0.286292
0.28629
0.286287
0.286284
0.286281
0.286278
0.286276
0.286273
0.28627
0.286267
0.286264
0.286261
0.286259
0.286256
0.286253
0.28625
0.286247
0.286245
0.286242
0.286239
0.286236
0.286233
0.286231
0.286228
0.286225
0.286222
0.286219
0.286217
0.286214
0.286211
0.286208
0.286205
0.286202
0.2862
0.286197
0.286194
0.286191
0.286188
0.286186
0.286183
0.28618
0.286177
0.286174
0.286171
0.286169
0.286166
0.286163
0.28616
0.286157
0.286155
0.286152
0.286149
0.286146
0.286143
0.28614
0.286138
0.286135
0.286132
0.286129
0.286126
0.286123
0.286121
0.286118
0.286115
0.286112
0.286109
0.286107
0.286104
0.286101
0.286098
0.286095
0.286092
0.28609
0.286087
0.286084
0.286081
0.286078
0.286075
0.286073
0.28607
0.286067
0.286064
0.286061
0.286058
0.286056
0.286053
0.28605
0.286047
0.286044
0.286042
0.286039
0.286036
0.286033
0.28603
0.286027
0.286025
0.286022
0.286019
0.286016
0.286013
0.28601
0.286008
0.286005
0.286002
0.285999
0.285996
0.285993
0.285991
0.285988
0.285985
0.285982
0.285979
0.285976
0.285973
0.285971
0.285968
0.285965
0.285962
0.285959
0.285956
0.285954
0.285951
0.285948
0.285945
0.285942
0.285939
0.285937
0.285934
0.285931
0.285928
0.285925
0.285922
0.28592
0.285917
0.285914
0.285911
0.285908
0.285905
0.285902
0.2859
0.285897
0.285894
0.285891
0.285888
0.285885
0.285883
0.28588
0.285877
0.285874
0.285871
0.285868
0.285866
0.285863
0.28586
0.285857
0.285854
0.285851
0.285848
0.285846
0.285843
0.28584
0.285837
0.285834
0.285831
0.285829
0.285826
0.285823
0.28582
0.285817
0.285814
0.285811
0.285809
0.285806
0.285803
0.2858
0.285797
0.285794
0.285791
0.285789
0.285786
0.285783
0.28578
0.285777
0.285774
0.285772
0.285769
0.285766
0.285763
0.28576
0.285757
0.285754
0.285752
0.285749
0.285746
0.285743
0.28574
0.285737
0.285734
0.285732
0.285729
0.285726
0.285723
0.28572
0.285717
0.285714
0.285712
0.285709
0.285706
0.285703
0.2857
0.285697
0.285694
0.285692
0.285689
0.285686
0.285683
0.28568
0.285677
0.285674
0.285672
0.285669
0.285666
0.285663
0.28566
0.285657
0.285654
0.285652
0.285649
0.285646
0.285643
0.28564
0.285637
0.285634
0.285632
0.285629
0.285626
0.285623
0.28562
0.285617
0.285614
0.285612
0.285609
0.285606
0.285603
0.2856
0.285597
0.285594
0.285592
0.285589
0.285586
0.285583
0.28558
0.285577
0.285574
0.285572
0.285569
0.285566
0.285563
0.28556
0.285557
0.285554
0.285552
0.285549
0.285546
0.285543
0.28554
0.285537
0.285534
0.285532
0.285529
0.285526
0.285523
0.28552
0.285517
0.285514
0.285512
0.285509
0.285506
0.285503
0.2855
0.285497
0.285494
0.285491
0.285489
0.285486
0.285483
0.28548
0.285477
0.285474
0.285471
0.285469
0.285466
0.285463
0.28546
0.285457
0.285454
0.285451
0.285449
0.285446
0.285443
0.28544
0.285437
0.285434
0.285431
0.285429
0.285426
0.285423
0.28542
0.285417
0.285414
0.285411
0.285408
0.285406
0.285403
0.2854
0.285397
0.285394
0.285391
0.285388
0.285386
0.285383
0.28538
0.285377
0.285374
0.285371
0.285368
0.285366
0.285363
0.28536
0.285357
0.285354
0.285351
0.285348
0.285346
0.285343
0.28534
0.285337
0.285334
0.285331
0.285328
0.285326
0.285323
0.28532
0.285317
0.285314
0.285311
0.285308
0.285305
0.285303
0.2853
0.285297
0.285294
0.285291
0.285288
0.285285
0.285283
0.28528
0.285277
0.285274
0.285271
0.285268
0.285265
0.285263
0.28526
0.285257
0.285254
0.285251
0.285248
0.285245
0.285243
0.28524
0.285237
0.285234
0.285231
0.285228
0.285225
0.285223
0.28522
0.285217
0.285214
0.285211
0.285208
0.285205
0.285203
0.2852
0.285197
0.285194
0.285191
0.285188
0.285185
0.285183
0.28518
0.285177
0.285174
0.285171
0.285168
0.285166
0.285163
0.28516
0.285157
0.285154
0.285151
0.285148
0.285146
0.285143
0.28514
0.285137
0.285134
0.285131
0.285128
0.285126
0.285123
0.28512
0.285117
0.285114
0.285111
0.285109
0.285106
0.285103
0.2851
0.285097
0.285094
0.285091
0.285089
0.285086
0.285083
0.28508
0.285077
0.285074
0.285072
0.285069
0.285066
0.285063
0.28506
0.285057
0.285054
0.285052
0.285049
0.285046
0.285043
0.28504
0.285037
0.285035
0.285032
0.285029
0.285026
0.285023
0.28502
0.285018
0.285015
0.285012
0.285009
0.285006
0.285003
0.285001
0.284998
0.284995
0.284992
0.284989
0.284986
0.284984
0.284981
0.284978
0.284975
0.284972
0.284969
0.284967
0.284964
0.284961
0.284958
0.284955
0.284952
0.28495
0.284947
0.284944
0.284941
0.284938
0.284935
0.284933
0.28493
0.284927
0.284924
0.284921
0.284918
0.284916
0.284913
0.28491
0.284907
0.284904
0.284902
0.284899
0.284896
0.284893
0.28489
0.284887
0.284885
0.284882
0.284879
0.284876
0.284873
0.284871
0.284868
0.284865
0.284862
0.284859
0.284857
0.284854
0.284851
0.284848
0.284845
0.284843
0.28484
0.284837
0.284834
0.284831
0.284828
0.284826
0.284823
0.28482
0.284817
0.284814
0.284812
0.284809
0.284806
0.284803
0.2848
0.284798
0.284795
0.284792
0.284789
0.284787
0.284784
0.284781
0.284778
0.284775
0.284773
0.28477
0.284767
0.284764
0.284761
0.284759
0.284756
0.284753
0.28475
0.284748
0.284745
0.284742
0.284739
0.284736
0.284734
0.284731
0.284728
0.284725
0.284723
0.28472
0.284717
0.284714
0.284711
0.284709
0.284706
0.284703
0.2847
0.284698
0.284695
0.284692
0.284689
0.284687
0.284684
0.284681
0.284678
0.284676
0.284673
0.28467
0.284667
0.284664
0.284662
0.284659
0.284656
0.284653
0.284651
0.284648
0.284645
0.284642
0.28464
0.284637
0.284634
0.284632
0.284629
0.284626
0.284623
0.284621
0.284618
0.284615
0.284612
0.28461
0.284607
0.284604
0.284601
0.284599
0.284596
0.284593
0.284591
0.284588
0.284585
0.284582
0.28458
0.284577
0.284574
0.284572
0.284569
0.284566
0.284563
0.284561
0.284558
0.284555
0.284553
0.28455
0.284547
0.284544
0.284542
0.284539
0.284536
0.284534
0.284531
0.284528
0.284526
0.284523
0.28452
0.284518
0.284515
0.284512
0.284509
0.284507
0.284504
0.284501
0.284499
0.284496
0.284493
0.284491
0.284488
0.284485
0.284483
0.28448
0.284477
0.284475
0.284472
0.284469
0.284467
0.284464
0.284461
0.284459
0.284456