/*--------------------------------*- C++ -*----------------------------------*\
  =========                 |
  \\      /  F ield         | OpenFOAM: The Open Source CFD Toolbox
   \\    /   O peration     | Website:  https://openfoam.org
    \\  /    A nd           | Version:  9
     \\/     M anipulation  |
\*---------------------------------------------------------------------------*/
FoamFile
{
    format      ascii;
    class       volVectorField;
    location    "0.031";
    object      U_0;
}
// * * * * * * * * * * * * * * * * * * * * * * * * * * * * * * * * * * * * * //

dimensions      [0 1 -1 0 0 0 0];

internalField   nonuniform List<vector> 
10000
(
(5.66635 0 0)
(5.71748 0 0)
(5.77147 0 0)
(5.81568 0 0)
(5.85628 0 0)
(5.89741 0 0)
(5.93941 0 0)
(5.98166 0 0)
(6.02384 0 0)
(6.06593 0 0)
(6.10801 0 0)
(6.15009 0 0)
(6.19219 0 0)
(6.23428 0 0)
(6.27638 0 0)
(6.31847 0 0)
(6.36057 0 0)
(6.40266 0 0)
(6.44476 0 0)
(6.48685 0 0)
(6.52895 0 0)
(6.57105 0 0)
(6.61314 0 0)
(6.65524 0 0)
(6.69733 0 0)
(6.73943 0 0)
(6.78153 0 0)
(6.82363 0 0)
(6.86572 0 0)
(6.90782 0 0)
(6.94992 0 0)
(6.99202 0 0)
(7.03412 0 0)
(7.07621 0 0)
(7.11831 0 0)
(7.16041 0 0)
(7.20251 0 0)
(7.24462 0 0)
(7.28672 0 0)
(7.32882 0 0)
(7.37091 0 0)
(7.41301 0 0)
(7.45511 0 0)
(7.49721 0 0)
(7.53932 0 0)
(7.58142 0 0)
(7.62352 0 0)
(7.66563 0 0)
(7.70773 0 0)
(7.74983 0 0)
(7.79193 0 0)
(7.83403 0 0)
(7.87613 0 0)
(7.91824 0 0)
(7.96034 0 0)
(8.00245 0 0)
(8.04455 0 0)
(8.08666 0 0)
(8.12877 0 0)
(8.17088 0 0)
(8.21298 0 0)
(8.25508 0 0)
(8.29719 0 0)
(8.33929 0 0)
(8.3814 0 0)
(8.4235 0 0)
(8.4656 0 0)
(8.50771 0 0)
(8.54982 0 0)
(8.59192 0 0)
(8.63403 0 0)
(8.67614 0 0)
(8.71826 0 0)
(8.76037 0 0)
(8.80248 0 0)
(8.84459 0 0)
(8.88671 0 0)
(8.92882 0 0)
(8.97093 0 0)
(9.01304 0 0)
(9.05516 0 0)
(9.09727 0 0)
(9.13938 0 0)
(9.18149 0 0)
(9.2236 0 0)
(9.26571 0 0)
(9.30783 0 0)
(9.34994 0 0)
(9.39205 0 0)
(9.43416 0 0)
(9.47628 0 0)
(9.51839 0 0)
(9.5605 0 0)
(9.60262 0 0)
(9.64473 0 0)
(9.68684 0 0)
(9.72896 0 0)
(9.77107 0 0)
(9.81318 0 0)
(9.8553 0 0)
(9.89741 0 0)
(9.93953 0 0)
(9.98164 0 0)
(10.0238 0 0)
(10.0659 0 0)
(10.108 0 0)
(10.1501 0 0)
(10.1922 0 0)
(10.2343 0 0)
(10.2765 0 0)
(10.3186 0 0)
(10.3607 0 0)
(10.4028 0 0)
(10.4449 0 0)
(10.487 0 0)
(10.5292 0 0)
(10.5713 0 0)
(10.6134 0 0)
(10.6555 0 0)
(10.6976 0 0)
(10.7398 0 0)
(10.7819 0 0)
(10.824 0 0)
(10.8661 0 0)
(10.9082 0 0)
(10.9504 0 0)
(10.9925 0 0)
(11.0346 0 0)
(11.0767 0 0)
(11.1188 0 0)
(11.161 0 0)
(11.2031 0 0)
(11.2452 0 0)
(11.2873 0 0)
(11.3294 0 0)
(11.3716 0 0)
(11.4137 0 0)
(11.4558 0 0)
(11.4979 0 0)
(11.5401 0 0)
(11.5822 0 0)
(11.6243 0 0)
(11.6664 0 0)
(11.7086 0 0)
(11.7507 0 0)
(11.7928 0 0)
(11.8349 0 0)
(11.8771 0 0)
(11.9192 0 0)
(11.9613 0 0)
(12.0034 0 0)
(12.0456 0 0)
(12.0877 0 0)
(12.1298 0 0)
(12.172 0 0)
(12.2141 0 0)
(12.2562 0 0)
(12.2983 0 0)
(12.3405 0 0)
(12.3826 0 0)
(12.4247 0 0)
(12.4669 0 0)
(12.509 0 0)
(12.5511 0 0)
(12.5932 0 0)
(12.6354 0 0)
(12.6775 0 0)
(12.7196 0 0)
(12.7618 0 0)
(12.8039 0 0)
(12.846 0 0)
(12.8882 0 0)
(12.9303 0 0)
(12.9724 0 0)
(13.0146 0 0)
(13.0567 0 0)
(13.0988 0 0)
(13.141 0 0)
(13.1831 0 0)
(13.2252 0 0)
(13.2674 0 0)
(13.3095 0 0)
(13.3516 0 0)
(13.3938 0 0)
(13.4359 0 0)
(13.478 0 0)
(13.5202 0 0)
(13.5623 0 0)
(13.6044 0 0)
(13.6466 0 0)
(13.6887 0 0)
(13.7308 0 0)
(13.773 0 0)
(13.8151 0 0)
(13.8572 0 0)
(13.8994 0 0)
(13.9415 0 0)
(13.9837 0 0)
(14.0258 0 0)
(14.0679 0 0)
(14.1101 0 0)
(14.1522 0 0)
(14.1944 0 0)
(14.2365 0 0)
(14.2786 0 0)
(14.3208 0 0)
(14.3629 0 0)
(14.405 0 0)
(14.4472 0 0)
(14.4893 0 0)
(14.5315 0 0)
(14.5736 0 0)
(14.6158 0 0)
(14.6579 0 0)
(14.7 0 0)
(14.7422 0 0)
(14.7843 0 0)
(14.8265 0 0)
(14.8686 0 0)
(14.9107 0 0)
(14.9529 0 0)
(14.995 0 0)
(15.0372 0 0)
(15.0793 0 0)
(15.1215 0 0)
(15.1636 0 0)
(15.2058 0 0)
(15.2479 0 0)
(15.29 0 0)
(15.3322 0 0)
(15.3743 0 0)
(15.4165 0 0)
(15.4586 0 0)
(15.5008 0 0)
(15.5429 0 0)
(15.5851 0 0)
(15.6272 0 0)
(15.6694 0 0)
(15.7115 0 0)
(15.7537 0 0)
(15.7958 0 0)
(15.838 0 0)
(15.8801 0 0)
(15.9222 0 0)
(15.9644 0 0)
(16.0065 0 0)
(16.0487 0 0)
(16.0908 0 0)
(16.133 0 0)
(16.1751 0 0)
(16.2173 0 0)
(16.2594 0 0)
(16.3016 0 0)
(16.3437 0 0)
(16.3859 0 0)
(16.428 0 0)
(16.4702 0 0)
(16.5124 0 0)
(16.5545 0 0)
(16.5967 0 0)
(16.6388 0 0)
(16.681 0 0)
(16.7231 0 0)
(16.7653 0 0)
(16.8074 0 0)
(16.8496 0 0)
(16.8917 0 0)
(16.9339 0 0)
(16.976 0 0)
(17.0182 0 0)
(17.0603 0 0)
(17.1025 0 0)
(17.1447 0 0)
(17.1868 0 0)
(17.229 0 0)
(17.2711 0 0)
(17.3133 0 0)
(17.3554 0 0)
(17.3976 0 0)
(17.4398 0 0)
(17.4819 0 0)
(17.5241 0 0)
(17.5662 0 0)
(17.6084 0 0)
(17.6505 0 0)
(17.6927 0 0)
(17.7349 0 0)
(17.777 0 0)
(17.8192 0 0)
(17.8613 0 0)
(17.9035 0 0)
(17.9457 0 0)
(17.9878 0 0)
(18.03 0 0)
(18.0721 0 0)
(18.1143 0 0)
(18.1565 0 0)
(18.1986 0 0)
(18.2408 0 0)
(18.2829 0 0)
(18.3251 0 0)
(18.3673 0 0)
(18.4094 0 0)
(18.4516 0 0)
(18.4938 0 0)
(18.5359 0 0)
(18.5781 0 0)
(18.6202 0 0)
(18.6624 0 0)
(18.7046 0 0)
(18.7467 0 0)
(18.7889 0 0)
(18.8311 0 0)
(18.8732 0 0)
(18.9154 0 0)
(18.9576 0 0)
(18.9997 0 0)
(19.0419 0 0)
(19.0841 0 0)
(19.1262 0 0)
(19.1684 0 0)
(19.2106 0 0)
(19.2527 0 0)
(19.2949 0 0)
(19.3371 0 0)
(19.3792 0 0)
(19.4214 0 0)
(19.4636 0 0)
(19.5057 0 0)
(19.5479 0 0)
(19.5901 0 0)
(19.6322 0 0)
(19.6744 0 0)
(19.7166 0 0)
(19.7587 0 0)
(19.8009 0 0)
(19.8431 0 0)
(19.8853 0 0)
(19.9274 0 0)
(19.9696 0 0)
(20.0118 0 0)
(20.0539 0 0)
(20.0961 0 0)
(20.1383 0 0)
(20.1805 0 0)
(20.2226 0 0)
(20.2648 0 0)
(20.307 0 0)
(20.3491 0 0)
(20.3913 0 0)
(20.4335 0 0)
(20.4757 0 0)
(20.5178 0 0)
(20.56 0 0)
(20.6022 0 0)
(20.6444 0 0)
(20.6865 0 0)
(20.7287 0 0)
(20.7709 0 0)
(20.8131 0 0)
(20.8552 0 0)
(20.8974 0 0)
(20.9396 0 0)
(20.9818 0 0)
(21.0239 0 0)
(21.0661 0 0)
(21.1083 0 0)
(21.1505 0 0)
(21.1927 0 0)
(21.2348 0 0)
(21.277 0 0)
(21.3192 0 0)
(21.3614 0 0)
(21.4036 0 0)
(21.4457 0 0)
(21.4879 0 0)
(21.5301 0 0)
(21.5723 0 0)
(21.6144 0 0)
(21.6566 0 0)
(21.6988 0 0)
(21.741 0 0)
(21.7832 0 0)
(21.8254 0 0)
(21.8675 0 0)
(21.9097 0 0)
(21.9519 0 0)
(21.9941 0 0)
(22.0363 0 0)
(22.0784 0 0)
(22.1206 0 0)
(22.1628 0 0)
(22.205 0 0)
(22.2472 0 0)
(22.2894 0 0)
(22.3315 0 0)
(22.3737 0 0)
(22.4159 0 0)
(22.4581 0 0)
(22.5003 0 0)
(22.5425 0 0)
(22.5847 0 0)
(22.6268 0 0)
(22.669 0 0)
(22.7112 0 0)
(22.7534 0 0)
(22.7956 0 0)
(22.8378 0 0)
(22.88 0 0)
(22.9221 0 0)
(22.9643 0 0)
(23.0065 0 0)
(23.0487 0 0)
(23.0909 0 0)
(23.1331 0 0)
(23.1753 0 0)
(23.2175 0 0)
(23.2597 0 0)
(23.3018 0 0)
(23.344 0 0)
(23.3862 0 0)
(23.4284 0 0)
(23.4706 0 0)
(23.5128 0 0)
(23.555 0 0)
(23.5972 0 0)
(23.6394 0 0)
(23.6816 0 0)
(23.7237 0 0)
(23.7659 0 0)
(23.8081 0 0)
(23.8503 0 0)
(23.8925 0 0)
(23.9347 0 0)
(23.9769 0 0)
(24.0191 0 0)
(24.0613 0 0)
(24.1035 0 0)
(24.1457 0 0)
(24.1879 0 0)
(24.2301 0 0)
(24.2723 0 0)
(24.3145 0 0)
(24.3566 0 0)
(24.3988 0 0)
(24.441 0 0)
(24.4832 0 0)
(24.5254 0 0)
(24.5676 0 0)
(24.6098 0 0)
(24.652 0 0)
(24.6942 0 0)
(24.7364 0 0)
(24.7786 0 0)
(24.8208 0 0)
(24.863 0 0)
(24.9052 0 0)
(24.9474 0 0)
(24.9896 0 0)
(25.0318 0 0)
(25.074 0 0)
(25.1162 0 0)
(25.1584 0 0)
(25.2006 0 0)
(25.2428 0 0)
(25.285 0 0)
(25.3272 0 0)
(25.3694 0 0)
(25.4116 0 0)
(25.4538 0 0)
(25.496 0 0)
(25.5382 0 0)
(25.5804 0 0)
(25.6226 0 0)
(25.6648 0 0)
(25.707 0 0)
(25.7492 0 0)
(25.7914 0 0)
(25.8336 0 0)
(25.8758 0 0)
(25.918 0 0)
(25.9602 0 0)
(26.0024 0 0)
(26.0446 0 0)
(26.0868 0 0)
(26.129 0 0)
(26.1713 0 0)
(26.2135 0 0)
(26.2557 0 0)
(26.2979 0 0)
(26.3401 0 0)
(26.3823 0 0)
(26.4245 0 0)
(26.4667 0 0)
(26.5089 0 0)
(26.5511 0 0)
(26.5933 0 0)
(26.6355 0 0)
(26.6777 0 0)
(26.7199 0 0)
(26.7621 0 0)
(26.8044 0 0)
(26.8466 0 0)
(26.8888 0 0)
(26.931 0 0)
(26.9732 0 0)
(27.0154 0 0)
(27.0576 0 0)
(27.0998 0 0)
(27.142 0 0)
(27.1842 0 0)
(27.2264 0 0)
(27.2687 0 0)
(27.3109 0 0)
(27.3531 0 0)
(27.3953 0 0)
(27.4375 0 0)
(27.4797 0 0)
(27.5219 0 0)
(27.5641 0 0)
(27.6064 0 0)
(27.6486 0 0)
(27.6908 0 0)
(27.733 0 0)
(27.7752 0 0)
(27.8174 0 0)
(27.8596 0 0)
(27.9018 0 0)
(27.9441 0 0)
(27.9863 0 0)
(28.0285 0 0)
(28.0707 0 0)
(28.1129 0 0)
(28.1551 0 0)
(28.1974 0 0)
(28.2396 0 0)
(28.2818 0 0)
(28.324 0 0)
(28.3662 0 0)
(28.4084 0 0)
(28.4507 0 0)
(28.4929 0 0)
(28.5351 0 0)
(28.5773 0 0)
(28.6195 0 0)
(28.6617 0 0)
(28.704 0 0)
(28.7462 0 0)
(28.7884 0 0)
(28.8306 0 0)
(28.8728 0 0)
(28.9151 0 0)
(28.9573 0 0)
(28.9995 0 0)
(29.0417 0 0)
(29.0839 0 0)
(29.1262 0 0)
(29.1684 0 0)
(29.2106 0 0)
(29.2528 0 0)
(29.295 0 0)
(29.3373 0 0)
(29.3795 0 0)
(29.4217 0 0)
(29.4639 0 0)
(29.5062 0 0)
(29.5484 0 0)
(29.5906 0 0)
(29.6328 0 0)
(29.6751 0 0)
(29.7173 0 0)
(29.7595 0 0)
(29.8017 0 0)
(29.8439 0 0)
(29.8862 0 0)
(29.9284 0 0)
(29.9706 0 0)
(30.0128 0 0)
(30.0551 0 0)
(30.0973 0 0)
(30.1395 0 0)
(30.1818 0 0)
(30.224 0 0)
(30.2662 0 0)
(30.3084 0 0)
(30.3507 0 0)
(30.3929 0 0)
(30.4351 0 0)
(30.4773 0 0)
(30.5196 0 0)
(30.5618 0 0)
(30.604 0 0)
(30.6463 0 0)
(30.6885 0 0)
(30.7307 0 0)
(30.7729 0 0)
(30.8152 0 0)
(30.8574 0 0)
(30.8996 0 0)
(30.9419 0 0)
(30.9841 0 0)
(31.0263 0 0)
(31.0686 0 0)
(31.1108 0 0)
(31.153 0 0)
(31.1953 0 0)
(31.2375 0 0)
(31.2797 0 0)
(31.322 0 0)
(31.3642 0 0)
(31.4064 0 0)
(31.4487 0 0)
(31.4909 0 0)
(31.5331 0 0)
(31.5754 0 0)
(31.6176 0 0)
(31.6598 0 0)
(31.7021 0 0)
(31.7443 0 0)
(31.7865 0 0)
(31.8288 0 0)
(31.871 0 0)
(31.9132 0 0)
(31.9555 0 0)
(31.9977 0 0)
(32.0399 0 0)
(32.0822 0 0)
(32.1244 0 0)
(32.1667 0 0)
(32.2089 0 0)
(32.2511 0 0)
(32.2934 0 0)
(32.3356 0 0)
(32.3778 0 0)
(32.4201 0 0)
(32.4623 0 0)
(32.5046 0 0)
(32.5468 0 0)
(32.589 0 0)
(32.6313 0 0)
(32.6735 0 0)
(32.7158 0 0)
(32.758 0 0)
(32.8002 0 0)
(32.8425 0 0)
(32.8847 0 0)
(32.927 0 0)
(32.9692 0 0)
(33.0114 0 0)
(33.0537 0 0)
(33.0959 0 0)
(33.1382 0 0)
(33.1804 0 0)
(33.2226 0 0)
(33.2649 0 0)
(33.3071 0 0)
(33.3494 0 0)
(33.3916 0 0)
(33.4339 0 0)
(33.4761 0 0)
(33.5184 0 0)
(33.5606 0 0)
(33.6028 0 0)
(33.6451 0 0)
(33.6873 0 0)
(33.7296 0 0)
(33.7718 0 0)
(33.8141 0 0)
(33.8563 0 0)
(33.8986 0 0)
(33.9408 0 0)
(33.9831 0 0)
(34.0253 0 0)
(34.0675 0 0)
(34.1098 0 0)
(34.152 0 0)
(34.1943 0 0)
(34.2365 0 0)
(34.2788 0 0)
(34.321 0 0)
(34.3633 0 0)
(34.4055 0 0)
(34.4478 0 0)
(34.49 0 0)
(34.5323 0 0)
(34.5745 0 0)
(34.6168 0 0)
(34.659 0 0)
(34.7013 0 0)
(34.7435 0 0)
(34.7858 0 0)
(34.828 0 0)
(34.8703 0 0)
(34.9125 0 0)
(34.9548 0 0)
(34.997 0 0)
(35.0393 0 0)
(35.0815 0 0)
(35.1238 0 0)
(35.166 0 0)
(35.2083 0 0)
(35.2506 0 0)
(35.2928 0 0)
(35.3351 0 0)
(35.3773 0 0)
(35.4196 0 0)
(35.4618 0 0)
(35.5041 0 0)
(35.5463 0 0)
(35.5886 0 0)
(35.6308 0 0)
(35.6731 0 0)
(35.7154 0 0)
(35.7576 0 0)
(35.7999 0 0)
(35.8421 0 0)
(35.8844 0 0)
(35.9266 0 0)
(35.9689 0 0)
(36.0112 0 0)
(36.0534 0 0)
(36.0957 0 0)
(36.1379 0 0)
(36.1802 0 0)
(36.2224 0 0)
(36.2647 0 0)
(36.307 0 0)
(36.3492 0 0)
(36.3915 0 0)
(36.4337 0 0)
(36.476 0 0)
(36.5183 0 0)
(36.5605 0 0)
(36.6028 0 0)
(36.645 0 0)
(36.6873 0 0)
(36.7296 0 0)
(36.7718 0 0)
(36.8141 0 0)
(36.8563 0 0)
(36.8986 0 0)
(36.9409 0 0)
(36.9831 0 0)
(37.0254 0 0)
(37.0677 0 0)
(37.1099 0 0)
(37.1522 0 0)
(37.1944 0 0)
(37.2367 0 0)
(37.279 0 0)
(37.3212 0 0)
(37.3635 0 0)
(37.4058 0 0)
(37.448 0 0)
(37.4903 0 0)
(37.5326 0 0)
(37.5748 0 0)
(37.6171 0 0)
(37.6594 0 0)
(37.7016 0 0)
(37.7439 0 0)
(37.7862 0 0)
(37.8284 0 0)
(37.8707 0 0)
(37.913 0 0)
(37.9552 0 0)
(37.9975 0 0)
(38.0398 0 0)
(38.082 0 0)
(38.1243 0 0)
(38.1666 0 0)
(38.2088 0 0)
(38.2511 0 0)
(38.2934 0 0)
(38.3356 0 0)
(38.3779 0 0)
(38.4202 0 0)
(38.4625 0 0)
(38.5047 0 0)
(38.547 0 0)
(38.5893 0 0)
(38.6315 0 0)
(38.6738 0 0)
(38.7161 0 0)
(38.7584 0 0)
(38.8006 0 0)
(38.8429 0 0)
(38.8852 0 0)
(38.9274 0 0)
(38.9697 0 0)
(39.012 0 0)
(39.0543 0 0)
(39.0965 0 0)
(39.1388 0 0)
(39.1811 0 0)
(39.2234 0 0)
(39.2656 0 0)
(39.3079 0 0)
(39.3502 0 0)
(39.3925 0 0)
(39.4347 0 0)
(39.477 0 0)
(39.5193 0 0)
(39.5616 0 0)
(39.6038 0 0)
(39.6461 0 0)
(39.6884 0 0)
(39.7307 0 0)
(39.7729 0 0)
(39.8152 0 0)
(39.8575 0 0)
(39.8998 0 0)
(39.942 0 0)
(39.9843 0 0)
(40.0266 0 0)
(40.0689 0 0)
(40.1112 0 0)
(40.1534 0 0)
(40.1957 0 0)
(40.238 0 0)
(40.2803 0 0)
(40.3226 0 0)
(40.3648 0 0)
(40.4071 0 0)
(40.4494 0 0)
(40.4917 0 0)
(40.534 0 0)
(40.5762 0 0)
(40.6185 0 0)
(40.6608 0 0)
(40.7031 0 0)
(40.7454 0 0)
(40.7876 0 0)
(40.8299 0 0)
(40.8722 0 0)
(40.9145 0 0)
(40.9568 0 0)
(40.9991 0 0)
(41.0413 0 0)
(41.0836 0 0)
(41.1259 0 0)
(41.1682 0 0)
(41.2105 0 0)
(41.2528 0 0)
(41.295 0 0)
(41.3373 0 0)
(41.3796 0 0)
(41.4219 0 0)
(41.4642 0 0)
(41.5065 0 0)
(41.5488 0 0)
(41.591 0 0)
(41.6333 0 0)
(41.6756 0 0)
(41.7179 0 0)
(41.7602 0 0)
(41.8025 0 0)
(41.8448 0 0)
(41.8871 0 0)
(41.9293 0 0)
(41.9716 0 0)
(42.0139 0 0)
(42.0562 0 0)
(42.0985 0 0)
(42.1408 0 0)
(42.1831 0 0)
(42.2254 0 0)
(42.2677 0 0)
(42.3099 0 0)
(42.3522 0 0)
(42.3945 0 0)
(42.4368 0 0)
(42.4791 0 0)
(42.5214 0 0)
(42.5637 0 0)
(42.606 0 0)
(42.6483 0 0)
(42.6906 0 0)
(42.7329 0 0)
(42.7752 0 0)
(42.8174 0 0)
(42.8597 0 0)
(42.902 0 0)
(42.9443 0 0)
(42.9866 0 0)
(43.0289 0 0)
(43.0712 0 0)
(43.1135 0 0)
(43.1558 0 0)
(43.1981 0 0)
(43.2404 0 0)
(43.2827 0 0)
(43.325 0 0)
(43.3673 0 0)
(43.4096 0 0)
(43.4519 0 0)
(43.4942 0 0)
(43.5365 0 0)
(43.5787 0 0)
(43.621 0 0)
(43.6633 0 0)
(43.7056 0 0)
(43.7479 0 0)
(43.7902 0 0)
(43.8325 0 0)
(43.8748 0 0)
(43.9171 0 0)
(43.9594 0 0)
(44.0017 0 0)
(44.044 0 0)
(44.0863 0 0)
(44.1286 0 0)
(44.1709 0 0)
(44.2132 0 0)
(44.2555 0 0)
(44.2978 0 0)
(44.3401 0 0)
(44.3824 0 0)
(44.4247 0 0)
(44.467 0 0)
(44.5093 0 0)
(44.5516 0 0)
(44.5939 0 0)
(44.6362 0 0)
(44.6785 0 0)
(44.7208 0 0)
(44.7631 0 0)
(44.8054 0 0)
(44.8477 0 0)
(44.89 0 0)
(44.9323 0 0)
(44.9747 0 0)
(45.017 0 0)
(45.0593 0 0)
(45.1016 0 0)
(45.1439 0 0)
(45.1862 0 0)
(45.2285 0 0)
(45.2708 0 0)
(45.3131 0 0)
(45.3554 0 0)
(45.3977 0 0)
(45.44 0 0)
(45.4823 0 0)
(45.5246 0 0)
(45.5669 0 0)
(45.6092 0 0)
(45.6515 0 0)
(45.6938 0 0)
(45.7362 0 0)
(45.7785 0 0)
(45.8208 0 0)
(45.8631 0 0)
(45.9054 0 0)
(45.9477 0 0)
(45.99 0 0)
(46.0323 0 0)
(46.0746 0 0)
(46.1169 0 0)
(46.1592 0 0)
(46.2015 0 0)
(46.2439 0 0)
(46.2862 0 0)
(46.3285 0 0)
(46.3708 0 0)
(46.4131 0 0)
(46.4554 0 0)
(46.4977 0 0)
(46.54 0 0)
(46.5823 0 0)
(46.6247 0 0)
(46.667 0 0)
(46.7093 0 0)
(46.7516 0 0)
(46.7939 0 0)
(46.8362 0 0)
(46.8785 0 0)
(46.9208 0 0)
(46.9632 0 0)
(47.0055 0 0)
(47.0478 0 0)
(47.0901 0 0)
(47.1324 0 0)
(47.1747 0 0)
(47.217 0 0)
(47.2594 0 0)
(47.3017 0 0)
(47.344 0 0)
(47.3863 0 0)
(47.4286 0 0)
(47.4709 0 0)
(47.5133 0 0)
(47.5556 0 0)
(47.5979 0 0)
(47.6402 0 0)
(47.6825 0 0)
(47.7248 0 0)
(47.7672 0 0)
(47.8095 0 0)
(47.8518 0 0)
(47.8941 0 0)
(47.9364 0 0)
(47.9788 0 0)
(48.0211 0 0)
(48.0634 0 0)
(48.1057 0 0)
(48.148 0 0)
(48.1904 0 0)
(48.2327 0 0)
(48.275 0 0)
(48.3173 0 0)
(48.3596 0 0)
(48.402 0 0)
(48.4443 0 0)
(48.4866 0 0)
(48.5289 0 0)
(48.5712 0 0)
(48.6136 0 0)
(48.6559 0 0)
(48.6982 0 0)
(48.7405 0 0)
(48.7829 0 0)
(48.8252 0 0)
(48.8675 0 0)
(48.9098 0 0)
(48.9521 0 0)
(48.9945 0 0)
(49.0368 0 0)
(49.0791 0 0)
(49.1214 0 0)
(49.1638 0 0)
(49.2061 0 0)
(49.2484 0 0)
(49.2907 0 0)
(49.3331 0 0)
(49.3754 0 0)
(49.4177 0 0)
(49.46 0 0)
(49.5024 0 0)
(49.5447 0 0)
(49.587 0 0)
(49.6294 0 0)
(49.6717 0 0)
(49.714 0 0)
(49.7563 0 0)
(49.7987 0 0)
(49.841 0 0)
(49.8833 0 0)
(49.9256 0 0)
(49.968 0 0)
(50.0103 0 0)
(50.0526 0 0)
(50.095 0 0)
(50.1373 0 0)
(50.1796 0 0)
(50.222 0 0)
(50.2643 0 0)
(50.3066 0 0)
(50.3489 0 0)
(50.3913 0 0)
(50.4336 0 0)
(50.4759 0 0)
(50.5183 0 0)
(50.5606 0 0)
(50.6029 0 0)
(50.6453 0 0)
(50.6876 0 0)
(50.7299 0 0)
(50.7723 0 0)
(50.8146 0 0)
(50.8569 0 0)
(50.8993 0 0)
(50.9416 0 0)
(50.9839 0 0)
(51.0263 0 0)
(51.0686 0 0)
(51.1109 0 0)
(51.1533 0 0)
(51.1956 0 0)
(51.2379 0 0)
(51.2803 0 0)
(51.3226 0 0)
(51.3649 0 0)
(51.4073 0 0)
(51.4496 0 0)
(51.492 0 0)
(51.5343 0 0)
(51.5766 0 0)
(51.619 0 0)
(51.6613 0 0)
(51.7036 0 0)
(51.746 0 0)
(51.7883 0 0)
(51.8306 0 0)
(51.873 0 0)
(51.9153 0 0)
(51.9577 0 0)
(52 0 0)
(52.0423 0 0)
(52.0847 0 0)
(52.127 0 0)
(52.1694 0 0)
(52.2117 0 0)
(52.254 0 0)
(52.2964 0 0)
(52.3387 0 0)
(52.3811 0 0)
(52.4234 0 0)
(52.4657 0 0)
(52.5081 0 0)
(52.5504 0 0)
(52.5928 0 0)
(52.6351 0 0)
(52.6775 0 0)
(52.7198 0 0)
(52.7621 0 0)
(52.8045 0 0)
(52.8468 0 0)
(52.8892 0 0)
(52.9315 0 0)
(52.9739 0 0)
(53.0162 0 0)
(53.0585 0 0)
(53.1009 0 0)
(53.1432 0 0)
(53.1856 0 0)
(53.2279 0 0)
(53.2703 0 0)
(53.3126 0 0)
(53.355 0 0)
(53.3973 0 0)
(53.4396 0 0)
(53.482 0 0)
(53.5243 0 0)
(53.5667 0 0)
(53.609 0 0)
(53.6514 0 0)
(53.6937 0 0)
(53.7361 0 0)
(53.7784 0 0)
(53.8208 0 0)
(53.8631 0 0)
(53.9055 0 0)
(53.9478 0 0)
(53.9902 0 0)
(54.0325 0 0)
(54.0749 0 0)
(54.1172 0 0)
(54.1596 0 0)
(54.2019 0 0)
(54.2443 0 0)
(54.2866 0 0)
(54.329 0 0)
(54.3713 0 0)
(54.4137 0 0)
(54.456 0 0)
(54.4984 0 0)
(54.5407 0 0)
(54.5831 0 0)
(54.6254 0 0)
(54.6678 0 0)
(54.7101 0 0)
(54.7525 0 0)
(54.7948 0 0)
(54.8372 0 0)
(54.8795 0 0)
(54.9219 0 0)
(54.9642 0 0)
(55.0066 0 0)
(55.049 0 0)
(55.0913 0 0)
(55.1337 0 0)
(55.176 0 0)
(55.2184 0 0)
(55.2607 0 0)
(55.3031 0 0)
(55.3454 0 0)
(55.3878 0 0)
(55.4301 0 0)
(55.4725 0 0)
(55.5149 0 0)
(55.5572 0 0)
(55.5996 0 0)
(55.6419 0 0)
(55.6843 0 0)
(55.7266 0 0)
(55.769 0 0)
(55.8114 0 0)
(55.8537 0 0)
(55.8961 0 0)
(55.9384 0 0)
(55.9808 0 0)
(56.0231 0 0)
(56.0655 0 0)
(56.1079 0 0)
(56.1502 0 0)
(56.1926 0 0)
(56.2349 0 0)
(56.2773 0 0)
(56.3197 0 0)
(56.362 0 0)
(56.4044 0 0)
(56.4467 0 0)
(56.4891 0 0)
(56.5315 0 0)
(56.5738 0 0)
(56.6162 0 0)
(56.6586 0 0)
(56.7009 0 0)
(56.7433 0 0)
(56.7856 0 0)
(56.828 0 0)
(56.8704 0 0)
(56.9127 0 0)
(56.9551 0 0)
(56.9975 0 0)
(57.0398 0 0)
(57.0822 0 0)
(57.1245 0 0)
(57.1669 0 0)
(57.2093 0 0)
(57.2516 0 0)
(57.294 0 0)
(57.3364 0 0)
(57.3787 0 0)
(57.4211 0 0)
(57.4635 0 0)
(57.5058 0 0)
(57.5482 0 0)
(57.5906 0 0)
(57.6329 0 0)
(57.6753 0 0)
(57.7177 0 0)
(57.76 0 0)
(57.8024 0 0)
(57.8448 0 0)
(57.8871 0 0)
(57.9295 0 0)
(57.9719 0 0)
(58.0142 0 0)
(58.0566 0 0)
(58.099 0 0)
(58.1413 0 0)
(58.1837 0 0)
(58.2261 0 0)
(58.2685 0 0)
(58.3108 0 0)
(58.3532 0 0)
(58.3956 0 0)
(58.4379 0 0)
(58.4803 0 0)
(58.5227 0 0)
(58.565 0 0)
(58.6074 0 0)
(58.6498 0 0)
(58.6922 0 0)
(58.7345 0 0)
(58.7769 0 0)
(58.8193 0 0)
(58.8616 0 0)
(58.904 0 0)
(58.9464 0 0)
(58.9888 0 0)
(59.0311 0 0)
(59.0735 0 0)
(59.1159 0 0)
(59.1583 0 0)
(59.2006 0 0)
(59.243 0 0)
(59.2854 0 0)
(59.3278 0 0)
(59.3701 0 0)
(59.4125 0 0)
(59.4549 0 0)
(59.4973 0 0)
(59.5396 0 0)
(59.582 0 0)
(59.6244 0 0)
(59.6668 0 0)
(59.7091 0 0)
(59.7515 0 0)
(59.7939 0 0)
(59.8363 0 0)
(59.8786 0 0)
(59.921 0 0)
(59.9634 0 0)
(60.0058 0 0)
(60.0482 0 0)
(60.0905 0 0)
(60.1329 0 0)
(60.1753 0 0)
(60.2177 0 0)
(60.2601 0 0)
(60.3024 0 0)
(60.3448 0 0)
(60.3872 0 0)
(60.4296 0 0)
(60.472 0 0)
(60.5143 0 0)
(60.5567 0 0)
(60.5991 0 0)
(60.6415 0 0)
(60.6839 0 0)
(60.7262 0 0)
(60.7686 0 0)
(60.811 0 0)
(60.8534 0 0)
(60.8958 0 0)
(60.9381 0 0)
(60.9805 0 0)
(61.0229 0 0)
(61.0653 0 0)
(61.1077 0 0)
(61.1501 0 0)
(61.1924 0 0)
(61.2348 0 0)
(61.2772 0 0)
(61.3196 0 0)
(61.362 0 0)
(61.4044 0 0)
(61.4467 0 0)
(61.4891 0 0)
(61.5315 0 0)
(61.5739 0 0)
(61.6163 0 0)
(61.6587 0 0)
(61.7011 0 0)
(61.7434 0 0)
(61.7858 0 0)
(61.8282 0 0)
(61.8706 0 0)
(61.913 0 0)
(61.9554 0 0)
(61.9978 0 0)
(62.0402 0 0)
(62.0825 0 0)
(62.1249 0 0)
(62.1673 0 0)
(62.2097 0 0)
(62.2521 0 0)
(62.2945 0 0)
(62.3369 0 0)
(62.3793 0 0)
(62.4217 0 0)
(62.464 0 0)
(62.5064 0 0)
(62.5488 0 0)
(62.5912 0 0)
(62.6336 0 0)
(62.676 0 0)
(62.7184 0 0)
(62.7608 0 0)
(62.8032 0 0)
(62.8456 0 0)
(62.888 0 0)
(62.9303 0 0)
(62.9727 0 0)
(63.0151 0 0)
(63.0575 0 0)
(63.0999 0 0)
(63.1423 0 0)
(63.1847 0 0)
(63.2271 0 0)
(63.2695 0 0)
(63.3119 0 0)
(63.3543 0 0)
(63.3967 0 0)
(63.4391 0 0)
(63.4815 0 0)
(63.5239 0 0)
(63.5662 0 0)
(63.6086 0 0)
(63.651 0 0)
(63.6934 0 0)
(63.7358 0 0)
(63.7782 0 0)
(63.8206 0 0)
(63.863 0 0)
(63.9054 0 0)
(63.9478 0 0)
(63.9902 0 0)
(64.0326 0 0)
(64.075 0 0)
(64.1174 0 0)
(64.1598 0 0)
(64.2022 0 0)
(64.2446 0 0)
(64.287 0 0)
(64.3294 0 0)
(64.3718 0 0)
(64.4142 0 0)
(64.4566 0 0)
(64.499 0 0)
(64.5414 0 0)
(64.5838 0 0)
(64.6262 0 0)
(64.6686 0 0)
(64.711 0 0)
(64.7534 0 0)
(64.7958 0 0)
(64.8382 0 0)
(64.8806 0 0)
(64.923 0 0)
(64.9654 0 0)
(65.0078 0 0)
(65.0502 0 0)
(65.0926 0 0)
(65.135 0 0)
(65.1774 0 0)
(65.2198 0 0)
(65.2622 0 0)
(65.3046 0 0)
(65.347 0 0)
(65.3894 0 0)
(65.4318 0 0)
(65.4742 0 0)
(65.5166 0 0)
(65.559 0 0)
(65.6014 0 0)
(65.6438 0 0)
(65.6862 0 0)
(65.7287 0 0)
(65.7711 0 0)
(65.8135 0 0)
(65.8559 0 0)
(65.8983 0 0)
(65.9407 0 0)
(65.9831 0 0)
(66.0255 0 0)
(66.0679 0 0)
(66.1103 0 0)
(66.1527 0 0)
(66.1951 0 0)
(66.2375 0 0)
(66.2799 0 0)
(66.3223 0 0)
(66.3648 0 0)
(66.4072 0 0)
(66.4496 0 0)
(66.492 0 0)
(66.5344 0 0)
(66.5768 0 0)
(66.6192 0 0)
(66.6616 0 0)
(66.704 0 0)
(66.7464 0 0)
(66.7888 0 0)
(66.8313 0 0)
(66.8737 0 0)
(66.9161 0 0)
(66.9585 0 0)
(67.0009 0 0)
(67.0433 0 0)
(67.0857 0 0)
(67.1281 0 0)
(67.1705 0 0)
(67.213 0 0)
(67.2554 0 0)
(67.2978 0 0)
(67.3402 0 0)
(67.3826 0 0)
(67.425 0 0)
(67.4674 0 0)
(67.5098 0 0)
(67.5523 0 0)
(67.5947 0 0)
(67.6371 0 0)
(67.6795 0 0)
(67.7219 0 0)
(67.7643 0 0)
(67.8067 0 0)
(67.8492 0 0)
(67.8916 0 0)
(67.934 0 0)
(67.9764 0 0)
(68.0188 0 0)
(68.0612 0 0)
(68.1036 0 0)
(68.1461 0 0)
(68.1885 0 0)
(68.2309 0 0)
(68.2733 0 0)
(68.3157 0 0)
(68.3582 0 0)
(68.4006 0 0)
(68.443 0 0)
(68.4854 0 0)
(68.5278 0 0)
(68.5702 0 0)
(68.6127 0 0)
(68.6551 0 0)
(68.6975 0 0)
(68.7399 0 0)
(68.7823 0 0)
(68.8248 0 0)
(68.8672 0 0)
(68.9096 0 0)
(68.952 0 0)
(68.9944 0 0)
(69.0369 0 0)
(69.0793 0 0)
(69.1217 0 0)
(69.1641 0 0)
(69.2065 0 0)
(69.249 0 0)
(69.2914 0 0)
(69.3338 0 0)
(69.3762 0 0)
(69.4186 0 0)
(69.4611 0 0)
(69.5035 0 0)
(69.5459 0 0)
(69.5883 0 0)
(69.6308 0 0)
(69.6732 0 0)
(69.7156 0 0)
(69.758 0 0)
(69.8005 0 0)
(69.8429 0 0)
(69.8853 0 0)
(69.9277 0 0)
(69.9702 0 0)
(70.0126 0 0)
(70.055 0 0)
(70.0974 0 0)
(70.1399 0 0)
(70.1823 0 0)
(70.2247 0 0)
(70.2671 0 0)
(70.3096 0 0)
(70.352 0 0)
(70.3944 0 0)
(70.4368 0 0)
(70.4793 0 0)
(70.5217 0 0)
(70.5641 0 0)
(70.6065 0 0)
(70.649 0 0)
(70.6914 0 0)
(70.7338 0 0)
(70.7763 0 0)
(70.8187 0 0)
(70.8611 0 0)
(70.9035 0 0)
(70.946 0 0)
(70.9884 0 0)
(71.0308 0 0)
(71.0733 0 0)
(71.1157 0 0)
(71.1581 0 0)
(71.2005 0 0)
(71.243 0 0)
(71.2854 0 0)
(71.3278 0 0)
(71.3703 0 0)
(71.4127 0 0)
(71.4551 0 0)
(71.4976 0 0)
(71.54 0 0)
(71.5824 0 0)
(71.6249 0 0)
(71.6673 0 0)
(71.7097 0 0)
(71.7522 0 0)
(71.7946 0 0)
(71.837 0 0)
(71.8795 0 0)
(71.9219 0 0)
(71.9643 0 0)
(72.0068 0 0)
(72.0492 0 0)
(72.0916 0 0)
(72.1341 0 0)
(72.1765 0 0)
(72.2189 0 0)
(72.2614 0 0)
(72.3038 0 0)
(72.3462 0 0)
(72.3887 0 0)
(72.4311 0 0)
(72.4735 0 0)
(72.516 0 0)
(72.5584 0 0)
(72.6009 0 0)
(72.6433 0 0)
(72.6857 0 0)
(72.7282 0 0)
(72.7706 0 0)
(72.813 0 0)
(72.8555 0 0)
(72.8979 0 0)
(72.9404 0 0)
(72.9828 0 0)
(73.0252 0 0)
(73.0677 0 0)
(73.1101 0 0)
(73.1525 0 0)
(73.195 0 0)
(73.2374 0 0)
(73.2799 0 0)
(73.3223 0 0)
(73.3647 0 0)
(73.4072 0 0)
(73.4496 0 0)
(73.4921 0 0)
(73.5345 0 0)
(73.5769 0 0)
(73.6194 0 0)
(73.6618 0 0)
(73.7043 0 0)
(73.7467 0 0)
(73.7892 0 0)
(73.8316 0 0)
(73.874 0 0)
(73.9165 0 0)
(73.9589 0 0)
(74.0014 0 0)
(74.0438 0 0)
(74.0863 0 0)
(74.1287 0 0)
(74.1711 0 0)
(74.2136 0 0)
(74.256 0 0)
(74.2985 0 0)
(74.3409 0 0)
(74.3834 0 0)
(74.4258 0 0)
(74.4683 0 0)
(74.5107 0 0)
(74.5531 0 0)
(74.5956 0 0)
(74.638 0 0)
(74.6805 0 0)
(74.7229 0 0)
(74.7654 0 0)
(74.8078 0 0)
(74.8503 0 0)
(74.8927 0 0)
(74.9352 0 0)
(74.9776 0 0)
(75.0201 0 0)
(75.0625 0 0)
(75.1049 0 0)
(75.1474 0 0)
(75.1898 0 0)
(75.2323 0 0)
(75.2747 0 0)
(75.3172 0 0)
(75.3596 0 0)
(75.4021 0 0)
(75.4445 0 0)
(75.487 0 0)
(75.5294 0 0)
(75.5719 0 0)
(75.6143 0 0)
(75.6568 0 0)
(75.6992 0 0)
(75.7417 0 0)
(75.7841 0 0)
(75.8266 0 0)
(75.869 0 0)
(75.9115 0 0)
(75.9539 0 0)
(75.9964 0 0)
(76.0388 0 0)
(76.0813 0 0)
(76.1237 0 0)
(76.1662 0 0)
(76.2087 0 0)
(76.2511 0 0)
(76.2936 0 0)
(76.336 0 0)
(76.3785 0 0)
(76.4209 0 0)
(76.4634 0 0)
(76.5058 0 0)
(76.5483 0 0)
(76.5907 0 0)
(76.6332 0 0)
(76.6756 0 0)
(76.7181 0 0)
(76.7606 0 0)
(76.803 0 0)
(76.8455 0 0)
(76.8879 0 0)
(76.9304 0 0)
(76.9728 0 0)
(77.0153 0 0)
(77.0577 0 0)
(77.1002 0 0)
(77.1427 0 0)
(77.1851 0 0)
(77.2276 0 0)
(77.27 0 0)
(77.3125 0 0)
(77.3549 0 0)
(77.3974 0 0)
(77.4399 0 0)
(77.4823 0 0)
(77.5248 0 0)
(77.5672 0 0)
(77.6097 0 0)
(77.6522 0 0)
(77.6946 0 0)
(77.7371 0 0)
(77.7795 0 0)
(77.822 0 0)
(77.8644 0 0)
(77.9069 0 0)
(77.9494 0 0)
(77.9918 0 0)
(78.0343 0 0)
(78.0767 0 0)
(78.1192 0 0)
(78.1617 0 0)
(78.2041 0 0)
(78.2466 0 0)
(78.2891 0 0)
(78.3315 0 0)
(78.374 0 0)
(78.4164 0 0)
(78.4589 0 0)
(78.5014 0 0)
(78.5438 0 0)
(78.5863 0 0)
(78.6288 0 0)
(78.6712 0 0)
(78.7137 0 0)
(78.7561 0 0)
(78.7986 0 0)
(78.8411 0 0)
(78.8835 0 0)
(78.926 0 0)
(78.9685 0 0)
(79.0109 0 0)
(79.0534 0 0)
(79.0959 0 0)
(79.1383 0 0)
(79.1808 0 0)
(79.2233 0 0)
(79.2657 0 0)
(79.3082 0 0)
(79.3506 0 0)
(79.3931 0 0)
(79.4356 0 0)
(79.478 0 0)
(79.5205 0 0)
(79.563 0 0)
(79.6055 0 0)
(79.6479 0 0)
(79.6904 0 0)
(79.7329 0 0)
(79.7753 0 0)
(79.8178 0 0)
(79.8603 0 0)
(79.9027 0 0)
(79.9452 0 0)
(79.9877 0 0)
(80.0301 0 0)
(80.0726 0 0)
(80.1151 0 0)
(80.1575 0 0)
(80.2 0 0)
(80.2425 0 0)
(80.285 0 0)
(80.3274 0 0)
(80.3699 0 0)
(80.4124 0 0)
(80.4548 0 0)
(80.4973 0 0)
(80.5398 0 0)
(80.5822 0 0)
(80.6247 0 0)
(80.6672 0 0)
(80.7097 0 0)
(80.7521 0 0)
(80.7946 0 0)
(80.8371 0 0)
(80.8796 0 0)
(80.922 0 0)
(80.9645 0 0)
(81.007 0 0)
(81.0494 0 0)
(81.0919 0 0)
(81.1344 0 0)
(81.1769 0 0)
(81.2193 0 0)
(81.2618 0 0)
(81.3043 0 0)
(81.3468 0 0)
(81.3892 0 0)
(81.4317 0 0)
(81.4742 0 0)
(81.5167 0 0)
(81.5591 0 0)
(81.6016 0 0)
(81.6441 0 0)
(81.6866 0 0)
(81.729 0 0)
(81.7715 0 0)
(81.814 0 0)
(81.8565 0 0)
(81.899 0 0)
(81.9414 0 0)
(81.9839 0 0)
(82.0264 0 0)
(82.0689 0 0)
(82.1113 0 0)
(82.1538 0 0)
(82.1963 0 0)
(82.2388 0 0)
(82.2813 0 0)
(82.3237 0 0)
(82.3662 0 0)
(82.4087 0 0)
(82.4512 0 0)
(82.4936 0 0)
(82.5361 0 0)
(82.5786 0 0)
(82.6211 0 0)
(82.6636 0 0)
(82.706 0 0)
(82.7485 0 0)
(82.791 0 0)
(82.8335 0 0)
(82.876 0 0)
(82.9185 0 0)
(82.9609 0 0)
(83.0034 0 0)
(83.0459 0 0)
(83.0884 0 0)
(83.1309 0 0)
(83.1733 0 0)
(83.2158 0 0)
(83.2583 0 0)
(83.3008 0 0)
(83.3433 0 0)
(83.3858 0 0)
(83.4282 0 0)
(83.4707 0 0)
(83.5132 0 0)
(83.5557 0 0)
(83.5982 0 0)
(83.6407 0 0)
(83.6831 0 0)
(83.7256 0 0)
(83.7681 0 0)
(83.8106 0 0)
(83.8531 0 0)
(83.8956 0 0)
(83.9381 0 0)
(83.9805 0 0)
(84.023 0 0)
(84.0655 0 0)
(84.108 0 0)
(84.1505 0 0)
(84.193 0 0)
(84.2355 0 0)
(84.2779 0 0)
(84.3204 0 0)
(84.3629 0 0)
(84.4054 0 0)
(84.4479 0 0)
(84.4904 0 0)
(84.5329 0 0)
(84.5754 0 0)
(84.6178 0 0)
(84.6603 0 0)
(84.7028 0 0)
(84.7453 0 0)
(84.7878 0 0)
(84.8303 0 0)
(84.8728 0 0)
(84.9153 0 0)
(84.9578 0 0)
(85.0002 0 0)
(85.0427 0 0)
(85.0852 0 0)
(85.1277 0 0)
(85.1702 0 0)
(85.2127 0 0)
(85.2552 0 0)
(85.2977 0 0)
(85.3402 0 0)
(85.3827 0 0)
(85.4252 0 0)
(85.4676 0 0)
(85.5101 0 0)
(85.5526 0 0)
(85.5951 0 0)
(85.6376 0 0)
(85.6801 0 0)
(85.7226 0 0)
(85.7651 0 0)
(85.8076 0 0)
(85.8501 0 0)
(85.8926 0 0)
(85.9351 0 0)
(85.9776 0 0)
(86.0201 0 0)
(86.0625 0 0)
(86.105 0 0)
(86.1475 0 0)
(86.19 0 0)
(86.2325 0 0)
(86.275 0 0)
(86.3175 0 0)
(86.36 0 0)
(86.4025 0 0)
(86.445 0 0)
(86.4875 0 0)
(86.53 0 0)
(86.5725 0 0)
(86.615 0 0)
(86.6575 0 0)
(86.7 0 0)
(86.7425 0 0)
(86.785 0 0)
(86.8275 0 0)
(86.87 0 0)
(86.9125 0 0)
(86.955 0 0)
(86.9975 0 0)
(87.04 0 0)
(87.0825 0 0)
(87.125 0 0)
(87.1675 0 0)
(87.21 0 0)
(87.2524 0 0)
(87.2949 0 0)
(87.3374 0 0)
(87.3799 0 0)
(87.4224 0 0)
(87.4649 0 0)
(87.5074 0 0)
(87.5499 0 0)
(87.5924 0 0)
(87.6349 0 0)
(87.6774 0 0)
(87.7199 0 0)
(87.7624 0 0)
(87.8049 0 0)
(87.8474 0 0)
(87.89 0 0)
(87.9325 0 0)
(87.975 0 0)
(88.0175 0 0)
(88.06 0 0)
(88.1025 0 0)
(88.145 0 0)
(88.1875 0 0)
(88.23 0 0)
(88.2725 0 0)
(88.315 0 0)
(88.3575 0 0)
(88.4 0 0)
(88.4425 0 0)
(88.485 0 0)
(88.5275 0 0)
(88.57 0 0)
(88.6125 0 0)
(88.655 0 0)
(88.6975 0 0)
(88.74 0 0)
(88.7825 0 0)
(88.825 0 0)
(88.8675 0 0)
(88.91 0 0)
(88.9525 0 0)
(88.995 0 0)
(89.0375 0 0)
(89.0801 0 0)
(89.1226 0 0)
(89.1651 0 0)
(89.2076 0 0)
(89.2501 0 0)
(89.2926 0 0)
(89.3351 0 0)
(89.3776 0 0)
(89.4201 0 0)
(89.4626 0 0)
(89.5051 0 0)
(89.5476 0 0)
(89.5901 0 0)
(89.6326 0 0)
(89.6752 0 0)
(89.7177 0 0)
(89.7602 0 0)
(89.8027 0 0)
(89.8452 0 0)
(89.8877 0 0)
(89.9302 0 0)
(89.9727 0 0)
(90.0152 0 0)
(90.0577 0 0)
(90.1002 0 0)
(90.1428 0 0)
(90.1853 0 0)
(90.2278 0 0)
(90.2703 0 0)
(90.3128 0 0)
(90.3553 0 0)
(90.3978 0 0)
(90.4403 0 0)
(90.4828 0 0)
(90.5253 0 0)
(90.5679 0 0)
(90.6104 0 0)
(90.6529 0 0)
(90.6954 0 0)
(90.7379 0 0)
(90.7804 0 0)
(90.8229 0 0)
(90.8654 0 0)
(90.908 0 0)
(90.9505 0 0)
(90.993 0 0)
(91.0355 0 0)
(91.078 0 0)
(91.1205 0 0)
(91.163 0 0)
(91.2056 0 0)
(91.2481 0 0)
(91.2906 0 0)
(91.3331 0 0)
(91.3756 0 0)
(91.4181 0 0)
(91.4606 0 0)
(91.5032 0 0)
(91.5457 0 0)
(91.5882 0 0)
(91.6307 0 0)
(91.6732 0 0)
(91.7157 0 0)
(91.7582 0 0)
(91.8008 0 0)
(91.8433 0 0)
(91.8858 0 0)
(91.9283 0 0)
(91.9708 0 0)
(92.0133 0 0)
(92.0559 0 0)
(92.0984 0 0)
(92.1409 0 0)
(92.1834 0 0)
(92.2259 0 0)
(92.2685 0 0)
(92.311 0 0)
(92.3535 0 0)
(92.396 0 0)
(92.4385 0 0)
(92.481 0 0)
(92.5236 0 0)
(92.5661 0 0)
(92.6086 0 0)
(92.6511 0 0)
(92.6936 0 0)
(92.7362 0 0)
(92.7787 0 0)
(92.8212 0 0)
(92.8637 0 0)
(92.9062 0 0)
(92.9488 0 0)
(92.9913 0 0)
(93.0338 0 0)
(93.0763 0 0)
(93.1188 0 0)
(93.1614 0 0)
(93.2039 0 0)
(93.2464 0 0)
(93.2889 0 0)
(93.3315 0 0)
(93.374 0 0)
(93.4165 0 0)
(93.459 0 0)
(93.5015 0 0)
(93.5441 0 0)
(93.5866 0 0)
(93.6291 0 0)
(93.6716 0 0)
(93.7142 0 0)
(93.7567 0 0)
(93.7992 0 0)
(93.8417 0 0)
(93.8842 0 0)
(93.9268 0 0)
(93.9693 0 0)
(94.0118 0 0)
(94.0543 0 0)
(94.0969 0 0)
(94.1394 0 0)
(94.1819 0 0)
(94.2244 0 0)
(94.267 0 0)
(94.3095 0 0)
(94.352 0 0)
(94.3945 0 0)
(94.4371 0 0)
(94.4796 0 0)
(94.5221 0 0)
(94.5646 0 0)
(94.6072 0 0)
(94.6497 0 0)
(94.6922 0 0)
(94.7348 0 0)
(94.7773 0 0)
(94.8198 0 0)
(94.8623 0 0)
(94.9049 0 0)
(94.9474 0 0)
(94.9899 0 0)
(95.0324 0 0)
(95.075 0 0)
(95.1175 0 0)