/*--------------------------------*- C++ -*----------------------------------*\
  =========                 |
  \\      /  F ield         | OpenFOAM: The Open Source CFD Toolbox
   \\    /   O peration     | Website:  https://openfoam.org
    \\  /    A nd           | Version:  9
     \\/     M anipulation  |
\*---------------------------------------------------------------------------*/
FoamFile
{
    format      ascii;
    class       volScalarField;
    location    "0.03";
    object      mag(U);
}
// * * * * * * * * * * * * * * * * * * * * * * * * * * * * * * * * * * * * * //

dimensions      [0 1 -1 0 0 0 0];

internalField   nonuniform List<scalar> 
100
(
42.7419
46.8636
51.8504
55.5923
59.1914
62.9109
66.6731
70.4237
74.1714
77.9232
81.6517
85.3931
89.1313
92.8491
96.5836
100.314
104.017
107.727
111.453
115.153
118.825
122.507
126.201
129.872
133.507
137.13
140.761
144.387
147.979
151.535
155.077
158.61
162.122
165.592
169.014
172.399
175.751
179.053
182.304
185.505
188.667
191.83
194.995
198.15
201.272
204.316
207.208
209.914
212.496
215.014
217.479
219.881
222.205
224.452
226.631
228.735
230.765
232.724
234.618
236.463
238.275
240.055
241.796
243.502
245.185
246.856
248.525
250.192
251.846
253.48
255.098
256.706
258.307
259.895
261.464
263.01
264.528
266.02
267.49
268.944
270.381
271.8
273.204
274.586
275.942
277.27
278.565
279.824
281.04
282.205
283.309
284.346
285.31
286.196
287.003
287.729
288.368
288.911
289.321
289.831
)
;

boundaryField
{
    sides
    {
        type            calculated;
        value           nonuniform List<scalar> 2(289.831 42.7419);
    }
    empty
    {
        type            empty;
    }
}


// ************************************************************************* //
