/*--------------------------------*- C++ -*----------------------------------*\
  =========                 |
  \\      /  F ield         | OpenFOAM: The Open Source CFD Toolbox
   \\    /   O peration     | Website:  https://openfoam.org
    \\  /    A nd           | Version:  9
     \\/     M anipulation  |
\*---------------------------------------------------------------------------*/
FoamFile
{
    format      ascii;
    class       volScalarField;
    location    "0.008";
    object      T;
}
// * * * * * * * * * * * * * * * * * * * * * * * * * * * * * * * * * * * * * //

dimensions      [0 0 0 1 0 0 0];

internalField   nonuniform List<scalar> 
1000
(
348.432
348.432
348.432
348.432
348.432
348.432
348.432
348.432
348.432
348.432
348.432
348.432
348.432
348.432
348.432
348.432
348.432
348.432
348.432
348.432
348.432
348.432
348.432
348.432
348.432
348.432
348.432
348.432
348.432
348.432
348.432
348.432
348.432
348.432
348.432
348.432
348.432
348.432
348.432
348.432
348.432
348.432
348.432
348.432
348.432
348.432
348.432
348.432
348.432
348.432
348.432
348.432
348.432
348.432
348.432
348.432
348.432
348.432
348.432
348.432
348.432
348.432
348.432
348.432
348.432
348.432
348.432
348.432
348.432
348.432
348.432
348.432
348.432
348.432
348.432
348.432
348.432
348.432
348.432
348.432
348.432
348.432
348.432
348.432
348.432
348.432
348.432
348.432
348.432
348.432
348.432
348.432
348.432
348.432
348.432
348.432
348.432
348.432
348.432
348.432
348.432
348.432
348.432
348.432
348.432
348.432
348.432
348.432
348.432
348.432
348.432
348.432
348.432
348.432
348.432
348.432
348.432
348.432
348.432
348.432
348.432
348.432
348.432
348.432
348.432
348.432
348.432
348.432
348.432
348.432
348.432
348.432
348.432
348.432
348.432
348.432
348.432
348.432
348.432
348.432
348.432
348.432
348.432
348.432
348.432
348.432
348.432
348.432
348.432
348.432
348.432
348.432
348.432
348.432
348.431
348.431
348.431
348.43
348.43
348.429
348.428
348.427
348.426
348.424
348.421
348.418
348.414
348.409
348.403
348.395
348.386
348.375
348.361
348.344
348.325
348.301
348.274
348.242
348.204
348.161
348.112
348.055
347.992
347.92
347.841
347.752
347.654
347.548
347.431
347.304
347.168
347.022
346.866
346.699
346.523
346.338
346.143
345.939
345.727
345.506
345.276
345.039
344.795
344.544
344.285
344.021
343.751
343.475
343.193
342.907
342.616
342.32
342.02
341.717
341.409
341.099
340.785
340.468
340.148
339.826
339.501
339.173
338.844
338.512
338.179
337.844
337.506
337.168
336.828
336.486
336.143
335.799
335.453
335.106
334.759
334.41
334.06
333.71
333.358
333.006
332.653
332.299
331.944
331.589
331.233
330.877
330.52
330.163
329.805
329.446
329.088
328.728
328.369
328.009
327.649
327.288
326.927
326.566
326.205
325.843
325.481
325.119
324.757
324.395
324.032
323.67
323.307
322.944
322.581
322.218
321.855
321.492
321.129
320.765
320.402
320.039
319.675
319.312
318.949
318.585
318.222
317.859
317.495
317.132
316.769
316.406
316.042
315.679
315.316
314.953
314.591
314.228
313.865
313.502
313.14
312.778
312.415
312.053
311.691
311.329
310.967
310.605
310.244
309.882
309.521
309.16
308.798
308.437
308.077
307.716
307.355
306.995
306.635
306.275
305.915
305.555
305.195
304.836
304.477
304.118
303.759
303.4
303.041
302.683
302.325
301.967
301.609
301.251
300.894
300.536
300.179
299.822
299.465
299.109
298.752
298.396
298.04
297.685
297.329
296.974
296.619
296.264
295.909
295.554
295.2
294.846
294.492
294.138
293.785
293.432
293.079
292.726
292.374
292.021
291.67
291.315
290.968
290.609
290.27
289.901
289.577
289.188
288.89
288.473
288.205
287.761
287.514
287.064
286.806
286.386
286.084
285.717
285.364
285.037
284.665
284.337
283.983
283.633
283.296
282.941
282.599
282.256
281.906
281.565
281.22
280.874
280.532
280.187
279.843
279.502
279.158
278.815
278.474
278.132
277.79
277.449
277.108
276.767
276.427
276.087
275.748
275.408
275.069
274.731
274.393
274.055
273.717
273.38
273.044
272.707
272.371
272.035
271.7
271.366
271.031
270.697
270.364
270.031
269.698
269.366
269.034
268.703
268.372
268.042
267.713
267.383
267.055
266.727
266.399
266.072
265.746
265.42
265.095
264.771
264.447
264.125
263.802
263.481
263.16
262.84
262.521
262.203
261.886
261.57
261.255
260.94
260.627
260.315
260.004
259.694
259.386
259.079
258.773
258.469
258.166
257.865
257.565
257.268
256.972
256.678
256.386
256.096
255.809
255.524
255.241
254.961
254.684
254.41
254.139
253.871
253.607
253.346
253.089
252.836
252.588
252.343
252.104
251.869
251.64
251.416
251.198
250.985
250.779
250.579
250.386
250.199
250.02
249.848
249.683
249.527
249.378
249.237
249.104
248.979
248.862
248.753
248.652
248.56
248.474
248.397
248.326
248.263
248.206
248.155
248.11
248.071
248.037
248.007
247.982
247.96
247.942
247.927
247.914
247.903
247.895
247.888
247.883
247.879
247.876
247.873
247.872
247.87
247.87
247.869
247.869
247.869
247.869
247.87
247.87
247.871
247.871
247.872
247.873
247.874
247.874
247.876
247.876
247.877
247.878
247.879
247.88
247.881
247.882
247.883
247.884
247.885
247.886
247.887
247.888
247.889
247.89
247.891
247.892
247.893
247.894
247.895
247.897
247.898
247.899
247.9
247.901
247.902
247.904
247.905
247.906
247.907
247.909
247.91
247.911
247.912
247.914
247.915
247.917
247.918
247.919
247.921
247.922
247.924
247.925
247.927
247.928
247.93
247.931
247.933
247.935
247.936
247.938
247.94
247.941
247.943
247.945
247.947
247.949
247.95
247.952
247.954
247.956
247.958
247.96
247.962
247.964
247.967
247.969
247.971
247.973
247.976
247.978
247.98
247.983
247.985
247.988
247.99
247.993
247.995
247.998
248.001
248.003
248.006
248.009
248.012
248.014
248.017
248.02
248.023
248.026
248.029
248.033
248.036
248.039
248.042
248.046
248.049
248.053
248.057
248.06
248.064
248.068
248.072
248.076
248.08
248.084
248.088
248.093
248.097
248.102
248.106
248.111
248.116
248.121
248.126
248.131
248.137
248.142
248.148
248.153
248.159
248.165
248.172
248.178
248.184
248.191
248.198
248.205
248.212
248.22
248.228
248.236
248.244
248.253
248.261
248.27
248.279
248.289
248.299
248.309
248.32
248.331
248.342
248.354
248.366
248.379
248.392
248.406
248.42
248.435
248.451
248.467
248.484
248.502
248.521
248.54
248.561
248.583
248.605
248.63
248.655
248.682
248.71
248.74
248.772
248.808
248.846
248.888
248.934
248.982
249.033
249.084
249.135
249.184
249.232
249.283
249.344
249.427
249.55
249.736
250.017
250.429
251.012
251.814
252.882
254.263
256.006
258.153
260.742
263.804
267.36
271.422
275.986
281.038
286.549
292.473
298.754
305.321
312.093
318.979
325.886
332.719
339.387
345.805
351.901
357.612
362.895
367.718
372.067
375.942
379.353
382.323
384.879
387.057
388.893
390.426
391.694
392.733
393.577
394.257
394.8
395.23
395.568
395.831
396.036
396.193
396.314
396.405
396.475
396.527
396.567
396.596
396.619
396.636
396.649
396.659
396.667
396.674
396.679
396.683
396.687
396.69
396.693
396.696
396.698
396.7
396.701
396.703
396.704
396.705
396.706
396.707
396.708
396.708
396.709
396.71
396.71
396.71
396.711
396.711
396.711
396.711
396.712
396.712
396.712
396.712
396.712
396.712
396.712
396.713
396.713
396.713
396.713
396.713
396.713
396.713
396.713
396.713
396.713
396.713
396.713
396.713
396.713
396.714
396.714
396.714
396.714
396.714
396.714
396.714
396.714
396.715
396.715
396.715
396.715
396.715
396.715
396.715
396.715
396.715
396.715
396.716
396.716
396.716
396.716
396.716
396.716
396.716
396.716
396.716
396.717
396.717
396.717
396.717
396.717
396.717
396.717
396.717
396.717
396.717
396.717
396.717
396.717
396.717
396.717
396.717
396.717
396.717
396.717
396.717
396.717
396.717
396.717
396.717
396.718
396.718
396.717
396.717
396.717
396.717
396.717
396.717
396.717
396.717
396.716
396.716
396.716
396.717
396.717
396.717
396.717
396.717
396.717
396.717
396.717
396.717
396.717
396.717
396.717
396.717
396.717
396.717
396.716
396.716
396.716
396.716
396.716
396.716
396.716
396.716
396.716
396.716
396.716
396.716
396.716
396.716
396.716
396.716
396.716
396.716
396.716
396.715
396.715
396.715
396.715
396.715
396.715
396.714
396.714
396.713
396.713
396.713
396.712
396.711
396.709
396.704
396.694
396.665
396.62
396.533
396.346
395.9
395.047
392.97
388.356
378.138
355.717
326.888
301.748
286.894
281.095
279.364
278.903
278.785
278.756
278.748
278.747
278.746
278.746
278.746
278.746
278.746
278.746
278.746
278.746
278.746
278.746
278.746
278.746
278.746
278.746
278.746
278.746
278.746
278.746
278.746
278.746
278.746
278.746
278.746
278.746
278.746
278.746
278.746
278.746
278.746
278.746
278.746
278.746
278.746
278.746
278.746
278.746
278.746
278.746
278.746
278.746
278.746
278.746
278.746
278.746
278.746
278.746
278.746
278.746
)
;

boundaryField
{
    sides
    {
        type            zeroGradient;
    }
    empty
    {
        type            empty;
    }
}


// ************************************************************************* //
