/*--------------------------------*- C++ -*----------------------------------*\
  =========                 |
  \\      /  F ield         | OpenFOAM: The Open Source CFD Toolbox
   \\    /   O peration     | Website:  https://openfoam.org
    \\  /    A nd           | Version:  9
     \\/     M anipulation  |
\*---------------------------------------------------------------------------*/
FoamFile
{
    format      ascii;
    class       surfaceScalarField;
    location    "0.048";
    object      phi;
}
// * * * * * * * * * * * * * * * * * * * * * * * * * * * * * * * * * * * * * //

dimensions      [1 0 -1 0 0 0 0];

internalField   nonuniform List<scalar> 
9999
(
4.78244
4.7988
4.81516
4.83153
4.84789
4.86425
4.88061
4.89697
4.91333
4.92969
4.94605
4.9624
4.97876
4.99512
5.01147
5.02783
5.04418
5.06054
5.07689
5.09324
5.10959
5.12595
5.1423
5.15865
5.175
5.19134
5.20769
5.22404
5.24039
5.25673
5.27308
5.28942
5.30577
5.32211
5.33846
5.3548
5.37114
5.38748
5.40382
5.42016
5.4365
5.45284
5.46918
5.48551
5.50185
5.51819
5.53452
5.55086
5.56719
5.58352
5.59985
5.61619
5.63252
5.64885
5.66518
5.6815
5.69783
5.71416
5.73048
5.74681
5.76313
5.77946
5.79578
5.8121
5.82843
5.84475
5.86107
5.87739
5.8937
5.91002
5.92634
5.94266
5.95897
5.97529
5.9916
6.00791
6.02422
6.04054
6.05685
6.07315
6.08946
6.10577
6.12208
6.13839
6.15469
6.17099
6.1873
6.2036
6.2199
6.2362
6.25251
6.2688
6.2851
6.3014
6.3177
6.33399
6.35029
6.36658
6.38287
6.39917
6.41546
6.43175
6.44804
6.46432
6.48061
6.4969
6.51318
6.52947
6.54575
6.56204
6.57832
6.5946
6.61088
6.62716
6.64343
6.65971
6.67598
6.69226
6.70853
6.72481
6.74108
6.75735
6.77362
6.78989
6.80616
6.82242
6.83869
6.85495
6.87121
6.88748
6.90374
6.92
6.93626
6.95252
6.96878
6.98503
7.00129
7.01754
7.03379
7.05004
7.06629
7.08254
7.09879
7.11504
7.13129
7.14754
7.16378
7.18003
7.19627
7.21251
7.22874
7.24498
7.26121
7.27744
7.29368
7.30991
7.32614
7.34238
7.35861
7.37485
7.39108
7.40731
7.42354
7.43976
7.45598
7.4722
7.48842
7.50463
7.52084
7.53706
7.55327
7.56948
7.5857
7.60191
7.61813
7.63434
7.65055
7.66677
7.68298
7.69919
7.71539
7.7316
7.7478
7.76399
7.78018
7.79637
7.81256
7.82875
7.84493
7.86112
7.87731
7.89349
7.90968
7.92587
7.94206
7.95825
7.97444
7.99063
8.00682
8.02301
8.0392
8.05539
8.07157
8.08775
8.10392
8.12009
8.13626
8.15242
8.16858
8.18473
8.20088
8.21703
8.23318
8.24932
8.26546
8.2816
8.29774
8.31388
8.33002
8.34617
8.36231
8.37846
8.39461
8.41077
8.42692
8.44308
8.45925
8.47541
8.49159
8.50776
8.52394
8.54012
8.5563
8.57249
8.58867
8.60486
8.62105
8.63724
8.65343
8.66961
8.6858
8.70199
8.71817
8.73436
8.75054
8.76672
8.78291
8.79909
8.81527
8.83145
8.84764
8.86383
8.88001
8.89619
8.91238
8.92855
8.94473
8.96091
8.97708
8.99326
9.00943
9.0256
9.04177
9.05794
9.0741
9.09026
9.10643
9.12259
9.13875
9.1549
9.17106
9.18721
9.20336
9.21951
9.23566
9.25181
9.26795
9.2841
9.30024
9.31638
9.33251
9.34865
9.36478
9.38092
9.39705
9.41317
9.4293
9.44543
9.46155
9.47767
9.49379
9.50991
9.52602
9.54213
9.55825
9.57435
9.59046
9.60657
9.62267
9.63877
9.65487
9.67097
9.68707
9.70316
9.71925
9.73534
9.75143
9.76751
9.7836
9.79968
9.81576
9.83183
9.84791
9.86398
9.88005
9.89612
9.91219
9.92825
9.94431
9.96037
9.97643
9.99248
10.0085
10.0246
10.0406
10.0567
10.0727
10.0888
10.1048
10.1208
10.1369
10.1529
10.1689
10.185
10.201
10.217
10.233
10.2491
10.2651
10.2811
10.2971
10.3131
10.3291
10.3451
10.3611
10.3771
10.3931
10.4091
10.4251
10.4411
10.4571
10.4731
10.489
10.505
10.521
10.537
10.5529
10.5689
10.5849
10.6008
10.6168
10.6327
10.6487
10.6646
10.6806
10.6965
10.7125
10.7284
10.7444
10.7603
10.7762
10.7921
10.8081
10.824
10.8399
10.8558
10.8717
10.8877
10.9036
10.9195
10.9354
10.9513
10.9672
10.9831
10.9989
11.0148
11.0307
11.0466
11.0625
11.0783
11.0942
11.1101
11.1259
11.1418
11.1577
11.1735
11.1894
11.2052
11.2211
11.2369
11.2527
11.2686
11.2844
11.3002
11.316
11.3319
11.3477
11.3635
11.3793
11.3951
11.4109
11.4267
11.4425
11.4583
11.4741
11.4899
11.5056
11.5214
11.5372
11.553
11.5687
11.5845
11.6003
11.616
11.6318
11.6475
11.6632
11.679
11.6947
11.7105
11.7262
11.7419
11.7576
11.7733
11.789
11.8048
11.8205
11.8362
11.8519
11.8675
11.8832
11.8989
11.9146
11.9303
11.9459
11.9616
11.9773
11.9929
12.0086
12.0242
12.0399
12.0555
12.0711
12.0868
12.1024
12.118
12.1336
12.1492
12.1648
12.1805
12.1961
12.2116
12.2272
12.2428
12.2584
12.274
12.2895
12.3051
12.3207
12.3362
12.3518
12.3673
12.3829
12.3984
12.4139
12.4295
12.445
12.4605
12.476
12.4915
12.507
12.5225
12.538
12.5535
12.569
12.5844
12.5999
12.6154
12.6308
12.6463
12.6617
12.6772
12.6926
12.708
12.7234
12.7389
12.7543
12.7697
12.7851
12.8005
12.8159
12.8313
12.8466
12.862
12.8774
12.8927
12.9081
12.9235
12.9388
12.9541
12.9695
12.9848
13.0001
13.0154
13.0307
13.046
13.0613
13.0766
13.0919
13.1072
13.1224
13.1377
13.153
13.1682
13.1835
13.1987
13.2139
13.2291
13.2444
13.2596
13.2748
13.29
13.3052
13.3203
13.3355
13.3507
13.3658
13.381
13.3961
13.4113
13.4264
13.4415
13.4567
13.4718
13.4869
13.502
13.5171
13.5322
13.5472
13.5623
13.5774
13.5924
13.6074
13.6225
13.6375
13.6525
13.6676
13.6826
13.6976
13.7125
13.7275
13.7425
13.7575
13.7724
13.7874
13.8023
13.8173
13.8322
13.8471
13.862
13.8769
13.8918
13.9067
13.9216
13.9364
13.9513
13.9661
13.981
13.9958
14.0106
14.0254
14.0402
14.055
14.0698
14.0846
14.0994
14.1141
14.1289
14.1436
14.1584
14.1731
14.1878
14.2025
14.2172
14.2319
14.2466
14.2612
14.2759
14.2905
14.3052
14.3198
14.3344
14.349
14.3636
14.3782
14.3928
14.4073
14.4219
14.4364
14.451
14.4655
14.48
14.4945
14.509
14.5235
14.538
14.5524
14.5669
14.5813
14.5958
14.6102
14.6246
14.639
14.6534
14.6678
14.6821
14.6965
14.7108
14.7251
14.7395
14.7538
14.7681
14.7824
14.7966
14.8109
14.8251
14.8394
14.8536
14.8678
14.882
14.8962
14.9104
14.9246
14.9387
14.9528
14.967
14.9811
14.9952
15.0093
15.0234
15.0374
15.0515
15.0655
15.0796
15.0936
15.1076
15.1216
15.1355
15.1495
15.1635
15.1774
15.1913
15.2052
15.2191
15.233
15.2469
15.2607
15.2746
15.2884
15.3022
15.316
15.3298
15.3436
15.3573
15.3711
15.3848
15.3985
15.4122
15.4259
15.4396
15.4533
15.4669
15.4805
15.4941
15.5077
15.5213
15.5349
15.5485
15.562
15.5755
15.589
15.6025
15.616
15.6295
15.6429
15.6564
15.6698
15.6832
15.6966
15.71
15.7233
15.7367
15.75
15.7633
15.7766
15.7899
15.8031
15.8164
15.8296
15.8428
15.856
15.8692
15.8824
15.8955
15.9086
15.9218
15.9349
15.9479
15.961
15.974
15.9871
16.0001
16.0131
16.0261
16.039
16.052
16.0649
16.0778
16.0907
16.1036
16.1165
16.1293
16.1421
16.1549
16.1677
16.1805
16.1932
16.206
16.2187
16.2314
16.2441
16.2567
16.2694
16.282
16.2946
16.3072
16.3198
16.3324
16.3449
16.3574
16.3699
16.3824
16.3949
16.4073
16.4197
16.4322
16.4445
16.4569
16.4693
16.4816
16.4939
16.5062
16.5185
16.5308
16.543
16.5552
16.5674
16.5796
16.5918
16.6039
16.6161
16.6282
16.6403
16.6523
16.6644
16.6764
16.6884
16.7004
16.7124
16.7244
16.7363
16.7482
16.7601
16.772
16.7839
16.7957
16.8075
16.8193
16.8311
16.8429
16.8546
16.8663
16.8781
16.8897
16.9014
16.9131
16.9247
16.9363
16.9479
16.9595
16.971
16.9826
16.9941
17.0056
17.017
17.0285
17.0399
17.0514
17.0628
17.0741
17.0855
17.0968
17.1082
17.1195
17.1307
17.142
17.1533
17.1645
17.1757
17.1869
17.1981
17.2092
17.2204
17.2315
17.2426
17.2536
17.2647
17.2757
17.2868
17.2978
17.3088
17.3197
17.3307
17.3416
17.3525
17.3634
17.3743
17.3852
17.396
17.4068
17.4176
17.4284
17.4392
17.4499
17.4607
17.4714
17.4821
17.4928
17.5034
17.5141
17.5247
17.5353
17.5459
17.5565
17.5671
17.5776
17.5881
17.5986
17.6091
17.6196
17.6301
17.6405
17.651
17.6614
17.6718
17.6821
17.6925
17.7029
17.7132
17.7235
17.7338
17.7441
17.7544
17.7646
17.7749
17.7851
17.7953
17.8055
17.8157
17.8259
17.836
17.8462
17.8563
17.8664
17.8765
17.8866
17.8966
17.9067
17.9167
17.9268
17.9368
17.9468
17.9568
17.9667
17.9767
17.9866
17.9966
18.0065
18.0164
18.0263
18.0362
18.0461
18.0559
18.0658
18.0756
18.0854
18.0953
18.1051
18.1148
18.1246
18.1344
18.1441
18.1539
18.1636
18.1734
18.1831
18.1928
18.2025
18.2121
18.2218
18.2315
18.2411
18.2508
18.2604
18.27
18.2796
18.2893
18.2988
18.3084
18.318
18.3276
18.3371
18.3467
18.3562
18.3658
18.3753
18.3848
18.3943
18.4038
18.4133
18.4228
18.4323
18.4418
18.4512
18.4607
18.4701
18.4796
18.489
18.4984
18.5078
18.5173
18.5267
18.5361
18.5455
18.5549
18.5642
18.5736
18.583
18.5923
18.6017
18.6111
18.6204
18.6297
18.6391
18.6484
18.6577
18.6671
18.6764
18.6857
18.695
18.7043
18.7136
18.7229
18.7322
18.7415
18.7507
18.76
18.7693
18.7785
18.7878
18.7971
18.8063
18.8156
18.8248
18.8341
18.8433
18.8525
18.8618
18.871
18.8802
18.8895
18.8987
18.9079
18.9171
18.9263
18.9355
18.9447
18.9539
18.9631
18.9723
18.9815
18.9907
18.9999
19.0091
19.0183
19.0275
19.0367
19.0458
19.055
19.0642
19.0734
19.0826
19.0917
19.1009
19.1101
19.1192
19.1284
19.1376
19.1467
19.1559
19.165
19.1742
19.1834
19.1925
19.2017
19.2108
19.22
19.2291
19.2383
19.2474
19.2566
19.2657
19.2749
19.284
19.2932
19.3023
19.3115
19.3206
19.3297
19.3389
19.348
19.3572
19.3663
19.3755
19.3846
19.3937
19.4029
19.412
19.4212
19.4303
19.4394
19.4486
19.4577
19.4668
19.476
19.4851
19.4943
19.5034
19.5125
19.5217
19.5308
19.54
19.5491
19.5582
19.5674
19.5765
19.5857
19.5948
19.6039
19.6131
19.6222
19.6314
19.6405
19.6496
19.6588
19.6679
19.6771
19.6862
19.6953
19.7045
19.7136
19.7228
19.7319
19.7411
19.7502
19.7594
19.7685
19.7777
19.7868
19.796
19.8051
19.8143
19.8234
19.8326
19.8417
19.8509
19.86
19.8692
19.8783
19.8875
19.8966
19.9058
19.9149
19.9241
19.9333
19.9424
19.9516
19.9607
19.9699
19.9791
19.9882
19.9974
20.0066
20.0157
20.0249
20.0341
20.0432
20.0524
20.0616
20.0707
20.0799
20.0891
20.0982
20.1074
20.1166
20.1258
20.1349
20.1441
20.1533
20.1625
20.1717
20.1808
20.19
20.1992
20.2084
20.2176
20.2268
20.2359
20.2451
20.2543
20.2635
20.2727
20.2819
20.2911
20.3003
20.3095
20.3186
20.3278
20.337
20.3462
20.3554
20.3646
20.3738
20.383
20.3922
20.4014
20.4106
20.4198
20.4291
20.4383
20.4475
20.4567
20.4659
20.4751
20.4843
20.4935
20.5027
20.5119
20.5212
20.5304
20.5396
20.5488
20.558
20.5673
20.5765
20.5857
20.5949
20.6041
20.6134
20.6226
20.6318
20.6411
20.6503
20.6595
20.6687
20.678
20.6872
20.6964
20.7057
20.7149
20.7242
20.7334
20.7426
20.7519
20.7611
20.7704
20.7796
20.7888
20.7981
20.8073
20.8166
20.8258
20.8351
20.8443
20.8536
20.8628
20.8721
20.8813
20.8906
20.8999
20.9091
20.9184
20.9276
20.9369
20.9462
20.9554
20.9647
20.9739
20.9832
20.9925
21.0017
21.011
21.0203
21.0296
21.0388
21.0481
21.0574
21.0666
21.0759
21.0852
21.0945
21.1038
21.113
21.1223
21.1316
21.1409
21.1502
21.1594
21.1687
21.178
21.1873
21.1966
21.2059
21.2152
21.2245
21.2338
21.2431
21.2524
21.2617
21.271
21.2802
21.2895
21.2988
21.3082
21.3175
21.3268
21.3361
21.3454
21.3547
21.364
21.3733
21.3826
21.3919
21.4012
21.4105
21.4198
21.4292
21.4385
21.4478
21.4571
21.4664
21.4758
21.4851
21.4944
21.5037
21.513
21.5224
21.5317
21.541
21.5503
21.5597
21.569
21.5783
21.5877
21.597
21.6063
21.6157
21.625
21.6343
21.6437
21.653
21.6624
21.6717
21.6811
21.6904
21.6997
21.7091
21.7184
21.7278
21.7371
21.7465
21.7558
21.7652
21.7745
21.7839
21.7932
21.8026
21.812
21.8213
21.8307
21.84
21.8494
21.8588
21.8681
21.8775
21.8868
21.8962
21.9056
21.9149
21.9243
21.9337
21.9431
21.9524
21.9618
21.9712
21.9805
21.9899
21.9993
22.0087
22.0181
22.0274
22.0368
22.0462
22.0556
22.065
22.0744
22.0837
22.0931
22.1025
22.1119
22.1213
22.1307
22.1401
22.1495
22.1589
22.1683
22.1777
22.1871
22.1965
22.2059
22.2153
22.2247
22.2341
22.2435
22.2529
22.2623
22.2717
22.2811
22.2905
22.2999
22.3093
22.3187
22.3281
22.3376
22.347
22.3564
22.3658
22.3752
22.3846
22.3941
22.4035
22.4129
22.4223
22.4318
22.4412
22.4506
22.46
22.4695
22.4789
22.4883
22.4978
22.5072
22.5166
22.5261
22.5355
22.5449
22.5544
22.5638
22.5732
22.5827
22.5921
22.6016
22.611
22.6205
22.6299
22.6394
22.6488
22.6582
22.6677
22.6771
22.6866
22.6961
22.7055
22.715
22.7244
22.7339
22.7433
22.7528
22.7623
22.7717
22.7812
22.7906
22.8001
22.8096
22.819
22.8285
22.838
22.8474
22.8569
22.8664
22.8759
22.8853
22.8948
22.9043
22.9138
22.9232
22.9327
22.9422
22.9517
22.9612
22.9706
22.9801
22.9896
22.9991
23.0086
23.0181
23.0276
23.0371
23.0465
23.056
23.0655
23.075
23.0845
23.094
23.1035
23.113
23.1225
23.132
23.1415
23.151
23.1605
23.17
23.1795
23.189
23.1985
23.208
23.2176
23.2271
23.2366
23.2461
23.2556
23.2651
23.2746
23.2842
23.2937
23.3032
23.3127
23.3222
23.3318
23.3413
23.3508
23.3603
23.3699
23.3794
23.3889
23.3984
23.408
23.4175
23.427
23.4366
23.4461
23.4556
23.4652
23.4747
23.4843
23.4938
23.5033
23.5129
23.5224
23.532
23.5415
23.5511
23.5606
23.5702
23.5797
23.5892
23.5988
23.6084
23.6179
23.6275
23.637
23.6466
23.6561
23.6657
23.6752
23.6848
23.6944
23.7039
23.7135
23.7231
23.7326
23.7422
23.7518
23.7613
23.7709
23.7805
23.79
23.7996
23.8092
23.8188
23.8283
23.8379
23.8475
23.8571
23.8667
23.8762
23.8858
23.8954
23.905
23.9146
23.9242
23.9337
23.9433
23.9529
23.9625
23.9721
23.9817
23.9913
24.0009
24.0105
24.0201
24.0297
24.0393
24.0489
24.0585
24.0681
24.0777
24.0873
24.0969
24.1065
24.1161
24.1257
24.1353
24.1449
24.1546
24.1642
24.1738
24.1834
24.193
24.2026
24.2122
24.2219
24.2315
24.2411
24.2507
24.2603
24.27
24.2796
24.2892
24.2988
24.3085
24.3181
24.3277
24.3374
24.347
24.3566
24.3663
24.3759
24.3855
24.3952
24.4048
24.4145
24.4241
24.4337
24.4434
24.453
24.4627
24.4723
24.482
24.4916
24.5013
24.5109
24.5206
24.5302
24.5399
24.5495
24.5592
24.5688
24.5785
24.5881
24.5978
24.6075
24.6171
24.6268
24.6365
24.6461
24.6558
24.6655
24.6751
24.6848
24.6945
24.7041
24.7138
24.7235
24.7332
24.7428
24.7525
24.7622
24.7719
24.7815
24.7912
24.8009
24.8106
24.8203
24.8299
24.8396
24.8493
24.859
24.8687
24.8784
24.8881
24.8978
24.9075
24.9172
24.9269
24.9365
24.9462
24.9559
24.9656
24.9753
24.985
24.9947
25.0044
25.0142
25.0239
25.0336
25.0433
25.053
25.0627
25.0724
25.0821
25.0918
25.1015
25.1113
25.121
25.1307
25.1404
25.1501
25.1598
25.1696
25.1793
25.189
25.1987
25.2085
25.2182
25.2279
25.2376
25.2474
25.2571
25.2668
25.2766
25.2863
25.296
25.3058
25.3155
25.3252
25.335
25.3447
25.3545
25.3642
25.374
25.3837
25.3934
25.4032
25.4129
25.4227
25.4324
25.4422
25.4519
25.4617
25.4714
25.4812
25.491
25.5007
25.5105
25.5202
25.53
25.5397
25.5495
25.5593
25.569
25.5788
25.5886
25.5983
25.6081
25.6179
25.6276
25.6374
25.6472
25.657
25.6667
25.6765
25.6863
25.6961
25.7058
25.7156
25.7254
25.7352
25.745
25.7548
25.7645
25.7743
25.7841
25.7939
25.8037
25.8135
25.8233
25.8331
25.8429
25.8527
25.8625
25.8722
25.882
25.8918
25.9016
25.9114
25.9212
25.931
25.9409
25.9507
25.9605
25.9703
25.9801
25.9899
25.9997
26.0095
26.0193
26.0291
26.039
26.0488
26.0586
26.0684
26.0782
26.088
26.0979
26.1077
26.1175
26.1273
26.1372
26.147
26.1568
26.1666
26.1765
26.1863
26.1961
26.206
26.2158
26.2256
26.2355
26.2453
26.2551
26.265
26.2748
26.2847
26.2945
26.3043
26.3142
26.324
26.3339
26.3437
26.3536
26.3634
26.3733
26.3831
26.393
26.4028
26.4127
26.4225
26.4324
26.4423
26.4521
26.462
26.4718
26.4817
26.4916
26.5014
26.5113
26.5212
26.531
26.5409
26.5508
26.5606
26.5705
26.5804
26.5903
26.6001
26.61
26.6199
26.6298
26.6396
26.6495
26.6594
26.6693
26.6792
26.689
26.6989
26.7088
26.7187
26.7286
26.7385
26.7484
26.7583
26.7682
26.7781
26.7879
26.7978
26.8077
26.8176
26.8275
26.8374
26.8473
26.8572
26.8671
26.877
26.887
26.8969
26.9068
26.9167
26.9266
26.9365
26.9464
26.9563
26.9662
26.9762
26.9861
26.996
27.0059
27.0158
27.0257
27.0357
27.0456
27.0555
27.0654
27.0754
27.0853
27.0952
27.1051
27.1151
27.125
27.1349
27.1449
27.1548
27.1647
27.1747
27.1846
27.1945
27.2045
27.2144
27.2244
27.2343
27.2443
27.2542
27.2641
27.2741
27.284
27.294
27.3039
27.3139
27.3238
27.3338
27.3437
27.3537
27.3637
27.3736
27.3836
27.3935
27.4035
27.4135
27.4234
27.4334
27.4433
27.4533
27.4633
27.4732
27.4832
27.4932
27.5032
27.5131
27.5231
27.5331
27.5431
27.553
27.563
27.573
27.583
27.5929
27.6029
27.6129
27.6229
27.6329
27.6429
27.6529
27.6628
27.6728
27.6828
27.6928
27.7028
27.7128
27.7228
27.7328
27.7428
27.7528
27.7628
27.7728
27.7828
27.7928
27.8028
27.8128
27.8228
27.8328
27.8428
27.8528
27.8628
27.8728
27.8828
27.8929
27.9029
27.9129
27.9229
27.9329
27.9429
27.953
27.963
27.973
27.983
27.993
28.0031
28.0131
28.0231
28.0331
28.0432
28.0532
28.0632
28.0733
28.0833
28.0933
28.1034
28.1134
28.1234
28.1335
28.1435
28.1536
28.1636
28.1736
28.1837
28.1937
28.2038
28.2138
28.2239
28.2339
28.244
28.254
28.2641
28.2741
28.2842
28.2942
28.3043
28.3143
28.3244
28.3345
28.3445
28.3546
28.3647
28.3747
28.3848
28.3948
28.4049
28.415
28.425
28.4351
28.4452
28.4553
28.4653
28.4754
28.4855
28.4956
28.5056
28.5157
28.5258
28.5359
28.546
28.556
28.5661
28.5762
28.5863
28.5964
28.6065
28.6166
28.6267
28.6367
28.6468
28.6569
28.667
28.6771
28.6872
28.6973
28.7074
28.7175
28.7276
28.7377
28.7478
28.7579
28.768
28.7781
28.7882
28.7984
28.8085
28.8186
28.8287
28.8388
28.8489
28.859
28.8691
28.8793
28.8894
28.8995
28.9096
28.9197
28.9299
28.94
28.9501
28.9602
28.9704
28.9805
28.9906
29.0007
29.0109
29.021
29.0311
29.0413
29.0514
29.0615
29.0717
29.0818
29.092
29.1021
29.1122
29.1224
29.1325
29.1427
29.1528
29.163
29.1731
29.1833
29.1934
29.2036
29.2137
29.2239
29.234
29.2442
29.2543
29.2645
29.2746
29.2848
29.295
29.3051
29.3153
29.3255
29.3356
29.3458
29.356
29.3661
29.3763
29.3865
29.3966
29.4068
29.417
29.4272
29.4373
29.4475
29.4577
29.4679
29.478
29.4882
29.4984
29.5086
29.5188
29.529
29.5391
29.5493
29.5595
29.5697
29.5799
29.5901
29.6003
29.6105
29.6207
29.6309
29.6411
29.6513
29.6615
29.6717
29.6819
29.6921
29.7023
29.7125
29.7227
29.7329
29.7431
29.7533
29.7635
29.7737
29.7839
29.7942
29.8044
29.8146
29.8248
29.835
29.8452
29.8555
29.8657
29.8759
29.8861
29.8963
29.9066
29.9168
29.927
29.9373
29.9475
29.9577
29.9679
29.9782
29.9884
29.9986
30.0089
30.0191
30.0294
30.0396
30.0498
30.0601
30.0703
30.0806
30.0908
30.1011
30.1113
30.1215
30.1318
30.142
30.1523
30.1626
30.1728
30.1831
30.1933
30.2036
30.2138
30.2241
30.2343
30.2446
30.2549
30.2651
30.2754
30.2857
30.2959
30.3062
30.3165
30.3267
30.337
30.3473
30.3576
30.3678
30.3781
30.3884
30.3987
30.4089
30.4192
30.4295
30.4398
30.4501
30.4603
30.4706
30.4809
30.4912
30.5015
30.5118
30.5221
30.5324
30.5426
30.5529
30.5632
30.5735
30.5838
30.5941
30.6044
30.6147
30.625
30.6353
30.6456
30.6559
30.6662
30.6766
30.6869
30.6972
30.7075
30.7178
30.7281
30.7384
30.7487
30.759
30.7694
30.7797
30.79
30.8003
30.8106
30.821
30.8313
30.8416
30.8519
30.8623
30.8726
30.8829
30.8932
30.9036
30.9139
30.9242
30.9346
30.9449
30.9552
30.9656
30.9759
30.9863
30.9966
31.0069
31.0173
31.0276
31.038
31.0483
31.0587
31.069
31.0794
31.0897
31.1001
31.1104
31.1208
31.1311
31.1415
31.1518
31.1622
31.1726
31.1829
31.1933
31.2036
31.214
31.2244
31.2347
31.2451
31.2555
31.2658
31.2762
31.2866
31.297
31.3073
31.3177
31.3281
31.3385
31.3488
31.3592
31.3696
31.38
31.3904
31.4007
31.4111
31.4215
31.4319
31.4423
31.4527
31.4631
31.4734
31.4838
31.4942
31.5046
31.515
31.5254
31.5358
31.5462
31.5566
31.567
31.5774
31.5878
31.5982
31.6086
31.619
31.6294
31.6399
31.6503
31.6607
31.6711
31.6815
31.6919
31.7023
31.7127
31.7232
31.7336
31.744
31.7544
31.7648
31.7753
31.7857
31.7961
31.8065
31.817
31.8274
31.8378
31.8482
31.8587
31.8691
31.8795
31.89
31.9004
31.9109
31.9213
31.9317
31.9422
31.9526
31.9631
31.9735
31.9839
31.9944
32.0048
32.0153
32.0257
32.0362
32.0466
32.0571
32.0675
32.078
32.0884
32.0989
32.1094
32.1198
32.1303
32.1407
32.1512
32.1617
32.1721
32.1826
32.1931
32.2035
32.214
32.2245
32.2349
32.2454
32.2559
32.2664
32.2768
32.2873
32.2978
32.3083
32.3187
32.3292
32.3397
32.3502
32.3607
32.3712
32.3816
32.3921
32.4026
32.4131
32.4236
32.4341
32.4446
32.4551
32.4656
32.4761
32.4866
32.4971
32.5076
32.5181
32.5286
32.5391
32.5496
32.5601
32.5706
32.5811
32.5916
32.6021
32.6126
32.6231
32.6336
32.6442
32.6547
32.6652
32.6757
32.6862
32.6967
32.7073
32.7178
32.7283
32.7388
32.7494
32.7599
32.7704
32.7809
32.7915
32.802
32.8125
32.8231
32.8336
32.8441
32.8547
32.8652
32.8757
32.8863
32.8968
32.9074
32.9179
32.9284
32.939
32.9495
32.9601
32.9706
32.9812
32.9917
33.0023
33.0128
33.0234
33.0339
33.0445
33.055
33.0656
33.0762
33.0867
33.0973
33.1078
33.1184
33.129
33.1395
33.1501
33.1607
33.1712
33.1818
33.1924
33.203
33.2135
33.2241
33.2347
33.2453
33.2558
33.2664
33.277
33.2876
33.2981
33.3087
33.3193
33.3299
33.3405
33.3511
33.3617
33.3723
33.3828
33.3934
33.404
33.4146
33.4252
33.4358
33.4464
33.457
33.4676
33.4782
33.4888
33.4994
33.51
33.5206
33.5312
33.5418
33.5524
33.5631
33.5737
33.5843
33.5949
33.6055
33.6161
33.6267
33.6374
33.648
33.6586
33.6692
33.6798
33.6905
33.7011
33.7117
33.7223
33.733
33.7436
33.7542
33.7649
33.7755
33.7861
33.7968
33.8074
33.818
33.8287
33.8393
33.8499
33.8606
33.8712
33.8819
33.8925
33.9032
33.9138
33.9244
33.9351
33.9457
33.9564
33.967
33.9777
33.9884
33.999
34.0097
34.0203
34.031
34.0416
34.0523
34.063
34.0736
34.0843
34.095
34.1056
34.1163
34.127
34.1376
34.1483
34.159
34.1696
34.1803
34.191
34.2017
34.2123
34.223
34.2337
34.2444
34.2551
34.2657
34.2764
34.2871
34.2978
34.3085
34.3192
34.3299
34.3406
34.3512
34.3619
34.3726
34.3833
34.394
34.4047
34.4154
34.4261
34.4368
34.4475
34.4582
34.4689
34.4796
34.4903
34.501
34.5118
34.5225
34.5332
34.5439
34.5546
34.5653
34.576
34.5867
34.5975
34.6082
34.6189
34.6296
34.6403
34.6511
34.6618
34.6725
34.6832
34.694
34.7047
34.7154
34.7262
34.7369
34.7476
34.7584
34.7691
34.7798
34.7906
34.8013
34.812
34.8228
34.8335
34.8443
34.855
34.8658
34.8765
34.8873
34.898
34.9088
34.9195
34.9303
34.941
34.9518
34.9625
34.9733
34.984
34.9948
35.0056
35.0163
35.0271
35.0378
35.0486
35.0594
35.0701
35.0809
35.0917
35.1024
35.1132
35.124
35.1348
35.1455
35.1563
35.1671
35.1779
35.1886
35.1994
35.2102
35.221
35.2318
35.2425
35.2533
35.2641
35.2749
35.2857
35.2965
35.3073
35.3181
35.3289
35.3397
35.3505
35.3612
35.372
35.3828
35.3936
35.4044
35.4152
35.4261
35.4369
35.4477
35.4585
35.4693
35.4801
35.4909
35.5017
35.5125
35.5233
35.5341
35.545
35.5558
35.5666
35.5774
35.5882
35.5991
35.6099
35.6207
35.6315
35.6424
35.6532
35.664
35.6748
35.6857
35.6965
35.7073
35.7182
35.729
35.7398
35.7507
35.7615
35.7723
35.7832
35.794
35.8049
35.8157
35.8266
35.8374
35.8482
35.8591
35.8699
35.8808
35.8916
35.9025
35.9134
35.9242
35.9351
35.9459
35.9568
35.9676
35.9785
35.9894
36.0002
36.0111
36.0219
36.0328
36.0437
36.0545
36.0654
36.0763
36.0872
36.098
36.1089
36.1198
36.1307
36.1415
36.1524
36.1633
36.1742
36.1851
36.1959
36.2068
36.2177
36.2286
36.2395
36.2504
36.2613
36.2721
36.283
36.2939
36.3048
36.3157
36.3266
36.3375
36.3484
36.3593
36.3702
36.3811
36.392
36.4029
36.4138
36.4247
36.4356
36.4465
36.4575
36.4684
36.4793
36.4902
36.5011
36.512
36.5229
36.5339
36.5448
36.5557
36.5666
36.5775
36.5885
36.5994
36.6103
36.6212
36.6322
36.6431
36.654
36.665
36.6759
36.6868
36.6978
36.7087
36.7196
36.7306
36.7415
36.7524
36.7634
36.7743
36.7853
36.7962
36.8072
36.8181
36.8291
36.84
36.851
36.8619
36.8729
36.8838
36.8948
36.9057
36.9167
36.9276
36.9386
36.9496
36.9605
36.9715
36.9824
36.9934
37.0044
37.0153
37.0263
37.0373
37.0483
37.0592
37.0702
37.0812
37.0922
37.1031
37.1141
37.1251
37.1361
37.147
37.158
37.169
37.18
37.191
37.202
37.213
37.2239
37.2349
37.2459
37.2569
37.2679
37.2789
37.2899
37.3009
37.3119
37.3229
37.3339
37.3449
37.3559
37.3669
37.3779
37.3889
37.3999
37.4109
37.4219
37.433
37.444
37.455
37.466
37.477
37.488
37.499
37.5101
37.5211
37.5321
37.5431
37.5541
37.5652
37.5762
37.5872
37.5982
37.6093
37.6203
37.6313
37.6424
37.6534
37.6644
37.6755
37.6865
37.6975
37.7086
37.7196
37.7307
37.7417
37.7527
37.7638
37.7748
37.7859
37.7969
37.808
37.819
37.8301
37.8411
37.8522
37.8632
37.8743
37.8854
37.8964
37.9075
37.9185
37.9296
37.9407
37.9517
37.9628
37.9739
37.9849
37.996
38.0071
38.0181
38.0292
38.0403
38.0514
38.0624
38.0735
38.0846
38.0957
38.1067
38.1178
38.1289
38.14
38.1511
38.1622
38.1732
38.1843
38.1954
38.2065
38.2176
38.2287
38.2398
38.2509
38.262
38.2731
38.2842
38.2953
38.3064
38.3175
38.3286
38.3397
38.3508
38.3619
38.373
38.3841
38.3952
38.4063
38.4174
38.4286
38.4397
38.4508
38.4619
38.473
38.4841
38.4953
38.5064
38.5175
38.5286
38.5398
38.5509
38.562
38.5731
38.5843
38.5954
38.6065
38.6177
38.6288
38.6399
38.6511
38.6622
38.6734
38.6845
38.6956
38.7068
38.7179
38.7291
38.7402
38.7514
38.7625
38.7737
38.7848
38.796
38.8071
38.8183
38.8294
38.8406
38.8517
38.8629
38.8741
38.8852
38.8964
38.9075
38.9187
38.9299
38.941
38.9522
38.9634
38.9745
38.9857
38.9969
39.0081
39.0192
39.0304
39.0416
39.0528
39.0639
39.0751
39.0863
39.0975
39.1087
39.1199
39.131
39.1422
39.1534
39.1646
39.1758
39.187
39.1982
39.2094
39.2206
39.2318
39.243
39.2542
39.2654
39.2766
39.2878
39.299
39.3102
39.3214
39.3326
39.3438
39.355
39.3662
39.3774
39.3887
39.3999
39.4111
39.4223
39.4335
39.4447
39.456
39.4672
39.4784
39.4896
39.5008
39.5121
39.5233
39.5345
39.5458
39.557
39.5682
39.5794
39.5907
39.6019
39.6132
39.6244
39.6356
39.6469
39.6581
39.6693
39.6806
39.6918
39.7031
39.7143
39.7256
39.7368
39.7481
39.7593
39.7706
39.7818
39.7931
39.8043
39.8156
39.8269
39.8381
39.8494
39.8606
39.8719
39.8832
39.8944
39.9057
39.917
39.9282
39.9395
39.9508
39.962
39.9733
39.9846
39.9959
40.0071
40.0184
40.0297
40.041
40.0522
40.0635
40.0748
40.0861
40.0974
40.1087
40.1199
40.1312
40.1425
40.1538
40.1651
40.1764
40.1877
40.199
40.2103
40.2216
40.2329
40.2442
40.2555
40.2668
40.2781
40.2894
40.3007
40.312
40.3233
40.3346
40.3459
40.3573
40.3686
40.3799
40.3912
40.4025
40.4138
40.4252
40.4365
40.4478
40.4591
40.4704
40.4818
40.4931
40.5044
40.5157
40.5271
40.5384
40.5497
40.5611
40.5724
40.5837
40.5951
40.6064
40.6177
40.6291
40.6404
40.6518
40.6631
40.6745
40.6858
40.6972
40.7085
40.7198
40.7312
40.7426
40.7539
40.7653
40.7766
40.788
40.7993
40.8107
40.822
40.8334
40.8448
40.8561
40.8675
40.8789
40.8902
40.9016
40.913
40.9243
40.9357
40.9471
40.9584
40.9698
40.9812
40.9926
41.004
41.0153
41.0267
41.0381
41.0495
41.0609
41.0722
41.0836
41.095
41.1064
41.1178
41.1292
41.1406
41.152
41.1634
41.1748
41.1862
41.1976
41.209
41.2204
41.2318
41.2432
41.2546
41.266
41.2774
41.2888
41.3002
41.3116
41.323
41.3344
41.3458
41.3573
41.3687
41.3801
41.3915
41.4029
41.4143
41.4258
41.4372
41.4486
41.46
41.4715
41.4829
41.4943
41.5058
41.5172
41.5286
41.54
41.5515
41.5629
41.5744
41.5858
41.5972
41.6087
41.6201
41.6316
41.643
41.6544
41.6659
41.6773
41.6888
41.7002
41.7117
41.7231
41.7346
41.746
41.7575
41.769
41.7804
41.7919
41.8033
41.8148
41.8263
41.8377
41.8492
41.8606
41.8721
41.8836
41.8951
41.9065
41.918
41.9295
41.9409
41.9524
41.9639
41.9754
41.9869
41.9983
42.0098
42.0213
42.0328
42.0443
42.0557
42.0672
42.0787
42.0902
42.1017
42.1132
42.1247
42.1362
42.1477
42.1592
42.1707
42.1822
42.1937
42.2052
42.2167
42.2282
42.2397
42.2512
42.2627
42.2742
42.2857
42.2972
42.3087
42.3202
42.3318
42.3433
42.3548
42.3663
42.3778
42.3893
42.4009
42.4124
42.4239
42.4354
42.447
42.4585
42.47
42.4816
42.4931
42.5046
42.5161
42.5277
42.5392
42.5508
42.5623
42.5738
42.5854
42.5969
42.6085
42.62
42.6315
42.6431
42.6546
42.6662
42.6777
42.6893
42.7008
42.7124
42.7239
42.7355
42.7471
42.7586
42.7702
42.7817
42.7933
42.8048
42.8164
42.828
42.8395
42.8511
42.8627
42.8742
42.8858
42.8974
42.909
42.9205
42.9321
42.9437
42.9553
42.9668
42.9784
42.99
43.0016
43.0132
43.0248
43.0363
43.0479
43.0595
43.0711
43.0827
43.0943
43.1059
43.1175
43.1291
43.1407
43.1523
43.1639
43.1755
43.1871
43.1987
43.2103
43.2219
43.2335
43.2451
43.2567
43.2683
43.2799
43.2915
43.3031
43.3148
43.3264
43.338
43.3496
43.3612
43.3728
43.3845
43.3961
43.4077
43.4193
43.431
43.4426
43.4542
43.4659
43.4775
43.4891
43.5007
43.5124
43.524
43.5357
43.5473
43.5589
43.5706
43.5822
43.5939
43.6055
43.6171
43.6288
43.6404
43.6521
43.6637
43.6754
43.687
43.6987
43.7103
43.722
43.7337
43.7453
43.757
43.7686
43.7803
43.792
43.8036
43.8153
43.827
43.8386
43.8503
43.862
43.8736
43.8853
43.897
43.9087
43.9203
43.932
43.9437
43.9554
43.967
43.9787
43.9904
44.0021
44.0138
44.0255
44.0371
44.0488
44.0605
44.0722
44.0839
44.0956
44.1073
44.119
44.1307
44.1424
44.1541
44.1658
44.1775
44.1892
44.2009
44.2126
44.2243
44.236
44.2477
44.2594
44.2711
44.2829
44.2946
44.3063
44.318
44.3297
44.3414
44.3532
44.3649
44.3766
44.3883
44.4
44.4118
44.4235
44.4352
44.447
44.4587
44.4704
44.4821
44.4939
44.5056
44.5174
44.5291
44.5408
44.5526
44.5643
44.5761
44.5878
44.5995
44.6113
44.623
44.6348
44.6465
44.6583
44.67
44.6818
44.6935
44.7053
44.717
44.7288
44.7406
44.7523
44.7641
44.7758
44.7876
44.7994
44.8111
44.8229
44.8347
44.8464
44.8582
44.87
44.8818
44.8935
44.9053
44.9171
44.9289
44.9406
44.9524
44.9642
44.976
44.9878
44.9996
45.0113
45.0231
45.0349
45.0467
45.0585
45.0703
45.0821
45.0939
45.1057
45.1175
45.1293
45.1411
45.1529
45.1647
45.1765
45.1883
45.2001
45.2119
45.2237
45.2355
45.2473
45.2591
45.2709
45.2828
45.2946
45.3064
45.3182
45.33
45.3418
45.3537
45.3655
45.3773
45.3891
45.401
45.4128
45.4246
45.4364
45.4483
45.4601
45.4719
45.4838
45.4956
45.5074
45.5193
45.5311
45.543
45.5548
45.5666
45.5785
45.5903
45.6022
45.614
45.6259
45.6377
45.6496
45.6614
45.6733
45.6851
45.697
45.7088
45.7207
45.7326
45.7444
45.7563
45.7681
45.78
45.7919
45.8037
45.8156
45.8275
45.8393
45.8512
45.8631
45.875
45.8868
45.8987
45.9106
45.9225
45.9343
45.9462
45.9581
45.97
45.9819
45.9938
46.0056
46.0175
46.0294
46.0413
46.0532
46.0651
46.077
46.0889
46.1008
46.1127
46.1246
46.1365
46.1484
46.1603
46.1722
46.1841
46.196
46.2079
46.2198
46.2317
46.2436
46.2555
46.2675
46.2794
46.2913
46.3032
46.3151
46.327
46.339
46.3509
46.3628
46.3747
46.3867
46.3986
46.4105
46.4224
46.4344
46.4463
46.4582
46.4702
46.4821
46.494
46.506
46.5179
46.5299
46.5418
46.5537
46.5657
46.5776
46.5896
46.6015
46.6135
46.6254
46.6374
46.6493
46.6613
46.6732
46.6852
46.6971
46.7091
46.7211
46.733
46.745
46.7569
46.7689
46.7809
46.7928
46.8048
46.8168
46.8287
46.8407
46.8527
46.8647
46.8766
46.8886
46.9006
46.9126
46.9245
46.9365
46.9485
46.9605
46.9725
46.9845
46.9965
47.0084
47.0204
47.0324
47.0444
47.0564
47.0684
47.0804
47.0924
47.1044
47.1164
47.1284
47.1404
47.1524
47.1644
47.1764
47.1884
47.2004
47.2124
47.2244
47.2364
47.2485
47.2605
47.2725
47.2845
47.2965
47.3085
47.3206
47.3326
47.3446
47.3566
47.3686
47.3807
47.3927
47.4047
47.4168
47.4288
47.4408
47.4529
47.4649
47.4769
47.489
47.501