/*--------------------------------*- C++ -*----------------------------------*\
  =========                 |
  \\      /  F ield         | OpenFOAM: The Open Source CFD Toolbox
   \\    /   O peration     | Website:  https://openfoam.org
    \\  /    A nd           | Version:  9
     \\/     M anipulation  |
\*---------------------------------------------------------------------------*/
FoamFile
{
    format      ascii;
    class       volScalarField;
    location    "0.048";
    object      rho;
}
// * * * * * * * * * * * * * * * * * * * * * * * * * * * * * * * * * * * * * //

dimensions      [1 -3 0 0 0 0 0];

internalField   nonuniform List<scalar> 
10000
(
0.168442
0.168441
0.168438
0.168435
0.168432
0.16843
0.168427
0.168424
0.168422
0.168419
0.168416
0.168414
0.168411
0.168409
0.168406
0.168403
0.168401
0.168398
0.168395
0.168393
0.16839
0.168387
0.168385
0.168382
0.168379
0.168377
0.168374
0.168371
0.168369
0.168366
0.168364
0.168361
0.168358
0.168356
0.168353
0.16835
0.168348
0.168345
0.168342
0.16834
0.168337
0.168335
0.168332
0.168329
0.168327
0.168324
0.168322
0.168319
0.168316
0.168314
0.168311
0.168309
0.168306
0.168303
0.168301
0.168298
0.168296
0.168293
0.16829
0.168288
0.168285
0.168283
0.16828
0.168277
0.168275
0.168272
0.16827
0.168267
0.168265
0.168262
0.168259
0.168257
0.168254
0.168252
0.168249
0.168247
0.168244
0.168241
0.168239
0.168236
0.168234
0.168231
0.168229
0.168226
0.168224
0.168221
0.168219
0.168216
0.168214
0.168211
0.168209
0.168206
0.168203
0.168201
0.168198
0.168196
0.168193
0.168191
0.168188
0.168186
0.168183
0.168181
0.168178
0.168176
0.168173
0.168171
0.168168
0.168166
0.168163
0.168161
0.168159
0.168156
0.168154
0.168151
0.168149
0.168146
0.168144
0.168141
0.168139
0.168136
0.168134
0.168131
0.168129
0.168127
0.168124
0.168122
0.168119
0.168117
0.168114
0.168112
0.168109
0.168107
0.168105
0.168102
0.1681
0.168097
0.168095
0.168093
0.16809
0.168088
0.168085
0.168083
0.16808
0.168078
0.168076
0.168073
0.168071
0.168069
0.168066
0.168064
0.168062
0.168059
0.168057
0.168054
0.168052
0.168049
0.168047
0.168045
0.168043
0.16804
0.168038
0.168036
0.168033
0.168031
0.168029
0.168026
0.168024
0.168022
0.168019
0.168017
0.168014
0.168012
0.16801
0.168007
0.168005
0.168003
0.168001
0.167999
0.167997
0.167994
0.167992
0.16799
0.167988
0.167986
0.167983
0.167981
0.167978
0.167976
0.167974
0.167971
0.167969
0.167967
0.167964
0.167962
0.16796
0.167958
0.167956
0.167954
0.167952
0.16795
0.167948
0.167946
0.167944
0.167942
0.16794
0.167938
0.167936
0.167933
0.167931
0.167929
0.167926
0.167924
0.167922
0.167919
0.167917
0.167914
0.167912
0.16791
0.167907
0.167905
0.167903
0.167901
0.167899
0.167897
0.167895
0.167893
0.167892
0.16789
0.167889
0.167887
0.167886
0.167885
0.167884
0.167883
0.167882
0.167881
0.16788
0.16788
0.167879
0.167878
0.167878
0.167877
0.167876
0.167876
0.167875
0.167874
0.167874
0.167873
0.167873
0.167872
0.167872
0.167871
0.167871
0.167871
0.16787
0.16787
0.16787
0.167869
0.167869
0.167869
0.167868
0.167868
0.167868
0.167867
0.167867
0.167867
0.167866
0.167866
0.167866
0.167865
0.167865
0.167865
0.167865
0.167864
0.167864
0.167864
0.167863
0.167863
0.167863
0.167862
0.167862
0.167862
0.167862
0.167861
0.167861
0.167861
0.16786
0.16786
0.16786
0.16786
0.167859
0.167859
0.167859
0.167859
0.167858
0.167858
0.167858
0.167858
0.167857
0.167857
0.167857
0.167857
0.167856
0.167856
0.167856
0.167856
0.167855
0.167855
0.167855
0.167855
0.167855
0.167854
0.167854
0.167854
0.167854
0.167854
0.167853
0.167853
0.167853
0.167853
0.167853
0.167852
0.167852
0.167852
0.167852
0.167852
0.167852
0.167851
0.167851
0.167851
0.167851
0.167851
0.167851
0.16785
0.16785
0.16785
0.16785
0.16785
0.16785
0.16785
0.167849
0.167849
0.167849
0.167849
0.167849
0.167849
0.167849
0.167849
0.167849
0.167848
0.167848
0.167848
0.167848
0.167848
0.167848
0.167848
0.167848
0.167848
0.167848
0.167848
0.167848
0.167847
0.167847
0.167847
0.167847
0.167847
0.167847
0.167847
0.167847
0.167847
0.167847
0.167847
0.167847
0.167847
0.167847
0.167847
0.167847
0.167847
0.167847
0.167847
0.167847
0.167847
0.167847
0.167847
0.167847
0.167847
0.167847
0.167847
0.167847
0.167847
0.167847
0.167847
0.167847
0.167847
0.167847
0.167847
0.167847
0.167847
0.167847
0.167848
0.167848
0.167848
0.167848
0.167848
0.167848
0.167848
0.167848
0.167848
0.167848
0.167848
0.167849
0.167849
0.167849
0.167849
0.167849
0.167849
0.167849
0.16785
0.16785
0.16785
0.16785
0.16785
0.16785
0.16785
0.167851
0.167851
0.167851
0.167851
0.167851
0.167852
0.167852
0.167852
0.167852
0.167852
0.167853
0.167853
0.167853
0.167853
0.167854
0.167854
0.167854
0.167854
0.167855
0.167855
0.167855
0.167855
0.167856
0.167856
0.167856
0.167856
0.167857
0.167857
0.167857
0.167858
0.167858
0.167858
0.167859
0.167859
0.167859
0.16786
0.16786
0.16786
0.167861
0.167861
0.167861
0.167862
0.167862
0.167863
0.167863
0.167863
0.167864
0.167864
0.167865
0.167865
0.167865
0.167866
0.167866
0.167867
0.167867
0.167868
0.167868
0.167869
0.167869
0.167869
0.16787
0.16787
0.167871
0.167871
0.167872
0.167872
0.167873
0.167873
0.167874
0.167875
0.167875
0.167876
0.167876
0.167877
0.167877
0.167878
0.167878
0.167879
0.16788
0.16788
0.167881
0.167881
0.167882
0.167883
0.167883
0.167884
0.167885
0.167885
0.167886
0.167887
0.167887
0.167888
0.167889
0.167889
0.16789
0.167891
0.167891
0.167892
0.167893
0.167894
0.167894
0.167895
0.167896
0.167897
0.167897
0.167898
0.167899
0.1679
0.167901
0.167901
0.167902
0.167903
0.167904
0.167905
0.167906
0.167906
0.167907
0.167908
0.167909
0.16791
0.167911
0.167912
0.167913
0.167914
0.167914
0.167915
0.167916
0.167917
0.167918
0.167919
0.16792
0.167921
0.167922
0.167923
0.167924
0.167925
0.167926
0.167927
0.167928
0.167929
0.16793
0.167932
0.167933
0.167934
0.167935
0.167936
0.167937
0.167938
0.167939
0.16794
0.167942
0.167943
0.167944
0.167945
0.167946
0.167948
0.167949
0.16795
0.167951
0.167952
0.167954
0.167955
0.167956
0.167958
0.167959
0.16796
0.167961
0.167963
0.167964
0.167965
0.167967
0.167968
0.16797
0.167971
0.167972
0.167974
0.167975
0.167977
0.167978
0.16798
0.167981
0.167982
0.167984
0.167985
0.167987
0.167989
0.16799
0.167992
0.167993
0.167995
0.167996
0.167998
0.167999
0.168001
0.168003
0.168004
0.168006
0.168008
0.168009
0.168011
0.168013
0.168014
0.168016
0.168018
0.16802
0.168021
0.168023
0.168025
0.168027
0.168029
0.16803
0.168032
0.168034
0.168036
0.168038
0.16804
0.168042
0.168043
0.168045
0.168047
0.168049
0.168051
0.168053
0.168055
0.168057
0.168059
0.168061
0.168063
0.168065
0.168068
0.16807
0.168072
0.168074
0.168076
0.168078
0.16808
0.168082
0.168085
0.168087
0.168089
0.168091
0.168094
0.168096
0.168098
0.1681
0.168103
0.168105
0.168107
0.16811
0.168112
0.168115
0.168117
0.168119
0.168122
0.168124
0.168127
0.168129
0.168132
0.168134
0.168137
0.168139
0.168142
0.168144
0.168147
0.16815
0.168152
0.168155
0.168158
0.16816
0.168163
0.168166
0.168168
0.168171
0.168174
0.168177
0.16818
0.168182
0.168185
0.168188
0.168191
0.168194
0.168197
0.1682
0.168203
0.168205
0.168208
0.168211
0.168214
0.168217
0.168221
0.168224
0.168227
0.16823
0.168233
0.168236
0.168239
0.168242
0.168246
0.168249
0.168252
0.168255
0.168259
0.168262
0.168265
0.168268
0.168272
0.168275
0.168279
0.168282
0.168285
0.168289
0.168292
0.168296
0.168299
0.168303
0.168306
0.16831
0.168313
0.168317
0.168321
0.168324
0.168328
0.168332
0.168335
0.168339
0.168343
0.168347
0.16835
0.168354
0.168358
0.168362
0.168366
0.16837
0.168373
0.168377
0.168381
0.168385
0.168389
0.168393
0.168397
0.168401
0.168405
0.168409
0.168414
0.168418
0.168422
0.168426
0.16843
0.168434
0.168439
0.168443
0.168447
0.168451
0.168456
0.16846
0.168465
0.168469
0.168473
0.168478
0.168482
0.168487
0.168491
0.168496
0.1685
0.168505
0.168509
0.168514
0.168519
0.168523
0.168528
0.168533
0.168537
0.168542
0.168547
0.168551
0.168556
0.168561
0.168566
0.168571
0.168576
0.168581
0.168585
0.16859
0.168595
0.1686
0.168605
0.16861
0.168615
0.16862
0.168626
0.168631
0.168636
0.168641
0.168646
0.168651
0.168657
0.168662
0.168667
0.168672
0.168678
0.168683
0.168688
0.168694
0.168699
0.168704
0.16871
0.168715
0.168721
0.168726
0.168732
0.168737
0.168743
0.168748
0.168754
0.16876
0.168765
0.168771
0.168777
0.168782
0.168788
0.168794
0.1688
0.168805
0.168811
0.168817
0.168823
0.168829
0.168834
0.16884
0.168846
0.168852
0.168858
0.168864
0.16887
0.168876
0.168882
0.168888
0.168894
0.1689
0.168906
0.168913
0.168919
0.168925
0.168931
0.168937
0.168943
0.16895
0.168956
0.168962
0.168968
0.168975
0.168981
0.168987
0.168994
0.169
0.169006
0.169013
0.169019
0.169026
0.169032
0.169039
0.169045
0.169052
0.169058
0.169065
0.169071
0.169078
0.169084
0.169091
0.169098
0.169104
0.169111
0.169117
0.169124
0.169131
0.169137
0.169144
0.169151
0.169158
0.169164
0.169171
0.169178
0.169185
0.169192
0.169198
0.169205
0.169212
0.169219
0.169226
0.169233
0.16924
0.169247
0.169253
0.16926
0.169267
0.169274
0.169281
0.169288
0.169295
0.169302
0.169309
0.169316
0.169323
0.169331
0.169338
0.169345
0.169352
0.169359
0.169366
0.169373
0.16938
0.169387
0.169395
0.169402
0.169409
0.169416
0.169423
0.169431
0.169438
0.169445
0.169452
0.169459
0.169467
0.169474
0.169481
0.169489
0.169496
0.169503
0.16951
0.169518
0.169525
0.169532
0.16954
0.169547
0.169554
0.169562
0.169569
0.169577
0.169584
0.169591
0.169599
0.169606
0.169614
0.169621
0.169628
0.169636
0.169643
0.169651
0.169658
0.169666
0.169673
0.169681
0.169688
0.169696
0.169703
0.169711
0.169718
0.169726
0.169733
0.169741
0.169748
0.169756
0.169763
0.169771
0.169778
0.169786
0.169793
0.169801
0.169809
0.169816
0.169824
0.169831
0.169839
0.169847
0.169854
0.169862
0.169869
0.169877
0.169885
0.169892
0.1699
0.169907
0.169915
0.169923
0.16993
0.169938
0.169946
0.169953
0.169961
0.169969
0.169976
0.169984
0.169991
0.169999
0.170007
0.170014
0.170022
0.17003
0.170038
0.170045
0.170053
0.170061
0.170068
0.170076
0.170084
0.170091
0.170099
0.170107
0.170114
0.170122
0.17013
0.170138
0.170145
0.170153
0.170161
0.170168
0.170176
0.170184
0.170192
0.170199
0.170207
0.170215
0.170223
0.17023
0.170238
0.170246
0.170254
0.170261
0.170269
0.170277
0.170285
0.170292
0.1703
0.170308
0.170316
0.170323
0.170331
0.170339
0.170347
0.170354
0.170362
0.17037
0.170378
0.170385
0.170393
0.170401
0.170409
0.170417
0.170424
0.170432
0.17044
0.170448
0.170455
0.170463
0.170471
0.170479
0.170487
0.170494
0.170502
0.17051
0.170518
0.170526
0.170533
0.170541
0.170549
0.170557
0.170565
0.170572
0.17058
0.170588
0.170596
0.170604
0.170611
0.170619
0.170627
0.170635
0.170643
0.17065
0.170658
0.170666
0.170674
0.170682
0.170689
0.170697
0.170705
0.170713
0.170721
0.170729
0.170736
0.170744
0.170752
0.17076
0.170768
0.170775
0.170783
0.170791
0.170799
0.170807
0.170815
0.170822
0.17083
0.170838
0.170846
0.170854
0.170862
0.170869
0.170877
0.170885
0.170893
0.170901
0.170909
0.170916
0.170924
0.170932
0.17094
0.170948
0.170956
0.170963
0.170971
0.170979
0.170987
0.170995
0.171003
0.17101
0.171018
0.171026
0.171034
0.171042
0.17105
0.171057
0.171065
0.171073
0.171081
0.171089
0.171097
0.171104
0.171112
0.17112
0.171128
0.171136
0.171144
0.171152
0.171159
0.171167
0.171175
0.171183
0.171191
0.171199
0.171207
0.171214
0.171222
0.17123
0.171238
0.171246
0.171254
0.171262
0.171269
0.171277
0.171285
0.171293
0.171301
0.171309
0.171317
0.171324
0.171332
0.17134
0.171348
0.171356
0.171364
0.171372
0.171379
0.171387
0.171395
0.171403
0.171411
0.171419
0.171427
0.171435
0.171442
0.17145
0.171458
0.171466
0.171474
0.171482
0.17149
0.171498
0.171505
0.171513
0.171521
0.171529
0.171537
0.171545
0.171553
0.171561
0.171568
0.171576
0.171584
0.171592
0.1716
0.171608
0.171616
0.171624
0.171631
0.171639
0.171647
0.171655
0.171663
0.171671
0.171679
0.171687
0.171694
0.171702
0.17171
0.171718
0.171726
0.171734
0.171742
0.17175
0.171758
0.171765
0.171773
0.171781
0.171789
0.171797
0.171805
0.171813
0.171821
0.171829
0.171836
0.171844
0.171852
0.17186
0.171868
0.171876
0.171884
0.171892
0.1719
0.171908
0.171915
0.171923
0.171931
0.171939
0.171947
0.171955
0.171963
0.171971
0.171979
0.171987
0.171994
0.172002
0.17201
0.172018
0.172026
0.172034
0.172042
0.17205
0.172058
0.172066
0.172074
0.172081
0.172089
0.172097
0.172105
0.172113
0.172121
0.172129
0.172137
0.172145
0.172153
0.172161
0.172168
0.172176
0.172184
0.172192
0.1722
0.172208
0.172216
0.172224
0.172232
0.17224
0.172248
0.172256
0.172264
0.172271
0.172279
0.172287
0.172295
0.172303
0.172311
0.172319
0.172327
0.172335
0.172343
0.172351
0.172359
0.172367
0.172374
0.172382
0.17239
0.172398
0.172406
0.172414
0.172422
0.17243
0.172438
0.172446
0.172454
0.172462
0.17247
0.172478
0.172485
0.172493
0.172501
0.172509
0.172517
0.172525
0.172533
0.172541
0.172549
0.172557
0.172565
0.172573
0.172581
0.172589
0.172597
0.172605
0.172613
0.17262
0.172628
0.172636
0.172644
0.172652
0.17266
0.172668
0.172676
0.172684
0.172692
0.1727
0.172708
0.172716
0.172724
0.172732
0.17274
0.172748
0.172756
0.172764
0.172771
0.172779
0.172787
0.172795
0.172803
0.172811
0.172819
0.172827
0.172835
0.172843
0.172851
0.172859
0.172867
0.172875
0.172883
0.172891
0.172899
0.172907
0.172915
0.172923
0.172931
0.172939
0.172947
0.172955
0.172962
0.17297
0.172978
0.172986
0.172994
0.173002
0.17301
0.173018
0.173026
0.173034
0.173042
0.17305
0.173058
0.173066
0.173074
0.173082
0.17309
0.173098
0.173106
0.173114
0.173122
0.17313
0.173138
0.173146
0.173154
0.173162
0.17317
0.173178
0.173186
0.173194
0.173202
0.17321
0.173218
0.173226
0.173234
0.173242
0.17325
0.173257
0.173265
0.173273
0.173281
0.173289
0.173297
0.173305
0.173313
0.173321
0.173329
0.173337
0.173345
0.173353
0.173361
0.173369
0.173377
0.173385
0.173393
0.173401
0.173409
0.173417
0.173425
0.173433
0.173441
0.173449
0.173457
0.173465
0.173473
0.173481
0.173489
0.173497
0.173505
0.173513
0.173521
0.173529
0.173537
0.173545
0.173553
0.173561
0.173569
0.173577
0.173585
0.173593
0.173601
0.173609
0.173617
0.173625
0.173633
0.173641
0.173649
0.173657
0.173665
0.173673
0.173681
0.173689
0.173697
0.173705
0.173713
0.173721
0.173729
0.173737
0.173745
0.173753
0.173761
0.173769
0.173777
0.173785
0.173793
0.173801
0.173809
0.173817
0.173825
0.173833
0.173841
0.17385
0.173858
0.173866
0.173874
0.173882
0.17389
0.173898
0.173906
0.173914
0.173922
0.17393
0.173938
0.173946
0.173954
0.173962
0.17397
0.173978
0.173986
0.173994
0.174002
0.17401
0.174018
0.174026
0.174034
0.174042
0.17405
0.174058
0.174066
0.174074
0.174082
0.17409
0.174098
0.174106
0.174114
0.174122
0.17413
0.174138
0.174147
0.174155
0.174163
0.174171
0.174179
0.174187
0.174195
0.174203
0.174211
0.174219
0.174227
0.174235
0.174243
0.174251
0.174259
0.174267
0.174275
0.174283
0.174291
0.174299
0.174307
0.174315
0.174323
0.174331
0.17434
0.174348
0.174356
0.174364
0.174372
0.17438
0.174388
0.174396
0.174404
0.174412
0.17442
0.174428
0.174436
0.174444
0.174452
0.17446
0.174468
0.174476
0.174484
0.174493
0.174501
0.174509
0.174517
0.174525
0.174533
0.174541
0.174549
0.174557
0.174565
0.174573
0.174581
0.174589
0.174597
0.174605
0.174613
0.174621
0.17463
0.174638
0.174646
0.174654
0.174662
0.17467
0.174678
0.174686
0.174694
0.174702
0.17471
0.174718
0.174726
0.174734
0.174743
0.174751
0.174759
0.174767
0.174775
0.174783
0.174791
0.174799
0.174807
0.174815
0.174823
0.174831
0.174839
0.174847
0.174856
0.174864
0.174872
0.17488
0.174888
0.174896
0.174904
0.174912
0.17492
0.174928
0.174936
0.174944
0.174953
0.174961
0.174969
0.174977
0.174985
0.174993
0.175001
0.175009
0.175017
0.175025
0.175033
0.175041
0.17505
0.175058
0.175066
0.175074
0.175082
0.17509
0.175098
0.175106
0.175114
0.175122
0.17513
0.175139
0.175147
0.175155
0.175163
0.175171
0.175179
0.175187
0.175195
0.175203
0.175211
0.17522
0.175228
0.175236
0.175244
0.175252
0.17526
0.175268
0.175276
0.175284
0.175292
0.175301
0.175309
0.175317
0.175325
0.175333
0.175341
0.175349
0.175357
0.175365
0.175374
0.175382
0.17539
0.175398
0.175406
0.175414
0.175422
0.17543
0.175438
0.175447
0.175455
0.175463
0.175471
0.175479
0.175487
0.175495
0.175503
0.175511
0.17552
0.175528
0.175536
0.175544
0.175552
0.17556
0.175568
0.175576
0.175585
0.175593
0.175601
0.175609
0.175617
0.175625
0.175633
0.175641
0.17565
0.175658
0.175666
0.175674
0.175682
0.17569
0.175698
0.175706
0.175715
0.175723
0.175731
0.175739
0.175747
0.175755
0.175763
0.175771
0.17578
0.175788
0.175796
0.175804
0.175812
0.17582
0.175828
0.175837
0.175845
0.175853
0.175861
0.175869
0.175877
0.175885
0.175894
0.175902
0.17591
0.175918
0.175926
0.175934
0.175942
0.17595
0.175959
0.175967
0.175975
0.175983
0.175991
0.175999
0.176008
0.176016
0.176024
0.176032
0.17604
0.176048
0.176056
0.176065
0.176073
0.176081
0.176089
0.176097
0.176105
0.176113
0.176122
0.17613
0.176138
0.176146
0.176154
0.176162
0.176171
0.176179
0.176187
0.176195
0.176203
0.176211
0.176219
0.176228
0.176236
0.176244
0.176252
0.17626
0.176268
0.176277
0.176285
0.176293
0.176301
0.176309
0.176317
0.176326
0.176334
0.176342
0.17635
0.176358
0.176366
0.176375
0.176383
0.176391
0.176399
0.176407
0.176415
0.176424
0.176432
0.17644
0.176448
0.176456
0.176464
0.176473
0.176481
0.176489
0.176497
0.176505
0.176513
0.176522
0.17653
0.176538
0.176546
0.176554
0.176563
0.176571
0.176579
0.176587
0.176595
0.176603
0.176612
0.17662
0.176628
0.176636
0.176644
0.176653
0.176661
0.176669
0.176677
0.176685
0.176693
0.176702
0.17671
0.176718
0.176726
0.176734
0.176743
0.176751
0.176759
0.176767
0.176775
0.176784
0.176792
0.1768
0.176808
0.176816
0.176825
0.176833
0.176841
0.176849
0.176857
0.176866
0.176874
0.176882
0.17689
0.176898
0.176906
0.176915
0.176923
0.176931
0.176939
0.176947
0.176956
0.176964
0.176972
0.17698
0.176989
0.176997
0.177005
0.177013
0.177021
0.17703
0.177038
0.177046
0.177054
0.177062
0.177071
0.177079
0.177087
0.177095
0.177103
0.177112
0.17712
0.177128
0.177136
0.177144
0.177153
0.177161
0.177169
0.177177
0.177186
0.177194
0.177202
0.17721
0.177218
0.177227
0.177235
0.177243
0.177251
0.177259
0.177268
0.177276
0.177284
0.177292
0.177301
0.177309
0.177317
0.177325
0.177333
0.177342
0.17735
0.177358
0.177366
0.177375
0.177383
0.177391
0.177399
0.177408
0.177416
0.177424
0.177432
0.17744
0.177449
0.177457
0.177465
0.177473
0.177482
0.17749
0.177498
0.177506
0.177515
0.177523
0.177531
0.177539
0.177547
0.177556
0.177564
0.177572
0.17758
0.177589
0.177597
0.177605
0.177613
0.177622
0.17763
0.177638
0.177646
0.177655
0.177663
0.177671
0.177679
0.177688
0.177696
0.177704
0.177712
0.177721
0.177729
0.177737
0.177745
0.177754
0.177762
0.17777
0.177778
0.177787
0.177795
0.177803
0.177811
0.17782
0.177828
0.177836
0.177844
0.177853
0.177861
0.177869
0.177877
0.177886
0.177894
0.177902
0.17791
0.177919
0.177927
0.177935
0.177943
0.177952
0.17796
0.177968
0.177976
0.177985
0.177993
0.178001
0.178009
0.178018
0.178026
0.178034
0.178043
0.178051
0.178059
0.178067
0.178076
0.178084
0.178092
0.1781
0.178109
0.178117
0.178125
0.178133
0.178142
0.17815
0.178158
0.178167
0.178175
0.178183
0.178191
0.1782
0.178208
0.178216
0.178224
0.178233
0.178241
0.178249
0.178258
0.178266
0.178274
0.178282
0.178291
0.178299
0.178307
0.178316
0.178324
0.178332
0.17834
0.178349
0.178357
0.178365
0.178374
0.178382
0.17839
0.178398
0.178407
0.178415
0.178423
0.178432
0.17844
0.178448
0.178456
0.178465
0.178473
0.178481
0.17849
0.178498
0.178506
0.178514
0.178523
0.178531
0.178539
0.178548
0.178556
0.178564
0.178572
0.178581
0.178589
0.178597
0.178606
0.178614
0.178622
0.178631
0.178639
0.178647
0.178655
0.178664
0.178672
0.17868
0.178689
0.178697
0.178705
0.178714
0.178722
0.17873
0.178739
0.178747
0.178755
0.178763
0.178772
0.17878
0.178788
0.178797
0.178805
0.178813
0.178822
0.17883
0.178838
0.178847
0.178855
0.178863
0.178871
0.17888
0.178888
0.178896
0.178905
0.178913
0.178921
0.17893
0.178938
0.178946
0.178955
0.178963
0.178971
0.17898
0.178988
0.178996
0.179005
0.179013
0.179021
0.17903
0.179038
0.179046
0.179054
0.179063
0.179071
0.179079
0.179088
0.179096
0.179104
0.179113
0.179121
0.179129
0.179138
0.179146
0.179154
0.179163
0.179171
0.179179
0.179188
0.179196
0.179204
0.179213
0.179221
0.179229
0.179238
0.179246
0.179254
0.179263
0.179271
0.179279
0.179288
0.179296
0.179304
0.179313
0.179321
0.179329
0.179338
0.179346
0.179354
0.179363
0.179371
0.17938
0.179388
0.179396
0.179404
0.179413
0.179421
0.17943
0.179438
0.179446
0.179454
0.179463
0.179471
0.17948
0.179488
0.179496
0.179505
0.179513
0.179521
0.17953
0.179538
0.179547
0.179555
0.179563
0.179571
0.17958
0.179588
0.179597
0.179605
0.179613
0.179621
0.17963
0.179638
0.179647
0.179655
0.179664
0.179672
0.17968
0.179688
0.179697
0.179705
0.179714
0.179722
0.17973
0.179738
0.179747
0.179755
0.179764
0.179772
0.179781
0.179789
0.179797
0.179805
0.179814
0.179822
0.179831
0.179839
0.179848
0.179856
0.179864
0.179872
0.179881
0.179889
0.179898
0.179906
0.179915
0.179922
0.179931
0.179939
0.179948
0.179956
0.179965
0.179973
0.179982
0.179989
0.179998
0.180006
0.180015
0.180023
0.180032
0.18004
0.180049
0.180056
0.180065
0.180073
0.180082
0.18009
0.180099
0.180107
0.180116
0.180124
0.180133
0.18014
0.180149
0.180157
0.180166
0.180174
0.180183
0.180191
0.1802
0.180207
0.180216
0.180224
0.180233
0.180241
0.18025
0.180258
0.180267
0.180274
0.180284
0.180291
0.1803
0.180308
0.180317
0.180325
0.180334
0.180342
0.180351
0.180358
0.180368
0.180375
0.180384
0.180392
0.180401
0.180409
0.180418
0.180426
0.180435
0.180442
0.180452
0.180459
0.180468
0.180476
0.180485
0.180493
0.180502
0.18051
0.180519
0.180526
0.180536
0.180543
0.180553
0.18056
0.180569
0.180577
0.180586
0.180594
0.180603
0.18061
0.18062
0.180627
0.180637
0.180644
0.180654
0.180661
0.18067
0.180678
0.180687
0.180695
0.180704
0.180711
0.180721
0.180728
0.180738
0.180745
0.180755
0.180762
0.180771
0.180779
0.180788
0.180796
0.180805
0.180812
0.180822
0.180829
0.180839
0.180846
0.180856
0.180863
0.180872
0.18088
0.180889
0.180897
0.180906
0.180914
0.180923
0.180931
0.18094
0.180947
0.180957
0.180964
0.180973
0.180981
0.18099
0.180998
0.181007
0.181015
0.181024
0.181032
0.181041
0.181049
0.181057
0.181066
0.181074
0.181083
0.181091
0.1811
0.181108
0.181117
0.181125
0.181133
0.181142
0.18115
0.181159
0.181167
0.181176
0.181184
0.181193
0.181201
0.181209
0.181218
0.181226
0.181235
0.181243
0.181252
0.18126
0.181269
0.181277
0.181285
0.181294
0.181302
0.181311
0.181319
0.181328
0.181336
0.181345
0.181353
0.181362
0.18137
0.181378
0.181387
0.181395
0.181404
0.181412
0.181421
0.181429
0.181438
0.181446
0.181455
0.181463
0.181471
0.18148
0.181488
0.181497
0.181505
0.181514
0.181522
0.181531
0.181539
0.181548
0.181556
0.181565
0.181573
0.181582
0.18159
0.181598
0.181607
0.181615
0.181624
0.181632
0.181641
0.181649
0.181658
0.181666
0.181675
0.181683
0.181692
0.1817
0.181709
0.181717
0.181726
0.181734
0.181742
0.181751
0.181759
0.181768
0.181776
0.181785
0.181793
0.181802
0.18181
0.181819
0.181827
0.181836
0.181844
0.181853
0.181861
0.18187
0.181878
0.181887
0.181895
0.181904
0.181912
0.181921
0.181929
0.181938
0.181946
0.181955
0.181963
0.181972
0.18198
0.181988
0.181997
0.182005
0.182014
0.182022
0.182031
0.182039
0.182048
0.182056
0.182065
0.182073
0.182082
0.18209
0.182099
0.182107
0.182116
0.182124
0.182133
0.182141
0.18215
0.182158
0.182167
0.182175
0.182184
0.182192
0.182201
0.182209
0.182218
0.182226
0.182235
0.182243
0.182252
0.18226
0.182269
0.182277
0.182286
0.182294
0.182303
0.182311
0.18232
0.182328
0.182337
0.182346
0.182354
0.182363
0.182371
0.18238
0.182388
0.182397
0.182405
0.182414
0.182422
0.182431
0.182439
0.182448
0.182456
0.182465
0.182473
0.182482
0.18249
0.182499
0.182507
0.182516
0.182524
0.182533
0.182541
0.18255
0.182558
0.182567
0.182575
0.182584
0.182593
0.182601
0.18261
0.182618
0.182627
0.182635
0.182644
0.182652
0.182661
0.182669
0.182678
0.182686
0.182695
0.182703
0.182712
0.18272
0.182729
0.182738
0.182746
0.182755
0.182763
0.182772
0.18278
0.182789
0.182797
0.182806
0.182814
0.182823
0.182831
0.18284
0.182848
0.182857
0.182866
0.182874
0.182883
0.182891
0.1829
0.182908
0.182917
0.182925
0.182934
0.182942
0.182951
0.18296
0.182968
0.182977
0.182985
0.182994
0.183002
0.183011
0.183019
0.183028
0.183036
0.183045
0.183054
0.183062
0.183071
0.183079
0.183088
0.183096
0.183105
0.183113
0.183122
0.183131
0.183139
0.183148
0.183156
0.183165
0.183173
0.183182
0.18319
0.183199
0.183208
0.183216
0.183225
0.183233
0.183242
0.18325
0.183259
0.183267
0.183276
0.183285
0.183293
0.183302
0.18331
0.183319
0.183327
0.183336
0.183345
0.183353
0.183362
0.18337
0.183379
0.183387
0.183396
0.183405
0.183413
0.183422
0.18343
0.183439
0.183447
0.183456
0.183465
0.183473
0.183482
0.18349
0.183499
0.183507
0.183516
0.183525
0.183533
0.183542
0.18355
0.183559
0.183567
0.183576
0.183585
0.183593
0.183602
0.18361
0.183619
0.183628
0.183636
0.183645
0.183653
0.183662
0.18367
0.183679
0.183688
0.183696
0.183705
0.183713
0.183722
0.183731
0.183739
0.183748
0.183756
0.183765
0.183774
0.183782
0.183791
0.183799
0.183808
0.183816
0.183825
0.183834
0.183842
0.183851
0.183859
0.183868
0.183877
0.183885
0.183894
0.183902
0.183911
0.18392
0.183928
0.183937
0.183945
0.183954
0.183963
0.183971
0.18398
0.183988
0.183997
0.184006
0.184014
0.184023
0.184031
0.18404
0.184049
0.184057
0.184066
0.184075
0.184083
0.184092
0.1841
0.184109
0.184118
0.184126
0.184135
0.184143
0.184152
0.184161
0.184169
0.184178
0.184186
0.184195
0.184204
0.184212
0.184221
0.18423
0.184238
0.184247
0.184255
0.184264
0.184273
0.184281
0.18429
0.184299
0.184307
0.184316
0.184324
0.184333
0.184342
0.18435
0.184359
0.184368
0.184376
0.184385
0.184393
0.184402
0.184411
0.184419
0.184428
0.184437
0.184445
0.184454
0.184462
0.184471
0.18448
0.184488
0.184497
0.184506
0.184514
0.184523
0.184531
0.18454
0.184549
0.184557
0.184566
0.184575
0.184583
0.184592
0.184601
0.184609
0.184618
0.184626
0.184635
0.184644
0.184652
0.184661
0.18467
0.184678
0.184687
0.184696
0.184704
0.184713
0.184722
0.18473
0.184739
0.184747
0.184756
0.184765
0.184773
0.184782
0.184791
0.184799
0.184808
0.184817
0.184825
0.184834
0.184843
0.184851
0.18486
0.184869
0.184877
0.184886
0.184895
0.184903
0.184912
0.18492
0.184929
0.184938
0.184946
0.184955
0.184964
0.184972
0.184981
0.18499
0.184998
0.185007
0.185016
0.185024
0.185033
0.185042
0.18505
0.185059
0.185068
0.185076
0.185085
0.185094
0.185102
0.185111
0.18512
0.185128
0.185137
0.185146
0.185154
0.185163
0.185172
0.18518
0.185189
0.185198
0.185206
0.185215
0.185224
0.185232
0.185241
0.18525
0.185258
0.185267
0.185276
0.185284
0.185293
0.185302
0.185311
0.185319
0.185328
0.185337
0.185345
0.185354
0.185363
0.185371
0.18538
0.185389
0.185397
0.185406
0.185415
0.185423
0.185432
0.185441
0.185449
0.185458
0.185467
0.185475
0.185484
0.185493
0.185502
0.18551
0.185519
0.185528
0.185536
0.185545
0.185554
0.185562
0.185571
0.18558
0.185588
0.185597
0.185606
0.185615
0.185623
0.185632
0.185641
0.185649
0.185658
0.185667
0.185675
0.185684
0.185693
0.185702
0.18571
0.185719
0.185728
0.185736
0.185745
0.185754
0.185762
0.185771
0.18578
0.185789
0.185797
0.185806
0.185815
0.185823
0.185832
0.185841
0.185849
0.185858
0.185867
0.185876
0.185884
0.185893
0.185902
0.18591
0.185919
0.185928
0.185937
0.185945
0.185954
0.185963
0.185971
0.18598
0.185989
0.185998
0.186006
0.186015
0.186024
0.186033
0.186041
0.18605
0.186058
0.186067
0.186076
0.186085
0.186093
0.186102
0.186111
0.18612
0.186128
0.186137
0.186145
0.186155
0.186163
0.186172
0.18618
0.18619
0.186198
0.186207
0.186215
0.186225
0.186233
0.186242
0.18625
0.18626
0.186267
0.186277
0.186285
0.186295
0.186302
0.186312
0.18632
0.18633
0.186337
0.186347
0.186355
0.186365
0.186372
0.186382
0.18639
0.1864
0.186407
0.186417
0.186425
0.186435
0.186442
0.186452
0.18646
0.186469
0.186477
0.186487
0.186495
0.186504
0.186512
0.186522
0.18653
0.186539
0.186547
0.186557
0.186564
0.186574
0.186582
0.186592
0.186599
0.186609
0.186617
0.186627
0.186634
0.186644
0.186652
0.186662
0.186669
0.186679
0.186687
0.186697
0.186705
0.186714
0.186722
0.186732
0.18674
0.186749
0.186757
0.186767
0.186775
0.186784
0.186792
0.186802
0.18681
0.18682
0.186827
0.186837
0.186845
0.186855
0.186862
0.186872
0.18688
0.18689
0.186897
0.186907
0.186915
0.186925
0.186932
0.186942
0.18695
0.18696
0.186967
0.186977
0.186985
0.186995
0.187003
0.187012
0.18702
0.18703
0.187038
0.187047
0.187055
0.187065
0.187073
0.187082
0.187091
0.187099
0.187108
0.187117
0.187126
0.187134
0.187144
0.187152
0.187161
0.187169
0.187179
0.187187
0.187197
0.187204
0.187214
0.187222
0.187232
0.187239
0.187249
0.187257
0.187267
0.187275
0.187285
0.187292
0.187302
0.18731
0.18732
0.187327
0.187337
0.187345
0.187355
0.187362
0.187372
0.18738
0.18739
0.187398
0.187408
0.187415
0.187425
0.187433
0.187443
0.18745
0.18746
0.187468
0.187478
0.187486
0.187496
0.187503
0.187513
0.187521
0.187531
0.187538
0.187548
0.187556
0.187566
0.187574
0.187584
0.187591
0.187601
0.187609
0.187619
0.187626
0.187636
0.187644
0.187654
0.187662
0.187672
0.187679
0.187689
0.187697
0.187707
0.187715
0.187725
0.187732
0.187742
0.18775
0.18776
0.187767
0.187777
0.187785
0.187795
0.187803
0.187813
0.18782
0.18783
0.187838
0.187848
0.187856
0.187866
0.187873
0.187883
0.187891
0.187901
0.187908
0.187918
0.187926
0.187936
0.187944
0.187954
0.187961
0.187971
0.187979
0.187989
0.187997
0.188007
0.188014
0.188024
0.188032
0.188042
0.18805
0.18806
0.188067
0.188077
0.188085
0.188095
0.188103
0.188113
0.18812
0.18813
0.188138
0.188148
0.188156
0.188166
0.188173
0.188183
0.188191
0.188201
0.188209
0.188219
0.188226
0.188236
0.188244
0.188254
0.188262
0.188272
0.188279
0.188289
0.188297
0.188307
0.188315
0.188325
0.188332
0.188343
0.18835
0.18836
0.188368
0.188378
0.188386
0.188396
0.188403
0.188413
0.188421
0.188431
0.188439
0.188449
0.188456
0.188466
0.188474
0.188484
0.188492
0.188502
0.188509
0.18852
0.188527
0.188537
0.188545
0.188555
0.188563
0.188573
0.18858
0.18859
0.188598
0.188608
0.188616
0.188626
0.188633
0.188644
0.188651
0.188661
0.188669
0.188679
0.188687
0.188697
0.188704
0.188714
0.188722
0.188732
0.18874
0.18875
0.188758
0.188768
0.188775
0.188785
0.188793
0.188803
0.188811
0.188821
0.188829
0.188839
0.188846
0.188856
0.188864
0.188874
0.188882
0.188892
0.1889
0.18891
0.188917
0.188927
0.188935
0.188945
0.188953
0.188963
0.188971
0.188981
0.188988