/*--------------------------------*- C++ -*----------------------------------*\
  =========                 |
  \\      /  F ield         | OpenFOAM: The Open Source CFD Toolbox
   \\    /   O peration     | Website:  https://openfoam.org
    \\  /    A nd           | Version:  9
     \\/     M anipulation  |
\*---------------------------------------------------------------------------*/
FoamFile
{
    format      ascii;
    class       volScalarField;
    location    "0.048";
    object      T;
}
// * * * * * * * * * * * * * * * * * * * * * * * * * * * * * * * * * * * * * //

dimensions      [0 0 0 1 0 0 0];

internalField   nonuniform List<scalar> 
10000
(
170.115
170.116
170.118
170.119
170.121
170.122
170.124
170.126
170.127
170.129
170.131
170.132
170.134
170.136
170.137
170.139
170.141
170.142
170.144
170.146
170.147
170.149
170.15
170.152
170.154
170.155
170.157
170.159
170.16
170.162
170.164
170.166
170.167
170.169
170.171
170.172
170.174
170.176
170.177
170.179
170.181
170.182
170.184
170.186
170.187
170.189
170.191
170.192
170.194
170.196
170.197
170.199
170.201
170.202
170.204
170.206
170.207
170.209
170.211
170.212
170.214
170.216
170.217
170.219
170.221
170.222
170.224
170.226
170.227
170.229
170.231
170.233
170.234
170.236
170.238
170.239
170.241
170.243
170.244
170.246
170.248
170.249
170.251
170.253
170.254
170.256
170.258
170.259
170.261
170.263
170.264
170.266
170.268
170.269
170.271
170.273
170.274
170.276
170.278
170.279
170.281
170.283
170.284
170.286
170.288
170.289
170.291
170.293
170.294
170.296
170.298
170.299
170.301
170.303
170.304
170.306
170.308
170.309
170.311
170.313
170.314
170.316
170.318
170.319
170.321
170.323
170.324
170.326
170.328
170.329
170.331
170.333
170.334
170.336
170.337
170.339
170.341
170.342
170.344
170.346
170.348
170.349
170.351
170.352
170.354
170.356
170.357
170.359
170.36
170.362
170.364
170.366
170.367
170.369
170.371
170.372
170.374
170.376
170.377
170.379
170.38
170.382
170.383
170.385
170.387
170.388
170.39
170.392
170.393
170.395
170.397
170.399
170.4
170.402
170.403
170.405
170.406
170.408
170.409
170.411
170.412
170.414
170.415
170.417
170.419
170.421
170.422
170.424
170.426
170.428
170.429
170.431
170.433
170.434
170.436
170.437
170.438
170.44
170.441
170.443
170.444
170.445
170.447
170.448
170.449
170.451
170.453
170.454
170.456
170.458
170.459
170.461
170.463
170.465
170.467
170.469
170.471
170.472
170.474
170.476
170.478
170.479
170.481
170.482
170.483
170.484
170.485
170.486
170.487
170.488
170.489
170.489
170.49
170.49
170.491
170.491
170.491
170.491
170.492
170.492
170.492
170.492
170.492
170.492
170.492
170.493
170.493
170.493
170.493
170.493
170.493
170.492
170.492
170.492
170.492
170.492
170.492
170.492
170.491
170.491
170.491
170.491
170.491
170.491
170.491
170.491
170.49
170.49
170.49
170.49
170.49
170.49
170.49
170.489
170.489
170.489
170.489
170.489
170.489
170.489
170.489
170.489
170.488
170.488
170.488
170.488
170.488
170.488
170.488
170.488
170.487
170.487
170.487
170.487
170.487
170.487
170.487
170.487
170.487
170.487
170.486
170.486
170.486
170.486
170.486
170.486
170.486
170.486
170.486
170.486
170.486
170.485
170.485
170.485
170.485
170.485
170.485
170.485
170.485
170.485
170.485
170.485
170.485
170.484
170.484
170.484
170.484
170.484
170.484
170.484
170.484
170.484
170.484
170.484
170.484
170.484
170.484
170.484
170.484
170.483
170.483
170.483
170.483
170.483
170.483
170.483
170.483
170.483
170.483
170.483
170.483
170.483
170.483
170.483
170.483
170.483
170.483
170.483
170.483
170.483
170.483
170.483
170.483
170.482
170.482
170.482
170.482
170.482
170.482
170.482
170.482
170.482
170.482
170.482
170.482
170.482
170.482
170.482
170.482
170.482
170.482
170.482
170.482
170.482
170.482
170.482
170.482
170.482
170.482
170.482
170.482
170.482
170.482
170.482
170.482
170.482
170.482
170.482
170.483
170.483
170.483
170.483
170.483
170.483
170.483
170.483
170.483
170.483
170.483
170.483
170.483
170.483
170.483
170.483
170.483
170.483
170.483
170.483
170.483
170.483
170.484
170.484
170.484
170.484
170.484
170.484
170.484
170.484
170.484
170.484
170.484
170.484
170.484
170.484
170.485
170.485
170.485
170.485
170.485
170.485
170.485
170.485
170.485
170.485
170.486
170.486
170.486
170.486
170.486
170.486
170.486
170.486
170.486
170.487
170.487
170.487
170.487
170.487
170.487
170.487
170.488
170.488
170.488
170.488
170.488
170.488
170.488
170.489
170.489
170.489
170.489
170.489
170.489
170.49
170.49
170.49
170.49
170.49
170.49
170.491
170.491
170.491
170.491
170.491
170.492
170.492
170.492
170.492
170.492
170.493
170.493
170.493
170.493
170.493
170.494
170.494
170.494
170.494
170.495
170.495
170.495
170.495
170.495
170.496
170.496
170.496
170.496
170.497
170.497
170.497
170.498
170.498
170.498
170.498
170.499
170.499
170.499
170.499
170.5
170.5
170.5
170.501
170.501
170.501
170.501
170.502
170.502
170.502
170.503
170.503
170.503
170.504
170.504
170.504
170.505
170.505
170.505
170.506
170.506
170.506
170.507
170.507
170.507
170.508
170.508
170.508
170.509
170.509
170.51
170.51
170.51
170.511
170.511
170.512
170.512
170.512
170.513
170.513
170.514
170.514
170.514
170.515
170.515
170.516
170.516
170.517
170.517
170.517
170.518
170.518
170.519
170.519
170.52
170.52
170.521
170.521
170.522
170.522
170.523
170.523
170.524
170.524
170.525
170.525
170.526
170.526
170.527
170.527
170.528
170.528
170.529
170.529
170.53
170.53
170.531
170.531
170.532
170.533
170.533
170.534
170.534
170.535
170.535
170.536
170.537
170.537
170.538
170.538
170.539
170.54
170.54
170.541
170.542
170.542
170.543
170.544
170.544
170.545
170.545
170.546
170.547
170.547
170.548
170.549
170.55
170.55
170.551
170.552
170.552
170.553
170.554
170.555
170.555
170.556
170.557
170.557
170.558
170.559
170.56
170.561
170.561
170.562
170.563
170.564
170.564
170.565
170.566
170.567
170.568
170.568
170.569
170.57
170.571
170.572
170.573
170.574
170.574
170.575
170.576
170.577
170.578
170.579
170.58
170.581
170.582
170.582
170.583
170.584
170.585
170.586
170.587
170.588
170.589
170.59
170.591
170.592
170.593
170.594
170.595
170.596
170.597
170.598
170.599
170.6
170.601
170.602
170.603
170.604
170.605
170.606
170.607
170.608
170.61
170.611
170.612
170.613
170.614
170.615
170.616
170.617
170.618
170.62
170.621
170.622
170.623
170.624
170.626
170.627
170.628
170.629
170.63
170.632
170.633
170.634
170.635
170.637
170.638
170.639
170.64
170.642
170.643
170.644
170.646
170.647
170.648
170.649
170.651
170.652
170.653
170.655
170.656
170.658
170.659
170.66
170.662
170.663
170.665
170.666
170.667
170.669
170.67
170.672
170.673
170.675
170.676
170.678
170.679
170.681
170.682
170.684
170.685
170.687
170.688
170.69
170.691
170.693
170.695
170.696
170.698
170.699
170.701
170.703
170.704
170.706
170.707
170.709
170.711
170.712
170.714
170.716
170.718
170.719
170.721
170.723
170.724
170.726
170.728
170.73
170.731
170.733
170.735
170.737
170.739
170.74
170.742
170.744
170.746
170.748
170.75
170.751
170.753
170.755
170.757
170.759
170.761
170.763
170.765
170.767
170.768
170.77
170.772
170.774
170.776
170.778
170.78
170.782
170.784
170.786
170.788
170.79
170.792
170.794
170.797
170.799
170.801
170.803
170.805
170.807
170.809
170.811
170.813
170.815
170.818
170.82
170.822
170.824
170.826
170.828
170.831
170.833
170.835
170.837
170.839
170.842
170.844
170.846
170.848
170.851
170.853
170.855
170.858
170.86
170.862
170.865
170.867
170.869
170.872
170.874
170.876
170.879
170.881
170.883
170.886
170.888
170.891
170.893
170.895
170.898
170.9
170.903
170.905
170.908
170.91
170.913
170.915
170.918
170.92
170.923
170.925
170.928
170.93
170.933
170.935
170.938
170.94
170.943
170.945
170.948
170.951
170.953
170.956
170.958
170.961
170.964
170.966
170.969
170.971
170.974
170.977
170.979
170.982
170.985
170.987
170.99
170.993
170.995
170.998
171.001
171.004
171.006
171.009
171.012
171.014
171.017
171.02
171.023
171.025
171.028
171.031
171.034
171.037
171.039
171.042
171.045
171.048
171.05
171.053
171.056
171.059
171.062
171.065
171.067
171.07
171.073
171.076
171.079
171.082
171.085
171.087
171.09
171.093
171.096
171.099
171.102
171.105
171.108
171.11
171.113
171.116
171.119
171.122
171.125
171.128
171.131
171.134
171.137
171.14
171.143
171.146
171.148
171.151
171.154
171.157
171.16
171.163
171.166
171.169
171.172
171.175
171.178
171.181
171.184
171.187
171.19
171.193
171.196
171.199
171.202
171.205
171.208
171.211
171.214
171.217
171.22
171.223
171.226
171.229
171.232
171.235
171.238
171.241
171.244
171.247
171.251
171.254
171.257
171.26
171.263
171.266
171.269
171.272
171.275
171.278
171.281
171.284
171.287
171.29
171.293
171.296
171.299
171.303
171.306
171.309
171.312
171.315
171.318
171.321
171.324
171.327
171.33
171.333
171.336
171.34
171.343
171.346
171.349
171.352
171.355
171.358
171.361
171.364
171.367
171.371
171.374
171.377
171.38
171.383
171.386
171.389
171.392
171.395
171.399
171.402
171.405
171.408
171.411
171.414
171.417
171.42
171.423
171.427
171.43
171.433
171.436
171.439
171.442
171.445
171.448
171.452
171.455
171.458
171.461
171.464
171.467
171.47
171.473
171.477
171.48
171.483
171.486
171.489
171.492
171.495
171.499
171.502
171.505
171.508
171.511
171.514
171.517
171.52
171.524
171.527
171.53
171.533
171.536
171.539
171.542
171.546
171.549
171.552
171.555
171.558
171.561
171.564
171.568
171.571
171.574
171.577
171.58
171.583
171.586
171.59
171.593
171.596
171.599
171.602
171.605
171.608
171.612
171.615
171.618
171.621
171.624
171.627
171.631
171.634
171.637
171.64
171.643
171.646
171.649
171.653
171.656
171.659
171.662
171.665
171.668
171.671
171.675
171.678
171.681
171.684
171.687
171.69
171.694
171.697
171.7
171.703
171.706
171.709
171.712
171.716
171.719
171.722
171.725
171.728
171.731
171.735
171.738
171.741
171.744
171.747
171.75
171.754
171.757
171.76
171.763
171.766
171.769
171.772
171.776
171.779
171.782
171.785
171.788
171.791
171.795
171.798
171.801
171.804
171.807
171.81
171.814
171.817
171.82
171.823
171.826
171.829
171.832
171.836
171.839
171.842
171.845
171.848
171.851
171.855
171.858
171.861
171.864
171.867
171.87
171.874
171.877
171.88
171.883
171.886
171.889
171.893
171.896
171.899
171.902
171.905
171.908
171.912
171.915
171.918
171.921
171.924
171.927
171.931
171.934
171.937
171.94
171.943
171.946
171.95
171.953
171.956
171.959
171.962
171.965
171.969
171.972
171.975
171.978
171.981
171.984
171.987
171.991
171.994
171.997
172
172.003
172.006
172.01
172.013
172.016
172.019
172.022
172.025
172.029
172.032
172.035
172.038
172.041
172.045
172.048
172.051
172.054
172.057
172.06
172.064
172.067
172.07
172.073
172.076
172.079
172.083
172.086
172.089
172.092
172.095
172.098
172.102
172.105
172.108
172.111
172.114
172.117
172.121
172.124
172.127
172.13
172.133
172.136
172.14
172.143
172.146
172.149
172.152
172.155
172.159
172.162
172.165
172.168
172.171
172.174
172.178
172.181
172.184
172.187
172.19
172.194
172.197
172.2
172.203
172.206
172.209
172.213
172.216
172.219
172.222
172.225
172.228
172.232
172.235
172.238
172.241
172.244
172.248
172.251
172.254
172.257
172.26
172.263
172.267
172.27
172.273
172.276
172.279
172.282
172.286
172.289
172.292
172.295
172.298
172.301
172.305
172.308
172.311
172.314
172.317
172.321
172.324
172.327
172.33
172.333
172.336
172.34
172.343
172.346
172.349
172.352
172.356
172.359
172.362
172.365
172.368
172.371
172.375
172.378
172.381
172.384
172.387
172.391
172.394
172.397
172.4
172.403
172.406
172.41
172.413
172.416
172.419
172.422
172.425
172.429
172.432
172.435
172.438
172.441
172.445
172.448
172.451
172.454
172.457
172.46
172.464
172.467
172.47
172.473
172.476
172.48
172.483
172.486
172.489
172.492
172.496
172.499
172.502
172.505
172.508
172.511
172.515
172.518
172.521
172.524
172.527
172.531
172.534
172.537
172.54
172.543
172.546
172.55
172.553
172.556
172.559
172.562
172.566
172.569
172.572
172.575
172.578
172.582
172.585
172.588
172.591
172.594
172.597
172.601
172.604
172.607
172.61
172.613
172.617
172.62
172.623
172.626
172.629
172.633
172.636
172.639
172.642
172.645
172.648
172.652
172.655
172.658
172.661
172.664
172.668
172.671
172.674
172.677
172.68
172.684
172.687
172.69
172.693
172.696
172.7
172.703
172.706
172.709
172.712
172.715
172.719
172.722
172.725
172.728
172.731
172.735
172.738
172.741
172.744
172.747
172.751
172.754
172.757
172.76
172.763
172.767
172.77
172.773
172.776
172.779
172.783
172.786
172.789
172.792
172.795
172.798
172.802
172.805
172.808
172.811
172.814
172.818
172.821
172.824
172.827
172.83
172.834
172.837
172.84
172.843
172.846
172.85
172.853
172.856
172.859
172.862
172.866
172.869
172.872
172.875
172.878
172.882
172.885
172.888
172.891
172.894
172.898
172.901
172.904
172.907
172.91
172.914
172.917
172.92
172.923
172.926
172.93
172.933
172.936
172.939
172.942
172.946
172.949
172.952
172.955
172.958
172.962
172.965
172.968
172.971
172.974
172.978
172.981
172.984
172.987
172.99
172.994
172.997
173
173.003
173.006
173.01
173.013
173.016
173.019
173.022
173.026
173.029
173.032
173.035
173.038
173.042
173.045
173.048
173.051
173.054
173.058
173.061
173.064
173.067
173.07
173.074
173.077
173.08
173.083
173.086
173.09
173.093
173.096
173.099
173.102
173.106
173.109
173.112
173.115
173.118
173.122
173.125
173.128
173.131
173.134
173.138
173.141
173.144
173.147
173.15
173.154
173.157
173.16
173.163
173.166
173.17
173.173
173.176
173.179
173.183
173.186
173.189
173.192
173.195
173.199
173.202
173.205
173.208
173.211
173.215
173.218
173.221
173.224
173.227
173.231
173.234
173.237
173.24
173.243
173.247
173.25
173.253
173.256
173.26
173.263
173.266
173.269
173.272
173.276
173.279
173.282
173.285
173.288
173.292
173.295
173.298
173.301
173.304
173.308
173.311
173.314
173.317
173.321
173.324
173.327
173.33
173.333
173.337
173.34
173.343
173.346
173.349
173.353
173.356
173.359
173.362
173.365
173.369
173.372
173.375
173.378
173.382
173.385
173.388
173.391
173.394
173.398
173.401
173.404
173.407
173.41
173.414
173.417
173.42
173.423
173.427
173.43
173.433
173.436
173.439
173.443
173.446
173.449
173.452
173.455
173.459
173.462
173.465
173.468
173.472
173.475
173.478
173.481
173.484
173.488
173.491
173.494
173.497
173.5
173.504
173.507
173.51
173.513
173.517
173.52
173.523
173.526
173.529
173.533
173.536
173.539
173.542
173.546
173.549
173.552
173.555
173.558
173.562
173.565
173.568
173.571
173.574
173.578
173.581
173.584
173.587
173.591
173.594
173.597
173.6
173.603
173.607
173.61
173.613
173.616
173.62
173.623
173.626
173.629
173.632
173.636
173.639
173.642
173.645
173.649
173.652
173.655
173.658
173.661
173.665
173.668
173.671
173.674
173.678
173.681
173.684
173.687
173.69
173.694
173.697
173.7
173.703
173.707
173.71
173.713
173.716
173.719
173.723
173.726
173.729
173.732
173.736
173.739
173.742
173.745
173.748
173.752
173.755
173.758
173.761
173.765
173.768
173.771
173.774
173.777
173.781
173.784
173.787
173.79
173.794
173.797
173.8
173.803
173.807
173.81
173.813
173.816
173.819
173.823
173.826
173.829
173.832
173.836
173.839
173.842
173.845
173.848
173.852
173.855
173.858
173.861
173.865
173.868
173.871
173.874
173.878
173.881
173.884
173.887
173.89
173.894
173.897
173.9
173.903
173.907
173.91
173.913
173.916
173.919
173.923
173.926
173.929
173.932
173.936
173.939
173.942
173.945
173.949
173.952
173.955
173.958
173.961
173.965
173.968
173.971
173.974
173.978
173.981
173.984
173.987
173.991
173.994
173.997
174
174.003
174.007
174.01
174.013
174.016
174.02
174.023
174.026
174.029
174.033
174.036
174.039
174.042
174.046
174.049
174.052
174.055
174.058
174.062
174.065
174.068
174.071
174.075
174.078
174.081
174.084
174.088
174.091
174.094
174.097
174.101
174.104
174.107
174.11
174.113
174.117
174.12
174.123
174.126
174.13
174.133
174.136
174.139
174.143
174.146
174.149
174.152
174.156
174.159
174.162
174.165
174.168
174.172
174.175
174.178
174.181
174.185
174.188
174.191
174.194
174.198
174.201
174.204
174.207
174.211
174.214
174.217
174.22
174.224
174.227
174.23
174.233
174.236
174.24
174.243
174.246
174.249
174.253
174.256
174.259
174.262
174.266
174.269
174.272
174.275
174.279
174.282
174.285
174.288
174.292
174.295
174.298
174.301
174.305
174.308
174.311
174.314
174.317
174.321
174.324
174.327
174.33
174.334
174.337
174.34
174.343
174.347
174.35
174.353
174.356
174.36
174.363
174.366
174.369
174.373
174.376
174.379
174.382
174.386
174.389
174.392
174.395
174.399
174.402
174.405
174.408
174.412
174.415
174.418
174.421
174.425
174.428
174.431
174.434
174.438
174.441
174.444
174.447
174.45
174.454
174.457
174.46
174.463
174.467
174.47
174.473
174.476
174.48
174.483
174.486
174.489
174.493
174.496
174.499
174.502
174.506
174.509
174.512
174.515
174.519
174.522
174.525
174.528
174.532
174.535
174.538
174.541
174.545
174.548
174.551
174.554
174.558
174.561
174.564
174.567
174.571
174.574
174.577
174.58
174.584
174.587
174.59
174.593
174.597
174.6
174.603
174.606
174.61
174.613
174.616
174.619
174.623
174.626
174.629
174.632
174.636
174.639
174.642
174.645
174.649
174.652
174.655
174.658
174.662
174.665
174.668
174.671
174.675
174.678
174.681
174.684
174.688
174.691
174.694
174.697
174.701
174.704
174.707
174.71
174.714
174.717
174.72
174.724
174.727
174.73
174.733
174.737
174.74
174.743
174.746
174.75
174.753
174.756
174.759
174.763
174.766
174.769
174.772
174.776
174.779
174.782
174.785
174.789
174.792
174.795
174.798
174.802
174.805
174.808
174.811
174.815
174.818
174.821
174.824
174.828
174.831
174.834
174.837
174.841
174.844
174.847
174.851
174.854
174.857
174.86
174.864
174.867
174.87
174.873
174.877
174.88
174.883
174.886
174.89
174.893
174.896
174.899
174.903
174.906
174.909
174.912
174.916
174.919
174.922
174.925
174.929
174.932
174.935
174.939
174.942
174.945
174.948
174.952
174.955
174.958
174.961
174.965
174.968
174.971
174.974
174.978
174.981
174.984
174.987
174.991
174.994
174.997
175
175.004
175.007
175.01
175.014
175.017
175.02
175.023
175.027
175.03
175.033
175.036
175.04
175.043
175.046
175.049
175.053
175.056
175.059
175.063
175.066
175.069
175.072
175.076
175.079
175.082
175.085
175.089
175.092
175.095
175.098
175.102
175.105
175.108
175.111
175.115
175.118
175.121
175.124
175.128
175.131
175.134
175.138
175.141
175.144
175.148
175.151
175.154
175.157
175.161
175.164
175.167
175.17
175.174
175.177
175.18
175.183
175.187
175.19
175.193
175.196
175.2
175.203
175.206
175.209
175.213
175.216
175.219
175.222
175.226
175.229
175.233
175.235
175.239
175.242
175.246
175.249
175.252
175.255
175.259
175.262
175.265
175.268
175.272
175.275
175.278
175.281
175.285
175.288
175.291
175.294
175.298
175.301
175.305
175.307
175.311
175.314
175.318
175.32
175.324
175.327
175.331
175.334
175.337
175.34
175.344
175.347
175.35
175.353
175.357
175.36
175.364
175.366
175.37
175.373
175.377
175.379
175.383
175.386
175.39
175.392
175.396
175.399
175.403
175.405
175.409
175.412
175.416
175.419
175.423
175.425
175.429
175.432
175.436
175.438
175.442
175.445
175.449
175.451
175.455
175.458
175.462
175.464
175.468
175.471
175.475
175.477
175.482
175.484
175.488
175.491
175.495
175.497
175.501
175.504
175.508
175.51
175.514
175.517
175.521
175.523
175.528
175.53
175.534
175.536
175.541
175.543
175.547
175.549
175.554
175.556
175.56
175.563
175.567
175.569
175.573
175.576
175.58
175.582
175.587
175.589
175.593
175.595
175.6
175.602
175.606
175.608
175.613
175.615
175.619
175.622
175.626
175.628
175.632
175.635
175.639
175.641
175.646
175.648
175.652
175.654
175.659
175.661
175.665
175.668
175.672
175.674
175.678
175.681
175.685
175.687
175.691
175.694
175.698
175.701
175.704
175.707
175.711
175.714
175.717
175.72
175.724
175.727
175.73
175.734
175.737
175.74
175.744
175.747
175.75
175.753
175.757
175.76
175.763
175.767
175.77
175.773
175.776
175.78
175.783
175.786
175.79
175.793
175.796
175.799
175.803
175.806
175.809
175.813
175.816
175.819
175.822
175.826
175.829
175.832
175.836
175.839
175.842
175.845
175.849
175.852
175.855
175.859
175.862
175.865
175.868
175.872
175.875
175.878
175.882
175.885
175.888
175.891
175.895
175.898
175.901
175.905
175.908
175.911
175.914
175.918
175.921
175.924
175.928
175.931
175.934
175.937
175.941
175.944
175.947
175.951
175.954
175.957
175.961
175.964
175.967
175.97
175.974
175.977
175.98
175.984
175.987
175.99
175.993
175.997
176
176.003
176.007
176.01
176.013
176.016
176.02
176.023
176.026
176.03
176.033
176.036
176.04
176.043
176.046
176.049
176.053
176.056
176.059
176.063
176.066
176.069
176.072
176.076
176.079
176.082
176.086
176.089
176.092
176.095
176.099
176.102
176.105
176.109
176.112
176.115
176.119
176.122
176.125
176.128
176.132
176.135
176.138
176.142
176.145
176.148
176.152
176.155
176.158
176.161
176.165
176.168
176.171
176.175
176.178
176.181
176.184
176.188
176.191
176.194
176.198
176.201
176.204
176.208
176.211
176.214
176.217
176.221
176.224
176.227
176.231
176.234
176.237
176.241
176.244
176.247
176.25
176.254
176.257
176.26
176.264
176.267
176.27
176.274
176.277
176.28
176.283
176.287
176.29
176.293
176.297
176.3
176.303
176.307
176.31
176.313
176.316
176.32
176.323
176.326
176.33
176.333
176.336
176.34
176.343
176.346
176.349
176.353
176.356
176.359
176.363
176.366
176.369
176.373
176.376
176.379
176.382
176.386
176.389
176.392
176.396
176.399
176.402
176.406
176.409
176.412
176.415
176.419
176.422
176.425
176.429
176.432
176.435
176.439
176.442
176.445
176.449
176.452
176.455
176.458
176.462
176.465
176.468
176.472
176.475
176.478
176.482
176.485
176.488
176.491
176.495
176.498
176.501
176.505
176.508
176.511
176.515
176.518
176.521
176.525
176.528
176.531
176.534
176.538
176.541
176.544
176.548
176.551
176.554
176.558
176.561
176.564
176.568
176.571
176.574
176.577
176.581
176.584
176.587
176.591
176.594
176.597
176.601
176.604
176.607
176.611
176.614
176.617
176.62
176.624
176.627
176.63
176.634
176.637
176.64
176.644
176.647
176.65
176.654
176.657
176.66
176.664
176.667
176.67
176.673
176.677
176.68
176.683
176.687
176.69
176.693
176.697
176.7
176.703
176.707
176.71
176.713
176.716
176.72
176.723
176.726
176.73
176.733
176.736
176.74
176.743
176.746
176.75
176.753
176.756
176.76
176.763
176.766
176.77
176.773
176.776
176.779
176.783
176.786
176.789
176.793
176.796
176.799
176.803
176.806
176.809
176.813
176.816
176.819
176.823
176.826
176.829
176.832
176.836
176.839
176.842
176.846
176.849
176.852
176.856
176.859
176.862
176.866
176.869
176.872
176.876
176.879
176.882
176.886
176.889
176.892
176.895
176.899
176.902
176.905
176.909
176.912
176.915
176.919
176.922
176.925
176.929
176.932
176.935
176.939
176.942
176.945
176.949
176.952
176.955
176.959
176.962
176.965
176.969
176.972
176.975
176.978
176.982
176.985
176.988
176.992
176.995
176.998
177.002
177.005
177.008
177.012
177.015
177.018
177.022
177.025
177.028
177.032
177.035
177.038
177.042
177.045
177.048
177.052
177.055
177.058
177.061
177.065
177.068
177.071
177.075
177.078
177.081
177.085
177.088
177.091
177.095
177.098
177.101
177.105
177.108
177.111
177.115
177.118
177.121
177.125
177.128
177.131
177.135
177.138
177.141
177.145
177.148
177.151
177.155
177.158
177.161
177.165
177.168
177.171
177.174
177.178
177.181
177.184
177.188
177.191
177.194
177.198
177.201
177.204
177.208
177.211
177.214
177.218
177.221
177.224
177.228
177.231
177.234
177.238
177.241
177.244
177.248
177.251
177.254
177.258
177.261
177.264
177.268
177.271
177.274
177.278
177.281
177.284
177.288
177.291
177.294
177.298
177.301
177.304
177.308
177.311
177.314
177.318
177.321
177.324
177.328
177.331
177.334
177.338
177.341
177.344
177.348
177.351
177.354
177.358
177.361
177.364
177.368
177.371
177.374
177.377
177.381
177.384
177.387
177.391
177.394
177.397
177.401
177.404
177.407
177.411
177.414
177.417
177.421
177.424
177.427
177.431
177.434
177.437
177.441
177.444
177.447
177.451
177.454
177.457
177.461
177.464
177.467
177.471
177.474
177.477
177.481
177.484
177.487
177.491
177.494
177.497
177.501
177.504
177.507
177.511
177.514
177.517
177.521
177.524
177.527
177.531
177.534
177.537
177.541
177.544
177.547
177.551
177.554
177.558
177.561
177.564
177.568
177.571
177.574
177.578
177.581
177.584
177.588
177.591
177.594
177.598
177.601
177.604
177.608
177.611
177.614
177.618
177.621
177.624
177.628
177.631
177.634
177.638
177.641
177.644
177.648
177.651
177.654
177.658
177.661
177.664
177.667
177.671
177.674
177.678
177.681
177.685
177.687
177.691
177.694
177.698
177.701
177.705
177.707
177.711
177.714
177.718
177.721
177.725
177.727
177.732
177.734
177.738
177.741
177.745
177.747
177.752
177.754
177.758
177.761
177.765
177.767
177.772
177.774
177.778
177.781
177.785
177.787
177.792
177.794
177.798
177.801
177.805
177.807
177.812
177.814
177.819
177.821
177.825
177.827
177.832
177.834
177.839
177.841
177.845
177.847
177.852
177.854
177.859
177.861
177.865
177.868
177.872
177.874
177.879
177.881
177.885
177.888
177.892
177.894
177.899
177.901
177.905
177.908
177.912
177.914
177.919
177.921
177.926
177.928
177.932
177.934
177.939
177.941
177.946
177.948
177.952
177.955
177.959
177.961
177.966
177.968
177.972
177.975
177.979
177.981
177.986
177.988
177.992
177.995
177.999
178.001
178.006
178.008
178.013
178.015
178.019
178.021
178.026
178.028
178.033
178.035
178.039
178.042
178.046
178.049
178.052
178.055
178.059
178.062
178.066
178.069
178.072
178.076
178.079
178.083
178.085
178.089
178.092
178.096
178.099
178.103
178.105
178.11
178.112
178.116
178.119
178.123
178.125
178.13
178.132
178.136
178.139
178.143
178.145
178.15
178.152
178.157
178.159
178.163
178.166
178.17
178.172
178.177
178.179
178.183
178.186
178.19
178.192
178.197
178.199
178.204
178.206
178.21
178.212
178.217
178.219
178.224
178.226
178.23
178.233
178.237
178.239
178.244
178.246
178.251
178.253
178.257
178.259
178.264
178.266
178.271
178.273
178.277
178.28
178.284
178.286
178.291
178.293
178.297
178.3
178.304
178.306
178.311
178.313
178.318
178.32
178.324
178.327
178.331
178.333
178.338
178.34
178.344
178.347
178.351
178.353
178.358
178.36
178.365
178.367
178.371
178.374
178.378
178.38
178.385
178.387
178.391
178.394
178.398
178.4
178.405
178.407
178.412
178.414
178.418
178.421
178.425
178.427
178.432
178.434
178.439
178.441
178.445
178.447
178.452
178.454
178.459
178.461
178.465
178.468
178.472
178.474
178.479
178.481
178.486
178.488
178.492
178.495
178.499
178.501
178.506
178.508
178.512
178.515
178.519
178.521
178.526
178.528
178.533
178.535
178.539
178.542
178.546
178.548
178.553
178.555
178.56
178.562
178.566
178.568
178.573
178.575
178.58
178.582
178.586
178.589
178.593
178.595
178.6
178.602
178.607
178.609
178.613
178.616
178.62
178.622
178.627
178.629
178.634
178.636
178.64
178.643
178.647
178.649
178.654
178.656
178.66
178.663
178.667
178.669
178.674
178.676
178.681
178.683
178.687
178.69
178.694
178.696
178.701
178.703
178.708
178.71
178.714
178.717
178.721
178.723
178.728
178.73
178.735
178.737
178.741
178.744
178.748
178.75
178.755
178.757
178.761
178.764
178.768
178.77
178.775
178.777
178.782
178.784
178.788
178.791
178.795
178.797
178.802
178.804
178.809
178.811
178.815
178.818
178.822
178.824
178.829
178.831
178.836
178.838
178.842
178.845
178.849
178.851
178.856
178.858
178.863
178.865
178.869
178.872
178.876
178.878
178.883
178.885
178.89
178.892
178.896
178.899
178.903
178.905
178.91
178.912
178.917
178.919
178.923
178.926
178.93
178.932
178.937
178.939
178.944
178.946
178.95
178.953
178.957
178.959
178.964
178.966
178.971
178.973
178.977
178.98
178.984
178.986
178.991
178.993
178.998
179
179.004
179.007
179.011
179.013
179.018
179.02
179.025
179.027
179.031
179.034
179.038
179.04
179.045
179.047
179.052
179.054
179.058
179.061
179.065
179.067
179.072
179.074
179.079
179.081
179.085
179.088
179.092
179.094
179.099
179.101
179.106
179.108
179.112
179.115
179.119
179.121
179.126
179.128
179.133
179.135
179.139
179.142
179.146
179.148
179.153
179.155
179.16
179.162
179.166
179.169
179.173
179.175
179.18
179.182
179.187
179.189
179.193
179.196
179.2
179.202
179.207
179.209
179.214
179.216
179.22
179.223
179.227
179.229
179.234
179.236
179.241
179.243
179.248
179.25
179.254
179.257
179.261
179.263
179.268
179.27
179.275
179.277
179.281
179.284
179.288
179.29
179.295
179.297
179.302
179.304
179.308
179.311
179.315
179.317
179.322
179.324
179.329
179.331
179.335
179.338
179.342
179.344
179.349
179.351
179.356
179.358
179.363
179.365
179.369
179.372
179.376
179.378
179.383
179.385
179.39
179.392
179.396
179.399
179.403
179.405
179.41
179.412
179.417
179.419
179.423
179.426
179.43
179.433
179.437
179.439
179.444
179.446
179.451
179.453
179.457
179.46
179.464
179.466
179.471
179.473
179.478
179.48
179.484
179.487
179.491
179.494
179.498
179.5
179.505
179.507
179.512
179.514
179.518
179.521
179.525
179.527
179.532
179.534
179.539
179.541
179.545
179.548
179.552
179.555
179.559
179.561
179.566
179.568
179.573
179.575
179.579
179.582
179.586
179.588
179.593
179.595
179.6
179.602
179.607
179.609
179.613
179.616
179.62
179.622
179.627
179.629
179.634
179.636
179.64
179.643
179.647
179.649
179.654
179.656
179.661
179.663
179.668
179.67
179.674
179.677
179.681
179.683
179.688
179.69
179.695
179.697
179.702
179.704
179.708
179.711
179.715
179.717
179.722
179.724
179.729
179.731
179.735
179.738
179.742
179.745
179.749
179.751
179.756
179.758
179.763
179.765
179.769
179.772
179.776
179.778
179.783
179.785
179.79
179.792
179.797
179.799
179.803
179.806
179.81
179.812
179.817
179.819
179.824
179.826
179.831
179.833
179.837
179.84
179.844
179.846
179.851
179.853
179.858
179.86
179.865
179.867
179.871
179.874
179.878
179.88
179.885
179.887
179.892
179.894
179.899
179.901
179.905
179.908
179.912
179.914
179.919
179.921
179.926
179.928
179.933
179.935
179.939
179.942
179.946
179.948
179.953
179.955
179.96
179.962
179.967
179.969
179.973
179.976
179.98
179.982
179.987
179.989
179.994
179.996
180.001
180.003
180.007
180.01
180.014
180.016
180.021
180.023
180.028
180.03
180.035
180.037
180.041
180.044
180.048
180.05
180.055
180.057
180.062
180.064
180.069
180.071
180.075
180.078
180.082
180.085
180.089
180.091
180.096
180.098
180.103
180.105
180.109
180.112
180.116
180.119
180.123
180.125
180.13
180.132
180.137
180.139
180.144
180.146
180.15
180.153
180.157
180.159
180.164
180.166
180.171
180.173
180.178
180.18
180.184
180.187