/*--------------------------------*- C++ -*----------------------------------*\
  =========                 |
  \\      /  F ield         | OpenFOAM: The Open Source CFD Toolbox
   \\    /   O peration     | Website:  https://openfoam.org
    \\  /    A nd           | Version:  9
     \\/     M anipulation  |
\*---------------------------------------------------------------------------*/
FoamFile
{
    format      ascii;
    class       surfaceScalarField;
    location    "0.041";
    object      phi;
}
// * * * * * * * * * * * * * * * * * * * * * * * * * * * * * * * * * * * * * //

dimensions      [1 0 -1 0 0 0 0];

internalField   nonuniform List<scalar> 
999
(
15.6471
15.891
16.1348
16.3785
16.6221
16.8656
17.109
17.3523
17.5955
17.8385
18.0815
18.3243
18.567
18.8097
19.0523
19.2947
19.537
19.7791
20.0212
20.2632
20.5052
20.7471
20.9889
21.2305
21.4719
21.713
21.9541
22.1951
22.4362
22.6773
22.9185
23.1596
23.4006
23.6414
23.8819
24.1221
24.362
24.6017
24.8411
25.0805
25.3199
25.5594
25.7991
26.039
26.2793
26.5198
26.7606
27.0016
27.2427
27.4839
27.7251
27.9662
28.2073
28.4484
28.6896
28.931
29.1728
29.4146
29.6565
29.8982
30.1399
30.3816
30.6232
30.8648
31.1063
31.3477
31.5892
31.8305
32.0717
32.313
32.5541
32.7951
33.0362
33.2771
33.5179
33.7588
33.9995
34.2401
34.4808
34.7213
34.9617
35.2021
35.4424
35.6827
35.9228
36.1629
36.4029
36.6429
36.8828
37.1226
37.3623
37.6019
37.8415
38.081
38.3204
38.5597
38.7989
39.0381
39.2772
39.5162
39.7551
39.9939
40.2326
40.4712
40.7098
40.9483
41.1866
41.4249
41.6631
41.9012
42.1392
42.3771
42.6149
42.8526
43.0902
43.3278
43.5652
43.8025
44.0397
44.2768
44.5137
44.7506
44.9874
45.2241
45.4606
45.697
45.9334
46.1696
46.4057
46.6416
46.8775
47.1132
47.3488
47.5843
47.8196
48.0548
48.2899
48.5249
48.7597
48.9944
49.2289
49.4633
49.6976
49.9317
50.1656
50.3995
50.6331
50.8667
51.1
51.3332
51.5663
51.7992
52.0319
52.2644
52.4968
52.729
52.9611
53.1929
53.4246
53.6561
53.8874
54.1185
54.3495
54.5802
54.8108
55.0411
55.2713
55.5012
55.7309
55.9605
56.1898
56.4189
56.6477
56.8764
57.1048
57.333
57.561
57.7887
58.0162
58.2434
58.4704
58.6971
58.9236
59.1499
59.3758
59.6015
59.8269
60.0521
60.2769
60.5015
60.7258
60.9498
61.1735
61.3968
61.6201
61.8431
62.0656
62.2877
62.5093
62.7306
62.9515
63.1719
63.3921
63.6118
63.8312
64.0502
64.2688
64.487
64.7048
64.9223
65.1393
65.3559
65.572
65.7878
66.003
66.2179
66.4322
66.6461
66.8596
67.0725
67.285
67.4969
67.7084
67.9193
68.1297
68.3396
68.549
68.7578
68.966
69.1737
69.3808
69.5874
69.7933
69.9987
70.2034
70.4076
70.6111
70.8141
71.0163
71.218
71.419
71.6193
71.819
72.018
72.2164
72.4141
72.6111
72.8074
73.003
73.1979
73.3921
73.5856
73.7784
73.9704
74.1618
74.3524
74.5423
74.7315
74.9199
75.1076
75.2946
75.4809
75.6664
75.8512
76.0353
76.2187
76.4013
76.5832
76.7644
76.945
77.1248
77.3039
77.4823
77.66
77.8371
78.0135
78.1893
78.3644
78.5389
78.7128
78.886
79.0587
79.2308
79.4023
79.5733
79.7437
79.9136
80.083
80.2519
80.4203
80.5883
80.7558
80.9229
81.0895
81.2558
81.4217
81.5873
81.7525
81.9174
82.082
82.2463
82.4104
82.5742
82.7377
82.9011
83.0642
83.2272
83.39
83.5526
83.7151
83.8775
84.0398
84.202
84.3641
84.5261
84.6881
84.8501
85.012
85.174
85.3359
85.4978
85.6598
85.8217
85.9838
86.1458
86.3079
86.4701
86.6324
86.7947
86.9572
87.1197
87.2823
87.445
87.6079
87.7708
87.9339
88.0971
88.2604
88.4239
88.5875
88.7513
88.9152
89.0792
89.2434
89.4078
89.5723
89.737
89.9018
90.0668
90.2319
90.3972
90.5627
90.7284
90.8942
91.0602
91.2264
91.3927
91.5592
91.7259
91.8928
92.0598
92.2271
92.3945
92.5621
92.7298
92.8978
93.0659
93.2342
93.4027
93.5713
93.7402
93.9092
94.0784
94.2478
94.4174
94.5872
94.7571
94.9273
95.0976
95.2681
95.4388
95.6097
95.7807
95.952
96.1234
96.2951
96.4669
96.6389
96.811
96.9834
97.156
97.3287
97.5017
97.6748
97.8481
98.0216
98.1953
98.3692
98.5433
98.7175
98.892
99.0666
99.2415
99.4165
99.5917
99.7671
99.9427
100.119
100.294
100.471
100.647
100.824
101
101.177
101.354
101.532
101.709
101.887
102.065
102.243
102.421
102.6
102.779
102.957
103.136
103.316
103.495
103.675
103.855
104.035
104.215
104.396
104.576
104.757
104.938
105.119
105.301
105.482
105.664
105.846
106.028
106.211
106.394
106.576
106.759
106.943
107.126
107.31
107.493
107.677
107.862
108.046
108.231
108.415
108.6
108.786
108.971
109.157
109.343
109.529
109.715
109.901
110.088
110.275
110.462
110.649
110.836
111.024
111.212
111.4
111.588
111.776
111.965
112.154
112.343
112.532
112.722
112.911
113.101
113.291
113.481
113.672
113.863
114.054
114.245
114.436
114.627
114.819
115.011
115.203
115.395
115.588
115.781
115.974
116.167
116.36
116.554
116.748
116.942
117.136
117.33
117.525
117.72
117.915
118.11
118.305
118.501
118.697
118.893
119.089
119.286
119.482
119.679
119.876
120.074
120.271
120.469
120.667
120.865
121.063
121.262
121.461
121.66
121.859
122.059
122.258
122.458
122.658
122.859
123.059
123.26
123.461
123.662
123.863
124.065
124.267
124.469
124.671
124.873
125.076
125.279
125.482
125.685
125.889
126.093
126.296
126.501
126.705
126.91
127.114
127.32
127.525
127.73
127.936
128.142
128.348
128.554
128.761
128.968
129.175
129.382
129.589
129.797
130.005
130.213
130.421
130.63
130.839
131.048
131.257
131.466
131.676
131.886
132.096
132.306
132.517
132.727
132.939
133.15
133.361
133.573
133.785
133.997
134.209
134.422
134.634
134.847
135.061
135.274
135.488
135.702
135.916
136.13
136.345
136.559
136.774
136.99
137.205
137.421
137.637
137.853
138.069
138.286
138.503
138.72
138.937
139.155
139.373
139.591
139.809
140.027
140.246
140.465
140.684
140.903
141.123
141.343
141.563
141.783
142.004
142.224
142.445
142.667
142.888
143.11
143.332
143.554
143.776
143.999
144.221
144.445
144.668
144.891
145.115
145.339
145.563
145.788
146.013
146.238
146.463
146.688
146.914
147.14
147.366
147.592
147.819
148.046
148.273
148.5
148.728
148.955
149.183
149.412
149.64
149.869
150.098
150.327
150.557
150.786
151.016
151.246
151.477
151.707
151.938
152.169
152.401
152.632
152.864
153.096
153.329
153.561
153.794
154.027
154.26
154.494
154.728
154.962
155.196
155.43
155.665
155.9
156.135
156.371
156.607
156.843
157.079
157.315
157.552
157.789
158.026
158.263
158.501
158.739
158.977
159.215
159.454
159.693
159.932
160.171
160.411
160.651
160.891
161.131
161.372
161.613
161.854
162.095
162.337
162.579
162.821
163.063
163.306
163.549
163.792
164.035
164.279
164.523
164.767
165.011
165.256
165.501
165.746
165.991
166.237
166.483
166.729
166.976
167.222
167.469
167.716
167.964
168.211
168.459
168.707
168.955
169.204
169.453
169.702
169.951
170.201
170.45
170.7
170.95
171.201
171.451
171.702
171.953
172.205
172.456
172.708
172.959
173.212
173.464
173.716
173.969
174.221
174.474
174.727
174.98
175.233
175.487
175.74
175.994
176.248
176.502
176.755
177.009
177.263
177.517
177.772
178.026
178.28
178.534
178.788
179.042
179.297
179.551
179.805
180.059
180.313
180.567
180.821
181.075
181.329
181.583
181.836
182.09
182.343
182.597
182.85
183.103
183.357
183.61
183.863
184.116
184.369
184.622
184.874
185.127
185.38
185.633
185.886
186.139
186.392
186.645
186.898
187.151
187.405
187.658
187.912
188.166
188.421
188.675
188.93
189.185
189.441
189.696
189.953
190.209
190.466
190.724
190.982
191.24
191.499
191.759
192.019
192.28
192.541
192.803
193.065
193.328
193.592
193.856
194.121
194.387
194.653
194.92
195.187
195.456
195.724
195.994
196.264
196.534
196.806
197.077
197.35
197.623
197.897
198.171
198.446
198.721
198.997
199.273
199.55
199.828
200.106
200.384
200.663
200.943
201.223
201.503
201.784
202.065
202.347
202.629
202.912
203.195
203.478
203.762
204.046
204.331
204.616
204.901
205.187
205.473
205.76
206.047
206.334
206.622
206.91
207.198
207.487
207.776
208.066
208.356
208.646
208.936
209.227
209.518
209.809
210.101
210.393
210.685
210.978
211.271
211.564
211.857
212.15
212.444
212.737
213.031
213.325
213.618
213.912
214.206
214.499
214.793
215.086
215.379
215.671
215.963
216.255
216.546
216.836
217.126
217.415
217.703
217.991
218.277
218.563
218.847
219.13
219.413
219.694
219.974
220.253
220.531
220.808
221.084
221.359
221.633
221.907
222.18
222.452
222.724
222.995
223.266
223.537
223.808
224.08
224.351
224.623
224.895
225.168
225.442
225.717
225.992
226.268
226.546
226.824
227.104
227.384
227.666
227.949
228.233
228.518
228.805
229.093
229.382
229.672
229.963
230.255
230.549
230.843
231.139
231.435
231.733
232.032
232.332
232.632
232.934
233.236
233.54
233.844
234.149
234.455
234.762
235.07
235.379
235.688
235.999
236.31
236.622
236.934
237.248
237.562
237.877
238.193
238.509
238.826
239.144
239.462
239.782
240.102
240.422
240.744
241.066
241.388
241.712
)
;

boundaryField
{
    sides
    {
        type            calculated;
        value           nonuniform List<scalar> 2(242.036 -15.4031);
    }
    empty
    {
        type            empty;
        value           nonuniform List<scalar> 0();
    }
}


// ************************************************************************* //
