/*--------------------------------*- C++ -*----------------------------------*\
  =========                 |
  \\      /  F ield         | OpenFOAM: The Open Source CFD Toolbox
   \\    /   O peration     | Website:  https://openfoam.org
    \\  /    A nd           | Version:  9
     \\/     M anipulation  |
\*---------------------------------------------------------------------------*/
FoamFile
{
    format      ascii;
    class       surfaceScalarField;
    location    "0.017";
    object      phi;
}
// * * * * * * * * * * * * * * * * * * * * * * * * * * * * * * * * * * * * * //

dimensions      [1 0 -1 0 0 0 0];

internalField   nonuniform List<scalar> 
999
(
14.3458
16.7267
19.1099
21.4935
23.8776
26.2621
28.6462
31.0302
33.4139
35.7975
38.1808
40.5639
42.9468
45.3294
47.7117
50.0937
52.4754
54.8567
57.2377
59.6184
61.9986
64.3784
66.7578
69.1368
71.5152
73.8932
76.2707
78.6476
81.024
83.3998
85.775
88.1497
90.5236
92.897
95.2696
97.6416
100.013
102.383
104.753
107.122
109.49
111.857
114.224
116.589
118.954
121.317
123.68
126.042
128.402
130.762
133.121
135.478
137.834
140.189
142.543
144.896
147.247
149.597
151.946
154.294
156.64
158.984
161.327
163.669
166.009
168.348
170.685
173.02
175.354
177.685
180.015
182.344
184.67
186.994
189.317
191.637
193.956
196.272
198.586
200.898
203.208
205.515
207.82
210.123
212.423
214.72
217.015
219.307
221.596
223.883
226.167
228.447
230.725
233
235.271
237.539
239.803
242.065
244.322
246.576
248.826
251.073
253.315
255.553
257.787
260.017
262.242
264.463
266.679
268.89
271.097
273.298
275.494
277.684
279.869
282.048
284.221
286.388
288.548
290.702
292.85
294.99
297.123
299.249
301.366
303.477
305.578
307.672
309.756
311.832
313.898
315.955
318.001
320.037
322.063
324.077
326.08
328.072
330.051
332.017
333.971
335.911
337.837
339.749
341.646
343.528
345.394
347.244
349.077
350.893
352.692
354.472
356.234
357.977
359.7
361.403
363.086
364.747
366.387
368.005
369.601
371.174
372.724
374.25
375.753
377.231
378.685
380.114
381.518
382.897
384.251
385.58
386.883
388.161
389.413
390.641
391.843
393.02
394.173
395.301
396.406
397.486
398.543
399.578
400.59
401.58
402.549
403.497
404.424
405.333
406.222
407.094
407.947
408.784
409.605
410.41
411.201
411.977
412.74
413.489
414.228
414.953
415.669
416.372
417.069
417.752
418.432
419.096
419.761
420.41
421.059
421.696
422.33
422.957
423.577
424.196
424.802
425.414
426.009
426.612
427.199
427.792
428.374
428.955
429.533
430.105
430.677
431.242
431.807
432.367
432.924
433.478
434.029
434.577
435.123
435.665
436.204
436.741
437.275
437.806
438.334
438.86
439.383
439.903
440.421
440.936
441.448
441.958
442.465
442.969
443.471
443.97
444.467
444.961
445.452
445.941
446.427
446.911
447.392
447.871
448.347
448.82
449.291
449.76
450.226
450.689
451.15
451.608
452.064
452.518
452.969
453.417
453.863
454.306
454.747
455.186
455.622
456.056
456.487
456.915
457.342
457.765
458.187
458.606
459.022
459.436
459.848
460.257
460.664
461.069
461.471
461.87
462.268
462.662
463.055
463.445
463.833
464.218
464.601
464.982
465.361
465.737
466.11
466.482
466.851
467.217
467.582
467.944
468.304
468.661
469.016
469.369
469.72
470.068
470.414
470.758
471.099
471.438
471.775
472.11
472.442
472.772
473.1
473.426
473.749
474.07
474.389
474.706
475.021
475.333
475.643
475.951
476.257
476.56
476.861
477.16
477.457
477.752
478.045
478.335
478.623
478.909
479.193
479.475
479.754
480.032
480.307
480.58
480.851
481.12
481.387
481.652
481.914
482.175
482.433
482.689
482.943
483.195
483.445
483.693
483.939
484.182
484.424
484.663
484.901
485.136
485.37
485.601
485.83
486.057
486.282
486.505
486.726
486.945
487.162
487.377
487.59
487.801
488.01
488.217
488.422
488.624
488.825
489.024
489.221
489.416
489.609
489.799
489.988
490.175
490.36
490.543
490.724
490.903
491.08
491.255
491.428
491.599
491.769
491.936
492.101
492.264
492.426
492.585
492.743
492.898
493.052
493.204
493.354
493.501
493.647
493.791
493.933
494.074
494.212
494.348
494.483
494.615
494.746
494.874
495.001
495.126
495.249
495.37
495.489
495.606
495.721
495.835
495.946
496.056
496.164
496.269
496.373
496.475
496.575
496.674
496.77
496.864
496.957
497.047
497.136
497.223
497.308
497.391
497.472
497.551
497.629
497.704
497.778
497.849
497.919
497.987
498.053
498.117
498.18
498.24
498.299
498.355
498.41
498.463
498.515
498.564
498.612
498.658
498.702
498.744
498.785
498.824
498.861
498.897
498.931
498.963
498.993
499.023
499.05
499.076
499.101
499.124
499.146
499.166
499.185
499.203
499.219
499.235
499.249
499.262
499.274
499.285
499.295
499.305
499.313
499.321
499.328
499.334
499.339
499.344
499.349
499.353
499.356
499.359
499.362
499.364
499.366
499.367
499.369
499.37
499.371
499.372
499.372
499.373
499.373
499.373
499.374
499.374
499.374
499.374
499.373
499.373
499.373
499.373
499.373
499.372
499.372
499.372
499.372
499.371
499.371
499.371
499.37
499.37
499.37
499.369
499.369
499.369
499.368
499.368
499.368
499.367
499.367
499.367
499.366
499.366
499.365
499.365
499.365
499.364
499.364
499.364
499.363
499.363
499.362
499.362
499.362
499.361
499.361
499.361
499.36
499.36
499.359
499.359
499.358
499.358
499.358
499.357
499.357
499.356
499.356
499.356
499.355
499.355
499.354
499.354
499.353
499.353
499.352
499.352
499.352
499.351
499.351
499.35
499.35
499.349
499.349
499.348
499.348
499.347
499.347
499.346
499.346
499.345
499.345
499.344
499.344
499.343
499.343
499.342
499.342
499.341
499.341
499.34
499.34
499.339
499.339
499.338
499.338
499.337
499.337
499.336
499.336
499.335
499.335
499.334
499.334
499.333
499.333
499.332
499.331
499.331
499.33
499.33
499.329
499.329
499.328
499.328
499.327
499.326
499.326
499.325
499.325
499.324
499.324
499.323
499.322
499.322
499.321
499.321
499.32
499.319
499.319
499.318
499.317
499.317
499.316
499.316
499.315
499.314
499.314
499.313
499.312
499.312
499.311
499.31
499.31
499.309
499.308
499.308
499.307
499.306
499.306
499.305
499.304
499.304
499.303
499.302
499.301
499.301
499.3
499.299
499.299
499.298
499.297
499.296
499.296
499.295
499.294
499.293
499.293
499.292
499.291
499.29
499.29
499.289
499.288
499.287
499.286
499.286
499.285
499.284
499.283
499.282
499.281
499.281
499.28
499.279
499.278
499.277
499.276
499.275
499.275
499.274
499.273
499.272
499.271
499.27
499.269
499.268
499.267
499.266
499.265
499.264
499.264
499.263
499.262
499.261
499.26
499.259
499.258
499.257
499.256
499.255
499.254
499.253
499.252
499.251
499.249
499.248
499.247
499.246
499.245
499.244
499.243
499.242
499.241
499.24
499.239
499.237
499.236
499.235
499.234
499.233
499.232
499.23
499.229
499.228
499.227
499.226
499.224
499.223
499.222
499.22
499.219
499.218
499.217
499.215
499.214
499.213
499.211
499.21
499.209
499.207
499.206
499.204
499.203
499.202
499.2
499.199
499.197
499.196
499.194
499.193
499.191
499.19
499.188
499.187
499.185
499.184
499.182
499.18
499.179
499.177
499.176
499.174
499.172
499.171
499.169
499.167
499.165
499.164
499.162
499.16
499.158
499.156
499.155
499.153
499.151
499.149
499.147
499.145
499.143
499.141
499.139
499.137
499.135
499.133
499.131
499.129
499.127
499.125
499.122
499.12
499.118
499.116
499.114
499.111
499.109
499.107
499.104
499.102
499.1
499.097
499.095
499.092
499.09
499.087
499.085
499.082
499.079
499.077
499.074
499.071
499.069
499.066
499.063
499.06
499.057
499.054
499.051
499.048
499.045
499.042
499.039
499.036
499.033
499.03
499.026
499.023
499.02
499.016
499.013
499.009
499.006
499.002
498.999
498.995
498.991
498.987
498.984
498.98
498.976
498.972
498.968
498.964
498.959
498.955
498.951
498.947
498.942
498.938
498.933
498.928
498.924
498.919
498.914
498.909
498.904
498.899
498.894
498.889
498.883
498.878
498.872
498.867
498.861
498.855
498.849
498.843
498.837
498.831
498.824
498.818
498.811
498.804
498.797
498.79
498.783
498.776
498.768
498.761
498.753
498.745
498.736
498.728
498.719
498.71
498.701
498.691
498.681
498.671
498.66
498.649
498.637
498.624
498.611
498.597
498.582
498.567
498.551
498.534
498.515
498.496
498.476
498.455
498.433
498.41
498.387
498.362
498.337
498.31
498.284
498.256
498.229
498.2
498.172
498.143
498.114
498.085
498.056
498.027
497.998
497.969
497.939
497.909
497.879
497.848
497.816
497.784
497.75
497.716
497.68
497.642
497.603
497.563
497.519
497.475
497.428
497.38
497.329
497.276
497.22
497.159
497.094
497.018
496.935
496.831
496.709
496.554
496.362
496.115
495.81
495.415
494.935
494.315
493.575
492.641
491.555
490.21
488.68
486.82
484.754
482.293
479.612
476.481
473.164
469.309
465.342
460.841
456.119
451.034
445.688
440.183
434.318
428.537
422.335
416.393
410.161
404.035
397.757
391.927
385.965
)
;

boundaryField
{
    sides
    {
        type            calculated;
        value           nonuniform List<scalar> 2(380.397 -11.9648);
    }
    empty
    {
        type            empty;
        value           nonuniform List<scalar> 0();
    }
}


// ************************************************************************* //
