/*--------------------------------*- C++ -*----------------------------------*\
  =========                 |
  \\      /  F ield         | OpenFOAM: The Open Source CFD Toolbox
   \\    /   O peration     | Website:  https://openfoam.org
    \\  /    A nd           | Version:  9
     \\/     M anipulation  |
\*---------------------------------------------------------------------------*/
FoamFile
{
    format      ascii;
    class       volVectorField;
    location    "0.017";
    object      U;
}
// * * * * * * * * * * * * * * * * * * * * * * * * * * * * * * * * * * * * * //

dimensions      [0 1 -1 0 0 0 0];

internalField   nonuniform List<vector> 
1000
(
(4.36566 0 0)
(5.75738 0 0)
(6.56164 0 0)
(7.38129 0 0)
(8.25868 0 0)
(9.13807 0 0)
(10.0086 0 0)
(10.8776 0 0)
(11.7479 0 0)
(12.6188 0 0)
(13.4897 0 0)
(14.3607 0 0)
(15.2317 0 0)
(16.1028 0 0)
(16.974 0 0)
(17.8453 0 0)
(18.7168 0 0)
(19.5883 0 0)
(20.4598 0 0)
(21.3315 0 0)
(22.2033 0 0)
(23.0751 0 0)
(23.947 0 0)
(24.819 0 0)
(25.6911 0 0)
(26.5632 0 0)
(27.4354 0 0)
(28.3076 0 0)
(29.1799 0 0)
(30.0523 0 0)
(30.9247 0 0)
(31.7971 0 0)
(32.6696 0 0)
(33.5421 0 0)
(34.4146 0 0)
(35.2872 0 0)
(36.1598 0 0)
(37.0324 0 0)
(37.905 0 0)
(38.7777 0 0)
(39.6503 0 0)
(40.5229 0 0)
(41.3955 0 0)
(42.2682 0 0)
(43.1407 0 0)
(44.0133 0 0)
(44.8859 0 0)
(45.7584 0 0)
(46.6308 0 0)
(47.5033 0 0)
(48.3756 0 0)
(49.248 0 0)
(50.1202 0 0)
(50.9924 0 0)
(51.8645 0 0)
(52.7365 0 0)
(53.6085 0 0)
(54.4803 0 0)
(55.3521 0 0)
(56.2237 0 0)
(57.0952 0 0)
(57.9666 0 0)
(58.8379 0 0)
(59.709 0 0)
(60.58 0 0)
(61.4508 0 0)
(62.3215 0 0)
(63.192 0 0)
(64.0623 0 0)
(64.9324 0 0)
(65.8023 0 0)
(66.672 0 0)
(67.5415 0 0)
(68.4107 0 0)
(69.2797 0 0)
(70.1485 0 0)
(71.017 0 0)
(71.8852 0 0)
(72.7532 0 0)
(73.6208 0 0)
(74.4882 0 0)
(75.3552 0 0)
(76.2219 0 0)
(77.0883 0 0)
(77.9542 0 0)
(78.8199 0 0)
(79.6851 0 0)
(80.5499 0 0)
(81.4143 0 0)
(82.2783 0 0)
(83.1418 0 0)
(84.0049 0 0)
(84.8675 0 0)
(85.7295 0 0)
(86.5911 0 0)
(87.4521 0 0)
(88.3125 0 0)
(89.1724 0 0)
(90.0317 0 0)
(90.8903 0 0)
(91.7483 0 0)
(92.6056 0 0)
(93.4622 0 0)
(94.3181 0 0)
(95.1732 0 0)
(96.0276 0 0)
(96.8811 0 0)
(97.7339 0 0)
(98.5857 0 0)
(99.4366 0 0)
(100.287 0 0)
(101.136 0 0)
(101.984 0 0)
(102.831 0 0)
(103.677 0 0)
(104.521 0 0)
(105.365 0 0)
(106.207 0 0)
(107.048 0 0)
(107.888 0 0)
(108.727 0 0)
(109.564 0 0)
(110.399 0 0)
(111.233 0 0)
(112.066 0 0)
(112.896 0 0)
(113.725 0 0)
(114.553 0 0)
(115.378 0 0)
(116.202 0 0)
(117.023 0 0)
(117.842 0 0)
(118.66 0 0)
(119.475 0 0)
(120.287 0 0)
(121.098 0 0)
(121.906 0 0)
(122.711 0 0)
(123.513 0 0)
(124.313 0 0)
(125.11 0 0)
(125.904 0 0)
(126.695 0 0)
(127.482 0 0)
(128.266 0 0)
(129.047 0 0)
(129.824 0 0)
(130.598 0 0)
(131.368 0 0)
(132.134 0 0)
(132.895 0 0)
(133.653 0 0)
(134.407 0 0)
(135.156 0 0)
(135.9 0 0)
(136.64 0 0)
(137.375 0 0)
(138.105 0 0)
(138.831 0 0)
(139.551 0 0)
(140.266 0 0)
(140.975 0 0)
(141.68 0 0)
(142.378 0 0)
(143.072 0 0)
(143.759 0 0)
(144.441 0 0)
(145.117 0 0)
(145.787 0 0)
(146.451 0 0)
(147.11 0 0)
(147.762 0 0)
(148.408 0 0)
(149.049 0 0)
(149.683 0 0)
(150.312 0 0)
(150.934 0 0)
(151.551 0 0)
(152.162 0 0)
(152.767 0 0)
(153.367 0 0)
(153.961 0 0)
(154.55 0 0)
(155.133 0 0)
(155.711 0 0)
(156.284 0 0)
(156.852 0 0)
(157.415 0 0)
(157.973 0 0)
(158.527 0 0)
(159.077 0 0)
(159.622 0 0)
(160.164 0 0)
(160.702 0 0)
(161.236 0 0)
(161.767 0 0)
(162.294 0 0)
(162.818 0 0)
(163.34 0 0)
(163.858 0 0)
(164.374 0 0)
(164.888 0 0)
(165.4 0 0)
(165.909 0 0)
(166.416 0 0)
(166.922 0 0)
(167.426 0 0)
(167.928 0 0)
(168.429 0 0)
(168.928 0 0)
(169.427 0 0)
(169.924 0 0)
(170.421 0 0)
(170.916 0 0)
(171.41 0 0)
(171.904 0 0)
(172.397 0 0)
(172.89 0 0)
(173.382 0 0)
(173.873 0 0)
(174.365 0 0)
(174.855 0 0)
(175.346 0 0)
(175.836 0 0)
(176.325 0 0)
(176.815 0 0)
(177.304 0 0)
(177.793 0 0)
(178.282 0 0)
(178.771 0 0)
(179.259 0 0)
(179.747 0 0)
(180.236 0 0)
(180.724 0 0)
(181.212 0 0)
(181.7 0 0)
(182.188 0 0)
(182.676 0 0)
(183.164 0 0)
(183.652 0 0)
(184.14 0 0)
(184.627 0 0)
(185.115 0 0)
(185.602 0 0)
(186.09 0 0)
(186.578 0 0)
(187.065 0 0)
(187.553 0 0)
(188.04 0 0)
(188.528 0 0)
(189.015 0 0)
(189.502 0 0)
(189.99 0 0)
(190.477 0 0)
(190.964 0 0)
(191.451 0 0)
(191.939 0 0)
(192.426 0 0)
(192.913 0 0)
(193.4 0 0)
(193.887 0 0)
(194.374 0 0)
(194.861 0 0)
(195.348 0 0)
(195.835 0 0)
(196.322 0 0)
(196.809 0 0)
(197.296 0 0)
(197.783 0 0)
(198.27 0 0)
(198.757 0 0)
(199.243 0 0)
(199.73 0 0)
(200.217 0 0)
(200.703 0 0)
(201.19 0 0)
(201.677 0 0)
(202.163 0 0)
(202.65 0 0)
(203.136 0 0)
(203.623 0 0)
(204.109 0 0)
(204.595 0 0)
(205.082 0 0)
(205.568 0 0)
(206.054 0 0)
(206.54 0 0)
(207.026 0 0)
(207.512 0 0)
(207.998 0 0)
(208.484 0 0)
(208.97 0 0)
(209.456 0 0)
(209.942 0 0)
(210.428 0 0)
(210.913 0 0)
(211.399 0 0)
(211.885 0 0)
(212.37 0 0)
(212.856 0 0)
(213.341 0 0)
(213.827 0 0)
(214.312 0 0)
(214.797 0 0)
(215.282 0 0)
(215.768 0 0)
(216.253 0 0)
(216.738 0 0)
(217.223 0 0)
(217.708 0 0)
(218.192 0 0)
(218.677 0 0)
(219.162 0 0)
(219.646 0 0)
(220.131 0 0)
(220.615 0 0)
(221.1 0 0)
(221.584 0 0)
(222.068 0 0)
(222.552 0 0)
(223.036 0 0)
(223.52 0 0)
(224.004 0 0)
(224.488 0 0)
(224.972 0 0)
(225.455 0 0)
(225.939 0 0)
(226.422 0 0)
(226.906 0 0)
(227.389 0 0)
(227.872 0 0)
(228.355 0 0)
(228.838 0 0)
(229.321 0 0)
(229.803 0 0)
(230.286 0 0)
(230.768 0 0)
(231.25 0 0)
(231.733 0 0)
(232.215 0 0)
(232.697 0 0)
(233.178 0 0)
(233.66 0 0)
(234.142 0 0)
(234.623 0 0)
(235.104 0 0)
(235.585 0 0)
(236.066 0 0)
(236.547 0 0)
(237.028 0 0)
(237.508 0 0)
(237.989 0 0)
(238.469 0 0)
(238.949 0 0)
(239.428 0 0)
(239.908 0 0)
(240.387 0 0)
(240.867 0 0)
(241.346 0 0)
(241.825 0 0)
(242.303 0 0)
(242.782 0 0)
(243.26 0 0)
(243.738 0 0)
(244.215 0 0)
(244.693 0 0)
(245.17 0 0)
(245.647 0 0)
(246.124 0 0)
(246.6 0 0)
(247.077 0 0)
(247.552 0 0)
(248.028 0 0)
(248.503 0 0)
(248.978 0 0)
(249.453 0 0)
(249.928 0 0)
(250.402 0 0)
(250.875 0 0)
(251.349 0 0)
(251.822 0 0)
(252.295 0 0)
(252.767 0 0)
(253.239 0 0)
(253.71 0 0)
(254.181 0 0)
(254.652 0 0)
(255.122 0 0)
(255.592 0 0)
(256.061 0 0)
(256.53 0 0)
(256.999 0 0)
(257.466 0 0)
(257.934 0 0)
(258.4 0 0)
(258.867 0 0)
(259.332 0 0)
(259.797 0 0)
(260.261 0 0)
(260.725 0 0)
(261.188 0 0)
(261.651 0 0)
(262.112 0 0)
(262.573 0 0)
(263.033 0 0)
(263.493 0 0)
(263.951 0 0)
(264.409 0 0)
(264.866 0 0)
(265.322 0 0)
(265.777 0 0)
(266.231 0 0)
(266.684 0 0)
(267.136 0 0)
(267.587 0 0)
(268.037 0 0)
(268.486 0 0)
(268.933 0 0)
(269.379 0 0)
(269.824 0 0)
(270.268 0 0)
(270.71 0 0)
(271.151 0 0)
(271.59 0 0)
(272.028 0 0)
(272.464 0 0)
(272.898 0 0)
(273.331 0 0)
(273.762 0 0)
(274.191 0 0)
(274.618 0 0)
(275.043 0 0)
(275.466 0 0)
(275.887 0 0)
(276.306 0 0)
(276.722 0 0)
(277.136 0 0)
(277.547 0 0)
(277.956 0 0)
(278.361 0 0)
(278.764 0 0)
(279.164 0 0)
(279.561 0 0)
(279.955 0 0)
(280.346 0 0)
(280.733 0 0)
(281.116 0 0)
(281.496 0 0)
(281.872 0 0)
(282.244 0 0)
(282.611 0 0)
(282.975 0 0)
(283.334 0 0)
(283.688 0 0)
(284.038 0 0)
(284.383 0 0)
(284.723 0 0)
(285.057 0 0)
(285.386 0 0)
(285.71 0 0)
(286.027 0 0)
(286.339 0 0)
(286.645 0 0)
(286.944 0 0)
(287.237 0 0)
(287.523 0 0)
(287.803 0 0)
(288.075 0 0)
(288.341 0 0)
(288.599 0 0)
(288.85 0 0)
(289.093 0 0)
(289.329 0 0)
(289.557 0 0)
(289.778 0 0)
(289.99 0 0)
(290.194 0 0)
(290.391 0 0)
(290.579 0 0)
(290.76 0 0)
(290.932 0 0)
(291.096 0 0)
(291.253 0 0)
(291.401 0 0)
(291.542 0 0)
(291.675 0 0)
(291.8 0 0)
(291.918 0 0)
(292.029 0 0)
(292.132 0 0)
(292.229 0 0)
(292.319 0 0)
(292.403 0 0)
(292.48 0 0)
(292.552 0 0)
(292.618 0 0)
(292.678 0 0)
(292.733 0 0)
(292.784 0 0)
(292.83 0 0)
(292.871 0 0)
(292.909 0 0)
(292.943 0 0)
(292.973 0 0)
(293.001 0 0)
(293.025 0 0)
(293.047 0 0)
(293.066 0 0)
(293.083 0 0)
(293.098 0 0)
(293.111 0 0)
(293.123 0 0)
(293.133 0 0)
(293.142 0 0)
(293.15 0 0)
(293.156 0 0)
(293.162 0 0)
(293.167 0 0)
(293.171 0 0)
(293.175 0 0)
(293.178 0 0)
(293.181 0 0)
(293.183 0 0)
(293.185 0 0)
(293.186 0 0)
(293.188 0 0)
(293.189 0 0)
(293.19 0 0)
(293.191 0 0)
(293.192 0 0)
(293.193 0 0)
(293.193 0 0)
(293.194 0 0)
(293.194 0 0)
(293.194 0 0)
(293.195 0 0)
(293.195 0 0)
(293.196 0 0)
(293.196 0 0)
(293.196 0 0)
(293.196 0 0)
(293.197 0 0)
(293.197 0 0)
(293.197 0 0)
(293.197 0 0)
(293.197 0 0)
(293.198 0 0)
(293.198 0 0)
(293.198 0 0)
(293.198 0 0)
(293.198 0 0)
(293.199 0 0)
(293.199 0 0)
(293.199 0 0)
(293.199 0 0)
(293.199 0 0)
(293.199 0 0)
(293.2 0 0)
(293.2 0 0)
(293.2 0 0)
(293.2 0 0)
(293.2 0 0)
(293.2 0 0)
(293.2 0 0)
(293.2 0 0)
(293.2 0 0)
(293.201 0 0)
(293.201 0 0)
(293.201 0 0)
(293.201 0 0)
(293.201 0 0)
(293.201 0 0)
(293.201 0 0)
(293.201 0 0)
(293.201 0 0)
(293.201 0 0)
(293.201 0 0)
(293.201 0 0)
(293.201 0 0)
(293.201 0 0)
(293.201 0 0)
(293.201 0 0)
(293.201 0 0)
(293.201 0 0)
(293.201 0 0)
(293.201 0 0)
(293.201 0 0)
(293.2 0 0)
(293.2 0 0)
(293.2 0 0)
(293.2 0 0)
(293.2 0 0)
(293.2 0 0)
(293.2 0 0)
(293.2 0 0)
(293.2 0 0)
(293.2 0 0)
(293.2 0 0)
(293.2 0 0)
(293.2 0 0)
(293.2 0 0)
(293.2 0 0)
(293.2 0 0)
(293.2 0 0)
(293.2 0 0)
(293.2 0 0)
(293.2 0 0)
(293.2 0 0)
(293.2 0 0)
(293.2 0 0)
(293.2 0 0)
(293.2 0 0)
(293.2 0 0)
(293.2 0 0)
(293.2 0 0)
(293.2 0 0)
(293.2 0 0)
(293.2 0 0)
(293.2 0 0)
(293.2 0 0)
(293.2 0 0)
(293.2 0 0)
(293.2 0 0)
(293.2 0 0)
(293.2 0 0)
(293.2 0 0)
(293.2 0 0)
(293.2 0 0)
(293.2 0 0)
(293.2 0 0)
(293.2 0 0)
(293.2 0 0)
(293.2 0 0)
(293.2 0 0)
(293.2 0 0)
(293.2 0 0)
(293.2 0 0)
(293.2 0 0)
(293.2 0 0)
(293.201 0 0)
(293.201 0 0)
(293.201 0 0)
(293.201 0 0)
(293.201 0 0)
(293.201 0 0)
(293.201 0 0)
(293.201 0 0)
(293.201 0 0)
(293.201 0 0)
(293.201 0 0)
(293.201 0 0)
(293.201 0 0)
(293.201 0 0)
(293.201 0 0)
(293.201 0 0)
(293.201 0 0)
(293.201 0 0)
(293.201 0 0)
(293.201 0 0)
(293.201 0 0)
(293.201 0 0)
(293.201 0 0)
(293.201 0 0)
(293.201 0 0)
(293.201 0 0)
(293.201 0 0)
(293.201 0 0)
(293.201 0 0)
(293.201 0 0)
(293.201 0 0)
(293.201 0 0)
(293.201 0 0)
(293.201 0 0)
(293.201 0 0)
(293.201 0 0)
(293.201 0 0)
(293.201 0 0)
(293.201 0 0)
(293.201 0 0)
(293.201 0 0)
(293.201 0 0)
(293.201 0 0)
(293.201 0 0)
(293.201 0 0)
(293.201 0 0)
(293.201 0 0)
(293.201 0 0)
(293.201 0 0)
(293.201 0 0)
(293.201 0 0)
(293.201 0 0)
(293.201 0 0)
(293.201 0 0)
(293.201 0 0)
(293.201 0 0)
(293.201 0 0)
(293.201 0 0)
(293.201 0 0)
(293.202 0 0)
(293.202 0 0)
(293.202 0 0)
(293.202 0 0)
(293.202 0 0)
(293.202 0 0)
(293.202 0 0)
(293.202 0 0)
(293.202 0 0)
(293.202 0 0)
(293.202 0 0)
(293.202 0 0)
(293.202 0 0)
(293.202 0 0)
(293.202 0 0)
(293.202 0 0)
(293.202 0 0)
(293.202 0 0)
(293.202 0 0)
(293.202 0 0)
(293.202 0 0)
(293.202 0 0)
(293.202 0 0)
(293.202 0 0)
(293.202 0 0)
(293.202 0 0)
(293.202 0 0)
(293.202 0 0)
(293.202 0 0)
(293.202 0 0)
(293.202 0 0)
(293.202 0 0)
(293.202 0 0)
(293.202 0 0)
(293.202 0 0)
(293.202 0 0)
(293.202 0 0)
(293.202 0 0)
(293.202 0 0)
(293.202 0 0)
(293.202 0 0)
(293.202 0 0)
(293.202 0 0)
(293.202 0 0)
(293.202 0 0)
(293.202 0 0)
(293.202 0 0)
(293.202 0 0)
(293.202 0 0)
(293.202 0 0)
(293.202 0 0)
(293.202 0 0)
(293.202 0 0)
(293.202 0 0)
(293.202 0 0)
(293.202 0 0)
(293.202 0 0)
(293.202 0 0)
(293.202 0 0)
(293.202 0 0)
(293.202 0 0)
(293.202 0 0)
(293.202 0 0)
(293.202 0 0)
(293.202 0 0)
(293.202 0 0)
(293.202 0 0)
(293.202 0 0)
(293.202 0 0)
(293.202 0 0)
(293.202 0 0)
(293.202 0 0)
(293.202 0 0)
(293.202 0 0)
(293.202 0 0)
(293.202 0 0)
(293.202 0 0)
(293.202 0 0)
(293.202 0 0)
(293.202 0 0)
(293.202 0 0)
(293.202 0 0)
(293.202 0 0)
(293.202 0 0)
(293.202 0 0)
(293.202 0 0)
(293.202 0 0)
(293.202 0 0)
(293.202 0 0)
(293.202 0 0)
(293.202 0 0)
(293.202 0 0)
(293.202 0 0)
(293.202 0 0)
(293.202 0 0)
(293.202 0 0)
(293.202 0 0)
(293.202 0 0)
(293.202 0 0)
(293.202 0 0)
(293.202 0 0)
(293.202 0 0)
(293.202 0 0)
(293.202 0 0)
(293.202 0 0)
(293.202 0 0)
(293.202 0 0)
(293.202 0 0)
(293.202 0 0)
(293.202 0 0)
(293.202 0 0)
(293.202 0 0)
(293.202 0 0)
(293.202 0 0)
(293.202 0 0)
(293.202 0 0)
(293.202 0 0)
(293.202 0 0)
(293.202 0 0)
(293.202 0 0)
(293.202 0 0)
(293.202 0 0)
(293.202 0 0)
(293.202 0 0)
(293.202 0 0)
(293.202 0 0)
(293.202 0 0)
(293.202 0 0)
(293.202 0 0)
(293.202 0 0)
(293.202 0 0)
(293.202 0 0)
(293.202 0 0)
(293.202 0 0)
(293.202 0 0)
(293.202 0 0)
(293.202 0 0)
(293.202 0 0)
(293.202 0 0)
(293.202 0 0)
(293.202 0 0)
(293.202 0 0)
(293.202 0 0)
(293.202 0 0)
(293.202 0 0)
(293.202 0 0)
(293.202 0 0)
(293.202 0 0)
(293.202 0 0)
(293.202 0 0)
(293.202 0 0)
(293.202 0 0)
(293.202 0 0)
(293.202 0 0)
(293.202 0 0)
(293.202 0 0)
(293.202 0 0)
(293.202 0 0)
(293.202 0 0)
(293.202 0 0)
(293.202 0 0)
(293.202 0 0)
(293.202 0 0)
(293.202 0 0)
(293.202 0 0)
(293.202 0 0)
(293.202 0 0)
(293.202 0 0)
(293.202 0 0)
(293.202 0 0)
(293.202 0 0)
(293.202 0 0)
(293.202 0 0)
(293.202 0 0)
(293.202 0 0)
(293.202 0 0)
(293.202 0 0)
(293.202 0 0)
(293.202 0 0)
(293.202 0 0)
(293.202 0 0)
(293.202 0 0)
(293.202 0 0)
(293.202 0 0)
(293.202 0 0)
(293.202 0 0)
(293.202 0 0)
(293.202 0 0)
(293.202 0 0)
(293.202 0 0)
(293.202 0 0)
(293.202 0 0)
(293.202 0 0)
(293.202 0 0)
(293.202 0 0)
(293.202 0 0)
(293.202 0 0)
(293.202 0 0)
(293.202 0 0)
(293.201 0 0)
(293.201 0 0)
(293.2 0 0)
(293.2 0 0)
(293.199 0 0)
(293.197 0 0)
(293.196 0 0)
(293.194 0 0)
(293.191 0 0)
(293.188 0 0)
(293.184 0 0)
(293.179 0 0)
(293.172 0 0)
(293.164 0 0)
(293.155 0 0)
(293.144 0 0)
(293.13 0 0)
(293.114 0 0)
(293.095 0 0)
(293.072 0 0)
(293.047 0 0)
(293.017 0 0)
(292.984 0 0)
(292.947 0 0)
(292.905 0 0)
(292.858 0 0)
(292.808 0 0)
(292.753 0 0)
(292.693 0 0)
(292.63 0 0)
(292.564 0 0)
(292.494 0 0)
(292.421 0 0)
(292.347 0 0)
(292.271 0 0)
(292.194 0 0)
(292.118 0 0)
(292.043 0 0)
(291.969 0 0)
(291.897 0 0)
(291.829 0 0)
(291.764 0 0)
(291.703 0 0)
(291.646 0 0)
(291.594 0 0)
(291.546 0 0)
(291.503 0 0)
(291.465 0 0)
(291.431 0 0)
(291.402 0 0)
(291.376 0 0)
(291.355 0 0)
(291.336 0 0)
(291.321 0 0)
(291.309 0 0)
(291.299 0 0)
(291.291 0 0)
(291.284 0 0)
(291.28 0 0)
(291.276 0 0)
(291.273 0 0)
(291.271 0 0)
(291.269 0 0)
(291.268 0 0)
(291.267 0 0)
(291.267 0 0)
(291.267 0 0)
(291.267 0 0)
(291.267 0 0)
(291.267 0 0)
(291.266 0 0)
(291.267 0 0)
(291.267 0 0)
(291.267 0 0)
(291.267 0 0)
(291.268 0 0)
(291.267 0 0)
(291.267 0 0)
(291.266 0 0)
(291.266 0 0)
(291.265 0 0)
(291.265 0 0)
(291.263 0 0)
(291.262 0 0)
(291.259 0 0)
(291.259 0 0)
(291.248 0 0)
(291.244 0 0)
(291.235 0 0)
(291.218 0 0)
(291.212 0 0)
(291.185 0 0)
(291.172 0 0)
(291.136 0 0)
(291.138 0 0)
(291.108 0 0)
(291.135 0 0)
(291.131 0 0)
(291.169 0 0)
(291.135 0 0)
(291.151 0 0)
(291.167 0 0)
(291.185 0 0)
)
;

boundaryField
{
    sides
    {
        type            zeroGradient;
    }
    empty
    {
        type            empty;
    }
}


// ************************************************************************* //
