/*--------------------------------*- C++ -*----------------------------------*\
  =========                 |
  \\      /  F ield         | OpenFOAM: The Open Source CFD Toolbox
   \\    /   O peration     | Website:  https://openfoam.org
    \\  /    A nd           | Version:  9
     \\/     M anipulation  |
\*---------------------------------------------------------------------------*/
FoamFile
{
    format      ascii;
    class       volScalarField;
    location    "0.019";
    object      p;
}
// * * * * * * * * * * * * * * * * * * * * * * * * * * * * * * * * * * * * * //

dimensions      [1 -1 -2 0 0 0 0];

internalField   nonuniform List<scalar> 
100
(
50753
50373.2
50112.4
49901.1
49668.3
49437.9
49203.7
48966.1
48725.8
48481.6
48236.4
47984.6
47733.7
47470.1
47214.3
46932.8
46667.9
46369.3
46087.1
45772.6
45465.6
45133.7
44776.1
44409.4
44019.9
43596.9
43156.8
42686.4
42179.7
41655.4
41106.8
40535.2
39951.1
39360.7
38764.2
38166.4
37572.4
36987.5
36414
35854.8
35312
34788.3
34286.5
33808.9
33357.1
32932.5
32538.1
32175.1
31845.4
31552.8
31294.8
31069
30886.1
30739.1
30610.9
30535.6
30473.4
30437.7
30419.9
30417
30416.9
30417
30417
30417.7
30418.8
30422.7
30430.7
30438.9
30459.4
30461.5
30466.7
30465.8
30462
30500.7
30517
30527.5
30535.6
30536.5
30530.4
30589.7
30619.5
30642.6
30667.3
30693
30720.8
30748.8
30782.8
30826.4
30880.5
31055
31351.9
31827.4
32784.8
34720.3
38607.6
44295.6
43816.1
42689.1
42071.6
41097.8
)
;

boundaryField
{
    sides
    {
        type            zeroGradient;
    }
    empty
    {
        type            empty;
    }
}


// ************************************************************************* //
