/*--------------------------------*- C++ -*----------------------------------*\
  =========                 |
  \\      /  F ield         | OpenFOAM: The Open Source CFD Toolbox
   \\    /   O peration     | Website:  https://openfoam.org
    \\  /    A nd           | Version:  9
     \\/     M anipulation  |
\*---------------------------------------------------------------------------*/
FoamFile
{
    format      ascii;
    class       volScalarField;
    location    "0.048";
    object      mag(U);
}
// * * * * * * * * * * * * * * * * * * * * * * * * * * * * * * * * * * * * * //

dimensions      [0 1 -1 0 0 0 0];

internalField   nonuniform List<scalar> 
10000
(
232.424
232.452
232.468
232.485
232.502
232.519
232.537
232.554
232.571
232.588
232.605
232.622
232.64
232.657
232.674
232.691
232.708
232.726
232.743
232.76
232.777
232.794
232.812
232.829
232.846
232.863
232.88
232.898
232.915
232.932
232.949
232.966
232.984
233.001
233.018
233.035
233.052
233.07
233.087
233.104
233.121
233.138
233.156
233.173
233.19
233.207
233.225
233.242
233.259
233.276
233.293
233.311
233.328
233.345
233.362
233.379
233.397
233.414
233.431
233.448
233.465
233.482
233.5
233.517
233.534
233.551
233.568
233.585
233.603
233.62
233.637
233.654
233.671
233.688
233.706
233.723
233.74
233.757
233.774
233.792
233.809
233.826
233.843
233.86
233.878
233.895
233.912
233.929
233.946
233.964
233.981
233.998
234.015
234.033
234.05
234.067
234.084
234.101
234.118
234.136
234.153
234.17
234.187
234.204
234.221
234.239
234.256
234.273
234.29
234.308
234.325
234.342
234.359
234.376
234.394
234.411
234.428
234.445
234.462
234.479
234.497
234.514
234.531
234.548
234.565
234.583
234.6
234.617
234.634
234.651
234.668
234.685
234.703
234.72
234.738
234.755
234.772
234.788
234.805
234.822
234.84
234.859
234.877
234.894
234.91
234.926
234.942
234.959
234.977
234.997
235.015
235.032
235.047
235.063
235.079
235.095
235.114
235.135
235.153
235.169
235.184
235.2
235.216
235.234
235.255
235.274
235.29
235.305
235.32
235.336
235.353
235.374
235.395
235.411
235.426
235.441
235.457
235.473
235.493
235.515
235.532
235.547
235.562
235.577
235.593
235.612
235.636
235.654
235.669
235.683
235.698
235.713
235.729
235.749
235.773
235.791
235.806
235.821
235.835
235.85
235.867
235.889
235.91
235.926
235.941
235.956
235.972
235.99
236.012
236.03
236.045
236.06
236.075
236.091
236.11
236.132
236.151
236.166
236.181
236.195
236.211
236.229
236.251
236.27
236.286
236.301
236.316
236.332
236.352
236.373
236.39
236.406
236.421
236.436
236.454
236.476
236.496
236.511
236.526
236.541
236.556
236.571
236.591
236.615
236.634
236.649
236.664
236.678
236.693
236.709
236.729
236.751
236.769
236.785
236.8
236.816
236.836
236.857
236.874
236.889
236.903
236.918
236.935
236.954
236.977
236.994
237.009
237.024
237.039
237.056
237.078
237.098
237.114
237.129
237.143
237.158
237.173
237.193
237.217
237.235
237.25
237.265
237.279
237.294
237.31
237.33
237.353
237.371
237.386
237.401
237.415
237.43
237.445
237.462
237.487
237.516
237.533
237.548
237.562
237.577
237.592
237.606
237.621
237.636
237.653
237.673
237.695
237.714
237.731
237.749
237.769
237.786
237.801
237.816
237.831
237.846
237.861
237.88
237.904
237.923
237.938
237.952
237.967
237.982
238
238.022
238.042
238.058
238.073
238.089
238.105
238.126
238.146
238.162
238.177
238.192
238.207
238.224
238.246
238.268
238.284
238.298
238.313
238.328
238.343
238.359
238.381
238.404
238.42
238.435
238.45
238.464
238.48
238.499
238.522
238.542
238.557
238.572
238.587
238.602
238.618
238.641
238.665
238.681
238.696
238.71
238.725
238.74
238.755
238.773
238.796
238.817
238.833
238.847
238.862
238.877
238.891
238.907
238.927
238.954
238.976
238.991
239.006
239.02
239.035
239.05
239.065
239.085
239.108
239.126
239.141
239.156
239.17
239.186
239.203
239.226
239.246
239.261
239.276
239.29
239.305
239.32
239.334
239.35
239.368
239.396
239.427
239.444
239.459
239.472
239.484
239.499
239.513
239.528
239.543
239.558
239.574
239.597
239.628
239.65
239.665
239.679
239.693
239.707
239.722
239.737
239.754
239.776
239.797
239.812
239.827
239.842
239.856
239.871
239.887
239.908
239.932
239.949
239.964
239.979
239.993
240.008
240.023
240.041
240.067
240.096
240.114
240.129
240.143
240.156
240.171
240.186
240.201
240.219
240.241
240.262
240.278
240.292
240.307
240.322
240.337
240.354
240.377
240.398
240.414
240.429
240.444
240.459
240.474
240.492
240.515
240.535
240.55
240.565
240.579
240.594
240.609
240.623
240.639
240.657
240.687
240.717
240.734
240.748
240.761
240.775
240.789
240.804
240.82
240.839
240.862
240.881
240.896
240.911
240.926
240.94
240.956
240.975
240.998
241.017
241.032
241.047
241.062
241.079
241.099
241.121
241.138
241.153
241.168
241.183
241.198
241.215
241.237
241.259
241.274
241.289
241.304
241.319
241.334
241.351
241.374
241.396
241.412
241.427
241.441
241.456
241.471
241.489
241.512
241.534
241.55
241.565
241.58
241.595
241.61
241.63
241.653
241.671
241.686
241.701
241.716
241.731
241.746
241.765
241.789
241.808
241.823
241.838
241.853
241.868
241.883
241.898
241.917
241.943
241.965
241.981
241.995
242.009
242.024
242.038
242.053
242.068
242.083
242.102
242.131
242.161
242.178
242.192
242.206
242.22
242.235
242.249
242.265
242.282
242.305
242.325
242.341
242.356
242.371
242.386
242.401
242.418
242.439
242.461
242.477
242.492
242.507
242.522
242.537
242.555
242.578
242.597
242.612
242.627
242.641
242.656
242.671
242.686
242.701
242.722
242.753
242.782
242.798
242.812
242.825
242.837
242.851
242.866
242.881
242.897
242.916
242.941
242.961
242.976
242.991
243.005
243.02
243.035
243.051
243.07
243.097
243.12
243.135
243.15
243.164
243.179
243.194
243.209
243.226
243.248
243.269
243.286
243.301
243.315
243.331
243.346
243.365
243.387
243.405
243.42
243.435
243.45
243.466
243.486
243.509
243.527
243.542
243.557
243.572
243.587
243.603
243.623
243.646
243.664
243.679
243.693
243.708
243.723
243.738
243.753
243.768
243.787
243.817
243.846
243.863
243.878
243.891
243.903
243.916
243.931
243.946
243.961
243.976
243.992
244.015
244.046
244.067
244.082
244.096
244.111
244.126
244.141
244.157
244.176
244.195
244.211
244.226
244.241
244.255
244.27
244.285
244.301
244.318
244.345
244.377
244.397
244.412
244.425
244.437
244.45
244.464
244.479
244.494
244.509
244.524
244.539
244.555
244.577
244.611
244.639
244.656
244.67
244.683
244.697
244.712
244.727
244.743
244.761
244.779
244.795
244.81
244.825
244.839
244.854
244.869
244.884
244.9
244.921
244.953
244.98
244.996
245.01
245.024
245.038
245.053
245.068
245.083
245.098
245.114
245.136
245.162
245.181
245.196
245.211
245.225
245.24
245.255
245.27
245.285
245.3
245.317
245.339
245.369
245.39
245.405
245.42
245.434
245.449
245.464
245.479
245.494
245.51
245.528
245.553
245.574
245.59
245.605
245.62
245.635
245.65
245.666
245.686
245.709
245.726
245.741
245.756
245.771
245.786
245.802
245.822
245.845
245.864
245.879
245.894
245.909
245.924
245.94
245.957
245.98
246
246.015
246.03
246.045
246.06
246.075
246.09
246.105
246.121
246.147
246.182
246.205
246.221
246.234
246.246
246.258
246.272
246.287
246.302
246.319
246.34
246.361
246.377
246.392
246.407
246.422
246.437
246.452
246.469
246.491
246.52
246.54
246.555
246.57
246.584
246.599
246.614
246.63
246.648
246.669
246.688
246.703
246.718
246.733
246.748
246.764
246.781
246.804
246.824
246.84
246.855
246.87
246.885
246.9
246.916
246.935
246.963
246.991
247.007
247.022
247.036
247.05
247.064
247.079
247.094
247.11
247.13
247.152
247.169
247.185
247.2
247.215
247.23
247.247
247.267
247.289
247.306
247.321
247.337
247.352
247.369
247.389
247.408
247.424
247.439
247.454
247.469
247.484
247.499
247.514
247.533
247.562
247.594
247.613
247.628
247.641
247.653
247.666
247.68
247.696
247.711
247.728
247.75
247.77
247.785
247.8
247.815
247.83
247.846
247.861
247.88
247.906
247.931
247.947
247.962
247.977
247.991
248.005
248.02
248.035
248.051
248.069
248.094
248.121
248.139
248.154
248.168
248.182
248.195
248.209
248.224
248.24
248.255
248.27
248.285
248.302
248.329
248.366
248.389
248.404
248.419
248.43
248.442
248.456
248.471
248.486
248.501
248.517
248.535
248.556
248.575
248.592
248.609
248.629
248.649
248.666
248.681
248.696
248.711
248.726
248.742
248.759
248.78
248.799
248.815
248.83
248.845
248.86
248.875
248.89
248.905
248.921
248.945
248.979
249.006
249.022
249.036
249.048
249.057
249.07
249.085
249.1
249.116
249.133
249.158
249.188
249.207
249.223
249.237
249.251
249.264
249.279
249.294
249.309
249.324
249.339
249.355
249.372
249.397
249.426
249.444
249.459
249.474
249.489
249.504
249.519
249.534
249.549
249.564
249.582
249.604
249.628
249.645
249.66
249.675
249.69
249.705
249.721
249.74
249.762
249.781
249.797
249.812
249.827
249.841
249.857
249.872
249.887
249.903
249.924
249.957
249.984
250.001
250.015
250.028
250.04
250.054
250.069
250.084
250.1
250.118
250.14
250.159
250.175
250.19
250.205
250.22
250.235
250.25
250.266
250.282
250.304
250.333
250.356
250.371
250.386
250.4
250.413
250.427
250.442
250.457
250.472
250.488
250.503
250.519
250.538
250.569
250.603
250.622
250.637
250.651
250.661
250.67
250.683
250.698
250.714
250.729
250.745
250.767
250.801
250.828
250.844
250.859
250.871
250.882
250.896
250.911
250.926
250.941
250.958
250.979
251.003
251.02
251.035
251.05
251.065
251.08
251.096
251.114
251.136
251.157
251.173
251.189
251.204
251.219
251.234
251.25
251.27
251.294
251.312
251.328
251.343
251.358
251.374
251.389
251.407
251.428
251.446
251.462
251.477
251.492
251.508
251.524
251.544
251.569
251.59
251.605
251.621
251.636
251.651
251.666
251.682
251.7
251.723
251.742
251.758
251.773
251.788
251.804
251.819
251.836
251.855
251.872
251.888
251.903
251.918
251.933
251.949
251.964
251.981
252.005
252.042
252.067
252.083
252.098
252.111
252.121
252.134
252.149
252.164
252.179
252.195
252.21
252.226
252.244
252.268
252.292
252.309
252.324
252.34
252.355
252.37
252.385
252.4
252.416
252.431
252.446
252.462
252.478
252.5
252.535
252.564
252.58
252.595
252.608
252.619
252.632
252.648
252.663
252.678
252.694
252.713
252.735
252.753
252.769
252.785
252.8
252.818
252.838
252.857
252.872
252.888
252.903
252.918
252.933
252.949
252.964
252.98
253.001
253.029
253.053
253.069
253.084
253.098
253.111
253.124
253.139
253.154
253.169
253.185
253.2
253.216
253.239
253.274
253.303
253.32
253.335
253.349
253.358
253.369
253.384
253.399
253.414
253.429
253.445
253.461
253.479
253.505
253.533
253.551
253.567
253.582
253.596
253.61
253.626
253.641
253.657
253.673
253.693
253.719
253.738
253.753
253.768
253.784
253.799
253.814
253.83
253.847
253.866
253.885
253.901
253.916
253.932
253.947
253.962
253.977
253.993
254.009
254.027
254.054
254.087
254.106
254.122
254.136
254.149
254.162
254.177
254.192
254.208
254.224
254.243
254.266
254.285
254.3
254.316
254.331
254.346
254.362
254.378
254.397
254.415
254.431
254.446
254.461
254.476
254.492
254.507
254.522
254.538
254.556
254.585
254.621
254.642
254.657
254.672
254.683
254.69
254.701
254.716
254.732
254.747
254.763
254.782
254.812
254.847
254.867
254.883
254.897
254.908
254.917
254.93
254.945
254.96
254.976
254.991
255.006
255.023
255.042
255.072
255.099
255.116
255.132
255.146
255.16
255.175
255.19
255.206
255.221
255.239
255.26
255.281
255.297
255.313
255.328
255.343
255.358
255.374
255.389
255.404
255.42
255.44
255.467
255.493
255.51
255.525
255.54
255.554
255.568
255.583
255.599
255.614
255.63
255.649
255.672
255.691
255.706
255.722
255.737
255.752
255.768
255.784
255.804
255.83
255.852
255.868
255.883
255.898
255.913
255.929
255.944
255.96
255.978
256
256.019
256.034
256.05
256.065
256.081
256.097
256.114
256.135
256.155
256.172
256.187
256.202
256.218
256.233
256.248
256.263
256.279
256.294
256.311
256.333
256.365
256.39
256.406
256.421
256.435
256.449
256.463
256.478
256.493
256.509
256.524
256.54
256.555
256.573
256.597
256.623
256.641
256.657
256.672
256.687
256.701
256.716
256.732
256.747
256.763
256.778
256.795
256.819
256.846
256.865
256.881
256.896
256.911
256.927
256.942
256.958
256.975
256.994
257.014
257.03
257.045
257.061
257.076
257.092
257.109
257.129
257.152
257.17
257.186
257.201
257.216
257.232
257.248
257.265
257.285
257.307
257.324
257.34
257.355
257.37
257.385
257.401
257.416
257.431
257.447
257.463
257.482
257.509
257.534
257.551
257.566
257.581
257.597
257.612
257.628
257.643
257.66
257.679
257.702
257.719
257.735
257.75
257.766
257.781
257.797
257.813
257.833
257.857
257.876
257.891
257.907
257.922
257.938
257.953
257.97
257.988
258.008
258.026
258.042
258.057
258.073
258.088
258.103
258.119
258.134
258.151
258.17
258.199
258.226
258.243
258.258
258.273
258.287
258.299
258.313
258.329
258.344
258.36
258.375
258.391
258.408
258.43
258.46
258.483
258.499
258.514
258.529
258.543
258.558
258.573
258.589
258.604
258.62
258.638
258.657
258.674
258.69
258.705
258.721
258.736
258.752
258.768
258.786
258.815
258.848
258.868
258.883
258.898
258.911
258.922
258.936
258.951
258.967
258.982
258.998
259.014
259.031
259.047
259.062
259.078
259.093
259.109
259.125
259.144
259.174
259.209
259.229
259.245
259.26
259.273
259.283
259.297
259.312
259.328
259.343
259.359
259.377
259.398
259.418
259.435
259.45
259.466
259.483
259.501
259.519
259.536
259.551
259.567
259.582
259.598
259.614
259.629
259.645
259.665
259.693
259.72
259.737
259.753
259.768
259.783
259.798
259.814
259.829
259.845
259.861
259.88
259.898
259.914
259.929
259.945
259.96
259.976
259.992
260.008
260.027
260.054
260.079
260.095
260.111
260.126
260.142
260.157
260.173
260.188
260.204
260.219
260.236
260.255
260.277
260.295
260.311
260.327
260.342
260.358
260.374
260.392
260.412
260.432
260.448
260.464
260.479
260.495
260.51
260.524
260.54
260.555
260.571
260.586
260.603
260.621
260.649
260.684
260.705
260.721
260.736
260.75
260.762
260.777
260.792
260.808
260.823
260.839
260.855
260.87
260.886
260.902
260.917
260.933
260.948
260.964
260.981
261.005
261.041
261.07
261.087
261.103
261.117
261.128
261.135
261.148
261.164
261.179
261.195
261.211
261.228
261.25
261.277
261.295
261.311
261.327
261.342
261.356
261.368
261.382
261.398
261.413
261.429
261.445
261.46
261.477
261.5
261.536
261.57
261.588
261.604
261.618
261.631
261.639
261.649
261.663
261.679
261.694
261.71
261.726
261.741
261.757
261.772
261.788
261.804
261.82
261.841
261.875
261.912
261.933
261.948
261.963
261.976
261.984
261.993
262.007
262.022
262.038
262.053
262.069
262.085
262.102
262.124
262.153
262.174
262.19
262.206
262.221
262.236
262.25
262.266
262.281
262.297
262.313
262.33
262.351
262.375
262.393
262.408
262.424
262.44
262.455
262.471
262.487
262.503
262.521
262.538
262.554
262.569
262.585
262.601
262.616
262.632
262.648
262.667
262.696
262.732
262.753
262.768
262.784
262.798
262.808
262.817
262.832
262.847
262.863
262.878
262.894
262.91
262.925
262.942
262.962
262.992
263.018
263.036
263.051
263.067
263.081
263.094
263.106
263.121
263.136
263.152
263.167
263.183
263.199
263.214
263.23
263.246
263.263
263.285
263.322
263.357
263.376
263.391
263.406
263.419
263.428
263.436
263.45
263.466
263.482
263.497
263.513
263.529
263.544
263.561
263.581
263.609
263.633
263.65
263.665
263.681
263.696
263.712
263.727
263.743
263.759
263.775
263.793
263.815
263.835
263.851
263.867
263.882
263.898
263.913
263.928
263.944
263.96
263.976
263.992
264.012
264.04
264.066
264.083
264.098
264.114
264.129
264.142
264.156
264.172
264.188
264.203
264.219
264.235
264.251
264.27
264.295
264.319
264.336
264.352
264.368
264.383
264.398
264.414
264.429
264.445
264.46
264.476
264.492
264.508
264.524
264.541
264.566
264.596
264.616
264.632
264.647
264.662
264.677
264.69
264.705
264.72
264.736
264.752
264.767
264.783
264.799
264.815
264.83
264.846
264.862
264.88
264.905
264.941
264.967
264.983
264.999
265.014
265.028
265.039
265.05
265.065
265.081
265.096
265.112
265.129
265.149
265.175
265.195
265.211
265.227
265.242
265.258
265.273
265.288
265.304
265.32
265.335
265.351
265.367
265.384
265.404
265.43
265.453
265.47
265.486
265.501
265.517
265.532
265.548
265.563
265.579
265.595
265.611
265.626
265.643
265.66
265.683
265.711
265.73
265.746
265.762
265.777
265.793
265.807
265.821
265.837
265.853
265.868
265.884
265.9
265.916
265.934
265.958
265.984
266.002
266.018
266.034
266.049
266.065
266.08
266.096
266.111
266.127
266.143
266.159
266.176
266.196
266.22
266.238
266.254
266.27
266.286
266.301
266.316
266.331
266.347
266.363
266.379
266.395
266.411
266.431
266.462
266.494
266.512
266.528
266.543
266.558
266.568
266.578
266.592
266.608
266.624
266.639
266.655
266.671
266.687
266.703
266.722
266.75
266.78
266.799
266.815
266.831
266.846
266.86
266.873
266.887
266.902
266.918
266.934
266.949
266.965
266.981
266.997
267.012
267.028
267.044
267.06
267.077
267.099
267.135
267.168
267.187
267.202
267.218
267.232
267.242
267.249
267.262
267.277
267.293
267.309
267.325
267.341
267.357
267.375
267.399
267.428
267.448
267.464
267.48
267.496
267.511
267.526
267.542
267.558
267.573
267.59
267.607
267.627
267.644
267.66
267.676
267.692
267.708
267.724
267.74
267.756
267.773
267.794
267.819
267.839
267.855
267.871
267.887
267.902
267.917
267.932
267.948
267.964
267.979
267.995
268.011
268.028
268.047
268.074
268.097
268.114
268.13
268.145
268.161
268.177
268.192
268.208
268.224
268.24
268.257
268.277
268.296
268.312
268.328
268.344
268.36
268.375
268.391
268.407
268.423
268.439
268.456
268.476
268.508
268.537
268.555
268.571
268.586
268.601
268.613
268.625
268.641
268.656
268.672
268.688
268.704
268.72
268.737
268.753
268.769
268.785
268.8
268.816
268.832
268.849
268.869
268.9
268.929
268.947
268.963
268.979
268.994
269.007
269.019
269.034
269.05
269.066
269.082
269.097
269.113
269.129
269.146
269.166
269.192
269.213
269.23
269.246
269.261
269.277
269.293
269.309
269.325
269.341
269.357
269.375
269.396
269.415
269.432
269.448
269.464
269.48
269.496
269.512
269.528
269.544
269.56
269.576
269.592
269.608
269.624
269.64
269.656
269.672
269.689
269.712
269.745
269.769
269.786
269.801
269.817
269.831
269.841
269.854
269.869
269.885
269.901
269.917
269.935
269.959
269.988
270.008
270.024
270.04
270.056
270.07
270.083
270.098
270.114
270.13
270.146
270.163
270.184
270.208
270.227
270.243
270.259
270.275
270.291
270.306
270.32
270.335
270.351
270.367
270.382
270.398
270.414
270.43
270.446
270.462
270.479
270.499
270.528
270.561
270.581
270.598
270.613
270.629
270.644
270.656
270.663
270.674
270.689
270.705
270.721
270.737
270.753
270.769
270.785
270.801
270.818
270.838
270.87
270.907
270.928
270.944
270.96
270.975
270.989
270.998
271.006
271.02
271.036
271.052
271.068
271.084
271.1
271.116
271.132
271.149
271.17
271.202
271.233
271.251
271.267
271.283
271.298
271.313
271.324
271.336
271.351
271.366
271.382
271.398
271.414
271.43
271.446
271.463
271.479
271.499
271.524
271.546
271.563
271.579
271.595
271.611
271.627
271.643
271.659
271.677
271.697
271.716
271.732
271.748
271.764
271.78
271.796
271.811
271.824
271.839
271.855
271.87
271.886
271.903
271.919
271.935
271.954
271.982
272.02
272.044
272.061
272.077
272.092
272.107
272.118
272.127
272.14
272.156
272.171
272.188
272.204
272.22
272.236
272.255
272.278
272.303
272.321
272.337
272.353
272.369
272.385
272.4
272.415
272.431
272.446
272.463
272.479
272.495
272.511
272.527
272.543
272.559
272.575
272.591
272.607
272.624
272.641
272.662
272.692
272.718
272.736
272.752
272.768
272.783
272.796
272.807
272.822
272.838
272.854
272.87
272.887
272.908
272.938
272.967
272.985
273.001
273.017
273.033
273.047
273.055
273.063
273.077
273.093
273.109
273.125
273.141
273.157
273.173
273.19
273.207
273.23
273.264
273.294
273.312
273.328
273.344
273.359
273.372
273.38
273.392
273.407
273.422
273.438
273.454
273.471
273.49
273.514
273.539
273.557
273.574
273.59
273.606
273.622
273.637
273.65
273.664
273.679
273.695
273.711
273.727
273.744
273.761
273.782
273.81
273.834
273.852
273.869
273.885
273.901
273.916
273.931
273.944
273.956
273.971
273.986
274.002
274.018
274.034
274.051
274.067
274.086
274.11
274.138
274.158
274.174
274.19
274.206
274.221
274.237
274.252
274.268
274.285
274.301
274.319
274.34
274.364
274.383
274.399
274.415
274.43
274.446
274.462
274.477
274.491
274.505
274.521
274.537
274.553
274.569
274.586
274.602
274.62
274.641
274.669
274.691
274.707
274.724
274.739
274.755
274.77
274.785
274.796
274.807
274.822
274.838
274.854
274.871
274.887
274.905
274.928
274.965
274.996
275.013
275.029
275.045
275.059
275.072
275.08
275.087
275.102
275.118
275.134
275.151
275.168
275.187
275.213
275.237
275.254
275.27
275.286
275.301
275.315
275.329
275.345
275.362
275.379
275.397
275.417
275.444
275.466
275.482
275.497
275.512
275.527
275.542
275.555
275.57
275.587
275.604
275.622
275.642
275.665
275.685
275.703
275.719
275.734
275.749
275.763
275.775
275.784
275.796
275.811
275.828
275.845
275.862
275.879
275.897
275.918
275.951
275.995
276.019
276.035
276.05
276.065
276.078
276.088
276.089
276.094
276.109
276.125
276.142
276.159
276.175
276.192
276.209
276.225
276.241
276.258
276.276
276.301
276.337
276.363
276.381
276.398
276.414
276.429
276.438
276.447
276.462
276.477
276.492
276.509
276.527
276.552
276.582
276.603
276.62
276.637
276.653
276.668
276.679
276.687
276.701
276.717
276.732
276.749
276.766
276.787
276.812
276.831
276.848
276.864
276.88
276.895
276.908
276.917
276.931
276.947
276.964
276.98
276.998
277.018
277.051
277.091
277.112
277.128
277.143
277.158
277.171
277.181
277.182
277.191
277.207
277.224
277.24
277.257
277.274
277.292
277.309
277.325
277.341
277.358
277.377
277.404
277.445
277.473
277.492
277.51
277.526
277.541
277.549
277.549
277.559
277.574
277.589
277.605
277.622
277.641
277.662
277.681
277.698
277.714
277.73
277.745
277.762
277.779
277.798
277.82
277.848
277.873
277.891
277.906
277.92
277.934
277.947
277.957
277.967
277.98
277.997
278.015
278.033
278.055
278.081
278.105
278.124
278.142
278.159
278.174
278.187
278.198
278.205
278.215
278.228
278.244
278.261
278.279
278.299
278.324
278.359
278.395
278.422
278.442
278.457
278.471
278.482
278.485
278.484
278.494
278.508
278.524
278.541
278.559
278.577
278.595
278.612
278.628
278.645
278.662
278.679
278.701
278.736
278.771
278.789
278.805
278.82
278.834
278.843
278.848
278.862
278.877
278.894
278.91
278.928
278.954
278.984
279.004
279.021
279.037
279.054
279.068
279.077
279.085
279.099
279.114
279.13
279.146
279.164
279.189
279.223
279.246
279.264
279.281
279.298
279.313
279.325
279.331
279.34
279.355
279.371
279.387
279.404
279.422
279.447
279.479
279.5
279.517
279.533
279.549
279.564
279.577
279.584
279.593
279.608
279.625
279.641
279.658
279.677
279.702
279.733
279.754
279.77
279.786
279.802
279.817
279.83
279.838
279.85
279.866
279.883
279.9
279.917
279.937
279.967
280.005
280.027
280.043
280.058
280.074
280.089
280.1
280.104
280.111
280.125
280.141
280.157
280.174
280.192
280.211
280.239
280.273
280.295
280.312
280.328
280.343
280.359
280.374
280.386
280.39
280.393
280.406
280.422
280.438
280.455
280.472
280.489
280.506
280.526
280.555
280.604
280.637
280.655
280.671
280.687
280.703
280.718
280.728
280.727
280.723
280.735
280.751
280.767
280.783
280.8
280.816
280.833
280.85
280.868
280.889
280.923
280.969
280.995
281.014
281.031
281.048
281.064
281.078
281.084
281.079
281.083
281.097
281.111
281.127
281.143
281.16
281.179
281.204
281.241
281.274
281.297
281.316
281.333
281.349
281.363
281.37
281.371
281.38
281.393
281.407
281.422
281.44
281.458
281.482
281.512
281.536
281.557
281.575
281.593
281.609
281.623
281.631
281.64
281.652
281.666
281.681
281.697
281.715
281.737
281.768
281.801
281.824
281.844
281.862
281.879
281.892
281.897
281.904
281.918
281.933
281.948
281.965
281.985
282.009
282.03
282.048
282.065
282.083
282.099
282.113
282.122
282.128
282.143
282.16
282.176
282.193
282.211
282.235
282.274
282.319
282.34
282.356
282.371
282.385
282.395
282.395
282.388
282.398
282.414
282.431
282.449
282.466
282.485
282.508
282.546
282.586
282.606
282.621
282.636
282.651
282.664
282.675
282.675
282.672
282.682
282.698
282.716
282.733
282.75
282.768
282.787
282.813
282.856
282.903
282.927
282.942
282.956
282.97
282.984
282.993
282.99
282.984
282.994
283.009
283.027
283.045
283.063
283.082
283.106
283.137
283.179
283.214
283.23
283.242
283.254
283.266
283.275
283.275
283.276
283.29
283.308
283.327
283.346
283.366
283.39
283.418
283.451
283.479
283.494
283.506
283.519
283.53
283.536
283.537
283.549
283.566
283.585
283.604
283.625
283.649
283.678
283.706
283.728
283.743
283.757
283.769
283.779
283.78
283.785
283.798
283.815
283.833
283.851
283.873
283.902
283.945
283.984
284.009
284.025
284.039
284.051
284.054
284.046
284.05
284.063
284.079
284.096
284.114
284.135
284.163
284.2
284.229
284.248
284.264
284.279
284.292
284.301
284.299
284.302
284.315
284.331
284.348
284.365
284.384
284.408
284.446
284.493
284.519
284.536
284.551
284.565
284.576
284.575
284.572
284.584
284.6
284.617
284.635
284.653
284.671
284.691
284.709
284.726
284.743
284.759
284.777
284.799
284.834
284.867
284.886
284.904
284.92
284.935
284.944
284.942
284.945
284.96
284.976
284.992
285.01
285.028
285.054
285.088
285.109
285.126
285.143
285.158
285.173
285.184
285.188
285.197
285.213
285.23
285.247
285.265
285.286
285.318
285.36
285.384
285.4
285.416
285.431
285.443
285.446
285.448
285.462
285.478
285.495
285.512
285.53
285.554
285.583
285.603
285.62
285.636
285.652
285.667
285.678
285.686
285.7
285.717
285.734
285.751
285.769
285.794
285.833
285.863
285.879
285.895
285.91
285.925
285.936
285.937
285.941
285.956
285.973
285.99
286.007
286.026
286.051
286.085
286.109
286.126
286.142
286.158
286.173
286.186
286.193
286.203
286.219
286.235
286.252
286.269
286.289
286.316
286.345
286.363
286.38
286.396
286.412
286.428
286.44
286.446
286.457
286.474
286.491
286.508
286.526
286.545
286.568
286.599
286.62
286.635
286.651
286.666
286.68
286.692
286.697
286.701
286.717
286.735
286.754
286.773
286.793
286.815
286.844
286.891
286.932
286.946
286.959
286.972
286.983
286.99
286.984
286.974
286.985
287.002
287.02
287.039
287.058
287.078
287.1
287.131
287.181
287.216
287.231
287.244
287.258
287.269
287.273
287.269
287.279
287.295
287.313
287.33
287.348
287.369
287.398
287.428
287.446
287.463
287.479
287.495
287.51
287.521
287.521
287.521
287.535
287.551
287.568
287.585
287.603
287.622
287.651
287.705
287.748
287.767
287.784
287.8
287.812
287.819
287.814
287.815
287.83
287.847
287.865
287.883
287.902
287.924
287.953
287.973
287.989
288.004
288.019
288.033
288.041
288.041
288.05
288.066
288.083
288.101
288.12
288.141
288.171
288.219
288.27
288.296
288.311
288.325
288.338
288.348
288.346
288.324
288.321
288.334
288.351
288.368
288.386
288.404
288.422
288.44
288.46
288.487
288.538
288.59
288.613
288.63
288.646
288.66
288.67
288.666
288.654
288.664
288.68
288.697
288.714
288.732
288.753
288.785
288.815
288.832
288.849
288.865
288.881
288.894
288.902
288.908
288.923
288.941
288.958
288.976
288.996
289.024
289.066
289.096
289.112
289.127
289.142
289.156
289.163
289.157
289.158
289.171
289.187
289.205
289.222
289.241
289.262
289.293
289.338
289.37
289.388
289.404
289.419
289.433
289.445
289.447
289.437
289.442
289.456
289.473
289.49
289.508
289.525
289.543
289.563
289.59
289.635
289.67
289.689
289.705
289.721
289.737
289.75
289.757
289.756
289.768
289.783
289.8
289.816
289.833
289.852
289.879
289.915
289.939
289.956
289.974
289.99
290.006
290.02
290.026
290.027
290.039
290.055
290.071
290.088
290.105
290.123
290.149
290.19
290.22
290.237
290.254
290.271
290.287
290.301
290.313
290.313
290.302
290.312
290.328
290.344
290.361
290.379
290.397
290.414
290.438
290.479
290.534
290.561
290.582
290.601
290.618
290.63
290.64
290.644
290.632
290.632
290.646
290.662
290.679
290.696
290.714
290.731
290.756
290.799
290.837
290.858
290.879
290.898
290.913
290.924
290.931
290.925
290.913
290.924
290.941
290.958
290.976
290.995
291.011
291.034
291.073
291.126
291.155
291.178
291.2
291.219
291.232
291.234
291.217
291.221
291.237
291.255
291.273
291.293
291.313
291.335
291.368
291.399
291.415
291.433
291.448
291.461
291.468
291.465
291.472
291.49
291.509
291.529
291.55
291.575
291.603
291.633
291.665
291.682
291.692
291.705
291.712
291.71
291.718
291.735
291.754
291.774
291.795
291.816
291.837
291.857
291.876
291.894
291.905
291.916
291.93
291.948
291.97
291.999
292.024
292.044
292.064
292.083
292.1
292.11
292.105
292.11
292.124
292.138
292.154
292.171
292.194
292.23
292.269
292.289
292.309
292.327
292.342
292.351
292.348
292.345
292.359
292.376
292.392
292.409
292.427
292.455
292.501
292.54
292.563
292.584
292.604
292.619
292.623
292.604
292.603
292.617
292.632
292.648
292.665
292.685
292.714
292.761
292.796
292.818
292.838
292.856
292.87
292.868
292.858
292.869
292.885
292.902
292.92
292.939
292.967
293.003
293.023
293.039
293.055
293.07
293.082
293.087
293.077
293.08
293.095
293.113
293.131
293.15
293.172
293.202
293.256
293.321
293.35
293.364
293.377
293.39
293.397
293.386
293.358
293.362
293.378
293.396
293.415
293.434
293.455
293.48
293.522
293.579
293.604
293.617
293.63
293.641
293.647
293.636
293.625
293.638
293.655
293.674
293.693
293.714
293.737
293.771
293.824
293.856
293.87
293.884
293.896
293.901
293.889
293.886
293.9
293.917
293.934
293.952
293.975
294.009
294.034
294.053
294.071
294.088
294.103
294.12
294.136
294.153
294.17
294.197
294.229
294.25
294.27
294.289
294.305
294.316
294.315
294.304
294.315
294.332
294.35
294.368
294.386
294.407
294.444
294.496
294.523
294.542
294.56
294.574
294.58
294.566
294.556
294.569
294.585
294.601
294.618
294.637
294.661
294.698
294.744
294.77
294.791
294.808
294.823
294.834
294.832
294.821
294.826
294.838
294.854
294.872
294.891
294.913
294.941
294.983
295.024
295.054
295.076
295.09
295.103
295.112
295.106
295.088
295.092
295.106
295.124
295.142
295.16
295.179
295.206
295.25
295.305
295.333
295.351
295.367
295.382
295.391
295.383
295.375
295.386
295.402
295.418
295.435
295.454
295.481
295.518
295.541
295.558
295.576
295.592
295.607
295.615
295.612
295.621
295.637
295.654
295.671
295.688
295.708
295.739
295.787
295.813
295.83
295.847
295.862
295.874
295.879
295.875
295.884
295.902
295.92
295.939
295.958
295.98
296.006
296.045
296.08
296.093
296.105
296.117
296.128
296.133
296.127
296.131
296.146
296.166
296.186
296.207
296.23
296.256
296.289
296.333