/*--------------------------------*- C++ -*----------------------------------*\
  =========                 |
  \\      /  F ield         | OpenFOAM: The Open Source CFD Toolbox
   \\    /   O peration     | Website:  https://openfoam.org
    \\  /    A nd           | Version:  9
     \\/     M anipulation  |
\*---------------------------------------------------------------------------*/
FoamFile
{
    format      ascii;
    class       volVectorField;
    location    "0.048";
    object      U;
}
// * * * * * * * * * * * * * * * * * * * * * * * * * * * * * * * * * * * * * //

dimensions      [0 1 -1 0 0 0 0];

internalField   nonuniform List<vector> 
10000
(
(232.424 0 0)
(232.452 0 0)
(232.468 0 0)
(232.485 0 0)
(232.502 0 0)
(232.519 0 0)
(232.537 0 0)
(232.554 0 0)
(232.571 0 0)
(232.588 0 0)
(232.605 0 0)
(232.622 0 0)
(232.64 0 0)
(232.657 0 0)
(232.674 0 0)
(232.691 0 0)
(232.708 0 0)
(232.726 0 0)
(232.743 0 0)
(232.76 0 0)
(232.777 0 0)
(232.794 0 0)
(232.812 0 0)
(232.829 0 0)
(232.846 0 0)
(232.863 0 0)
(232.88 0 0)
(232.898 0 0)
(232.915 0 0)
(232.932 0 0)
(232.949 0 0)
(232.966 0 0)
(232.984 0 0)
(233.001 0 0)
(233.018 0 0)
(233.035 0 0)
(233.052 0 0)
(233.07 0 0)
(233.087 0 0)
(233.104 0 0)
(233.121 0 0)
(233.138 0 0)
(233.156 0 0)
(233.173 0 0)
(233.19 0 0)
(233.207 0 0)
(233.225 0 0)
(233.242 0 0)
(233.259 0 0)
(233.276 0 0)
(233.293 0 0)
(233.311 0 0)
(233.328 0 0)
(233.345 0 0)
(233.362 0 0)
(233.379 0 0)
(233.397 0 0)
(233.414 0 0)
(233.431 0 0)
(233.448 0 0)
(233.465 0 0)
(233.482 0 0)
(233.5 0 0)
(233.517 0 0)
(233.534 0 0)
(233.551 0 0)
(233.568 0 0)
(233.585 0 0)
(233.603 0 0)
(233.62 0 0)
(233.637 0 0)
(233.654 0 0)
(233.671 0 0)
(233.688 0 0)
(233.706 0 0)
(233.723 0 0)
(233.74 0 0)
(233.757 0 0)
(233.774 0 0)
(233.792 0 0)
(233.809 0 0)
(233.826 0 0)
(233.843 0 0)
(233.86 0 0)
(233.878 0 0)
(233.895 0 0)
(233.912 0 0)
(233.929 0 0)
(233.946 0 0)
(233.964 0 0)
(233.981 0 0)
(233.998 0 0)
(234.015 0 0)
(234.033 0 0)
(234.05 0 0)
(234.067 0 0)
(234.084 0 0)
(234.101 0 0)
(234.118 0 0)
(234.136 0 0)
(234.153 0 0)
(234.17 0 0)
(234.187 0 0)
(234.204 0 0)
(234.221 0 0)
(234.239 0 0)
(234.256 0 0)
(234.273 0 0)
(234.29 0 0)
(234.308 0 0)
(234.325 0 0)
(234.342 0 0)
(234.359 0 0)
(234.376 0 0)
(234.394 0 0)
(234.411 0 0)
(234.428 0 0)
(234.445 0 0)
(234.462 0 0)
(234.479 0 0)
(234.497 0 0)
(234.514 0 0)
(234.531 0 0)
(234.548 0 0)
(234.565 0 0)
(234.583 0 0)
(234.6 0 0)
(234.617 0 0)
(234.634 0 0)
(234.651 0 0)
(234.668 0 0)
(234.685 0 0)
(234.703 0 0)
(234.72 0 0)
(234.738 0 0)
(234.755 0 0)
(234.772 0 0)
(234.788 0 0)
(234.805 0 0)
(234.822 0 0)
(234.84 0 0)
(234.859 0 0)
(234.877 0 0)
(234.894 0 0)
(234.91 0 0)
(234.926 0 0)
(234.942 0 0)
(234.959 0 0)
(234.977 0 0)
(234.997 0 0)
(235.015 0 0)
(235.032 0 0)
(235.047 0 0)
(235.063 0 0)
(235.079 0 0)
(235.095 0 0)
(235.114 0 0)
(235.135 0 0)
(235.153 0 0)
(235.169 0 0)
(235.184 0 0)
(235.2 0 0)
(235.216 0 0)
(235.234 0 0)
(235.255 0 0)
(235.274 0 0)
(235.29 0 0)
(235.305 0 0)
(235.32 0 0)
(235.336 0 0)
(235.353 0 0)
(235.374 0 0)
(235.395 0 0)
(235.411 0 0)
(235.426 0 0)
(235.441 0 0)
(235.457 0 0)
(235.473 0 0)
(235.493 0 0)
(235.515 0 0)
(235.532 0 0)
(235.547 0 0)
(235.562 0 0)
(235.577 0 0)
(235.593 0 0)
(235.612 0 0)
(235.636 0 0)
(235.654 0 0)
(235.669 0 0)
(235.683 0 0)
(235.698 0 0)
(235.713 0 0)
(235.729 0 0)
(235.749 0 0)
(235.773 0 0)
(235.791 0 0)
(235.806 0 0)
(235.821 0 0)
(235.835 0 0)
(235.85 0 0)
(235.867 0 0)
(235.889 0 0)
(235.91 0 0)
(235.926 0 0)
(235.941 0 0)
(235.956 0 0)
(235.972 0 0)
(235.99 0 0)
(236.012 0 0)
(236.03 0 0)
(236.045 0 0)
(236.06 0 0)
(236.075 0 0)
(236.091 0 0)
(236.11 0 0)
(236.132 0 0)
(236.151 0 0)
(236.166 0 0)
(236.181 0 0)
(236.195 0 0)
(236.211 0 0)
(236.229 0 0)
(236.251 0 0)
(236.27 0 0)
(236.286 0 0)
(236.301 0 0)
(236.316 0 0)
(236.332 0 0)
(236.352 0 0)
(236.373 0 0)
(236.39 0 0)
(236.406 0 0)
(236.421 0 0)
(236.436 0 0)
(236.454 0 0)
(236.476 0 0)
(236.496 0 0)
(236.511 0 0)
(236.526 0 0)
(236.541 0 0)
(236.556 0 0)
(236.571 0 0)
(236.591 0 0)
(236.615 0 0)
(236.634 0 0)
(236.649 0 0)
(236.664 0 0)
(236.678 0 0)
(236.693 0 0)
(236.709 0 0)
(236.729 0 0)
(236.751 0 0)
(236.769 0 0)
(236.785 0 0)
(236.8 0 0)
(236.816 0 0)
(236.836 0 0)
(236.857 0 0)
(236.874 0 0)
(236.889 0 0)
(236.903 0 0)
(236.918 0 0)
(236.935 0 0)
(236.954 0 0)
(236.977 0 0)
(236.994 0 0)
(237.009 0 0)
(237.024 0 0)
(237.039 0 0)
(237.056 0 0)
(237.078 0 0)
(237.098 0 0)
(237.114 0 0)
(237.129 0 0)
(237.143 0 0)
(237.158 0 0)
(237.173 0 0)
(237.193 0 0)
(237.217 0 0)
(237.235 0 0)
(237.25 0 0)
(237.265 0 0)
(237.279 0 0)
(237.294 0 0)
(237.31 0 0)
(237.33 0 0)
(237.353 0 0)
(237.371 0 0)
(237.386 0 0)
(237.401 0 0)
(237.415 0 0)
(237.43 0 0)
(237.445 0 0)
(237.462 0 0)
(237.487 0 0)
(237.516 0 0)
(237.533 0 0)
(237.548 0 0)
(237.562 0 0)
(237.577 0 0)
(237.592 0 0)
(237.606 0 0)
(237.621 0 0)
(237.636 0 0)
(237.653 0 0)
(237.673 0 0)
(237.695 0 0)
(237.714 0 0)
(237.731 0 0)
(237.749 0 0)
(237.769 0 0)
(237.786 0 0)
(237.801 0 0)
(237.816 0 0)
(237.831 0 0)
(237.846 0 0)
(237.861 0 0)
(237.88 0 0)
(237.904 0 0)
(237.923 0 0)
(237.938 0 0)
(237.952 0 0)
(237.967 0 0)
(237.982 0 0)
(238 0 0)
(238.022 0 0)
(238.042 0 0)
(238.058 0 0)
(238.073 0 0)
(238.089 0 0)
(238.105 0 0)
(238.126 0 0)
(238.146 0 0)
(238.162 0 0)
(238.177 0 0)
(238.192 0 0)
(238.207 0 0)
(238.224 0 0)
(238.246 0 0)
(238.268 0 0)
(238.284 0 0)
(238.298 0 0)
(238.313 0 0)
(238.328 0 0)
(238.343 0 0)
(238.359 0 0)
(238.381 0 0)
(238.404 0 0)
(238.42 0 0)
(238.435 0 0)
(238.45 0 0)
(238.464 0 0)
(238.48 0 0)
(238.499 0 0)
(238.522 0 0)
(238.542 0 0)
(238.557 0 0)
(238.572 0 0)
(238.587 0 0)
(238.602 0 0)
(238.618 0 0)
(238.641 0 0)
(238.665 0 0)
(238.681 0 0)
(238.696 0 0)
(238.71 0 0)
(238.725 0 0)
(238.74 0 0)
(238.755 0 0)
(238.773 0 0)
(238.796 0 0)
(238.817 0 0)
(238.833 0 0)
(238.847 0 0)
(238.862 0 0)
(238.877 0 0)
(238.891 0 0)
(238.907 0 0)
(238.927 0 0)
(238.954 0 0)
(238.976 0 0)
(238.991 0 0)
(239.006 0 0)
(239.02 0 0)
(239.035 0 0)
(239.05 0 0)
(239.065 0 0)
(239.085 0 0)
(239.108 0 0)
(239.126 0 0)
(239.141 0 0)
(239.156 0 0)
(239.17 0 0)
(239.186 0 0)
(239.203 0 0)
(239.226 0 0)
(239.246 0 0)
(239.261 0 0)
(239.276 0 0)
(239.29 0 0)
(239.305 0 0)
(239.32 0 0)
(239.334 0 0)
(239.35 0 0)
(239.368 0 0)
(239.396 0 0)
(239.427 0 0)
(239.444 0 0)
(239.459 0 0)
(239.472 0 0)
(239.484 0 0)
(239.499 0 0)
(239.513 0 0)
(239.528 0 0)
(239.543 0 0)
(239.558 0 0)
(239.574 0 0)
(239.597 0 0)
(239.628 0 0)
(239.65 0 0)
(239.665 0 0)
(239.679 0 0)
(239.693 0 0)
(239.707 0 0)
(239.722 0 0)
(239.737 0 0)
(239.754 0 0)
(239.776 0 0)
(239.797 0 0)
(239.812 0 0)
(239.827 0 0)
(239.842 0 0)
(239.856 0 0)
(239.871 0 0)
(239.887 0 0)
(239.908 0 0)
(239.932 0 0)
(239.949 0 0)
(239.964 0 0)
(239.979 0 0)
(239.993 0 0)
(240.008 0 0)
(240.023 0 0)
(240.041 0 0)
(240.067 0 0)
(240.096 0 0)
(240.114 0 0)
(240.129 0 0)
(240.143 0 0)
(240.156 0 0)
(240.171 0 0)
(240.186 0 0)
(240.201 0 0)
(240.219 0 0)
(240.241 0 0)
(240.262 0 0)
(240.278 0 0)
(240.292 0 0)
(240.307 0 0)
(240.322 0 0)
(240.337 0 0)
(240.354 0 0)
(240.377 0 0)
(240.398 0 0)
(240.414 0 0)
(240.429 0 0)
(240.444 0 0)
(240.459 0 0)
(240.474 0 0)
(240.492 0 0)
(240.515 0 0)
(240.535 0 0)
(240.55 0 0)
(240.565 0 0)
(240.579 0 0)
(240.594 0 0)
(240.609 0 0)
(240.623 0 0)
(240.639 0 0)
(240.657 0 0)
(240.687 0 0)
(240.717 0 0)
(240.734 0 0)
(240.748 0 0)
(240.761 0 0)
(240.775 0 0)
(240.789 0 0)
(240.804 0 0)
(240.82 0 0)
(240.839 0 0)
(240.862 0 0)
(240.881 0 0)
(240.896 0 0)
(240.911 0 0)
(240.926 0 0)
(240.94 0 0)
(240.956 0 0)
(240.975 0 0)
(240.998 0 0)
(241.017 0 0)
(241.032 0 0)
(241.047 0 0)
(241.062 0 0)
(241.079 0 0)
(241.099 0 0)
(241.121 0 0)
(241.138 0 0)
(241.153 0 0)
(241.168 0 0)
(241.183 0 0)
(241.198 0 0)
(241.215 0 0)
(241.237 0 0)
(241.259 0 0)
(241.274 0 0)
(241.289 0 0)
(241.304 0 0)
(241.319 0 0)
(241.334 0 0)
(241.351 0 0)
(241.374 0 0)
(241.396 0 0)
(241.412 0 0)
(241.427 0 0)
(241.441 0 0)
(241.456 0 0)
(241.471 0 0)
(241.489 0 0)
(241.512 0 0)
(241.534 0 0)
(241.55 0 0)
(241.565 0 0)
(241.58 0 0)
(241.595 0 0)
(241.61 0 0)
(241.63 0 0)
(241.653 0 0)
(241.671 0 0)
(241.686 0 0)
(241.701 0 0)
(241.716 0 0)
(241.731 0 0)
(241.746 0 0)
(241.765 0 0)
(241.789 0 0)
(241.808 0 0)
(241.823 0 0)
(241.838 0 0)
(241.853 0 0)
(241.868 0 0)
(241.883 0 0)
(241.898 0 0)
(241.917 0 0)
(241.943 0 0)
(241.965 0 0)
(241.981 0 0)
(241.995 0 0)
(242.009 0 0)
(242.024 0 0)
(242.038 0 0)
(242.053 0 0)
(242.068 0 0)
(242.083 0 0)
(242.102 0 0)
(242.131 0 0)
(242.161 0 0)
(242.178 0 0)
(242.192 0 0)
(242.206 0 0)
(242.22 0 0)
(242.235 0 0)
(242.249 0 0)
(242.265 0 0)
(242.282 0 0)
(242.305 0 0)
(242.325 0 0)
(242.341 0 0)
(242.356 0 0)
(242.371 0 0)
(242.386 0 0)
(242.401 0 0)
(242.418 0 0)
(242.439 0 0)
(242.461 0 0)
(242.477 0 0)
(242.492 0 0)
(242.507 0 0)
(242.522 0 0)
(242.537 0 0)
(242.555 0 0)
(242.578 0 0)
(242.597 0 0)
(242.612 0 0)
(242.627 0 0)
(242.641 0 0)
(242.656 0 0)
(242.671 0 0)
(242.686 0 0)
(242.701 0 0)
(242.722 0 0)
(242.753 0 0)
(242.782 0 0)
(242.798 0 0)
(242.812 0 0)
(242.825 0 0)
(242.837 0 0)
(242.851 0 0)
(242.866 0 0)
(242.881 0 0)
(242.897 0 0)
(242.916 0 0)
(242.941 0 0)
(242.961 0 0)
(242.976 0 0)
(242.991 0 0)
(243.005 0 0)
(243.02 0 0)
(243.035 0 0)
(243.051 0 0)
(243.07 0 0)
(243.097 0 0)
(243.12 0 0)
(243.135 0 0)
(243.15 0 0)
(243.164 0 0)
(243.179 0 0)
(243.194 0 0)
(243.209 0 0)
(243.226 0 0)
(243.248 0 0)
(243.269 0 0)
(243.286 0 0)
(243.301 0 0)
(243.315 0 0)
(243.331 0 0)
(243.346 0 0)
(243.365 0 0)
(243.387 0 0)
(243.405 0 0)
(243.42 0 0)
(243.435 0 0)
(243.45 0 0)
(243.466 0 0)
(243.486 0 0)
(243.509 0 0)
(243.527 0 0)
(243.542 0 0)
(243.557 0 0)
(243.572 0 0)
(243.587 0 0)
(243.603 0 0)
(243.623 0 0)
(243.646 0 0)
(243.664 0 0)
(243.679 0 0)
(243.693 0 0)
(243.708 0 0)
(243.723 0 0)
(243.738 0 0)
(243.753 0 0)
(243.768 0 0)
(243.787 0 0)
(243.817 0 0)
(243.846 0 0)
(243.863 0 0)
(243.878 0 0)
(243.891 0 0)
(243.903 0 0)
(243.916 0 0)
(243.931 0 0)
(243.946 0 0)
(243.961 0 0)
(243.976 0 0)
(243.992 0 0)
(244.015 0 0)
(244.046 0 0)
(244.067 0 0)
(244.082 0 0)
(244.096 0 0)
(244.111 0 0)
(244.126 0 0)
(244.141 0 0)
(244.157 0 0)
(244.176 0 0)
(244.195 0 0)
(244.211 0 0)
(244.226 0 0)
(244.241 0 0)
(244.255 0 0)
(244.27 0 0)
(244.285 0 0)
(244.301 0 0)
(244.318 0 0)
(244.345 0 0)
(244.377 0 0)
(244.397 0 0)
(244.412 0 0)
(244.425 0 0)
(244.437 0 0)
(244.45 0 0)
(244.464 0 0)
(244.479 0 0)
(244.494 0 0)
(244.509 0 0)
(244.524 0 0)
(244.539 0 0)
(244.555 0 0)
(244.577 0 0)
(244.611 0 0)
(244.639 0 0)
(244.656 0 0)
(244.67 0 0)
(244.683 0 0)
(244.697 0 0)
(244.712 0 0)
(244.727 0 0)
(244.743 0 0)
(244.761 0 0)
(244.779 0 0)
(244.795 0 0)
(244.81 0 0)
(244.825 0 0)
(244.839 0 0)
(244.854 0 0)
(244.869 0 0)
(244.884 0 0)
(244.9 0 0)
(244.921 0 0)
(244.953 0 0)
(244.98 0 0)
(244.996 0 0)
(245.01 0 0)
(245.024 0 0)
(245.038 0 0)
(245.053 0 0)
(245.068 0 0)
(245.083 0 0)
(245.098 0 0)
(245.114 0 0)
(245.136 0 0)
(245.162 0 0)
(245.181 0 0)
(245.196 0 0)
(245.211 0 0)
(245.225 0 0)
(245.24 0 0)
(245.255 0 0)
(245.27 0 0)
(245.285 0 0)
(245.3 0 0)
(245.317 0 0)
(245.339 0 0)
(245.369 0 0)
(245.39 0 0)
(245.405 0 0)
(245.42 0 0)
(245.434 0 0)
(245.449 0 0)
(245.464 0 0)
(245.479 0 0)
(245.494 0 0)
(245.51 0 0)
(245.528 0 0)
(245.553 0 0)
(245.574 0 0)
(245.59 0 0)
(245.605 0 0)
(245.62 0 0)
(245.635 0 0)
(245.65 0 0)
(245.666 0 0)
(245.686 0 0)
(245.709 0 0)
(245.726 0 0)
(245.741 0 0)
(245.756 0 0)
(245.771 0 0)
(245.786 0 0)
(245.802 0 0)
(245.822 0 0)
(245.845 0 0)
(245.864 0 0)
(245.879 0 0)
(245.894 0 0)
(245.909 0 0)
(245.924 0 0)
(245.94 0 0)
(245.957 0 0)
(245.98 0 0)
(246 0 0)
(246.015 0 0)
(246.03 0 0)
(246.045 0 0)
(246.06 0 0)
(246.075 0 0)
(246.09 0 0)
(246.105 0 0)
(246.121 0 0)
(246.147 0 0)
(246.182 0 0)
(246.205 0 0)
(246.221 0 0)
(246.234 0 0)
(246.246 0 0)
(246.258 0 0)
(246.272 0 0)
(246.287 0 0)
(246.302 0 0)
(246.319 0 0)
(246.34 0 0)
(246.361 0 0)
(246.377 0 0)
(246.392 0 0)
(246.407 0 0)
(246.422 0 0)
(246.437 0 0)
(246.452 0 0)
(246.469 0 0)
(246.491 0 0)
(246.52 0 0)
(246.54 0 0)
(246.555 0 0)
(246.57 0 0)
(246.584 0 0)
(246.599 0 0)
(246.614 0 0)
(246.63 0 0)
(246.648 0 0)
(246.669 0 0)
(246.688 0 0)
(246.703 0 0)
(246.718 0 0)
(246.733 0 0)
(246.748 0 0)
(246.764 0 0)
(246.781 0 0)
(246.804 0 0)
(246.824 0 0)
(246.84 0 0)
(246.855 0 0)
(246.87 0 0)
(246.885 0 0)
(246.9 0 0)
(246.916 0 0)
(246.935 0 0)
(246.963 0 0)
(246.991 0 0)
(247.007 0 0)
(247.022 0 0)
(247.036 0 0)
(247.05 0 0)
(247.064 0 0)
(247.079 0 0)
(247.094 0 0)
(247.11 0 0)
(247.13 0 0)
(247.152 0 0)
(247.169 0 0)
(247.185 0 0)
(247.2 0 0)
(247.215 0 0)
(247.23 0 0)
(247.247 0 0)
(247.267 0 0)
(247.289 0 0)
(247.306 0 0)
(247.321 0 0)
(247.337 0 0)
(247.352 0 0)
(247.369 0 0)
(247.389 0 0)
(247.408 0 0)
(247.424 0 0)
(247.439 0 0)
(247.454 0 0)
(247.469 0 0)
(247.484 0 0)
(247.499 0 0)
(247.514 0 0)
(247.533 0 0)
(247.562 0 0)
(247.594 0 0)
(247.613 0 0)
(247.628 0 0)
(247.641 0 0)
(247.653 0 0)
(247.666 0 0)
(247.68 0 0)
(247.696 0 0)
(247.711 0 0)
(247.728 0 0)
(247.75 0 0)
(247.77 0 0)
(247.785 0 0)
(247.8 0 0)
(247.815 0 0)
(247.83 0 0)
(247.846 0 0)
(247.861 0 0)
(247.88 0 0)
(247.906 0 0)
(247.931 0 0)
(247.947 0 0)
(247.962 0 0)
(247.977 0 0)
(247.991 0 0)
(248.005 0 0)
(248.02 0 0)
(248.035 0 0)
(248.051 0 0)
(248.069 0 0)
(248.094 0 0)
(248.121 0 0)
(248.139 0 0)
(248.154 0 0)
(248.168 0 0)
(248.182 0 0)
(248.195 0 0)
(248.209 0 0)
(248.224 0 0)
(248.24 0 0)
(248.255 0 0)
(248.27 0 0)
(248.285 0 0)
(248.302 0 0)
(248.329 0 0)
(248.366 0 0)
(248.389 0 0)
(248.404 0 0)
(248.419 0 0)
(248.43 0 0)
(248.442 0 0)
(248.456 0 0)
(248.471 0 0)
(248.486 0 0)
(248.501 0 0)
(248.517 0 0)
(248.535 0 0)
(248.556 0 0)
(248.575 0 0)
(248.592 0 0)
(248.609 0 0)
(248.629 0 0)
(248.649 0 0)
(248.666 0 0)
(248.681 0 0)
(248.696 0 0)
(248.711 0 0)
(248.726 0 0)
(248.742 0 0)
(248.759 0 0)
(248.78 0 0)
(248.799 0 0)
(248.815 0 0)
(248.83 0 0)
(248.845 0 0)
(248.86 0 0)
(248.875 0 0)
(248.89 0 0)
(248.905 0 0)
(248.921 0 0)
(248.945 0 0)
(248.979 0 0)
(249.006 0 0)
(249.022 0 0)
(249.036 0 0)
(249.048 0 0)
(249.057 0 0)
(249.07 0 0)
(249.085 0 0)
(249.1 0 0)
(249.116 0 0)
(249.133 0 0)
(249.158 0 0)
(249.188 0 0)
(249.207 0 0)
(249.223 0 0)
(249.237 0 0)
(249.251 0 0)
(249.264 0 0)
(249.279 0 0)
(249.294 0 0)
(249.309 0 0)
(249.324 0 0)
(249.339 0 0)
(249.355 0 0)
(249.372 0 0)
(249.397 0 0)
(249.426 0 0)
(249.444 0 0)
(249.459 0 0)
(249.474 0 0)
(249.489 0 0)
(249.504 0 0)
(249.519 0 0)
(249.534 0 0)
(249.549 0 0)
(249.564 0 0)
(249.582 0 0)
(249.604 0 0)
(249.628 0 0)
(249.645 0 0)
(249.66 0 0)
(249.675 0 0)
(249.69 0 0)
(249.705 0 0)
(249.721 0 0)
(249.74 0 0)
(249.762 0 0)
(249.781 0 0)
(249.797 0 0)
(249.812 0 0)
(249.827 0 0)
(249.841 0 0)
(249.857 0 0)
(249.872 0 0)
(249.887 0 0)
(249.903 0 0)
(249.924 0 0)
(249.957 0 0)
(249.984 0 0)
(250.001 0 0)
(250.015 0 0)
(250.028 0 0)
(250.04 0 0)
(250.054 0 0)
(250.069 0 0)
(250.084 0 0)
(250.1 0 0)
(250.118 0 0)
(250.14 0 0)
(250.159 0 0)
(250.175 0 0)
(250.19 0 0)
(250.205 0 0)
(250.22 0 0)
(250.235 0 0)
(250.25 0 0)
(250.266 0 0)
(250.282 0 0)
(250.304 0 0)
(250.333 0 0)
(250.356 0 0)
(250.371 0 0)
(250.386 0 0)
(250.4 0 0)
(250.413 0 0)
(250.427 0 0)
(250.442 0 0)
(250.457 0 0)
(250.472 0 0)
(250.488 0 0)
(250.503 0 0)
(250.519 0 0)
(250.538 0 0)
(250.569 0 0)
(250.603 0 0)
(250.622 0 0)
(250.637 0 0)
(250.651 0 0)
(250.661 0 0)
(250.67 0 0)
(250.683 0 0)
(250.698 0 0)
(250.714 0 0)
(250.729 0 0)
(250.745 0 0)
(250.767 0 0)
(250.801 0 0)
(250.828 0 0)
(250.844 0 0)
(250.859 0 0)
(250.871 0 0)
(250.882 0 0)
(250.896 0 0)
(250.911 0 0)
(250.926 0 0)
(250.941 0 0)
(250.958 0 0)
(250.979 0 0)
(251.003 0 0)
(251.02 0 0)
(251.035 0 0)
(251.05 0 0)
(251.065 0 0)
(251.08 0 0)
(251.096 0 0)
(251.114 0 0)
(251.136 0 0)
(251.157 0 0)
(251.173 0 0)
(251.189 0 0)
(251.204 0 0)
(251.219 0 0)
(251.234 0 0)
(251.25 0 0)
(251.27 0 0)
(251.294 0 0)
(251.312 0 0)
(251.328 0 0)
(251.343 0 0)
(251.358 0 0)
(251.374 0 0)
(251.389 0 0)
(251.407 0 0)
(251.428 0 0)
(251.446 0 0)
(251.462 0 0)
(251.477 0 0)
(251.492 0 0)
(251.508 0 0)
(251.524 0 0)
(251.544 0 0)
(251.569 0 0)
(251.59 0 0)
(251.605 0 0)
(251.621 0 0)
(251.636 0 0)
(251.651 0 0)
(251.666 0 0)
(251.682 0 0)
(251.7 0 0)
(251.723 0 0)
(251.742 0 0)
(251.758 0 0)
(251.773 0 0)
(251.788 0 0)
(251.804 0 0)
(251.819 0 0)
(251.836 0 0)
(251.855 0 0)
(251.872 0 0)
(251.888 0 0)
(251.903 0 0)
(251.918 0 0)
(251.933 0 0)
(251.949 0 0)
(251.964 0 0)
(251.981 0 0)
(252.005 0 0)
(252.042 0 0)
(252.067 0 0)
(252.083 0 0)
(252.098 0 0)
(252.111 0 0)
(252.121 0 0)
(252.134 0 0)
(252.149 0 0)
(252.164 0 0)
(252.179 0 0)
(252.195 0 0)
(252.21 0 0)
(252.226 0 0)
(252.244 0 0)
(252.268 0 0)
(252.292 0 0)
(252.309 0 0)
(252.324 0 0)
(252.34 0 0)
(252.355 0 0)
(252.37 0 0)
(252.385 0 0)
(252.4 0 0)
(252.416 0 0)
(252.431 0 0)
(252.446 0 0)
(252.462 0 0)
(252.478 0 0)
(252.5 0 0)
(252.535 0 0)
(252.564 0 0)
(252.58 0 0)
(252.595 0 0)
(252.608 0 0)
(252.619 0 0)
(252.632 0 0)
(252.648 0 0)
(252.663 0 0)
(252.678 0 0)
(252.694 0 0)
(252.713 0 0)
(252.735 0 0)
(252.753 0 0)
(252.769 0 0)
(252.785 0 0)
(252.8 0 0)
(252.818 0 0)
(252.838 0 0)
(252.857 0 0)
(252.872 0 0)
(252.888 0 0)
(252.903 0 0)
(252.918 0 0)
(252.933 0 0)
(252.949 0 0)
(252.964 0 0)
(252.98 0 0)
(253.001 0 0)
(253.029 0 0)
(253.053 0 0)
(253.069 0 0)
(253.084 0 0)
(253.098 0 0)
(253.111 0 0)
(253.124 0 0)
(253.139 0 0)
(253.154 0 0)
(253.169 0 0)
(253.185 0 0)
(253.2 0 0)
(253.216 0 0)
(253.239 0 0)
(253.274 0 0)
(253.303 0 0)
(253.32 0 0)
(253.335 0 0)
(253.349 0 0)
(253.358 0 0)
(253.369 0 0)
(253.384 0 0)
(253.399 0 0)
(253.414 0 0)
(253.429 0 0)
(253.445 0 0)
(253.461 0 0)
(253.479 0 0)
(253.505 0 0)
(253.533 0 0)
(253.551 0 0)
(253.567 0 0)
(253.582 0 0)
(253.596 0 0)
(253.61 0 0)
(253.626 0 0)
(253.641 0 0)
(253.657 0 0)
(253.673 0 0)
(253.693 0 0)
(253.719 0 0)
(253.738 0 0)
(253.753 0 0)
(253.768 0 0)
(253.784 0 0)
(253.799 0 0)
(253.814 0 0)
(253.83 0 0)
(253.847 0 0)
(253.866 0 0)
(253.885 0 0)
(253.901 0 0)
(253.916 0 0)
(253.932 0 0)
(253.947 0 0)
(253.962 0 0)
(253.977 0 0)
(253.993 0 0)
(254.009 0 0)
(254.027 0 0)
(254.054 0 0)
(254.087 0 0)
(254.106 0 0)
(254.122 0 0)
(254.136 0 0)
(254.149 0 0)
(254.162 0 0)
(254.177 0 0)
(254.192 0 0)
(254.208 0 0)
(254.224 0 0)
(254.243 0 0)
(254.266 0 0)
(254.285 0 0)
(254.3 0 0)
(254.316 0 0)
(254.331 0 0)
(254.346 0 0)
(254.362 0 0)
(254.378 0 0)
(254.397 0 0)
(254.415 0 0)
(254.431 0 0)
(254.446 0 0)
(254.461 0 0)
(254.476 0 0)
(254.492 0 0)
(254.507 0 0)
(254.522 0 0)
(254.538 0 0)
(254.556 0 0)
(254.585 0 0)
(254.621 0 0)
(254.642 0 0)
(254.657 0 0)
(254.672 0 0)
(254.683 0 0)
(254.69 0 0)
(254.701 0 0)
(254.716 0 0)
(254.732 0 0)
(254.747 0 0)
(254.763 0 0)
(254.782 0 0)
(254.812 0 0)
(254.847 0 0)
(254.867 0 0)
(254.883 0 0)
(254.897 0 0)
(254.908 0 0)
(254.917 0 0)
(254.93 0 0)
(254.945 0 0)
(254.96 0 0)
(254.976 0 0)
(254.991 0 0)
(255.006 0 0)
(255.023 0 0)
(255.042 0 0)
(255.072 0 0)
(255.099 0 0)
(255.116 0 0)
(255.132 0 0)
(255.146 0 0)
(255.16 0 0)
(255.175 0 0)
(255.19 0 0)
(255.206 0 0)
(255.221 0 0)
(255.239 0 0)
(255.26 0 0)
(255.281 0 0)
(255.297 0 0)
(255.313 0 0)
(255.328 0 0)
(255.343 0 0)
(255.358 0 0)
(255.374 0 0)
(255.389 0 0)
(255.404 0 0)
(255.42 0 0)
(255.44 0 0)
(255.467 0 0)
(255.493 0 0)
(255.51 0 0)
(255.525 0 0)
(255.54 0 0)
(255.554 0 0)
(255.568 0 0)
(255.583 0 0)
(255.599 0 0)
(255.614 0 0)
(255.63 0 0)
(255.649 0 0)
(255.672 0 0)
(255.691 0 0)
(255.706 0 0)
(255.722 0 0)
(255.737 0 0)
(255.752 0 0)
(255.768 0 0)
(255.784 0 0)
(255.804 0 0)
(255.83 0 0)
(255.852 0 0)
(255.868 0 0)
(255.883 0 0)
(255.898 0 0)
(255.913 0 0)
(255.929 0 0)
(255.944 0 0)
(255.96 0 0)
(255.978 0 0)
(256 0 0)
(256.019 0 0)
(256.034 0 0)
(256.05 0 0)
(256.065 0 0)
(256.081 0 0)
(256.097 0 0)
(256.114 0 0)
(256.135 0 0)
(256.155 0 0)
(256.172 0 0)
(256.187 0 0)
(256.202 0 0)
(256.218 0 0)
(256.233 0 0)
(256.248 0 0)
(256.263 0 0)
(256.279 0 0)
(256.294 0 0)
(256.311 0 0)
(256.333 0 0)
(256.365 0 0)
(256.39 0 0)
(256.406 0 0)
(256.421 0 0)
(256.435 0 0)
(256.449 0 0)
(256.463 0 0)
(256.478 0 0)
(256.493 0 0)
(256.509 0 0)
(256.524 0 0)
(256.54 0 0)
(256.555 0 0)
(256.573 0 0)
(256.597 0 0)
(256.623 0 0)
(256.641 0 0)
(256.657 0 0)
(256.672 0 0)
(256.687 0 0)
(256.701 0 0)
(256.716 0 0)
(256.732 0 0)
(256.747 0 0)
(256.763 0 0)
(256.778 0 0)
(256.795 0 0)
(256.819 0 0)
(256.846 0 0)
(256.865 0 0)
(256.881 0 0)
(256.896 0 0)
(256.911 0 0)
(256.927 0 0)
(256.942 0 0)
(256.958 0 0)
(256.975 0 0)
(256.994 0 0)
(257.014 0 0)
(257.03 0 0)
(257.045 0 0)
(257.061 0 0)
(257.076 0 0)
(257.092 0 0)
(257.109 0 0)
(257.129 0 0)
(257.152 0 0)
(257.17 0 0)
(257.186 0 0)
(257.201 0 0)
(257.216 0 0)
(257.232 0 0)
(257.248 0 0)
(257.265 0 0)
(257.285 0 0)
(257.307 0 0)
(257.324 0 0)
(257.34 0 0)
(257.355 0 0)
(257.37 0 0)
(257.385 0 0)
(257.401 0 0)
(257.416 0 0)
(257.431 0 0)
(257.447 0 0)
(257.463 0 0)
(257.482 0 0)
(257.509 0 0)
(257.534 0 0)
(257.551 0 0)
(257.566 0 0)
(257.581 0 0)
(257.597 0 0)
(257.612 0 0)
(257.628 0 0)
(257.643 0 0)
(257.66 0 0)
(257.679 0 0)
(257.702 0 0)
(257.719 0 0)
(257.735 0 0)
(257.75 0 0)
(257.766 0 0)
(257.781 0 0)
(257.797 0 0)
(257.813 0 0)
(257.833 0 0)
(257.857 0 0)
(257.876 0 0)
(257.891 0 0)
(257.907 0 0)
(257.922 0 0)
(257.938 0 0)
(257.953 0 0)
(257.97 0 0)
(257.988 0 0)
(258.008 0 0)
(258.026 0 0)
(258.042 0 0)
(258.057 0 0)
(258.073 0 0)
(258.088 0 0)
(258.103 0 0)
(258.119 0 0)
(258.134 0 0)
(258.151 0 0)
(258.17 0 0)
(258.199 0 0)
(258.226 0 0)
(258.243 0 0)
(258.258 0 0)
(258.273 0 0)
(258.287 0 0)
(258.299 0 0)
(258.313 0 0)
(258.329 0 0)
(258.344 0 0)
(258.36 0 0)
(258.375 0 0)
(258.391 0 0)
(258.408 0 0)
(258.43 0 0)
(258.46 0 0)
(258.483 0 0)
(258.499 0 0)
(258.514 0 0)
(258.529 0 0)
(258.543 0 0)
(258.558 0 0)
(258.573 0 0)
(258.589 0 0)
(258.604 0 0)
(258.62 0 0)
(258.638 0 0)
(258.657 0 0)
(258.674 0 0)
(258.69 0 0)
(258.705 0 0)
(258.721 0 0)
(258.736 0 0)
(258.752 0 0)
(258.768 0 0)
(258.786 0 0)
(258.815 0 0)
(258.848 0 0)
(258.868 0 0)
(258.883 0 0)
(258.898 0 0)
(258.911 0 0)
(258.922 0 0)
(258.936 0 0)
(258.951 0 0)
(258.967 0 0)
(258.982 0 0)
(258.998 0 0)
(259.014 0 0)
(259.031 0 0)
(259.047 0 0)
(259.062 0 0)
(259.078 0 0)
(259.093 0 0)
(259.109 0 0)
(259.125 0 0)
(259.144 0 0)
(259.174 0 0)
(259.209 0 0)
(259.229 0 0)
(259.245 0 0)
(259.26 0 0)
(259.273 0 0)
(259.283 0 0)
(259.297 0 0)
(259.312 0 0)
(259.328 0 0)
(259.343 0 0)
(259.359 0 0)
(259.377 0 0)
(259.398 0 0)
(259.418 0 0)
(259.435 0 0)
(259.45 0 0)
(259.466 0 0)
(259.483 0 0)
(259.501 0 0)
(259.519 0 0)
(259.536 0 0)
(259.551 0 0)
(259.567 0 0)
(259.582 0 0)
(259.598 0 0)
(259.614 0 0)
(259.629 0 0)
(259.645 0 0)
(259.665 0 0)
(259.693 0 0)
(259.72 0 0)
(259.737 0 0)
(259.753 0 0)
(259.768 0 0)
(259.783 0 0)
(259.798 0 0)
(259.814 0 0)
(259.829 0 0)
(259.845 0 0)
(259.861 0 0)
(259.88 0 0)
(259.898 0 0)
(259.914 0 0)
(259.929 0 0)
(259.945 0 0)
(259.96 0 0)
(259.976 0 0)
(259.992 0 0)
(260.008 0 0)
(260.027 0 0)
(260.054 0 0)
(260.079 0 0)
(260.095 0 0)
(260.111 0 0)
(260.126 0 0)
(260.142 0 0)
(260.157 0 0)
(260.173 0 0)
(260.188 0 0)
(260.204 0 0)
(260.219 0 0)
(260.236 0 0)
(260.255 0 0)
(260.277 0 0)
(260.295 0 0)
(260.311 0 0)
(260.327 0 0)
(260.342 0 0)
(260.358 0 0)
(260.374 0 0)
(260.392 0 0)
(260.412 0 0)
(260.432 0 0)
(260.448 0 0)
(260.464 0 0)
(260.479 0 0)
(260.495 0 0)
(260.51 0 0)
(260.524 0 0)
(260.54 0 0)
(260.555 0 0)
(260.571 0 0)
(260.586 0 0)
(260.603 0 0)
(260.621 0 0)
(260.649 0 0)
(260.684 0 0)
(260.705 0 0)
(260.721 0 0)
(260.736 0 0)
(260.75 0 0)
(260.762 0 0)
(260.777 0 0)
(260.792 0 0)
(260.808 0 0)
(260.823 0 0)
(260.839 0 0)
(260.855 0 0)
(260.87 0 0)
(260.886 0 0)
(260.902 0 0)
(260.917 0 0)
(260.933 0 0)
(260.948 0 0)
(260.964 0 0)
(260.981 0 0)
(261.005 0 0)
(261.041 0 0)
(261.07 0 0)
(261.087 0 0)
(261.103 0 0)
(261.117 0 0)
(261.128 0 0)
(261.135 0 0)
(261.148 0 0)
(261.164 0 0)
(261.179 0 0)
(261.195 0 0)
(261.211 0 0)
(261.228 0 0)
(261.25 0 0)
(261.277 0 0)
(261.295 0 0)
(261.311 0 0)
(261.327 0 0)
(261.342 0 0)
(261.356 0 0)
(261.368 0 0)
(261.382 0 0)
(261.398 0 0)
(261.413 0 0)
(261.429 0 0)
(261.445 0 0)
(261.46 0 0)
(261.477 0 0)
(261.5 0 0)
(261.536 0 0)
(261.57 0 0)
(261.588 0 0)
(261.604 0 0)
(261.618 0 0)
(261.631 0 0)
(261.639 0 0)
(261.649 0 0)
(261.663 0 0)
(261.679 0 0)
(261.694 0 0)
(261.71 0 0)
(261.726 0 0)
(261.741 0 0)
(261.757 0 0)
(261.772 0 0)
(261.788 0 0)
(261.804 0 0)
(261.82 0 0)
(261.841 0 0)
(261.875 0 0)
(261.912 0 0)
(261.933 0 0)
(261.948 0 0)
(261.963 0 0)
(261.976 0 0)
(261.984 0 0)
(261.993 0 0)
(262.007 0 0)
(262.022 0 0)
(262.038 0 0)
(262.053 0 0)
(262.069 0 0)
(262.085 0 0)
(262.102 0 0)
(262.124 0 0)
(262.153 0 0)
(262.174 0 0)
(262.19 0 0)
(262.206 0 0)
(262.221 0 0)
(262.236 0 0)
(262.25 0 0)
(262.266 0 0)
(262.281 0 0)
(262.297 0 0)
(262.313 0 0)
(262.33 0 0)
(262.351 0 0)
(262.375 0 0)
(262.393 0 0)
(262.408 0 0)
(262.424 0 0)
(262.44 0 0)
(262.455 0 0)
(262.471 0 0)
(262.487 0 0)
(262.503 0 0)
(262.521 0 0)
(262.538 0 0)
(262.554 0 0)
(262.569 0 0)
(262.585 0 0)
(262.601 0 0)
(262.616 0 0)
(262.632 0 0)
(262.648 0 0)
(262.667 0 0)
(262.696 0 0)
(262.732 0 0)
(262.753 0 0)
(262.768 0 0)
(262.784 0 0)
(262.798 0 0)
(262.808 0 0)
(262.817 0 0)
(262.832 0 0)
(262.847 0 0)
(262.863 0 0)
(262.878 0 0)
(262.894 0 0)
(262.91 0 0)
(262.925 0 0)
(262.942 0 0)
(262.962 0 0)
(262.992 0 0)
(263.018 0 0)
(263.036 0 0)
(263.051 0 0)
(263.067 0 0)
(263.081 0 0)
(263.094 0 0)
(263.106 0 0)
(263.121 0 0)
(263.136 0 0)
(263.152 0 0)
(263.167 0 0)
(263.183 0 0)
(263.199 0 0)
(263.214 0 0)
(263.23 0 0)
(263.246 0 0)
(263.263 0 0)
(263.285 0 0)
(263.322 0 0)
(263.357 0 0)
(263.376 0 0)
(263.391 0 0)
(263.406 0 0)
(263.419 0 0)
(263.428 0 0)
(263.436 0 0)
(263.45 0 0)
(263.466 0 0)
(263.482 0 0)
(263.497 0 0)
(263.513 0 0)
(263.529 0 0)
(263.544 0 0)
(263.561 0 0)
(263.581 0 0)
(263.609 0 0)
(263.633 0 0)
(263.65 0 0)
(263.665 0 0)
(263.681 0 0)
(263.696 0 0)
(263.712 0 0)
(263.727 0 0)
(263.743 0 0)
(263.759 0 0)
(263.775 0 0)
(263.793 0 0)
(263.815 0 0)
(263.835 0 0)
(263.851 0 0)
(263.867 0 0)
(263.882 0 0)
(263.898 0 0)
(263.913 0 0)
(263.928 0 0)
(263.944 0 0)
(263.96 0 0)
(263.976 0 0)
(263.992 0 0)
(264.012 0 0)
(264.04 0 0)
(264.066 0 0)
(264.083 0 0)
(264.098 0 0)
(264.114 0 0)
(264.129 0 0)
(264.142 0 0)
(264.156 0 0)
(264.172 0 0)
(264.188 0 0)
(264.203 0 0)
(264.219 0 0)
(264.235 0 0)
(264.251 0 0)
(264.27 0 0)
(264.295 0 0)
(264.319 0 0)
(264.336 0 0)
(264.352 0 0)
(264.368 0 0)
(264.383 0 0)
(264.398 0 0)
(264.414 0 0)
(264.429 0 0)
(264.445 0 0)
(264.46 0 0)
(264.476 0 0)
(264.492 0 0)
(264.508 0 0)
(264.524 0 0)
(264.541 0 0)
(264.566 0 0)
(264.596 0 0)
(264.616 0 0)
(264.632 0 0)
(264.647 0 0)
(264.662 0 0)
(264.677 0 0)
(264.69 0 0)
(264.705 0 0)
(264.72 0 0)
(264.736 0 0)
(264.752 0 0)
(264.767 0 0)
(264.783 0 0)
(264.799 0 0)
(264.815 0 0)
(264.83 0 0)
(264.846 0 0)
(264.862 0 0)
(264.88 0 0)
(264.905 0 0)
(264.941 0 0)
(264.967 0 0)
(264.983 0 0)
(264.999 0 0)
(265.014 0 0)
(265.028 0 0)
(265.039 0 0)
(265.05 0 0)
(265.065 0 0)
(265.081 0 0)
(265.096 0 0)
(265.112 0 0)
(265.129 0 0)
(265.149 0 0)
(265.175 0 0)
(265.195 0 0)
(265.211 0 0)
(265.227 0 0)
(265.242 0 0)
(265.258 0 0)
(265.273 0 0)
(265.288 0 0)
(265.304 0 0)
(265.32 0 0)
(265.335 0 0)
(265.351 0 0)
(265.367 0 0)
(265.384 0 0)
(265.404 0 0)
(265.43 0 0)
(265.453 0 0)
(265.47 0 0)
(265.486 0 0)
(265.501 0 0)
(265.517 0 0)
(265.532 0 0)
(265.548 0 0)
(265.563 0 0)
(265.579 0 0)
(265.595 0 0)
(265.611 0 0)
(265.626 0 0)
(265.643 0 0)
(265.66 0 0)
(265.683 0 0)
(265.711 0 0)
(265.73 0 0)
(265.746 0 0)
(265.762 0 0)
(265.777 0 0)
(265.793 0 0)
(265.807 0 0)
(265.821 0 0)
(265.837 0 0)
(265.853 0 0)
(265.868 0 0)
(265.884 0 0)
(265.9 0 0)
(265.916 0 0)
(265.934 0 0)
(265.958 0 0)
(265.984 0 0)
(266.002 0 0)
(266.018 0 0)
(266.034 0 0)
(266.049 0 0)
(266.065 0 0)
(266.08 0 0)
(266.096 0 0)
(266.111 0 0)
(266.127 0 0)
(266.143 0 0)
(266.159 0 0)
(266.176 0 0)
(266.196 0 0)
(266.22 0 0)
(266.238 0 0)
(266.254 0 0)
(266.27 0 0)
(266.286 0 0)
(266.301 0 0)
(266.316 0 0)
(266.331 0 0)
(266.347 0 0)
(266.363 0 0)
(266.379 0 0)
(266.395 0 0)
(266.411 0 0)
(266.431 0 0)
(266.462 0 0)
(266.494 0 0)
(266.512 0 0)
(266.528 0 0)
(266.543 0 0)
(266.558 0 0)
(266.568 0 0)
(266.578 0 0)
(266.592 0 0)
(266.608 0 0)
(266.624 0 0)
(266.639 0 0)
(266.655 0 0)
(266.671 0 0)
(266.687 0 0)
(266.703 0 0)
(266.722 0 0)
(266.75 0 0)
(266.78 0 0)
(266.799 0 0)
(266.815 0 0)
(266.831 0 0)
(266.846 0 0)
(266.86 0 0)
(266.873 0 0)
(266.887 0 0)
(266.902 0 0)
(266.918 0 0)
(266.934 0 0)
(266.949 0 0)
(266.965 0 0)
(266.981 0 0)
(266.997 0 0)
(267.012 0 0)
(267.028 0 0)
(267.044 0 0)
(267.06 0 0)
(267.077 0 0)
(267.099 0 0)
(267.135 0 0)
(267.168 0 0)
(267.187 0 0)
(267.202 0 0)
(267.218 0 0)
(267.232 0 0)
(267.242 0 0)
(267.249 0 0)
(267.262 0 0)
(267.277 0 0)
(267.293 0 0)
(267.309 0 0)
(267.325 0 0)
(267.341 0 0)
(267.357 0 0)
(267.375 0 0)
(267.399 0 0)
(267.428 0 0)
(267.448 0 0)
(267.464 0 0)
(267.48 0 0)
(267.496 0 0)
(267.511 0 0)
(267.526 0 0)
(267.542 0 0)
(267.558 0 0)
(267.573 0 0)
(267.59 0 0)
(267.607 0 0)
(267.627 0 0)
(267.644 0 0)
(267.66 0 0)
(267.676 0 0)
(267.692 0 0)
(267.708 0 0)
(267.724 0 0)
(267.74 0 0)
(267.756 0 0)
(267.773 0 0)
(267.794 0 0)
(267.819 0 0)
(267.839 0 0)
(267.855 0 0)
(267.871 0 0)
(267.887 0 0)
(267.902 0 0)
(267.917 0 0)
(267.932 0 0)
(267.948 0 0)
(267.964 0 0)
(267.979 0 0)
(267.995 0 0)
(268.011 0 0)
(268.028 0 0)
(268.047 0 0)
(268.074 0 0)
(268.097 0 0)
(268.114 0 0)
(268.13 0 0)
(268.145 0 0)
(268.161 0 0)
(268.177 0 0)
(268.192 0 0)
(268.208 0 0)
(268.224 0 0)
(268.24 0 0)
(268.257 0 0)
(268.277 0 0)
(268.296 0 0)
(268.312 0 0)
(268.328 0 0)
(268.344 0 0)
(268.36 0 0)
(268.375 0 0)
(268.391 0 0)
(268.407 0 0)
(268.423 0 0)
(268.439 0 0)
(268.456 0 0)
(268.476 0 0)
(268.508 0 0)
(268.537 0 0)
(268.555 0 0)
(268.571 0 0)
(268.586 0 0)
(268.601 0 0)
(268.613 0 0)
(268.625 0 0)
(268.641 0 0)
(268.656 0 0)
(268.672 0 0)
(268.688 0 0)
(268.704 0 0)
(268.72 0 0)