/*--------------------------------*- C++ -*----------------------------------*\
  =========                 |
  \\      /  F ield         | OpenFOAM: The Open Source CFD Toolbox
   \\    /   O peration     | Website:  https://openfoam.org
    \\  /    A nd           | Version:  9
     \\/     M anipulation  |
\*---------------------------------------------------------------------------*/
FoamFile
{
    format      ascii;
    class       volScalarField;
    location    "0.013";
    object      T;
}
// * * * * * * * * * * * * * * * * * * * * * * * * * * * * * * * * * * * * * //

dimensions      [0 0 0 1 0 0 0];

internalField   nonuniform List<scalar> 
10000
(
348.432
348.432
348.432
348.432
348.432
348.432
348.432
348.432
348.432
348.432
348.432
348.432
348.432
348.432
348.432
348.432
348.432
348.432
348.432
348.432
348.432
348.432
348.432
348.432
348.432
348.432
348.432
348.432
348.432
348.432
348.432
348.432
348.432
348.432
348.432
348.432
348.432
348.432
348.432
348.432
348.432
348.432
348.432
348.432
348.432
348.432
348.432
348.432
348.432
348.432
348.432
348.432
348.432
348.432
348.432
348.432
348.432
348.432
348.432
348.432
348.432
348.432
348.432
348.432
348.432
348.432
348.432
348.432
348.432
348.432
348.432
348.432
348.432
348.432
348.432
348.432
348.432
348.432
348.432
348.432
348.432
348.432
348.432
348.432
348.432
348.432
348.432
348.432
348.432
348.432
348.432
348.432
348.432
348.432
348.432
348.432
348.432
348.432
348.432
348.432
348.432
348.432
348.432
348.432
348.432
348.432
348.432
348.432
348.432
348.432
348.432
348.432
348.432
348.432
348.432
348.432
348.432
348.432
348.432
348.432
348.432
348.432
348.432
348.432
348.432
348.432
348.432
348.432
348.432
348.432
348.432
348.432
348.432
348.432
348.432
348.432
348.432
348.432
348.432
348.432
348.432
348.432
348.432
348.432
348.432
348.432
348.432
348.432
348.432
348.432
348.432
348.432
348.432
348.432
348.432
348.432
348.432
348.432
348.432
348.432
348.432
348.432
348.432
348.432
348.432
348.432
348.432
348.432
348.432
348.432
348.432
348.432
348.432
348.432
348.432
348.432
348.432
348.432
348.432
348.432
348.432
348.432
348.432
348.432
348.432
348.432
348.432
348.432
348.432
348.432
348.432
348.432
348.432
348.432
348.432
348.432
348.432
348.432
348.432
348.432
348.432
348.432
348.432
348.432
348.432
348.432
348.432
348.432
348.432
348.432
348.432
348.432
348.432
348.432
348.432
348.432
348.432
348.432
348.432
348.432
348.432
348.432
348.432
348.432
348.432
348.432
348.432
348.431
348.43
348.426
348.412
348.366
348.217
347.731
346.921
346.389
346.135
345.97
345.917
345.873
345.834
345.817
345.817
345.799
345.772
345.754
345.754
345.742
345.717
345.697
345.695
345.69
345.668
345.648
345.643
345.643
345.625
345.607
345.599
345.601
345.589
345.574
345.565
345.567
345.56
345.548
345.539
345.541
345.538
345.529
345.523
345.523
345.523
345.517
345.513
345.513
345.514
345.511
345.509
345.51
345.51
345.509
345.508
345.507
345.503
345.492
345.454
345.336
344.953
344.165
343.559
343.224
343.083
342.965
342.915
342.905
342.878
342.852
342.837
342.838
342.824
342.799
342.78
342.78
342.773
342.751
342.731
342.726
342.726
342.709
342.69
342.681
342.683
342.672
342.656
342.644
342.646
342.641
342.627
342.616
342.615
342.615
342.605
342.595
342.592
342.594
342.587
342.58
342.576
342.578
342.575
342.569
342.566
342.567
342.566
342.562
342.559
342.56
342.56
342.558
342.556
342.556
342.556
342.555
342.554
342.554
342.554
342.554
342.553
342.553
342.553
342.553
342.553
342.553
342.553
342.553
342.553
342.553
342.553
342.553
342.553
342.553
342.553
342.553
342.553
342.553
342.553
342.553
342.553
342.553
342.553
342.553
342.553
342.553
342.553
342.553
342.553
342.553
342.553
342.553
342.553
342.553
342.553
342.553
342.553
342.553
342.553
342.553
342.553
342.553
342.553
342.553
342.553
342.553
342.553
342.553
342.553
342.553
342.553
342.553
342.553
342.553
342.553
342.553
342.552
342.551
342.546
342.53
342.477
342.305
341.879
341.488
341.291
341.166
341.126
341.095
341.066
341.049
341.049
341.039
341.018
341
340.995
340.993
340.974
340.954
340.943
340.944
340.932
340.912
340.896
340.895
340.89
340.872
340.855
340.848
340.848
340.835
340.818
340.806
340.807
340.8
340.784
340.77
340.767
340.767
340.754
340.74
340.733
340.735
340.727
340.714
340.705
340.705
340.703
340.693
340.684
340.681
340.682
340.675
340.667
340.663
340.665
340.661
340.655
340.651
340.652
340.652
340.648
340.645
340.645
340.646
340.645
340.644
340.643
340.643
340.641
340.635
340.617
340.56
340.388
340.172
340.04
339.989
339.944
339.924
339.922
339.913
339.9
339.89
339.89
339.888
339.878
339.869
339.866
339.867
339.861
339.854
339.849
339.851
339.848
339.843
339.838
339.838
339.839
339.835
339.832
339.831
339.832
339.83
339.828
339.828
339.829
339.829
339.828
339.827
339.826
339.825
339.818
339.797
339.73
339.517
339.175
338.957
338.829
338.788
338.75
338.723
338.711
338.713
338.7
338.682
338.67
338.671
338.667
338.652
338.639
338.636
338.637
338.628
338.616
338.609
338.611
338.607
338.598
338.591
338.591
338.591
338.586
338.581
338.58
338.582
338.58
338.578
338.577
338.577
338.575
338.567
338.542
338.464
338.296
338.165
338.086
338.06
338.039
338.022
338.015
338.016
338.009
337.999
337.992
337.993
337.993
337.986
337.981
337.98
337.981
337.979
337.975
337.974
337.976
337.976
337.974
337.973
337.972
337.968
337.955
337.913
337.786
337.599
337.485
337.416
337.39
337.374
337.36
337.353
337.354
337.351
337.344
337.34
337.34
337.34
337.337
337.334
337.334
337.335
337.333
337.327
337.313
337.274
337.169
337.056
336.988
336.956
336.943
336.929
336.92
336.916
336.916
336.911
336.904
336.899
336.901
336.9
336.897
336.894
336.894
336.893
336.888
336.87
336.815
336.675
336.538
336.469
336.419
336.402
336.398
336.385
336.372
336.365
336.368
336.363
336.353
336.346
336.346
336.347
336.343
336.338
336.337
336.34
336.339
336.336
336.333
336.326
336.305
336.236
336.086
335.959
335.902
335.86
335.84
335.836
335.828
335.818
335.811
335.811
335.809
335.802
335.795
335.793
335.795
335.792
335.787
335.784
335.786
335.786
335.785
335.784
335.783
335.782
335.778
335.763
335.719
335.583
335.372
335.238
335.155
335.127
335.109
335.089
335.076
335.076
335.074
335.062
335.052
335.047
335.05
335.044
335.035
335.029
335.03
335.03
335.024
335.018
335.016
335.018
335.016
335.012
335.009
335.01
335.01
335.009
335.007
335.007
335.008
335.007
335.004
334.997
334.978
334.917
334.741
334.519
334.379
334.322
334.276
334.252
334.247
334.243
334.23
334.218
334.213
334.215
334.208
334.198
334.191
334.193
334.193
334.187
334.182
334.181
334.183
334.183
334.18
334.177
334.172
334.159
334.117
333.999
333.858
333.777
333.738
333.708
333.693
333.689
333.682
333.672
333.665
333.664
333.663
333.656
333.65
333.648
333.649
333.646
333.641
333.639
333.641
333.641
333.639
333.637
333.635
333.63
333.612
333.555
333.399
333.222
333.127
333.062
333.037
333.029
333.014
333.001
332.995
332.997
332.991
332.982
332.975
332.976
332.977
332.973
332.968
332.968
332.97
332.969
332.966
332.959
332.942
332.892
332.759
332.616
332.527
332.495
332.471
332.451
332.441
332.443
332.438
332.427
332.418
332.416
332.418
332.413
332.406
332.403
332.405
332.405
332.403
332.401
332.4
332.399
332.393
332.375
332.322
332.183
332.033
331.953
331.897
331.876
331.872
331.859
331.847
331.84
331.843
331.84
331.832
331.825
331.824
331.826
331.823
331.819
331.817
331.818
331.818
331.815
331.808
331.791
331.741
331.616
331.488
331.406
331.373
331.355
331.336
331.326
331.328
331.326
331.319
331.314
331.314
331.316
331.313
331.308
331.297
331.273
331.206
331.107
331.038
331
330.989
330.978
330.967
330.96
330.961
330.96
330.955
330.95
330.949
330.951
330.949
330.943
330.925
330.877
330.769
330.664
330.607
330.564
330.543
330.54
330.538
330.527
330.517
330.511
330.513
330.513
330.507
330.502
330.501
330.503
330.501
330.494
330.476
330.427
330.311
330.198
330.126
330.088
330.074
330.061
330.049
330.042
330.042
330.039
330.031
330.024
330.023
330.025
330.022
330.018
330.016
330.015
330.009
329.988
329.921
329.791
329.689
329.642
329.603
329.583
329.581
329.578
329.566
329.556
329.551
329.554
329.552
329.545
329.541
329.542
329.544
329.541
329.531
329.51
329.452
329.333
329.238
329.181
329.148
329.138
329.134
329.122
329.111
329.104
329.107
329.107
329.101
329.095
329.095
329.095
329.09
329.072
329.02
328.915
328.828
328.792
328.761
328.74
328.731
328.734
328.729
328.718
328.71
328.709
328.713
328.711
328.706
328.698
328.685
328.646
328.546
328.44
328.371
328.347
328.332
328.314
328.301
328.299
328.3
328.291
328.281
328.275
328.277
328.277
328.273
328.268
328.267
328.268
328.265
328.252
328.214
328.113
327.975
327.892
327.834
327.805
327.799
327.791
327.777
327.766
327.763
327.765
327.759
327.75
327.745
327.746
327.748
327.745
327.741
327.739
327.738
327.732
327.71
327.645
327.509
327.395
327.339
327.295
327.271
327.265
327.261
327.25
327.239
327.233
327.235
327.232
327.225
327.219
327.218
327.221
327.22
327.216
327.213
327.21
327.201
327.173
327.087
326.947
326.851
326.796
326.768
326.754
326.74
326.73
326.724
326.724
326.719
326.71
326.703
326.701
326.704
326.702
326.698
326.695
326.694
326.694
326.687
326.665
326.599
326.469
326.362
326.309
326.267
326.245
326.241
326.238
326.227
326.216
326.209
326.212
326.21
326.202
326.196
326.195
326.198
326.198
326.194
326.189
326.183
326.166
326.114
325.989
325.865
325.792
325.763
325.74
325.721
325.711
325.712
325.708
325.697
325.688
325.684
325.686
325.682
325.675
325.67
325.67
325.672
325.671
325.667
325.664
325.662
325.654
325.628
325.549
325.392
325.262
325.198
325.153
325.126
325.117
325.115
325.105
325.093
325.085
325.085
325.084
325.076
325.068
325.064
325.066
325.066
325.062
325.058
325.058
325.059
325.057
325.049
325.029
324.975
324.845
324.71
324.633
324.58
324.556
324.552
324.543
324.529
324.518
324.514
324.518
324.512
324.503
324.495
324.493
324.497
324.495
324.49
324.486
324.486
324.488
324.485
324.475
324.446
324.367
324.226
324.12
324.056
324.018
324.004
323.996
323.984
323.974
323.97
323.972
323.967
323.958
323.951
323.951
323.954
323.952
323.948
323.945
323.943
323.936
323.915
323.847
323.721
323.62
323.572
323.537
323.514
323.505
323.504
323.496
323.487
323.48
323.481
323.481
323.476
323.472
323.471
323.471
323.468
323.457
323.426
323.345
323.233
323.162
323.111
323.085
323.079
323.071
323.059
323.049
323.045
323.047
323.042
323.033
323.027
323.027
323.029
323.027
323.022
323.02
323.02
323.016
323.002
322.959
322.846
322.695
322.6
322.546
322.507
322.491
322.488
322.478
322.466
322.456
322.454
322.455
322.447
322.439
322.433
322.435
322.435
322.431
322.427
322.426
322.427
322.425
322.416
322.394
322.333
322.204
322.088
322.015
321.973
321.958
321.946
321.932
321.922
321.92
321.919
321.911
321.901
321.895
321.896
321.896
321.891
321.886
321.884
321.887
321.887
321.883
321.876
321.861
321.824
321.721
321.581
321.485
321.428
321.406
321.394
321.378
321.366
321.362
321.364
321.358
321.349
321.343
321.344
321.347
321.344
321.337
321.326
321.298
321.242
321.195
321.158
321.139
321.136
321.134
321.126
321.117
321.108
321.092
321.046
320.945
320.849
320.791
320.77
320.758
320.738
320.722
320.713
320.717
320.711
320.699
320.691
320.689
320.694
320.691
320.681
320.66
320.613
320.557
320.527
320.498
320.48
320.473
320.473
320.459
320.417
320.334
320.255
320.218
320.198
320.17
320.149
320.139
320.145
320.138
320.124
320.113
320.112
320.115
320.109
320.089
320.038
319.96
319.909
319.888
319.862
319.841
319.829
319.833
319.831
319.823
319.813
319.807
319.8
319.778
319.713
319.625
319.564
319.54
319.523
319.507
319.497
319.495
319.489
319.482
319.477
319.47
319.451
319.399
319.333
319.292
319.281
319.276
319.26
319.243
319.233
319.232
319.229
319.209
319.159
319.105
319.078
319.075
319.062
319.046
319.028
319.007
318.981
318.946
318.907
318.871
318.841
318.813
318.776
318.735
318.704
318.691
318.69
318.678
318.661
318.644
318.631
318.615
318.585
318.547
318.512
318.489
318.474
318.452
318.425
318.401
318.386
318.372
318.345
318.315
318.287
318.269
318.255
318.232
318.204
318.179
318.163
318.148
318.126
318.098
318.071
318.048
318.023
317.994
317.967
317.947
317.949
317.944
317.912
317.872
317.836
317.806
317.784
317.759
317.736
317.723
317.73
317.728
317.695
317.65
317.602
317.568
317.543
317.545
317.553
317.529
317.491
317.458
317.439
317.44
317.413
317.372
317.333
317.303
317.297
317.304
317.282
317.243
317.207
317.179
317.179
317.168
317.132
317.092
317.061
317.049
317.051
317.024
316.985
316.953
316.939
316.944
316.922
316.883
316.843
316.81
316.789
316.777
316.757
316.737
316.732
316.724
316.69
316.649
316.614
316.588
316.589
316.577
316.541
316.504
316.474
316.47
316.469
316.437
316.398
316.365
316.348
316.351
316.326
316.287
316.253
316.23
316.235
316.22
316.183
316.142
316.111
316.1
316.108
316.086
316.046
316.004
315.973
315.96
315.969
315.952
315.915
315.874
315.843
315.832
315.833
315.805
315.765
315.731
315.708
315.713
315.7
315.663
315.626
315.597
315.593
315.584
315.55
315.51
315.479
315.467
315.469
315.441
315.399
315.362
315.335
315.336
315.35
315.33
315.29
315.236
315.194
315.163
315.155
315.172
315.18
315.152
315.11
315.063
315.024
314.99
314.961
314.948
314.959
314.972
314.952
314.913
314.864
314.822
314.79
314.771
314.775
314.76
314.727
314.697
314.691
314.681
314.645
314.602
314.566
314.541
314.542
314.549
314.525
314.487
314.453
314.43
314.41
314.378
314.344
314.317
314.316
314.319
314.292
314.252
314.218
314.193
314.189
314.167
314.131
314.098
314.078
314.084
314.067
314.029
313.99
313.96
313.951
313.947
313.916
313.88
313.85
313.846
313.838
313.804
313.759
313.723
313.697
313.699
313.71
313.689
313.65
313.613
313.584
313.581
313.576
313.542
313.497
313.457
313.428
313.422
313.434
313.419
313.381
313.337
313.303
313.28
313.286
313.277
313.242
313.203
313.171
313.157
313.156
313.129
313.091
313.059
313.042
313.046
313.025
312.986
312.949
312.919
312.914
312.909
312.877
312.841
312.811
312.804
312.793
312.759
312.721
312.691
312.678
312.687
312.668
312.63
312.59
312.56
312.549
312.55
312.523
312.487
312.456
312.443
312.434
312.401
312.362
312.33
312.309
312.317
312.31
312.276
312.232
312.196
312.17
312.169
312.171
312.142
312.101
312.063
312.035
312.031
312.034
312.005
311.966
311.932
311.907
311.911
311.91
311.878
311.836
311.793
311.758
311.726
311.703
311.702
311.717
311.714
311.681
311.639
311.595
311.562
311.538
311.54
311.53
311.496
311.461
311.432
311.428
311.414
311.379
311.341
311.31
311.297
311.307
311.291
311.254
311.216
311.186
311.177
311.172
311.139
311.097
311.061
311.036
311.04
311.06
311.044
311.005
310.948
310.89
310.856
310.831
310.84
310.878
310.893
310.868
310.826
310.764
310.693
310.648
310.613
310.584
310.566
310.584
310.631
310.65
310.626
310.584
310.518
310.433
310.382
310.35
310.329
310.344
310.395
310.423
310.404
310.364
310.303
310.221
310.168
310.136
310.113
310.124
310.163
310.18
310.155
310.115
310.057
310.006
309.971
309.944
309.94
309.951
309.935
309.899
309.864
309.837
309.836
309.824
309.789
309.744
309.707
309.68
309.678
309.691
309.674
309.637
309.593
309.559
309.535
309.538
309.527
309.493
309.451
309.418
309.395
309.402
309.414
309.392
309.354
309.307
309.266
309.231
309.2
309.174
309.171
309.192
309.202
309.177
309.138
309.087
309.039
309.002
308.97
308.943
308.937
308.959
308.977
308.957
308.92
308.871
308.822
308.785
308.751
308.722
308.704
308.715
308.734
308.719
308.683
308.637
308.598
308.568
308.555
308.565
308.553
308.517
308.472
308.427
308.392
308.362
308.34
308.348
308.377
308.383
308.355
308.315
308.264
308.22
308.184
308.151
308.12
308.095
308.099
308.127
308.137
308.11
308.068
308.007
307.951
307.915
307.886
307.876
307.891
307.9
307.876
307.839
307.806
307.781
307.768
307.741
307.707
307.677
307.657
307.662
307.645
307.609
307.566
307.532
307.506
307.505
307.516
307.496
307.462
307.43
307.412
307.399
307.366
307.323
307.272
307.238
307.213
307.218
307.248
307.253
307.224
307.181
307.126
307.084
307.054
307.035
307.044
307.044
307.013
306.975
306.941
306.915
306.914
306.901
306.867
306.832
306.803
306.794
306.79
306.759
306.722
306.691
306.67
306.677
306.665
306.63
306.586
306.549
306.521
306.512
306.523
306.507
306.472
306.435
306.406
306.395
306.385
306.353
306.314
306.279
306.253
306.25
306.263
306.246
306.211
306.176
306.147
306.139
306.119
306.083
306.032
305.983
305.952
305.933
305.95
305.989
305.989
305.957
305.911
305.843
305.79
305.759
305.736
305.746
305.78
305.783
305.752
305.708
305.643
305.594
305.563
305.54
305.547
305.571
305.56
305.526
305.48
305.437
305.407
305.39
305.401
305.403
305.372
305.328
305.27
305.231
305.202
305.196
305.22
305.233
305.207
305.166
305.111
305.067
305.038
305.025
305.044
305.064
305.043
305.004
304.944
304.88
304.843
304.815
304.813
304.849
304.882
304.867
304.83
304.774
304.685
304.621
304.587
304.56
304.561
304.606
304.659
304.657
304.624
304.577
304.498
304.417
304.374
304.344
304.328
304.348
304.4
304.417
304.392
304.352
304.29
304.223
304.183
304.154
304.143
304.164
304.185
304.165
304.127
304.07
304.007
303.969
303.941
303.935
303.963
303.988
303.97
303.934
303.88
303.824
303.789
303.761
303.757
303.779
303.779
303.748
303.704
303.649
303.611
303.584
303.579
303.605
303.619
303.594
303.553
303.491
303.431
303.396
303.369
303.367
303.396
303.412
303.388
303.35
303.294
303.243
303.21
303.184
303.183
303.202
303.191
303.158
303.113
303.071
303.042
303.027
303.043
303.053
303.027
302.986
302.923
302.865
302.831
302.804
302.803
302.836
302.858
302.837
302.8
302.744
302.686
302.65
302.622
302.616
302.639
302.653
302.629
302.589
302.53
302.472
302.436
302.409
302.403
302.429
302.449
302.428
302.391
302.342
302.299
302.269
302.248
302.256
302.26
302.231
302.189
302.127
302.078
302.048
302.025
302.036
302.077
302.088
302.062
302.022
301.962
301.905
301.869
301.842
301.834
301.854
301.857
301.827
301.786
301.734
301.699
301.672
301.669
301.697
301.71
301.684
301.644
301.582
301.519
301.483
301.455
301.447
301.474
301.503
301.487
301.452
301.402
301.339
301.297
301.267
301.243
301.247
301.268
301.259
301.227
301.188
301.154
301.127
301.121
301.121
301.093
301.057
301.017
300.983
300.95
300.918
300.89
300.869
300.879
300.912
300.912
300.881
300.838
300.771
300.716
300.683
300.658
300.659
300.693
300.71
300.686
300.648
300.59
300.527
300.489
300.461
300.45
300.472
300.497
300.481
300.446
300.395
300.338
300.301
300.273
300.26
300.277
300.288
300.264
300.226
300.179
300.141
300.112
300.094
300.104
300.098
300.067
300.028
299.992
299.964
299.951
299.959
299.944
299.911
299.88
299.855
299.855
299.843
299.808
299.757
299.691
299.649
299.62
299.602
299.619
299.67
299.686
299.662
299.623
299.563
299.485
299.44
299.41
299.387
299.396
299.438
299.455
299.431
299.393
299.335
299.267
299.227
299.198
299.178
299.19
299.228
299.234
299.206
299.168
299.116
299.07
299.036
299.004
298.973
298.941
298.913
298.889
298.891
298.924
298.941
298.918
298.881
298.825
298.759
298.719
298.69
298.671
298.683
298.713
298.706
298.674
298.632
298.587
298.556
298.53
298.527
298.534
298.51
298.472
298.415
298.363
298.332
298.308
298.312
298.35
298.366
298.342
298.305
298.25
298.192
298.156
298.128
298.113
298.127
298.138
298.114
298.078
298.032
297.995
297.967
297.953
297.967
297.964
297.933
297.891
297.84
297.805
297.779
297.773
297.802
297.825
297.806
297.77
297.719
297.644
297.592
297.558
297.528
297.502
297.491
297.515
297.557
297.554
297.523
297.481
297.412
297.347
297.31
297.283
297.268
297.29
297.334
297.335
297.305
297.265
297.204
297.153
297.121
297.095
297.09
297.113
297.116
297.088
297.049
296.995
296.954
296.925
296.908
296.922
296.941
296.922
296.886
296.831
296.755
296.708
296.678
296.656
296.667
296.721
296.757
296.742
296.708
296.658
296.579
296.518
296.483
296.455
296.442
296.461
296.491
296.478
296.445
296.398
296.338
296.298
296.27
296.253
296.27
296.305
296.298
296.266
296.222
296.152
296.094
296.061
296.034
296.027
296.056
296.093
296.083
296.051
296.008
295.945
295.898
295.866
295.839
295.826
295.837
295.826
295.795
295.756
295.724
295.699
295.698
295.727
295.729
295.7
295.658
295.586
295.504
295.461
295.433
295.412
295.424
295.482
295.522
295.509
295.476
295.429
295.353
295.287
295.25
295.223
295.205
295.22
295.257
295.254
295.224
295.183
295.121
295.071
295.041
295.016
295.017
295.053
295.074
295.053
295.017
294.962
294.877
294.82
294.787
294.761
294.75
294.778
294.845
294.863
294.84
294.804
294.75
294.659
294.583
294.544
294.514
294.487
294.472
294.492
294.552
294.575
294.555
294.52
294.47
294.394
294.34
294.307
294.28
294.266
294.286
294.316
294.304
294.272
294.229
294.173
294.135
294.107
294.086
294.095
294.118
294.106
294.074
294.033
293.988
293.957
293.931
293.922
293.915
293.885
293.846
293.8
293.766
293.74
293.733
293.756
293.765
293.74
293.703
293.65
293.603
293.573
293.549
293.554
293.592
293.606
293.582
293.545
293.487
293.406
293.358
293.328
293.304
293.305
293.347
293.385
293.372
293.34
293.295
293.218
293.151
293.114
293.087
293.068
293.082
293.126
293.133
293.107
293.07
293.012
292.953
292.917
292.891
292.876
292.895
292.926
292.915
292.883
292.839
292.768
292.713
292.681
292.656
292.649
292.681
292.722
292.713
292.682
292.638
292.565
292.496
292.459
292.432
292.413
292.427
292.476
292.49
292.467
292.431
292.376
292.301
292.256
292.226
292.202
292.2
292.234
292.256
292.236
292.202
292.152
292.083
292.039
292.01
291.985
291.985
292.017
292.032
292.009
291.974
291.923
291.868
291.834
291.807
291.793
291.811
291.833
291.816
291.783
291.734
291.665
291.62
291.589
291.564
291.56
291.591
291.62
291.605
291.573
291.533
291.489
291.456
291.427
291.398
291.369
291.339
291.309
291.279
291.253
291.235
291.246
291.267
291.25
291.218
291.173
291.124
291.092
291.066
291.06
291.091
291.121
291.106
291.073
291.025
290.938
290.857
290.818
290.79
290.768
290.775
290.831
290.88
290.871
290.841
290.8
290.73
290.652
290.611
290.582
290.558
290.556
290.592
290.619
290.602
290.57
290.524
290.46
290.417
290.389
290.366
290.369
290.407
290.421
290.398
290.362
290.306
290.213
290.151
290.117
290.091
290.077
290.099
290.168
290.195
290.176
290.143
290.094
290.009
289.932
289.894
289.866
289.844
289.848
289.897
289.94
289.929
289.899
289.857
289.785
289.707
289.667
289.638
289.614
289.612
289.648
289.682
289.668
289.637
289.595
289.53
289.48
289.448
289.422
289.409
289.428
289.45
289.433
289.401
289.356
289.301
289.265
289.238
289.219
289.231
289.266
289.263
289.234
289.195
289.13
289.048
289.003
288.973
288.947
288.929
288.943
289.002
289.032
289.015
288.984
288.939
288.866
288.8
288.764
288.736
288.713
288.713
288.745
288.754
288.73
288.696
288.646
288.595
288.562
288.536
288.523
288.543
288.569
288.553
288.522
288.478
288.41
288.361
288.33
288.305
288.294
288.318
288.351
288.339
288.309
288.268
288.206
288.156
288.124
288.098
288.081
288.092
288.109
288.09
288.059
288.016
287.974
287.943
287.919
287.91
287.93
287.93
287.903
287.867
287.814
287.769
287.74
287.715
287.711
287.739
287.75
287.726
287.692
287.638
287.559
287.511
287.481
287.456
287.445
287.473
287.542
287.561
287.541
287.508
287.463
287.386
287.318
287.281
287.251
287.223
287.194
287.166
287.142
287.133
287.16
287.22
287.229
287.204
287.17
287.117
287.02
286.934
286.893
286.864
286.839
286.826
286.848
286.924
286.963
286.949
286.918
286.877
286.806
286.723
286.679
286.65
286.624
286.611
286.632
286.673
286.669
286.641
286.604
286.546
286.484
286.449
286.422
286.401
286.407
286.446
286.456
286.433
286.399
286.348
286.276
286.231
286.202
286.177
286.166
286.191
286.226
286.216
286.187
286.148
286.089
286.036
286.004
285.978
285.956
285.958
285.98
285.969
285.941
285.903
285.859
285.826
285.8
285.78
285.785
285.788
285.764
285.731
285.69
285.658
285.632
285.617
285.632
285.65
285.632
285.6
285.553
285.48
285.43
285.399
285.374
285.362
285.387
285.435
285.434
285.407
285.371
285.313
285.235
285.19
285.161
285.136
285.123
285.144
285.186
285.181
285.154
285.118
285.061
284.998
284.962
284.935
284.911
284.906
284.933
284.944
284.922
284.889
284.844
284.792
284.759
284.733
284.711
284.714
284.736
284.726
284.697
284.66
284.611
284.575
284.548
284.525
284.523
284.547
284.545
284.519
284.485
284.436
284.387
284.355
284.327
284.299
284.271
284.245
284.224
284.226
284.256
284.259
284.234
284.201
284.154
284.108
284.077
284.052
284.034
284.043
284.059
284.04
284.009
283.964
283.899
283.856
283.827
283.803
283.794
283.823
283.861
283.851
283.823
283.785
283.725
283.66
283.625
283.597
283.574
283.566
283.594
283.626
283.614
283.585
283.547
283.486
283.421
283.384
283.355
283.328
283.305
283.298
283.327
283.363
283.352
283.324
283.287
283.23
283.17
283.136
283.108
283.084
283.075
283.097
283.113
283.094
283.064
283.027
282.991
282.964
282.94
282.933
282.935
282.913
282.88
282.828
282.752
282.707
282.678
282.654
282.646
282.68
282.747
282.756
282.733
282.7
282.652
282.568
282.503
282.469
282.442
282.419
282.415
282.448
282.482
282.469
282.44
282.402
282.34
282.28
282.246
282.219
282.197
282.195
282.228
282.245
282.225
282.194
282.151
282.087
282.042
282.013
281.989
281.975
281.994
282.028
282.019
281.991
281.954
281.893
281.822
281.785
281.757
281.734
281.726
281.756
281.8
281.794
281.767
281.732
281.676
281.604
281.562
281.534
281.509
281.49
281.499
281.533
281.529
281.502
281.469
281.42
281.372
281.341
281.315
281.293
281.291
281.316
281.313
281.287
281.255
281.214
281.181
281.153
281.127
281.107
281.088
281.063
281.035
281.007
280.981
280.957
280.946
280.957
280.947
280.92
280.888
280.856
280.829
280.807
280.805
280.802
280.777
280.744
280.695
280.648
280.619
280.594
280.58
280.598
280.645
280.646
280.621
280.589
280.541
280.465
280.413
280.382
280.354
280.327
280.301
280.278
280.268
280.294
280.357
280.369
280.347
280.317
280.275
280.202
280.123
280.083
280.054
280.027
280
279.973
279.947
279.924
279.913
279.939
279.995
279.999
279.975
279.944
279.898
279.821
279.762
279.729
279.703
279.68
279.674
279.705
279.739
279.727
279.699
279.664
279.606
279.544
279.51
279.483
279.459
279.447
279.468
279.49
279.474
279.445
279.408
279.353
279.311
279.283
279.258
279.241
279.252
279.276
279.263
279.235
279.198
279.142
279.093
279.063
279.038
279.017
279.021
279.052
279.052
279.027
278.995
278.947
278.892
278.859
278.832
278.809
278.803
278.827
278.836
278.813
278.783
278.738
278.669
278.622
278.593
278.568
278.548
278.555
278.6
278.617
278.598
278.568
278.53
278.469
278.418
278.388
278.362
278.338
278.325
278.339
278.346
278.324
278.295
278.255
278.21
278.179
278.152
278.129
278.113
278.123
278.121
278.096
278.069
278.043
278.021
278.015
278
277.973
277.938
277.89
277.853
277.826
277.803
277.795
277.82
277.834
277.814
277.784
277.743
277.681
277.637
277.609
277.584
277.566
277.576
277.617
277.62
277.596
277.565
277.52
277.446
277.393
277.363
277.336
277.313
277.303
277.325
277.349
277.333
277.305
277.271
277.225
277.19
277.163
277.14
277.124
277.133
277.132
277.107
277.076
277.032
276.986
276.957
276.932
276.912
276.916
276.947
276.944
276.919
276.887
276.839
276.778
276.741
276.714
276.69
276.673
276.685
276.714
276.705
276.678
276.646
276.596
276.543
276.511
276.485
276.461
276.446
276.459
276.477
276.46
276.433
276.399
276.359
276.328
276.302
276.277
276.258
276.246
276.224
276.198
276.171
276.146
276.125
276.124
276.137
276.122
276.094
276.059
276.006
275.963
275.934
275.909
275.888
275.885
275.909
275.907
275.882
275.852
275.813
275.777
275.749
275.724
275.703
275.699
275.688
275.662
275.632
275.601
275.574
275.551
275.536
275.548
275.555
275.533
275.503
275.461
275.399
275.357
275.329
275.305
275.287
275.295
275.333
275.335
275.311
275.282
275.238
275.173
275.128
275.099
275.074
275.053
275.05
275.08
275.09
275.069
275.04
275.001
274.947
274.909
274.882
274.858
274.842
274.854
274.898
274.901
274.878
274.848
274.806
274.729
274.65
274.612
274.584
274.558
274.532
274.507
274.485
274.475
274.501
274.565
274.576
274.555
274.526
274.489
274.424
274.347
274.308
274.28
274.255
274.234
274.228
274.258
274.288
274.274
274.248
274.216
274.167
274.114
274.081
274.055
274.031
274.01
274.009
274.023
274.008
273.982
273.95
273.914
273.885
273.86
273.838
273.831
273.834
273.814
273.787
273.751
273.711
273.683
273.658
273.639
273.641
273.669
273.664
273.639
273.608
273.559
273.479
273.425
273.395
273.37
273.347
273.339
273.368
273.426
273.429
273.406
273.378
273.338
273.269
273.205
273.171
273.145
273.122
273.103
273.109
273.146
273.15
273.127
273.098
273.059
272.998
272.952
272.924
272.899
272.877
272.868
272.893
272.915
272.899
272.872
272.839
272.787
272.727
272.693
272.667
272.642
272.621
272.616
272.648
272.676
272.663
272.637
272.609
272.575
272.523
272.461
272.425
272.398
272.372
272.347
272.322
272.298
272.277
272.275
272.309
272.334
272.318
272.291
272.258
272.203
272.125
272.081
272.053
272.029
272.008
272.003
272.038
272.076
272.065
272.04
272.009
271.961
271.889
271.845
271.817
271.792
271.771
271.766
271.799
271.832
271.819
271.793
271.762
271.711
271.629
271.578
271.549
271.524
271.502
271.492
271.518
271.57
271.569
271.546
271.517
271.477
271.406
271.34
271.307
271.281
271.258
271.24
271.247
271.294
271.31
271.291
271.264
271.229
271.171
271.095
271.056
271.029
271.004
270.983
270.977
271.01
271.05
271.04
271.015
270.986
270.943
270.873
270.821
270.791
270.766
270.742
270.721
270.714
270.738
270.749
270.73
270.704
270.674
270.641
270.614
270.588
270.563
270.538
270.513
270.488
270.462
270.437
270.413
270.392
270.386
270.408
270.413
270.391
270.364
270.327
270.266
270.21
270.18
270.155
270.132
270.116
270.128
270.165
270.161
270.137
270.109
270.07
270.009
269.965
269.937
269.912
269.89
269.875
269.889
269.91
269.896
269.87
269.84
269.795
269.746
269.716
269.69
269.667
269.647
269.645
269.662
269.651
269.626
269.597
269.56
269.527
269.501
269.476
269.455
269.447
269.445
269.425
269.398
269.366
269.329
269.301
269.277
269.255
269.242
269.254
269.254
269.232
269.205
269.172
269.139
269.113
269.089
269.067
269.053
269.034
269.01
268.983
268.949
268.912
268.884
268.86
268.839
268.832
268.859
268.879
268.863
268.837
268.805
268.753
268.683
268.644
268.618
268.594
268.573
268.568
268.6
268.634
268.622
268.598
268.569
268.526
268.456
268.406
268.378
268.353
268.33
268.314
268.323
268.36
268.359
268.336
268.309
268.274