/*--------------------------------*- C++ -*----------------------------------*\
  =========                 |
  \\      /  F ield         | OpenFOAM: The Open Source CFD Toolbox
   \\    /   O peration     | Website:  https://openfoam.org
    \\  /    A nd           | Version:  9
     \\/     M anipulation  |
\*---------------------------------------------------------------------------*/
FoamFile
{
    format      ascii;
    class       volVectorField;
    location    "0.013";
    object      U;
}
// * * * * * * * * * * * * * * * * * * * * * * * * * * * * * * * * * * * * * //

dimensions      [0 1 -1 0 0 0 0];

internalField   nonuniform List<vector> 
10000
(
(-2.01791e-12 0 0)
(-2.06738e-12 0 0)
(-2.01014e-12 0 0)
(-1.94786e-12 0 0)
(-1.85278e-12 0 0)
(-1.80437e-12 0 0)
(-1.82831e-12 0 0)
(-1.8088e-12 0 0)
(-1.77102e-12 0 0)
(-1.79702e-12 0 0)
(-1.79462e-12 0 0)
(-1.76118e-12 0 0)
(-1.78204e-12 0 0)
(-1.85007e-12 0 0)
(-1.81248e-12 0 0)
(-1.85711e-12 0 0)
(-1.88064e-12 0 0)
(-1.89654e-12 0 0)
(-2.01674e-12 0 0)
(-2.17677e-12 0 0)
(-2.29533e-12 0 0)
(-2.40253e-12 0 0)
(-2.38058e-12 0 0)
(-2.38119e-12 0 0)
(-2.48469e-12 0 0)
(-2.48445e-12 0 0)
(-2.53371e-12 0 0)
(-2.61396e-12 0 0)
(-2.59429e-12 0 0)
(-2.62056e-12 0 0)
(-2.70377e-12 0 0)
(-2.70719e-12 0 0)
(-2.79946e-12 0 0)
(-2.86839e-12 0 0)
(-2.86373e-12 0 0)
(-2.88654e-12 0 0)
(-2.74011e-12 0 0)
(-2.67881e-12 0 0)
(-2.73131e-12 0 0)
(-2.70778e-12 0 0)
(-2.76647e-12 0 0)
(-2.72511e-12 0 0)
(-2.61081e-12 0 0)
(-2.62357e-12 0 0)
(-2.69209e-12 0 0)
(-2.79688e-12 0 0)
(-2.62204e-12 0 0)
(-2.51455e-12 0 0)
(-2.42602e-12 0 0)
(-2.31185e-12 0 0)
(-2.27771e-12 0 0)
(-2.2753e-12 0 0)
(-2.3103e-12 0 0)
(-2.48625e-12 0 0)
(-2.64149e-12 0 0)
(-2.67953e-12 0 0)
(-2.60103e-12 0 0)
(-2.57156e-12 0 0)
(-2.80281e-12 0 0)
(-2.89329e-12 0 0)
(-2.89948e-12 0 0)
(-2.94418e-12 0 0)
(-3.02263e-12 0 0)
(-2.99128e-12 0 0)
(-3.03351e-12 0 0)
(-3.04967e-12 0 0)
(-2.93853e-12 0 0)
(-2.87905e-12 0 0)
(-2.91589e-12 0 0)
(-2.8631e-12 0 0)
(-2.82029e-12 0 0)
(-2.95034e-12 0 0)
(-3.08794e-12 0 0)
(-3.15754e-12 0 0)
(-3.23233e-12 0 0)
(-3.25736e-12 0 0)
(-3.16693e-12 0 0)
(-3.0929e-12 0 0)
(-3.02822e-12 0 0)
(-2.97341e-12 0 0)
(-2.85401e-12 0 0)
(-2.729e-12 0 0)
(-2.73344e-12 0 0)
(-2.80061e-12 0 0)
(-2.75387e-12 0 0)
(-2.63738e-12 0 0)
(-2.67339e-12 0 0)
(-2.65132e-12 0 0)
(-2.56973e-12 0 0)
(-2.5571e-12 0 0)
(-2.50966e-12 0 0)
(-2.46367e-12 0 0)
(-2.44541e-12 0 0)
(-2.3129e-12 0 0)
(-2.12278e-12 0 0)
(-2.02746e-12 0 0)
(-2.049e-12 0 0)
(-2.06583e-12 0 0)
(-1.97638e-12 0 0)
(-1.96502e-12 0 0)
(-2.07075e-12 0 0)
(-2.13555e-12 0 0)
(-2.21154e-12 0 0)
(-2.25922e-12 0 0)
(-2.21464e-12 0 0)
(-2.29155e-12 0 0)
(-2.39741e-12 0 0)
(-2.44759e-12 0 0)
(-2.49618e-12 0 0)
(-2.48856e-12 0 0)
(-2.56352e-12 0 0)
(-2.60034e-12 0 0)
(-2.70086e-12 0 0)
(-2.75111e-12 0 0)
(-2.7109e-12 0 0)
(-2.71422e-12 0 0)
(-2.7e-12 0 0)
(-2.7099e-12 0 0)
(-2.74313e-12 0 0)
(-2.81334e-12 0 0)
(-2.80807e-12 0 0)
(-2.88101e-12 0 0)
(-2.92642e-12 0 0)
(-2.99336e-12 0 0)
(-3.02926e-12 0 0)
(-2.92946e-12 0 0)
(-2.99638e-12 0 0)
(-2.87671e-12 0 0)
(-2.8995e-12 0 0)
(-2.95185e-12 0 0)
(-2.85472e-12 0 0)
(-2.83085e-12 0 0)
(-2.78391e-12 0 0)
(-2.7115e-12 0 0)
(-2.79126e-12 0 0)
(-2.84218e-12 0 0)
(-2.82227e-12 0 0)
(-2.80508e-12 0 0)
(-2.72673e-12 0 0)
(-2.69437e-12 0 0)
(-2.77846e-12 0 0)
(-2.9028e-12 0 0)
(-2.86144e-12 0 0)
(-2.89714e-12 0 0)
(-2.8567e-12 0 0)
(-2.95846e-12 0 0)
(-2.96123e-12 0 0)
(-2.88628e-12 0 0)
(-2.96131e-12 0 0)
(-3.11875e-12 0 0)
(-3.19608e-12 0 0)
(-3.10635e-12 0 0)
(-2.98149e-12 0 0)
(-2.90851e-12 0 0)
(-2.80874e-12 0 0)
(-2.81077e-12 0 0)
(-2.86996e-12 0 0)
(-2.9434e-12 0 0)
(-2.92918e-12 0 0)
(-2.82299e-12 0 0)
(-2.78155e-12 0 0)
(-2.64859e-12 0 0)
(-2.49481e-12 0 0)
(-2.47658e-12 0 0)
(-2.41854e-12 0 0)
(-2.3715e-12 0 0)
(-2.38657e-12 0 0)
(-2.31691e-12 0 0)
(-2.23514e-12 0 0)
(-2.28165e-12 0 0)
(-2.35459e-12 0 0)
(-2.31067e-12 0 0)
(-2.35654e-12 0 0)
(-2.36179e-12 0 0)
(-2.17781e-12 0 0)
(-2.08146e-12 0 0)
(-2.15943e-12 0 0)
(-2.18591e-12 0 0)
(-2.14453e-12 0 0)
(-2.22604e-12 0 0)
(-2.36541e-12 0 0)
(-2.45786e-12 0 0)
(-2.49027e-12 0 0)
(-2.53989e-12 0 0)
(-2.50674e-12 0 0)
(-2.50447e-12 0 0)
(-2.45785e-12 0 0)
(-2.3144e-12 0 0)
(-2.21774e-12 0 0)
(-2.17526e-12 0 0)
(-2.22266e-12 0 0)
(-2.29995e-12 0 0)
(-2.34526e-12 0 0)
(-2.31858e-12 0 0)
(-2.30509e-12 0 0)
(-2.35743e-12 0 0)
(-2.41322e-12 0 0)
(-2.54903e-12 0 0)
(-2.71993e-12 0 0)
(-2.89379e-12 0 0)
(-2.93178e-12 0 0)
(-3.05892e-12 0 0)
(-3.16922e-12 0 0)
(-3.19378e-12 0 0)
(-3.36964e-12 0 0)
(-3.47834e-12 0 0)
(-3.47207e-12 0 0)
(-3.53088e-12 0 0)
(-3.40256e-12 0 0)
(-2.86094e-12 0 0)
(-8.98439e-13 0 0)
(5.26185e-12 0 0)
(2.54107e-11 0 0)
(9.13319e-11 0 0)
(3.08063e-10 0 0)
(1.01644e-09 0 0)
(3.34313e-09 0 0)
(1.0969e-08 0 0)
(3.59558e-08 0 0)
(1.17827e-07 0 0)
(3.86034e-07 0 0)
(1.26451e-06 0 0)
(4.14111e-06 0 0)
(1.3558e-05 0 0)
(4.43759e-05 0 0)
(0.000145194 0 0)
(0.000474879 0 0)
(0.00155251 0 0)
(0.0050733 0 0)
(0.0165712 0 0)
(0.0541066 0 0)
(0.176663 0 0)
(0.576898 0 0)
(1.88291 0 0)
(4.06224 0 0)
(5.47342 0 0)
(6.23447 0 0)
(6.53216 0 0)
(6.80563 0 0)
(6.92075 0 0)
(6.93758 0 0)
(7.0023 0 0)
(7.07386 0 0)
(7.11636 0 0)
(7.1181 0 0)
(7.15812 0 0)
(7.22783 0 0)
(7.28007 0 0)
(7.2834 0 0)
(7.30486 0 0)
(7.36863 0 0)
(7.42339 0 0)
(7.43311 0 0)
(7.43937 0 0)
(7.49306 0 0)
(7.54443 0 0)
(7.56268 0 0)
(7.55994 0 0)
(7.59869 0 0)
(7.64456 0 0)
(7.66807 0 0)
(7.662 0 0)
(7.68604 0 0)
(7.72427 0 0)
(7.74828 0 0)
(7.74304 0 0)
(7.75503 0 0)
(7.78396 0 0)
(7.80476 0 0)
(7.80181 0 0)
(7.80563 0 0)
(7.82495 0 0)
(7.84014 0 0)
(7.83904 0 0)
(7.8385 0 0)
(7.84925 0 0)
(7.85803 0 0)
(7.85732 0 0)
(7.8553 0 0)
(7.85881 0 0)
(7.86184 0 0)
(7.862 0 0)
(7.86177 0 0)
(7.86551 0 0)
(7.87765 0 0)
(7.9107 0 0)
(8.01002 0 0)
(8.32571 0 0)
(9.35752 0 0)
(11.4871 0 0)
(13.1413 0 0)
(13.9717 0 0)
(14.4982 0 0)
(14.6844 0 0)
(14.8277 0 0)
(14.9455 0 0)
(14.993 0 0)
(14.9927 0 0)
(15.0422 0 0)
(15.1106 0 0)
(15.1556 0 0)
(15.1554 0 0)
(15.1823 0 0)
(15.2468 0 0)
(15.3 0 0)
(15.3074 0 0)
(15.3147 0 0)
(15.3688 0 0)
(15.4215 0 0)
(15.4407 0 0)
(15.4375 0 0)
(15.475 0 0)
(15.5234 0 0)
(15.5512 0 0)
(15.5467 0 0)
(15.5662 0 0)
(15.6078 0 0)
(15.639 0 0)
(15.6384 0 0)
(15.6441 0 0)
(15.6764 0 0)
(15.7052 0 0)
(15.7107 0 0)
(15.7084 0 0)
(15.7301 0 0)
(15.7537 0 0)
(15.7633 0 0)
(15.7589 0 0)
(15.7706 0 0)
(15.7885 0 0)
(15.7988 0 0)
(15.7956 0 0)
(15.8 0 0)
(15.8122 0 0)
(15.8209 0 0)
(15.8197 0 0)
(15.8201 0 0)
(15.8274 0 0)
(15.8336 0 0)
(15.8339 0 0)
(15.8328 0 0)
(15.8364 0 0)
(15.8403 0 0)
(15.8411 0 0)
(15.8399 0 0)
(15.8414 0 0)
(15.8435 0 0)
(15.8442 0 0)
(15.8434 0 0)
(15.8439 0 0)
(15.8449 0 0)
(15.8453 0 0)
(15.8449 0 0)
(15.845 0 0)
(15.8453 0 0)
(15.8455 0 0)
(15.8454 0 0)
(15.8453 0 0)
(15.8454 0 0)
(15.8455 0 0)
(15.8455 0 0)
(15.8454 0 0)
(15.8455 0 0)
(15.8455 0 0)
(15.8455 0 0)
(15.8455 0 0)
(15.8455 0 0)
(15.8455 0 0)
(15.8455 0 0)
(15.8455 0 0)
(15.8455 0 0)
(15.8455 0 0)
(15.8455 0 0)
(15.8455 0 0)
(15.8454 0 0)
(15.8454 0 0)
(15.8455 0 0)
(15.8455 0 0)
(15.8455 0 0)
(15.8455 0 0)
(15.8455 0 0)
(15.8455 0 0)
(15.8455 0 0)
(15.8455 0 0)
(15.8455 0 0)
(15.8455 0 0)
(15.8454 0 0)
(15.8454 0 0)
(15.8453 0 0)
(15.8453 0 0)
(15.8453 0 0)
(15.8453 0 0)
(15.8453 0 0)
(15.8453 0 0)
(15.8453 0 0)
(15.8453 0 0)
(15.8453 0 0)
(15.8453 0 0)
(15.8453 0 0)
(15.8453 0 0)
(15.8453 0 0)
(15.8454 0 0)
(15.8455 0 0)
(15.8459 0 0)
(15.8472 0 0)
(15.8513 0 0)
(15.8648 0 0)
(15.9085 0 0)
(16.05 0 0)
(16.5171 0 0)
(17.6715 0 0)
(18.72 0 0)
(19.3049 0 0)
(19.5373 0 0)
(19.7436 0 0)
(19.8329 0 0)
(19.845 0 0)
(19.8853 0 0)
(19.9454 0 0)
(19.9889 0 0)
(19.9942 0 0)
(20.0096 0 0)
(20.0659 0 0)
(20.1193 0 0)
(20.1385 0 0)
(20.1405 0 0)
(20.1826 0 0)
(20.238 0 0)
(20.2735 0 0)
(20.2742 0 0)
(20.2952 0 0)
(20.3488 0 0)
(20.3948 0 0)
(20.4048 0 0)
(20.4086 0 0)
(20.4529 0 0)
(20.5009 0 0)
(20.5254 0 0)
(20.5236 0 0)
(20.5492 0 0)
(20.5962 0 0)
(20.6316 0 0)
(20.6341 0 0)
(20.642 0 0)
(20.6825 0 0)
(20.7212 0 0)
(20.7338 0 0)
(20.7319 0 0)
(20.7593 0 0)
(20.7961 0 0)
(20.8184 0 0)
(20.816 0 0)
(20.828 0 0)
(20.8599 0 0)
(20.8859 0 0)
(20.8886 0 0)
(20.8893 0 0)
(20.913 0 0)
(20.9369 0 0)
(20.9459 0 0)
(20.9423 0 0)
(20.9551 0 0)
(20.9747 0 0)
(20.9864 0 0)
(20.9833 0 0)
(20.9873 0 0)
(21.0006 0 0)
(21.0108 0 0)
(21.0098 0 0)
(21.0087 0 0)
(21.0152 0 0)
(21.0209 0 0)
(21.02 0 0)
(21.0177 0 0)
(21.02 0 0)
(21.024 0 0)
(21.0301 0 0)
(21.0444 0 0)
(21.0914 0 0)
(21.2472 0 0)
(21.7157 0 0)
(22.3108 0 0)
(22.6354 0 0)
(22.8405 0 0)
(22.9047 0 0)
(22.9516 0 0)
(23.0008 0 0)
(23.0286 0 0)
(23.0284 0 0)
(23.0399 0 0)
(23.0727 0 0)
(23.1002 0 0)
(23.1038 0 0)
(23.1026 0 0)
(23.1247 0 0)
(23.1485 0 0)
(23.1583 0 0)
(23.154 0 0)
(23.164 0 0)
(23.1827 0 0)
(23.1954 0 0)
(23.1938 0 0)
(23.1952 0 0)
(23.2078 0 0)
(23.2191 0 0)
(23.2207 0 0)
(23.2182 0 0)
(23.2246 0 0)
(23.232 0 0)
(23.2348 0 0)
(23.2319 0 0)
(23.2335 0 0)
(23.2368 0 0)
(23.2378 0 0)
(23.2369 0 0)
(23.237 0 0)
(23.2397 0 0)
(23.2467 0 0)
(23.265 0 0)
(23.321 0 0)
(23.5019 0 0)
(24.0805 0 0)
(25.0112 0 0)
(25.6286 0 0)
(25.8967 0 0)
(26.11 0 0)
(26.1893 0 0)
(26.2029 0 0)
(26.2525 0 0)
(26.3055 0 0)
(26.3337 0 0)
(26.3302 0 0)
(26.35 0 0)
(26.3957 0 0)
(26.432 0 0)
(26.4353 0 0)
(26.4361 0 0)
(26.4697 0 0)
(26.5045 0 0)
(26.519 0 0)
(26.5141 0 0)
(26.5303 0 0)
(26.5597 0 0)
(26.5799 0 0)
(26.5779 0 0)
(26.5801 0 0)
(26.5999 0 0)
(26.6176 0 0)
(26.6201 0 0)
(26.6155 0 0)
(26.6244 0 0)
(26.6348 0 0)
(26.6375 0 0)
(26.6329 0 0)
(26.6343 0 0)
(26.6401 0 0)
(26.6497 0 0)
(26.6696 0 0)
(26.7321 0 0)
(26.9425 0 0)
(27.4029 0 0)
(27.7792 0 0)
(27.942 0 0)
(28.0722 0 0)
(28.1213 0 0)
(28.1281 0 0)
(28.1552 0 0)
(28.1873 0 0)
(28.2056 0 0)
(28.202 0 0)
(28.21 0 0)
(28.2334 0 0)
(28.2514 0 0)
(28.251 0 0)
(28.2486 0 0)
(28.2607 0 0)
(28.2734 0 0)
(28.2763 0 0)
(28.2715 0 0)
(28.2749 0 0)
(28.2808 0 0)
(28.282 0 0)
(28.2805 0 0)
(28.2813 0 0)
(28.2867 0 0)
(28.3009 0 0)
(28.3377 0 0)
(28.4487 0 0)
(28.7914 0 0)
(29.2986 0 0)
(29.6314 0 0)
(29.7783 0 0)
(29.8856 0 0)
(29.9343 0 0)
(29.9435 0 0)
(29.9616 0 0)
(29.9834 0 0)
(29.9958 0 0)
(29.9935 0 0)
(29.9967 0 0)
(30.0104 0 0)
(30.0216 0 0)
(30.0213 0 0)
(30.0183 0 0)
(30.0229 0 0)
(30.0294 0 0)
(30.0351 0 0)
(30.0451 0 0)
(30.0785 0 0)
(30.1877 0 0)
(30.4805 0 0)
(30.7948 0 0)
(30.9616 0 0)
(31.0515 0 0)
(31.1116 0 0)
(31.1327 0 0)
(31.1412 0 0)
(31.1621 0 0)
(31.1822 0 0)
(31.1922 0 0)
(31.1909 0 0)
(31.1982 0 0)
(31.2137 0 0)
(31.2236 0 0)
(31.2198 0 0)
(31.2176 0 0)
(31.2243 0 0)
(31.2351 0 0)
(31.251 0 0)
(31.2932 0 0)
(31.4372 0 0)
(31.8194 0 0)
(32.2 0 0)
(32.4186 0 0)
(32.4901 0 0)
(32.5643 0 0)
(32.6136 0 0)
(32.6294 0 0)
(32.627 0 0)
(32.6494 0 0)
(32.6828 0 0)
(32.7028 0 0)
(32.6984 0 0)
(32.7011 0 0)
(32.7217 0 0)
(32.7391 0 0)
(32.7399 0 0)
(32.7336 0 0)
(32.74 0 0)
(32.7488 0 0)
(32.7501 0 0)
(32.7486 0 0)
(32.7538 0 0)
(32.7755 0 0)
(32.8385 0 0)
(33.0298 0 0)
(33.4365 0 0)
(33.7619 0 0)
(33.9645 0 0)
(34.0411 0 0)
(34.0886 0 0)
(34.1336 0 0)
(34.1553 0 0)
(34.1563 0 0)
(34.1655 0 0)
(34.1899 0 0)
(34.2109 0 0)
(34.2143 0 0)
(34.2122 0 0)
(34.2264 0 0)
(34.2431 0 0)
(34.2499 0 0)
(34.2449 0 0)
(34.2478 0 0)
(34.2565 0 0)
(34.2613 0 0)
(34.2575 0 0)
(34.2553 0 0)
(34.2587 0 0)
(34.2663 0 0)
(34.2802 0 0)
(34.3174 0 0)
(34.4345 0 0)
(34.8047 0 0)
(35.3861 0 0)
(35.7769 0 0)
(35.9391 0 0)
(36.0746 0 0)
(36.137 0 0)
(36.1463 0 0)
(36.1624 0 0)
(36.2015 0 0)
(36.2345 0 0)
(36.24 0 0)
(36.237 0 0)
(36.2596 0 0)
(36.2882 0 0)
(36.303 0 0)
(36.2988 0 0)
(36.3038 0 0)
(36.3241 0 0)
(36.3417 0 0)
(36.3442 0 0)
(36.3408 0 0)
(36.3509 0 0)
(36.3648 0 0)
(36.3719 0 0)
(36.3689 0 0)
(36.37 0 0)
(36.3779 0 0)
(36.384 0 0)
(36.3832 0 0)
(36.3807 0 0)
(36.3822 0 0)
(36.3855 0 0)
(36.3886 0 0)
(36.3935 0 0)
(36.4096 0 0)
(36.4626 0 0)
(36.6312 0 0)
(37.1158 0 0)
(37.7285 0 0)
(38.0757 0 0)
(38.3001 0 0)
(38.3809 0 0)
(38.419 0 0)
(38.4735 0 0)
(38.5108 0 0)
(38.5182 0 0)
(38.5178 0 0)
(38.5446 0 0)
(38.5775 0 0)
(38.594 0 0)
(38.5892 0 0)
(38.5956 0 0)
(38.6183 0 0)
(38.6367 0 0)
(38.6369 0 0)
(38.6315 0 0)
(38.64 0 0)
(38.6505 0 0)
(38.6514 0 0)
(38.6485 0 0)
(38.6525 0 0)
(38.6687 0 0)
(38.711 0 0)
(38.8291 0 0)
(39.1469 0 0)
(39.5232 0 0)
(39.7515 0 0)
(39.8831 0 0)
(39.9322 0 0)
(39.9715 0 0)
(40.0088 0 0)
(40.0297 0 0)
(40.0348 0 0)
(40.0447 0 0)
(40.0669 0 0)
(40.0855 0 0)
(40.0896 0 0)
(40.0891 0 0)
(40.1018 0 0)
(40.1174 0 0)
(40.1246 0 0)
(40.1211 0 0)
(40.1243 0 0)
(40.1321 0 0)
(40.1354 0 0)
(40.1342 0 0)
(40.1346 0 0)
(40.1413 0 0)
(40.1608 0 0)
(40.2123 0 0)
(40.3665 0 0)
(40.7889 0 0)
(41.2688 0 0)
(41.5691 0 0)
(41.6875 0 0)
(41.778 0 0)
(41.8379 0 0)
(41.8575 0 0)
(41.8586 0 0)
(41.8825 0 0)
(41.9152 0 0)
(41.9341 0 0)
(41.9301 0 0)
(41.933 0 0)
(41.9527 0 0)
(41.9691 0 0)
(41.9694 0 0)
(41.9623 0 0)
(41.9668 0 0)
(41.9758 0 0)
(41.9805 0 0)
(41.9826 0 0)
(41.9941 0 0)
(42.0396 0 0)
(42.1838 0 0)
(42.5576 0 0)
(42.9516 0 0)
(43.1509 0 0)
(43.3006 0 0)
(43.3612 0 0)
(43.3712 0 0)
(43.3974 0 0)
(43.4347 0 0)
(43.4593 0 0)
(43.4588 0 0)
(43.4595 0 0)
(43.4826 0 0)
(43.5058 0 0)
(43.5128 0 0)
(43.5061 0 0)
(43.512 0 0)
(43.5258 0 0)
(43.5336 0 0)
(43.5284 0 0)
(43.5251 0 0)
(43.5304 0 0)
(43.5414 0 0)
(43.5598 0 0)
(43.605 0 0)
(43.7457 0 0)
(44.1254 0 0)
(44.5406 0 0)
(44.7943 0 0)
(44.887 0 0)
(44.9642 0 0)
(45.0181 0 0)
(45.0362 0 0)
(45.0329 0 0)
(45.0501 0 0)
(45.0799 0 0)
(45.099 0 0)
(45.0968 0 0)
(45.0953 0 0)
(45.1109 0 0)
(45.1276 0 0)
(45.1319 0 0)
(45.1255 0 0)
(45.128 0 0)
(45.1367 0 0)
(45.1431 0 0)
(45.1468 0 0)
(45.1586 0 0)
(45.2029 0 0)
(45.344 0 0)
(45.6963 0 0)
(46.0552 0 0)
(46.2401 0 0)
(46.3699 0 0)
(46.4339 0 0)
(46.4478 0 0)
(46.4642 0 0)
(46.4924 0 0)
(46.5119 0 0)
(46.5099 0 0)
(46.5062 0 0)
(46.5154 0 0)
(46.5274 0 0)
(46.5338 0 0)
(46.5382 0 0)
(46.5582 0 0)
(46.6266 0 0)
(46.8228 0 0)
(47.1048 0 0)
(47.2778 0 0)
(47.3636 0 0)
(47.4343 0 0)
(47.4631 0 0)
(47.4662 0 0)
(47.4761 0 0)
(47.4978 0 0)
(47.5149 0 0)
(47.5158 0 0)
(47.5101 0 0)
(47.5155 0 0)
(47.5273 0 0)
(47.5385 0 0)
(47.5503 0 0)
(47.5877 0 0)
(47.7116 0 0)
(48.0135 0 0)
(48.319 0 0)
(48.503 0 0)
(48.5715 0 0)
(48.6091 0 0)
(48.6606 0 0)
(48.6957 0 0)
(48.7016 0 0)
(48.6965 0 0)
(48.7091 0 0)
(48.7348 0 0)
(48.7527 0 0)
(48.7504 0 0)
(48.7435 0 0)
(48.7492 0 0)
(48.7609 0 0)
(48.7715 0 0)
(48.7843 0 0)
(48.8241 0 0)
(48.9561 0 0)
(49.284 0 0)
(49.6147 0 0)
(49.7897 0 0)
(49.8807 0 0)
(49.954 0 0)
(49.986 0 0)
(49.9931 0 0)
(50.0093 0 0)
(50.0354 0 0)
(50.0551 0 0)
(50.0573 0 0)
(50.0571 0 0)
(50.0725 0 0)
(50.0884 0 0)
(50.0911 0 0)
(50.0856 0 0)
(50.089 0 0)
(50.1012 0 0)
(50.1263 0 0)
(50.1841 0 0)
(50.3584 0 0)
(50.709 0 0)
(50.9901 0 0)
(51.166 0 0)
(51.2265 0 0)
(51.2589 0 0)
(51.306 0 0)
(51.3405 0 0)
(51.3462 0 0)
(51.3423 0 0)
(51.3606 0 0)
(51.3869 0 0)
(51.4004 0 0)
(51.3933 0 0)
(51.391 0 0)
(51.3995 0 0)
(51.4105 0 0)
(51.4201 0 0)
(51.4348 0 0)
(51.4841 0 0)
(51.6456 0 0)
(51.985 0 0)
(52.2636 0 0)
(52.4012 0 0)
(52.461 0 0)
(52.5242 0 0)
(52.5631 0 0)
(52.5752 0 0)
(52.5738 0 0)
(52.5888 0 0)
(52.6175 0 0)
(52.636 0 0)
(52.6305 0 0)
(52.6198 0 0)
(52.6246 0 0)
(52.6409 0 0)
(52.6674 0 0)
(52.7134 0 0)
(52.8425 0 0)
(53.1193 0 0)
(53.3578 0 0)
(53.5202 0 0)
(53.5757 0 0)
(53.5865 0 0)
(53.6208 0 0)
(53.6624 0 0)
(53.6847 0 0)
(53.6794 0 0)
(53.6748 0 0)
(53.6908 0 0)
(53.7109 0 0)
(53.7158 0 0)
(53.7134 0 0)
(53.7225 0 0)
(53.763 0 0)
(53.8828 0 0)
(54.1701 0 0)
(54.4593 0 0)
(54.6032 0 0)
(54.7216 0 0)
(54.7785 0 0)
(54.7892 0 0)
(54.7983 0 0)
(54.8347 0 0)
(54.8698 0 0)
(54.8797 0 0)
(54.8726 0 0)
(54.8808 0 0)
(54.9035 0 0)
(54.9199 0 0)
(54.9172 0 0)
(54.9102 0 0)
(54.9163 0 0)
(54.929 0 0)
(54.9459 0 0)
(54.9767 0 0)
(55.0695 0 0)
(55.3438 0 0)
(55.7314 0 0)
(55.9982 0 0)
(56.1101 0 0)
(56.1747 0 0)
(56.2405 0 0)
(56.2758 0 0)
(56.2799 0 0)
(56.2822 0 0)
(56.3106 0 0)
(56.3417 0 0)
(56.354 0 0)
(56.3479 0 0)
(56.3511 0 0)
(56.3683 0 0)
(56.3815 0 0)
(56.3797 0 0)
(56.3736 0 0)
(56.3787 0 0)
(56.3921 0 0)
(56.4182 0 0)
(56.4762 0 0)
(56.6474 0 0)
(57.0123 0 0)
(57.329 0 0)
(57.531 0 0)
(57.6126 0 0)
(57.6514 0 0)
(57.7049 0 0)
(57.7422 0 0)
(57.7519 0 0)
(57.7502 0 0)
(57.7672 0 0)
(57.7966 0 0)
(57.8156 0 0)
(57.8132 0 0)
(57.81 0 0)
(57.8213 0 0)
(57.8351 0 0)
(57.8373 0 0)
(57.8331 0 0)
(57.8361 0 0)
(57.8496 0 0)
(57.8827 0 0)
(57.965 0 0)
(58.1957 0 0)
(58.5724 0 0)
(58.8504 0 0)
(58.9959 0 0)
(59.0794 0 0)
(59.1322 0 0)
(59.154 0 0)
(59.165 0 0)
(59.1877 0 0)
(59.2162 0 0)
(59.2356 0 0)
(59.2366 0 0)
(59.2353 0 0)
(59.2518 0 0)
(59.2714 0 0)
(59.2776 0 0)
(59.2687 0 0)
(59.2661 0 0)
(59.2751 0 0)
(59.2908 0 0)
(59.3141 0 0)
(59.3685 0 0)
(59.5374 0 0)
(59.8935 0 0)
(60.1984 0 0)
(60.3874 0 0)
(60.4569 0 0)
(60.4921 0 0)
(60.5436 0 0)
(60.5817 0 0)
(60.5901 0 0)
(60.5865 0 0)
(60.6013 0 0)
(60.6304 0 0)
(60.651 0 0)
(60.6499 0 0)
(60.6438 0 0)
(60.6538 0 0)
(60.6675 0 0)
(60.6706 0 0)
(60.6687 0 0)
(60.6723 0 0)
(60.6917 0 0)
(60.7471 0 0)
(60.9013 0 0)
(61.2466 0 0)
(61.5748 0 0)
(61.7601 0 0)
(61.8922 0 0)
(61.9475 0 0)
(61.9605 0 0)
(61.985 0 0)
(62.0205 0 0)
(62.0461 0 0)
(62.0498 0 0)
(62.0496 0 0)
(62.0694 0 0)
(62.0957 0 0)
(62.1097 0 0)
(62.1062 0 0)
(62.1058 0 0)
(62.118 0 0)
(62.1304 0 0)
(62.1304 0 0)
(62.1257 0 0)
(62.1294 0 0)
(62.1428 0 0)
(62.174 0 0)
(62.2487 0 0)
(62.4608 0 0)
(62.8873 0 0)
(63.2404 0 0)
(63.466 0 0)
(63.5626 0 0)
(63.6009 0 0)
(63.6539 0 0)
(63.6941 0 0)
(63.7089 0 0)
(63.7088 0 0)
(63.7206 0 0)
(63.7515 0 0)
(63.7783 0 0)
(63.7825 0 0)
(63.777 0 0)
(63.7872 0 0)
(63.8074 0 0)
(63.8204 0 0)
(63.8165 0 0)
(63.8103 0 0)
(63.814 0 0)
(63.8242 0 0)
(63.8364 0 0)
(63.8531 0 0)
(63.8993 0 0)
(64.044 0 0)
(64.4105 0 0)
(64.7975 0 0)
(65.0305 0 0)
(65.1268 0 0)
(65.1944 0 0)
(65.2557 0 0)
(65.2869 0 0)
(65.2899 0 0)
(65.2912 0 0)
(65.3176 0 0)
(65.3504 0 0)
(65.3674 0 0)
(65.3643 0 0)
(65.3614 0 0)
(65.3779 0 0)
(65.3991 0 0)
(65.4079 0 0)
(65.4006 0 0)
(65.3954 0 0)
(65.4013 0 0)
(65.414 0 0)
(65.4285 0 0)
(65.4512 0 0)
(65.5194 0 0)
(65.733 0 0)
(66.13 0 0)
(66.4485 0 0)
(66.6153 0 0)
(66.6918 0 0)
(66.7612 0 0)
(66.7989 0 0)
(66.8084 0 0)
(66.8126 0 0)
(66.8382 0 0)
(66.8681 0 0)
(66.8817 0 0)
(66.878 0 0)
(66.8774 0 0)
(66.8924 0 0)
(66.9093 0 0)
(66.9124 0 0)
(66.9071 0 0)
(66.9082 0 0)
(66.92 0 0)
(66.949 0 0)
(67.0139 0 0)
(67.1945 0 0)
(67.5341 0 0)
(67.8054 0 0)
(67.9867 0 0)
(68.0652 0 0)
(68.0923 0 0)
(68.1337 0 0)
(68.1695 0 0)
(68.1843 0 0)
(68.183 0 0)
(68.1903 0 0)
(68.2127 0 0)
(68.2309 0 0)
(68.2299 0 0)
(68.2241 0 0)
(68.23 0 0)
(68.2418 0 0)
(68.2572 0 0)
(68.2834 0 0)
(68.3594 0 0)
(68.5795 0 0)
(68.9002 0 0)
(69.1285 0 0)
(69.2284 0 0)
(69.2865 0 0)
(69.3454 0 0)
(69.3783 0 0)
(69.3846 0 0)
(69.3876 0 0)
(69.4131 0 0)
(69.4435 0 0)
(69.4569 0 0)
(69.4531 0 0)
(69.4539 0 0)
(69.47 0 0)
(69.4863 0 0)
(69.4882 0 0)
(69.4812 0 0)
(69.4827 0 0)
(69.4937 0 0)
(69.5152 0 0)
(69.5559 0 0)
(69.6668 0 0)
(69.9725 0 0)
(70.389 0 0)
(70.6796 0 0)
(70.836 0 0)
(70.8986 0 0)
(70.956 0 0)
(71.0054 0 0)
(71.0291 0 0)
(71.0318 0 0)
(71.0382 0 0)
(71.0673 0 0)
(71.0977 0 0)
(71.1072 0 0)
(71.1037 0 0)
(71.1109 0 0)
(71.131 0 0)
(71.1463 0 0)
(71.1447 0 0)
(71.1383 0 0)
(71.1427 0 0)
(71.1525 0 0)
(71.1647 0 0)
(71.1833 0 0)
(71.2368 0 0)
(71.402 0 0)
(71.7672 0 0)
(72.1107 0 0)
(72.2978 0 0)
(72.3939 0 0)
(72.4736 0 0)
(72.5126 0 0)
(72.5224 0 0)
(72.5333 0 0)
(72.5641 0 0)
(72.5949 0 0)
(72.6043 0 0)
(72.6024 0 0)
(72.61 0 0)
(72.6328 0 0)
(72.6522 0 0)
(72.6534 0 0)
(72.6464 0 0)
(72.6515 0 0)
(72.6631 0 0)
(72.6699 0 0)
(72.6735 0 0)
(72.682 0 0)
(72.7174 0 0)
(72.8269 0 0)
(73.1253 0 0)
(73.5237 0 0)
(73.7788 0 0)
(73.9074 0 0)
(74.0105 0 0)
(74.0644 0 0)
(74.0783 0 0)
(74.084 0 0)
(74.1122 0 0)
(74.1443 0 0)
(74.1572 0 0)
(74.1516 0 0)
(74.1515 0 0)
(74.1644 0 0)
(74.1785 0 0)
(74.1855 0 0)
(74.1905 0 0)
(74.2135 0 0)
(74.2933 0 0)
(74.464 0 0)
(74.6182 0 0)
(74.6829 0 0)
(74.7154 0 0)
(74.758 0 0)
(74.7877 0 0)
(74.7917 0 0)
(74.7918 0 0)
(74.8129 0 0)
(74.8761 0 0)
(75.0286 0 0)
(75.3118 0 0)
(75.5466 0 0)
(75.6742 0 0)
(75.791 0 0)
(75.8569 0 0)
(75.8739 0 0)
(75.8765 0 0)
(75.9079 0 0)
(75.9541 0 0)
(75.9803 0 0)
(75.9755 0 0)
(75.9684 0 0)
(75.9833 0 0)
(76.0077 0 0)
(76.024 0 0)
(76.0345 0 0)
(76.0719 0 0)
(76.1957 0 0)
(76.3691 0 0)
(76.4994 0 0)
(76.5434 0 0)
(76.5526 0 0)
(76.5862 0 0)
(76.6328 0 0)
(76.6876 0 0)
(76.7827 0 0)
(76.9749 0 0)
(77.1671 0 0)
(77.3351 0 0)
(77.4338 0 0)
(77.4633 0 0)
(77.4696 0 0)
(77.5126 0 0)
(77.5693 0 0)
(77.5978 0 0)
(77.5885 0 0)
(77.577 0 0)
(77.592 0 0)
(77.622 0 0)
(77.6556 0 0)
(77.6982 0 0)
(77.8128 0 0)
(78.0085 0 0)
(78.1807 0 0)
(78.3021 0 0)
(78.3445 0 0)
(78.3474 0 0)
(78.3701 0 0)
(78.4145 0 0)
(78.4436 0 0)
(78.4395 0 0)
(78.4309 0 0)
(78.4475 0 0)
(78.4907 0 0)
(78.5806 0 0)
(78.767 0 0)
(78.982 0 0)
(79.1131 0 0)
(79.2243 0 0)
(79.2854 0 0)
(79.3091 0 0)
(79.3348 0 0)
(79.3601 0 0)
(79.3713 0 0)
(79.3739 0 0)
(79.3892 0 0)
(79.4239 0 0)
(79.486 0 0)
(79.6216 0 0)
(79.7757 0 0)
(79.8688 0 0)
(79.9696 0 0)
(80.0335 0 0)
(80.0446 0 0)
(80.0297 0 0)
(80.0297 0 0)
(80.06 0 0)
(80.1097 0 0)
(80.1813 0 0)
(80.3011 0 0)
(80.4062 0 0)
(80.493 0 0)
(80.5678 0 0)
(80.6017 0 0)
(80.608 0 0)
(80.6331 0 0)
(80.6982 0 0)
(80.7989 0 0)
(80.8944 0 0)
(80.9721 0 0)
(81.0647 0 0)
(81.1895 0 0)
(81.3207 0 0)
(81.4149 0 0)
(81.4672 0 0)
(81.5068 0 0)
(81.5753 0 0)
(81.6412 0 0)
(81.6727 0 0)
(81.6773 0 0)
(81.698 0 0)
(81.7569 0 0)
(81.8516 0 0)
(81.9441 0 0)
(82.0084 0 0)
(82.0644 0 0)
(82.1412 0 0)
(82.2252 0 0)
(82.2905 0 0)
(82.3375 0 0)
(82.3938 0 0)
(82.4753 0 0)
(82.5563 0 0)
(82.6081 0 0)
(82.6433 0 0)
(82.688 0 0)
(82.762 0 0)
(82.8437 0 0)
(82.9053 0 0)
(82.9507 0 0)
(83.0055 0 0)
(83.0862 0 0)
(83.1717 0 0)
(83.2373 0 0)
(83.2867 0 0)
(83.3409 0 0)
(83.4038 0 0)
(83.4622 0 0)
(83.5085 0 0)
(83.5509 0 0)
(83.631 0 0)
(83.7579 0 0)
(83.8726 0 0)
(83.918 0 0)
(83.9337 0 0)
(83.9572 0 0)
(84.0032 0 0)
(84.0665 0 0)
(84.1244 0 0)
(84.1763 0 0)
(84.276 0 0)
(84.4133 0 0)
(84.5306 0 0)
(84.5758 0 0)
(84.5732 0 0)
(84.5644 0 0)
(84.5807 0 0)
(84.6459 0 0)
(84.7821 0 0)
(84.9125 0 0)
(84.9864 0 0)
(85.0047 0 0)
(85.0233 0 0)
(85.1106 0 0)
(85.2254 0 0)
(85.2914 0 0)
(85.3009 0 0)
(85.3094 0 0)
(85.3498 0 0)
(85.4695 0 0)
(85.6009 0 0)
(85.6821 0 0)
(85.6997 0 0)
(85.7126 0 0)
(85.7719 0 0)
(85.8899 0 0)
(85.9952 0 0)
(86.0245 0 0)
(86.0363 0 0)
(86.0666 0 0)
(86.1727 0 0)
(86.2937 0 0)
(86.358 0 0)
(86.3755 0 0)
(86.401 0 0)
(86.5015 0 0)
(86.6288 0 0)
(86.7106 0 0)
(86.727 0 0)
(86.7392 0 0)
(86.7701 0 0)
(86.8444 0 0)
(86.9358 0 0)
(87.0065 0 0)
(87.0759 0 0)
(87.1838 0 0)
(87.2906 0 0)
(87.3302 0 0)
(87.3406 0 0)
(87.3549 0 0)
(87.4196 0 0)
(87.5394 0 0)
(87.6424 0 0)
(87.6716 0 0)
(87.6851 0 0)
(87.73 0 0)
(87.8458 0 0)
(87.9649 0 0)
(88.0135 0 0)
(88.0278 0 0)
(88.0499 0 0)
(88.1432 0 0)
(88.2635 0 0)
(88.3354 0 0)
(88.353 0 0)
(88.3698 0 0)
(88.4456 0 0)
(88.5708 0 0)
(88.6698 0 0)
(88.6931 0 0)
(88.703 0 0)
(88.7346 0 0)
(88.8446 0 0)
(88.9752 0 0)
(89.0585 0 0)
(89.0723 0 0)
(89.0789 0 0)
(89.1086 0 0)
(89.2157 0 0)
(89.3503 0 0)
(89.4458 0 0)
(89.4668 0 0)
(89.4766 0 0)
(89.5082 0 0)
(89.6148 0 0)
(89.7357 0 0)
(89.7966 0 0)
(89.8119 0 0)
(89.8294 0 0)
(89.9068 0 0)
(90.0342 0 0)
(90.1364 0 0)
(90.1644 0 0)
(90.1783 0 0)
(90.2266 0 0)
(90.3388 0 0)
(90.4483 0 0)
(90.4834 0 0)
(90.4974 0 0)
(90.5268 0 0)
(90.6326 0 0)
(90.7548 0 0)
(90.8191 0 0)
(90.8301 0 0)
(90.8404 0 0)
(90.8993 0 0)
(91.0372 0 0)
(91.1847 0 0)
(91.2758 0 0)
(91.2885 0 0)
(91.2663 0 0)
(91.2674 0 0)
(91.3037 0 0)
(91.4214 0 0)
(91.5958 0 0)
(91.7312 0 0)
(91.7963 0 0)
(91.8051 0 0)
(91.8022 0 0)
(91.8176 0 0)
(91.8458 0 0)
(91.8826 0 0)
(91.987 0 0)
(92.1476 0 0)
(92.2946 0 0)
(92.3833 0 0)
(92.4007 0 0)
(92.3922 0 0)
(92.3992 0 0)
(92.4247 0 0)
(92.51 0 0)
(92.6366 0 0)
(92.7341 0 0)
(92.7634 0 0)
(92.8075 0 0)
(92.9147 0 0)
(93.0219 0 0)
(93.0541 0 0)
(93.0591 0 0)
(93.0745 0 0)
(93.1381 0 0)
(93.275 0 0)
(93.4072 0 0)
(93.482 0 0)
(93.5037 0 0)
(93.5333 0 0)
(93.5974 0 0)
(93.6689 0 0)
(93.7083 0 0)
(93.7327 0 0)
(93.7891 0 0)
(93.917 0 0)
(94.0446 0 0)
(94.1071 0 0)
(94.124 0 0)
(94.1426 0 0)
(94.2122 0 0)
(94.3194 0 0)
(94.3962 0 0)
(94.4218 0 0)
(94.4443 0 0)
(94.5304 0 0)
(94.6577 0 0)
(94.7518 0 0)
(94.7746 0 0)
(94.7875 0 0)
(94.8251 0 0)
(94.9303 0 0)
(95.0449 0 0)
(95.094 0 0)
(95.1121 0 0)
(95.1589 0 0)
(95.2707 0 0)
(95.3821 0 0)
(95.417 0 0)
(95.4205 0 0)
(95.4333 0 0)
(95.4951 0 0)
(95.6326 0 0)
(95.775 0 0)
(95.8588 0 0)
(95.8777 0 0)
(95.8907 0 0)
(95.9392 0 0)
(96.0549 0 0)
(96.1711 0 0)
(96.2111 0 0)
(96.2117 0 0)
(96.2193 0 0)
(96.2625 0 0)
(96.3857 0 0)
(96.5297 0 0)
(96.6277 0 0)
(96.6497 0 0)
(96.6536 0 0)
(96.6723 0 0)
(96.7486 0 0)
(96.8793 0 0)
(96.9901 0 0)
(97.0244 0 0)
(97.0386 0 0)
(97.0658 0 0)
(97.1632 0 0)
(97.2815 0 0)
(97.3444 0 0)
(97.3645 0 0)
(97.3887 0 0)
(97.4808 0 0)
(97.6066 0 0)
(97.6888 0 0)
(97.7077 0 0)
(97.7219 0 0)
(97.7675 0 0)
(97.879 0 0)
(97.9939 0 0)
(98.0386 0 0)
(98.0575 0 0)
(98.1016 0 0)
(98.2055 0 0)
(98.3097 0 0)
(98.3455 0 0)
(98.3629 0 0)
(98.3945 0 0)
(98.5016 0 0)
(98.6355 0 0)
(98.7257 0 0)
(98.7465 0 0)
(98.7592 0 0)
(98.7926 0 0)
(98.8983 0 0)
(99.0204 0 0)
(99.085 0 0)
(99.1061 0 0)
(99.1413 0 0)
(99.2357 0 0)
(99.3389 0 0)
(99.3797 0 0)
(99.3964 0 0)
(99.4187 0 0)
(99.5032 0 0)
(99.6407 0 0)
(99.7564 0 0)
(99.7933 0 0)
(99.799 0 0)
(99.8135 0 0)
(99.8708 0 0)
(99.9988 0 0)
(100.126 0 0)
(100.183 0 0)
(100.194 0 0)
(100.208 0 0)
(100.256 0 0)
(100.378 0 0)
(100.504 0 0)
(100.563 0 0)
(100.579 0 0)
(100.598 0 0)
(100.667 0 0)
(100.801 0 0)
(100.924 0 0)
(100.973 0 0)
(100.982 0 0)
(100.988 0 0)
(101.013 0 0)
(101.045 0 0)
(101.112 0 0)
(101.243 0 0)
(101.404 0 0)
(101.523 0 0)
(101.568 0 0)
(101.575 0 0)
(101.578 0 0)
(101.6 0 0)
(101.671 0 0)
(101.795 0 0)
(101.904 0 0)
(101.94 0 0)
(101.958 0 0)
(102.01 0 0)
(102.118 0 0)
(102.217 0 0)
(102.247 0 0)
(102.264 0 0)
(102.296 0 0)
(102.403 0 0)
(102.54 0 0)
(102.638 0 0)
(102.663 0 0)
(102.677 0 0)
(102.716 0 0)
(102.82 0 0)
(102.935 0 0)
(102.978 0 0)
(102.987 0 0)
(103 0 0)
(103.067 0 0)
(103.213 0 0)
(103.377 0 0)
(103.477 0 0)
(103.496 0 0)
(103.461 0 0)
(103.425 0 0)
(103.439 0 0)
(103.512 0 0)
(103.664 0 0)
(103.902 0 0)
(104.058 0 0)
(104.133 0 0)
(104.141 0 0)
(104.091 0 0)
(104.02 0 0)
(104.018 0 0)
(104.045 0 0)
(104.076 0 0)
(104.173 0 0)
(104.347 0 0)
(104.615 0 0)
(104.778 0 0)
(104.856 0 0)
(104.864 0 0)
(104.802 0 0)
(104.691 0 0)
(104.673 0 0)
(104.696 0 0)
(104.782 0 0)
(104.948 0 0)
(105.227 0 0)
(105.414 0 0)
(105.507 0 0)
(105.523 0 0)
(105.475 0 0)
(105.371 0 0)
(105.348 0 0)
(105.369 0 0)
(105.446 0 0)
(105.603 0 0)
(105.847 0 0)
(106.006 0 0)
(106.083 0 0)
(106.092 0 0)
(106.059 0 0)
(106.039 0 0)
(106.06 0 0)
(106.112 0 0)
(106.238 0 0)
(106.382 0 0)
(106.475 0 0)
(106.503 0 0)
(106.521 0 0)
(106.579 0 0)
(106.694 0 0)
(106.8 0 0)
(106.831 0 0)
(106.832 0 0)
(106.846 0 0)
(106.899 0 0)
(107.03 0 0)
(107.178 0 0)
(107.272 0 0)
(107.294 0 0)
(107.297 0 0)
(107.317 0 0)
(107.386 0 0)
(107.511 0 0)
(107.62 0 0)
(107.652 0 0)
(107.662 0 0)
(107.682 0 0)
(107.757 0 0)
(107.906 0 0)
(108.052 0 0)
(108.134 0 0)
(108.152 0 0)
(108.148 0 0)
(108.159 0 0)
(108.186 0 0)
(108.218 0 0)
(108.274 0 0)
(108.4 0 0)
(108.587 0 0)
(108.729 0 0)
(108.802 0 0)
(108.817 0 0)
(108.801 0 0)
(108.792 0 0)
(108.814 0 0)
(108.844 0 0)
(108.891 0 0)
(109.012 0 0)
(109.205 0 0)
(109.367 0 0)
(109.456 0 0)
(109.477 0 0)
(109.465 0 0)
(109.454 0 0)
(109.473 0 0)
(109.505 0 0)
(109.537 0 0)
(109.629 0 0)
(109.789 0 0)
(109.954 0 0)
(110.051 0 0)
(110.077 0 0)
(110.076 0 0)
(110.088 0 0)
(110.121 0 0)
(110.224 0 0)
(110.365 0 0)
(110.47 0 0)
(110.5 0 0)
(110.498 0 0)
(110.498 0 0)
(110.523 0 0)
(110.553 0 0)
(110.631 0 0)
(110.782 0 0)
(110.99 0 0)
(111.127 0 0)
(111.188 0 0)
(111.199 0 0)
(111.185 0 0)
(111.185 0 0)
(111.21 0 0)
(111.241 0 0)
(111.272 0 0)
(111.338 0 0)
(111.477 0 0)
(111.685 0 0)
(111.829 0 0)
(111.896 0 0)
(111.902 0 0)
(111.858 0 0)
(111.825 0 0)
(111.844 0 0)
(111.883 0 0)
(111.994 0 0)
(112.165 0 0)
(112.305 0 0)
(112.376 0 0)
(112.401 0 0)
(112.429 0 0)
(112.49 0 0)
(112.575 0 0)
(112.632 0 0)
(112.663 0 0)
(112.692 0 0)
(112.777 0 0)
(112.905 0 0)
(113 0 0)
(113.025 0 0)
(113.029 0 0)
(113.049 0 0)
(113.109 0 0)
(113.241 0 0)
(113.384 0 0)
(113.469 0 0)
(113.498 0 0)
(113.531 0 0)
(113.61 0 0)
(113.702 0 0)
(113.743 0 0)
(113.743 0 0)
(113.728 0 0)
(113.745 0 0)
(113.812 0 0)
(113.957 0 0)
(114.166 0 0)
(114.303 0 0)
(114.36 0 0)
(114.364 0 0)
(114.336 0 0)
(114.342 0 0)
(114.372 0 0)
(114.46 0 0)
(114.605 0 0)
(114.731 0 0)
(114.782 0 0)
(114.799 0 0)
(114.819 0 0)
(114.881 0 0)
(114.996 0 0)
(115.097 0 0)
(115.131 0 0)
(115.152 0 0)
(115.194 0 0)
(115.299 0 0)
(115.415 0 0)
(115.463 0 0)
(115.484 0 0)
(115.509 0 0)
(115.593 0 0)
(115.726 0 0)
(115.832 0 0)
(115.864 0 0)
(115.866 0 0)
(115.881 0 0)
(115.922 0 0)
(116.04 0 0)
(116.181 0 0)
(116.277 0 0)
(116.305 0 0)
(116.325 0 0)
(116.365 0 0)
(116.461 0 0)
(116.564 0 0)
(116.607 0 0)
(116.623 0 0)
(116.643 0 0)
(116.696 0 0)
(116.825 0 0)
(116.973 0 0)
(117.066 0 0)
(117.095 0 0)
(117.116 0 0)
(117.168 0 0)
(117.263 0 0)
(117.348 0 0)
(117.372 0 0)
(117.354 0 0)
(117.341 0 0)
(117.364 0 0)
(117.457 0 0)
(117.633 0 0)
(117.862 0 0)
(117.992 0 0)
(118.039 0 0)
(118.031 0 0)
(117.965 0 0)
(117.942 0 0)
(117.965 0 0)
(118.043 0 0)
(118.2 0 0)
(118.417 0 0)
(118.551 0 0)
(118.603 0 0)
(118.6 0 0)
(118.547 0 0)
(118.531 0 0)
(118.555 0 0)
(118.631 0 0)
(118.783 0 0)
(118.962 0 0)
(119.071 0 0)
(119.103 0 0)
(119.1 0 0)
(119.103 0 0)
(119.133 0 0)
(119.226 0 0)
(119.379 0 0)
(119.509 0 0)
(119.561 0 0)
(119.56 0 0)
(119.524 0 0)
(119.531 0 0)
(119.574 0 0)
(119.694 0 0)
(119.889 0 0)
(120.039 0 0)
(120.111 0 0)
(120.12 0 0)
(120.09 0 0)
(120.089 0 0)
(120.122 0 0)
(120.227 0 0)
(120.411 0 0)
(120.579 0 0)
(120.664 0 0)
(120.679 0 0)
(120.635 0 0)
(120.578 0 0)
(120.589 0 0)
(120.641 0 0)
(120.771 0 0)
(121.004 0 0)
(121.208 0 0)
(121.309 0 0)
(121.334 0 0)
(121.296 0 0)
(121.171 0 0)
(121.116 0 0)
(121.134 0 0)
(121.191 0 0)
(121.329 0 0)
(121.584 0 0)