/*--------------------------------*- C++ -*----------------------------------*\
  =========                 |
  \\      /  F ield         | OpenFOAM: The Open Source CFD Toolbox
   \\    /   O peration     | Website:  https://openfoam.org
    \\  /    A nd           | Version:  9
     \\/     M anipulation  |
\*---------------------------------------------------------------------------*/
FoamFile
{
    format      ascii;
    class       volScalarField;
    location    "0.03";
    object      ddt0(rho,e);
}
// * * * * * * * * * * * * * * * * * * * * * * * * * * * * * * * * * * * * * //

dimensions      [1 -1 -3 0 0 0 0];

internalField   nonuniform List<scalar> 
10000
(
1.08924e+06
1.08913e+06
1.089e+06
1.08886e+06
1.08867e+06
1.08851e+06
1.08841e+06
1.08831e+06
1.08811e+06
1.08787e+06
1.08773e+06
1.0877e+06
1.08763e+06
1.08742e+06
1.08711e+06
1.08689e+06
1.08687e+06
1.08693e+06
1.08687e+06
1.08659e+06
1.08618e+06
1.0859e+06
1.08588e+06
1.08604e+06
1.08615e+06
1.086e+06
1.08557e+06
1.08506e+06
1.08472e+06
1.08471e+06
1.08497e+06
1.08526e+06
1.08533e+06
1.08505e+06
1.08447e+06
1.08383e+06
1.08337e+06
1.08328e+06
1.08355e+06
1.08402e+06
1.08443e+06
1.08457e+06
1.08432e+06
1.08371e+06
1.08291e+06
1.08214e+06
1.08162e+06
1.08149e+06
1.08174e+06
1.08231e+06
1.08301e+06
1.08364e+06
1.08403e+06
1.08407e+06
1.08371e+06
1.083e+06
1.08205e+06
1.08099e+06
1.07998e+06
1.07916e+06
1.07862e+06
1.07842e+06
1.0786e+06
1.07914e+06
1.07999e+06
1.08109e+06
1.08237e+06
1.08375e+06
1.08516e+06
1.08654e+06
1.08782e+06
1.08897e+06
1.08995e+06
1.09074e+06
1.09133e+06
1.09173e+06
1.09195e+06
1.09203e+06
1.09205e+06
1.09213e+06
1.09237e+06
1.09311e+06
1.09404e+06
1.094e+06
1.09399e+06
1.09397e+06
1.09395e+06
1.09393e+06
1.09392e+06
1.09391e+06
1.09389e+06
1.09388e+06
1.09388e+06
1.09387e+06
1.09387e+06
1.09387e+06
1.09387e+06
1.09386e+06
1.09386e+06
1.09386e+06
1.09386e+06
1.09386e+06
1.09386e+06
1.09386e+06
1.09386e+06
1.09386e+06
1.09386e+06
1.09386e+06
1.09386e+06
1.09386e+06
1.09386e+06
1.09386e+06
1.09386e+06
1.09386e+06
1.09386e+06
1.09386e+06
1.09386e+06
1.09386e+06
1.09386e+06
1.09386e+06
1.09386e+06
1.09386e+06
1.09386e+06
1.09386e+06
1.09386e+06
1.09386e+06
1.09386e+06
1.09386e+06
1.09386e+06
1.09386e+06
1.09386e+06
1.09386e+06
1.09386e+06
1.09386e+06
1.09386e+06
1.09386e+06
1.09386e+06
1.09386e+06
1.09386e+06
1.09386e+06
1.09386e+06
1.09386e+06
1.09386e+06
1.09386e+06
1.09386e+06
1.09386e+06
1.09386e+06
1.09386e+06
1.09386e+06
1.09386e+06
1.09386e+06
1.09386e+06
1.09386e+06
1.09386e+06
1.09386e+06
1.09386e+06
1.09386e+06
1.09386e+06
1.09386e+06
1.09386e+06
1.09386e+06
1.09386e+06
1.09386e+06
1.09386e+06
1.09386e+06
1.09386e+06
1.09386e+06
1.09386e+06
1.09386e+06
1.09386e+06
1.09386e+06
1.09386e+06
1.09386e+06
1.09386e+06
1.09386e+06
1.09386e+06
1.09386e+06
1.09386e+06
1.09386e+06
1.09386e+06
1.09386e+06
1.09386e+06
1.09386e+06
1.09386e+06
1.09386e+06
1.09386e+06
1.09386e+06
1.09386e+06
1.09386e+06
1.09386e+06
1.09386e+06
1.09386e+06
1.09386e+06
1.09386e+06
1.09386e+06
1.09386e+06
1.09386e+06
1.09386e+06
1.09386e+06
1.09385e+06
1.09385e+06
1.09385e+06
1.09385e+06
1.09385e+06
1.09385e+06
1.09385e+06
1.09385e+06
1.09385e+06
1.09385e+06
1.09385e+06
1.09385e+06
1.09385e+06
1.09385e+06
1.09385e+06
1.09385e+06
1.09385e+06
1.09385e+06
1.09385e+06
1.09385e+06
1.09385e+06
1.09385e+06
1.09385e+06
1.09385e+06
1.09385e+06
1.09385e+06
1.09385e+06
1.09385e+06
1.09384e+06
1.09384e+06
1.09384e+06
1.09384e+06
1.09384e+06
1.09384e+06
1.09384e+06
1.09384e+06
1.09384e+06
1.09384e+06
1.09384e+06
1.09384e+06
1.09384e+06
1.09384e+06
1.09384e+06
1.09384e+06
1.09384e+06
1.09384e+06
1.09384e+06
1.09384e+06
1.09384e+06
1.09384e+06
1.09383e+06
1.09383e+06
1.09383e+06
1.09383e+06
1.09383e+06
1.09383e+06
1.09383e+06
1.09383e+06
1.09383e+06
1.09383e+06
1.09383e+06
1.09383e+06
1.09383e+06
1.09383e+06
1.09383e+06
1.09383e+06
1.09383e+06
1.09382e+06
1.09382e+06
1.09382e+06
1.09382e+06
1.09382e+06
1.09382e+06
1.09382e+06
1.09382e+06
1.09382e+06
1.09382e+06
1.09382e+06
1.09382e+06
1.09382e+06
1.09382e+06
1.09382e+06
1.09382e+06
1.09381e+06
1.09381e+06
1.09381e+06
1.09381e+06
1.09381e+06
1.09381e+06
1.09381e+06
1.09381e+06
1.09381e+06
1.09381e+06
1.09381e+06
1.09381e+06
1.09381e+06
1.09381e+06
1.0938e+06
1.0938e+06
1.0938e+06
1.0938e+06
1.0938e+06
1.0938e+06
1.0938e+06
1.0938e+06
1.0938e+06
1.0938e+06
1.0938e+06
1.0938e+06
1.0938e+06
1.09379e+06
1.09379e+06
1.09379e+06
1.09379e+06
1.09379e+06
1.09379e+06
1.09379e+06
1.09379e+06
1.09379e+06
1.09379e+06
1.09379e+06
1.09379e+06
1.09378e+06
1.09378e+06
1.09378e+06
1.09378e+06
1.09378e+06
1.09378e+06
1.09378e+06
1.09378e+06
1.09378e+06
1.09378e+06
1.09378e+06
1.09378e+06
1.09377e+06
1.09377e+06
1.09377e+06
1.09377e+06
1.09377e+06
1.09377e+06
1.09377e+06
1.09377e+06
1.09377e+06
1.09377e+06
1.09377e+06
1.09376e+06
1.09376e+06
1.09376e+06
1.09376e+06
1.09376e+06
1.09376e+06
1.09376e+06
1.09376e+06
1.09376e+06
1.09376e+06
1.09375e+06
1.09375e+06
1.09375e+06
1.09375e+06
1.09375e+06
1.09375e+06
1.09375e+06
1.09375e+06
1.09375e+06
1.09375e+06
1.09374e+06
1.09374e+06
1.09374e+06
1.09374e+06
1.09374e+06
1.09374e+06
1.09374e+06
1.09374e+06
1.09374e+06
1.09373e+06
1.09373e+06
1.09373e+06
1.09373e+06
1.09373e+06
1.09373e+06
1.09373e+06
1.09373e+06
1.09373e+06
1.09372e+06
1.09372e+06
1.09372e+06
1.09372e+06
1.09372e+06
1.09372e+06
1.09372e+06
1.09372e+06
1.09372e+06
1.09371e+06
1.09371e+06
1.09371e+06
1.09371e+06
1.09371e+06
1.09371e+06
1.09371e+06
1.09371e+06
1.0937e+06
1.0937e+06
1.0937e+06
1.0937e+06
1.0937e+06
1.0937e+06
1.0937e+06
1.0937e+06
1.09369e+06
1.09369e+06
1.09369e+06
1.09369e+06
1.09369e+06
1.09369e+06
1.09369e+06
1.09369e+06
1.09368e+06
1.09368e+06
1.09368e+06
1.09368e+06
1.09368e+06
1.09368e+06
1.09368e+06
1.09368e+06
1.09367e+06
1.09367e+06
1.09367e+06
1.09367e+06
1.09367e+06
1.09367e+06
1.09367e+06
1.09366e+06
1.09366e+06
1.09366e+06
1.09366e+06
1.09366e+06
1.09366e+06
1.09366e+06
1.09365e+06
1.09365e+06
1.09365e+06
1.09365e+06
1.09365e+06
1.09365e+06
1.09365e+06
1.09364e+06
1.09364e+06
1.09364e+06
1.09364e+06
1.09364e+06
1.09364e+06
1.09364e+06
1.09363e+06
1.09363e+06
1.09363e+06
1.09363e+06
1.09363e+06
1.09363e+06
1.09363e+06
1.09362e+06
1.09362e+06
1.09362e+06
1.09362e+06
1.09362e+06
1.09362e+06
1.09362e+06
1.09361e+06
1.09361e+06
1.09361e+06
1.09361e+06
1.09361e+06
1.09361e+06
1.0936e+06
1.0936e+06
1.0936e+06
1.0936e+06
1.0936e+06
1.0936e+06
1.0936e+06
1.09359e+06
1.09359e+06
1.09359e+06
1.09359e+06
1.09359e+06
1.09359e+06
1.09358e+06
1.09358e+06
1.09358e+06
1.09358e+06
1.09358e+06
1.09358e+06
1.09357e+06
1.09357e+06
1.09357e+06
1.09357e+06
1.09357e+06
1.09357e+06
1.09356e+06
1.09356e+06
1.09356e+06
1.09356e+06
1.09356e+06
1.09356e+06
1.09355e+06
1.09355e+06
1.09355e+06
1.09355e+06
1.09355e+06
1.09355e+06
1.09354e+06
1.09354e+06
1.09354e+06
1.09354e+06
1.09354e+06
1.09354e+06
1.09353e+06
1.09353e+06
1.09353e+06
1.09353e+06
1.09353e+06
1.09352e+06
1.09352e+06
1.09352e+06
1.09352e+06
1.09352e+06
1.09352e+06
1.09351e+06
1.09351e+06
1.09351e+06
1.09351e+06
1.09351e+06
1.0935e+06
1.0935e+06
1.0935e+06
1.0935e+06
1.0935e+06
1.0935e+06
1.09349e+06
1.09349e+06
1.09349e+06
1.09349e+06
1.09349e+06
1.09348e+06
1.09348e+06
1.09348e+06
1.09348e+06
1.09348e+06
1.09348e+06
1.09347e+06
1.09347e+06
1.09347e+06
1.09347e+06
1.09347e+06
1.09346e+06
1.09346e+06
1.09346e+06
1.09346e+06
1.09346e+06
1.09345e+06
1.09345e+06
1.09345e+06
1.09345e+06
1.09345e+06
1.09344e+06
1.09344e+06
1.09344e+06
1.09344e+06
1.09344e+06
1.09343e+06
1.09343e+06
1.09343e+06
1.09343e+06
1.09343e+06
1.09342e+06
1.09342e+06
1.09342e+06
1.09342e+06
1.09342e+06
1.09341e+06
1.09341e+06
1.09341e+06
1.09341e+06
1.09341e+06
1.0934e+06
1.0934e+06
1.0934e+06
1.0934e+06
1.0934e+06
1.09339e+06
1.09339e+06
1.09339e+06
1.09339e+06
1.09338e+06
1.09338e+06
1.09338e+06
1.09338e+06
1.09338e+06
1.09337e+06
1.09337e+06
1.09337e+06
1.09337e+06
1.09336e+06
1.09336e+06
1.09336e+06
1.09336e+06
1.09336e+06
1.09335e+06
1.09335e+06
1.09335e+06
1.09335e+06
1.09335e+06
1.09334e+06
1.09334e+06
1.09334e+06
1.09334e+06
1.09333e+06
1.09333e+06
1.09333e+06
1.09333e+06
1.09333e+06
1.09332e+06
1.09332e+06
1.09332e+06
1.09332e+06
1.09331e+06
1.09331e+06
1.09331e+06
1.09331e+06
1.09331e+06
1.0933e+06
1.0933e+06
1.0933e+06
1.0933e+06
1.09329e+06
1.09329e+06
1.09329e+06
1.09329e+06
1.09328e+06
1.09328e+06
1.09328e+06
1.09328e+06
1.09327e+06
1.09327e+06
1.09327e+06
1.09327e+06
1.09327e+06
1.09326e+06
1.09326e+06
1.09326e+06
1.09326e+06
1.09325e+06
1.09325e+06
1.09325e+06
1.09325e+06
1.09324e+06
1.09324e+06
1.09324e+06
1.09324e+06
1.09323e+06
1.09323e+06
1.09323e+06
1.09323e+06
1.09322e+06
1.09322e+06
1.09322e+06
1.09322e+06
1.09321e+06
1.09321e+06
1.09321e+06
1.09321e+06
1.0932e+06
1.0932e+06
1.0932e+06
1.0932e+06
1.09319e+06
1.09319e+06
1.09319e+06
1.09319e+06
1.09318e+06
1.09318e+06
1.09318e+06
1.09318e+06
1.09317e+06
1.09317e+06
1.09317e+06
1.09317e+06
1.09316e+06
1.09316e+06
1.09316e+06
1.09316e+06
1.09315e+06
1.09315e+06
1.09315e+06
1.09315e+06
1.09314e+06
1.09314e+06
1.09314e+06
1.09314e+06
1.09313e+06
1.09313e+06
1.09313e+06
1.09312e+06
1.09312e+06
1.09312e+06
1.09312e+06
1.09311e+06
1.09311e+06
1.09311e+06
1.09311e+06
1.0931e+06
1.0931e+06
1.0931e+06
1.0931e+06
1.09309e+06
1.09309e+06
1.09309e+06
1.09308e+06
1.09308e+06
1.09308e+06
1.09308e+06
1.09307e+06
1.09307e+06
1.09307e+06
1.09307e+06
1.09306e+06
1.09306e+06
1.09306e+06
1.09305e+06
1.09305e+06
1.09305e+06
1.09305e+06
1.09304e+06
1.09304e+06
1.09304e+06
1.09303e+06
1.09303e+06
1.09303e+06
1.09303e+06
1.09302e+06
1.09302e+06
1.09302e+06
1.09302e+06
1.09301e+06
1.09301e+06
1.09301e+06
1.093e+06
1.093e+06
1.093e+06
1.093e+06
1.09299e+06
1.09299e+06
1.09299e+06
1.09298e+06
1.09298e+06
1.09298e+06
1.09298e+06
1.09297e+06
1.09297e+06
1.09297e+06
1.09296e+06
1.09296e+06
1.09296e+06
1.09295e+06
1.09295e+06
1.09295e+06
1.09295e+06
1.09294e+06
1.09294e+06
1.09294e+06
1.09293e+06
1.09293e+06
1.09293e+06
1.09292e+06
1.09292e+06
1.09292e+06
1.09292e+06
1.09291e+06
1.09291e+06
1.09291e+06
1.0929e+06
1.0929e+06
1.0929e+06
1.09289e+06
1.09289e+06
1.09289e+06
1.09289e+06
1.09288e+06
1.09288e+06
1.09288e+06
1.09287e+06
1.09287e+06
1.09287e+06
1.09286e+06
1.09286e+06
1.09286e+06
1.09286e+06
1.09285e+06
1.09285e+06
1.09285e+06
1.09284e+06
1.09284e+06
1.09284e+06
1.09283e+06
1.09283e+06
1.09283e+06
1.09282e+06
1.09282e+06
1.09282e+06
1.09281e+06
1.09281e+06
1.09281e+06
1.0928e+06
1.0928e+06
1.0928e+06
1.0928e+06
1.09279e+06
1.09279e+06
1.09279e+06
1.09278e+06
1.09278e+06
1.09278e+06
1.09277e+06
1.09277e+06
1.09277e+06
1.09276e+06
1.09276e+06
1.09276e+06
1.09275e+06
1.09275e+06
1.09275e+06
1.09274e+06
1.09274e+06
1.09274e+06
1.09273e+06
1.09273e+06
1.09273e+06
1.09272e+06
1.09272e+06
1.09272e+06
1.09271e+06
1.09271e+06
1.09271e+06
1.0927e+06
1.0927e+06
1.0927e+06
1.09269e+06
1.09269e+06
1.09269e+06
1.09268e+06
1.09268e+06
1.09268e+06
1.09267e+06
1.09267e+06
1.09267e+06
1.09266e+06
1.09266e+06
1.09266e+06
1.09265e+06
1.09265e+06
1.09265e+06
1.09264e+06
1.09264e+06
1.09264e+06
1.09263e+06
1.09263e+06
1.09263e+06
1.09262e+06
1.09262e+06
1.09262e+06
1.09261e+06
1.09261e+06
1.09261e+06
1.0926e+06
1.0926e+06
1.09259e+06
1.09259e+06
1.09259e+06
1.09259e+06
1.09258e+06
1.09258e+06
1.09257e+06
1.09258e+06
1.09256e+06
1.09257e+06
1.09255e+06
1.09257e+06
1.09253e+06
1.09258e+06
1.09251e+06
1.09259e+06
1.09248e+06
1.0926e+06
1.09245e+06
1.09263e+06
1.09241e+06
1.09265e+06
1.09237e+06
1.09268e+06
1.09234e+06
1.09268e+06
1.09233e+06
1.09265e+06
1.09237e+06
1.09257e+06
1.09248e+06
1.09245e+06
1.0925e+06
1.09249e+06
1.09246e+06
1.09247e+06
1.09248e+06
1.09246e+06
1.09245e+06
1.09245e+06
1.09246e+06
1.09245e+06
1.09244e+06
1.09244e+06
1.09245e+06
1.09241e+06
1.09249e+06
1.09232e+06
1.0926e+06
1.09217e+06
1.09275e+06
1.092e+06
1.09288e+06
1.09189e+06
1.09291e+06
1.09193e+06
1.09278e+06
1.09214e+06
1.09246e+06
1.0925e+06
1.09206e+06
1.09286e+06
1.09174e+06
1.09306e+06
1.09167e+06
1.09296e+06
1.09194e+06
1.09252e+06
1.09247e+06
1.09195e+06
1.09297e+06
1.09155e+06
1.09315e+06
1.0916e+06
1.09284e+06
1.09212e+06
1.09215e+06
1.09283e+06
1.09153e+06
1.09322e+06
1.09143e+06
1.09296e+06
1.09198e+06
1.09216e+06
1.09283e+06
1.09144e+06
1.09327e+06
1.09135e+06
1.09292e+06
1.09204e+06
1.09199e+06
1.09297e+06
1.09126e+06
1.0933e+06
1.0914e+06
1.09267e+06
1.09235e+06
1.0916e+06
1.09324e+06
1.09111e+06
1.09316e+06
1.09172e+06
1.09211e+06
1.09289e+06
1.09114e+06
1.09337e+06
1.09126e+06
1.09264e+06
1.09239e+06
1.0914e+06
1.09333e+06
1.091e+06
1.09304e+06
1.09188e+06
1.0918e+06
1.09307e+06
1.09097e+06
1.09327e+06
1.09144e+06
1.09224e+06
1.0927e+06
1.09109e+06
1.09336e+06
1.09111e+06
1.09261e+06
1.09234e+06
1.09125e+06
1.09335e+06
1.09091e+06
1.09284e+06
1.09209e+06
1.09136e+06
1.09333e+06
1.0908e+06
1.09295e+06
1.09197e+06
1.09137e+06
1.09335e+06
1.09071e+06
1.09297e+06
1.09198e+06
1.09125e+06
1.09343e+06
1.09066e+06
1.09286e+06
1.09215e+06
1.09103e+06
1.09352e+06
1.09069e+06
1.09261e+06
1.09246e+06
1.09073e+06
1.09358e+06
1.09086e+06
1.09218e+06
1.09288e+06
1.09043e+06
1.09349e+06
1.09125e+06
1.09157e+06
1.09334e+06
1.0903e+06
1.09313e+06
1.09188e+06
1.09091e+06
1.09363e+06
1.09047e+06
1.0925e+06
1.09258e+06
1.09043e+06
1.09357e+06
1.09095e+06
1.09176e+06
1.09314e+06
1.09023e+06
1.09323e+06
1.09162e+06
1.09099e+06
1.09356e+06
1.09034e+06
1.09252e+06
1.09252e+06
1.09029e+06
1.09357e+06
1.09099e+06
1.09144e+06
1.09337e+06
1.09009e+06
1.09289e+06
1.09213e+06
1.0904e+06
1.09363e+06
1.09071e+06
1.09164e+06
1.09322e+06
1.09003e+06
1.09297e+06
1.09198e+06
1.09043e+06
1.0936e+06
1.09066e+06
1.0916e+06
1.09321e+06
1.09e+06
1.09286e+06
1.09207e+06
1.09028e+06
1.09355e+06
1.09079e+06
1.09131e+06
1.09336e+06
1.08998e+06
1.09255e+06
1.09243e+06
1.08998e+06
1.09345e+06
1.09118e+06
1.09072e+06
1.09364e+06
1.09013e+06
1.09189e+06
1.09308e+06
1.08966e+06
1.09303e+06
1.09199e+06
1.08993e+06
1.09372e+06
1.09075e+06
1.09082e+06
1.09373e+06
1.0898e+06
1.09202e+06
1.09307e+06
1.08944e+06
1.0931e+06
1.09197e+06
1.08974e+06
1.09375e+06
1.09079e+06
1.09057e+06
1.0938e+06
1.08986e+06
1.09165e+06
1.0933e+06
1.0894e+06
1.09269e+06
1.09239e+06
1.08947e+06
1.09345e+06
1.09132e+06
1.09002e+06
1.09376e+06
1.09035e+06
1.09089e+06
1.09359e+06
1.08966e+06
1.09187e+06
1.09301e+06
1.08937e+06
1.09274e+06
1.09217e+06
1.08949e+06
1.09337e+06
1.09124e+06
1.08997e+06
1.09365e+06
1.09038e+06
1.09069e+06
1.09358e+06
1.08972e+06
1.09152e+06
1.09319e+06
1.08933e+06
1.09231e+06
1.09258e+06
1.08924e+06
1.09297e+06
1.09185e+06
1.08941e+06
1.09343e+06
1.09109e+06
1.0898e+06
1.09367e+06
1.09039e+06
1.09033e+06
1.09369e+06
1.08981e+06
1.09093e+06
1.09352e+06
1.08938e+06
1.09155e+06
1.0932e+06
1.0891e+06
1.09212e+06
1.09277e+06
1.08899e+06
1.0926e+06
1.09229e+06
1.08901e+06
1.093e+06
1.09179e+06
1.08914e+06
1.09329e+06
1.09129e+06
1.08936e+06
1.09349e+06
1.09083e+06
1.08963e+06
1.09359e+06
1.09041e+06
1.08995e+06
1.0936e+06
1.09004e+06
1.09028e+06
1.09354e+06
1.08974e+06
1.09061e+06
1.09344e+06
1.08949e+06
1.09092e+06
1.0933e+06
1.0893e+06
1.09122e+06
1.09314e+06
1.08914e+06
1.09149e+06
1.09296e+06
1.08901e+06
1.09174e+06
1.09278e+06
1.08892e+06
1.09194e+06
1.09262e+06
1.08886e+06
1.09211e+06
1.09247e+06
1.08882e+06
1.09223e+06
1.09234e+06
1.08879e+06
1.09233e+06
1.09223e+06
1.08876e+06
1.0924e+06
1.09215e+06
1.08875e+06
1.09243e+06
1.09208e+06
1.08875e+06
1.09244e+06
1.09203e+06
1.08875e+06
1.09243e+06
1.09201e+06
1.08873e+06
1.09239e+06
1.09202e+06
1.08871e+06
1.09234e+06
1.09205e+06
1.08869e+06
1.09227e+06
1.09211e+06
1.08867e+06
1.09216e+06
1.0922e+06
1.08867e+06
1.09201e+06
1.09231e+06
1.08867e+06
1.09182e+06
1.09245e+06
1.08869e+06
1.09161e+06
1.09257e+06
1.08876e+06
1.09137e+06
1.09268e+06
1.08886e+06
1.09111e+06
1.09278e+06
1.08899e+06
1.09083e+06
1.09287e+06
1.08914e+06
1.09054e+06
1.09294e+06
1.08932e+06
1.09025e+06
1.09297e+06
1.08954e+06
1.08996e+06
1.09297e+06
1.08981e+06
1.08966e+06
1.09292e+06
1.09012e+06
1.08935e+06
1.09284e+06
1.09048e+06
1.08907e+06
1.09267e+06
1.09087e+06
1.08885e+06
1.09241e+06
1.09129e+06
1.08871e+06
1.09204e+06
1.09172e+06
1.08866e+06
1.09159e+06
1.09212e+06
1.08872e+06
1.09108e+06
1.09245e+06
1.08892e+06
1.09054e+06
1.09264e+06
1.08926e+06
1.09e+06
1.09269e+06
1.08973e+06
1.0895e+06
1.0926e+06
1.09025e+06
1.0891e+06
1.09237e+06
1.09078e+06
1.08885e+06
1.092e+06
1.09129e+06
1.08877e+06
1.09149e+06
1.09176e+06
1.08883e+06
1.09092e+06
1.09213e+06
1.08905e+06
1.09033e+06
1.09234e+06
1.08942e+06
1.08977e+06
1.09237e+06
1.08993e+06
1.08925e+06
1.0922e+06
1.09056e+06
1.08886e+06
1.09184e+06
1.09119e+06
1.08869e+06
1.09127e+06
1.09176e+06
1.0888e+06
1.09054e+06
1.09216e+06
1.0892e+06
1.08977e+06
1.09229e+06
1.08982e+06
1.08914e+06
1.09208e+06
1.09055e+06
1.08878e+06
1.09155e+06
1.09126e+06
1.08874e+06
1.09082e+06
1.09178e+06
1.08901e+06
1.09007e+06
1.092e+06
1.08954e+06
1.08944e+06
1.09187e+06
1.09021e+06
1.08902e+06
1.09149e+06
1.09087e+06
1.08885e+06
1.09093e+06
1.09139e+06
1.08898e+06
1.09026e+06
1.09171e+06
1.08939e+06
1.08956e+06
1.09176e+06
1.09002e+06
1.089e+06
1.09147e+06
1.09075e+06
1.08876e+06
1.09082e+06
1.0914e+06
1.08895e+06
1.08997e+06
1.09174e+06
1.08952e+06
1.08922e+06
1.0916e+06
1.09031e+06
1.08881e+06
1.09101e+06
1.09105e+06
1.08886e+06
1.09021e+06
1.09148e+06
1.08932e+06
1.08948e+06
1.09144e+06
1.09e+06
1.08902e+06
1.09102e+06
1.09068e+06
1.08892e+06
1.09039e+06
1.09115e+06
1.08919e+06
1.08972e+06
1.09127e+06
1.08975e+06
1.08917e+06
1.09102e+06
1.09041e+06
1.08893e+06
1.09048e+06
1.09094e+06
1.0891e+06
1.08978e+06
1.09117e+06
1.08963e+06
1.08916e+06
1.09098e+06
1.09032e+06
1.08888e+06
1.0904e+06
1.09089e+06
1.08909e+06
1.08964e+06
1.09109e+06
1.08969e+06
1.08905e+06
1.0908e+06
1.09038e+06
1.0889e+06
1.09013e+06
1.09086e+06
1.08924e+06
1.08943e+06
1.09089e+06
1.08984e+06
1.08902e+06
1.0905e+06
1.09041e+06
1.08902e+06
1.08988e+06
1.09074e+06
1.08938e+06
1.0893e+06
1.09068e+06
1.08993e+06
1.089e+06
1.09024e+06
1.09045e+06
1.08908e+06
1.08963e+06
1.09069e+06
1.0895e+06
1.0891e+06
1.09049e+06
1.09012e+06
1.08891e+06
1.08991e+06
1.09059e+06
1.08919e+06
1.08924e+06
1.0906e+06
1.08982e+06
1.08887e+06
1.09009e+06
1.09042e+06
1.08901e+06
1.08939e+06
1.09057e+06
1.08958e+06
1.08891e+06
1.09018e+06
1.09021e+06
1.08893e+06
1.08952e+06
1.09045e+06
1.08939e+06
1.08903e+06
1.0902e+06
1.08996e+06
1.08892e+06
1.08967e+06
1.09029e+06
1.08921e+06
1.08915e+06
1.09022e+06
1.08973e+06
1.08889e+06
1.08978e+06
1.09017e+06
1.08905e+06
1.08921e+06
1.09024e+06
1.08957e+06
1.08883e+06
1.08982e+06
1.0901e+06
1.08895e+06
1.08919e+06
1.0902e+06
1.08951e+06
1.0888e+06
1.08977e+06
1.09003e+06
1.08894e+06
1.08916e+06
1.0901e+06
1.08946e+06
1.08883e+06
1.08969e+06
1.08992e+06
1.08895e+06
1.08917e+06
1.08998e+06
1.08938e+06
1.08885e+06
1.08965e+06
1.08981e+06
1.08892e+06
1.08916e+06
1.08991e+06
1.08931e+06
1.08882e+06
1.08961e+06
1.08976e+06
1.08887e+06
1.0891e+06
1.08987e+06
1.08929e+06
1.08876e+06
1.08953e+06
1.08975e+06
1.08885e+06
1.08899e+06
1.08981e+06
1.08933e+06
1.0887e+06
1.08939e+06
1.08974e+06
1.08889e+06
1.08887e+06
1.0897e+06
1.08938e+06
1.08868e+06
1.08922e+06
1.0897e+06
1.08896e+06
1.08877e+06
1.08954e+06
1.08942e+06
1.08871e+06
1.08907e+06
1.08962e+06
1.08902e+06
1.08872e+06
1.0894e+06
1.08941e+06
1.08873e+06
1.08896e+06
1.08954e+06
1.08906e+06
1.08865e+06
1.08927e+06
1.08942e+06
1.08874e+06
1.08881e+06
1.08947e+06
1.08913e+06
1.08857e+06
1.08909e+06
1.08946e+06
1.08881e+06
1.08863e+06
1.08933e+06
1.08925e+06
1.08858e+06
1.08885e+06
1.0894e+06
1.08896e+06
1.08854e+06
1.08909e+06
1.08929e+06
1.08869e+06
1.08868e+06
1.08924e+06
1.08905e+06
1.08855e+06
1.0889e+06
1.08923e+06
1.08876e+06
1.0886e+06
1.0891e+06
1.08907e+06
1.08854e+06
1.08876e+06
1.08919e+06
1.08881e+06
1.08847e+06
1.08896e+06
1.08915e+06
1.08856e+06
1.08852e+06
1.08912e+06
1.08899e+06
1.0884e+06
1.08866e+06
1.08917e+06
1.08876e+06
1.08837e+06
1.08883e+06
1.08908e+06
1.08856e+06
1.08844e+06
1.08895e+06
1.0889e+06
1.08844e+06
1.08859e+06
1.08896e+06
1.08868e+06
1.0884e+06
1.08875e+06
1.08888e+06
1.08848e+06
1.08847e+06
1.08887e+06
1.08872e+06
1.08834e+06
1.0886e+06
1.0889e+06
1.08854e+06
1.08828e+06
1.08872e+06
1.08886e+06
1.08836e+06
1.08831e+06
1.08881e+06
1.08875e+06
1.08824e+06
1.08839e+06
1.08883e+06
1.08859e+06
1.0882e+06
1.08849e+06
1.08879e+06
1.08843e+06
1.08823e+06
1.08857e+06
1.08867e+06
1.08831e+06
1.08831e+06
1.08863e+06
1.08851e+06
1.08823e+06
1.08841e+06
1.08862e+06
1.08834e+06
1.08819e+06
1.08852e+06
1.08857e+06
1.0882e+06
1.0882e+06
1.08859e+06
1.08848e+06
1.08809e+06
1.08825e+06
1.08861e+06
1.08837e+06
1.08802e+06
1.0883e+06
1.08858e+06
1.08826e+06
1.08802e+06
1.08834e+06
1.08852e+06
1.08816e+06
1.08805e+06
1.08837e+06
1.0884e+06
1.08809e+06
1.08811e+06
1.08837e+06
1.08827e+06
1.08805e+06
1.08819e+06
1.08835e+06
1.08813e+06
1.08802e+06
1.08826e+06
1.0883e+06
1.08801e+06
1.088e+06
1.08831e+06
1.08824e+06
1.08792e+06
1.08801e+06
1.08832e+06
1.08818e+06
1.08785e+06
1.08802e+06
1.0883e+06
1.0881e+06
1.08783e+06
1.08804e+06
1.08826e+06
1.08802e+06
1.08783e+06
1.08805e+06
1.08818e+06
1.08794e+06
1.08785e+06
1.08807e+06
1.08809e+06
1.08787e+06
1.08788e+06
1.08808e+06
1.08799e+06
1.0878e+06
1.08792e+06
1.08808e+06
1.08791e+06
1.08774e+06
1.08794e+06
1.08807e+06
1.08783e+06
1.0877e+06
1.08794e+06
1.08804e+06
1.08777e+06
1.08767e+06
1.08793e+06
1.088e+06
1.08773e+06
1.08767e+06
1.0879e+06
1.08793e+06
1.08769e+06
1.08768e+06
1.08788e+06
1.08784e+06
1.08766e+06
1.0877e+06
1.08785e+06
1.08776e+06
1.08761e+06
1.08773e+06
1.08783e+06
1.08768e+06
1.08756e+06
1.08774e+06
1.08782e+06
1.08761e+06
1.08752e+06
1.08772e+06
1.0878e+06
1.08756e+06
1.08748e+06
1.0877e+06
1.08776e+06
1.08754e+06
1.08747e+06
1.08766e+06
1.0877e+06
1.08751e+06
1.08747e+06
1.08763e+06
1.08763e+06
1.08746e+06
1.08749e+06
1.08761e+06
1.08756e+06
1.08741e+06
1.08749e+06
1.0876e+06
1.08749e+06
1.08736e+06
1.08747e+06
1.08759e+06
1.08745e+06
1.08731e+06
1.08744e+06
1.08757e+06
1.08742e+06
1.08728e+06
1.08741e+06
1.08753e+06
1.08739e+06
1.08726e+06
1.08738e+06
1.08748e+06
1.08735e+06
1.08724e+06
1.08735e+06
1.08743e+06
1.0873e+06
1.08723e+06
1.08734e+06
1.08738e+06
1.08725e+06
1.08721e+06
1.08733e+06
1.08733e+06
1.0872e+06
1.08718e+06
1.08732e+06
1.0873e+06
1.08715e+06
1.08714e+06
1.08729e+06
1.08728e+06
1.08711e+06
1.0871e+06
1.08725e+06
1.08725e+06
1.08709e+06
1.08707e+06
1.08721e+06
1.08721e+06
1.08707e+06
1.08705e+06
1.08717e+06
1.08716e+06
1.08704e+06
1.08703e+06
1.08713e+06
1.08711e+06
1.087e+06
1.08701e+06
1.0871e+06
1.08707e+06
1.08695e+06
1.08699e+06
1.08708e+06
1.08703e+06
1.08691e+06
1.08694e+06
1.08706e+06
1.08701e+06
1.08688e+06
1.0869e+06
1.08702e+06
1.08699e+06
1.08685e+06
1.08686e+06
1.08697e+06
1.08695e+06
1.08683e+06
1.08683e+06
1.08692e+06
1.08691e+06
1.08681e+06
1.0868e+06
1.08689e+06
1.08686e+06
1.08677e+06
1.08678e+06
1.08686e+06
1.08683e+06
1.08673e+06
1.08675e+06
1.08683e+06
1.0868e+06
1.08669e+06
1.08671e+06
1.08679e+06
1.08677e+06
1.08666e+06
1.08666e+06
1.08676e+06
1.08674e+06
1.08663e+06
1.08662e+06
1.08671e+06
1.08671e+06
1.08661e+06
1.08658e+06
1.08666e+06
1.08668e+06
1.08659e+06
1.08655e+06
1.08662e+06
1.08663e+06
1.08656e+06
1.08653e+06
1.08659e+06
1.08659e+06
1.08652e+06
1.08649e+06
1.08656e+06
1.08656e+06
1.08648e+06
1.08645e+06
1.08652e+06
1.08654e+06
1.08645e+06
1.0864e+06
1.08647e+06
1.08652e+06
1.08643e+06
1.08636e+06
1.08641e+06
1.08647e+06
1.08642e+06
1.08634e+06
1.08637e+06
1.08642e+06
1.08639e+06
1.08632e+06
1.08633e+06
1.08638e+06
1.08634e+06
1.08629e+06
1.0863e+06
1.08634e+06
1.0863e+06
1.08625e+06
1.08627e+06
1.08632e+06
1.08628e+06
1.0862e+06
1.08622e+06
1.08628e+06
1.08626e+06
1.08617e+06
1.08616e+06
1.08623e+06
1.08624e+06
1.08616e+06
1.08612e+06
1.08617e+06
1.0862e+06
1.08615e+06
1.08609e+06
1.08612e+06
1.08615e+06
1.08611e+06
1.08607e+06
1.08609e+06
1.08611e+06
1.08606e+06
1.08603e+06
1.08607e+06
1.08608e+06
1.08603e+06
1.08598e+06
1.08602e+06
1.08606e+06
1.08602e+06
1.08594e+06
1.08595e+06
1.08601e+06
1.086e+06
1.08592e+06
1.0859e+06
1.08595e+06
1.08597e+06
1.08592e+06
1.08587e+06
1.0859e+06
1.08591e+06
1.08588e+06
1.08585e+06
1.08587e+06
1.08587e+06
1.08583e+06
1.08581e+06
1.08584e+06
1.08585e+06
1.08579e+06
1.08575e+06
1.08579e+06
1.08583e+06
1.08579e+06
1.08571e+06
1.08572e+06
1.08578e+06
1.08578e+06
1.0857e+06
1.08567e+06
1.08571e+06
1.08573e+06
1.08569e+06
1.08565e+06
1.08566e+06
1.08567e+06
1.08565e+06
1.08563e+06
1.08564e+06
1.08564e+06
1.08559e+06
1.08558e+06
1.0856e+06
1.08562e+06
1.08557e+06
1.08552e+06
1.08554e+06
1.08559e+06
1.08557e+06
1.0855e+06
1.08548e+06
1.08552e+06
1.08554e+06
1.08549e+06
1.08545e+06
1.08546e+06
1.08548e+06
1.08546e+06
1.08543e+06
1.08543e+06
1.08543e+06
1.08541e+06
1.08539e+06
1.0854e+06
1.08541e+06
1.08537e+06
1.08533e+06
1.08535e+06
1.08538e+06
1.08536e+06
1.0853e+06
1.08528e+06
1.08532e+06
1.08534e+06
1.08529e+06
1.08524e+06
1.08525e+06
1.08529e+06
1.08527e+06
1.08523e+06
1.08521e+06
1.08522e+06
1.08522e+06
1.0852e+06
1.08519e+06
1.08519e+06
1.08518e+06
1.08515e+06
1.08515e+06
1.08517e+06
1.08516e+06
1.08511e+06
1.08508e+06
1.08511e+06
1.08513e+06
1.0851e+06
1.08505e+06
1.08504e+06
1.08508e+06
1.08508e+06
1.08503e+06
1.085e+06
1.08501e+06
1.08503e+06
1.08501e+06
1.08498e+06
1.08498e+06
1.08498e+06
1.08496e+06
1.08494e+06
1.08495e+06
1.08495e+06
1.08492e+06
1.08489e+06
1.08489e+06
1.08492e+06
1.0849e+06
1.08486e+06
1.08483e+06
1.08486e+06
1.08487e+06
1.08484e+06
1.0848e+06
1.08479e+06
1.08482e+06
1.08481e+06
1.08478e+06
1.08476e+06
1.08477e+06
1.08476e+06
1.08474e+06
1.08473e+06
1.08473e+06
1.08473e+06
1.08469e+06
1.08468e+06
1.08469e+06
1.0847e+06
1.08467e+06
1.08463e+06
1.08463e+06
1.08465e+06
1.08465e+06
1.08461e+06
1.08459e+06
1.08459e+06
1.0846e+06
1.08458e+06
1.08456e+06
1.08455e+06
1.08455e+06
1.08454e+06
1.08452e+06
1.08451e+06
1.08451e+06
1.0845e+06
1.08448e+06
1.08446e+06
1.08447e+06
1.08447e+06
1.08445e+06
1.08441e+06
1.08442e+06
1.08443e+06
1.08442e+06
1.08439e+06
1.08437e+06
1.08438e+06
1.08438e+06
1.08436e+06
1.08433e+06
1.08433e+06
1.08433e+06
1.08432e+06
1.08429e+06
1.08429e+06
1.08429e+06
1.08428e+06
1.08425e+06
1.08424e+06
1.08425e+06
1.08425e+06
1.08422e+06
1.0842e+06
1.08419e+06
1.0842e+06
1.08419e+06
1.08417e+06
1.08415e+06
1.08415e+06
1.08415e+06
1.08413e+06
1.08411e+06
1.08411e+06
1.08411e+06
1.08409e+06
1.08407e+06
1.08406e+06
1.08407e+06
1.08406e+06
1.08403e+06
1.08401e+06
1.08402e+06
1.08402e+06
1.084e+06
1.08398e+06
1.08397e+06
1.08397e+06
1.08396e+06
1.08394e+06
1.08393e+06
1.08393e+06
1.08392e+06
1.0839e+06
1.08388e+06
1.08388e+06
1.08389e+06
1.08386e+06
1.08384e+06
1.08383e+06
1.08384e+06
1.08383e+06
1.08381e+06
1.08379e+06
1.08378e+06
1.08378e+06
1.08377e+06
1.08376e+06
1.08374e+06
1.08374e+06
1.08372e+06
1.08371e+06
1.0837e+06
1.0837e+06
1.08369e+06
1.08367e+06
1.08365e+06
1.08365e+06
1.08366e+06
1.08364e+06
1.08361e+06
1.08359e+06
1.08359e+06
1.0836e+06
1.08359e+06
1.08356e+06
1.08354e+06
1.08354e+06
1.08354e+06
1.08353e+06
1.08352e+06
1.08351e+06
1.08349e+06
1.08347e+06
1.08346e+06
1.08346e+06
1.08347e+06
1.08344e+06
1.08341e+06
1.0834e+06
1.08341e+06
1.08341e+06
1.08339e+06
1.08336e+06
1.08335e+06
1.08335e+06
1.08335e+06
1.08334e+06
1.08332e+06
1.08331e+06
1.08329e+06
1.08328e+06
1.08328e+06
1.08327e+06
1.08327e+06
1.08324e+06
1.08322e+06
1.08321e+06
1.08322e+06
1.08322e+06
1.08319e+06
1.08316e+06
1.08315e+06
1.08316e+06
1.08316e+06
1.08314e+06
1.08312e+06
1.08311e+06
1.0831e+06
1.0831e+06
1.08309e+06
1.08307e+06
1.08306e+06
1.08304e+06
1.08303e+06
1.08302e+06
1.08303e+06
1.08302e+06
1.08299e+06
1.08297e+06
1.08296e+06
1.08297e+06
1.08297e+06
1.08294e+06
1.08292e+06
1.08291e+06
1.08291e+06
1.08291e+06
1.08289e+06
1.08287e+06
1.08286e+06
1.08285e+06
1.08284e+06
1.08283e+06
1.08283e+06
1.08281e+06
1.08279e+06
1.08277e+06
1.08277e+06
1.08277e+06
1.08276e+06
1.08274e+06
1.08271e+06
1.08271e+06
1.08271e+06
1.08271e+06
1.08269e+06
1.08267e+06
1.08265e+06
1.08265e+06
1.08264e+06
1.08263e+06
1.08262e+06
1.08261e+06
1.08259e+06
1.08258e+06
1.08257e+06
1.08257e+06
1.08256e+06
1.08254e+06
1.08252e+06
1.08251e+06
1.08251e+06
1.08251e+06
1.08249e+06
1.08246e+06
1.08245e+06
1.08245e+06
1.08244e+06
1.08243e+06
1.08242e+06
1.0824e+06
1.08239e+06
1.08238e+06
1.08237e+06
1.08236e+06
1.08235e+06
1.08233e+06
1.08232e+06
1.08231e+06
1.08231e+06
1.0823e+06
1.08228e+06
1.08226e+06
1.08224e+06
1.08224e+06
1.08224e+06
1.08223e+06
1.08221e+06
1.08219e+06
1.08218e+06
1.08218e+06
1.08217e+06
1.08216e+06
1.08215e+06
1.08213e+06
1.08211e+06
1.0821e+06
1.0821e+06
1.08209e+06
1.08208e+06
1.08206e+06
1.08204e+06
1.08203e+06
1.08203e+06
1.08202e+06
1.08201e+06
1.08199e+06
1.08198e+06
1.08197e+06
1.08196e+06
1.08195e+06
1.08193e+06
1.08192e+06
1.08191e+06
1.0819e+06
1.08189e+06
1.08188e+06
1.08187e+06
1.08185e+06
1.08184e+06
1.08183e+06
1.08182e+06
1.08181e+06
1.0818e+06
1.08178e+06
1.08177e+06
1.08176e+06
1.08175e+06
1.08174e+06
1.08172e+06
1.08171e+06
1.0817e+06
1.08169e+06
1.08168e+06
1.08167e+06
1.08165e+06
1.08164e+06
1.08163e+06
1.08162e+06
1.08161e+06
1.0816e+06
1.08159e+06
1.08157e+06
1.08155e+06
1.08154e+06
1.08154e+06
1.08153e+06
1.08151e+06
1.0815e+06
1.08148e+06
1.08147e+06
1.08147e+06
1.08146e+06
1.08144e+06
1.08143e+06
1.08141e+06
1.0814e+06
1.08139e+06
1.08138e+06
1.08138e+06
1.08136e+06
1.08134e+06
1.08133e+06
1.08132e+06
1.08132e+06
1.08131e+06
1.08129e+06
1.08127e+06
1.08126e+06
1.08125e+06
1.08124e+06
1.08123e+06
1.08122e+06
1.0812e+06
1.08119e+06
1.08117e+06
1.08116e+06
1.08116e+06
1.08115e+06
1.08113e+06
1.08111e+06
1.0811e+06
1.08109e+06
1.08108e+06
1.08108e+06
1.08106e+06
1.08104e+06
1.08103e+06
1.08102e+06
1.08101e+06
1.081e+06
1.08099e+06
1.08097e+06
1.08096e+06
1.08094e+06
1.08093e+06
1.08092e+06
1.08092e+06
1.0809e+06
1.08088e+06
1.08087e+06
1.08086e+06
1.08085e+06
1.08084e+06
1.08083e+06
1.08081e+06
1.0808e+06
1.08079e+06
1.08078e+06
1.08077e+06
1.08075e+06
1.08074e+06
1.08073e+06
1.08071e+06
1.0807e+06
1.08069e+06
1.08068e+06
1.08067e+06
1.08065e+06
1.08064e+06
1.08062e+06
1.08062e+06
1.08061e+06
1.08059e+06
1.08058e+06
1.08056e+06
1.08055e+06
1.08054e+06
1.08053e+06
1.08052e+06
1.0805e+06
1.08049e+06
1.08048e+06
1.08046e+06
1.08045e+06
1.08044e+06
1.08043e+06
1.08042e+06
1.0804e+06
1.08039e+06
1.08038e+06
1.08037e+06
1.08035e+06
1.08034e+06
1.08033e+06
1.08032e+06