/*--------------------------------*- C++ -*----------------------------------*\
  =========                 |
  \\      /  F ield         | OpenFOAM: The Open Source CFD Toolbox
   \\    /   O peration     | Website:  https://openfoam.org
    \\  /    A nd           | Version:  9
     \\/     M anipulation  |
\*---------------------------------------------------------------------------*/
FoamFile
{
    format      ascii;
    class       volScalarField;
    location    "0.03";
    object      ddt0(rho,K);
}
// * * * * * * * * * * * * * * * * * * * * * * * * * * * * * * * * * * * * * //

dimensions      [1 -1 -3 0 0 0 0];

internalField   nonuniform List<scalar> 
10000
(
210.394
205.641
202.673
200.019
197.04
193.813
190.501
187.15
183.743
180.258
176.693
173.059
169.363
165.601
161.759
157.831
153.823
149.749
145.619
141.423
137.148
132.786
128.342
123.824
119.244
114.604
109.9
105.118
100.245
95.2814
90.2426
85.1444
79.9947
74.7926
69.5274
64.1813
58.7403
53.2015
47.5709
41.8606
36.0879
30.266
24.3998
18.4879
12.5168
6.46101
0.298475
-5.97745
-12.3544
-18.8129
-25.3446
-31.9427
-38.5867
-45.2605
-51.9703
-58.7289
-65.5411
-72.4203
-79.3901
-86.4584
-93.6302
-100.917
-108.316
-115.82
-123.43
-131.136
-138.929
-146.807
-154.756
-162.771
-170.841
-178.963
-187.151
-195.421
-203.755
-212.099
-220.476
-228.951
-237.488
-246.103
-254.815
-263.688
-272.633
-281.477
-290.421
-299.475
-308.592
-317.754
-327.033
-336.384
-345.757
-355.196
-364.737
-374.37
-384.084
-393.865
-403.715
-413.639
-423.632
-433.699
-443.84
-454.047
-464.329
-474.686
-485.109
-495.607
-506.184
-516.828
-527.543
-538.339
-549.209
-560.143
-571.149
-582.238
-593.405
-604.636
-615.932
-627.304
-638.759
-650.293
-661.897
-673.564
-685.293
-697.095
-708.975
-720.933
-732.968
-745.079
-757.264
-769.519
-781.85
-794.255
-806.734
-819.284
-831.908
-844.607
-857.377
-870.215
-883.126
-896.113
-909.172
-922.301
-935.5
-948.773
-962.124
-975.55
-989.046
-1002.61
-1016.25
-1029.96
-1043.75
-1057.62
-1071.56
-1085.57
-1099.64
-1113.79
-1128
-1142.29
-1156.66
-1171.11
-1185.63
-1200.22
-1214.89
-1229.63
-1244.44
-1259.32
-1274.28
-1289.31
-1304.42
-1319.6
-1334.85
-1350.18
-1365.58
-1381.05
-1396.59
-1412.21
-1427.9
-1443.66
-1459.49
-1475.4
-1491.37
-1507.42
-1523.54
-1539.74
-1556.02
-1572.37
-1588.79
-1605.28
-1621.84
-1638.47
-1655.17
-1671.94
-1688.79
-1705.72
-1722.72
-1739.8
-1756.95
-1774.18
-1791.47
-1808.84
-1826.28
-1843.8
-1861.38
-1879.04
-1896.78
-1914.58
-1932.46
-1950.42
-1968.45
-1986.55
-2004.73
-2022.98
-2041.3
-2059.69
-2078.15
-2096.68
-2115.29
-2133.97
-2152.73
-2171.56
-2190.46
-2209.44
-2228.48
-2247.59
-2266.78
-2286.04
-2305.37
-2324.78
-2344.26
-2363.82
-2383.45
-2403.16
-2422.94
-2442.8
-2462.72
-2482.72
-2502.79
-2522.94
-2543.15
-2563.44
-2583.8
-2604.24
-2624.74
-2645.33
-2665.99
-2686.72
-2707.52
-2728.4
-2749.35
-2770.37
-2791.46
-2812.63
-2833.88
-2855.19
-2876.58
-2898.04
-2919.57
-2941.17
-2962.84
-2984.58
-3006.39
-3028.28
-3050.25
-3072.29
-3094.4
-3116.59
-3138.85
-3161.19
-3183.6
-3206.08
-3228.64
-3251.26
-3273.97
-3296.74
-3319.59
-3342.5
-3365.5
-3388.56
-3411.7
-3434.91
-3458.19
-3481.55
-3504.98
-3528.48
-3552.06
-3575.71
-3599.44
-3623.24
-3647.12
-3671.06
-3695.08
-3719.17
-3743.33
-3767.56
-3791.86
-3816.23
-3840.67
-3865.19
-3889.79
-3914.46
-3939.2
-3964.02
-3988.91
-4013.87
-4038.91
-4064.02
-4089.21
-4114.46
-4139.79
-4165.2
-4190.67
-4216.22
-4241.84
-4267.54
-4293.31
-4319.14
-4345.06
-4371.04
-4397.1
-4423.23
-4449.43
-4475.71
-4502.07
-4528.5
-4555
-4581.58
-4608.23
-4634.94
-4661.73
-4688.59
-4715.53
-4742.53
-4769.61
-4796.76
-4823.98
-4851.28
-4878.65
-4906.09
-4933.61
-4961.21
-4988.87
-5016.61
-5044.43
-5072.31
-5100.27
-5128.3
-5156.4
-5184.58
-5212.83
-5241.16
-5269.56
-5298.02
-5326.57
-5355.18
-5383.87
-5412.62
-5441.46
-5470.36
-5499.35
-5528.4
-5557.53
-5586.73
-5616.01
-5645.35
-5674.77
-5704.26
-5733.83
-5763.46
-5793.17
-5822.95
-5852.81
-5882.73
-5912.74
-5942.81
-5972.96
-6003.18
-6033.47
-6063.84
-6094.28
-6124.8
-6155.38
-6186.04
-6216.77
-6247.58
-6278.46
-6309.41
-6340.44
-6371.53
-6402.7
-6433.95
-6465.26
-6496.65
-6528.11
-6559.65
-6591.26
-6622.94
-6654.7
-6686.52
-6718.42
-6750.4
-6782.44
-6814.56
-6846.75
-6879.02
-6911.35
-6943.76
-6976.25
-7008.81
-7041.44
-7074.14
-7106.92
-7139.77
-7172.69
-7205.69
-7238.76
-7271.9
-7305.12
-7338.41
-7371.77
-7405.2
-7438.71
-7472.29
-7505.94
-7539.66
-7573.46
-7607.33
-7641.28
-7675.29
-7709.38
-7743.55
-7777.78
-7812.09
-7846.48
-7880.94
-7915.46
-7950.07
-7984.74
-8019.48
-8054.3
-8089.19
-8124.15
-8159.19
-8194.3
-8229.48
-8264.74
-8300.07
-8335.48
-8370.95
-8406.51
-8442.13
-8477.83
-8513.61
-8549.45
-8585.37
-8621.36
-8657.42
-8693.55
-8729.76
-8766.04
-8802.4
-8838.82
-8875.32
-8911.89
-8948.54
-8985.25
-9022.04
-9058.9
-9095.84
-9132.85
-9169.94
-9207.09
-9244.32
-9281.63
-9319
-9356.45
-9393.97
-9431.56
-9469.22
-9506.95
-9544.76
-9582.64
-9620.6
-9658.62
-9696.73
-9734.9
-9773.15
-9811.48
-9849.88
-9888.35
-9926.9
-9965.52
-10004.2
-10043
-10081.8
-10120.7
-10159.7
-10198.8
-10237.9
-10277.1
-10316.4
-10355.7
-10395.1
-10434.6
-10474.2
-10513.8
-10553.5
-10593.3
-10633.2
-10673.1
-10713.1
-10753.2
-10793.3
-10833.5
-10873.8
-10914.2
-10954.6
-10995.1
-11035.7
-11076.4
-11117.1
-11157.9
-11198.8
-11239.7
-11280.7
-11321.8
-11363
-11404.2
-11445.5
-11486.9
-11528.4
-11569.9
-11611.6
-11653.2
-11695
-11736.8
-11778.7
-11820.7
-11862.7
-11904.9
-11947
-11989.3
-12031.6
-12074.1
-12116.5
-12159.1
-12201.7
-12244.4
-12287.2
-12330
-12373
-12415.9
-12459
-12502.1
-12545.4
-12588.6
-12632
-12675.4
-12718.9
-12762.5
-12806.1
-12849.8
-12893.6
-12937.5
-12981.4
-13025.5
-13069.5
-13113.7
-13157.9
-13202.2
-13246.6
-13291.1
-13335.6
-13380.2
-13424.9
-13469.6
-13514.4
-13559.3
-13604.3
-13649.3
-13694.4
-13739.6
-13784.9
-13830.2
-13875.6
-13921.1
-13966.6
-14012.2
-14057.9
-14103.7
-14149.5
-14195.4
-14241.4
-14287.5
-14333.6
-14379.8
-14426.1
-14472.4
-14518.8
-14565.3
-14611.9
-14658.5
-14705.2
-14752
-14798.8
-14845.8
-14892.8
-14939.8
-14987
-15034.2
-15081.5
-15128.9
-15176.3
-15223.8
-15271.4
-15319.1
-15366.8
-15414.6
-15462.5
-15510.5
-15558.5
-15606.6
-15654.8
-15703
-15751.3
-15799.7
-15848.2
-15896.7
-15945.3
-15994
-16042.7
-16091.6
-16140.5
-16189.4
-16238.5
-16287.6
-16336.8
-16386
-16435.4
-16484.8
-16534.2
-16583.8
-16633.4
-16683.1
-16732.9
-16782.7
-16832.6
-16882.6
-16932.7
-16982.8
-17033
-17083.3
-17133.7
-17184.1
-17234.6
-17285.2
-17335.8
-17386.6
-17437.3
-17488.2
-17539.2
-17590.2
-17641.3
-17692.4
-17743.6
-17795
-17846.3
-17897.8
-17949.3
-18000.9
-18052.6
-18104.3
-18156.1
-18208
-18260
-18312
-18364.1
-18416.3
-18468.5
-18520.8
-18573.2
-18625.7
-18678.2
-18730.8
-18783.5
-18836.3
-18889.1
-18942
-18995
-19048
-19101.2
-19154.4
-19207.6
-19261
-19314.4
-19367.9
-19421.4
-19475.1
-19528.8
-19582.5
-19636.4
-19690.3
-19744.3
-19798.4
-19852.5
-19906.8
-19961.1
-20015.4
-20069.9
-20124.4
-20179
-20233.6
-20288.3
-20343.1
-20398
-20453
-20508
-20563.1
-20618.2
-20673.4
-20728.8
-20784.1
-20839.6
-20895.1
-20950.7
-21006.4
-21062.1
-21117.9
-21173.8
-21229.8
-21285.8
-21341.9
-21398.1
-21454.4
-21510.7
-21567.1
-21623.6
-21680.1
-21736.7
-21793.4
-21850.2
-21907
-21963.9
-22020.9
-22078
-22135.1
-22192.3
-22249.6
-22306.9
-22364.3
-22421.8
-22479.4
-22537.1
-22594.8
-22652.6
-22710.4
-22768.3
-22826.3
-22884.4
-22942.6
-23000.8
-23059.1
-23117.4
-23175.9
-23234.4
-23293
-23351.6
-23410.3
-23469.1
-23528
-23587
-23646
-23705.1
-23764.2
-23823.5
-23882.8
-23942.2
-24001.6
-24061.2
-24120.8
-24180.4
-24240.2
-24300
-24359.9
-24419.9
-24479.9
-24540
-24600.2
-24660.5
-24720.8
-24781.2
-24841.7
-24902.2
-24962.8
-25023.5
-25084.3
-25145.2
-25206.1
-25267.1
-25328.1
-25389.2
-25450.4
-25511.7
-25573.1
-25634.5
-25696
-25757.6
-25819.2
-25880.9
-25942.7
-26004.5
-26066.5
-26128.5
-26190.5
-26252.7
-26314.9
-26377.2
-26439.6
-26502
-26564.5
-26627.1
-26689.8
-26752.5
-26815.3
-26878.2
-26941.1
-27004.1
-27067.2
-27130.4
-27193.6
-27257
-27320.3
-27383.8
-27447.3
-27510.9
-27574.6
-27638.3
-27702.2
-27766.1
-27830
-27894.1
-27958.2
-28022.4
-28086.6
-28151
-28215.4
-28279.8
-28344.4
-28409
-28473.7
-28538.5
-28603.3
-28668.2
-28733.2
-28798.3
-28863.4
-28928.6
-28993.9
-29059.2
-29124.6
-29190.1
-29255.7
-29321.3
-29387
-29452.8
-29518.7
-29584.6
-29650.6
-29716.7
-29782.8
-29849
-29915.3
-29981.7
-30048.2
-30114.7
-30181.3
-30247.9
-30314.6
-30381.4
-30448.3
-30515.2
-30582.2
-30649.3
-30716.6
-30783.8
-30851.2
-30918.4
-30986
-31053.3
-31121.1
-31188.5
-31256.7
-31324.1
-31392.6
-31459.8
-31528.6
-31595.8
-31664.9
-31732
-31801.5
-31868.9
-31938.6
-32006.1
-32075.4
-32143.8
-32212.3
-32281.3
-32350.3
-32419.2
-32488.3
-32557.7
-32626.7
-32695.9
-32765.2
-32834.6
-32904.1
-32973.7
-33043.3
-33113.1
-33182.7
-33252.8
-33322.2
-33393.2
-33461.8
-33534
-33601.6
-33675.1
-33742
-33816
-33882.9
-33956.5
-34024.9
-34096.8
-34167.8
-34237
-34310.9
-34377.9
-34453.8
-34519.8
-34595.8
-34663.5
-34736.9
-34808.2
-34877.9
-34953.3
-35019.7
-35097.2
-35163.4
-35239.8
-35309.3
-35381.2
-35455.8
-35523.6
-35602
-35667.5
-35745.5
-35814.4
-35887.8
-35963.1
-36030.4
-36110
-36175.6
-36254.7
-36324.2
-36396.8
-36473.5
-36540.5
-36621.8
-36687.8
-36766.2
-36838.2
-36908.8
-36988.8
-37054.3
-37136.2
-37204.1
-37279.9
-37357.3
-37424.5
-37506.9
-37572.7
-37652.6
-37726
-37796.6
-37878.7
-37943.8
-38027.3
-38097.3
-38171
-38250.5
-38318.1
-38402.9
-38470.2
-38548.3
-38625.3
-38694.1
-38778.6
-38845.2
-38926.7
-39001.1
-39072.6
-39157
-39222.7
-39306.2
-39379.1
-39452.3
-39536.6
-39602.6
-39687.7
-39759.8
-39833.8
-39918.4
-39983.9
-40069.9
-40142.4
-40216.3
-40302.2
-40367.6
-40453.7
-40527.6
-40600.1
-40687.8
-40753.2
-40838.7
-40915.4
-40985.7
-41075.4
-41141.4
-41224.7
-41305.4
-41372.8
-41463.8
-41532.1
-41611.6
-41697.3
-41762.5
-41853
-41926.1
-42000
-42090.4
-42155.6
-42242.6
-42322
-42391.5
-42483.9
-42551.5
-42633.7
-42719.1
-42785.6
-42877.7
-42949.7
-43026.6
-43117.6
-43182.8
-43272.1
-43351.6
-43421.3
-43516
-43584.3
-43666.3
-43754.9
-43820.3
-43913.2
-43989.9
-44062.3
-44157.3
-44224.5
-44309.4
-44397.2
-44463.3
-44557.5
-44633.7
-44707.5
-44803.1
-44870.6
-44956.1
-45044.7
-45111.1
-45205.8
-45283.3
-45356.5
-45453.3
-45522
-45606.2
-45697.5
-45763.5
-45857.5
-45938.8
-46009.4
-46107.9
-46179.4
-46259.6
-46355.8
-46421.5
-46512.4
-46600.5
-46666.9
-46765.7
-46843.4
-46916.5
-47017.6
-47086.2
-47169.7
-47266.9
-47331
-47425.2
-47513.6
-47579.4
-47680.8
-47758.8
-47831.6
-47934.9
-48004.2
-48087
-48186.8
-48251.4
-48344.4
-48436.5
-48501.5
-48602.2
-48685
-48755
-48859.3
-48933.3
-49011.5
-49114.9
-49182.6
-49270.3
-49368.7
-49433.9
-49530.3
-49621.1
-49687.9
-49790.4
-49872.8
-49944.7
-50050
-50124.6
-50203.9
-50308.5
-50377.5
-50465.1
-50565.9
-50632
-50727.5
-50822.3
-50888.5
-50990.4
-51078.1
-51147.2
-51253.2
-51333.9
-51407.9
-51515.7
-51590.2
-51670.5
-51777.8
-51847.5
-51934.4
-52039.4
-52106.1
-52199.5
-52300.5
-52365.9
-52465.2
-52561.5
-52627.3
-52731.3
-52822.5
-52890.2
-52997.7
-53084
-53154.5
-53264.3
-53345.9
-53420.1
-53531
-53608.5
-53686.7
-53797.8
-53871.9
-53954.3
-54064.7
-54136.1
-54222.7
-54331.9
-54401.4
-54492
-54599.3
-54667.6
-54762
-54867.1
-54934.7
-55032.5
-55135.4
-55202.8
-55303.5
-55404.1
-55471.7
-55575.1
-55673.4
-55741.4
-55847.2
-55943.4
-56012
-56119.8
-56214.1
-56283.5
-56392.8
-56485.5
-56555.6
-56666.2
-56757.7
-56828.5
-56940.1
-57030.6
-57102
-57214.4
-57304.3
-57376.3
-57489.3
-57578.8
-57651.3
-57764.7
-57854
-57926.9
-58040.6
-58130.1
-58203.1
-58317
-58406.9
-58479.9
-58593.9
-58684.6
-58757.3
-58871.3
-58963
-59035.5
-59149.2
-59242.3
-59314.4
-59427.6
-59522.5
-59593.9
-59706.3
-59803.3
-59874.3
-59985.5
-60084.8
-60155.5
-60265.2
-60366.9
-60437.6
-60545.4
-60649.5
-60720.5
-60826.1
-60932.8
-61004.3
-61107.5
-61216.6
-61288.9
-61389.4
-61500.8
-61574.3
-61671.9
-61785.5
-61860.8
-61955
-62070.5
-62148.1
-62238.8
-62355.9
-62436.5
-62523.3
-62641.5
-62725.7
-62808.8
-62927.1
-63015.7
-63095.4
-63212.6
-63306.5
-63383.3
-63498.2
-63597.8
-63672.5
-63784.1
-63889.3
-63963.3
-64070.5
-64180.6
-64255.6
-64357.4
-64471.7
-64549.4
-64645.2
-64762.4
-64844.3
-64934.2
-65052.9
-65139.9
-65224.9
-65343.1
-65436
-65517.3
-65633
-65732.5
-65811.3
-65923.1
-66029.1
-66106.9
-66213.7
-66325.3
-66404.2
-66505.1
-66620.9
-66703.2
-66797.4
-66915.8
-67003.5
-67091.1
-67210.1
-67304.7
-67386.9
-67503.6
-67606
-67685.3
-67796.6
-67906.9
-67986.3
-68089.9
-68206.7
-68289.5
-68384.8
-68504.7
-68594.1
-68682.1
-68801.3
-68899.3
-68982.2
-69097
-69203.9
-69285.2
-69393.2
-69507.1
-69590.7
-69690.9
-69808.6
-69897.9
-69990.6
-70108.9
-70205.6
-70292.7
-70408.6
-70513.1
-70597.6
-70708.2
-70819.9
-70905.2
-71008.2
-71125.5
-71215
-71309.8
-71429.3
-71526.2
-71614.3
-71731.3
-71837.6
-71922.5
-72032.4
-72147.5
-72234.1
-72334.7
-72454.6
-72548.1
-72640.2
-72759.2
-72862.4
-72949.6
-73062.7
-73175.1
-73262.7
-73367.4
-73485.2
-73578.1
-73674.7
-73793.1
-73894.2
-73985.2
-74100
-74209.5
-74299.1
-74407.2
-74522.8
-74615.8
-74716
-74834.2
-74934
-75027.6
-75143.9
-75251.9
-75342.9
-75453
-75568.3
-75661.7
-75763.3
-75882.1
-75982.3
-76076.8
-76193.7
-76302.7
-76394.6
-76504.4
-76621
-76716
-76816.9
-76936.2
-77038.8
-77133.5
-77249.1
-77360.7
-77454.5
-77562.3
-77679.8
-77778.1
-77878.3
-77996.3
-78102.2
-78198.1
-78311.6
-78425.1
-78521.4
-78627.8
-78745.6
-78846.8
-78946.7
-79063.8
-79172.7
-79269.3
-79381.2
-79497
-79595.3
-79699.8
-79818.5
-79923.4
-80021.7
-80137.7
-80251.1
-80348
-80456.7
-80575.7
-80677.9
-80778.6
-80897
-81008.1
-81105.4
-81217.2
-81335.4
-81436.3
-81539.8
-81659
-81768.2
-81867.1
-81981.1
-82097.8
-82198.6
-82305
-82424
-82531.6
-82632.8
-82748.6
-82863.4
-82964.4
-83073.9
-83192.6
-83298.6
-83401.9
-83519.5
-83632.9
-83734
-83845.8
-83964.8
-84069.8
-84174.3
-84293.3
-84406.4
-84507.6
-84620.6
-84740
-84845.2
-84950.5
-85069.8
-85183.3
-85285.5
-85398.8
-85518.1
-85624.3
-85730.6
-85849.7
-85963.3
-86067
-86180.8
-86299.7
-86406.7
-86514.3
-86633.4
-86747
-86851.7
-86966.3
-87085.2
-87192.7
-87301.1
-87420.6
-87534.6
-87639.9
-87754.8
-87874.5
-87982.6
-88091.1
-88211
-88326.2
-88431.8
-88546.5
-88667.1
-88776.5
-88884.7
-89004.5
-89121.3
-89227.7
-89341.5
-89462.8
-89574.1
-89682.1
-89801.2
-89919.7
-90027.5
-90140.3
-90261.6
-90375.1
-90483.5
-90601.5
-90721.1
-90830.7
-90942.9
-91064
-91179.2
-91288.3
-91405.6
-91526.1
-91637.2
-91749
-91870.1
-91987.1
-92096.5
-92213
-92334.8
-92447.6
-92558.4
-92679.2
-92798.6
-92908.9
-93023.5
-93146.2
-93261.9
-93372.2
-93491.2
-93612.9
-93725.4
-93838.3
-93960.3
-94079
-94190.4
-94307.3
-94429.6
-94545.1
-94657.7
-94778.3
-94898.7
-95011.8
-95127.8
-95250.1
-95367.5
-95480.3
-95600.2
-95722.2
-95836.5
-95951.3
-96074.1
-96194.1
-96306.7
-96424.8
-96548.8
-96666
-96779
-96900.1
-97023.5
-97138.4
-97253.5
-97376.8
-97498.2
-97612.3
-97730.2
-97854.3
-97973.1
-98088
-98208.8
-98331.9
-98448.7
-98565.7
-98688.8
-98809.7
-98925.7
-99045.5
-99169.4
-99288
-99404.3
-99527
-99650.3
-99767.1
-99885
-100010
-100132
-100247
-100368
-100493
-100613
-100729
-100852
-100977
-101096
-101213
-101337
-101462
-101580
-101699
-101824
-101947
-102065
-102186
-102312
-102432
-102551
-102675
-102800
-102919
-103040
-103165
-103288
-103407
-103530
-103656
-103778
-103896
-104021
-104148
-104268
-104388
-104514
-104640
-104760
-104880
-105007
-105132
-105252
-105375
-105502
-105626
-105747
-105871
-105997
-106120
-106242
-106368
-106494
-106616
-106739
-106866
-106991
-107113
-107237
-107365
-107489
-107611
-107737
-107865
-107989
-108111
-108238
-108366
-108489
-108612
-108740
-108868
-108991
-109115
-109243
-109370
-109494
-109619
-109747
-109873
-109997
-110124
-110252
-110378
-110502
-110630
-110759
-110884
-111009
-111138
-111266
-111391
-111516
-111646
-111775
-111899
-112025
-112156
-112284
-112409
-112536
-112666
-112794
-112919
-113047
-113178
-113305
-113431
-113560
-113690
-113818
-113944
-114074
-114204
-114331
-114459
-114589
-114719
-114846
-114974
-115105
-115235
-115362
-115490
-115622
-115752
-115880
-116008
-116140
-116270
-116398
-116528
-116659
-116789
-116918
-117048
-117180
-117310
-117438
-117570
-117702
-117831
-117960
-118092
-118224
-118354
-118483
-118616
-118748
-118878
-119007
-119140
-119273
-119403
-119533
-119666
-119799
-119929
-120060
-120193
-120326
-120456
-120588
-120721
-120854
-120985
-121117
-121251
-121383
-121514
-121647
-121781
-121914
-122045
-122178
-122313
-122446
-122577
-122710
-122845
-122978
-123110
-123243
-123379
-123512
-123644
-123778
-123913
-124047
-124180
-124314
-124449
-124583
-124716
-124851
-124986
-125121
-125254
-125389
-125525
-125659
-125793
-125928
-126064
-126199
-126332
-126468
-126605
-126740
-126874
-127009
-127146
-127282
-127416
-127552
-127689
-127825
-127959
-128096
-128233
-128369
-128504
-128640
-128778
-128914
-129049
-129186
-129324
-129461
-129596
-129733
-129871
-130008
-130144
-130281
-130420
-130557
-130693
-130831
-130969
-131107
-131244
-131381
-131520
-131658
-131795
-131933
-132072
-132210
-132348
-132486
-132625
-132763
-132901
-133039
-133179
-133318
-133456
-133594
-133734
-133874
-134012
-134150
-134290
-134430
-134569
-134707
-134848
-134988
-135127
-135266
-135406
-135547
-135687
-135826
-135966
-136107
-136247
-136387
-136527
-136668
-136808
-136948
-137089
-137231
-137371
-137511
-137652
-137794
-137935
-138075
-138216
-138359
-138500
-138641
-138782
-138924
-139066
-139207
-139348
-139491
-139633
-139775
-139916
-140059
-140201
-140343
-140485
-140628
-140771
-140913
-141055
-141198
-141342
-141484
-141626
-141769
-141913
-142057
-142199
-142342
-142486
-142630
-142773
-142916
-143060
-143204
-143347
-143491
-143635
-143779
-143923
-144067
-144211
-144356
-144500
-144643
-144789
-144934
-145078
-145222
-145367
-145512
-145657
-145801
-145946
-146092
-146237
-146382
-146527
-146673
-146818
-146964
-147109
-147255
-147401
-147546
-147692
-147839
-147985
-148130
-148276
-148423
-148570
-148716
-148862
-149008
-149155
-149302
-149448
-149595
-149742
-149889
-150036
-150183
-150330
-150477
-150625
-150772
-150920
-151067
-151215
-151362
-151510
-151658
-151806
-151953
-152101
-152250
-152398
-152546
-152694
-152842
-152991
-153140
-153288
-153436
-153585
-153734
-153883
-154032
-154181
-154330
-154479
-154628
-154778
-154927
-155076
-155225
-155375
-155525
-155675
-155824
-155974
-156124
-156274
-156424
-156574
-156724
-156875
-157025
-157175
-157326
-157476
-157627
-157777
-157928
-158079
-158230
-158380
-158532
-158683
-158834
-158985
-159136
-159288
-159440
-159591
-159742
-159894
-160046
-160198
-160350
-160501
-160654
-160806
-160958
-161110
-161262
-161415
-161567
-161719
-161872
-162025
-162178
-162330
-162483
-162636
-162790
-162942
-163095
-163249
-163402
-163555
-163709
-163862
-164016
-164170
-164323
-164477
-164631
-164785
-164939
-165093
-165247
-165401
-165555
-165709
-165864
-166019
-166173
-166328
-166482
-166637
-166792
-166947
-167102
-167257
-167412
-167567
-167722
-167878
-168033
-168189
-168344
-168500
-168656
-168812
-168967
-169123
-169279
-169435
-169591
-169747
-169903
-170060
-170216
-170373
-170529
-170686
-170843
-170999
-171156
-171313
-171470
-171627
-171784
-171941
-172098
-172256
-172413
-172570
-172728
-172886
-173043
-173201
-173359
-173517
-173675
-173832
-173990
-174149
-174307
-174465
-174623
-174782
-174941
-175099
-175258
-175416
-175575
-175734
-175893
-176052
-176211
-176370
-176529
-176689
-176848
-177008
-177167
-177326
-177486
-177646
-177806
-177966
-178125
-178285
-178445
-178606
-178766
-178926
-179086
-179247
-179407
-179568
-179728
-179889
-180050
-180210
-180371
-180532
-180694
-180854
-181015
-181177
-181338
-181500
-181661
-181822
-181984
-182146
-182308
-182469
-182631
-182793
-182955
-183117
-183279
-183442
-183604
-183766
-183928
-184091
-184254
-184417
-184579
-184742
-184905
-185068
-185231
-185394
-185557
-185720
-185883
-186047
-186210
-186374
-186537
-186701
-186864
-187028
-187192
-187356
-187520
-187684
-187848
-188013
-188177
-188341
-188505
-188670
-188834
-188999
-189164
-189328
-189493
-189658
-189823
-189988
-190153
-190318
-190484
-190649
-190814
-190980
-191146
-191311
-191476
-191642
-191808
-191974
-192140
-192306
-192472
-192638
-192804
-192971
-193137
-193303
-193470
-193636
-193803
-193970
-194137
-194304
-194470
-194637
-194805
-194972
-195139
-195306
-195473
-195641
-195809
-195976
-196144
-196311
-196479
-196647
-196815
-196983
-197151
-197319
-197487
-197655
-197824
-197992
-198161
-198329
-198498
-198666
-198835
-199004
-199173
-199342
-199511
-199680
-199849
-200019
-200188
-200357
-200527
-200696
-200866
-201036
-201205
-201375
-201545
-201715
-201885
-202055
-202225
-202395
-202565
-202736
-202906
-203077
-203247
-203418
-203589
-203759
-203930
-204101
-204272
-204443
-204614
-204786
-204957
-205128
-205300
-205471
-205643
-205814
-205986
-206158
-206330
-206501
-206673
-206845
-207018
-207190
-207362
-207534
-207707
-207879
-208052
-208224
-208397
-208570
-208742
-208915
-209088
-209262
-209435
-209608
-209781
-209954
-210128
-210301
-210475
-210648
-210822
-210995
-211169
-211343
-211517
-211691
-211865
-212039
-212213
-212388
-212562
-212737
-212911
-213085
-213260
-213435
-213610
-213785
-213959
-214134
-214309
-214485
-214660
-214835
-215010
-215186
-215361
-215537
-215712
-215888
-216064
-216240
-216415
-216591
-216768
-216944
-217120
-217296
-217472
-217649
-217825
-218002
-218178
-218355
-218532
-218708
-218885
-219062
-219239
-219416
-219593
-219771
-219948
-220125
-220303
-220480
-220658
-220835
-221013
-221191
-221369
-221547
-221725
-221903
-222081
-222259
-222437
-222616
-222794
-222972
-223151
-223330
-223508
-223687
-223866
-224045
-224224
-224403
-224582
-224761
-224940
-225120
-225299
-225478
-225658
-225838
-226017
-226197
-226377
-226557
-226737
-226917
-227097
-227277
-227457
-227637
-227818
-227998
-228179
-228359
-228540
-228721
-228901
-229082
-229263
-229444
-229625
-229806
-229987
-230169
-230350
-230531
-230713
-230894
-231076
-231258
-231440
-231621
-231803
-231985
-232167
-232349
-232532
-232714
-232896
-233078
-233261
-233443
-233626
-233809
-233992
-234174
-234357
-234540
-234723
-234906
-235089
-235273
-235456
-235639
-235822
-236006
-236190
-236373
-236557
-236741
-236924
-237108
-237292
-237477
-237661
-237845
-238029
-238213
-238398
-238582
-238767
-238952
-239136
-239321
-239506
-239691
-239876
-240061
-240246
-240431
-240616
-240801
-240987
-241172
-241358
-241544
-241729
-241915
-242100
-242286
-242473
-242659
-242845
-243031
-243217
-243403
-243590
-243776
-243963
-244149
-244336
-244522
-244709
-244896
-245083
-245270
-245457
-245644
-245831
-246018
-246206
-246393
-246581
-246768
-246956
-247143
-247331
-247519
-247707
-247895
-248083
-248271
-248459
-248648
-248836
-249024
-249213
-249401
-249590
-249778
-249967
-250156
-250345
-250534
-250723
-250912
-251101
-251290
-251480
-251669
-251859
-252048
-252237
-252427
-252617
-252807
-252997
-253187
-253376
-253566
-253756
-253947
-254137
-254328
-254518
-254708
-254899
-255089
-255280
-255471
-255662
-255853
-256044
-256234
-256425
-256617
-256808
-256999
-257191
-257382
-257574
-257765
-257957
-258149
-258341
-258532
-258724
-258916
-259108
-259300
-259493
-259685
-259878
-260070
-260262
-260455
-260647
-260840
-261033
-261226
-261419
-261612
-261805
-261998
-262191
-262384
-262578
-262771
-262965
-263158
-263352
-263545
-263739
-263933
-264127
-264321
-264515
-264709
-264903
-265097
-265292
-265486
-265681
-265875
-266070
-266264
-266459
-266654
-266849
-267044
-267239
-267434
-267629
-267824
-268019
-268215
-268410
-268606
-268801
-268997
-269193
-269388
-269584
-269780
-269976
-270172
-270368
-270564
-270761
-270957
-271153
-271350
-271546
-271743
-271940
-272137
-272333
-272530
-272727
-272924
-273121
-273318
-273516
-273713
-273910
-274108
-274305
-274503
-274701
-274898
-275096
-275294
-275492
-275690
-275888
-276086
-276284
-276483
-276681
-276880
-277078
-277277
-277475
-277674
-277873
-278072
-278270
-278469
-278669
-278868
-279067
-279266
-279465
-279665
-279864
-280064
-280264
-280463
-280663
-280863
-281063
-281263
-281463
-281663
-281863
-282063
-282264
-282464
-282664
-282865
-283065
-283266
-283467
-283668
-283869
-284069
-284270
-284472
-284673
-284874
-285075
-285277
-285478
-285680
-285881
-286083
-286285
-286486
-286688
-286890
-287092
-287294
-287496
-287698
-287901
-288103
-288306
-288508
-288711
-288913
-289116
-289319
-289521
-289725
-289927
-290130
-290333
-290536
-290740
-290943
-291147
-291350
-291554
-291757
-291961
-292164
-292368
-292572
-292776
-292981
-293185
-293389
-293593
-293797
-294001
-294206
-294411
-294615
-294820
-295024
-295229
-295434
-295639
-295844
-296049
-296254
-296460
-296665
-296870
-297075
-297281
-297486
-297692
-297898
-298104
-298310
-298515
-298721
-298927
-299133
-299340
-299546
-299752
-299959
-300165
-300372
-300578
-300785
-300992
-301199
-301406
-301612
-301819
-302026
-302234
-302441
-302648
-302856
-303063
-303271
-303478
-303686
-303893
-304101
-304309
-304517
-304725
-304933
-305141
-305350
-305558
-305766
-305975
-306183
-306392
-306600
-306809
-307018
-307227
-307436
-307645
-307854
-308063
-308272
-308481
-308691
-308900
-309110
-309319
-309529
-309739
-309948
-310158
-310368
-310578
-310788
-310998
-311208
-311419
-311629
-311839
-312050
-312260
-312471
-312682
-312892
-313103
-313314
-313525
-313736
-313947
-314158
-314369
-314581
-314792
-315004
-315215
-315427
-315638
-315850
-316062
-316274
-316486
-316698
-316910
-317122
-317334
-317546
-317759
-317971
-318184
-318396
-318609
-318822
-319034
-319247
-319460
-319673
-319886
-320100
-320313
-320526
-320739
-320953
-321166
-321380
-321593
-321807
-322021
-322235
-322449
-322663
-322877
-323091
-323305
-323519
-323734
-323948
-324163
-324377
-324592
-324806
-325021
-325236
-325451
-325666
-325881
-326096
-326311
-326527
-326742
-326957
-327173
-327388
-327604
-327820
-328035
-328251
-328467
-328683
-328899
-329115
-329331
-329548
-329764
-329980
-330197
-330413
-330630
-330847
-331063
-331280
-331497
-331714
-331931
-332148
-332365
-332583
-332800
-333017
-333235
-333452
-333670
-333888
-334105
-334323
-334541
-334759
-334977
-335195
-335413
-335632
-335850
-336068
-336287
-336505
-336724
-336943
-337161
-337380
-337599
-337818
-338037
-338256
-338475
-338695
-338914
-339133
-339353
-339572
-339792
-340012
-340231
-340451
-340671
-340891
-341111
-341331
-341552
-341772
-341992
-342212
-342433
-342653
-342874
-343095
-343316
-343536
-343757
-343978
-344199
-344420
-344642
-344863
-345084
-345306
-345527
-345749
-345970
-346192
-346414
-346636
-346857
-347080
-347302
-347524
-347746
-347968
-348191
-348413
-348635
-348858
-349081
-349303
-349526
-349749
-349972
-350195
-350418
-350641
-350865
-351088
-351311
-351535
-351758
-351982
-352205
-352429
-352653
-352877
-353101
-353325
-353549
-353773
-353997
-354222
-354446
-354671
-354895
-355120
-355344
-355569
-355794
-356019
-356244
-356469
-356694
-356919
-357145
-357370
-357595
-357821
-358046
-358272
-358498
-358724
-358949
-359175
-359402
-359628
-359854
-360080
-360306
-360533
-360759
-360986
-361212
-361439
-361666
-361893
-362119
-362346
-362573
-362801
-363028
-363255
-363482
-363710
-363937
-364165
-364393
-364620
-364848
-365076
-365304
-365532
-365760
-365988
-366217
-366445
-366673
-366902
-367130
-367359
-367588
-367817
-368045
-368274
-368503
-368732
-368961
-369191
-369420
-369649
-369879
-370108
-370338
-370568
-370797
-371027
-371257
-371487
-371717
-371947
-372178
-372408
-372638
-372869
-373099
-373330
-373560
-373791
-374022
-374253
-374484
-374715
-374946
-375178
-375409
-375640
-375872
-376103
-376335
-376566
-376798
-377030
-377262
-377494
-377726
-377958
-378190
-378423
-378655
-378887
-379120
-379353
-379585
-379818
-380051
-380284
-380517
-380750
-380983
-381216
-381450
-381683
-381916
-382150
-382384
-382617
-382851
-383085
-383319
-383553
-383787
-384021
-384255
-384490
-384724
-384959
-385193
-385428
-385663
-385897
-386132
-386367
-386602
-386838
-387073
-387308
-387543
-387779
-388014
-388250
-388486
-388721
-388957
-389193
-389429
-389665
-389902
-390138
-390374
-390610
-390847
-391084
-391320
-391557
-391794
-392031
-392268
-392505
-392742
-392979
-393217
-393454
-393691
-393929
-394167
-394404
-394642
-394880
-395118
-395356
-395594
-395832
-396071
-396309
-396548
-396786
-397025
-397264
-397502
-397741
-397980
-398219
-398458
-398698
-398937
-399176
-399416
-399655
-399895
-400135
-400375
-400615
-400855
-401095
-401335
-401575
-401815
-402056
-402296
-402537
-402778
-403018
-403259
-403500
-403741
-403982
-404224
-404465
-404706
-404948
-405189
-405431
-405672
-405914
-406156
-406398
-406640
-406882
-407125
-407367
-407609
-407852
-408095
-408337
-408580
-408823
-409066
-409309
-409552
-409795
-410039
-410282
-410526
-410769
-411013
-411257
-411500
-411744
-411988
-412233
-412477
-412721
-412966
-413210
-413455
-413699
-413944
-414189
-414434
-414679
-414924
-415169
-415415
-415660
-415906
-416151
-416397
-416643
-416889
-417135
-417381
-417627
-417873
-418120
-418366
-418613
-418859
-419106
-419353
-419600
-419847
-420094
-420341
-420589
-420836
-421084
-421331
-421579
-421827
-422075
-422323
-422571
-422819
-423068
-423316
-423564
-423813
-424062
-424311
-424560
-424809
-425058
-425307
-425556
-425806
-426055
-426305
-426555
-426804
-427054
-427304
-427554
-427805
-428055
-428306
-428556
-428807
-429058
-429309
-429560
-429810
-430062
-430313
-430564
-430816
-431068
-431319
-431571
-431823
-432075
-432328
-432580
-432832
-433085
-433337
-433590
-433843
-434096
-434349
-434602
-434855
-435108
-435362
-435615
-435869
-436123
-436377
-436631
-436886
-437139
-437394
-437649
-437903
-438158
-438413
-438667
-438923
-439178
-439433
-439689
-439944
-440200
-440456
-440712
-440968
-441224
-441480
-441736
-441993
-442250
-442506
-442764
-443020
-443277
-443535
-443792
-444049
-444307
-444565
-444823
-445081
-445339
-445597
-445856
-446114
-446373
-446632
-446890
-447149
-447409
-447668
-447927
-448187
-448447
-448706
-448967
-449227
-449487
-449747
-450008
-450268
-450529
-450790
-451051
-451312
-451573
-451835
-452097
-452358