/*--------------------------------*- C++ -*----------------------------------*\
  =========                 |
  \\      /  F ield         | OpenFOAM: The Open Source CFD Toolbox
   \\    /   O peration     | Website:  https://openfoam.org
    \\  /    A nd           | Version:  9
     \\/     M anipulation  |
\*---------------------------------------------------------------------------*/
FoamFile
{
    format      ascii;
    class       volScalarField;
    location    "0.03";
    object      ddt0(rho);
}
// * * * * * * * * * * * * * * * * * * * * * * * * * * * * * * * * * * * * * //

dimensions      [1 -3 -1 0 0 0 0];

internalField   nonuniform List<scalar> 
10000
(
-13.3334
-13.3329
-13.3324
-13.3319
-13.3312
-13.3305
-13.3301
-13.3297
-13.329
-13.3281
-13.3276
-13.3274
-13.3271
-13.3263
-13.3252
-13.3244
-13.3242
-13.3244
-13.3241
-13.3231
-13.3217
-13.3206
-13.3205
-13.3209
-13.3212
-13.3207
-13.3192
-13.3174
-13.3162
-13.3161
-13.3169
-13.3178
-13.3179
-13.3169
-13.3149
-13.3127
-13.3111
-13.3107
-13.3115
-13.313
-13.3143
-13.3147
-13.3138
-13.3117
-13.3089
-13.3063
-13.3045
-13.3039
-13.3047
-13.3065
-13.3088
-13.3108
-13.3121
-13.3121
-13.3108
-13.3084
-13.3051
-13.3015
-13.2981
-13.2953
-13.2934
-13.2927
-13.2932
-13.2949
-13.2976
-13.3012
-13.3054
-13.31
-13.3146
-13.3191
-13.3233
-13.3271
-13.3303
-13.3328
-13.3347
-13.336
-13.3366
-13.3368
-13.3368
-13.337
-13.3377
-13.3401
-13.3431
-13.3429
-13.3428
-13.3427
-13.3425
-13.3424
-13.3423
-13.3421
-13.342
-13.3419
-13.3418
-13.3417
-13.3416
-13.3415
-13.3414
-13.3414
-13.3413
-13.3412
-13.3411
-13.341
-13.341
-13.3409
-13.3408
-13.3407
-13.3406
-13.3406
-13.3405
-13.3404
-13.3403
-13.3402
-13.3402
-13.3401
-13.34
-13.3399
-13.3398
-13.3398
-13.3397
-13.3396
-13.3395
-13.3394
-13.3394
-13.3393
-13.3392
-13.3391
-13.339
-13.3389
-13.3389
-13.3388
-13.3387
-13.3386
-13.3385
-13.3385
-13.3384
-13.3383
-13.3382
-13.3381
-13.3381
-13.338
-13.3379
-13.3378
-13.3377
-13.3376
-13.3376
-13.3375
-13.3374
-13.3373
-13.3372
-13.3371
-13.3371
-13.337
-13.3369
-13.3368
-13.3367
-13.3366
-13.3366
-13.3365
-13.3364
-13.3363
-13.3362
-13.3361
-13.3361
-13.336
-13.3359
-13.3358
-13.3357
-13.3356
-13.3355
-13.3355
-13.3354
-13.3353
-13.3352
-13.3351
-13.335
-13.335
-13.3349
-13.3348
-13.3347
-13.3346
-13.3345
-13.3344
-13.3344
-13.3343
-13.3342
-13.3341
-13.334
-13.3339
-13.3338
-13.3338
-13.3337
-13.3336
-13.3335
-13.3334
-13.3333
-13.3332
-13.3331
-13.3331
-13.333
-13.3329
-13.3328
-13.3327
-13.3326
-13.3325
-13.3325
-13.3324
-13.3323
-13.3322
-13.3321
-13.332
-13.3319
-13.3318
-13.3318
-13.3317
-13.3316
-13.3315
-13.3314
-13.3313
-13.3312
-13.3311
-13.3311
-13.331
-13.3309
-13.3308
-13.3307
-13.3306
-13.3305
-13.3304
-13.3303
-13.3302
-13.3302
-13.3301
-13.33
-13.3299
-13.3298
-13.3297
-13.3296
-13.3295
-13.3294
-13.3294
-13.3293
-13.3292
-13.3291
-13.329
-13.3289
-13.3288
-13.3287
-13.3286
-13.3285
-13.3284
-13.3284
-13.3283
-13.3282
-13.3281
-13.328
-13.3279
-13.3278
-13.3277
-13.3276
-13.3275
-13.3274
-13.3273
-13.3273
-13.3272
-13.3271
-13.327
-13.3269
-13.3268
-13.3267
-13.3266
-13.3265
-13.3264
-13.3263
-13.3262
-13.3262
-13.3261
-13.326
-13.3259
-13.3258
-13.3257
-13.3256
-13.3255
-13.3254
-13.3253
-13.3252
-13.3251
-13.325
-13.3249
-13.3248
-13.3248
-13.3247
-13.3246
-13.3245
-13.3244
-13.3243
-13.3242
-13.3241
-13.324
-13.3239
-13.3238
-13.3237
-13.3236
-13.3235
-13.3234
-13.3233
-13.3232
-13.3231
-13.323
-13.3229
-13.3229
-13.3228
-13.3227
-13.3226
-13.3225
-13.3224
-13.3223
-13.3222
-13.3221
-13.322
-13.3219
-13.3218
-13.3217
-13.3216
-13.3215
-13.3214
-13.3213
-13.3212
-13.3211
-13.321
-13.3209
-13.3208
-13.3207
-13.3206
-13.3205
-13.3204
-13.3203
-13.3202
-13.3201
-13.32
-13.3199
-13.3199
-13.3198
-13.3197
-13.3196
-13.3195
-13.3194
-13.3193
-13.3192
-13.3191
-13.319
-13.3189
-13.3188
-13.3187
-13.3186
-13.3185
-13.3184
-13.3183
-13.3182
-13.3181
-13.318
-13.3179
-13.3178
-13.3177
-13.3176
-13.3175
-13.3174
-13.3173
-13.3172
-13.3171
-13.317
-13.3169
-13.3168
-13.3167
-13.3166
-13.3165
-13.3164
-13.3163
-13.3162
-13.3161
-13.316
-13.3159
-13.3158
-13.3157
-13.3156
-13.3155
-13.3154
-13.3153
-13.3152
-13.3151
-13.315
-13.3148
-13.3147
-13.3146
-13.3145
-13.3144
-13.3143
-13.3142
-13.3141
-13.314
-13.3139
-13.3138
-13.3137
-13.3136
-13.3135
-13.3134
-13.3133
-13.3132
-13.3131
-13.313
-13.3129
-13.3128
-13.3127
-13.3126
-13.3125
-13.3124
-13.3123
-13.3122
-13.3121
-13.312
-13.3119
-13.3118
-13.3116
-13.3115
-13.3114
-13.3113
-13.3112
-13.3111
-13.311
-13.3109
-13.3108
-13.3107
-13.3106
-13.3105
-13.3104
-13.3103
-13.3102
-13.3101
-13.31
-13.3099
-13.3098
-13.3096
-13.3095
-13.3094
-13.3093
-13.3092
-13.3091
-13.309
-13.3089
-13.3088
-13.3087
-13.3086
-13.3085
-13.3084
-13.3083
-13.3082
-13.308
-13.3079
-13.3078
-13.3077
-13.3076
-13.3075
-13.3074
-13.3073
-13.3072
-13.3071
-13.307
-13.3069
-13.3068
-13.3066
-13.3065
-13.3064
-13.3063
-13.3062
-13.3061
-13.306
-13.3059
-13.3058
-13.3057
-13.3056
-13.3054
-13.3053
-13.3052
-13.3051
-13.305
-13.3049
-13.3048
-13.3047
-13.3046
-13.3045
-13.3044
-13.3042
-13.3041
-13.304
-13.3039
-13.3038
-13.3037
-13.3036
-13.3035
-13.3034
-13.3033
-13.3031
-13.303
-13.3029
-13.3028
-13.3027
-13.3026
-13.3025
-13.3024
-13.3023
-13.3021
-13.302
-13.3019
-13.3018
-13.3017
-13.3016
-13.3015
-13.3014
-13.3012
-13.3011
-13.301
-13.3009
-13.3008
-13.3007
-13.3006
-13.3005
-13.3003
-13.3002
-13.3001
-13.3
-13.2999
-13.2998
-13.2997
-13.2996
-13.2994
-13.2993
-13.2992
-13.2991
-13.299
-13.2989
-13.2988
-13.2986
-13.2985
-13.2984
-13.2983
-13.2982
-13.2981
-13.298
-13.2978
-13.2977
-13.2976
-13.2975
-13.2974
-13.2973
-13.2972
-13.297
-13.2969
-13.2968
-13.2967
-13.2966
-13.2965
-13.2963
-13.2962
-13.2961
-13.296
-13.2959
-13.2958
-13.2956
-13.2955
-13.2954
-13.2953
-13.2952
-13.2951
-13.2949
-13.2948
-13.2947
-13.2946
-13.2945
-13.2944
-13.2942
-13.2941
-13.294
-13.2939
-13.2938
-13.2937
-13.2935
-13.2934
-13.2933
-13.2932
-13.2931
-13.293
-13.2928
-13.2927
-13.2926
-13.2925
-13.2924
-13.2922
-13.2921
-13.292
-13.2919
-13.2918
-13.2916
-13.2915
-13.2914
-13.2913
-13.2912
-13.2911
-13.2909
-13.2908
-13.2907
-13.2906
-13.2905
-13.2903
-13.2902
-13.2901
-13.29
-13.2899
-13.2897
-13.2896
-13.2895
-13.2894
-13.2893
-13.2891
-13.289
-13.2889
-13.2888
-13.2887
-13.2885
-13.2884
-13.2883
-13.2882
-13.288
-13.2879
-13.2878
-13.2877
-13.2876
-13.2874
-13.2873
-13.2872
-13.2871
-13.2869
-13.2868
-13.2867
-13.2866
-13.2865
-13.2863
-13.2862
-13.2861
-13.286
-13.2858
-13.2857
-13.2856
-13.2855
-13.2854
-13.2852
-13.2851
-13.285
-13.2849
-13.2847
-13.2846
-13.2845
-13.2844
-13.2842
-13.2841
-13.284
-13.2839
-13.2837
-13.2836
-13.2835
-13.2834
-13.2833
-13.2831
-13.283
-13.2829
-13.2828
-13.2826
-13.2825
-13.2824
-13.2823
-13.2821
-13.282
-13.2819
-13.2817
-13.2816
-13.2815
-13.2814
-13.2812
-13.2811
-13.281
-13.2809
-13.2807
-13.2806
-13.2805
-13.2804
-13.2802
-13.2801
-13.28
-13.2799
-13.2797
-13.2796
-13.2795
-13.2793
-13.2792
-13.2791
-13.279
-13.2788
-13.2787
-13.2786
-13.2785
-13.2783
-13.2782
-13.2781
-13.278
-13.2778
-13.2777
-13.2776
-13.2774
-13.2773
-13.2772
-13.2771
-13.2769
-13.2768
-13.2767
-13.2765
-13.2764
-13.2763
-13.2761
-13.276
-13.2759
-13.2758
-13.2756
-13.2755
-13.2754
-13.2752
-13.2751
-13.275
-13.2749
-13.2747
-13.2746
-13.2745
-13.2743
-13.2742
-13.2741
-13.2739
-13.2738
-13.2737
-13.2735
-13.2734
-13.2733
-13.2732
-13.273
-13.2729
-13.2728
-13.2726
-13.2725
-13.2724
-13.2722
-13.2721
-13.272
-13.2718
-13.2717
-13.2716
-13.2714
-13.2713
-13.2712
-13.2711
-13.2709
-13.2708
-13.2707
-13.2705
-13.2704
-13.2703
-13.2701
-13.27
-13.2699
-13.2697
-13.2696
-13.2695
-13.2693
-13.2692
-13.2691
-13.2689
-13.2688
-13.2687
-13.2685
-13.2684
-13.2683
-13.2681
-13.268
-13.2679
-13.2677
-13.2676
-13.2674
-13.2673
-13.2672
-13.267
-13.2669
-13.2668
-13.2666
-13.2665
-13.2664
-13.2662
-13.2661
-13.266
-13.2658
-13.2657
-13.2656
-13.2654
-13.2653
-13.2652
-13.265
-13.2649
-13.2647
-13.2646
-13.2645
-13.2643
-13.2642
-13.2641
-13.2639
-13.2638
-13.2637
-13.2635
-13.2634
-13.2632
-13.2631
-13.263
-13.2628
-13.2627
-13.2626
-13.2624
-13.2623
-13.2621
-13.262
-13.2619
-13.2617
-13.2616
-13.2615
-13.2613
-13.2612
-13.261
-13.2609
-13.2608
-13.2606
-13.2605
-13.2603
-13.2602
-13.2601
-13.2599
-13.2598
-13.2596
-13.2595
-13.2594
-13.2592
-13.2591
-13.259
-13.2588
-13.2587
-13.2585
-13.2584
-13.2583
-13.2581
-13.258
-13.2578
-13.2577
-13.2576
-13.2574
-13.2573
-13.2571
-13.257
-13.2568
-13.2567
-13.2566
-13.2564
-13.2563
-13.2561
-13.256
-13.2559
-13.2557
-13.2556
-13.2554
-13.2553
-13.2552
-13.255
-13.2549
-13.2547
-13.2546
-13.2544
-13.2544
-13.254
-13.2542
-13.2537
-13.254
-13.2533
-13.2538
-13.2529
-13.2536
-13.2525
-13.2534
-13.2522
-13.2532
-13.2519
-13.2528
-13.2517
-13.2523
-13.2518
-13.2516
-13.2516
-13.2515
-13.2512
-13.2511
-13.2511
-13.2509
-13.2507
-13.2506
-13.2505
-13.2503
-13.2501
-13.25
-13.2499
-13.2496
-13.2497
-13.2491
-13.2498
-13.2483
-13.2501
-13.2475
-13.2503
-13.2468
-13.2501
-13.2467
-13.2494
-13.2471
-13.2481
-13.2481
-13.2465
-13.249
-13.2451
-13.2494
-13.2446
-13.2488
-13.2452
-13.247
-13.2467
-13.2449
-13.2482
-13.2433
-13.2485
-13.2432
-13.2472
-13.2446
-13.2446
-13.2467
-13.2423
-13.2478
-13.2417
-13.2466
-13.2433
-13.2437
-13.2458
-13.241
-13.247
-13.2404
-13.2456
-13.2425
-13.2422
-13.2453
-13.2395
-13.2461
-13.2397
-13.2437
-13.2426
-13.2399
-13.2453
-13.238
-13.2448
-13.2398
-13.241
-13.2434
-13.2374
-13.2447
-13.2376
-13.242
-13.2411
-13.2376
-13.244
-13.236
-13.2427
-13.2386
-13.2383
-13.2423
-13.2353
-13.2428
-13.2365
-13.2391
-13.2404
-13.2349
-13.2424
-13.2347
-13.2396
-13.2385
-13.2348
-13.2417
-13.2334
-13.2397
-13.237
-13.2344
-13.2409
-13.2323
-13.2394
-13.2359
-13.2338
-13.2403
-13.2313
-13.2387
-13.2353
-13.2327
-13.2398
-13.2305
-13.2376
-13.2351
-13.2313
-13.2394
-13.2299
-13.2361
-13.2355
-13.2296
-13.239
-13.2297
-13.234
-13.2362
-13.2279
-13.238
-13.2304
-13.2313
-13.237
-13.2267
-13.236
-13.2317
-13.2283
-13.2373
-13.2266
-13.2332
-13.2334
-13.2261
-13.2364
-13.2275
-13.23
-13.2345
-13.2247
-13.2345
-13.229
-13.2268
-13.2352
-13.2243
-13.2315
-13.2313
-13.2237
-13.2346
-13.2258
-13.2272
-13.2335
-13.2224
-13.2316
-13.2289
-13.223
-13.2336
-13.2237
-13.2267
-13.2318
-13.221
-13.2307
-13.2272
-13.2219
-13.2324
-13.2224
-13.2254
-13.2306
-13.2198
-13.2292
-13.2264
-13.2203
-13.2311
-13.2217
-13.2233
-13.23
-13.2186
-13.227
-13.2264
-13.2181
-13.2296
-13.2219
-13.2202
-13.2298
-13.2179
-13.2237
-13.2275
-13.2159
-13.227
-13.2234
-13.2164
-13.2289
-13.2188
-13.2189
-13.2285
-13.2152
-13.2225
-13.2258
-13.2136
-13.2257
-13.2218
-13.2142
-13.2274
-13.2174
-13.2165
-13.2271
-13.2138
-13.2197
-13.225
-13.2119
-13.2227
-13.2215
-13.2117
-13.2248
-13.2176
-13.2131
-13.2254
-13.2139
-13.2155
-13.2244
-13.2111
-13.2183
-13.222
-13.2097
-13.2208
-13.2188
-13.2097
-13.2225
-13.2152
-13.2108
-13.223
-13.2119
-13.2128
-13.2223
-13.2092
-13.2151
-13.2206
-13.2075
-13.2173
-13.2181
-13.2068
-13.2191
-13.2152
-13.2069
-13.2202
-13.2122
-13.2077
-13.2205
-13.2094
-13.2091
-13.2201
-13.207
-13.2106
-13.2191
-13.2051
-13.2122
-13.2176
-13.2038
-13.2137
-13.2157
-13.203
-13.2149
-13.2137
-13.2026
-13.2157
-13.2116
-13.2026
-13.2163
-13.2094
-13.2028
-13.2165
-13.2074
-13.2033
-13.2164
-13.2056
-13.2039
-13.2159
-13.2039
-13.2046
-13.2153
-13.2025
-13.2052
-13.2145
-13.2012
-13.2058
-13.2136
-13.2001
-13.2063
-13.2126
-13.1991
-13.2068
-13.2116
-13.1982
-13.2072
-13.2105
-13.1975
-13.2074
-13.2095
-13.1968
-13.2075
-13.2085
-13.1962
-13.2074
-13.2077
-13.1956
-13.2073
-13.2068
-13.1951
-13.2071
-13.2061
-13.1946
-13.2067
-13.2054
-13.1941
-13.2063
-13.2048
-13.1937
-13.2058
-13.2043
-13.1932
-13.2052
-13.2038
-13.1926
-13.2046
-13.2035
-13.1921
-13.2039
-13.2032
-13.1916
-13.2031
-13.203
-13.1911
-13.2021
-13.203
-13.1907
-13.201
-13.2029
-13.1903
-13.1998
-13.2029
-13.19
-13.1986
-13.2028
-13.1899
-13.1972
-13.2027
-13.1899
-13.1958
-13.2025
-13.1899
-13.1944
-13.2023
-13.19
-13.193
-13.2019
-13.1903
-13.1915
-13.2014
-13.1907
-13.1901
-13.2008
-13.1913
-13.1886
-13.2
-13.192
-13.1872
-13.199
-13.1929
-13.186
-13.1977
-13.1938
-13.185
-13.196
-13.1947
-13.1844
-13.194
-13.1956
-13.1841
-13.1918
-13.1962
-13.1843
-13.1896
-13.1964
-13.185
-13.1873
-13.1961
-13.1861
-13.1851
-13.1953
-13.1873
-13.1833
-13.1941
-13.1886
-13.182
-13.1924
-13.1898
-13.1813
-13.1902
-13.1909
-13.181
-13.1878
-13.1917
-13.1812
-13.1854
-13.1919
-13.182
-13.183
-13.1915
-13.1833
-13.1808
-13.1905
-13.1848
-13.179
-13.1888
-13.1865
-13.178
-13.1864
-13.1879
-13.1779
-13.1835
-13.1887
-13.1787
-13.1805
-13.1887
-13.1803
-13.1779
-13.1875
-13.1822
-13.1762
-13.1853
-13.1841
-13.1755
-13.1823
-13.1854
-13.176
-13.1794
-13.1856
-13.1773
-13.1768
-13.1847
-13.179
-13.1749
-13.1829
-13.1807
-13.1738
-13.1806
-13.182
-13.1738
-13.1779
-13.1825
-13.1747
-13.175
-13.1822
-13.1763
-13.1727
-13.1808
-13.1782
-13.1714
-13.1781
-13.1799
-13.1715
-13.1748
-13.1805
-13.173
-13.1718
-13.1796
-13.1751
-13.1699
-13.1771
-13.1771
-13.1696
-13.174
-13.178
-13.1707
-13.171
-13.1774
-13.1725
-13.169
-13.1755
-13.1742
-13.1682
-13.1729
-13.1753
-13.1686
-13.1702
-13.1752
-13.17
-13.1679
-13.1739
-13.1717
-13.1666
-13.1716
-13.173
-13.1667
-13.1688
-13.1733
-13.1679
-13.1662
-13.1721
-13.1698
-13.1648
-13.1697
-13.1712
-13.165
-13.1667
-13.1713
-13.1665
-13.1642
-13.1699
-13.1683
-13.1632
-13.1672
-13.1694
-13.1639
-13.1643
-13.169
-13.1653
-13.1625
-13.1672
-13.1668
-13.162
-13.1646
-13.1674
-13.1626
-13.1622
-13.1667
-13.164
-13.1607
-13.1647
-13.1652
-13.1605
-13.1621
-13.1655
-13.1614
-13.1599
-13.1643
-13.1629
-13.1587
-13.1619
-13.164
-13.1592
-13.1592
-13.1635
-13.1608
-13.1574
-13.1613
-13.1622
-13.1574
-13.1585
-13.1622
-13.1588
-13.1564
-13.1604
-13.1603
-13.1559
-13.1577
-13.1606
-13.157
-13.1556
-13.1593
-13.1583
-13.1547
-13.157
-13.1589
-13.1551
-13.1548
-13.1582
-13.1564
-13.1534
-13.1562
-13.1573
-13.1534
-13.1538
-13.157
-13.1546
-13.152
-13.1551
-13.1559
-13.1519
-13.1525
-13.1557
-13.1532
-13.1507
-13.1538
-13.1545
-13.1507
-13.1512
-13.1542
-13.1519
-13.1496
-13.1523
-13.1529
-13.1495
-13.15
-13.1526
-13.1504
-13.1485
-13.151
-13.1513
-13.1482
-13.1488
-13.1511
-13.149
-13.1472
-13.1496
-13.1499
-13.1468
-13.1474
-13.1498
-13.1477
-13.1457
-13.1481
-13.1487
-13.1455
-13.1458
-13.1484
-13.1466
-13.1443
-13.1465
-13.1474
-13.1444
-13.1442
-13.1468
-13.1456
-13.143
-13.1447
-13.1461
-13.1435
-13.1426
-13.145
-13.1444
-13.1419
-13.143
-13.1446
-13.1424
-13.1412
-13.1433
-13.1432
-13.1408
-13.1413
-13.1431
-13.1413
-13.1398
-13.1417
-13.142
-13.1395
-13.1396
-13.1417
-13.1403
-13.1383
-13.1399
-13.1409
-13.1386
-13.1378
-13.1399
-13.1395
-13.1371
-13.1378
-13.1395
-13.1378
-13.1362
-13.1379
-13.1384
-13.1362
-13.136
-13.1377
-13.1369
-13.1351
-13.136
-13.1369
-13.1352
-13.1345
-13.136
-13.1357
-13.1338
-13.1343
-13.1356
-13.1341
-13.1328
-13.1343
-13.1348
-13.1326
-13.1323
-13.1341
-13.1335
-13.1313
-13.132
-13.1335
-13.132
-13.1305
-13.1319
-13.1325
-13.1306
-13.13
-13.1316
-13.1312
-13.1295
-13.1298
-13.1309
-13.1298
-13.1287
-13.1297
-13.1299
-13.1284
-13.1282
-13.1293
-13.1287
-13.1272
-13.1279
-13.1287
-13.1273
-13.1263
-13.1276
-13.1279
-13.126
-13.1257
-13.1271
-13.1268
-13.1249
-13.1252
-13.1265
-13.1255
-13.124
-13.1248
-13.1256
-13.1243
-13.1234
-13.1244
-13.1245
-13.1231
-13.1229
-13.1238
-13.1232
-13.1221
-13.1226
-13.1231
-13.122
-13.1213
-13.1222
-13.1222
-13.1208
-13.1206
-13.1217
-13.1211
-13.1196
-13.12
-13.121
-13.1201
-13.1187
-13.1195
-13.1202
-13.119
-13.1179
-13.1188
-13.1192
-13.1179
-13.1173
-13.1182
-13.1181
-13.1169
-13.1168
-13.1175
-13.1169
-13.116
-13.1163
-13.1167
-13.1158
-13.1152
-13.1158
-13.1158
-13.1146
-13.1144
-13.1152
-13.1148
-13.1136
-13.1137
-13.1145
-13.1139
-13.1126
-13.113
-13.1138
-13.1129
-13.1118
-13.1123
-13.1129
-13.1119
-13.1111
-13.1116
-13.1119
-13.1109
-13.1104
-13.1109
-13.1108
-13.1099
-13.1097
-13.1102
-13.1097
-13.1089
-13.1091
-13.1095
-13.1087
-13.108
-13.1085
-13.1087
-13.1077
-13.1071
-13.1077
-13.1079
-13.1068
-13.1062
-13.1069
-13.107
-13.1059
-13.1055
-13.1061
-13.106
-13.105
-13.1048
-13.1052
-13.1049
-13.1041
-13.1041
-13.1044
-13.1039
-13.1032
-13.1034
-13.1036
-13.1029
-13.1023
-13.1027
-13.1028
-13.1019
-13.1014
-13.1019
-13.102
-13.101
-13.1005
-13.1011
-13.1011
-13.1001
-13.0997
-13.1002
-13.1001
-13.0993
-13.099
-13.0993
-13.0991
-13.0984
-13.0983
-13.0985
-13.0981
-13.0975
-13.0975
-13.0977
-13.0972
-13.0965
-13.0967
-13.0969
-13.0962
-13.0956
-13.0958
-13.0961
-13.0954
-13.0947
-13.095
-13.0952
-13.0945
-13.0939
-13.0941
-13.0942
-13.0936
-13.0931
-13.0933
-13.0933
-13.0927
-13.0923
-13.0924
-13.0924
-13.0918
-13.0914
-13.0916
-13.0915
-13.0908
-13.0906
-13.0908
-13.0906
-13.0899
-13.0897
-13.09
-13.0897
-13.089
-13.0888
-13.0891
-13.0889
-13.0881
-13.0879
-13.0881
-13.088
-13.0873
-13.087
-13.0872
-13.087
-13.0864
-13.0862
-13.0863
-13.0861
-13.0855
-13.0854
-13.0855
-13.0852
-13.0846
-13.0845
-13.0846
-13.0843
-13.0837
-13.0836
-13.0838
-13.0834
-13.0828
-13.0826
-13.0828
-13.0826
-13.0819
-13.0817
-13.0819
-13.0817
-13.0811
-13.0809
-13.081
-13.0807
-13.0802
-13.08
-13.0801
-13.0798
-13.0793
-13.0791
-13.0792
-13.0789
-13.0784
-13.0782
-13.0783
-13.078
-13.0775
-13.0773
-13.0774
-13.0771
-13.0766
-13.0764
-13.0765
-13.0762
-13.0757
-13.0754
-13.0756
-13.0754
-13.0748
-13.0745
-13.0746
-13.0745
-13.0739
-13.0736
-13.0737
-13.0735
-13.0731
-13.0728
-13.0728
-13.0726
-13.0721
-13.0719
-13.0719
-13.0717
-13.0712
-13.0709
-13.071
-13.0708
-13.0703
-13.07
-13.07
-13.0699
-13.0695
-13.069
-13.069
-13.069
-13.0686
-13.0682
-13.0681
-13.068
-13.0677
-13.0673
-13.0671
-13.0671
-13.0668
-13.0664
-13.0662
-13.0662
-13.0658
-13.0654
-13.0653
-13.0653
-13.065
-13.0645
-13.0644
-13.0644
-13.0641
-13.0636
-13.0634
-13.0634
-13.0632
-13.0628
-13.0624
-13.0624
-13.0623
-13.0619
-13.0615
-13.0614
-13.0613
-13.061
-13.0607
-13.0605
-13.0604
-13.06
-13.0597
-13.0596
-13.0595
-13.0591
-13.0587
-13.0586
-13.0586
-13.0582
-13.0578
-13.0576
-13.0576
-13.0574
-13.0569
-13.0566
-13.0566
-13.0564
-13.0561
-13.0557
-13.0556
-13.0555
-13.0551
-13.0549
-13.0547
-13.0545
-13.0542
-13.0539
-13.0538
-13.0536
-13.0532
-13.0529
-13.0528
-13.0527
-13.0524
-13.0519
-13.0517
-13.0517
-13.0515
-13.0511
-13.0508
-13.0507
-13.0506
-13.0502
-13.0499
-13.0497
-13.0495
-13.0493
-13.049
-13.0488
-13.0486
-13.0483
-13.048
-13.0479
-13.0477
-13.0474
-13.047
-13.0468
-13.0468
-13.0465
-13.0461
-13.0458
-13.0457
-13.0456
-13.0452
-13.0449
-13.0447
-13.0446
-13.0443
-13.044
-13.0438
-13.0436
-13.0433
-13.043
-13.0429
-13.0427
-13.0423
-13.042
-13.0418
-13.0418
-13.0415
-13.0411
-13.0408
-13.0407
-13.0406
-13.0402
-13.0398
-13.0397
-13.0396
-13.0393
-13.039
-13.0387
-13.0385
-13.0383
-13.038
-13.0378
-13.0376
-13.0373
-13.037
-13.0368
-13.0367
-13.0364
-13.036
-13.0357
-13.0356
-13.0355
-13.0352
-13.0348
-13.0346
-13.0345
-13.0343
-13.0339
-13.0336
-13.0334
-13.0332
-13.033
-13.0327
-13.0325
-13.0322
-13.032
-13.0317
-13.0315
-13.0313
-13.031
-13.0307
-13.0305
-13.0304
-13.0301
-13.0297
-13.0294
-13.0293
-13.0292
-13.0288
-13.0285
-13.0283
-13.0281
-13.0279
-13.0276
-13.0273
-13.0271
-13.0269
-13.0266
-13.0263
-13.0261
-13.0259
-13.0256
-13.0253
-13.0251
-13.025
-13.0247
-13.0243
-13.0241
-13.0239
-13.0237
-13.0234
-13.0231
-13.0229
-13.0227
-13.0224
-13.0221
-13.0219
-13.0217
-13.0215
-13.0212
-13.0209
-13.0207
-13.0205
-13.0202
-13.0199
-13.0197
-13.0195
-13.0192
-13.0189
-13.0187
-13.0185
-13.0183
-13.0179
-13.0177
-13.0175
-13.0173
-13.017
-13.0167
-13.0165
-13.0162
-13.016
-13.0157
-13.0155
-13.0153
-13.015
-13.0147
-13.0144
-13.0142
-13.014
-13.0137
-13.0134
-13.0132
-13.013
-13.0128
-13.0125
-13.0122
-13.012
-13.0117
-13.0115
-13.0112
-13.011
-13.0107
-13.0105
-13.0102
-13.0099
-13.0097
-13.0095
-13.0092
-13.0089
-13.0087
-13.0085
-13.0082
-13.0079
-13.0077
-13.0074
-13.0072
-13.0069
-13.0067
-13.0064
-13.0062
-13.0059
-13.0056
-13.0054
-13.0052
-13.0049
-13.0046
-13.0044
-13.0042
-13.0039
-13.0036
-13.0033
-13.0031
-13.0029
-13.0026
-13.0024
-13.0021
-13.0019
-13.0016
-13.0013
-13.0011
-13.0009
-13.0006
-13.0003
-13
-12.9998
-12.9996
-12.9993
-12.999
-12.9987
-12.9985
-12.9983
-12.9981
-12.9978
-12.9975
-12.9972
-12.997
-12.9968
-12.9965
-12.9962
-12.996
-12.9957
-12.9954
-12.9952
-12.995
-12.9947
-12.9944
-12.9941
-12.9939
-12.9937
-12.9934
-12.9931
-12.9928
-12.9926
-12.9924
-12.9921
-12.9918
-12.9916
-12.9913
-12.9911
-12.9908
-12.9906
-12.9903
-12.99
-12.9897
-12.9895
-12.9893
-12.989
-12.9887
-12.9884
-12.9882
-12.988
-12.9877
-12.9875
-12.9871
-12.9869
-12.9866
-12.9864
-12.9861
-12.9859
-12.9856
-12.9853
-12.9851
-12.9848
-12.9846
-12.9843
-12.984
-12.9837
-12.9835
-12.9833
-12.983
-12.9827
-12.9824
-12.9822
-12.982
-12.9817
-12.9814
-12.9812
-12.9809
-12.9806
-12.9804
-12.9801
-12.9799
-12.9796
-12.9793
-12.979
-12.9788
-12.9786
-12.9783
-12.978
-12.9777
-12.9774
-12.9772
-12.977
-12.9767
-12.9764
-12.9761
-12.9759
-12.9756
-12.9754
-12.9751
-12.9748
-12.9746
-12.9743
-12.974
-12.9738
-12.9735
-12.9732
-12.9729
-12.9727
-12.9725
-12.9722
-12.9719
-12.9716
-12.9713
-12.9711
-12.9709
-12.9706
-12.9703
-12.97
-12.9698
-12.9695
-12.9692
-12.969
-12.9687
-12.9684
-12.9682
-12.9679
-12.9677
-12.9674
-12.9671
-12.9668
-12.9665
-12.9663
-12.9661
-12.9658
-12.9655
-12.9652
-12.9649
-12.9647
-12.9644
-12.9642
-12.9639
-12.9636
-12.9633
-12.9631
-12.9628
-12.9626
-12.9623
-12.962
-12.9617
-12.9614
-12.9612
-12.9609
-12.9607
-12.9604
-12.9601
-12.9598
-12.9596
-12.9593
-12.959
-12.9588
-12.9585
-12.9582
-12.9579
-12.9577
-12.9574
-12.9571
-12.9568
-12.9566
-12.9563
-12.9561
-12.9558
-12.9555
-12.9552
-12.955
-12.9547
-12.9544
-12.9541
-12.9538
-12.9536
-12.9533
-12.9531
-12.9528
-12.9525
-12.9522
-12.9519
-12.9517
-12.9514
-12.9511
-12.9509
-12.9506
-12.9503
-12.95
-12.9498
-12.9495
-12.9492
-12.9489
-12.9486
-12.9484
-12.9481
-12.9478
-12.9476
-12.9473
-12.947
-12.9467
-12.9465
-12.9462
-12.9459
-12.9456
-12.9453
-12.9451
-12.9448
-12.9445
-12.9443
-12.944
-12.9437
-12.9434
-12.9431
-12.9429
-12.9426
-12.9423
-12.942
-12.9417
-12.9415
-12.9412
-12.9409
-12.9407
-12.9404
-12.9401
-12.9398
-12.9395
-12.9393
-12.939
-12.9387
-12.9384
-12.9381
-12.9379
-12.9376
-12.9373
-12.937
-12.9367
-12.9365
-12.9362
-12.9359
-12.9356
-12.9354
-12.9351
-12.9348
-12.9345
-12.9342
-12.934
-12.9337
-12.9334
-12.9331
-12.9328
-12.9325
-12.9323
-12.932
-12.9317
-12.9314
-12.9311
-12.9309
-12.9306
-12.9303
-12.93
-12.9297
-12.9294
-12.9292
-12.9289
-12.9286
-12.9283
-12.928
-12.9278
-12.9275
-12.9272
-12.9269
-12.9266
-12.9263
-12.9261
-12.9258
-12.9255
-12.9252
-12.9249
-12.9246
-12.9244
-12.9241
-12.9238
-12.9235
-12.9232
-12.9229
-12.9227
-12.9224
-12.9221
-12.9218
-12.9215
-12.9212
-12.9209
-12.9206
-12.9204
-12.9201
-12.9198
-12.9195
-12.9192
-12.9189
-12.9187
-12.9184
-12.9181
-12.9178
-12.9175
-12.9172
-12.9169
-12.9166
-12.9164
-12.9161
-12.9158
-12.9155
-12.9152
-12.9149
-12.9146
-12.9144
-12.9141
-12.9138
-12.9135
-12.9132
-12.9129
-12.9126
-12.9123
-12.9121
-12.9117
-12.9114
-12.9112
-12.9109
-12.9106
-12.9103
-12.91
-12.9097
-12.9094
-12.9091
-12.9089
-12.9086
-12.9083
-12.908
-12.9077
-12.9074
-12.9071
-12.9068
-12.9066
-12.9063
-12.906
-12.9056
-12.9053
-12.9051
-12.9048
-12.9045
-12.9042
-12.9039
-12.9036
-12.9033
-12.903
-12.9028
-12.9025
-12.9022
-12.9019
-12.9015
-12.9013
-12.901
-12.9007
-12.9004
-12.9001
-12.8998
-12.8995
-12.8992
-12.8989
-12.8987
-12.8984
-12.898
-12.8977
-12.8974
-12.8972
-12.8969
-12.8966
-12.8963
-12.896
-12.8957
-12.8954
-12.8951
-12.8948
-12.8945
-12.8942
-12.8939
-12.8936
-12.8933
-12.893
-12.8928
-12.8925
-12.8922
-12.8918
-12.8915
-12.8912
-12.8909
-12.8907
-12.8904
-12.8901
-12.8898
-12.8894
-12.8891
-12.8889
-12.8886
-12.8883
-12.888
-12.8877
-12.8874
-12.8871
-12.8868
-12.8865
-12.8862
-12.8859
-12.8856
-12.8853
-12.885
-12.8847
-12.8844
-12.8841
-12.8838
-12.8835
-12.8832
-12.8829
-12.8826
-12.8823
-12.882
-12.8817
-12.8814
-12.8811
-12.8808
-12.8805
-12.8802
-12.8799
-12.8796
-12.8793
-12.879
-12.8787
-12.8784
-12.8781
-12.8778
-12.8775
-12.8771
-12.8768
-12.8765
-12.8763
-12.876
-12.8757
-12.8754
-12.875
-12.8747
-12.8744
-12.8741
-12.8738
-12.8735
-12.8732
-12.8729
-12.8726
-12.8723
-12.872
-12.8717
-12.8714
-12.8711
-12.8708
-12.8705
-12.8702
-12.8699
-12.8696
-12.8693
-12.869
-12.8686
-12.8683
-12.868
-12.8677
-12.8674
-12.8671
-12.8668
-12.8665
-12.8662
-12.8659
-12.8656
-12.8653
-12.865
-12.8647
-12.8643
-12.864
-12.8637
-12.8634
-12.8631
-12.8628
-12.8625
-12.8622
-12.8619
-12.8616
-12.8613
-12.861
-12.8607
-12.8603
-12.86
-12.8597
-12.8594
-12.8591
-12.8588
-12.8585
-12.8582
-12.8579
-12.8575
-12.8572
-12.8569
-12.8566
-12.8563
-12.856
-12.8557
-12.8554
-12.855
-12.8547
-12.8544
-12.8541
-12.8538
-12.8535
-12.8532
-12.8529
-12.8525
-12.8522
-12.8519
-12.8516
-12.8513
-12.851
-12.8507
-12.8504
-12.85
-12.8497
-12.8494
-12.8491
-12.8488
-12.8485
-12.8482
-12.8478
-12.8475
-12.8472
-12.8469
-12.8466
-12.8463
-12.8459
-12.8456
-12.8453
-12.845
-12.8447
-12.8444
-12.8441
-12.8437
-12.8434
-12.8431
-12.8428
-12.8425
-12.8422
-12.8418
-12.8415
-12.8412
-12.8409
-12.8406
-12.8402
-12.8399
-12.8396
-12.8393
-12.839
-12.8387
-12.8383
-12.838
-12.8377
-12.8374
-12.8371
-12.8367
-12.8364
-12.8361
-12.8358
-12.8355
-12.8351
-12.8348
-12.8345
-12.8342
-12.8339
-12.8335
-12.8332
-12.8329
-12.8326
-12.8322
-12.8319
-12.8316
-12.8313
-12.831
-12.8306
-12.8303
-12.83
-12.8297
-12.8294
-12.829
-12.8287
-12.8284
-12.828
-12.8277
-12.8274
-12.8271
-12.8268
-12.8264
-12.8261
-12.8258
-12.8254
-12.8251
-12.8248
-12.8245
-12.8242
-12.8239
-12.8235
-12.8232
-12.8228
-12.8225
-12.8222
-12.8219
-12.8216
-12.8212
-12.8209
-12.8206
-12.8202
-12.8199
-12.8196
-12.8193
-12.819
-12.8186
-12.8183
-12.8179
-12.8176
-12.8173
-12.8169
-12.8166
-12.8163
-12.816
-12.8156
-12.8153
-12.815
-12.8146
-12.8143
-12.814
-12.8137
-12.8134
-12.813
-12.8127
-12.8123
-12.812
-12.8117
-12.8114
-12.811
-12.8107
-12.8104
-12.81
-12.8097
-12.8093
-12.809
-12.8087
-12.8084
-12.808
-12.8077
-12.8073
-12.807
-12.8067
-12.8063
-12.806
-12.8057
-12.8054
-12.805
-12.8047
-12.8043
-12.804
-12.8037
-12.8033
-12.803
-12.8027
-12.8023
-12.802
-12.8016
-12.8013
-12.801
-12.8006
-12.8003
-12.8
-12.7996
-12.7993
-12.7989
-12.7986
-12.7983
-12.7979
-12.7976
-12.7973
-12.7969
-12.7966
-12.7962
-12.7959
-12.7956
-12.7952
-12.7949
-12.7946
-12.7942
-12.7939
-12.7935
-12.7932
-12.7928
-12.7925
-12.7922
-12.7918
-12.7915
-12.7911
-12.7908
-12.7904
-12.7901
-12.7898
-12.7894
-12.7891
-12.7887
-12.7884
-12.788
-12.7877
-12.7873
-12.787
-12.7867
-12.7863
-12.786
-12.7856
-12.7853
-12.7849
-12.7846
-12.7842
-12.7839
-12.7836
-12.7832
-12.7829
-12.7825
-12.7821
-12.7818
-12.7815
-12.7811
-12.7808
-12.7804
-12.7801
-12.7797
-12.7794
-12.779
-12.7787
-12.7783
-12.778
-12.7776
-12.7773
-12.7769
-12.7766
-12.7762
-12.7759
-12.7755
-12.7752
-12.7748
-12.7745
-12.7741
-12.7738
-12.7734
-12.773
-12.7727
-12.7723
-12.772
-12.7717
-12.7713
-12.7709
-12.7706
-12.7702
-12.7699
-12.7695
-12.7692
-12.7688
-12.7685
-12.7681
-12.7677
-12.7674
-12.767
-12.7667
-12.7663
-12.766
-12.7656
-12.7653
-12.7649
-12.7645
-12.7642
-12.7638
-12.7634
-12.7631
-12.7627
-12.7624
-12.762
-12.7617
-12.7613
-12.7609
-12.7606
-12.7602
-12.7599
-12.7595
-12.7591
-12.7588
-12.7584
-12.7581
-12.7577
-12.7573
-12.757
-12.7566
-12.7562
-12.7559
-12.7555
-12.7552
-12.7548
-12.7544
-12.754
-12.7537
-12.7533
-12.753
-12.7526
-12.7522
-12.7519
-12.7515
-12.7511
-12.7508
-12.7504
-12.75
-12.7497
-12.7493
-12.7489
-12.7486
-12.7482
-12.7478
-12.7474
-12.7471
-12.7467
-12.7464
-12.746
-12.7456
-12.7452
-12.7449
-12.7445
-12.7441
-12.7437
-12.7434
-12.743
-12.7427
-12.7423
-12.7419
-12.7415
-12.7411
-12.7408
-12.7404
-12.74
-12.7397
-12.7393
-12.7389
-12.7385
-12.7382
-12.7378
-12.7374
-12.737
-12.7366
-12.7363
-12.7359
-12.7355
-12.7351
-12.7348
-12.7344
-12.734
-12.7336
-12.7332
-12.7329
-12.7325
-12.7321
-12.7317
-12.7314
-12.731
-12.7306
-12.7302
-12.7298
-12.7295
-12.7291
-12.7287
-12.7283
-12.7279
-12.7275
-12.7271
-12.7268
-12.7264
-12.726
-12.7256
-12.7252
-12.7249
-12.7245
-12.7241
-12.7237
-12.7233
-12.7229
-12.7225
-12.7221
-12.7218
-12.7214
-12.721
-12.7206
-12.7202
-12.7198
-12.7194
-12.719
-12.7186
-12.7183
-12.7179
-12.7175
-12.7171
-12.7167
-12.7163
-12.7159
-12.7155
-12.7151
-12.7147
-12.7143
-12.7139
-12.7135
-12.7132
-12.7128
-12.7124
-12.712
-12.7116
-12.7112
-12.7108
-12.7104
-12.71
-12.7096
-12.7092
-12.7088
-12.7084
-12.708
-12.7076
-12.7072
-12.7068
-12.7064
-12.706
-12.7056
-12.7052
-12.7048
-12.7044
-12.704
-12.7036
-12.7032
-12.7028
-12.7024
-12.702
-12.7016
-12.7012
-12.7008
-12.7004
-12.7
-12.6996
-12.6991
-12.6987
-12.6983
-12.6979
-12.6975
-12.6971
-12.6967
-12.6963
-12.6959
-12.6955
-12.6951
-12.6947
-12.6942
-12.6938
-12.6934
-12.693
-12.6926
-12.6922
-12.6918
-12.6914
-12.6909
-12.6905
-12.6901
-12.6897
-12.6893
-12.6889
-12.6885
-12.688
-12.6876
-12.6872
-12.6868
-12.6864
-12.686
-12.6855
-12.6851
-12.6847
-12.6843
-12.6839
-12.6834
-12.683
-12.6826
-12.6822
-12.6817
-12.6813
-12.6809
-12.6805
-12.6801
-12.6796
-12.6792
-12.6788
-12.6783
-12.6779
-12.6775
-12.6771
-12.6766
-12.6762
-12.6758
-12.6754
-12.6749
-12.6745
-12.6741
-12.6736
-12.6732
-12.6728
-12.6723
-12.6719
-12.6715
-12.671
-12.6706
-12.6702
-12.6697
-12.6693
-12.6689
-12.6684
-12.668
-12.6676
-12.6671
-12.6667
-12.6662
-12.6658
-12.6654
-12.6649
-12.6645
-12.664
-12.6636
-12.6632
-12.6627
-12.6623
-12.6618
-12.6614
-12.6609
-12.6605
-12.66
-12.6596
-12.6592
-12.6587
-12.6583
-12.6578
-12.6574
-12.6569
-12.6564
-12.656
-12.6555
-12.6551
-12.6546
-12.6542
-12.6537
-12.6533
-12.6528
-12.6524
-12.6519
-12.6515
-12.651
-12.6505
-12.6501
-12.6496
-12.6492
-12.6487
-12.6483
-12.6478
-12.6473
-12.6469
-12.6464
-12.6459
-12.6455
-12.645
-12.6446
-12.6441
-12.6436
-12.6432
-12.6427
-12.6422
-12.6418
-12.6413
-12.6408
-12.6403
-12.6399
-12.6394
-12.6389
-12.6385
-12.638
-12.6375
-12.637
-12.6366
-12.6361
-12.6356
-12.6351
-12.6347
-12.6342
-12.6337
-12.6332
-12.6327
-12.6322
-12.6318
-12.6313
-12.6308
-12.6303
-12.6298
-12.6294
-12.6289
-12.6284
-12.6279
-12.6274
-12.6269
-12.6264
-12.6259
-12.6254
-12.6249
-12.6245
-12.624
-12.6235