/*--------------------------------*- C++ -*----------------------------------*\
  =========                 |
  \\      /  F ield         | OpenFOAM: The Open Source CFD Toolbox
   \\    /   O peration     | Website:  https://openfoam.org
    \\  /    A nd           | Version:  9
     \\/     M anipulation  |
\*---------------------------------------------------------------------------*/
FoamFile
{
    format      ascii;
    class       surfaceScalarField;
    location    "0.03";
    object      ddtCorrDdt0(phi);
}
// * * * * * * * * * * * * * * * * * * * * * * * * * * * * * * * * * * * * * //

dimensions      [1 0 -2 0 0 0 0];

internalField   nonuniform List<scalar> 
9999
(
5.95814
1.45967
-3.03889
-7.53424
-12.0294
-16.5304
-21.0355
-25.5367
-30.0325
-34.5297
-39.0323
-43.5347
-48.0285
-52.5132
-56.9998
-61.4997
-66.0107
-70.5179
-75.0086
-79.4857
-83.9634
-88.4556
-92.9661
-97.4843
-101.992
-106.477
-110.943
-115.411
-119.902
-124.419
-128.946
-133.465
-137.959
-142.422
-146.867
-151.317
-155.792
-160.3
-164.837
-169.385
-173.92
-178.424
-182.89
-187.323
-191.742
-196.177
-200.646
-205.158
-209.701
-214.261
-218.829
-223.388
-227.912
-232.393
-236.838
-241.253
-245.644
-250.032
-254.437
-258.862
-263.322
-267.825
-272.362
-276.937
-281.545
-286.173
-290.82
-295.475
-300.128
-304.775
-309.405
-314.02
-318.625
-323.227
-327.801
-332.321
-336.835
-341.359
-345.852
-350.377
-354.924
-359.576
-364.098
-368.602
-373.09
-377.611
-382.095
-386.594
-391.115
-395.614
-400.091
-404.584
-409.087
-413.595
-418.105
-422.609
-427.115
-431.62
-436.123
-440.628
-445.131
-449.631
-454.136
-458.638
-463.136
-467.64
-472.143
-476.642
-481.143
-485.648
-490.15
-494.649
-499.15
-503.655
-508.16
-512.659
-517.157
-521.659
-526.165
-530.671
-535.174
-539.672
-544.168
-548.665
-553.165
-557.665
-562.168
-566.672
-571.174
-575.676
-580.18
-584.684
-589.187
-593.689
-598.193
-602.697
-607.199
-611.7
-616.202
-620.704
-625.206
-629.706
-634.205
-638.706
-643.208
-647.711
-652.211
-656.71
-661.209
-665.711
-670.214
-674.718
-679.221
-683.721
-688.219
-692.716
-697.214
-701.713
-706.213
-710.714
-715.216
-719.718
-724.22
-728.721
-733.221
-737.722
-742.224
-746.725
-751.226
-755.728
-760.23
-764.733
-769.235
-773.736
-778.237
-782.737
-787.239
-791.74
-796.24
-800.739
-805.238
-809.737
-814.237
-818.738
-823.24
-827.741
-832.242
-836.741
-841.239
-845.736
-850.234
-854.732
-859.23
-863.73
-868.23
-872.731
-877.232
-881.733
-886.234
-890.734
-895.234
-899.733
-904.233
-908.733
-913.233
-917.733
-922.233
-926.733
-931.234
-935.735
-940.237
-944.737
-949.237
-953.736
-958.235
-962.734
-967.233
-971.733
-976.233
-980.733
-985.232
-989.73
-994.228
-998.725
-1003.22
-1007.72
-1012.22
-1016.71
-1021.21
-1025.71
-1030.21
-1034.71
-1039.21
-1043.71
-1048.21
-1052.71
-1057.21
-1061.71
-1066.21
-1070.7
-1075.2
-1079.7
-1084.2
-1088.7
-1093.2
-1097.7
-1102.2
-1106.7
-1111.19
-1115.69
-1120.19
-1124.69
-1129.19
-1133.69
-1138.19
-1142.69
-1147.18
-1151.68
-1156.18
-1160.67
-1165.17
-1169.67
-1174.16
-1178.66
-1183.16
-1187.66
-1192.15
-1196.65
-1201.15
-1205.65
-1210.15
-1214.65
-1219.14
-1223.64
-1228.14
-1232.64
-1237.13
-1241.63
-1246.13
-1250.62
-1255.12
-1259.62
-1264.12
-1268.61
-1273.11
-1277.61
-1282.11
-1286.61
-1291.11
-1295.6
-1300.1
-1304.6
-1309.1
-1313.59
-1318.09
-1322.58
-1327.08
-1331.57
-1336.07
-1340.56
-1345.06
-1349.56
-1354.05
-1358.55
-1363.05
-1367.55
-1372.04
-1376.54
-1381.04
-1385.53
-1390.03
-1394.53
-1399.02
-1403.52
-1408.01
-1412.51
-1417.01
-1421.5
-1426
-1430.49
-1434.99
-1439.49
-1443.98
-1448.48
-1452.98
-1457.47
-1461.97
-1466.47
-1470.96
-1475.46
-1479.95
-1484.45
-1488.94
-1493.44
-1497.93
-1502.43
-1506.92
-1511.42
-1515.91
-1520.41
-1524.9
-1529.4
-1533.89
-1538.39
-1542.88
-1547.38
-1551.87
-1556.37
-1560.86
-1565.36
-1569.86
-1574.35
-1578.84
-1583.34
-1587.83
-1592.33
-1596.82
-1601.32
-1605.81
-1610.31
-1614.8
-1619.3
-1623.79
-1628.29
-1632.78
-1637.28
-1641.77
-1646.26
-1650.76
-1655.25
-1659.75
-1664.24
-1668.73
-1673.23
-1677.72
-1682.22
-1686.71
-1691.2
-1695.7
-1700.19
-1704.69
-1709.18
-1713.67
-1718.17
-1722.66
-1727.15
-1731.65
-1736.14
-1740.64
-1745.13
-1749.62
-1754.12
-1758.61
-1763.1
-1767.6
-1772.09
-1776.58
-1781.08
-1785.57
-1790.06
-1794.55
-1799.05
-1803.54
-1808.03
-1812.53
-1817.02
-1821.51
-1826
-1830.5
-1834.99
-1839.48
-1843.98
-1848.47
-1852.96
-1857.45
-1861.95
-1866.44
-1870.93
-1875.42
-1879.92
-1884.41
-1888.9
-1893.39
-1897.88
-1902.38
-1906.87
-1911.36
-1915.85
-1920.34
-1924.84
-1929.33
-1933.82
-1938.31
-1942.8
-1947.3
-1951.79
-1956.28
-1960.77
-1965.26
-1969.75
-1974.24
-1978.73
-1983.22
-1987.72
-1992.21
-1996.7
-2001.19
-2005.68
-2010.17
-2014.66
-2019.16
-2023.65
-2028.14
-2032.63
-2037.12
-2041.61
-2046.1
-2050.59
-2055.08
-2059.57
-2064.07
-2068.56
-2073.05
-2077.54
-2082.03
-2086.52
-2091.01
-2095.5
-2099.99
-2104.48
-2108.97
-2113.46
-2117.95
-2122.44
-2126.93
-2131.42
-2135.91
-2140.4
-2144.89
-2149.38
-2153.86
-2158.35
-2162.84
-2167.33
-2171.82
-2176.31
-2180.8
-2185.29
-2189.78
-2194.27
-2198.76
-2203.25
-2207.74
-2212.23
-2216.72
-2221.21
-2225.7
-2230.19
-2234.68
-2239.17
-2243.65
-2248.14
-2252.63
-2257.12
-2261.61
-2266.1
-2270.59
-2275.08
-2279.56
-2284.05
-2288.54
-2293.03
-2297.52
-2302.01
-2306.49
-2310.98
-2315.47
-2319.96
-2324.44
-2328.93
-2333.42
-2337.91
-2342.39
-2346.88
-2351.37
-2355.86
-2360.34
-2364.83
-2369.32
-2373.81
-2378.3
-2382.78
-2387.27
-2391.76
-2396.25
-2400.74
-2405.22
-2409.71
-2414.2
-2418.69
-2423.17
-2427.66
-2432.15
-2436.63
-2441.12
-2445.61
-2450.09
-2454.58
-2459.07
-2463.55
-2468.04
-2472.53
-2477.01
-2481.5
-2485.98
-2490.47
-2494.96
-2499.44
-2503.93
-2508.41
-2512.9
-2517.38
-2521.87
-2526.36
-2530.84
-2535.33
-2539.81
-2544.3
-2548.78
-2553.27
-2557.76
-2562.24
-2566.73
-2571.22
-2575.7
-2580.19
-2584.67
-2589.16
-2593.64
-2598.13
-2602.62
-2607.1
-2611.59
-2616.07
-2620.56
-2625.04
-2629.53
-2634.01
-2638.5
-2642.98
-2647.46
-2651.95
-2656.43
-2660.92
-2665.4
-2669.88
-2674.37
-2678.85
-2683.34
-2687.82
-2692.3
-2696.79
-2701.27
-2705.75
-2710.24
-2714.72
-2719.21
-2723.69
-2728.17
-2732.66
-2737.14
-2741.63
-2746.11
-2750.59
-2755.08
-2759.56
-2764.04
-2768.53
-2773.01
-2777.5
-2781.98
-2786.46
-2790.95
-2795.43
-2799.91
-2804.4
-2808.88
-2813.36
-2817.84
-2822.33
-2826.81
-2831.29
-2835.77
-2840.26
-2844.74
-2849.22
-2853.7
-2858.18
-2862.67
-2867.15
-2871.63
-2876.11
-2880.59
-2885.07
-2889.56
-2894.04
-2898.52
-2903
-2907.48
-2911.96
-2916.45
-2920.93
-2925.41
-2929.89
-2934.37
-2938.85
-2943.34
-2947.82
-2952.3
-2956.78
-2961.26
-2965.74
-2970.22
-2974.71
-2979.19
-2983.67
-2988.15
-2992.63
-2997.11
-3001.59
-3006.07
-3010.55
-3015.03
-3019.51
-3023.99
-3028.47
-3032.95
-3037.43
-3041.91
-3046.39
-3050.87
-3055.35
-3059.83
-3064.31
-3068.79
-3073.27
-3077.75
-3082.23
-3086.71
-3091.19
-3095.67
-3100.15
-3104.63
-3109.1
-3113.58
-3118.06
-3122.54
-3127.02
-3131.5
-3135.98
-3140.46
-3144.94
-3149.42
-3153.9
-3158.38
-3162.85
-3167.33
-3171.81
-3176.29
-3180.77
-3185.25
-3189.73
-3194.21
-3198.68
-3203.16
-3207.64
-3212.12
-3216.59
-3221.07
-3225.55
-3230.03
-3234.5
-3238.98
-3243.46
-3247.94
-3252.41
-3256.89
-3261.37
-3265.84
-3270.32
-3274.8
-3279.28
-3283.75
-3288.23
-3292.71
-3297.18
-3301.66
-3306.14
-3310.62
-3315.09
-3319.57
-3324.05
-3328.52
-3333
-3337.48
-3341.95
-3346.43
-3350.9
-3355.38
-3359.86
-3364.33
-3368.81
-3373.29
-3377.76
-3382.24
-3386.72
-3391.19
-3395.67
-3400.14
-3404.62
-3409.09
-3413.57
-3418.04
-3422.52
-3426.99
-3431.47
-3435.94
-3440.42
-3444.89
-3449.37
-3453.84
-3458.32
-3462.79
-3467.27
-3471.74
-3476.21
-3480.69
-3485.16
-3489.64
-3494.11
-3498.59
-3503.06
-3507.54
-3512.01
-3516.48
-3520.96
-3525.43
-3529.91
-3534.38
-3538.85
-3543.33
-3547.8
-3552.28
-3556.75
-3561.22
-3565.7
-3570.17
-3574.64
-3579.12
-3583.59
-3588.06
-3592.54
-3597.01
-3601.48
-3605.95
-3610.43
-3614.9
-3619.37
-3623.84
-3628.32
-3632.79
-3637.26
-3641.73
-3646.21
-3650.68
-3655.15
-3659.62
-3664.09
-3668.57
-3673.04
-3677.51
-3681.98
-3686.45
-3690.92
-3695.4
-3699.87
-3704.34
-3708.81
-3713.28
-3717.75
-3722.23
-3726.7
-3731.17
-3735.64
-3740.11
-3744.58
-3749.05
-3753.52
-3757.99
-3762.46
-3766.94
-3771.41
-3775.88
-3780.35
-3784.82
-3789.29
-3793.76
-3798.23
-3802.7
-3807.17
-3811.64
-3816.11
-3820.58
-3825.05
-3829.52
-3833.99
-3838.46
-3842.93
-3847.39
-3851.86
-3856.33
-3860.8
-3865.27
-3869.74
-3874.21
-3878.68
-3883.15
-3887.62
-3892.08
-3896.55
-3901.02
-3905.49
-3909.96
-3914.43
-3918.9
-3923.37
-3927.83
-3932.3
-3936.77
-3941.24
-3945.71
-3950.18
-3954.65
-3959.12
-3963.58
-3968.05
-3972.51
-3976.98
-3981.44
-3985.92
-3990.38
-3994.87
-3999.32
-4003.79
-4008.25
-4012.72
-4017.17
-4021.64
-4026.12
-4030.59
-4035.08
-4039.51
-4044.02
-4048.44
-4052.9
-4057.39
-4061.85
-4066.31
-4070.81
-4075.27
-4079.72
-4084.18
-4088.65
-4093.11
-4097.58
-4102.05
-4106.52
-4110.97
-4115.45
-4119.89
-4124.39
-4128.82
-4133.33
-4137.75
-4142.26
-4146.7
-4151.18
-4155.64
-4160.06
-4164.61
-4168.96
-4173.56
-4177.88
-4182.47
-4186.83
-4191.38
-4195.81
-4200.24
-4204.79
-4209.15
-4213.74
-4218.06
-4222.66
-4227.04
-4231.52
-4236.02
-4240.38
-4245
-4249.29
-4253.89
-4258.25
-4262.83
-4267.25
-4271.62
-4276.25
-4280.47
-4285.24
-4289.47
-4294.05
-4298.49
-4302.85
-4307.56
-4311.69
-4316.44
-4320.67
-4325.29
-4329.79
-4334.04
-4338.83
-4342.9
-4347.68
-4351.96
-4356.44
-4361.09
-4365.16
-4370.12
-4374.22
-4378.86
-4383.28
-4387.55
-4392.38
-4396.44
-4401.23
-4405.53
-4409.89
-4414.76
-4418.7
-4423.51
-4427.71
-4432.38
-4436.96
-4441.05
-4445.91
-4450
-4454.66
-4459.16
-4463.38
-4468.22
-4472.25
-4477.07
-4481.42
-4485.68
-4490.52
-4494.5
-4499.39
-4503.68
-4508.03
-4512.87
-4516.8
-4521.72
-4525.96
-4530.28
-4535.17
-4539.06
-4544.01
-4548.28
-4552.55
-4557.5
-4561.34
-4566.27
-4570.62
-4574.78
-4579.84
-4583.67
-4588.51
-4593.01
-4597
-4602.14
-4606
-4610.67
-4615.41
-4619.22
-4624.38
-4628.41
-4632.82
-4637.78
-4641.55
-4646.49
-4650.92
-4654.95
-4660.09
-4663.94
-4668.65
-4673.35
-4677.15
-4682.35
-4686.33
-4690.8
-4695.69
-4699.4
-4704.56
-4708.79
-4712.89
-4718.1
-4721.77
-4726.6
-4731.32
-4735.04
-4740.31
-4744.31
-4748.6
-4753.77
-4757.35
-4762.32
-4766.89
-4770.66
-4776
-4779.9
-4784.26
-4789.4
-4792.97
-4797.99
-4802.54
-4806.29
-4811.65
-4815.54
-4819.88
-4825.06
-4828.6
-4833.58
-4838.22
-4841.89
-4847.25
-4851.24
-4855.41
-4860.73
-4864.28
-4869.1
-4873.98
-4877.47
-4882.81
-4887.05
-4890.88
-4896.39
-4900.05
-4904.48
-4909.77
-4913.12
-4918.2
-4922.95
-4926.36
-4931.89
-4935.98
-4939.82
-4945.45
-4948.98
-4953.45
-4958.82
-4962.06
-4967.16
-4971.99
-4975.29
-4980.84
-4985.04
-4988.71
-4994.41
-4998.04
-5002.28
-5007.82
-5011.1
-5015.94
-5021.08
-5024.28
-5029.63
-5034.2
-5037.6
-5043.24
-5047.25
-5051.07
-5056.75
-5060.29
-5064.64
-5070.12
-5073.38
-5078.27
-5083.37
-5086.57
-5091.92
-5096.52
-5099.88
-5105.52
-5109.61
-5113.3
-5119.04
-5122.68
-5126.8
-5132.47
-5135.77
-5140.37
-5145.8
-5148.92
-5153.96
-5159.05
-5162.14
-5167.56
-5172.24
-5175.43
-5181.12
-5185.38
-5188.79
-5194.64
-5198.51
-5202.21
-5208.1
-5211.63
-5215.67
-5221.51
-5224.78
-5229.17
-5234.87
-5237.96
-5242.68
-5248.18
-5251.17
-5256.19
-5261.46
-5264.41
-5269.7
-5274.71
-5277.69
-5283.19
-5287.94
-5290.99
-5296.66
-5301.15
-5304.33
-5310.12
-5314.36
-5317.69
-5323.56
-5327.58
-5331.06
-5336.98
-5340.8
-5344.44
-5350.38
-5354.02
-5357.83
-5363.76
-5367.25
-5371.22
-5377.13
-5380.49
-5384.61
-5390.5
-5393.75
-5398
-5403.85
-5407.02
-5411.37
-5417.2
-5420.29
-5424.74
-5430.54
-5433.58
-5438.09
-5443.87
-5446.88
-5451.44
-5457.2
-5460.2
-5464.79
-5470.53
-5473.52
-5478.12
-5483.86
-5486.84
-5491.44
-5497.19
-5500.18
-5504.75
-5510.52
-5513.52
-5518.05
-5523.86
-5526.87
-5531.33
-5537.19
-5540.24
-5544.61
-5550.51
-5553.62
-5557.87
-5563.83
-5567.02
-5571.13
-5577.13
-5580.43
-5584.39
-5590.42
-5593.85
-5597.66
-5603.69
-5607.28
-5610.93
-5616.95
-5620.71
-5624.21
-5630.19
-5634.14
-5637.5
-5643.42
-5647.58
-5650.79
-5656.63
-5661.02
-5664.11
-5669.82
-5674.46
-5677.44
-5682.99
-5687.9
-5690.8
-5696.14
-5701.32
-5704.19
-5709.27
-5714.72
-5717.63
-5722.39
-5728.07
-5731.12
-5735.5
-5741.37
-5744.63
-5748.64
-5754.62
-5758.17
-5761.82
-5767.81
-5771.72
-5775.06
-5780.93
-5785.26
-5788.37
-5794.01
-5798.76
-5801.74
-5807.07
-5812.21
-5815.18
-5820.13
-5825.59
-5828.67
-5833.2
-5838.89
-5842.21
-5846.3
-5852.12
-5855.78
-5859.46
-5865.28
-5869.34
-5872.69
-5878.37
-5882.88
-5886
-5891.4
-5896.39
-5899.41
-5904.39
-5909.82
-5912.92
-5917.38
-5923.13
-5926.51
-5930.43
-5936.3
-5940.16
-5943.58
-5949.34
-5953.79
-5956.88
-5962.28
-5967.32
-5970.35
-5975.21
-5980.71
-5983.94
-5988.19
-5993.93
-5997.59
-6001.29
-6007.01
-6011.22
-6014.55
-6019.99
-6024.76
-6027.96
-6032.95
-6038.19
-6041.48
-6045.94
-6051.48
-6055.07
-6059.01
-6064.63
-6068.69
-6072.2
-6077.66
-6082.3
-6085.53
-6090.6
-6095.8
-6099.05
-6103.52
-6109.11
-6112.73
-6116.54
-6122.2
-6126.44
-6129.77
-6135.12
-6140.04
-6143.25
-6147.99
-6153.42
-6156.91
-6160.97
-6166.56
-6170.6
-6174.16
-6179.53
-6184.2
-6187.57
-6192.46
-6197.63
-6201.13
-6205.44
-6210.86
-6214.77
-6218.57
-6223.92
-6228.38
-6231.88
-6236.88
-6241.87
-6245.37
-6249.84
-6255.17
-6258.99
-6262.9
-6268.27
-6272.63
-6276.16
-6281.21
-6286.16
-6289.65
-6294.12
-6299.46
-6303.31
-6307.18
-6312.51
-6316.96
-6320.47
-6325.41
-6330.45
-6334.02
-6338.34
-6343.66
-6347.69
-6351.47
-6356.65
-6361.27
-6364.85
-6369.58
-6374.64
-6378.4
-6382.59
-6387.8
-6392.01
-6395.78
-6400.8
-6405.52
-6409.18
-6413.75
-6418.85
-6422.74
-6426.79
-6431.96
-6436.33
-6440.03
-6444.91
-6449.81
-6453.51
-6457.84
-6463.05
-6467.14
-6470.94
-6476.02
-6480.72
-6484.35
-6488.9
-6494.04
-6497.97
-6501.92
-6507.07
-6511.59
-6515.24
-6519.94
-6524.97
-6528.82
-6532.93
-6538.06
-6542.43
-6546.19
-6550.99
-6555.85
-6559.68
-6563.97
-6569.04
-6573.25
-6577.14
-6582.04
-6586.73
-6590.54
-6594.99
-6600.02
-6604.09
-6608.07
-6613.05
-6617.65
-6621.41
-6625.95
-6630.98
-6634.99
-6638.99
-6644
-6648.57
-6652.34
-6656.89
-6661.89
-6665.92
-6669.94
-6674.91
-6679.47
-6683.29
-6687.83
-6692.77
-6696.84
-6700.9
-6705.82
-6710.35
-6714.23
-6718.78
-6723.66
-6727.74
-6731.85
-6736.75
-6741.25
-6745.14
-6749.71
-6754.58
-6758.65
-6762.76
-6767.66
-6772.17
-6776.06
-6780.59
-6785.49
-6789.59
-6793.65
-6798.53
-6803.11
-6807
-6811.45
-6816.38
-6820.56
-6824.55
-6829.37
-6834.04
-6837.97
-6842.31
-6847.23
-6851.52
-6855.49
-6860.19
-6864.93
-6868.94
-6873.19
-6878.06
-6882.45
-6886.43
-6891.04
-6895.79
-6899.89
-6904.08
-6908.9
-6913.37
-6917.36
-6921.88
-6926.68
-6930.83
-6934.95
-6939.73
-6944.31
-6948.28
-6952.68
-6957.54
-6961.82
-6965.82
-6970.5
-6975.23
-6979.27
-6983.49
-6988.32
-6992.79
-6996.78
-7001.26
-7006.06
-7010.27
-7014.38
-7019.07
-7023.68
-7027.75
-7032.1
-7036.85
-7041.2
-7045.3
-7049.88
-7054.53
-7058.67
-7062.94
-7067.68
-7072.12
-7076.17
-7080.66
-7085.42
-7089.64
-7093.74
-7098.43
-7103.08
-7107.14
-7111.39
-7116.19
-7120.65
-7124.67
-7129.11
-7133.89
-7138.17
-7142.26
-7146.87
-7151.52
-7155.67
-7159.93
-7164.61
-7169.07
-7173.2
-7177.65
-7182.31
-7186.58
-7190.79
-7195.4
-7199.94
-7204.09
-7208.43
-7213.14
-7217.52
-7221.62
-7226.12
-7230.83
-7235.06
-7239.19
-7243.83
-7248.47
-7252.59
-7256.82
-7261.54
-7266.05
-7270.14
-7274.5
-7279.21
-7283.59
-7287.72
-7292.2
-7296.84
-7301.11
-7305.34
-7309.91
-7314.43
-7318.63
-7322.99
-7327.61
-7331.98
-7336.17
-7340.67
-7345.28
-7349.52
-7353.74
-7358.36
-7362.91
-7367.06
-7371.35
-7376.03
-7380.5
-7384.61
-7388.98
-7393.68
-7398.07
-7402.18
-7406.63
-7411.3
-7415.62
-7419.78
-7424.3
-7428.89
-7433.16
-7437.41
-7441.97
-7446.46
-7450.69
-7455.06
-7459.63
-7464.01
-7468.24
-7472.71
-7477.27
-7481.55
-7485.8
-7490.36
-7494.9
-7499.1
-7503.38
-7508
-7512.5
-7516.65
-7520.98
-7525.63
-7530.07
-7534.22
-7538.6
-7543.23
-7547.63
-7551.81
-7556.23
-7560.82
-7565.17
-7569.4
-7573.87
-7578.4
-7582.7
-7587
-7591.51
-7595.98
-7600.23
-7604.6
-7609.15
-7613.55
-7617.77
-7622.2
-7626.78
-7631.12
-7635.32
-7639.79
-7644.38
-7648.69
-7652.89
-7657.38
-7661.96
-7666.26
-7670.48
-7674.98
-7679.52
-7683.81
-7688.08
-7692.58
-7697.07
-7701.35
-7705.68
-7710.19
-7714.62
-7718.89
-7723.28
-7727.8
-7732.18
-7736.43
-7740.87
-7745.41
-7749.74
-7753.98
-7758.44
-7763
-7767.31
-7771.54
-7776.01
-7780.56
-7784.87
-7789.11
-7793.59
-7798.11
-7802.43
-7806.7
-7811.17
-7815.65
-7819.96
-7824.29
-7828.77
-7833.2
-7837.49
-7841.85
-7846.36
-7850.76
-7855.03
-7859.41
-7863.94
-7868.33
-7872.57
-7876.97
-7881.5
-7885.89
-7890.13
-7894.52
-7899.06
-7903.44
-7907.69
-7912.08
-7916.6
-7920.98
-7925.25
-7929.65
-7934.15
-7938.52
-7942.81
-7947.22
-7951.7
-7956.05
-7960.35
-7964.79
-7969.26
-7973.58
-7977.89
-7982.35
-7986.82
-7991.12
-7995.42
-7999.9
-8004.37
-8008.67
-8012.96
-8017.44
-8021.91
-8026.22
-8030.51
-8034.98
-8039.45
-8043.76
-8048.07
-8052.52
-8056.98
-8061.3
-8065.62
-8070.06
-8074.5
-8078.82
-8083.16
-8087.61
-8092.04
-8096.35
-8100.69
-8105.16
-8109.58
-8113.87
-8118.22
-8122.69
-8127.12
-8131.41
-8135.74
-8140.22
-8144.66
-8148.95
-8153.28
-8157.73
-8162.18
-8166.49
-8170.81
-8175.26
-8179.69
-8184.02
-8188.35
-8192.79
-8197.21
-8201.54
-8205.88
-8210.32
-8214.74
-8219.05
-8223.4
-8227.84
-8232.26
-8236.57
-8240.91
-8245.36
-8249.79
-8254.1
-8258.42
-8262.87
-8267.31
-8271.63
-8275.94
-8280.38
-8284.82
-8289.15
-8293.46
-8297.88
-8302.33
-8306.67
-8310.99
-8315.4
-8319.83
-8324.18
-8328.51
-8332.91
-8337.34
-8341.69
-8346.02
-8350.43
-8354.85
-8359.19
-8363.51
-8367.93
-8372.37
-8376.71
-8381.02
-8385.42
-8389.87
-8394.23
-8398.53
-8402.91
-8407.36
-8411.75
-8416.05
-8420.41
-8424.84
-8429.24
-8433.56
-8437.92
-8442.34
-8446.73
-8451.06
-8455.42
-8459.84
-8464.22
-8468.55
-8472.91
-8477.34
-8481.73
-8486.04
-8490.39
-8494.82
-8499.24
-8503.55
-8507.87
-8512.29
-8516.73
-8521.07
-8525.37
-8529.76
-8534.2
-8538.56
-8542.88
-8547.25
-8551.67
-8556.04
-8560.38
-8564.75
-8569.15
-8573.52
-8577.85
-8582.24
-8586.65
-8591.01
-8595.33
-8599.7
-8604.13
-8608.51
-8612.82
-8617.16
-8621.59
-8626
-8630.33
-8634.64
-8639.04
-8643.46
-8647.82
-8652.15
-8656.51
-8660.92
-8665.29
-8669.63
-8674
-8678.39
-8682.75
-8687.09
-8691.48
-8695.88
-8700.23
-8704.55
-8708.93
-8713.35
-8717.73
-8722.03
-8726.37
-8730.79
-8735.2
-8739.54
-8743.85
-8748.23
-8752.64
-8757.01
-8761.34
-8765.7
-8770.09
-8774.45
-8778.81
-8783.18
-8787.56
-8791.91
-8796.25
-8800.63
-8805.03
-8809.39
-8813.7
-8818.06
-8822.47
-8826.87
-8831.19
-8835.51
-8839.9
-8844.31
-8848.67
-8852.99
-8857.34
-8861.74
-8866.12
-8870.46
-8874.81
-8879.18
-8883.55
-8887.9
-8892.27
-8896.65
-8901.01
-8905.34
-8909.69
-8914.1
-8918.48
-8922.8
-8927.12
-8931.51
-8935.92
-8940.28
-8944.59
-8948.93
-8953.33
-8957.72
-8962.06
-8966.39
-8970.76
-8975.14
-8979.5
-8983.85
-8988.21
-8992.58
-8996.92
-9001.27
-9005.66
-9010.03
-9014.37
-9018.69
-9023.06
-9027.47
-9031.83
-9036.14
-9040.48
-9044.87
-9049.26
-9053.6
-9057.93
-9062.28
-9066.67
-9071.03
-9075.37
-9079.72
-9084.09
-9088.45
-9092.79
-9097.15
-9101.53
-9105.88
-9110.21
-9114.56
-9118.95
-9123.32
-9127.65
-9131.97
-9136.34
-9140.74
-9145.1
-9149.42
-9153.75
-9158.13
-9162.51
-9166.85
-9171.19
-9175.54
-9179.91
-9184.26
-9188.61
-9192.97
-9197.33
-9201.67
-9206.01
-9210.37
-9214.75
-9219.11
-9223.43
-9227.77
-9232.14
-9236.52
-9240.86
-9245.19
-9249.54
-9253.91
-9258.27
-9262.61
-9266.95
-9271.31
-9275.67
-9280.02
-9284.36
-9288.72
-9293.08
-9297.42
-9301.75
-9306.12
-9310.49
-9314.83
-9319.16
-9323.5
-9327.88
-9332.24
-9336.57
-9340.9
-9345.26
-9349.63
-9353.98
-9358.31
-9362.66
-9367.02
-9371.37
-9375.7
-9380.05
-9384.41
-9388.76
-9393.1
-9397.43
-9401.79
-9406.16
-9410.5
-9414.83
-9419.17
-9423.53
-9427.89
-9432.23
-9436.56
-9440.91
-9445.27
-9449.61
-9453.95
-9458.3
-9462.66
-9467
-9471.33
-9475.67
-9480.04
-9484.39
-9488.73
-9493.05
-9497.4
-9501.76
-9506.11
-9510.45
-9514.78
-9519.13
-9523.48
-9527.82
-9532.16
-9536.51
-9540.86
-9545.2
-9549.53
-9553.88
-9558.24
-9562.58
-9566.91
-9571.24
-9575.6
-9579.96
-9584.3
-9588.62
-9592.95
-9597.31
-9601.66
-9606
-9610.33
-9614.67
-9619.02
-9623.36
-9627.7
-9632.04
-9636.39
-9640.72
-9645.05
-9649.39
-9653.75
-9658.1
-9662.43
-9666.75
-9671.09
-9675.45
-9679.8
-9684.13
-9688.45
-9692.79
-9697.14
-9701.48
-9705.82
-9710.16
-9714.49
-9718.82
-9723.16
-9727.5
-9731.86
-9736.2
-9740.51
-9744.84
-9749.19
-9753.55
-9757.89
-9762.21
-9766.53
-9770.87
-9775.22
-9779.56
-9783.89
-9788.22
-9792.55
-9796.89
-9801.23
-9805.57
-9809.92
-9814.24
-9818.56
-9822.89
-9827.25
-9831.6
-9835.93
-9840.24
-9844.56
-9848.91
-9853.27
-9857.6
-9861.92
-9866.24
-9870.58
-9874.92
-9879.26
-9883.6
-9887.93
-9892.25
-9896.58
-9900.91
-9905.26
-9909.6
-9913.93
-9918.24
-9922.57
-9926.92
-9931.27
-9935.59
-9939.91
-9944.23
-9948.57
-9952.92
-9957.25
-9961.57
-9965.89
-9970.22
-9974.56
-9978.89
-9983.23
-9987.56
-9991.88
-9996.2
-10000.5
-10004.9
-10009.2
-10013.5
-10017.8
-10022.2
-10026.5
-10030.9
-10035.2
-10039.5
-10043.8
-10048.2
-10052.5
-10056.8
-10061.2
-10065.5
-10069.8
-10074.1
-10078.4
-10082.8
-10087.1
-10091.4
-10095.8
-10100.1
-10104.4
-10108.8
-10113.1
-10117.4
-10121.7
-10126
-10130.4
-10134.7
-10139
-10143.3
-10147.7
-10152
-10156.3
-10160.7
-10165
-10169.3
-10173.6
-10177.9
-10182.3
-10186.6
-10190.9
-10195.2
-10199.6
-10203.9
-10208.2
-10212.6
-10216.9
-10221.2
-10225.5
-10229.8
-10234.2
-10238.5
-10242.8
-10247.1
-10251.4
-10255.8
-10260.1
-10264.4
-10268.7
-10273.1
-10277.4
-10281.7
-10286
-10290.3
-10294.7
-10299
-10303.3
-10307.6
-10311.9
-10316.3
-10320.6
-10324.9
-10329.2
-10333.5
-10337.9
-10342.2
-10346.5
-10350.8
-10355.1
-10359.5
-10363.8
-10368.1
-10372.4
-10376.7
-10381
-10385.4
-10389.7
-10394
-10398.3
-10402.6
-10407
-10411.3
-10415.6
-10419.9
-10424.2
-10428.5
-10432.9
-10437.2
-10441.5
-10445.8
-10450.1
-10454.4
-10458.7
-10463.1
-10467.4
-10471.7
-10476
-10480.3
-10484.6
-10489
-10493.3
-10497.6
-10501.9
-10506.2
-10510.5
-10514.8
-10519.2
-10523.5
-10527.8
-10532.1
-10536.4
-10540.7
-10545
-10549.4
-10553.7
-10558
-10562.3
-10566.6
-10570.9
-10575.2
-10579.5
-10583.9
-10588.2
-10592.5
-10596.8
-10601.1
-10605.4
-10609.7
-10614
-10618.3
-10622.6
-10627
-10631.3
-10635.6
-10639.9
-10644.2
-10648.5
-10652.8
-10657.1
-10661.4
-10665.8
-10670.1
-10674.4
-10678.7
-10683
-10687.3
-10691.6
-10695.9
-10700.2
-10704.5
-10708.8
-10713.1
-10717.5
-10721.8
-10726.1
-10730.4
-10734.7
-10739
-10743.3
-10747.6
-10751.9
-10756.2
-10760.5
-10764.8
-10769.1
-10773.4
-10777.7
-10782
-10786.3
-10790.7
-10795
-10799.3
-10803.6
-10807.9
-10812.2
-10816.5
-10820.8
-10825.1
-10829.4
-10833.7
-10838
-10842.3
-10846.6
-10850.9
-10855.2
-10859.5
-10863.8
-10868.1
-10872.4
-10876.7
-10881
-10885.3
-10889.6
-10893.9
-10898.2
-10902.6
-10906.9
-10911.2
-10915.5
-10919.8
-10924.1
-10928.4
-10932.7
-10937
-10941.3
-10945.6
-10949.9
-10954.2
-10958.5
-10962.8
-10967.1
-10971.4
-10975.7
-10980
-10984.3
-10988.6
-10992.9
-10997.1
-11001.4
-11005.8
-11010.1
-11014.4
-11018.6
-11022.9
-11027.2
-11031.5
-11035.8
-11040.1
-11044.4
-11048.7
-11053
-11057.3
-11061.6
-11065.9
-11070.2
-11074.5
-11078.8
-11083.1
-11087.4
-11091.7
-11096
-11100.3
-11104.6
-11108.9
-11113.2
-11117.5
-11121.8
-11126.1
-11130.4
-11134.6
-11138.9
-11143.2
-11147.5
-11151.8
-11156.1
-11160.4
-11164.7
-11169
-11173.3
-11177.6
-11181.9
-11186.2
-11190.5
-11194.7
-11199
-11203.3
-11207.6
-11211.9
-11216.2
-11220.5
-11224.8
-11229.1
-11233.4
-11237.7
-11242
-11246.3
-11250.5
-11254.8
-11259.1
-11263.4
-11267.7
-11272
-11276.3
-11280.6
-11284.9
-11289.1
-11293.4
-11297.7
-11302
-11306.3
-11310.6
-11314.9
-11319.2
-11323.5
-11327.8
-11332
-11336.3
-11340.6
-11344.9
-11349.2
-11353.5
-11357.8
-11362.1
-11366.3
-11370.6
-11374.9
-11379.2
-11383.5
-11387.8
-11392.1
-11396.3
-11400.6
-11404.9
-11409.2
-11413.5
-11417.8
-11422.1
-11426.3
-11430.6
-11434.9
-11439.2
-11443.5
-11447.8
-11452.1
-11456.3
-11460.6
-11464.9
-11469.2
-11473.5
-11477.8
-11482
-11486.3
-11490.6
-11494.9
-11499.2
-11503.4
-11507.7
-11512
-11516.3
-11520.6
-11524.8
-11529.1
-11533.4
-11537.7
-11542
-11546.3
-11550.5
-11554.8
-11559.1
-11563.4
-11567.7
-11572
-11576.2
-11580.5
-11584.8
-11589.1
-11593.3
-11597.6
-11601.9
-11606.2
-11610.5
-11614.7
-11619
-11623.3
-11627.6
-11631.9
-11636.1
-11640.4
-11644.7
-11649
-11653.2
-11657.5
-11661.8
-11666.1
-11670.4
-11674.6
-11678.9
-11683.2
-11687.5
-11691.8
-11696
-11700.3
-11704.6
-11708.8
-11713.1
-11717.4
-11721.7
-11726
-11730.2
-11734.5
-11738.8
-11743
-11747.3
-11751.6
-11755.9
-11760.2
-11764.4
-11768.7
-11773
-11777.2
-11781.5
-11785.8
-11790.1
-11794.3
-11798.6
-11802.9
-11807.2
-11811.4
-11815.7
-11820
-11824.3
-11828.5
-11832.8
-11837.1
-11841.3
-11845.6
-11849.9
-11854.2
-11858.4
-11862.7
-11867
-11871.2
-11875.5
-11879.8
-11884.1
-11888.3
-11892.6
-11896.9
-11901.1
-11905.4
-11909.7
-11913.9
-11918.2
-11922.5
-11926.7
-11931
-11935.3
-11939.6
-11943.8
-11948.1
-11952.4
-11956.6
-11960.9
-11965.2
-11969.4
-11973.7
-11978
-11982.2
-11986.5
-11990.8
-11995
-11999.3
-12003.6
-12007.8
-12012.1
-12016.4
-12020.6
-12024.9
-12029.2
-12033.4
-12037.7
-12042
-12046.2
-12050.5
-12054.8
-12059
-12063.3
-12067.6
-12071.8
-12076.1
-12080.4
-12084.6
-12088.9
-12093.1
-12097.4
-12101.7
-12105.9
-12110.2
-12114.5
-12118.7
-12123
-12127.2
-12131.5
-12135.8
-12140
-12144.3
-12148.6
-12152.8
-12157.1
-12161.3
-12165.6
-12169.9
-12174.1
-12178.4
-12182.7
-12186.9
-12191.2
-12195.4
-12199.7
-12204
-12208.2
-12212.5
-12216.7
-12221
-12225.3
-12229.5
-12233.8
-12238
-12242.3
-12246.6
-12250.8
-12255.1
-12259.3
-12263.6
-12267.9
-12272.1
-12276.4
-12280.6
-12284.9
-12289.1
-12293.4
-12297.7
-12301.9
-12306.2
-12310.4
-12314.7
-12318.9
-12323.2
-12327.4
-12331.7
-12336
-12340.2
-12344.5
-12348.7
-12353
-12357.2
-12361.5
-12365.8
-12370
-12374.3
-12378.5
-12382.8
-12387
-12391.3
-12395.5
-12399.8
-12404.1
-12408.3
-12412.6
-12416.8
-12421.1
-12425.3
-12429.6
-12433.8
-12438.1
-12442.3
-12446.6
-12450.9
-12455.1
-12459.3
-12463.6
-12467.8
-12472.1
-12476.4
-12480.6
-12484.9
-12489.1
-12493.4
-12497.6
-12501.9
-12506.1
-12510.4
-12514.6
-12518.9
-12523.1
-12527.4
-12531.6
-12535.9
-12540.1
-12544.4
-12548.6
-12552.9
-12557.1
-12561.4
-12565.6
-12569.9
-12574.1
-12578.4
-12582.6
-12586.9
-12591.1
-12595.4
-12599.6
-12603.9
-12608.1
-12612.4
-12616.6
-12620.9
-12625.1
-12629.3
-12633.6
-12637.8
-12642.1
-12646.3
-12650.6
-12654.8
-12659.1
-12663.3
-12667.6
-12671.8
-12676.1
-12680.3
-12684.5
-12688.8
-12693
-12697.3
-12701.5
-12705.8
-12710
-12714.3
-12718.5
-12722.7
-12727
-12731.2
-12735.5
-12739.7
-12744
-12748.2
-12752.5
-12756.7
-12760.9
-12765.2
-12769.4
-12773.7
-12777.9
-12782.1
-12786.4
-12790.6
-12794.9
-12799.1
-12803.4
-12807.6
-12811.8
-12816.1
-12820.3
-12824.6
-12828.8
-12833
-12837.3
-12841.5
-12845.8
-12850
-12854.2
-12858.5
-12862.7
-12867
-12871.2
-12875.4
-12879.7
-12883.9
-12888.2
-12892.4
-12896.6
-12900.9
-12905.1
-12909.4
-12913.6
-12917.8
-12922.1
-12926.3
-12930.5
-12934.8
-12939
-12943.3
-12947.5
-12951.7
-12956
-12960.2
-12964.4
-12968.7
-12972.9
-12977.2
-12981.4
-12985.6
-12989.9
-12994.1
-12998.3
-13002.6
-13006.8
-13011
-13015.3
-13019.5
-13023.7
-13028
-13032.2
-13036.4
-13040.7
-13044.9
-13049.2
-13053.4
-13057.6
-13061.9
-13066.1
-13070.3
-13074.6
-13078.8
-13083
-13087.3
-13091.5
-13095.7
-13100
-13104.2
-13108.4
-13112.6
-13116.9
-13121.1
-13125.4
-13129.6
-13133.8
-13138
-13142.3
-13146.5
-13150.7
-13155
-13159.2
-13163.4
-13167.7
-13171.9
-13176.1
-13180.4
-13184.6
-13188.8
-13193.1
-13197.3
-13201.5
-13205.7
-13210
-13214.2
-13218.4
-13222.7
-13226.9
-13231.1
-13235.3
-13239.6
-13243.8
-13248
-13252.3
-13256.5
-13260.7
-13264.9
-13269.2
-13273.4
-13277.6
-13281.9
-13286.1
-13290.3
-13294.5
-13298.8
-13303
-13307.2
-13311.5
-13315.7
-13319.9
-13324.1
-13328.4
-13332.6
-13336.8
-13341
-13345.3
-13349.5
-13353.7
-13357.9
-13362.2
-13366.4
-13370.6
-13374.8
-13379.1
-13383.3
-13387.5
-13391.8
-13396
-13400.2
-13404.4
-13408.6
-13412.9
-13417.1
-13421.3
-13425.5
-13429.8
-13434
-13438.2
-13442.4
-13446.7
-13450.9
-13455.1
-13459.3
-13463.6
-13467.8
-13472
-13476.2
-13480.5
-13484.7
-13488.9
-13493.1
-13497.3
-13501.6
-13505.8
-13510
-13514.2
-13518.5
-13522.7
-13526.9
-13531.1
-13535.3
-13539.6
-13543.8
-13548
-13552.2
-13556.5
-13560.7
-13564.9
-13569.1
-13573.3
-13577.6
-13581.8
-13586
-13590.2
-13594.4
-13598.7
-13602.9
-13607.1
-13611.3
-13615.6
-13619.8
-13624
-13628.2
-13632.4
-13636.7
-13640.9
-13645.1
-13649.3
-13653.5
-13657.8
-13662
-13666.2
-13670.4
-13674.6
-13678.9
-13683.1
-13687.3
-13691.5
-13695.7
-13699.9
-13704.2
-13708.4
-13712.6
-13716.8
-13721
-13725.3
-13729.5
-13733.7
-13737.9
-13742.1
-13746.3
-13750.6
-13754.8
-13759
-13763.2
-13767.4
-13771.7
-13775.9
-13780.1
-13784.3
-13788.5
-13792.7
-13797
-13801.2
-13805.4
-13809.6
-13813.8
-13818.1
-13822.3
-13826.5
-13830.7
-13834.9
-13839.1
-13843.4
-13847.6
-13851.8
-13856
-13860.2
-13864.4
-13868.7
-13872.9
-13877.1
-13881.3
-13885.5
-13889.7
-13894
-13898.2
-13902.4
-13906.6
-13910.8
-13915
-13919.3
-13923.5
-13927.7
-13931.9
-13936.1
-13940.3
-13944.6
-13948.8
-13953
-13957.2
-13961.4
-13965.6
-13969.9
-13974.1
-13978.3
-13982.5
-13986.7
-13990.9
-13995.1
-13999.4
-14003.6
-14007.8
-14012
-14016.2
-14020.4
-14024.7
-14028.9
-14033.1
-14037.3
-14041.5
-14045.7
-14050
-14054.2
-14058.4
-14062.6
-14066.8
-14071
-14075.2
-14079.5
-14083.7
-14087.9
-14092.1
-14096.3
-14100.5
-14104.8
-14109
-14113.2
-14117.4
-14121.6
-14125.8
-14130
-14134.3
-14138.5
-14142.7
-14146.9
-14151.1
-14155.3
-14159.6
-14163.8
-14168
-14172.2
-14176.4
-14180.6
-14184.9
-14189.1
-14193.3
-14197.5
-14201.7
-14205.9
-14210.1
-14214.4
-14218.6
-14222.8
-14227
-14231.2
-14235.4
-14239.7
-14243.9
-14248.1
-14252.3
-14256.5
-14260.7
-14264.9
-14269.2
-14273.4
-14277.6
-14281.8
-14286
-14290.3
-14294.5
-14298.7
-14302.9
-14307.1
-14311.3
-14315.6
-14319.8
-14324
-14328.2
-14332.4
-14336.6
-14340.9
-14345.1
-14349.3
-14353.5
-14357.7
-14361.9
-14366.2
-14370.4
-14374.6
-14378.8
-14383
-14387.2
-14391.5
-14395.7
-14399.9
-14404.1
-14408.3
-14412.6
-14416.8
-14421
-14425.2
-14429.4
-14433.7
-14437.9
-14442.1
-14446.3
-14450.5
-14454.8
-14459
-14463.2
-14467.4
-14471.6
-14475.9
-14480.1
-14484.3
-14488.5
-14492.7