/*--------------------------------*- C++ -*----------------------------------*\
  =========                 |
  \\      /  F ield         | OpenFOAM: The Open Source CFD Toolbox
   \\    /   O peration     | Website:  https://openfoam.org
    \\  /    A nd           | Version:  9
     \\/     M anipulation  |
\*---------------------------------------------------------------------------*/
FoamFile
{
    format      ascii;
    class       volVectorField;
    location    "0.03";
    object      ddtCorrDdt0(rho,U);
}
// * * * * * * * * * * * * * * * * * * * * * * * * * * * * * * * * * * * * * //

dimensions      [1 -2 -2 0 0 0 0];

internalField   nonuniform List<vector> 
10000
(
(2.61078 0 0)
(1.00367 0 0)
(-0.280577 0 0)
(-1.35908 0 0)
(-2.43772 0 0)
(-3.55611 0 0)
(-4.68877 0 0)
(-5.81798 0 0)
(-6.94215 0 0)
(-8.06576 0 0)
(-9.19132 0 0)
(-10.3174 0 0)
(-11.4413 0 0)
(-12.5627 0 0)
(-13.6842 0 0)
(-14.8086 0 0)
(-15.9362 0 0)
(-17.0633 0 0)
(-18.1867 0 0)
(-19.3064 0 0)
(-20.4259 0 0)
(-21.5487 0 0)
(-22.6758 0 0)
(-23.8048 0 0)
(-24.9318 0 0)
(-26.0538 0 0)
(-27.1715 0 0)
(-28.2889 0 0)
(-29.4109 0 0)
(-30.5391 0 0)
(-31.6706 0 0)
(-32.8004 0 0)
(-33.9247 0 0)
(-35.0419 0 0)
(-36.1542 0 0)
(-37.2669 0 0)
(-38.3849 0 0)
(-39.5107 0 0)
(-40.6433 0 0)
(-41.7793 0 0)
(-42.9131 0 0)
(-44.0402 0 0)
(-45.1587 0 0)
(-46.269 0 0)
(-47.3752 0 0)
(-48.4833 0 0)
(-49.5991 0 0)
(-50.7249 0 0)
(-51.8593 0 0)
(-52.9988 0 0)
(-54.1399 0 0)
(-55.2794 0 0)
(-56.4122 0 0)
(-57.5349 0 0)
(-58.6477 0 0)
(-59.7529 0 0)
(-60.8524 0 0)
(-61.9498 0 0)
(-63.05 0 0)
(-64.1557 0 0)
(-65.2691 0 0)
(-66.3924 0 0)
(-67.5254 0 0)
(-68.6671 0 0)
(-69.8172 0 0)
(-70.9735 0 0)
(-72.134 0 0)
(-73.2972 0 0)
(-74.4607 0 0)
(-75.6228 0 0)
(-76.7815 0 0)
(-77.9359 0 0)
(-79.087 0 0)
(-80.2364 0 0)
(-81.3819 0 0)
(-82.5174 0 0)
(-83.6458 0 0)
(-84.7748 0 0)
(-85.9018 0 0)
(-87.0301 0 0)
(-88.1634 0 0)
(-89.3142 0 0)
(-90.4676 0 0)
(-91.5872 0 0)
(-92.7101 0 0)
(-93.8371 0 0)
(-94.9629 0 0)
(-96.0856 0 0)
(-97.2132 0 0)
(-98.3407 0 0)
(-99.4627 0 0)
(-100.584 0 0)
(-101.708 0 0)
(-102.835 0 0)
(-103.962 0 0)
(-105.089 0 0)
(-106.215 0 0)
(-107.342 0 0)
(-108.467 0 0)
(-109.594 0 0)
(-110.72 0 0)
(-111.845 0 0)
(-112.971 0 0)
(-114.096 0 0)
(-115.221 0 0)
(-116.347 0 0)
(-117.472 0 0)
(-118.598 0 0)
(-119.723 0 0)
(-120.849 0 0)
(-121.974 0 0)
(-123.1 0 0)
(-124.224 0 0)
(-125.35 0 0)
(-126.477 0 0)
(-127.602 0 0)
(-128.727 0 0)
(-129.852 0 0)
(-130.978 0 0)
(-132.104 0 0)
(-133.23 0 0)
(-134.355 0 0)
(-135.48 0 0)
(-136.604 0 0)
(-137.728 0 0)
(-138.853 0 0)
(-139.979 0 0)
(-141.105 0 0)
(-142.23 0 0)
(-143.356 0 0)
(-144.482 0 0)
(-145.608 0 0)
(-146.734 0 0)
(-147.859 0 0)
(-148.985 0 0)
(-150.111 0 0)
(-151.237 0 0)
(-152.362 0 0)
(-153.487 0 0)
(-154.613 0 0)
(-155.738 0 0)
(-156.864 0 0)
(-157.989 0 0)
(-159.114 0 0)
(-160.239 0 0)
(-161.365 0 0)
(-162.49 0 0)
(-163.615 0 0)
(-164.74 0 0)
(-165.865 0 0)
(-166.99 0 0)
(-168.116 0 0)
(-169.242 0 0)
(-170.368 0 0)
(-171.492 0 0)
(-172.617 0 0)
(-173.741 0 0)
(-174.866 0 0)
(-175.99 0 0)
(-177.116 0 0)
(-178.241 0 0)
(-179.366 0 0)
(-180.492 0 0)
(-181.617 0 0)
(-182.742 0 0)
(-183.868 0 0)
(-184.993 0 0)
(-186.118 0 0)
(-187.244 0 0)
(-188.369 0 0)
(-189.495 0 0)
(-190.62 0 0)
(-191.746 0 0)
(-192.871 0 0)
(-193.996 0 0)
(-195.122 0 0)
(-196.247 0 0)
(-197.372 0 0)
(-198.497 0 0)
(-199.622 0 0)
(-200.747 0 0)
(-201.872 0 0)
(-202.996 0 0)
(-204.122 0 0)
(-205.247 0 0)
(-206.372 0 0)
(-207.498 0 0)
(-208.623 0 0)
(-209.747 0 0)
(-210.872 0 0)
(-211.996 0 0)
(-213.12 0 0)
(-214.245 0 0)
(-215.37 0 0)
(-216.495 0 0)
(-217.62 0 0)
(-218.745 0 0)
(-219.87 0 0)
(-220.996 0 0)
(-222.121 0 0)
(-223.246 0 0)
(-224.371 0 0)
(-225.496 0 0)
(-226.62 0 0)
(-227.745 0 0)
(-228.87 0 0)
(-229.996 0 0)
(-231.121 0 0)
(-232.246 0 0)
(-233.371 0 0)
(-234.496 0 0)
(-235.622 0 0)
(-236.747 0 0)
(-237.871 0 0)
(-238.996 0 0)
(-240.121 0 0)
(-241.246 0 0)
(-242.371 0 0)
(-243.496 0 0)
(-244.621 0 0)
(-245.745 0 0)
(-246.87 0 0)
(-247.995 0 0)
(-249.119 0 0)
(-250.243 0 0)
(-251.367 0 0)
(-252.492 0 0)
(-253.616 0 0)
(-254.741 0 0)
(-255.865 0 0)
(-256.99 0 0)
(-258.115 0 0)
(-259.24 0 0)
(-260.365 0 0)
(-261.49 0 0)
(-262.615 0 0)
(-263.74 0 0)
(-264.864 0 0)
(-265.989 0 0)
(-267.114 0 0)
(-268.238 0 0)
(-269.363 0 0)
(-270.487 0 0)
(-271.612 0 0)
(-272.737 0 0)
(-273.862 0 0)
(-274.987 0 0)
(-276.111 0 0)
(-277.236 0 0)
(-278.361 0 0)
(-279.486 0 0)
(-280.61 0 0)
(-281.735 0 0)
(-282.86 0 0)
(-283.985 0 0)
(-285.109 0 0)
(-286.234 0 0)
(-287.358 0 0)
(-288.482 0 0)
(-289.606 0 0)
(-290.73 0 0)
(-291.854 0 0)
(-292.978 0 0)
(-294.103 0 0)
(-295.227 0 0)
(-296.352 0 0)
(-297.476 0 0)
(-298.601 0 0)
(-299.725 0 0)
(-300.85 0 0)
(-301.974 0 0)
(-303.099 0 0)
(-304.223 0 0)
(-305.348 0 0)
(-306.472 0 0)
(-307.597 0 0)
(-308.721 0 0)
(-309.845 0 0)
(-310.97 0 0)
(-312.094 0 0)
(-313.218 0 0)
(-314.343 0 0)
(-315.467 0 0)
(-316.591 0 0)
(-317.716 0 0)
(-318.84 0 0)
(-319.965 0 0)
(-321.09 0 0)
(-322.214 0 0)
(-323.339 0 0)
(-324.463 0 0)
(-325.587 0 0)
(-326.712 0 0)
(-327.836 0 0)
(-328.959 0 0)
(-330.083 0 0)
(-331.207 0 0)
(-332.331 0 0)
(-333.455 0 0)
(-334.579 0 0)
(-335.703 0 0)
(-336.827 0 0)
(-337.951 0 0)
(-339.076 0 0)
(-340.2 0 0)
(-341.324 0 0)
(-342.448 0 0)
(-343.572 0 0)
(-344.697 0 0)
(-345.821 0 0)
(-346.945 0 0)
(-348.069 0 0)
(-349.193 0 0)
(-350.317 0 0)
(-351.441 0 0)
(-352.565 0 0)
(-353.689 0 0)
(-354.813 0 0)
(-355.937 0 0)
(-357.061 0 0)
(-358.185 0 0)
(-359.309 0 0)
(-360.433 0 0)
(-361.558 0 0)
(-362.682 0 0)
(-363.806 0 0)
(-364.93 0 0)
(-366.055 0 0)
(-367.178 0 0)
(-368.302 0 0)
(-369.426 0 0)
(-370.55 0 0)
(-371.673 0 0)
(-372.797 0 0)
(-373.921 0 0)
(-375.044 0 0)
(-376.168 0 0)
(-377.292 0 0)
(-378.416 0 0)
(-379.54 0 0)
(-380.664 0 0)
(-381.787 0 0)
(-382.911 0 0)
(-384.035 0 0)
(-385.159 0 0)
(-386.283 0 0)
(-387.407 0 0)
(-388.53 0 0)
(-389.654 0 0)
(-390.778 0 0)
(-391.902 0 0)
(-393.026 0 0)
(-394.149 0 0)
(-395.273 0 0)
(-396.396 0 0)
(-397.52 0 0)
(-398.644 0 0)
(-399.767 0 0)
(-400.891 0 0)
(-402.015 0 0)
(-403.139 0 0)
(-404.262 0 0)
(-405.386 0 0)
(-406.51 0 0)
(-407.634 0 0)
(-408.757 0 0)
(-409.881 0 0)
(-411.004 0 0)
(-412.128 0 0)
(-413.251 0 0)
(-414.375 0 0)
(-415.498 0 0)
(-416.622 0 0)
(-417.745 0 0)
(-418.869 0 0)
(-419.992 0 0)
(-421.116 0 0)
(-422.239 0 0)
(-423.363 0 0)
(-424.486 0 0)
(-425.61 0 0)
(-426.733 0 0)
(-427.856 0 0)
(-428.98 0 0)
(-430.103 0 0)
(-431.227 0 0)
(-432.35 0 0)
(-433.474 0 0)
(-434.597 0 0)
(-435.72 0 0)
(-436.844 0 0)
(-437.967 0 0)
(-439.09 0 0)
(-440.214 0 0)
(-441.337 0 0)
(-442.46 0 0)
(-443.584 0 0)
(-444.707 0 0)
(-445.83 0 0)
(-446.954 0 0)
(-448.077 0 0)
(-449.2 0 0)
(-450.323 0 0)
(-451.446 0 0)
(-452.57 0 0)
(-453.693 0 0)
(-454.816 0 0)
(-455.939 0 0)
(-457.062 0 0)
(-458.186 0 0)
(-459.309 0 0)
(-460.432 0 0)
(-461.555 0 0)
(-462.678 0 0)
(-463.802 0 0)
(-464.925 0 0)
(-466.048 0 0)
(-467.171 0 0)
(-468.294 0 0)
(-469.417 0 0)
(-470.54 0 0)
(-471.663 0 0)
(-472.786 0 0)
(-473.909 0 0)
(-475.032 0 0)
(-476.155 0 0)
(-477.278 0 0)
(-478.401 0 0)
(-479.524 0 0)
(-480.647 0 0)
(-481.77 0 0)
(-482.893 0 0)
(-484.016 0 0)
(-485.139 0 0)
(-486.262 0 0)
(-487.385 0 0)
(-488.508 0 0)
(-489.631 0 0)
(-490.754 0 0)
(-491.876 0 0)
(-492.999 0 0)
(-494.122 0 0)
(-495.245 0 0)
(-496.367 0 0)
(-497.49 0 0)
(-498.613 0 0)
(-499.736 0 0)
(-500.859 0 0)
(-501.982 0 0)
(-503.104 0 0)
(-504.227 0 0)
(-505.35 0 0)
(-506.473 0 0)
(-507.596 0 0)
(-508.719 0 0)
(-509.841 0 0)
(-510.964 0 0)
(-512.087 0 0)
(-513.21 0 0)
(-514.332 0 0)
(-515.455 0 0)
(-516.578 0 0)
(-517.7 0 0)
(-518.823 0 0)
(-519.945 0 0)
(-521.068 0 0)
(-522.19 0 0)
(-523.313 0 0)
(-524.436 0 0)
(-525.558 0 0)
(-526.681 0 0)
(-527.803 0 0)
(-528.926 0 0)
(-530.049 0 0)
(-531.171 0 0)
(-532.293 0 0)
(-533.416 0 0)
(-534.538 0 0)
(-535.66 0 0)
(-536.783 0 0)
(-537.905 0 0)
(-539.027 0 0)
(-540.149 0 0)
(-541.272 0 0)
(-542.394 0 0)
(-543.517 0 0)
(-544.639 0 0)
(-545.762 0 0)
(-546.884 0 0)
(-548.007 0 0)
(-549.129 0 0)
(-550.251 0 0)
(-551.374 0 0)
(-552.496 0 0)
(-553.619 0 0)
(-554.741 0 0)
(-555.863 0 0)
(-556.986 0 0)
(-558.108 0 0)
(-559.23 0 0)
(-560.352 0 0)
(-561.475 0 0)
(-562.597 0 0)
(-563.719 0 0)
(-564.841 0 0)
(-565.963 0 0)
(-567.085 0 0)
(-568.208 0 0)
(-569.33 0 0)
(-570.452 0 0)
(-571.574 0 0)
(-572.696 0 0)
(-573.818 0 0)
(-574.94 0 0)
(-576.062 0 0)
(-577.184 0 0)
(-578.306 0 0)
(-579.428 0 0)
(-580.55 0 0)
(-581.672 0 0)
(-582.793 0 0)
(-583.915 0 0)
(-585.037 0 0)
(-586.159 0 0)
(-587.281 0 0)
(-588.403 0 0)
(-589.525 0 0)
(-590.647 0 0)
(-591.769 0 0)
(-592.891 0 0)
(-594.013 0 0)
(-595.135 0 0)
(-596.257 0 0)
(-597.379 0 0)
(-598.501 0 0)
(-599.623 0 0)
(-600.745 0 0)
(-601.867 0 0)
(-602.989 0 0)
(-604.11 0 0)
(-605.232 0 0)
(-606.354 0 0)
(-607.476 0 0)
(-608.597 0 0)
(-609.719 0 0)
(-610.841 0 0)
(-611.962 0 0)
(-613.084 0 0)
(-614.206 0 0)
(-615.327 0 0)
(-616.449 0 0)
(-617.571 0 0)
(-618.692 0 0)
(-619.814 0 0)
(-620.935 0 0)
(-622.057 0 0)
(-623.178 0 0)
(-624.3 0 0)
(-625.421 0 0)
(-626.542 0 0)
(-627.664 0 0)
(-628.785 0 0)
(-629.907 0 0)
(-631.028 0 0)
(-632.149 0 0)
(-633.271 0 0)
(-634.392 0 0)
(-635.514 0 0)
(-636.635 0 0)
(-637.757 0 0)
(-638.878 0 0)
(-640 0 0)
(-641.122 0 0)
(-642.243 0 0)
(-643.365 0 0)
(-644.486 0 0)
(-645.608 0 0)
(-646.729 0 0)
(-647.85 0 0)
(-648.972 0 0)
(-650.093 0 0)
(-651.214 0 0)
(-652.336 0 0)
(-653.457 0 0)
(-654.578 0 0)
(-655.699 0 0)
(-656.821 0 0)
(-657.942 0 0)
(-659.063 0 0)
(-660.184 0 0)
(-661.305 0 0)
(-662.426 0 0)
(-663.548 0 0)
(-664.669 0 0)
(-665.79 0 0)
(-666.911 0 0)
(-668.032 0 0)
(-669.153 0 0)
(-670.273 0 0)
(-671.394 0 0)
(-672.515 0 0)
(-673.636 0 0)
(-674.757 0 0)
(-675.878 0 0)
(-676.999 0 0)
(-678.12 0 0)
(-679.241 0 0)
(-680.362 0 0)
(-681.483 0 0)
(-682.604 0 0)
(-683.725 0 0)
(-684.846 0 0)
(-685.967 0 0)
(-687.088 0 0)
(-688.209 0 0)
(-689.33 0 0)
(-690.451 0 0)
(-691.572 0 0)
(-692.693 0 0)
(-693.813 0 0)
(-694.934 0 0)
(-696.055 0 0)
(-697.176 0 0)
(-698.297 0 0)
(-699.418 0 0)
(-700.538 0 0)
(-701.659 0 0)
(-702.78 0 0)
(-703.901 0 0)
(-705.021 0 0)
(-706.142 0 0)
(-707.263 0 0)
(-708.383 0 0)
(-709.504 0 0)
(-710.624 0 0)
(-711.745 0 0)
(-712.865 0 0)
(-713.986 0 0)
(-715.106 0 0)
(-716.226 0 0)
(-717.347 0 0)
(-718.467 0 0)
(-719.588 0 0)
(-720.708 0 0)
(-721.829 0 0)
(-722.949 0 0)
(-724.069 0 0)
(-725.19 0 0)
(-726.31 0 0)
(-727.431 0 0)
(-728.551 0 0)
(-729.672 0 0)
(-730.792 0 0)
(-731.912 0 0)
(-733.033 0 0)
(-734.153 0 0)
(-735.274 0 0)
(-736.394 0 0)
(-737.514 0 0)
(-738.635 0 0)
(-739.755 0 0)
(-740.875 0 0)
(-741.996 0 0)
(-743.116 0 0)
(-744.237 0 0)
(-745.357 0 0)
(-746.477 0 0)
(-747.597 0 0)
(-748.718 0 0)
(-749.838 0 0)
(-750.958 0 0)
(-752.078 0 0)
(-753.198 0 0)
(-754.318 0 0)
(-755.438 0 0)
(-756.558 0 0)
(-757.678 0 0)
(-758.798 0 0)
(-759.918 0 0)
(-761.038 0 0)
(-762.158 0 0)
(-763.278 0 0)
(-764.398 0 0)
(-765.517 0 0)
(-766.637 0 0)
(-767.757 0 0)
(-768.877 0 0)
(-769.997 0 0)
(-771.117 0 0)
(-772.237 0 0)
(-773.357 0 0)
(-774.476 0 0)
(-775.596 0 0)
(-776.716 0 0)
(-777.836 0 0)
(-778.956 0 0)
(-780.076 0 0)
(-781.195 0 0)
(-782.315 0 0)
(-783.435 0 0)
(-784.555 0 0)
(-785.674 0 0)
(-786.794 0 0)
(-787.914 0 0)
(-789.034 0 0)
(-790.154 0 0)
(-791.273 0 0)
(-792.393 0 0)
(-793.513 0 0)
(-794.633 0 0)
(-795.752 0 0)
(-796.872 0 0)
(-797.991 0 0)
(-799.111 0 0)
(-800.231 0 0)
(-801.35 0 0)
(-802.469 0 0)
(-803.589 0 0)
(-804.708 0 0)
(-805.828 0 0)
(-806.947 0 0)
(-808.066 0 0)
(-809.186 0 0)
(-810.305 0 0)
(-811.424 0 0)
(-812.544 0 0)
(-813.663 0 0)
(-814.782 0 0)
(-815.902 0 0)
(-817.021 0 0)
(-818.14 0 0)
(-819.259 0 0)
(-820.379 0 0)
(-821.498 0 0)
(-822.617 0 0)
(-823.736 0 0)
(-824.856 0 0)
(-825.975 0 0)
(-827.094 0 0)
(-828.213 0 0)
(-829.332 0 0)
(-830.452 0 0)
(-831.571 0 0)
(-832.69 0 0)
(-833.809 0 0)
(-834.928 0 0)
(-836.047 0 0)
(-837.167 0 0)
(-838.286 0 0)
(-839.405 0 0)
(-840.524 0 0)
(-841.643 0 0)
(-842.762 0 0)
(-843.881 0 0)
(-845 0 0)
(-846.119 0 0)
(-847.238 0 0)
(-848.357 0 0)
(-849.476 0 0)
(-850.595 0 0)
(-851.714 0 0)
(-852.833 0 0)
(-853.951 0 0)
(-855.07 0 0)
(-856.189 0 0)
(-857.307 0 0)
(-858.426 0 0)
(-859.545 0 0)
(-860.664 0 0)
(-861.782 0 0)
(-862.901 0 0)
(-864.02 0 0)
(-865.138 0 0)
(-866.257 0 0)
(-867.376 0 0)
(-868.494 0 0)
(-869.613 0 0)
(-870.732 0 0)
(-871.85 0 0)
(-872.969 0 0)
(-874.087 0 0)
(-875.206 0 0)
(-876.325 0 0)
(-877.443 0 0)
(-878.562 0 0)
(-879.68 0 0)
(-880.799 0 0)
(-881.917 0 0)
(-883.036 0 0)
(-884.154 0 0)
(-885.273 0 0)
(-886.391 0 0)
(-887.509 0 0)
(-888.628 0 0)
(-889.746 0 0)
(-890.865 0 0)
(-891.983 0 0)
(-893.102 0 0)
(-894.22 0 0)
(-895.338 0 0)
(-896.457 0 0)
(-897.575 0 0)
(-898.693 0 0)
(-899.811 0 0)
(-900.93 0 0)
(-902.048 0 0)
(-903.166 0 0)
(-904.284 0 0)
(-905.402 0 0)
(-906.52 0 0)
(-907.638 0 0)
(-908.756 0 0)
(-909.874 0 0)
(-910.992 0 0)
(-912.11 0 0)
(-913.228 0 0)
(-914.346 0 0)
(-915.464 0 0)
(-916.582 0 0)
(-917.7 0 0)
(-918.818 0 0)
(-919.936 0 0)
(-921.054 0 0)
(-922.172 0 0)
(-923.29 0 0)
(-924.408 0 0)
(-925.526 0 0)
(-926.644 0 0)
(-927.762 0 0)
(-928.88 0 0)
(-929.997 0 0)
(-931.115 0 0)
(-932.233 0 0)
(-933.351 0 0)
(-934.468 0 0)
(-935.586 0 0)
(-936.704 0 0)
(-937.822 0 0)
(-938.94 0 0)
(-940.057 0 0)
(-941.175 0 0)
(-942.292 0 0)
(-943.41 0 0)
(-944.528 0 0)
(-945.645 0 0)
(-946.763 0 0)
(-947.881 0 0)
(-948.998 0 0)
(-950.116 0 0)
(-951.233 0 0)
(-952.351 0 0)
(-953.468 0 0)
(-954.585 0 0)
(-955.703 0 0)
(-956.82 0 0)
(-957.938 0 0)
(-959.056 0 0)
(-960.173 0 0)
(-961.29 0 0)
(-962.407 0 0)
(-963.524 0 0)
(-964.642 0 0)
(-965.759 0 0)
(-966.877 0 0)
(-967.994 0 0)
(-969.112 0 0)
(-970.229 0 0)
(-971.346 0 0)
(-972.463 0 0)
(-973.579 0 0)
(-974.697 0 0)
(-975.814 0 0)
(-976.932 0 0)
(-978.049 0 0)
(-979.167 0 0)
(-980.284 0 0)
(-981.401 0 0)
(-982.516 0 0)
(-983.634 0 0)
(-984.75 0 0)
(-985.868 0 0)
(-986.984 0 0)
(-988.105 0 0)
(-989.219 0 0)
(-990.34 0 0)
(-991.45 0 0)
(-992.574 0 0)
(-993.68 0 0)
(-994.809 0 0)
(-995.911 0 0)
(-997.048 0 0)
(-998.144 0 0)
(-999.288 0 0)
(-1000.37 0 0)
(-1001.52 0 0)
(-1002.6 0 0)
(-1003.76 0 0)
(-1004.83 0 0)
(-1006 0 0)
(-1007.06 0 0)
(-1008.23 0 0)
(-1009.31 0 0)
(-1010.45 0 0)
(-1011.55 0 0)
(-1012.66 0 0)
(-1013.79 0 0)
(-1014.91 0 0)
(-1016.02 0 0)
(-1017.14 0 0)
(-1018.26 0 0)
(-1019.37 0 0)
(-1020.49 0 0)
(-1021.6 0 0)
(-1022.72 0 0)
(-1023.84 0 0)
(-1024.95 0 0)
(-1026.07 0 0)
(-1027.19 0 0)
(-1028.3 0 0)
(-1029.43 0 0)
(-1030.52 0 0)
(-1031.68 0 0)
(-1032.73 0 0)
(-1033.94 0 0)
(-1034.94 0 0)
(-1036.19 0 0)
(-1037.16 0 0)
(-1038.43 0 0)
(-1039.39 0 0)
(-1040.64 0 0)
(-1041.66 0 0)
(-1042.83 0 0)
(-1043.95 0 0)
(-1045 0 0)
(-1046.24 0 0)
(-1047.18 0 0)
(-1048.5 0 0)
(-1049.4 0 0)
(-1050.72 0 0)
(-1051.68 0 0)
(-1052.88 0 0)
(-1053.99 0 0)
(-1055.03 0 0)
(-1056.31 0 0)
(-1057.2 0 0)
(-1058.57 0 0)
(-1059.44 0 0)
(-1060.75 0 0)
(-1061.76 0 0)
(-1062.87 0 0)
(-1064.1 0 0)
(-1065.02 0 0)
(-1066.4 0 0)
(-1067.23 0 0)
(-1068.58 0 0)
(-1069.55 0 0)
(-1070.69 0 0)
(-1071.92 0 0)
(-1072.81 0 0)
(-1074.22 0 0)
(-1075.03 0 0)
(-1076.4 0 0)
(-1077.37 0 0)
(-1078.48 0 0)
(-1079.74 0 0)
(-1080.6 0 0)
(-1082.04 0 0)
(-1082.85 0 0)
(-1084.17 0 0)
(-1085.23 0 0)
(-1086.23 0 0)
(-1087.61 0 0)
(-1088.38 0 0)
(-1089.83 0 0)
(-1090.71 0 0)
(-1091.9 0 0)
(-1093.14 0 0)
(-1093.97 0 0)
(-1095.44 0 0)
(-1096.21 0 0)
(-1097.56 0 0)
(-1098.63 0 0)
(-1099.59 0 0)
(-1101.02 0 0)
(-1101.75 0 0)
(-1103.21 0 0)
(-1104.14 0 0)
(-1105.23 0 0)
(-1106.54 0 0)
(-1107.33 0 0)
(-1108.84 0 0)
(-1109.64 0 0)
(-1110.88 0 0)
(-1112.07 0 0)
(-1112.93 0 0)
(-1114.41 0 0)
(-1115.16 0 0)
(-1116.52 0 0)
(-1117.59 0 0)
(-1118.53 0 0)
(-1120 0 0)
(-1120.71 0 0)
(-1122.14 0 0)
(-1123.13 0 0)
(-1124.12 0 0)
(-1125.57 0 0)
(-1126.27 0 0)
(-1127.74 0 0)
(-1128.69 0 0)
(-1129.71 0 0)
(-1131.15 0 0)
(-1131.83 0 0)
(-1133.32 0 0)
(-1134.27 0 0)
(-1135.26 0 0)
(-1136.74 0 0)
(-1137.4 0 0)
(-1138.88 0 0)
(-1139.87 0 0)
(-1140.8 0 0)
(-1142.33 0 0)
(-1142.98 0 0)
(-1144.41 0 0)
(-1145.5 0 0)
(-1146.33 0 0)
(-1147.92 0 0)
(-1148.58 0 0)
(-1149.92 0 0)
(-1151.15 0 0)
(-1151.85 0 0)
(-1153.48 0 0)
(-1154.22 0 0)
(-1155.39 0 0)
(-1156.8 0 0)
(-1157.4 0 0)
(-1159 0 0)
(-1159.9 0 0)
(-1160.85 0 0)
(-1162.43 0 0)
(-1163.01 0 0)
(-1164.46 0 0)
(-1165.6 0 0)
(-1166.35 0 0)
(-1168 0 0)
(-1168.67 0 0)
(-1169.91 0 0)
(-1171.27 0 0)
(-1171.89 0 0)
(-1173.51 0 0)
(-1174.34 0 0)
(-1175.36 0 0)
(-1176.92 0 0)
(-1177.48 0 0)
(-1178.97 0 0)
(-1180.08 0 0)
(-1180.81 0 0)
(-1182.49 0 0)
(-1183.16 0 0)
(-1184.35 0 0)
(-1185.8 0 0)
(-1186.35 0 0)
(-1187.95 0 0)
(-1188.93 0 0)
(-1189.74 0 0)
(-1191.42 0 0)
(-1192.03 0 0)
(-1193.3 0 0)
(-1194.7 0 0)
(-1195.25 0 0)
(-1196.88 0 0)
(-1197.82 0 0)
(-1198.66 0 0)
(-1200.33 0 0)
(-1200.93 0 0)
(-1202.21 0 0)
(-1203.61 0 0)
(-1204.16 0 0)
(-1205.78 0 0)
(-1206.75 0 0)
(-1207.55 0 0)
(-1209.24 0 0)
(-1209.87 0 0)
(-1211.07 0 0)
(-1212.55 0 0)
(-1213.07 0 0)
(-1214.64 0 0)
(-1215.73 0 0)
(-1216.41 0 0)
(-1218.14 0 0)
(-1218.85 0 0)
(-1219.89 0 0)
(-1221.52 0 0)
(-1222.01 0 0)
(-1223.44 0 0)
(-1224.76 0 0)
(-1225.26 0 0)
(-1226.98 0 0)
(-1227.91 0 0)
(-1228.65 0 0)
(-1230.45 0 0)
(-1231.03 0 0)
(-1232.16 0 0)
(-1233.79 0 0)
(-1234.2 0 0)
(-1235.71 0 0)
(-1237.01 0 0)
(-1237.47 0 0)
(-1239.25 0 0)
(-1240.16 0 0)
(-1240.87 0 0)
(-1242.71 0 0)
(-1243.29 0 0)
(-1244.36 0 0)
(-1246.06 0 0)
(-1246.46 0 0)
(-1247.9 0 0)
(-1249.31 0 0)
(-1249.71 0 0)
(-1251.43 0 0)
(-1252.48 0 0)
(-1253.07 0 0)
(-1254.91 0 0)
(-1255.63 0 0)
(-1256.51 0 0)
(-1258.31 0 0)
(-1258.79 0 0)
(-1260.01 0 0)
(-1261.61 0 0)
(-1262.01 0 0)
(-1263.53 0 0)
(-1264.85 0 0)
(-1265.29 0 0)
(-1267.03 0 0)
(-1268.03 0 0)
(-1268.65 0 0)
(-1270.48 0 0)
(-1271.2 0 0)
(-1272.08 0 0)
(-1273.88 0 0)
(-1274.38 0 0)
(-1275.56 0 0)
(-1277.2 0 0)
(-1277.6 0 0)
(-1279.05 0 0)
(-1280.47 0 0)
(-1280.87 0 0)
(-1282.54 0 0)
(-1283.7 0 0)
(-1284.19 0 0)
(-1286 0 0)
(-1286.9 0 0)
(-1287.56 0 0)
(-1289.42 0 0)
(-1290.1 0 0)
(-1290.97 0 0)
(-1292.81 0 0)
(-1293.31 0 0)
(-1294.41 0 0)
(-1296.15 0 0)
(-1296.54 0 0)
(-1297.86 0 0)
(-1299.46 0 0)
(-1299.79 0 0)
(-1301.32 0 0)
(-1302.74 0 0)
(-1303.08 0 0)
(-1304.76 0 0)
(-1306 0 0)
(-1306.39 0 0)
(-1308.19 0 0)
(-1309.24 0 0)
(-1309.74 0 0)
(-1311.61 0 0)
(-1312.49 0 0)
(-1313.1 0 0)
(-1315 0 0)
(-1315.73 0 0)
(-1316.48 0 0)
(-1318.38 0 0)
(-1318.98 0 0)
(-1319.86 0 0)
(-1321.73 0 0)
(-1322.23 0 0)
(-1323.26 0 0)
(-1325.07 0 0)
(-1325.5 0 0)
(-1326.66 0 0)
(-1328.4 0 0)
(-1328.78 0 0)
(-1330.06 0 0)
(-1331.72 0 0)
(-1332.07 0 0)
(-1333.46 0 0)
(-1335.03 0 0)
(-1335.37 0 0)
(-1336.85 0 0)
(-1338.33 0 0)
(-1338.67 0 0)
(-1340.24 0 0)
(-1341.64 0 0)
(-1341.98 0 0)
(-1343.63 0 0)
(-1344.94 0 0)
(-1345.3 0 0)
(-1347 0 0)
(-1348.24 0 0)
(-1348.63 0 0)
(-1350.37 0 0)
(-1351.55 0 0)
(-1351.95 0 0)
(-1353.73 0 0)
(-1354.86 0 0)
(-1355.28 0 0)
(-1357.09 0 0)
(-1358.18 0 0)
(-1358.61 0 0)
(-1360.44 0 0)
(-1361.5 0 0)
(-1361.94 0 0)
(-1363.78 0 0)
(-1364.82 0 0)
(-1365.28 0 0)
(-1367.12 0 0)
(-1368.15 0 0)
(-1368.61 0 0)
(-1370.45 0 0)
(-1371.48 0 0)
(-1371.94 0 0)
(-1373.78 0 0)
(-1374.82 0 0)
(-1375.27 0 0)
(-1377.11 0 0)
(-1378.16 0 0)
(-1378.6 0 0)
(-1380.42 0 0)
(-1381.5 0 0)
(-1381.93 0 0)
(-1383.74 0 0)
(-1384.85 0 0)
(-1385.26 0 0)
(-1387.04 0 0)
(-1388.21 0 0)
(-1388.6 0 0)
(-1390.34 0 0)
(-1391.57 0 0)
(-1391.93 0 0)
(-1393.63 0 0)
(-1394.93 0 0)
(-1395.28 0 0)
(-1396.92 0 0)
(-1398.29 0 0)
(-1398.63 0 0)
(-1400.2 0 0)
(-1401.64 0 0)
(-1401.99 0 0)
(-1403.48 0 0)
(-1405 0 0)
(-1405.35 0 0)
(-1406.75 0 0)
(-1408.35 0 0)
(-1408.72 0 0)
(-1410.03 0 0)
(-1411.69 0 0)
(-1412.1 0 0)
(-1413.3 0 0)
(-1415.02 0 0)
(-1415.49 0 0)
(-1416.57 0 0)
(-1418.34 0 0)
(-1418.88 0 0)
(-1419.84 0 0)
(-1421.66 0 0)
(-1422.29 0 0)
(-1423.11 0 0)
(-1424.96 0 0)
(-1425.7 0 0)
(-1426.4 0 0)
(-1428.24 0 0)
(-1429.12 0 0)
(-1429.7 0 0)
(-1431.5 0 0)
(-1432.54 0 0)
(-1433.02 0 0)
(-1434.73 0 0)
(-1435.95 0 0)
(-1436.36 0 0)
(-1437.96 0 0)
(-1439.35 0 0)
(-1439.73 0 0)
(-1441.18 0 0)
(-1442.72 0 0)
(-1443.13 0 0)
(-1444.4 0 0)
(-1446.07 0 0)
(-1446.56 0 0)
(-1447.62 0 0)
(-1449.38 0 0)
(-1450 0 0)
(-1450.87 0 0)
(-1452.66 0 0)
(-1453.44 0 0)
(-1454.15 0 0)
(-1455.92 0 0)
(-1456.88 0 0)
(-1457.46 0 0)
(-1459.14 0 0)
(-1460.3 0 0)
(-1460.8 0 0)
(-1462.35 0 0)
(-1463.71 0 0)
(-1464.17 0 0)
(-1465.56 0 0)
(-1467.09 0 0)
(-1467.58 0 0)
(-1468.77 0 0)
(-1470.42 0 0)
(-1471.02 0 0)
(-1471.98 0 0)
(-1473.72 0 0)
(-1474.48 0 0)
(-1475.23 0 0)
(-1476.97 0 0)
(-1477.94 0 0)
(-1478.52 0 0)
(-1480.18 0 0)
(-1481.39 0 0)
(-1481.87 0 0)
(-1483.35 0 0)
(-1484.8 0 0)
(-1485.28 0 0)
(-1486.51 0 0)
(-1488.16 0 0)
(-1488.74 0 0)
(-1489.7 0 0)
(-1491.44 0 0)
(-1492.22 0 0)
(-1492.95 0 0)
(-1494.65 0 0)
(-1495.7 0 0)
(-1496.27 0 0)
(-1497.83 0 0)
(-1499.14 0 0)
(-1499.65 0 0)
(-1500.99 0 0)
(-1502.51 0 0)
(-1503.09 0 0)
(-1504.18 0 0)
(-1505.81 0 0)
(-1506.56 0 0)
(-1507.42 0 0)
(-1509.06 0 0)
(-1510.03 0 0)
(-1510.71 0 0)
(-1512.27 0 0)
(-1513.47 0 0)
(-1514.06 0 0)
(-1515.45 0 0)
(-1516.87 0 0)
(-1517.48 0 0)
(-1518.62 0 0)
(-1520.21 0 0)
(-1520.94 0 0)
(-1521.83 0 0)
(-1523.47 0 0)
(-1524.42 0 0)
(-1525.1 0 0)
(-1526.66 0 0)
(-1527.89 0 0)
(-1528.47 0 0)
(-1529.8 0 0)
(-1531.3 0 0)
(-1531.92 0 0)
(-1532.96 0 0)
(-1534.6 0 0)
(-1535.42 0 0)
(-1536.2 0 0)
(-1537.8 0 0)
(-1538.91 0 0)
(-1539.54 0 0)
(-1540.95 0 0)
(-1542.33 0 0)
(-1542.97 0 0)
(-1544.11 0 0)
(-1545.65 0 0)
(-1546.44 0 0)
(-1547.34 0 0)
(-1548.89 0 0)
(-1549.92 0 0)
(-1550.64 0 0)
(-1552.08 0 0)
(-1553.35 0 0)
(-1554.03 0 0)
(-1555.25 0 0)
(-1556.71 0 0)
(-1557.48 0 0)
(-1558.46 0 0)
(-1559.98 0 0)
(-1560.95 0 0)
(-1561.73 0 0)
(-1563.19 0 0)
(-1564.4 0 0)
(-1565.09 0 0)
(-1566.36 0 0)
(-1567.78 0 0)
(-1568.54 0 0)
(-1569.54 0 0)
(-1571.06 0 0)
(-1572.02 0 0)
(-1572.81 0 0)
(-1574.26 0 0)
(-1575.47 0 0)
(-1576.18 0 0)
(-1577.41 0 0)
(-1578.84 0 0)
(-1579.64 0 0)
(-1580.6 0 0)
(-1582.11 0 0)
(-1583.12 0 0)
(-1583.89 0 0)
(-1585.28 0 0)
(-1586.55 0 0)
(-1587.29 0 0)
(-1588.44 0 0)
(-1589.88 0 0)
(-1590.75 0 0)
(-1591.67 0 0)
(-1593.12 0 0)
(-1594.2 0 0)
(-1595 0 0)
(-1596.3 0 0)
(-1597.6 0 0)
(-1598.4 0 0)
(-1599.49 0 0)
(-1600.91 0 0)
(-1601.85 0 0)
(-1602.74 0 0)
(-1604.13 0 0)
(-1605.29 0 0)
(-1606.08 0 0)
(-1607.32 0 0)
(-1608.67 0 0)
(-1609.5 0 0)
(-1610.52 0 0)
(-1611.94 0 0)
(-1612.96 0 0)
(-1613.79 0 0)
(-1615.13 0 0)
(-1616.39 0 0)
(-1617.18 0 0)
(-1618.3 0 0)
(-1619.71 0 0)
(-1620.64 0 0)
(-1621.53 0 0)
(-1622.92 0 0)
(-1624.1 0 0)
(-1624.88 0 0)
(-1626.08 0 0)
(-1627.46 0 0)
(-1628.34 0 0)
(-1629.29 0 0)
(-1630.69 0 0)
(-1631.8 0 0)
(-1632.61 0 0)
(-1633.86 0 0)
(-1635.18 0 0)
(-1636.04 0 0)
(-1637.06 0 0)
(-1638.44 0 0)
(-1639.49 0 0)
(-1640.35 0 0)
(-1641.63 0 0)
(-1642.88 0 0)
(-1643.74 0 0)
(-1644.83 0 0)
(-1646.19 0 0)
(-1647.18 0 0)
(-1648.09 0 0)
(-1649.41 0 0)
(-1650.6 0 0)
(-1651.44 0 0)
(-1652.59 0 0)
(-1653.94 0 0)
(-1654.89 0 0)
(-1655.82 0 0)
(-1657.16 0 0)
(-1658.33 0 0)
(-1659.17 0 0)
(-1660.33 0 0)
(-1661.67 0 0)
(-1662.61 0 0)
(-1663.55 0 0)
(-1664.89 0 0)
(-1666.06 0 0)
(-1666.9 0 0)
(-1668.06 0 0)
(-1669.39 0 0)
(-1670.35 0 0)
(-1671.3 0 0)
(-1672.61 0 0)
(-1673.77 0 0)
(-1674.65 0 0)
(-1675.81 0 0)
(-1677.11 0 0)
(-1678.07 0 0)
(-1679.05 0 0)
(-1680.34 0 0)
(-1681.49 0 0)
(-1682.38 0 0)
(-1683.54 0 0)
(-1684.83 0 0)
(-1685.79 0 0)
(-1686.78 0 0)
(-1688.08 0 0)
(-1689.21 0 0)
(-1690.11 0 0)
(-1691.27 0 0)
(-1692.56 0 0)
(-1693.53 0 0)
(-1694.5 0 0)
(-1695.79 0 0)
(-1696.95 0 0)
(-1697.84 0 0)
(-1698.98 0 0)
(-1700.28 0 0)
(-1701.27 0 0)
(-1702.23 0 0)
(-1703.5 0 0)
(-1704.69 0 0)
(-1705.59 0 0)
(-1706.69 0 0)
(-1707.99 0 0)
(-1709.02 0 0)
(-1709.96 0 0)
(-1711.2 0 0)
(-1712.42 0 0)
(-1713.34 0 0)
(-1714.4 0 0)
(-1715.69 0 0)
(-1716.77 0 0)
(-1717.7 0 0)
(-1718.9 0 0)
(-1720.13 0 0)
(-1721.09 0 0)
(-1722.12 0 0)
(-1723.39 0 0)
(-1724.5 0 0)
(-1725.44 0 0)
(-1726.6 0 0)
(-1727.85 0 0)
(-1728.84 0 0)
(-1729.84 0 0)
(-1731.1 0 0)
(-1732.24 0 0)
(-1733.18 0 0)
(-1734.3 0 0)
(-1735.57 0 0)
(-1736.59 0 0)
(-1737.55 0 0)
(-1738.79 0 0)
(-1739.98 0 0)
(-1740.93 0 0)
(-1741.99 0 0)
(-1743.26 0 0)
(-1744.35 0 0)
(-1745.29 0 0)
(-1746.46 0 0)
(-1747.7 0 0)
(-1748.69 0 0)
(-1749.69 0 0)
(-1750.94 0 0)
(-1752.09 0 0)
(-1753.04 0 0)
(-1754.15 0 0)
(-1755.39 0 0)
(-1756.45 0 0)
(-1757.43 0 0)
(-1758.62 0 0)
(-1759.8 0 0)
(-1760.79 0 0)
(-1761.86 0 0)
(-1763.09 0 0)
(-1764.18 0 0)
(-1765.16 0 0)
(-1766.31 0 0)
(-1767.53 0 0)
(-1768.53 0 0)
(-1769.55 0 0)
(-1770.78 0 0)
(-1771.93 0 0)
(-1772.89 0 0)
(-1773.98 0 0)
(-1775.23 0 0)
(-1776.31 0 0)
(-1777.26 0 0)
(-1778.43 0 0)
(-1779.66 0 0)
(-1780.66 0 0)
(-1781.67 0 0)
(-1782.89 0 0)
(-1784.06 0 0)
(-1785.03 0 0)
(-1786.1 0 0)
(-1787.33 0 0)
(-1788.42 0 0)
(-1789.41 0 0)
(-1790.55 0 0)
(-1791.75 0 0)
(-1792.78 0 0)
(-1793.82 0 0)
(-1795.01 0 0)
(-1796.14 0 0)
(-1797.15 0 0)
(-1798.25 0 0)
(-1799.45 0 0)
(-1800.52 0 0)
(-1801.52 0 0)
(-1802.69 0 0)
(-1803.88 0 0)
(-1804.88 0 0)
(-1805.92 0 0)
(-1807.14 0 0)
(-1808.28 0 0)
(-1809.25 0 0)
(-1810.34 0 0)
(-1811.57 0 0)
(-1812.66 0 0)
(-1813.63 0 0)
(-1814.78 0 0)
(-1815.99 0 0)
(-1817.03 0 0)
(-1818.04 0 0)
(-1819.21 0 0)
(-1820.39 0 0)
(-1821.4 0 0)
(-1822.45 0 0)
(-1823.65 0 0)
(-1824.77 0 0)
(-1825.78 0 0)
(-1826.89 0 0)
(-1828.07 0 0)
(-1829.14 0 0)
(-1830.17 0 0)
(-1831.32 0 0)
(-1832.48 0 0)
(-1833.51 0 0)
(-1834.57 0 0)
(-1835.76 0 0)
(-1836.88 0 0)
(-1837.88 0 0)
(-1838.99 0 0)
(-1840.19 0 0)
(-1841.26 0 0)
(-1842.26 0 0)
(-1843.41 0 0)
(-1844.61 0 0)
(-1845.65 0 0)
(-1846.66 0 0)
(-1847.83 0 0)
(-1849.01 0 0)
(-1850.03 0 0)
(-1851.06 0 0)
(-1852.25 0 0)
(-1853.4 0 0)
(-1854.41 0 0)
(-1855.48 0 0)
(-1856.67 0 0)
(-1857.78 0 0)
(-1858.8 0 0)
(-1859.91 0 0)
(-1861.08 0 0)
(-1862.15 0 0)
(-1863.2 0 0)
(-1864.33 0 0)
(-1865.48 0 0)
(-1866.52 0 0)
(-1867.6 0 0)
(-1868.76 0 0)
(-1869.87 0 0)
(-1870.9 0 0)
(-1872 0 0)
(-1873.18 0 0)
(-1874.27 0 0)
(-1875.28 0 0)
(-1876.41 0 0)
(-1877.59 0 0)
(-1878.66 0 0)
(-1879.67 0 0)
(-1880.82 0 0)
(-1881.99 0 0)
(-1883.04 0 0)
(-1884.07 0 0)
(-1885.23 0 0)
(-1886.39 0 0)
(-1887.43 0 0)
(-1888.48 0 0)
(-1889.64 0 0)
(-1890.77 0 0)
(-1891.81 0 0)
(-1892.89 0 0)
(-1894.05 0 0)
(-1895.15 0 0)
(-1896.2 0 0)
(-1897.3 0 0)
(-1898.46 0 0)
(-1899.53 0 0)
(-1900.58 0 0)
(-1901.72 0 0)
(-1902.86 0 0)
(-1903.91 0 0)
(-1904.97 0 0)
(-1906.13 0 0)
(-1907.26 0 0)
(-1908.3 0 0)
(-1909.36 0 0)
(-1910.53 0 0)
(-1911.66 0 0)
(-1912.69 0 0)
(-1913.76 0 0)
(-1914.93 0 0)
(-1916.05 0 0)
(-1917.08 0 0)
(-1918.16 0 0)
(-1919.33 0 0)
(-1920.43 0 0)
(-1921.47 0 0)
(-1922.57 0 0)
(-1923.72 0 0)
(-1924.81 0 0)
(-1925.86 0 0)
(-1926.98 0 0)
(-1928.12 0 0)
(-1929.19 0 0)
(-1930.25 0 0)
(-1931.39 0 0)
(-1932.52 0 0)
(-1933.57 0 0)
(-1934.64 0 0)
(-1935.79 0 0)
(-1936.91 0 0)
(-1937.96 0 0)
(-1939.03 0 0)
(-1940.19 0 0)
(-1941.31 0 0)
(-1942.34 0 0)
(-1943.42 0 0)
(-1944.58 0 0)
(-1945.7 0 0)
(-1946.74 0 0)
(-1947.82 0 0)
(-1948.97 0 0)
(-1950.08 0 0)
(-1951.13 0 0)
(-1952.22 0 0)
(-1953.36 0 0)
(-1954.46 0 0)
(-1955.52 0 0)
(-1956.62 0 0)
(-1957.76 0 0)
(-1958.84 0 0)
(-1959.9 0 0)
(-1961.02 0 0)
(-1962.16 0 0)
(-1963.23 0 0)
(-1964.29 0 0)
(-1965.42 0 0)
(-1966.55 0 0)
(-1967.61 0 0)
(-1968.67 0 0)
(-1969.81 0 0)
(-1970.94 0 0)
(-1972 0 0)
(-1973.06 0 0)
(-1974.2 0 0)
(-1975.33 0 0)
(-1976.39 0 0)
(-1977.45 0 0)
(-1978.59 0 0)
(-1979.71 0 0)
(-1980.78 0 0)
(-1981.85 0 0)
(-1982.98 0 0)
(-1984.1 0 0)
(-1985.16 0 0)
(-1986.24 0 0)
(-1987.37 0 0)
(-1988.48 0 0)
(-1989.54 0 0)
(-1990.63 0 0)
(-1991.76 0 0)
(-1992.86 0 0)
(-1993.93 0 0)
(-1995.02 0 0)
(-1996.16 0 0)
(-1997.25 0 0)
(-1998.31 0 0)
(-1999.4 0 0)
(-2000.54 0 0)
(-2001.64 0 0)
(-2002.69 0 0)
(-2003.79 0 0)
(-2004.93 0 0)
(-2006.03 0 0)
(-2007.08 0 0)
(-2008.18 0 0)
(-2009.31 0 0)
(-2010.41 0 0)
(-2011.47 0 0)
(-2012.56 0 0)
(-2013.7 0 0)
(-2014.79 0 0)
(-2015.86 0 0)
(-2016.95 0 0)
(-2018.08 0 0)
(-2019.17 0 0)
(-2020.24 0 0)
(-2021.34 0 0)
(-2022.47 0 0)
(-2023.55 0 0)
(-2024.62 0 0)
(-2025.73 0 0)
(-2026.85 0 0)
(-2027.94 0 0)
(-2029 0 0)
(-2030.11 0 0)
(-2031.24 0 0)
(-2032.32 0 0)
(-2033.38 0 0)
(-2034.49 0 0)
(-2035.62 0 0)
(-2036.71 0 0)
(-2037.77 0 0)
(-2038.87 0 0)
(-2040 0 0)
(-2041.09 0 0)
(-2042.15 0 0)
(-2043.25 0 0)
(-2044.38 0 0)
(-2045.47 0 0)
(-2046.54 0 0)
(-2047.64 0 0)
(-2048.76 0 0)
(-2049.85 0 0)
(-2050.92 0 0)
(-2052.02 0 0)
(-2053.14 0 0)
(-2054.23 0 0)
(-2055.3 0 0)
(-2056.4 0 0)
(-2057.52 0 0)
(-2058.61 0 0)
(-2059.68 0 0)
(-2060.78 0 0)
(-2061.9 0 0)
(-2062.99 0 0)
(-2064.06 0 0)
(-2065.16 0 0)
(-2066.28 0 0)
(-2067.37 0 0)
(-2068.44 0 0)
(-2069.53 0 0)
(-2070.66 0 0)
(-2071.75 0 0)
(-2072.82 0 0)
(-2073.91 0 0)
(-2075.03 0 0)
(-2076.13 0 0)
(-2077.2 0 0)
(-2078.29 0 0)
(-2079.41 0 0)
(-2080.51 0 0)
(-2081.58 0 0)
(-2082.67 0 0)
(-2083.79 0 0)
(-2084.88 0 0)
(-2085.96 0 0)
(-2087.05 0 0)
(-2088.16 0 0)
(-2089.26 0 0)
(-2090.33 0 0)
(-2091.42 0 0)
(-2092.54 0 0)
(-2093.64 0 0)
(-2094.71 0 0)
(-2095.8 0 0)
(-2096.91 0 0)
(-2098.02 0 0)
(-2099.09 0 0)
(-2100.17 0 0)
(-2101.28 0 0)
(-2102.4 0 0)
(-2103.48 0 0)
(-2104.55 0 0)
(-2105.65 0 0)
(-2106.77 0 0)
(-2107.85 0 0)
(-2108.93 0 0)
(-2110.03 0 0)
(-2111.14 0 0)
(-2112.22 0 0)
(-2113.31 0 0)
(-2114.41 0 0)
(-2115.51 0 0)
(-2116.6 0 0)
(-2117.68 0 0)
(-2118.78 0 0)
(-2119.89 0 0)
(-2120.97 0 0)
(-2122.05 0 0)
(-2123.15 0 0)
(-2124.26 0 0)
(-2125.35 0 0)
(-2126.42 0 0)
(-2127.51 0 0)
(-2128.63 0 0)
(-2129.73 0 0)
(-2130.8 0 0)
(-2131.88 0 0)
(-2133 0 0)
(-2134.1 0 0)
(-2135.18 0 0)
(-2136.26 0 0)
(-2137.37 0 0)
(-2138.47 0 0)
(-2139.55 0 0)
(-2140.64 0 0)
(-2141.74 0 0)
(-2142.84 0 0)
(-2143.92 0 0)
(-2145.01 0 0)
(-2146.11 0 0)
(-2147.21 0 0)
(-2148.29 0 0)
(-2149.37 0 0)
(-2150.48 0 0)
(-2151.59 0 0)
(-2152.67 0 0)
(-2153.74 0 0)
(-2154.84 0 0)
(-2155.95 0 0)
(-2157.05 0 0)
(-2158.12 0 0)
(-2159.2 0 0)
(-2160.32 0 0)
(-2161.42 0 0)
(-2162.5 0 0)
(-2163.58 0 0)
(-2164.68 0 0)
(-2165.78 0 0)
(-2166.86 0 0)
(-2167.95 0 0)
(-2169.05 0 0)
(-2170.15 0 0)
(-2171.23 0 0)
(-2172.32 0 0)
(-2173.42 0 0)
(-2174.52 0 0)
(-2175.6 0 0)
(-2176.68 0 0)
(-2177.78 0 0)
(-2178.89 0 0)
(-2179.97 0 0)
(-2181.04 0 0)
(-2182.14 0 0)
(-2183.25 0 0)
(-2184.35 0 0)
(-2185.42 0 0)
(-2186.5 0 0)
(-2187.61 0 0)
(-2188.71 0 0)
(-2189.79 0 0)
(-2190.88 0 0)
(-2191.97 0 0)