/*--------------------------------*- C++ -*----------------------------------*\
  =========                 |
  \\      /  F ield         | OpenFOAM: The Open Source CFD Toolbox
   \\    /   O peration     | Website:  https://openfoam.org
    \\  /    A nd           | Version:  9
     \\/     M anipulation  |
\*---------------------------------------------------------------------------*/
FoamFile
{
    format      ascii;
    class       volScalarField;
    location    "0.03";
    object      mag(U);
}
// * * * * * * * * * * * * * * * * * * * * * * * * * * * * * * * * * * * * * //

dimensions      [0 1 -1 0 0 0 0];

internalField   nonuniform List<scalar> 
10000
(
5.4256
5.4795
5.53523
5.58093
5.62316
5.66601
5.70975
5.75371
5.79759
5.84139
5.88517
5.92897
5.97277
6.01657
6.06038
6.10418
6.14798
6.19179
6.23559
6.27939
6.32319
6.367
6.4108
6.45461
6.49841
6.54222
6.58602
6.62982
6.67363
6.71744
6.76125
6.80505
6.84886
6.89266
6.93647
6.98027
7.02408
7.06789
7.1117
7.15551
7.19932
7.24313
7.28694
7.33075
7.37455
7.41836
7.46217
7.50598
7.5498
7.59361
7.63742
7.68124
7.72505
7.76886
7.81267
7.85648
7.90029
7.9441
7.98791
8.03172
8.07553
8.11935
8.16317
8.20698
8.2508
8.29462
8.33844
8.38226
8.42608
8.4699
8.51372
8.55754
8.60136
8.64518
8.689
8.73281
8.77663
8.82045
8.86427
8.90809
8.95191
8.99573
9.03955
9.08337
9.12719
9.171
9.21482
9.25864
9.30246
9.34629
9.39011
9.43393
9.47775
9.52157
9.56539
9.60921
9.65304
9.69686
9.74068
9.78451
9.82833
9.87215
9.91598
9.9598
10.0036
10.0474
10.0913
10.1351
10.1789
10.2228
10.2666
10.3104
10.3542
10.3981
10.4419
10.4857
10.5295
10.5734
10.6172
10.661
10.7049
10.7487
10.7925
10.8363
10.8802
10.924
10.9678
11.0117
11.0555
11.0993
11.1431
11.187
11.2308
11.2746
11.3185
11.3623
11.4061
11.45
11.4938
11.5376
11.5815
11.6253
11.6691
11.713
11.7568
11.8006
11.8445
11.8883
11.9322
11.976
12.0198
12.0637
12.1075
12.1513
12.1952
12.239
12.2828
12.3267
12.3705
12.4144
12.4582
12.502
12.5459
12.5897
12.6336
12.6774
12.7212
12.7651
12.8089
12.8528
12.8966
12.9404
12.9843
13.0281
13.072
13.1158
13.1597
13.2035
13.2473
13.2912
13.335
13.3789
13.4227
13.4666
13.5104
13.5542
13.5981
13.6419
13.6858
13.7296
13.7735
13.8173
13.8612
13.905
13.9489
13.9927
14.0366
14.0804
14.1243
14.1681
14.212
14.2558
14.2996
14.3435
14.3873
14.4312
14.475
14.5189
14.5627
14.6066
14.6505
14.6943
14.7382
14.782
14.8259
14.8697
14.9136
14.9574
15.0013
15.0451
15.089
15.1328
15.1767
15.2205
15.2644
15.3083
15.3521
15.396
15.4398
15.4837
15.5275
15.5714
15.6152
15.6591
15.703
15.7468
15.7907
15.8345
15.8784
15.9222
15.9661
16.01
16.0538
16.0977
16.1415
16.1854
16.2293
16.2731
16.317
16.3608
16.4047
16.4486
16.4924
16.5363
16.5802
16.624
16.6679
16.7117
16.7556
16.7995
16.8433
16.8872
16.9311
16.9749
17.0188
17.0627
17.1065
17.1504
17.1943
17.2381
17.282
17.3259
17.3697
17.4136
17.4575
17.5013
17.5452
17.5891
17.6329
17.6768
17.7207
17.7645
17.8084
17.8523
17.8961
17.94
17.9839
18.0277
18.0716
18.1155
18.1594
18.2032
18.2471
18.291
18.3348
18.3787
18.4226
18.4665
18.5103
18.5542
18.5981
18.642
18.6858
18.7297
18.7736
18.8175
18.8613
18.9052
18.9491
18.993
19.0368
19.0807
19.1246
19.1685
19.2123
19.2562
19.3001
19.344
19.3879
19.4317
19.4756
19.5195
19.5634
19.6073
19.6511
19.695
19.7389
19.7828
19.8267
19.8705
19.9144
19.9583
20.0022
20.0461
20.0899
20.1338
20.1777
20.2216
20.2655
20.3094
20.3532
20.3971
20.441
20.4849
20.5288
20.5727
20.6165
20.6604
20.7043
20.7482
20.7921
20.836
20.8799
20.9237
20.9676
21.0115
21.0554
21.0993
21.1432
21.1871
21.231
21.2749
21.3187
21.3626
21.4065
21.4504
21.4943
21.5382
21.5821
21.626
21.6699
21.7138
21.7576
21.8015
21.8454
21.8893
21.9332
21.9771
22.021
22.0649
22.1088
22.1527
22.1966
22.2405
22.2844
22.3283
22.3722
22.416
22.4599
22.5038
22.5477
22.5916
22.6355
22.6794
22.7233
22.7672
22.8111
22.855
22.8989
22.9428
22.9867
23.0306
23.0745
23.1184
23.1623
23.2062
23.2501
23.294
23.3379
23.3818
23.4257
23.4696
23.5135
23.5574
23.6013
23.6452
23.6891
23.733
23.7769
23.8208
23.8647
23.9086
23.9525
23.9964
24.0403
24.0842
24.1282
24.1721
24.216
24.2599
24.3038
24.3477
24.3916
24.4355
24.4794
24.5233
24.5672
24.6111
24.655
24.6989
24.7428
24.7868
24.8307
24.8746
24.9185
24.9624
25.0063
25.0502
25.0941
25.138
25.1819
25.2259
25.2698
25.3137
25.3576
25.4015
25.4454
25.4893
25.5332
25.5771
25.6211
25.665
25.7089
25.7528
25.7967
25.8406
25.8845
25.9285
25.9724
26.0163
26.0602
26.1041
26.148
26.192
26.2359
26.2798
26.3237
26.3676
26.4115
26.4555
26.4994
26.5433
26.5872
26.6311
26.6751
26.719
26.7629
26.8068
26.8507
26.8946
26.9386
26.9825
27.0264
27.0703
27.1143
27.1582
27.2021
27.246
27.2899
27.3339
27.3778
27.4217
27.4656
27.5096
27.5535
27.5974
27.6413
27.6853
27.7292
27.7731
27.817
27.861
27.9049
27.9488
27.9927
28.0367
28.0806
28.1245
28.1684
28.2124
28.2563
28.3002
28.3442
28.3881
28.432
28.4759
28.5199
28.5638
28.6077
28.6517
28.6956
28.7395
28.7834
28.8274
28.8713
28.9152
28.9592
29.0031
29.047
29.091
29.1349
29.1788
29.2228
29.2667
29.3106
29.3546
29.3985
29.4424
29.4864
29.5303
29.5742
29.6182
29.6621
29.706
29.75
29.7939
29.8379
29.8818
29.9257
29.9697
30.0136
30.0575
30.1015
30.1454
30.1894
30.2333
30.2772
30.3212
30.3651
30.409
30.453
30.4969
30.5409
30.5848
30.6288
30.6727
30.7166
30.7606
30.8045
30.8485
30.8924
30.9363
30.9803
31.0242
31.0682
31.1121
31.1561
31.2
31.2439
31.2879
31.3318
31.3758
31.4197
31.4637
31.5076
31.5516
31.5955
31.6395
31.6834
31.7273
31.7713
31.8152
31.8592
31.9031
31.9471
31.991
32.035
32.0789
32.1229
32.1668
32.2108
32.2547
32.2987
32.3426
32.3866
32.4305
32.4745
32.5184
32.5624
32.6063
32.6503
32.6942
32.7382
32.7821
32.8261
32.87
32.914
32.958
33.0019
33.0459
33.0898
33.1338
33.1777
33.2217
33.2656
33.3096
33.3535
33.3975
33.4415
33.4854
33.5294
33.5733
33.6173
33.6612
33.7052
33.7492
33.7931
33.8371
33.881
33.925
33.969
34.0129
34.0569
34.1008
34.1448
34.1888
34.2327
34.2767
34.3206
34.3646
34.4086
34.4525
34.4965
34.5404
34.5844
34.6284
34.6723
34.7163
34.7603
34.8042
34.8482
34.8921
34.9361
34.9801
35.024
35.068
35.112
35.1559
35.1999
35.2439
35.2878
35.3318
35.3758
35.4197
35.4637
35.5077
35.5516
35.5956
35.6396
35.6835
35.7275
35.7715
35.8154
35.8594
35.9034
35.9474
35.9913
36.0353
36.0793
36.1232
36.1672
36.2112
36.2551
36.2991
36.3431
36.3871
36.431
36.475
36.519
36.563
36.6069
36.6509
36.6949
36.7388
36.7828
36.8268
36.8708
36.9147
36.9587
37.0027
37.0467
37.0906
37.1346
37.1786
37.2226
37.2666
37.3105
37.3545
37.3985
37.4425
37.4864
37.5304
37.5744
37.6184
37.6624
37.7063
37.7503
37.7943
37.8383
37.8823
37.9262
37.9702
38.0142
38.0582
38.1022
38.1461
38.1901
38.2341
38.2781
38.3221
38.3661
38.41
38.454
38.498
38.542
38.586
38.63
38.6739
38.7179
38.7619
38.8059
38.8499
38.8939
38.9379
38.9818
39.0258
39.0698
39.1138
39.1578
39.2018
39.2458
39.2897
39.3337
39.3777
39.4217
39.4657
39.5097
39.5537
39.5977
39.6417
39.6856
39.7296
39.7736
39.8176
39.8616
39.9056
39.9496
39.9936
40.0376
40.0816
40.1256
40.1695
40.2135
40.2575
40.3015
40.3455
40.3895
40.4335
40.4775
40.5215
40.5655
40.6095
40.6535
40.6975
40.7415
40.7855
40.8295
40.8735
40.9175
40.9615
41.0055
41.0494
41.0934
41.1374
41.1814
41.2254
41.2694
41.3134
41.3574
41.4014
41.4454
41.4894
41.5334
41.5774
41.6214
41.6654
41.7094
41.7534
41.7974
41.8414
41.8854
41.9294
41.9734
42.0174
42.0614
42.1054
42.1495
42.1935
42.2375
42.2815
42.3255
42.3695
42.4135
42.4575
42.5015
42.5455
42.5895
42.6335
42.6775
42.7215
42.7655
42.8095
42.8535
42.8975
42.9415
42.9856
43.0296
43.0736
43.1176
43.1616
43.2056
43.2496
43.2936
43.3376
43.3816
43.4256
43.4697
43.5137
43.5577
43.6017
43.6457
43.6897
43.7337
43.7777
43.8217
43.8658
43.9098
43.9538
43.9978
44.0418
44.0858
44.1298
44.1738
44.2179
44.2619
44.3059
44.3499
44.3939
44.4379
44.4819
44.526
44.57
44.614
44.658
44.702
44.746
44.7901
44.8341
44.8781
44.9221
44.9661
45.0101
45.0542
45.0982
45.1422
45.1862
45.2302
45.2743
45.3183
45.3623
45.4063
45.4503
45.4944
45.5384
45.5824
45.6264
45.6704
45.7145
45.7585
45.8025
45.8465
45.8906
45.9346
45.9786
46.0226
46.0667
46.1107
46.1547
46.1987
46.2427
46.2868
46.3308
46.3748
46.4188
46.4629
46.5069
46.5509
46.595
46.639
46.683
46.727
46.7711
46.8151
46.8591
46.9031
46.9472
46.9912
47.0352
47.0793
47.1233
47.1673
47.2113
47.2554
47.2994
47.3434
47.3875
47.4315
47.4755
47.5196
47.5636
47.6076
47.6517
47.6957
47.7397
47.7838
47.8278
47.8718
47.9159
47.9599
48.0039
48.048
48.092
48.136
48.1801
48.2241
48.2681
48.3122
48.3562
48.4002
48.4443
48.4883
48.5323
48.5764
48.6204
48.6645
48.7085
48.7525
48.7966
48.8406
48.8846
48.9287
48.9727
49.0168
49.0608
49.1048
49.1489
49.1929
49.237
49.281
49.325
49.3691
49.4131
49.4572
49.5012
49.5453
49.5893
49.6333
49.6774
49.7214
49.7655
49.8095
49.8536
49.8976
49.9416
49.9857
50.0297
50.0738
50.1178
50.1619
50.2059
50.25
50.294
50.338
50.3821
50.4261
50.4702
50.5142
50.5583
50.6023
50.6464
50.6904
50.7345
50.7785
50.8226
50.8666
50.9107
50.9547
50.9988
51.0428
51.0869
51.1309
51.175
51.219
51.2631
51.3071
51.3512
51.3952
51.4393
51.4833
51.5274
51.5714
51.6155
51.6595
51.7036
51.7476
51.7917
51.8358
51.8798
51.9239
51.9679
52.012
52.056
52.1001
52.1441
52.1882
52.2322
52.2763
52.3204
52.3644
52.4085
52.4525
52.4966
52.5406
52.5847
52.6288
52.6728
52.7169
52.7609
52.805
52.8491
52.8931
52.9372
52.9812
53.0253
53.0694
53.1134
53.1575
53.2015
53.2456
53.2897
53.3337
53.3778
53.4218
53.4659
53.51
53.554
53.5981
53.6422
53.6862
53.7303
53.7743
53.8184
53.8625
53.9065
53.9506
53.9947
54.0387
54.0828
54.1269
54.1709
54.215
54.2591
54.3031
54.3472
54.3913
54.4353
54.4794
54.5235
54.5675
54.6116
54.6557
54.6997
54.7438
54.7879
54.8319
54.876
54.9201
54.9642
55.0082
55.0523
55.0964
55.1404
55.1845
55.2286
55.2727
55.3167
55.3608
55.4049
55.4489
55.493
55.5371
55.5812
55.6252
55.6693
55.7134
55.7575
55.8015
55.8456
55.8897
55.9338
55.9778
56.0219
56.066
56.1101
56.1541
56.1982
56.2423
56.2864
56.3304
56.3745
56.4186
56.4627
56.5067
56.5508
56.5949
56.639
56.6831
56.7271
56.7712
56.8153
56.8594
56.9035
56.9475
56.9916
57.0357
57.0798
57.1239
57.1679
57.212
57.2561
57.3002
57.3443
57.3884
57.4324
57.4765
57.5206
57.5647
57.6088
57.6528
57.6969
57.741
57.7851
57.8292
57.8733
57.9174
57.9614
58.0055
58.0496
58.0937
58.1378
58.1819
58.226
58.27
58.3141
58.3582
58.4023
58.4464
58.4905
58.5346
58.5787
58.6227
58.6668
58.7109
58.755
58.7991
58.8432
58.8873
58.9314
58.9755
59.0196
59.0636
59.1077
59.1518
59.1959
59.24
59.2841
59.3282
59.3723
59.4164
59.4605
59.5046
59.5487
59.5928
59.6368
59.6809
59.725
59.7691
59.8132
59.8573
59.9014
59.9455
59.9896
60.0337
60.0778
60.1219
60.166
60.2101
60.2542
60.2983
60.3424
60.3865
60.4306
60.4747
60.5188
60.5629
60.607
60.6511
60.6952
60.7393
60.7834
60.8275
60.8716
60.9157
60.9598
61.0039
61.048
61.0921
61.1362
61.1803
61.2244
61.2685
61.3126
61.3567
61.4008
61.4449
61.489
61.5331
61.5772
61.6213
61.6654
61.7095
61.7536
61.7977
61.8418
61.8859
61.93
61.9741
62.0182
62.0624
62.1065
62.1506
62.1947
62.2388
62.2829
62.327
62.3711
62.4152
62.4593
62.5034
62.5475
62.5916
62.6358
62.6799
62.724
62.7681
62.8122
62.8563
62.9004
62.9445
62.9886
63.0327
63.0769
63.121
63.1651
63.2092
63.2533
63.2974
63.3415
63.3856
63.4297
63.4739
63.518
63.5621
63.6062
63.6503
63.6944
63.7385
63.7827
63.8268
63.8709
63.915
63.9591
64.0032
64.0474
64.0915
64.1356
64.1797
64.2238
64.2679
64.3121
64.3562
64.4003
64.4444
64.4885
64.5326
64.5768
64.6209
64.665
64.7091
64.7532
64.7974
64.8415
64.8856
64.9297
64.9738
65.018
65.0621
65.1062
65.1503
65.1944
65.2386
65.2827
65.3268
65.3709
65.4151
65.4592
65.5033
65.5474
65.5915
65.6357
65.6798
65.7239
65.768
65.8122
65.8563
65.9004
65.9445
65.9887
66.0328
66.0769
66.121
66.1652
66.2093
66.2534
66.2976
66.3417
66.3858
66.4299
66.4741
66.5182
66.5623
66.6064
66.6506
66.6947
66.7388
66.783
66.8271
66.8712
66.9154
66.9595
67.0036
67.0477
67.0919
67.136
67.1801
67.2243
67.2684
67.3125
67.3567
67.4008
67.4449
67.4891
67.5332
67.5773
67.6215
67.6656
67.7097
67.7539
67.798
67.8421
67.8863
67.9304
67.9745
68.0187
68.0628
68.107
68.1511
68.1952
68.2394
68.2835
68.3276
68.3718
68.4159
68.4601
68.5042
68.5483
68.5925
68.6366
68.6807
68.7249
68.769
68.8132
68.8573
68.9014
68.9456
68.9897
69.0339
69.078
69.1221
69.1663
69.2104
69.2546
69.2987
69.3429
69.387
69.4311
69.4753
69.5194
69.5636
69.6077
69.6519
69.696
69.7401
69.7843
69.8284
69.8726
69.9167
69.9609
70.005
70.0492
70.0933
70.1375
70.1816
70.2257
70.2699
70.314
70.3582
70.4023
70.4465
70.4906
70.5348
70.5789
70.6231
70.6672
70.7114
70.7555
70.7997
70.8438
70.888
70.9321
70.9763
71.0204
71.0646
71.1087
71.1529
71.197
71.2412
71.2853
71.3295
71.3736
71.4178
71.4619
71.5061
71.5502
71.5944
71.6385
71.6827
71.7269
71.771
71.8152
71.8593
71.9035
71.9476
71.9918
72.0359
72.0801
72.1243
72.1684
72.2126
72.2567
72.3009
72.345
72.3892
72.4333
72.4775
72.5217
72.5658
72.61
72.6541
72.6983
72.7425
72.7866
72.8308
72.8749
72.9191
72.9633
73.0074
73.0516
73.0957
73.1399
73.1841
73.2282
73.2724
73.3165
73.3607
73.4049
73.449
73.4932
73.5373
73.5815
73.6257
73.6698
73.714
73.7582
73.8023
73.8465
73.8907
73.9348
73.979
74.0232
74.0673
74.1115
74.1556
74.1998
74.244
74.2881
74.3323
74.3765
74.4206
74.4648
74.509
74.5531
74.5973
74.6415
74.6857
74.7298
74.774
74.8182
74.8623
74.9065
74.9507
74.9948
75.039
75.0832
75.1273
75.1715
75.2157
75.2599
75.304
75.3482
75.3924
75.4365
75.4807
75.5249
75.5691
75.6132
75.6574
75.7016
75.7458
75.7899
75.8341
75.8783
75.9224
75.9666
76.0108
76.055
76.0991
76.1433
76.1875
76.2317
76.2758
76.32
76.3642
76.4084
76.4526
76.4967
76.5409
76.5851
76.6293
76.6734
76.7176
76.7618
76.806
76.8501
76.8943
76.9385
76.9827
77.0269
77.071
77.1152
77.1594
77.2036
77.2478
77.2919
77.3361
77.3803
77.4245
77.4687
77.5129
77.557
77.6012
77.6454
77.6896
77.7338
77.7779
77.8221
77.8663
77.9105
77.9547
77.9989
78.043
78.0872
78.1314
78.1756
78.2198
78.264
78.3082
78.3523
78.3965
78.4407
78.4849
78.5291
78.5733
78.6175
78.6616
78.7058
78.75
78.7942
78.8384
78.8826
78.9268
78.971
79.0152
79.0593
79.1035
79.1477
79.1919
79.2361
79.2803
79.3245
79.3687
79.4129
79.4571
79.5012
79.5454
79.5896
79.6338
79.678
79.7222
79.7664
79.8106
79.8548
79.899
79.9432
79.9874
80.0316
80.0757
80.1199
80.1641
80.2083
80.2525
80.2967
80.3409
80.3851
80.4293
80.4735
80.5177
80.5619
80.6061
80.6503
80.6945
80.7387
80.7829
80.8271
80.8713
80.9155
80.9597
81.0039
81.0481
81.0923
81.1365
81.1807
81.2249
81.2691
81.3133
81.3575
81.4017
81.4459
81.4901
81.5343
81.5785
81.6227
81.6669
81.7111
81.7553
81.7995
81.8437
81.8879
81.9321
81.9763
82.0205
82.0647
82.1089
82.1531
82.1973
82.2415
82.2857
82.3299
82.3741
82.4183
82.4625
82.5067
82.5509
82.5951
82.6393
82.6835
82.7277
82.772
82.8162
82.8604
82.9046
82.9488
82.993
83.0372
83.0814
83.1256
83.1698
83.214
83.2582
83.3024
83.3467
83.3909
83.4351
83.4793
83.5235
83.5677
83.6119
83.6561
83.7003
83.7445
83.7888
83.833
83.8772
83.9214
83.9656
84.0098
84.054
84.0982
84.1424
84.1867
84.2309
84.2751
84.3193
84.3635
84.4077
84.4519
84.4962
84.5404
84.5846
84.6288
84.673
84.7172
84.7614
84.8057
84.8499
84.8941
84.9383
84.9825
85.0267
85.071
85.1152
85.1594
85.2036
85.2478
85.292
85.3363
85.3805
85.4247
85.4689
85.5131
85.5574
85.6016
85.6458
85.69
85.7342
85.7785
85.8227
85.8669
85.9111
85.9553
85.9996
86.0438
86.088
86.1322
86.1764
86.2207
86.2649
86.3091
86.3533
86.3976
86.4418
86.486
86.5302
86.5745
86.6187
86.6629
86.7071
86.7513
86.7956
86.8398
86.884
86.9282
86.9725
87.0167
87.0609
87.1052
87.1494
87.1936
87.2378
87.2821
87.3263
87.3705
87.4147
87.459
87.5032
87.5474
87.5916
87.6359
87.6801
87.7243
87.7686
87.8128
87.857
87.9013
87.9455
87.9897
88.0339
88.0782
88.1224
88.1666
88.2109
88.2551
88.2993
88.3436
88.3878
88.432
88.4763
88.5205
88.5647
88.609
88.6532
88.6974
88.7417
88.7859
88.8301
88.8744
88.9186
88.9628
89.0071
89.0513
89.0955
89.1398
89.184
89.2282
89.2725
89.3167
89.3609
89.4052
89.4494
89.4937
89.5379
89.5821
89.6264
89.6706
89.7148
89.7591
89.8033
89.8476
89.8918
89.936
89.9803
90.0245
90.0687
90.113
90.1572
90.2015
90.2457
90.2899
90.3342
90.3784
90.4227
90.4669
90.5111
90.5554
90.5996
90.6439
90.6881
90.7324
90.7766
90.8208
90.8651
90.9093
90.9536
90.9978
91.0421
91.0863
91.1305
91.1748
91.219
91.2633
91.3075
91.3518
91.396
91.4403
91.4845
91.5287
91.573
91.6172
91.6615
91.7057
91.75
91.7942
91.8385
91.8827
91.927
91.9712
92.0155
92.0597
92.104
92.1482
92.1925
92.2367
92.281
92.3252
92.3695
92.4137
92.458
92.5022
92.5465
92.5907
92.635
92.6792
92.7235
92.7677
92.812
92.8562
92.9005
92.9447
92.989
93.0332
93.0775
93.1217
93.166
93.2102
93.2545
93.2987
93.343
93.3872
93.4315
93.4757
93.52
93.5643
93.6085
93.6528
93.697
93.7413
93.7855
93.8298
93.874
93.9183
93.9626
94.0068
94.0511
94.0953
94.1396
94.1838
94.2281
94.2724
94.3166
94.3609
94.4051
94.4494
94.4936
94.5379
94.5822
94.6264
94.6707
94.7149
94.7592
94.8035
94.8477
94.892
94.9362
94.9805
95.0248
95.069
95.1133
95.1575
95.2018
95.2461
95.2903
95.3346
95.3789
95.4231
95.4674
95.5116
95.5559
95.6002
95.6444
95.6887
95.733
95.7772
95.8215
95.8657
95.91
95.9543
95.9985
96.0428
96.0871
96.1313
96.1756
96.2199
96.2641
96.3084
96.3527
96.3969
96.4412
96.4855
96.5297
96.574
96.6183
96.6625
96.7068
96.7511
96.7953
96.8396
96.8839
96.9281
96.9724
97.0167
97.0609
97.1052
97.1495
97.1938
97.238
97.2823
97.3266
97.3708
97.4151
97.4594
97.5037
97.5479
97.5922
97.6365
97.6807
97.725
97.7693
97.8136
97.8578
97.9021
97.9464
97.9906
98.0349
98.0792
98.1235
98.1677
98.212
98.2563
98.3006
98.3448
98.3891
98.4334
98.4777
98.5219
98.5662
98.6105
98.6548
98.699
98.7433
98.7876
98.8319
98.8761
98.9204
98.9647
99.009
99.0532
99.0975
99.1418
99.1861
99.2304
99.2746
99.3189
99.3632
99.4075
99.4518
99.496
99.5403
99.5846
99.6289
99.6732
99.7174
99.7617
99.806
99.8503
99.8946
99.9388
99.9831
100.027
100.072
100.116
100.16
100.205
100.249
100.293
100.337
100.382
100.426
100.47
100.515
100.559
100.603
100.647
100.692
100.736
100.78
100.824
100.869
100.913
100.957
101.002
101.046
101.09
101.134
101.179
101.223
101.267
101.312
101.356
101.4
101.444
101.489
101.533
101.577
101.622
101.666
101.71
101.754
101.799
101.843
101.887
101.932
101.976
102.02
102.065
102.109
102.153
102.197
102.242
102.286
102.33
102.375
102.419
102.463
102.507
102.552
102.596
102.64
102.685
102.729
102.773
102.817
102.862
102.906
102.95
102.995
103.039
103.083
103.128
103.172
103.216
103.26
103.305
103.349
103.393
103.438
103.482
103.526
103.57
103.615
103.659
103.703
103.748
103.792
103.836
103.881
103.925
103.969
104.013
104.058
104.102
104.146
104.191
104.235
104.279
104.323
104.368
104.412
104.456
104.501
104.545
104.589
104.634
104.678
104.722
104.766
104.811
104.855
104.899
104.944
104.988
105.032
105.077
105.121
105.165
105.209
105.254
105.298
105.342
105.387
105.431
105.475
105.52
105.564
105.608
105.653
105.697
105.741
105.785
105.83
105.874
105.918
105.963
106.007
106.051
106.096
106.14
106.184
106.228
106.273
106.317
106.361
106.406
106.45
106.494
106.539
106.583
106.627
106.672
106.716
106.76
106.804
106.849
106.893
106.937
106.982
107.026
107.07
107.115
107.159
107.203
107.248
107.292
107.336
107.38
107.425
107.469
107.513
107.558
107.602
107.646
107.691
107.735
107.779
107.824
107.868
107.912
107.956
108.001
108.045
108.089
108.134
108.178
108.222
108.267
108.311
108.355
108.4
108.444
108.488
108.533
108.577
108.621
108.665
108.71
108.754
108.798
108.843
108.887
108.931
108.976
109.02
109.064
109.109
109.153
109.197
109.242
109.286
109.33
109.375
109.419
109.463
109.507
109.552
109.596
109.64
109.685
109.729
109.773
109.818
109.862
109.906
109.951
109.995
110.039
110.084
110.128
110.172
110.217
110.261
110.305
110.349
110.394
110.438
110.482
110.527
110.571
110.615
110.66
110.704
110.748
110.793
110.837
110.881
110.926
110.97
111.014
111.059
111.103
111.147
111.192
111.236
111.28
111.325
111.369
111.413
111.458
111.502
111.546
111.59
111.635
111.679
111.723
111.768
111.812
111.856
111.901
111.945
111.989
112.034
112.078
112.122
112.167
112.211
112.255
112.3
112.344
112.388
112.433
112.477
112.521
112.566
112.61
112.654
112.699
112.743
112.787
112.832
112.876
112.92
112.965
113.009
113.053
113.098
113.142
113.186
113.231
113.275
113.319
113.364
113.408
113.452
113.497
113.541
113.585
113.63
113.674
113.718
113.762
113.807
113.851
113.895
113.94
113.984
114.028
114.073
114.117
114.161
114.206
114.25
114.294
114.339
114.383
114.427
114.472
114.516
114.56
114.605
114.649
114.693
114.738
114.782
114.826
114.871
114.915
114.959
115.004
115.048
115.092
115.137
115.181
115.225
115.27
115.314
115.358
115.403
115.447
115.491
115.536
115.58
115.624
115.669
115.713
115.757
115.802
115.846
115.89
115.935
115.979
116.023
116.068
116.112
116.156
116.201
116.245
116.29
116.334
116.378
116.423
116.467
116.511
116.556
116.6
116.644
116.689
116.733
116.777
116.822
116.866
116.91
116.955
116.999
117.043
117.088
117.132
117.176
117.221
117.265
117.309
117.354
117.398
117.442
117.487
117.531
117.575
117.62
117.664
117.708
117.753
117.797
117.841
117.886
117.93
117.974
118.019
118.063
118.107
118.152
118.196
118.24
118.285
118.329
118.373
118.418
118.462
118.506
118.551
118.595
118.64
118.684
118.728
118.773
118.817
118.861
118.906
118.95
118.994
119.039
119.083
119.127
119.172
119.216
119.26
119.305
119.349
119.393
119.438
119.482
119.526
119.571
119.615
119.659
119.704
119.748
119.792
119.837
119.881
119.926
119.97
120.014
120.059
120.103
120.147
120.192
120.236
120.28
120.325
120.369
120.413
120.458
120.502
120.546
120.591
120.635
120.679
120.724
120.768
120.812
120.857
120.901
120.945
120.99
121.034
121.079
121.123
121.167
121.212
121.256
121.3
121.345
121.389
121.433
121.478
121.522
121.566
121.611
121.655
121.699
121.744
121.788
121.832
121.877
121.921
121.965
122.01
122.054
122.099
122.143
122.187
122.232
122.276
122.32
122.365
122.409
122.453
122.498
122.542
122.586
122.631
122.675
122.719
122.764
122.808
122.853
122.897
122.941
122.986
123.03
123.074
123.119
123.163
123.207
123.252
123.296
123.34
123.385
123.429
123.473
123.518
123.562
123.606
123.651
123.695
123.74
123.784
123.828
123.873
123.917
123.961
124.006
124.05
124.094
124.139
124.183
124.227
124.272
124.316
124.36
124.405
124.449
124.494
124.538
124.582
124.627
124.671
124.715
124.76
124.804
124.848
124.893
124.937
124.981
125.026
125.07
125.114
125.159
125.203
125.248
125.292
125.336
125.381
125.425
125.469
125.514
125.558
125.602
125.647
125.691
125.735
125.78
125.824
125.869
125.913
125.957
126.002
126.046
126.09
126.135
126.179
126.223
126.268
126.312
126.356
126.401
126.445
126.489
126.534
126.578
126.623
126.667
126.711
126.756
126.8
126.844
126.889
126.933
126.977
127.022
127.066
127.11
127.155
127.199
127.244
127.288
127.332
127.377
127.421
127.465
127.51
127.554
127.598
127.643
127.687
127.731
127.776
127.82
127.865
127.909
127.953
127.998
128.042
128.086
128.131
128.175
128.219
128.264
128.308
128.352
128.397
128.441
128.486
128.53
128.574
128.619
128.663
128.707
128.752
128.796
128.84
128.885
128.929
128.973
129.018
129.062
129.106
129.151
129.195
129.24
129.284
129.328
129.373
129.417
129.461
129.506
129.55
129.594
129.639
129.683
129.727
129.772
129.816
129.861
129.905
129.949
129.994
130.038
130.082
130.127
130.171
130.215
130.26
130.304
130.348
130.393
130.437
130.482
130.526
130.57
130.615
130.659
130.703
130.748
130.792
130.836
130.881
130.925
130.969
131.014
131.058
131.103
131.147
131.191
131.236
131.28
131.324
131.369
131.413
131.457
131.502
131.546
131.59
131.635
131.679
131.723
131.768
131.812
131.857
131.901
131.945
131.99
132.034
132.078
132.123
132.167
132.211
132.256
132.3
132.344
132.389
132.433
132.478
132.522
132.566
132.611
132.655
132.699
132.744
132.788
132.832
132.877
132.921
132.965
133.01
133.054
133.098
133.143
133.187
133.232
133.276
133.32
133.365
133.409
133.453
133.498
133.542
133.586
133.631
133.675
133.719
133.764
133.808
133.852
133.897
133.941
133.986
134.03
134.074
134.119
134.163
134.207
134.252
134.296
134.34
134.385
134.429
134.473
134.518
134.562
134.606
134.651
134.695
134.739
134.784
134.828
134.873
134.917
134.961
135.006
135.05
135.094
135.139
135.183
135.227
135.272
135.316
135.36
135.405
135.449
135.493
135.538
135.582
135.626
135.671
135.715
135.76
135.804
135.848
135.893
135.937
135.981
136.026
136.07
136.114
136.159
136.203
136.247
136.292
136.336
136.38
136.425
136.469
136.513
136.558
136.602
136.646
136.691
136.735
136.779
136.824
136.868
136.912
136.957
137.001
137.046
137.09
137.134
137.179
137.223
137.267
137.312
137.356
137.4
137.445
137.489
137.533
137.578
137.622
137.666
137.711
137.755
137.799
137.844
137.888
137.932
137.977
138.021
138.065
138.11
138.154
138.198
138.243
138.287
138.331
138.376
138.42
138.464
138.509
138.553
138.597
138.642
138.686
138.73
138.775
138.819
138.863
138.908
138.952
138.996
139.041
139.085
139.129
139.174
139.218
139.262
139.307
139.351
139.395
139.44
139.484
139.528
139.573
139.617
139.661
139.706
139.75
139.794
139.839
139.883
139.927
139.972
140.016
140.06
140.105
140.149
140.193
140.238
140.282
140.326
140.371
140.415
140.459
140.504
140.548
140.592
140.637
140.681
140.725
140.77
140.814
140.858
140.903
140.947
140.991
141.036
141.08
141.124
141.168
141.213
141.257
141.301
141.346
141.39
141.434
141.479
141.523
141.567
141.612
141.656
141.7
141.745
141.789
141.833
141.878
141.922
141.966
142.011
142.055
142.099
142.143
142.188
142.232
142.276
142.321
142.365
142.409
142.454
142.498
142.542
142.587
142.631
142.675
142.72
142.764
142.808
142.852
142.897
142.941
142.985
143.03
143.074
143.118
143.163
143.207
143.251
143.296
143.34
143.384
143.428
143.473
143.517
143.561
143.606
143.65
143.694
143.739
143.783
143.827
143.871
143.916
143.96
144.004
144.049
144.093
144.137
144.182
144.226
144.27
144.314
144.359
144.403
144.447
144.492
144.536
144.58
144.624
144.669
144.713
144.757
144.802
144.846
144.89
144.934
144.979
145.023
145.067
145.112
145.156
145.2
145.244
145.289
145.333
145.377
145.422
145.466
145.51
145.554
145.599
145.643
145.687
145.732
145.776
145.82
145.864
145.909
145.953
145.997
146.041
146.086
146.13
146.174
146.219
146.263
146.307
146.351
146.396
146.44
146.484
146.528
146.573
146.617
146.661
146.705
146.75
146.794
146.838
146.883
146.927
146.971
147.015
147.06
147.104
147.148
147.192
147.237
147.281
147.325
147.369
147.414
147.458
147.502
147.546
147.591
147.635
147.679
147.723
147.768
147.812
147.856
147.9
147.945
147.989
148.033
148.077
148.122
148.166
148.21
148.254
148.299
148.343
148.387
148.431
148.476
148.52
148.564
148.608
148.652
148.697
148.741
148.785
148.829
148.874
148.918
148.962
149.006
149.051
149.095
149.139
149.183
149.227
149.272
149.316
149.36
149.404
149.448
149.493
149.537
149.581
149.625
149.67
149.714
149.758
149.802
149.846
149.891
149.935
149.979
150.023
150.067
150.112
150.156
150.2
150.244
150.288
150.333
150.377
150.421
150.465
150.509
150.554
150.598
150.642
150.686
150.73
150.775
150.819
150.863
150.907
150.951
150.996
151.04
151.084
151.128
151.172
151.216
151.261
151.305
151.349
151.393
151.437
151.481
151.526
151.57
151.614
151.658
151.702
151.746
151.791
151.835
151.879
151.923
151.967
152.011
152.056
152.1
152.144
152.188
152.232
152.276
152.321
152.365
152.409
152.453
152.497
152.541
152.585
152.63
152.674
152.718
152.762
152.806
152.85
152.894
152.938
152.983
153.027
153.071
153.115
153.159
153.203
153.247
153.291
153.336
153.38
153.424
153.468
153.512
153.556
153.6
153.644
153.689
153.733
153.777
153.821
153.865
153.909
153.953
153.997
154.041
154.085
154.13
154.174
154.218
154.262
154.306
154.35
154.394
154.438
154.482
154.526
154.57
154.614
154.658
154.703
154.747
154.791
154.835
154.879
154.923
154.967
155.011
155.055
155.099
155.143
155.187
155.231
155.275
155.319
155.363
155.407
155.452
155.496
155.54
155.584
155.628
155.672
155.716
155.76
155.804
155.848
155.892
155.936
155.98
156.024
156.068
156.112
156.156
156.2
156.244
156.288
156.332
156.376
156.42
156.464
156.508
156.552
156.596
156.64
156.684
156.728
156.772
156.816
156.86
156.904
156.948
156.992
157.036
157.08
157.124
157.168
157.212
157.255
157.299
157.343
157.387
157.431
157.475
157.519
157.563
157.607
157.651
157.695
157.739
157.783
157.827
157.871
157.915
157.958
158.002
158.046
158.09
158.134
158.178
158.222
158.266
158.31
158.354
158.397
158.441
158.485
158.529
158.573
158.617
158.661
158.705
158.749
158.792
158.836
158.88
158.924
158.968
159.012
159.056
159.099
159.143
159.187
159.231
159.275
159.319
159.362
159.406
159.45
159.494
159.538
159.581
159.625
159.669
159.713
159.757
159.8
159.844
159.888
159.932
159.976
160.019
160.063
160.107
160.151
160.194
160.238
160.282
160.326
160.37
160.413
160.457
160.501
160.544
160.588
160.632
160.676
160.719
160.763
160.807
160.851
160.894
160.938
160.982
161.025
161.069
161.113
161.156
161.2
161.244
161.287
161.331
161.375
161.418
161.462
161.506
161.549
161.593
161.637
161.68
161.724
161.768
161.811
161.855
161.898
161.942
161.986
162.029
162.073
162.116
162.16
162.204
162.247
162.291
162.334
162.378
162.421
162.465
162.508
162.552
162.596
162.639
162.683
162.726
162.77
162.813
162.857
162.9
162.944
162.987
163.031
163.074
163.118
163.161
163.205
163.248
163.291
163.335
163.378
163.422
163.465
163.509
163.552
163.595
163.639
163.682
163.726
163.769
163.812
163.856
163.899
163.943
163.986
164.029
164.073
164.116
164.159
164.203
164.246
164.289
164.333
164.376
164.419
164.463
164.506
164.549
164.592
164.636
164.679
164.722
164.765
164.809
164.852
164.895
164.938
164.982
165.025
165.068
165.111
165.154
165.197
165.241
165.284
165.327
165.37
165.413
165.456
165.499
165.543
165.586
165.629
165.672
165.715
165.758
165.801
165.844
165.887
165.93
165.973
166.016
166.059
166.102
166.145
166.188
166.231
166.274
166.317
166.36
166.403
166.446
166.489
166.532
166.575
166.618
166.661
166.704
166.746
166.789
166.832
166.875
166.918
166.961
167.003
167.046
167.089
167.132
167.175
167.217
167.26
167.303
167.346
167.388
167.431
167.474
167.516
167.559
167.602
167.644
167.687
167.73
167.772
167.815
167.858
167.9
167.943
167.985
168.028
168.07
168.113
168.155
168.198
168.24
168.283
168.325
168.368
168.41
168.453
168.495
168.538
168.58
168.622
168.665
168.707
168.749
168.792
168.834
168.876
168.919
168.961
169.003
169.045
169.088
169.13
169.172
169.214
169.256
169.298