/*--------------------------------*- C++ -*----------------------------------*\
  =========                 |
  \\      /  F ield         | OpenFOAM: The Open Source CFD Toolbox
   \\    /   O peration     | Website:  https://openfoam.org
    \\  /    A nd           | Version:  9
     \\/     M anipulation  |
\*---------------------------------------------------------------------------*/
FoamFile
{
    format      ascii;
    class       volScalarField;
    location    "0.03";
    object      rho_0;
}
// * * * * * * * * * * * * * * * * * * * * * * * * * * * * * * * * * * * * * //

dimensions      [1 -3 0 0 0 0 0];

internalField   nonuniform List<scalar> 
10000
(
0.305386
0.305381
0.305373
0.305365
0.305357
0.305349
0.305342
0.305334
0.305326
0.305318
0.305311
0.305303
0.305295
0.305288
0.30528
0.305272
0.305264
0.305257
0.305249
0.305241
0.305234
0.305226
0.305218
0.30521
0.305203
0.305196
0.305188
0.30518
0.305172
0.305165
0.305157
0.305149
0.305142
0.305135
0.305128
0.30512
0.305112
0.305104
0.305096
0.305089
0.305081
0.305074
0.305067
0.30506
0.305053
0.305045
0.305037
0.305029
0.305021
0.305014
0.305006
0.304999
0.304993
0.304986
0.30498
0.304973
0.304966
0.304959
0.304951
0.304943
0.304935
0.304926
0.304918
0.30491
0.304902
0.304895
0.304888
0.304882
0.304876
0.304872
0.304867
0.304863
0.30486
0.304857
0.304854
0.304851
0.304849
0.304846
0.304844
0.304842
0.304839
0.304837
0.304835
0.304834
0.304832
0.30483
0.304829
0.304827
0.304825
0.304823
0.304822
0.30482
0.304818
0.304817
0.304815
0.304813
0.304811
0.30481
0.304808
0.304806
0.304804
0.304803
0.304801
0.304799
0.304798
0.304796
0.304794
0.304792
0.304791
0.304789
0.304787
0.304785
0.304784
0.304782
0.30478
0.304778
0.304777
0.304775
0.304773
0.304771
0.30477
0.304768
0.304766
0.304764
0.304763
0.304761
0.304759
0.304758
0.304756
0.304754
0.304752
0.304751
0.304749
0.304747
0.304745
0.304744
0.304742
0.30474
0.304738
0.304737
0.304735
0.304733
0.304731
0.30473
0.304728
0.304726
0.304724
0.304722
0.304721
0.304719
0.304717
0.304715
0.304714
0.304712
0.30471
0.304708
0.304707
0.304705
0.304703
0.304701
0.3047
0.304698
0.304696
0.304694
0.304693
0.304691
0.304689
0.304687
0.304685
0.304684
0.304682
0.30468
0.304678
0.304677
0.304675
0.304673
0.304671
0.30467
0.304668
0.304666
0.304664
0.304662
0.304661
0.304659
0.304657
0.304655
0.304654
0.304652
0.30465
0.304648
0.304647
0.304645
0.304643
0.304641
0.304639
0.304638
0.304636
0.304634
0.304632
0.30463
0.304629
0.304627
0.304625
0.304623
0.304622
0.30462
0.304618
0.304616
0.304614
0.304613
0.304611
0.304609
0.304607
0.304605
0.304604
0.304602
0.3046
0.304598
0.304597
0.304595
0.304593
0.304591
0.304589
0.304588
0.304586
0.304584
0.304582
0.30458
0.304579
0.304577
0.304575
0.304573
0.304571
0.30457
0.304568
0.304566
0.304564
0.304562
0.304561
0.304559
0.304557
0.304555
0.304553
0.304552
0.30455
0.304548
0.304546
0.304544
0.304543
0.304541
0.304539
0.304537
0.304535
0.304533
0.304532
0.30453
0.304528
0.304526
0.304524
0.304523
0.304521
0.304519
0.304517
0.304515
0.304514
0.304512
0.30451
0.304508
0.304506
0.304504
0.304503
0.304501
0.304499
0.304497
0.304495
0.304494
0.304492
0.30449
0.304488
0.304486
0.304484
0.304483
0.304481
0.304479
0.304477
0.304475
0.304473
0.304472
0.30447
0.304468
0.304466
0.304464
0.304462
0.304461
0.304459
0.304457
0.304455
0.304453
0.304451
0.30445
0.304448
0.304446
0.304444
0.304442
0.30444
0.304439
0.304437
0.304435
0.304433
0.304431
0.304429
0.304428
0.304426
0.304424
0.304422
0.30442
0.304418
0.304417
0.304415
0.304413
0.304411
0.304409
0.304407
0.304405
0.304404
0.304402
0.3044
0.304398
0.304396
0.304394
0.304393
0.304391
0.304389
0.304387
0.304385
0.304383
0.304381
0.30438
0.304378
0.304376
0.304374
0.304372
0.30437
0.304368
0.304367
0.304365
0.304363
0.304361
0.304359
0.304357
0.304355
0.304354
0.304352
0.30435
0.304348
0.304346
0.304344
0.304342
0.304341
0.304339
0.304337
0.304335
0.304333
0.304331
0.304329
0.304327
0.304326
0.304324
0.304322
0.30432
0.304318
0.304316
0.304314
0.304313
0.304311
0.304309
0.304307
0.304305
0.304303
0.304301
0.304299
0.304298
0.304296
0.304294
0.304292
0.30429
0.304288
0.304286
0.304284
0.304282
0.304281
0.304279
0.304277
0.304275
0.304273
0.304271
0.304269
0.304267
0.304266
0.304264
0.304262
0.30426
0.304258
0.304256
0.304254
0.304252
0.30425
0.304249
0.304247
0.304245
0.304243
0.304241
0.304239
0.304237
0.304235
0.304233
0.304232
0.30423
0.304228
0.304226
0.304224
0.304222
0.30422
0.304218
0.304216
0.304214
0.304213
0.304211
0.304209
0.304207
0.304205
0.304203
0.304201
0.304199
0.304197
0.304195
0.304194
0.304192
0.30419
0.304188
0.304186
0.304184
0.304182
0.30418
0.304178
0.304176
0.304174
0.304173
0.304171
0.304169
0.304167
0.304165
0.304163
0.304161
0.304159
0.304157
0.304155
0.304153
0.304151
0.30415
0.304148
0.304146
0.304144
0.304142
0.30414
0.304138
0.304136
0.304134
0.304132
0.30413
0.304128
0.304127
0.304125
0.304123
0.304121
0.304119
0.304117
0.304115
0.304113
0.304111
0.304109
0.304107
0.304105
0.304103
0.304101
0.3041
0.304098
0.304096
0.304094
0.304092
0.30409
0.304088
0.304086
0.304084
0.304082
0.30408
0.304078
0.304076
0.304074
0.304072
0.304071
0.304069
0.304067
0.304065
0.304063
0.304061
0.304059
0.304057
0.304055
0.304053
0.304051
0.304049
0.304047
0.304045
0.304043
0.304041
0.304039
0.304037
0.304036
0.304034
0.304032
0.30403
0.304028
0.304026
0.304024
0.304022
0.30402
0.304018
0.304016
0.304014
0.304012
0.30401
0.304008
0.304006
0.304004
0.304002
0.304
0.303998
0.303996
0.303994
0.303993
0.303991
0.303989
0.303987
0.303985
0.303983
0.303981
0.303979
0.303977
0.303975
0.303973
0.303971
0.303969
0.303967
0.303965
0.303963
0.303961
0.303959
0.303957
0.303955
0.303953
0.303951
0.303949
0.303947
0.303945
0.303943
0.303941
0.303939
0.303937
0.303935
0.303933
0.303932
0.30393
0.303928
0.303926
0.303924
0.303922
0.30392
0.303918
0.303916
0.303914
0.303912
0.30391
0.303908
0.303906
0.303904
0.303902
0.3039
0.303898
0.303896
0.303894
0.303892
0.30389
0.303888
0.303886
0.303884
0.303882
0.30388
0.303878
0.303876
0.303874
0.303872
0.30387
0.303868
0.303866
0.303864
0.303862
0.30386
0.303858
0.303856
0.303854
0.303852
0.30385
0.303848
0.303846
0.303844
0.303842
0.30384
0.303838
0.303836
0.303834
0.303832
0.30383
0.303828
0.303826
0.303824
0.303822
0.30382
0.303818
0.303816
0.303814
0.303812
0.30381
0.303808
0.303806
0.303804
0.303802
0.3038
0.303798
0.303796
0.303794
0.303792
0.30379
0.303788
0.303786
0.303784
0.303782
0.30378
0.303778
0.303776
0.303774
0.303772
0.30377
0.303768
0.303766
0.303764
0.303762
0.30376
0.303758
0.303756
0.303754
0.303751
0.303749
0.303747
0.303745
0.303743
0.303741
0.303739
0.303737
0.303735
0.303733
0.303731
0.303729
0.303727
0.303725
0.303723
0.303721
0.303719
0.303717
0.303715
0.303713
0.303711
0.303709
0.303707
0.303705
0.303703
0.303701
0.303699
0.303697
0.303695
0.303693
0.303691
0.303688
0.303686
0.303684
0.303682
0.30368
0.303678
0.303676
0.303674
0.303672
0.30367
0.303668
0.303666
0.303664
0.303662
0.30366
0.303658
0.303656
0.303654
0.303652
0.30365
0.303648
0.303646
0.303643
0.303641
0.303639
0.303637
0.303635
0.303633
0.303631
0.303629
0.303627
0.303625
0.303623
0.303621
0.303619
0.303617
0.303615
0.303613
0.303611
0.303608
0.303606
0.303604
0.303602
0.3036
0.303598
0.303596
0.303594
0.303592
0.30359
0.303588
0.303586
0.303584
0.303582
0.30358
0.303578
0.303575
0.303573
0.303571
0.303569
0.303567
0.303565
0.303563
0.303561
0.303559
0.303557
0.303555
0.303553
0.303551
0.303548
0.303546
0.303544
0.303542
0.30354
0.303538
0.303536
0.303534
0.303532
0.30353
0.303528
0.303526
0.303524
0.303521
0.303519
0.303517
0.303515
0.303513
0.303511
0.303509
0.303507
0.303505
0.303503
0.303501
0.303498
0.303496
0.303494
0.303492
0.30349
0.303488
0.303486
0.303484
0.303482
0.30348
0.303478
0.303475
0.303473
0.303471
0.303469
0.303467
0.303465
0.303463
0.303461
0.303459
0.303457
0.303454
0.303452
0.30345
0.303448
0.303446
0.303444
0.303442
0.30344
0.303438
0.303436
0.303433
0.303431
0.303429
0.303427
0.303425
0.303423
0.303421
0.303419
0.303417
0.303414
0.303412
0.30341
0.303408
0.303406
0.303404
0.303402
0.3034
0.303398
0.303395
0.303393
0.303391
0.303389
0.303387
0.303385
0.303383
0.303381
0.303378
0.303376
0.303374
0.303372
0.30337
0.303368
0.303366
0.303364
0.303361
0.303359
0.303357
0.303355
0.303353
0.303351
0.303349
0.303347
0.303344
0.303342
0.30334
0.303338
0.303336
0.303334
0.303332
0.30333
0.303327
0.303325
0.303323
0.303321
0.303319
0.303317
0.303315
0.303312
0.30331
0.303308
0.303306
0.303304
0.303302
0.3033
0.303297
0.303295
0.303293
0.303291
0.303289
0.303287
0.303285
0.303282
0.30328
0.303278
0.303276
0.303274
0.303272
0.30327
0.303267
0.303265
0.303263
0.303261
0.303259
0.303257
0.303255
0.303252
0.30325
0.303248
0.303246
0.303244
0.303242
0.303239
0.303237
0.303235
0.303233
0.303231
0.303229
0.303226
0.303224
0.303222
0.30322
0.303218
0.303216
0.303213
0.303211
0.303209
0.303207
0.303205
0.303203
0.3032
0.303198
0.303196
0.303194
0.303192
0.30319
0.303188
0.303185
0.303183
0.303181
0.303179
0.303177
0.303175
0.303172
0.30317
0.303168
0.303166
0.303164
0.303161
0.303159
0.303157
0.303155
0.303153
0.30315
0.303149
0.303146
0.303144
0.303142
0.30314
0.303138
0.303135
0.303133
0.303131
0.303129
0.303126
0.303124
0.303122
0.30312
0.303118
0.303115
0.303114
0.303111
0.303109
0.303107
0.303105
0.303103
0.3031
0.303098
0.303096
0.303094
0.303092
0.303089
0.303087
0.303085
0.303083
0.303081
0.303078
0.303076
0.303074
0.303072
0.30307
0.303067
0.303065
0.303063
0.303061
0.303059
0.303056
0.303054
0.303052
0.30305
0.303047
0.303045
0.303043
0.303041
0.303039
0.303036
0.303034
0.303032
0.30303
0.303028
0.303025
0.303023
0.303021
0.303019
0.303017
0.303014
0.303012
0.30301
0.303008
0.303006
0.303003
0.303001
0.302999
0.302997
0.302995
0.302992
0.30299
0.302988
0.302985
0.302984
0.302981
0.302979
0.302977
0.302974
0.302972
0.30297
0.302968
0.302966
0.302963
0.302961
0.302959
0.302957
0.302955
0.302952
0.30295
0.302948
0.302945
0.302944
0.302941
0.302939
0.302937
0.302934
0.302932
0.30293
0.302928
0.302926
0.302923
0.302921
0.302919
0.302916
0.302914
0.302912
0.30291
0.302908
0.302905
0.302903
0.302901
0.302899
0.302897
0.302894
0.302892
0.30289
0.302887
0.302885
0.302883
0.302881
0.302879
0.302876
0.302874
0.302872
0.302869
0.302867
0.302865
0.302863
0.302861
0.302858
0.302856
0.302854
0.302851
0.302849
0.302847
0.302845
0.302843
0.30284
0.302838
0.302836
0.302833
0.302831
0.302829
0.302827
0.302825
0.302822
0.30282
0.302818
0.302815
0.302813
0.302811
0.302808
0.302806
0.302804
0.302802
0.3028
0.302797
0.302795
0.302793
0.30279
0.302788
0.302786
0.302784
0.302781
0.302779
0.302777
0.302775
0.302772
0.30277
0.302768
0.302765
0.302763
0.302761
0.302759
0.302756
0.302754
0.302752
0.30275
0.302747
0.302745
0.302743
0.30274
0.302738
0.302736
0.302734
0.302731
0.302729
0.302727
0.302724
0.302722
0.30272
0.302718
0.302715
0.302713
0.302711
0.302709
0.302706
0.302704
0.302702
0.302699
0.302697
0.302695
0.302692
0.30269
0.302688
0.302686
0.302683
0.302681
0.302679
0.302677
0.302674
0.302672
0.30267
0.302667
0.302665
0.302663
0.30266
0.302658
0.302656
0.302653
0.302651
0.302649
0.302646
0.302644
0.302642
0.30264
0.302637
0.302635
0.302633
0.302631
0.302628
0.302626
0.302624
0.302621
0.302619
0.302617
0.302614
0.302612
0.30261
0.302607
0.302605
0.302603
0.3026
0.302598
0.302596
0.302593
0.302591
0.302589
0.302586
0.302584
0.302582
0.302579
0.302577
0.302575
0.302572
0.30257
0.302568
0.302565
0.302563
0.302561
0.302559
0.302556
0.302554
0.302552
0.30255
0.302547
0.302545
0.302543
0.30254
0.302538
0.302536
0.302533
0.302531
0.302529
0.302526
0.302524
0.302522
0.302519
0.302517
0.302515
0.302512
0.30251
0.302508
0.302505
0.302503
0.302501
0.302498
0.302496
0.302494
0.302491
0.302489
0.302487
0.302484
0.302482
0.302479
0.302477
0.302475
0.302472
0.30247
0.302468
0.302465
0.302463
0.30246
0.302458
0.302456
0.302453
0.302451
0.302449
0.302446
0.302444
0.302442
0.302439
0.302437
0.302435
0.302432
0.30243
0.302428
0.302425
0.302423
0.302421
0.302418
0.302416
0.302414
0.302411
0.302409
0.302407
0.302404
0.302402
0.3024
0.302397
0.302395
0.302392
0.30239
0.302387
0.302385
0.302383
0.30238
0.302378
0.302376
0.302373
0.302371
0.302369
0.302366
0.302364
0.302362
0.302359
0.302357
0.302355
0.302352
0.30235
0.302347
0.302345
0.302343
0.30234
0.302338
0.302335
0.302333
0.302331
0.302328
0.302326
0.302324
0.302321
0.302319
0.302317
0.302314
0.302312
0.302309
0.302307
0.302305
0.302302
0.3023
0.302297
0.302295
0.302293
0.30229
0.302288
0.302286
0.302283
0.302281
0.302278
0.302276
0.302274
0.302271
0.302269
0.302266
0.302264
0.302262
0.302259
0.302257
0.302254
0.302252
0.30225
0.302247
0.302245
0.302242
0.30224
0.302238
0.302235
0.302233
0.30223
0.302228
0.302226
0.302223
0.302221
0.302218
0.302216
0.302214
0.302211
0.302209
0.302206
0.302204
0.302202
0.302199
0.302197
0.302194
0.302192
0.302189
0.302187
0.302185
0.302182
0.30218
0.302178
0.302175
0.302173
0.30217
0.302168
0.302165
0.302163
0.302161
0.302158
0.302156
0.302153
0.302151
0.302148
0.302146
0.302144
0.302141
0.302139
0.302136
0.302134
0.302132
0.302129
0.302127
0.302124
0.302122
0.302119
0.302117
0.302115
0.302112
0.30211
0.302107
0.302105
0.302102
0.3021
0.302098
0.302095
0.302093
0.30209
0.302088
0.302085
0.302083
0.302081
0.302078
0.302076
0.302073
0.302071
0.302068
0.302066
0.302063
0.302061
0.302059
0.302056
0.302054
0.302051
0.302049
0.302046
0.302044
0.302042
0.302039
0.302037
0.302034
0.302032
0.302029
0.302027
0.302024
0.302022
0.302019
0.302017
0.302015
0.302012
0.30201
0.302007
0.302005
0.302002
0.302
0.301997
0.301995
0.301993
0.30199
0.301988
0.301985
0.301983
0.30198
0.301978
0.301975
0.301973
0.30197
0.301968
0.301966
0.301963
0.301961
0.301958
0.301956
0.301953
0.301951
0.301948
0.301946
0.301943
0.301941
0.301938
0.301936
0.301933
0.301931
0.301928
0.301926
0.301924
0.301921
0.301919
0.301916
0.301914
0.301911
0.301909
0.301906
0.301904
0.301901
0.301899
0.301896
0.301894
0.301891
0.301889
0.301886
0.301884
0.301882
0.301879
0.301877
0.301874
0.301872
0.301869
0.301867
0.301864
0.301862
0.301859
0.301857
0.301854
0.301852
0.301849
0.301847
0.301844
0.301842
0.301839
0.301837
0.301834
0.301832
0.301829
0.301827
0.301824
0.301822
0.301819
0.301817
0.301814
0.301812
0.301809
0.301807
0.301804
0.301802
0.301799
0.301797
0.301794
0.301792
0.301789
0.301787
0.301784
0.301782
0.301779
0.301777
0.301774
0.301772
0.301769
0.301767
0.301764
0.301762
0.301759
0.301757
0.301754
0.301752
0.301749
0.301747
0.301744
0.301742
0.301739
0.301737
0.301734
0.301732
0.301729
0.301727
0.301724
0.301722
0.301719
0.301717
0.301714
0.301712
0.301709
0.301707
0.301704
0.301702
0.301699
0.301696
0.301694
0.301691
0.301689
0.301686
0.301684
0.301681
0.301679
0.301676
0.301674
0.301671
0.301669
0.301666
0.301664
0.301661
0.301659
0.301656
0.301654
0.301651
0.301649
0.301646
0.301643
0.301641
0.301638
0.301636
0.301633
0.301631
0.301628
0.301626
0.301623
0.301621
0.301618
0.301616
0.301613
0.30161
0.301608
0.301605
0.301603
0.3016
0.301598
0.301595
0.301593
0.30159
0.301588
0.301585
0.301582
0.30158
0.301577
0.301575
0.301572
0.30157
0.301567
0.301565
0.301562
0.30156
0.301557
0.301554
0.301552
0.301549
0.301547
0.301544
0.301542
0.301539
0.301537
0.301534
0.301531
0.301529
0.301526
0.301524
0.301521
0.301519
0.301516
0.301514
0.301511
0.301508
0.301506
0.301503
0.301501
0.301498
0.301496
0.301493
0.30149
0.301488
0.301485
0.301483
0.30148
0.301478
0.301475
0.301472
0.30147
0.301467
0.301465
0.301462
0.30146
0.301457
0.301454
0.301452
0.301449
0.301447
0.301444
0.301442
0.301439
0.301436
0.301434
0.301431
0.301429
0.301426
0.301424
0.301421
0.301418
0.301416
0.301413
0.301411
0.301408
0.301405
0.301403
0.3014
0.301398
0.301395
0.301393
0.30139
0.301387
0.301385
0.301382
0.30138
0.301377
0.301374
0.301372
0.301369
0.301367
0.301364
0.301361
0.301359
0.301356
0.301354
0.301351
0.301348
0.301346
0.301343
0.301341
0.301338
0.301335
0.301333
0.30133
0.301328
0.301325
0.301322
0.30132
0.301317
0.301315
0.301312
0.301309
0.301307
0.301304
0.301302
0.301299
0.301296
0.301294
0.301291
0.301289
0.301286
0.301283
0.301281
0.301278
0.301276
0.301273
0.30127
0.301268
0.301265
0.301262
0.30126
0.301257
0.301255
0.301252
0.301249
0.301247
0.301244
0.301242
0.301239
0.301236
0.301234
0.301231
0.301228
0.301226
0.301223
0.301221
0.301218
0.301215
0.301213
0.30121
0.301207
0.301205
0.301202
0.3012
0.301197
0.301194
0.301192
0.301189
0.301186
0.301184
0.301181
0.301178
0.301176
0.301173
0.301171
0.301168
0.301165
0.301163
0.30116
0.301157
0.301155
0.301152
0.30115
0.301147
0.301144
0.301142
0.301139
0.301136
0.301134
0.301131
0.301128
0.301126
0.301123
0.30112
0.301118
0.301115
0.301112
0.30111
0.301107
0.301105
0.301102
0.301099
0.301097
0.301094
0.301091
0.301089
0.301086
0.301083
0.301081
0.301078
0.301075
0.301073
0.30107
0.301067
0.301065
0.301062
0.301059
0.301057
0.301054
0.301051
0.301049
0.301046
0.301043
0.301041
0.301038
0.301035
0.301033
0.30103
0.301028
0.301025
0.301022
0.30102
0.301017
0.301014
0.301012
0.301009
0.301006
0.301003
0.301001
0.300998
0.300995
0.300993
0.30099
0.300987
0.300985
0.300982
0.300979
0.300977
0.300974
0.300971
0.300969
0.300966
0.300963
0.300961
0.300958
0.300955
0.300953
0.30095
0.300947
0.300945
0.300942
0.300939
0.300937
0.300934
0.300931
0.300929
0.300926
0.300923
0.30092
0.300918
0.300915
0.300912
0.30091
0.300907
0.300904
0.300902
0.300899
0.300896
0.300894
0.300891
0.300888
0.300885
0.300883
0.30088
0.300877
0.300875
0.300872
0.300869
0.300867
0.300864
0.300861
0.300859
0.300856
0.300853
0.30085
0.300848
0.300845
0.300842
0.30084
0.300837
0.300834
0.300831
0.300829
0.300826
0.300823
0.300821
0.300818
0.300815
0.300813
0.30081
0.300807
0.300804
0.300802
0.300799
0.300796
0.300794
0.300791
0.300788
0.300785
0.300783
0.30078
0.300777
0.300775
0.300772
0.300769
0.300766
0.300764
0.300761
0.300758
0.300756
0.300753
0.30075
0.300747
0.300745
0.300742
0.300739
0.300736
0.300734
0.300731
0.300728
0.300726
0.300723
0.30072
0.300717
0.300715
0.300712
0.300709
0.300706
0.300704
0.300701
0.300698
0.300696
0.300693
0.30069
0.300687
0.300685
0.300682
0.300679
0.300676
0.300674
0.300671
0.300668
0.300665
0.300663
0.30066
0.300657
0.300654
0.300652
0.300649
0.300646
0.300643
0.300641
0.300638
0.300635
0.300633
0.30063
0.300627
0.300624
0.300622
0.300619
0.300616
0.300613
0.300611
0.300608
0.300605
0.300602
0.3006
0.300597
0.300594
0.300591
0.300589
0.300586
0.300583
0.30058
0.300577
0.300575
0.300572
0.300569
0.300566
0.300564
0.300561
0.300558
0.300555
0.300553
0.30055
0.300547
0.300544
0.300542
0.300539
0.300536
0.300533
0.300531
0.300528
0.300525
0.300522
0.300519
0.300517
0.300514
0.300511
0.300508
0.300506
0.300503
0.3005
0.300497
0.300495
0.300492
0.300489
0.300486
0.300483
0.300481
0.300478
0.300475
0.300472
0.30047
0.300467
0.300464
0.300461
0.300458
0.300456
0.300453
0.30045
0.300447
0.300445
0.300442
0.300439
0.300436
0.300433
0.300431
0.300428
0.300425
0.300422
0.300419
0.300417
0.300414
0.300411
0.300408
0.300405
0.300403
0.3004
0.300397
0.300394
0.300392
0.300389
0.300386
0.300383
0.30038
0.300378
0.300375
0.300372
0.300369
0.300366
0.300364
0.300361
0.300358
0.300355
0.300352
0.30035
0.300347
0.300344
0.300341
0.300338
0.300336
0.300333
0.30033
0.300327
0.300324
0.300322
0.300319
0.300316
0.300313
0.30031
0.300307
0.300305
0.300302
0.300299
0.300296
0.300293
0.300291
0.300288
0.300285
0.300282
0.300279
0.300277
0.300274
0.300271
0.300268
0.300265
0.300262
0.30026
0.300257
0.300254
0.300251
0.300248
0.300246
0.300243
0.30024
0.300237
0.300234
0.300231
0.300229
0.300226
0.300223
0.30022
0.300217
0.300214
0.300212
0.300209
0.300206
0.300203
0.3002
0.300197
0.300195
0.300192
0.300189
0.300186
0.300183
0.30018
0.300178
0.300175
0.300172
0.300169
0.300166
0.300163
0.300161
0.300158
0.300155
0.300152
0.300149
0.300146
0.300144
0.300141
0.300138
0.300135
0.300132
0.300129
0.300127
0.300124
0.300121
0.300118
0.300115
0.300112
0.300109
0.300107
0.300104
0.300101
0.300098
0.300095
0.300092
0.300089
0.300087
0.300084
0.300081
0.300078
0.300075
0.300072
0.30007
0.300067
0.300064
0.300061
0.300058
0.300055
0.300052
0.30005
0.300047
0.300044
0.300041
0.300038
0.300035
0.300032
0.300029
0.300027
0.300024
0.300021
0.300018
0.300015
0.300012
0.300009
0.300007
0.300004
0.300001
0.299998
0.299995
0.299992
0.299989
0.299986
0.299984
0.299981
0.299978
0.299975
0.299972
0.299969
0.299966
0.299963
0.299961
0.299958
0.299955
0.299952
0.299949
0.299946
0.299943
0.29994
0.299938
0.299935
0.299932
0.299929
0.299926
0.299923
0.29992
0.299917
0.299915
0.299912
0.299909
0.299906
0.299903
0.2999
0.299897
0.299894
0.299891
0.299889
0.299886
0.299883
0.29988
0.299877
0.299874
0.299871
0.299868
0.299865
0.299862
0.29986
0.299857
0.299854
0.299851
0.299848
0.299845
0.299842
0.299839
0.299836
0.299834
0.299831
0.299828
0.299825
0.299822
0.299819
0.299816
0.299813
0.29981
0.299807
0.299804
0.299802
0.299799
0.299796
0.299793
0.29979
0.299787
0.299784
0.299781
0.299778
0.299775
0.299773
0.29977
0.299767
0.299764
0.299761
0.299758
0.299755
0.299752
0.299749
0.299746
0.299743
0.29974
0.299738
0.299735
0.299732
0.299729
0.299726
0.299723
0.29972
0.299717
0.299714
0.299711
0.299708
0.299705
0.299702
0.2997
0.299697
0.299694
0.299691
0.299688
0.299685
0.299682
0.299679
0.299676
0.299673
0.29967
0.299667
0.299664
0.299662
0.299659
0.299656
0.299653
0.29965
0.299647
0.299644
0.299641
0.299638
0.299635
0.299632
0.299629
0.299626
0.299623
0.29962
0.299617
0.299615
0.299612
0.299609
0.299606
0.299603
0.2996
0.299597
0.299594
0.299591
0.299588
0.299585
0.299582
0.299579
0.299576
0.299573
0.29957
0.299567
0.299565
0.299562
0.299559
0.299556
0.299553
0.29955
0.299547
0.299544
0.299541
0.299538
0.299535
0.299532
0.299529
0.299526
0.299523
0.29952
0.299517
0.299514
0.299511
0.299508
0.299505
0.299502
0.2995
0.299497
0.299494
0.299491
0.299488
0.299485
0.299482
0.299479
0.299476
0.299473
0.29947
0.299467
0.299464
0.299461
0.299458
0.299455
0.299452
0.299449
0.299446
0.299443
0.29944
0.299437
0.299434
0.299431
0.299428
0.299425
0.299422
0.299419
0.299416
0.299413
0.29941
0.299408
0.299405
0.299402
0.299399
0.299396
0.299393
0.29939
0.299387
0.299384
0.299381
0.299378
0.299375
0.299372
0.299369
0.299366
0.299363
0.29936
0.299357
0.299354
0.299351
0.299348
0.299345
0.299342
0.299339
0.299336
0.299333
0.29933
0.299327
0.299324
0.299321
0.299318
0.299315
0.299312
0.299309
0.299306
0.299303
0.2993
0.299297
0.299294
0.299291
0.299288
0.299285
0.299282
0.299279
0.299276
0.299273
0.29927
0.299267
0.299264
0.299261
0.299258
0.299255
0.299252
0.299249
0.299246
0.299243
0.29924
0.299237
0.299234
0.299231
0.299228
0.299225
0.299222
0.299219
0.299216
0.299213
0.29921
0.299207
0.299204
0.299201
0.299198
0.299195
0.299192
0.299189
0.299186
0.299183
0.29918
0.299177
0.299174
0.299171
0.299168
0.299165
0.299162
0.299159
0.299156
0.299153
0.29915
0.299147
0.299144
0.299141
0.299138
0.299135
0.299132
0.299129
0.299126
0.299123
0.29912
0.299117
0.299113
0.29911
0.299107
0.299104
0.299101
0.299098
0.299095
0.299092
0.299089
0.299086
0.299083
0.29908
0.299077
0.299074
0.299071
0.299068
0.299065
0.299062
0.299059
0.299056
0.299053
0.29905
0.299047
0.299044
0.299041
0.299038
0.299035
0.299032
0.299029
0.299026
0.299023
0.299019
0.299016
0.299013
0.29901
0.299007
0.299004
0.299001
0.298998
0.298995
0.298992
0.298989
0.298986
0.298983
0.29898
0.298977
0.298974
0.298971
0.298968
0.298965
0.298962
0.298959
0.298956
0.298952
0.298949
0.298946
0.298943
0.29894
0.298937
0.298934
0.298931
0.298928
0.298925
0.298922
0.298919
0.298916
0.298913
0.29891
0.298907
0.298904
0.298901
0.298897
0.298894
0.298891
0.298888
0.298885
0.298882
0.298879
0.298876
0.298873
0.29887
0.298867
0.298864
0.298861
0.298858
0.298855
0.298852
0.298848
0.298845
0.298842
0.298839
0.298836
0.298833
0.29883
0.298827
0.298824
0.298821
0.298818
0.298815
0.298812
0.298809
0.298806
0.298802
0.298799
0.298796
0.298793
0.29879
0.298787
0.298784
0.298781
0.298778
0.298775
0.298772
0.298769
0.298766
0.298762
0.298759
0.298756
0.298753
0.29875
0.298747
0.298744
0.298741
0.298738
0.298735
0.298732
0.298729
0.298725
0.298722
0.298719
0.298716
0.298713
0.29871
0.298707
0.298704
0.298701
0.298698
0.298695
0.298691
0.298688
0.298685
0.298682
0.298679
0.298676
0.298673
0.29867
0.298667
0.298664
0.298661
0.298657
0.298654
0.298651
0.298648
0.298645
0.298642
0.298639
0.298636
0.298633
0.29863
0.298626
0.298623
0.29862
0.298617
0.298614
0.298611
0.298608
0.298605
0.298602
0.298599
0.298595
0.298592
0.298589
0.298586
0.298583
0.29858
0.298577
0.298574
0.298571
0.298568
0.298564
0.298561
0.298558
0.298555
0.298552
0.298549
0.298546
0.298543
0.29854
0.298536
0.298533
0.29853
0.298527
0.298524
0.298521
0.298518
0.298515
0.298512
0.298508
0.298505
0.298502
0.298499
0.298496
0.298493
0.29849
0.298487
0.298483
0.29848
0.298477
0.298474
0.298471
0.298468
0.298465
0.298462
0.298458
0.298455
0.298452
0.298449
0.298446
0.298443
0.29844
0.298437
0.298433
0.29843
0.298427
0.298424
0.298421
0.298418
0.298415
0.298412
0.298408
0.298405
0.298402
0.298399
0.298396
0.298393
0.29839
0.298387
0.298383
0.29838
0.298377
0.298374
0.298371
0.298368
0.298365
0.298361
0.298358
0.298355
0.298352
0.298349
0.298346
0.298343
0.29834
0.298336
0.298333
0.29833
0.298327
0.298324
0.298321
0.298318
0.298314
0.298311
0.298308
0.298305
0.298302
0.298299
0.298296
0.298292
0.298289
0.298286
0.298283
0.29828
0.298277
0.298274
0.29827
0.298267
0.298264
0.298261
0.298258
0.298255
0.298251
0.298248
0.298245
0.298242
0.298239
0.298236
0.298233
0.298229
0.298226
0.298223
0.29822
0.298217
0.298214
0.29821
0.298207
0.298204
0.298201
0.298198
0.298195
0.298192
0.298188
0.298185
0.298182
0.298179
0.298176
0.298173
0.298169
0.298166
0.298163
0.29816
0.298157
0.298154
0.29815
0.298147
0.298144
0.298141
0.298138
0.298135
0.298131
0.298128
0.298125
0.298122
0.298119
0.298116
0.298113
0.298109
0.298106
0.298103
0.2981
0.298097
0.298094
0.29809
0.298087
0.298084
0.298081
0.298078
0.298074
0.298071
0.298068
0.298065
0.298062
0.298059
0.298055
0.298052
0.298049
0.298046
0.298043
0.29804
0.298036
0.298033
0.29803
0.298027
0.298024
0.298021
0.298017
0.298014
0.298011
0.298008
0.298005
0.298001
0.297998
0.297995
0.297992
0.297989
0.297986
0.297982
0.297979
0.297976
0.297973
0.29797
0.297966
0.297963
0.29796
0.297957
0.297954
0.297951
0.297947
0.297944
0.297941
0.297938
0.297935
0.297931
0.297928
0.297925
0.297922
0.297919
0.297916
0.297912
0.297909
0.297906
0.297903
0.2979
0.297896
0.297893
0.29789
0.297887
0.297884
0.29788
0.297877
0.297874
0.297871
0.297868
0.297865
0.297861
0.297858
0.297855
0.297852
0.297849
0.297845
0.297842
0.297839
0.297836
0.297833
0.297829
0.297826
0.297823
0.29782
0.297817
0.297813
0.29781
0.297807
0.297804
0.297801
0.297797
0.297794
0.297791
0.297788
0.297785
0.297781
0.297778
0.297775
0.297772
0.297769
0.297765
0.297762
0.297759
0.297756
0.297753
0.297749
0.297746
0.297743
0.29774
0.297737
0.297733
0.29773
0.297727
0.297724
0.297721
0.297717
0.297714
0.297711
0.297708
0.297705
0.297701
0.297698
0.297695
0.297692
0.297689
0.297685
0.297682
0.297679
0.297676
0.297672
0.297669
0.297666
0.297663
0.29766
0.297656
0.297653
0.29765
0.297647
0.297644
0.29764
0.297637
0.297634
0.297631
0.297628
0.297624
0.297621
0.297618
0.297615
0.297611
0.297608
0.297605
0.297602
0.297599
0.297595
0.297592
0.297589
0.297586
0.297583
0.297579
0.297576
0.297573
0.29757
0.297567
0.297563
0.29756
0.297557
0.297554
0.29755
0.297547
0.297544
0.297541
0.297538
0.297534
0.297531
0.297528
0.297525
0.297521
0.297518
0.297515
0.297512
0.297509
0.297505
0.297502
0.297499
0.297496
0.297493
0.297489
0.297486
0.297483
0.29748
0.297476
0.297473
0.29747
0.297467
0.297464
0.29746
0.297457
0.297454
0.297451
0.297447
0.297444
0.297441
0.297438
0.297435
0.297431
0.297428
0.297425
0.297422
0.297418
0.297415
0.297412
0.297409
0.297406
0.297402
0.297399
0.297396
0.297393
0.297389
0.297386
0.297383
0.29738
0.297377
0.297373
0.29737
0.297367
0.297364
0.29736
0.297357
0.297354
0.297351
0.297347
0.297344
0.297341
0.297338
0.297335
0.297331
0.297328
0.297325
0.297322
0.297318
0.297315
0.297312
0.297309
0.297306
0.297302
0.297299
0.297296
0.297293
0.297289
0.297286
0.297283
0.29728
0.297277
0.297273
0.29727
0.297267
0.297264
0.29726
0.297257
0.297254
0.297251
0.297247
0.297244
0.297241
0.297238
0.297235
0.297231
0.297228
0.297225
0.297222
0.297218
0.297215
0.297212
0.297209
0.297205
0.297202
0.297199
0.297196
0.297193
0.297189
0.297186
0.297183
0.29718
0.297176
0.297173
0.29717
0.297167
0.297164
0.29716
0.297157
0.297154
0.297151
0.297147
0.297144
0.297141
0.297138
0.297134
0.297131
0.297128
0.297125
0.297122
0.297118
0.297115
0.297112
0.297109
0.297105
0.297102
0.297099
0.297096
0.297093
0.297089
0.297086
0.297083
0.29708
0.297076
0.297073
0.29707
0.297067
0.297063
0.29706
0.297057
0.297054
0.297051
0.297047
0.297044
0.297041
0.297038
0.297034
0.297031
0.297028
0.297025
0.297022
0.297018
0.297015
0.297012
0.297009
0.297005
0.297002
0.296999
0.296996
0.296993
0.296989
0.296986
0.296983
0.29698
0.296976
0.296973
0.29697
0.296967
0.296964
0.29696
0.296957
0.296954
0.296951
0.296947
0.296944
0.296941
0.296938
0.296935
0.296931
0.296928
0.296925
0.296922
0.296918
0.296915
0.296912
0.296909
0.296906
0.296902
0.296899
0.296896
0.296893
0.29689
0.296886
0.296883
0.29688
0.296877
0.296873
0.29687
0.296867
0.296864
0.296861
0.296857
0.296854
0.296851
0.296848
0.296844
0.296841
0.296838
0.296835
0.296832
0.296828
0.296825
0.296822
0.296819
0.296816
0.296812
0.296809
0.296806
0.296803
0.2968
0.296796
0.296793
0.29679
0.296787
0.296784
0.29678
0.296777
0.296774
0.296771
0.296767
0.296764
0.296761
0.296758
0.296755
0.296751
0.296748
0.296745
0.296742
0.296739
0.296735
0.296732
0.296729
0.296726
0.296723
0.296719
0.296716
0.296713
0.29671
0.296707
0.296703
0.2967
0.296697
0.296694
0.296691
0.296688
0.296684
0.296681
0.296678
0.296675
0.296672
0.296668
0.296665
0.296662
0.296659
0.296656
0.296652
0.296649
0.296646
0.296643
0.29664
0.296636
0.296633
0.29663
0.296627
0.296624
0.296621
0.296617
0.296614
0.296611
0.296608
0.296605
0.296602
0.296598
0.296595
0.296592
0.296589
0.296586
0.296582
0.296579