/*--------------------------------*- C++ -*----------------------------------*\
  =========                 |
  \\      /  F ield         | OpenFOAM: The Open Source CFD Toolbox
   \\    /   O peration     | Website:  https://openfoam.org
    \\  /    A nd           | Version:  9
     \\/     M anipulation  |
\*---------------------------------------------------------------------------*/
FoamFile
{
    format      ascii;
    class       volScalarField;
    location    "0.034";
    object      mag(U);
}
// * * * * * * * * * * * * * * * * * * * * * * * * * * * * * * * * * * * * * //

dimensions      [0 1 -1 0 0 0 0];

internalField   nonuniform List<scalar> 
10000
(
4.93209
4.97733
5.02626
5.06651
5.10316
5.14012
5.1779
5.21593
5.2539
5.2918
5.32968
5.36757
5.40547
5.44336
5.48126
5.51916
5.55705
5.59495
5.63285
5.67075
5.70864
5.74654
5.78444
5.82234
5.86024
5.89813
5.93603
5.97393
6.01183
6.04973
6.08763
6.12553
6.16343
6.20133
6.23923
6.27713
6.31503
6.35293
6.39083
6.42873
6.46663
6.50453
6.54243
6.58033
6.61824
6.65614
6.69404
6.73194
6.76985
6.80775
6.84565
6.88356
6.92146
6.95936
6.99727
7.03517
7.07307
7.11098
7.14888
7.18679
7.22469
7.2626
7.30051
7.33841
7.37632
7.41422
7.45213
7.49003
7.52794
7.56584
7.60375
7.64166
7.67956
7.71747
7.75538
7.79329
7.8312
7.86911
7.90702
7.94493
7.98284
8.02075
8.05866
8.09657
8.13448
8.17239
8.2103
8.24821
8.28612
8.32403
8.36194
8.39985
8.43776
8.47567
8.51358
8.5515
8.58941
8.62732
8.66523
8.70314
8.74106
8.77897
8.81688
8.85479
8.89271
8.93062
8.96853
9.00645
9.04436
9.08227
9.12019
9.1581
9.19602
9.23393
9.27185
9.30976
9.34768
9.38559
9.42351
9.46142
9.49934
9.53725
9.57517
9.61309
9.651
9.68892
9.72684
9.76476
9.80267
9.84059
9.87851
9.91643
9.95434
9.99226
10.0302
10.0681
10.106
10.1439
10.1819
10.2198
10.2577
10.2956
10.3335
10.3715
10.4094
10.4473
10.4852
10.5231
10.5611
10.599
10.6369
10.6748
10.7127
10.7507
10.7886
10.8265
10.8644
10.9024
10.9403
10.9782
11.0161
11.0541
11.092
11.1299
11.1678
11.2057
11.2437
11.2816
11.3195
11.3574
11.3954
11.4333
11.4712
11.5091
11.5471
11.585
11.6229
11.6609
11.6988
11.7367
11.7746
11.8126
11.8505
11.8884
11.9263
11.9643
12.0022
12.0401
12.0781
12.116
12.1539
12.1918
12.2298
12.2677
12.3056
12.3436
12.3815
12.4194
12.4573
12.4953
12.5332
12.5711
12.6091
12.647
12.6849
12.7229
12.7608
12.7987
12.8367
12.8746
12.9125
12.9505
12.9884
13.0263
13.0643
13.1022
13.1401
13.1781
13.216
13.2539
13.2919
13.3298
13.3677
13.4057
13.4436
13.4815
13.5195
13.5574
13.5953
13.6333
13.6712
13.7091
13.7471
13.785
13.823
13.8609
13.8988
13.9368
13.9747
14.0126
14.0506
14.0885
14.1265
14.1644
14.2023
14.2403
14.2782
14.3162
14.3541
14.392
14.43
14.4679
14.5059
14.5438
14.5817
14.6197
14.6576
14.6956
14.7335
14.7714
14.8094
14.8473
14.8853
14.9232
14.9611
14.9991
15.037
15.075
15.1129
15.1509
15.1888
15.2267
15.2647
15.3026
15.3406
15.3785
15.4165
15.4544
15.4924
15.5303
15.5682
15.6062
15.6441
15.6821
15.72
15.758
15.7959
15.8339
15.8718
15.9098
15.9477
15.9857
16.0236
16.0615
16.0995
16.1374
16.1754
16.2133
16.2513
16.2892
16.3272
16.3651
16.4031
16.441
16.479
16.5169
16.5549
16.5928
16.6308
16.6687
16.7067
16.7446
16.7826
16.8205
16.8585
16.8964
16.9344
16.9723
17.0103
17.0482
17.0862
17.1241
17.1621
17.2001
17.238
17.276
17.3139
17.3519
17.3898
17.4278
17.4657
17.5037
17.5416
17.5796
17.6175
17.6555
17.6935
17.7314
17.7694
17.8073
17.8453
17.8832
17.9212
17.9591
17.9971
18.0351
18.073
18.111
18.1489
18.1869
18.2248
18.2628
18.3008
18.3387
18.3767
18.4146
18.4526
18.4906
18.5285
18.5665
18.6044
18.6424
18.6804
18.7183
18.7563
18.7942
18.8322
18.8702
18.9081
18.9461
18.984
19.022
19.06
19.0979
19.1359
19.1738
19.2118
19.2498
19.2877
19.3257
19.3637
19.4016
19.4396
19.4775
19.5155
19.5535
19.5914
19.6294
19.6674
19.7053
19.7433
19.7813
19.8192
19.8572
19.8952
19.9331
19.9711
20.0091
20.047
20.085
20.1229
20.1609
20.1989
20.2368
20.2748
20.3128
20.3508
20.3887
20.4267
20.4647
20.5026
20.5406
20.5786
20.6165
20.6545
20.6925
20.7304
20.7684
20.8064
20.8443
20.8823
20.9203
20.9583
20.9962
21.0342
21.0722
21.1101
21.1481
21.1861
21.224
21.262
21.3
21.338
21.3759
21.4139
21.4519
21.4899
21.5278
21.5658
21.6038
21.6417
21.6797
21.7177
21.7557
21.7936
21.8316
21.8696
21.9076
21.9455
21.9835
22.0215
22.0595
22.0974
22.1354
22.1734
22.2114
22.2493
22.2873
22.3253
22.3633
22.4012
22.4392
22.4772
22.5152
22.5532
22.5911
22.6291
22.6671
22.7051
22.743
22.781
22.819
22.857
22.895
22.9329
22.9709
23.0089
23.0469
23.0849
23.1228
23.1608
23.1988
23.2368
23.2748
23.3127
23.3507
23.3887
23.4267
23.4647
23.5026
23.5406
23.5786
23.6166
23.6546
23.6926
23.7305
23.7685
23.8065
23.8445
23.8825
23.9205
23.9584
23.9964
24.0344
24.0724
24.1104
24.1484
24.1864
24.2243
24.2623
24.3003
24.3383
24.3763
24.4143
24.4522
24.4902
24.5282
24.5662
24.6042
24.6422
24.6802
24.7182
24.7561
24.7941
24.8321
24.8701
24.9081
24.9461
24.9841
25.0221
25.06
25.098
25.136
25.174
25.212
25.25
25.288
25.326
25.364
25.402
25.4399
25.4779
25.5159
25.5539
25.5919
25.6299
25.6679
25.7059
25.7439
25.7819
25.8199
25.8579
25.8958
25.9338
25.9718
26.0098
26.0478
26.0858
26.1238
26.1618
26.1998
26.2378
26.2758
26.3138
26.3518
26.3898
26.4278
26.4658
26.5037
26.5417
26.5797
26.6177
26.6557
26.6937
26.7317
26.7697
26.8077
26.8457
26.8837
26.9217
26.9597
26.9977
27.0357
27.0737
27.1117
27.1497
27.1877
27.2257
27.2637
27.3017
27.3397
27.3777
27.4157
27.4537
27.4917
27.5297
27.5677
27.6057
27.6437
27.6817
27.7197
27.7577
27.7957
27.8337
27.8717
27.9097
27.9477
27.9857
28.0237
28.0617
28.0997
28.1377
28.1757
28.2137
28.2517
28.2897
28.3277
28.3657
28.4037
28.4417
28.4797
28.5177
28.5557
28.5937
28.6317
28.6697
28.7078
28.7458
28.7838
28.8218
28.8598
28.8978
28.9358
28.9738
29.0118
29.0498
29.0878
29.1258
29.1638
29.2018
29.2398
29.2778
29.3159
29.3539
29.3919
29.4299
29.4679
29.5059
29.5439
29.5819
29.6199
29.6579
29.6959
29.7339
29.772
29.81
29.848
29.886
29.924
29.962
30
30.038
30.076
30.1141
30.1521
30.1901
30.2281
30.2661
30.3041
30.3421
30.3801
30.4181
30.4562
30.4942
30.5322
30.5702
30.6082
30.6462
30.6842
30.7222
30.7603
30.7983
30.8363
30.8743
30.9123
30.9503
30.9883
31.0264
31.0644
31.1024
31.1404
31.1784
31.2164
31.2545
31.2925
31.3305
31.3685
31.4065
31.4445
31.4826
31.5206
31.5586
31.5966
31.6346
31.6726
31.7107
31.7487
31.7867
31.8247
31.8627
31.9008
31.9388
31.9768
32.0148
32.0528
32.0908
32.1289
32.1669
32.2049
32.2429
32.2809
32.319
32.357
32.395
32.433
32.4711
32.5091
32.5471
32.5851
32.6231
32.6612
32.6992
32.7372
32.7752
32.8132
32.8513
32.8893
32.9273
32.9653
33.0034
33.0414
33.0794
33.1174
33.1555
33.1935
33.2315
33.2695
33.3076
33.3456
33.3836
33.4216
33.4597
33.4977
33.5357
33.5737
33.6118
33.6498
33.6878
33.7258
33.7639
33.8019
33.8399
33.8779
33.916
33.954
33.992
34.0301
34.0681
34.1061
34.1441
34.1822
34.2202
34.2582
34.2963
34.3343
34.3723
34.4103
34.4484
34.4864
34.5244
34.5625
34.6005
34.6385
34.6766
34.7146
34.7526
34.7906
34.8287
34.8667
34.9047
34.9428
34.9808
35.0188
35.0569
35.0949
35.1329
35.171
35.209
35.247
35.2851
35.3231
35.3611
35.3992
35.4372
35.4752
35.5133
35.5513
35.5893
35.6274
35.6654
35.7034
35.7415
35.7795
35.8175
35.8556
35.8936
35.9316
35.9697
36.0077
36.0458
36.0838
36.1218
36.1599
36.1979
36.2359
36.274
36.312
36.35
36.3881
36.4261
36.4642
36.5022
36.5402
36.5783
36.6163
36.6544
36.6924
36.7304
36.7685
36.8065
36.8445
36.8826
36.9206
36.9587
36.9967
37.0347
37.0728
37.1108
37.1489
37.1869
37.225
37.263
37.301
37.3391
37.3771
37.4152
37.4532
37.4912
37.5293
37.5673
37.6054
37.6434
37.6815
37.7195
37.7575
37.7956
37.8336
37.8717
37.9097
37.9478
37.9858
38.0238
38.0619
38.0999
38.138
38.176
38.2141
38.2521
38.2902
38.3282
38.3663
38.4043
38.4423
38.4804
38.5184
38.5565
38.5945
38.6326
38.6706
38.7087
38.7467
38.7848
38.8228
38.8609
38.8989
38.937
38.975
39.0131
39.0511
39.0892
39.1272
39.1652
39.2033
39.2413
39.2794
39.3174
39.3555
39.3935
39.4316
39.4696
39.5077
39.5457
39.5838
39.6218
39.6599
39.6979
39.736
39.7741
39.8121
39.8502
39.8882
39.9263
39.9643
40.0024
40.0404
40.0785
40.1165
40.1546
40.1926
40.2307
40.2687
40.3068
40.3448
40.3829
40.4209
40.459
40.4971
40.5351
40.5732
40.6112
40.6493
40.6873
40.7254
40.7634
40.8015
40.8396
40.8776
40.9157
40.9537
40.9918
41.0298
41.0679
41.1059
41.144
41.1821
41.2201
41.2582
41.2962
41.3343
41.3723
41.4104
41.4485
41.4865
41.5246
41.5626
41.6007
41.6388
41.6768
41.7149
41.7529
41.791
41.8291
41.8671
41.9052
41.9432
41.9813
42.0194
42.0574
42.0955
42.1335
42.1716
42.2097
42.2477
42.2858
42.3238
42.3619
42.4
42.438
42.4761
42.5142
42.5522
42.5903
42.6283
42.6664
42.7045
42.7425
42.7806
42.8187
42.8567
42.8948
42.9328
42.9709
43.009
43.047
43.0851
43.1232
43.1612
43.1993
43.2374
43.2754
43.3135
43.3516
43.3896
43.4277
43.4658
43.5038
43.5419
43.58
43.618
43.6561
43.6942
43.7322
43.7703
43.8084
43.8464
43.8845
43.9226
43.9606
43.9987
44.0368
44.0748
44.1129
44.151
44.189
44.2271
44.2652
44.3032
44.3413
44.3794
44.4175
44.4555
44.4936
44.5317
44.5697
44.6078
44.6459
44.6839
44.722
44.7601
44.7982
44.8362
44.8743
44.9124
44.9504
44.9885
45.0266
45.0647
45.1027
45.1408
45.1789
45.217
45.255
45.2931
45.3312
45.3692
45.4073
45.4454
45.4835
45.5215
45.5596
45.5977
45.6358
45.6738
45.7119
45.75
45.7881
45.8261
45.8642
45.9023
45.9404
45.9784
46.0165
46.0546
46.0927
46.1307
46.1688
46.2069
46.245
46.2831
46.3211
46.3592
46.3973
46.4354
46.4734
46.5115
46.5496
46.5877
46.6258
46.6638
46.7019
46.74
46.7781
46.8161
46.8542
46.8923
46.9304
46.9685
47.0065
47.0446
47.0827
47.1208
47.1589
47.1969
47.235
47.2731
47.3112
47.3493
47.3873
47.4254
47.4635
47.5016
47.5397
47.5778
47.6158
47.6539
47.692
47.7301
47.7682
47.8062
47.8443
47.8824
47.9205
47.9586
47.9967
48.0347
48.0728
48.1109
48.149
48.1871
48.2252
48.2632
48.3013
48.3394
48.3775
48.4156
48.4537
48.4918
48.5298
48.5679
48.606
48.6441
48.6822
48.7203
48.7584
48.7964
48.8345
48.8726
48.9107
48.9488
48.9869
49.025
49.0631
49.1011
49.1392
49.1773
49.2154
49.2535
49.2916
49.3297
49.3678
49.4058
49.4439
49.482
49.5201
49.5582
49.5963
49.6344
49.6725
49.7106
49.7486
49.7867
49.8248
49.8629
49.901
49.9391
49.9772
50.0153
50.0534
50.0915
50.1296
50.1676
50.2057
50.2438
50.2819
50.32
50.3581
50.3962
50.4343
50.4724
50.5105
50.5486
50.5867
50.6247
50.6628
50.7009
50.739
50.7771
50.8152
50.8533
50.8914
50.9295
50.9676
51.0057
51.0438
51.0819
51.12
51.1581
51.1962
51.2343
51.2724
51.3104
51.3485
51.3866
51.4247
51.4628
51.5009
51.539
51.5771
51.6152
51.6533
51.6914
51.7295
51.7676
51.8057
51.8438
51.8819
51.92
51.9581
51.9962
52.0343
52.0724
52.1105
52.1486
52.1867
52.2248
52.2629
52.301
52.3391
52.3772
52.4153
52.4534
52.4915
52.5296
52.5677
52.6058
52.6439
52.682
52.7201
52.7582
52.7963
52.8344
52.8725
52.9106
52.9487
52.9868
53.0249
53.063
53.1011
53.1392
53.1773
53.2154
53.2535
53.2916
53.3297
53.3678
53.4059
53.444
53.4821
53.5202
53.5583
53.5964
53.6345
53.6726
53.7107
53.7488
53.7869
53.825
53.8631
53.9013
53.9394
53.9775
54.0156
54.0537
54.0918
54.1299
54.168
54.2061
54.2442
54.2823
54.3204
54.3585
54.3966
54.4347
54.4728
54.5109
54.5491
54.5872
54.6253
54.6634
54.7015
54.7396
54.7777
54.8158
54.8539
54.892
54.9301
54.9682
55.0063
55.0445
55.0826
55.1207
55.1588
55.1969
55.235
55.2731
55.3112
55.3493
55.3874
55.4255
55.4637
55.5018
55.5399
55.578
55.6161
55.6542
55.6923
55.7304
55.7685
55.8067
55.8448
55.8829
55.921
55.9591
55.9972
56.0353
56.0734
56.1115
56.1497
56.1878
56.2259
56.264
56.3021
56.3402
56.3783
56.4164
56.4546
56.4927
56.5308
56.5689
56.607
56.6451
56.6832
56.7214
56.7595
56.7976
56.8357
56.8738
56.9119
56.95
56.9882
57.0263
57.0644
57.1025
57.1406
57.1787
57.2169
57.255
57.2931
57.3312
57.3693
57.4074
57.4456
57.4837
57.5218
57.5599
57.598
57.6361
57.6743
57.7124
57.7505
57.7886
57.8267
57.8648
57.903
57.9411
57.9792
58.0173
58.0554
58.0936
58.1317
58.1698
58.2079
58.246
58.2841
58.3223
58.3604
58.3985
58.4366
58.4747
58.5129
58.551
58.5891
58.6272
58.6653
58.7035
58.7416
58.7797
58.8178
58.856
58.8941
58.9322
58.9703
59.0084
59.0466
59.0847
59.1228
59.1609
59.199
59.2372
59.2753
59.3134
59.3515
59.3897
59.4278
59.4659
59.504
59.5422
59.5803
59.6184
59.6565
59.6946
59.7328
59.7709
59.809
59.8471
59.8853
59.9234
59.9615
59.9996
60.0378
60.0759
60.114
60.1521
60.1903
60.2284
60.2665
60.3046
60.3428
60.3809
60.419
60.4571
60.4953
60.5334
60.5715
60.6097
60.6478
60.6859
60.724
60.7622
60.8003
60.8384
60.8765
60.9147
60.9528
60.9909
61.0291
61.0672
61.1053
61.1434
61.1816
61.2197
61.2578
61.296
61.3341
61.3722
61.4103
61.4485
61.4866
61.5247
61.5629
61.601
61.6391
61.6773
61.7154
61.7535
61.7916
61.8298
61.8679
61.906
61.9442
61.9823
62.0204
62.0586
62.0967
62.1348
62.173
62.2111
62.2492
62.2873
62.3255
62.3636
62.4017
62.4399
62.478
62.5161
62.5543
62.5924
62.6305
62.6687
62.7068
62.7449
62.7831
62.8212
62.8593
62.8975
62.9356
62.9737
63.0119
63.05
63.0881
63.1263
63.1644
63.2025
63.2407
63.2788
63.3169
63.3551
63.3932
63.4314
63.4695
63.5076
63.5458
63.5839
63.622
63.6602
63.6983
63.7364
63.7746
63.8127
63.8508
63.889
63.9271
63.9653
64.0034
64.0415
64.0797
64.1178
64.1559
64.1941
64.2322
64.2704
64.3085
64.3466
64.3848
64.4229
64.461
64.4992
64.5373
64.5755
64.6136
64.6517
64.6899
64.728
64.7662
64.8043
64.8424
64.8806
64.9187
64.9568
64.995
65.0331
65.0713
65.1094
65.1475
65.1857
65.2238
65.262
65.3001
65.3383
65.3764
65.4145
65.4527
65.4908
65.529
65.5671
65.6052
65.6434
65.6815
65.7197
65.7578
65.7959
65.8341
65.8722
65.9104
65.9485
65.9867
66.0248
66.0629
66.1011
66.1392
66.1774
66.2155
66.2537
66.2918
66.3299
66.3681
66.4062
66.4444
66.4825
66.5207
66.5588
66.5969
66.6351
66.6732
66.7114
66.7495
66.7877
66.8258
66.864
66.9021
66.9402
66.9784
67.0165
67.0547
67.0928
67.131
67.1691
67.2073
67.2454
67.2836
67.3217
67.3599
67.398
67.4361
67.4743
67.5124
67.5506
67.5887
67.6269
67.665
67.7032
67.7413
67.7795
67.8176
67.8558
67.8939
67.9321
67.9702
68.0083
68.0465
68.0846
68.1228
68.1609
68.1991
68.2372
68.2754
68.3135
68.3517
68.3898
68.428
68.4661
68.5043
68.5424
68.5806
68.6187
68.6569
68.695
68.7332
68.7713
68.8095
68.8476
68.8858
68.9239
68.9621
69.0002
69.0384
69.0765
69.1147
69.1528
69.191
69.2291
69.2673
69.3054
69.3436
69.3817
69.4199
69.458
69.4962
69.5343
69.5725
69.6106
69.6488
69.6869
69.7251
69.7632
69.8014
69.8396
69.8777
69.9159
69.954
69.9922
70.0303
70.0685
70.1066
70.1448
70.1829
70.2211
70.2592
70.2974
70.3355
70.3737
70.4118
70.45
70.4882
70.5263
70.5645
70.6026
70.6408
70.6789
70.7171
70.7552
70.7934
70.8315
70.8697
70.9078
70.946
70.9842
71.0223
71.0605
71.0986
71.1368
71.1749
71.2131
71.2512
71.2894
71.3276
71.3657
71.4039
71.442
71.4802
71.5183
71.5565
71.5946
71.6328
71.671
71.7091
71.7473
71.7854
71.8236
71.8617
71.8999
71.9381
71.9762
72.0144
72.0525
72.0907
72.1288
72.167
72.2052
72.2433
72.2815
72.3196
72.3578
72.3959
72.4341
72.4723
72.5104
72.5486
72.5867
72.6249
72.6631
72.7012
72.7394
72.7775
72.8157
72.8539
72.892
72.9302
72.9683
73.0065
73.0446
73.0828
73.121
73.1591
73.1973
73.2354
73.2736
73.3118
73.3499
73.3881
73.4262
73.4644
73.5026
73.5407
73.5789
73.617
73.6552
73.6934
73.7315
73.7697
73.8079
73.846
73.8842
73.9223
73.9605
73.9987
74.0368
74.075
74.1131
74.1513
74.1895
74.2276
74.2658
74.3039
74.3421
74.3803
74.4184
74.4566
74.4948
74.5329
74.5711
74.6092
74.6474
74.6856
74.7237
74.7619
74.8001
74.8382
74.8764
74.9145
74.9527
74.9909
75.029
75.0672
75.1054
75.1435
75.1817
75.2199
75.258
75.2962
75.3343
75.3725
75.4107
75.4488
75.487
75.5252
75.5633
75.6015
75.6397
75.6778
75.716
75.7541
75.7923
75.8305
75.8686
75.9068
75.945
75.9831
76.0213
76.0595
76.0976
76.1358
76.174
76.2121
76.2503
76.2885
76.3266
76.3648
76.403
76.4411
76.4793
76.5174
76.5556
76.5938
76.6319
76.6701
76.7083
76.7464
76.7846
76.8228
76.8609
76.8991
76.9373
76.9754
77.0136
77.0518
77.0899
77.1281
77.1663
77.2044
77.2426
77.2808
77.3189
77.3571
77.3953
77.4334
77.4716
77.5098
77.5479
77.5861
77.6243
77.6624
77.7006
77.7388
77.7769
77.8151
77.8533
77.8915
77.9296
77.9678
78.006
78.0441
78.0823
78.1205
78.1586
78.1968
78.235
78.2731
78.3113
78.3495
78.3876
78.4258
78.464
78.5021
78.5403
78.5785
78.6166
78.6548
78.693
78.7312
78.7693
78.8075
78.8457
78.8838
78.922
78.9602
78.9983
79.0365
79.0747
79.1128
79.151
79.1892
79.2274
79.2655
79.3037
79.3419
79.38
79.4182
79.4564
79.4945
79.5327
79.5709
79.609
79.6472
79.6854
79.7236
79.7617
79.7999
79.8381
79.8762
79.9144
79.9526
79.9907
80.0289
80.0671
80.1053
80.1434
80.1816
80.2198
80.2579
80.2961
80.3343
80.3725
80.4106
80.4488
80.487
80.5251
80.5633
80.6015
80.6397
80.6778
80.716
80.7542
80.7923
80.8305
80.8687
80.9068
80.945
80.9832
81.0214
81.0595
81.0977
81.1359
81.174
81.2122
81.2504
81.2886
81.3267
81.3649
81.4031
81.4412
81.4794
81.5176
81.5558
81.5939
81.6321
81.6703
81.7084
81.7466
81.7848
81.823
81.8611
81.8993
81.9375
81.9757
82.0138
82.052
82.0902
82.1283
82.1665
82.2047
82.2429
82.281
82.3192
82.3574
82.3955
82.4337
82.4719
82.5101
82.5482
82.5864
82.6246
82.6627
82.7009
82.7391
82.7773
82.8154
82.8536
82.8918
82.93
82.9681
83.0063
83.0445
83.0826
83.1208
83.159
83.1972
83.2353
83.2735
83.3117
83.3499
83.388
83.4262
83.4644
83.5025
83.5407
83.5789
83.6171
83.6552
83.6934
83.7316
83.7698
83.8079
83.8461
83.8843
83.9224
83.9606
83.9988
84.037
84.0751
84.1133
84.1515
84.1897
84.2278
84.266
84.3042
84.3423
84.3805
84.4187
84.4569
84.495
84.5332
84.5714
84.6096
84.6477
84.6859
84.7241
84.7622
84.8004
84.8386
84.8768
84.9149
84.9531
84.9913
85.0295
85.0676
85.1058
85.144
85.1821
85.2203
85.2585
85.2967
85.3348
85.373
85.4112
85.4494
85.4875
85.5257
85.5639
85.6021
85.6402
85.6784
85.7166
85.7547
85.7929
85.8311
85.8693
85.9074
85.9456
85.9838
86.022
86.0601
86.0983
86.1365
86.1746
86.2128
86.251
86.2892
86.3273
86.3655
86.4037
86.4419
86.48
86.5182
86.5564
86.5945
86.6327
86.6709
86.7091
86.7472
86.7854
86.8236
86.8617
86.8999
86.9381
86.9763
87.0144
87.0526
87.0908
87.129
87.1671
87.2053
87.2435
87.2816
87.3198
87.358
87.3962
87.4343
87.4725
87.5107
87.5488
87.587
87.6252
87.6634
87.7015
87.7397
87.7779
87.816
87.8542
87.8924
87.9306
87.9687
88.0069
88.0451
88.0832
88.1214
88.1596
88.1978
88.2359
88.2741
88.3123
88.3504
88.3886
88.4268
88.465
88.5031
88.5413
88.5795
88.6176
88.6558
88.694
88.7322
88.7703
88.8085
88.8467
88.8848
88.923
88.9612
88.9994
89.0375
89.0757
89.1139
89.152
89.1902
89.2284
89.2665
89.3047
89.3429
89.3811
89.4192
89.4574
89.4956
89.5337
89.5719
89.6101
89.6482
89.6864
89.7246
89.7628
89.8009
89.8391
89.8773
89.9154
89.9536
89.9918
90.0299
90.0681
90.1063
90.1444
90.1826
90.2208
90.2589
90.2971
90.3353
90.3735
90.4116
90.4498
90.488
90.5261
90.5643
90.6025
90.6406
90.6788
90.717
90.7551
90.7933
90.8315
90.8696
90.9078
90.946
90.9841
91.0223
91.0605
91.0986
91.1368
91.175
91.2131
91.2513
91.2895
91.3276
91.3658
91.404
91.4421
91.4803
91.5185
91.5566
91.5948
91.633
91.6711
91.7093
91.7475
91.7856
91.8238
91.862
91.9001
91.9383
91.9765
92.0146
92.0528
92.091
92.1291
92.1673
92.2054
92.2436
92.2818
92.3199
92.3581
92.3963
92.4344
92.4726
92.5108
92.5489
92.5871
92.6253
92.6634
92.7016
92.7397
92.7779
92.8161
92.8542
92.8924
92.9306
92.9687
93.0069
93.045
93.0832
93.1214
93.1595
93.1977
93.2359
93.274
93.3122
93.3503
93.3885
93.4267
93.4648
93.503
93.5411
93.5793
93.6175
93.6556
93.6938
93.7319
93.7701
93.8083
93.8464
93.8846
93.9227
93.9609
93.9991
94.0372
94.0754
94.1135
94.1517
94.1899
94.228
94.2662
94.3043
94.3425
94.3806
94.4188
94.457
94.4951
94.5333
94.5714
94.6096
94.6478
94.6859
94.7241
94.7622
94.8004
94.8385
94.8767
94.9148
94.953
94.9912
95.0293
95.0675
95.1056
95.1438
95.1819
95.2201
95.2582
95.2964
95.3346
95.3727
95.4109
95.449
95.4872
95.5253
95.5635
95.6016
95.6398
95.6779
95.7161
95.7542
95.7924
95.8305
95.8687
95.9068
95.945
95.9831
96.0213
96.0595
96.0976
96.1358
96.1739
96.2121
96.2502
96.2884
96.3265
96.3647
96.4028
96.441
96.4791
96.5172
96.5554
96.5935
96.6317
96.6698
96.708
96.7461
96.7843
96.8224
96.8606
96.8987
96.9369
96.975
97.0132
97.0513
97.0895
97.1276
97.1658
97.2039
97.242
97.2802
97.3183
97.3565
97.3946
97.4328
97.4709
97.5091
97.5472
97.5853
97.6235
97.6616
97.6998
97.7379
97.7761
97.8142
97.8523
97.8905
97.9286
97.9668
98.0049
98.043
98.0812
98.1193
98.1575
98.1956
98.2337
98.2719
98.31
98.3482
98.3863
98.4244
98.4626
98.5007
98.5388
98.577
98.6151
98.6533
98.6914
98.7295
98.7677
98.8058
98.8439
98.8821
98.9202
98.9583
98.9965
99.0346
99.0727
99.1109
99.149
99.1871
99.2253
99.2634
99.3015
99.3397
99.3778
99.4159
99.4541
99.4922
99.5303
99.5685
99.6066
99.6447
99.6829
99.721
99.7591
99.7972
99.8354
99.8735
99.9116
99.9498
99.9879
100.026
100.064
100.102
100.14
100.179
100.217
100.255
100.293
100.331
100.369
100.407
100.445
100.484
100.522
100.56
100.598
100.636
100.674
100.712
100.75
100.788
100.827
100.865
100.903
100.941
100.979
101.017
101.055
101.093
101.132
101.17
101.208
101.246
101.284
101.322
101.36
101.398
101.436
101.475
101.513
101.551
101.589
101.627
101.665
101.703
101.741
101.78
101.818
101.856
101.894
101.932
101.97
102.008
102.046
102.084
102.123
102.161
102.199
102.237
102.275
102.313
102.351
102.389
102.427
102.465
102.504
102.542
102.58
102.618
102.656
102.694
102.732
102.77
102.808
102.847
102.885
102.923
102.961
102.999
103.037
103.075
103.113
103.151
103.189
103.227
103.266
103.304
103.342
103.38
103.418
103.456
103.494
103.532
103.57
103.608
103.647
103.685
103.723
103.761
103.799
103.837
103.875
103.913
103.951
103.989
104.027
104.066
104.104
104.142
104.18
104.218
104.256
104.294
104.332
104.37
104.408
104.446
104.484
104.523
104.561
104.599
104.637
104.675
104.713
104.751
104.789
104.827
104.865
104.903
104.941
104.979
105.018
105.056
105.094
105.132
105.17
105.208
105.246
105.284
105.322
105.36
105.398
105.436
105.474
105.512
105.551
105.589
105.627
105.665
105.703
105.741
105.779
105.817
105.855
105.893
105.931
105.969
106.007
106.045
106.083
106.121
106.159
106.198
106.236
106.274
106.312
106.35
106.388
106.426
106.464
106.502
106.54
106.578
106.616
106.654
106.692
106.73
106.768
106.806
106.844
106.882
106.921
106.959
106.997
107.035
107.073
107.111
107.149
107.187
107.225
107.263
107.301
107.339
107.377
107.415
107.453
107.491
107.529
107.567
107.605
107.643
107.681
107.719
107.757
107.795
107.833
107.871
107.909
107.947
107.985
108.024
108.062
108.1
108.138
108.176
108.214
108.252
108.29
108.328
108.366
108.404
108.442
108.48
108.518
108.556
108.594
108.632
108.67
108.708
108.746
108.784
108.822
108.86
108.898
108.936
108.974
109.012
109.05
109.088
109.126
109.164
109.202
109.24
109.278
109.316
109.354
109.392
109.43
109.468
109.506
109.544
109.582
109.62
109.658
109.696
109.734
109.772
109.81
109.848
109.886
109.924
109.962
110
110.038
110.076
110.114
110.152
110.19
110.227
110.265
110.303
110.341
110.379
110.417
110.455
110.493
110.531
110.569
110.607
110.645
110.683
110.721
110.759
110.797
110.835
110.873
110.911
110.949
110.987
111.025
111.063
111.101
111.139
111.176
111.214
111.252
111.29
111.328
111.366
111.404
111.442
111.48
111.518
111.556
111.594
111.632
111.67
111.708
111.746
111.783
111.821
111.859
111.897
111.935
111.973
112.011
112.049
112.087
112.125
112.163
112.201
112.239
112.276
112.314
112.352
112.39
112.428
112.466
112.504
112.542
112.58
112.618
112.656
112.693
112.731
112.769
112.807
112.845
112.883
112.921
112.959
112.997
113.034
113.072
113.11
113.148
113.186
113.224
113.262
113.3
113.337
113.375
113.413
113.451
113.489
113.527
113.565
113.603
113.64
113.678
113.716
113.754
113.792
113.83
113.868
113.905
113.943
113.981
114.019
114.057
114.095
114.133
114.17
114.208
114.246
114.284
114.322
114.36
114.397
114.435
114.473
114.511
114.549
114.587
114.624
114.662
114.7
114.738
114.776
114.813
114.851
114.889
114.927
114.965
115.002
115.04
115.078
115.116
115.154
115.191
115.229
115.267
115.305
115.343
115.38
115.418
115.456
115.494
115.532
115.569
115.607
115.645
115.683
115.72
115.758
115.796
115.834
115.871
115.909
115.947
115.985
116.022
116.06
116.098
116.136
116.173
116.211
116.249
116.287
116.324
116.362
116.4
116.438
116.475
116.513
116.551
116.588
116.626
116.664
116.702
116.739
116.777
116.815
116.852
116.89
116.928
116.966
117.003
117.041
117.079
117.116
117.154
117.192
117.229
117.267
117.305
117.342
117.38
117.418
117.455
117.493
117.531
117.568
117.606
117.644
117.681
117.719
117.757
117.794
117.832
117.87
117.907
117.945
117.982
118.02
118.058
118.095
118.133
118.171
118.208
118.246
118.283
118.321
118.359
118.396
118.434
118.471
118.509
118.547
118.584
118.622
118.659
118.697
118.734
118.772
118.81
118.847
118.885
118.922
118.96
118.997
119.035
119.072
119.11
119.148
119.185
119.223
119.26
119.298
119.335
119.373
119.41
119.448
119.485
119.523
119.56
119.598
119.635
119.673
119.71
119.748
119.785
119.823
119.86
119.898
119.935
119.973
120.01
120.047
120.085
120.122
120.16
120.197
120.235
120.272
120.31
120.347
120.384
120.422
120.459
120.497
120.534
120.571
120.609
120.646
120.684
120.721
120.758
120.796
120.833
120.871
120.908
120.945
120.983
121.02
121.057
121.095
121.132
121.169
121.207
121.244
121.281
121.319
121.356
121.393
121.431
121.468
121.505
121.542
121.58
121.617
121.654
121.692
121.729
121.766
121.803
121.841
121.878
121.915
121.952
121.99
122.027
122.064
122.101
122.138
122.176
122.213
122.25
122.287
122.324
122.362
122.399
122.436
122.473
122.51
122.548
122.585
122.622
122.659
122.696
122.733
122.77
122.807
122.845
122.882
122.919
122.956
122.993
123.03
123.067
123.104
123.141
123.178
123.215
123.252
123.289
123.327
123.364
123.401
123.438
123.475
123.512
123.549
123.586
123.623
123.66
123.697
123.734
123.77
123.807
123.844
123.881
123.918
123.955
123.992
124.029
124.066
124.103
124.14
124.177
124.213
124.25
124.287
124.324
124.361
124.398
124.435
124.471
124.508
124.545
124.582
124.619
124.655
124.692
124.729
124.766
124.803
124.839
124.876
124.913
124.95
124.986
125.023
125.06
125.096
125.133
125.17
125.206
125.243
125.28
125.316
125.353
125.39
125.426
125.463
125.499
125.536
125.573
125.609
125.646
125.682
125.719
125.755
125.792
125.828
125.865
125.901
125.938
125.974
126.011
126.047
126.084
126.12
126.157
126.193
126.229
126.266
126.302
126.339
126.375
126.411
126.448
126.484
126.52
126.557
126.593
126.629
126.666
126.702
126.738
126.774
126.811
126.847
126.883
126.919
126.955
126.992
127.028
127.064
127.1
127.136
127.172
127.208
127.245
127.281
127.317
127.353
127.389
127.425
127.461
127.497
127.533
127.569
127.605
127.641
127.677
127.713
127.749
127.784
127.82
127.856
127.892
127.928
127.964
128
128.035
128.071
128.107
128.143
128.179
128.214
128.25
128.286
128.321
128.357
128.393
128.428
128.464
128.5
128.535
128.571
128.606
128.642
128.677
128.713
128.748
128.784
128.819
128.855
128.89
128.926
128.961
128.997
129.032
129.067
129.103
129.138
129.173
129.208
129.244
129.279
129.314
129.349
129.385
129.42
129.455
129.49
129.525
129.56
129.595
129.63
129.665
129.7
129.735
129.77
129.805
129.84
129.875
129.91
129.945
129.98
130.015
130.049
130.084
130.119
130.154
130.188
130.223
130.258
130.293
130.327
130.362
130.396
130.431
130.465
130.5
130.535
130.569
130.603
130.638
130.672
130.707
130.741
130.775
130.81
130.844
130.878
130.912
130.947
130.981
131.015
131.049
131.083
131.117
131.151
131.185
131.219
131.253
131.287
131.321
131.355
131.389
131.423
131.457
131.49
131.524
131.558
131.592
131.625
131.659
131.692
131.726
131.76
131.793
131.827
131.86
131.893
131.927
131.96
131.993
132.027
132.06
132.093
132.126
132.16
132.193
132.226
132.259
132.292
132.325
132.358
132.391
132.424
132.457
132.49
132.522
132.555
132.588
132.62
132.653
132.686
132.718
132.751
132.783
132.816
132.848
132.881
132.913
132.945
132.978
133.01
133.042
133.074
133.106
133.139
133.171
133.203
133.235
133.266
133.298
133.33
133.362
133.394
133.426
133.457
133.489
133.52
133.552
133.584
133.615
133.646
133.678
133.709
133.74
133.772
133.803
133.834
133.865
133.896
133.927
133.958
133.989
134.02
134.051
134.082
134.112
134.143
134.174
134.204
134.235
134.265
134.296
134.326
134.357
134.387
134.417
134.447
134.478
134.508
134.538
134.568
134.598
134.628
134.658
134.687
134.717
134.747
134.776
134.806
134.836
134.865
134.894
134.924
134.953
134.982
135.012
135.041
135.07
135.099
135.128
135.157
135.186
135.215
135.243
135.272
135.301
135.329
135.358
135.386
135.415
135.443
135.471
135.5
135.528
135.556
135.584
135.612
135.64
135.668
135.696
135.723
135.751
135.779
135.806
135.834
135.861
135.889
135.916
135.943
135.971
135.998
136.025
136.052
136.079
136.106
136.133
136.159
136.186
136.213
136.239
136.266
136.292
136.319
136.345
136.371
136.398
136.424
136.45
136.476
136.502
136.528
136.554
136.579
136.605
136.631
136.656
136.682
136.707
136.733
136.758
136.783
136.809
136.834
136.859
136.884
136.909
136.934
136.958
136.983
137.008
137.033
137.057
137.082
137.106
137.13
137.155
137.179
137.203
137.227
137.251
137.275
137.299
137.323
137.347
137.371
137.394
137.418
137.442
137.465
137.489
137.512
137.535
137.559
137.582
137.605
137.628
137.651
137.674
137.697
137.72
137.743
137.765
137.788
137.811
137.833
137.856
137.878
137.9
137.923
137.945
137.967
137.989
138.011
138.033
138.055
138.077
138.099
138.121
138.143
138.165
138.186
138.208
138.229
138.251
138.272
138.294
138.315
138.337
138.358
138.379
138.4
138.421
138.442
138.463
138.484
138.505
138.526
138.547
138.568
138.589
138.609
138.63
138.651
138.671
138.692
138.712
138.733
138.753
138.773
138.794
138.814
138.834
138.854
138.874
138.895
138.915
138.935
138.955
138.975
138.995
139.015
139.034
139.054
139.074
139.094
139.113
139.133
139.153
139.172
139.192
139.212
139.231
139.251
139.27
139.29
139.309
139.328
139.348
139.367
139.386
139.406
139.425
139.444
139.463
139.482
139.501
139.521
139.54
139.559
139.578
139.597
139.616
139.635
139.654
139.673
139.692
139.71
139.729
139.748
139.767
139.786
139.805
139.823
139.842
139.861
139.88
139.898
139.917
139.936
139.954
139.973
139.991
140.01
140.029
140.047
140.066
140.084
140.103
140.121
140.14
140.158
140.177
140.195
140.214
140.232
140.251
140.269
140.287
140.306
140.324
140.343
140.361
140.379
140.398
140.416
140.434
140.453
140.471
140.489
140.507
140.526
140.544
140.562
140.581
140.599
140.617
140.635
140.653
140.672
140.69
140.708
140.726
140.744
140.763
140.781
140.799
140.817
140.835
140.854
140.872