/*--------------------------------*- C++ -*----------------------------------*\
  =========                 |
  \\      /  F ield         | OpenFOAM: The Open Source CFD Toolbox
   \\    /   O peration     | Website:  https://openfoam.org
    \\  /    A nd           | Version:  9
     \\/     M anipulation  |
\*---------------------------------------------------------------------------*/
FoamFile
{
    format      ascii;
    class       volScalarField;
    location    "0.014";
    object      p;
}
// * * * * * * * * * * * * * * * * * * * * * * * * * * * * * * * * * * * * * //

dimensions      [1 -1 -2 0 0 0 0];

internalField   nonuniform List<scalar> 
1000
(
94039.5
93634.4
93440.3
93248.2
93066.4
92892
92727.3
92574
92431.5
92296.9
92165.7
92031.6
91886.4
91720.5
91527.2
91309.6
91080.8
90854
90634.7
90422.8
90216
90012.2
89809.7
89607.9
89406.2
89204.8
89003.5
88802.6
88601.9
88401.7
88201.8
88002.3
87803.3
87604.6
87406.3
87208.4
87010.9
86813.8
86617.1
86420.8
86224.9
86029.3
85834.2
85639.5
85445.1
85251.2
85057.6
84864.5
84671.7
84479.3
84287.3
84095.7
83904.5
83713.7
83523.2
83333.2
83143.5
82954.2
82765.3
82576.7
82388.6
82200.8
82013.4
81826.4
81639.8
81453.5
81267.7
81082.2
80897
80712.3
80527.9
80343.9
80160.2
79977
79794.1
79611.5
79429.4
79247.6
79066.1
78885.1
78704.4
78524
78344.1
78164.4
77985.2
77806.3
77627.8
77449.6
77271.8
77094.3
76917.2
76740.5
76564.1
76388
76212.3
76037
75862
75687.4
75513.1
75339.2
75165.6
74992.4
74819.5
74646.9
74474.7
74302.9
74131.4
73960.2
73789.4
73618.9
73448.8
73279
73109.5
72940.4
72771.6
72603.2
72435.1
72267.3
72099.9
71932.8
71766.1
71599.7
71433.6
71267.8
71102.4
70937.3
70772.6
70608.1
70444
70280.3
70116.8
69953.7
69791
69628.5
69466.4
69304.6
69143.1
68981.9
68821.1
68660.6
68500.4
68340.6
68181
68021.8
67862.9
67704.4
67546.1
67388.2
67230.5
67073.2
66916.3
66759.6
66603.2
66447.2
66291.5
66136.1
65981
65826.2
65671.7
65517.6
65363.7
65210.2
65057
64904
64751.4
64599.1
64447.1
64295.5
64144.1
63993
63842.3
63691.8
63541.6
63391.8
63242.2
63093
62944
62795.4
62647.1
62499
62351.3
62203.8
62056.7
61909.9
61763.3
61617.1
61471.1
61325.5
61180.1
61035.1
60890.3
60745.8
60601.6
60457.8
60314.2
60170.9
60027.9
59885.1
59742.7
59600.6
59458.7
59317.2
59175.9
59034.9
58894.2
58753.8
58613.7
58473.9
58334.3
58195.1
58056.1
57917.4
57779
57640.8
57503
57365.4
57228.2
57091.2
56954.4
56818
56681.8
56546
56410.4
56275
56140
56005.2
55870.7
55736.5
55602.6
55468.9
55335.5
55202.4
55069.6
54937
54804.7
54672.7
54540.9
54409.4
54278.2
54147.3
54016.6
53886.2
53756.1
53626.2
53496.6
53367.3
53238.3
53109.5
52980.9
52852.7
52724.7
52596.9
52469.5
52342.3
52215.3
52088.7
51962.3
51836.1
51710.2
51584.6
51459.2
51334.1
51209.3
51084.7
50960.3
50836.3
50712.5
50588.9
50465.6
50342.6
50219.8
50097.2
49975
49852.9
49731.2
49609.7
49488.4
49367.4
49246.7
49126.2
49005.9
48885.9
48766.2
48646.7
48527.4
48408.4
48289.7
48171.2
48052.9
47934.9
47817.2
47699.7
47582.4
47465.4
47348.6
47232.1
47115.8
46999.8
46884
46768.4
46653.1
46538.1
46423.2
46308.7
46194.3
46080.2
45966.4
45852.8
45739.4
45626.2
45513.3
45400.7
45288.3
45176.1
45064.1
44952.4
44841
44729.7
44618.7
44508
44397.4
44287.1
44177.1
44067.2
43957.6
43848.3
43739.2
43630.3
43521.6
43413.2
43304.9
43197
43089.2
42981.7
42874.4
42767.4
42660.6
42554
42447.6
42341.4
42235.5
42129.8
42024.4
41919.1
41814.1
41709.3
41604.8
41500.4
41396.3
41292.4
41188.7
41085.3
40982.1
40879.1
40776.3
40673.7
40571.4
40469.3
40367.4
40265.7
40164.3
40063
39962
39861.2
39760.6
39660.3
39560.1
39460.2
39360.5
39261
39161.7
39062.6
38963.8
38865.1
38766.7
38668.5
38570.5
38472.7
38375.2
38277.8
38180.7
38083.7
37987
37890.5
37794.2
37698.1
37602.2
37506.6
37411.1
37315.9
37220.8
37126
37031.4
36937
36842.8
36748.8
36655
36561.4
36468
36374.8
36281.9
36189.2
36096.7
36004.3
35912
35819.9
35728
35636.6
35545.6
35454.9
35364.2
35273.2
35181.9
35090.6
35000
34910.6
34822.8
34735.4
34646.7
34556.1
34464.6
34373
34282.5
34194.9
34113.2
34032.6
33944.5
33853
33760.8
33668.9
33578.2
33490.7
33412.1
33339
33253.1
33162.6
33071.4
32980.4
32890.3
32802.2
32719.4
32648.6
32570.9
32483.6
32394.8
32305.9
32217.6
32130.4
32045.9
31969.1
31897.5
31815.2
31729.5
31643.5
31557.8
31473
31389.9
31311.2
31238.7
31161
31079.8
30998.7
30918.9
30841.2
30766.9
30698
30635.6
30574.6
30516.8
30464.5
30418.5
30379.3
30347.3
30322.9
30304.1
30289.1
30278.6
30271.7
30267.5
30265.5
30264.8
30264.5
30264.4
30264.3
30264.5
30265.6
30268.7
30274.5
30280.8
30285.4
30288.5
30290.5
30292.2
30294.1
30296.8
30301
30305.8
30309.6
30312.3
30314.4
30316.1
30318.2
30321.6
30327.2
30333.5
30338.2
30340.8
30341.9
30342.1
30341.9
30340
30334.5
30326.5
30318.7
30312
30306.6
30302.9
30300.5
30299.3
30298.7
30298.4
30298.2
30297.9
30297.4
30296.9
30296.8
30296.8
30297.3
30299.1
30301.8
30303.8
30305.1
30306.1
30307.1
30308.6
30311.2
30314.6
30317.8
30320.3
30322.5
30324.8
30327.5
30329.9
30331.4
30332.1
30332.2
30331.4
30327.8
30321.5
30316.4
30313.3
30311.3
30310
30308.8
30307.2
30305.2
30303.6
30302.6
30302.3
30302.3
30302.5
30302.9
30303
30303
30302.9
30302.9
30303.2
30304.7
30307.3
30309.6
30311
30311.8
30312.4
30313.1
30314.3
30317
30320.6
30323.5
30325.3
30326.3
30326.9
30327.1
30327.1
30327
30326.2
30323.8
30318.9
30313.8
30310.3
30308.1
30307.1
30306.7
30306.4
30306.2
30305.5
30304.2
30303
30302.5
30302.5
30302.8
30303.6
30304.1
30304.2
30304.1
30304.2
30304.5
30305.8
30308.6
30311
30312.4
30313.1
30313.5
30313.9
30314.6
30316.9
30320.5
30323.5
30325
30325.4
30325.6
30325.1
30323.7
30322.3
30320.9
30319
30315.7
30311.7
30308.8
30307.2
30306.5
30306.3
30306.4
30306.6
30306.5
30305.4
30304.2
30303.5
30303.4
30303.9
30305.1
30305.7
30306
30305.9
30305.9
30306.1
30307.4
30310.1
30312.7
30314
30314.4
30314.6
30314.7
30315.1
30317.2
30320.8
30323.2
30324.2
30324.4
30323.5
30321
30318.9
30317.6
30316.6
30315.4
30313.6
30310.6
30308
30306.6
30306.2
30306.5
30307.4
30307.9
30307.8
30306.7
30305.1
30304.3
30304.1
30304.9
30306.7
30307.8
30308.1
30308.1
30308
30308.4
30309.2
30311.8
30314.2
30315.3
30315.3
30315.2
30315.1
30315.6
30317.8
30321.1
30323.1
30323.6
30323.2
30320.1
30316.5
30314.4
30313.6
30313.2
30312.8
30312.3
30310.3
30307.7
30306.2
30306.1
30306.9
30308.4
30309.2
30309.2
30307.8
30305.8
30304.8
30304.6
30306
30308.4
30309.9
30310.2
30309.9
30309.6
30309.5
30310.2
30313
30315.7
30316.6
30316.4
30316
30315.6
30315.9
30317.9
30320.7
30322.1
30322.4
30320.6
30315.9
30312.6
30311.3
30311.1
30311.8
30312.2
30312
30310.4
30307.3
30305.7
30305.6
30306.9
30309.4
30310.4
30310.4
30308.9
30306.5
30305.4
30305.2
30307.3
30310.5
30312
30312.1
30311.2
30310.1
30309.9
30310.6
30314
30317.3
30318.6
30318.3
30317
30315.8
30315.4
30316.4
30318.6
30319.8
30320
30317.4
30312.4
30309.6
30308.8
30309.3
30311.4
30312.4
30312.3
30310.1
30306.4
30304.7
30304.7
30307.2
30310.8
30312.2
30312.2
30309.9
30307
30305.6
30305.6
30308.8
30312.7
30314.1
30314
30311.7
30309.7
30309.7
30310.7
30315.5
30319.6
30321
30320.2
30316.8
30313.9
30312.6
30313.2
30315.9
30317.5
30318.1
30315.7
30310.5
30307.7
30307
30308.7
30312.4
30313.5
30313.1
30309.8
30305.2
30303.1
30303.3
30307.4
30312.8
30314.6
30314.3
30310.8
30307.1
30305.6
30306
30310.5
30314.9
30315.9
30315
30310.8
30308.3
30308.9
30311.3
30318.3
30322.5
30323.2
30321.2
30315.1
30310.5
30308.7
30309.9
30314.5
30316.6
30316.7
30313.8
30309.2
30306.4
30305.5
30309
30314.7
30316.2
30314.7
30309.7
30304.2
30301.3
30301.5
30307.6
30314.8
30317.2
30316.3
30312
30307.5
30305.1
30306
30313.5
30317.7
30317.9
30315.5
30310.4
30306.6
30305.3
30311
30321.7
30325.5
30325
30320
30313.2
30307.2
30303.9
30308.3
30316.1
30317.5
30314.8
30311.2
30307.5
30302.9
30302.4
30311.2
30319
30318.4
30315
30310.6
30304.8
30298.4
30301.4
30313.4
30318
30316.7
30315
30314.5
30316.7
30334.5
30349.6
30513.8
30633
29988.8
29852
29967.6
30072.7
30343.3
30725.1
30788.5
30754
30436.3
30028.4
29959.2
29938.1
29942.9
30080.4
30521.6
30749.8
30747.3
30684.3
30434.6
30033.2
29951.1
29949.4
29977
30158.3
30554.1
30636.3
30639.8
30624.4
30439.1
30185.1
30279.1
30509.5
30731.8
31066.4
31462.7
31555
31561.2
31507.5
31210.9
30921.6
30883.5
30888.9
30963.8
31282.9
31479.2
31506.7
31509.1
31436.8
31125.5
30918.7
30899.2
30916
31015.1
31336
31493.9
31510
31489.7
31387.9
31065.8
30933.9
30924.1
30940.8
31069
31374.8
31464.1
31478.4
31461.4
31314.1
31023.3
30962.3
30959.1
30985.8
31142.1
31394.1
31447.8
31442.4
31406.3
31243.9
31030.2
30995.7
30997.2
31028.7
31190.6
31380.9
31419.9
31403.6
31351.2
)
;

boundaryField
{
    sides
    {
        type            zeroGradient;
    }
    empty
    {
        type            empty;
    }
}


// ************************************************************************* //
