/*--------------------------------*- C++ -*----------------------------------*\
  =========                 |
  \\      /  F ield         | OpenFOAM: The Open Source CFD Toolbox
   \\    /   O peration     | Website:  https://openfoam.org
    \\  /    A nd           | Version:  9
     \\/     M anipulation  |
\*---------------------------------------------------------------------------*/
FoamFile
{
    format      ascii;
    class       volScalarField;
    location    "0.046";
    object      ddt0(rho,K);
}
// * * * * * * * * * * * * * * * * * * * * * * * * * * * * * * * * * * * * * //

dimensions      [1 -1 -3 0 0 0 0];

internalField   nonuniform List<scalar> 
100
(
-2672.23
-4205.17
-6346.19
-8125.41
-9878.95
-11752.2
-13743
-15881.8
-18066.4
-20224
-22465.8
-24805.6
-27179.7
-29628.4
-32142.1
-34691.6
-37361.6
-40136.7
-42934.2
-45897.2
-48675.7
-51216.1
-53659.5
-56622.2
-60347.6
-63680.4
-68812.6
-76299.5
-79801.1
-85415
-88823.5
-89433.7
-90306.5
-93000.4
-96499.6
-98431.5
-101059
-105569
-109255
-111797
-114847
-119068
-124038
-128586
-132269
-135831
-139792
-144118
-148719
-153307
-157345
-160600
-163590
-167129
-171483
-176199
-180589
-184216
-187097
-189699
-192632
-196248
-200457
-204885
-209154
-213075
-216641
-220214
-223944
-227876
-232030
-236318
-240434
-244362
-248278
-252482
-256941
-261830
-266770
-271455
-275869
-280438
-285367
-290929
-296801
-301641
-304842
-306641
-307343
-309860
-314277
-321518
-331520
-343374
-355200
-366868
-376928
-384748
-392290
-402153
)
;

boundaryField
{
    sides
    {
        type            calculated;
        value           nonuniform List<scalar> 2(-402153 -2672.23);
    }
    empty
    {
        type            empty;
    }
}


// ************************************************************************* //
