/*--------------------------------*- C++ -*----------------------------------*\
  =========                 |
  \\      /  F ield         | OpenFOAM: The Open Source CFD Toolbox
   \\    /   O peration     | Website:  https://openfoam.org
    \\  /    A nd           | Version:  9
     \\/     M anipulation  |
\*---------------------------------------------------------------------------*/
FoamFile
{
    format      ascii;
    class       volVectorField;
    location    "0.046";
    object      ddtCorrDdt0(rho,U);
}
// * * * * * * * * * * * * * * * * * * * * * * * * * * * * * * * * * * * * * //

dimensions      [1 -2 -2 0 0 0 0];

internalField   nonuniform List<vector> 
100
(
(-170.179 0 0)
(-200.765 0 0)
(-240.4 0 0)
(-270.613 0 0)
(-298.894 0 0)
(-327.364 0 0)
(-355.627 0 0)
(-384.843 0 0)
(-413.837 0 0)
(-440.72 0 0)
(-467.12 0 0)
(-493.696 0 0)
(-519.462 0 0)
(-545.095 0 0)
(-570.428 0 0)
(-594.965 0 0)
(-620.15 0 0)
(-645.855 0 0)
(-671.023 0 0)
(-697.076 0 0)
(-720.163 0 0)
(-742.105 0 0)
(-762.092 0 0)
(-787.367 0 0)
(-819.974 0 0)
(-838.271 0 0)
(-876.147 0 0)
(-946.103 0 0)
(-952.404 0 0)
(-1007.48 0 0)
(-1033.89 0 0)
(-1031.09 0 0)
(-1030.39 0 0)
(-1050.02 0 0)
(-1078.18 0 0)
(-1086.5 0 0)
(-1101.7 0 0)
(-1135.18 0 0)
(-1156.86 0 0)
(-1166.39 0 0)
(-1181.71 0 0)
(-1208.74 0 0)
(-1243.31 0 0)
(-1273.32 0 0)
(-1293.28 0 0)
(-1310.4 0 0)
(-1330.95 0 0)
(-1356.23 0 0)
(-1385.8 0 0)
(-1415.69 0 0)
(-1439.54 0 0)
(-1454.81 0 0)
(-1467.1 0 0)
(-1485.16 0 0)
(-1512 0 0)
(-1543.07 0 0)
(-1571.46 0 0)
(-1592.59 0 0)
(-1605.91 0 0)
(-1615.52 0 0)
(-1627.91 0 0)
(-1647.46 0 0)
(-1673.74 0 0)
(-1702.61 0 0)
(-1729.33 0 0)
(-1751.21 0 0)
(-1767.55 0 0)
(-1783.43 0 0)
(-1801.94 0 0)
(-1824.12 0 0)
(-1849.59 0 0)
(-1876.55 0 0)
(-1899.83 0 0)
(-1918.34 0 0)
(-1934.61 0 0)
(-1954.66 0 0)
(-1979.47 0 0)
(-2011.9 0 0)
(-2046.02 0 0)
(-2075.52 0 0)
(-2097.35 0 0)
(-2117.2 0 0)
(-2139.56 0 0)
(-2172.05 0 0)
(-2215.17 0 0)
(-2254.63 0 0)
(-2279.19 0 0)
(-2287.74 0 0)
(-2276.79 0 0)
(-2276.77 0 0)
(-2285.3 0 0)
(-2310.97 0 0)
(-2355.6 0 0)
(-2412.52 0 0)
(-2458.96 0 0)
(-2503.52 0 0)
(-2538.34 0 0)
(-2560.74 0 0)
(-2593.4 0 0)
(-2638.42 0 0)
)
;

boundaryField
{
    sides
    {
        type            calculated;
        value           nonuniform List<vector> 2((-2638.42 0 0) (-170.179 0 0));
    }
    empty
    {
        type            empty;
    }
}


// ************************************************************************* //
