/*--------------------------------*- C++ -*----------------------------------*\
  =========                 |
  \\      /  F ield         | OpenFOAM: The Open Source CFD Toolbox
   \\    /   O peration     | Website:  https://openfoam.org
    \\  /    A nd           | Version:  9
     \\/     M anipulation  |
\*---------------------------------------------------------------------------*/
FoamFile
{
    format      ascii;
    class       volScalarField;
    location    "0.046";
    object      p_0;
}
// * * * * * * * * * * * * * * * * * * * * * * * * * * * * * * * * * * * * * //

dimensions      [1 -1 -2 0 0 0 0];

internalField   nonuniform List<scalar> 
100
(
13625.3
13612
13577.1
13535.7
13508.6
13485.6
13463.1
13441.7
13421.7
13403.2
13386.4
13371.1
13357.3
13344.9
13334.1
13324.9
13317.3
13311.2
13306.9
13304.1
13303.3
13303.4
13303.6
13304.2
13306.2
13310.3
13317.8
13332.6
13355
13386.4
13419.4
13450.4
13479.8
13508.3
13537.2
13566.1
13594.9
13625.4
13658.1
13692
13727.2
13764.7
13804.9
13847.9
13893.3
13941.2
13991.7
14044.8
14100.3
14158.4
14219
14281.7
14346.2
14412.4
14480.4
14550.3
14622
14695
14769.1
14844.1
14919.9
14996.6
15074.2
15152.8
15232.5
15313.1
15394.8
15477.4
15560.7
15644.6
15728.9
15813.6
15898.8
15984.6
16070.8
16157.4
16243.7
16330.1
16415.8
16501.7
16587.2
16672.9
16757.3
16840.3
16919.5
16994.5
17063.7
17127.7
17185.6
17239.8
17289.5
17340.1
17392.1
17450.8
17516.7
17595.5
17683.4
17782.5
17885.7
17999.9
)
;

boundaryField
{
    sides
    {
        type            zeroGradient;
    }
    empty
    {
        type            empty;
    }
}


// ************************************************************************* //
