/*--------------------------------*- C++ -*----------------------------------*\
  =========                 |
  \\      /  F ield         | OpenFOAM: The Open Source CFD Toolbox
   \\    /   O peration     | Website:  https://openfoam.org
    \\  /    A nd           | Version:  9
     \\/     M anipulation  |
\*---------------------------------------------------------------------------*/
FoamFile
{
    format      ascii;
    class       surfaceScalarField;
    location    "0.046";
    object      phi;
}
// * * * * * * * * * * * * * * * * * * * * * * * * * * * * * * * * * * * * * //

dimensions      [1 0 -1 0 0 0 0];

internalField   nonuniform List<scalar> 
99
(
51.7254
53.5565
55.3714
57.1711
58.9617
60.7406
62.5021
64.2495
65.9907
67.7216
69.4379
71.1407
72.8294
74.5043
76.1652
77.8103
79.4413
81.0609
82.6705
84.2689
85.8566
87.4535
89.0585
90.6677
92.2971
93.8586
95.3691
96.9088
98.2905
99.7368
101.2
102.659
104.113
105.588
107.098
108.603
110.108
111.63
113.14
114.625
116.095
117.564
119.045
120.533
122.011
123.467
124.905
126.337
127.779
129.235
130.696
132.147
133.581
135.009
136.448
137.91
139.395
140.894
142.393
143.883
145.367
146.858
148.374
149.921
151.494
153.082
154.667
156.249
157.837
159.445
161.083
162.756
164.452
166.152
167.848
169.551
171.279
173.057
174.894
176.777
178.676
180.579
182.49
184.443
186.484
188.629
190.857
193.13
195.389
197.637
199.863
202.074
204.286
206.511
208.701
210.853
212.962
215.025
217.092
)
;

boundaryField
{
    sides
    {
        type            calculated;
        value           nonuniform List<scalar> 2(219.2 -49.8892);
    }
    empty
    {
        type            empty;
        value           nonuniform List<scalar> 0();
    }
}


// ************************************************************************* //
