/*--------------------------------*- C++ -*----------------------------------*\
  =========                 |
  \\      /  F ield         | OpenFOAM: The Open Source CFD Toolbox
   \\    /   O peration     | Website:  https://openfoam.org
    \\  /    A nd           | Version:  9
     \\/     M anipulation  |
\*---------------------------------------------------------------------------*/
FoamFile
{
    format      ascii;
    class       surfaceScalarField;
    location    "0.046";
    object      phi_0;
}
// * * * * * * * * * * * * * * * * * * * * * * * * * * * * * * * * * * * * * //

dimensions      [1 0 -1 0 0 0 0];

internalField   nonuniform List<scalar> 
99
(
51.7334
53.5656
55.3817
57.1826
58.9744
60.7544
62.517
64.2656
66.0079
67.7399
69.4573
71.1611
72.8508
74.5267
76.1887
77.8347
79.4667
81.0873
82.6979
84.2974
85.8861
87.484
89.0889
90.7039
92.3301
93.8899
95.4023
96.9451
98.3292
99.7776
101.241
102.701
104.155
105.631
107.141
108.646
110.153
111.676
113.187
114.672
116.142
117.613
119.095
120.585
122.063
123.52
124.958
126.391
127.835
129.292
130.754
132.205
133.64
135.068
136.509
137.972
139.458
140.958
142.457
143.947
145.432
146.925
148.442
149.989
151.564
153.152
154.738
156.321
157.91
159.518
161.158
162.832
164.528
166.229
167.926
169.63
171.358
173.138
174.977
176.861
178.76
180.664
182.576
184.53
186.573
188.72
190.948
193.222
195.48
197.728
199.955
202.167
204.382
206.608
208.801
210.954
213.064
215.128
217.196
)
;

boundaryField
{
    sides
    {
        type            calculated;
        value           nonuniform List<scalar> 2(219.305 -49.896);
    }
    empty
    {
        type            empty;
        value           nonuniform List<scalar> 0();
    }
}


// ************************************************************************* //
