/*--------------------------------*- C++ -*----------------------------------*\
  =========                 |
  \\      /  F ield         | OpenFOAM: The Open Source CFD Toolbox
   \\    /   O peration     | Website:  https://openfoam.org
    \\  /    A nd           | Version:  9
     \\/     M anipulation  |
\*---------------------------------------------------------------------------*/
FoamFile
{
    format      ascii;
    class       volScalarField;
    location    "0.045";
    object      ddt0(rho,e);
}
// * * * * * * * * * * * * * * * * * * * * * * * * * * * * * * * * * * * * * //

dimensions      [1 -1 -3 0 0 0 0];

internalField   nonuniform List<scalar> 
100
(
491373
490888
485512
481234
480111
475300
468346
466746
467853
462961
456545
451599
446607
440953
434739
427253
424151
422491
420176
418322
421439
428493
432617
432878
431596
424904
429767
426055
421736
391211
383831
380044
379082
387556
405686
408338
400524
393903
390498
392549
395564
398087
402584
400757
388281
376573
375082
381453
386771
385404
378484
370320
366423
369051
375239
380558
381808
376973
367690
361290
364301
376227
389914
396969
393075
380636
368890
369977
381286
397418
409317
408011
391294
374191
371628
391330
424360
458268
466938
449170
418296
399080
405509
444199
487104
505050
495953
468773
445677
456243
467947
504519
529543
525287
495544
449574
429643
429933
428303
444401
)
;

boundaryField
{
    sides
    {
        type            calculated;
        value           nonuniform List<scalar> 2(444401 491373);
    }
    empty
    {
        type            empty;
    }
}


// ************************************************************************* //
