/*--------------------------------*- C++ -*----------------------------------*\
  =========                 |
  \\      /  F ield         | OpenFOAM: The Open Source CFD Toolbox
   \\    /   O peration     | Website:  https://openfoam.org
    \\  /    A nd           | Version:  9
     \\/     M anipulation  |
\*---------------------------------------------------------------------------*/
FoamFile
{
    format      ascii;
    class       volScalarField;
    location    "0.045";
    object      ddt0(rho);
}
// * * * * * * * * * * * * * * * * * * * * * * * * * * * * * * * * * * * * * //

dimensions      [1 -3 -1 0 0 0 0];

internalField   nonuniform List<scalar> 
100
(
-4.89521
-4.88227
-4.838
-4.80217
-4.77835
-4.74092
-4.69593
-4.66821
-4.64871
-4.60985
-4.56623
-4.52791
-4.49108
-4.45115
-4.41091
-4.3681
-4.33652
-4.31244
-4.28955
-4.26219
-4.25317
-4.26258
-4.26455
-4.25935
-4.25661
-4.21765
-4.22523
-4.1495
-4.08863
-3.79668
-3.77587
-3.79388
-3.79401
-3.82699
-3.97702
-4.00459
-3.93514
-3.92718
-3.94726
-3.96827
-3.97193
-3.9577
-3.96149
-3.9553
-3.91053
-3.86899
-3.86164
-3.87012
-3.86792
-3.85364
-3.84028
-3.83356
-3.83676
-3.85034
-3.86842
-3.88502
-3.89656
-3.89882
-3.89477
-3.90353
-3.94275
-4.01002
-4.08228
-4.1319
-4.14443
-4.12865
-4.11725
-4.15243
-4.22726
-4.32145
-4.4011
-4.4341
-4.41318
-4.39036
-4.42071
-4.53576
-4.70856
-4.89458
-5.00237
-5.01909
-4.98173
-4.96994
-5.03522
-5.20743
-5.40574
-5.53792
-5.59211
-5.59386
-5.61033
-5.73309
-5.85067
-6.03403
-6.12475
-6.09485
-5.94077
-5.70109
-5.56572
-5.51844
-5.48647
-5.5492
)
;

boundaryField
{
    sides
    {
        type            calculated;
        value           nonuniform List<scalar> 2(-5.5492 -4.89521);
    }
    empty
    {
        type            empty;
    }
}


// ************************************************************************* //
