/*--------------------------------*- C++ -*----------------------------------*\
  =========                 |
  \\      /  F ield         | OpenFOAM: The Open Source CFD Toolbox
   \\    /   O peration     | Website:  https://openfoam.org
    \\  /    A nd           | Version:  9
     \\/     M anipulation  |
\*---------------------------------------------------------------------------*/
FoamFile
{
    format      ascii;
    class       volScalarField;
    location    "0.045";
    object      p;
}
// * * * * * * * * * * * * * * * * * * * * * * * * * * * * * * * * * * * * * //

dimensions      [1 -1 -2 0 0 0 0];

internalField   nonuniform List<scalar> 
100
(
13999
13984.4
13946.4
13902.4
13873.1
13847.6
13822.6
13798.6
13776.1
13755.1
13735.9
13718.1
13702
13687.4
13674.4
13663
13653.2
13645
13638.4
13633.5
13630.5
13629.1
13629.1
13629.3
13629.7
13630.9
13633.9
13640.1
13653
13675.7
13707.1
13741
13775.1
13806.3
13837.5
13869.8
13900.1
13929.9
13961.6
13995.2
14030.7
14067.8
14106.7
14148.2
14192.7
14240
14290.2
14343
14398.1
14455.4
14515.3
14578.4
14644.2
14712.4
14782.3
14853.7
14926.5
15000.8
15076.7
15154.2
15233.1
15313.2
15394.3
15476.4
15559.5
15643.4
15728.4
15814.2
15901
15988.8
16077.6
16167.2
16257.4
16348
16438.8
16530
16621.4
16713.7
16806.7
16900.9
16995.6
17090.6
17184.3
17276.3
17364.5
17448.9
17527.7
17601.1
17668.1
17729.7
17785.1
17837.9
17888
17942.2
18002.7
18073.1
18154.7
18251.8
18355.5
18474.4
)
;

boundaryField
{
    sides
    {
        type            zeroGradient;
    }
    empty
    {
        type            empty;
    }
}


// ************************************************************************* //
