/*--------------------------------*- C++ -*----------------------------------*\
  =========                 |
  \\      /  F ield         | OpenFOAM: The Open Source CFD Toolbox
   \\    /   O peration     | Website:  https://openfoam.org
    \\  /    A nd           | Version:  9
     \\/     M anipulation  |
\*---------------------------------------------------------------------------*/
FoamFile
{
    format      ascii;
    class       volVectorField;
    location    "0.045";
    object      U;
}
// * * * * * * * * * * * * * * * * * * * * * * * * * * * * * * * * * * * * * //

dimensions      [0 1 -1 0 0 0 0];

internalField   nonuniform List<vector> 
100
(
(51.2237 0 0)
(52.8618 0 0)
(55.7342 0 0)
(58.3472 0 0)
(60.3874 0 0)
(62.3676 0 0)
(64.3891 0 0)
(66.4224 0 0)
(68.442 0 0)
(70.4359 0 0)
(72.414 0 0)
(74.3805 0 0)
(76.3314 0 0)
(78.2675 0 0)
(80.1859 0 0)
(82.0894 0 0)
(83.9807 0 0)
(85.856 0 0)
(87.7145 0 0)
(89.5583 0 0)
(91.3879 0 0)
(93.1997 0 0)
(95.001 0 0)
(96.8079 0 0)
(98.6234 0 0)
(100.438 0 0)
(102.229 0 0)
(103.96 0 0)
(105.578 0 0)
(107.029 0 0)
(108.374 0 0)
(109.724 0 0)
(111.096 0 0)
(112.48 0 0)
(113.889 0 0)
(115.327 0 0)
(116.761 0 0)
(118.18 0 0)
(119.601 0 0)
(121.025 0 0)
(122.436 0 0)
(123.822 0 0)
(125.176 0 0)
(126.499 0 0)
(127.793 0 0)
(129.063 0 0)
(130.311 0 0)
(131.533 0 0)
(132.719 0 0)
(133.867 0 0)
(134.987 0 0)
(136.088 0 0)
(137.178 0 0)
(138.253 0 0)
(139.308 0 0)
(140.341 0 0)
(141.354 0 0)
(142.353 0 0)
(143.346 0 0)
(144.339 0 0)
(145.334 0 0)
(146.331 0 0)
(147.325 0 0)
(148.314 0 0)
(149.298 0 0)
(150.28 0 0)
(151.264 0 0)
(152.253 0 0)
(153.247 0 0)
(154.245 0 0)
(155.245 0 0)
(156.246 0 0)
(157.25 0 0)
(158.263 0 0)
(159.29 0 0)
(160.334 0 0)
(161.395 0 0)
(162.47 0 0)
(163.558 0 0)
(164.662 0 0)
(165.789 0 0)
(166.944 0 0)
(168.128 0 0)
(169.342 0 0)
(170.586 0 0)
(171.867 0 0)
(173.204 0 0)
(174.612 0 0)
(176.102 0 0)
(177.679 0 0)
(179.325 0 0)
(181.027 0 0)
(182.746 0 0)
(184.431 0 0)
(186.051 0 0)
(187.566 0 0)
(188.938 0 0)
(190.185 0 0)
(191.278 0 0)
(193.284 0 0)
)
;

boundaryField
{
    sides
    {
        type            zeroGradient;
    }
    empty
    {
        type            empty;
    }
}


// ************************************************************************* //
