/*--------------------------------*- C++ -*----------------------------------*\
  =========                 |
  \\      /  F ield         | OpenFOAM: The Open Source CFD Toolbox
   \\    /   O peration     | Website:  https://openfoam.org
    \\  /    A nd           | Version:  9
     \\/     M anipulation  |
\*---------------------------------------------------------------------------*/
FoamFile
{
    format      ascii;
    class       volVectorField;
    location    "0.045";
    object      U_0;
}
// * * * * * * * * * * * * * * * * * * * * * * * * * * * * * * * * * * * * * //

dimensions      [0 1 -1 0 0 0 0];

internalField   nonuniform List<vector> 
100
(
(51.2208 0 0)
(52.8599 0 0)
(55.7335 0 0)
(58.3473 0 0)
(60.3883 0 0)
(62.3695 0 0)
(64.3919 0 0)
(66.4262 0 0)
(68.4467 0 0)
(70.4415 0 0)
(72.4205 0 0)
(74.388 0 0)
(76.3398 0 0)
(78.2768 0 0)
(80.1961 0 0)
(82.1004 0 0)
(83.9927 0 0)
(85.8688 0 0)
(87.7282 0 0)
(89.573 0 0)
(91.4035 0 0)
(93.2161 0 0)
(95.018 0 0)
(96.8254 0 0)
(98.6415 0 0)
(100.456 0 0)
(102.249 0 0)
(103.982 0 0)
(105.602 0 0)
(107.055 0 0)
(108.402 0 0)
(109.753 0 0)
(111.125 0 0)
(112.509 0 0)
(113.918 0 0)
(115.357 0 0)
(116.79 0 0)
(118.209 0 0)
(119.631 0 0)
(121.056 0 0)
(122.468 0 0)
(123.854 0 0)
(125.209 0 0)
(126.533 0 0)
(127.828 0 0)
(129.099 0 0)
(130.348 0 0)
(131.57 0 0)
(132.757 0 0)
(133.906 0 0)
(135.026 0 0)
(136.129 0 0)
(137.219 0 0)
(138.295 0 0)
(139.35 0 0)
(140.383 0 0)
(141.397 0 0)
(142.396 0 0)
(143.39 0 0)
(144.383 0 0)
(145.379 0 0)
(146.376 0 0)
(147.371 0 0)
(148.36 0 0)
(149.344 0 0)
(150.326 0 0)
(151.311 0 0)
(152.3 0 0)
(153.295 0 0)
(154.294 0 0)
(155.294 0 0)
(156.295 0 0)
(157.299 0 0)
(158.312 0 0)
(159.339 0 0)
(160.384 0 0)
(161.445 0 0)
(162.521 0 0)
(163.609 0 0)
(164.714 0 0)
(165.841 0 0)
(166.996 0 0)
(168.18 0 0)
(169.394 0 0)
(170.637 0 0)
(171.917 0 0)
(173.253 0 0)
(174.66 0 0)
(176.151 0 0)
(177.727 0 0)
(179.373 0 0)
(181.076 0 0)
(182.795 0 0)
(184.482 0 0)
(186.104 0 0)
(187.62 0 0)
(188.994 0 0)
(190.243 0 0)
(191.336 0 0)
(193.342 0 0)
)
;

boundaryField
{
    sides
    {
        type            zeroGradient;
    }
    empty
    {
        type            empty;
    }
}


// ************************************************************************* //
