/*--------------------------------*- C++ -*----------------------------------*\
  =========                 |
  \\      /  F ield         | OpenFOAM: The Open Source CFD Toolbox
   \\    /   O peration     | Website:  https://openfoam.org
    \\  /    A nd           | Version:  9
     \\/     M anipulation  |
\*---------------------------------------------------------------------------*/
FoamFile
{
    format      ascii;
    class       volScalarField;
    location    "0.043";
    object      p;
}
// * * * * * * * * * * * * * * * * * * * * * * * * * * * * * * * * * * * * * //

dimensions      [1 -1 -2 0 0 0 0];

internalField   nonuniform List<scalar> 
100
(
14703
14684.8
14638.8
14591
14555.2
14523.6
14492.3
14461.3
14431.4
14403
14375.8
14349.8
14325.2
14302.2
14280.5
14260.3
14241.6
14224.7
14209.4
14195.3
14183.4
14172.6
14163.8
14156.8
14150.9
14147.4
14145.8
14145.9
14146.1
14146.8
14148.7
14153
14161.8
14179.8
14207.8
14240.6
14276
14313.3
14353.2
14395.4
14440.7
14489.1
14540.6
14595.2
14652.8
14713.5
14776.9
14843.1
14911.9
14982.9
15056
15131
15208
15286.6
15366.8
15448.6
15531.9
15616.6
15702.5
15789.8
15878.4
15968.5
16059.8
16152.4
16246.1
16341.1
16436.8
16534.1
16631.7
16731
16829.8
16930.3
17029.8
17131
17231.2
17333.2
17433.8
17535.7
17636.6
17739.6
17841.6
17945.9
18050.8
18159.8
18270
18385.4
18504.3
18631.2
18762.3
18901.7
19045.4
19196.8
19348.6
19504.2
19656.4
19808.2
19953.3
20095.8
20231.5
20366.4
)
;

boundaryField
{
    sides
    {
        type            zeroGradient;
    }
    empty
    {
        type            empty;
    }
}


// ************************************************************************* //
