/*--------------------------------*- C++ -*----------------------------------*\
  =========                 |
  \\      /  F ield         | OpenFOAM: The Open Source CFD Toolbox
   \\    /   O peration     | Website:  https://openfoam.org
    \\  /    A nd           | Version:  9
     \\/     M anipulation  |
\*---------------------------------------------------------------------------*/
FoamFile
{
    format      ascii;
    class       volScalarField;
    location    "0.043";
    object      T;
}
// * * * * * * * * * * * * * * * * * * * * * * * * * * * * * * * * * * * * * //

dimensions      [0 0 0 1 0 0 0];

internalField   nonuniform List<scalar> 
100
(
199.982
199.888
199.758
199.658
199.571
199.513
199.46
199.378
199.301
199.256
199.221
199.186
199.173
199.177
199.19
199.196
199.197
199.202
199.202
199.181
199.104
199.058
199.051
199.049
199.026
198.957
198.931
198.934
198.952
198.973
198.978
198.979
198.998
199.055
199.169
199.324
199.485
199.635
199.788
199.931
200.089
200.298
200.529
200.75
200.984
201.225
201.45
201.695
201.987
202.293
202.576
202.853
203.152
203.45
203.744
204.067
204.418
204.76
205.08
205.392
205.699
206.033
206.385
206.779
207.137
207.508
207.789
208.171
208.493
208.989
209.292
209.759
209.99
210.412
210.664
211.172
211.509
212.006
212.259
212.659
212.871
213.314
213.633
214.195
214.522
215.044
215.315
215.83
216.119
216.725
217.099
217.826
218.195
218.881
219.206
219.839
220.135
220.763
220.998
221.696
)
;

boundaryField
{
    sides
    {
        type            zeroGradient;
    }
    empty
    {
        type            empty;
    }
}


// ************************************************************************* //
