/*--------------------------------*- C++ -*----------------------------------*\
  =========                 |
  \\      /  F ield         | OpenFOAM: The Open Source CFD Toolbox
   \\    /   O peration     | Website:  https://openfoam.org
    \\  /    A nd           | Version:  9
     \\/     M anipulation  |
\*---------------------------------------------------------------------------*/
FoamFile
{
    format      ascii;
    class       volScalarField;
    location    "0.043";
    object      p;
}
// * * * * * * * * * * * * * * * * * * * * * * * * * * * * * * * * * * * * * //

dimensions      [1 -1 -2 0 0 0 0];

internalField   nonuniform List<scalar> 
10000
(
9713.16
9713.13
9713.08
9713.05
9713.03
9713
9712.97
9712.95
9712.92
9712.89
9712.86
9712.84
9712.81
9712.78
9712.76
9712.73
9712.71
9712.68
9712.66
9712.63
9712.6
9712.58
9712.55
9712.53
9712.5
9712.48
9712.45
9712.43
9712.4
9712.38
9712.36
9712.33
9712.31
9712.28
9712.26
9712.23
9712.21
9712.18
9712.16
9712.14
9712.11
9712.09
9712.06
9712.04
9712.01
9711.99
9711.96
9711.94
9711.91
9711.89
9711.86
9711.84
9711.81
9711.79
9711.76
9711.74
9711.71
9711.69
9711.66
9711.64
9711.61
9711.58
9711.56
9711.53
9711.5
9711.48
9711.45
9711.42
9711.39
9711.36
9711.34
9711.31
9711.28
9711.25
9711.22
9711.19
9711.16
9711.13
9711.1
9711.07
9711.03
9711
9710.97
9710.93
9710.9
9710.87
9710.83
9710.8
9710.76
9710.73
9710.69
9710.65
9710.62
9710.58
9710.54
9710.5
9710.46
9710.43
9710.39
9710.35
9710.31
9710.27
9710.23
9710.18
9710.14
9710.1
9710.06
9710.02
9709.98
9709.93
9709.89
9709.85
9709.81
9709.77
9709.72
9709.68
9709.64
9709.6
9709.56
9709.51
9709.47
9709.43
9709.39
9709.35
9709.31
9709.27
9709.23
9709.2
9709.16
9709.12
9709.09
9709.05
9709.01
9708.98
9708.95
9708.91
9708.88
9708.85
9708.82
9708.79
9708.76
9708.74
9708.71
9708.68
9708.66
9708.63
9708.61
9708.59
9708.57
9708.55
9708.53
9708.51
9708.49
9708.48
9708.46
9708.45
9708.43
9708.42
9708.41
9708.4
9708.39
9708.38
9708.37
9708.36
9708.35
9708.35
9708.34
9708.34
9708.33
9708.33
9708.32
9708.32
9708.31
9708.31
9708.31
9708.3
9708.3
9708.3
9708.29
9708.29
9708.29
9708.29
9708.28
9708.28
9708.27
9708.27
9708.26
9708.26
9708.25
9708.25
9708.24
9708.23
9708.22
9708.21
9708.2
9708.19
9708.18
9708.17
9708.16
9708.14
9708.13
9708.11
9708.09
9708.07
9708.05
9708.03
9708.01
9707.99
9707.96
9707.94
9707.91
9707.89
9707.86
9707.83
9707.8
9707.77
9707.73
9707.7
9707.66
9707.63
9707.59
9707.55
9707.52
9707.48
9707.44
9707.4
9707.35
9707.31
9707.27
9707.23
9707.18
9707.14
9707.09
9707.05
9707
9706.95
9706.91
9706.86
9706.81
9706.77
9706.72
9706.67
9706.63
9706.58
9706.53
9706.48
9706.44
9706.39
9706.35
9706.3
9706.25
9706.21
9706.16
9706.12
9706.08
9706.03
9705.99
9705.95
9705.91
9705.87
9705.83
9705.79
9705.75
9705.71
9705.68
9705.64
9705.61
9705.57
9705.54
9705.51
9705.48
9705.45
9705.42
9705.39
9705.36
9705.33
9705.31
9705.28
9705.26
9705.23
9705.21
9705.19
9705.17
9705.15
9705.13
9705.11
9705.09
9705.07
9705.05
9705.04
9705.02
9705
9704.99
9704.97
9704.96
9704.94
9704.93
9704.91
9704.9
9704.88
9704.87
9704.85
9704.84
9704.82
9704.81
9704.79
9704.78
9704.76
9704.74
9704.73
9704.71
9704.69
9704.67
9704.65
9704.63
9704.61
9704.58
9704.56
9704.54
9704.51
9704.48
9704.46
9704.43
9704.4
9704.37
9704.34
9704.3
9704.27
9704.23
9704.2
9704.16
9704.12
9704.08
9704.04
9703.99
9703.95
9703.9
9703.86
9703.81
9703.76
9703.71
9703.66
9703.61
9703.56
9703.5
9703.45
9703.39
9703.33
9703.28
9703.22
9703.16
9703.1
9703.04
9702.98
9702.92
9702.85
9702.79
9702.73
9702.67
9702.6
9702.54
9702.48
9702.41
9702.35
9702.28
9702.22
9702.16
9702.09
9702.03
9701.97
9701.9
9701.84
9701.78
9701.72
9701.66
9701.6
9701.54
9701.48
9701.42
9701.36
9701.3
9701.25
9701.19
9701.14
9701.08
9701.03
9700.98
9700.93
9700.87
9700.82
9700.78
9700.73
9700.68
9700.63
9700.59
9700.55
9700.5
9700.46
9700.42
9700.38
9700.34
9700.3
9700.27
9700.23
9700.19
9700.16
9700.13
9700.1
9700.07
9700.04
9700.01
9699.98
9699.95
9699.93
9699.9
9699.88
9699.86
9699.84
9699.82
9699.8
9699.78
9699.76
9699.74
9699.73
9699.71
9699.7
9699.69
9699.68
9699.66
9699.65
9699.65
9699.64
9699.63
9699.62
9699.62
9699.61
9699.61
9699.6
9699.6
9699.6
9699.6
9699.59
9699.59
9699.59
9699.59
9699.59
9699.6
9699.6
9699.6
9699.6
9699.6
9699.61
9699.61
9699.61
9699.61
9699.62
9699.62
9699.62
9699.62
9699.63
9699.63
9699.63
9699.63
9699.63
9699.63
9699.63
9699.63
9699.63
9699.63
9699.63
9699.63
9699.62
9699.62
9699.61
9699.61
9699.6
9699.59
9699.58
9699.57
9699.56
9699.55
9699.53
9699.52
9699.5
9699.49
9699.47
9699.45
9699.43
9699.4
9699.38
9699.35
9699.33
9699.3
9699.27
9699.24
9699.21
9699.17
9699.14
9699.1
9699.06
9699.02
9698.98
9698.93
9698.89
9698.84
9698.8
9698.75
9698.7
9698.64
9698.59
9698.54
9698.48
9698.42
9698.37
9698.31
9698.24
9698.18
9698.12
9698.05
9697.99
9697.92
9697.86
9697.79
9697.72
9697.65
9697.58
9697.51
9697.44
9697.36
9697.29
9697.22
9697.14
9697.07
9697
9696.92
9696.85
9696.77
9696.7
9696.62
9696.55
9696.48
9696.4
9696.33
9696.26
9696.19
9696.12
9696.05
9695.97
9695.91
9695.84
9695.77
9695.7
9695.64
9695.57
9695.51
9695.45
9695.38
9695.32
9695.26
9695.21
9695.15
9695.09
9695.04
9694.98
9694.93
9694.88
9694.83
9694.78
9694.73
9694.69
9694.64
9694.6
9694.56
9694.52
9694.48
9694.44
9694.4
9694.36
9694.33
9694.29
9694.26
9694.22
9694.19
9694.16
9694.13
9694.1
9694.07
9694.04
9694.01
9693.99
9693.96
9693.93
9693.91
9693.88
9693.86
9693.83
9693.81
9693.78
9693.76
9693.73
9693.71
9693.69
9693.66
9693.64
9693.61
9693.59
9693.56
9693.54
9693.51
9693.49
9693.46
9693.44
9693.41
9693.38
9693.36
9693.33
9693.3
9693.28
9693.25
9693.22
9693.19
9693.16
9693.14
9693.11
9693.08
9693.05
9693.02
9692.99
9692.96
9692.93
9692.9
9692.87
9692.84
9692.81
9692.78
9692.75
9692.73
9692.7
9692.67
9692.64
9692.62
9692.59
9692.56
9692.54
9692.51
9692.49
9692.46
9692.44
9692.42
9692.39
9692.37
9692.35
9692.33
9692.31
9692.29
9692.27
9692.25
9692.23
9692.22
9692.2
9692.18
9692.17
9692.15
9692.14
9692.12
9692.11
9692.09
9692.08
9692.06
9692.05
9692.03
9692.02
9692.01
9691.99
9691.98
9691.96
9691.94
9691.93
9691.91
9691.89
9691.88
9691.86
9691.84
9691.82
9691.8
9691.77
9691.75
9691.72
9691.7
9691.67
9691.64
9691.61
9691.58
9691.55
9691.51
9691.48
9691.44
9691.4
9691.36
9691.32
9691.28
9691.23
9691.19
9691.14
9691.09
9691.04
9690.99
9690.93
9690.87
9690.82
9690.76
9690.7
9690.64
9690.57
9690.51
9690.44
9690.38
9690.31
9690.24
9690.17
9690.1
9690.02
9689.95
9689.87
9689.8
9689.72
9689.65
9689.57
9689.49
9689.41
9689.33
9689.25
9689.17
9689.09
9689.01
9688.93
9688.84
9688.76
9688.68
9688.6
9688.51
9688.43
9688.35
9688.26
9688.18
9688.1
9688.02
9687.93
9687.85
9687.77
9687.69
9687.6
9687.52
9687.44
9687.36
9687.28
9687.2
9687.12
9687.04
9686.96
9686.88
9686.8
9686.72
9686.64
9686.56
9686.48
9686.4
9686.33
9686.25
9686.17
9686.1
9686.02
9685.95
9685.87
9685.8
9685.72
9685.65
9685.58
9685.5
9685.43
9685.36
9685.29
9685.22
9685.15
9685.08
9685.01
9684.94
9684.87
9684.81
9684.74
9684.67
9684.61
9684.54
9684.48
9684.42
9684.35
9684.29
9684.23
9684.17
9684.11
9684.05
9684
9683.94
9683.89
9683.83
9683.78
9683.72
9683.67
9683.62
9683.57
9683.52
9683.48
9683.43
9683.38
9683.34
9683.3
9683.26
9683.21
9683.17
9683.14
9683.1
9683.06
9683.03
9682.99
9682.96
9682.93
9682.9
9682.87
9682.84
9682.81
9682.78
9682.76
9682.73
9682.71
9682.69
9682.67
9682.65
9682.63
9682.61
9682.59
9682.57
9682.56
9682.54
9682.53
9682.51
9682.5
9682.49
9682.48
9682.47
9682.46
9682.45
9682.44
9682.43
9682.42
9682.42
9682.41
9682.4
9682.4
9682.39
9682.39
9682.38
9682.38
9682.37
9682.37
9682.37
9682.36
9682.36
9682.36
9682.35
9682.35
9682.35
9682.34
9682.34
9682.34
9682.34
9682.33
9682.33
9682.33
9682.32
9682.32
9682.32
9682.31
9682.31
9682.3
9682.3
9682.29
9682.29
9682.28
9682.28
9682.27
9682.26
9682.25
9682.25
9682.24
9682.23
9682.22
9682.21
9682.2
9682.19
9682.17
9682.16
9682.15
9682.13
9682.12
9682.1
9682.09
9682.07
9682.05
9682.03
9682.02
9681.99
9681.97
9681.95
9681.93
9681.9
9681.88
9681.85
9681.82
9681.8
9681.77
9681.74
9681.71
9681.67
9681.64
9681.61
9681.57
9681.53
9681.5
9681.46
9681.42
9681.38
9681.33
9681.29
9681.25
9681.2
9681.15
9681.1
9681.06
9681
9680.95
9680.9
9680.85
9680.79
9680.74
9680.68
9680.62
9680.56
9680.5
9680.44
9680.38
9680.32
9680.26
9680.19
9680.13
9680.06
9679.99
9679.93
9679.86
9679.79
9679.72
9679.65
9679.58
9679.51
9679.44
9679.37
9679.3
9679.23
9679.16
9679.09
9679.02
9678.94
9678.87
9678.8
9678.73
9678.66
9678.59
9678.51
9678.44
9678.37
9678.3
9678.23
9678.16
9678.09
9678.02
9677.95
9677.88
9677.82
9677.75
9677.68
9677.61
9677.55
9677.48
9677.42
9677.35
9677.29
9677.22
9677.16
9677.1
9677.03
9676.97
9676.91
9676.85
9676.79
9676.73
9676.68
9676.62
9676.56
9676.5
9676.45
9676.39
9676.34
9676.29
9676.23
9676.18
9676.13
9676.08
9676.03
9675.98
9675.94
9675.89
9675.84
9675.8
9675.76
9675.71
9675.67
9675.63
9675.59
9675.56
9675.52
9675.48
9675.45
9675.42
9675.38
9675.35
9675.32
9675.3
9675.27
9675.25
9675.22
9675.2
9675.18
9675.16
9675.14
9675.13
9675.11
9675.1
9675.09
9675.07
9675.07
9675.06
9675.05
9675.04
9675.04
9675.04
9675.03
9675.03
9675.03
9675.03
9675.03
9675.04
9675.04
9675.04
9675.05
9675.05
9675.06
9675.06
9675.07
9675.08
9675.08
9675.09
9675.1
9675.11
9675.11
9675.12
9675.13
9675.13
9675.14
9675.15
9675.15
9675.16
9675.16
9675.17
9675.17
9675.17
9675.17
9675.17
9675.17
9675.17
9675.17
9675.17
9675.16
9675.16
9675.15
9675.15
9675.14
9675.13
9675.12
9675.11
9675.1
9675.09
9675.07
9675.06
9675.05
9675.03
9675.01
9675
9674.98
9674.96
9674.94
9674.92
9674.9
9674.88
9674.86
9674.83
9674.81
9674.79
9674.77
9674.74
9674.72
9674.7
9674.67
9674.65
9674.63
9674.6
9674.58
9674.55
9674.53
9674.51
9674.48
9674.46
9674.44
9674.41
9674.39
9674.37
9674.34
9674.32
9674.3
9674.28
9674.25
9674.23
9674.21
9674.19
9674.17
9674.14
9674.12
9674.1
9674.08
9674.06
9674.04
9674.02
9674
9673.97
9673.95
9673.93
9673.91
9673.89
9673.87
9673.85
9673.83
9673.81
9673.78
9673.76
9673.74
9673.72
9673.7
9673.68
9673.65
9673.63
9673.61
9673.59
9673.56
9673.54
9673.52
9673.5
9673.47
9673.45
9673.42
9673.4
9673.38
9673.35
9673.33
9673.3
9673.28
9673.25
9673.23
9673.2
9673.18
9673.15
9673.13
9673.1
9673.07
9673.05
9673.02
9673
9672.97
9672.95
9672.92
9672.89
9672.87
9672.84
9672.82
9672.79
9672.77
9672.74
9672.72
9672.69
9672.67
9672.65
9672.62
9672.6
9672.58
9672.56
9672.54
9672.52
9672.49
9672.48
9672.46
9672.44
9672.42
9672.4
9672.39
9672.37
9672.36
9672.34
9672.33
9672.32
9672.31
9672.3
9672.29
9672.28
9672.27
9672.27
9672.26
9672.25
9672.25
9672.25
9672.24
9672.24
9672.24
9672.24
9672.24
9672.25
9672.25
9672.25
9672.26
9672.26
9672.27
9672.28
9672.28
9672.29
9672.3
9672.31
9672.32
9672.33
9672.34
9672.36
9672.37
9672.38
9672.4
9672.41
9672.42
9672.44
9672.45
9672.47
9672.49
9672.5
9672.52
9672.54
9672.55
9672.57
9672.59
9672.6
9672.62
9672.64
9672.65
9672.67
9672.69
9672.7
9672.72
9672.74
9672.75
9672.77
9672.78
9672.8
9672.81
9672.83
9672.84
9672.85
9672.87
9672.88
9672.89
9672.9
9672.91
9672.92
9672.93
9672.94
9672.95
9672.96
9672.96
9672.97
9672.97
9672.98
9672.98
9672.99
9672.99
9672.99
9672.99
9672.99
9672.99
9672.98
9672.98
9672.98
9672.97
9672.97
9672.96
9672.95
9672.94
9672.93
9672.92
9672.91
9672.9
9672.89
9672.88
9672.86
9672.85
9672.83
9672.82
9672.8
9672.78
9672.76
9672.75
9672.73
9672.71
9672.69
9672.67
9672.64
9672.62
9672.6
9672.58
9672.56
9672.53
9672.51
9672.49
9672.46
9672.44
9672.41
9672.39
9672.37
9672.34
9672.32
9672.29
9672.27
9672.25
9672.22
9672.2
9672.18
9672.15
9672.13
9672.11
9672.08
9672.06
9672.04
9672.02
9671.99
9671.97
9671.95
9671.93
9671.91
9671.89
9671.87
9671.85
9671.83
9671.82
9671.8
9671.78
9671.76
9671.75
9671.73
9671.72
9671.7
9671.69
9671.67
9671.66
9671.64
9671.63
9671.62
9671.6
9671.59
9671.58
9671.57
9671.56
9671.55
9671.54
9671.53
9671.52
9671.51
9671.5
9671.49
9671.49
9671.48
9671.47
9671.47
9671.46
9671.46
9671.45
9671.45
9671.44
9671.44
9671.44
9671.44
9671.44
9671.44
9671.44
9671.44
9671.44
9671.45
9671.45
9671.46
9671.46
9671.47
9671.48
9671.49
9671.5
9671.51
9671.53
9671.54
9671.56
9671.58
9671.59
9671.61
9671.64
9671.66
9671.68
9671.71
9671.74
9671.77
9671.8
9671.83
9671.86
9671.9
9671.93
9671.97
9672.01
9672.05
9672.09
9672.13
9672.17
9672.22
9672.26
9672.31
9672.36
9672.41
9672.46
9672.51
9672.56
9672.61
9672.66
9672.71
9672.77
9672.82
9672.87
9672.93
9672.98
9673.04
9673.1
9673.15
9673.21
9673.26
9673.32
9673.37
9673.43
9673.49
9673.54
9673.59
9673.65
9673.7
9673.76
9673.81
9673.86
9673.91
9673.96
9674.01
9674.06
9674.11
9674.16
9674.21
9674.25
9674.3
9674.34
9674.39
9674.43
9674.47
9674.51
9674.55
9674.59
9674.63
9674.66
9674.7
9674.73
9674.76
9674.8
9674.83
9674.86
9674.88
9674.91
9674.94
9674.96
9674.99
9675.01
9675.03
9675.06
9675.08
9675.1
9675.12
9675.13
9675.15
9675.17
9675.18
9675.2
9675.21
9675.23
9675.24
9675.25
9675.26
9675.28
9675.29
9675.3
9675.31
9675.32
9675.33
9675.34
9675.35
9675.36
9675.37
9675.38
9675.39
9675.4
9675.4
9675.41
9675.42
9675.43
9675.44
9675.45
9675.46
9675.47
9675.48
9675.49
9675.5
9675.51
9675.52
9675.54
9675.55
9675.56
9675.57
9675.58
9675.6
9675.61
9675.62
9675.64
9675.65
9675.67
9675.68
9675.7
9675.71
9675.73
9675.74
9675.76
9675.77
9675.79
9675.81
9675.83
9675.84
9675.86
9675.88
9675.9
9675.92
9675.94
9675.96
9675.98
9676
9676.02
9676.05
9676.07
9676.09
9676.12
9676.15
9676.17
9676.2
9676.23
9676.26
9676.29
9676.32
9676.36
9676.39
9676.43
9676.46
9676.5
9676.54
9676.59
9676.63
9676.67
9676.72
9676.77
9676.82
9676.87
9676.93
9676.98
9677.04
9677.1
9677.16
9677.22
9677.29
9677.36
9677.43
9677.5
9677.57
9677.65
9677.72
9677.8
9677.88
9677.96
9678.05
9678.13
9678.22
9678.31
9678.4
9678.49
9678.59
9678.68
9678.78
9678.88
9678.98
9679.08
9679.18
9679.29
9679.39
9679.5
9679.61
9679.71
9679.82
9679.94
9680.05
9680.16
9680.28
9680.39
9680.51
9680.63
9680.74
9680.86
9680.99
9681.11
9681.23
9681.35
9681.48
9681.6
9681.73
9681.86
9681.99
9682.11
9682.24
9682.38
9682.51
9682.64
9682.77
9682.91
9683.04
9683.18
9683.31
9683.45
9683.59
9683.72
9683.86
9684
9684.14
9684.28
9684.42
9684.56
9684.7
9684.84
9684.99
9685.13
9685.27
9685.41
9685.55
9685.69
9685.83
9685.98
9686.12
9686.26
9686.4
9686.54
9686.68
9686.82
9686.96
9687.1
9687.24
9687.38
9687.52
9687.66
9687.8
9687.94
9688.07
9688.21
9688.35
9688.49
9688.63
9688.77
9688.9
9689.04
9689.18
9689.32
9689.46
9689.6
9689.73
9689.87
9690.01
9690.15
9690.29
9690.43
9690.57
9690.71
9690.85
9690.99
9691.14
9691.28
9691.42
9691.56
9691.7
9691.84
9691.99
9692.13
9692.27
9692.41
9692.56
9692.7
9692.84
9692.98
9693.13
9693.27
9693.41
9693.55
9693.7
9693.84
9693.98
9694.13
9694.27
9694.41
9694.56
9694.7
9694.84
9694.99
9695.13
9695.28
9695.43
9695.57
9695.72
9695.87
9696.02
9696.17
9696.32
9696.47
9696.63
9696.78
9696.94
9697.1
9697.26
9697.42
9697.58
9697.74
9697.91
9698.08
9698.24
9698.42
9698.59
9698.76
9698.94
9699.12
9699.3
9699.48
9699.67
9699.85
9700.04
9700.23
9700.43
9700.62
9700.82
9701.02
9701.22
9701.43
9701.64
9701.85
9702.06
9702.28
9702.5
9702.72
9702.95
9703.18
9703.42
9703.65
9703.9
9704.15
9704.4
9704.66
9704.92
9705.18
9705.46
9705.74
9706.02
9706.31
9706.6
9706.9
9707.21
9707.53
9707.85
9708.17
9708.5
9708.84
9709.19
9709.54
9709.9
9710.26
9710.63
9711.01
9711.39
9711.78
9712.18
9712.58
9712.99
9713.4
9713.82
9714.24
9714.67
9715.11
9715.55
9715.99
9716.44
9716.89
9717.35
9717.81
9718.28
9718.75
9719.23
9719.71
9720.19
9720.68
9721.17
9721.67
9722.17
9722.67
9723.18
9723.69
9724.21
9724.73
9725.26
9725.78
9726.32
9726.85
9727.39
9727.94
9728.49
9729.04
9729.6
9730.15
9730.72
9731.29
9731.86
9732.43
9733.01
9733.59
9734.17
9734.76
9735.36
9735.95
9736.55
9737.15
9737.75
9738.36
9738.97
9739.58
9740.19
9740.8
9741.42
9742.04
9742.66
9743.28
9743.9
9744.53
9745.15
9745.78
9746.4
9747.03
9747.66
9748.29
9748.91
9749.54
9750.17
9750.8
9751.43
9752.06
9752.69
9753.31
9753.94
9754.57
9755.2
9755.83
9756.45
9757.08
9757.71
9758.33
9758.96
9759.59
9760.21
9760.84
9761.47
9762.09
9762.72
9763.34
9763.97
9764.6
9765.22
9765.85
9766.48
9767.11
9767.73
9768.36
9768.99
9769.62
9770.25
9770.88
9771.51
9772.14
9772.77
9773.4
9774.04
9774.67
9775.3
9775.93
9776.57
9777.2
9777.84
9778.47
9779.11
9779.74
9780.38
9781.01
9781.65
9782.29
9782.93
9783.56
9784.2
9784.84
9785.48
9786.12
9786.75
9787.39
9788.03
9788.67
9789.31
9789.95
9790.59
9791.23
9791.87
9792.51
9793.15
9793.8
9794.44
9795.08
9795.72
9796.36
9797
9797.64
9798.29
9798.93
9799.57
9800.21
9800.86
9801.5
9802.14
9802.79
9803.43
9804.07
9804.72
9805.36
9806.01
9806.65
9807.3
9807.95
9808.59
9809.24
9809.89
9810.53
9811.18
9811.83
9812.48
9813.13
9813.78
9814.43
9815.08
9815.73
9816.38
9817.04
9817.69
9818.34
9819
9819.65
9820.31
9820.97
9821.62
9822.28
9822.94
9823.6
9824.26
9824.92
9825.58
9826.25
9826.91
9827.57
9828.24
9828.91
9829.57
9830.24
9830.91
9831.58
9832.25
9832.92
9833.59
9834.27
9834.94
9835.62
9836.3
9836.97
9837.65
9838.33
9839.02
9839.7
9840.38
9841.07
9841.75
9842.44
9843.13
9843.82
9844.51
9845.2
9845.89
9846.58
9847.28
9847.97
9848.67
9849.37
9850.07
9850.77
9851.47
9852.18
9852.88
9853.59
9854.29
9855
9855.71
9856.42
9857.13
9857.84
9858.56
9859.27
9859.99
9860.71
9861.42
9862.14
9862.86
9863.59
9864.31
9865.03
9865.76
9866.48
9867.21
9867.94
9868.67
9869.4
9870.13
9870.86
9871.59
9872.33
9873.06
9873.8
9874.53
9875.27
9876.01
9876.75
9877.49
9878.23
9878.97
9879.71
9880.46
9881.2
9881.95
9882.69
9883.44
9884.18
9884.93
9885.68
9886.42
9887.17
9887.92
9888.67
9889.42
9890.17
9890.92
9891.67
9892.43
9893.18
9893.93
9894.68
9895.44
9896.19
9896.94
9897.7
9898.45
9899.2
9899.96
9900.71
9901.47
9902.22
9902.98
9903.73
9904.48
9905.24
9905.99
9906.75
9907.5
9908.25
9909.01
9909.76
9910.52
9911.27
9912.02
9912.77
9913.53
9914.28
9915.03
9915.78
9916.53
9917.28
9918.03
9918.78
9919.53
9920.28
9921.03
9921.78
9922.53
9923.27
9924.02
9924.77
9925.51
9926.26
9927
9927.74
9928.49
9929.23
9929.97
9930.71
9931.45
9932.2
9932.94
9933.67
9934.41
9935.15
9935.89
9936.62
9937.36
9938.1
9938.83
9939.56
9940.3
9941.03
9941.76
9942.49
9943.23
9943.96
9944.69
9945.41
9946.14
9946.87
9947.6
9948.32
9949.05
9949.78
9950.5
9951.23
9951.95
9952.67
9953.4
9954.12
9954.84
9955.56
9956.28
9957
9957.72
9958.44
9959.16
9959.88
9960.6
9961.32
9962.04
9962.76
9963.47
9964.19
9964.91
9965.62
9966.34
9967.06
9967.77
9968.49
9969.2
9969.92
9970.63
9971.35
9972.07
9972.78
9973.5
9974.21
9974.93
9975.64
9976.36
9977.07
9977.79
9978.51
9979.22
9979.94
9980.65
9981.37
9982.09
9982.8
9983.52
9984.24
9984.96
9985.67
9986.39
9987.11
9987.83
9988.55
9989.27
9989.99
9990.71
9991.43
9992.15
9992.87
9993.6
9994.32
9995.04
9995.77
9996.49
9997.21
9997.94
9998.67
9999.39
10000.1
10000.8
10001.6
10002.3
10003
10003.8
10004.5
10005.2
10006
10006.7
10007.4
10008.2
10008.9
10009.6
10010.4
10011.1
10011.8
10012.6
10013.3
10014.1
10014.8
10015.5
10016.3
10017
10017.8
10018.5
10019.3
10020
10020.7
10021.5
10022.2
10023
10023.7
10024.5
10025.2
10026
10026.7
10027.5
10028.2
10029
10029.7
10030.5
10031.2
10032
10032.7
10033.5
10034.3
10035
10035.8
10036.5
10037.3
10038
10038.8
10039.6
10040.3
10041.1
10041.8
10042.6
10043.3
10044.1
10044.9
10045.6
10046.4
10047.1
10047.9
10048.7
10049.4
10050.2
10050.9
10051.7
10052.5
10053.2
10054
10054.7
10055.5
10056.3
10057
10057.8
10058.6
10059.3
10060.1
10060.8
10061.6
10062.3
10063.1
10063.9
10064.6
10065.4
10066.1
10066.9
10067.7
10068.4
10069.2
10069.9
10070.7
10071.4
10072.2
10073
10073.7
10074.5
10075.2
10076
10076.7
10077.5
10078.2
10079
10079.7
10080.5
10081.2
10082
10082.7
10083.5
10084.2
10085
10085.7
10086.5
10087.2
10088
10088.7
10089.5
10090.2
10090.9
10091.7
10092.4
10093.2
10093.9
10094.7
10095.4
10096.1
10096.9
10097.6
10098.4
10099.1
10099.8
10100.6
10101.3
10102
10102.8
10103.5
10104.3
10105
10105.7
10106.5
10107.2
10107.9
10108.7
10109.4
10110.1
10110.9
10111.6
10112.3
10113.1
10113.8
10114.5
10115.3
10116
10116.7
10117.5
10118.2
10118.9
10119.7
10120.4
10121.1
10121.9
10122.6
10123.3
10124.1
10124.8
10125.5
10126.2
10127
10127.7
10128.4
10129.2
10129.9
10130.6
10131.4
10132.1
10132.8
10133.6
10134.3
10135
10135.8
10136.5
10137.3
10138
10138.7
10139.5
10140.2
10140.9
10141.7
10142.4
10143.2
10143.9
10144.6
10145.4
10146.1
10146.9
10147.6
10148.3
10149.1
10149.8
10150.6
10151.3
10152.1
10152.8
10153.6
10154.3
10155
10155.8
10156.5
10157.3
10158
10158.8
10159.5
10160.3
10161
10161.8
10162.6
10163.3
10164.1
10164.8
10165.6
10166.3
10167.1
10167.8
10168.6
10169.4
10170.1
10170.9
10171.6
10172.4
10173.1
10173.9
10174.7
10175.4
10176.2
10177
10177.7
10178.5
10179.2
10180
10180.8
10181.5
10182.3
10183.1
10183.8
10184.6
10185.4
10186.1
10186.9
10187.7
10188.4
10189.2
10190
10190.7
10191.5
10192.3
10193.1
10193.8
10194.6
10195.4
10196.1
10196.9
10197.7
10198.4
10199.2
10200
10200.7
10201.5
10202.3
10203.1
10203.8
10204.6
10205.4
10206.1
10206.9
10207.7
10208.4
10209.2
10210
10210.7
10211.5
10212.3
10213
10213.8
10214.6
10215.3
10216.1
10216.9
10217.6
10218.4
10219.2
10219.9
10220.7
10221.5
10222.2
10223
10223.8
10224.5
10225.3
10226
10226.8
10227.6
10228.3
10229.1
10229.8
10230.6
10231.4
10232.1
10232.9
10233.6
10234.4
10235.2
10235.9
10236.7
10237.4
10238.2
10238.9
10239.7
10240.4
10241.2
10242
10242.7
10243.5
10244.2
10245
10245.7
10246.5
10247.2
10248
10248.7
10249.5
10250.2
10251
10251.7
10252.5
10253.2
10254
10254.7
10255.5
10256.2
10257
10257.7
10258.5
10259.2
10259.9
10260.7
10261.4
10262.2
10262.9
10263.7
10264.4
10265.2
10265.9
10266.7
10267.4
10268.2
10268.9
10269.7
10270.4
10271.1
10271.9
10272.6
10273.4
10274.1
10274.9
10275.6
10276.4
10277.1
10277.9
10278.6
10279.4
10280.1
10280.9
10281.6
10282.4
10283.1
10283.9
10284.6
10285.4
10286.1
10286.9
10287.6
10288.4
10289.1
10289.9
10290.6
10291.4
10292.1
10292.9
10293.7
10294.4
10295.2
10295.9
10296.7
10297.4
10298.2
10299
10299.7
10300.5
10301.2
10302
10302.8
10303.5
10304.3
10305
10305.8
10306.6
10307.3
10308.1
10308.9
10309.6
10310.4
10311.2
10311.9
10312.7
10313.5
10314.2
10315
10315.8
10316.5
10317.3
10318.1
10318.9
10319.6
10320.4
10321.2
10321.9
10322.7
10323.5
10324.3
10325
10325.8
10326.6
10327.4
10328.1
10328.9
10329.7
10330.5
10331.2
10332
10332.8
10333.6
10334.3
10335.1
10335.9
10336.7
10337.5
10338.2
10339
10339.8
10340.6
10341.4
10342.1
10342.9
10343.7
10344.5
10345.2
10346
10346.8
10347.6
10348.4
10349.1
10349.9
10350.7
10351.5
10352.3
10353
10353.8
10354.6
10355.4
10356.1
10356.9
10357.7
10358.5
10359.3
10360
10360.8
10361.6
10362.4
10363.1
10363.9
10364.7
10365.5
10366.2
10367
10367.8
10368.6
10369.3
10370.1
10370.9
10371.6
10372.4
10373.2
10374
10374.7
10375.5
10376.3
10377
10377.8
10378.6
10379.4
10380.1
10380.9
10381.7
10382.4
10383.2
10384
10384.7
10385.5
10386.3
10387
10387.8
10388.5
10389.3
10390.1
10390.8
10391.6
10392.4
10393.1
10393.9
10394.7
10395.4
10396.2
10396.9
10397.7
10398.5
10399.2
10400
10400.7
10401.5
10402.3
10403
10403.8
10404.5
10405.3
10406.1
10406.8
10407.6
10408.3
10409.1
10409.9
10410.6
10411.4
10412.1
10412.9
10413.6
10414.4
10415.2
10415.9
10416.7
10417.4
10418.2
10419
10419.7
10420.5
10421.2
10422
10422.8
10423.5
10424.3
10425
10425.8
10426.6
10427.3
10428.1
10428.9
10429.6
10430.4
10431.1
10431.9
10432.7
10433.4
10434.2
10435
10435.7
10436.5
10437.3
10438
10438.8
10439.6
10440.3
10441.1
10441.9
10442.6
10443.4
10444.2
10444.9
10445.7
10446.5
10447.2
10448
10448.8
10449.6
10450.3
10451.1
10451.9
10452.7
10453.4
10454.2
10455
10455.8
10456.5
10457.3
10458.1
10458.9
10459.7
10460.4
10461.2
10462
10462.8
10463.6
10464.3
10465.1
10465.9
10466.7
10467.5
10468.2
10469
10469.8
10470.6
10471.4
10472.2
10473
10473.7
10474.5
10475.3
10476.1
10476.9
10477.7
10478.5
10479.2
10480
10480.8
10481.6
10482.4
10483.2
10484
10484.8
10485.5
10486.3
10487.1
10487.9
10488.7
10489.5
10490.3
10491.1
10491.9
10492.6
10493.4
10494.2
10495
10495.8
10496.6
10497.4
10498.2
10499
10499.7
10500.5
10501.3
10502.1
10502.9
10503.7
10504.5
10505.3
10506
10506.8
10507.6
10508.4
10509.2
10510
10510.8
10511.6
10512.3
10513.1
10513.9
10514.7
10515.5
10516.3
10517
10517.8
10518.6
10519.4
10520.2
10521
10521.7
10522.5
10523.3
10524.1
10524.9
10525.6
10526.4
10527.2
10528
10528.8
10529.5
10530.3
10531.1
10531.9
10532.7
10533.4
10534.2
10535
10535.8
10536.5
10537.3
10538.1
10538.9
10539.6
10540.4
10541.2
10542
10542.8
10543.5
10544.3
10545.1
10545.9
10546.6
10547.4
10548.2
10548.9
10549.7
10550.5
10551.3
10552
10552.8
10553.6
10554.4
10555.1
10555.9
10556.7
10557.5
10558.2
10559
10559.8
10560.6
10561.3
10562.1
10562.9
10563.7
10564.4
10565.2
10566
10566.8
10567.5
10568.3
10569.1
10569.9
10570.6
10571.4
10572.2
10573
10573.8
10574.5
10575.3
10576.1
10576.9
10577.7
10578.4
10579.2
10580
10580.8
10581.6
10582.3
10583.1
10583.9
10584.7
10585.5
10586.2
10587
10587.8
10588.6
10589.4
10590.2
10591
10591.7
10592.5
10593.3
10594.1
10594.9
10595.7
10596.5
10597.2
10598
10598.8
10599.6
10600.4
10601.2
10602
10602.8
10603.6
10604.3
10605.1
10605.9
10606.7
10607.5
10608.3
10609.1
10609.9
10610.7
10611.5
10612.3
10613.1
10613.8
10614.6
10615.4
10616.2
10617
10617.8
10618.6
10619.4
10620.2
10621
10621.8
10622.6
10623.4
10624.2
10625
10625.8
10626.6
10627.4
10628.2
10629
10629.7
10630.5
10631.3
10632.1
10632.9
10633.7
10634.5
10635.3
10636.1
10636.9
10637.7
10638.5
10639.3
10640.1
10640.9
10641.7
10642.5
10643.3
10644.1
10644.9
10645.7
10646.4
10647.2
10648
10648.8
10649.6
10650.4
10651.2
10652
10652.8
10653.6
10654.4
10655.2
10656
10656.8
10657.5
10658.3
10659.1
10659.9
10660.7
10661.5
10662.3
10663.1
10663.9
10664.7
10665.5
10666.2
10667
10667.8
10668.6
10669.4
10670.2
10671
10671.8
10672.6
10673.3
10674.1
10674.9
10675.7
10676.5
10677.3
10678.1
10678.9
10679.6
10680.4
10681.2
10682
10682.8
10683.6
10684.4
10685.2
10685.9
10686.7
10687.5
10688.3
10689.1
10689.9
10690.7
10691.4
10692.2
10693
10693.8
10694.6
10695.4
10696.2
10697
10697.7
10698.5
10699.3
10700.1
10700.9
10701.7
10702.5
10703.3
10704.1
10704.8
10705.6
10706.4
10707.2
10708
10708.8
10709.6
10710.4
10711.2
10712
10712.7
10713.5
10714.3
10715.1
10715.9
10716.7
10717.5
10718.3
10719.1
10719.9
10720.7
10721.5
10722.3
10723.1
10723.8
10724.6
10725.4
10726.2
10727
10727.8
10728.6
10729.4
10730.2
10731
10731.8
10732.6
10733.4
10734.2
10735
10735.8
10736.6
10737.4
10738.2
10739
10739.8
10740.6
10741.4
10742.2
10743
10743.8
10744.6
10745.4
10746.2
10747
10747.8
10748.6
10749.4
10750.3
10751.1
10751.9
10752.7
10753.5
10754.3
10755.1
10755.9
10756.7
10757.5
10758.3
10759.1
10759.9
10760.7
10761.5
10762.3
10763.1
10763.9
10764.7
10765.6
10766.4
10767.2
10768
10768.8
10769.6
10770.4
10771.2
10772
10772.8
10773.6
10774.4
10775.2
10776
10776.8
10777.6
10778.5
10779.3
10780.1
10780.9
10781.7
10782.5
10783.3
10784.1
10784.9
10785.7
10786.5
10787.3
10788.1
10788.9
10789.7
10790.5
10791.3
10792.1
10792.9
10793.7
10794.5
10795.3
10796.1
10796.9
10797.7
10798.5
10799.3
10800.1
10800.9
10801.7
10802.5
10803.3
10804.1
10804.9
10805.7
10806.5
10807.3
10808.1
10808.9
10809.7
10810.5
10811.3
10812.1
10812.9
10813.7
10814.5
10815.3
10816.1
10816.9
10817.7
10818.5
10819.3
10820.1
10820.9
10821.7
10822.5
10823.3
10824.1
10824.9
10825.7
10826.5
10827.3
10828.1
10828.9
10829.7
10830.5
10831.3
10832.1
10832.9
10833.7
10834.5
10835.3
10836.1
10836.9
10837.7
10838.5
10839.3
10840.1
10840.9
10841.7
10842.4
10843.2
10844
10844.8
10845.6
10846.4
10847.2
10848
10848.8
10849.6
10850.4
10851.2
10852
10852.9
10853.7
10854.5
10855.3
10856.1
10856.9
10857.7
10858.5
10859.3
10860.1
10860.9
10861.7
10862.5
10863.3
10864.1
10864.9
10865.7
10866.5
10867.3
10868.1
10868.9
10869.7
10870.6
10871.4
10872.2
10873
10873.8
10874.6
10875.4
10876.2
10877
10877.8
10878.6
10879.5
10880.3
10881.1
10881.9
10882.7
10883.5
10884.3
10885.1
10886
10886.8
10887.6
10888.4
10889.2
10890
10890.8
10891.7
10892.5
10893.3
10894.1
10894.9
10895.7
10896.5
10897.4
10898.2
10899
10899.8
10900.6
10901.4
10902.3
10903.1
10903.9
10904.7
10905.5
10906.3
10907.2
10908
10908.8
10909.6
10910.4
10911.2
10912.1
10912.9
10913.7
10914.5
10915.3
10916.1
10917
10917.8
10918.6
10919.4
10920.2
10921
10921.9
10922.7
10923.5
10924.3
10925.1
10925.9
10926.7
10927.6
10928.4
10929.2
10930
10930.8
10931.6
10932.5
10933.3
10934.1
10934.9
10935.7
10936.5
10937.3
10938.1
10939
10939.8
10940.6
10941.4
10942.2
10943
10943.8
10944.6
10945.5
10946.3
10947.1
10947.9
10948.7
10949.5
10950.3
10951.1
10952
10952.8
10953.6
10954.4
10955.2
10956
10956.8
10957.6
10958.4
10959.2
10960.1
10960.9
10961.7
10962.5
10963.3
10964.1
10964.9
10965.7
10966.5
10967.4
10968.2
10969
10969.8
10970.6
10971.4
10972.2
10973
10973.8
10974.6
10975.5
10976.3
10977.1
10977.9
10978.7
10979.5
10980.3
10981.1
10982
10982.8
10983.6
10984.4
10985.2
10986
10986.8
10987.6
10988.5
10989.3
10990.1
10990.9
10991.7
10992.5
10993.3
10994.2
10995
10995.8
10996.6
10997.4
10998.2
10999
10999.9
11000.7
11001.5
11002.3
11003.1
11003.9
11004.8
11005.6
11006.4
11007.2
11008
11008.9
11009.7
11010.5
11011.3
11012.1
11012.9
11013.8
11014.6
11015.4
11016.2
11017
11017.9
11018.7
11019.5
11020.3
11021.1
11022
11022.8
11023.6
11024.4
11025.3
11026.1
11026.9
11027.7
11028.5
11029.4
11030.2
11031
11031.8
11032.6
11033.5
11034.3
11035.1
11035.9
11036.8
11037.6
11038.4
11039.2
11040
11040.9
11041.7
11042.5
11043.3
11044.1
11045
11045.8
11046.6
11047.4
11048.2
11049.1
11049.9
11050.7
11051.5
11052.4
11053.2
11054
11054.8
11055.6
11056.5
11057.3
11058.1
11058.9
11059.7
11060.6
11061.4
11062.2
11063
11063.8
11064.7
11065.5
11066.3
11067.1
11067.9
11068.7
11069.6
11070.4
11071.2
11072
11072.8
11073.7
11074.5
11075.3
11076.1
11076.9
11077.7
11078.6
11079.4
11080.2
11081
11081.8
11082.7
11083.5
11084.3
11085.1
11085.9
11086.7
11087.6
11088.4
11089.2
11090
11090.8
11091.6
11092.5
11093.3
11094.1
11094.9
11095.7
11096.6
11097.4
11098.2
11099
11099.8
11100.7
11101.5
11102.3
11103.1
11103.9
11104.8
11105.6
11106.4
11107.2
11108
11108.8
11109.7
11110.5
11111.3
11112.1
11112.9
11113.8
11114.6
11115.4
11116.2
11117.1
11117.9
11118.7
11119.5
11120.4
11121.2
11122
11122.8
11123.7
11124.5
11125.3
11126.1
11127
11127.8
11128.6
11129.4
11130.2
11131.1
11131.9
11132.7
11133.5
11134.4
11135.2
11136
11136.9
11137.7
11138.5
11139.4
11140.2
11141
11141.9
11142.7
11143.5
11144.4
11145.2
11146
11146.8
11147.6
11148.5
11149.3
11150.2
11151
11151.8
11152.7
11153.5
11154.4
11155.2
11156
11156.9
11157.7
11158.5
11159.3
11160.2
11161
11161.8
11162.7