/*--------------------------------*- C++ -*----------------------------------*\
  =========                 |
  \\      /  F ield         | OpenFOAM: The Open Source CFD Toolbox
   \\    /   O peration     | Website:  https://openfoam.org
    \\  /    A nd           | Version:  9
     \\/     M anipulation  |
\*---------------------------------------------------------------------------*/
FoamFile
{
    format      ascii;
    class       surfaceScalarField;
    location    "0.043";
    object      phi;
}
// * * * * * * * * * * * * * * * * * * * * * * * * * * * * * * * * * * * * * //

dimensions      [1 0 -1 0 0 0 0];

internalField   nonuniform List<scalar> 
9999
(
2.36171
2.38312
2.40453
2.42594
2.44736
2.46878
2.4902
2.51162
2.53306
2.5545
2.57594
2.59739
2.61886
2.64033
2.66181
2.6833
2.7048
2.72631
2.74783
2.76937
2.79092
2.81248
2.83406
2.85565
2.87726
2.89888
2.92052
2.94217
2.96384
2.98553
3.00724
3.02896
3.0507
3.07245
3.09423
3.11602
3.13783
3.15966
3.18151
3.20337
3.22525
3.24715
3.26907
3.291
3.31295
3.33492
3.35691
3.37892
3.40094
3.42298
3.44503
3.46709
3.48917
3.51126
3.53337
3.55548
3.57761
3.59976
3.62192
3.64409
3.66627
3.68846
3.71066
3.73286
3.75508
3.77729
3.79951
3.82174
3.84396
3.86618
3.88841
3.91064
3.93287
3.9551
3.97733
3.99957
4.0218
4.04403
4.06627
4.0885
4.11073
4.13296
4.15519
4.17742
4.19963
4.22185
4.24406
4.26626
4.28845
4.31063
4.3328
4.35497
4.37712
4.39926
4.42139
4.44351
4.46562
4.48771
4.50979
4.53186
4.55392
4.57596
4.59799
4.62
4.642
4.66399
4.68596
4.70792
4.72987
4.7518
4.77373
4.79563
4.81753
4.83941
4.86128
4.88314
4.90499
4.92682
4.94865
4.97046
4.99227
5.01406
5.03585
5.05763
5.0794
5.10116
5.12292
5.14467
5.16641
5.18815
5.20989
5.23162
5.25334
5.27507
5.29679
5.31851
5.34023
5.36195
5.38367
5.40539
5.42712
5.44884
5.47057
5.4923
5.51404
5.53578
5.55753
5.57928
5.60104
5.62281
5.64458
5.66637
5.68816
5.70996
5.73177
5.7536
5.77543
5.79727
5.81913
5.841
5.86288
5.88477
5.90668
5.9286
5.95054
5.97249
5.99445
6.01643
6.03842
6.06042
6.08245
6.10448
6.12653
6.1486
6.17068
6.19277
6.21488
6.23701
6.25914
6.28129
6.30346
6.32564
6.34783
6.37003
6.39224
6.41447
6.43671
6.45896
6.48121
6.50348
6.52576
6.54804
6.57033
6.59263
6.61494
6.63724
6.65956
6.68188
6.7042
6.72652
6.74884
6.77117
6.79349
6.81581
6.83813
6.86045
6.88276
6.90507
6.92737
6.94967
6.97196
6.99424
7.01652
7.03878
7.06103
7.08327
7.1055
7.12772
7.14993
7.17212
7.1943
7.21646
7.2386
7.26073
7.28285
7.30494
7.32702
7.34909
7.37113
7.39315
7.41516
7.43715
7.45911
7.48106
7.50299
7.5249
7.54679
7.56866
7.59051
7.61234
7.63415
7.65594
7.67772
7.69947
7.7212
7.74292
7.76461
7.78629
7.80795
7.8296
7.85122
7.87283
7.89443
7.916
7.93756
7.95911
7.98064
8.00216
8.02366
8.04515
8.06663
8.0881
8.10955
8.131
8.15243
8.17386
8.19527
8.21668
8.23807
8.25946
8.28085
8.30223
8.3236
8.34496
8.36632
8.38768
8.40904
8.43039
8.45174
8.47308
8.49443
8.51577
8.53712
8.55846
8.5798
8.60115
8.6225
8.64385
8.6652
8.68656
8.70791
8.72928
8.75064
8.77201
8.79339
8.81477
8.83616
8.85755
8.87895
8.90035
8.92177
8.94319
8.96461
8.98605
9.00749
9.02894
9.0504
9.07186
9.09334
9.11482
9.13631
9.15781
9.17932
9.20084
9.22237
9.24391
9.26546
9.28701
9.30858
9.33015
9.35174
9.37333
9.39494
9.41655
9.43817
9.4598
9.48144
9.50309
9.52475
9.54642
9.56809
9.58978
9.61147
9.63317
9.65488
9.6766
9.69833
9.72006
9.74181
9.76356
9.78532
9.80708
9.82886
9.85064
9.87243
9.89423
9.91603
9.93784
9.95966
9.98149
10.0033
10.0252
10.047
10.0689
10.0907
10.1126
10.1345
10.1564
10.1782
10.2001
10.222
10.244
10.2659
10.2878
10.3098
10.3317
10.3537
10.3756
10.3976
10.4196
10.4416
10.4636
10.4856
10.5077
10.5297
10.5518
10.5738
10.5959
10.618
10.6401
10.6622
10.6844
10.7065
10.7287
10.7509
10.7731
10.7953
10.8175
10.8398
10.862
10.8843
10.9066
10.929
10.9513
10.9736
10.996
11.0184
11.0408
11.0633
11.0857
11.1082
11.1307
11.1532
11.1757
11.1983
11.2208
11.2434
11.266
11.2886
11.3112
11.3339
11.3565
11.3792
11.4019
11.4246
11.4473
11.4701
11.4928
11.5155
11.5383
11.5611
11.5838
11.6066
11.6294
11.6522
11.675
11.6977
11.7205
11.7433
11.7661
11.7889
11.8117
11.8345
11.8572
11.88
11.9027
11.9255
11.9482
11.9709
11.9936
12.0163
12.039
12.0616
12.0843
12.1069
12.1295
12.1521
12.1746
12.1972
12.2197
12.2422
12.2646
12.2871
12.3095
12.3318
12.3542
12.3765
12.3988
12.4211
12.4433
12.4655
12.4877
12.5098
12.532
12.554
12.5761
12.5981
12.6201
12.6421
12.664
12.6859
12.7078
12.7296
12.7514
12.7732
12.795
12.8167
12.8384
12.8601
12.8818
12.9034
12.925
12.9466
12.9682
12.9897
13.0112
13.0327
13.0542
13.0757
13.0971
13.1186
13.14
13.1614
13.1828
13.2042
13.2256
13.247
13.2683
13.2897
13.311
13.3324
13.3537
13.375
13.3964
13.4177
13.4391
13.4604
13.4817
13.5031
13.5244
13.5458
13.5671
13.5885
13.6098
13.6312
13.6526
13.674
13.6954
13.7168
13.7382
13.7596
13.7811
13.8025
13.824
13.8454
13.8669
13.8884
13.9099
13.9314
13.953
13.9745
13.9961
14.0176
14.0392
14.0608
14.0824
14.104
14.1256
14.1472
14.1689
14.1905
14.2122
14.2338
14.2555
14.2772
14.2989
14.3206
14.3423
14.364
14.3857
14.4075
14.4292
14.4509
14.4727
14.4944
14.5162
14.538
14.5597
14.5815
14.6033
14.6251
14.6469
14.6687
14.6905
14.7122
14.7341
14.7559
14.7777
14.7995
14.8213
14.8431
14.865
14.8868
14.9086
14.9305
14.9523
14.9741
14.996
15.0179
15.0397
15.0616
15.0835
15.1053
15.1272
15.1491
15.171
15.1929
15.2148
15.2368
15.2587
15.2806
15.3026
15.3246
15.3465
15.3685
15.3905
15.4125
15.4345
15.4566
15.4786
15.5007
15.5227
15.5448
15.5669
15.589
15.6111
15.6333
15.6554
15.6776
15.6998
15.722
15.7442
15.7664
15.7887
15.8109
15.8332
15.8555
15.8778
15.9001
15.9224
15.9448
15.9671
15.9895
16.0119
16.0343
16.0567
16.0791
16.1016
16.124
16.1465
16.1689
16.1914
16.2139
16.2363
16.2588
16.2813
16.3038
16.3263
16.3489
16.3714
16.3939
16.4164
16.4389
16.4614
16.484
16.5065
16.529
16.5515
16.5741
16.5966
16.6191
16.6416
16.6641
16.6866
16.7091
16.7316
16.7541
16.7766
16.7991
16.8215
16.844
16.8665
16.8889
16.9114
16.9338
16.9563
16.9787
17.0011
17.0235
17.046
17.0684
17.0908
17.1132
17.1355
17.1579
17.1803
17.2027
17.225
17.2474
17.2697
17.2921
17.3144
17.3367
17.359
17.3814
17.4037
17.426
17.4483
17.4706
17.4928
17.5151
17.5374
17.5596
17.5819
17.6041
17.6263
17.6486
17.6708
17.693
17.7152
17.7374
17.7596
17.7817
17.8039
17.826
17.8482
17.8703
17.8924
17.9145
17.9365
17.9586
17.9807
18.0027
18.0247
18.0467
18.0687
18.0907
18.1126
18.1345
18.1565
18.1783
18.2002
18.2221
18.2439
18.2657
18.2875
18.3093
18.331
18.3528
18.3745
18.3962
18.4178
18.4395
18.4611
18.4827
18.5043
18.5259
18.5474
18.5689
18.5904
18.6119
18.6334
18.6548
18.6763
18.6977
18.7191
18.7405
18.7619
18.7832
18.8046
18.8259
18.8472
18.8685
18.8898
18.9111
18.9324
18.9537
18.975
18.9962
19.0175
19.0387
19.06
19.0812
19.1025
19.1237
19.145
19.1663
19.1875
19.2088
19.23
19.2513
19.2726
19.2939
19.3152
19.3365
19.3578
19.3791
19.4005
19.4218
19.4432
19.4646
19.486
19.5074
19.5288
19.5502
19.5717
19.5932
19.6147
19.6362
19.6577
19.6793
19.7008
19.7224
19.744
19.7657
19.7873
19.809
19.8307
19.8524
19.8742
19.8959
19.9177
19.9395
19.9614
19.9832
20.0051
20.027
20.0489
20.0709
20.0929
20.1148
20.1369
20.1589
20.181
20.203
20.2251
20.2473
20.2694
20.2916
20.3138
20.336
20.3582
20.3805
20.4028
20.4251
20.4474
20.4697
20.4921
20.5144
20.5368
20.5592
20.5817
20.6041
20.6266
20.6491
20.6716
20.6941
20.7166
20.7392
20.7617
20.7843
20.8069
20.8295
20.8521
20.8748
20.8974
20.9201
20.9427
20.9654
20.9881
21.0108
21.0335
21.0562
21.079
21.1017
21.1244
21.1472
21.1699
21.1927
21.2154
21.2382
21.2609
21.2837
21.3065
21.3292
21.352
21.3748
21.3975
21.4203
21.443
21.4658
21.4885
21.5112
21.534
21.5567
21.5794
21.6021
21.6248
21.6475
21.6702
21.6928
21.7155
21.7381
21.7607
21.7833
21.8059
21.8285
21.851
21.8735
21.8961
21.9186
21.941
21.9635
21.9859
22.0084
22.0307
22.0531
22.0755
22.0978
22.1201
22.1424
22.1646
22.1869
22.2091
22.2313
22.2534
22.2756
22.2977
22.3198
22.3418
22.3639
22.3859
22.4079
22.4298
22.4518
22.4737
22.4956
22.5174
22.5393
22.5611
22.5829
22.6046
22.6264
22.6481
22.6698
22.6915
22.7131
22.7348
22.7564
22.778
22.7995
22.8211
22.8426
22.8641
22.8856
22.9071
22.9286
22.95
22.9715
22.9929
23.0143
23.0357
23.057
23.0784
23.0997
23.1211
23.1424
23.1637
23.185
23.2063
23.2276
23.2489
23.2701
23.2914
23.3126
23.3338
23.3551
23.3763
23.3975
23.4187
23.4399
23.4611
23.4823
23.5035
23.5247
23.5459
23.5671
23.5882
23.6094
23.6306
23.6518
23.6729
23.6941
23.7153
23.7364
23.7576
23.7788
23.8
23.8211
23.8423
23.8635
23.8847
23.9059
23.9271
23.9483
23.9695
23.9907
24.012
24.0332
24.0544
24.0757
24.097
24.1182
24.1395
24.1608
24.1822
24.2035
24.2248
24.2462
24.2676
24.289
24.3104
24.3318
24.3532
24.3747
24.3962
24.4177
24.4392
24.4607
24.4823
24.5038
24.5254
24.547
24.5687
24.5903
24.612
24.6337
24.6554
24.6771
24.6989
24.7206
24.7424
24.7642
24.786
24.8079
24.8297
24.8516
24.8735
24.8954
24.9173
24.9393
24.9612
24.9832
25.0051
25.0271
25.0491
25.0712
25.0932
25.1152
25.1373
25.1594
25.1814
25.2035
25.2256
25.2477
25.2698
25.2919
25.3141
25.3362
25.3583
25.3805
25.4026
25.4248
25.447
25.4691
25.4913
25.5135
25.5357
25.5579
25.5801
25.6023
25.6245
25.6468
25.669
25.6912
25.7134
25.7357
25.7579
25.7802
25.8025
25.8247
25.847
25.8693
25.8915
25.9138
25.9361
25.9584
25.9807
26.003
26.0253
26.0476
26.0699
26.0922
26.1145
26.1368
26.1591
26.1814
26.2038
26.2261
26.2484
26.2707
26.293
26.3153
26.3376
26.3599
26.3822
26.4045
26.4267
26.449
26.4713
26.4935
26.5157
26.5379
26.5601
26.5823
26.6045
26.6266
26.6488
26.6709
26.693
26.7151
26.7371
26.7591
26.7811
26.8031
26.8251
26.847
26.8689
26.8907
26.9126
26.9344
26.9562
26.9779
26.9996
27.0213
27.043
27.0646
27.0862
27.1078
27.1293
27.1508
27.1723
27.1937
27.2151
27.2365
27.2578
27.2792
27.3005
27.3217
27.343
27.3642
27.3853
27.4065
27.4276
27.4487
27.4698
27.4909
27.5119
27.5329
27.5539
27.5749
27.5959
27.6168
27.6378
27.6587
27.6796
27.7005
27.7213
27.7422
27.7631
27.7839
27.8047
27.8256
27.8464
27.8672
27.888
27.9089
27.9297
27.9505
27.9713
27.9921
28.0129
28.0338
28.0546
28.0754
28.0963
28.1171
28.138
28.1588
28.1797
28.2006
28.2215
28.2424
28.2633
28.2842
28.3052
28.3261
28.3471
28.3681
28.3891
28.4101
28.4312
28.4522
28.4733
28.4944
28.5155
28.5367
28.5578
28.579
28.6002
28.6214
28.6426
28.6639
28.6852
28.7065
28.7278
28.7491
28.7705
28.7919
28.8133
28.8347
28.8561
28.8776
28.8991
28.9206
28.9421
28.9636
28.9852
29.0067
29.0283
29.0499
29.0715
29.0932
29.1148
29.1365
29.1582
29.1799
29.2016
29.2234
29.2451
29.2669
29.2886
29.3104
29.3322
29.354
29.3758
29.3977
29.4195
29.4413
29.4632
29.4851
29.5069
29.5288
29.5507
29.5726
29.5945
29.6164
29.6383
29.6602
29.6822
29.7041
29.726
29.7479
29.7699
29.7918
29.8137
29.8357
29.8576
29.8795
29.9015
29.9234
29.9453
29.9672
29.9891
30.0111
30.033
30.0549
30.0768
30.0987
30.1205
30.1424
30.1643
30.1861
30.208
30.2298
30.2517
30.2735
30.2953
30.3171
30.3389
30.3607
30.3824
30.4042
30.4259
30.4476
30.4693
30.491
30.5127
30.5343
30.556
30.5776
30.5992
30.6208
30.6424
30.6639
30.6855
30.707
30.7285
30.75
30.7715
30.7929
30.8144
30.8358
30.8572
30.8786
30.8999
30.9213
30.9426
30.9639
30.9852
31.0065
31.0277
31.049
31.0702
31.0914
31.1126
31.1338
31.1549
31.176
31.1972
31.2183
31.2394
31.2604
31.2815
31.3025
31.3235
31.3446
31.3656
31.3865
31.4075
31.4284
31.4494
31.4703
31.4912
31.5121
31.533
31.5539
31.5747
31.5956
31.6164
31.6372
31.6581
31.6789
31.6997
31.7205
31.7412
31.762
31.7828
31.8035
31.8243
31.845
31.8657
31.8865
31.9072
31.9279
31.9487
31.9694
31.9901
32.0108
32.0315
32.0522
32.0729
32.0937
32.1144
32.1351
32.1558
32.1766
32.1973
32.218
32.2388
32.2595
32.2803
32.3011
32.3218
32.3426
32.3634
32.3842
32.4051
32.4259
32.4467
32.4676
32.4885
32.5094
32.5303
32.5512
32.5722
32.5931
32.6141
32.6351
32.6562
32.6772
32.6983
32.7194
32.7405
32.7616
32.7827
32.8039
32.8251
32.8463
32.8676
32.8888
32.9101
32.9315
32.9528
32.9742
32.9955
33.017
33.0384
33.0598
33.0813
33.1028
33.1243
33.1459
33.1674
33.189
33.2106
33.2322
33.2538
33.2755
33.2971
33.3188
33.3405
33.3622
33.3839
33.4056
33.4273
33.4491
33.4708
33.4926
33.5144
33.5361
33.5579
33.5797
33.6015
33.6233
33.6451
33.6668
33.6886
33.7104
33.7322
33.754
33.7758
33.7976
33.8194
33.8412
33.863
33.8848
33.9066
33.9284
33.9502
33.972
33.9938
34.0156
34.0373
34.0591
34.0809
34.1026
34.1244
34.1461
34.1679
34.1896
34.2113
34.233
34.2548
34.2765
34.2982
34.3199
34.3415
34.3632
34.3849
34.4065
34.4282
34.4498
34.4715
34.4931
34.5147
34.5363
34.5579
34.5795
34.601
34.6226
34.6441
34.6657
34.6872
34.7087
34.7302
34.7517
34.7731
34.7946
34.816
34.8375
34.8589
34.8803
34.9017
34.923
34.9444
34.9657
34.987
35.0083
35.0296
35.0509
35.0721
35.0934
35.1146
35.1358
35.1569
35.1781
35.1992
35.2203
35.2414
35.2625
35.2835
35.3045
35.3255
35.3465
35.3675
35.3884
35.4093
35.4302
35.4511
35.4719
35.4927
35.5135
35.5343
35.555
35.5757
35.5964
35.6171
35.6377
35.6584
35.679
35.6995
35.7201
35.7406
35.7611
35.7816
35.802
35.8225
35.8429
35.8633
35.8836
35.904
35.9243
35.9446
35.9649
35.9851
36.0054
36.0256
36.0458
36.066
36.0862
36.1063
36.1265
36.1466
36.1667
36.1868
36.2069
36.227
36.247
36.2671
36.2872
36.3072
36.3272
36.3473
36.3673
36.3873
36.4073
36.4274
36.4474
36.4674
36.4874
36.5074
36.5274
36.5474
36.5674
36.5875
36.6075
36.6275
36.6475
36.6676
36.6876
36.7076
36.7277
36.7477
36.7678
36.7878
36.8079
36.8279
36.848
36.8681
36.8881
36.9082
36.9283
36.9484
36.9685
36.9886
37.0087
37.0288
37.0489
37.069
37.0891
37.1092
37.1293
37.1495
37.1696
37.1897
37.2098
37.23
37.2501
37.2703
37.2904
37.3106
37.3307
37.3509
37.3711
37.3912
37.4114
37.4316
37.4518
37.472
37.4922
37.5124
37.5326
37.5529
37.5731
37.5934
37.6136
37.6339
37.6542
37.6745
37.6948
37.7151
37.7354
37.7558
37.7761
37.7965
37.8169
37.8373
37.8577
37.8781
37.8985
37.919
37.9394
37.9599
37.9803
38.0008
38.0213
38.0418
38.0624
38.0829
38.1034
38.124
38.1445
38.1651
38.1857
38.2063
38.2269
38.2474
38.268
38.2887
38.3093
38.3299
38.3505
38.3711
38.3918
38.4124
38.433
38.4537
38.4743
38.4949
38.5156
38.5362
38.5569
38.5775
38.5982
38.6188
38.6395
38.6601
38.6807
38.7014
38.722
38.7427
38.7633
38.7839
38.8046
38.8252
38.8458
38.8665
38.8871
38.9077
38.9283
38.9489
38.9695
38.9901
39.0107
39.0313
39.0519
39.0724
39.093
39.1135
39.134
39.1546
39.1751
39.1955
39.216
39.2365
39.2569
39.2773
39.2977
39.318
39.3384
39.3587
39.379
39.3993
39.4195
39.4398
39.46
39.4801
39.5003
39.5204
39.5405
39.5606
39.5806
39.6006
39.6206
39.6405
39.6605
39.6804
39.7002
39.7201
39.7399
39.7597
39.7794
39.7991
39.8188
39.8385
39.8582
39.8778
39.8974
39.9169
39.9365
39.956
39.9755
39.9949
40.0143
40.0337
40.0531
40.0724
40.0917
40.111
40.1303
40.1495
40.1687
40.1878
40.207
40.2261
40.2451
40.2642
40.2832
40.3021
40.321
40.3399
40.3588
40.3776
40.3964
40.4152
40.4339
40.4526
40.4712
40.4898
40.5084
40.5269
40.5454
40.5639
40.5824
40.6008
40.6191
40.6375
40.6558
40.674
40.6923
40.7105
40.7286
40.7468
40.7649
40.7829
40.801
40.819
40.837
40.8549
40.8728
40.8906
40.9085
40.9263
40.944
40.9617
40.9794
40.997
41.0146
41.0321
41.0496
41.067
41.0844
41.1017
41.119
41.1362
41.1534
41.1705
41.1876
41.2046
41.2215
41.2384
41.2552
41.272
41.2887
41.3053
41.3219
41.3384
41.3549
41.3713
41.3876
41.4039
41.4201
41.4363
41.4525
41.4685
41.4846
41.5006
41.5165
41.5324
41.5483
41.5641
41.5799
41.5956
41.6113
41.627
41.6426
41.6583
41.6739
41.6894
41.705
41.7205
41.736
41.7514
41.7669
41.7823
41.7977
41.8131
41.8285
41.8438
41.8591
41.8744
41.8897
41.9049
41.9202
41.9354
41.9506
41.9657
41.9809
41.996
42.0111
42.0262
42.0413
42.0563
42.0713
42.0863
42.1013
42.1162
42.1312
42.1461
42.161
42.1759
42.1908
42.2056
42.2205
42.2353
42.2502
42.265
42.2798
42.2946
42.3094
42.3242
42.339
42.3538
42.3685
42.3833
42.3981
42.4129
42.4277
42.4425
42.4573
42.4721
42.4869
42.5017
42.5165
42.5314
42.5462
42.5611
42.5759
42.5908
42.6056
42.6205
42.6354
42.6503
42.6651
42.68
42.6949
42.7098
42.7247
42.7396
42.7545
42.7694
42.7843
42.7992
42.8141
42.829
42.8438
42.8587
42.8736
42.8884
42.9032
42.9181
42.9329
42.9477
42.9624
42.9772
42.9919
43.0067
43.0214
43.0361
43.0508
43.0654
43.08
43.0947
43.1093
43.1238
43.1384
43.1529
43.1674
43.1819
43.1964
43.2108
43.2252
43.2396
43.254
43.2683
43.2826
43.2969
43.3112
43.3254
43.3397
43.3539
43.3681
43.3822
43.3963
43.4104
43.4245
43.4386
43.4526
43.4666
43.4806
43.4946
43.5085
43.5224
43.5363
43.5502
43.5641
43.5779
43.5917
43.6055
43.6192
43.633
43.6467
43.6604
43.6741
43.6877
43.7014
43.715
43.7286
43.7422
43.7557
43.7693
43.7828
43.7963
43.8098
43.8232
43.8367
43.8501
43.8635
43.8769
43.8903
43.9037
43.917
43.9304
43.9437
43.957
43.9703
43.9835
43.9968
44.0101
44.0233
44.0365
44.0497
44.0629
44.0761
44.0893
44.1025
44.1157
44.1288
44.142
44.1551
44.1682
44.1814
44.1945
44.2076
44.2207
44.2338
44.2469
44.26
44.2731
44.2862
44.2992
44.3123
44.3254
44.3385
44.3516
44.3646
44.3777
44.3908
44.4039
44.4169
44.43
44.4431
44.4562
44.4693
44.4824
44.4955
44.5086
44.5217
44.5348
44.5479
44.561
44.5741
44.5872
44.6004
44.6135
44.6266
44.6398
44.653
44.6661
44.6793
44.6925
44.7057
44.7189
44.7321
44.7453
44.7585
44.7717
44.785
44.7982
44.8115
44.8248
44.8381
44.8513
44.8646
44.878
44.8913
44.9046
44.918
44.9313
44.9447
44.9581
44.9714
44.9848
44.9982
45.0117
45.0251
45.0385
45.052
45.0654
45.0789
45.0924
45.1059
45.1194
45.1329
45.1464
45.1599
45.1735
45.187
45.2006
45.2141
45.2277
45.2413
45.2549
45.2685
45.2821
45.2957
45.3093
45.323
45.3366
45.3502
45.3639
45.3775
45.3912
45.4048
45.4185
45.4322
45.4458
45.4595
45.4732
45.4869
45.5006
45.5143
45.5279
45.5416
45.5553
45.569
45.5827
45.5964
45.6101
45.6238
45.6375
45.6512
45.6649
45.6786
45.6923
45.706
45.7197
45.7334
45.747
45.7607
45.7744
45.7881
45.8017
45.8154
45.829
45.8427
45.8563
45.87
45.8836
45.8972
45.9108
45.9245
45.9381
45.9517
45.9653
45.9788
45.9924
46.006
46.0195
46.0331
46.0466
46.0601
46.0736
46.0872
46.1007
46.1141
46.1276
46.1411
46.1545
46.168
46.1814
46.1948
46.2083
46.2217
46.235
46.2484
46.2618
46.2752
46.2885
46.3018
46.3152
46.3285
46.3418
46.3551
46.3684
46.3816
46.3949
46.4081
46.4214
46.4346
46.4478
46.4611
46.4743
46.4875
46.5006
46.5138
46.527
46.5401
46.5533
46.5664
46.5796
46.5927
46.6058
46.6189
46.632
46.6452
46.6582
46.6713
46.6844
46.6975
46.7106
46.7236
46.7367
46.7498
46.7628
46.7759
46.7889
46.802
46.815
46.8281
46.8411
46.8542
46.8672
46.8803
46.8933
46.9063
46.9194
46.9324
46.9455
46.9585
46.9716
46.9846
46.9977
47.0107
47.0238
47.0369
47.0499
47.063
47.0761
47.0892
47.1023
47.1154
47.1285
47.1416
47.1547
47.1678
47.181
47.1941
47.2073
47.2204
47.2336
47.2468
47.2599
47.2731
47.2864
47.2996
47.3128
47.326
47.3393
47.3525
47.3658
47.3791
47.3924
47.4057
47.419
47.4323
47.4457
47.459
47.4724
47.4858
47.4992
47.5126
47.526
47.5394
47.5529
47.5663
47.5798
47.5933
47.6068
47.6203
47.6338
47.6474
47.6609
47.6745
47.6881
47.7017
47.7153
47.7289
47.7425
47.7561
47.7698
47.7835
47.7971
47.8108
47.8245
47.8382
47.852
47.8657
47.8794
47.8932
47.907
47.9207
47.9345
47.9483
47.9621
47.976
47.9898
48.0036
48.0175
48.0313
48.0452
48.059
48.0729
48.0868
48.1007
48.1146
48.1285
48.1424
48.1563
48.1702
48.1841
48.1981
48.212
48.2259
48.2399
48.2538
48.2678
48.2817
48.2957
48.3096
48.3236
48.3375
48.3515
48.3654
48.3794
48.3933
48.4073
48.4212
48.4352
48.4491
48.4631
48.477
48.491
48.5049
48.5188
48.5328
48.5467
48.5606
48.5745
48.5884
48.6023
48.6162
48.6301
48.644
48.6579
48.6718
48.6856
48.6995
48.7134
48.7272
48.741
48.7549
48.7687
48.7825
48.7963
48.8101
48.8239
48.8377
48.8515
48.8652
48.879
48.8927
48.9065
48.9202
48.9339
48.9476
48.9613
48.975
48.9887
49.0023
49.016
49.0296
49.0433
49.0569
49.0705
49.0841
49.0977
49.1113
49.1249
49.1385
49.152
49.1656
49.1791
49.1927
49.2062
49.2197
49.2332
49.2467
49.2602
49.2737
49.2872
49.3007
49.3141
49.3276
49.341
49.3545
49.3679
49.3814
49.3948
49.4082
49.4216
49.435
49.4485
49.4619
49.4753
49.4887
49.5021
49.5155
49.5288
49.5422
49.5556
49.569
49.5824
49.5958
49.6092
49.6226
49.6359
49.6493
49.6627
49.6761
49.6895
49.7029
49.7163
49.7297
49.7431
49.7565
49.7699
49.7833
49.7967
49.8101
49.8236
49.837
49.8504
49.8639
49.8773
49.8908
49.9042
49.9177
49.9312
49.9447
49.9582
49.9717
49.9852
49.9987
50.0122
50.0258
50.0393
50.0529
50.0664
50.08
50.0936
50.1072
50.1208
50.1344
50.148
50.1616
50.1753
50.189
50.2026
50.2163
50.23
50.2437
50.2574
50.2711
50.2849
50.2986
50.3124
50.3262
50.3399
50.3537
50.3675
50.3814
50.3952
50.409
50.4229
50.4368
50.4506
50.4645
50.4784
50.4923
50.5063
50.5202
50.5341
50.5481
50.5621
50.576
50.59
50.604
50.618
50.632
50.646
50.6601
50.6741
50.6882
50.7022
50.7163
50.7304
50.7444
50.7585
50.7726
50.7867
50.8008
50.815
50.8291
50.8432
50.8573
50.8715
50.8856
50.8998
50.9139
50.9281
50.9422
50.9564
50.9705
50.9847
50.9989
51.0131
51.0272
51.0414
51.0556
51.0698
51.0839
51.0981
51.1123
51.1265
51.1406
51.1548
51.169
51.1831
51.1973
51.2115
51.2256
51.2398
51.254
51.2681
51.2823
51.2964
51.3106
51.3247
51.3388
51.353
51.3671
51.3812
51.3953
51.4094
51.4235
51.4376
51.4517
51.4658
51.4798
51.4939
51.508
51.522
51.5361
51.5501
51.5641
51.5782
51.5922
51.6062
51.6202
51.6342
51.6482
51.6621
51.6761
51.6901
51.704
51.718
51.7319
51.7458
51.7597
51.7737
51.7876
51.8015
51.8153
51.8292
51.8431
51.857
51.8708
51.8847
51.8985
51.9124
51.9262
51.94
51.9538
51.9676
51.9814
51.9952
52.009
52.0228
52.0366
52.0504
52.0642
52.0779
52.0917
52.1054
52.1192
52.133
52.1467
52.1605
52.1742
52.1879
52.2017
52.2154
52.2292
52.2429
52.2566
52.2704
52.2841
52.2978
52.3116
52.3253
52.339
52.3528
52.3665
52.3803
52.394
52.4077
52.4215
52.4352
52.449
52.4627
52.4765
52.4903
52.504
52.5178
52.5316
52.5454
52.5592
52.573
52.5868
52.6006
52.6144
52.6282
52.642
52.6559
52.6697
52.6836
52.6974
52.7113
52.7252
52.739
52.7529
52.7668
52.7807
52.7947
52.8086
52.8225
52.8365
52.8504
52.8644
52.8784
52.8923
52.9063
52.9203
52.9344
52.9484
52.9624
52.9765
52.9905
53.0046
53.0187
53.0327
53.0468
53.0609
53.0751
53.0892
53.1033
53.1175
53.1316
53.1458
53.16
53.1741
53.1883
53.2025
53.2167
53.231
53.2452
53.2594
53.2737
53.2879
53.3022
53.3165
53.3308
53.345
53.3593
53.3736
53.3879
53.4023
53.4166
53.4309
53.4453
53.4596
53.4739
53.4883
53.5026
53.517
53.5314
53.5458
53.5601
53.5745
53.5889
53.6033
53.6177
53.6321
53.6465
53.6609
53.6753
53.6897
53.7041
53.7185
53.7329
53.7473
53.7617
53.7761
53.7905
53.8049
53.8193
53.8337
53.8481
53.8625
53.8769
53.8913
53.9057
53.9201
53.9345
53.9489
53.9632
53.9776
53.992
54.0064
54.0207
54.0351
54.0495
54.0638
54.0782
54.0925
54.1069
54.1212
54.1355
54.1499
54.1642
54.1785
54.1928
54.2071
54.2214
54.2357
54.25
54.2642
54.2785
54.2928
54.307
54.3213
54.3355
54.3498
54.364
54.3782
54.3925
54.4067
54.4209
54.4351
54.4493
54.4635
54.4777
54.4918
54.506
54.5202
54.5344
54.5485
54.5627
54.5768
54.5909
54.6051
54.6192
54.6333
54.6475
54.6616
54.6757
54.6898
54.7039
54.718
54.7321
54.7462
54.7603
54.7744
54.7885
54.8026
54.8167
54.8307
54.8448
54.8589
54.873
54.8871
54.9011
54.9152
54.9293
54.9434
54.9575
54.9715
54.9856
54.9997
55.0138
55.0279
55.042
55.056
55.0701
55.0842
55.0983
55.1124
55.1265
55.1407
55.1548
55.1689
55.183
55.1971
55.2113
55.2254
55.2395
55.2537
55.2678
55.282
55.2962
55.3103
55.3245
55.3387
55.3529
55.3671
55.3813
55.3955
55.4097
55.424
55.4382
55.4524
55.4667
55.4809
55.4952
55.5095
55.5238
55.5381
55.5524
55.5667
55.581
55.5953
55.6096
55.624
55.6383
55.6527
55.6671
55.6815
55.6958
55.7102
55.7246
55.739
55.7535
55.7679
55.7823
55.7968
55.8112
55.8257
55.8402
55.8546
55.8691
55.8836
55.8981
55.9126
55.9271
55.9417
55.9562
55.9707
55.9853
55.9998
56.0144
56.0289
56.0435
56.0581
56.0726
56.0872
56.1018
56.1164
56.131
56.1456
56.1602
56.1748
56.1894
56.2041
56.2187
56.2333
56.2479
56.2625
56.2772
56.2918
56.3064
56.3211
56.3357
56.3503
56.365
56.3796
56.3943
56.4089
56.4235
56.4382
56.4528
56.4674
56.4821
56.4967
56.5113
56.526
56.5406
56.5552
56.5699
56.5845
56.5991
56.6137
56.6283
56.643
56.6576
56.6722
56.6868
56.7014
56.716
56.7306
56.7451
56.7597
56.7743
56.7889
56.8034
56.818
56.8326
56.8471
56.8617
56.8762
56.8908
56.9053
56.9198
56.9343
56.9489
56.9634
56.9779
56.9924
57.0069
57.0214
57.0359
57.0504
57.0649
57.0793
57.0938
57.1083
57.1227
57.1372
57.1516
57.1661
57.1805
57.195
57.2094
57.2238
57.2383
57.2527
57.2671
57.2815
57.2959
57.3104
57.3248
57.3392
57.3536
57.368
57.3824
57.3968
57.4112
57.4256
57.4399
57.4543
57.4687
57.4831
57.4975
57.5119
57.5263
57.5407
57.555
57.5694
57.5838
57.5982
57.6126
57.627
57.6414
57.6558
57.6702
57.6845
57.699
57.7133
57.7278
57.7422
57.7566
57.771
57.7854
57.7998
57.8142
57.8287
57.8431
57.8575
57.872
57.8864
57.9009
57.9153
57.9298
57.9443
57.9587
57.9732
57.9877
58.0022
58.0167
58.0312
58.0457
58.0602
58.0747
58.0893
58.1038
58.1183
58.1329
58.1475
58.162
58.1766
58.1912
58.2058
58.2204
58.235
58.2496
58.2642
58.2788
58.2935
58.3081
58.3228
58.3374
58.3521
58.3668
58.3815
58.3961
58.4108
58.4255
58.4403
58.455
58.4697
58.4844
58.4992
58.5139
58.5287
58.5435
58.5582
58.573
58.5878
58.6026
58.6174
58.6322
58.647
58.6618
58.6766
58.6914
58.7062
58.7211
58.7359
58.7508
58.7656
58.7805
58.7953
58.8102
58.825
58.8399
58.8548
58.8697
58.8845
58.8994
58.9143
58.9292
58.9441
58.9589
58.9738
58.9887
59.0036
59.0185
59.0334
59.0483
59.0632
59.0781
59.093
59.1079
59.1228
59.1377
59.1526
59.1674
59.1823
59.1972
59.2121
59.227
59.2419
59.2568
59.2716
59.2865
59.3014
59.3163
59.3311
59.346
59.3609
59.3757
59.3906
59.4055
59.4203
59.4352
59.45
59.4648
59.4797
59.4945
59.5093
59.5242
59.539
59.5538
59.5686
59.5834
59.5982
59.6131
59.6279
59.6426
59.6574
59.6722
59.687
59.7018
59.7166
59.7313
59.7461
59.7609
59.7756
59.7904
59.8052
59.8199
59.8347
59.8494
59.8641
59.8789
59.8936
59.9084
59.9231
59.9378
59.9525
59.9673
59.982
59.9967
60.0114
60.0262
60.0409
60.0556
60.0703
60.085
60.0997
60.1144
60.1292
60.1439
60.1586
60.1733
60.188
60.2027
60.2174
60.2322
60.2469
60.2616
60.2763
60.291
60.3058
60.3205
60.3352
60.3499
60.3647
60.3794
60.3941
60.4089
60.4236
60.4384
60.4531
60.4679
60.4827
60.4974
60.5122
60.527
60.5417
60.5565
60.5713
60.5861
60.6009
60.6157
60.6305
60.6453
60.6601
60.675
60.6898
60.7046
60.7195
60.7343
60.7492
60.764
60.7789
60.7938
60.8087
60.8235
60.8384
60.8533
60.8682
60.8831
60.8981
60.913
60.9279
60.9428
60.9578
60.9727
60.9877
61.0026
61.0176
61.0326
61.0476
61.0625
61.0775
61.0925
61.1075
61.1225
61.1375
61.1526
61.1676
61.1826
61.1976
61.2127
61.2277
61.2428
61.2578
61.2729
61.2879
61.303
61.3181
61.3331
61.3482
61.3633
61.3784
61.3935
61.4086
61.4237
61.4388
61.4539
61.469
61.4841
61.4992
61.5143
61.5294
61.5445
61.5596
61.5747
61.5898
61.605
61.6201
61.6352
61.6503
61.6654
61.6806
61.6957
61.7108
61.7259
61.741
61.7562
61.7713
61.7864
61.8015
61.8166
61.8317
61.8468
61.862
61.8771
61.8922
61.9073
61.9224
61.9375
61.9526
61.9677
61.9828
61.9979
62.013
62.0281
62.0432
62.0582
62.0733
62.0884
62.1035
62.1186
62.1336
62.1487
62.1638
62.1788
62.1939
62.209
62.224
62.2391
62.2541
62.2692
62.2842
62.2993
62.3143
62.3294
62.3444
62.3594
62.3745
62.3895
62.4046
62.4196
62.4346
62.4496
62.4647
62.4797
62.4947
62.5097
62.5248
62.5398
62.5548
62.5698
62.5848
62.5999
62.6149
62.6299
62.6449
62.6599
62.675
62.69
62.705
62.72
62.7351
62.7501
62.7651
62.7801
62.7952
62.8102
62.8252
62.8403
62.8553
62.8703
62.8854
62.9004
62.9155
62.9305
62.9456
62.9606
62.9757
62.9907
63.0058
63.0209
63.0359
63.051
63.0661
63.0812
63.0963
63.1114
63.1265
63.1416
63.1567
63.1718
63.1869
63.202
63.2171
63.2323
63.2474
63.2625
63.2777
63.2928
63.308
63.3231
63.3383
63.3535
63.3686
63.3838
63.399
63.4142
63.4294
63.4446
63.4598
63.475
63.4902
63.5055
63.5207
63.5359
63.5512
63.5664
63.5816
63.5969
63.6122
63.6274
63.6427
63.658
63.6732
63.6885
63.7038
63.7191
63.7344
63.7497
63.765
63.7803
63.7956
63.8109
63.8262
63.8415
63.8569
63.8722
63.8875
63.9029
63.9182
63.9335
63.9489
63.9642
63.9796
63.9949
64.0103
64.0256
64.041
64.0563
64.0717
64.087
64.1024
64.1177
64.1331
64.1485
64.1638
64.1792
64.1946
64.2099
64.2253
64.2407
64.256
64.2714
64.2867
64.3021
64.3175
64.3328
64.3482
64.3636
64.3789
64.3943
64.4096
64.425
64.4404
64.4557
64.4711
64.4864
64.5018
64.5171
64.5325
64.5478
64.5632
64.5785
64.5938
64.6092
64.6245
64.6399
64.6552
64.6705
64.6859
64.7012
64.7165
64.7318
64.7472
64.7625
64.7778
64.7931
64.8084
64.8238
64.8391
64.8544
64.8697
64.885
64.9003
64.9156
64.9309
64.9462
64.9615
64.9768
64.9921
65.0074
65.0227
65.038
65.0533
65.0686
65.0839
65.0992
65.1145
65.1298
65.1451
65.1604
65.1757
65.191
65.2063
65.2216
65.2369
65.2522
65.2675
65.2828
65.2981
65.3134
65.3287
65.344
65.3593
65.3746
65.39
65.4053
65.4206
65.4359
65.4512
65.4666
65.4819
65.4972
65.5125
65.5279
65.5432
65.5586
65.5739
65.5893
65.6046
65.62
65.6353
65.6507
65.6661
65.6814
65.6968
65.7122
65.7276
65.743
65.7584
65.7738
65.7892
65.8046
65.82
65.8354
65.8509
65.8663
65.8817
65.8972
65.9126
65.9281
65.9435
65.959
65.9744
65.9899
66.0054
66.0209
66.0364
66.0518
66.0673
66.0828
66.0983
66.1139
66.1294
66.1449
66.1604
66.176
66.1915
66.207
66.2226
66.2381
66.2537
66.2692
66.2848
66.3004
66.316
66.3315
66.3471
66.3627
66.3783
66.3939
66.4095
66.4251
66.4407
66.4563
66.4719
66.4875
66.5031
66.5188
66.5344
66.55
66.5657
66.5813
66.5969
66.6126
66.6282
66.6439
66.6595
66.6752
66.6908
66.7065
66.7221
66.7378
66.7534
66.7691
66.7847
66.8004
66.8161
66.8317
66.8474
66.863
66.8787
66.8944
66.91
66.9257
66.9414
66.957
66.9727
66.9884
67.004
67.0197
67.0353
67.051
67.0667
67.0823
67.098
67.1136
67.1293
67.145
67.1606
67.1763
67.1919
67.2076
67.2232
67.2389
67.2545
67.2702
67.2858
67.3015
67.3171
67.3327
67.3484
67.364
67.3797
67.3953
67.4109
67.4266
67.4422
67.4578
67.4735
67.4891
67.5047
67.5204
67.536
67.5516
67.5672
67.5829
67.5985
67.6141
67.6297
67.6454
67.661
67.6766
67.6922
67.7078
67.7235
67.7391
67.7547
67.7703
67.7859
67.8016
67.8172
67.8328
67.8484
67.8641
67.8797
67.8953
67.9109
67.9266
67.9422
67.9578
67.9735
67.9891
68.0047
68.0204
68.036
68.0517
68.0673
68.0829
68.0986
68.1143
68.1299
68.1456
68.1612
68.1769
68.1926
68.2082
68.2239
68.2396
68.2553
68.2709
68.2866
68.3023
68.318
68.3337
68.3494
68.3651
68.3808
68.3965
68.4123
68.428
68.4437
68.4594
68.4752
68.4909
68.5066
68.5224
68.5381
68.5539
68.5696
68.5854
68.6011
68.6169
68.6327
68.6484
68.6642
68.68
68.6958
68.7115
68.7273
68.7431