/*--------------------------------*- C++ -*----------------------------------*\
  =========                 |
  \\      /  F ield         | OpenFOAM: The Open Source CFD Toolbox
   \\    /   O peration     | Website:  https://openfoam.org
    \\  /    A nd           | Version:  9
     \\/     M anipulation  |
\*---------------------------------------------------------------------------*/
FoamFile
{
    format      ascii;
    class       volVectorField;
    location    "0.043";
    object      U;
}
// * * * * * * * * * * * * * * * * * * * * * * * * * * * * * * * * * * * * * //

dimensions      [0 1 -1 0 0 0 0];

internalField   nonuniform List<vector> 
10000
(
(3.09455 0 0)
(3.12508 0 0)
(3.16549 0 0)
(3.20036 0 0)
(3.22529 0 0)
(3.25077 0 0)
(3.27752 0 0)
(3.30554 0 0)
(3.33428 0 0)
(3.36323 0 0)
(3.39208 0 0)
(3.42063 0 0)
(3.44899 0 0)
(3.47723 0 0)
(3.50551 0 0)
(3.53386 0 0)
(3.5623 0 0)
(3.59081 0 0)
(3.61937 0 0)
(3.64794 0 0)
(3.6765 0 0)
(3.70506 0 0)
(3.73363 0 0)
(3.76222 0 0)
(3.79083 0 0)
(3.81947 0 0)
(3.84813 0 0)
(3.87683 0 0)
(3.90554 0 0)
(3.93428 0 0)
(3.96303 0 0)
(3.9918 0 0)
(4.0206 0 0)
(4.04943 0 0)
(4.07828 0 0)
(4.10716 0 0)
(4.13606 0 0)
(4.16499 0 0)
(4.19393 0 0)
(4.2229 0 0)
(4.2519 0 0)
(4.28093 0 0)
(4.30998 0 0)
(4.33905 0 0)
(4.36815 0 0)
(4.39727 0 0)
(4.42642 0 0)
(4.45558 0 0)
(4.48477 0 0)
(4.51398 0 0)
(4.54321 0 0)
(4.57247 0 0)
(4.60174 0 0)
(4.63104 0 0)
(4.66036 0 0)
(4.68969 0 0)
(4.71904 0 0)
(4.74841 0 0)
(4.77779 0 0)
(4.80719 0 0)
(4.8366 0 0)
(4.86603 0 0)
(4.89546 0 0)
(4.92491 0 0)
(4.95437 0 0)
(4.98384 0 0)
(5.01332 0 0)
(5.04281 0 0)
(5.07231 0 0)
(5.10181 0 0)
(5.13131 0 0)
(5.16083 0 0)
(5.19034 0 0)
(5.21986 0 0)
(5.24938 0 0)
(5.2789 0 0)
(5.30841 0 0)
(5.33792 0 0)
(5.36743 0 0)
(5.39692 0 0)
(5.4264 0 0)
(5.45589 0 0)
(5.48536 0 0)
(5.51483 0 0)
(5.54429 0 0)
(5.57375 0 0)
(5.60318 0 0)
(5.63261 0 0)
(5.66202 0 0)
(5.69142 0 0)
(5.72081 0 0)
(5.75019 0 0)
(5.77956 0 0)
(5.80891 0 0)
(5.83825 0 0)
(5.86756 0 0)
(5.89685 0 0)
(5.92611 0 0)
(5.95536 0 0)
(5.9846 0 0)
(6.01383 0 0)
(6.04305 0 0)
(6.07224 0 0)
(6.10141 0 0)
(6.13056 0 0)
(6.1597 0 0)
(6.18882 0 0)
(6.21792 0 0)
(6.247 0 0)
(6.27605 0 0)
(6.30508 0 0)
(6.3341 0 0)
(6.36311 0 0)
(6.3921 0 0)
(6.42109 0 0)
(6.45007 0 0)
(6.47903 0 0)
(6.50798 0 0)
(6.53689 0 0)
(6.56579 0 0)
(6.59468 0 0)
(6.62356 0 0)
(6.65243 0 0)
(6.68129 0 0)
(6.71014 0 0)
(6.73898 0 0)
(6.7678 0 0)
(6.79662 0 0)
(6.82543 0 0)
(6.85423 0 0)
(6.88302 0 0)
(6.9118 0 0)
(6.94059 0 0)
(6.96937 0 0)
(6.99815 0 0)
(7.02692 0 0)
(7.0557 0 0)
(7.08447 0 0)
(7.11324 0 0)
(7.14201 0 0)
(7.17079 0 0)
(7.19956 0 0)
(7.22834 0 0)
(7.25713 0 0)
(7.28591 0 0)
(7.31471 0 0)
(7.34351 0 0)
(7.37232 0 0)
(7.40113 0 0)
(7.42996 0 0)
(7.45879 0 0)
(7.48763 0 0)
(7.51649 0 0)
(7.54536 0 0)
(7.57423 0 0)
(7.60313 0 0)
(7.63203 0 0)
(7.66095 0 0)
(7.68988 0 0)
(7.71883 0 0)
(7.74779 0 0)
(7.77677 0 0)
(7.80577 0 0)
(7.8348 0 0)
(7.86384 0 0)
(7.8929 0 0)
(7.92198 0 0)
(7.95107 0 0)
(7.98018 0 0)
(8.0093 0 0)
(8.03844 0 0)
(8.0676 0 0)
(8.09679 0 0)
(8.126 0 0)
(8.15523 0 0)
(8.18448 0 0)
(8.21376 0 0)
(8.24305 0 0)
(8.27236 0 0)
(8.30168 0 0)
(8.33102 0 0)
(8.36038 0 0)
(8.38975 0 0)
(8.41915 0 0)
(8.44856 0 0)
(8.47799 0 0)
(8.50743 0 0)
(8.5369 0 0)
(8.56637 0 0)
(8.59584 0 0)
(8.62532 0 0)
(8.65481 0 0)
(8.68431 0 0)
(8.71383 0 0)
(8.74337 0 0)
(8.77292 0 0)
(8.80248 0 0)
(8.83205 0 0)
(8.86161 0 0)
(8.89117 0 0)
(8.92072 0 0)
(8.95028 0 0)
(8.97984 0 0)
(9.0094 0 0)
(9.03897 0 0)
(9.06854 0 0)
(9.09811 0 0)
(9.12767 0 0)
(9.15722 0 0)
(9.18676 0 0)
(9.21629 0 0)
(9.24582 0 0)
(9.27534 0 0)
(9.30484 0 0)
(9.33432 0 0)
(9.3638 0 0)
(9.39326 0 0)
(9.42272 0 0)
(9.45217 0 0)
(9.4816 0 0)
(9.51099 0 0)
(9.54036 0 0)
(9.5697 0 0)
(9.59903 0 0)
(9.62835 0 0)
(9.65765 0 0)
(9.68693 0 0)
(9.71619 0 0)
(9.74542 0 0)
(9.77463 0 0)
(9.80381 0 0)
(9.83296 0 0)
(9.86209 0 0)
(9.8912 0 0)
(9.92028 0 0)
(9.94934 0 0)
(9.97837 0 0)
(10.0074 0 0)
(10.0364 0 0)
(10.0653 0 0)
(10.0942 0 0)
(10.1231 0 0)
(10.152 0 0)
(10.1809 0 0)
(10.2097 0 0)
(10.2385 0 0)
(10.2672 0 0)
(10.296 0 0)
(10.3247 0 0)
(10.3534 0 0)
(10.3821 0 0)
(10.4108 0 0)
(10.4394 0 0)
(10.468 0 0)
(10.4966 0 0)
(10.5252 0 0)
(10.5538 0 0)
(10.5823 0 0)
(10.6108 0 0)
(10.6393 0 0)
(10.6678 0 0)
(10.6963 0 0)
(10.7247 0 0)
(10.7531 0 0)
(10.7816 0 0)
(10.81 0 0)
(10.8384 0 0)
(10.8668 0 0)
(10.8952 0 0)
(10.9235 0 0)
(10.9519 0 0)
(10.9802 0 0)
(11.0086 0 0)
(11.0369 0 0)
(11.0652 0 0)
(11.0935 0 0)
(11.1218 0 0)
(11.1501 0 0)
(11.1784 0 0)
(11.2066 0 0)
(11.2349 0 0)
(11.2632 0 0)
(11.2915 0 0)
(11.3198 0 0)
(11.3481 0 0)
(11.3764 0 0)
(11.4047 0 0)
(11.4329 0 0)
(11.4612 0 0)
(11.4895 0 0)
(11.5178 0 0)
(11.5461 0 0)
(11.5744 0 0)
(11.6028 0 0)
(11.6311 0 0)
(11.6594 0 0)
(11.6877 0 0)
(11.716 0 0)
(11.7444 0 0)
(11.7728 0 0)
(11.8011 0 0)
(11.8295 0 0)
(11.8579 0 0)
(11.8863 0 0)
(11.9147 0 0)
(11.9431 0 0)
(11.9715 0 0)
(12 0 0)
(12.0284 0 0)
(12.0569 0 0)
(12.0853 0 0)
(12.1138 0 0)
(12.1423 0 0)
(12.1708 0 0)
(12.1993 0 0)
(12.2279 0 0)
(12.2564 0 0)
(12.285 0 0)
(12.3136 0 0)
(12.3422 0 0)
(12.3708 0 0)
(12.3994 0 0)
(12.428 0 0)
(12.4567 0 0)
(12.4853 0 0)
(12.514 0 0)
(12.5427 0 0)
(12.5714 0 0)
(12.6001 0 0)
(12.6288 0 0)
(12.6576 0 0)
(12.6863 0 0)
(12.7151 0 0)
(12.7438 0 0)
(12.7726 0 0)
(12.8014 0 0)
(12.8302 0 0)
(12.859 0 0)
(12.8879 0 0)
(12.9167 0 0)
(12.9455 0 0)
(12.9744 0 0)
(13.0033 0 0)
(13.0322 0 0)
(13.0611 0 0)
(13.09 0 0)
(13.1189 0 0)
(13.1479 0 0)
(13.1768 0 0)
(13.2058 0 0)
(13.2348 0 0)
(13.2638 0 0)
(13.2928 0 0)
(13.3218 0 0)
(13.3509 0 0)
(13.3799 0 0)
(13.4089 0 0)
(13.4379 0 0)
(13.467 0 0)
(13.496 0 0)
(13.5251 0 0)
(13.5542 0 0)
(13.5833 0 0)
(13.6124 0 0)
(13.6416 0 0)
(13.6707 0 0)
(13.6999 0 0)
(13.729 0 0)
(13.7582 0 0)
(13.7874 0 0)
(13.8166 0 0)
(13.8458 0 0)
(13.875 0 0)
(13.9042 0 0)
(13.9334 0 0)
(13.9627 0 0)
(13.992 0 0)
(14.0213 0 0)
(14.0506 0 0)
(14.08 0 0)
(14.1094 0 0)
(14.1387 0 0)
(14.1681 0 0)
(14.1975 0 0)
(14.2269 0 0)
(14.2564 0 0)
(14.2859 0 0)
(14.3154 0 0)
(14.3449 0 0)
(14.3744 0 0)
(14.404 0 0)
(14.4335 0 0)
(14.4631 0 0)
(14.4927 0 0)
(14.5224 0 0)
(14.5521 0 0)
(14.5818 0 0)
(14.6115 0 0)
(14.6413 0 0)
(14.671 0 0)
(14.7008 0 0)
(14.7306 0 0)
(14.7605 0 0)
(14.7904 0 0)
(14.8203 0 0)
(14.8502 0 0)
(14.8801 0 0)
(14.9101 0 0)
(14.9401 0 0)
(14.9701 0 0)
(15.0001 0 0)
(15.0302 0 0)
(15.0602 0 0)
(15.0903 0 0)
(15.1203 0 0)
(15.1504 0 0)
(15.1806 0 0)
(15.2107 0 0)
(15.2409 0 0)
(15.271 0 0)
(15.3012 0 0)
(15.3314 0 0)
(15.3616 0 0)
(15.3918 0 0)
(15.422 0 0)
(15.4522 0 0)
(15.4824 0 0)
(15.5126 0 0)
(15.5428 0 0)
(15.573 0 0)
(15.6032 0 0)
(15.6334 0 0)
(15.6636 0 0)
(15.6938 0 0)
(15.7239 0 0)
(15.7541 0 0)
(15.7842 0 0)
(15.8143 0 0)
(15.8444 0 0)
(15.8745 0 0)
(15.9046 0 0)
(15.9346 0 0)
(15.9647 0 0)
(15.9947 0 0)
(16.0247 0 0)
(16.0546 0 0)
(16.0846 0 0)
(16.1145 0 0)
(16.1444 0 0)
(16.1742 0 0)
(16.204 0 0)
(16.2338 0 0)
(16.2635 0 0)
(16.2932 0 0)
(16.3229 0 0)
(16.3525 0 0)
(16.3821 0 0)
(16.4117 0 0)
(16.4412 0 0)
(16.4707 0 0)
(16.5001 0 0)
(16.5295 0 0)
(16.5588 0 0)
(16.5881 0 0)
(16.6174 0 0)
(16.6466 0 0)
(16.6758 0 0)
(16.705 0 0)
(16.7341 0 0)
(16.7632 0 0)
(16.7923 0 0)
(16.8213 0 0)
(16.8503 0 0)
(16.8792 0 0)
(16.9081 0 0)
(16.9369 0 0)
(16.9658 0 0)
(16.9946 0 0)
(17.0233 0 0)
(17.052 0 0)
(17.0807 0 0)
(17.1093 0 0)
(17.1379 0 0)
(17.1665 0 0)
(17.1951 0 0)
(17.2237 0 0)
(17.2522 0 0)
(17.2807 0 0)
(17.3092 0 0)
(17.3377 0 0)
(17.3661 0 0)
(17.3945 0 0)
(17.4229 0 0)
(17.4513 0 0)
(17.4797 0 0)
(17.5081 0 0)
(17.5365 0 0)
(17.5648 0 0)
(17.5932 0 0)
(17.6215 0 0)
(17.6498 0 0)
(17.6782 0 0)
(17.7065 0 0)
(17.7348 0 0)
(17.7631 0 0)
(17.7915 0 0)
(17.8198 0 0)
(17.8481 0 0)
(17.8765 0 0)
(17.9048 0 0)
(17.9332 0 0)
(17.9616 0 0)
(17.9899 0 0)
(18.0183 0 0)
(18.0467 0 0)
(18.0751 0 0)
(18.1035 0 0)
(18.132 0 0)
(18.1604 0 0)
(18.1889 0 0)
(18.2173 0 0)
(18.2458 0 0)
(18.2743 0 0)
(18.3028 0 0)
(18.3314 0 0)
(18.3599 0 0)
(18.3885 0 0)
(18.4171 0 0)
(18.4457 0 0)
(18.4743 0 0)
(18.503 0 0)
(18.5316 0 0)
(18.5602 0 0)
(18.5889 0 0)
(18.6176 0 0)
(18.6463 0 0)
(18.6751 0 0)
(18.7038 0 0)
(18.7326 0 0)
(18.7613 0 0)
(18.7901 0 0)
(18.8189 0 0)
(18.8477 0 0)
(18.8766 0 0)
(18.9054 0 0)
(18.9342 0 0)
(18.963 0 0)
(18.9919 0 0)
(19.0208 0 0)
(19.0497 0 0)
(19.0786 0 0)
(19.1075 0 0)
(19.1364 0 0)
(19.1653 0 0)
(19.1942 0 0)
(19.2231 0 0)
(19.252 0 0)
(19.281 0 0)
(19.3099 0 0)
(19.3388 0 0)
(19.3678 0 0)
(19.3968 0 0)
(19.4257 0 0)
(19.4547 0 0)
(19.4837 0 0)
(19.5126 0 0)
(19.5416 0 0)
(19.5706 0 0)
(19.5995 0 0)
(19.6285 0 0)
(19.6575 0 0)
(19.6865 0 0)
(19.7155 0 0)
(19.7445 0 0)
(19.7735 0 0)
(19.8025 0 0)
(19.8315 0 0)
(19.8605 0 0)
(19.8895 0 0)
(19.9185 0 0)
(19.9475 0 0)
(19.9766 0 0)
(20.0056 0 0)
(20.0346 0 0)
(20.0637 0 0)
(20.0928 0 0)
(20.1218 0 0)
(20.1509 0 0)
(20.18 0 0)
(20.2092 0 0)
(20.2383 0 0)
(20.2674 0 0)
(20.2965 0 0)
(20.3257 0 0)
(20.3548 0 0)
(20.384 0 0)
(20.4132 0 0)
(20.4424 0 0)
(20.4717 0 0)
(20.5009 0 0)
(20.5302 0 0)
(20.5595 0 0)
(20.5888 0 0)
(20.6181 0 0)
(20.6474 0 0)
(20.6767 0 0)
(20.7061 0 0)
(20.7355 0 0)
(20.7649 0 0)
(20.7944 0 0)
(20.8238 0 0)
(20.8533 0 0)
(20.8828 0 0)
(20.9123 0 0)
(20.9418 0 0)
(20.9714 0 0)
(21.0009 0 0)
(21.0305 0 0)
(21.0601 0 0)
(21.0898 0 0)
(21.1194 0 0)
(21.1491 0 0)
(21.1788 0 0)
(21.2085 0 0)
(21.2383 0 0)
(21.268 0 0)
(21.2978 0 0)
(21.3276 0 0)
(21.3573 0 0)
(21.3871 0 0)
(21.4169 0 0)
(21.4467 0 0)
(21.4766 0 0)
(21.5064 0 0)
(21.5363 0 0)
(21.5662 0 0)
(21.596 0 0)
(21.6259 0 0)
(21.6558 0 0)
(21.6856 0 0)
(21.7155 0 0)
(21.7454 0 0)
(21.7753 0 0)
(21.8052 0 0)
(21.8351 0 0)
(21.865 0 0)
(21.8949 0 0)
(21.9248 0 0)
(21.9547 0 0)
(21.9846 0 0)
(22.0144 0 0)
(22.0443 0 0)
(22.0742 0 0)
(22.104 0 0)
(22.1339 0 0)
(22.1638 0 0)
(22.1936 0 0)
(22.2235 0 0)
(22.2533 0 0)
(22.2832 0 0)
(22.313 0 0)
(22.3428 0 0)
(22.3726 0 0)
(22.4024 0 0)
(22.4321 0 0)
(22.4619 0 0)
(22.4917 0 0)
(22.5214 0 0)
(22.5512 0 0)
(22.5809 0 0)
(22.6106 0 0)
(22.6403 0 0)
(22.67 0 0)
(22.6997 0 0)
(22.7294 0 0)
(22.7591 0 0)
(22.7888 0 0)
(22.8185 0 0)
(22.8481 0 0)
(22.8778 0 0)
(22.9074 0 0)
(22.9371 0 0)
(22.9667 0 0)
(22.9963 0 0)
(23.026 0 0)
(23.0556 0 0)
(23.0852 0 0)
(23.1148 0 0)
(23.1444 0 0)
(23.174 0 0)
(23.2035 0 0)
(23.2331 0 0)
(23.2627 0 0)
(23.2922 0 0)
(23.3218 0 0)
(23.3513 0 0)
(23.3809 0 0)
(23.4104 0 0)
(23.4399 0 0)
(23.4694 0 0)
(23.4989 0 0)
(23.5284 0 0)
(23.5579 0 0)
(23.5873 0 0)
(23.6168 0 0)
(23.6462 0 0)
(23.6757 0 0)
(23.7051 0 0)
(23.7345 0 0)
(23.7638 0 0)
(23.7932 0 0)
(23.8225 0 0)
(23.8519 0 0)
(23.8812 0 0)
(23.9104 0 0)
(23.9397 0 0)
(23.9689 0 0)
(23.9982 0 0)
(24.0274 0 0)
(24.0566 0 0)
(24.0857 0 0)
(24.1149 0 0)
(24.144 0 0)
(24.1731 0 0)
(24.2022 0 0)
(24.2313 0 0)
(24.2603 0 0)
(24.2893 0 0)
(24.3183 0 0)
(24.3472 0 0)
(24.3761 0 0)
(24.405 0 0)
(24.4339 0 0)
(24.4627 0 0)
(24.4915 0 0)
(24.5203 0 0)
(24.549 0 0)
(24.5777 0 0)
(24.6064 0 0)
(24.6351 0 0)
(24.6638 0 0)
(24.6925 0 0)
(24.7211 0 0)
(24.7496 0 0)
(24.7782 0 0)
(24.8067 0 0)
(24.8352 0 0)
(24.8637 0 0)
(24.8922 0 0)
(24.9207 0 0)
(24.9491 0 0)
(24.9775 0 0)
(25.0059 0 0)
(25.0343 0 0)
(25.0627 0 0)
(25.0911 0 0)
(25.1195 0 0)
(25.1478 0 0)
(25.1762 0 0)
(25.2045 0 0)
(25.2329 0 0)
(25.2612 0 0)
(25.2895 0 0)
(25.3179 0 0)
(25.3462 0 0)
(25.3745 0 0)
(25.4028 0 0)
(25.4312 0 0)
(25.4595 0 0)
(25.4878 0 0)
(25.5162 0 0)
(25.5445 0 0)
(25.5729 0 0)
(25.6013 0 0)
(25.6297 0 0)
(25.6581 0 0)
(25.6865 0 0)
(25.7149 0 0)
(25.7434 0 0)
(25.7719 0 0)
(25.8004 0 0)
(25.8289 0 0)
(25.8574 0 0)
(25.886 0 0)
(25.9145 0 0)
(25.9431 0 0)
(25.9717 0 0)
(26.0003 0 0)
(26.0289 0 0)
(26.0576 0 0)
(26.0863 0 0)
(26.115 0 0)
(26.1438 0 0)
(26.1726 0 0)
(26.2014 0 0)
(26.2302 0 0)
(26.259 0 0)
(26.2879 0 0)
(26.3168 0 0)
(26.3458 0 0)
(26.3748 0 0)
(26.4038 0 0)
(26.4328 0 0)
(26.4619 0 0)
(26.4909 0 0)
(26.52 0 0)
(26.5491 0 0)
(26.5783 0 0)
(26.6075 0 0)
(26.6367 0 0)
(26.666 0 0)
(26.6953 0 0)
(26.7246 0 0)
(26.754 0 0)
(26.7833 0 0)
(26.8127 0 0)
(26.8421 0 0)
(26.8716 0 0)
(26.9011 0 0)
(26.9306 0 0)
(26.9601 0 0)
(26.9897 0 0)
(27.0192 0 0)
(27.0488 0 0)
(27.0785 0 0)
(27.1081 0 0)
(27.1378 0 0)
(27.1674 0 0)
(27.1972 0 0)
(27.2269 0 0)
(27.2567 0 0)
(27.2865 0 0)
(27.3163 0 0)
(27.3461 0 0)
(27.376 0 0)
(27.4059 0 0)
(27.4358 0 0)
(27.4657 0 0)
(27.4956 0 0)
(27.5256 0 0)
(27.5555 0 0)
(27.5855 0 0)
(27.6155 0 0)
(27.6456 0 0)
(27.6756 0 0)
(27.7057 0 0)
(27.7357 0 0)
(27.7658 0 0)
(27.7959 0 0)
(27.826 0 0)
(27.8561 0 0)
(27.8863 0 0)
(27.9164 0 0)
(27.9466 0 0)
(27.9768 0 0)
(28.0069 0 0)
(28.0371 0 0)
(28.0673 0 0)
(28.0975 0 0)
(28.1277 0 0)
(28.1579 0 0)
(28.1881 0 0)
(28.2183 0 0)
(28.2485 0 0)
(28.2787 0 0)
(28.3089 0 0)
(28.3391 0 0)
(28.3693 0 0)
(28.3995 0 0)
(28.4297 0 0)
(28.4599 0 0)
(28.49 0 0)
(28.5202 0 0)
(28.5504 0 0)
(28.5805 0 0)
(28.6107 0 0)
(28.6408 0 0)
(28.6709 0 0)
(28.701 0 0)
(28.7311 0 0)
(28.7612 0 0)
(28.7912 0 0)
(28.8213 0 0)
(28.8513 0 0)
(28.8813 0 0)
(28.9113 0 0)
(28.9413 0 0)
(28.9712 0 0)
(29.0011 0 0)
(29.031 0 0)
(29.0609 0 0)
(29.0907 0 0)
(29.1206 0 0)
(29.1504 0 0)
(29.1801 0 0)
(29.2099 0 0)
(29.2396 0 0)
(29.2693 0 0)
(29.299 0 0)
(29.3286 0 0)
(29.3582 0 0)
(29.3878 0 0)
(29.4173 0 0)
(29.4468 0 0)
(29.4762 0 0)
(29.5057 0 0)
(29.5351 0 0)
(29.5645 0 0)
(29.5939 0 0)
(29.6232 0 0)
(29.6525 0 0)
(29.6818 0 0)
(29.711 0 0)
(29.7402 0 0)
(29.7694 0 0)
(29.7985 0 0)
(29.8276 0 0)
(29.8567 0 0)
(29.8858 0 0)
(29.9148 0 0)
(29.9438 0 0)
(29.9727 0 0)
(30.0017 0 0)
(30.0306 0 0)
(30.0595 0 0)
(30.0883 0 0)
(30.1171 0 0)
(30.1459 0 0)
(30.1747 0 0)
(30.2034 0 0)
(30.2321 0 0)
(30.2608 0 0)
(30.2895 0 0)
(30.3181 0 0)
(30.3467 0 0)
(30.3753 0 0)
(30.4039 0 0)
(30.4325 0 0)
(30.461 0 0)
(30.4896 0 0)
(30.5181 0 0)
(30.5466 0 0)
(30.5751 0 0)
(30.6036 0 0)
(30.632 0 0)
(30.6605 0 0)
(30.6889 0 0)
(30.7174 0 0)
(30.7458 0 0)
(30.7742 0 0)
(30.8026 0 0)
(30.831 0 0)
(30.8593 0 0)
(30.8877 0 0)
(30.916 0 0)
(30.9443 0 0)
(30.9726 0 0)
(31.001 0 0)
(31.0293 0 0)
(31.0576 0 0)
(31.0859 0 0)
(31.1142 0 0)
(31.1425 0 0)
(31.1708 0 0)
(31.199 0 0)
(31.2273 0 0)
(31.2556 0 0)
(31.2838 0 0)
(31.3121 0 0)
(31.3403 0 0)
(31.3686 0 0)
(31.3969 0 0)
(31.4251 0 0)
(31.4534 0 0)
(31.4817 0 0)
(31.5099 0 0)
(31.5382 0 0)
(31.5665 0 0)
(31.5947 0 0)
(31.623 0 0)
(31.6513 0 0)
(31.6795 0 0)
(31.7078 0 0)
(31.7361 0 0)
(31.7644 0 0)
(31.7927 0 0)
(31.8211 0 0)
(31.8494 0 0)
(31.8777 0 0)
(31.906 0 0)
(31.9344 0 0)
(31.9628 0 0)
(31.9912 0 0)
(32.0196 0 0)
(32.048 0 0)
(32.0764 0 0)
(32.1048 0 0)
(32.1333 0 0)
(32.1618 0 0)
(32.1903 0 0)
(32.2188 0 0)
(32.2473 0 0)
(32.2759 0 0)
(32.3045 0 0)
(32.3331 0 0)
(32.3617 0 0)
(32.3904 0 0)
(32.419 0 0)
(32.4477 0 0)
(32.4764 0 0)
(32.5052 0 0)
(32.534 0 0)
(32.5628 0 0)
(32.5916 0 0)
(32.6204 0 0)
(32.6493 0 0)
(32.6782 0 0)
(32.7071 0 0)
(32.736 0 0)
(32.765 0 0)
(32.7939 0 0)
(32.823 0 0)
(32.852 0 0)
(32.881 0 0)
(32.9101 0 0)
(32.9392 0 0)
(32.9683 0 0)
(32.9974 0 0)
(33.0266 0 0)
(33.0557 0 0)
(33.0849 0 0)
(33.1141 0 0)
(33.1434 0 0)
(33.1726 0 0)
(33.2019 0 0)
(33.2311 0 0)
(33.2604 0 0)
(33.2897 0 0)
(33.319 0 0)
(33.3484 0 0)
(33.3777 0 0)
(33.407 0 0)
(33.4364 0 0)
(33.4657 0 0)
(33.4951 0 0)
(33.5245 0 0)
(33.5539 0 0)
(33.5832 0 0)
(33.6126 0 0)
(33.642 0 0)
(33.6714 0 0)
(33.7009 0 0)
(33.7303 0 0)
(33.7597 0 0)
(33.7892 0 0)
(33.8186 0 0)
(33.8481 0 0)
(33.8775 0 0)
(33.9069 0 0)
(33.9364 0 0)
(33.9659 0 0)
(33.9953 0 0)
(34.0248 0 0)
(34.0543 0 0)
(34.0838 0 0)
(34.1133 0 0)
(34.1428 0 0)
(34.1723 0 0)
(34.2018 0 0)
(34.2314 0 0)
(34.2609 0 0)
(34.2904 0 0)
(34.3199 0 0)
(34.3495 0 0)
(34.379 0 0)
(34.4086 0 0)
(34.4381 0 0)
(34.4677 0 0)
(34.4973 0 0)
(34.5269 0 0)
(34.5565 0 0)
(34.5861 0 0)
(34.6157 0 0)
(34.6453 0 0)
(34.6749 0 0)
(34.7046 0 0)
(34.7342 0 0)
(34.7638 0 0)
(34.7934 0 0)
(34.823 0 0)
(34.8527 0 0)
(34.8823 0 0)
(34.9119 0 0)
(34.9415 0 0)
(34.9711 0 0)
(35.0007 0 0)
(35.0303 0 0)
(35.0599 0 0)
(35.0895 0 0)
(35.1191 0 0)
(35.1486 0 0)
(35.1782 0 0)
(35.2077 0 0)
(35.2372 0 0)
(35.2667 0 0)
(35.2962 0 0)
(35.3256 0 0)
(35.3551 0 0)
(35.3845 0 0)
(35.4139 0 0)
(35.4432 0 0)
(35.4725 0 0)
(35.5018 0 0)
(35.5311 0 0)
(35.5604 0 0)
(35.5896 0 0)
(35.6188 0 0)
(35.6479 0 0)
(35.677 0 0)
(35.7061 0 0)
(35.7351 0 0)
(35.7641 0 0)
(35.793 0 0)
(35.822 0 0)
(35.8508 0 0)
(35.8796 0 0)
(35.9084 0 0)
(35.9372 0 0)
(35.9659 0 0)
(35.9945 0 0)
(36.0232 0 0)
(36.0518 0 0)
(36.0803 0 0)
(36.1088 0 0)
(36.1373 0 0)
(36.1657 0 0)
(36.1941 0 0)
(36.2224 0 0)
(36.2507 0 0)
(36.279 0 0)
(36.3072 0 0)
(36.3354 0 0)
(36.3636 0 0)
(36.3917 0 0)
(36.4198 0 0)
(36.4479 0 0)
(36.4759 0 0)
(36.5039 0 0)
(36.5319 0 0)
(36.5598 0 0)
(36.5877 0 0)
(36.6156 0 0)
(36.6435 0 0)
(36.6714 0 0)
(36.6992 0 0)
(36.727 0 0)
(36.7548 0 0)
(36.7826 0 0)
(36.8103 0 0)
(36.8381 0 0)
(36.8658 0 0)
(36.8935 0 0)
(36.9213 0 0)
(36.949 0 0)
(36.9767 0 0)
(37.0044 0 0)
(37.0321 0 0)
(37.0597 0 0)
(37.0874 0 0)
(37.1151 0 0)
(37.1428 0 0)
(37.1705 0 0)
(37.1982 0 0)
(37.2259 0 0)
(37.2536 0 0)
(37.2813 0 0)
(37.3091 0 0)
(37.3368 0 0)
(37.3646 0 0)
(37.3924 0 0)
(37.4202 0 0)
(37.448 0 0)
(37.4758 0 0)
(37.5035 0 0)
(37.5313 0 0)
(37.5592 0 0)
(37.5871 0 0)
(37.615 0 0)
(37.6429 0 0)
(37.6709 0 0)
(37.6989 0 0)
(37.7268 0 0)
(37.7549 0 0)
(37.7829 0 0)
(37.811 0 0)
(37.8391 0 0)
(37.8672 0 0)
(37.8953 0 0)
(37.9235 0 0)
(37.9517 0 0)
(37.9799 0 0)
(38.0081 0 0)
(38.0364 0 0)
(38.0647 0 0)
(38.093 0 0)
(38.1214 0 0)
(38.1498 0 0)
(38.1782 0 0)
(38.2066 0 0)
(38.2351 0 0)
(38.2636 0 0)
(38.2921 0 0)
(38.3206 0 0)
(38.3492 0 0)
(38.3778 0 0)
(38.4064 0 0)
(38.435 0 0)
(38.4637 0 0)
(38.4924 0 0)
(38.5211 0 0)
(38.5498 0 0)
(38.5785 0 0)
(38.6073 0 0)
(38.6361 0 0)
(38.6649 0 0)
(38.6937 0 0)
(38.7225 0 0)
(38.7514 0 0)
(38.7802 0 0)
(38.8091 0 0)
(38.838 0 0)
(38.8669 0 0)
(38.8958 0 0)
(38.9248 0 0)
(38.9537 0 0)
(38.9827 0 0)
(39.0117 0 0)
(39.0406 0 0)
(39.0696 0 0)
(39.0986 0 0)
(39.1277 0 0)
(39.1567 0 0)
(39.1857 0 0)
(39.2148 0 0)
(39.2438 0 0)
(39.2729 0 0)
(39.3019 0 0)
(39.331 0 0)
(39.3601 0 0)
(39.3891 0 0)
(39.4182 0 0)
(39.4473 0 0)
(39.4764 0 0)
(39.5054 0 0)
(39.5345 0 0)
(39.5636 0 0)
(39.5927 0 0)
(39.6219 0 0)
(39.651 0 0)
(39.6801 0 0)
(39.7091 0 0)
(39.7382 0 0)
(39.7672 0 0)
(39.7962 0 0)
(39.8251 0 0)
(39.8542 0 0)
(39.8832 0 0)
(39.9123 0 0)
(39.9413 0 0)
(39.9704 0 0)
(39.9993 0 0)
(40.0283 0 0)
(40.0573 0 0)
(40.0862 0 0)
(40.1152 0 0)
(40.1442 0 0)
(40.1731 0 0)
(40.202 0 0)
(40.2309 0 0)
(40.2597 0 0)
(40.2886 0 0)
(40.3174 0 0)
(40.3463 0 0)
(40.3751 0 0)
(40.4039 0 0)
(40.4327 0 0)
(40.4614 0 0)
(40.4902 0 0)
(40.5189 0 0)
(40.5476 0 0)
(40.5763 0 0)
(40.605 0 0)
(40.6336 0 0)
(40.6622 0 0)
(40.6909 0 0)
(40.7194 0 0)
(40.748 0 0)
(40.7765 0 0)
(40.8051 0 0)
(40.8336 0 0)
(40.862 0 0)
(40.8905 0 0)
(40.9189 0 0)
(40.9473 0 0)
(40.9757 0 0)
(41.0041 0 0)
(41.0324 0 0)
(41.0608 0 0)
(41.0891 0 0)
(41.1174 0 0)
(41.1456 0 0)
(41.1739 0 0)
(41.2021 0 0)
(41.2303 0 0)
(41.2585 0 0)
(41.2866 0 0)
(41.3147 0 0)
(41.3429 0 0)
(41.371 0 0)
(41.399 0 0)
(41.4271 0 0)
(41.4551 0 0)
(41.4831 0 0)
(41.5111 0 0)
(41.5391 0 0)
(41.5671 0 0)
(41.5951 0 0)
(41.623 0 0)
(41.6509 0 0)
(41.6788 0 0)
(41.7067 0 0)
(41.7346 0 0)
(41.7624 0 0)
(41.7902 0 0)
(41.8181 0 0)
(41.8459 0 0)
(41.8736 0 0)
(41.9014 0 0)
(41.9292 0 0)
(41.9569 0 0)
(41.9846 0 0)
(42.0123 0 0)
(42.04 0 0)
(42.0677 0 0)
(42.0954 0 0)
(42.1231 0 0)
(42.1508 0 0)
(42.1784 0 0)
(42.2061 0 0)
(42.2337 0 0)
(42.2614 0 0)
(42.289 0 0)
(42.3166 0 0)
(42.3442 0 0)
(42.3717 0 0)
(42.3993 0 0)
(42.4268 0 0)
(42.4544 0 0)
(42.4819 0 0)
(42.5095 0 0)
(42.5371 0 0)
(42.5647 0 0)
(42.5923 0 0)
(42.6199 0 0)
(42.6474 0 0)
(42.675 0 0)
(42.7026 0 0)
(42.7301 0 0)
(42.7577 0 0)
(42.7853 0 0)
(42.813 0 0)
(42.8406 0 0)
(42.8682 0 0)
(42.8958 0 0)
(42.9235 0 0)
(42.9511 0 0)
(42.9788 0 0)
(43.0065 0 0)
(43.0342 0 0)
(43.0619 0 0)
(43.0897 0 0)
(43.1174 0 0)
(43.1452 0 0)
(43.173 0 0)
(43.2008 0 0)
(43.2286 0 0)
(43.2565 0 0)
(43.2844 0 0)
(43.3123 0 0)
(43.3402 0 0)
(43.3682 0 0)
(43.3962 0 0)
(43.4242 0 0)
(43.4522 0 0)
(43.4803 0 0)
(43.5084 0 0)
(43.5365 0 0)
(43.5647 0 0)
(43.5928 0 0)
(43.6211 0 0)
(43.6493 0 0)
(43.6776 0 0)
(43.7059 0 0)
(43.7342 0 0)
(43.7626 0 0)
(43.791 0 0)
(43.8194 0 0)
(43.8479 0 0)
(43.8763 0 0)
(43.9048 0 0)
(43.9334 0 0)
(43.9619 0 0)
(43.9905 0 0)
(44.0191 0 0)
(44.0477 0 0)
(44.0763 0 0)
(44.105 0 0)
(44.1337 0 0)
(44.1624 0 0)
(44.1911 0 0)
(44.2198 0 0)
(44.2486 0 0)
(44.2773 0 0)
(44.3061 0 0)
(44.3349 0 0)
(44.3637 0 0)
(44.3925 0 0)
(44.4213 0 0)
(44.4502 0 0)
(44.479 0 0)
(44.5078 0 0)
(44.5366 0 0)
(44.5655 0 0)
(44.5943 0 0)
(44.6231 0 0)
(44.652 0 0)
(44.6808 0 0)
(44.7097 0 0)
(44.7385 0 0)
(44.7673 0 0)
(44.7962 0 0)
(44.825 0 0)
(44.8538 0 0)
(44.8826 0 0)
(44.9114 0 0)
(44.9403 0 0)
(44.969 0 0)
(44.9978 0 0)
(45.0266 0 0)
(45.0553 0 0)
(45.0841 0 0)
(45.1128 0 0)
(45.1415 0 0)
(45.1703 0 0)
(45.199 0 0)
(45.2278 0 0)
(45.2565 0 0)
(45.2852 0 0)
(45.3139 0 0)
(45.3426 0 0)
(45.3713 0 0)
(45.3999 0 0)
(45.4286 0 0)
(45.4572 0 0)
(45.4858 0 0)
(45.5145 0 0)
(45.5431 0 0)
(45.5717 0 0)
(45.6003 0 0)
(45.6289 0 0)
(45.6574 0 0)
(45.686 0 0)
(45.7146 0 0)
(45.7431 0 0)
(45.7716 0 0)
(45.8001 0 0)
(45.8286 0 0)
(45.8571 0 0)
(45.8856 0 0)
(45.9141 0 0)
(45.9425 0 0)
(45.9709 0 0)
(45.9994 0 0)
(46.0278 0 0)
(46.0562 0 0)
(46.0845 0 0)
(46.1129 0 0)
(46.1413 0 0)
(46.1696 0 0)
(46.1979 0 0)
(46.2262 0 0)
(46.2545 0 0)
(46.2828 0 0)
(46.3111 0 0)
(46.3393 0 0)
(46.3675 0 0)
(46.3957 0 0)
(46.4239 0 0)
(46.4521 0 0)
(46.4802 0 0)
(46.5083 0 0)
(46.5364 0 0)
(46.5645 0 0)
(46.5926 0 0)
(46.6206 0 0)
(46.6486 0 0)
(46.6766 0 0)
(46.7046 0 0)
(46.7326 0 0)
(46.7605 0 0)
(46.7884 0 0)
(46.8163 0 0)
(46.8442 0 0)
(46.872 0 0)
(46.8998 0 0)
(46.9276 0 0)
(46.9553 0 0)
(46.983 0 0)
(47.0107 0 0)
(47.0384 0 0)
(47.066 0 0)
(47.0936 0 0)
(47.1211 0 0)
(47.1487 0 0)
(47.1762 0 0)
(47.2037 0 0)
(47.2311 0 0)
(47.2586 0 0)
(47.286 0 0)
(47.3133 0 0)
(47.3407 0 0)
(47.3679 0 0)
(47.3952 0 0)
(47.4224 0 0)
(47.4496 0 0)
(47.4768 0 0)
(47.5039 0 0)
(47.5309 0 0)
(47.558 0 0)
(47.585 0 0)
(47.612 0 0)
(47.639 0 0)
(47.666 0 0)
(47.6929 0 0)
(47.7198 0 0)
(47.7467 0 0)
(47.7736 0 0)
(47.8004 0 0)
(47.8272 0 0)
(47.8539 0 0)
(47.8807 0 0)
(47.9074 0 0)
(47.9341 0 0)
(47.9608 0 0)
(47.9875 0 0)
(48.0142 0 0)
(48.0408 0 0)
(48.0674 0 0)
(48.0939 0 0)
(48.1205 0 0)
(48.147 0 0)
(48.1736 0 0)
(48.2002 0 0)
(48.2267 0 0)
(48.2532 0 0)
(48.2798 0 0)
(48.3063 0 0)
(48.3328 0 0)
(48.3593 0 0)
(48.3858 0 0)
(48.4123 0 0)
(48.4388 0 0)
(48.4653 0 0)
(48.4918 0 0)
(48.5183 0 0)
(48.5447 0 0)
(48.5712 0 0)
(48.5977 0 0)
(48.6242 0 0)
(48.6507 0 0)
(48.6772 0 0)
(48.7037 0 0)
(48.7302 0 0)
(48.7568 0 0)
(48.7833 0 0)
(48.8098 0 0)
(48.8363 0 0)
(48.8628 0 0)
(48.8893 0 0)
(48.9159 0 0)
(48.9424 0 0)
(48.9689 0 0)
(48.9955 0 0)
(49.022 0 0)
(49.0485 0 0)
(49.0751 0 0)
(49.1016 0 0)
(49.1282 0 0)
(49.1547 0 0)
(49.1812 0 0)
(49.2078 0 0)
(49.2343 0 0)
(49.2608 0 0)
(49.2873 0 0)
(49.3139 0 0)
(49.3404 0 0)
(49.3669 0 0)
(49.3934 0 0)
(49.42 0 0)
(49.4465 0 0)
(49.473 0 0)
(49.4995 0 0)
(49.526 0 0)
(49.5525 0 0)
(49.579 0 0)
(49.6054 0 0)
(49.6319 0 0)
(49.6584 0 0)
(49.6849 0 0)
(49.7114 0 0)
(49.7379 0 0)
(49.7644 0 0)
(49.791 0 0)
(49.8175 0 0)
(49.844 0 0)
(49.8705 0 0)
(49.8971 0 0)
(49.9236 0 0)
(49.9502 0 0)
(49.9768 0 0)
(50.0034 0 0)
(50.03 0 0)
(50.0565 0 0)
(50.0832 0 0)
(50.1098 0 0)
(50.1364 0 0)
(50.1631 0 0)
(50.1897 0 0)
(50.2164 0 0)
(50.2431 0 0)
(50.2698 0 0)
(50.2965 0 0)
(50.3232 0 0)
(50.3499 0 0)
(50.3766 0 0)
(50.4034 0 0)
(50.4301 0 0)
(50.4569 0 0)
(50.4836 0 0)
(50.5104 0 0)
(50.5372 0 0)
(50.5639 0 0)
(50.5907 0 0)
(50.6176 0 0)
(50.6444 0 0)
(50.6712 0 0)
(50.6981 0 0)
(50.7249 0 0)
(50.7517 0 0)
(50.7786 0 0)
(50.8054 0 0)
(50.8323 0 0)
(50.8591 0 0)
(50.886 0 0)
(50.9128 0 0)
(50.9397 0 0)
(50.9665 0 0)
(50.9934 0 0)
(51.0203 0 0)
(51.0472 0 0)
(51.074 0 0)
(51.1009 0 0)
(51.1278 0 0)
(51.1547 0 0)
(51.1815 0 0)
(51.2084 0 0)
(51.2353 0 0)
(51.2621 0 0)
(51.289 0 0)
(51.3158 0 0)
(51.3426 0 0)
(51.3695 0 0)
(51.3963 0 0)
(51.4232 0 0)
(51.45 0 0)
(51.4769 0 0)
(51.5037 0 0)
(51.5305 0 0)
(51.5574 0 0)
(51.5842 0 0)
(51.611 0 0)
(51.6378 0 0)
(51.6646 0 0)
(51.6914 0 0)
(51.7182 0 0)
(51.7449 0 0)
(51.7717 0 0)
(51.7984 0 0)
(51.8251 0 0)
(51.8518 0 0)
(51.8785 0 0)
(51.9051 0 0)
(51.9318 0 0)
(51.9584 0 0)
(51.985 0 0)
(52.0116 0 0)
(52.0382 0 0)
(52.0648 0 0)
(52.0913 0 0)
(52.1178 0 0)
(52.1443 0 0)
(52.1707 0 0)
(52.1971 0 0)
(52.2234 0 0)
(52.2498 0 0)
(52.2761 0 0)
(52.3024 0 0)
(52.3287 0 0)
(52.3549 0 0)
(52.381 0 0)
(52.4071 0 0)
(52.4332 0 0)
(52.4592 0 0)
(52.4852 0 0)
(52.5112 0 0)
(52.5371 0 0)
(52.563 0 0)
(52.5888 0 0)
(52.6147 0 0)
(52.6404 0 0)
(52.6661 0 0)
(52.6918 0 0)
(52.7175 0 0)
(52.7431 0 0)
(52.7686 0 0)
(52.7942 0 0)
(52.8197 0 0)
(52.8451 0 0)
(52.8706 0 0)
(52.896 0 0)
(52.9213 0 0)
(52.9467 0 0)
(52.972 0 0)
(52.9972 0 0)
(53.0224 0 0)
(53.0476 0 0)
(53.0727 0 0)
(53.0978 0 0)
(53.1229 0 0)
(53.1479 0 0)
(53.1729 0 0)
(53.1978 0 0)
(53.2227 0 0)
(53.2475 0 0)
(53.2723 0 0)
(53.2971 0 0)
(53.3218 0 0)
(53.3464 0 0)
(53.3711 0 0)
(53.3956 0 0)
(53.4202 0 0)
(53.4446 0 0)
(53.469 0 0)
(53.4934 0 0)
(53.5177 0 0)
(53.5419 0 0)
(53.5661 0 0)
(53.5903 0 0)
(53.6144 0 0)
(53.6384 0 0)
(53.6624 0 0)
(53.6863 0 0)
(53.7102 0 0)
(53.734 0 0)
(53.7578 0 0)
(53.7815 0 0)
(53.8051 0 0)
(53.8287 0 0)
(53.8523 0 0)
(53.8758 0 0)
(53.8992 0 0)
(53.9226 0 0)
(53.9459 0 0)
(53.9691 0 0)
(53.9923 0 0)
(54.0155 0 0)
(54.0386 0 0)
(54.0617 0 0)
(54.0847 0 0)
(54.1077 0 0)
(54.1306 0 0)
(54.1535 0 0)
(54.1763 0 0)
(54.1989 0 0)
(54.2216 0 0)
(54.2441 0 0)
(54.2666 0 0)
(54.289 0 0)
(54.3114 0 0)
(54.3337 0 0)
(54.3559 0 0)
(54.378 0 0)
(54.4 0 0)
(54.4219 0 0)
(54.4438 0 0)
(54.4655 0 0)
(54.4872 0 0)
(54.5088 0 0)
(54.5303 0 0)
(54.5517 0 0)
(54.5729 0 0)
(54.5941 0 0)
(54.6151 0 0)
(54.636 0 0)
(54.6569 0 0)
(54.6777 0 0)
(54.6983 0 0)
(54.7188 0 0)
(54.7393 0 0)
(54.7596 0 0)
(54.7798 0 0)
(54.7999 0 0)
(54.8199 0 0)
(54.8398 0 0)
(54.8596 0 0)
(54.8794 0 0)
(54.899 0 0)
(54.9186 0 0)
(54.938 0 0)
(54.9574 0 0)
(54.9767 0 0)
(54.996 0 0)
(55.0151 0 0)
(55.0342 0 0)
(55.0532 0 0)
(55.0722 0 0)
(55.0911 0 0)
(55.1099 0 0)
(55.1287 0 0)
(55.1474 0 0)
(55.1661 0 0)
(55.1847 0 0)
(55.2033 0 0)
(55.2218 0 0)
(55.2403 0 0)
(55.2587 0 0)
(55.2771 0 0)
(55.2954 0 0)
(55.3137 0 0)
(55.332 0 0)
(55.3502 0 0)
(55.3684 0 0)
(55.3865 0 0)
(55.4045 0 0)
(55.4225 0 0)
(55.4405 0 0)
(55.4583 0 0)
(55.4762 0 0)
(55.494 0 0)
(55.5117 0 0)
(55.5294 0 0)
(55.5471 0 0)
(55.5647 0 0)
(55.5823 0 0)
(55.5999 0 0)
(55.6174 0 0)
(55.635 0 0)
(55.6524 0 0)
(55.6698 0 0)
(55.6872 0 0)
(55.7045 0 0)
(55.7217 0 0)
(55.7389 0 0)
(55.7561 0 0)
(55.7732 0 0)
(55.7904 0 0)
(55.8075 0 0)
(55.8246 0 0)
(55.8417 0 0)
(55.8588 0 0)
(55.8759 0 0)
(55.8929 0 0)
(55.9099 0 0)
(55.9268 0 0)
(55.9438 0 0)
(55.9608 0 0)
(55.9778 0 0)
(55.9948 0 0)
(56.0117 0 0)
(56.0287 0 0)
(56.0456 0 0)
(56.0626 0 0)
(56.0796 0 0)
(56.0965 0 0)
(56.1136 0 0)
(56.1306 0 0)
(56.1476 0 0)
(56.1646 0 0)
(56.1816 0 0)
(56.1986 0 0)
(56.2156 0 0)
(56.2327 0 0)
(56.2497 0 0)
(56.2668 0 0)
(56.2838 0 0)
(56.3009 0 0)
(56.3179 0 0)
(56.335 0 0)
(56.3521 0 0)
(56.3692 0 0)
(56.3862 0 0)
(56.4033 0 0)
(56.4204 0 0)
(56.4374 0 0)
(56.4545 0 0)
(56.4716 0 0)
(56.4886 0 0)
(56.5056 0 0)
(56.5226 0 0)
(56.5396 0 0)
(56.5566 0 0)
(56.5736 0 0)
(56.5905 0 0)
(56.6074 0 0)
(56.6243 0 0)
(56.6411 0 0)
(56.658 0 0)
(56.6748 0 0)
(56.6916 0 0)
(56.7083 0 0)
(56.725 0 0)
(56.7417 0 0)
(56.7584 0 0)
(56.7751 0 0)
(56.7917 0 0)
(56.8083 0 0)
(56.8249 0 0)
(56.8414 0 0)
(56.8579 0 0)
(56.8744 0 0)
(56.8909 0 0)
(56.9073 0 0)
(56.9236 0 0)
(56.94 0 0)
(56.9562 0 0)
(56.9725 0 0)
(56.9887 0 0)
(57.0049 0 0)
(57.0211 0 0)
(57.0372 0 0)
(57.0533 0 0)
(57.0694 0 0)
(57.0854 0 0)
(57.1014 0 0)
(57.1174 0 0)
(57.1333 0 0)
(57.1491 0 0)
(57.165 0 0)
(57.1808 0 0)
(57.1966 0 0)
(57.2124 0 0)
(57.2281 0 0)
(57.2438 0 0)
(57.2595 0 0)
(57.2751 0 0)
(57.2907 0 0)
(57.3062 0 0)
(57.3218 0 0)
(57.3372 0 0)
(57.3527 0 0)
(57.3681 0 0)
(57.3836 0 0)
(57.3989 0 0)
(57.4143 0 0)
(57.4296 0 0)
(57.4449 0 0)
(57.4602 0 0)
(57.4754 0 0)
(57.4906 0 0)
(57.5058 0 0)
(57.5209 0 0)
(57.536 0 0)
(57.5511 0 0)
(57.5662 0 0)
(57.5812 0 0)
(57.5962 0 0)
(57.6112 0 0)
(57.6262 0 0)
(57.6411 0 0)
(57.656 0 0)
(57.6709 0 0)
(57.6857 0 0)
(57.7005 0 0)
(57.7153 0 0)
(57.7301 0 0)
(57.7449 0 0)
(57.7596 0 0)
(57.7743 0 0)
(57.789 0 0)
(57.8037 0 0)
(57.8183 0 0)
(57.833 0 0)
(57.8476 0 0)
(57.8622 0 0)
(57.8768 0 0)
(57.8914 0 0)
(57.906 0 0)
(57.9205 0 0)
(57.935 0 0)
(57.9495 0 0)
(57.964 0 0)
(57.9785 0 0)
(57.9929 0 0)
(58.0073 0 0)
(58.0217 0 0)
(58.0361 0 0)
(58.0505 0 0)
(58.0649 0 0)
(58.0793 0 0)
(58.0937 0 0)
(58.1081 0 0)
(58.1225 0 0)
(58.1368 0 0)
(58.1512 0 0)
(58.1655 0 0)
(58.1798 0 0)
(58.1941 0 0)
(58.2084 0 0)
(58.2227 0 0)
(58.237 0 0)
(58.2513 0 0)
(58.2656 0 0)
(58.2798 0 0)
(58.2941 0 0)
(58.3084 0 0)
(58.3226 0 0)
(58.3369 0 0)
(58.3512 0 0)
(58.3655 0 0)
(58.3797 0 0)
(58.394 0 0)
(58.4083 0 0)
(58.4225 0 0)
(58.4368 0 0)
(58.4511 0 0)
(58.4653 0 0)
(58.4796 0 0)
(58.4939 0 0)
(58.5082 0 0)
(58.5225 0 0)
(58.5367 0 0)
(58.551 0 0)
(58.5653 0 0)
(58.5796 0 0)
(58.5939 0 0)
(58.6083 0 0)
(58.6226 0 0)
(58.6369 0 0)
(58.6512 0 0)
(58.6656 0 0)
(58.6799 0 0)
(58.6943 0 0)
(58.7086 0 0)
(58.723 0 0)
(58.7374 0 0)
(58.7518 0 0)
(58.7662 0 0)
(58.7805 0 0)
(58.7949 0 0)
(58.8093 0 0)
(58.8237 0 0)
(58.8382 0 0)
(58.8526 0 0)
(58.867 0 0)
(58.8814 0 0)
(58.8959 0 0)
(58.9103 0 0)
(58.9248 0 0)
(58.9392 0 0)
(58.9537 0 0)
(58.9682 0 0)
(58.9827 0 0)
(58.9972 0 0)
(59.0118 0 0)
(59.0263 0 0)
(59.0408 0 0)
(59.0553 0 0)
(59.0699 0 0)
(59.0844 0 0)
(59.099 0 0)
(59.1135 0 0)
(59.1281 0 0)
(59.1427 0 0)
(59.1573 0 0)
(59.1718 0 0)
(59.1864 0 0)
(59.2011 0 0)
(59.2157 0 0)
(59.2303 0 0)
(59.2449 0 0)
(59.2595 0 0)
(59.2741 0 0)
(59.2888 0 0)
(59.3034 0 0)
(59.318 0 0)
(59.3327 0 0)
(59.3473 0 0)
(59.3619 0 0)
(59.3766 0 0)
(59.3912 0 0)