/*--------------------------------*- C++ -*----------------------------------*\
  =========                 |
  \\      /  F ield         | OpenFOAM: The Open Source CFD Toolbox
   \\    /   O peration     | Website:  https://openfoam.org
    \\  /    A nd           | Version:  9
     \\/     M anipulation  |
\*---------------------------------------------------------------------------*/
FoamFile
{
    format      ascii;
    class       volScalarField;
    location    "0.011";
    object      ddt0(rho,K);
}
// * * * * * * * * * * * * * * * * * * * * * * * * * * * * * * * * * * * * * //

dimensions      [1 -1 -3 0 0 0 0];

internalField   nonuniform List<scalar> 
100
(
114.692
854.836
2797.65
8670.35
22708.6
50018.4
95536.9
162608
249749
351244
459274
566584
667988
760496
842713
914185
974955
1.02531e+06
1.06567e+06
1.09653e+06
1.11841e+06
1.13186e+06
1.13745e+06
1.13572e+06
1.12727e+06
1.11258e+06
1.09227e+06
1.06714e+06
1.03571e+06
1.00589e+06
958520
932737
877308
821719
812851
723827
667934
675834
594363
484938
488600
501380
388411
261890
276319
342688
277737
110360
30408.4
111582
179865
192072
-3171.16
-131832
-50720
45915.7
43826.4
171836
30219.5
-118521
-50098.2
-52720.6
30446.7
85583.6
51033.8
6597.43
7295.12
11256.2
6174.34
28316.3
81097
37485.2
49781.2
62929.8
-124627
-6609.37
183348
259874
523693
2.65549e+06
5.42101e+06
4.03145e+06
2.66723e+06
2.11659e+06
1.00547e+06
221286
708629
981031
-1.08335e+06
-173567
949262
2966.41
-560243
430703
41075.3
-418196
1.16196e+06
-350701
-2.06533e+06
1.14265e+06
)
;

boundaryField
{
    sides
    {
        type            calculated;
        value           nonuniform List<scalar> 2(1.14265e+06 114.692);
    }
    empty
    {
        type            empty;
    }
}


// ************************************************************************* //
