/*--------------------------------*- C++ -*----------------------------------*\
  =========                 |
  \\      /  F ield         | OpenFOAM: The Open Source CFD Toolbox
   \\    /   O peration     | Website:  https://openfoam.org
    \\  /    A nd           | Version:  9
     \\/     M anipulation  |
\*---------------------------------------------------------------------------*/
FoamFile
{
    format      ascii;
    class       volVectorField;
    location    "0.011";
    object      ddt0(rho,U);
}
// * * * * * * * * * * * * * * * * * * * * * * * * * * * * * * * * * * * * * //

dimensions      [1 -2 -2 0 0 0 0];

internalField   nonuniform List<vector> 
100
(
(560.057 0 0)
(1497.49 0 0)
(2607.42 0 0)
(4373.42 0 0)
(6594.6 0 0)
(8961.21 0 0)
(11291.8 0 0)
(13412.4 0 0)
(15081 0 0)
(16180.2 0 0)
(16715.6 0 0)
(16778.7 0 0)
(16491.8 0 0)
(15968.5 0 0)
(15297.1 0 0)
(14539.2 0 0)
(13736.1 0 0)
(12914.8 0 0)
(12093 0 0)
(11282.6 0 0)
(10491.4 0 0)
(9724.77 0 0)
(8986.26 0 0)
(8278.19 0 0)
(7602.25 0 0)
(6959.37 0 0)
(6348.05 0 0)
(5779.12 0 0)
(5212.19 0 0)
(4763.05 0 0)
(4167.08 0 0)
(3882.53 0 0)
(3371.62 0 0)
(2841.06 0 0)
(2909.17 0 0)
(2187.91 0 0)
(1793.4 0 0)
(2101.85 0 0)
(1584.89 0 0)
(803.687 0 0)
(1085.8 0 0)
(1467.39 0 0)
(751.515 0 0)
(-57.299 0 0)
(325.722 0 0)
(1101.85 0 0)
(802.455 0 0)
(-273.418 0 0)
(-649.225 0 0)
(171.646 0 0)
(836.964 0 0)
(990.888 0 0)
(-283.1 0 0)
(-984.704 0 0)
(-367.617 0 0)
(358.858 0 0)
(439.451 0 0)
(1071.46 0 0)
(138.951 0 0)
(-641.536 0 0)
(-229.446 0 0)
(-223.748 0 0)
(272.129 0 0)
(556.711 0 0)
(333.248 0 0)
(49.671 0 0)
(58.7976 0 0)
(86.3372 0 0)
(60.1472 0 0)
(217.878 0 0)
(603.421 0 0)
(316.29 0 0)
(351.643 0 0)
(446.548 0 0)
(-722.648 0 0)
(88.1007 0 0)
(1314.63 0 0)
(2041.17 0 0)
(3952.69 0 0)
(18031.7 0 0)
(36478.5 0 0)
(27222.5 0 0)
(18050.4 0 0)
(14047.7 0 0)
(6894.87 0 0)
(1981.03 0 0)
(4376.5 0 0)
(6088.44 0 0)
(-6536.38 0 0)
(-656.65 0 0)
(5525.84 0 0)
(-199.53 0 0)
(-3365.51 0 0)
(2596.01 0 0)
(242.483 0 0)
(-2571.34 0 0)
(6946.93 0 0)
(-2461.03 0 0)
(-12636.9 0 0)
(7974.57 0 0)
)
;

boundaryField
{
    sides
    {
        type            calculated;
        value           nonuniform List<vector> 2((7974.57 0 0) (560.057 0 0));
    }
    empty
    {
        type            empty;
    }
}


// ************************************************************************* //
