/*--------------------------------*- C++ -*----------------------------------*\
  =========                 |
  \\      /  F ield         | OpenFOAM: The Open Source CFD Toolbox
   \\    /   O peration     | Website:  https://openfoam.org
    \\  /    A nd           | Version:  9
     \\/     M anipulation  |
\*---------------------------------------------------------------------------*/
FoamFile
{
    format      ascii;
    class       surfaceScalarField;
    location    "0.011";
    object      ddtCorrDdt0(phi);
}
// * * * * * * * * * * * * * * * * * * * * * * * * * * * * * * * * * * * * * //

dimensions      [1 0 -2 0 0 0 0];

internalField   nonuniform List<scalar> 
99
(
4323.23
8063.78
13988
22667.2
32420.2
41800.6
50995.5
58682
64176.3
67278.3
68241.8
67545.5
65692
63096.3
60059.1
56783.2
53401.4
49999.9
46635.2
43344.3
40152
37074.8
34123.5
31304.5
28624.1
26076.1
23687.2
21384.3
19331.8
17232.9
15423.7
13897.7
11700.6
10830.8
9561.07
7285.38
7084.68
6744.83
4158.08
3107.67
4484.83
3858.07
807.109
-25.774
2365.52
3336.82
559.627
-2269.98
-1258.17
1785.38
3326.75
1274.2
-2786.95
-2972.06
354.69
1337.61
2762.29
3273.61
-1914.35
-1248.3
-1034.51
8.80705
1978.77
1802.31
900.931
533.357
1773.45
350.936
1516.66
2205.61
-3921.57
2470.26
10625.6
-2308.61
-9057.45
4656.22
14203.2
-45619
42201.9
158097
137447
55736.8
67952.3
75487.8
-63098.7
9462.76
128684
4271.11
-113948
63938.3
40039.9
-99812.7
1105.52
75485
-103921
8762.64
208465
-247566
-130884
)
;

boundaryField
{
    sides
    {
        type            calculated;
        value           nonuniform List<scalar> 2(33010.7 -2211.3);
    }
    empty
    {
        type            empty;
        value           nonuniform List<scalar> 0();
    }
}


// ************************************************************************* //
