/*--------------------------------*- C++ -*----------------------------------*\
  =========                 |
  \\      /  F ield         | OpenFOAM: The Open Source CFD Toolbox
   \\    /   O peration     | Website:  https://openfoam.org
    \\  /    A nd           | Version:  9
     \\/     M anipulation  |
\*---------------------------------------------------------------------------*/
FoamFile
{
    format      ascii;
    class       volScalarField;
    location    "0.011";
    object      p;
}
// * * * * * * * * * * * * * * * * * * * * * * * * * * * * * * * * * * * * * //

dimensions      [1 -1 -2 0 0 0 0];

internalField   nonuniform List<scalar> 
100
(
99901
99786.2
99593.7
99251.3
98695.9
97894.2
96839.2
95526.3
93979.4
92241.1
90361.6
88388.6
86361.4
84309.4
82253
80206.6
78179.7
76179
74209.1
72273.2
70373.6
68512
66689.4
64906.7
63164.5
61463
59803
58183.1
56607.2
55067
53578.6
52116
50712.8
49337.9
48008.7
46725.2
45476.4
44272.6
43114.3
41997
40923.5
39895.1
38912.8
37978.6
37092.8
36254
35465.5
34733
34057.7
33434.1
32869.9
32354.7
31909.9
31527.5
31202.6
30920.8
30713.4
30538.7
30397.3
30344.9
30280.5
30261.2
30252.7
30243.6
30243.9
30244.5
30246.5
30246.2
30246.5
30246.6
30247.5
30252.8
30256.5
30253
30253
30267.6
30271.2
30271.1
30304.6
30317.2
30274.2
30275.5
30312.5
30330.6
30302.8
30376.6
30438.1
30355
30339.5
30536.1
30511.1
30408.2
30502
30557
30501.4
30595.5
30646.7
30476.4
30648.8
30898.7
)
;

boundaryField
{
    sides
    {
        type            zeroGradient;
    }
    empty
    {
        type            empty;
    }
}


// ************************************************************************* //
