/*--------------------------------*- C++ -*----------------------------------*\
  =========                 |
  \\      /  F ield         | OpenFOAM: The Open Source CFD Toolbox
   \\    /   O peration     | Website:  https://openfoam.org
    \\  /    A nd           | Version:  9
     \\/     M anipulation  |
\*---------------------------------------------------------------------------*/
FoamFile
{
    format      ascii;
    class       surfaceScalarField;
    location    "0.011";
    object      phi;
}
// * * * * * * * * * * * * * * * * * * * * * * * * * * * * * * * * * * * * * //

dimensions      [1 0 -1 0 0 0 0];

internalField   nonuniform List<scalar> 
99
(
1.64671
3.26618
6.11434
10.9127
18.2954
28.2614
40.9049
56.0507
73.2674
91.9875
111.636
131.718
151.857
171.785
191.323
210.352
228.796
246.604
263.747
280.206
295.972
311.042
325.418
339.103
352.107
364.435
376.11
387.105
397.541
407.183
416.502
424.894
432.819
440.602
446.907
453.44
459.741
464.384
468.991
474.208
478.14
480.618
483.628
487.403
489.996
490.82
491.652
493.742
496.04
496.779
496.262
495.377
496.108
497.572
498.137
497.593
496.813
495.496
495.346
496
496.162
496.293
495.854
495.129
494.689
494.601
494.527
494.385
494.288
493.959
493.019
492.561
492.138
491.417
492.058
491.964
490.18
486.52
481.391
458.044
408.793
371.234
346.892
328.382
317.582
314.858
310.594
302.238
308.051
310.311
304.307
303.37
308.171
305.88
303.949
308.004
302.001
301.248
317.243
)
;

boundaryField
{
    sides
    {
        type            calculated;
        value           nonuniform List<scalar> 2(307.647 -0.827629);
    }
    empty
    {
        type            empty;
        value           nonuniform List<scalar> 0();
    }
}


// ************************************************************************* //
