/*--------------------------------*- C++ -*----------------------------------*\
  =========                 |
  \\      /  F ield         | OpenFOAM: The Open Source CFD Toolbox
   \\    /   O peration     | Website:  https://openfoam.org
    \\  /    A nd           | Version:  9
     \\/     M anipulation  |
\*---------------------------------------------------------------------------*/
FoamFile
{
    format      ascii;
    class       volScalarField;
    location    "0.011";
    object      T;
}
// * * * * * * * * * * * * * * * * * * * * * * * * * * * * * * * * * * * * * //

dimensions      [0 0 0 1 0 0 0];

internalField   nonuniform List<scalar> 
100
(
348.333
348.219
348.026
347.684
347.126
346.317
345.246
343.902
342.301
340.479
338.482
336.353
334.131
331.843
329.511
327.148
324.766
322.371
319.969
317.564
315.159
312.758
310.361
307.972
305.592
303.22
300.869
298.505
296.234
293.774
291.803
288.953
287.492
284.533
282.57
280.869
277.996
275.999
274.61
272.155
269.601
268.206
266.904
264.572
262.147
260.83
260.058
258.563
256.362
254.604
253.883
253.569
252.916
251.463
250.15
249.622
249.634
249.775
249.727
249.464
249.071
249.014
249.084
249.353
249.64
249.759
249.793
249.805
249.834
249.951
250.336
250.729
250.951
251.045
251.1
251.207
251.413
252.041
254.306
261.915
285.084
317.309
344.872
366.075
380.885
390.687
396.294
398.725
399.685
400.607
400.28
399.164
398.881
398.785
398.529
398.97
399.398
398.905
399.752
400.569
)
;

boundaryField
{
    sides
    {
        type            zeroGradient;
    }
    empty
    {
        type            empty;
    }
}


// ************************************************************************* //
