/*--------------------------------*- C++ -*----------------------------------*\
  =========                 |
  \\      /  F ield         | OpenFOAM: The Open Source CFD Toolbox
   \\    /   O peration     | Website:  https://openfoam.org
    \\  /    A nd           | Version:  9
     \\/     M anipulation  |
\*---------------------------------------------------------------------------*/
FoamFile
{
    format      ascii;
    class       volScalarField;
    location    "0.037";
    object      rho;
}
// * * * * * * * * * * * * * * * * * * * * * * * * * * * * * * * * * * * * * //

dimensions      [1 -3 0 0 0 0 0];

internalField   nonuniform List<scalar> 
1000
(
0.245538
0.245492
0.245418
0.245348
0.245281
0.245216
0.24515
0.245085
0.24502
0.244953
0.244886
0.24482
0.244755
0.244692
0.244628
0.244563
0.244497
0.244429
0.244362
0.244296
0.244233
0.244172
0.244113
0.244053
0.243991
0.243927
0.24386
0.243791
0.243722
0.243652
0.243585
0.243521
0.243462
0.243407
0.243357
0.243312
0.24327
0.24323
0.243191
0.243153
0.243115
0.243078
0.243042
0.243011
0.242982
0.242954
0.242927
0.2429
0.242873
0.242847
0.242819
0.242793
0.242765
0.242741
0.242711
0.242687
0.242657
0.242634
0.242603
0.24258
0.24255
0.242527
0.242496
0.242473
0.242443
0.242419
0.242391
0.242365
0.242339
0.242311
0.242286
0.242258
0.242232
0.242206
0.242178
0.242153
0.242126
0.2421
0.242074
0.242047
0.242021
0.241995
0.241968
0.241942
0.241916
0.241889
0.241864
0.241838
0.241811
0.241785
0.241759
0.241733
0.241707
0.241681
0.241655
0.241629
0.241604
0.241578
0.241552
0.241526
0.2415
0.241474
0.241449
0.241423
0.241397
0.241372
0.241346
0.241321
0.241295
0.24127
0.241244
0.241219
0.241193
0.241168
0.241143
0.241117
0.241092
0.241067
0.241042
0.241017
0.240992
0.240967
0.240942
0.240917
0.240892
0.240867
0.240842
0.240817
0.240793
0.240768
0.240743
0.240719
0.240694
0.240669
0.240645
0.240621
0.240596
0.240572
0.240548
0.240523
0.240499
0.240475
0.240451
0.240427
0.240403
0.240379
0.240355
0.240331
0.240308
0.240284
0.24026
0.240237
0.240213
0.24019
0.240166
0.240143
0.24012
0.240097
0.240074
0.240051
0.240028
0.240005
0.239982
0.239959
0.239936
0.239914
0.239891
0.239869
0.239846
0.239824
0.239802
0.23978
0.239758
0.239736
0.239714
0.239692
0.239671
0.239649
0.239627
0.239606
0.239585
0.239564
0.239542
0.239521
0.239501
0.23948
0.239459
0.239439
0.239418
0.239398
0.239378
0.239358
0.239338
0.239318
0.239298
0.239278
0.239259
0.23924
0.23922
0.239201
0.239183
0.239164
0.239145
0.239127
0.239108
0.23909
0.239072
0.239054
0.239037
0.239019
0.239002
0.238985
0.238968
0.238951
0.238934
0.238918
0.238902
0.238886
0.23887
0.238854
0.238839
0.238824
0.238809
0.238794
0.238779
0.238765
0.238751
0.238737
0.238724
0.238711
0.238697
0.238685
0.238672
0.23866
0.238648
0.238636
0.238625
0.238614
0.238603
0.238593
0.238583
0.238573
0.238563
0.238554
0.238545
0.238537
0.238529
0.238521
0.238514
0.238507
0.2385
0.238494
0.238489
0.238483
0.238478
0.238474
0.23847
0.238466
0.238463
0.23846
0.238458
0.238457
0.238455
0.238455
0.238454
0.238455
0.238455
0.238456
0.238458
0.23846
0.238463
0.238467
0.238472
0.238477
0.238483
0.23849
0.238497
0.238505
0.238514
0.238523
0.238534
0.238545
0.238556
0.238569
0.238582
0.238596
0.238611
0.238627
0.238644
0.238661
0.23868
0.238699
0.23872
0.238741
0.238763
0.238787
0.238811
0.238837
0.238863
0.238891
0.238919
0.238949
0.23898
0.239012
0.239045
0.23908
0.239115
0.239152
0.23919
0.23923
0.23927
0.239312
0.239356
0.2394
0.239446
0.239494
0.239543
0.239593
0.239644
0.239697
0.239752
0.239808
0.239865
0.239924
0.239985
0.240047
0.24011
0.240175
0.240242
0.24031
0.240379
0.240451
0.240523
0.240598
0.240673
0.240751
0.24083
0.24091
0.240992
0.241076
0.241161
0.241247
0.241335
0.241425
0.241516
0.241608
0.241702
0.241798
0.241894
0.241993
0.242092
0.242193
0.242295
0.242399
0.242503
0.242609
0.242717
0.242825
0.242935
0.243045
0.243157
0.24327
0.243384
0.243499
0.243615
0.243731
0.243849
0.243968
0.244087
0.244207
0.244329
0.24445
0.244573
0.244696
0.244821
0.244945
0.24507
0.245196
0.245323
0.245449
0.245577
0.245704
0.245833
0.245962
0.246091
0.246221
0.246351
0.246481
0.246612
0.246743
0.246874
0.247006
0.247138
0.24727
0.247403
0.247536
0.247669
0.247802
0.247935
0.248069
0.248203
0.248337
0.248471
0.248605
0.24874
0.248875
0.249009
0.249144
0.24928
0.249415
0.24955
0.249686
0.249822
0.249957
0.250093
0.250229
0.250366
0.250502
0.250638
0.250775
0.250911
0.251048
0.251185
0.251322
0.251459
0.251596
0.251734
0.251871
0.252009
0.252146
0.252284
0.252422
0.25256
0.252698
0.252836
0.252974
0.253113
0.253251
0.25339
0.253528
0.253667
0.253805
0.253945
0.254083
0.254223
0.254362
0.254502
0.25464
0.254781
0.25492
0.25506
0.255199
0.25534
0.255479
0.25562
0.25576
0.255901
0.25604
0.256182
0.256322
0.256463
0.256603
0.256745
0.256885
0.257027
0.257167
0.257309
0.25745
0.257592
0.257733
0.257876
0.258017
0.25816
0.258301
0.258444
0.258585
0.258728
0.25887
0.259013
0.259155
0.259299
0.259441
0.259584
0.259727
0.25987
0.260013
0.260157
0.2603
0.260444
0.260587
0.260731
0.260874
0.261019
0.261162
0.261307
0.26145
0.261596
0.261739
0.261884
0.262028
0.262174
0.262318
0.262463
0.262608
0.262754
0.262898
0.263044
0.263189
0.263335
0.26348
0.263626
0.263771
0.263918
0.264063
0.26421
0.264356
0.264503
0.264648
0.264796
0.264941
0.265089
0.265235
0.265383
0.265529
0.265677
0.265823
0.265971
0.266118
0.266266
0.266413
0.266562
0.266709
0.266857
0.267005
0.267154
0.267301
0.26745
0.267598
0.267747
0.267895
0.268045
0.268193
0.268342
0.268491
0.268641
0.268789
0.268939
0.269088
0.269238
0.269387
0.269538
0.269687
0.269838
0.269987
0.270138
0.270287
0.270439
0.270588
0.27074
0.270889
0.271041
0.271191
0.271343
0.271493
0.271645
0.271796
0.271948
0.272099
0.272251
0.272402
0.272555
0.272706
0.272859
0.27301
0.273164
0.273315
0.273468
0.27362
0.273774
0.273926
0.274079
0.274231
0.274386
0.274538
0.274692
0.274845
0.274999
0.275152
0.275307
0.275459
0.275614
0.275767
0.275923
0.276076
0.276231
0.276385
0.27654
0.276694
0.27685
0.277004
0.27716
0.277314
0.27747
0.277624
0.277781
0.277935
0.278092
0.278247
0.278404
0.278558
0.278716
0.278871
0.279028
0.279183
0.279341
0.279496
0.279654
0.27981
0.279968
0.280124
0.280282
0.280438
0.280597
0.280753
0.280912
0.281068
0.281228
0.281383
0.281544
0.281699
0.281861
0.282015
0.282178
0.282331
0.282496
0.282648
0.282814
0.282965
0.283133
0.283282
0.283453
0.2836
0.283773
0.283917
0.284093
0.284236
0.284414
0.284555
0.284735
0.284874
0.285056
0.285195
0.285377
0.285516
0.285699
0.285838
0.286021
0.28616
0.286343
0.286483
0.286666
0.286806
0.286989
0.287129
0.287313
0.287453
0.287637
0.287777
0.287962
0.288102
0.288287
0.288427
0.288612
0.288753
0.288938
0.289079
0.289264
0.289405
0.289591
0.289732
0.289918
0.29006
0.290246
0.290388
0.290574
0.290716
0.290902
0.291045
0.291231
0.291374
0.291561
0.291703
0.29189
0.292033
0.292221
0.292364
0.292551
0.292695
0.292883
0.293026
0.293214
0.293358
0.293546
0.29369
0.293879
0.294023
0.294212
0.294356
0.294545
0.294689
0.294879
0.295023
0.295213
0.295358
0.295548
0.295693
0.295883
0.296028
0.296219
0.296364
0.296555
0.2967
0.296891
0.297037
0.297228
0.297374
0.297566
0.297712
0.297903
0.29805
0.298242
0.298388
0.298581
0.298727
0.29892
0.299067
0.29926
0.299407
0.2996
0.299747
0.29994
0.300088
0.300282
0.300429
0.300623
0.300771
0.300965
0.301114
0.301308
0.301456
0.301651
0.3018
0.301995
0.302143
0.302338
0.302487
0.302683
0.302832
0.303028
0.303177
0.303373
0.303523
0.303719
0.303869
0.304065
0.304215
0.304412
0.304562
0.304759
0.304909
0.305106
0.305257
0.305454
0.305605
0.305802
0.305953
0.306151
0.306302
0.306501
0.306652
0.306851
0.307002
0.307201
0.307353
0.307552
0.307704
0.307904
0.308056
0.308256
0.308409
0.308609
0.308763
0.308963
0.309118
0.309316
0.309475
0.309669
0.309834
0.310023
0.310194
0.310378
0.310555
0.310736
0.310916
0.311097
0.311276
0.31146
0.311638
0.311825
0.312002
0.312191
0.312369
0.312559
0.312738
0.31293
0.313108
0.313304
0.313481
0.313681
0.313857
0.314061
0.314236
0.314444
0.314618
0.314831
0.315004
0.315221
0.315393
0.315615
0.315787
0.316013
0.316186
0.316414
0.316589
0.31682
0.316997
0.31723
0.317409
0.317644
0.317825
0.318063
0.318245
0.318485
0.318669
0.318912
0.319098
0.319342
0.319529
0.319775
0.319964
0.320212
0.320402
0.320651
0.320841
0.321092
0.321283
0.321534
0.321726
0.321977
0.322169
0.322421
0.322613
0.322864
0.323056
0.323306
0.323498
0.323748
0.323938
0.324187
0.324377
0.324625
0.324814
0.32506
0.325248
0.325492
0.325679
0.325922
0.326107
0.326349
0.326533
0.326772
0.326955
0.327193
0.327374
0.32761
0.32779
0.328025
0.328204
0.328437
0.328614
0.328846
0.329023
0.329253
0.329429
0.329658
0.329833
0.330061
0.330235
0.330462
0.330635
0.330862
0.331035
0.33126
0.331432
0.331657
0.331829
0.332054
0.332225
0.332449
0.33262
0.332844
0.333014
0.333238
0.333408
0.333631
0.333802
0.334025
0.334195
0.334418
0.334588
0.33481
0.334981
0.335203
0.335373
0.335596
0.335766
0.335989
0.336159
0.336381
0.336551
0.336774
0.336944
0.337167
0.337337
0.33756
0.337731
0.337954
0.338124
0.338348
0.338519
0.338743
0.338915
0.339141
0.339313
0.33954
0.339714
0.339943
0.340119
0.34035
0.340528
0.340763
0.340945
0.341185
0.34137
0.341616
0.341806
0.342059
0.342255
0.342517
0.34272
0.342992
0.343202
0.343484
0.343703
0.343997
0.344225
0.34453
0.344766
0.345082
0.345326
0.345652
0.345903
0.346238
0.346494
0.346836
0.347096
0.347442
0.347704
0.348052
0.348315
0.348663
0.348924
0.349271
0.34953
0.349873
0.350129
0.350468
0.35072
0.351054
0.351302
0.351631
0.351875
0.352199
0.352439
0.352757
0.352993
0.353308
0.35353
0.353857
0.354023
)
;

boundaryField
{
    sides
    {
        type            calculated;
        value           nonuniform List<scalar> 2(0.354023 0.245538);
    }
    empty
    {
        type            empty;
    }
}


// ************************************************************************* //
