/*--------------------------------*- C++ -*----------------------------------*\
  =========                 |
  \\      /  F ield         | OpenFOAM: The Open Source CFD Toolbox
   \\    /   O peration     | Website:  https://openfoam.org
    \\  /    A nd           | Version:  9
     \\/     M anipulation  |
\*---------------------------------------------------------------------------*/
FoamFile
{
    format      ascii;
    class       surfaceScalarField;
    location    "0.032";
    object      phi;
}
// * * * * * * * * * * * * * * * * * * * * * * * * * * * * * * * * * * * * * //

dimensions      [1 0 -1 0 0 0 0];

internalField   nonuniform List<scalar> 
9999
(
5.14449
5.1899
5.2353
5.28069
5.32609
5.37149
5.41688
5.46227
5.50766
5.55305
5.59844
5.64382
5.6892
5.73458
5.77996
5.82534
5.87072
5.9161
5.96147
6.00684
6.0522
6.09757
6.14294
6.18831
6.23367
6.27903
6.32438
6.36974
6.4151
6.46046
6.50582
6.55117
6.59652
6.64186
6.6872
6.73254
6.77788
6.82323
6.86858
6.91393
6.95927
7.00461
7.04994
7.09526
7.14058
7.1859
7.23122
7.27655
7.32189
7.36723
7.41257
7.45791
7.50324
7.54856
7.59388
7.63919
7.68449
7.72978
7.77506
7.82035
7.86564
7.91093
7.95624
8.00155
8.04688
8.09221
8.13756
8.18293
8.2283
8.27368
8.31908
8.36448
8.40989
8.4553
8.50071
8.54612
8.59154
8.63695
8.68237
8.72779
8.77322
8.81864
8.86407
8.9095
8.95493
9.00036
9.04579
9.09122
9.13664
9.18207
9.2275
9.27292
9.31835
9.36378
9.4092
9.45463
9.50005
9.54548
9.59091
9.63633
9.68176
9.72718
9.7726
9.81803
9.86345
9.90888
9.9543
9.99972
10.0451
10.0906
10.136
10.1814
10.2268
10.2723
10.3177
10.3631
10.4085
10.4539
10.4994
10.5448
10.5902
10.6356
10.681
10.7265
10.7719
10.8173
10.8627
10.9081
10.9536
10.999
11.0444
11.0898
11.1352
11.1807
11.2261
11.2715
11.3169
11.3623
11.4077
11.4532
11.4986
11.544
11.5894
11.6348
11.6802
11.7257
11.7711
11.8165
11.8619
11.9073
11.9527
11.9981
12.0436
12.089
12.1344
12.1798
12.2252
12.2706
12.316
12.3615
12.4069
12.4523
12.4977
12.5431
12.5885
12.6339
12.6793
12.7247
12.7702
12.8156
12.861
12.9064
12.9518
12.9972
13.0426
13.088
13.1334
13.1788
13.2242
13.2697
13.3151
13.3605
13.4059
13.4513
13.4967
13.5421
13.5875
13.6329
13.6783
13.7237
13.7691
13.8145
13.8599
13.9053
13.9507
13.9962
14.0416
14.087
14.1324
14.1778
14.2232
14.2686
14.314
14.3594
14.4048
14.4502
14.4956
14.541
14.5864
14.6318
14.6772
14.7226
14.768
14.8134
14.8588
14.9042
14.9496
14.995
15.0404
15.0858
15.1312
15.1766
15.222
15.2674
15.3128
15.3582
15.4036
15.449
15.4944
15.5398
15.5852
15.6306
15.676
15.7214
15.7668
15.8121
15.8575
15.9029
15.9483
15.9937
16.0391
16.0845
16.1299
16.1753
16.2207
16.2661
16.3115
16.3569
16.4023
16.4477
16.493
16.5384
16.5838
16.6292
16.6746
16.72
16.7654
16.8108
16.8562
16.9016
16.9469
16.9923
17.0377
17.0831
17.1285
17.1739
17.2193
17.2647
17.3101
17.3554
17.4008
17.4462
17.4916
17.537
17.5824
17.6278
17.6731
17.7185
17.7639
17.8093
17.8547
17.9001
17.9455
17.9908
18.0362
18.0816
18.127
18.1724
18.2178
18.2631
18.3085
18.3539
18.3993
18.4447
18.49
18.5354
18.5808
18.6262
18.6716
18.7169
18.7623
18.8077
18.8531
18.8985
18.9438
18.9892
19.0346
19.08
19.1253
19.1707
19.2161
19.2615
19.3069
19.3522
19.3976
19.443
19.4884
19.5337
19.5791
19.6245
19.6699
19.7152
19.7606
19.806
19.8513
19.8967
19.9421
19.9875
20.0328
20.0782
20.1236
20.169
20.2143
20.2597
20.3051
20.3504
20.3958
20.4412
20.4865
20.5319
20.5773
20.6227
20.668
20.7134
20.7588
20.8041
20.8495
20.8949
20.9402
20.9856
21.031
21.0763
21.1217
21.1671
21.2124
21.2578
21.3032
21.3485
21.3939
21.4393
21.4846
21.53
21.5753
21.6207
21.6661
21.7114
21.7568
21.8022
21.8475
21.8929
21.9382
21.9836
22.029
22.0743
22.1197
22.165
22.2104
22.2558
22.3011
22.3465
22.3918
22.4372
22.4826
22.5279
22.5733
22.6186
22.664
22.7093
22.7547
22.8
22.8454
22.8908
22.9361
22.9815
23.0268
23.0722
23.1175
23.1629
23.2082
23.2536
23.2989
23.3443
23.3897
23.435
23.4804
23.5257
23.5711
23.6164
23.6618
23.7071
23.7525
23.7978
23.8432
23.8885
23.9339
23.9792
24.0246
24.0699
24.1153
24.1606
24.2059
24.2513
24.2966
24.342
24.3873
24.4327
24.478
24.5234
24.5687
24.6141
24.6594
24.7048
24.7501
24.7954
24.8408
24.8861
24.9315
24.9768
25.0222
25.0675
25.1128
25.1582
25.2035
25.2489
25.2942
25.3395
25.3849
25.4302
25.4756
25.5209
25.5662
25.6116
25.6569
25.7023
25.7476
25.7929
25.8383
25.8836
25.9289
25.9743
26.0196
26.0649
26.1103
26.1556
26.201
26.2463
26.2916
26.337
26.3823
26.4276
26.473
26.5183
26.5636
26.609
26.6543
26.6996
26.7449
26.7903
26.8356
26.8809
26.9263
26.9716
27.0169
27.0623
27.1076
27.1529
27.1982
27.2436
27.2889
27.3342
27.3796
27.4249
27.4702
27.5155
27.5609
27.6062
27.6515
27.6968
27.7422
27.7875
27.8328
27.8781
27.9235
27.9688
28.0141
28.0594
28.1047
28.1501
28.1954
28.2407
28.286
28.3314
28.3767
28.422
28.4673
28.5126
28.558
28.6033
28.6486
28.6939
28.7392
28.7845
28.8299
28.8752
28.9205
28.9658
29.0111
29.0564
29.1018
29.1471
29.1924
29.2377
29.283
29.3283
29.3736
29.419
29.4643
29.5096
29.5549
29.6002
29.6455
29.6908
29.7361
29.7815
29.8268
29.8721
29.9174
29.9627
30.008
30.0533
30.0986
30.1439
30.1892
30.2345
30.2799
30.3252
30.3705
30.4158
30.4611
30.5064
30.5517
30.597
30.6423
30.6876
30.7329
30.7782
30.8235
30.8688
30.9141
30.9594
31.0047
31.05
31.0953
31.1406
31.1859
31.2312
31.2765
31.3218
31.3671
31.4124
31.4577
31.503
31.5483
31.5936
31.6389
31.6842
31.7295
31.7748
31.8201
31.8654
31.9107
31.956
32.0013
32.0466
32.0919
32.1372
32.1825
32.2278
32.2731
32.3184
32.3636
32.4089
32.4542
32.4995
32.5448
32.5901
32.6354
32.6807
32.726
32.7713
32.8166
32.8618
32.9071
32.9524
32.9977
33.043
33.0883
33.1336
33.1789
33.2241
33.2694
33.3147
33.36
33.4053
33.4506
33.4959
33.5411
33.5864
33.6317
33.677
33.7223
33.7676
33.8128
33.8581
33.9034
33.9487
33.994
34.0392
34.0845
34.1298
34.1751
34.2204
34.2656
34.3109
34.3562
34.4015
34.4467
34.492
34.5373
34.5826
34.6279
34.6731
34.7184
34.7637
34.809
34.8542
34.8995
34.9448
34.99
35.0353
35.0806
35.1259
35.1711
35.2164
35.2617
35.307
35.3522
35.3975
35.4428
35.488
35.5333
35.5786
35.6238
35.6691
35.7144
35.7596
35.8049
35.8502
35.8954
35.9407
35.986
36.0312
36.0765
36.1218
36.167
36.2123
36.2576
36.3028
36.3481
36.3933
36.4386
36.4839
36.5291
36.5744
36.6197
36.6649
36.7102
36.7554
36.8007
36.846
36.8912
36.9365
36.9817
37.027
37.0722
37.1175
37.1628
37.208
37.2533
37.2985
37.3438
37.389
37.4343
37.4795
37.5248
37.57
37.6153
37.6606
37.7058
37.7511
37.7963
37.8416
37.8868
37.9321
37.9773
38.0226
38.0678
38.1131
38.1583
38.2036
38.2488
38.2941
38.3393
38.3845
38.4298
38.475
38.5203
38.5655
38.6108
38.656
38.7013
38.7465
38.7918
38.837
38.8822
38.9275
38.9727
39.018
39.0632
39.1084
39.1537
39.1989
39.2442
39.2894
39.3346
39.3799
39.4251
39.4704
39.5156
39.5608
39.6061
39.6513
39.6965
39.7418
39.787
39.8323
39.8775
39.9227
39.968
40.0132
40.0584
40.1037
40.1489
40.1941
40.2394
40.2846
40.3298
40.375
40.4203
40.4655
40.5107
40.556
40.6012
40.6464
40.6916
40.7369
40.7821
40.8273
40.8726
40.9178
40.963
41.0082
41.0535
41.0987
41.1439
41.1891
41.2344
41.2796
41.3248
41.37
41.4152
41.4605
41.5057
41.5509
41.5961
41.6413
41.6866
41.7318
41.777
41.8222
41.8674
41.9127
41.9579
42.0031
42.0483
42.0935
42.1387
42.184
42.2292
42.2744
42.3196
42.3648
42.41
42.4552
42.5005
42.5457
42.5909
42.6361
42.6813
42.7265
42.7717
42.8169
42.8621
42.9074
42.9526
42.9978
43.043
43.0882
43.1334
43.1786
43.2238
43.269
43.3142
43.3594
43.4046
43.4498
43.495
43.5402
43.5855
43.6307
43.6759
43.7211
43.7663
43.8115
43.8567
43.9019
43.9471
43.9923
44.0375
44.0827
44.1279
44.1731
44.2183
44.2635
44.3087
44.3539
44.399
44.4442
44.4894
44.5346
44.5798
44.625
44.6702
44.7154
44.7606
44.8058
44.851
44.8962
44.9414
44.9866
45.0318
45.0769
45.1221
45.1673
45.2125
45.2577
45.3029
45.3481
45.3933
45.4385
45.4836
45.5288
45.574
45.6192
45.6644
45.7096
45.7548
45.7999
45.8451
45.8903
45.9355
45.9807
46.0259
46.071
46.1162
46.1614
46.2066
46.2518
46.2969
46.3421
46.3873
46.4325
46.4777
46.5228
46.568
46.6132
46.6584
46.7035
46.7487
46.7939
46.8391
46.8842
46.9294
46.9746
47.0198
47.0649
47.1101
47.1553
47.2004
47.2456
47.2908
47.336
47.3811
47.4263
47.4715
47.5166
47.5618
47.607
47.6521
47.6973
47.7425
47.7876
47.8328
47.878
47.9231
47.9683
48.0135
48.0586
48.1038
48.1489
48.1941
48.2393
48.2844
48.3296
48.3748
48.4199
48.4651
48.5102
48.5554
48.6006
48.6457
48.6909
48.736
48.7812
48.8263
48.8715
48.9167
48.9618
49.007
49.0521
49.0973
49.1424
49.1876
49.2327
49.2779
49.323
49.3682
49.4133
49.4585
49.5036
49.5488
49.5939
49.6391
49.6842
49.7294
49.7745
49.8197
49.8648
49.91
49.9551
50.0003
50.0454
50.0905
50.1357
50.1808
50.226
50.2711
50.3163
50.3614
50.4065
50.4517
50.4968
50.542
50.5871
50.6322
50.6774
50.7225
50.7677
50.8128
50.8579
50.9031
50.9482
50.9933
51.0385
51.0836
51.1287
51.1739
51.219
51.2642
51.3093
51.3544
51.3995
51.4447
51.4898
51.5349
51.5801
51.6252
51.6703
51.7155
51.7606
51.8057
51.8508
51.896
51.9411
51.9862
52.0313
52.0765
52.1216
52.1667
52.2118
52.257
52.3021
52.3472
52.3923
52.4375
52.4826
52.5277
52.5728
52.6179
52.6631
52.7082
52.7533
52.7984
52.8435
52.8887
52.9338
52.9789
53.024
53.0691
53.1142
53.1593
53.2045
53.2496
53.2947
53.3398
53.3849
53.43
53.4751
53.5203
53.5654
53.6105
53.6556
53.7007
53.7458
53.7909
53.836
53.8811
53.9262
53.9713
54.0164
54.0615
54.1067
54.1518
54.1969
54.242
54.2871
54.3322
54.3773
54.4224
54.4675
54.5126
54.5577
54.6028
54.6479
54.693
54.7381
54.7832
54.8283
54.8734
54.9185
54.9636
55.0087
55.0538
55.0989
55.1439
55.189
55.2341
55.2792
55.3243
55.3694
55.4145
55.4596
55.5047
55.5498
55.5949
55.64
55.6851
55.7301
55.7752
55.8203
55.8654
55.9105
55.9556
56.0007
56.0457
56.0908
56.1359
56.181
56.2261
56.2712
56.3163
56.3613
56.4064
56.4515
56.4966
56.5417
56.5867
56.6318
56.6769
56.722
56.7671
56.8121
56.8572
56.9023
56.9474
56.9924
57.0375
57.0826
57.1277
57.1727
57.2178
57.2629
57.308
57.353
57.3981
57.4432
57.4882
57.5333
57.5784
57.6234
57.6685
57.7136
57.7587
57.8037
57.8488
57.8939
57.9389
57.984
58.029
58.0741
58.1192
58.1642
58.2093
58.2544
58.2994
58.3445
58.3895
58.4346
58.4797
58.5247
58.5698
58.6148
58.6599
58.705
58.75
58.7951
58.8401
58.8852
58.9302
58.9753
59.0204
59.0654
59.1105
59.1555
59.2006
59.2456
59.2907
59.3357
59.3808
59.4258
59.4709
59.5159
59.561
59.606
59.6511
59.6961
59.7412
59.7862
59.8312
59.8763
59.9213
59.9664
60.0114
60.0565
60.1015
60.1466
60.1916
60.2366
60.2817
60.3267
60.3718
60.4168
60.4618
60.5069
60.5519
60.5969
60.642
60.687
60.7321
60.7771
60.8221
60.8672
60.9122
60.9572
61.0023
61.0473
61.0923
61.1374
61.1824
61.2274
61.2724
61.3175
61.3625
61.4075
61.4526
61.4976
61.5426
61.5876
61.6327
61.6777
61.7227
61.7677
61.8128
61.8578
61.9028
61.9478
61.9929
62.0379
62.0829
62.1279
62.1729
62.218
62.263
62.308
62.353
62.398
62.443
62.4881
62.5331
62.5781
62.6231
62.6681
62.7131
62.7582
62.8032
62.8482
62.8932
62.9382
62.9832
63.0282
63.0732
63.1182
63.1633
63.2083
63.2533
63.2983
63.3433
63.3883
63.4333
63.4783
63.5233
63.5683
63.6133
63.6583
63.7033
63.7483
63.7933
63.8383
63.8833
63.9283
63.9733
64.0183
64.0633
64.1083
64.1533
64.1983
64.2433
64.2883
64.3333
64.3783
64.4233
64.4683
64.5133
64.5583
64.6033
64.6483
64.6932
64.7382
64.7832
64.8282
64.8732
64.9182
64.9632
65.0082
65.0532
65.0981
65.1431
65.1881
65.2331
65.2781
65.3231
65.3681
65.413
65.458
65.503
65.548
65.593
65.6379
65.6829
65.7279
65.7729
65.8179
65.8628
65.9078
65.9528
65.9978
66.0427
66.0877
66.1327
66.1777
66.2226
66.2676
66.3126
66.3576
66.4025
66.4475
66.4925
66.5374
66.5824
66.6274
66.6724
66.7173
66.7623
66.8073
66.8522
66.8972
66.9422
66.9871
67.0321
67.077
67.122
67.167
67.2119
67.2569
67.3019
67.3468
67.3918
67.4367
67.4817
67.5267
67.5716
67.6166
67.6615
67.7065
67.7514
67.7964
67.8413
67.8863
67.9313
67.9762
68.0212
68.0661
68.1111
68.156
68.201
68.2459
68.2909
68.3358
68.3808
68.4257
68.4707
68.5156
68.5605
68.6055
68.6504
68.6954
68.7403
68.7853
68.8302
68.8752
68.9201
68.965
69.01
69.0549
69.0999
69.1448
69.1897
69.2347
69.2796
69.3245
69.3695
69.4144
69.4594
69.5043
69.5492
69.5942
69.6391
69.684
69.729
69.7739
69.8188
69.8637
69.9087
69.9536
69.9985
70.0435
70.0884
70.1333
70.1782
70.2232
70.2681
70.313
70.3579
70.4029
70.4478
70.4927
70.5376
70.5826
70.6275
70.6724
70.7173
70.7622
70.8072
70.8521
70.897
70.9419
70.9868
71.0317
71.0767
71.1216
71.1665
71.2114
71.2563
71.3012
71.3461
71.391
71.436
71.4809
71.5258
71.5707
71.6156
71.6605
71.7054
71.7503
71.7952
71.8401
71.885
71.9299
71.9748
72.0197
72.0646
72.1095
72.1545
72.1994
72.2443
72.2892
72.3341
72.379
72.4239
72.4687
72.5136
72.5585
72.6034
72.6483
72.6932
72.7381
72.783
72.8279
72.8728
72.9177
72.9626
73.0075
73.0524
73.0973
73.1421
73.187
73.2319
73.2768
73.3217
73.3666
73.4115
73.4564
73.5012
73.5461
73.591
73.6359
73.6808
73.7257
73.7705
73.8154
73.8603
73.9052
73.9501
73.9949
74.0398
74.0847
74.1296
74.1744
74.2193
74.2642
74.3091
74.3539
74.3988
74.4437
74.4886
74.5334
74.5783
74.6232
74.668
74.7129
74.7578
74.8027
74.8475
74.8924
74.9373
74.9821
75.027
75.0719
75.1167
75.1616
75.2064
75.2513
75.2962
75.341
75.3859
75.4307
75.4756
75.5205
75.5653
75.6102
75.655
75.6999
75.7448
75.7896
75.8345
75.8793
75.9242
75.969
76.0139
76.0587
76.1036
76.1484
76.1933
76.2381
76.283
76.3278
76.3727
76.4175
76.4624
76.5072
76.5521
76.5969
76.6417
76.6866
76.7314
76.7763
76.8211
76.866
76.9108
76.9556
77.0005
77.0453
77.0902
77.135
77.1798
77.2247
77.2695
77.3143
77.3592
77.404
77.4488
77.4937
77.5385
77.5833
77.6282
77.673
77.7178
77.7627
77.8075
77.8523
77.8971
77.942
77.9868
78.0316
78.0765
78.1213
78.1661
78.2109
78.2557
78.3006
78.3454
78.3902
78.435
78.4798
78.5247
78.5695
78.6143
78.6591
78.7039
78.7488
78.7936
78.8384
78.8832
78.928
78.9728
79.0176
79.0625
79.1073
79.1521
79.1969
79.2417
79.2865
79.3313
79.3761
79.4209
79.4657
79.5105
79.5553
79.6001
79.6449
79.6898
79.7346
79.7794
79.8242
79.869
79.9138
79.9586
80.0034
80.0482
80.093
80.1378
80.1825
80.2273
80.2721
80.3169
80.3617
80.4065
80.4513
80.4961
80.5409
80.5857
80.6305
80.6753
80.7201
80.7648
80.8096
80.8544
80.8992
80.944
80.9888
81.0336
81.0784
81.1231
81.1679
81.2127
81.2575
81.3023
81.347
81.3918
81.4366
81.4814
81.5262
81.5709
81.6157
81.6605
81.7053
81.75
81.7948
81.8396
81.8844
81.9291
81.9739
82.0187
82.0634
82.1082
82.153
82.1978
82.2425
82.2873
82.3321
82.3768
82.4216
82.4664
82.5111
82.5559
82.6006
82.6454
82.6902
82.7349
82.7797
82.8245
82.8692
82.914
82.9587
83.0035
83.0482
83.093
83.1378
83.1825
83.2273
83.272
83.3168
83.3615
83.4063
83.451
83.4958
83.5405
83.5853
83.63
83.6748
83.7195
83.7643
83.809
83.8538
83.8985
83.9432
83.988
84.0327
84.0775
84.1222
84.167
84.2117
84.2564
84.3012
84.3459
84.3906
84.4354
84.4801
84.5249
84.5696
84.6143
84.6591
84.7038
84.7485
84.7933
84.838
84.8827
84.9274
84.9722
85.0169
85.0616
85.1064
85.1511
85.1958
85.2405
85.2853
85.33
85.3747
85.4194
85.4642
85.5089
85.5536
85.5983
85.643
85.6878
85.7325
85.7772
85.8219
85.8666
85.9113
85.9561
86.0008
86.0455
86.0902
86.1349
86.1796
86.2243
86.269
86.3138
86.3585
86.4032
86.4479
86.4926
86.5373
86.582
86.6267
86.6714
86.7161
86.7608
86.8055
86.8502
86.8949
86.9396
86.9843
87.029
87.0737
87.1184
87.1631
87.2078
87.2525
87.2972
87.3419
87.3866
87.4313
87.476
87.5207
87.5654
87.61
87.6547
87.6994
87.7441
87.7888
87.8335
87.8782
87.9229
87.9675
88.0122
88.0569
88.1016
88.1463
88.191
88.2356
88.2803
88.325
88.3697
88.4144
88.459
88.5037
88.5484
88.5931
88.6377
88.6824
88.7271
88.7718
88.8164
88.8611
88.9058
88.9505
88.9951
89.0398
89.0845
89.1291
89.1738
89.2185
89.2631
89.3078
89.3525
89.3971
89.4418
89.4865
89.5311
89.5758
89.6204
89.6651
89.7098
89.7544
89.7991
89.8437
89.8884
89.933
89.9777
90.0223
90.067
90.1117
90.1563
90.201
90.2456
90.2903
90.3349
90.3796
90.4242
90.4689
90.5135
90.5581
90.6028
90.6474
90.6921
90.7367
90.7814
90.826
90.8707
90.9153
90.9599
91.0046
91.0492
91.0938
91.1385
91.1831
91.2278
91.2724
91.317
91.3617
91.4063
91.4509
91.4956
91.5402
91.5848
91.6294
91.6741
91.7187
91.7633
91.808
91.8526
91.8972
91.9418
91.9865
92.0311
92.0757
92.1203
92.165
92.2096
92.2542
92.2988
92.3434
92.388
92.4327
92.4773
92.5219
92.5665
92.6111
92.6557
92.7004
92.745
92.7896
92.8342
92.8788
92.9234
92.968
93.0126
93.0572
93.1018
93.1464
93.191
93.2357
93.2803
93.3249
93.3695
93.4141
93.4587
93.5033
93.5479
93.5925
93.6371
93.6817
93.7263
93.7709
93.8154
93.86
93.9046
93.9492
93.9938
94.0384
94.083
94.1276
94.1722
94.2168
94.2614
94.306
94.3505
94.3951
94.4397
94.4843
94.5289
94.5735
94.618
94.6626
94.7072
94.7518
94.7964
94.8409
94.8855
94.9301
94.9747
95.0193
95.0638
95.1084
95.153
95.1976
95.2421
95.2867
95.3313
95.3758
95.4204
95.465
95.5095
95.5541
95.5987
95.6432
95.6878
95.7324
95.7769
95.8215
95.8661
95.9106
95.9552
95.9998
96.0443
96.0889
96.1334
96.178
96.2225
96.2671
96.3117
96.3562
96.4008
96.4453
96.4899
96.5344
96.579
96.6235
96.6681
96.7126
96.7572
96.8017
96.8463
96.8908
96.9354
96.9799
97.0244
97.069
97.1135
97.1581
97.2026
97.2471
97.2917
97.3362
97.3808
97.4253
97.4698
97.5144
97.5589
97.6034
97.648
97.6925
97.737
97.7816
97.8261
97.8706
97.9152
97.9597
98.0042
98.0487
98.0933
98.1378
98.1823
98.2268
98.2714
98.3159
98.3604
98.4049
98.4494
98.494
98.5385
98.583
98.6275
98.672
98.7165
98.7611
98.8056
98.8501
98.8946
98.9391
98.9836
99.0281
99.0726
99.1172
99.1617
99.2062
99.2507
99.2952
99.3397
99.3842
99.4287
99.4732
99.5177
99.5622
99.6067
99.6512
99.6957
99.7402
99.7847
99.8292
99.8737
99.9182
99.9627
100.007
100.052
100.096
100.141
100.185
100.23
100.274
100.319
100.363
100.408
100.452
100.497
100.541
100.586
100.63
100.674
100.719
100.763
100.808
100.852
100.897
100.941
100.986
101.03
101.075
101.119
101.164
101.208
101.253
101.297
101.342
101.386
101.431
101.475
101.52
101.564
101.608
101.653
101.697
101.742
101.786
101.831
101.875
101.92
101.964
102.009
102.053
102.098
102.142
102.186
102.231
102.275
102.32
102.364
102.409
102.453
102.498
102.542
102.587
102.631
102.675
102.72
102.764
102.809
102.853
102.898
102.942
102.987
103.031
103.075
103.12
103.164
103.209
103.253
103.298
103.342
103.386
103.431
103.475
103.52
103.564
103.609
103.653
103.697
103.742
103.786
103.831
103.875
103.92
103.964
104.008
104.053
104.097
104.142
104.186
104.231
104.275
104.319
104.364
104.408
104.453
104.497
104.542
104.586
104.63
104.675
104.719
104.764
104.808
104.852
104.897
104.941
104.986
105.03
105.074
105.119
105.163
105.208
105.252
105.296
105.341
105.385
105.43
105.474
105.518
105.563
105.607
105.652
105.696
105.74
105.785
105.829
105.874
105.918
105.962
106.007
106.051
106.096
106.14
106.184
106.229
106.273
106.317
106.362
106.406
106.451
106.495
106.539
106.584
106.628
106.673
106.717
106.761
106.806
106.85
106.894
106.939
106.983
107.028
107.072
107.116
107.161
107.205
107.249
107.294
107.338
107.382
107.427
107.471
107.516
107.56
107.604
107.649
107.693
107.737
107.782
107.826
107.87
107.915
107.959
108.003
108.048
108.092
108.136
108.181
108.225
108.27
108.314
108.358
108.403
108.447
108.491
108.536
108.58
108.624
108.669
108.713
108.757
108.802
108.846
108.89
108.935
108.979
109.023
109.068
109.112
109.156
109.201
109.245
109.289
109.334
109.378
109.422
109.467
109.511
109.555
109.6
109.644
109.688
109.733
109.777
109.821
109.866
109.91
109.954
109.998
110.043
110.087
110.131
110.176
110.22
110.264
110.309
110.353
110.397
110.442
110.486
110.53
110.574
110.619
110.663
110.707
110.752
110.796
110.84
110.885
110.929
110.973
111.017
111.062
111.106
111.15
111.195
111.239
111.283
111.328
111.372
111.416
111.46
111.505
111.549
111.593
111.638
111.682
111.726
111.77
111.815
111.859
111.903
111.947
111.992
112.036
112.08
112.125
112.169
112.213
112.257
112.302
112.346
112.39
112.434
112.479
112.523
112.567
112.612
112.656
112.7
112.744
112.789
112.833
112.877
112.921
112.966
113.01
113.054
113.098
113.143
113.187
113.231
113.275
113.32
113.364
113.408
113.452
113.497
113.541
113.585
113.629
113.674
113.718
113.762
113.806
113.851
113.895
113.939
113.983
114.028
114.072
114.116
114.16
114.205
114.249
114.293
114.337
114.381
114.426
114.47
114.514
114.558
114.603
114.647
114.691
114.735
114.779
114.824
114.868
114.912
114.956
115.001
115.045
115.089
115.133
115.177
115.222
115.266
115.31
115.354
115.398
115.443
115.487
115.531
115.575
115.62
115.664
115.708
115.752
115.796
115.841
115.885
115.929
115.973
116.017
116.062
116.106
116.15
116.194
116.238
116.282
116.327
116.371
116.415
116.459
116.503
116.548
116.592
116.636
116.68
116.724
116.769
116.813
116.857
116.901
116.945
116.989
117.034
117.078
117.122
117.166
117.21
117.254
117.299
117.343
117.387
117.431
117.475
117.519
117.564
117.608
117.652
117.696
117.74
117.784
117.829
117.873
117.917
117.961
118.005
118.049
118.094
118.138
118.182
118.226
118.27
118.314
118.358
118.403
118.447
118.491
118.535
118.579
118.623
118.667
118.712
118.756
118.8
118.844
118.888
118.932
118.976
119.021
119.065
119.109
119.153
119.197
119.241
119.285
119.329
119.374
119.418
119.462
119.506
119.55
119.594
119.638
119.682
119.727
119.771
119.815
119.859
119.903
119.947
119.991
120.035
120.08
120.124
120.168
120.212
120.256
120.3
120.344
120.388
120.432
120.477
120.521
120.565
120.609
120.653
120.697
120.741
120.785
120.829
120.873
120.917
120.962
121.006
121.05
121.094
121.138
121.182
121.226
121.27
121.314
121.358
121.402
121.447
121.491
121.535
121.579
121.623
121.667
121.711
121.755
121.799
121.843
121.887
121.931
121.975
122.02
122.064
122.108
122.152
122.196
122.24
122.284
122.328
122.372
122.416
122.46
122.504
122.548
122.592
122.636
122.68
122.725
122.769
122.813
122.857
122.901
122.945
122.989
123.033
123.077
123.121
123.165
123.209
123.253
123.297
123.341
123.385
123.429
123.473
123.517
123.561
123.605
123.649
123.693
123.737
123.782
123.826
123.87
123.914
123.958
124.002
124.046
124.09
124.134
124.178
124.222
124.266
124.31
124.354
124.398
124.442
124.486
124.53
124.574
124.618
124.662
124.706
124.75
124.794
124.838
124.882
124.926
124.97
125.014
125.058
125.102
125.146
125.19
125.234
125.278
125.322
125.366
125.41
125.454
125.498
125.542
125.586
125.63
125.674
125.718
125.762
125.806
125.85
125.894
125.938
125.982
126.026
126.07
126.114
126.158
126.202
126.246
126.29
126.334
126.378
126.422
126.465
126.509
126.553
126.597
126.641
126.685
126.729
126.773
126.817
126.861
126.905
126.949
126.993
127.037
127.081
127.125
127.169
127.213
127.257
127.301
127.345
127.389
127.433
127.476
127.52
127.564
127.608
127.652
127.696
127.74
127.784
127.828
127.872
127.916
127.96
128.004
128.048
128.092
128.136
128.179
128.223
128.267
128.311
128.355
128.399
128.443
128.487
128.531
128.575
128.619
128.663
128.706
128.75
128.794
128.838
128.882
128.926
128.97
129.014
129.058
129.102
129.146
129.189
129.233
129.277
129.321
129.365
129.409
129.453
129.497
129.541
129.585
129.628
129.672
129.716
129.76
129.804
129.848
129.892
129.936
129.98
130.023
130.067
130.111
130.155
130.199
130.243
130.287
130.331
130.374
130.418
130.462
130.506
130.55
130.594
130.638
130.681
130.725
130.769
130.813
130.857
130.901
130.945
130.989
131.032
131.076
131.12
131.164
131.208
131.252
131.295
131.339
131.383
131.427
131.471
131.515
131.559
131.602
131.646
131.69
131.734
131.778
131.822
131.865
131.909
131.953
131.997
132.041
132.085
132.128
132.172
132.216
132.26
132.304
132.348
132.391
132.435
132.479
132.523
132.567
132.61
132.654
132.698
132.742
132.786
132.829
132.873
132.917
132.961
133.005
133.048
133.092
133.136
133.18
133.224
133.267
133.311
133.355
133.399
133.443
133.486
133.53
133.574
133.618
133.662
133.705
133.749
133.793
133.837
133.881
133.924
133.968
134.012
134.056
134.099
134.143
134.187
134.231
134.274
134.318
134.362
134.406
134.45
134.493
134.537
134.581
134.625
134.668
134.712
134.756
134.8
134.843
134.887
134.931
134.975
135.018
135.062
135.106
135.15
135.193
135.237
135.281
135.325
135.368
135.412
135.456
135.5
135.543
135.587
135.631
135.674
135.718
135.762
135.806
135.849
135.893
135.937
135.981
136.024
136.068
136.112
136.155
136.199
136.243
136.287
136.33
136.374
136.418
136.461
136.505
136.549
136.592
136.636
136.68
136.724
136.767
136.811
136.855
136.898
136.942
136.986
137.029
137.073
137.117
137.16
137.204
137.248
137.292
137.335
137.379
137.423
137.466
137.51
137.554
137.597
137.641
137.685
137.728
137.772
137.816
137.859
137.903
137.947
137.99
138.034
138.078
138.121
138.165
138.209
138.252
138.296
138.34
138.383
138.427
138.47
138.514
138.558
138.601
138.645
138.689
138.732
138.776
138.82
138.863
138.907
138.95
138.994
139.038
139.081
139.125
139.169
139.212
139.256
139.299
139.343
139.387
139.43
139.474
139.518
139.561
139.605
139.648
139.692
139.736
139.779
139.823
139.866
139.91
139.954
139.997
140.041
140.084
140.128
140.172
140.215
140.259
140.302
140.346
140.389
140.433
140.477
140.52
140.564
140.607
140.651
140.695
140.738
140.782
140.825
140.869
140.912
140.956
141
141.043
141.087
141.13
141.174
141.217
141.261
141.304
141.348
141.392
141.435
141.479
141.522
141.566
141.609
141.653
141.696
141.74
141.783
141.827
141.87
141.914
141.958
142.001
142.045
142.088
142.132
142.175
142.219
142.262
142.306
142.349
142.393
142.436
142.48
142.523
142.567
142.61
142.654
142.697
142.741
142.784
142.828
142.871
142.915
142.958
143.002
143.045
143.089
143.132
143.176
143.219
143.263
143.306
143.35
143.393
143.437
143.48
143.524
143.567
143.611
143.654
143.697
143.741
143.784
143.828
143.871
143.915
143.958
144.002
144.045
144.089
144.132
144.175
144.219
144.262
144.306
144.349
144.393
144.436
144.48
144.523
144.566
144.61
144.653
144.697
144.74
144.784
144.827
144.87
144.914
144.957
145.001
145.044
145.087
145.131
145.174
145.218
145.261
145.305
145.348
145.391
145.435
145.478
145.522
145.565
145.608
145.652
145.695
145.738
145.782
145.825
145.869
145.912
145.955
145.999
146.042
146.085
146.129
146.172
146.216
146.259
146.302
146.346
146.389
146.432
146.476
146.519
146.562
146.606
146.649
146.692
146.736
146.779
146.823
146.866
146.909
146.953
146.996
147.039
147.082
147.126
147.169
147.212
147.256
147.299
147.342
147.386
147.429
147.472
147.516
147.559
147.602
147.646
147.689
147.732
147.775
147.819
147.862
147.905
147.949
147.992
148.035
148.078
148.122
148.165
148.208
148.252
148.295
148.338
148.381
148.425
148.468
148.511
148.554
148.598
148.641
148.684
148.727
148.771
148.814
148.857
148.9
148.944
148.987
149.03
149.073
149.117
149.16
149.203
149.246
149.289
149.333
149.376
149.419
149.462
149.506
149.549
149.592
149.635
149.678
149.722
149.765
149.808
149.851
149.894
149.938
149.981
150.024
150.067
150.11
150.153
150.197
150.24
150.283
150.326
150.369
150.412
150.456
150.499
150.542
150.585
150.628
150.671
150.714
150.758
150.801
150.844
150.887
150.93
150.973
151.016
151.06
151.103
151.146
151.189
151.232
151.275
151.318
151.361
151.404
151.448
151.491
151.534
151.577
151.62
151.663
151.706
151.749
151.792
151.835
151.878
151.921
151.965
152.008
152.051
152.094
152.137
152.18
152.223
152.266
152.309
152.352
152.395
152.438
152.481
152.524
152.567
152.61
152.653
152.696
152.739
152.782
152.825
152.868
152.911
152.954
152.997
153.04
153.083
153.126
153.169
153.212
153.255
153.298
153.341
153.384
153.427
153.47
153.513
153.556
153.599
153.642
153.685
153.728
153.771
153.814
153.857
153.9
153.943
153.986
154.028
154.071
154.114
154.157
154.2
154.243
154.286
154.329
154.372
154.415
154.458
154.5
154.543
154.586
154.629
154.672
154.715
154.758
154.801
154.843
154.886
154.929
154.972
155.015
155.058
155.101
155.143
155.186
155.229
155.272
155.315
155.358
155.4
155.443
155.486
155.529
155.572
155.614
155.657
155.7
155.743
155.786
155.828
155.871
155.914
155.957
155.999
156.042
156.085
156.128
156.17
156.213
156.256
156.299
156.341
156.384
156.427
156.47
156.512
156.555
156.598
156.64
156.683
156.726
156.768
156.811
156.854
156.896
156.939
156.982
157.024
157.067
157.11
157.152
157.195
157.238
157.28
157.323
157.366
157.408
157.451
157.493
157.536
157.579
157.621
157.664
157.706
157.749
157.792
157.834
157.877
157.919
157.962
158.004
158.047
158.09
158.132
158.175
158.217
158.26
158.302
158.345
158.387
158.43
158.472
158.515
158.557
158.6
158.642
158.685
158.727
158.77
158.812
158.854
158.897
158.939
158.982
159.024
159.067
159.109
159.152
159.194
159.236
159.279
159.321
159.363
159.406
159.448
159.491
159.533
159.575
159.618
159.66
159.702
159.745
159.787
159.829
159.872
159.914
159.956
159.999
160.041
160.083
160.125
160.168
160.21
160.252
160.294
160.337
160.379
160.421
160.463
160.506
160.548
160.59
160.632
160.674
160.716
160.759
160.801
160.843
160.885
160.927
160.969
161.012
161.054
161.096
161.138
161.18
161.222
161.264
161.306
161.348
161.39
161.432
161.474
161.517
161.559
161.601
161.643
161.685
161.727
161.769
161.811
161.853
161.894
161.936
161.978
162.02
162.062
162.104
162.146
162.188
162.23
162.272
162.314
162.356
162.397
162.439
162.481
162.523
162.565
162.607
162.648
162.69
162.732
162.774
162.815
162.857
162.899
162.941
162.982
163.024
163.066
163.108
163.149
163.191
163.233
163.274
163.316
163.358
163.399
163.441
163.482
163.524
163.566
163.607
163.649
163.69
163.732
163.773
163.815
163.856
163.898
163.939
163.981
164.022
164.064
164.105
164.147
164.188
164.23
164.271
164.312
164.354
164.395
164.436
164.478
164.519
164.56
164.602
164.643
164.684
164.726
164.767
164.808
164.849
164.89
164.932
164.973
165.014
165.055
165.096
165.137
165.179
165.22
165.261
165.302
165.343
165.384
165.425
165.466
165.507
165.548
165.589
165.63
165.671
165.712
165.753
165.793
165.834
165.875
165.916
165.957
165.998
166.039
166.079
166.12
166.161
166.202
166.242
166.283
166.324
166.364
166.405
166.446
166.486
166.527
166.567
166.608
166.649
166.689
166.73
166.77
166.811
166.851
166.892
166.932
166.972
167.013
167.053
167.093
167.134
167.174
167.214
167.255
167.295
167.335
167.375
167.416
167.456
167.496
167.536
167.576
167.616
167.656
167.696
167.736
167.776
167.816
167.856
167.896
167.936
167.976
168.016
168.056
168.096
168.136
168.175
168.215
168.255
168.295
168.334
168.374
168.414
168.453
168.493
168.533
168.572
168.612
168.651
168.691
168.73
168.77
168.809
168.848
168.888
168.927
168.967
169.006
169.045
169.084
169.124
169.163
169.202
169.241
169.28
169.319
169.358
169.397
169.437
169.475
169.514
169.553
169.592
169.631
169.67
169.709
169.748
169.786
169.825
169.864