/*--------------------------------*- C++ -*----------------------------------*\
  =========                 |
  \\      /  F ield         | OpenFOAM: The Open Source CFD Toolbox
   \\    /   O peration     | Website:  https://openfoam.org
    \\  /    A nd           | Version:  9
     \\/     M anipulation  |
\*---------------------------------------------------------------------------*/
FoamFile
{
    format      ascii;
    class       volScalarField;
    location    "0.032";
    object      T;
}
// * * * * * * * * * * * * * * * * * * * * * * * * * * * * * * * * * * * * * //

dimensions      [0 0 0 1 0 0 0];

internalField   nonuniform List<scalar> 
10000
(
208.717
208.719
208.722
208.726
208.729
208.733
208.736
208.74
208.743
208.747
208.75
208.753
208.757
208.76
208.764
208.767
208.771
208.774
208.777
208.781
208.784
208.788
208.791
208.794
208.798
208.801
208.805
208.808
208.812
208.815
208.818
208.821
208.825
208.828
208.832
208.835
208.838
208.842
208.845
208.848
208.851
208.854
208.857
208.861
208.864
208.868
208.871
208.875
208.878
208.881
208.883
208.886
208.889
208.892
208.895
208.898
208.901
208.905
208.909
208.913
208.916
208.92
208.923
208.926
208.929
208.931
208.933
208.935
208.936
208.937
208.938
208.938
208.938
208.938
208.939
208.939
208.939
208.939
208.939
208.938
208.938
208.938
208.937
208.937
208.937
208.936
208.936
208.935
208.935
208.935
208.934
208.934
208.933
208.933
208.933
208.932
208.932
208.932
208.931
208.931
208.93
208.93
208.93
208.929
208.929
208.928
208.928
208.928
208.927
208.927
208.927
208.926
208.926
208.925
208.925
208.925
208.924
208.924
208.923
208.923
208.923
208.922
208.922
208.921
208.921
208.921
208.92
208.92
208.92
208.919
208.919
208.918
208.918
208.918
208.917
208.917
208.916
208.916
208.916
208.915
208.915
208.915
208.914
208.914
208.913
208.913
208.913
208.912
208.912
208.911
208.911
208.911
208.91
208.91
208.909
208.909
208.909
208.908
208.908
208.907
208.907
208.907
208.906
208.906
208.906
208.905
208.905
208.904
208.904
208.904
208.903
208.903
208.902
208.902
208.902
208.901
208.901
208.9
208.9
208.9
208.899
208.899
208.898
208.898
208.898
208.897
208.897
208.896
208.896
208.896
208.895
208.895
208.894
208.894
208.894
208.893
208.893
208.892
208.892
208.892
208.891
208.891
208.89
208.89
208.89
208.889
208.889
208.889
208.888
208.888
208.887
208.887
208.887
208.886
208.886
208.885
208.885
208.885
208.884
208.884
208.883
208.883
208.883
208.882
208.882
208.881
208.881
208.881
208.88
208.88
208.879
208.879
208.879
208.878
208.878
208.877
208.877
208.877
208.876
208.876
208.875
208.875
208.874
208.874
208.874
208.873
208.873
208.872
208.872
208.872
208.871
208.871
208.87
208.87
208.87
208.869
208.869
208.868
208.868
208.868
208.867
208.867
208.866
208.866
208.866
208.865
208.865
208.864
208.864
208.864
208.863
208.863
208.862
208.862
208.862
208.861
208.861
208.86
208.86
208.86
208.859
208.859
208.858
208.858
208.857
208.857
208.857
208.856
208.856
208.855
208.855
208.855
208.854
208.854
208.853
208.853
208.853
208.852
208.852
208.851
208.851
208.851
208.85
208.85
208.849
208.849
208.848
208.848
208.848
208.847
208.847
208.846
208.846
208.846
208.845
208.845
208.844
208.844
208.844
208.843
208.843
208.842
208.842
208.841
208.841
208.841
208.84
208.84
208.839
208.839
208.839
208.838
208.838
208.837
208.837
208.837
208.836
208.836
208.835
208.835
208.834
208.834
208.834
208.833
208.833
208.832
208.832
208.832
208.831
208.831
208.83
208.83
208.829
208.829
208.829
208.828
208.828
208.827
208.827
208.827
208.826
208.826
208.825
208.825
208.824
208.824
208.824
208.823
208.823
208.822
208.822
208.822
208.821
208.821
208.82
208.82
208.819
208.819
208.819
208.818
208.818
208.817
208.817
208.816
208.816
208.816
208.815
208.815
208.814
208.814
208.814
208.813
208.813
208.812
208.812
208.811
208.811
208.811
208.81
208.81
208.809
208.809
208.808
208.808
208.808
208.807
208.807
208.806
208.806
208.806
208.805
208.805
208.804
208.804
208.803
208.803
208.803
208.802
208.802
208.801
208.801
208.8
208.8
208.8
208.799
208.799
208.798
208.798
208.797
208.797
208.797
208.796
208.796
208.795
208.795
208.794
208.794
208.794
208.793
208.793
208.792
208.792
208.791
208.791
208.791
208.79
208.79
208.789
208.789
208.788
208.788
208.788
208.787
208.787
208.786
208.786
208.785
208.785
208.785
208.784
208.784
208.783
208.783
208.782
208.782
208.782
208.781
208.781
208.78
208.78
208.779
208.779
208.779
208.778
208.778
208.777
208.777
208.776
208.776
208.776
208.775
208.775
208.774
208.774
208.773
208.773
208.773
208.772
208.772
208.771
208.771
208.77
208.77
208.769
208.769
208.769
208.768
208.768
208.767
208.767
208.766
208.766
208.766
208.765
208.765
208.764
208.764
208.763
208.763
208.763
208.762
208.762
208.761
208.761
208.76
208.76
208.759
208.759
208.759
208.758
208.758
208.757
208.757
208.756
208.756
208.756
208.755
208.755
208.754
208.754
208.753
208.753
208.752
208.752
208.752
208.751
208.751
208.75
208.75
208.749
208.749
208.748
208.748
208.748
208.747
208.747
208.746
208.746
208.745
208.745
208.744
208.744
208.744
208.743
208.743
208.742
208.742
208.741
208.741
208.741
208.74
208.74
208.739
208.739
208.738
208.738
208.737
208.737
208.737
208.736
208.736
208.735
208.735
208.734
208.734
208.733
208.733
208.733
208.732
208.732
208.731
208.731
208.73
208.73
208.729
208.729
208.729
208.728
208.728
208.727
208.727
208.726
208.726
208.725
208.725
208.724
208.724
208.724
208.723
208.723
208.722
208.722
208.721
208.721
208.72
208.72
208.72
208.719
208.719
208.718
208.718
208.717
208.717
208.716
208.716
208.716
208.715
208.715
208.714
208.714
208.713
208.713
208.712
208.712
208.711
208.711
208.711
208.71
208.71
208.709
208.709
208.708
208.708
208.707
208.707
208.706
208.706
208.706
208.705
208.705
208.704
208.704
208.703
208.703
208.702
208.702
208.701
208.701
208.701
208.7
208.7
208.699
208.699
208.698
208.698
208.697
208.697
208.696
208.696
208.696
208.695
208.695
208.694
208.694
208.693
208.693
208.692
208.692
208.691
208.691
208.691
208.69
208.69
208.689
208.689
208.688
208.688
208.687
208.687
208.686
208.686
208.685
208.685
208.685
208.684
208.684
208.683
208.683
208.682
208.682
208.681
208.681
208.68
208.68
208.68
208.679
208.679
208.678
208.678
208.677
208.677
208.676
208.676
208.675
208.675
208.674
208.674
208.674
208.673
208.673
208.672
208.672
208.671
208.671
208.67
208.67
208.669
208.669
208.668
208.668
208.667
208.667
208.667
208.666
208.666
208.665
208.665
208.664
208.664
208.663
208.663
208.662
208.662
208.661
208.661
208.661
208.66
208.66
208.659
208.659
208.658
208.658
208.657
208.657
208.656
208.656
208.655
208.655
208.654
208.654
208.654
208.653
208.653
208.652
208.652
208.651
208.651
208.65
208.65
208.649
208.649
208.648
208.648
208.647
208.647
208.646
208.646
208.646
208.645
208.645
208.644
208.644
208.643
208.643
208.642
208.642
208.641
208.641
208.64
208.64
208.639
208.639
208.638
208.638
208.638
208.637
208.637
208.636
208.636
208.635
208.635
208.634
208.634
208.633
208.633
208.632
208.632
208.631
208.631
208.63
208.63
208.629
208.629
208.629
208.628
208.628
208.627
208.627
208.626
208.626
208.625
208.625
208.624
208.624
208.623
208.623
208.622
208.622
208.621
208.621
208.621
208.62
208.62
208.619
208.619
208.618
208.618
208.617
208.617
208.616
208.616
208.615
208.615
208.614
208.614
208.613
208.613
208.612
208.612
208.611
208.611
208.61
208.61
208.609
208.609
208.608
208.608
208.607
208.607
208.606
208.606
208.605
208.605
208.605
208.604
208.604
208.603
208.603
208.602
208.602
208.601
208.601
208.6
208.6
208.599
208.599
208.598
208.598
208.597
208.597
208.596
208.596
208.595
208.595
208.594
208.594
208.593
208.593
208.593
208.592
208.592
208.591
208.591
208.59
208.59
208.589
208.589
208.588
208.588
208.587
208.587
208.586
208.586
208.585
208.585
208.584
208.584
208.583
208.583
208.582
208.582
208.581
208.581
208.58
208.58
208.579
208.579
208.578
208.578
208.577
208.577
208.576
208.576
208.575
208.575
208.574
208.574
208.573
208.573
208.573
208.572
208.572
208.571
208.571
208.57
208.57
208.569
208.569
208.568
208.568
208.567
208.567
208.566
208.566
208.565
208.565
208.564
208.564
208.563
208.563
208.562
208.562
208.561
208.561
208.56
208.56
208.559
208.559
208.558
208.558
208.557
208.557
208.556
208.556
208.555
208.555
208.554
208.554
208.553
208.553
208.552
208.552
208.551
208.551
208.55
208.55
208.549
208.549
208.548
208.548
208.547
208.547
208.546
208.546
208.545
208.545
208.544
208.544
208.543
208.543
208.542
208.542
208.541
208.541
208.54
208.54
208.539
208.539
208.538
208.538
208.537
208.537
208.536
208.536
208.535
208.535
208.534
208.534
208.533
208.533
208.532
208.532
208.531
208.531
208.53
208.53
208.529
208.529
208.528
208.528
208.527
208.527
208.526
208.526
208.525
208.525
208.524
208.524
208.523
208.523
208.522
208.522
208.521
208.521
208.52
208.52
208.519
208.519
208.518
208.518
208.517
208.517
208.516
208.516
208.515
208.515
208.514
208.514
208.513
208.513
208.512
208.512
208.511
208.511
208.51
208.51
208.509
208.509
208.508
208.508
208.507
208.507
208.506
208.506
208.505
208.505
208.504
208.504
208.503
208.503
208.502
208.502
208.501
208.5
208.5
208.499
208.499
208.498
208.498
208.497
208.497
208.496
208.496
208.495
208.495
208.494
208.494
208.493
208.493
208.492
208.492
208.491
208.491
208.49
208.49
208.489
208.489
208.488
208.488
208.487
208.487
208.486
208.486
208.485
208.485
208.484
208.484
208.483
208.483
208.482
208.482
208.481
208.481
208.48
208.479
208.479
208.478
208.478
208.477
208.477
208.476
208.476
208.475
208.475
208.474
208.474
208.473
208.473
208.472
208.472
208.471
208.471
208.47
208.47
208.469
208.469
208.468
208.468
208.467
208.467
208.466
208.466
208.465
208.464
208.464
208.463
208.463
208.462
208.462
208.461
208.461
208.46
208.46
208.459
208.459
208.458
208.458
208.457
208.457
208.456
208.456
208.455
208.455
208.454
208.454
208.453
208.452
208.452
208.451
208.451
208.45
208.45
208.449
208.449
208.448
208.448
208.447
208.447
208.446
208.446
208.445
208.445
208.444
208.444
208.443
208.443
208.442
208.441
208.441
208.44
208.44
208.439
208.439
208.438
208.438
208.437
208.437
208.436
208.436
208.435
208.435
208.434
208.434
208.433
208.433
208.432
208.431
208.431
208.43
208.43
208.429
208.429
208.428
208.428
208.427
208.427
208.426
208.426
208.425
208.425
208.424
208.424
208.423
208.422
208.422
208.421
208.421
208.42
208.42
208.419
208.419
208.418
208.418
208.417
208.417
208.416
208.416
208.415
208.415
208.414
208.413
208.413
208.412
208.412
208.411
208.411
208.41
208.41
208.409
208.409
208.408
208.408
208.407
208.407
208.406
208.405
208.405
208.404
208.404
208.403
208.403
208.402
208.402
208.401
208.401
208.4
208.4
208.399
208.398
208.398
208.397
208.397
208.396
208.396
208.395
208.395
208.394
208.394
208.393
208.393
208.392
208.392
208.391
208.39
208.39
208.389
208.389
208.388
208.388
208.387
208.387
208.386
208.386
208.385
208.385
208.384
208.383
208.383
208.382
208.382
208.381
208.381
208.38
208.38
208.379
208.379
208.378
208.377
208.377
208.376
208.376
208.375
208.375
208.374
208.374
208.373
208.373
208.372
208.372
208.371
208.37
208.37
208.369
208.369
208.368
208.368
208.367
208.367
208.366
208.366
208.365
208.364
208.364
208.363
208.363
208.362
208.362
208.361
208.361
208.36
208.36
208.359
208.358
208.358
208.357
208.357
208.356
208.356
208.355
208.355
208.354
208.354
208.353
208.352
208.352
208.351
208.351
208.35
208.35
208.349
208.349
208.348
208.347
208.347
208.346
208.346
208.345
208.345
208.344
208.344
208.343
208.343
208.342
208.341
208.341
208.34
208.34
208.339
208.339
208.338
208.338
208.337
208.336
208.336
208.335
208.335
208.334
208.334
208.333
208.333
208.332
208.332
208.331
208.33
208.33
208.329
208.329
208.328
208.328
208.327
208.327
208.326
208.325
208.325
208.324
208.324
208.323
208.323
208.322
208.322
208.321
208.32
208.32
208.319
208.319
208.318
208.318
208.317
208.317
208.316
208.315
208.315
208.314
208.314
208.313
208.313
208.312
208.312
208.311
208.31
208.31
208.309
208.309
208.308
208.308
208.307
208.306
208.306
208.305
208.305
208.304
208.304
208.303
208.303
208.302
208.301
208.301
208.3
208.3
208.299
208.299
208.298
208.298
208.297
208.296
208.296
208.295
208.295
208.294
208.294
208.293
208.292
208.292
208.291
208.291
208.29
208.29
208.289
208.289
208.288
208.287
208.287
208.286
208.286
208.285
208.285
208.284
208.283
208.283
208.282
208.282
208.281
208.281
208.28
208.279
208.279
208.278
208.278
208.277
208.277
208.276
208.276
208.275
208.274
208.274
208.273
208.273
208.272
208.272
208.271
208.27
208.27
208.269
208.269
208.268
208.268
208.267
208.266
208.266
208.265
208.265
208.264
208.264
208.263
208.262
208.262
208.261
208.261
208.26
208.26
208.259
208.258
208.258
208.257
208.257
208.256
208.256
208.255
208.254
208.254
208.253
208.253
208.252
208.252
208.251
208.25
208.25
208.249
208.249
208.248
208.248
208.247
208.246
208.246
208.245
208.245
208.244
208.244
208.243
208.242
208.242
208.241
208.241
208.24
208.24
208.239
208.238
208.238
208.237
208.237
208.236
208.236
208.235
208.234
208.234
208.233
208.233
208.232
208.232
208.231
208.23
208.23
208.229
208.229
208.228
208.227
208.227
208.226
208.226
208.225
208.225
208.224
208.223
208.223
208.222
208.222
208.221
208.221
208.22
208.219
208.219
208.218
208.218
208.217
208.216
208.216
208.215
208.215
208.214
208.214
208.213
208.212
208.212
208.211
208.211
208.21
208.209
208.209
208.208
208.208
208.207
208.207
208.206
208.205
208.205
208.204
208.204
208.203
208.202
208.202
208.201
208.201
208.2
208.2
208.199
208.198
208.198
208.197
208.197
208.196
208.195
208.195
208.194
208.194
208.193
208.193
208.192
208.191
208.191
208.19
208.19
208.189
208.188
208.188
208.187
208.187
208.186
208.185
208.185
208.184
208.184
208.183
208.183
208.182
208.181
208.181
208.18
208.18
208.179
208.178
208.178
208.177
208.177
208.176
208.175
208.175
208.174
208.174
208.173
208.173
208.172
208.171
208.171
208.17
208.17
208.169
208.168
208.168
208.167
208.167
208.166
208.165
208.165
208.164
208.164
208.163
208.162
208.162
208.161
208.161
208.16
208.159
208.159
208.158
208.158
208.157
208.157
208.156
208.155
208.155
208.154
208.154
208.153
208.152
208.152
208.151
208.151
208.15
208.149
208.149
208.148
208.148
208.147
208.146
208.146
208.145
208.145
208.144
208.143
208.143
208.142
208.142
208.141
208.14
208.14
208.139
208.139
208.138
208.137
208.137
208.136
208.136
208.135
208.134
208.134
208.133
208.133
208.132
208.131
208.131
208.13
208.13
208.129
208.128
208.128
208.127
208.127
208.126
208.125
208.125
208.124
208.124
208.123
208.122
208.122
208.121
208.121
208.12
208.119
208.119
208.118
208.118
208.117
208.116
208.116
208.115
208.115
208.114
208.113
208.113
208.112
208.112
208.111
208.11
208.11
208.109
208.109
208.108
208.107
208.107
208.106
208.106
208.105
208.104
208.104
208.103
208.102
208.102
208.101
208.101
208.1
208.099
208.099
208.098
208.098
208.097
208.096
208.096
208.095
208.095
208.094
208.093
208.093
208.092
208.092
208.091
208.09
208.09
208.089
208.088
208.088
208.087
208.087
208.086
208.085
208.085
208.084
208.084
208.083
208.082
208.082
208.081
208.081
208.08
208.079
208.079
208.078
208.077
208.077
208.076
208.076
208.075
208.074
208.074
208.073
208.073
208.072
208.071
208.071
208.07
208.07
208.069
208.068
208.068
208.067
208.066
208.066
208.065
208.065
208.064
208.063
208.063
208.062
208.062
208.061
208.06
208.06
208.059
208.058
208.058
208.057
208.057
208.056
208.055
208.055
208.054
208.054
208.053
208.052
208.052
208.051
208.05
208.05
208.049
208.049
208.048
208.047
208.047
208.046
208.045
208.045
208.044
208.044
208.043
208.042
208.042
208.041
208.041
208.04
208.039
208.039
208.038
208.037
208.037
208.036
208.036
208.035
208.034
208.034
208.033
208.032
208.032
208.031
208.031
208.03
208.029
208.029
208.028
208.027
208.027
208.026
208.026
208.025
208.024
208.024
208.023
208.022
208.022
208.021
208.021
208.02
208.019
208.019
208.018
208.017
208.017
208.016
208.016
208.015
208.014
208.014
208.013
208.012
208.012
208.011
208.011
208.01
208.009
208.009
208.008
208.007
208.007
208.006
208.006
208.005
208.004
208.004
208.003
208.002
208.002
208.001
208.001
208
207.999
207.999
207.998
207.997
207.997
207.996
207.996
207.995
207.994
207.994
207.993
207.992
207.992
207.991
207.99
207.99
207.989
207.989
207.988
207.987
207.987
207.986
207.985
207.985
207.984
207.984
207.983
207.982
207.982
207.981
207.98
207.98
207.979
207.978
207.978
207.977
207.977
207.976
207.975
207.975
207.974
207.973
207.973
207.972
207.972
207.971
207.97
207.97
207.969
207.968
207.968
207.967
207.966
207.966
207.965
207.965
207.964
207.963
207.963
207.962
207.961
207.961
207.96
207.959
207.959
207.958
207.958
207.957
207.956
207.956
207.955
207.954
207.954
207.953
207.952
207.952
207.951
207.951
207.95
207.949
207.949
207.948
207.947
207.947
207.946
207.945
207.945
207.944
207.943
207.943
207.942
207.942
207.941
207.94
207.94
207.939
207.938
207.938
207.937
207.936
207.936
207.935
207.934
207.934
207.933
207.933
207.932
207.931
207.931
207.93
207.929
207.929
207.928
207.927
207.927
207.926
207.925
207.925
207.924
207.924
207.923
207.922
207.922
207.921
207.92
207.92
207.919
207.918
207.918
207.917
207.916
207.916
207.915
207.915
207.914
207.913
207.913
207.912
207.911
207.911
207.91
207.909
207.909
207.908
207.907
207.907
207.906
207.905
207.905
207.904
207.904
207.903
207.902
207.902
207.901
207.9
207.9
207.899
207.898
207.898
207.897
207.896
207.896
207.895
207.894
207.894
207.893
207.892
207.892
207.891
207.891
207.89
207.889
207.889
207.888
207.887
207.887
207.886
207.885
207.885
207.884
207.883
207.883
207.882
207.881
207.881
207.88
207.879
207.879
207.878
207.877
207.877
207.876
207.876
207.875
207.874
207.874
207.873
207.872
207.872
207.871
207.87
207.87
207.869
207.868
207.868
207.867
207.866
207.866
207.865
207.864
207.864
207.863
207.862
207.862
207.861
207.86
207.86
207.859
207.858
207.858
207.857
207.857
207.856
207.855
207.855
207.854
207.853
207.853
207.852
207.851
207.851
207.85
207.849
207.849
207.848
207.847
207.847
207.846
207.845
207.845
207.844
207.843
207.843
207.842
207.841
207.841
207.84
207.839
207.839
207.838
207.837
207.837
207.836
207.835
207.835
207.834
207.833
207.833
207.832
207.831
207.831
207.83
207.829
207.829
207.828
207.827
207.827
207.826
207.825
207.825
207.824
207.824
207.823
207.822
207.822
207.821
207.82
207.82
207.819
207.818
207.818
207.817
207.816
207.816
207.815
207.814
207.814
207.813
207.812
207.812
207.811
207.81
207.81
207.809
207.808
207.808
207.807
207.806
207.806
207.805
207.804
207.804
207.803
207.802
207.802
207.801
207.8
207.8
207.799
207.798
207.798
207.797
207.796
207.796
207.795
207.794
207.794
207.793
207.792
207.792
207.791
207.79
207.79
207.789
207.788
207.788
207.787
207.786
207.785
207.785
207.784
207.783
207.783
207.782
207.781
207.781
207.78
207.779
207.779
207.778
207.777
207.777
207.776
207.775
207.775
207.774
207.773
207.773
207.772
207.771
207.771
207.77
207.769
207.769
207.768
207.767
207.767
207.766
207.765
207.765
207.764
207.763
207.763
207.762
207.761
207.761
207.76
207.759
207.759
207.758
207.757
207.757
207.756
207.755
207.755
207.754
207.753
207.753
207.752
207.751
207.75
207.75
207.749
207.748
207.748
207.747
207.746
207.746
207.745
207.744
207.744
207.743
207.742
207.742
207.741
207.74
207.74
207.739
207.738
207.738
207.737
207.736
207.736
207.735
207.734
207.734
207.733
207.732
207.731
207.731
207.73
207.729
207.729
207.728
207.727
207.727
207.726
207.725
207.725
207.724
207.723
207.723
207.722
207.721
207.721
207.72
207.719
207.719
207.718
207.717
207.717
207.716
207.715
207.714
207.714
207.713
207.712
207.712
207.711
207.71
207.71
207.709
207.708
207.708
207.707
207.706
207.706
207.705
207.704
207.704
207.703
207.702
207.701
207.701
207.7
207.699
207.699
207.698
207.697
207.697
207.696
207.695
207.695
207.694
207.693
207.693
207.692
207.691
207.691
207.69
207.689
207.688
207.688
207.687
207.686
207.686
207.685
207.684
207.684
207.683
207.682
207.682
207.681
207.68
207.68
207.679
207.678
207.677
207.677
207.676
207.675
207.675
207.674
207.673
207.673
207.672
207.671
207.671
207.67
207.669
207.669
207.668
207.667
207.666
207.666
207.665
207.664
207.664
207.663
207.662
207.662
207.661
207.66
207.66
207.659
207.658
207.657
207.657
207.656
207.655
207.655
207.654
207.653
207.653
207.652
207.651
207.651
207.65
207.649
207.648
207.648
207.647
207.646
207.646
207.645
207.644
207.644
207.643
207.642
207.642
207.641
207.64
207.639
207.639
207.638
207.637
207.637
207.636
207.635
207.635
207.634
207.633
207.633
207.632
207.631
207.63
207.63
207.629
207.628
207.628
207.627
207.626
207.626
207.625
207.624
207.623
207.623
207.622
207.621
207.621
207.62
207.619
207.619
207.618
207.617
207.617
207.616
207.615
207.614
207.614
207.613
207.612
207.612
207.611
207.61
207.61
207.609
207.608
207.607
207.607
207.606
207.605
207.605
207.604
207.603
207.603
207.602
207.601
207.6
207.6
207.599
207.598
207.598
207.597
207.596
207.596
207.595
207.594
207.593
207.593
207.592
207.591
207.591
207.59
207.589
207.589
207.588
207.587
207.586
207.586
207.585
207.584
207.584
207.583
207.582
207.582
207.581
207.58
207.579
207.579
207.578
207.577
207.577
207.576
207.575
207.575
207.574
207.573
207.572
207.572
207.571
207.57
207.57
207.569
207.568
207.568
207.567
207.566
207.565
207.565
207.564
207.563
207.563
207.562
207.561
207.561
207.56
207.559
207.558
207.558
207.557
207.556
207.556
207.555
207.554
207.553
207.553
207.552
207.551
207.551
207.55
207.549
207.549
207.548
207.547
207.546
207.546
207.545
207.544
207.544
207.543
207.542
207.541
207.541
207.54
207.539
207.539
207.538
207.537
207.537
207.536
207.535
207.534
207.534
207.533
207.532
207.532
207.531
207.53
207.529
207.529
207.528
207.527
207.527
207.526
207.525
207.525
207.524
207.523
207.522
207.522
207.521
207.52
207.52
207.519
207.518
207.517
207.517
207.516
207.515
207.515
207.514
207.513
207.512
207.512
207.511
207.51
207.51
207.509
207.508
207.508
207.507
207.506
207.505
207.505
207.504
207.503
207.503
207.502
207.501
207.5
207.5
207.499
207.498
207.498
207.497
207.496
207.495
207.495
207.494
207.493
207.493
207.492
207.491
207.49
207.49
207.489
207.488
207.488
207.487
207.486
207.486
207.485
207.484
207.483
207.483
207.482
207.481
207.481
207.48
207.479
207.478
207.478
207.477
207.476
207.476
207.475
207.474
207.473
207.473
207.472
207.471
207.471
207.47
207.469
207.468
207.468
207.467
207.466
207.466
207.465
207.464
207.463
207.463
207.462
207.461
207.461
207.46
207.459
207.458
207.458
207.457
207.456
207.456
207.455
207.454
207.453
207.453
207.452
207.451
207.451
207.45
207.449
207.448
207.448
207.447
207.446
207.446
207.445
207.444
207.443
207.443
207.442
207.441
207.441
207.44
207.439
207.438
207.438
207.437
207.436
207.436
207.435
207.434
207.433
207.433
207.432
207.431
207.431
207.43
207.429
207.428
207.428
207.427
207.426
207.426
207.425
207.424
207.423
207.423
207.422
207.421
207.421
207.42
207.419
207.418
207.418
207.417
207.416
207.416
207.415
207.414
207.413
207.413
207.412
207.411
207.411
207.41
207.409
207.408
207.408
207.407
207.406
207.406
207.405
207.404
207.403
207.403
207.402
207.401
207.401
207.4
207.399
207.398
207.398
207.397
207.396
207.396
207.395
207.394
207.393
207.393
207.392
207.391
207.391
207.39
207.389
207.388
207.388
207.387
207.386
207.386
207.385
207.384
207.383
207.383
207.382
207.381
207.381
207.38
207.379
207.378
207.378
207.377
207.376
207.376
207.375
207.374
207.373
207.373
207.372
207.371
207.371
207.37
207.369
207.368
207.368
207.367
207.366
207.366
207.365
207.364
207.363
207.363
207.362
207.361
207.361
207.36
207.359
207.358
207.358
207.357
207.356
207.356
207.355
207.354
207.353
207.353
207.352
207.351
207.351
207.35
207.349
207.348
207.348
207.347
207.346
207.346
207.345
207.344
207.343
207.343
207.342
207.341
207.341
207.34
207.339
207.338
207.338
207.337
207.336
207.336
207.335
207.334
207.333
207.333
207.332
207.331
207.331
207.33
207.329
207.328
207.328
207.327
207.326
207.326
207.325
207.324
207.323
207.323
207.322
207.321
207.321
207.32
207.319
207.318
207.318
207.317
207.316
207.316
207.315
207.314
207.314
207.313
207.312
207.311
207.311
207.31
207.309
207.309
207.308
207.307
207.306
207.306
207.305
207.304
207.304
207.303
207.302
207.301
207.301
207.3
207.299
207.299
207.298
207.297
207.296
207.296
207.295
207.294
207.294
207.293
207.292
207.291
207.291
207.29
207.289
207.289
207.288
207.287
207.287
207.286
207.285
207.284
207.284
207.283
207.282
207.282
207.281
207.28
207.279
207.279
207.278
207.277
207.277
207.276
207.275
207.274
207.274
207.273
207.272
207.272
207.271
207.27
207.27
207.269
207.268
207.267
207.267
207.266
207.265
207.265
207.264
207.263
207.262
207.262
207.261
207.26
207.26
207.259
207.258
207.258
207.257
207.256
207.255
207.255
207.254
207.253
207.253
207.252
207.251
207.251
207.25
207.249
207.248
207.248
207.247
207.246
207.246
207.245
207.244
207.244
207.243
207.242
207.241
207.241
207.24
207.239
207.239
207.238
207.237
207.237
207.236
207.235
207.234
207.234
207.233
207.232
207.232
207.231
207.23
207.23
207.229
207.228
207.227
207.227
207.226
207.225
207.225
207.224
207.223
207.223
207.222
207.221
207.22
207.22
207.219
207.218
207.218
207.217
207.216
207.216
207.215
207.214
207.214
207.213
207.212
207.211
207.211
207.21
207.209
207.209
207.208
207.207
207.207
207.206
207.205
207.205
207.204
207.203
207.203
207.202
207.201
207.2
207.2
207.199
207.198
207.198
207.197
207.196
207.196
207.195
207.194
207.194
207.193
207.192
207.192
207.191
207.19
207.189
207.189
207.188
207.187
207.187
207.186
207.185
207.185
207.184
207.183
207.183
207.182
207.181
207.181
207.18
207.179
207.179
207.178
207.177
207.177
207.176
207.175
207.175
207.174
207.173
207.173
207.172
207.171
207.171
207.17
207.169
207.168
207.168
207.167
207.166
207.166
207.165
207.164
207.164
207.163
207.162
207.162
207.161
207.16
207.16
207.159
207.158
207.158
207.157
207.156
207.156
207.155
207.154
207.154
207.153
207.152
207.152
207.151
207.15
207.15
207.149
207.148
207.148
207.147
207.147
207.146
207.145
207.145
207.144
207.143
207.143
207.142
207.141
207.141
207.14
207.139
207.139
207.138
207.137
207.137
207.136
207.135
207.135
207.134
207.133
207.133
207.132
207.131
207.131
207.13
207.13
207.129
207.128
207.128
207.127
207.126
207.126
207.125
207.124
207.124
207.123
207.122
207.122
207.121
207.121
207.12
207.119
207.119
207.118
207.117
207.117
207.116
207.115
207.115
207.114
207.114
207.113
207.112
207.112
207.111
207.11
207.11
207.109
207.109
207.108
207.107
207.107
207.106
207.105
207.105
207.104
207.104
207.103
207.102
207.102
207.101
207.1
207.1
207.099
207.099
207.098
207.097
207.097
207.096
207.096
207.095
207.094
207.094
207.093
207.092
207.092
207.091
207.091
207.09
207.089
207.089
207.088
207.088
207.087
207.086
207.086
207.085
207.085
207.084
207.083
207.083
207.082
207.082
207.081
207.08
207.08
207.079
207.079
207.078
207.078
207.077
207.076
207.076
207.075
207.075
207.074
207.073
207.073
207.072
207.072
207.071
207.071
207.07
207.069
207.069
207.068
207.068
207.067
207.067
207.066
207.065
207.065
207.064
207.064
207.063
207.063
207.062
207.062
207.061
207.06
207.06
207.059
207.059
207.058
207.058
207.057
207.057
207.056
207.055
207.055
207.054
207.054
207.053
207.053
207.052
207.052
207.051
207.051
207.05
207.05
207.049
207.048
207.048
207.047
207.047
207.046
207.046
207.045
207.045
207.044
207.044
207.043
207.043
207.042
207.042
207.041
207.041
207.04
207.04
207.039
207.039
207.038
207.038
207.037
207.037
207.036
207.036
207.035
207.035
207.034
207.034
207.033
207.033
207.032
207.032
207.031
207.031
207.03
207.03
207.029
207.029
207.028
207.028
207.027
207.027
207.027
207.026
207.026
207.025
207.025
207.024
207.024
207.023
207.023
207.022
207.022
207.022
207.021
207.021
207.02
207.02
207.019
207.019
207.018
207.018
207.018
207.017
207.017
207.016
207.016
207.015
207.015
207.015
207.014
207.014
207.013
207.013
207.013
207.012
207.012
207.011
207.011
207.011
207.01
207.01
207.009
207.009
207.009
207.008
207.008
207.008
207.007
207.007
207.006
207.006
207.006
207.005
207.005
207.005
207.004
207.004
207.004
207.003
207.003
207.003
207.002
207.002
207.002
207.001
207.001
207.001
207
207
207
206.999
206.999
206.999
206.998
206.998
206.998
206.998
206.997
206.997
206.997
206.996
206.996
206.996
206.996
206.995
206.995
206.995
206.994
206.994
206.994
206.994
206.993
206.993
206.993
206.993
206.992
206.992
206.992
206.992
206.992
206.991
206.991
206.991
206.991
206.991
206.99
206.99
206.99
206.99
206.99
206.989
206.989
206.989
206.989
206.989
206.989
206.988
206.988
206.988
206.988
206.988
206.988
206.987
206.987
206.987
206.987
206.987
206.987
206.987
206.987
206.987
206.986
206.986
206.986
206.986
206.986
206.986
206.986
206.986
206.986
206.986
206.986
206.986
206.986
206.986
206.986
206.985
206.985
206.985
206.985
206.985
206.985
206.985
206.985
206.985
206.985
206.985
206.985
206.986
206.986
206.986
206.986
206.986
206.986
206.986
206.986
206.986
206.986
206.986
206.986
206.986
206.986
206.987
206.987
206.987
206.987
206.987
206.987
206.987
206.987
206.988
206.988
206.988
206.988
206.988
206.988
206.989
206.989
206.989
206.989
206.99
206.99
206.99
206.99
206.991
206.991
206.991
206.991
206.992
206.992
206.992
206.992
206.993
206.993
206.993
206.994
206.994
206.994
206.995
206.995
206.996
206.996
206.996
206.997
206.997
206.997
206.998
206.998
206.999
206.999
207
207
207.001
207.001
207.002
207.002
207.003
207.003
207.004
207.004
207.005
207.005
207.006
207.006
207.007
207.007
207.008
207.009
207.009
207.01
207.011
207.011
207.012
207.012
207.013
207.014
207.015
207.015
207.016
207.016
207.017
207.018
207.019
207.019
207.021
207.021
207.022
207.023
207.024
207.024
207.025
207.026
207.027
207.028
207.029
207.03
207.031
207.031
207.033
207.033
207.034
207.035
207.036
207.037
207.038
207.039
207.041
207.041
207.043
207.043
207.045
207.046
207.047
207.048
207.049
207.05
207.052
207.052
207.054
207.055
207.056
207.057
207.059
207.06
207.061
207.062
207.064
207.065
207.067
207.068
207.069
207.07
207.072
207.073
207.075
207.076
207.078
207.079
207.081
207.082
207.084
207.085
207.087
207.088
207.09
207.091
207.093
207.094
207.096
207.098
207.1
207.101
207.103
207.104