/*--------------------------------*- C++ -*----------------------------------*\
  =========                 |
  \\      /  F ield         | OpenFOAM: The Open Source CFD Toolbox
   \\    /   O peration     | Website:  https://openfoam.org
    \\  /    A nd           | Version:  9
     \\/     M anipulation  |
\*---------------------------------------------------------------------------*/
FoamFile
{
    format      ascii;
    class       volScalarField;
    location    "0.044";
    object      mag(U);
}
// * * * * * * * * * * * * * * * * * * * * * * * * * * * * * * * * * * * * * //

dimensions      [0 1 -1 0 0 0 0];

internalField   nonuniform List<scalar> 
10000
(
224.131
224.161
224.179
224.198
224.216
224.235
224.254
224.272
224.291
224.31
224.329
224.347
224.366
224.385
224.403
224.422
224.441
224.46
224.478
224.497
224.516
224.535
224.553
224.572
224.591
224.61
224.628
224.647
224.666
224.685
224.703
224.722
224.741
224.759
224.778
224.797
224.816
224.834
224.853
224.872
224.891
224.909
224.928
224.947
224.965
224.984
225.003
225.022
225.04
225.059
225.078
225.096
225.115
225.134
225.153
225.171
225.19
225.209
225.227
225.246
225.265
225.284
225.303
225.321
225.34
225.359
225.377
225.396
225.415
225.434
225.453
225.471
225.49
225.509
225.527
225.546
225.565
225.584
225.602
225.621
225.64
225.658
225.677
225.696
225.715
225.733
225.752
225.771
225.789
225.808
225.827
225.846
225.864
225.883
225.902
225.92
225.939
225.958
225.976
225.995
226.014
226.033
226.052
226.07
226.089
226.108
226.126
226.145
226.164
226.183
226.201
226.22
226.239
226.258
226.276
226.295
226.314
226.333
226.351
226.37
226.389
226.408
226.426
226.445
226.463
226.482
226.501
226.52
226.539
226.558
226.576
226.595
226.613
226.631
226.65
226.67
226.69
226.708
226.726
226.744
226.761
226.78
226.8
226.821
226.841
226.858
226.875
226.892
226.911
226.931
226.953
226.972
226.989
227.006
227.023
227.042
227.064
227.085
227.103
227.12
227.136
227.154
227.173
227.195
227.216
227.234
227.251
227.268
227.285
227.303
227.325
227.346
227.364
227.381
227.399
227.417
227.438
227.458
227.475
227.492
227.51
227.531
227.554
227.573
227.59
227.606
227.622
227.638
227.656
227.679
227.704
227.724
227.741
227.757
227.773
227.789
227.807
227.829
227.856
227.875
227.891
227.907
227.922
227.938
227.956
227.979
228.004
228.022
228.038
228.054
228.071
228.09
228.115
228.135
228.151
228.167
228.183
228.2
228.221
228.246
228.267
228.283
228.299
228.314
228.331
228.349
228.372
228.396
228.413
228.43
228.446
228.465
228.488
228.509
228.526
228.542
228.558
228.576
228.598
228.621
228.639
228.655
228.671
228.689
228.711
228.735
228.752
228.768
228.784
228.8
228.818
228.842
228.867
228.885
228.9
228.916
228.931
228.947
228.966
228.991
229.016
229.033
229.049
229.064
229.079
229.095
229.111
229.13
229.159
229.191
229.21
229.225
229.24
229.255
229.271
229.286
229.303
229.323
229.349
229.371
229.387
229.403
229.419
229.436
229.456
229.481
229.5
229.516
229.532
229.547
229.564
229.586
229.616
229.64
229.657
229.672
229.687
229.702
229.718
229.735
229.757
229.783
229.803
229.818
229.834
229.85
229.866
229.886
229.912
229.933
229.95
229.965
229.981
229.997
230.016
230.041
230.065
230.081
230.097
230.113
230.128
230.145
230.166
230.193
230.215
230.231
230.247
230.262
230.278
230.295
230.317
230.345
230.365
230.381
230.397
230.412
230.429
230.448
230.473
230.494
230.511
230.527
230.544
230.563
230.588
230.609
230.626
230.641
230.657
230.673
230.689
230.708
230.733
230.758
230.775
230.791
230.806
230.82
230.836
230.852
230.868
230.887
230.918
230.955
230.976
230.991
231.004
231.015
231.03
231.046
231.061
231.077
231.095
231.12
231.154
231.177
231.193
231.208
231.223
231.238
231.255
231.273
231.298
231.321
231.337
231.353
231.369
231.384
231.401
231.42
231.446
231.47
231.487
231.503
231.519
231.534
231.55
231.569
231.595
231.621
231.638
231.654
231.669
231.685
231.701
231.72
231.745
231.769
231.786
231.801
231.817
231.833
231.85
231.872
231.897
231.917
231.933
231.948
231.964
231.98
231.998
232.021
232.047
232.065
232.08
232.096
232.112
232.127
232.144
232.166
232.201
232.23
232.247
232.262
232.275
232.288
232.303
232.319
232.335
232.354
232.38
232.407
232.426
232.441
232.457
232.472
232.488
232.505
232.526
232.553
232.575
232.591
232.607
232.623
232.639
232.655
232.675
232.7
232.72
232.737
232.752
232.768
232.784
232.8
232.818
232.847
232.882
232.903
232.918
232.932
232.945
232.96
232.976
232.992
233.013
233.039
233.06
233.076
233.091
233.106
233.121
233.137
233.153
233.169
233.191
233.228
233.261
233.28
233.294
233.306
233.319
233.334
233.35
233.367
233.389
233.415
233.436
233.451
233.467
233.483
233.498
233.515
233.533
233.558
233.588
233.608
233.623
233.639
233.654
233.67
233.686
233.704
233.729
233.754
233.771
233.787
233.803
233.819
233.835
233.851
233.872
233.898
233.921
233.938
233.953
233.969
233.984
234
234.016
234.037
234.069
234.102
234.121
234.136
234.149
234.163
234.178
234.194
234.211
234.231
234.258
234.279
234.295
234.311
234.327
234.343
234.361
234.384
234.407
234.425
234.44
234.456
234.471
234.487
234.503
234.519
234.539
234.573
234.611
234.632
234.647
234.66
234.671
234.685
234.7
234.717
234.735
234.759
234.784
234.801
234.817
234.833
234.849
234.865
234.882
234.905
234.931
234.951
234.967
234.983
234.999
235.015
235.031
235.052
235.078
235.099
235.115
235.131
235.147
235.163
235.179
235.198
235.228
235.259
235.278
235.293
235.308
235.323
235.339
235.355
235.372
235.394
235.418
235.437
235.452
235.468
235.484
235.501
235.52
235.546
235.571
235.588
235.604
235.62
235.636
235.652
235.672
235.697
235.72
235.737
235.753
235.769
235.785
235.802
235.823
235.849
235.87
235.887
235.902
235.918
235.935
235.952
235.974
235.999
236.018
236.034
236.05
236.066
236.082
236.103
236.126
236.145
236.162
236.177
236.193
236.209
236.225
236.242
236.263
236.297
236.334
236.353
236.368
236.381
236.392
236.406
236.422
236.438
236.457
236.482
236.506
236.524
236.54
236.556
236.572
236.588
236.608
236.633
236.656
236.673
236.689
236.705
236.721
236.737
236.756
236.778
236.8
236.819
236.836
236.855
236.878
236.9
236.917
236.933
236.949
236.965
236.981
236.999
237.024
237.049
237.068
237.084
237.1
237.116
237.132
237.152
237.176
237.198
237.215
237.231
237.247
237.264
237.284
237.308
237.328
237.345
237.361
237.377
237.394
237.413
237.438
237.459
237.476
237.492
237.508
237.524
237.541
237.563
237.587
237.605
237.621
237.637
237.653
237.669
237.685
237.703
237.732
237.769
237.793
237.809
237.823
237.835
237.85
237.865
237.882
237.899
237.921
237.945
237.962
237.978
237.994
238.01
238.028
238.049
238.074
238.093
238.109
238.125
238.141
238.157
238.173
238.19
238.213
238.249
238.28
238.297
238.312
238.324
238.337
238.353
238.369
238.385
238.406
238.431
238.453
238.469
238.485
238.501
238.517
238.534
238.554
238.581
238.602
238.619
238.635
238.651
238.667
238.685
238.706
238.733
238.753
238.769
238.785
238.801
238.818
238.836
238.86
238.884
238.902
238.918
238.934
238.95
238.966
238.985
239.007
239.028
239.046
239.063
239.081
239.102
239.124
239.141
239.157
239.173
239.189
239.204
239.22
239.236
239.252
239.27
239.296
239.336
239.371
239.39
239.405
239.417
239.428
239.443
239.459
239.475
239.493
239.514
239.534
239.551
239.567
239.583
239.599
239.616
239.636
239.665
239.691
239.709
239.725
239.741
239.757
239.773
239.79
239.812
239.84
239.861
239.878
239.894
239.909
239.925
239.942
239.958
239.978
240.001
240.021
240.037
240.053
240.069
240.084
240.1
240.116
240.133
240.152
240.181
240.223
240.251
240.268
240.282
240.293
240.303
240.318
240.334
240.351
240.369
240.394
240.42
240.438
240.454
240.47
240.487
240.503
240.52
240.541
240.561
240.578
240.594
240.61
240.626
240.642
240.659
240.677
240.706
240.747
240.774
240.791
240.806
240.816
240.827
240.843
240.859
240.875
240.894
240.916
240.937
240.954
240.97
240.986
241.002
241.018
241.035
241.053
241.082
241.121
241.146
241.162
241.176
241.188
241.201
241.217
241.233
241.249
241.265
241.282
241.3
241.325
241.356
241.376
241.393
241.409
241.424
241.44
241.456
241.472
241.488
241.505
241.523
241.549
241.588
241.615
241.632
241.647
241.658
241.67
241.685
241.701
241.718
241.737
241.761
241.784
241.801
241.817
241.833
241.85
241.866
241.885
241.909
241.935
241.953
241.969
241.985
242.002
242.018
242.035
242.055
242.079
242.1
242.116
242.132
242.148
242.164
242.181
242.197
242.214
242.237
242.273
242.302
242.319
242.335
242.347
242.355
242.368
242.383
242.4
242.417
242.439
242.476
242.516
242.537
242.553
242.566
242.575
242.586
242.601
242.617
242.633
242.649
242.666
242.682
242.702
242.731
242.766
242.787
242.803
242.818
242.832
242.847
242.863
242.88
242.896
242.915
242.936
242.957
242.974
242.99
243.006
243.022
243.039
243.055
243.073
243.099
243.14
243.173
243.191
243.206
243.218
243.228
243.242
243.258
243.275
243.291
243.308
243.326
243.347
243.367
243.386
243.404
243.425
243.451
243.473
243.49
243.506
243.522
243.537
243.553
243.569
243.585
243.602
243.618
243.634
243.651
243.668
243.688
243.723
243.766
243.792
243.808
243.824
243.835
243.842
243.854
243.87
243.886
243.903
243.921
243.947
243.979
244
244.017
244.033
244.048
244.065
244.081
244.098
244.119
244.143
244.162
244.178
244.194
244.211
244.227
244.245
244.268
244.293
244.311
244.328
244.344
244.36
244.377
244.395
244.419
244.443
244.46
244.477
244.493
244.509
244.526
244.545
244.569
244.591
244.608
244.625
244.641
244.658
244.675
244.696
244.721
244.741
244.757
244.773
244.789
244.805
244.822
244.838
244.855
244.874
244.902
244.932
244.951
244.967
244.983
244.998
245.013
245.029
245.045
245.062
245.078
245.095
245.115
245.147
245.188
245.213
245.229
245.244
245.254
245.261
245.274
245.29
245.306
245.322
245.339
245.358
245.385
245.424
245.449
245.465
245.48
245.493
245.504
245.52
245.536
245.552
245.57
245.591
245.62
245.644
245.661
245.677
245.693
245.709
245.725
245.742
245.759
245.777
245.796
245.812
245.829
245.845
245.862
245.878
245.897
245.926
245.969
246
246.017
246.033
246.045
246.054
246.067
246.084
246.1
246.117
246.136
246.161
246.182
246.199
246.216
246.232
246.249
246.267
246.29
246.313
246.331
246.347
246.364
246.38
246.396
246.413
246.429
246.447
246.472
246.503
246.526
246.542
246.558
246.573
246.588
246.604
246.621
246.637
246.654
246.672
246.695
246.722
246.742
246.759
246.775
246.791
246.807
246.823
246.84
246.857
246.879
246.914
246.951
246.971
246.987
247.001
247.01
247.019
247.034
247.051
247.067
247.083
247.1
247.118
247.145
247.182
247.207
247.223
247.239
247.252
247.266
247.282
247.299
247.315
247.333
247.355
247.379
247.397
247.414
247.43
247.447
247.463
247.482
247.505
247.527
247.544
247.56
247.577
247.593
247.61
247.63
247.655
247.678
247.696
247.712
247.729
247.745
247.762
247.779
247.801
247.827
247.848
247.864
247.881
247.896
247.912
247.928
247.944
247.961
247.978
248
248.036
248.073
248.093
248.109
248.123
248.132
248.141
248.156
248.172
248.188
248.205
248.222
248.245
248.277
248.304
248.321
248.338
248.353
248.365
248.379
248.395
248.411
248.428
248.444
248.461
248.479
248.503
248.543
248.578
248.597
248.613
248.627
248.634
248.641
248.655
248.671
248.688
248.705
248.725
248.758
248.8
248.824
248.841
248.856
248.867
248.874
248.887
248.904
248.92
248.936
248.953
248.97
248.992
249.024
249.054
249.072
249.088
249.104
249.118
249.133
249.149
249.166
249.183
249.202
249.224
249.244
249.261
249.278
249.294
249.31
249.326
249.343
249.359
249.376
249.396
249.428
249.473
249.503
249.52
249.536
249.548
249.556
249.567
249.583
249.599
249.616
249.633
249.651
249.67
249.687
249.704
249.72
249.737
249.754
249.771
249.795
249.832
249.871
249.891
249.907
249.922
249.932
249.943
249.958
249.975
249.991
250.008
250.025
250.042
250.062
250.084
250.108
250.133
250.154
250.171
250.188
250.205
250.221
250.237
250.253
250.268
250.284
250.301
250.317
250.334
250.353
250.381
250.42
250.446
250.463
250.479
250.492
250.503
250.518
250.534
250.551
250.568
250.586
250.606
250.623
250.64
250.657
250.673
250.69
250.706
250.724
250.744
250.776
250.819
250.846
250.863
250.878
250.89
250.898
250.911
250.928
250.944
250.961
250.98
251.006
251.033
251.052
251.068
251.085
251.101
251.118
251.135
251.153
251.176
251.198
251.216
251.233
251.249
251.266
251.282
251.3
251.32
251.345
251.366
251.384
251.4
251.417
251.433
251.45
251.467
251.485
251.503
251.52
251.537
251.553
251.57
251.587
251.604
251.625
251.66
251.702
251.727
251.743
251.759
251.771
251.779
251.793
251.809
251.826
251.843
251.862
251.885
251.908
251.926
251.942
251.959
251.976
251.992
252.01
252.031
252.056
252.076
252.093
252.11
252.126
252.143
252.161
252.182
252.209
252.23
252.247
252.264
252.28
252.296
252.312
252.328
252.345
252.361
252.378
252.394
252.411
252.428
252.444
252.462
252.483
252.519
252.564
252.591
252.608
252.624
252.636
252.644
252.656
252.672
252.689
252.706
252.723
252.743
252.767
252.787
252.804
252.82
252.837
252.854
252.871
252.891
252.914
252.936
252.953
252.97
252.987
253.005
253.024
253.049
253.071
253.088
253.105
253.121
253.138
253.154
253.171
253.187
253.204
253.222
253.244
253.275
253.301
253.319
253.336
253.352
253.366
253.381
253.397
253.414
253.43
253.447
253.464
253.481
253.498
253.52
253.554
253.586
253.604
253.621
253.636
253.649
253.664
253.68
253.697
253.714
253.733
253.756
253.78
253.798
253.815
253.832
253.848
253.864
253.88
253.897
253.913
253.931
253.951
253.98
254.012
254.032
254.049
254.065
254.079
254.093
254.109
254.126
254.143
254.16
254.181
254.209
254.233
254.251
254.267
254.284
254.301
254.317
254.334
254.352
254.372
254.393
254.411
254.428
254.445
254.462
254.478
254.495
254.513
254.534
254.563
254.589
254.606
254.623
254.639
254.654
254.665
254.679
254.696
254.712
254.729
254.746
254.763
254.783
254.813
254.859
254.891
254.909
254.925
254.94
254.949
254.958
254.972
254.989
255.006
255.022
255.039
255.056
255.075
255.098
255.129
255.151
255.169
255.185
255.202
255.218
255.234
255.25
255.267
255.284
255.301
255.317
255.334
255.351
255.37
255.396
255.43
255.455
255.472
255.488
255.503
255.516
255.532
255.548
255.565
255.582
255.601
255.626
255.652
255.671
255.687
255.704
255.72
255.735
255.751
255.768
255.785
255.801
255.819
255.84
255.873
255.907
255.927
255.944
255.96
255.973
255.985
256
256.016
256.033
256.05
256.067
256.083
256.101
256.119
256.145
256.179
256.203
256.22
256.237
256.252
256.266
256.281
256.297
256.314
256.331
256.347
256.365
256.383
256.406
256.434
256.455
256.472
256.489
256.505
256.52
256.535
256.551
256.568
256.584
256.601
256.618
256.637
256.662
256.7
256.73
256.748
256.764
256.779
256.789
256.801
256.816
256.833
256.85
256.868
256.89
256.925
256.959
256.979
256.996
257.011
257.022
257.033
257.049
257.065
257.082
257.1
257.119
257.143
257.164
257.182
257.199
257.216
257.233
257.25
257.268
257.291
257.317
257.336
257.353
257.369
257.386
257.402
257.418
257.435
257.452
257.469
257.487
257.512
257.542
257.563
257.58
257.597
257.612
257.626
257.639
257.655
257.671
257.688
257.706
257.725
257.755
257.796
257.822
257.839
257.856
257.87
257.878
257.887
257.903
257.919
257.936
257.953
257.97
257.988
258.01
258.042
258.074
258.093
258.11
258.126
258.14
258.151
258.166
258.182
258.199
258.216
258.233
258.25
258.267
258.284
258.306
258.341
258.379
258.401
258.418
258.434
258.447
258.456
258.468
258.484
258.5
258.517
258.534
258.551
258.568
258.585
258.604
258.628
258.666
258.697
258.715
258.732
258.747
258.759
258.767
258.78
258.797
258.814
258.83
258.847
258.864
258.881
258.898
258.915
258.933
258.954
258.988
259.037
259.068
259.086
259.103
259.118
259.126
259.126
259.135
259.151
259.168
259.185
259.202
259.219
259.236
259.258
259.292
259.33
259.352
259.369
259.385
259.399
259.411
259.426
259.443
259.46
259.477
259.495
259.516
259.536
259.553
259.57
259.587
259.604
259.619
259.634
259.65
259.667
259.684
259.701
259.719
259.737
259.764
259.809
259.851
259.874
259.891
259.907
259.92
259.924
259.929
259.943
259.959
259.976
259.993
260.01
260.027
260.046
260.07
260.104
260.131
260.149
260.166
260.182
260.196
260.21
260.226
260.243
260.26
260.277
260.294
260.313
260.331
260.348
260.365
260.382
260.399
260.416
260.434
260.454
260.487
260.531
260.559
260.577
260.593
260.608
260.618
260.628
260.643
260.66
260.677
260.694
260.712
260.731
260.751
260.768
260.785
260.802
260.819
260.836
260.853
260.871
260.892
260.92
260.949
260.968
260.985
261.002
261.018
261.034
261.05
261.067
261.084
261.102
261.12
261.142
261.164
261.182
261.199
261.216
261.234
261.251
261.269
261.291
261.319
261.34
261.358
261.375
261.391
261.408
261.425
261.442
261.459
261.476
261.493
261.511
261.529
261.546
261.563
261.58
261.597
261.614
261.632
261.654
261.689
261.725
261.745
261.762
261.779
261.793
261.805
261.82
261.837
261.854
261.871
261.888
261.907
261.926
261.943
261.96
261.977
261.994
262.011
262.028
262.046
262.066
262.096
262.132
262.155
262.172
262.189
262.204
262.215
262.227
262.243
262.26
262.277
262.294
262.311
262.328
262.345
262.363
262.386
262.419
262.449
262.468
262.485
262.501
262.517
262.531
262.547
262.564
262.581
262.598
262.616
262.634
262.654
262.682
262.708
262.727
262.744
262.761
262.778
262.794
262.81
262.827
262.844
262.861
262.878
262.896
262.915
262.94
262.965
262.983
263
263.017
263.034
263.051
263.067
263.081
263.098
263.115
263.132
263.149
263.166
263.183
263.2
263.218
263.236
263.263
263.305
263.341
263.361
263.378
263.394
263.407
263.411
263.418
263.432
263.449
263.466
263.483
263.501
263.521
263.549
263.588
263.613
263.631
263.648
263.663
263.676
263.689
263.705
263.722
263.739
263.756
263.774
263.792
263.815
263.842
263.864
263.881
263.898
263.916
263.933
263.95
263.967
263.983
264
264.016
264.033
264.05
264.067
264.084
264.102
264.119
264.141
264.173
264.209
264.23
264.247
264.264
264.279
264.29
264.304
264.32
264.337
264.354
264.371
264.388
264.405
264.423
264.44
264.458
264.476
264.495
264.518
264.55
264.585
264.606
264.623
264.64
264.656
264.669
264.677
264.688
264.704
264.721
264.738
264.756
264.774
264.798
264.835
264.868
264.887
264.905
264.921
264.935
264.946
264.959
264.975
264.992
265.009
265.026
265.044
265.061
265.078
265.098
265.123
265.155
265.177
265.194
265.212
265.229
265.245
265.261
265.275
265.291
265.308
265.325
265.342
265.359
265.376
265.394
265.414
265.442
265.477
265.5
265.518
265.535
265.551
265.565
265.576
265.592
265.609
265.626
265.643
265.66
265.678
265.696
265.717
265.745
265.771
265.79
265.807
265.824
265.841
265.857
265.873
265.89
265.907
265.924
265.941
265.958
265.976
265.994
266.014
266.043
266.074
266.094
266.111
266.128
266.145
266.162
266.178
266.196
266.213
266.23
266.248
266.266
266.283
266.301
266.318
266.335
266.352
266.369
266.386
266.404
266.421
266.439
266.459
266.49
266.526
266.548
266.565
266.582
266.598
266.612
266.627
266.644
266.661
266.678
266.696
266.714
266.733
266.752
266.769
266.786
266.803
266.821
266.838
266.855
266.874
266.896
266.926
266.952
266.97
266.988
267.005
267.022
267.037
267.052
267.069
267.086
267.104
267.121
267.138
267.156
267.174
267.198
267.225
267.246
267.264
267.281
267.299
267.316
267.333
267.35
267.367
267.383
267.398
267.414
267.431
267.448
267.466
267.483
267.5
267.517
267.535
267.554
267.579
267.618
267.651
267.671
267.688
267.704
267.719
267.727
267.736
267.752
267.769
267.786
267.804
267.822
267.848
267.887
267.923
267.943
267.96
267.977
267.993
268.003
268.012
268.027
268.044
268.061
268.078
268.095
268.112
268.129
268.147
268.164
268.181
268.198
268.216
268.233
268.252
268.274
268.307
268.34
268.36
268.377
268.394
268.41
268.424
268.44
268.457
268.474
268.491
268.509
268.529
268.55
268.569
268.586
268.604
268.621
268.638
268.654
268.67
268.686
268.704
268.721
268.738
268.756
268.773
268.791
268.814
268.847
268.878
268.897
268.915
268.932
268.947
268.96
268.973
268.99
269.007
269.025
269.043
269.062
269.09
269.123
269.145
269.163
269.18
269.196
269.209
269.218
269.231
269.248
269.265
269.283
269.301
269.32
269.347
269.382
269.405
269.423
269.44
269.457
269.472
269.482
269.493
269.509
269.526
269.543
269.56
269.578
269.595
269.612
269.63
269.648
269.668
269.697
269.742
269.774
269.793
269.81
269.827
269.841
269.849
269.851
269.864
269.881
269.898
269.916
269.933
269.952
269.975
270.01
270.043
270.063
270.08
270.097
270.113
270.127
270.142
270.159
270.176
270.193
270.211
270.23
270.251
270.272
270.29
270.307
270.325
270.342
270.359
270.377
270.393
270.41
270.428
270.445
270.462
270.48
270.497
270.515
270.532
270.552
270.578
270.614
270.64
270.658
270.675
270.692
270.708
270.722
270.737
270.755
270.772
270.789
270.807
270.826
270.848
270.87
270.888
270.906
270.923
270.941
270.958
270.975
270.992
271.008
271.026
271.043
271.06
271.078
271.095
271.113
271.131
271.154
271.186
271.216
271.235
271.253
271.27
271.287
271.302
271.316
271.332
271.35
271.367
271.384
271.402
271.419
271.437
271.455
271.473
271.491
271.508
271.526
271.543
271.562
271.587
271.622
271.649
271.668
271.685
271.702
271.719
271.733
271.749
271.766
271.783
271.801
271.818
271.837
271.858
271.878
271.896
271.914
271.931
271.949
271.966
271.983
272.001
272.018
272.035
272.053
272.07
272.087
272.105
272.122
272.14
272.16
272.188
272.226
272.25
272.268
272.286
272.303
272.318
272.329
272.341
272.357
272.375
272.392
272.41
272.427
272.446
272.467
272.494
272.518
272.536
272.554
272.571
272.588
272.605
272.621
272.633
272.647
272.664
272.681
272.699
272.716
272.734
272.751
272.769
272.787
272.807
272.835
272.88
272.916
272.936
272.953
272.971
272.987
272.999
273.002
273.011
273.027
273.044
273.061
273.079
273.097
273.115
273.136
273.164
273.191
273.21
273.228
273.245
273.263
273.28
273.296
273.314
273.331
273.349
273.366
273.385
273.406
273.429
273.449
273.467
273.484
273.502
273.519
273.537
273.555
273.573
273.592
273.61
273.627
273.645
273.662
273.68
273.698
273.718
273.743
273.769
273.788
273.806
273.824
273.841
273.858
273.876
273.893
273.911
273.928
273.946
273.965
273.988
274.011
274.03
274.048
274.065
274.083
274.1
274.118
274.135
274.153
274.17
274.188
274.205
274.223
274.24
274.258
274.276
274.296
274.319
274.346
274.366
274.384
274.402
274.419
274.437
274.453
274.47
274.487
274.504
274.522
274.54
274.558
274.578
274.606
274.633
274.652
274.67
274.687
274.704
274.72
274.734
274.75
274.767
274.784
274.802
274.82
274.839
274.863
274.89
274.91
274.928
274.945
274.963
274.98
274.996
275.012
275.029
275.047
275.065
275.082
275.1
275.12
275.146
275.172
275.192
275.209
275.227
275.245
275.262
275.279
275.295
275.309
275.324
275.342
275.359
275.377
275.394
275.412
275.429
275.447
275.465
275.482
275.501
275.522
275.555
275.598
275.624
275.642
275.66
275.677
275.693
275.706
275.71
275.717
275.732
275.749
275.767
275.784
275.802
275.819
275.837
275.855
275.872
275.89
275.908
275.927
275.951
275.989
276.032
276.056
276.074
276.091
276.109
276.124
276.136
276.142
276.156
276.173
276.191
276.208
276.226
276.244
276.261
276.279
276.296
276.314
276.332
276.349
276.367
276.384
276.402
276.421
276.442
276.47
276.494
276.513
276.531
276.548
276.566
276.583
276.6
276.617
276.635
276.653
276.671
276.69
276.713
276.743
276.766
276.784
276.801
276.819
276.836
276.85
276.861
276.874
276.892
276.909
276.927
276.945
276.963
276.985
277.017
277.046
277.066
277.083
277.101
277.119
277.136
277.152
277.166
277.183
277.2
277.218
277.235
277.253
277.27
277.288
277.304
277.318
277.334
277.351
277.369
277.387
277.404
277.422
277.441
277.462
277.494
277.539
277.568
277.587
277.605
277.622
277.639
277.651
277.655
277.66
277.675
277.692
277.709
277.727
277.745
277.763
277.782
277.806
277.838
277.862
277.881
277.898
277.916
277.933
277.95
277.967
277.985
278.003
278.02
278.039
278.059
278.086
278.111
278.13
278.147
278.165
278.182
278.198
278.211
278.225
278.242
278.26
278.277
278.295
278.314
278.337
278.365
278.387
278.405
278.423
278.441
278.458
278.474
278.487
278.5
278.517
278.534
278.552
278.57
278.588
278.605
278.624
278.644
278.671
278.704
278.727
278.745
278.763
278.78
278.797
278.812
278.825
278.842
278.859
278.877
278.895
278.913
278.934
278.962
278.988
279.007
279.025
279.043
279.06
279.076
279.088
279.096
279.11
279.128
279.145
279.163
279.181
279.199
279.217
279.237
279.264
279.304
279.336
279.356
279.373
279.391
279.408
279.422
279.43
279.438
279.453
279.471
279.489
279.506
279.525
279.545
279.571
279.605
279.628
279.646
279.664
279.682
279.699
279.714
279.724
279.735
279.751
279.769
279.786
279.804
279.822
279.84
279.858
279.875
279.894
279.913
279.94
279.979
280.008
280.027
280.045
280.063
280.08
280.094
280.103
280.11
280.125
280.142
280.16
280.178
280.196
280.215
280.239
280.273
280.299
280.317
280.335
280.353
280.37
280.386
280.399
280.414
280.431
280.449
280.467
280.484
280.503
280.523
280.543
280.562
280.58
280.597
280.615
280.633
280.651
280.668
280.686
280.704
280.723
280.746
280.779
280.811
280.831
280.849
280.867
280.884
280.9
280.911
280.915
280.927
280.944
280.962
280.979
280.997
281.016
281.036
281.063
281.1
281.125
281.144
281.162
281.179
281.196
281.212
281.223
281.237
281.254
281.272
281.29
281.308
281.326
281.347
281.373
281.396
281.415
281.433
281.451
281.469
281.486
281.502
281.514
281.528
281.545
281.563
281.58
281.598
281.616
281.634
281.653
281.677
281.71
281.739
281.759
281.777
281.795
281.812
281.829
281.843
281.851
281.862
281.878
281.896
281.914
281.932
281.95
281.967
281.985
282.003
282.022
282.044
282.076
282.114
282.136
282.154
282.172
282.19
282.207
282.221
282.232
282.247
282.264
282.282
282.3
282.318
282.337
282.361
282.39
282.413
282.431
282.449
282.467
282.485
282.502
282.517
282.529
282.544
282.561
282.579
282.597
282.615
282.632
282.65
282.668
282.686
282.706
282.729
282.757
282.78
282.798
282.816
282.834
282.852
282.869
282.886
282.899
282.914
282.931
282.949
282.967
282.985
283.003
283.021
283.04
283.064
283.095
283.117
283.136
283.154
283.172
283.189
283.207
283.223
283.235
283.246
283.263
283.28
283.298
283.316
283.334
283.352
283.37
283.388
283.406
283.426
283.454
283.494
283.525
283.544
283.562
283.58
283.598
283.614
283.625
283.629
283.64
283.657
283.674
283.692
283.71
283.729
283.748
283.774
283.805
283.826
283.845
283.863
283.88
283.898
283.913
283.924
283.937
283.953
283.971
283.989
284.007
284.026
284.046
284.072
284.1
284.119
284.138
284.155
284.173
284.191
284.209
284.227
284.245
284.263
284.281
284.3
284.323
284.347
284.367
284.385
284.403
284.421
284.438
284.455
284.472
284.49
284.507
284.525
284.544
284.562
284.584
284.609
284.63
284.649
284.667
284.684
284.702
284.72
284.737
284.754
284.771
284.789
284.807
284.825
284.843
284.861
284.879
284.897
284.915
284.933
284.95
284.967
284.982
284.999
285.017
285.035
285.053
285.071
285.089
285.109
285.135
285.171
285.198
285.217
285.235
285.253
285.271
285.288
285.303
285.315
285.331
285.348
285.366
285.384
285.402
285.421
285.44
285.461
285.479
285.497
285.515
285.533
285.551
285.568
285.583
285.594
285.609
285.627
285.645
285.663
285.681
285.699
285.717
285.737
285.764
285.803
285.832
285.851
285.87
285.888
285.905
285.922
285.936
285.947
285.964
285.981
285.999
286.017
286.036
286.056
286.08
286.106
286.126
286.144
286.162
286.18
286.198
286.214
286.228
286.24
286.257
286.274
286.292
286.31
286.328
286.347
286.366
286.39
286.417
286.437
286.456
286.474
286.492
286.51
286.527
286.545
286.562
286.58
286.598
286.616
286.634
286.652
286.671
286.689
286.707
286.725
286.743
286.761
286.778
286.793
286.809
286.827
286.845
286.863
286.881
286.899
286.918
286.94
286.973
287.011
287.033
287.052
287.07
287.088
287.105
287.121
287.132
287.139
287.154
287.171
287.189
287.208
287.226
287.244
287.265
287.291
287.315
287.335
287.353
287.371
287.389
287.406
287.423
287.437
287.453
287.47
287.488
287.506
287.524
287.542
287.561
287.582
287.609
287.632
287.651
287.669
287.687
287.705
287.723
287.741
287.759
287.777
287.795
287.813
287.831
287.849
287.866
287.882
287.898
287.916
287.934
287.952
287.97
287.988
288.006
288.024
288.044
288.066
288.09
288.11
288.128
288.146
288.164
288.182
288.2
288.218
288.236
288.254
288.272
288.29
288.309
288.331
288.358
288.379
288.397
288.416
288.434
288.452
288.469
288.487
288.504
288.522
288.54
288.559
288.577
288.597
288.621
288.644
288.663
288.681
288.7
288.718
288.735
288.752
288.767
288.784
288.802
288.82
288.838
288.856
288.875
288.895
288.918
288.938
288.956
288.974
288.992
289.01
289.029
289.046
289.064
289.08
289.097
289.114
289.132
289.15
289.168
289.186
289.203
289.219
289.236
289.254
289.272
289.29
289.308
289.327
289.345
289.364
289.387
289.418
289.448
289.469
289.487
289.505
289.523
289.541
289.558
289.574
289.59
289.608
289.626
289.644
289.662
289.68
289.699
289.717
289.735
289.753
289.771
289.789
289.807
289.825
289.843
289.861
289.879
289.898
289.917
289.939
289.968
289.991
290.01
290.028
290.047
290.065
290.083
290.101
290.119
290.136
290.151
290.161
290.173
290.19
290.208
290.226
290.244
290.262
290.28
290.299
290.317
290.335
290.353
290.371
290.39
290.411
290.439
290.476
290.5
290.519
290.537
290.556
290.574
290.591
290.605
290.611
290.622
290.639
290.657
290.675
290.694
290.712
290.732
290.758
290.795
290.822
290.841
290.86
290.878
290.896
290.913
290.929
290.94
290.944
290.956
290.973
290.991
291.009
291.027
291.045
291.064
291.082
291.1
291.119
291.138
291.16
291.192
291.225
291.246
291.265
291.283
291.301
291.319
291.336
291.351
291.36
291.366
291.381
291.399
291.416
291.435
291.453
291.471
291.489
291.508
291.528
291.553
291.589
291.621
291.642
291.661
291.679
291.697
291.715
291.733
291.749
291.762
291.772
291.788
291.806
291.824
291.842
291.86
291.878
291.896
291.912
291.926
291.938
291.955
291.972
291.991
292.009
292.027
292.046
292.065
292.085
292.113
292.151
292.177
292.196
292.214
292.232
292.251
292.268
292.286
292.301
292.318
292.336
292.354
292.372
292.391
292.41
292.43
292.45
292.468
292.487
292.505
292.523
292.541
292.558
292.576
292.594
292.612
292.631
292.649
292.668
292.69
292.71
292.729
292.747
292.766
292.784
292.802
292.819
292.837
292.855
292.873
292.891
292.909
292.927
292.943
292.957
292.972
292.99
293.008
293.026
293.045
293.063
293.082
293.1
293.119
293.14
293.168
293.2
293.222
293.241
293.26
293.278
293.296
293.315
293.333
293.35
293.368
293.385
293.399
293.407
293.418
293.434
293.452
293.47
293.489
293.507
293.525
293.544
293.562
293.581
293.6
293.621
293.649
293.685