/*--------------------------------*- C++ -*----------------------------------*\
  =========                 |
  \\      /  F ield         | OpenFOAM: The Open Source CFD Toolbox
   \\    /   O peration     | Website:  https://openfoam.org
    \\  /    A nd           | Version:  9
     \\/     M anipulation  |
\*---------------------------------------------------------------------------*/
FoamFile
{
    format      ascii;
    class       volScalarField;
    location    "0.037";
    object      ddt0(rho,K);
}
// * * * * * * * * * * * * * * * * * * * * * * * * * * * * * * * * * * * * * //

dimensions      [1 -1 -3 0 0 0 0];

internalField   nonuniform List<scalar> 
100
(
-2217.42
-5125.18
-8407.44
-10813.9
-13738.5
-16991.2
-20324
-23972.5
-27907.9
-31941.2
-36263.6
-40997
-45869.6
-50809.2
-56422.8
-62247.3
-67692.5
-73333.6
-80006
-87179.1
-93927
-100420
-107372
-115385
-123665
-132016
-139453
-147230
-155500
-163967
-172441
-179670
-187716
-195121
-203505
-212958
-221820
-237377
-250976
-268252
-277762
-274535
-287361
-308450
-328453
-342390
-345315
-341329
-338623
-336637
-338187
-346283
-356110
-360014
-351621
-321537
-228747
-84877.7
-1.03381e+06
-735024
-508570
-486183
-485838
-489482
-495380
-502843
-511149
-519972
-531030
-544713
-556738
-561930
-558237
-545126
-519656
-467680
-339648
-112576
-1.24563e+06
-1.11646e+06
-685891
-641083
-646239
-658396
-667027
-674657
-675079
-667265
-644218
-588069
-432470
-98450.8
-1.53389e+06
-1.67096e+06
-957509
-894964
-879149
-863046
-891554
-882192
)
;

boundaryField
{
    sides
    {
        type            calculated;
        value           nonuniform List<scalar> 2(-882192 -2217.42);
    }
    empty
    {
        type            empty;
    }
}


// ************************************************************************* //
