/*--------------------------------*- C++ -*----------------------------------*\
  =========                 |
  \\      /  F ield         | OpenFOAM: The Open Source CFD Toolbox
   \\    /   O peration     | Website:  https://openfoam.org
    \\  /    A nd           | Version:  9
     \\/     M anipulation  |
\*---------------------------------------------------------------------------*/
FoamFile
{
    format      ascii;
    class       volScalarField;
    location    "0.037";
    object      mag(U);
}
// * * * * * * * * * * * * * * * * * * * * * * * * * * * * * * * * * * * * * //

dimensions      [0 1 -1 0 0 0 0];

internalField   nonuniform List<scalar> 
100
(
48.1179
50.7175
54.551
57.7415
60.4885
63.2579
66.0534
68.8485
71.6487
74.44
77.2234
80.0145
82.8063
85.579
88.351
91.1309
93.8814
96.5954
99.3092
102.033
104.732
107.382
110.002
112.622
115.231
117.809
120.338
122.822
125.291
127.744
130.176
132.599
135.027
137.459
139.887
142.292
144.637
146.878
148.991
151.009
152.941
154.753
156.516
158.316
160.16
162.049
163.965
165.888
167.808
169.697
171.525
173.304
175.052
176.771
178.448
180.072
181.617
183.039
184.6
186.393
188.065
189.544
190.961
192.333
193.667
194.972
196.259
197.541
198.832
200.14
201.458
202.766
204.051
205.311
206.549
207.764
208.926
209.976
211.146
212.616
214.036
215.278
216.512
217.765
219.027
220.302
221.593
222.895
224.221
225.558
226.876
228.112
229.446
231.108
232.764
234.265
235.936
237.928
239.979
242.333
)
;

boundaryField
{
    sides
    {
        type            calculated;
        value           nonuniform List<scalar> 2(242.333 48.1179);
    }
    empty
    {
        type            empty;
    }
}


// ************************************************************************* //
