/*--------------------------------*- C++ -*----------------------------------*\
  =========                 |
  \\      /  F ield         | OpenFOAM: The Open Source CFD Toolbox
   \\    /   O peration     | Website:  https://openfoam.org
    \\  /    A nd           | Version:  9
     \\/     M anipulation  |
\*---------------------------------------------------------------------------*/
FoamFile
{
    format      ascii;
    class       volScalarField;
    location    "0.037";
    object      T;
}
// * * * * * * * * * * * * * * * * * * * * * * * * * * * * * * * * * * * * * //

dimensions      [0 0 0 1 0 0 0];

internalField   nonuniform List<scalar> 
100
(
212.686
212.553
212.428
212.299
212.208
212.104
211.995
211.936
211.885
211.827
211.795
211.774
211.722
211.631
211.577
211.479
211.305
211.156
211.087
211.014
210.867
210.705
210.615
210.588
210.562
210.487
210.362
210.302
210.302
210.322
210.35
210.344
210.302
210.281
210.285
210.313
210.371
210.43
210.525
210.648
210.807
210.967
211.193
211.437
211.666
211.889
212.108
212.323
212.542
212.759
212.963
213.156
213.352
213.571
213.823
214.094
214.342
214.467
214.589
215.537
215.966
216.376
216.796
217.191
217.546
217.875
218.221
218.622
219.087
219.573
220.023
220.407
220.751
221.106
221.515
221.97
222.387
222.647
222.768
223.804
224.327
224.814
225.309
225.795
226.227
226.639
226.989
227.374
227.758
228.157
228.484
228.741
228.785
229.98
230.488
231.032
231.351
231.716
231.787
232.404
)
;

boundaryField
{
    sides
    {
        type            zeroGradient;
    }
    empty
    {
        type            empty;
    }
}


// ************************************************************************* //
