/*--------------------------------*- C++ -*----------------------------------*\
  =========                 |
  \\      /  F ield         | OpenFOAM: The Open Source CFD Toolbox
   \\    /   O peration     | Website:  https://openfoam.org
    \\  /    A nd           | Version:  9
     \\/     M anipulation  |
\*---------------------------------------------------------------------------*/
FoamFile
{
    format      ascii;
    class       volVectorField;
    location    "0.037";
    object      U;
}
// * * * * * * * * * * * * * * * * * * * * * * * * * * * * * * * * * * * * * //

dimensions      [0 1 -1 0 0 0 0];

internalField   nonuniform List<vector> 
100
(
(48.1179 0 0)
(50.7175 0 0)
(54.551 0 0)
(57.7415 0 0)
(60.4885 0 0)
(63.2579 0 0)
(66.0534 0 0)
(68.8485 0 0)
(71.6487 0 0)
(74.44 0 0)
(77.2234 0 0)
(80.0145 0 0)
(82.8063 0 0)
(85.579 0 0)
(88.351 0 0)
(91.1309 0 0)
(93.8814 0 0)
(96.5954 0 0)
(99.3092 0 0)
(102.033 0 0)
(104.732 0 0)
(107.382 0 0)
(110.002 0 0)
(112.622 0 0)
(115.231 0 0)
(117.809 0 0)
(120.338 0 0)
(122.822 0 0)
(125.291 0 0)
(127.744 0 0)
(130.176 0 0)
(132.599 0 0)
(135.027 0 0)
(137.459 0 0)
(139.887 0 0)
(142.292 0 0)
(144.637 0 0)
(146.878 0 0)
(148.991 0 0)
(151.009 0 0)
(152.941 0 0)
(154.753 0 0)
(156.516 0 0)
(158.316 0 0)
(160.16 0 0)
(162.049 0 0)
(163.965 0 0)
(165.888 0 0)
(167.808 0 0)
(169.697 0 0)
(171.525 0 0)
(173.304 0 0)
(175.052 0 0)
(176.771 0 0)
(178.448 0 0)
(180.072 0 0)
(181.617 0 0)
(183.039 0 0)
(184.6 0 0)
(186.393 0 0)
(188.065 0 0)
(189.544 0 0)
(190.961 0 0)
(192.333 0 0)
(193.667 0 0)
(194.972 0 0)
(196.259 0 0)
(197.541 0 0)
(198.832 0 0)
(200.14 0 0)
(201.458 0 0)
(202.766 0 0)
(204.051 0 0)
(205.311 0 0)
(206.549 0 0)
(207.764 0 0)
(208.926 0 0)
(209.976 0 0)
(211.146 0 0)
(212.616 0 0)
(214.036 0 0)
(215.278 0 0)
(216.512 0 0)
(217.765 0 0)
(219.027 0 0)
(220.302 0 0)
(221.593 0 0)
(222.895 0 0)
(224.221 0 0)
(225.558 0 0)
(226.876 0 0)
(228.112 0 0)
(229.446 0 0)
(231.108 0 0)
(232.764 0 0)
(234.265 0 0)
(235.936 0 0)
(237.928 0 0)
(239.979 0 0)
(242.333 0 0)
)
;

boundaryField
{
    sides
    {
        type            zeroGradient;
    }
    empty
    {
        type            empty;
    }
}


// ************************************************************************* //
