/*--------------------------------*- C++ -*----------------------------------*\
  =========                 |
  \\      /  F ield         | OpenFOAM: The Open Source CFD Toolbox
   \\    /   O peration     | Website:  https://openfoam.org
    \\  /    A nd           | Version:  9
     \\/     M anipulation  |
\*---------------------------------------------------------------------------*/
FoamFile
{
    format      ascii;
    class       volScalarField;
    location    "0.012";
    object      p;
}
// * * * * * * * * * * * * * * * * * * * * * * * * * * * * * * * * * * * * * //

dimensions      [1 -1 -2 0 0 0 0];

internalField   nonuniform List<scalar> 
1000
(
100000
100000
100000
100000
100000
100000
100000
100000
100000
100000
100000
100000
100000
100000
100000
100000
100000
100000
100000
100000
100000
100000
100000
100000
100000
100000
100000
100000
100000
100000
100000
100000
100000
100000
100000
100000
100000
100000
100000
100000
100000
100000
100000
100000
100000
100000
100000
100000
100000
100000
100000
100000
100000
100000
100000
100000
100000
100000
99999.9
99999.7
99999.1
99997.4
99992.5
99977.9
99934.8
99807.6
99429.4
98327
96596
95366.2
94616.3
94118.3
93754.3
93465.2
93219.7
93000.3
92797.2
92604.9
92419.8
92239
92059.2
91876.3
91686
91484.1
91268.2
91039.1
90800.3
90556.9
90312.7
90070.1
89829.6
89591.1
89354.3
89118.5
88883.7
88649.4
88415.8
88182.7
87950.1
87718
87486.5
87255.5
87025.1
86795.2
86565.8
86337
86108.7
85880.9
85653.7
85427
85200.9
84975.3
84750.2
84525.7
84301.6
84078.2
83855.2
83632.8
83410.9
83189.6
82968.7
82748.4
82528.6
82309.3
82090.6
81872.4
81654.6
81437.4
81220.8
81004.6
80788.9
80573.8
80359.1
80145
79931.4
79718.2
79505.6
79293.5
79081.9
78870.8
78660.1
78450
78240.4
78031.2
77822.6
77614.4
77406.7
77199.6
76992.9
76786.6
76580.9
76375.7
76170.9
75966.6
75762.8
75559.5
75356.6
75154.3
74952.4
74750.9
74550
74349.5
74149.5
73949.9
73750.8
73552.2
73354.1
73156.4
72959.2
72762.4
72566.1
72370.3
72174.9
71980
71785.5
71591.5
71397.9
71204.8
71012.2
70820
70628.2
70436.9
70246.1
70055.7
69865.7
69676.2
69487.2
69298.5
69110.4
68922.6
68735.3
68548.5
68362
68176.1
67990.5
67805.4
67620.7
67436.5
67252.7
67069.3
66886.3
66703.8
66521.7
66340.1
66158.9
65978
65797.7
65617.7
65438.2
65259.1
65080.4
64902.1
64724.3
64546.8
64369.8
64193.2
64017.1
63841.3
63666
63491
63316.5
63142.4
62968.7
62795.4
62622.5
62450.1
62278
62106.4
61935.1
61764.3
61593.8
61423.8
61254.2
61084.9
60916.1
60747.7
60579.7
60412
60244.8
60078
59911.5
59745.5
59579.8
59414.6
59249.7
59085.2
58921.1
58757.4
58594.1
58431.2
58268.7
58106.6
57944.8
57783.4
57622.5
57461.9
57301.6
57141.8
56982.3
56823.3
56664.6
56506.3
56348.3
56190.8
56033.6
55876.8
55720.4
55564.3
55408.6
55253.3
55098.4
54943.8
54789.6
54635.8
54482.3
54329.2
54176.5
54024.2
53872.2
53720.6
53569.3
53418.4
53267.9
53117.7
52967.9
52818.4
52669.4
52520.6
52372.3
52224.2
52076.6
51929.3
51782.4
51635.8
51489.5
51343.7
51198.1
51053
50908.1
50763.7
50619.5
50475.8
50332.3
50189.3
50046.5
49904.1
49762.1
49620.4
49479.1
49338.1
49197.4
49057.1
48917.1
48777.5
48638.2
48499.2
48360.5
48222.3
48084.4
47946.8
47809.5
47672.6
47536
47399.7
47263.7
47128.1
46992.9
46858
46723.4
46589.1
46455.1
46321.5
46188.2
46055.2
45922.6
45790.3
45658.3
45526.6
45395.3
45264.3
45133.6
45003.2
44873.2
44743.4
44614
44485
44356.2
44227.7
44099.6
43971.8
43844.3
43717.1
43590.2
43463.7
43337.4
43211.5
43085.9
42960.6
42835.6
42710.9
42586.5
42462.5
42338.7
42215.3
42092.2
41969.3
41846.8
41724.6
41602.7
41481.1
41359.8
41238.8
41118.1
40997.7
40877.6
40757.8
40638.3
40519.1
40400.2
40281.6
40163.3
40045.3
39927.6
39810.2
39693.1
39576.3
39459.8
39343.6
39227.7
39112
38996.7
38881.6
38766.9
38652.4
38538.2
38424.4
38310.8
38197.4
38084.4
37971.7
37859.3
37747.1
37635.2
37523.6
37412.3
37301.3
37190.6
37080.1
36970
36860.1
36750.5
36641.2
36532.2
36423.4
36314.9
36206.7
36098.8
35991.2
35883.8
35776.7
35669.9
35563.4
35457.1
35351.2
35245.5
35140
35034.9
34930
34825.4
34721.1
34617
34513.2
34409.7
34306.4
34203.5
34100.8
33998.3
33896.2
33794.3
33692.6
33591.3
33490.2
33389.3
33288.8
33188.5
33088.5
32988.7
32889.3
32790
32691.1
32592.4
32494
32395.9
32298.1
32200.5
32103.3
32006.3
31909.6
31813.2
31717.2
31621.4
31526.1
31431.2
31336.7
31242.9
31149.9
31057.9
30967.5
30879.1
30793.7
30712.4
30636.2
30566.4
30504.1
30449.9
30403.8
30365.7
30335
30311.1
30293.5
30281.1
30273.3
30268.5
30266.1
30264.9
30264.3
30264.1
30264.1
30264.2
30264.9
30266.9
30271.6
30278.5
30284.2
30287.9
30290.2
30291.7
30293.1
30295
30298.5
30303.6
30308.3
30311.7
30313.8
30315.4
30317
30319.2
30323.3
30329.9
30336.3
30340.2
30342.2
30342.8
30342.8
30341.6
30337.3
30330
30322.3
30315.2
30309
30304.2
30301.1
30299.2
30298.5
30298.3
30298.2
30298.2
30298
30297.1
30296.5
30296.3
30296.5
30297.8
30300.9
30303.3
30304.8
30305.8
30306.6
30307.6
30309.5
30313
30316.8
30319.6
30321.5
30323.3
30325.5
30328.3
30330.9
30332.5
30333
30332.8
30330.6
30324.4
30317.9
30313.8
30311.6
30310.3
30309.3
30308.2
30306.5
30304.3
30302.7
30302
30301.9
30302.2
30302.9
30303.2
30303.1
30302.8
30302.5
30302.6
30303.4
30306.1
30309.1
30310.9
30311.7
30312.2
30312.5
30313.1
30314.9
30318.7
30322.5
30324.9
30326.2
30326.8
30327.2
30327.3
30327.3
30326.9
30325.7
30322
30316
30311.1
30308.3
30306.9
30306.5
30306.5
30306.5
30306.3
30305
30303.2
30302.2
30301.9
30302.1
30303.3
30304.2
30304.4
30304.2
30304
30303.9
30304.5
30307
30310.3
30312.3
30313.1
30313.3
30313.4
30313.7
30314.8
30318.5
30322.6
30325
30325.9
30326
30325.5
30323.9
30322.5
30321.4
30320.2
30318.1
30314
30309.7
30307.2
30306.2
30305.9
30306.3
30306.8
30307
30306.3
30304.2
30303
30302.6
30303
30304.8
30306.2
30306.5
30306.3
30305.7
30305.4
30305.7
30308.2
30311.8
30313.9
30314.6
30314.7
30314.4
30314.3
30315.2
30319
30323.1
30324.8
30325.3
30324.6
30321.5
30318.7
30317.4
30316.8
30316.4
30315.6
30313.2
30309.1
30306.6
30305.6
30305.5
30306.7
30307.8
30308.1
30307.5
30305.2
30303.8
30303.4
30303.9
30306.6
30308.5
30309
30308.6
30307.5
30306.9
30307.1
30309.4
30313.3
30315.5
30316.1
30315.8
30315.1
30314.8
30315.8
30319.9
30323.4
30324.6
30324.5
30321.7
30316.4
30313.6
30312.9
30313.2
30313.8
30314
30312.9
30309.2
30306.2
30304.9
30305
30307.1
30309.1
30309.5
30308.8
30306.1
30304.1
30303.7
30304.8
30308.6
30311.2
30311.5
30310.9
30308.8
30307.5
30307.5
30310
30314.5
30317.1
30317.8
30317.2
30316
30315.4
30316.4
30320.3
30323.1
30323.5
30322.6
30317.2
30311.5
30309.1
30308.9
30311.2
30313.8
30314.6
30313.6
30309.4
30305.8
30304.2
30304.4
30307.6
30310.4
30310.9
30309.7
30305.8
30303.7
30304
30305.9
30311.2
30314.4
30314.9
30313.4
30309.6
30307.5
30307.1
30310
30315.7
30318.7
30319.4
30318.6
30316.2
30315.1
30315.4
30318.7
30321.6
30321.9
30320.1
30313.4
30308
30305.8
30305.8
30309.7
30313.6
30314.6
30313.7
30308.7
30305
30303.5
30304.4
30309.9
30313.3
30313.6
30311.4
30306.1
30303.2
30302.2
30305.2
30313
30317
30317.5
30315
30309.9
30307.1
30306.3
30311
30319.4
30322.2
30322.2
30319.5
30314.3
30311.1
30309.9
30314.6
30320
30321.5
30319.1
30312.7
30306.9
30303.5
30303.6
30311.3
30315.9
30315.7
30311.8
30306.7
30301.6
30299.3
30304.5
30314.4
30317.6
30316.5
30312.7
30307.8
30301.7
30299.8
30306.9
30316.7
30319.1
30316.1
30313.1
30309
30303.3
30304.3
30317.2
30325.8
30327.7
30327.8
30330.5
30339.6
30354.3
30499
30483.5
29828.1
29875.4
30055.6
30284.4
30693.1
30811
30781.2
30446
30019.3
29955.1
29942.4
29952
30073.6
30480.3
30736.4
30742.1
30682.5
30460.8
30049.4
29945.7
29936.2
29960.4
30130.2
30549.3
30672.9
30693.3
30663.6
30416.2
30022.3
29951.3
29959
30009.3
30230.3
30567.9
30641.8
30639.8
30597.5
30374.6
30054.8
29995
29991
30037.9
30295.7
30572.7
30615.2
30620.6
30569.1
30301.6
30049.1
30017.6
30027.9
30090
30344.8
30550.2
30582.1
30570.8
30512.8
30265.8
30073.2
30049.6
30055.2
30119.7
30382.3
30533.2
30556.2
30556.2
30483.5
30211.5
30080.6
30070.4
30081.1
30156.7
30404.5
30527.7
30538.7
30521.1
30446.3
30208.7
30107.4
30099.4
30108.8
30184.6
30414.7
30505.3
30519.1
30512.6
30424
30193.1
30128.5
30122.8
30134
30218.1
30430.2
30498.2
30497.7
30477.5
30385.4
30193.6
30145.4
30142.3
30156.4
30242.4
30425
30474
30479.4
30458.1
30340.7
30165.3
30125
30153.2
30272.4
30565.6
30916.1
31130.9
31266.8
31324.7
31227.9
31070.4
31044.2
31050
31083.9
31211.4
31345.2
31366.3
31364.7
31335.1
31189.7
31078.8
31063
31063.1
31101.1
31254.2
31342.5
31350.8
31346.1
31304.4
31159.1
31086.9
31080
31089.2
31136.5
31273
31324.7
31332.4
31320.5
31259.6
)
;

boundaryField
{
    sides
    {
        type            zeroGradient;
    }
    empty
    {
        type            empty;
    }
}


// ************************************************************************* //
