/*--------------------------------*- C++ -*----------------------------------*\
  =========                 |
  \\      /  F ield         | OpenFOAM: The Open Source CFD Toolbox
   \\    /   O peration     | Website:  https://openfoam.org
    \\  /    A nd           | Version:  9
     \\/     M anipulation  |
\*---------------------------------------------------------------------------*/
FoamFile
{
    format      ascii;
    class       surfaceScalarField;
    location    "0.02";
    object      phi;
}
// * * * * * * * * * * * * * * * * * * * * * * * * * * * * * * * * * * * * * //

dimensions      [1 0 -1 0 0 0 0];

internalField   nonuniform List<scalar> 
99
(
71.5469
85.6371
99.7969
113.838
127.838
141.762
155.608
169.375
183.061
196.655
210.156
223.551
236.858
250.037
263.135
276.105
288.906
301.592
314.117
326.529
338.648
350.584
362.462
373.842
384.883
395.963
406.398
416.162
425.917
435.139
443.255
450.876
458.316
464.776
469.992
474.662
479.229
483.162
485.972
488.109
490.267
492.434
494.1
495.016
495.488
496.132
497.194
498.132
498.325
497.94
497.698
498.208
498.876
498.98
498.761
498.48
497.735
497.789
498.271
498.264
498.225
498.071
497.733
497.567
497.524
497.58
497.687
497.436
497.878
497.45
496.914
496.405
495.755
494.391
492.029
496.054
495.123
492.698
490.367
495.856
495.079
493.342
487.745
495.53
498.599
498.655
498.721
498.723
498.74
498.374
497.522
495.454
491.815
482.179
464.868
466.223
466.698
466.26
467.297
)
;

boundaryField
{
    sides
    {
        type            calculated;
        value           nonuniform List<scalar> 2(465.972 -57.2827);
    }
    empty
    {
        type            empty;
        value           nonuniform List<scalar> 0();
    }
}


// ************************************************************************* //
