/*--------------------------------*- C++ -*----------------------------------*\
  =========                 |
  \\      /  F ield         | OpenFOAM: The Open Source CFD Toolbox
   \\    /   O peration     | Website:  https://openfoam.org
    \\  /    A nd           | Version:  9
     \\/     M anipulation  |
\*---------------------------------------------------------------------------*/
FoamFile
{
    format      ascii;
    class       volScalarField;
    location    "0.045";
    object      T;
}
// * * * * * * * * * * * * * * * * * * * * * * * * * * * * * * * * * * * * * //

dimensions      [0 0 0 1 0 0 0];

internalField   nonuniform List<scalar> 
10000
(
175.507
175.508
175.509
175.511
175.513
175.515
175.517
175.519
175.52
175.522
175.524
175.526
175.528
175.53
175.532
175.533
175.535
175.537
175.539
175.541
175.543
175.545
175.546
175.548
175.55
175.552
175.554
175.556
175.558
175.559
175.561
175.563
175.565
175.567
175.569
175.571
175.572
175.574
175.576
175.578
175.58
175.582
175.584
175.585
175.587
175.589
175.591
175.593
175.595
175.596
175.598
175.6
175.602
175.604
175.606
175.608
175.609
175.611
175.613
175.615
175.617
175.618
175.62
175.622
175.624
175.626
175.628
175.629
175.631
175.633
175.635
175.637
175.639
175.64
175.642
175.644
175.646
175.648
175.65
175.651
175.653
175.655
175.657
175.659
175.66
175.662
175.664
175.666
175.668
175.669
175.671
175.673
175.675
175.677
175.678
175.68
175.682
175.684
175.686
175.687
175.689
175.691
175.693
175.695
175.696
175.698
175.7
175.702
175.703
175.705
175.707
175.709
175.711
175.712
175.714
175.716
175.718
175.719
175.721
175.723
175.725
175.726
175.728
175.73
175.732
175.734
175.735
175.737
175.739
175.74
175.742
175.744
175.745
175.747
175.749
175.751
175.753
175.754
175.756
175.758
175.76
175.762
175.763
175.765
175.766
175.768
175.769
175.771
175.773
175.774
175.776
175.778
175.78
175.782
175.783
175.785
175.787
175.789
175.791
175.792
175.794
175.795
175.797
175.798
175.8
175.801
175.802
175.804
175.805
175.807
175.808
175.81
175.812
175.814
175.815
175.817
175.819
175.821
175.823
175.825
175.827
175.829
175.831
175.833
175.834
175.836
175.837
175.839
175.84
175.841
175.842
175.843
175.844
175.844
175.845
175.845
175.846
175.846
175.846
175.846
175.846
175.846
175.846
175.846
175.847
175.847
175.847
175.846
175.846
175.846
175.846
175.846
175.846
175.845
175.845
175.845
175.845
175.844
175.844
175.844
175.843
175.843
175.843
175.842
175.842
175.842
175.841
175.841
175.841
175.84
175.84
175.84
175.84
175.839
175.839
175.839
175.838
175.838
175.838
175.837
175.837
175.837
175.837
175.836
175.836
175.836
175.835
175.835
175.835
175.834
175.834
175.834
175.833
175.833
175.833
175.833
175.832
175.832
175.832
175.831
175.831
175.831
175.83
175.83
175.83
175.83
175.829
175.829
175.829
175.828
175.828
175.828
175.827
175.827
175.827
175.826
175.826
175.826
175.826
175.825
175.825
175.825
175.824
175.824
175.824
175.823
175.823
175.823
175.823
175.822
175.822
175.822
175.821
175.821
175.821
175.82
175.82
175.82
175.82
175.819
175.819
175.819
175.818
175.818
175.818
175.817
175.817
175.817
175.817
175.816
175.816
175.816
175.815
175.815
175.815
175.814
175.814
175.814
175.814
175.813
175.813
175.813
175.812
175.812
175.812
175.811
175.811
175.811
175.811
175.81
175.81
175.81
175.809
175.809
175.809
175.808
175.808
175.808
175.808
175.807
175.807
175.807
175.806
175.806
175.806
175.805
175.805
175.805
175.805
175.804
175.804
175.804
175.803
175.803
175.803
175.803
175.802
175.802
175.802
175.801
175.801
175.801
175.8
175.8
175.8
175.8
175.799
175.799
175.799
175.798
175.798
175.798
175.798
175.797
175.797
175.797
175.796
175.796
175.796
175.795
175.795
175.795
175.795
175.794
175.794
175.794
175.793
175.793
175.793
175.793
175.792
175.792
175.792
175.791
175.791
175.791
175.79
175.79
175.79
175.79
175.789
175.789
175.789
175.788
175.788
175.788
175.788
175.787
175.787
175.787
175.786
175.786
175.786
175.786
175.785
175.785
175.785
175.784
175.784
175.784
175.783
175.783
175.783
175.783
175.782
175.782
175.782
175.781
175.781
175.781
175.781
175.78
175.78
175.78
175.779
175.779
175.779
175.779
175.778
175.778
175.778
175.777
175.777
175.777
175.777
175.776
175.776
175.776
175.775
175.775
175.775
175.775
175.774
175.774
175.774
175.773
175.773
175.773
175.773
175.772
175.772
175.772
175.771
175.771
175.771
175.771
175.77
175.77
175.77
175.769
175.769
175.769
175.769
175.768
175.768
175.768
175.768
175.767
175.767
175.767
175.766
175.766
175.766
175.765
175.765
175.765
175.765
175.764
175.764
175.764
175.764
175.763
175.763
175.763
175.762
175.762
175.762
175.762
175.761
175.761
175.761
175.76
175.76
175.76
175.76
175.759
175.759
175.759
175.758
175.758
175.758
175.758
175.757
175.757
175.757
175.757
175.756
175.756
175.756
175.755
175.755
175.755
175.755
175.754
175.754
175.754
175.754
175.753
175.753
175.753
175.752
175.752
175.752
175.752
175.751
175.751
175.751
175.75
175.75
175.75
175.75
175.749
175.749
175.749
175.749
175.748
175.748
175.748
175.747
175.747
175.747
175.747
175.746
175.746
175.746
175.746
175.745
175.745
175.745
175.744
175.744
175.744
175.744
175.743
175.743
175.743
175.743
175.742
175.742
175.742
175.742
175.741
175.741
175.741
175.74
175.74
175.74
175.74
175.739
175.739
175.739
175.739
175.738
175.738
175.738
175.738
175.737
175.737
175.737
175.736
175.736
175.736
175.736
175.735
175.735
175.735
175.735
175.734
175.734
175.734
175.734
175.733
175.733
175.733
175.733
175.732
175.732
175.732
175.731
175.731
175.731
175.731
175.73
175.73
175.73
175.73
175.729
175.729
175.729
175.729
175.728
175.728
175.728
175.728
175.727
175.727
175.727
175.727
175.726
175.726
175.726
175.725
175.725
175.725
175.725
175.724
175.724
175.724
175.724
175.723
175.723
175.723
175.723
175.722
175.722
175.722
175.722
175.721
175.721
175.721
175.721
175.72
175.72
175.72
175.72
175.719
175.719
175.719
175.719
175.718
175.718
175.718
175.718
175.717
175.717
175.717
175.717
175.716
175.716
175.716
175.716
175.715
175.715
175.715
175.715
175.714
175.714
175.714
175.714
175.713
175.713
175.713
175.713
175.712
175.712
175.712
175.712
175.711
175.711
175.711
175.711
175.711
175.71
175.71
175.71
175.71
175.709
175.709
175.709
175.709
175.708
175.708
175.708
175.708
175.707
175.707
175.707
175.707
175.706
175.706
175.706
175.706
175.706
175.705
175.705
175.705
175.705
175.704
175.704
175.704
175.704
175.703
175.703
175.703
175.703
175.702
175.702
175.702
175.702
175.702
175.701
175.701
175.701
175.701
175.7
175.7
175.7
175.7
175.699
175.699
175.699
175.699
175.699
175.698
175.698
175.698
175.698
175.697
175.697
175.697
175.697
175.697
175.696
175.696
175.696
175.696
175.695
175.695
175.695
175.695
175.695
175.694
175.694
175.694
175.694
175.693
175.693
175.693
175.693
175.693
175.692
175.692
175.692
175.692
175.691
175.691
175.691
175.691
175.691
175.69
175.69
175.69
175.69
175.69
175.689
175.689
175.689
175.689
175.689
175.688
175.688
175.688
175.688
175.687
175.687
175.687
175.687
175.687
175.686
175.686
175.686
175.686
175.686
175.685
175.685
175.685
175.685
175.685
175.684
175.684
175.684
175.684
175.684
175.683
175.683
175.683
175.683
175.683
175.682
175.682
175.682
175.682
175.682
175.681
175.681
175.681
175.681
175.681
175.68
175.68
175.68
175.68
175.68
175.68
175.679
175.679
175.679
175.679
175.679
175.678
175.678
175.678
175.678
175.678
175.677
175.677
175.677
175.677
175.677
175.677
175.676
175.676
175.676
175.676
175.676
175.675
175.675
175.675
175.675
175.675
175.675
175.674
175.674
175.674
175.674
175.674
175.674
175.673
175.673
175.673
175.673
175.673
175.672
175.672
175.672
175.672
175.672
175.672
175.671
175.671
175.671
175.671
175.671
175.671
175.67
175.67
175.67
175.67
175.67
175.67
175.67
175.669
175.669
175.669
175.669
175.669
175.669
175.668
175.668
175.668
175.668
175.668
175.668
175.667
175.667
175.667
175.667
175.667
175.667
175.667
175.666
175.666
175.666
175.666
175.666
175.666
175.666
175.665
175.665
175.665
175.665
175.665
175.665
175.665
175.664
175.664
175.664
175.664
175.664
175.664
175.664
175.664
175.663
175.663
175.663
175.663
175.663
175.663
175.663
175.663
175.662
175.662
175.662
175.662
175.662
175.662
175.662
175.662
175.661
175.661
175.661
175.661
175.661
175.661
175.661
175.661
175.661
175.66
175.66
175.66
175.66
175.66
175.66
175.66
175.66
175.66
175.659
175.659
175.659
175.659
175.659
175.659
175.659
175.659
175.659
175.659
175.658
175.658
175.658
175.658
175.658
175.658
175.658
175.658
175.658
175.658
175.658
175.657
175.657
175.657
175.657
175.657
175.657
175.657
175.657
175.657
175.657
175.657
175.657
175.657
175.656
175.656
175.656
175.656
175.656
175.656
175.656
175.656
175.656
175.656
175.656
175.656
175.656
175.656
175.656
175.656
175.655
175.655
175.655
175.655
175.655
175.655
175.655
175.655
175.655
175.655
175.655
175.655
175.655
175.655
175.655
175.655
175.655
175.655
175.655
175.655
175.655
175.655
175.655
175.655
175.655
175.655
175.655
175.654
175.654
175.654
175.654
175.654
175.654
175.654
175.654
175.654
175.654
175.654
175.654
175.654
175.654
175.654
175.654
175.654
175.654
175.654
175.654
175.654
175.654
175.654
175.654
175.654
175.654
175.654
175.654
175.654
175.654
175.654
175.654
175.655
175.655
175.655
175.655
175.655
175.655
175.655
175.655
175.655
175.655
175.655
175.655
175.655
175.655
175.655
175.655
175.655
175.655
175.655
175.655
175.655
175.655
175.655
175.655
175.656
175.656
175.656
175.656
175.656
175.656
175.656
175.656
175.656
175.656
175.656
175.656
175.656
175.657
175.657
175.657
175.657
175.657
175.657
175.657
175.657
175.657
175.657
175.657
175.658
175.658
175.658
175.658
175.658
175.658
175.658
175.658
175.658
175.659
175.659
175.659
175.659
175.659
175.659
175.659
175.66
175.66
175.66
175.66
175.66
175.66
175.66
175.661
175.661
175.661
175.661
175.661
175.661
175.662
175.662
175.662
175.662
175.662
175.662
175.663
175.663
175.663
175.663
175.663
175.664
175.664
175.664
175.664
175.664
175.665
175.665
175.665
175.665
175.665
175.666
175.666
175.666
175.666
175.667
175.667
175.667
175.667
175.667
175.668
175.668
175.668
175.668
175.669
175.669
175.669
175.669
175.67
175.67
175.67
175.671
175.671
175.671
175.671
175.672
175.672
175.672
175.673
175.673
175.673
175.673
175.674
175.674
175.674
175.675
175.675
175.675
175.676
175.676
175.676
175.677
175.677
175.677
175.678
175.678
175.678
175.679
175.679
175.679
175.68
175.68
175.681
175.681
175.681
175.682
175.682
175.682
175.683
175.683
175.684
175.684
175.684
175.685
175.685
175.686
175.686
175.686
175.687
175.687
175.688
175.688
175.689
175.689
175.69
175.69
175.69
175.691
175.691
175.692
175.692
175.693
175.693
175.694
175.694
175.695
175.695
175.696
175.696
175.697
175.697
175.698
175.698
175.699
175.699
175.7
175.701
175.701
175.702
175.702
175.703
175.703
175.704
175.704
175.705
175.706
175.706
175.707
175.707
175.708
175.709
175.709
175.71
175.71
175.711
175.712
175.712
175.713
175.714
175.714
175.715
175.716
175.716
175.717
175.718
175.718
175.719
175.72
175.72
175.721
175.722
175.722
175.723
175.724
175.725
175.725
175.726
175.727
175.728
175.728
175.729
175.73
175.731
175.731
175.732
175.733
175.734
175.735
175.735
175.736
175.737
175.738
175.739
175.739
175.74
175.741
175.742
175.743
175.744
175.745
175.745
175.746
175.747
175.748
175.749
175.75
175.751
175.752
175.753
175.754
175.755
175.756
175.756
175.757
175.758
175.759
175.76
175.761
175.762
175.763
175.764
175.765
175.766
175.767
175.768
175.769
175.771
175.772
175.773
175.774
175.775
175.776
175.777
175.778
175.779
175.78
175.781
175.783
175.784
175.785
175.786
175.787
175.788
175.789
175.791
175.792
175.793
175.794
175.795
175.797
175.798
175.799
175.8
175.802
175.803
175.804
175.805
175.807
175.808
175.809
175.811
175.812
175.813
175.815
175.816
175.817
175.819
175.82
175.821
175.823
175.824
175.826
175.827
175.828
175.83
175.831
175.833
175.834
175.836
175.837
175.839
175.84
175.842
175.843
175.845
175.846
175.848
175.849
175.851
175.852
175.854
175.855
175.857
175.859
175.86
175.862
175.863
175.865
175.867
175.868
175.87
175.872
175.873
175.875
175.877
175.878
175.88
175.882
175.884
175.885
175.887
175.889
175.891
175.892
175.894
175.896
175.898
175.9
175.901
175.903
175.905
175.907
175.909
175.911
175.913
175.914
175.916
175.918
175.92
175.922
175.924
175.926
175.928
175.93
175.932
175.934
175.936
175.938
175.94
175.942
175.944
175.946
175.948
175.95
175.952
175.954
175.957
175.959
175.961
175.963
175.965
175.967
175.969
175.972
175.974
175.976
175.978
175.98
175.983
175.985
175.987
175.989
175.992
175.994
175.996
175.998
176.001
176.003
176.005
176.008
176.01
176.012
176.015
176.017
176.019
176.022
176.024
176.027
176.029
176.031
176.034
176.036
176.039
176.041
176.044
176.046
176.049
176.051
176.054
176.056
176.059
176.061
176.064
176.066
176.069
176.072
176.074
176.077
176.079
176.082
176.085
176.087
176.09
176.092
176.095
176.098
176.1
176.103
176.106
176.108
176.111
176.114
176.117
176.119
176.122
176.125
176.128
176.13
176.133
176.136
176.139
176.142
176.144
176.147
176.15
176.153
176.156
176.159
176.161
176.164
176.167
176.17
176.173
176.176
176.179
176.182
176.184
176.187
176.19
176.193
176.196
176.199
176.202
176.205
176.208
176.211
176.214
176.217
176.22
176.223
176.226
176.229
176.232
176.235
176.238
176.241
176.244
176.247
176.25
176.253
176.256
176.26
176.263
176.266
176.269
176.272
176.275
176.278
176.281
176.284
176.288
176.291
176.294
176.297
176.3
176.303
176.306
176.31
176.313
176.316
176.319
176.322
176.326
176.329
176.332
176.335
176.338
176.342
176.345
176.348
176.351
176.354
176.358
176.361
176.364
176.367
176.371
176.374
176.377
176.38
176.384
176.387
176.39
176.393
176.397
176.4
176.403
176.407
176.41
176.413
176.417
176.42
176.423
176.426
176.43
176.433
176.436
176.44
176.443
176.446
176.45
176.453
176.456
176.46
176.463
176.466
176.47
176.473
176.476
176.48
176.483
176.487
176.49
176.493
176.497
176.5
176.503
176.507
176.51
176.513
176.517
176.52
176.524
176.527
176.53
176.534
176.537
176.541
176.544
176.547
176.551
176.554
176.557
176.561
176.564
176.568
176.571
176.575
176.578
176.581
176.585
176.588
176.592
176.595
176.598
176.602
176.605
176.609
176.612
176.615
176.619
176.622
176.626
176.629
176.633
176.636
176.639
176.643
176.646
176.65
176.653
176.657
176.66
176.663
176.667
176.67
176.674
176.677
176.681
176.684
176.688
176.691
176.694
176.698
176.701
176.705
176.708
176.712
176.715
176.719
176.722
176.725
176.729
176.732
176.736
176.739
176.743
176.746
176.75
176.753
176.757
176.76
176.763
176.767
176.77
176.774
176.777
176.781
176.784
176.788
176.791
176.795
176.798
176.801
176.805
176.808
176.812
176.815
176.819
176.822
176.826
176.829
176.833
176.836
176.84
176.843
176.846
176.85
176.853
176.857
176.86
176.864
176.867
176.871
176.874
176.878
176.881
176.885
176.888
176.892
176.895
176.898
176.902
176.905
176.909
176.912
176.916
176.919
176.923
176.926
176.93
176.933
176.937
176.94
176.944
176.947
176.95
176.954
176.957
176.961
176.964
176.968
176.971
176.975
176.978
176.982
176.985
176.989
176.992
176.996
176.999
177.003
177.006
177.01
177.013
177.016
177.02
177.023
177.027
177.03
177.034
177.037
177.041
177.044
177.048
177.051
177.055
177.058
177.062
177.065
177.069
177.072
177.076
177.079
177.082
177.086
177.089
177.093
177.096
177.1
177.103
177.107
177.11
177.114
177.117
177.121
177.124
177.128
177.131
177.135
177.138
177.142
177.145
177.149
177.152
177.156
177.159
177.162
177.166
177.169
177.173
177.176
177.18
177.183
177.187
177.19
177.194
177.197
177.201
177.204
177.208
177.211
177.215
177.218
177.222
177.225
177.229
177.232
177.236
177.239
177.243
177.246
177.25
177.253
177.256
177.26
177.263
177.267
177.27
177.274
177.277
177.281
177.284
177.288
177.291
177.295
177.298
177.302
177.305
177.309
177.312
177.316
177.319
177.323
177.326
177.33
177.333
177.337
177.34
177.344
177.347
177.351
177.354
177.358
177.361
177.365
177.368
177.371
177.375
177.378
177.382
177.385
177.389
177.392
177.396
177.399
177.403
177.406
177.41
177.413
177.417
177.42
177.424
177.427
177.431
177.434
177.438
177.441
177.445
177.448
177.452
177.455
177.459
177.462
177.466
177.469
177.473
177.476
177.48
177.483
177.487
177.49
177.494
177.497
177.501
177.504
177.508
177.511
177.515
177.518
177.521
177.525
177.528
177.532
177.535
177.539
177.542
177.546
177.549
177.553
177.556
177.56
177.563
177.567
177.57
177.574
177.577
177.581
177.584
177.588
177.591
177.595
177.598
177.602
177.605
177.609
177.612
177.616
177.619
177.623
177.626
177.63
177.633
177.637
177.64
177.644
177.647
177.651
177.654
177.658
177.661
177.665
177.668
177.672
177.675
177.679
177.682
177.686
177.689
177.693
177.696
177.7
177.703
177.707
177.71
177.714
177.717
177.721
177.724
177.728
177.731
177.735
177.738
177.742
177.745
177.749
177.752
177.756
177.759
177.763
177.766
177.77
177.773
177.777
177.78
177.784
177.787
177.791
177.794
177.798
177.801
177.805
177.808
177.812
177.815
177.819
177.822
177.826
177.829
177.833
177.836
177.84
177.843
177.847
177.85
177.854
177.857
177.861
177.864
177.868
177.871
177.875
177.878
177.882
177.885
177.889
177.892
177.896
177.899
177.903
177.906
177.91
177.913
177.917
177.92
177.924
177.927
177.931
177.934
177.938
177.941
177.945
177.948
177.952
177.955
177.959
177.962
177.966
177.969
177.973
177.976
177.98
177.983
177.987
177.99
177.994
177.997
178.001
178.004
178.008
178.011
178.015
178.018
178.022
178.025
178.029
178.032
178.036
178.039
178.043
178.046
178.05
178.053
178.057
178.06
178.064
178.067
178.071
178.074
178.078
178.081
178.085
178.088
178.092
178.095
178.099
178.102
178.106
178.109
178.113
178.117
178.12
178.124
178.127
178.131
178.134
178.138
178.141
178.145
178.148
178.152
178.155
178.159
178.162
178.166
178.169
178.173
178.176
178.18
178.183
178.187
178.19
178.194
178.197
178.201
178.204
178.208
178.211
178.215
178.218
178.222
178.225
178.229
178.232
178.236
178.239
178.243
178.246
178.25
178.253
178.257
178.26
178.264
178.268
178.271
178.275
178.278
178.282
178.285
178.289
178.292
178.296
178.299
178.303
178.306
178.31
178.313
178.317
178.32
178.324
178.327
178.331
178.334
178.338
178.341
178.345
178.348
178.352
178.355
178.359
178.362
178.366
178.369
178.373
178.376
178.38
178.384
178.387
178.391
178.394
178.398
178.401
178.405
178.408
178.412
178.415
178.419
178.422
178.426
178.429
178.433
178.436
178.44
178.443
178.447
178.45
178.454
178.457
178.461
178.464
178.468
178.471
178.475
178.479
178.482
178.486
178.489
178.493
178.496
178.5
178.503
178.507
178.51
178.514
178.517
178.521
178.524
178.528
178.531
178.535
178.538
178.542
178.545
178.549
178.552
178.556
178.56
178.563
178.567
178.57
178.574
178.577
178.581
178.584
178.588
178.591
178.595
178.598
178.602
178.605
178.609
178.612
178.616
178.619
178.623
178.626
178.63
178.634
178.637
178.641
178.644
178.648
178.651
178.655
178.658
178.662
178.665
178.669
178.672
178.676
178.679
178.683
178.686
178.69
178.693
178.697
178.701
178.704
178.708
178.711
178.715
178.718
178.722
178.725
178.729
178.732
178.736
178.739
178.743
178.746
178.75
178.753
178.757
178.76
178.764
178.767
178.771
178.775
178.778
178.782
178.785
178.789
178.792
178.796
178.799
178.803
178.806
178.81
178.814
178.817
178.821
178.824
178.828
178.831
178.835
178.838
178.842
178.845
178.849
178.852
178.856
178.859
178.863
178.866
178.87
178.873
178.877
178.88
178.884
178.887
178.891
178.895
178.898
178.902
178.905
178.909
178.912
178.916
178.92
178.923
178.927
178.93
178.934
178.937
178.941
178.944
178.948
178.951
178.955
178.958
178.962
178.965
178.969
178.972
178.976
178.979
178.983
178.986
178.99
178.993
178.997
179
179.004
179.008
179.011
179.015
179.019
179.022
179.026
179.029
179.033
179.036
179.04
179.043
179.047
179.05
179.054
179.057
179.061
179.064
179.068
179.071
179.075
179.078
179.082
179.085
179.089
179.092
179.096
179.099
179.104
179.107
179.111
179.114
179.118
179.121
179.125
179.128
179.132
179.135
179.139
179.142
179.146
179.149
179.153
179.156
179.16
179.163
179.167
179.17
179.174
179.177
179.181
179.184
179.189
179.191
179.196
179.198
179.203
179.206
179.21
179.213
179.217
179.22
179.224
179.227
179.231
179.234
179.238
179.241
179.245
179.248
179.252
179.255
179.259
179.262
179.267
179.269
179.274
179.276
179.281
179.283
179.288
179.29
179.295
179.298
179.302
179.305
179.309
179.312
179.316
179.319
179.323
179.326
179.33
179.333
179.338
179.34
179.345
179.347
179.352
179.354
179.359
179.361
179.366
179.368
179.373
179.375
179.38
179.383
179.387
179.39
179.394
179.397
179.401
179.404
179.409
179.411
179.416
179.418
179.423
179.425
179.43
179.432
179.437
179.439
179.444
179.447
179.451
179.454
179.458
179.461
179.465
179.468
179.472
179.475
179.479
179.482
179.486
179.489
179.493
179.496
179.5
179.504
179.507
179.511
179.515
179.518
179.522
179.525
179.529
179.532
179.536
179.539
179.543
179.546
179.55
179.554
179.557
179.561
179.564
179.568
179.571
179.575
179.578
179.582
179.585
179.589
179.593
179.596
179.6
179.603
179.607
179.61
179.614
179.617
179.621
179.625
179.628
179.632
179.635
179.639
179.642
179.646
179.649
179.653
179.657
179.66
179.664
179.667
179.671
179.674
179.678
179.681
179.685
179.689
179.692
179.696
179.699
179.703
179.706
179.71
179.713
179.717
179.721
179.724
179.728
179.731
179.735
179.738
179.742
179.745
179.749
179.753
179.756
179.76
179.763
179.767
179.77
179.774
179.777
179.781
179.785
179.788
179.792
179.795
179.799
179.802
179.806
179.81
179.813
179.817
179.82
179.824
179.827
179.831
179.834
179.838
179.842
179.845
179.849
179.852
179.856
179.859
179.863
179.866
179.87
179.874
179.877
179.881
179.884
179.888
179.891
179.895
179.899
179.902
179.906
179.909
179.913
179.916
179.92
179.923
179.927
179.931
179.934
179.938
179.941
179.945
179.948
179.952
179.956
179.959
179.963
179.966
179.97
179.973
179.977
179.98
179.984
179.988
179.991
179.995
179.998
180.002
180.005
180.009
180.013
180.016
180.02
180.023
180.027
180.03
180.034
180.038
180.041
180.045
180.048
180.052
180.055
180.059
180.062
180.066
180.07
180.073
180.077
180.08
180.084
180.087
180.091
180.095
180.098
180.102
180.105
180.109
180.112
180.116
180.12
180.123
180.127
180.13
180.134
180.137
180.141
180.145
180.148
180.152
180.155
180.159
180.162
180.166
180.17
180.173
180.177
180.18
180.184
180.187
180.191
180.195
180.198
180.202
180.205
180.209
180.212
180.216
180.22
180.223
180.227
180.23
180.234
180.237
180.241
180.245
180.248
180.252
180.255
180.259
180.262
180.266
180.27
180.273
180.277
180.28
180.284
180.287
180.291
180.295
180.298
180.302
180.305
180.309
180.312
180.316
180.32
180.323
180.327
180.33
180.334
180.337
180.341
180.345
180.348
180.352
180.355
180.359
180.362
180.366
180.37
180.373
180.377
180.38
180.384
180.388
180.391
180.395
180.398
180.402
180.405
180.409
180.413
180.416
180.42
180.423
180.427
180.43
180.434
180.438
180.441
180.445
180.448
180.452
180.455
180.459
180.463
180.466
180.47
180.473
180.477
180.481
180.484
180.488
180.491
180.495
180.498
180.502
180.506
180.509
180.513
180.516
180.52
180.523
180.527
180.531
180.534
180.538
180.541
180.545
180.549
180.552
180.556
180.559
180.563
180.566
180.57
180.574
180.577
180.581
180.584
180.588
180.592
180.595
180.599
180.602
180.606
180.609
180.613
180.617
180.62
180.624
180.627
180.631
180.635
180.638
180.642
180.645
180.649
180.652
180.656
180.66
180.663
180.667
180.67
180.674
180.678
180.681
180.685
180.688
180.692
180.695
180.699
180.703
180.706
180.71
180.713
180.717
180.721
180.724
180.728
180.731
180.735
180.738
180.742
180.746
180.749
180.753
180.756
180.76
180.764
180.767
180.771
180.774
180.778
180.782
180.785
180.789
180.792
180.796
180.799
180.803
180.807
180.81
180.814
180.817
180.821
180.825
180.828
180.832
180.835
180.839
180.843
180.846
180.85
180.853
180.857
180.86
180.864
180.868
180.871
180.875
180.878
180.882
180.886
180.889
180.893
180.896
180.9
180.904
180.907
180.911
180.914
180.918
180.922
180.925
180.929
180.932
180.936
180.939
180.943
180.947
180.95
180.954
180.957
180.961
180.965
180.968
180.972
180.975
180.979
180.983
180.986
180.99
180.993
180.997
181.001
181.004
181.008
181.011
181.015
181.019
181.022
181.026
181.029
181.033
181.036
181.04
181.044
181.047
181.051
181.054
181.058
181.062
181.065
181.069
181.072
181.076
181.08
181.083
181.087
181.09
181.094
181.098
181.101
181.105
181.108
181.112
181.116
181.119
181.123
181.126
181.13
181.134
181.137
181.141
181.144
181.148
181.152
181.155
181.159
181.162
181.166
181.17
181.173
181.177
181.18
181.184
181.188
181.191
181.195
181.198
181.202
181.206
181.209
181.213
181.216
181.22
181.224
181.227
181.231
181.234
181.238
181.242
181.245
181.249
181.252
181.256
181.26
181.263
181.267
181.27
181.274
181.278
181.281
181.285
181.288
181.292
181.296
181.299
181.303
181.306
181.31
181.314
181.317
181.321
181.324
181.328
181.332
181.335
181.339
181.342
181.346
181.35
181.353
181.357
181.36
181.364
181.368
181.371
181.375
181.378
181.382
181.386
181.389
181.393
181.396
181.4
181.404
181.407
181.411
181.414
181.418
181.422
181.425
181.429
181.433
181.436
181.44
181.443
181.447
181.451
181.454
181.458
181.461
181.465
181.469
181.472
181.476
181.479
181.483
181.487
181.49
181.494
181.497
181.501
181.505
181.508
181.512
181.515
181.519
181.523
181.526
181.53
181.534
181.537
181.541
181.544
181.548
181.552
181.555
181.559
181.562
181.566
181.57
181.573
181.577
181.58
181.584
181.588
181.591
181.595
181.598
181.602
181.606
181.609
181.613
181.617
181.62
181.624
181.627
181.631
181.635
181.638
181.642
181.645
181.649
181.653
181.656
181.66
181.663
181.667
181.671
181.674
181.678
181.682
181.685
181.689
181.692
181.696
181.7
181.703
181.707
181.71
181.714
181.718
181.721
181.725
181.729
181.732
181.736
181.739
181.743
181.747
181.75
181.754
181.757
181.761
181.765
181.768
181.772
181.776
181.779
181.783
181.786
181.79
181.794
181.797
181.801
181.804
181.808
181.812
181.815
181.819
181.823
181.826
181.83
181.833
181.837
181.841
181.844
181.848
181.851
181.855
181.859
181.862
181.866
181.87
181.873
181.877
181.88
181.884
181.888
181.891
181.895
181.899
181.902
181.906
181.909
181.913
181.917
181.92
181.924
181.928
181.931
181.935
181.938
181.942
181.945
181.949
181.953
181.957
181.96
181.964
181.967
181.971
181.974
181.978
181.982
181.986
181.989
181.993
181.996
182
182.003
182.007
182.01
182.015
182.018
182.022
182.025
182.029
182.032
182.037
182.039
182.044
182.046
182.051
182.054
182.058
182.061
182.066
182.068
182.073
182.075
182.08
182.083
182.087
182.09
182.095
182.097
182.102
182.104
182.109
182.112
182.116
182.119
182.124
182.126
182.131
182.133
182.138
182.141
182.145
182.148
182.153
182.155
182.16
182.162
182.167
182.17
182.174
182.177
182.182
182.184
182.189
182.191
182.196
182.199
182.203
182.206
182.211
182.213
182.218
182.22
182.225
182.228
182.232
182.235
182.24
182.242
182.247
182.249
182.254
182.257
182.262
182.264
182.269
182.271
182.276
182.278
182.283
182.286
182.291
182.293
182.298
182.3
182.305
182.307
182.312
182.315
182.32
182.322
182.327
182.329
182.334
182.337
182.341
182.344
182.349
182.351
182.356
182.358
182.363
182.366
182.37
182.373
182.378
182.38
182.385
182.387
182.392
182.395
182.4
182.402
182.407
182.409
182.414
182.416
182.421
182.424
182.429
182.431
182.436
182.438
182.443
182.446
182.45
182.453
182.458
182.46
182.465
182.467
182.472
182.475
182.479
182.482
182.487
182.489
182.494
182.496
182.501
182.504
182.509
182.511
182.516
182.518
182.523
182.526
182.53
182.533
182.538
182.54
182.545
182.547
182.552
182.555
182.559
182.562
182.567
182.569
182.574
182.576
182.581
182.584
182.589
182.591
182.596
182.598
182.603
182.606
182.61
182.613
182.618
182.62
182.625
182.627
182.632
182.635
182.639
182.642
182.647
182.649
182.654
182.656
182.661
182.664
182.669
182.671
182.676
182.678
182.683
182.686
182.69
182.693
182.698
182.7
182.705
182.707
182.712
182.715
182.72
182.722
182.727
182.729
182.734
182.737
182.741
182.744
182.749
182.751
182.756
182.758
182.763
182.766
182.771
182.773
182.778
182.78
182.785
182.788
182.792
182.795
182.8
182.802
182.807
182.809
182.814
182.817
182.822
182.824
182.829
182.831
182.836
182.839
182.843
182.846
182.851
182.853
182.858
182.86
182.865
182.868
182.873
182.875
182.88
182.882
182.887
182.89
182.895
182.897
182.902
182.904
182.909
182.912
182.916
182.919
182.924
182.926
182.931
182.933
182.938
182.941
182.946
182.948
182.953
182.955
182.96
182.963
182.967
182.97
182.975
182.977
182.982
182.985
182.989
182.992
182.997
182.999
183.004
183.006
183.011
183.014
183.019
183.021
183.026
183.028
183.033
183.036
183.04
183.043
183.048
183.05
183.055
183.058
183.062
183.065
183.07
183.072
183.077
183.079
183.084
183.087
183.092
183.094
183.099
183.101
183.106
183.109
183.114
183.116
183.121
183.123
183.128
183.131
183.135
183.138
183.143
183.145
183.15
183.153
183.157
183.16
183.165
183.167
183.172
183.174
183.179
183.182
183.187
183.189
183.194
183.196
183.201
183.204
183.209
183.211
183.216
183.218
183.223
183.226
183.23
183.233
183.238
183.24
183.245
183.248
183.252
183.255
183.26
183.262
183.267
183.27
183.274
183.277
183.282
183.284
183.289
183.291
183.296
183.299
183.304
183.306
183.311
183.313
183.318
183.321
183.326
183.328
183.333
183.335
183.34
183.343
183.348
183.35
183.355
183.357
183.362
183.365
183.37
183.372
183.377
183.379
183.384
183.387
183.391
183.394
183.399
183.401
183.406
183.409
183.413
183.416
183.421
183.423
183.428
183.431
183.435
183.438
183.443
183.445
183.45
183.453
183.457
183.46
183.465
183.467
183.472
183.475
183.479
183.482
183.487
183.489
183.494
183.496
183.501
183.504
183.509
183.511
183.516
183.518
183.523
183.526
183.531
183.533
183.538
183.54
183.545
183.548
183.553
183.555
183.56
183.562
183.567
183.57
183.575
183.577
183.582
183.584
183.589
183.592
183.597
183.599
183.604
183.606
183.611
183.614
183.619
183.621
183.626
183.628
183.633
183.636
183.641
183.643
183.648
183.65
183.655
183.658
183.663
183.665
183.67
183.672
183.677
183.68
183.685
183.687
183.692
183.694
183.699
183.702
183.707
183.709
183.714
183.716
183.721
183.724
183.729
183.731
183.736
183.738
183.743
183.746
183.751
183.753
183.758
183.761
183.765
183.768
183.773
183.775
183.78
183.783
183.787
183.79
183.795
183.797
183.802
183.805
183.809