/*--------------------------------*- C++ -*----------------------------------*\
  =========                 |
  \\      /  F ield         | OpenFOAM: The Open Source CFD Toolbox
   \\    /   O peration     | Website:  https://openfoam.org
    \\  /    A nd           | Version:  9
     \\/     M anipulation  |
\*---------------------------------------------------------------------------*/
FoamFile
{
    format      ascii;
    class       volScalarField;
    location    "0.032";
    object      rho;
}
// * * * * * * * * * * * * * * * * * * * * * * * * * * * * * * * * * * * * * //

dimensions      [1 -3 0 0 0 0 0];

internalField   nonuniform List<scalar> 
10000
(
0.611819
0.611744
0.611699
0.61165
0.611602
0.611554
0.611506
0.611457
0.611409
0.611361
0.611313
0.611265
0.611216
0.611168
0.61112
0.611072
0.611024
0.610976
0.610928
0.61088
0.610832
0.610784
0.610736
0.610687
0.610639
0.610591
0.610543
0.610495
0.610447
0.610399
0.61035
0.610302
0.610254
0.610206
0.610158
0.61011
0.610062
0.610014
0.609966
0.609918
0.60987
0.609822
0.609774
0.609726
0.609677
0.609629
0.609581
0.609533
0.609485
0.609437
0.609389
0.609341
0.609293
0.609245
0.609197
0.609149
0.609101
0.609053
0.609004
0.608956
0.608908
0.60886
0.608812
0.608764
0.608716
0.608668
0.60862
0.608572
0.608524
0.608477
0.608429
0.608381
0.608333
0.608285
0.608236
0.608188
0.60814
0.608092
0.608044
0.607996
0.607948
0.6079
0.607852
0.607804
0.607756
0.607708
0.607661
0.607613
0.607565
0.607517
0.607469
0.607421
0.607373
0.607325
0.607277
0.60723
0.607182
0.607134
0.607086
0.607038
0.60699
0.606942
0.606895
0.606847
0.606799
0.606751
0.606703
0.606655
0.606607
0.606559
0.606512
0.606464
0.606416
0.606368
0.60632
0.606272
0.606225
0.606177
0.60613
0.606082
0.606033
0.605985
0.605937
0.605889
0.605842
0.605794
0.605746
0.605699
0.605651
0.605602
0.605554
0.605506
0.605459
0.605412
0.605365
0.605317
0.605269
0.605221
0.605172
0.605124
0.605076
0.605029
0.604981
0.604934
0.604886
0.604839
0.604791
0.604744
0.604695
0.604646
0.604597
0.604549
0.604503
0.604458
0.604412
0.604364
0.604313
0.604263
0.604213
0.604166
0.604122
0.604077
0.604029
0.603979
0.603929
0.603879
0.603832
0.603787
0.603743
0.603696
0.603647
0.603596
0.603546
0.603498
0.603452
0.603409
0.603364
0.603316
0.603266
0.603215
0.603164
0.603115
0.603068
0.603026
0.602985
0.60294
0.602888
0.602834
0.60278
0.60273
0.602691
0.602662
0.602616
0.602558
0.6025
0.602444
0.602393
0.602361
0.60234
0.60229
0.60223
0.602168
0.602109
0.602052
0.602003
0.601983
0.601965
0.601911
0.601849
0.601785
0.601725
0.601668
0.601617
0.601595
0.601586
0.601536
0.601474
0.601408
0.601346
0.601288
0.601236
0.601206
0.601202
0.601159
0.601098
0.601031
0.600969
0.60091
0.600857
0.600822
0.600813
0.600771
0.600711
0.600648
0.600588
0.600533
0.600487
0.60047
0.600436
0.600378
0.600317
0.600257
0.600202
0.600159
0.600145
0.600109
0.60005
0.599988
0.599927
0.59987
0.59982
0.599798
0.599777
0.599723
0.599661
0.599599
0.599541
0.599487
0.599452
0.599441
0.599397
0.599336
0.599272
0.59921
0.599152
0.599101
0.599076
0.599066
0.599017
0.598955
0.598891
0.598831
0.598776
0.598731
0.598722
0.598692
0.598634
0.59857
0.598506
0.598447
0.598394
0.598357
0.598353
0.598315
0.598255
0.598188
0.598124
0.598065
0.598012
0.597977
0.597972
0.597932
0.597872
0.597805
0.597741
0.597682
0.59763
0.597597
0.597597
0.597559
0.597498
0.597429
0.597359
0.597299
0.597242
0.597193
0.597172
0.597189
0.597158
0.597099
0.597029
0.596953
0.59689
0.596832
0.596781
0.596747
0.596748
0.596713
0.596652
0.596584
0.596516
0.596457
0.596403
0.596363
0.596359
0.596329
0.59627
0.596205
0.596136
0.596076
0.596018
0.595964
0.595922
0.595921
0.595924
0.595876
0.595815
0.595748
0.595685
0.595626
0.595567
0.595509
0.595456
0.595414
0.595411
0.595389
0.595331
0.595265
0.595195
0.595135
0.59508
0.595036
0.595032
0.595011
0.594954
0.594887
0.594814
0.594753
0.594699
0.594654
0.594652
0.594639
0.594584
0.594518
0.594439
0.594374
0.594316
0.594267
0.594244
0.594258
0.594224
0.594164
0.594092
0.594015
0.593954
0.593899
0.593853
0.593845
0.593836
0.593783
0.593719
0.593651
0.593592
0.593538
0.593497
0.593482
0.59344
0.593381
0.593316
0.593253
0.593195
0.593144
0.593117
0.593121
0.593082
0.593022
0.592949
0.592877
0.592817
0.592764
0.592726
0.59273
0.592709
0.592651
0.592584
0.592509
0.592448
0.592392
0.592347
0.592341
0.592334
0.592282
0.592219
0.592153
0.592093
0.592038
0.591994
0.591967
0.591922
0.591864
0.591806
0.59175
0.5917
0.591674
0.591652
0.5916
0.591539
0.591475
0.591416
0.591362
0.591317
0.591312
0.591304
0.591252
0.591189
0.591117
0.591055
0.590999
0.59095
0.590932
0.590911
0.590857
0.590795
0.59073
0.590671
0.590618
0.590575
0.590572
0.59055
0.590494
0.590431
0.590366
0.590307
0.59025
0.590194
0.59014
0.590092
0.590052
0.590039
0.590028
0.589979
0.58992
0.589854
0.589787
0.589728
0.589673
0.589627
0.589618
0.589611
0.58956
0.589498
0.589432
0.589373
0.589318
0.589274
0.589255
0.589216
0.58916
0.589101
0.589043
0.58899
0.588947
0.588934
0.588899
0.588842
0.588783
0.588725
0.588668
0.588614
0.588562
0.588508
0.588453
0.588403
0.588368
0.588373
0.588347
0.58829
0.588223
0.588148
0.588087
0.588032
0.587985
0.587975
0.587966
0.587914
0.587851
0.587774
0.587708
0.587652
0.587602
0.587581
0.587606
0.587588
0.587532
0.587464
0.587375
0.587298
0.587239
0.587185
0.587142
0.587138
0.58715
0.587108
0.587048
0.586978
0.586911
0.586853
0.586797
0.586743
0.586696
0.586654
0.58661
0.586567
0.586536
0.586508
0.586457
0.586399
0.586338
0.586277
0.586219
0.586166
0.586125
0.586123
0.586106
0.586051
0.585987
0.585914
0.585853
0.585799
0.585752
0.585742
0.585731
0.585678
0.585616
0.585543
0.58548
0.585425
0.585377
0.58536
0.585352
0.585302
0.58524
0.585168
0.585104
0.585048
0.585001
0.584985
0.585007
0.584979
0.584921
0.584849
0.584753
0.584674
0.584615
0.584561
0.584517
0.584512
0.584531
0.584495
0.584435
0.584362
0.58428
0.584216
0.584161
0.584112
0.584089
0.584105
0.584077
0.58402
0.583952
0.583878
0.583817
0.583762
0.583714
0.583697
0.583692
0.583644
0.583584
0.58352
0.583462
0.583406
0.583353
0.583307
0.583256
0.583201
0.583148
0.5831
0.583074
0.583082
0.583047
0.582989
0.582924
0.58286
0.582803
0.58275
0.582707
0.582679
0.582633
0.582576
0.58252
0.582465
0.582416
0.582388
0.582363
0.58231
0.582252
0.582191
0.582134
0.582081
0.582036
0.58203
0.582041
0.582
0.58194
0.581867
0.581781
0.581714
0.581656
0.5816
0.581544
0.581489
0.581441
0.581414
0.581442
0.581469
0.58143
0.58137
0.581296
0.581195
0.581114
0.581055
0.581
0.580951
0.580926
0.580944
0.580923
0.580867
0.580801
0.580722
0.580657
0.580601
0.580551
0.58052
0.580529
0.5805
0.580444
0.580378
0.580312
0.580255
0.580201
0.580157
0.580133
0.580093
0.580037
0.579979
0.579923
0.579869
0.579822
0.579802
0.579782
0.579729
0.57967
0.579607
0.579549
0.579495
0.579449
0.579435
0.579419
0.579366
0.579306
0.57924
0.579182
0.579129
0.579084
0.579074
0.579054
0.579
0.578938
0.578868
0.578808
0.578755
0.578709
0.578697
0.578696
0.578648
0.578588
0.578515
0.578448
0.578392
0.578342
0.57831
0.57832
0.578296
0.57824
0.578172
0.578085
0.578011
0.577953
0.577901
0.577859
0.57786
0.577879
0.577842
0.577783
0.57771
0.577618
0.577548
0.577491
0.577439
0.577398
0.577398
0.577409
0.577366
0.577306
0.577234
0.577158
0.577098
0.577044
0.576997
0.576981
0.576979
0.576932
0.576873
0.576805
0.576742
0.576687
0.576638
0.576611
0.576613
0.576574
0.576516
0.576447
0.576377
0.576319
0.576267
0.576225
0.576222
0.576204
0.57615
0.576087
0.576013
0.575951
0.575896
0.575848
0.575824
0.575837
0.575808
0.575751
0.575683
0.575603
0.575539
0.575483
0.575434
0.575402
0.575407
0.575376
0.57532
0.575255
0.57519
0.575133
0.575082
0.575043
0.575038
0.575006
0.57495
0.574885
0.574814
0.574755
0.574702
0.574657
0.57465
0.574658
0.574616
0.574556
0.57448
0.574392
0.574329
0.574274
0.574226
0.574203
0.574234
0.574237
0.574187
0.574125
0.574043
0.573941
0.573871
0.573815
0.573764
0.573722
0.57372
0.573742
0.573706
0.573649
0.573579
0.573495
0.573429
0.573373
0.573323
0.573285
0.57329
0.573277
0.573224
0.573163
0.57309
0.573027
0.572972
0.572923
0.572893
0.572898
0.572865
0.572809
0.572744
0.572679
0.572623
0.572572
0.572535
0.572538
0.572514
0.572458
0.572392
0.5723
0.572212
0.572151
0.572096
0.572046
0.572011
0.572025
0.572065
0.572038
0.571982
0.571915
0.571823
0.571738
0.571677
0.571623
0.571574
0.571539
0.571551
0.571544
0.571493
0.571433
0.571359
0.571292
0.571236
0.571184
0.571143
0.571136
0.571115
0.571062
0.571002
0.570942
0.570887
0.570837
0.570802
0.570794
0.570756
0.5707
0.570634
0.570563
0.570504
0.570451
0.570406
0.570395
0.570409
0.570373
0.570316
0.570245
0.570149
0.570073
0.570016
0.569963
0.569919
0.569905
0.569937
0.569924
0.569871
0.569808
0.569726
0.569645
0.569587
0.569533
0.569485
0.569458
0.569468
0.569441
0.569386
0.569322
0.569251
0.569192
0.569138
0.569091
0.569068
0.569063
0.56902
0.568963
0.568901
0.568843
0.56879
0.568744
0.568729
0.56873
0.568686
0.568627
0.568553
0.568456
0.568383
0.568326
0.568272
0.568219
0.568173
0.568151
0.568185
0.568208
0.568168
0.56811
0.56804
0.567947
0.567871
0.567814
0.567761
0.567714
0.567687
0.567697
0.567668
0.567613
0.567549
0.567476
0.567415
0.567362
0.567313
0.567286
0.567291
0.567258
0.567202
0.567137
0.567069
0.567013
0.566961
0.566919
0.566914
0.566927
0.566887
0.56683
0.56676
0.566668
0.566593
0.566536
0.566482
0.566428
0.566374
0.566324
0.566283
0.566278
0.566313
0.566293
0.566239
0.566177
0.566096
0.56602
0.565962
0.565909
0.565862
0.565836
0.565853
0.565834
0.565781
0.565719
0.565638
0.565556
0.565496
0.565441
0.565387
0.565333
0.56528
0.565231
0.565193
0.565197
0.565242
0.565226
0.565174
0.565114
0.565038
0.564965
0.564907
0.564853
0.564801
0.564751
0.564703
0.564651
0.564597
0.564543
0.564489
0.564441
0.564408
0.564418
0.56441
0.564361
0.564301
0.564226
0.564151
0.564093
0.56404
0.563994
0.56397
0.563982
0.563952
0.563897
0.563834
0.563769
0.563714
0.563663
0.56362
0.563603
0.563572
0.563519
0.563459
0.563386
0.563321
0.563267
0.563218
0.563186
0.563206
0.563232
0.563196
0.563139
0.563069
0.562967
0.562875
0.562814
0.562761
0.562712
0.562675
0.562682
0.562703
0.562667
0.562611
0.562544
0.562463
0.562399
0.562345
0.562296
0.562258
0.562264
0.562267
0.562221
0.562163
0.56209
0.561994
0.561922
0.561865
0.561812
0.561758
0.561707
0.561661
0.561637
0.561668
0.5617
0.561665
0.561609
0.561544
0.561454
0.56137
0.56131
0.561256
0.561203
0.561149
0.561096
0.561044
0.560997
0.560966
0.560985
0.561018
0.560985
0.56093
0.560865
0.560773
0.560678
0.560615
0.560561
0.560511
0.56047
0.560466
0.560508
0.560496
0.560445
0.560384
0.560299
0.560181
0.5601
0.560043
0.559991
0.559943
0.559912
0.559933
0.559977
0.55995
0.559896
0.559832
0.559741
0.55964
0.559575
0.559521
0.55947
0.559428
0.55942
0.559462
0.559455
0.559405
0.559346
0.559268
0.559174
0.559108
0.559054
0.559003
0.558958
0.55894
0.558963
0.558945
0.558893
0.558834
0.558761
0.558685
0.558626
0.55857
0.558515
0.55846
0.558405
0.558352
0.558299
0.558247
0.558201
0.558173
0.558198
0.558224
0.558188
0.558132
0.558066
0.557975
0.557893
0.557836
0.557783
0.557735
0.557699
0.557707
0.557706
0.55766
0.557603
0.557532
0.557459
0.557402
0.55735
0.557303
0.557275
0.557282
0.557254
0.557201
0.557141
0.557077
0.557022
0.556971
0.556927
0.556909
0.556888
0.556837
0.556781
0.556714
0.55665
0.556597
0.556548
0.556512
0.556521
0.556542
0.556505
0.556449
0.55638
0.556277
0.55617
0.556105
0.556051
0.555999
0.555947
0.555901
0.55587
0.555892
0.555954
0.555941
0.55589
0.55583
0.555751
0.55564
0.555558
0.555501
0.555449
0.555399
0.555358
0.555351
0.555379
0.555354
0.555302
0.555242
0.555169
0.555106
0.555052
0.555001
0.554955
0.554927
0.554895
0.554845
0.554792
0.554738
0.554686
0.554636
0.554593
0.554578
0.554559
0.554509
0.554454
0.554392
0.554334
0.554281
0.554233
0.554195
0.554191
0.554166
0.554114
0.554056
0.553988
0.553928
0.553875
0.553827
0.553789
0.553787
0.553768
0.553717
0.553659
0.553595
0.553538
0.553486
0.553439
0.553409
0.553412
0.553383
0.553331
0.553272
0.553209
0.553153
0.553101
0.553048
0.552996
0.552943
0.55289
0.552838
0.552785
0.552735
0.55269
0.552667
0.552695
0.552702
0.552658
0.552601
0.55253
0.55243
0.552351
0.552296
0.552244
0.552197
0.552166
0.552182
0.552192
0.552149
0.552094
0.552026
0.551942
0.551877
0.551824
0.551774
0.551731
0.551715
0.551735
0.55171
0.551658
0.5516
0.551533
0.551473
0.551419
0.551367
0.551315
0.551262
0.551208
0.551149
0.551092
0.55104
0.550988
0.550943
0.550915
0.55094
0.550968
0.550932
0.550878
0.550814
0.550724
0.550641
0.550583
0.550531
0.550483
0.550445
0.550444
0.550438
0.550391
0.550335
0.550263
0.550177
0.550116
0.550063
0.550015
0.549979
0.549986
0.550017
0.549987
0.549934
0.549872
0.549785
0.549699
0.549641
0.549589
0.549541
0.549505
0.549511
0.549533
0.549498
0.549444
0.549381
0.549295
0.549218
0.549162
0.549111
0.549064
0.549029
0.549037
0.549031
0.548984
0.548929
0.54886
0.54879
0.548735
0.548684
0.548638
0.54861
0.54862
0.548599
0.548548
0.548491
0.548422
0.548359
0.548306
0.548254
0.548205
0.54816
0.54812
0.548073
0.548022
0.547973
0.547928
0.5479
0.547908
0.547884
0.547833
0.547776
0.547712
0.547655
0.547603
0.547553
0.54751
0.547481
0.547442
0.547392
0.54734
0.547289
0.547239
0.547193
0.547158
0.547116
0.547066
0.547014
0.546962
0.546911
0.546861
0.546819
0.546806
0.546814
0.546778
0.546725
0.546666
0.546606
0.546554
0.546503
0.546457
0.546429
0.546408
0.546362
0.54631
0.546257
0.546204
0.546152
0.5461
0.546048
0.545996
0.545941
0.545887
0.545835
0.545785
0.54574
0.545713
0.545741
0.545777
0.545747
0.545694
0.545632
0.545541
0.545411
0.545326
0.545269
0.545217
0.545167
0.545119
0.545082
0.545083
0.545147
0.545168
0.545128
0.545073
0.545008
0.544912
0.544802
0.544736
0.544683
0.544632
0.544585
0.544549
0.544555
0.544579
0.544546
0.544493
0.544432
0.544352
0.54428
0.544226
0.544175
0.544129
0.544098
0.544113
0.544124
0.544083
0.54403
0.543967
0.543889
0.543824
0.543771
0.54372
0.543669
0.543618
0.543567
0.543516
0.543466
0.543421
0.543388
0.543399
0.543417
0.543381
0.543327
0.543266
0.543183
0.543099
0.543041
0.54299
0.542941
0.542898
0.542881
0.542879
0.542838
0.542785
0.542724
0.542657
0.542602
0.542551
0.542507
0.542479
0.542499
0.542497
0.542451
0.542396
0.542327
0.54224
0.542176
0.542124
0.542075
0.542033
0.542019
0.542041
0.542017
0.541966
0.541907
0.541824
0.541714
0.541639
0.541586
0.541535
0.541486
0.541445
0.541432
0.541482
0.541525
0.541495
0.541443
0.541384
0.541302
0.541197
0.541126
0.541073
0.541022
0.540973
0.540929
0.540906
0.540909
0.540874
0.540822
0.540765
0.540699
0.540643
0.540593
0.540545
0.540507
0.540501
0.540482
0.540433
0.540379
0.540313
0.540249
0.540197
0.540147
0.540104
0.540085
0.540097
0.540069
0.540018
0.539959
0.539884
0.539817
0.539764
0.539715
0.539672
0.539651
0.539677
0.539673
0.539627
0.539573
0.539505
0.539416
0.539345
0.539292
0.539241
0.539191
0.53914
0.53909
0.539043
0.539002
0.538989
0.539019
0.539006
0.538958
0.538902
0.538829
0.538726
0.538648
0.538594
0.538544
0.538498
0.538464
0.538474
0.538517
0.538495
0.538446
0.538388
0.53831
0.5382
0.538123
0.538069
0.538019
0.537972
0.537936
0.537938
0.537991
0.537986
0.53794
0.537886
0.53782
0.537735
0.537668
0.537615
0.537565
0.537515
0.537465
0.537416
0.537368
0.537319
0.53727
0.537222
0.537179
0.537154
0.537177
0.537183
0.53714
0.537087
0.537022
0.536927
0.536836
0.536778
0.536728
0.53668
0.53664
0.53663
0.536668
0.536661
0.536614
0.53656
0.53649
0.536393
0.536317
0.536263
0.536213
0.536167
0.536129
0.536128
0.536153
0.536124
0.536073
0.536015
0.535941
0.53587
0.535817
0.535767
0.535722
0.535689
0.535699
0.535707
0.535667
0.535614
0.535552
0.535465
0.53538
0.535323
0.535273
0.535223
0.535173
0.535123
0.535075
0.535032
0.535007
0.535032
0.535047
0.535009
0.534957
0.534896
0.534814
0.534736
0.534681
0.534631
0.534582
0.53454
0.53452
0.534532
0.534503
0.534453
0.534397
0.53433
0.534271
0.53422
0.534171
0.534128
0.534105
0.5341
0.53406
0.534009
0.533953
0.533892
0.533839
0.53379
0.533745
0.533712
0.533707
0.533675
0.533625
0.533569
0.533498
0.533419
0.533362
0.533312
0.533262
0.533215
0.533174
0.533158
0.533191
0.53319
0.533145
0.533092
0.533029
0.532948
0.532882
0.53283
0.532781
0.532734
0.532694
0.53268
0.532663
0.532617
0.532566
0.532511
0.532458
0.532408
0.532361
0.532321
0.53231
0.532299
0.532254
0.532202
0.53214
0.532063
0.531998
0.531947
0.531897
0.531847
0.531799
0.531753
0.531715
0.531712
0.531733
0.531704
0.531654
0.531598
0.531526
0.531455
0.531402
0.531352
0.531306
0.53127
0.53127
0.53129
0.531258
0.531208
0.531151
0.531075
0.53099
0.530931
0.530881
0.530831
0.530782
0.530733
0.530683
0.530636
0.530594
0.53057
0.530595
0.530609
0.530571
0.530519
0.530461
0.530385
0.530316
0.530263
0.530213
0.530164
0.530117
0.530071
0.530022
0.529973
0.529923
0.529872
0.529823
0.529774
0.529729
0.529692
0.529692
0.52973
0.529712
0.529665
0.52961
0.529539
0.529438
0.529359
0.529306
0.529257
0.52921
0.529171
0.529162
0.529196
0.529184
0.529137
0.529084
0.529017
0.528933
0.52887
0.528819
0.528771
0.528726
0.528696
0.528705
0.528698
0.528653
0.5286
0.528535
0.52844
0.528356
0.5283
0.528251
0.528202
0.528158
0.528123
0.52813
0.528191
0.528194
0.528151
0.5281
0.52804
0.527958
0.527872
0.527815
0.527764
0.527715
0.527665
0.527615
0.527563
0.527504
0.527447
0.527397
0.527348
0.5273
0.527256
0.527224
0.527236
0.527297
0.527293
0.527248
0.527196
0.527134
0.527046
0.526964
0.526908
0.526859
0.52681
0.526763
0.526717
0.526671
0.526622
0.526573
0.526524
0.526475
0.526427
0.526379
0.526335
0.526304
0.526318
0.526359
0.526336
0.526288
0.526234
0.526163
0.52606
0.525979
0.525925
0.525877
0.525829
0.525786
0.525758
0.525773
0.525776
0.525735
0.525684
0.525625
0.525552
0.52549
0.52544
0.525392
0.525347
0.525314
0.525309
0.525283
0.525235
0.525184
0.525123
0.525063
0.525013
0.524965
0.524921
0.524889
0.52489
0.524867
0.52482
0.524767
0.524705
0.524643
0.524593
0.524545
0.524501
0.524469
0.524469
0.524445
0.524398
0.524345
0.524282
0.524218
0.524167
0.524118
0.524073
0.524038
0.524033
0.524014
0.523967
0.523915
0.523852
0.52377
0.523705
0.523654
0.523606
0.523558
0.523514
0.523481
0.523487
0.52352
0.523495
0.523447
0.523394
0.523328
0.523255
0.523199
0.523151
0.523103
0.523061
0.523036
0.523036
0.523003
0.522954
0.522899
0.522825
0.522735
0.522673
0.522623
0.522574
0.522528
0.522488
0.522472
0.522508
0.52252
0.522481
0.522431
0.522374
0.522293
0.522203
0.522144
0.522095
0.522047
0.522003
0.521969
0.521971
0.521984
0.521949
0.521899
0.521844
0.521772
0.521702
0.52165
0.521602
0.521557
0.521518
0.52151
0.521523
0.52149
0.521441
0.521386
0.521313
0.52122
0.521156
0.521106
0.521058
0.52101
0.520963
0.520921
0.520895
0.520916
0.520935
0.5209
0.520851
0.520796
0.520723
0.52064
0.520582
0.520533
0.520486
0.520441
0.520405
0.520402
0.520411
0.520375
0.520326
0.520273
0.520216
0.520166
0.520118
0.520071
0.520029
0.519988
0.519942
0.519893
0.519842
0.519783
0.519711
0.519654
0.519605
0.519557
0.519512
0.519476
0.519471
0.519517
0.519519
0.519477
0.519427
0.519368
0.519284
0.519197
0.519141
0.519093
0.519046
0.519003
0.518975
0.518991
0.519013
0.51898
0.518932
0.518877
0.518803
0.518698
0.518621
0.518569
0.518521
0.518473
0.518425
0.518378
0.518331
0.518287
0.518251
0.518249
0.518291
0.518282
0.518237
0.518186
0.518126
0.518038
0.517956
0.517902
0.517854
0.517808
0.517766
0.517743
0.51777
0.517795
0.517762
0.517713
0.517659
0.517587
0.517485
0.517411
0.517359
0.517311
0.517264
0.517216
0.517169
0.517121
0.517074
0.51703
0.516994
0.516989
0.517024
0.51701
0.516964
0.516914
0.516853
0.516768
0.516696
0.516644
0.516596
0.51655
0.516509
0.516485
0.516499
0.516485
0.51644
0.51639
0.51633
0.516257
0.516199
0.51615
0.516103
0.51606
0.516029
0.516036
0.516037
0.515996
0.515947
0.515891
0.515817
0.515743
0.515689
0.515641
0.515594
0.515547
0.515499
0.515452
0.515406
0.515364
0.515335
0.515349
0.515367
0.515332
0.515284
0.51523
0.51516
0.515061
0.514989
0.514938
0.51489
0.514843
0.514797
0.514754
0.514723
0.514732
0.51476
0.514732
0.514685
0.514633
0.514569
0.51449
0.514431
0.514382
0.514335
0.514291
0.514254
0.514247
0.514266
0.514239
0.514192
0.514141
0.514079
0.514004
0.513946
0.513897
0.513849
0.513802
0.513754
0.513705
0.513654
0.513601
0.513552
0.513505
0.513458
0.513412
0.51337
0.513343
0.513361
0.513394
0.513366
0.513319
0.513268
0.513203
0.513112
0.513038
0.512987
0.512939
0.512893
0.512849
0.512814
0.512811
0.512815
0.512778
0.51273
0.512678
0.512619
0.512568
0.51252
0.512474
0.512431
0.512399
0.512366
0.512322
0.512275
0.512226
0.512174
0.512124
0.512077
0.51203
0.511988
0.511956
0.511958
0.511945
0.511901
0.511853
0.511798
0.511734
0.511678
0.51163
0.511583
0.511537
0.51149
0.511443
0.511396
0.51135
0.511305
0.511267
0.511251
0.51126
0.511231
0.511185
0.511135
0.511076
0.511007
0.510952
0.510904
0.510858
0.510814
0.510777
0.51077
0.510769
0.510731
0.510683
0.510632
0.510574
0.510524
0.510477
0.510433
0.510394
0.510378
0.510362
0.51032
0.510271
0.510216
0.510138
0.510035
0.509968
0.509919
0.509872
0.509825
0.50978
0.509738
0.50971
0.509728
0.509798
0.5098
0.509759
0.509711
0.509656
0.50958
0.509468
0.50939
0.509338
0.509292
0.509245
0.509201
0.509163
0.50915
0.509175
0.509158
0.509114
0.509064
0.509007
0.508931
0.508867
0.508817
0.508771
0.508726
0.508685
0.508661
0.508665
0.508639
0.508593
0.508543
0.508486
0.508425
0.508375
0.508328
0.508283
0.508243
0.508221
0.508231
0.508209
0.508164
0.508116
0.508062
0.508
0.507942
0.507892
0.507845
0.507796
0.507746
0.507687
0.507622
0.507569
0.507522
0.507476
0.507431
0.507389
0.507358
0.507366
0.507413
0.5074
0.507356
0.507307
0.507249
0.507166
0.507071
0.507012
0.506964
0.506918
0.506874
0.506835
0.506817
0.506842
0.506835
0.506793
0.506745
0.50669
0.506618
0.506551
0.506501
0.506455
0.50641
0.50637
0.506347
0.506363
0.506349
0.506305
0.506256
0.5062
0.506119
0.506031
0.505975
0.505927
0.505881
0.505835
0.505789
0.505744
0.505703
0.505674
0.505686
0.505711
0.505681
0.505635
0.505585
0.505523
0.505437
0.505368
0.505318
0.505272
0.505226
0.505185
0.505156
0.505165
0.505166
0.505127
0.505079
0.505027
0.504958
0.504884
0.504832
0.504785
0.50474
0.504697
0.504662
0.504659
0.50466
0.504623
0.504576
0.504526
0.504468
0.504412
0.504365
0.504319
0.504273
0.504229
0.504187
0.504143
0.504098
0.504052
0.504006
0.50396
0.503915
0.503872
0.503836
0.503829
0.503839
0.503807
0.50376
0.50371
0.503648
0.503564
0.503501
0.503452
0.503407
0.503362
0.503323
0.503303
0.50332
0.503307
0.503264
0.503216
0.503163
0.503099
0.503045
0.502999
0.502954
0.502912
0.502879
0.502878
0.502865
0.502822
0.502775
0.50272
0.502643
0.502547
0.502486
0.502438
0.502392
0.502347
0.502302
0.502259
0.502223
0.502214
0.502255
0.502259
0.502219
0.502173
0.502121
0.502053
0.501962
0.501897
0.501848
0.501803
0.501758
0.501716
0.501682
0.501681
0.501698
0.501669
0.501623
0.501575
0.501522
0.501471
0.501425
0.50138
0.501336
0.501296
0.501255
0.50121
0.501164
0.501116
0.501061
0.500988
0.500924
0.500875
0.50083
0.500785
0.500743
0.500709
0.500709
0.500749
0.500738
0.500695
0.500648
0.500595
0.500521
0.500435
0.500379
0.500332
0.500287
0.500242
0.500201
0.500173
0.50018
0.500172
0.50013
0.500084
0.500033
0.499972
0.499917
0.499871
0.499825
0.499782
0.499743
0.499725
0.499716
0.499678
0.499633
0.499585
0.499531
0.499472
0.499422
0.499377
0.499331
0.499286
0.499241
0.499196
0.499151
0.499106
0.499061
0.499017
0.498975
0.49894
0.49893
0.498941
0.498913
0.498868
0.49882
0.498764
0.49869
0.498622
0.498573
0.498527
0.498482
0.498437
0.498392
0.498348
0.498308
0.498278
0.498286
0.498306
0.498276
0.498231
0.498184
0.49813
0.498064
0.498005
0.497958
0.497912
0.497866
0.497821
0.497774
0.497724
0.497673
0.497627
0.497581
0.497536
0.497492
0.49745
0.497414
0.497406
0.497427
0.497405
0.497361
0.497313
0.497258
0.497181
0.497106
0.497055
0.497009
0.496965
0.496923
0.496889
0.496887
0.496898
0.496865
0.49682
0.496772
0.496713
0.496636
0.496576
0.496529
0.496484
0.49644
0.496401
0.496377
0.496386
0.496368
0.496325
0.496278
0.496226
0.49616
0.4961
0.496053
0.496009
0.495965
0.495925
0.4959
0.495904
0.495882
0.495838
0.495792
0.495742
0.49569
0.495644
0.4956
0.495556
0.495518
0.495486
0.495446
0.495401
0.495356
0.495305
0.49524
0.495154
0.495091
0.495044
0.494999
0.494955
0.494914
0.494884
0.494891
0.494949
0.494949
0.49491
0.494864
0.494814
0.494749
0.49465
0.49457
0.494519
0.494473
0.494429
0.494386
0.494348
0.494329
0.494353
0.49435
0.49431
0.494265
0.494215
0.494152
0.494073
0.494017
0.493971
0.493926
0.493883
0.493842
0.493813
0.493819
0.493813
0.493773
0.493728
0.49368
0.493621
0.493556
0.493505
0.49346
0.493416
0.493371
0.493327
0.493284
0.493244
0.493216
0.493192
0.493152
0.493108
0.493063
0.493018
0.492972
0.492928
0.492884
0.49284
0.492798
0.492763
0.492739
0.492703
0.492659
0.492614
0.492569
0.49252
0.492471
0.492427
0.492382
0.492339
0.492299
0.492273
0.492277
0.492259
0.492216
0.492171
0.49212
0.492057
0.491996
0.491949
0.491904
0.491861
0.491821
0.491791
0.491792
0.491776
0.491735
0.49169
0.491641
0.491582
0.491529
0.491483
0.491439
0.491397
0.491358
0.491336
0.491317
0.491278
0.491233
0.491188
0.491138
0.491086
0.491039
0.490995
0.490951
0.490908
0.490865
0.490822
0.490777
0.490732
0.490685
0.490631
0.490581
0.490536
0.490492
0.49045
0.490414
0.4904
0.490432
0.490431
0.490393
0.490348
0.490298
0.490235
0.490142
0.490072
0.490023
0.489979
0.489935
0.489894
0.48986
0.489854
0.489876
0.489852
0.48981
0.489764
0.489712
0.489646
0.489583
0.489536
0.489492
0.489449
0.489409
0.489378
0.489378
0.489371
0.489332
0.489287
0.489238
0.489177
0.489091
0.489025
0.488977
0.488933
0.488889
0.488847
0.488808
0.488782
0.488791
0.488782
0.488742
0.488698
0.48865
0.488591
0.48853
0.488482
0.488438
0.488394
0.488354
0.488322
0.488321
0.488321
0.488284
0.488239
0.488191
0.488132
0.488051
0.487988
0.487941
0.487898
0.487855
0.487815
0.487787
0.487796
0.487799
0.487763
0.487719
0.487671
0.487614
0.487537
0.487476
0.48743
0.487386
0.487343
0.487303
0.487272
0.487272
0.487271
0.487234
0.48719
0.487143
0.487088
0.487027
0.486979
0.486935
0.486892
0.486851
0.486819
0.486816
0.48683
0.4868
0.486757
0.48671
0.486656
0.486576
0.486468
0.486401
0.486354
0.48631
0.486266
0.486222
0.486179
0.486136
0.486093
0.486054
0.486024
0.486031
0.486075
0.486063
0.486022
0.485977
0.485929
0.485867
0.485777
0.485708
0.48566
0.485616
0.485573
0.485531
0.485494
0.485477
0.485493
0.485475
0.485434
0.485389
0.485341
0.48528
0.48521
0.48516
0.485116
0.485072
0.48503
0.484992
0.484969
0.484967
0.484936
0.484893
0.484849
0.4848
0.484742
0.484689
0.484645
0.484601
0.484559
0.484519
0.484491
0.484481
0.484451
0.484408
0.484364
0.484319
0.48427
0.484219
0.484173
0.484129
0.484086
0.484043
0.483999
0.483956
0.483913
0.48387
0.48383
0.483798
0.483791
0.483776
0.483736
0.483693
0.483648
0.4836
0.483545
0.483495
0.483451
0.483408
0.483365
0.483324
0.483288
0.48327
0.483252
0.483213
0.48317
0.483125
0.483075
0.483009
0.482938
0.482888
0.482844
0.482801
0.482758
0.482716
0.482676
0.482644
0.48264
0.482653
0.482623
0.48258
0.482536
0.482486
0.482424
0.482364
0.482318
0.482275
0.482232
0.482191
0.482157
0.482146
0.482138
0.4821
0.482057
0.482012
0.48196
0.481896
0.481843
0.481799
0.481756
0.481714
0.481676
0.48165
0.481643
0.481614
0.481571
0.481528
0.481481
0.481425
0.481372
0.481327
0.481284
0.481241
0.481201
0.481169
0.48116
0.481141
0.481101
0.481058
0.481015
0.480972
0.480929
0.480887
0.480848
0.480817
0.480789
0.480749
0.480706
0.480662
0.480615
0.480555
0.480468
0.480396
0.480348
0.480305
0.480262
0.480219
0.480177
0.480138
0.480108
0.480112
0.480162
0.480159
0.480121
0.480078
0.480032
0.479978
0.479898
0.479804
0.479748
0.479704
0.479661
0.479619
0.479579
0.479547
0.479544
0.479566
0.479543
0.479501
0.479458
0.479411
0.479353
0.47929
0.479243
0.4792
0.479158
0.479116
0.479079
0.479047
0.479008
0.478966
0.478923
0.478877
0.478824
0.478752
0.478687
0.478641
0.478598
0.478556
0.478516
0.478484
0.47848
0.478522
0.478517
0.478479
0.478436
0.478391
0.478336
0.478256
0.478172
0.47812
0.478077
0.478034
0.477992
0.477954
0.477925
0.47793
0.477949
0.47792
0.477878
0.477835
0.477789
0.477735
0.477672
0.477624
0.47758
0.477537
0.477495
0.477452
0.477409
0.477366
0.477321
0.477271
0.477213
0.477164
0.477121
0.477079
0.477037
0.476996
0.476961
0.476945
0.476967
0.476959
0.476921
0.476878
0.476833
0.47678
0.476706
0.476638
0.47659
0.476547
0.476505
0.476464
0.476426
0.476402
0.476406
0.476385
0.476344
0.476301
0.476256
0.476204
0.476146
0.476099
0.476056
0.476014
0.475973
0.475935
0.475907
0.475901
0.475875
0.475834
0.475792
0.475749
0.475707
0.475665
0.475623
0.475581
0.475539
0.475497
0.475454
0.475409
0.475359
0.475292
0.47521
0.475156
0.475112
0.47507
0.475028
0.474988
0.474953
0.47494
0.47498
0.47501
0.474983
0.474941
0.474898
0.474851
0.47479
0.474694
0.474606
0.474554
0.474511
0.474469
0.474427
0.474387
0.474352
0.474337
0.474354
0.474336
0.474296
0.474253
0.47421
0.474161
0.474107
0.474062
0.47402
0.473978
0.473936
0.473896
0.473858
0.473821
0.47378
0.473738
0.473696
0.473654
0.473612
0.47357
0.473529
0.473492
0.473466
0.47345
0.473415
0.473373
0.473331
0.473287
0.47324
0.473187
0.473142
0.473099
0.473058
0.473017
0.472981
0.47296
0.472958
0.472929
0.472887
0.472845
0.472801
0.47275
0.472688
0.472636
0.472592
0.47255
0.472508
0.472466
0.472425
0.472383
0.472341
0.472301
0.472263
0.472235
0.47222
0.472187
0.472146
0.472104
0.472062
0.472017
0.471969
0.471925
0.471883
0.471841
0.4718
0.471761
0.471728
0.471714
0.471691
0.471652
0.471611
0.471569
0.471526
0.471484
0.471442
0.4714
0.47136
0.471322
0.47129
0.471253
0.471212
0.47117
0.471128
0.471083
0.471029
0.470962
0.470909
0.470866
0.470824
0.470783
0.470741
0.470702
0.470669
0.470659
0.470678
0.470658
0.470618
0.470577
0.470533
0.470484
0.470421
0.470366
0.470323
0.470281
0.47024
0.470199
0.470161
0.470133
0.470112
0.470075
0.470034
0.469993
0.469951
0.469908
0.469864
0.469818
0.469776
0.469734
0.469692
0.469651
0.469609
0.469568
0.469527
0.469485
0.469445
0.469407
0.469377
0.469379
0.469396
0.46937
0.469329
0.469287
0.469243
0.469193
0.469122
0.469017
0.468945
0.468899
0.468856
0.468815
0.468773
0.468732
0.468691
0.46865
0.468611
0.468578
0.468567
0.468598
0.468596
0.46856
0.468518
0.468476
0.46843
0.468371