/*--------------------------------*- C++ -*----------------------------------*\
  =========                 |
  \\      /  F ield         | OpenFOAM: The Open Source CFD Toolbox
   \\    /   O peration     | Website:  https://openfoam.org
    \\  /    A nd           | Version:  9
     \\/     M anipulation  |
\*---------------------------------------------------------------------------*/
FoamFile
{
    format      ascii;
    class       volScalarField;
    location    "0.032";
    object      T;
}
// * * * * * * * * * * * * * * * * * * * * * * * * * * * * * * * * * * * * * //

dimensions      [0 0 0 1 0 0 0];

internalField   nonuniform List<scalar> 
10000
(
286.307
286.293
286.285
286.275
286.266
286.257
286.248
286.239
286.23
286.221
286.212
286.203
286.194
286.185
286.176
286.167
286.158
286.149
286.14
286.131
286.122
286.113
286.104
286.095
286.086
286.077
286.068
286.059
286.05
286.041
286.032
286.023
286.014
286.005
285.996
285.987
285.978
285.969
285.96
285.951
285.942
285.933
285.924
285.915
285.906
285.897
285.887
285.878
285.869
285.86
285.851
285.842
285.833
285.824
285.815
285.806
285.797
285.788
285.779
285.77
285.761
285.752
285.743
285.734
285.725
285.716
285.707
285.698
285.689
285.68
285.671
285.662
285.653
285.644
285.635
285.626
285.617
285.608
285.599
285.59
285.581
285.572
285.563
285.554
285.545
285.536
285.527
285.518
285.509
285.5
285.491
285.482
285.473
285.464
285.455
285.446
285.437
285.427
285.418
285.409
285.4
285.391
285.383
285.374
285.365
285.355
285.346
285.337
285.328
285.319
285.31
285.301
285.292
285.283
285.274
285.265
285.256
285.247
285.239
285.229
285.22
285.211
285.202
285.193
285.184
285.175
285.166
285.157
285.148
285.139
285.13
285.121
285.112
285.103
285.094
285.085
285.076
285.067
285.058
285.049
285.04
285.031
285.022
285.013
285.004
284.995
284.986
284.977
284.968
284.959
284.95
284.94
284.932
284.923
284.915
284.906
284.896
284.887
284.877
284.868
284.86
284.851
284.842
284.833
284.824
284.814
284.805
284.797
284.788
284.78
284.77
284.761
284.751
284.742
284.734
284.725
284.717
284.708
284.698
284.689
284.679
284.67
284.661
284.653
284.645
284.637
284.627
284.617
284.607
284.597
284.59
284.584
284.575
284.565
284.554
284.543
284.533
284.527
284.523
284.514
284.502
284.491
284.48
284.469
284.46
284.456
284.452
284.442
284.431
284.418
284.407
284.396
284.387
284.383
284.381
284.371
284.36
284.347
284.335
284.324
284.315
284.309
284.308
284.3
284.288
284.276
284.264
284.253
284.243
284.236
284.234
284.227
284.215
284.203
284.192
284.181
284.173
284.17
284.163
284.152
284.14
284.129
284.119
284.111
284.108
284.101
284.09
284.078
284.067
284.056
284.046
284.042
284.038
284.028
284.016
284.004
283.993
283.983
283.977
283.974
283.966
283.955
283.942
283.931
283.92
283.91
283.905
283.903
283.894
283.882
283.87
283.859
283.848
283.84
283.838
283.832
283.821
283.809
283.797
283.786
283.776
283.769
283.768
283.761
283.749
283.737
283.725
283.713
283.703
283.697
283.696
283.688
283.677
283.664
283.652
283.641
283.631
283.624
283.625
283.617
283.606
283.593
283.579
283.568
283.557
283.548
283.544
283.547
283.541
283.53
283.517
283.502
283.49
283.479
283.469
283.463
283.463
283.456
283.445
283.432
283.419
283.408
283.398
283.39
283.389
283.383
283.372
283.36
283.347
283.335
283.324
283.314
283.306
283.306
283.307
283.297
283.286
283.273
283.261
283.25
283.239
283.228
283.217
283.209
283.209
283.205
283.194
283.181
283.168
283.156
283.146
283.137
283.137
283.133
283.122
283.109
283.095
283.084
283.073
283.065
283.064
283.062
283.051
283.039
283.024
283.011
283
282.991
282.987
282.989
282.983
282.971
282.958
282.943
282.931
282.921
282.912
282.911
282.909
282.899
282.886
282.874
282.862
282.852
282.844
282.841
282.833
282.822
282.81
282.798
282.787
282.777
282.772
282.772
282.765
282.753
282.74
282.726
282.714
282.704
282.697
282.698
282.694
282.683
282.67
282.656
282.644
282.633
282.625
282.623
282.622
282.612
282.6
282.587
282.576
282.566
282.557
282.552
282.543
282.532
282.521
282.511
282.501
282.496
282.492
282.482
282.47
282.458
282.447
282.436
282.428
282.427
282.425
282.415
282.403
282.39
282.378
282.367
282.358
282.354
282.35
282.34
282.328
282.316
282.304
282.294
282.286
282.285
282.281
282.27
282.258
282.246
282.235
282.224
282.213
282.203
282.193
282.186
282.183
282.181
282.172
282.16
282.148
282.135
282.124
282.113
282.104
282.103
282.101
282.092
282.08
282.067
282.056
282.045
282.037
282.033
282.026
282.015
282.004
281.993
281.982
281.974
281.972
281.965
281.954
281.943
281.932
281.921
281.91
281.9
281.89
281.88
281.87
281.863
281.864
281.859
281.848
281.835
281.821
281.809
281.799
281.79
281.788
281.786
281.776
281.764
281.749
281.737
281.726
281.716
281.712
281.717
281.714
281.703
281.69
281.673
281.658
281.647
281.636
281.628
281.627
281.629
281.621
281.61
281.597
281.584
281.573
281.562
281.551
281.542
281.534
281.526
281.518
281.512
281.506
281.496
281.485
281.474
281.462
281.451
281.441
281.433
281.432
281.429
281.418
281.406
281.392
281.38
281.37
281.361
281.359
281.357
281.347
281.335
281.321
281.309
281.298
281.289
281.286
281.284
281.274
281.263
281.249
281.236
281.226
281.217
281.213
281.218
281.212
281.201
281.187
281.169
281.154
281.142
281.132
281.123
281.122
281.126
281.119
281.108
281.094
281.078
281.066
281.055
281.045
281.041
281.044
281.039
281.028
281.015
281
280.989
280.978
280.969
280.966
280.964
280.955
280.944
280.931
280.92
280.909
280.899
280.89
280.88
280.87
280.86
280.85
280.845
280.847
280.84
280.829
280.816
280.804
280.793
280.783
280.775
280.769
280.76
280.749
280.739
280.728
280.718
280.713
280.708
280.698
280.687
280.675
280.664
280.654
280.645
280.644
280.646
280.638
280.627
280.613
280.596
280.583
280.572
280.561
280.55
280.54
280.53
280.525
280.531
280.536
280.528
280.517
280.502
280.483
280.467
280.456
280.445
280.436
280.431
280.434
280.43
280.419
280.407
280.391
280.379
280.368
280.358
280.352
280.354
280.349
280.338
280.325
280.312
280.301
280.291
280.282
280.278
280.27
280.259
280.248
280.237
280.226
280.217
280.214
280.21
280.2
280.188
280.176
280.165
280.154
280.145
280.143
280.139
280.129
280.118
280.105
280.094
280.083
280.075
280.073
280.069
280.058
280.046
280.033
280.021
280.011
280.002
280
279.999
279.99
279.979
279.964
279.952
279.941
279.931
279.925
279.927
279.922
279.911
279.898
279.881
279.867
279.856
279.845
279.837
279.838
279.841
279.834
279.823
279.808
279.791
279.777
279.766
279.756
279.748
279.748
279.75
279.742
279.73
279.716
279.701
279.69
279.679
279.67
279.667
279.667
279.658
279.646
279.633
279.621
279.61
279.6
279.595
279.596
279.588
279.577
279.563
279.55
279.539
279.528
279.52
279.52
279.516
279.506
279.494
279.479
279.467
279.456
279.447
279.442
279.445
279.439
279.428
279.415
279.4
279.387
279.376
279.367
279.36
279.361
279.355
279.345
279.332
279.319
279.308
279.298
279.291
279.29
279.283
279.273
279.26
279.246
279.235
279.224
279.216
279.214
279.216
279.208
279.196
279.181
279.164
279.152
279.141
279.132
279.127
279.133
279.134
279.124
279.112
279.096
279.076
279.063
279.052
279.042
279.034
279.033
279.038
279.031
279.019
279.006
278.989
278.977
278.966
278.956
278.949
278.95
278.947
278.937
278.925
278.911
278.898
278.888
278.878
278.872
278.873
278.867
278.856
278.843
278.831
278.82
278.81
278.803
278.803
278.798
278.788
278.775
278.757
278.739
278.728
278.717
278.707
278.7
278.703
278.711
278.706
278.695
278.682
278.664
278.647
278.635
278.625
278.615
278.608
278.611
278.609
278.599
278.588
278.573
278.56
278.549
278.539
278.531
278.53
278.526
278.515
278.504
278.492
278.481
278.471
278.464
278.463
278.455
278.444
278.432
278.418
278.406
278.396
278.387
278.385
278.388
278.381
278.369
278.356
278.337
278.322
278.311
278.301
278.292
278.289
278.296
278.293
278.282
278.27
278.254
278.238
278.227
278.216
278.207
278.202
278.204
278.198
278.188
278.175
278.161
278.15
278.139
278.13
278.125
278.125
278.116
278.105
278.093
278.081
278.071
278.062
278.059
278.059
278.051
278.039
278.025
278.006
277.992
277.98
277.97
277.959
277.95
277.946
277.953
277.957
277.949
277.938
277.924
277.906
277.891
277.88
277.87
277.86
277.855
277.857
277.852
277.841
277.828
277.814
277.802
277.791
277.782
277.777
277.778
277.771
277.76
277.748
277.734
277.723
277.713
277.705
277.704
277.706
277.698
277.687
277.674
277.655
277.641
277.63
277.619
277.608
277.598
277.588
277.58
277.579
277.586
277.582
277.571
277.559
277.543
277.528
277.517
277.507
277.497
277.492
277.496
277.492
277.481
277.469
277.453
277.437
277.425
277.415
277.404
277.394
277.383
277.373
277.366
277.367
277.376
277.373
277.362
277.35
277.335
277.321
277.31
277.299
277.289
277.279
277.27
277.259
277.249
277.238
277.228
277.218
277.212
277.214
277.212
277.202
277.191
277.176
277.161
277.15
277.139
277.13
277.126
277.128
277.122
277.111
277.099
277.086
277.075
277.065
277.057
277.053
277.047
277.037
277.025
277.011
276.998
276.987
276.978
276.971
276.975
276.98
276.973
276.962
276.948
276.928
276.91
276.898
276.888
276.878
276.871
276.872
276.876
276.869
276.858
276.845
276.829
276.816
276.806
276.796
276.789
276.79
276.79
276.781
276.77
276.755
276.737
276.722
276.711
276.701
276.69
276.68
276.671
276.666
276.672
276.679
276.672
276.661
276.648
276.63
276.613
276.602
276.591
276.58
276.57
276.559
276.549
276.54
276.534
276.538
276.544
276.538
276.527
276.514
276.496
276.477
276.465
276.454
276.444
276.436
276.435
276.443
276.441
276.431
276.419
276.402
276.379
276.363
276.352
276.341
276.332
276.326
276.33
276.338
276.333
276.323
276.31
276.292
276.272
276.259
276.248
276.238
276.23
276.229
276.237
276.235
276.226
276.214
276.198
276.18
276.167
276.156
276.146
276.137
276.134
276.138
276.135
276.124
276.113
276.098
276.083
276.071
276.061
276.05
276.039
276.028
276.017
276.007
275.997
275.987
275.982
275.987
275.992
275.985
275.974
275.961
275.943
275.927
275.915
275.905
275.895
275.888
275.89
275.889
275.88
275.869
275.855
275.841
275.829
275.819
275.81
275.804
275.806
275.8
275.789
275.778
275.765
275.754
275.744
275.735
275.732
275.727
275.717
275.706
275.693
275.68
275.67
275.66
275.653
275.655
275.659
275.651
275.64
275.627
275.606
275.585
275.572
275.561
275.551
275.541
275.532
275.526
275.53
275.542
275.54
275.529
275.518
275.502
275.48
275.464
275.452
275.442
275.432
275.424
275.423
275.428
275.423
275.413
275.401
275.386
275.374
275.363
275.353
275.344
275.338
275.332
275.322
275.312
275.301
275.29
275.281
275.272
275.269
275.265
275.255
275.244
275.232
275.221
275.21
275.2
275.193
275.192
275.187
275.177
275.165
275.152
275.14
275.129
275.12
275.112
275.112
275.108
275.098
275.086
275.074
275.062
275.052
275.043
275.037
275.037
275.031
275.021
275.009
274.997
274.986
274.975
274.965
274.954
274.944
274.933
274.923
274.913
274.902
274.894
274.889
274.895
274.896
274.887
274.876
274.862
274.842
274.826
274.815
274.805
274.795
274.789
274.792
274.794
274.786
274.775
274.761
274.745
274.732
274.721
274.711
274.702
274.699
274.703
274.698
274.688
274.676
274.663
274.651
274.64
274.63
274.62
274.609
274.598
274.587
274.575
274.565
274.554
274.545
274.54
274.545
274.55
274.543
274.532
274.52
274.502
274.485
274.474
274.463
274.454
274.446
274.446
274.445
274.435
274.424
274.41
274.393
274.38
274.37
274.36
274.353
274.354
274.361
274.355
274.344
274.332
274.314
274.297
274.286
274.275
274.266
274.258
274.26
274.264
274.257
274.246
274.234
274.216
274.201
274.19
274.18
274.17
274.163
274.165
274.164
274.154
274.143
274.13
274.116
274.105
274.094
274.085
274.079
274.081
274.077
274.067
274.056
274.042
274.029
274.019
274.008
273.998
273.99
273.982
273.972
273.962
273.952
273.943
273.937
273.939
273.934
273.924
273.913
273.9
273.888
273.878
273.868
273.859
273.854
273.846
273.836
273.825
273.815
273.805
273.796
273.789
273.781
273.77
273.76
273.75
273.739
273.729
273.721
273.718
273.72
273.713
273.702
273.69
273.678
273.668
273.658
273.649
273.643
273.639
273.629
273.619
273.608
273.598
273.587
273.577
273.566
273.556
273.545
273.534
273.524
273.514
273.505
273.499
273.505
273.512
273.506
273.495
273.483
273.465
273.439
273.422
273.41
273.4
273.39
273.38
273.373
273.373
273.386
273.39
273.382
273.371
273.358
273.338
273.316
273.303
273.292
273.282
273.273
273.266
273.267
273.272
273.265
273.254
273.242
273.226
273.212
273.201
273.19
273.181
273.175
273.178
273.18
273.172
273.161
273.149
273.133
273.12
273.109
273.099
273.089
273.078
273.068
273.058
273.048
273.039
273.032
273.035
273.038
273.031
273.02
273.008
272.991
272.974
272.962
272.952
272.942
272.934
272.93
272.93
272.922
272.911
272.899
272.885
272.874
272.864
272.855
272.849
272.853
272.853
272.844
272.833
272.819
272.801
272.788
272.778
272.768
272.759
272.757
272.761
272.756
272.746
272.734
272.717
272.695
272.68
272.669
272.659
272.649
272.641
272.638
272.648
272.657
272.651
272.641
272.629
272.612
272.591
272.577
272.566
272.556
272.546
272.537
272.532
272.533
272.526
272.515
272.504
272.491
272.479
272.469
272.46
272.452
272.451
272.447
272.437
272.426
272.413
272.4
272.389
272.379
272.371
272.367
272.369
272.363
272.353
272.341
272.326
272.313
272.302
272.292
272.283
272.279
272.284
272.284
272.274
272.263
272.25
272.232
272.217
272.207
272.196
272.186
272.176
272.166
272.156
272.148
272.145
272.151
272.149
272.139
272.128
272.113
272.092
272.076
272.065
272.055
272.046
272.039
272.041
272.05
272.046
272.035
272.024
272.008
271.986
271.97
271.959
271.949
271.94
271.932
271.933
271.943
271.942
271.933
271.922
271.909
271.892
271.878
271.867
271.857
271.847
271.837
271.827
271.817
271.807
271.797
271.788
271.779
271.774
271.779
271.78
271.771
271.76
271.747
271.728
271.71
271.698
271.688
271.678
271.67
271.668
271.676
271.674
271.665
271.654
271.64
271.62
271.604
271.594
271.583
271.574
271.566
271.566
271.571
271.565
271.555
271.543
271.528
271.514
271.503
271.493
271.484
271.477
271.479
271.481
271.473
271.462
271.449
271.432
271.414
271.403
271.393
271.382
271.372
271.362
271.352
271.344
271.339
271.344
271.347
271.339
271.328
271.316
271.3
271.284
271.272
271.262
271.252
271.244
271.24
271.242
271.236
271.226
271.215
271.201
271.189
271.179
271.169
271.16
271.156
271.154
271.146
271.136
271.125
271.112
271.101
271.091
271.082
271.076
271.074
271.068
271.058
271.047
271.032
271.016
271.004
270.994
270.984
270.974
270.966
270.963
270.97
270.969
270.96
270.95
270.937
270.92
270.907
270.896
270.886
270.877
270.868
270.866
270.862
270.853
270.842
270.831
270.82
270.81
270.801
270.793
270.79
270.788
270.779
270.768
270.756
270.74
270.727
270.716
270.706
270.696
270.686
270.677
270.669
270.668
270.673
270.667
270.657
270.645
270.631
270.616
270.605
270.595
270.586
270.578
270.578
270.583
270.576
270.566
270.554
270.539
270.521
270.509
270.499
270.489
270.479
270.469
270.459
270.449
270.44
270.436
270.441
270.444
270.436
270.425
270.413
270.398
270.384
270.373
270.363
270.353
270.343
270.334
270.324
270.314
270.304
270.293
270.283
270.273
270.264
270.256
270.257
270.264
270.261
270.251
270.24
270.225
270.204
270.188
270.178
270.167
270.158
270.15
270.148
270.155
270.153
270.143
270.132
270.119
270.101
270.088
270.078
270.068
270.059
270.053
270.055
270.053
270.044
270.033
270.02
270.001
269.983
269.972
269.962
269.952
269.943
269.936
269.937
269.95
269.95
269.941
269.931
269.919
269.902
269.884
269.873
269.862
269.852
269.842
269.832
269.821
269.809
269.797
269.787
269.777
269.767
269.758
269.752
269.754
269.766
269.766
269.757
269.746
269.733
269.715
269.698
269.687
269.677
269.667
269.657
269.648
269.638
269.628
269.618
269.608
269.598
269.588
269.578
269.569
269.563
269.566
269.574
269.57
269.56
269.549
269.534
269.513
269.497
269.485
269.475
269.466
269.457
269.451
269.454
269.455
269.446
269.436
269.424
269.409
269.396
269.386
269.376
269.367
269.36
269.359
269.354
269.344
269.333
269.321
269.309
269.298
269.288
269.279
269.273
269.273
269.268
269.258
269.248
269.235
269.222
269.212
269.202
269.193
269.186
269.186
269.182
269.172
269.161
269.148
269.135
269.124
269.114
269.105
269.098
269.097
269.093
269.083
269.073
269.06
269.043
269.029
269.019
269.009
268.999
268.99
268.983
268.985
268.991
268.986
268.976
268.965
268.952
268.937
268.925
268.915
268.906
268.897
268.892
268.892
268.885
268.875
268.864
268.848
268.83
268.817
268.807
268.797
268.787
268.779
268.776
268.783
268.786
268.778
268.767
268.755
268.739
268.72
268.708
268.698
268.688
268.679
268.672
268.673
268.675
268.668
268.658
268.646
268.631
268.617
268.606
268.597
268.587
268.579
268.577
268.58
268.573
268.563
268.552
268.537
268.518
268.504
268.494
268.484
268.474
268.465
268.456
268.451
268.455
268.459
268.452
268.442
268.43
268.415
268.398
268.386
268.376
268.366
268.357
268.349
268.349
268.351
268.343
268.333
268.322
268.31
268.3
268.29
268.281
268.272
268.263
268.254
268.244
268.233
268.221
268.206
268.194
268.184
268.174
268.165
268.158
268.157
268.166
268.167
268.158
268.147
268.135
268.118
268.1
268.088
268.078
268.069
268.06
268.054
268.057
268.062
268.055
268.045
268.034
268.018
267.997
267.981
267.97
267.96
267.95
267.94
267.931
267.921
267.912
267.904
267.904
267.913
267.911
267.901
267.891
267.878
267.86
267.843
267.832
267.822
267.813
267.804
267.799
267.805
267.81
267.803
267.793
267.782
267.767
267.746
267.73
267.72
267.71
267.7
267.69
267.68
267.67
267.661
267.651
267.644
267.643
267.65
267.647
267.638
267.627
267.615
267.597
267.582
267.571
267.562
267.552
267.543
267.538
267.541
267.539
267.529
267.519
267.506
267.491
267.479
267.469
267.459
267.45
267.444
267.445
267.445
267.437
267.427
267.415
267.4
267.384
267.373
267.363
267.354
267.344
267.334
267.324
267.315
267.306
267.3
267.303
267.306
267.299
267.289
267.278
267.263
267.243
267.228
267.217
267.207
267.198
267.188
267.179
267.173
267.175
267.18
267.175
267.165
267.154
267.141
267.124
267.112
267.102
267.092
267.083
267.075
267.074
267.078
267.072
267.062
267.052
267.039
267.023
267.011
267.001
266.991
266.981
266.971
266.961
266.95
266.939
266.929
266.919
266.91
266.9
266.891
266.886
266.889
266.896
266.89
266.881
266.87
266.857
266.838
266.822
266.811
266.802
266.792
266.783
266.775
266.775
266.776
266.768
266.758
266.747
266.735
266.724
266.714
266.705
266.696
266.689
266.682
266.673
266.663
266.653
266.642
266.632
266.622
266.612
266.603
266.597
266.597
266.594
266.585
266.575
266.564
266.55
266.539
266.529
266.519
266.509
266.499
266.49
266.48
266.47
266.461
266.453
266.45
266.452
266.446
266.436
266.425
266.413
266.399
266.387
266.377
266.368
266.358
266.351
266.349
266.349
266.341
266.331
266.32
266.308
266.298
266.288
266.279
266.271
266.267
266.264
266.255
266.245
266.234
266.217
266.196
266.182
266.171
266.162
266.152
266.142
266.134
266.128
266.132
266.146
266.147
266.138
266.128
266.116
266.101
266.077
266.061
266.05
266.04
266.031
266.021
266.013
266.011
266.016
266.012
266.003
265.993
265.981
265.965
265.951
265.941
265.931
265.922
265.913
265.908
265.909
265.904
265.894
265.884
265.872
265.859
265.848
265.839
265.829
265.821
265.816
265.818
265.814
265.804
265.794
265.783
265.77
265.758
265.747
265.737
265.727
265.717
265.704
265.691
265.68
265.67
265.66
265.651
265.642
265.635
265.637
265.647
265.644
265.635
265.625
265.613
265.595
265.575
265.563
265.553
265.543
265.534
265.526
265.522
265.527
265.526
265.517
265.507
265.495
265.48
265.466
265.456
265.446
265.437
265.428
265.423
265.427
265.424
265.414
265.404
265.392
265.375
265.357
265.345
265.335
265.326
265.316
265.306
265.297
265.288
265.282
265.285
265.29
265.284
265.274
265.263
265.25
265.232
265.218
265.207
265.198
265.188
265.179
265.173
265.175
265.175
265.167
265.157
265.146
265.132
265.116
265.105
265.095
265.086
265.077
265.069
265.069
265.069
265.061
265.051
265.041
265.028
265.017
265.007
264.997
264.987
264.978
264.969
264.96
264.951
264.941
264.931
264.922
264.912
264.903
264.896
264.894
264.896
264.889
264.879
264.869
264.856
264.838
264.825
264.815
264.805
264.796
264.787
264.783
264.787
264.784
264.775
264.765
264.754
264.74
264.729
264.719
264.71
264.701
264.694
264.694
264.691
264.682
264.672
264.66
264.644
264.624
264.611
264.601
264.591
264.581
264.572
264.563
264.555
264.553
264.562
264.563
264.555
264.545
264.534
264.519
264.5
264.486
264.476
264.467
264.457
264.448
264.441
264.441
264.444
264.438
264.429
264.419
264.407
264.397
264.387
264.377
264.368
264.359
264.351
264.341
264.332
264.321
264.31
264.294
264.281
264.27
264.261
264.251
264.242
264.235
264.235
264.244
264.241
264.232
264.222
264.211
264.195
264.177
264.165
264.155
264.146
264.136
264.128
264.122
264.123
264.122
264.113
264.103
264.092
264.079
264.068
264.058
264.048
264.039
264.031
264.027
264.025
264.017
264.007
263.997
263.986
263.973
263.963
263.953
263.943
263.934
263.924
263.915
263.905
263.896
263.886
263.877
263.868
263.86
263.858
263.861
263.855
263.845
263.835
263.823
263.807
263.793
263.783
263.773
263.763
263.754
263.744
263.735
263.726
263.72
263.721
263.726
263.719
263.71
263.7
263.688
263.674
263.662
263.652
263.642
263.632
263.623
263.613
263.602
263.591
263.581
263.572
263.562
263.553
263.544
263.536
263.535
263.539
263.534
263.525
263.515
263.503
263.487
263.471
263.46
263.45
263.441
263.432
263.425
263.424
263.426
263.42
263.41
263.4
263.387
263.371
263.358
263.348
263.338
263.329
263.321
263.316
263.318
263.314
263.304
263.295
263.283
263.269
263.257
263.247
263.237
263.228
263.219
263.214
263.215
263.21
263.201
263.191
263.18
263.169
263.16
263.15
263.141
263.133
263.126
263.117
263.108
263.098
263.087
263.073
263.055
263.042
263.032
263.022
263.013
263.004
262.997
262.999
263.011
263.011
263.003
262.993
262.982
262.969
262.947
262.93
262.919
262.91
262.9
262.891
262.883
262.879
262.884
262.883
262.875
262.865
262.855
262.841
262.824
262.812
262.803
262.793
262.784
262.775
262.769
262.77
262.769
262.76
262.751
262.74
262.728
262.714
262.703
262.693
262.684
262.674
262.665
262.656
262.647
262.641
262.636
262.628
262.618
262.608
262.599
262.589
262.58
262.57
262.561
262.552
262.544
262.539
262.531
262.522
262.512
262.503
262.492
262.482
262.472
262.463
262.453
262.445
262.439
262.44
262.436
262.427
262.417
262.406
262.393
262.38
262.37
262.36
262.351
262.342
262.336
262.336
262.333
262.324
262.314
262.303
262.291
262.279
262.27
262.26
262.251
262.243
262.238
262.234
262.225
262.216
262.206
262.195
262.184
262.174
262.165
262.155
262.146
262.137
262.127
262.118
262.108
262.098
262.086
262.075
262.066
262.056
262.047
262.039
262.036
262.043
262.043
262.034
262.024
262.014
262
261.98
261.965
261.955
261.945
261.935
261.927
261.919
261.918
261.922
261.917
261.908
261.898
261.887
261.872
261.859
261.849
261.839
261.83
261.821
261.814
261.814
261.812
261.804
261.794
261.784
261.77
261.752
261.737
261.727
261.717
261.708
261.698
261.69
261.684
261.686
261.684
261.675
261.666
261.655
261.642
261.629
261.619
261.609
261.6
261.591
261.584
261.583
261.583
261.575
261.565
261.555
261.542
261.524
261.511
261.501
261.491
261.482
261.473
261.467
261.469
261.469
261.461
261.452
261.441
261.429
261.412
261.399
261.389
261.38
261.37
261.361
261.355
261.355
261.354
261.346
261.337
261.326
261.314
261.301
261.291
261.281
261.272
261.263
261.256
261.255
261.258
261.252
261.242
261.232
261.221
261.203
261.18
261.166
261.155
261.146
261.137
261.127
261.118
261.108
261.099
261.091
261.084
261.086
261.095
261.092
261.084
261.074
261.064
261.05
261.031
261.016
261.006
260.996
260.987
260.978
260.97
260.966
260.97
260.966
260.957
260.947
260.937
260.924
260.909
260.898
260.888
260.879
260.87
260.862
260.857
260.856
260.85
260.841
260.831
260.82
260.808
260.797
260.787
260.778
260.768
260.76
260.754
260.752
260.745
260.736
260.727
260.717
260.706
260.695
260.685
260.676
260.667
260.657
260.648
260.639
260.629
260.62
260.612
260.605
260.603
260.6
260.591
260.582
260.572
260.562
260.55
260.539
260.53
260.52
260.511
260.502
260.495
260.491
260.487
260.478
260.469
260.459
260.449
260.434
260.419
260.408
260.399
260.39
260.38
260.371
260.362
260.356
260.355
260.357
260.351
260.342
260.332
260.322
260.308
260.295
260.285
260.276
260.267
260.258
260.25
260.248
260.246
260.238
260.229
260.219
260.208
260.194
260.183
260.173
260.164
260.155
260.146
260.141
260.139
260.133
260.124
260.114
260.104
260.092
260.081
260.071
260.062
260.053
260.044
260.037
260.035
260.031
260.022
260.013
260.004
259.994
259.985
259.976
259.967
259.961
259.955
259.946
259.937
259.927
259.917
259.904
259.885
259.87
259.859
259.85
259.841
259.831
259.822
259.814
259.807
259.808
259.819
259.818
259.81
259.801
259.791
259.779
259.762
259.742
259.729
259.72
259.71
259.701
259.693
259.686
259.685
259.69
259.685
259.676
259.666
259.656
259.644
259.63
259.62
259.611
259.601
259.592
259.584
259.577
259.569
259.56
259.55
259.541
259.529
259.513
259.499
259.489
259.48
259.471
259.462
259.455
259.454
259.463
259.462
259.454
259.445
259.435
259.423
259.406
259.387
259.376
259.367
259.357
259.348
259.34
259.334
259.335
259.339
259.333
259.324
259.314
259.304
259.292
259.279
259.268
259.259
259.25
259.24
259.231
259.222
259.212
259.203
259.192
259.179
259.169
259.159
259.15
259.141
259.132
259.124
259.121
259.126
259.124
259.116
259.106
259.096
259.085
259.069
259.054
259.044
259.034
259.025
259.016
259.008
259.003
259.004
258.999
258.99
258.981
258.971
258.96
258.947
258.937
258.928
258.918
258.909
258.901
258.895
258.894
258.888
258.879
258.87
258.861
258.851
258.842
258.833
258.824
258.815
258.806
258.796
258.787
258.776
258.761
258.743
258.731
258.722
258.713
258.704
258.695
258.687
258.684
258.693
258.7
258.694
258.685
258.675
258.665
258.652
258.631
258.611
258.6
258.591
258.582
258.572
258.564
258.556
258.553
258.557
258.553
258.544
258.535
258.525
258.514
258.503
258.493
258.484
258.474
258.465
258.457
258.448
258.44
258.431
258.422
258.413
258.404
258.395
258.386
258.377
258.368
258.363
258.359
258.352
258.342
258.333
258.324
258.313
258.302
258.292
258.283
258.274
258.265
258.257
258.252
258.252
258.245
258.236
258.227
258.217
258.206
258.193
258.181
258.172
258.163
258.153
258.144
258.135
258.126
258.117
258.108
258.1
258.094
258.09
258.083
258.074
258.065
258.056
258.046
258.036
258.026
258.017
258.008
257.998
257.99
257.983
257.98
257.975
257.966
257.957
257.948
257.939
257.929
257.92
257.911
257.902
257.894
257.887
257.879
257.87
257.861
257.851
257.841
257.83
257.815
257.803
257.794
257.785
257.776
257.767
257.758
257.751
257.749
257.753
257.748
257.74
257.731
257.721
257.71
257.697
257.685
257.675
257.666
257.657
257.648
257.64
257.633
257.629
257.621
257.612
257.603
257.593
257.584
257.574
257.564
257.555
257.546
257.537
257.528
257.518
257.509
257.5
257.491
257.482
257.474
257.468
257.468
257.472
257.466
257.457
257.448
257.438
257.427
257.412
257.388
257.373
257.362
257.353
257.344
257.335
257.326
257.317
257.308
257.299
257.292
257.29
257.296
257.296
257.288
257.279
257.27
257.259
257.246
257.23
257.218
257.208
257.199
257.19
257.181
257.174
257.169
257.167
257.16
257.151
257.142
257.133
257.122
257.111
257.101
257.092
257.083
257.074
257.067
257.063
257.066
257.061
257.053
257.044
257.034
257.023
257.008
256.985
256.97
256.96
256.95
256.941
256.932
256.923
256.914
256.905
256.896
256.888
256.883
256.886
256.89
256.884
256.875
256.866
256.856
256.845
256.831
256.817
256.807
256.798
256.789
256.78
256.772
256.767
256.766
256.76
256.751
256.742
256.733
256.722
256.707
256.695
256.685
256.676
256.667
256.658
256.651
256.647
256.649
256.645
256.636
256.627
256.618
256.608
256.597
256.584
256.574
256.565
256.556
256.547
256.537
256.528
256.519
256.509
256.497
256.485
256.476
256.467
256.458
256.449
256.44
256.431
256.422
256.416
256.415
256.418
256.412
256.403
256.394
256.384
256.374
256.359
256.345
256.335
256.326
256.317
256.308
256.3
256.294
256.293
256.288
256.28
256.271
256.261
256.251
256.238
256.226
256.217
256.208
256.199
256.19
256.182
256.178
256.18
256.177
256.169
256.16
256.151
256.142
256.133
256.123
256.113
256.1
256.08
256.063
256.053
256.044
256.035
256.026
256.017
256.008
255.999
255.99
255.982
255.975
255.976
255.982
255.978
255.97
255.96
255.951
255.941
255.928
255.913
255.902
255.893
255.884
255.875
255.867
255.861
255.861
255.861
255.853
255.844
255.835
255.825
255.813
255.793
255.772
255.761
255.751
255.742
255.733
255.724
255.716
255.707
255.701
255.7
255.707
255.705
255.697
255.688
255.679
255.669
255.657
255.641
255.628
255.619
255.61
255.601
255.592
255.584
255.579
255.577
255.571
255.562
255.553
255.544
255.534
255.524
255.514
255.505
255.496
255.487
255.479
255.471
255.463
255.454
255.445
255.436
255.426
255.415
255.4
255.389
255.379
255.37
255.362
255.353
255.345
255.341
255.344
255.343
255.335
255.326
255.317
255.308
255.297
255.284
255.273
255.263
255.254
255.246
255.237
255.228
255.221
255.213
255.205
255.196
255.187
255.178
255.169
255.16
255.151
255.142
255.134
255.126
255.123
255.122
255.115
255.106
255.097
255.088
255.078
255.064
255.048
255.037
255.028
255.019
255.01
255.001
254.992
254.984
254.976
254.97
254.968
254.962
254.954
254.945
254.936
254.926
254.916
254.904
254.894
254.885
254.876
254.867
254.858
254.85
254.842
254.838
254.832
254.824
254.815
254.806
254.797
254.788
254.779
254.77
254.761
254.752
254.743
254.734
254.725
254.716
254.707
254.698
254.69
254.682
254.676
254.672
254.665
254.657
254.648
254.639
254.63
254.621
254.612
254.603
254.594
254.585
254.576
254.567
254.558
254.549
254.54
254.53
254.518
254.504
254.494
254.484
254.476
254.467
254.458
254.451
254.447
254.451
254.449
254.442
254.433
254.424
254.414
254.403
254.387
254.372
254.361
254.352
254.343
254.335
254.326
254.318
254.314
254.313
254.307
254.298
254.29
254.281
254.272
254.263
254.254
254.244
254.234
254.225
254.216
254.207
254.198
254.189
254.18
254.171
254.163
254.154
254.145
254.137
254.13
254.124
254.116
254.107
254.098
254.089
254.08
254.071
254.061
254.052
254.044
254.035
254.026
254.018
254.012
254.005
253.996
253.987
253.978
253.969
253.96
253.95
253.941
253.933
253.924
253.915
253.907
253.901
253.894
253.885
253.876
253.867
253.858
253.849
253.84
253.831
253.823
253.814
253.806
253.799
253.795
253.791
253.783
253.774
253.765
253.756
253.748
253.739
253.73
253.721
253.712
253.703
253.693
253.682
253.667
253.651