/*--------------------------------*- C++ -*----------------------------------*\
  =========                 |
  \\      /  F ield         | OpenFOAM: The Open Source CFD Toolbox
   \\    /   O peration     | Website:  https://openfoam.org
    \\  /    A nd           | Version:  9
     \\/     M anipulation  |
\*---------------------------------------------------------------------------*/
FoamFile
{
    format      ascii;
    class       volVectorField;
    location    "0.032";
    object      U;
}
// * * * * * * * * * * * * * * * * * * * * * * * * * * * * * * * * * * * * * //

dimensions      [0 1 -1 0 0 0 0];

internalField   nonuniform List<vector> 
10000
(
(186.732 0 0)
(186.773 0 0)
(186.797 0 0)
(186.823 0 0)
(186.849 0 0)
(186.874 0 0)
(186.9 0 0)
(186.926 0 0)
(186.952 0 0)
(186.977 0 0)
(187.003 0 0)
(187.029 0 0)
(187.054 0 0)
(187.08 0 0)
(187.106 0 0)
(187.131 0 0)
(187.157 0 0)
(187.182 0 0)
(187.208 0 0)
(187.233 0 0)
(187.259 0 0)
(187.285 0 0)
(187.31 0 0)
(187.336 0 0)
(187.361 0 0)
(187.387 0 0)
(187.413 0 0)
(187.438 0 0)
(187.464 0 0)
(187.49 0 0)
(187.515 0 0)
(187.541 0 0)
(187.567 0 0)
(187.592 0 0)
(187.618 0 0)
(187.643 0 0)
(187.669 0 0)
(187.695 0 0)
(187.72 0 0)
(187.746 0 0)
(187.771 0 0)
(187.797 0 0)
(187.823 0 0)
(187.848 0 0)
(187.874 0 0)
(187.9 0 0)
(187.925 0 0)
(187.951 0 0)
(187.977 0 0)
(188.002 0 0)
(188.028 0 0)
(188.053 0 0)
(188.079 0 0)
(188.104 0 0)
(188.13 0 0)
(188.156 0 0)
(188.182 0 0)
(188.207 0 0)
(188.233 0 0)
(188.259 0 0)
(188.285 0 0)
(188.31 0 0)
(188.336 0 0)
(188.362 0 0)
(188.387 0 0)
(188.413 0 0)
(188.438 0 0)
(188.464 0 0)
(188.489 0 0)
(188.515 0 0)
(188.541 0 0)
(188.566 0 0)
(188.592 0 0)
(188.618 0 0)
(188.643 0 0)
(188.669 0 0)
(188.695 0 0)
(188.72 0 0)
(188.746 0 0)
(188.772 0 0)
(188.797 0 0)
(188.823 0 0)
(188.848 0 0)
(188.874 0 0)
(188.899 0 0)
(188.925 0 0)
(188.951 0 0)
(188.976 0 0)
(189.002 0 0)
(189.027 0 0)
(189.053 0 0)
(189.079 0 0)
(189.104 0 0)
(189.13 0 0)
(189.155 0 0)
(189.181 0 0)
(189.207 0 0)
(189.232 0 0)
(189.258 0 0)
(189.283 0 0)
(189.309 0 0)
(189.335 0 0)
(189.36 0 0)
(189.386 0 0)
(189.412 0 0)
(189.437 0 0)
(189.463 0 0)
(189.488 0 0)
(189.514 0 0)
(189.539 0 0)
(189.565 0 0)
(189.591 0 0)
(189.616 0 0)
(189.641 0 0)
(189.667 0 0)
(189.693 0 0)
(189.718 0 0)
(189.744 0 0)
(189.77 0 0)
(189.796 0 0)
(189.821 0 0)
(189.846 0 0)
(189.872 0 0)
(189.897 0 0)
(189.923 0 0)
(189.949 0 0)
(189.975 0 0)
(190 0 0)
(190.026 0 0)
(190.051 0 0)
(190.077 0 0)
(190.102 0 0)
(190.128 0 0)
(190.154 0 0)
(190.18 0 0)
(190.206 0 0)
(190.231 0 0)
(190.256 0 0)
(190.281 0 0)
(190.307 0 0)
(190.332 0 0)
(190.358 0 0)
(190.384 0 0)
(190.41 0 0)
(190.435 0 0)
(190.461 0 0)
(190.487 0 0)
(190.513 0 0)
(190.538 0 0)
(190.563 0 0)
(190.588 0 0)
(190.613 0 0)
(190.64 0 0)
(190.667 0 0)
(190.694 0 0)
(190.719 0 0)
(190.743 0 0)
(190.767 0 0)
(190.792 0 0)
(190.818 0 0)
(190.845 0 0)
(190.873 0 0)
(190.899 0 0)
(190.923 0 0)
(190.947 0 0)
(190.971 0 0)
(190.997 0 0)
(191.024 0 0)
(191.051 0 0)
(191.077 0 0)
(191.102 0 0)
(191.126 0 0)
(191.15 0 0)
(191.175 0 0)
(191.202 0 0)
(191.23 0 0)
(191.257 0 0)
(191.282 0 0)
(191.306 0 0)
(191.33 0 0)
(191.354 0 0)
(191.379 0 0)
(191.405 0 0)
(191.434 0 0)
(191.463 0 0)
(191.49 0 0)
(191.514 0 0)
(191.536 0 0)
(191.557 0 0)
(191.581 0 0)
(191.612 0 0)
(191.647 0 0)
(191.674 0 0)
(191.694 0 0)
(191.714 0 0)
(191.734 0 0)
(191.757 0 0)
(191.791 0 0)
(191.831 0 0)
(191.857 0 0)
(191.875 0 0)
(191.893 0 0)
(191.912 0 0)
(191.931 0 0)
(191.956 0 0)
(191.996 0 0)
(192.039 0 0)
(192.063 0 0)
(192.08 0 0)
(192.097 0 0)
(192.115 0 0)
(192.134 0 0)
(192.157 0 0)
(192.197 0 0)
(192.244 0 0)
(192.271 0 0)
(192.288 0 0)
(192.303 0 0)
(192.321 0 0)
(192.34 0 0)
(192.361 0 0)
(192.398 0 0)
(192.446 0 0)
(192.477 0 0)
(192.495 0 0)
(192.51 0 0)
(192.527 0 0)
(192.546 0 0)
(192.567 0 0)
(192.601 0 0)
(192.646 0 0)
(192.678 0 0)
(192.696 0 0)
(192.713 0 0)
(192.732 0 0)
(192.751 0 0)
(192.779 0 0)
(192.82 0 0)
(192.855 0 0)
(192.875 0 0)
(192.893 0 0)
(192.911 0 0)
(192.931 0 0)
(192.96 0 0)
(193.003 0 0)
(193.037 0 0)
(193.057 0 0)
(193.074 0 0)
(193.092 0 0)
(193.111 0 0)
(193.135 0 0)
(193.174 0 0)
(193.215 0 0)
(193.238 0 0)
(193.256 0 0)
(193.273 0 0)
(193.292 0 0)
(193.313 0 0)
(193.347 0 0)
(193.391 0 0)
(193.421 0 0)
(193.439 0 0)
(193.455 0 0)
(193.472 0 0)
(193.492 0 0)
(193.514 0 0)
(193.552 0 0)
(193.599 0 0)
(193.626 0 0)
(193.643 0 0)
(193.659 0 0)
(193.677 0 0)
(193.697 0 0)
(193.725 0 0)
(193.77 0 0)
(193.808 0 0)
(193.828 0 0)
(193.844 0 0)
(193.86 0 0)
(193.879 0 0)
(193.899 0 0)
(193.933 0 0)
(193.98 0 0)
(194.014 0 0)
(194.033 0 0)
(194.048 0 0)
(194.063 0 0)
(194.082 0 0)
(194.102 0 0)
(194.137 0 0)
(194.184 0 0)
(194.217 0 0)
(194.235 0 0)
(194.25 0 0)
(194.266 0 0)
(194.284 0 0)
(194.305 0 0)
(194.341 0 0)
(194.391 0 0)
(194.425 0 0)
(194.443 0 0)
(194.457 0 0)
(194.469 0 0)
(194.487 0 0)
(194.507 0 0)
(194.53 0 0)
(194.573 0 0)
(194.631 0 0)
(194.67 0 0)
(194.689 0 0)
(194.701 0 0)
(194.711 0 0)
(194.727 0 0)
(194.747 0 0)
(194.767 0 0)
(194.802 0 0)
(194.853 0 0)
(194.889 0 0)
(194.907 0 0)
(194.921 0 0)
(194.935 0 0)
(194.953 0 0)
(194.973 0 0)
(195.004 0 0)
(195.052 0 0)
(195.09 0 0)
(195.11 0 0)
(195.125 0 0)
(195.138 0 0)
(195.156 0 0)
(195.175 0 0)
(195.195 0 0)
(195.225 0 0)
(195.276 0 0)
(195.33 0 0)
(195.358 0 0)
(195.375 0 0)
(195.39 0 0)
(195.406 0 0)
(195.425 0 0)
(195.444 0 0)
(195.464 0 0)
(195.483 0 0)
(195.513 0 0)
(195.562 0 0)
(195.604 0 0)
(195.625 0 0)
(195.64 0 0)
(195.653 0 0)
(195.67 0 0)
(195.689 0 0)
(195.718 0 0)
(195.766 0 0)
(195.809 0 0)
(195.83 0 0)
(195.844 0 0)
(195.855 0 0)
(195.873 0 0)
(195.892 0 0)
(195.92 0 0)
(195.969 0 0)
(196.016 0 0)
(196.039 0 0)
(196.053 0 0)
(196.061 0 0)
(196.076 0 0)
(196.095 0 0)
(196.117 0 0)
(196.159 0 0)
(196.216 0 0)
(196.253 0 0)
(196.271 0 0)
(196.283 0 0)
(196.291 0 0)
(196.308 0 0)
(196.328 0 0)
(196.354 0 0)
(196.401 0 0)
(196.45 0 0)
(196.474 0 0)
(196.49 0 0)
(196.504 0 0)
(196.522 0 0)
(196.542 0 0)
(196.573 0 0)
(196.615 0 0)
(196.646 0 0)
(196.664 0 0)
(196.68 0 0)
(196.696 0 0)
(196.715 0 0)
(196.736 0 0)
(196.775 0 0)
(196.828 0 0)
(196.861 0 0)
(196.879 0 0)
(196.89 0 0)
(196.901 0 0)
(196.919 0 0)
(196.938 0 0)
(196.971 0 0)
(197.023 0 0)
(197.066 0 0)
(197.087 0 0)
(197.1 0 0)
(197.11 0 0)
(197.127 0 0)
(197.146 0 0)
(197.173 0 0)
(197.221 0 0)
(197.27 0 0)
(197.295 0 0)
(197.312 0 0)
(197.326 0 0)
(197.344 0 0)
(197.365 0 0)
(197.392 0 0)
(197.429 0 0)
(197.456 0 0)
(197.476 0 0)
(197.495 0 0)
(197.515 0 0)
(197.538 0 0)
(197.575 0 0)
(197.616 0 0)
(197.639 0 0)
(197.657 0 0)
(197.673 0 0)
(197.692 0 0)
(197.711 0 0)
(197.738 0 0)
(197.786 0 0)
(197.836 0 0)
(197.86 0 0)
(197.876 0 0)
(197.888 0 0)
(197.904 0 0)
(197.924 0 0)
(197.949 0 0)
(197.99 0 0)
(198.031 0 0)
(198.054 0 0)
(198.071 0 0)
(198.086 0 0)
(198.105 0 0)
(198.124 0 0)
(198.154 0 0)
(198.202 0 0)
(198.245 0 0)
(198.266 0 0)
(198.282 0 0)
(198.298 0 0)
(198.316 0 0)
(198.336 0 0)
(198.356 0 0)
(198.377 0 0)
(198.402 0 0)
(198.431 0 0)
(198.475 0 0)
(198.521 0 0)
(198.547 0 0)
(198.566 0 0)
(198.581 0 0)
(198.595 0 0)
(198.613 0 0)
(198.632 0 0)
(198.658 0 0)
(198.705 0 0)
(198.754 0 0)
(198.779 0 0)
(198.796 0 0)
(198.811 0 0)
(198.829 0 0)
(198.849 0 0)
(198.877 0 0)
(198.917 0 0)
(198.949 0 0)
(198.969 0 0)
(198.988 0 0)
(199.007 0 0)
(199.027 0 0)
(199.057 0 0)
(199.099 0 0)
(199.134 0 0)
(199.154 0 0)
(199.173 0 0)
(199.192 0 0)
(199.211 0 0)
(199.233 0 0)
(199.255 0 0)
(199.277 0 0)
(199.297 0 0)
(199.319 0 0)
(199.353 0 0)
(199.406 0 0)
(199.446 0 0)
(199.467 0 0)
(199.48 0 0)
(199.49 0 0)
(199.507 0 0)
(199.526 0 0)
(199.552 0 0)
(199.597 0 0)
(199.646 0 0)
(199.67 0 0)
(199.686 0 0)
(199.695 0 0)
(199.709 0 0)
(199.728 0 0)
(199.75 0 0)
(199.794 0 0)
(199.856 0 0)
(199.901 0 0)
(199.922 0 0)
(199.935 0 0)
(199.937 0 0)
(199.945 0 0)
(199.963 0 0)
(199.983 0 0)
(200.011 0 0)
(200.061 0 0)
(200.119 0 0)
(200.15 0 0)
(200.168 0 0)
(200.181 0 0)
(200.195 0 0)
(200.213 0 0)
(200.233 0 0)
(200.255 0 0)
(200.28 0 0)
(200.308 0 0)
(200.335 0 0)
(200.363 0 0)
(200.397 0 0)
(200.433 0 0)
(200.457 0 0)
(200.476 0 0)
(200.494 0 0)
(200.511 0 0)
(200.53 0 0)
(200.55 0 0)
(200.58 0 0)
(200.629 0 0)
(200.674 0 0)
(200.696 0 0)
(200.711 0 0)
(200.722 0 0)
(200.739 0 0)
(200.758 0 0)
(200.784 0 0)
(200.829 0 0)
(200.876 0 0)
(200.9 0 0)
(200.916 0 0)
(200.927 0 0)
(200.943 0 0)
(200.962 0 0)
(200.986 0 0)
(201.029 0 0)
(201.077 0 0)
(201.103 0 0)
(201.12 0 0)
(201.13 0 0)
(201.146 0 0)
(201.165 0 0)
(201.189 0 0)
(201.235 0 0)
(201.296 0 0)
(201.336 0 0)
(201.355 0 0)
(201.366 0 0)
(201.363 0 0)
(201.37 0 0)
(201.388 0 0)
(201.408 0 0)
(201.435 0 0)
(201.485 0 0)
(201.546 0 0)
(201.581 0 0)
(201.599 0 0)
(201.609 0 0)
(201.615 0 0)
(201.63 0 0)
(201.649 0 0)
(201.672 0 0)
(201.713 0 0)
(201.772 0 0)
(201.811 0 0)
(201.831 0 0)
(201.844 0 0)
(201.854 0 0)
(201.871 0 0)
(201.891 0 0)
(201.915 0 0)
(201.957 0 0)
(202.007 0 0)
(202.033 0 0)
(202.051 0 0)
(202.067 0 0)
(202.085 0 0)
(202.105 0 0)
(202.128 0 0)
(202.153 0 0)
(202.176 0 0)
(202.197 0 0)
(202.218 0 0)
(202.24 0 0)
(202.28 0 0)
(202.334 0 0)
(202.37 0 0)
(202.389 0 0)
(202.404 0 0)
(202.419 0 0)
(202.438 0 0)
(202.459 0 0)
(202.488 0 0)
(202.523 0 0)
(202.55 0 0)
(202.57 0 0)
(202.589 0 0)
(202.609 0 0)
(202.633 0 0)
(202.669 0 0)
(202.707 0 0)
(202.73 0 0)
(202.749 0 0)
(202.766 0 0)
(202.785 0 0)
(202.805 0 0)
(202.832 0 0)
(202.882 0 0)
(202.939 0 0)
(202.97 0 0)
(202.988 0 0)
(202.998 0 0)
(203.001 0 0)
(203.014 0 0)
(203.033 0 0)
(203.053 0 0)
(203.073 0 0)
(203.093 0 0)
(203.115 0 0)
(203.155 0 0)
(203.223 0 0)
(203.289 0 0)
(203.322 0 0)
(203.34 0 0)
(203.349 0 0)
(203.344 0 0)
(203.349 0 0)
(203.366 0 0)
(203.386 0 0)
(203.409 0 0)
(203.449 0 0)
(203.508 0 0)
(203.551 0 0)
(203.572 0 0)
(203.586 0 0)
(203.593 0 0)
(203.608 0 0)
(203.627 0 0)
(203.648 0 0)
(203.685 0 0)
(203.739 0 0)
(203.778 0 0)
(203.798 0 0)
(203.813 0 0)
(203.827 0 0)
(203.846 0 0)
(203.866 0 0)
(203.894 0 0)
(203.931 0 0)
(203.961 0 0)
(203.982 0 0)
(204.001 0 0)
(204.02 0 0)
(204.04 0 0)
(204.065 0 0)
(204.105 0 0)
(204.147 0 0)
(204.17 0 0)
(204.188 0 0)
(204.204 0 0)
(204.222 0 0)
(204.242 0 0)
(204.268 0 0)
(204.311 0 0)
(204.355 0 0)
(204.379 0 0)
(204.396 0 0)
(204.41 0 0)
(204.428 0 0)
(204.448 0 0)
(204.476 0 0)
(204.52 0 0)
(204.563 0 0)
(204.585 0 0)
(204.601 0 0)
(204.613 0 0)
(204.631 0 0)
(204.65 0 0)
(204.676 0 0)
(204.721 0 0)
(204.773 0 0)
(204.8 0 0)
(204.817 0 0)
(204.828 0 0)
(204.841 0 0)
(204.86 0 0)
(204.881 0 0)
(204.917 0 0)
(204.972 0 0)
(205.014 0 0)
(205.034 0 0)
(205.047 0 0)
(205.049 0 0)
(205.058 0 0)
(205.077 0 0)
(205.097 0 0)
(205.126 0 0)
(205.179 0 0)
(205.24 0 0)
(205.274 0 0)
(205.292 0 0)
(205.302 0 0)
(205.301 0 0)
(205.313 0 0)
(205.331 0 0)
(205.352 0 0)
(205.381 0 0)
(205.434 0 0)
(205.491 0 0)
(205.521 0 0)
(205.539 0 0)
(205.549 0 0)
(205.557 0 0)
(205.575 0 0)
(205.594 0 0)
(205.619 0 0)
(205.662 0 0)
(205.713 0 0)
(205.74 0 0)
(205.758 0 0)
(205.771 0 0)
(205.786 0 0)
(205.806 0 0)
(205.828 0 0)
(205.866 0 0)
(205.918 0 0)
(205.951 0 0)
(205.969 0 0)
(205.981 0 0)
(205.993 0 0)
(206.011 0 0)
(206.031 0 0)
(206.06 0 0)
(206.109 0 0)
(206.153 0 0)
(206.175 0 0)
(206.191 0 0)
(206.2 0 0)
(206.216 0 0)
(206.235 0 0)
(206.258 0 0)
(206.299 0 0)
(206.356 0 0)
(206.394 0 0)
(206.414 0 0)
(206.427 0 0)
(206.432 0 0)
(206.447 0 0)
(206.467 0 0)
(206.488 0 0)
(206.524 0 0)
(206.576 0 0)
(206.614 0 0)
(206.634 0 0)
(206.648 0 0)
(206.662 0 0)
(206.681 0 0)
(206.702 0 0)
(206.733 0 0)
(206.781 0 0)
(206.817 0 0)
(206.837 0 0)
(206.851 0 0)
(206.862 0 0)
(206.88 0 0)
(206.9 0 0)
(206.926 0 0)
(206.975 0 0)
(207.031 0 0)
(207.061 0 0)
(207.079 0 0)
(207.087 0 0)
(207.088 0 0)
(207.103 0 0)
(207.122 0 0)
(207.145 0 0)
(207.187 0 0)
(207.255 0 0)
(207.309 0 0)
(207.335 0 0)
(207.351 0 0)
(207.355 0 0)
(207.349 0 0)
(207.36 0 0)
(207.379 0 0)
(207.399 0 0)
(207.428 0 0)
(207.48 0 0)
(207.542 0 0)
(207.577 0 0)
(207.596 0 0)
(207.608 0 0)
(207.611 0 0)
(207.624 0 0)
(207.644 0 0)
(207.664 0 0)
(207.697 0 0)
(207.749 0 0)
(207.796 0 0)
(207.819 0 0)
(207.835 0 0)
(207.845 0 0)
(207.86 0 0)
(207.88 0 0)
(207.902 0 0)
(207.938 0 0)
(207.991 0 0)
(208.027 0 0)
(208.047 0 0)
(208.062 0 0)
(208.076 0 0)
(208.095 0 0)
(208.115 0 0)
(208.148 0 0)
(208.199 0 0)
(208.24 0 0)
(208.261 0 0)
(208.274 0 0)
(208.273 0 0)
(208.274 0 0)
(208.29 0 0)
(208.31 0 0)
(208.331 0 0)
(208.365 0 0)
(208.426 0 0)
(208.498 0 0)
(208.538 0 0)
(208.558 0 0)
(208.571 0 0)
(208.57 0 0)
(208.572 0 0)
(208.589 0 0)
(208.609 0 0)
(208.63 0 0)
(208.665 0 0)
(208.721 0 0)
(208.771 0 0)
(208.795 0 0)
(208.812 0 0)
(208.821 0 0)
(208.834 0 0)
(208.853 0 0)
(208.874 0 0)
(208.903 0 0)
(208.949 0 0)
(208.991 0 0)
(209.013 0 0)
(209.031 0 0)
(209.047 0 0)
(209.067 0 0)
(209.088 0 0)
(209.122 0 0)
(209.168 0 0)
(209.2 0 0)
(209.22 0 0)
(209.234 0 0)
(209.244 0 0)
(209.262 0 0)
(209.282 0 0)
(209.307 0 0)
(209.354 0 0)
(209.413 0 0)
(209.447 0 0)
(209.466 0 0)
(209.476 0 0)
(209.473 0 0)
(209.48 0 0)
(209.499 0 0)
(209.519 0 0)
(209.544 0 0)
(209.591 0 0)
(209.659 0 0)
(209.705 0 0)
(209.728 0 0)
(209.743 0 0)
(209.747 0 0)
(209.753 0 0)
(209.77 0 0)
(209.79 0 0)
(209.812 0 0)
(209.851 0 0)
(209.907 0 0)
(209.946 0 0)
(209.966 0 0)
(209.981 0 0)
(209.992 0 0)
(210.009 0 0)
(210.029 0 0)
(210.052 0 0)
(210.091 0 0)
(210.141 0 0)
(210.17 0 0)
(210.188 0 0)
(210.204 0 0)
(210.222 0 0)
(210.242 0 0)
(210.267 0 0)
(210.311 0 0)
(210.363 0 0)
(210.392 0 0)
(210.41 0 0)
(210.419 0 0)
(210.415 0 0)
(210.423 0 0)
(210.442 0 0)
(210.462 0 0)
(210.483 0 0)
(210.507 0 0)
(210.549 0 0)
(210.62 0 0)
(210.684 0 0)
(210.715 0 0)
(210.734 0 0)
(210.745 0 0)
(210.742 0 0)
(210.75 0 0)
(210.768 0 0)
(210.789 0 0)
(210.811 0 0)
(210.85 0 0)
(210.906 0 0)
(210.944 0 0)
(210.964 0 0)
(210.979 0 0)
(210.988 0 0)
(211.005 0 0)
(211.025 0 0)
(211.047 0 0)
(211.084 0 0)
(211.138 0 0)
(211.173 0 0)
(211.193 0 0)
(211.207 0 0)
(211.22 0 0)
(211.238 0 0)
(211.259 0 0)
(211.286 0 0)
(211.336 0 0)
(211.394 0 0)
(211.426 0 0)
(211.445 0 0)
(211.456 0 0)
(211.454 0 0)
(211.462 0 0)
(211.481 0 0)
(211.501 0 0)
(211.521 0 0)
(211.542 0 0)
(211.563 0 0)
(211.592 0 0)
(211.643 0 0)
(211.712 0 0)
(211.755 0 0)
(211.777 0 0)
(211.792 0 0)
(211.797 0 0)
(211.804 0 0)
(211.822 0 0)
(211.843 0 0)
(211.865 0 0)
(211.905 0 0)
(211.964 0 0)
(212.008 0 0)
(212.03 0 0)
(212.046 0 0)
(212.05 0 0)
(212.054 0 0)
(212.071 0 0)
(212.091 0 0)
(212.111 0 0)
(212.132 0 0)
(212.152 0 0)
(212.174 0 0)
(212.205 0 0)
(212.261 0 0)
(212.336 0 0)
(212.382 0 0)
(212.404 0 0)
(212.42 0 0)
(212.428 0 0)
(212.437 0 0)
(212.455 0 0)
(212.476 0 0)
(212.497 0 0)
(212.52 0 0)
(212.544 0 0)
(212.565 0 0)
(212.586 0 0)
(212.606 0 0)
(212.627 0 0)
(212.648 0 0)
(212.683 0 0)
(212.739 0 0)
(212.788 0 0)
(212.813 0 0)
(212.83 0 0)
(212.838 0 0)
(212.845 0 0)
(212.863 0 0)
(212.884 0 0)
(212.907 0 0)
(212.947 0 0)
(213.004 0 0)
(213.041 0 0)
(213.062 0 0)
(213.077 0 0)
(213.091 0 0)
(213.11 0 0)
(213.13 0 0)
(213.158 0 0)
(213.199 0 0)
(213.235 0 0)
(213.256 0 0)
(213.273 0 0)
(213.282 0 0)
(213.296 0 0)
(213.316 0 0)
(213.337 0 0)
(213.373 0 0)
(213.436 0 0)
(213.502 0 0)
(213.536 0 0)
(213.555 0 0)
(213.565 0 0)
(213.557 0 0)
(213.555 0 0)
(213.571 0 0)
(213.591 0 0)
(213.612 0 0)
(213.645 0 0)
(213.702 0 0)
(213.764 0 0)
(213.798 0 0)
(213.817 0 0)
(213.829 0 0)
(213.834 0 0)
(213.848 0 0)
(213.868 0 0)
(213.889 0 0)
(213.921 0 0)
(213.975 0 0)
(214.03 0 0)
(214.057 0 0)
(214.075 0 0)
(214.083 0 0)
(214.079 0 0)
(214.088 0 0)
(214.107 0 0)
(214.127 0 0)
(214.148 0 0)
(214.169 0 0)
(214.193 0 0)
(214.233 0 0)
(214.304 0 0)
(214.372 0 0)
(214.406 0 0)
(214.426 0 0)
(214.44 0 0)
(214.439 0 0)
(214.441 0 0)
(214.458 0 0)
(214.478 0 0)
(214.498 0 0)
(214.519 0 0)
(214.54 0 0)
(214.561 0 0)
(214.583 0 0)
(214.619 0 0)
(214.683 0 0)
(214.752 0 0)
(214.788 0 0)
(214.808 0 0)
(214.821 0 0)
(214.819 0 0)
(214.815 0 0)
(214.829 0 0)
(214.85 0 0)
(214.87 0 0)
(214.899 0 0)
(214.951 0 0)
(215.024 0 0)
(215.072 0 0)
(215.095 0 0)
(215.111 0 0)
(215.112 0 0)
(215.095 0 0)
(215.099 0 0)
(215.117 0 0)
(215.138 0 0)
(215.16 0 0)
(215.196 0 0)
(215.261 0 0)
(215.336 0 0)
(215.375 0 0)
(215.396 0 0)
(215.41 0 0)
(215.409 0 0)
(215.401 0 0)
(215.414 0 0)
(215.434 0 0)
(215.454 0 0)
(215.482 0 0)
(215.532 0 0)
(215.605 0 0)
(215.655 0 0)
(215.679 0 0)
(215.696 0 0)
(215.702 0 0)
(215.699 0 0)
(215.712 0 0)
(215.731 0 0)
(215.752 0 0)
(215.777 0 0)
(215.821 0 0)
(215.883 0 0)
(215.927 0 0)
(215.95 0 0)
(215.967 0 0)
(215.975 0 0)
(215.983 0 0)
(215.999 0 0)
(216.019 0 0)
(216.038 0 0)
(216.057 0 0)
(216.077 0 0)
(216.098 0 0)
(216.118 0 0)
(216.139 0 0)
(216.162 0 0)
(216.2 0 0)
(216.267 0 0)
(216.333 0 0)
(216.366 0 0)
(216.386 0 0)
(216.398 0 0)
(216.396 0 0)
(216.4 0 0)
(216.417 0 0)
(216.438 0 0)
(216.46 0 0)
(216.493 0 0)
(216.548 0 0)
(216.6 0 0)
(216.627 0 0)
(216.645 0 0)
(216.655 0 0)
(216.664 0 0)
(216.682 0 0)
(216.702 0 0)
(216.725 0 0)
(216.762 0 0)
(216.817 0 0)
(216.855 0 0)
(216.876 0 0)
(216.892 0 0)
(216.906 0 0)
(216.926 0 0)
(216.946 0 0)
(216.973 0 0)
(217.013 0 0)
(217.054 0 0)
(217.077 0 0)
(217.095 0 0)
(217.108 0 0)
(217.122 0 0)
(217.142 0 0)
(217.163 0 0)
(217.196 0 0)
(217.254 0 0)
(217.316 0 0)
(217.349 0 0)
(217.368 0 0)
(217.379 0 0)
(217.37 0 0)
(217.359 0 0)
(217.372 0 0)
(217.391 0 0)
(217.412 0 0)
(217.433 0 0)
(217.456 0 0)
(217.493 0 0)
(217.559 0 0)
(217.644 0 0)
(217.691 0 0)
(217.714 0 0)
(217.731 0 0)
(217.735 0 0)
(217.721 0 0)
(217.724 0 0)
(217.742 0 0)
(217.763 0 0)
(217.784 0 0)
(217.812 0 0)
(217.862 0 0)
(217.927 0 0)
(217.968 0 0)
(217.989 0 0)
(218.005 0 0)
(218.015 0 0)
(218.029 0 0)
(218.049 0 0)
(218.07 0 0)
(218.095 0 0)
(218.13 0 0)
(218.164 0 0)
(218.186 0 0)
(218.207 0 0)
(218.227 0 0)
(218.248 0 0)
(218.269 0 0)
(218.296 0 0)
(218.338 0 0)
(218.38 0 0)
(218.404 0 0)
(218.423 0 0)
(218.438 0 0)
(218.455 0 0)
(218.476 0 0)
(218.497 0 0)
(218.528 0 0)
(218.576 0 0)
(218.616 0 0)
(218.638 0 0)
(218.655 0 0)
(218.667 0 0)
(218.683 0 0)
(218.703 0 0)
(218.724 0 0)
(218.755 0 0)
(218.805 0 0)
(218.847 0 0)
(218.87 0 0)
(218.888 0 0)
(218.901 0 0)
(218.919 0 0)
(218.94 0 0)
(218.962 0 0)
(218.998 0 0)
(219.05 0 0)
(219.088 0 0)
(219.109 0 0)
(219.126 0 0)
(219.141 0 0)
(219.159 0 0)
(219.18 0 0)
(219.201 0 0)
(219.221 0 0)
(219.242 0 0)
(219.263 0 0)
(219.283 0 0)
(219.304 0 0)
(219.325 0 0)
(219.349 0 0)
(219.39 0 0)
(219.457 0 0)
(219.514 0 0)
(219.541 0 0)
(219.56 0 0)
(219.569 0 0)
(219.562 0 0)
(219.567 0 0)
(219.585 0 0)
(219.606 0 0)
(219.628 0 0)
(219.664 0 0)
(219.724 0 0)
(219.782 0 0)
(219.811 0 0)
(219.83 0 0)
(219.842 0 0)
(219.844 0 0)
(219.857 0 0)
(219.877 0 0)
(219.898 0 0)
(219.923 0 0)
(219.968 0 0)
(220.029 0 0)
(220.07 0 0)
(220.091 0 0)
(220.108 0 0)
(220.12 0 0)
(220.136 0 0)
(220.156 0 0)
(220.177 0 0)
(220.198 0 0)
(220.218 0 0)
(220.238 0 0)
(220.255 0 0)
(220.273 0 0)
(220.293 0 0)
(220.314 0 0)
(220.337 0 0)
(220.376 0 0)
(220.442 0 0)
(220.509 0 0)
(220.543 0 0)
(220.563 0 0)
(220.576 0 0)
(220.575 0 0)
(220.577 0 0)
(220.594 0 0)
(220.615 0 0)
(220.636 0 0)
(220.666 0 0)
(220.717 0 0)
(220.767 0 0)
(220.792 0 0)
(220.81 0 0)
(220.819 0 0)
(220.82 0 0)
(220.835 0 0)
(220.855 0 0)
(220.877 0 0)
(220.909 0 0)
(220.966 0 0)
(221.034 0 0)
(221.071 0 0)
(221.092 0 0)
(221.106 0 0)
(221.106 0 0)
(221.107 0 0)
(221.124 0 0)
(221.144 0 0)
(221.166 0 0)
(221.198 0 0)
(221.254 0 0)
(221.317 0 0)
(221.351 0 0)
(221.371 0 0)
(221.385 0 0)
(221.386 0 0)
(221.391 0 0)
(221.41 0 0)
(221.431 0 0)
(221.453 0 0)
(221.486 0 0)
(221.541 0 0)
(221.591 0 0)
(221.616 0 0)
(221.635 0 0)
(221.646 0 0)
(221.656 0 0)
(221.675 0 0)
(221.696 0 0)
(221.718 0 0)
(221.755 0 0)
(221.811 0 0)
(221.854 0 0)
(221.876 0 0)
(221.893 0 0)
(221.904 0 0)
(221.918 0 0)
(221.938 0 0)
(221.959 0 0)
(221.981 0 0)
(222.007 0 0)
(222.035 0 0)
(222.058 0 0)
(222.08 0 0)
(222.102 0 0)
(222.126 0 0)
(222.163 0 0)
(222.218 0 0)
(222.258 0 0)
(222.28 0 0)
(222.298 0 0)
(222.311 0 0)
(222.329 0 0)
(222.349 0 0)
(222.371 0 0)
(222.398 0 0)
(222.432 0 0)
(222.461 0 0)
(222.483 0 0)
(222.504 0 0)
(222.525 0 0)
(222.547 0 0)
(222.572 0 0)
(222.602 0 0)
(222.63 0 0)
(222.651 0 0)
(222.672 0 0)
(222.693 0 0)
(222.714 0 0)
(222.736 0 0)
(222.762 0 0)
(222.807 0 0)
(222.863 0 0)
(222.896 0 0)
(222.916 0 0)
(222.933 0 0)
(222.949 0 0)
(222.969 0 0)
(222.99 0 0)
(223.014 0 0)
(223.049 0 0)
(223.089 0 0)
(223.114 0 0)
(223.135 0 0)
(223.155 0 0)
(223.175 0 0)
(223.196 0 0)
(223.217 0 0)
(223.238 0 0)
(223.258 0 0)
(223.277 0 0)
(223.296 0 0)
(223.317 0 0)
(223.339 0 0)
(223.362 0 0)
(223.401 0 0)
(223.469 0 0)
(223.541 0 0)
(223.577 0 0)
(223.598 0 0)
(223.613 0 0)
(223.61 0 0)
(223.584 0 0)
(223.584 0 0)
(223.601 0 0)
(223.622 0 0)
(223.643 0 0)
(223.665 0 0)
(223.696 0 0)
(223.75 0 0)
(223.84 0 0)
(223.904 0 0)
(223.934 0 0)
(223.954 0 0)
(223.966 0 0)
(223.96 0 0)
(223.946 0 0)
(223.957 0 0)
(223.977 0 0)
(223.998 0 0)
(224.02 0 0)
(224.052 0 0)
(224.108 0 0)
(224.173 0 0)
(224.208 0 0)
(224.228 0 0)
(224.243 0 0)
(224.247 0 0)
(224.255 0 0)
(224.274 0 0)
(224.295 0 0)
(224.318 0 0)
(224.354 0 0)
(224.414 0 0)
(224.472 0 0)
(224.502 0 0)
(224.522 0 0)
(224.536 0 0)
(224.541 0 0)
(224.553 0 0)
(224.573 0 0)
(224.594 0 0)
(224.615 0 0)
(224.636 0 0)
(224.658 0 0)
(224.679 0 0)
(224.701 0 0)
(224.724 0 0)
(224.758 0 0)
(224.817 0 0)
(224.878 0 0)
(224.91 0 0)
(224.931 0 0)
(224.946 0 0)
(224.947 0 0)
(224.948 0 0)
(224.965 0 0)
(224.986 0 0)
(225.007 0 0)
(225.033 0 0)
(225.075 0 0)
(225.126 0 0)
(225.155 0 0)
(225.175 0 0)
(225.19 0 0)
(225.201 0 0)
(225.22 0 0)
(225.241 0 0)
(225.264 0 0)
(225.302 0 0)
(225.364 0 0)
(225.416 0 0)
(225.442 0 0)
(225.461 0 0)
(225.471 0 0)
(225.47 0 0)
(225.483 0 0)
(225.503 0 0)
(225.525 0 0)
(225.551 0 0)
(225.597 0 0)
(225.66 0 0)
(225.7 0 0)
(225.722 0 0)
(225.738 0 0)
(225.739 0 0)
(225.725 0 0)
(225.731 0 0)
(225.75 0 0)
(225.771 0 0)
(225.793 0 0)
(225.819 0 0)
(225.866 0 0)
(225.948 0 0)
(226.025 0 0)
(226.061 0 0)
(226.082 0 0)
(226.098 0 0)
(226.1 0 0)
(226.089 0 0)
(226.097 0 0)
(226.117 0 0)
(226.138 0 0)
(226.16 0 0)
(226.184 0 0)
(226.223 0 0)
(226.276 0 0)
(226.309 0 0)
(226.33 0 0)
(226.347 0 0)
(226.359 0 0)
(226.377 0 0)
(226.398 0 0)
(226.42 0 0)
(226.45 0 0)
(226.497 0 0)
(226.539 0 0)
(226.563 0 0)
(226.581 0 0)
(226.593 0 0)
(226.607 0 0)
(226.626 0 0)
(226.648 0 0)
(226.673 0 0)
(226.715 0 0)
(226.773 0 0)
(226.81 0 0)
(226.831 0 0)
(226.847 0 0)
(226.854 0 0)
(226.865 0 0)
(226.885 0 0)
(226.906 0 0)
(226.931 0 0)
(226.973 0 0)
(227.038 0 0)
(227.09 0 0)
(227.115 0 0)
(227.134 0 0)
(227.145 0 0)
(227.143 0 0)
(227.151 0 0)
(227.171 0 0)
(227.192 0 0)
(227.213 0 0)
(227.235 0 0)
(227.256 0 0)
(227.278 0 0)
(227.305 0 0)
(227.352 0 0)
(227.419 0 0)
(227.465 0 0)
(227.489 0 0)
(227.507 0 0)
(227.514 0 0)
(227.504 0 0)
(227.508 0 0)
(227.527 0 0)
(227.548 0 0)
(227.571 0 0)
(227.604 0 0)
(227.663 0 0)
(227.738 0 0)
(227.78 0 0)
(227.803 0 0)
(227.82 0 0)
(227.824 0 0)
(227.809 0 0)
(227.814 0 0)
(227.832 0 0)
(227.854 0 0)
(227.876 0 0)
(227.907 0 0)
(227.962 0 0)
(228.043 0 0)
(228.094 0 0)
(228.119 0 0)
(228.139 0 0)
(228.15 0 0)
(228.151 0 0)
(228.161 0 0)
(228.181 0 0)
(228.202 0 0)
(228.224 0 0)
(228.246 0 0)
(228.268 0 0)
(228.29 0 0)
(228.313 0 0)
(228.335 0 0)
(228.357 0 0)
(228.381 0 0)
(228.421 0 0)
(228.485 0 0)
(228.541 0 0)
(228.569 0 0)
(228.589 0 0)
(228.601 0 0)
(228.595 0 0)
(228.592 0 0)
(228.608 0 0)
(228.629 0 0)
(228.651 0 0)
(228.678 0 0)
(228.726 0 0)
(228.799 0 0)
(228.849 0 0)
(228.873 0 0)
(228.892 0 0)
(228.901 0 0)
(228.894 0 0)
(228.899 0 0)
(228.918 0 0)
(228.94 0 0)
(228.962 0 0)
(228.992 0 0)
(229.044 0 0)
(229.109 0 0)
(229.146 0 0)
(229.168 0 0)
(229.184 0 0)
(229.191 0 0)
(229.199 0 0)
(229.219 0 0)
(229.24 0 0)
(229.263 0 0)
(229.296 0 0)
(229.354 0 0)
(229.411 0 0)
(229.44 0 0)
(229.46 0 0)
(229.474 0 0)
(229.473 0 0)
(229.473 0 0)
(229.49 0 0)
(229.511 0 0)
(229.532 0 0)
(229.554 0 0)
(229.575 0 0)
(229.597 0 0)
(229.621 0 0)
(229.661 0 0)
(229.727 0 0)
(229.788 0 0)
(229.819 0 0)
(229.839 0 0)
(229.854 0 0)
(229.856 0 0)
(229.86 0 0)
(229.878 0 0)
(229.899 0 0)
(229.921 0 0)
(229.946 0 0)
(229.987 0 0)
(230.045 0 0)
(230.082 0 0)
(230.103 0 0)
(230.121 0 0)
(230.132 0 0)
(230.147 0 0)
(230.168 0 0)
(230.19 0 0)
(230.214 0 0)
(230.253 0 0)
(230.302 0 0)
(230.331 0 0)
(230.352 0 0)
(230.369 0 0)
(230.384 0 0)
(230.404 0 0)
(230.425 0 0)
(230.448 0 0)
(230.481 0 0)
(230.529 0 0)
(230.563 0 0)
(230.585 0 0)
(230.603 0 0)
(230.611 0 0)
(230.615 0 0)
(230.632 0 0)
(230.653 0 0)
(230.674 0 0)
(230.696 0 0)
(230.723 0 0)
(230.768 0 0)
(230.837 0 0)
(230.89 0 0)
(230.916 0 0)
(230.936 0 0)
(230.949 0 0)
(230.951 0 0)
(230.962 0 0)
(230.982 0 0)
(231.004 0 0)
(231.026 0 0)
(231.054 0 0)
(231.097 0 0)
(231.14 0 0)
(231.164 0 0)
(231.185 0 0)
(231.203 0 0)
(231.223 0 0)
(231.244 0 0)
(231.266 0 0)
(231.293 0 0)
(231.338 0 0)
(231.384 0 0)
(231.41 0 0)
(231.43 0 0)
(231.444 0 0)
(231.449 0 0)
(231.461 0 0)
(231.481 0 0)
(231.503 0 0)
(231.524 0 0)
(231.546 0 0)
(231.569 0 0)
(231.598 0 0)
(231.649 0 0)
(231.712 0 0)
(231.749 0 0)
(231.77 0 0)
(231.788 0 0)
(231.796 0 0)
(231.804 0 0)
(231.823 0 0)
(231.844 0 0)
(231.867 0 0)
(231.897 0 0)
(231.95 0 0)
(232.013 0 0)
(232.048 0 0)
(232.069 0 0)
(232.086 0 0)
(232.091 0 0)
(232.091 0 0)
(232.107 0 0)
(232.127 0 0)
(232.149 0 0)
(232.171 0 0)
(232.192 0 0)
(232.214 0 0)
(232.236 0 0)
(232.261 0 0)
(232.301 0 0)
(232.367 0 0)
(232.428 0 0)
(232.458 0 0)
(232.479 0 0)
(232.495 0 0)
(232.5 0 0)
(232.509 0 0)
(232.528 0 0)
(232.55 0 0)
(232.572 0 0)
(232.594 0 0)
(232.618 0 0)
(232.64 0 0)
(232.662 0 0)
(232.683 0 0)
(232.704 0 0)
(232.725 0 0)
(232.747 0 0)
(232.77 0 0)
(232.8 0 0)
(232.854 0 0)
(232.927 0 0)
(232.97 0 0)
(232.993 0 0)
(233.012 0 0)
(233.02 0 0)
(233.009 0 0)
(233.013 0 0)
(233.031 0 0)
(233.053 0 0)
(233.075 0 0)
(233.103 0 0)
(233.151 0 0)
(233.222 0 0)
(233.268 0 0)
(233.292 0 0)
(233.312 0 0)
(233.322 0 0)
(233.323 0 0)
(233.335 0 0)
(233.356 0 0)
(233.377 0 0)
(233.401 0 0)
(233.435 0 0)
(233.492 0 0)
(233.541 0 0)
(233.566 0 0)
(233.586 0 0)
(233.597 0 0)
(233.591 0 0)
(233.59 0 0)
(233.608 0 0)
(233.629 0 0)
(233.651 0 0)
(233.674 0 0)
(233.706 0 0)
(233.763 0 0)
(233.851 0 0)
(233.907 0 0)
(233.933 0 0)
(233.954 0 0)
(233.969 0 0)
(233.97 0 0)
(233.969 0 0)
(233.985 0 0)
(234.006 0 0)
(234.027 0 0)
(234.049 0 0)
(234.07 0 0)
(234.089 0 0)
(234.105 0 0)
(234.122 0 0)
(234.143 0 0)
(234.164 0 0)
(234.186 0 0)
(234.21 0 0)
(234.244 0 0)
(234.304 0 0)
(234.391 0 0)
(234.443 0 0)
(234.468 0 0)
(234.488 0 0)
(234.502 0 0)
(234.499 0 0)
(234.5 0 0)
(234.518 0 0)
(234.539 0 0)
(234.561 0 0)
(234.583 0 0)
(234.607 0 0)
(234.63 0 0)
(234.652 0 0)
(234.674 0 0)
(234.696 0 0)
(234.717 0 0)
(234.739 0 0)
(234.761 0 0)
(234.785 0 0)
(234.819 0 0)
(234.881 0 0)
(234.956 0 0)
(234.996 0 0)
(235.019 0 0)
(235.037 0 0)
(235.045 0 0)
(235.034 0 0)
(235.035 0 0)
(235.053 0 0)
(235.075 0 0)
(235.097 0 0)
(235.121 0 0)
(235.158 0 0)
(235.218 0 0)
(235.273 0 0)
(235.3 0 0)
(235.321 0 0)
(235.336 0 0)
(235.343 0 0)
(235.357 0 0)
(235.377 0 0)
(235.399 0 0)
(235.422 0 0)
(235.454 0 0)
(235.502 0 0)
(235.54 0 0)
(235.563 0 0)
(235.583 0 0)
(235.597 0 0)
(235.612 0 0)
(235.633 0 0)
(235.655 0 0)
(235.678 0 0)
(235.711 0 0)
(235.763 0 0)
(235.803 0 0)
(235.826 0 0)
(235.845 0 0)
(235.858 0 0)
(235.872 0 0)
(235.892 0 0)
(235.914 0 0)
(235.937 0 0)
(235.971 0 0)
(236.022 0 0)
(236.061 0 0)
(236.084 0 0)
(236.104 0 0)
(236.116 0 0)
(236.128 0 0)
(236.148 0 0)
(236.17 0 0)
(236.193 0 0)
(236.223 0 0)
(236.272 0 0)
(236.314 0 0)
(236.337 0 0)
(236.357 0 0)
(236.37 0 0)
(236.371 0 0)
(236.382 0 0)
(236.402 0 0)
(236.424 0 0)
(236.446 0 0)
(236.469 0 0)
(236.502 0 0)
(236.559 0 0)
(236.629 0 0)
(236.668 0 0)
(236.691 0 0)
(236.71 0 0)
(236.721 0 0)
(236.727 0 0)
(236.744 0 0)
(236.766 0 0)
(236.788 0 0)
(236.812 0 0)
(236.85 0 0)
(236.901 0 0)
(236.934 0 0)
(236.956 0 0)
(236.974 0 0)
(236.98 0 0)
(236.976 0 0)
(236.989 0 0)
(237.009 0 0)
(237.031 0 0)
(237.054 0 0)
(237.08 0 0)
(237.124 0 0)
(237.197 0 0)
(237.257 0 0)
(237.287 0 0)
(237.308 0 0)
(237.324 0 0)
(237.325 0 0)
(237.321 0 0)
(237.336 0 0)
(237.357 0 0)
(237.379 0 0)
(237.402 0 0)
(237.434 0 0)
(237.488 0 0)
(237.547 0 0)
(237.579 0 0)
(237.601 0 0)
(237.618 0 0)
(237.625 0 0)
(237.633 0 0)
(237.653 0 0)
(237.674 0 0)
(237.697 0 0)
(237.725 0 0)
(237.773 0 0)
(237.832 0 0)
(237.866 0 0)
(237.887 0 0)
(237.905 0 0)
(237.911 0 0)
(237.905 0 0)
(237.917 0 0)
(237.937 0 0)
(237.959 0 0)
(237.981 0 0)
(238.004 0 0)
(238.028 0 0)
(238.066 0 0)
(238.131 0 0)
(238.194 0 0)
(238.226 0 0)
(238.248 0 0)
(238.265 0 0)
(238.272 0 0)
(238.272 0 0)
(238.288 0 0)
(238.309 0 0)
(238.331 0 0)
(238.354 0 0)
(238.384 0 0)
(238.434 0 0)
(238.491 0 0)
(238.523 0 0)
(238.544 0 0)
(238.563 0 0)
(238.579 0 0)
(238.6 0 0)
(238.622 0 0)
(238.645 0 0)
(238.67 0 0)
(238.697 0 0)
(238.72 0 0)
(238.742 0 0)
(238.762 0 0)
(238.777 0 0)
(238.784 0 0)
(238.8 0 0)
(238.821 0 0)
(238.843 0 0)
(238.866 0 0)
(238.895 0 0)
(238.946 0 0)
(239.025 0 0)
(239.079 0 0)
(239.106 0 0)
(239.127 0 0)
(239.142 0 0)
(239.141 0 0)
(239.139 0 0)
(239.155 0 0)
(239.177 0 0)
(239.199 0 0)
(239.223 0 0)
(239.259 0 0)
(239.322 0 0)
(239.386 0 0)
(239.42 0 0)
(239.442 0 0)
(239.459 0 0)
(239.465 0 0)
(239.451 0 0)
(239.455 0 0)
(239.473 0 0)
(239.495 0 0)
(239.517 0 0)
(239.539 0 0)
(239.561 0 0)
(239.584 0 0)
(239.607 0 0)
(239.637 0 0)
(239.69 0 0)
(239.766 0 0)
(239.814 0 0)
(239.839 0 0)
(239.859 0 0)
(239.873 0 0)
(239.87 0 0)
(239.87 0 0)
(239.888 0 0)
(239.91 0 0)
(239.932 0 0)
(239.957 0 0)
(239.997 0 0)
(240.065 0 0)
(240.132 0 0)
(240.165 0 0)
(240.187 0 0)
(240.205 0 0)
(240.212 0 0)
(240.2 0 0)
(240.205 0 0)
(240.224 0 0)
(240.246 0 0)
(240.268 0 0)
(240.29 0 0)
(240.312 0 0)
(240.335 0 0)
(240.357 0 0)
(240.38 0 0)
(240.41 0 0)
(240.46 0 0)
(240.532 0 0)
(240.577 0 0)
(240.601 0 0)
(240.622 0 0)
(240.635 0 0)
(240.634 0 0)
(240.64 0 0)
(240.659 0 0)
(240.681 0 0)
(240.704 0 0)
(240.729 0 0)