/*--------------------------------*- C++ -*----------------------------------*\
  =========                 |
  \\      /  F ield         | OpenFOAM: The Open Source CFD Toolbox
   \\    /   O peration     | Website:  https://openfoam.org
    \\  /    A nd           | Version:  9
     \\/     M anipulation  |
\*---------------------------------------------------------------------------*/
FoamFile
{
    format      ascii;
    class       volScalarField;
    location    "0.033";
    object      mag(U);
}
// * * * * * * * * * * * * * * * * * * * * * * * * * * * * * * * * * * * * * //

dimensions      [0 1 -1 0 0 0 0];

internalField   nonuniform List<scalar> 
1000
(
15.3989
15.8086
16.3766
16.7508
17.0881
17.4441
17.8192
18.2006
18.578
18.9522
19.3272
19.7028
20.0788
20.4548
20.8305
21.2063
21.5821
21.9579
22.3338
22.7096
23.0856
23.4617
23.8379
24.2141
24.5903
24.9665
25.3427
25.7189
26.0951
26.4712
26.8474
27.2235
27.5996
27.9758
28.3519
28.7281
29.1043
29.4805
29.8567
30.2329
30.6091
30.9854
31.3616
31.7379
32.1142
32.4906
32.8669
33.2432
33.6196
33.996
34.3724
34.7488
35.1252
35.5017
35.8781
36.2546
36.6311
37.0076
37.3841
37.7607
38.1372
38.5138
38.8903
39.2669
39.6435
40.0201
40.3968
40.7734
41.1501
41.5267
41.9034
42.2801
42.6568
43.0335
43.4103
43.787
44.1638
44.5406
44.9173
45.2941
45.6709
46.0478
46.4246
46.8014
47.1783
47.5551
47.932
48.3089
48.6857
49.0627
49.4395
49.8165
50.1935
50.5703
50.9474
51.3244
51.7012
52.0783
52.4553
52.8322
53.2094
53.5864
53.9632
54.3405
54.7174
55.0943
55.4716
55.8487
56.2256
56.6029
56.98
57.3568
57.734
58.1114
58.4883
58.8654
59.2429
59.6198
59.9967
60.3742
60.7513
61.1282
61.5056
61.883
62.2598
62.6369
63.0145
63.3915
63.7684
64.1459
64.5233
64.9001
65.2773
65.6549
66.0319
66.4088
66.7863
67.1638
67.5406
67.9177
68.2953
68.6724
69.0493
69.4266
69.8042
70.1811
70.5581
70.9357
71.3129
71.6898
72.0669
72.4446
72.8216
73.1985
73.5758
73.9534
74.3303
74.7072
75.0845
75.4621
75.8389
76.2158
76.5931
76.9707
77.3474
77.7242
78.1016
78.4791
78.8558
79.2326
79.6098
79.9873
80.364
80.7407
81.1178
81.4953
81.8721
82.2487
82.6257
83.0031
83.3799
83.7565
84.1333
84.5106
84.8875
85.264
85.6406
86.0178
86.3948
86.7711
87.1476
87.5246
87.9017
88.278
88.6543
89.0309
89.408
89.7845
90.1607
90.537
90.9138
91.2905
91.6666
92.0426
92.419
92.7958
93.172
93.5479
93.9239
94.3002
94.6766
95.0525
95.4284
95.8044
96.1807
96.5565
96.9321
97.3077
97.6837
98.0598
98.4355
98.8108
99.1862
99.5618
99.9374
100.313
100.688
101.063
101.439
101.814
102.189
102.563
102.938
103.313
103.688
104.063
104.438
104.813
105.188
105.562
105.935
106.308
106.682
107.056
107.432
107.807
108.182
108.555
108.928
109.3
109.671
110.042
110.414
110.788
111.163
111.539
111.915
112.288
112.66
113.03
113.399
113.766
114.134
114.502
114.872
115.246
115.623
116.001
116.378
116.753
117.125
117.494
117.86
118.224
118.587
118.949
119.31
119.672
120.037
120.406
120.781
121.159
121.54
121.92
122.298
122.674
123.047
123.417
123.785
124.149
124.511
124.87
125.227
125.581
125.932
126.282
126.63
126.976
127.321
127.664
128.007
128.348
128.69
129.032
129.374
129.716
130.058
130.399
130.74
131.079
131.417
131.751
132.08
132.393
132.699
133.002
133.304
133.598
133.891
134.179
134.464
134.749
135.036
135.326
135.615
135.903
136.194
136.488
136.786
137.087
137.39
137.696
138.004
138.315
138.627
138.94
139.255
139.572
139.889
140.207
140.528
140.85
141.173
141.497
141.821
142.143
142.466
142.79
143.115
143.441
143.767
144.093
144.419
144.746
145.072
145.399
145.725
146.05
146.376
146.702
147.03
147.36
147.692
148.027
148.365
148.706
149.048
149.391
149.733
150.073
150.407
150.732
151.045
151.348
151.644
151.927
152.205
152.471
152.73
152.983
153.236
153.489
153.74
153.989
154.239
154.49
154.743
154.996
155.249
155.505
155.763
156.023
156.287
156.555
156.826
157.101
157.379
157.663
157.955
158.255
158.566
158.887
159.213
159.539
159.854
160.16
160.443
160.716
160.963
161.199
161.417
161.623
161.823
162.015
162.207
162.398
162.59
162.784
162.982
163.187
163.401
163.628
163.871
164.134
164.416
164.712
165.011
165.299
165.568
165.813
166.036
166.238
166.419
166.59
166.744
166.894
167.036
167.169
167.303
167.429
167.553
167.677
167.797
167.918
168.039
168.159
168.281
168.406
168.534
168.668
168.809
168.961
169.127
169.313
169.523
169.761
170.029
170.32
170.617
170.909
171.181
171.43
171.652
171.849
172.029
172.191
172.348
172.497
172.644
172.793
172.948
173.117
173.306
173.516
173.74
173.966
174.177
174.369
174.536
174.686
174.822
174.952
175.085
175.221
175.362
175.51
175.67
175.845
176.036
176.238
176.44
176.634
176.811
176.97
177.111
177.239
177.359
177.479
177.603
177.735
177.88
178.044
178.229
178.434
178.647
178.858
179.057
179.235
179.39
179.523
179.629
179.723
179.801
179.873
179.947
180.026
180.119
180.233
180.373
180.54
180.728
180.925
181.121
181.311
181.488
181.66
181.822
181.979
182.131
182.279
182.427
182.577
182.735
182.904
183.093
183.308
183.556
183.837
184.142
184.453
184.753
185.03
185.275
185.491
185.676
185.833
185.976
186.105
186.232
186.365
186.511
186.675
186.863
187.072
187.289
187.504
187.697
187.872
188.022
188.15
188.267
188.369
188.468
188.568
188.673
188.786
188.913
189.057
189.223
189.417
189.645
189.912
190.215
190.543
190.875
191.199
191.492
191.747
191.97
192.163
192.332
192.48
192.607
192.732
192.858
192.987
193.128
193.29
193.485
193.721
193.994
194.283
194.57
194.826
195.045
195.226
195.376
195.497
195.611
195.725
195.848
195.992
196.158
196.335
196.511
196.667
196.8
196.914
197.014
197.103
197.179
197.258
197.347
197.448
197.566
197.7
197.856
198.034
198.234
198.452
198.685
198.936
199.209
199.506
199.829
200.171
200.519
200.869
201.186
201.467
201.707
201.876
202.015
202.13
202.228
202.328
202.424
202.524
202.635
202.769
202.937
203.149
203.412
203.715
204.032
204.332
204.592
204.805
204.981
205.119
205.232
205.323
205.417
205.527
205.664
205.841
206.063
206.316
206.576
206.809
207.007
207.165
207.286
207.383
207.451
207.516
207.59
207.678
207.791
207.942
208.142
208.392
208.673
208.961
209.214
209.441
209.603
209.73
209.837
209.914
209.986
210.065
210.157
210.273
210.425
210.625
210.873
211.145
211.418
211.644
211.837
211.968
212.061
212.137
212.195
212.259
212.339
212.439
212.558
212.698
212.863
213.057
213.288
213.564
213.878
214.209
214.519
214.792
214.982
215.099
215.197
215.243
215.257
215.255
215.253
215.262
215.292
215.35
215.436
215.539
215.643
215.745
215.844
215.947
216.057
216.18
216.316
216.466
216.629
216.803
216.988
217.179
217.383
217.619
217.898
218.203
218.52
218.764
219.004
219.045
218.96
218.816
218.664
218.577
218.513
218.491
218.512
218.567
218.643
218.721
218.786
218.829
218.863
218.859
218.844
218.818
218.805
218.807
218.82
218.852
218.895
218.937
218.968
218.988
219.009
219.033
219.058
219.087
219.121
219.156
219.183
219.197
219.192
219.186
219.181
219.179
219.179
219.185
219.182
219.175
219.161
219.142
219.135
219.163
219.234
219.327
219.418
219.476
219.537
219.535
219.517
219.481
219.428
219.364
219.305
219.258
219.197
219.14
219.139
219.143
219.147
219.127
219.084
219.027
218.97
218.912
218.866
218.819
218.847
218.928
219.063
219.214
219.389
219.393
219.332
219.233
219.192
219.251
219.416
219.635
219.883
219.859
219.793
219.815
219.927
220.21
220.529
220.542
220.522
220.585
220.727
220.831
220.905
220.955
220.925
220.764
220.492
220.2
219.937
219.706
219.475
219.277
219.145
219.006
218.958
219.068
219.12
219.17
219.434
219.699
219.847
220.113
220.28
220.293
220.22
220.201
220.417
220.77
220.927
220.991
221.028
221.007
220.956
221.078
221.263
221.253
221.11
220.994
221.102
221.21
221.124
220.887
220.578
220.456
220.473
220.433
220.39
220.351
220.161
220.108
220.278
220.48
220.675
220.805
220.778
220.826
221.065
221.334
221.482
221.613
221.884
221.978
221.807
221.752
222.16
222.704
222.758
222.737
222.728
222.853
223.227
223.627
223.689
223.676
223.893
224.248
224.408
224.37
224.367
224.594
224.835
224.902
224.893
224.976
225.268
225.501
225.585
225.654
225.702
225.763
225.903
225.985
226.021
226.084
226.275
226.615
226.876
227.061
227.136
227.093
227.024
226.985
227.021
227.3
227.729
227.849
227.867
227.864
227.85
227.827
227.885
228.141
228.517
228.924
229.148
229.151
229.071
229.217
229.694
229.87
229.878
229.896
229.918
229.987
230.226
230.532
230.709
230.904
231.268
231.672
231.844
231.939
232.091
232.291
232.56
232.941
233.264
233.474
233.655
233.902
234.234
234.479
234.619
234.732
234.879
235.229
235.689
236.096
236.547
236.985
237.197
237.319
237.504
237.709
237.901
238.198
238.633
239.017
239.344
239.76
240.145
240.349
240.562
240.838
241.043
241.232
241.464
241.74
242.076
242.376
)
;

boundaryField
{
    sides
    {
        type            calculated;
        value           nonuniform List<scalar> 2(242.376 15.3989);
    }
    empty
    {
        type            empty;
    }
}


// ************************************************************************* //
