/*--------------------------------*- C++ -*----------------------------------*\
  =========                 |
  \\      /  F ield         | OpenFOAM: The Open Source CFD Toolbox
   \\    /   O peration     | Website:  https://openfoam.org
    \\  /    A nd           | Version:  9
     \\/     M anipulation  |
\*---------------------------------------------------------------------------*/
FoamFile
{
    format      ascii;
    class       surfaceScalarField;
    location    "0.033";
    object      phi;
}
// * * * * * * * * * * * * * * * * * * * * * * * * * * * * * * * * * * * * * //

dimensions      [1 0 -1 0 0 0 0];

internalField   nonuniform List<scalar> 
999
(
17.7723
18.1928
18.6132
19.0336
19.4538
19.8739
20.2939
20.7137
21.1335
21.5531
21.9727
22.3921
22.8115
23.2307
23.6499
24.069
24.488
24.9069
25.3257
25.7444
26.1629
26.5813
26.9998
27.4182
27.8366
28.2551
28.6736
29.0921
29.5106
29.929
30.3475
30.7658
31.1842
31.6024
32.0206
32.4387
32.8567
33.2746
33.6925
34.1102
34.5279
34.9455
35.363
35.7804
36.1977
36.615
37.0321
37.4492
37.8662
38.2831
38.6999
39.1167
39.5333
39.9498
40.3663
40.7827
41.199
41.6152
42.0313
42.4473
42.8633
43.2791
43.6949
44.1106
44.5262
44.9416
45.3571
45.7723
46.1876
46.6027
47.0178
47.4328
47.8476
48.2624
48.6771
49.0917
49.5062
49.9207
50.3349
50.7493
51.1632
51.5774
51.9913
52.4051
52.8191
53.2325
53.6463
54.0598
54.473
54.8866
55.2996
55.7127
56.1259
56.5386
56.9516
57.3645
57.7767
58.1895
58.6021
59.0141
59.4267
59.8389
60.2506
60.6628
61.0749
61.4862
61.8982
62.3101
62.721
63.1326
63.5443
63.9549
64.366
64.7777
65.1882
65.5987
66.01
66.4205
66.8304
67.2412
67.652
68.0615
68.4717
68.8824
69.2919
69.7011
70.1115
70.5214
70.9301
71.3396
71.7497
72.1584
72.5669
72.9766
73.3858
73.7939
74.2025
74.6119
75.0201
75.4278
75.8365
76.2452
76.6526
77.0603
77.4688
77.8767
78.2836
78.6912
79.0994
79.5064
79.9129
80.3204
80.7281
81.1345
81.5406
81.9478
82.3551
82.7609
83.1665
83.5735
83.9803
84.3855
84.7907
85.1973
85.6038
86.0085
86.4131
86.8192
87.2254
87.6298
88.0337
88.4392
88.8451
89.2493
89.6526
90.0574
90.4629
90.867
91.2698
91.6738
92.0789
92.4828
92.8852
93.2884
93.6929
94.0967
94.4987
94.9009
95.3049
95.7087
96.1105
96.5117
96.9147
97.3186
97.7206
98.1209
98.5224
98.9258
99.3285
99.7288
100.129
100.531
100.934
101.335
101.734
102.134
102.536
102.938
103.337
103.736
104.137
104.538
104.938
105.337
105.736
106.136
106.536
106.935
107.333
107.732
108.132
108.532
108.929
109.326
109.724
110.124
110.523
110.92
111.316
111.714
112.113
112.51
112.906
113.301
113.699
114.098
114.495
114.89
115.285
115.681
116.078
116.473
116.867
117.263
117.66
118.058
118.453
118.846
119.239
119.632
120.026
120.419
120.812
121.205
121.602
121.999
122.395
122.787
123.178
123.568
123.959
124.349
124.737
125.126
125.518
125.913
126.311
126.707
127.101
127.493
127.884
128.274
128.661
129.046
129.43
129.814
130.199
130.585
130.972
131.362
131.755
132.152
132.55
132.946
133.34
133.731
134.121
134.51
134.898
135.282
135.664
136.045
136.424
136.803
137.18
137.555
137.928
138.301
138.674
139.047
139.418
139.788
140.158
140.529
140.9
141.271
141.641
142.009
142.379
142.746
143.113
143.475
143.828
144.173
144.538
144.89
145.236
145.578
145.918
146.258
146.598
146.937
147.278
147.62
147.962
148.304
148.648
148.995
149.343
149.692
150.043
150.395
150.748
151.103
151.46
151.819
152.179
152.539
152.9
153.262
153.625
153.988
154.351
154.714
155.077
155.44
155.804
156.169
156.534
156.9
157.266
157.631
157.997
158.363
158.729
159.095
159.461
159.827
160.193
160.56
160.928
161.297
161.667
162.04
162.414
162.79
163.166
163.542
163.917
164.29
164.66
165.023
165.381
165.732
166.079
166.42
166.758
167.093
167.424
167.755
168.084
168.413
168.742
169.07
169.4
169.729
170.06
170.391
170.723
171.057
171.393
171.732
172.072
172.414
172.758
173.104
173.453
173.806
174.163
174.526
174.895
175.269
175.644
176.015
176.38
176.737
177.085
177.424
177.754
178.077
178.392
178.703
179.012
179.319
179.626
179.934
180.243
180.554
180.87
181.19
181.515
181.848
182.192
182.545
182.909
183.279
183.644
183.999
184.344
184.677
184.999
185.311
185.615
185.915
186.21
186.502
186.791
187.08
187.367
187.652
187.938
188.223
188.506
188.79
189.074
189.362
189.65
189.938
190.23
190.525
190.827
191.133
191.447
191.774
192.117
192.472
192.84
193.219
193.597
193.963
194.321
194.669
195.002
195.325
195.638
195.945
196.25
196.552
196.857
197.164
197.477
197.802
198.14
198.481
198.827
199.174
199.512
199.837
200.152
200.46
200.765
201.069
201.37
201.671
201.978
202.291
202.617
202.957
203.302
203.646
203.984
204.32
204.645
204.959
205.266
205.567
205.87
206.178
206.487
206.801
207.124
207.458
207.805
208.16
208.516
208.865
209.208
209.539
209.857
210.165
210.468
210.761
211.047
211.338
211.633
211.931
212.237
212.55
212.881
213.23
213.582
213.935
214.286
214.631
214.969
215.306
215.645
215.978
216.308
216.638
216.969
217.304
217.637
217.979
218.337
218.712
219.105
219.51
219.926
220.341
220.744
221.13
221.502
221.86
222.207
222.541
222.869
223.193
223.515
223.845
224.189
224.551
224.923
225.295
225.668
226.041
226.403
226.751
227.091
227.423
227.746
228.065
228.39
228.716
229.038
229.37
229.716
230.067
230.428
230.806
231.197
231.606
232.038
232.483
232.923
233.349
233.748
234.128
234.498
234.861
235.22
235.57
235.91
236.245
236.58
236.924
237.284
237.656
238.041
238.451
238.875
239.302
239.722
240.127
240.513
240.875
241.216
241.548
241.883
242.23
242.601
242.983
243.361
243.732
244.092
244.442
244.796
245.151
245.496
245.828
246.156
246.489
246.831
247.185
247.553
247.931
248.309
248.692
249.087
249.49
249.904
250.332
250.771
251.214
251.651
252.09
252.535
252.976
253.407
253.817
254.207
254.583
254.946
255.306
255.661
256.015
256.377
256.75
257.133
257.519
257.925
258.359
258.805
259.265
259.724
260.16
260.572
260.959
261.34
261.708
262.064
262.413
262.762
263.119
263.496
263.889
264.298
264.736
265.179
265.612
266.029
266.426
266.807
267.165
267.517
267.874
268.231
268.605
268.992
269.397
269.823
270.268
270.72
271.154
271.574
271.983
272.386
272.784
273.167
273.549
273.928
274.298
274.665
275.03
275.408
275.82
276.269
276.736
277.203
277.646
278.072
278.484
278.869
279.236
279.598
279.956
280.316
280.693
281.084
281.474
281.875
282.302
282.75
283.223
283.728
284.241
284.738
285.198
285.628
286.012
286.377
286.738
287.066
287.401
287.763
288.123
288.492
288.897
289.341
289.794
290.229
290.63
291.018
291.41
291.789
292.158
292.558
292.987
293.45
293.934
294.416
294.876
295.308
295.744
296.227
296.733
297.254
297.75
298.211
298.586
298.9
299.205
299.536
299.907
300.281
300.655
301.058
301.512
301.987
302.45
302.859
303.229
303.613
304.007
304.412
304.789
305.159
305.559
305.974
306.412
306.851
307.283
307.742
308.178
308.594
309
309.406
309.829
310.255
310.694
311.125
311.54
311.948
312.364
312.778
313.202
313.633
314.093
314.58
315.069
315.533
315.983
316.417
316.873
317.402
317.899
318.374
318.84
319.337
319.837
320.316
320.826
321.309
321.719
322.107
322.504
322.912
323.303
323.695
324.131
324.595
325.043
325.469
325.926
326.405
326.875
327.356
327.855
328.395
328.93
329.509
330.063
330.579
331.071
331.598
332.165
332.75
333.425
334.154
334.78
335.358
335.987
336.7
337.442
338.124
338.866
339.582
340.25
340.892
341.421
341.875
342.419
342.983
343.211
342.798
341.889
340.909
339.841
338.963
338.18
336.826
337.254
336.861
334.753
337.932
339.041
337.179
339.386
341.407
340.4
338.988
344.88
345.79
345.124
343.463
341.043
349.176
350.127
350.374
350.449
349.983
348.142
347.47
353.514
353.706
352.787
349.95
351.389
356.712
356.907
356.89
353.714
352.048
356.964
357.365
356.34
354.683
353.426
353.168
357.125
357.752
357.392
356.938
355.034
354.534
361.447
362.316
362.572
362.825
363.004
362.655
361.638
359.002
362.995
367.054
367.111
367.235
366.391
364.209
367.882
369.195
368.419
366.243
369.056
373.409
373.23
372.746
370.418
373.748
377.225
377.143
376.515
374.182
378.603
381.026
381.124
381.04
380.229
378.621
383.15
384.42
384.228
383.945
381.583
384.988
388.002
388.268
388.32
387.963
387.233
388.103
387.734
385.412
388.118
391.24
391.541
391.265
390.898
390.24
388.14
391.14
393.652
393.9
394.256
394.435
393.179
391.484
396.94
397.685
397.935
398.223
398.019
397.179
396.304
398.948
398.942
397.655
399.159
401.151
400.96
399.778
402.22
403.634
403.46
402.407
405.673
406.719
406.918
405.53
407.501
410.236
410.864
410.992
409.77
409.298
413.714
414.698
415.534
416.504
416.535
414.235
415.302
417.86
418.493
418.844
422.058
422.659
419.262
418.841
422.405
422.708
423.053
424.922
425.413
422.257
422.74
428.323
430.9
431.796
)
;

boundaryField
{
    sides
    {
        type            calculated;
        value           nonuniform List<scalar> 2(429.184 -17.3515);
    }
    empty
    {
        type            empty;
        value           nonuniform List<scalar> 0();
    }
}


// ************************************************************************* //
