/*--------------------------------*- C++ -*----------------------------------*\
  =========                 |
  \\      /  F ield         | OpenFOAM: The Open Source CFD Toolbox
   \\    /   O peration     | Website:  https://openfoam.org
    \\  /    A nd           | Version:  9
     \\/     M anipulation  |
\*---------------------------------------------------------------------------*/
FoamFile
{
    format      ascii;
    class       volScalarField;
    location    "0.05";
    object      p;
}
// * * * * * * * * * * * * * * * * * * * * * * * * * * * * * * * * * * * * * //

dimensions      [1 -1 -2 0 0 0 0];

internalField   nonuniform List<scalar> 
100
(
11450.4
11439.6
11410
11380.7
11369.6
11354.3
11338.2
11324.4
11311.6
11299.5
11288.5
11278.5
11269.6
11261.7
11255.1
11249.6
11245.5
11242.7
11241.6
11241.6
11241.7
11241.9
11242.4
11243.8
11247
11255.3
11273.4
11308
11376.1
11515.4
11665.6
11708.8
11736.5
11762.6
11809.3
11875
11942.1
12003.9
12059.8
12105.2
12148.4
12195.3
12246.6
12307.6
12376.6
12450.4
12523.7
12594.6
12664.6
12728.2
12788.2
12845.4
12930.3
13100.8
13448.9
14183.2
15843.9
20231.4
26639.9
25343.4
19887.9
17420.4
17573
17870.3
18184
18722.8
18880.9
18870.1
18843
18820.7
18816
18813
18806
18800.4
18794.3
18789
18786.3
18785
18782.8
18780.4
18778.4
18776.8
18774.9
18771.5
18771.5
18771.6
18771.4
18772.9
18771.5
18769.8
18770.3
18773.4
18763.9
18764.7
18776.8
18773.5
18763.2
18761.1
18761.6
18774.7
)
;

boundaryField
{
    sides
    {
        type            zeroGradient;
    }
    empty
    {
        type            empty;
    }
}


// ************************************************************************* //
