/*--------------------------------*- C++ -*----------------------------------*\
  =========                 |
  \\      /  F ield         | OpenFOAM: The Open Source CFD Toolbox
   \\    /   O peration     | Website:  https://openfoam.org
    \\  /    A nd           | Version:  9
     \\/     M anipulation  |
\*---------------------------------------------------------------------------*/
FoamFile
{
    format      ascii;
    class       volScalarField;
    location    "0.05";
    object      T;
}
// * * * * * * * * * * * * * * * * * * * * * * * * * * * * * * * * * * * * * //

dimensions      [0 0 0 1 0 0 0];

internalField   nonuniform List<scalar> 
100
(
186.576
186.515
186.442
186.335
186.294
186.274
186.234
186.204
186.19
186.169
186.151
186.148
186.15
186.159
186.181
186.213
186.259
186.316
186.372
186.418
186.449
186.472
186.494
186.514
186.532
186.563
186.632
186.777
187.083
187.733
188.433
188.635
188.754
188.877
189.052
189.379
189.69
189.935
190.274
190.441
190.56
190.849
191.095
191.285
191.639
192.071
192.293
192.54
192.964
193.251
193.378
193.638
194.176
194.909
196.363
199.434
206.283
221.817
239.5
235.851
220.474
211.883
212.29
213.209
214.3
216.23
216.682
216.488
216.396
216.384
216.388
216.402
216.409
216.392
216.332
216.306
216.33
216.381
216.378
216.338
216.306
216.308
216.345
216.361
216.357
216.322
216.291
216.295
216.304
216.326
216.338
216.34
216.267
216.217
216.234
216.226
216.205
216.237
216.174
216.291
)
;

boundaryField
{
    sides
    {
        type            zeroGradient;
    }
    empty
    {
        type            empty;
    }
}


// ************************************************************************* //
