/*--------------------------------*- C++ -*----------------------------------*\
  =========                 |
  \\      /  F ield         | OpenFOAM: The Open Source CFD Toolbox
   \\    /   O peration     | Website:  https://openfoam.org
    \\  /    A nd           | Version:  9
     \\/     M anipulation  |
\*---------------------------------------------------------------------------*/
FoamFile
{
    format      ascii;
    class       surfaceScalarField;
    location    "0.01";
    object      phi;
}
// * * * * * * * * * * * * * * * * * * * * * * * * * * * * * * * * * * * * * //

dimensions      [0 3 -1 0 0 0 0];

internalField   nonuniform List<scalar> 
99
(
1.32373e-22
1.32369e-22
1.32366e-22
1.32364e-22
1.32363e-22
1.32364e-22
1.32366e-22
1.32369e-22
1.32371e-22
1.32374e-22
1.32378e-22
1.32381e-22
1.32385e-22
1.3239e-22
1.32395e-22
1.324e-22
1.32406e-22
1.32413e-22
1.3242e-22
1.32429e-22
1.32439e-22
1.3245e-22
1.32464e-22
1.32479e-22
1.32496e-22
1.32516e-22
1.32539e-22
1.32563e-22
1.3259e-22
1.32618e-22
1.32646e-22
1.32675e-22
1.32703e-22
1.32728e-22
1.3275e-22
1.32768e-22
1.32779e-22
1.32785e-22
1.32783e-22
1.32773e-22
1.32756e-22
1.32733e-22
1.32704e-22
1.32671e-22
1.32635e-22
1.32598e-22
1.32562e-22
1.3253e-22
1.32502e-22
1.3248e-22
1.32464e-22
1.32456e-22
1.32454e-22
1.32459e-22
1.3247e-22
1.32485e-22
1.32502e-22
1.32521e-22
1.32539e-22
1.32556e-22
1.3257e-22
1.32581e-22
1.32587e-22
1.3259e-22
1.32588e-22
1.32583e-22
1.32574e-22
1.32563e-22
1.3255e-22
1.32536e-22
1.32522e-22
1.32508e-22
1.32494e-22
1.3248e-22
1.32468e-22
1.32457e-22
1.32447e-22
1.32437e-22
1.32429e-22
1.32422e-22
1.32415e-22
1.32409e-22
1.32404e-22
1.32399e-22
1.32394e-22
1.3239e-22
1.32386e-22
1.32382e-22
1.32379e-22
1.32375e-22
1.32372e-22
1.3237e-22
1.32367e-22
1.32365e-22
1.32364e-22
1.32364e-22
1.32366e-22
1.3237e-22
1.32373e-22
)
;

boundaryField
{
    inlet
    {
        type            calculated;
        value           uniform -1.32372e-22;
    }
    outlet
    {
        type            calculated;
        value           uniform 1.32372e-22;
    }
    lowerWall
    {
        type            empty;
        value           nonuniform List<scalar> 0();
    }
    upperWall
    {
        type            empty;
        value           nonuniform List<scalar> 0();
    }
    frontAndBack
    {
        type            empty;
        value           nonuniform List<scalar> 0();
    }
}


// ************************************************************************* //
