/*--------------------------------*- C++ -*----------------------------------*\
  =========                 |
  \\      /  F ield         | OpenFOAM: The Open Source CFD Toolbox
   \\    /   O peration     | Website:  https://openfoam.org
    \\  /    A nd           | Version:  9
     \\/     M anipulation  |
\*---------------------------------------------------------------------------*/
FoamFile
{
    format      ascii;
    class       volScalarField;
    location    "0.01";
    object      Ux;
}
// * * * * * * * * * * * * * * * * * * * * * * * * * * * * * * * * * * * * * //

dimensions      [0 1 -1 0 0 0 0];

internalField   nonuniform List<scalar> 
100
(
3.30931e-23
3.30934e-23
3.30916e-23
3.30909e-23
3.30908e-23
3.30909e-23
3.30913e-23
3.30918e-23
3.30925e-23
3.30932e-23
3.3094e-23
3.30949e-23
3.30958e-23
3.30969e-23
3.3098e-23
3.30993e-23
3.31007e-23
3.31023e-23
3.3104e-23
3.31061e-23
3.31084e-23
3.31111e-23
3.31141e-23
3.31177e-23
3.31218e-23
3.31266e-23
3.31317e-23
3.31373e-23
3.3144e-23
3.31542e-23
3.31641e-23
3.3145e-23
3.30771e-23
3.31997e-23
3.41322e-23
3.47072e-23
2.68927e-23
7.29441e-24
4.64908e-23
3.04678e-22
3.97682e-22
-1.90035e-21
-6.94839e-21
5.89246e-21
7.7365e-20
8.15813e-20
-6.03077e-19
4.36496e-19
4.36496e-19
-6.03077e-19
8.15813e-20
7.73649e-20
5.8924e-21
-6.94846e-21
-1.90042e-21
3.9761e-22
3.04607e-22
4.64225e-23
7.23123e-24
2.68361e-23
3.46582e-23
3.40912e-23
3.31668e-23
3.3052e-23
3.31271e-23
3.31526e-23
3.3148e-23
3.31422e-23
3.31389e-23
3.31358e-23
3.31323e-23
3.31287e-23
3.31251e-23
3.31217e-23
3.31185e-23
3.31156e-23
3.31129e-23
3.31105e-23
3.31083e-23
3.31064e-23
3.31046e-23
3.31031e-23
3.31017e-23
3.31003e-23
3.30991e-23
3.3098e-23
3.3097e-23
3.3096e-23
3.30951e-23
3.30943e-23
3.30935e-23
3.30928e-23
3.30921e-23
3.30916e-23
3.30911e-23
3.3091e-23
3.30911e-23
3.30917e-23
3.30935e-23
3.30931e-23
)
;

boundaryField
{
    inlet
    {
        type            calculated;
        value           uniform 3.30931e-23;
    }
    outlet
    {
        type            calculated;
        value           uniform 3.30931e-23;
    }
    lowerWall
    {
        type            empty;
    }
    upperWall
    {
        type            empty;
    }
    frontAndBack
    {
        type            empty;
    }
}


// ************************************************************************* //
