/*--------------------------------*- C++ -*----------------------------------*\
  =========                 |
  \\      /  F ield         | OpenFOAM: The Open Source CFD Toolbox
   \\    /   O peration     | Website:  https://openfoam.org
    \\  /    A nd           | Version:  9
     \\/     M anipulation  |
\*---------------------------------------------------------------------------*/
FoamFile
{
    format      ascii;
    class       volVectorField;
    location    "0.034";
    object      U;
}
// * * * * * * * * * * * * * * * * * * * * * * * * * * * * * * * * * * * * * //

dimensions      [0 1 -1 0 0 0 0];

internalField   nonuniform List<vector> 
1000
(
(15.7831 0 0)
(16.1725 0 0)
(16.7236 0 0)
(17.0925 0 0)
(17.4151 0 0)
(17.7566 0 0)
(18.118 0 0)
(18.4861 0 0)
(18.8511 0 0)
(19.212 0 0)
(19.5737 0 0)
(19.9362 0 0)
(20.299 0 0)
(20.6617 0 0)
(21.0243 0 0)
(21.387 0 0)
(21.7497 0 0)
(22.1124 0 0)
(22.4751 0 0)
(22.8377 0 0)
(23.2004 0 0)
(23.5632 0 0)
(23.926 0 0)
(24.2889 0 0)
(24.6519 0 0)
(25.015 0 0)
(25.378 0 0)
(25.7411 0 0)
(26.1042 0 0)
(26.4672 0 0)
(26.8302 0 0)
(27.1932 0 0)
(27.5562 0 0)
(27.9192 0 0)
(28.2821 0 0)
(28.6451 0 0)
(29.0081 0 0)
(29.3711 0 0)
(29.7341 0 0)
(30.0971 0 0)
(30.4601 0 0)
(30.8232 0 0)
(31.1862 0 0)
(31.5493 0 0)
(31.9124 0 0)
(32.2755 0 0)
(32.6386 0 0)
(33.0017 0 0)
(33.3648 0 0)
(33.728 0 0)
(34.0911 0 0)
(34.4543 0 0)
(34.8175 0 0)
(35.1807 0 0)
(35.5439 0 0)
(35.9071 0 0)
(36.2703 0 0)
(36.6335 0 0)
(36.9968 0 0)
(37.3601 0 0)
(37.7233 0 0)
(38.0866 0 0)
(38.4499 0 0)
(38.8132 0 0)
(39.1766 0 0)
(39.5399 0 0)
(39.9032 0 0)
(40.2665 0 0)
(40.6299 0 0)
(40.9933 0 0)
(41.3567 0 0)
(41.72 0 0)
(42.0834 0 0)
(42.4468 0 0)
(42.8102 0 0)
(43.1737 0 0)
(43.5371 0 0)
(43.9006 0 0)
(44.264 0 0)
(44.6274 0 0)
(44.991 0 0)
(45.3543 0 0)
(45.7179 0 0)
(46.0814 0 0)
(46.4448 0 0)
(46.8085 0 0)
(47.1719 0 0)
(47.5353 0 0)
(47.899 0 0)
(48.2624 0 0)
(48.626 0 0)
(48.9896 0 0)
(49.353 0 0)
(49.7167 0 0)
(50.0803 0 0)
(50.4436 0 0)
(50.8073 0 0)
(51.171 0 0)
(51.5344 0 0)
(51.8982 0 0)
(52.2618 0 0)
(52.6252 0 0)
(52.9888 0 0)
(53.3526 0 0)
(53.7159 0 0)
(54.0796 0 0)
(54.4435 0 0)
(54.8068 0 0)
(55.1704 0 0)
(55.5344 0 0)
(55.8977 0 0)
(56.2612 0 0)
(56.6251 0 0)
(56.9887 0 0)
(57.3521 0 0)
(57.7159 0 0)
(58.0798 0 0)
(58.443 0 0)
(58.8066 0 0)
(59.1707 0 0)
(59.534 0 0)
(59.8974 0 0)
(60.2614 0 0)
(60.6251 0 0)
(60.9884 0 0)
(61.352 0 0)
(61.7161 0 0)
(62.0794 0 0)
(62.4428 0 0)
(62.8068 0 0)
(63.1705 0 0)
(63.5337 0 0)
(63.8973 0 0)
(64.2614 0 0)
(64.6247 0 0)
(64.988 0 0)
(65.3518 0 0)
(65.7157 0 0)
(66.0789 0 0)
(66.4423 0 0)
(66.8063 0 0)
(67.1698 0 0)
(67.533 0 0)
(67.8965 0 0)
(68.2605 0 0)
(68.6238 0 0)
(68.9871 0 0)
(69.3507 0 0)
(69.7146 0 0)
(70.0777 0 0)
(70.441 0 0)
(70.8047 0 0)
(71.1684 0 0)
(71.5315 0 0)
(71.8947 0 0)
(72.2585 0 0)
(72.622 0 0)
(72.985 0 0)
(73.3482 0 0)
(73.712 0 0)
(74.0755 0 0)
(74.4384 0 0)
(74.8015 0 0)
(75.1652 0 0)
(75.5287 0 0)
(75.8916 0 0)
(76.2546 0 0)
(76.6181 0 0)
(76.9816 0 0)
(77.3444 0 0)
(77.7073 0 0)
(78.0706 0 0)
(78.4342 0 0)
(78.797 0 0)
(79.1597 0 0)
(79.5228 0 0)
(79.8863 0 0)
(80.2491 0 0)
(80.6117 0 0)
(80.9746 0 0)
(81.3379 0 0)
(81.7009 0 0)
(82.0633 0 0)
(82.426 0 0)
(82.7891 0 0)
(83.1522 0 0)
(83.5145 0 0)
(83.877 0 0)
(84.2397 0 0)
(84.6028 0 0)
(84.9652 0 0)
(85.3275 0 0)
(85.6899 0 0)
(86.0528 0 0)
(86.4153 0 0)
(86.7773 0 0)
(87.1394 0 0)
(87.5019 0 0)
(87.8646 0 0)
(88.2267 0 0)
(88.5886 0 0)
(88.9506 0 0)
(89.313 0 0)
(89.675 0 0)
(90.0365 0 0)
(90.3983 0 0)
(90.7604 0 0)
(91.1228 0 0)
(91.4847 0 0)
(91.846 0 0)
(92.2073 0 0)
(92.5687 0 0)
(92.9302 0 0)
(93.2913 0 0)
(93.6527 0 0)
(94.0144 0 0)
(94.3765 0 0)
(94.7381 0 0)
(95.099 0 0)
(95.4592 0 0)
(95.8196 0 0)
(96.18 0 0)
(96.5401 0 0)
(96.9005 0 0)
(97.2617 0 0)
(97.6236 0 0)
(97.9856 0 0)
(98.3466 0 0)
(98.7063 0 0)
(99.0653 0 0)
(99.424 0 0)
(99.7825 0 0)
(100.141 0 0)
(100.499 0 0)
(100.859 0 0)
(101.221 0 0)
(101.583 0 0)
(101.945 0 0)
(102.306 0 0)
(102.665 0 0)
(103.022 0 0)
(103.379 0 0)
(103.734 0 0)
(104.088 0 0)
(104.443 0 0)
(104.799 0 0)
(105.157 0 0)
(105.518 0 0)
(105.881 0 0)
(106.245 0 0)
(106.608 0 0)
(106.969 0 0)
(107.328 0 0)
(107.684 0 0)
(108.037 0 0)
(108.388 0 0)
(108.739 0 0)
(109.088 0 0)
(109.436 0 0)
(109.785 0 0)
(110.136 0 0)
(110.491 0 0)
(110.85 0 0)
(111.213 0 0)
(111.579 0 0)
(111.946 0 0)
(112.311 0 0)
(112.675 0 0)
(113.036 0 0)
(113.395 0 0)
(113.751 0 0)
(114.104 0 0)
(114.456 0 0)
(114.804 0 0)
(115.15 0 0)
(115.494 0 0)
(115.836 0 0)
(116.176 0 0)
(116.514 0 0)
(116.85 0 0)
(117.184 0 0)
(117.515 0 0)
(117.845 0 0)
(118.174 0 0)
(118.503 0 0)
(118.833 0 0)
(119.162 0 0)
(119.49 0 0)
(119.819 0 0)
(120.146 0 0)
(120.473 0 0)
(120.8 0 0)
(121.125 0 0)
(121.449 0 0)
(121.77 0 0)
(122.086 0 0)
(122.398 0 0)
(122.699 0 0)
(122.995 0 0)
(123.293 0 0)
(123.583 0 0)
(123.862 0 0)
(124.137 0 0)
(124.398 0 0)
(124.662 0 0)
(124.935 0 0)
(125.229 0 0)
(125.535 0 0)
(125.845 0 0)
(126.16 0 0)
(126.481 0 0)
(126.797 0 0)
(127.1 0 0)
(127.402 0 0)
(127.708 0 0)
(128.018 0 0)
(128.321 0 0)
(128.61 0 0)
(128.883 0 0)
(129.146 0 0)
(129.41 0 0)
(129.677 0 0)
(129.95 0 0)
(130.231 0 0)
(130.518 0 0)
(130.81 0 0)
(131.106 0 0)
(131.391 0 0)
(131.712 0 0)
(132.133 0 0)
(132.581 0 0)
(132.881 0 0)
(133.011 0 0)
(133.216 0 0)
(133.615 0 0)
(134.01 0 0)
(134.335 0 0)
(134.649 0 0)
(134.963 0 0)
(135.276 0 0)
(135.59 0 0)
(135.904 0 0)
(136.219 0 0)
(136.534 0 0)
(136.85 0 0)
(137.167 0 0)
(137.485 0 0)
(137.806 0 0)
(138.13 0 0)
(138.455 0 0)
(138.781 0 0)
(139.109 0 0)
(139.437 0 0)
(139.767 0 0)
(140.096 0 0)
(140.423 0 0)
(140.741 0 0)
(141.045 0 0)
(141.341 0 0)
(141.63 0 0)
(141.911 0 0)
(142.18 0 0)
(142.445 0 0)
(142.701 0 0)
(142.952 0 0)
(143.2 0 0)
(143.448 0 0)
(143.695 0 0)
(143.937 0 0)
(144.178 0 0)
(144.421 0 0)
(144.665 0 0)
(144.909 0 0)
(145.154 0 0)
(145.4 0 0)
(145.649 0 0)
(145.901 0 0)
(146.155 0 0)
(146.412 0 0)
(146.671 0 0)
(146.932 0 0)
(147.197 0 0)
(147.466 0 0)
(147.74 0 0)
(148.023 0 0)
(148.316 0 0)
(148.618 0 0)
(148.929 0 0)
(149.243 0 0)
(149.554 0 0)
(149.856 0 0)
(150.148 0 0)
(150.424 0 0)
(150.69 0 0)
(150.934 0 0)
(151.168 0 0)
(151.384 0 0)
(151.592 0 0)
(151.794 0 0)
(151.987 0 0)
(152.179 0 0)
(152.367 0 0)
(152.556 0 0)
(152.748 0 0)
(152.943 0 0)
(153.143 0 0)
(153.35 0 0)
(153.567 0 0)
(153.796 0 0)
(154.039 0 0)
(154.298 0 0)
(154.571 0 0)
(154.849 0 0)
(155.124 0 0)
(155.387 0 0)
(155.633 0 0)
(155.862 0 0)
(156.074 0 0)
(156.268 0 0)
(156.451 0 0)
(156.617 0 0)
(156.776 0 0)
(156.923 0 0)
(157.063 0 0)
(157.199 0 0)
(157.324 0 0)
(157.45 0 0)
(157.57 0 0)
(157.688 0 0)
(157.805 0 0)
(157.92 0 0)
(158.035 0 0)
(158.152 0 0)
(158.27 0 0)
(158.39 0 0)
(158.514 0 0)
(158.644 0 0)
(158.781 0 0)
(158.928 0 0)
(159.088 0 0)
(159.265 0 0)
(159.463 0 0)
(159.685 0 0)
(159.932 0 0)
(160.199 0 0)
(160.474 0 0)
(160.747 0 0)
(161.006 0 0)
(161.245 0 0)
(161.462 0 0)
(161.66 0 0)
(161.838 0 0)
(162.004 0 0)
(162.158 0 0)
(162.309 0 0)
(162.457 0 0)
(162.607 0 0)
(162.764 0 0)
(162.931 0 0)
(163.112 0 0)
(163.308 0 0)
(163.514 0 0)
(163.72 0 0)
(163.919 0 0)
(164.101 0 0)
(164.269 0 0)
(164.421 0 0)
(164.564 0 0)
(164.7 0 0)
(164.834 0 0)
(164.968 0 0)
(165.104 0 0)
(165.245 0 0)
(165.395 0 0)
(165.557 0 0)
(165.736 0 0)
(165.925 0 0)
(166.116 0 0)
(166.3 0 0)
(166.469 0 0)
(166.623 0 0)
(166.761 0 0)
(166.888 0 0)
(167.01 0 0)
(167.134 0 0)
(167.262 0 0)
(167.396 0 0)
(167.536 0 0)
(167.687 0 0)
(167.851 0 0)
(168.03 0 0)
(168.221 0 0)
(168.419 0 0)
(168.614 0 0)
(168.796 0 0)
(168.964 0 0)
(169.106 0 0)
(169.23 0 0)
(169.332 0 0)
(169.42 0 0)
(169.499 0 0)
(169.575 0 0)
(169.653 0 0)
(169.737 0 0)
(169.83 0 0)
(169.938 0 0)
(170.065 0 0)
(170.213 0 0)
(170.38 0 0)
(170.558 0 0)
(170.739 0 0)
(170.917 0 0)
(171.087 0 0)
(171.251 0 0)
(171.405 0 0)
(171.554 0 0)
(171.7 0 0)
(171.842 0 0)
(171.985 0 0)
(172.132 0 0)
(172.286 0 0)
(172.454 0 0)
(172.64 0 0)
(172.851 0 0)
(173.091 0 0)
(173.36 0 0)
(173.646 0 0)
(173.937 0 0)
(174.218 0 0)
(174.476 0 0)
(174.711 0 0)
(174.917 0 0)
(175.101 0 0)
(175.261 0 0)
(175.408 0 0)
(175.546 0 0)
(175.681 0 0)
(175.821 0 0)
(175.97 0 0)
(176.133 0 0)
(176.314 0 0)
(176.509 0 0)
(176.711 0 0)
(176.909 0 0)
(177.094 0 0)
(177.259 0 0)
(177.411 0 0)
(177.541 0 0)
(177.662 0 0)
(177.77 0 0)
(177.875 0 0)
(177.977 0 0)
(178.08 0 0)
(178.187 0 0)
(178.302 0 0)
(178.429 0 0)
(178.572 0 0)
(178.739 0 0)
(178.938 0 0)
(179.174 0 0)
(179.446 0 0)
(179.746 0 0)
(180.056 0 0)
(180.361 0 0)
(180.646 0 0)
(180.904 0 0)
(181.135 0 0)
(181.341 0 0)
(181.519 0 0)
(181.68 0 0)
(181.825 0 0)
(181.958 0 0)
(182.086 0 0)
(182.216 0 0)
(182.353 0 0)
(182.506 0 0)
(182.683 0 0)
(182.892 0 0)
(183.133 0 0)
(183.395 0 0)
(183.66 0 0)
(183.908 0 0)
(184.131 0 0)
(184.32 0 0)
(184.486 0 0)
(184.63 0 0)
(184.762 0 0)
(184.892 0 0)
(185.026 0 0)
(185.169 0 0)
(185.324 0 0)
(185.487 0 0)
(185.65 0 0)
(185.805 0 0)
(185.943 0 0)
(186.065 0 0)
(186.172 0 0)
(186.268 0 0)
(186.353 0 0)
(186.433 0 0)
(186.514 0 0)
(186.6 0 0)
(186.695 0 0)
(186.801 0 0)
(186.921 0 0)
(187.058 0 0)
(187.212 0 0)
(187.384 0 0)
(187.575 0 0)
(187.787 0 0)
(188.02 0 0)
(188.28 0 0)
(188.568 0 0)
(188.883 0 0)
(189.214 0 0)
(189.549 0 0)
(189.878 0 0)
(190.177 0 0)
(190.446 0 0)
(190.678 0 0)
(190.869 0 0)
(191.033 0 0)
(191.173 0 0)
(191.301 0 0)
(191.415 0 0)
(191.522 0 0)
(191.633 0 0)
(191.756 0 0)
(191.894 0 0)
(192.055 0 0)
(192.249 0 0)
(192.48 0 0)
(192.744 0 0)
(193.02 0 0)
(193.287 0 0)
(193.526 0 0)
(193.733 0 0)
(193.908 0 0)
(194.06 0 0)
(194.19 0 0)
(194.297 0 0)
(194.405 0 0)
(194.523 0 0)
(194.66 0 0)
(194.823 0 0)
(195.018 0 0)
(195.241 0 0)
(195.473 0 0)
(195.699 0 0)
(195.903 0 0)
(196.07 0 0)
(196.211 0 0)
(196.323 0 0)
(196.413 0 0)
(196.492 0 0)
(196.565 0 0)
(196.644 0 0)
(196.741 0 0)
(196.866 0 0)
(197.028 0 0)
(197.233 0 0)
(197.47 0 0)
(197.721 0 0)
(197.964 0 0)
(198.187 0 0)
(198.371 0 0)
(198.536 0 0)
(198.663 0 0)
(198.768 0 0)
(198.857 0 0)
(198.935 0 0)
(199.018 0 0)
(199.116 0 0)
(199.242 0 0)
(199.405 0 0)
(199.609 0 0)
(199.844 0 0)
(200.087 0 0)
(200.314 0 0)
(200.516 0 0)
(200.677 0 0)
(200.813 0 0)
(200.914 0 0)
(201 0 0)
(201.077 0 0)
(201.147 0 0)
(201.221 0 0)
(201.304 0 0)
(201.401 0 0)
(201.519 0 0)
(201.668 0 0)
(201.859 0 0)
(202.098 0 0)
(202.38 0 0)
(202.68 0 0)
(202.977 0 0)
(203.244 0 0)
(203.475 0 0)
(203.655 0 0)
(203.812 0 0)
(203.912 0 0)
(203.984 0 0)
(204.034 0 0)
(204.06 0 0)
(204.083 0 0)
(204.108 0 0)
(204.141 0 0)
(204.185 0 0)
(204.243 0 0)
(204.312 0 0)
(204.388 0 0)
(204.464 0 0)
(204.541 0 0)
(204.62 0 0)
(204.706 0 0)
(204.803 0 0)
(204.912 0 0)
(205.034 0 0)
(205.168 0 0)
(205.314 0 0)
(205.475 0 0)
(205.663 0 0)
(205.894 0 0)
(206.171 0 0)
(206.471 0 0)
(206.755 0 0)
(207.005 0 0)
(207.171 0 0)
(207.293 0 0)
(207.362 0 0)
(207.393 0 0)
(207.388 0 0)
(207.367 0 0)
(207.329 0 0)
(207.285 0 0)
(207.253 0 0)
(207.234 0 0)
(207.23 0 0)
(207.232 0 0)
(207.235 0 0)
(207.234 0 0)
(207.233 0 0)
(207.233 0 0)
(207.232 0 0)
(207.231 0 0)
(207.232 0 0)
(207.238 0 0)
(207.249 0 0)
(207.258 0 0)
(207.259 0 0)
(207.258 0 0)
(207.255 0 0)
(207.253 0 0)
(207.254 0 0)
(207.261 0 0)
(207.274 0 0)
(207.286 0 0)
(207.291 0 0)
(207.29 0 0)
(207.289 0 0)
(207.284 0 0)
(207.281 0 0)
(207.279 0 0)
(207.277 0 0)
(207.271 0 0)
(207.259 0 0)
(207.237 0 0)
(207.204 0 0)
(207.161 0 0)
(207.115 0 0)
(207.075 0 0)
(207.049 0 0)
(207.036 0 0)
(207.041 0 0)
(207.047 0 0)
(207.046 0 0)
(207.042 0 0)
(207.035 0 0)
(207.028 0 0)
(207.016 0 0)
(206.989 0 0)
(206.945 0 0)
(206.888 0 0)
(206.825 0 0)
(206.762 0 0)
(206.707 0 0)
(206.653 0 0)
(206.597 0 0)
(206.54 0 0)
(206.481 0 0)
(206.418 0 0)
(206.348 0 0)
(206.269 0 0)
(206.183 0 0)
(206.098 0 0)
(206.027 0 0)
(205.992 0 0)
(205.969 0 0)
(205.974 0 0)
(205.982 0 0)
(205.995 0 0)
(205.997 0 0)
(205.992 0 0)
(205.98 0 0)
(205.962 0 0)
(205.947 0 0)
(205.933 0 0)
(205.918 0 0)
(205.904 0 0)
(205.892 0 0)
(205.879 0 0)
(205.861 0 0)
(205.84 0 0)
(205.819 0 0)
(205.8 0 0)
(205.784 0 0)
(205.777 0 0)
(205.769 0 0)
(205.753 0 0)
(205.728 0 0)
(205.701 0 0)
(205.682 0 0)
(205.684 0 0)
(205.685 0 0)
(205.678 0 0)
(205.668 0 0)
(205.656 0 0)
(205.641 0 0)
(205.623 0 0)
(205.604 0 0)
(205.593 0 0)
(205.6 0 0)
(205.619 0 0)
(205.655 0 0)
(205.713 0 0)
(205.803 0 0)
(205.935 0 0)
(206.096 0 0)
(206.261 0 0)
(206.396 0 0)
(206.51 0 0)
(206.609 0 0)
(206.719 0 0)
(206.838 0 0)
(206.921 0 0)
(206.922 0 0)
(206.901 0 0)
(206.862 0 0)
(206.818 0 0)
(206.772 0 0)
(206.724 0 0)
(206.687 0 0)
(206.655 0 0)
(206.672 0 0)
(206.722 0 0)
(206.802 0 0)
(206.903 0 0)
(207.02 0 0)
(207.15 0 0)
(207.29 0 0)
(207.438 0 0)
(207.596 0 0)
(207.674 0 0)
(207.666 0 0)
(207.682 0 0)
(207.745 0 0)
(207.873 0 0)
(208.05 0 0)
(208.271 0 0)
(208.352 0 0)
(208.325 0 0)
(208.345 0 0)
(208.425 0 0)
(208.599 0 0)
(208.853 0 0)
(209.157 0 0)
(209.491 0 0)
(209.791 0 0)
(209.968 0 0)
(210.131 0 0)
(210.314 0 0)
(210.537 0 0)
(210.795 0 0)
(211.068 0 0)
(211.29 0 0)
(211.426 0 0)
(211.567 0 0)
(211.741 0 0)
(211.939 0 0)
(212.095 0 0)
(212.211 0 0)
(212.33 0 0)
(212.382 0 0)
(212.352 0 0)
(212.23 0 0)
(212.009 0 0)
(211.78 0 0)
(211.614 0 0)
(211.496 0 0)
(211.386 0 0)
(211.264 0 0)
(211.183 0 0)
(211.204 0 0)
(211.429 0 0)
(211.849 0 0)
(211.993 0 0)
(212.021 0 0)
(212.076 0 0)
(212.18 0 0)
(212.249 0 0)
(212.331 0 0)
(212.461 0 0)
(212.612 0 0)
(212.8 0 0)
(213.088 0 0)
(213.395 0 0)
(213.385 0 0)
(213.358 0 0)
(213.504 0 0)
(213.843 0 0)
(213.955 0 0)
(213.918 0 0)
(213.844 0 0)
(213.877 0 0)
(214.111 0 0)
(214.57 0 0)
(214.759 0 0)
(214.788 0 0)
(214.892 0 0)
(215.136 0 0)
(215.4 0 0)
(215.738 0 0)
(216.148 0 0)
(216.377 0 0)
(216.441 0 0)
(216.408 0 0)
(216.51 0 0)
(216.702 0 0)
(216.846 0 0)
(217.061 0 0)
(217.411 0 0)
(217.795 0 0)
(218.063 0 0)
(218.416 0 0)
(218.67 0 0)
(218.657 0 0)
(218.681 0 0)
(218.846 0 0)
(219.096 0 0)
(219.398 0 0)
(219.731 0 0)
(220.057 0 0)
(220.434 0 0)
(220.77 0 0)
(221.019 0 0)
(221.274 0 0)
(221.734 0 0)
(222.183 0 0)
(222.347 0 0)
(222.485 0 0)
(222.643 0 0)
(222.836 0 0)
(223.19 0 0)
(223.653 0 0)
(224.015 0 0)
(224.311 0 0)
(224.577 0 0)
(224.817 0 0)
(225.067 0 0)
(225.464 0 0)
(225.83 0 0)
(226.039 0 0)
(226.199 0 0)
(226.379 0 0)
(226.691 0 0)
(227.182 0 0)
(227.686 0 0)
(227.935 0 0)
(228.028 0 0)
(228.216 0 0)
(228.682 0 0)
(229.07 0 0)
(229.343 0 0)
(229.527 0 0)
(229.592 0 0)
(229.711 0 0)
(230.132 0 0)
(230.704 0 0)
(231.137 0 0)
(231.409 0 0)
(231.592 0 0)
(231.668 0 0)
(231.761 0 0)
(232.056 0 0)
(232.491 0 0)
(232.742 0 0)
(232.92 0 0)
(233.271 0 0)
(233.724 0 0)
(234.281 0 0)
)
;

boundaryField
{
    sides
    {
        type            zeroGradient;
    }
    empty
    {
        type            empty;
    }
}


// ************************************************************************* //
