/*--------------------------------*- C++ -*----------------------------------*\
  =========                 |
  \\      /  F ield         | OpenFOAM: The Open Source CFD Toolbox
   \\    /   O peration     | Website:  https://openfoam.org
    \\  /    A nd           | Version:  9
     \\/     M anipulation  |
\*---------------------------------------------------------------------------*/
FoamFile
{
    format      ascii;
    class       surfaceScalarField;
    location    "0.003";
    object      phi_0;
}
// * * * * * * * * * * * * * * * * * * * * * * * * * * * * * * * * * * * * * //

dimensions      [1 0 -1 0 0 0 0];

internalField   nonuniform List<scalar> 
9999
(
-1.31593e-11
-1.30171e-11
-1.37277e-11
-1.48077e-11
-1.59162e-11
-1.69962e-11
-1.85594e-11
-1.82467e-11
-1.72236e-11
-1.58877e-11
-1.32161e-11
-1.29319e-11
-1.09139e-11
-7.02016e-12
-2.58638e-12
-1.08002e-12
-3.41061e-13
2.52953e-12
4.40536e-12
5.68434e-12
4.94538e-12
4.88853e-12
1.50635e-12
-1.08002e-12
-3.6664e-12
-6.73595e-12
-1.00613e-11
-9.60654e-12
-1.02887e-11
-9.63496e-12
-8.6402e-12
-7.9865e-12
-8.92442e-12
-9.15179e-12
-7.19069e-12
-5.59908e-12
-4.40536e-12
-4.54747e-12
-4.12115e-12
-2.81375e-12
-4.26326e-13
1.16529e-12
1.08002e-12
8.81073e-13
3.12639e-13
1.22213e-12
2.27374e-12
2.16005e-12
2.89901e-12
4.17799e-12
4.29168e-12
2.359e-12
-1.7053e-13
-2.50111e-12
-3.12639e-12
-3.6664e-12
-3.29692e-12
-3.55271e-12
-3.38218e-12
-6.82121e-13
3.97904e-13
7.95808e-13
1.59162e-12
2.01794e-12
2.89901e-12
1.44951e-12
-8.52651e-14
-1.13687e-12
-1.98952e-12
-2.64322e-12
-3.89377e-12
-6.16751e-12
-6.13909e-12
-6.45173e-12
-8.10019e-12
-8.78231e-12
-9.20863e-12
-1.06866e-11
-1.06013e-11
-1.40403e-11
-1.40403e-11
-1.69678e-11
-1.77067e-11
-1.86731e-11
-2.20837e-11
-2.23679e-11
-2.51816e-11
-2.52953e-11
-2.83364e-11
-3.17755e-11
-3.40492e-11
-3.63514e-11
-3.81704e-11
-4.05578e-11
-3.95062e-11
-3.94209e-11
-4.12115e-11
-4.21494e-11
-4.09841e-11
-3.87104e-11
-3.3765e-11
-3.13776e-11
-2.98144e-11
-2.51248e-11
-2.08047e-11
-1.64277e-11
-1.25056e-11
-9.09495e-12
-6.99174e-12
-5.96856e-12
-6.0254e-12
-5.40012e-12
-4.66116e-12
-5.20117e-12
-6.79279e-12
-8.49809e-12
-1.11982e-11
-1.09992e-11
-1.26192e-11
-1.4694e-11
-1.62856e-11
-1.78204e-11
-2.02647e-11
-2.23679e-11
-2.3789e-11
-2.38742e-11
-2.52101e-11
-2.60627e-11
-2.68869e-11
-2.93028e-11
-3.27987e-11
-3.44755e-11
-3.4845e-11
-3.76303e-11
-3.76872e-11
-3.93641e-11
-3.65503e-11
-3.44755e-11
-3.28839e-11
-2.89049e-11
-2.65459e-11
-2.4329e-11
-2.21689e-11
-1.87299e-11
-1.83604e-11
-1.86446e-11
-2.14584e-11
-2.03215e-11
-2.28795e-11
-2.26521e-11
-2.26237e-11
-2.02931e-11
-1.82183e-11
-1.59162e-11
-1.35003e-11
-1.1255e-11
-1.1795e-11
-1.14539e-11
-1.23634e-11
-1.23066e-11
-1.29603e-11
-1.42677e-11
-1.39266e-11
-1.60867e-11
-1.59446e-11
-1.39266e-11
-1.3614e-11
-1.40403e-11
-1.13687e-11
-1.0175e-11
-8.35598e-12
-6.6791e-12
-5.40012e-12
-5.08749e-12
-3.04112e-12
-1.39266e-12
-9.37916e-13
-4.23483e-12
-7.78755e-12
-8.6402e-12
-7.90124e-12
-9.37916e-12
-1.10276e-11
-1.17666e-11
-1.28466e-11
-1.48361e-11
-1.52056e-11
-1.7053e-11
-1.87015e-11
-1.96962e-11
-2.02647e-11
-2.06342e-11
-2.13447e-11
-2.04636e-11
-2.08047e-11
-2.27658e-11
-2.33058e-11
-2.54374e-11
-2.72848e-11
-2.78533e-11
-3.0127e-11
-3.41629e-11
-3.54419e-11
-3.54703e-11
-3.47882e-11
-3.32818e-11
-3.15481e-11
-3.1946e-11
-3.28555e-11
-3.18323e-11
-2.94165e-11
-2.58353e-11
-2.63469e-11
-2.64038e-11
-2.60059e-11
-2.77964e-11
-2.51532e-11
-2.48974e-11
-2.27658e-11
-2.21974e-11
-2.36184e-11
-2.32774e-11
-2.13447e-11
-2.17142e-11
-2.29363e-11
-2.02931e-11
-2.09468e-11
-2.12879e-11
-1.90141e-11
-1.33866e-11
-1.03171e-11
-6.13909e-12
-2.41585e-12
-7.95808e-13
-5.68434e-14
1.42109e-12
2.16005e-12
2.84217e-12
1.9611e-12
1.7053e-12
9.66338e-13
-2.55795e-13
-1.79057e-12
-4.66116e-12
-6.48015e-12
-7.53175e-12
-9.2939e-12
-1.13687e-11
-1.35572e-11
-1.51772e-11
-1.8332e-11
-2.02078e-11
-2.29363e-11
-2.58069e-11
-2.87343e-11
-3.0326e-11
-3.35945e-11
-3.44187e-11
-3.40208e-11
-3.36513e-11
-3.37366e-11
-3.00133e-11
-3.18323e-11
-2.98428e-11
-2.80522e-11
-2.87628e-11
-3.0667e-11
-3.27987e-11
-3.3566e-11
-3.6124e-11
-3.68345e-11
-3.87672e-11
-3.87104e-11
-3.93356e-11
-3.86535e-11
-3.91083e-11
-3.7744e-11
-3.70335e-11
-3.73745e-11
-3.44755e-11
-3.11218e-11
-3.00986e-11
-2.87343e-11
-2.56648e-11
-2.33911e-11
-2.01226e-11
-1.66267e-11
-1.33866e-11
-1.22213e-11
-8.01492e-12
-5.17275e-12
-2.64322e-12
-2.13163e-12
-2.89901e-12
-2.58638e-12
-2.70006e-12
-1.67688e-12
-2.41585e-12
-3.86535e-12
-4.00746e-12
-5.34328e-12
-8.69704e-12
-8.66862e-12
-9.37916e-12
-8.72546e-12
-1.02887e-11
-1.32445e-11
-1.44667e-11
-1.43245e-11
-1.5774e-11
-1.55183e-11
-1.62288e-11
-1.8872e-11
-1.97247e-11
-2.11173e-11
-2.06057e-11
-2.02078e-11
-2.07763e-11
-1.87867e-11
-1.89289e-11
-1.86731e-11
-1.68257e-11
-2.01226e-11
-2.04921e-11
-2.20268e-11
-2.26805e-11
-2.36184e-11
-2.45279e-11
-2.42437e-11
-2.71996e-11
-2.73133e-11
-2.69438e-11
-2.6148e-11
-2.42153e-11
-2.53237e-11
-2.40732e-11
-2.5409e-11
-2.63185e-11
-2.8507e-11
-2.99281e-11
-3.11502e-11
-2.89901e-11
-2.96154e-11
-2.61764e-11
-2.49827e-11
-2.3789e-11
-2.15437e-11
-2.04352e-11
-1.7593e-11
-1.46656e-11
-1.21361e-11
-1.1255e-11
-1.04876e-11
-8.72546e-12
-7.64544e-12
-7.27596e-12
-4.43379e-12
-2.70006e-12
-7.10543e-13
1.16529e-12
2.92744e-12
1.62004e-12
1.42109e-12
2.21689e-12
3.72324e-12
3.0127e-12
2.89901e-12
2.04636e-12
1.9611e-12
1.25056e-12
-3.41061e-13
-1.13687e-12
-2.07478e-12
-2.72848e-12
-4.5759e-12
-4.09273e-12
-6.59384e-12
-1.08287e-11
-1.26477e-11
-1.5234e-11
-1.82183e-11
-2.12879e-11
-2.05205e-11
-2.40163e-11
-2.80238e-11
-2.79954e-11
-3.14344e-11
-3.32534e-11
-3.51861e-11
-3.57545e-11
-3.49019e-11
-3.81419e-11
-4.25189e-11
-4.21778e-11
-3.98757e-11
-3.58966e-11
-3.06954e-11
-2.76543e-11
-2.85638e-11
-2.59774e-11
-2.62901e-11
-2.47553e-11
-2.34763e-11
-2.56932e-11
-2.69438e-11
-2.5409e-11
-2.48974e-11
-2.38174e-11
-2.27089e-11
-2.44142e-11
-2.17426e-11
-1.91847e-11
-1.61435e-11
-1.51488e-11
-1.24487e-11
-8.81073e-12
-6.25278e-12
-4.46221e-12
-2.24532e-12
-2.75691e-12
-3.18323e-12
-4.03588e-12
-8.81073e-12
-1.22213e-11
-1.56888e-11
-2.02078e-11
-2.39595e-11
-2.90754e-11
-3.16902e-11
-3.37081e-11
-3.45608e-11
-3.47029e-11
-3.38787e-11
-3.49303e-11
-3.63229e-11
-3.49587e-11
-3.37081e-11
-3.30829e-11
-3.0866e-11
-2.77112e-11
-2.64606e-11
-2.44427e-11
-2.29647e-11
-2.13163e-11
-1.69678e-11
-1.55751e-11
-1.13118e-11
-8.18545e-12
-5.74119e-12
-3.78009e-12
-2.87059e-12
-2.18847e-12
-8.81073e-13
-1.81899e-12
-1.42109e-12
-2.72848e-12
-2.89901e-12
-6.36646e-12
-6.2812e-12
-7.78755e-12
-7.41807e-12
-7.5886e-12
-8.75389e-12
-1.08287e-11
-1.48361e-11
-1.70814e-11
-1.79625e-11
-2.03784e-11
-2.08331e-11
-2.28795e-11
-2.16005e-11
-2.143e-11
-2.23963e-11
-2.089e-11
-2.08615e-11
-1.79341e-11
-1.79625e-11
-1.73088e-11
-1.25056e-11
-9.43601e-12
-6.13909e-12
-2.47269e-12
1.67688e-12
5.31486e-12
7.78755e-12
7.30438e-12
7.78755e-12
6.59384e-12
4.46221e-12
2.84217e-12
-5.68434e-14
-1.19371e-12
-2.30216e-12
-3.04112e-12
-4.20641e-12
-4.66116e-12
-4.12115e-12
-4.09273e-12
-3.80851e-12
-3.63798e-12
-3.12639e-12
-4.49063e-12
-4.88853e-12
-4.68958e-12
-4.5759e-12
-6.90648e-12
-7.64544e-12
-9.89075e-12
-1.17097e-11
-1.37845e-11
-1.65414e-11
-1.65983e-11
-1.63425e-11
-1.87015e-11
-1.95257e-11
-1.90141e-11
-2.04068e-11
-1.87299e-11
-1.96678e-11
-1.99805e-11
-2.09752e-11
-2.21121e-11
-2.56932e-11
-2.91323e-11
-3.19176e-11
-3.22302e-11
-3.14913e-11
-3.24292e-11
-3.54134e-11
-3.58114e-11
-3.3225e-11
-3.20881e-11
-3.14913e-11
-3.11218e-11
-2.98712e-11
-2.7029e-11
-2.33626e-11
-2.21121e-11
-2.10036e-11
-1.97247e-11
-1.71951e-11
-1.47224e-11
-1.11129e-11
-1.17666e-11
-1.24771e-11
-1.16813e-11
-1.53193e-11
-1.79909e-11
-1.84457e-11
-1.89857e-11
-1.8872e-11
-2.50679e-11
-2.90754e-11
-3.20881e-11
-3.18039e-11
-3.24292e-11
-3.0127e-11
-2.98996e-11
-2.89901e-11
-2.55795e-11
-2.56648e-11
-2.31921e-11
-2.23679e-11
-1.96678e-11
-1.67688e-11
-1.49498e-11
-1.22213e-11
-1.02034e-11
-8.98126e-12
-9.12337e-12
-1.09424e-11
-1.01466e-11
-9.09495e-12
-8.72546e-12
-1.10276e-11
-1.25908e-11
-1.47224e-11
-1.89289e-11
-2.22826e-11
-2.69722e-11
-2.91038e-11
-3.0326e-11
-3.12355e-11
-3.33671e-11
-3.57829e-11
-3.68914e-11
-3.57261e-11
-3.41629e-11
-3.24007e-11
-3.15481e-11
-3.1747e-11
-3.20597e-11
-3.2145e-11
-3.04397e-11
-3.10365e-11
-2.68017e-11
-2.37037e-11
-2.05489e-11
-1.60298e-11
-1.26477e-11
-1.12266e-11
-1.05445e-11
-8.58336e-12
-6.99174e-12
-4.00746e-12
-3.06954e-12
-1.47793e-12
1.33582e-12
3.35376e-12
4.88853e-12
4.9738e-12
3.49587e-12
1.50635e-12
1.02318e-12
4.26326e-13
-1.50635e-12
-5.6275e-12
-7.95808e-12
-1.31308e-11
-1.70814e-11
-1.97815e-11
-2.21405e-11
-2.27089e-11
-2.27942e-11
-2.32205e-11
-2.17142e-11
-2.44995e-11
-2.27374e-11
-2.13731e-11
-2.07478e-11
-2.04068e-11
-1.90425e-11
-1.79909e-11
-1.68541e-11
-1.62572e-11
-1.79625e-11
-1.6513e-11
-1.66267e-11
-1.66835e-11
-1.87015e-11
-1.87583e-11
-1.91562e-11
-1.90425e-11
-1.8872e-11
-1.98952e-11
-2.21405e-11
-2.35616e-11
-2.31353e-11
-2.55511e-11
-2.77964e-11
-3.02123e-11
-3.08091e-11
-3.04681e-11
-3.07239e-11
-3.27418e-11
-2.98712e-11
-2.89333e-11
-3.13207e-11
-2.97007e-11
-2.83649e-11
-2.80238e-11
-2.63469e-11
-2.49543e-11
-2.52385e-11
-2.47553e-11
-2.43858e-11
-2.6688e-11
-2.78249e-11
-3.01554e-11
-3.10081e-11
-3.27987e-11
-3.59819e-11
-3.90514e-11
-4.05862e-11
-4.28315e-11
-4.32863e-11
-4.36557e-11
-4.17231e-11
-4.00746e-11
-4.07852e-11
-3.91651e-11
-3.95062e-11
-3.86251e-11
-3.72893e-11
-4.03588e-11
-4.09273e-11
-4.09557e-11
-4.45368e-11
-4.62705e-11
-4.80043e-11
-4.76916e-11
-4.47358e-11
-4.54747e-11
-4.21778e-11
-4.08136e-11
-3.6124e-11
-3.40776e-11
-3.22586e-11
-3.1747e-11
-2.87628e-11
-2.66596e-11
-2.64606e-11
-2.63753e-11
-2.28511e-11
-1.95257e-11
-1.7593e-11
-1.55751e-11
-1.61151e-11
-1.65414e-11
-1.59162e-11
-1.26477e-11
-1.37845e-11
-1.2534e-11
-1.24487e-11
-1.22498e-11
-1.27613e-11
-1.3074e-11
-1.2534e-11
-1.35003e-11
-1.44667e-11
-1.5433e-11
-1.61151e-11
-1.80762e-11
-2.04068e-11
-2.089e-11
-2.08047e-11
-1.84457e-11
-1.73372e-11
-1.68257e-11
-1.55467e-11
-1.23066e-11
-9.54969e-12
-7.53175e-12
-9.12337e-12
-7.41807e-12
-6.0254e-12
-6.13909e-12
-4.9738e-12
-6.9349e-12
-7.64544e-12
-9.40759e-12
-9.37916e-12
-8.81073e-12
-1.00044e-11
-1.12834e-11
-1.51203e-11
-1.9611e-11
-2.21974e-11
-2.69722e-11
-2.93596e-11
-3.1946e-11
-3.28271e-11
-3.28839e-11
-3.15197e-11
-3.1207e-11
-3.07239e-11
-2.89333e-11
-2.79385e-11
-3.07523e-11
-3.23155e-11
-2.86207e-11
-2.73133e-11
-2.5949e-11
-2.26805e-11
-2.22258e-11
-2.19131e-11
-2.305e-11
-2.16858e-11
-2.4329e-11
-2.51248e-11
-2.23963e-11
-2.23395e-11
-2.11173e-11
-2.02078e-11
-1.94404e-11
-1.95826e-11
-1.68825e-11
-1.51203e-11
-1.39266e-11
-1.20508e-11
-1.30171e-11
-1.35003e-11
-1.54046e-11
-1.77636e-11
-2.06057e-11
-2.26521e-11
-2.37037e-11
-2.20837e-11
-2.47837e-11
-3.00702e-11
-3.29692e-11
-3.59819e-11
-3.7403e-11
-3.96483e-11
-4.0842e-11
-4.38831e-11
-4.75779e-11
-4.72369e-11
-4.7919e-11
-4.80043e-11
-4.7379e-11
-4.71232e-11
-4.85159e-11
-4.63558e-11
-4.49916e-11
-4.37979e-11
-4.21778e-11
-4.31157e-11
-4.37126e-11
-4.25473e-11
-4.15241e-11
-3.65219e-11
-3.68914e-11
-3.20313e-11
-3.51861e-11
-3.33387e-11
-3.15197e-11
-3.28839e-11
-3.46176e-11
-3.66356e-11
-3.51577e-11
-3.72324e-11
-3.7204e-11
-3.91651e-11
-3.93356e-11
-4.51337e-11
-4.50768e-11
-4.77201e-11
-4.63842e-11
-4.83169e-11
-5.07328e-11
-4.86864e-11
-4.78337e-11
-4.8658e-11
-4.75779e-11
-4.16094e-11
-3.78293e-11
-3.46745e-11
-3.20313e-11
-3.31681e-11
-2.8507e-11
-2.68585e-11
-2.25668e-11
-2.16573e-11
-2.00657e-11
-1.97247e-11
-1.8332e-11
-2.04636e-11
-2.09468e-11
-2.2311e-11
-2.32774e-11
-2.38174e-11
-2.41869e-11
-2.33911e-11
-2.45564e-11
-2.43858e-11
-2.10889e-11
-2.02647e-11
-2.37605e-11
-2.53806e-11
-2.64322e-11
-2.50679e-11
-2.22826e-11
-2.29647e-11
-2.21121e-11
-2.09184e-11
-2.03499e-11
-1.8872e-11
-1.71951e-11
-1.6172e-11
-1.3415e-11
-8.98126e-12
-7.44649e-12
-6.62226e-12
-3.6664e-12
-1.73372e-12
-2.89901e-12
-4.60432e-12
-4.88853e-12
-4.26326e-12
-4.00746e-12
-6.30962e-12
-8.69704e-12
-1.17666e-11
-1.47224e-11
-1.64277e-11
-1.71667e-11
-2.04636e-11
-2.34479e-11
-2.56364e-11
-3.02975e-11
-3.16618e-11
-3.41913e-11
-3.4845e-11
-3.3026e-11
-3.12923e-11
-3.02123e-11
-3.16902e-11
-2.94449e-11
-3.07807e-11
-2.89333e-11
-3.02123e-11
-3.07239e-11
-2.89333e-11
-2.56932e-11
-2.79954e-11
-2.95586e-11
-3.41345e-11
-3.4504e-11
-3.83977e-11
-3.9023e-11
-3.78861e-11
-3.74882e-11
-3.7204e-11
-3.66072e-11
-3.78293e-11
-3.8284e-11
-3.94778e-11
-4.14389e-11
-4.23768e-11
-4.32578e-11
-4.42526e-11
-4.35421e-11
-4.20357e-11
-4.5361e-11
-4.52474e-11
-4.41105e-11
-4.24052e-11
-3.98472e-11
-3.91651e-11
-3.7943e-11
-3.50155e-11
-3.30544e-11
-3.23723e-11
-2.70006e-11
-2.35048e-11
-2.01794e-11
-1.99236e-11
-1.97247e-11
-1.75646e-11
-1.83888e-11
-1.92699e-11
-1.95541e-11
-2.11458e-11
-2.56932e-11
-2.77964e-11
-3.00702e-11
-2.90186e-11
-3.17755e-11
-3.70335e-11
-3.88525e-11
-3.94493e-11
-3.81704e-11
-3.87672e-11
-4.35705e-11
-4.30589e-11
-4.16662e-11
-4.14957e-11
-4.00746e-11
-4.09841e-11
-4.22631e-11
-4.08988e-11
-4.0643e-11
-4.00746e-11
-3.75167e-11
-3.91651e-11
-4.05009e-11
-4.10125e-11
-3.81135e-11
-3.56124e-11
-3.35376e-11
-3.21165e-11
-2.76543e-11
-2.44427e-11
-2.26521e-11
-2.3249e-11
-2.05489e-11
-2.06626e-11
-1.92415e-11
-1.71951e-11
-1.63425e-11
-1.45803e-11
-1.24487e-11
-1.24487e-11
-1.36424e-11
-1.44098e-11
-1.55183e-11
-1.5774e-11
-1.65414e-11
-1.60298e-11
-1.57456e-11
-1.97815e-11
-2.13447e-11
-2.23395e-11
-2.41016e-11
-2.83933e-11
-2.94733e-11
-3.27418e-11
-3.57545e-11
-3.60103e-11
-3.70051e-11
-3.63514e-11
-3.83977e-11
-3.93356e-11
-3.96483e-11
-3.93925e-11
-3.77725e-11
-3.5925e-11
-3.44755e-11
-3.43618e-11
-3.2145e-11
-3.33671e-11
-3.47598e-11
-3.7204e-11
-3.43334e-11
-3.22586e-11
-3.04112e-11
-2.81943e-11
-2.39879e-11
-2.60911e-11
-2.8308e-11
-2.87628e-11
-2.6489e-11
-2.44995e-11
-2.3789e-11
-2.03215e-11
-1.82752e-11
-1.54898e-11
-1.43245e-11
-1.29603e-11
-1.11129e-11
-9.52127e-12
-8.12861e-12
-7.13385e-12
-6.53699e-12
-6.22435e-12
-5.71276e-12
-7.30438e-12
-8.27072e-12
-1.02887e-11
-9.9476e-12
-1.29887e-11
-1.58025e-11
-1.96962e-11
-2.41016e-11
-2.76543e-11
-3.16618e-11
-3.45892e-11
-3.3765e-11
-3.41913e-11
-3.49871e-11
-3.56124e-11
-3.42197e-11
-3.56692e-11
-3.60387e-11
-3.59819e-11
-3.58682e-11
-3.58966e-11
-3.70619e-11
-3.2145e-11
-3.20881e-11
-3.14344e-11
-2.93312e-11
-2.96438e-11
-2.7768e-11
-2.92459e-11
-3.13491e-11
-3.06102e-11
-3.07239e-11
-2.87628e-11
-2.74554e-11
-2.60627e-11
-2.62332e-11
-2.7029e-11
-2.63185e-11
-2.54943e-11
-2.27942e-11
-2.38458e-11
-2.35332e-11
-2.43858e-11
-2.41016e-11
-2.41016e-11
-2.34195e-11
-2.27942e-11
-2.20837e-11
-2.02363e-11
-1.74509e-11
-1.5973e-11
-1.41824e-11
-1.5433e-11
-1.44667e-11
-1.27045e-11
-1.06297e-11
-1.08571e-11
-6.79279e-12
-6.36646e-12
-3.9222e-12
-2.04636e-12
-2.55795e-12
-2.98428e-12
-2.87059e-12
-3.78009e-12
-4.718e-12
-4.34852e-12
-5.48539e-12
-6.70752e-12
-6.79279e-12
-6.82121e-12
-9.40759e-12
-1.29319e-11
-1.3813e-11
-1.39835e-11
-1.72804e-11
-1.86731e-11
-2.19984e-11
-2.31068e-11
-2.39311e-11
-2.52385e-11
-2.39595e-11
-2.31637e-11
-2.14015e-11
-2.17995e-11
-2.41016e-11
-2.29932e-11
-2.5608e-11
-2.73701e-11
-2.72848e-11
-2.57785e-11
-2.49543e-11
-2.62617e-11
-2.63753e-11
-2.34763e-11
-2.45564e-11
-2.42153e-11
-2.26805e-11
-2.42721e-11
-2.3249e-11
-2.1771e-11
-2.08331e-11
-1.92699e-11
-1.87015e-11
-1.85594e-11
-1.64562e-11
-1.45519e-11
-1.22498e-11
-1.03171e-11
-1.03455e-11
-1.04023e-11
-8.58336e-12
-8.27072e-12
-6.22435e-12
-5.54223e-12
-4.9738e-12
-5.68434e-12
-7.67386e-12
-7.53175e-12
-9.74865e-12
-1.09139e-11
-1.17666e-11
-1.15108e-11
-1.33582e-11
-1.6513e-11
-1.89004e-11
-1.62288e-11
-1.78204e-11
-1.94404e-11
-1.9071e-11
-1.8872e-11
-1.90141e-11
-1.94404e-11
-2.10036e-11
-2.19131e-11
-2.53522e-11
-2.71996e-11
-2.89333e-11
-3.0127e-11
-3.00986e-11
-2.97575e-11
-2.90754e-11
-2.79954e-11
-2.55795e-11
-2.14015e-11
-2.03215e-11
-1.84173e-11
-1.6513e-11
-1.66835e-11
-1.3813e-11
-1.17666e-11
-8.69704e-12
-7.10543e-12
-4.60432e-12
-2.52953e-12
-1.42109e-12
2.55795e-13
1.19371e-12
1.02318e-12
4.83169e-13
3.69482e-13
-7.38964e-13
-2.6148e-12
-4.74643e-12
-6.50857e-12
-7.44649e-12
-8.896e-12
-1.13971e-11
-1.71667e-11
-2.14015e-11
-2.65743e-11
-3.02123e-11
-3.08376e-11
-3.1747e-11
-2.82228e-11
-2.78249e-11
-2.64322e-11
-2.53522e-11
-2.27089e-11
-1.82467e-11
-1.44951e-11
-1.14539e-11
-6.9349e-12
-3.35376e-12
-3.97904e-13
9.9476e-13
2.359e-12
1.9611e-12
1.59162e-12
1.47793e-12
-2.27374e-13
-2.24532e-12
-3.58114e-12
-4.91696e-12
-7.07701e-12
-7.04858e-12
-6.16751e-12
-8.69704e-12
-9.6918e-12
-9.91918e-12
-1.14255e-11
-1.24771e-11
-1.38414e-11
-1.76499e-11
-2.13163e-11
-2.37321e-11
-2.43574e-11
-2.359e-11
-2.35332e-11
-2.03215e-11
-1.89289e-11
-1.84741e-11
-1.93552e-11
-1.83604e-11
-1.89857e-11
-2.12879e-11
-1.93268e-11
-1.80194e-11
-1.97815e-11
-2.33342e-11
-2.7029e-11
-2.77396e-11
-2.93312e-11
-3.21734e-11
-3.28555e-11
-3.22871e-11
-3.25997e-11
-3.11502e-11
-2.96154e-11
-2.7967e-11
-2.63185e-11
-2.58922e-11
-2.48122e-11
-2.36184e-11
-2.10321e-11
-2.23963e-11
-2.01794e-11
-1.76499e-11
-1.75362e-11
-1.60014e-11
-1.32729e-11
-1.19087e-11
-9.6918e-12
-9.32232e-12
-5.48539e-12
-3.0127e-12
-1.3074e-12
-1.50635e-12
-1.76215e-12
-3.6664e-12
-5.05906e-12
-7.47491e-12
-9.57812e-12
-1.16529e-11
-1.32729e-11
-1.44098e-11
-1.53477e-11
-1.34719e-11
-1.39835e-11
-1.40403e-11
-1.37277e-11
-1.33298e-11
-1.35003e-11
-1.36993e-11
-1.32445e-11
-1.35003e-11
-1.33582e-11
-1.12834e-11
-1.04592e-11
-9.26548e-12
-9.80549e-12
-9.86233e-12
-1.01181e-11
-8.27072e-12
-5.71276e-12
-3.58114e-12
-1.93268e-12
8.81073e-13
1.9611e-12
4.0643e-12
5.3717e-12
6.48015e-12
5.76961e-12
5.96856e-12
3.6664e-12
1.13687e-12
-2.21689e-12
-3.2685e-12
-3.72324e-12
-4.20641e-12
-4.718e-12
-4.9738e-12
-4.0643e-12
-3.12639e-12
-2.72848e-12
-4.77485e-12
-4.51905e-12
-4.77485e-12
-4.718e-12
-6.53699e-12
-7.95808e-12
-6.9349e-12
-7.67386e-12
-9.12337e-12
-9.43601e-12
-1.15392e-11
-1.33298e-11
-1.1994e-11
-1.09708e-11
-1.01181e-11
-1.04592e-11
-1.14255e-11
-1.27613e-11
-1.42109e-11
-1.36708e-11
-1.17097e-11
-1.01181e-11
-8.58336e-12
-8.27072e-12
-6.87805e-12
-8.66862e-12
-1.02887e-11
-1.14824e-11
-1.34435e-11
-1.71951e-11
-1.68825e-11
-1.99236e-11
-2.04068e-11
-2.00657e-11
-2.25668e-11
-2.41016e-11
-2.305e-11
-2.03215e-11
-1.95541e-11
-1.76783e-11
-1.54614e-11
-1.36993e-11
-8.69704e-12
-6.73595e-12
-5.42855e-12
-3.21165e-12
-4.94538e-12
-5.14433e-12
-4.46221e-12
-3.55271e-12
-3.2685e-12
-5.17275e-12
-4.23483e-12
-4.12115e-12
-4.3201e-12
-5.3717e-12
-7.53175e-12
-8.98126e-12
-7.64544e-12
-8.21387e-12
-9.74865e-12
-1.31308e-11
-1.41824e-11
-1.67688e-11
-1.56604e-11
-1.36993e-11
-1.23066e-11
-1.13687e-11
-9.54969e-12
-7.36122e-12
-5.28644e-12
-2.92744e-12
9.9476e-13
4.12115e-12
5.45697e-12
7.41807e-12
7.87281e-12
7.13385e-12
6.99174e-12
6.84963e-12
3.97904e-12
7.10543e-13
-2.50111e-12
-7.16227e-12
-1.31877e-11
-1.86446e-11
-2.35616e-11
-2.7029e-11
-2.75406e-11
-2.73985e-11
-2.61764e-11
-2.78817e-11
-2.73417e-11
-2.67733e-11
-2.69438e-11
-2.60911e-11
-2.48974e-11
-2.25668e-11
-1.86731e-11
-1.79909e-11
-1.33014e-11
-1.03171e-11
-6.0254e-12
-2.87059e-12
8.52651e-14
1.59162e-12
3.46745e-12
2.41585e-12
1.73372e-12
1.81899e-12
2.38742e-12
2.21689e-12
3.69482e-13
-3.69482e-13
-8.52651e-13
-1.0516e-12
-2.21689e-12
-4.88853e-12
-8.10019e-12
-9.54969e-12
-1.02887e-11
-1.12266e-11
-1.34719e-11
-1.40119e-11
-1.4154e-11
-1.44098e-11
-1.48361e-11
-1.41824e-11
-1.09708e-11
-8.58336e-12
-6.6791e-12
-5.79803e-12
-7.04858e-12
-9.23706e-12
-1.0715e-11
-1.22213e-11
-1.40972e-11
-1.40687e-11
-1.34435e-11
-1.32161e-11
-1.44667e-11
-1.36993e-11
-1.53761e-11
-1.64277e-11
-1.62288e-11
-1.53193e-11
-1.56319e-11
-1.64846e-11
-1.45235e-11
-1.44667e-11
-1.59162e-11
-1.81899e-11
-2.21405e-11
-2.21974e-11
-2.52953e-11
-2.57501e-11
-2.65175e-11
-2.71427e-11
-2.64322e-11
-2.66596e-11
-2.52101e-11
-2.5949e-11
-2.56932e-11
-2.21689e-11
-2.13447e-11
-2.22826e-11
-2.1231e-11
-2.01226e-11
-2.02363e-11
-1.98099e-11
-2.09468e-11
-2.47269e-11
-2.50964e-11
-2.17142e-11
-2.05205e-11
-1.82752e-11
-1.74794e-11
-1.62572e-11
-1.62288e-11
-1.42961e-11
-1.32445e-11
-1.35572e-11
-1.40687e-11
-1.42961e-11
-1.54614e-11
-1.47509e-11
-1.3614e-11
-1.4694e-11
-1.26477e-11
-1.3074e-11
-1.31877e-11
-1.21361e-11
-1.33866e-11
-1.49782e-11
-1.64846e-11
-1.84457e-11
-1.87015e-11
-1.76215e-11
-1.85025e-11
-1.66551e-11
-1.72236e-11
-1.47509e-11
-1.45519e-11
-1.67972e-11
-1.74509e-11
-1.55751e-11
-1.37845e-11
-1.42961e-11
-1.44667e-11
-1.37561e-11
-1.39551e-11
-1.31308e-11
-1.58593e-11
-1.69962e-11
-1.83604e-11
-2.07194e-11
-2.09184e-11
-2.29079e-11
-2.49258e-11
-2.53237e-11
-2.63753e-11
-2.83649e-11
-2.76259e-11
-2.45848e-11
-2.12879e-11
-1.58309e-11
-1.16813e-11
-9.97602e-12
-7.87281e-12
-8.10019e-12
-6.11067e-12
-5.82645e-12
-6.16751e-12
-4.34852e-12
-3.75167e-12
-4.68958e-12
-4.40536e-12
-3.32534e-12
-5.51381e-12
-6.30962e-12
-8.29914e-12
-1.0175e-11
-1.16245e-11
-1.39551e-11
-1.62572e-11
-1.73657e-11
-1.75362e-11
-1.96962e-11
-2.15437e-11
-2.39595e-11
-2.30784e-11
-2.5608e-11
-2.5949e-11
-2.62901e-11
-2.31921e-11
-2.12026e-11
-2.06057e-11
-1.98668e-11
-1.74225e-11
-1.93268e-11
-1.67972e-11
-1.53761e-11
-1.47224e-11
-1.30171e-11
-9.46443e-12
-7.67386e-12
-6.99174e-12
-7.27596e-12
-7.27596e-12
-6.48015e-12
-4.80327e-12
-4.12115e-12
-3.72324e-12
-2.95586e-12
-2.75691e-12
-2.21689e-12
-2.95586e-12
-2.89901e-12
-3.97904e-12
-4.43379e-12
-3.58114e-12
-3.06954e-12
-5.03064e-12
-6.82121e-12
-8.3844e-12
-1.04023e-11
-1.06866e-11
-1.27329e-11
-1.34435e-11
-1.25624e-11
-1.29319e-11
-1.39266e-11
-1.61435e-11
-1.42961e-11
-1.30171e-11
-1.37845e-11
-1.17666e-11
-1.0715e-11
-9.2939e-12
-1.07718e-11
-1.0715e-11
-8.3844e-12
-8.3844e-12
-7.19069e-12
-4.74643e-12
-3.69482e-12
-1.79057e-12
-1.02318e-12
6.82121e-13
1.7053e-12
2.16005e-12
3.80851e-12
3.06954e-12
4.00746e-12
2.16005e-12
5.11591e-13
6.25278e-13
-3.97904e-13
-5.11591e-13
-3.41061e-13
-4.83169e-13
-8.52651e-14
1.13687e-12
2.10321e-12
2.33058e-12
2.52953e-12
1.7053e-12
3.12639e-13
-1.02318e-12
-3.52429e-12
-6.84963e-12
-9.63496e-12
-9.83391e-12
-1.00329e-11
-1.13118e-11
-1.5234e-11
-1.52056e-11
-1.73941e-11
-1.80762e-11
-1.77636e-11
-2.03784e-11
-2.14868e-11
-2.21121e-11
-2.19416e-11
-2.02078e-11
-2.02363e-11
-2.09184e-11
-2.07194e-11
-1.86162e-11
-1.82467e-11
-1.67688e-11
-1.45803e-11
-1.02602e-11
-6.90648e-12
-3.49587e-12
-6.82121e-13
1.50635e-12
3.18323e-12
4.09273e-12
4.29168e-12
2.87059e-12
2.24532e-12
1.25056e-12
-9.66338e-13
-2.6148e-12
-5.14433e-12
-8.12861e-12
-1.14255e-11
-1.4154e-11
-1.61151e-11
-1.76215e-11
-1.84741e-11
-1.81331e-11
-1.69678e-11
-1.5433e-11
-1.29319e-11
-9.46443e-12
-7.44649e-12
-6.87805e-12
-3.9222e-12
-1.90425e-12
-5.40012e-13
5.40012e-13
9.9476e-13
1.98952e-12
1.59162e-12
3.69482e-13
-1.76215e-12
-3.41061e-12
-5.94014e-12
-6.30962e-12
-9.37916e-12
-1.10276e-11
-1.40119e-11
-1.53761e-11
-1.57172e-11
-1.37561e-11
-1.20792e-11
-1.10276e-11
-9.91918e-12
-9.35074e-12
-8.04334e-12
-6.9349e-12
-6.65068e-12
-6.59384e-12
-6.90648e-12
-8.78231e-12
-8.55493e-12
-9.57812e-12
-9.72022e-12
-8.61178e-12
-9.18021e-12
-1.06013e-11
-1.08855e-11
-1.02887e-11
-9.15179e-12
-8.52651e-12
-9.18021e-12
-1.06013e-11
-8.6402e-12
-6.22435e-12
-7.04858e-12
-7.19069e-12
-8.12861e-12
-5.74119e-12
-4.46221e-12
-3.60956e-12
-3.35376e-12
-9.9476e-13
-1.0516e-12
5.96856e-13
1.16529e-12
3.97904e-13
-3.69482e-13
-9.66338e-13
-3.6664e-12
-5.6275e-12
-8.07177e-12
-1.02602e-11
-1.17382e-11
-1.25624e-11
-1.46088e-11
-1.62856e-11
-1.71099e-11
-1.8531e-11
-1.90994e-11
-1.88436e-11
-1.65414e-11
-1.93268e-11
-1.93268e-11
-1.79625e-11
-1.52056e-11
-1.16245e-11
-9.46443e-12
-7.21911e-12
-6.48015e-12
-4.43379e-12
-4.66116e-12
-5.68434e-12
-6.45173e-12
-6.2812e-12
-7.5886e-12
-8.6402e-12
-9.12337e-12
-9.49285e-12
-1.23919e-11
-1.5433e-11
-1.6712e-11
-1.68825e-11
-1.69678e-11
-1.7252e-11
-1.92415e-11
-1.88436e-11
-1.98099e-11
-1.89573e-11
-1.60583e-11
-1.44382e-11
-1.35856e-11
-1.36708e-11
-1.1795e-11
-1.17097e-11
-1.03171e-11
-8.10019e-12
-5.91172e-12
-4.49063e-12
-4.63274e-12
-5.42855e-12
-5.54223e-12
-6.08225e-12
-7.24754e-12
-6.30962e-12
-6.87805e-12
-6.65068e-12
-7.53175e-12
-8.2423e-12
-1.04876e-11
-1.13687e-11
-1.14255e-11
-1.08002e-11
-1.31877e-11
-1.23634e-11
-1.04308e-11
-1.07718e-11
-1.07434e-11
-1.33298e-11
-1.35287e-11
-1.21645e-11
-1.18803e-11
-8.41283e-12
-9.15179e-12
-9.2939e-12
-1.03455e-11
-1.23919e-11
-1.63141e-11
-1.8872e-11
-2.37321e-11
-2.50395e-11
-2.83649e-11
-2.89901e-11
-2.66027e-11
-2.71427e-11
-2.64038e-11
-2.34195e-11
-2.35616e-11
-2.16005e-11
-2.19984e-11
-2.00657e-11
-1.67972e-11
-1.52056e-11
-1.37277e-11
-1.41824e-11
-1.33014e-11
-1.61151e-11
-1.68541e-11
-1.64846e-11
-1.80194e-11
-1.74794e-11
-1.68541e-11
-1.78488e-11
-2.01226e-11
-2.31353e-11
-2.41016e-11
-2.51816e-11
-2.7967e-11
-2.65743e-11
-2.43574e-11
-2.23679e-11
-2.27089e-11
-2.22826e-11
-2.08331e-11
-2.28511e-11
-2.41585e-11
-2.47553e-11
-2.5608e-11
-2.21689e-11
-2.04352e-11
-2.00657e-11
-1.61151e-11
-1.59162e-11
-1.65983e-11
-1.44098e-11
-1.51488e-11
-1.52909e-11
-1.11982e-11
-8.32756e-12
-5.57066e-12
-3.18323e-12
-2.10321e-12
-1.19371e-12
9.66338e-13
1.81899e-12
1.44951e-12
5.96856e-13
-8.81073e-13
-3.46745e-12
-6.87805e-12
-9.49285e-12
-1.41824e-11
-1.67972e-11
-1.85594e-11
-1.95541e-11
-2.04636e-11
-2.12879e-11
-2.27658e-11
-2.33058e-11
-2.06342e-11
-2.15721e-11
-2.31637e-11
-2.23963e-11
-2.10605e-11
-1.87583e-11
-1.74225e-11
-1.71951e-11
-1.5973e-11
-1.21929e-11
-9.72022e-12
-9.77707e-12
-8.95284e-12
-7.38964e-12
-6.36646e-12
-6.79279e-12
-4.9738e-12
-3.06954e-12
-2.16005e-12
-2.30216e-12
-3.04112e-12
-4.74643e-12
-5.6275e-12
-7.53175e-12
-1.06581e-11
-1.33582e-11
-1.52056e-11
-1.87583e-11
-2.1231e-11
-2.19131e-11
-2.20552e-11
-2.17142e-11
-2.15152e-11
-1.91278e-11
-2.07478e-11
-1.89857e-11
-1.87867e-11
-1.83604e-11
-1.74225e-11
-1.7593e-11
-1.46656e-11
-1.28182e-11
-1.06013e-11
-9.74865e-12
-9.43601e-12
-1.18234e-11
-1.35287e-11
-1.29319e-11
-1.32161e-11
-1.3415e-11
-1.50351e-11
-1.55467e-11
-1.70814e-11
-1.90994e-11
-1.93552e-11
-2.13163e-11
-2.26805e-11
-2.19131e-11
-2.05489e-11
-2.089e-11
-2.12026e-11
-1.96962e-11
-1.73372e-11
-1.58309e-11
-1.3415e-11
-1.14255e-11
-7.95808e-12
-6.13909e-12
-3.95062e-12
-2.21689e-12
-2.52953e-12
-3.32534e-12
-2.38742e-12
-2.10321e-12
-2.27374e-12
-2.98428e-12
-5.14433e-12
-7.38964e-12
-9.80549e-12
-1.36708e-11
-1.78773e-11
-2.14584e-11
-2.23963e-11
-2.27374e-11
-2.29363e-11
-2.19984e-11
-2.26521e-11
-2.19416e-11
-2.34479e-11
-2.42721e-11
-2.251e-11
-2.11458e-11
-2.06342e-11
-1.68541e-11
-1.69678e-11
-1.69962e-11
-1.28182e-11
-1.0516e-11
-8.46967e-12
-7.84439e-12
-6.36646e-12
-4.0643e-12
-3.38218e-12
-1.16529e-12
-3.97904e-13
4.54747e-13
5.96856e-13
0
8.2423e-13
5.96856e-13
-7.38964e-13
-2.55795e-12
-4.37694e-12
-7.41807e-12
-9.97602e-12
-1.17097e-11
-1.3074e-11
-1.26477e-11
-1.34719e-11
-1.40119e-11
-1.20508e-11
-9.06653e-12
-6.16751e-12
-1.79057e-12
6.82121e-13
2.6148e-12
4.74643e-12
5.42855e-12
4.5759e-12
3.63798e-12
1.76215e-12
3.12639e-13
-8.81073e-13
-1.53477e-12
-3.95062e-12
-5.57066e-12
-7.38964e-12
-8.15703e-12
-8.32756e-12
-9.83391e-12
-9.97602e-12
-1.2534e-11
-1.27329e-11
-1.2534e-11
-1.09139e-11
-8.95284e-12
-7.36122e-12
-5.88329e-12
-2.87059e-12
-1.76215e-12
-1.67688e-12
-1.27898e-12
-2.44427e-12
-3.21165e-12
-5.03064e-12
-5.22959e-12
-3.83693e-12
-3.69482e-12
-4.26326e-12
-4.09273e-12
-6.0254e-12
-7.3328e-12
-1.00897e-11
-1.14255e-11
-1.29319e-11
-1.69962e-11
-2.00657e-11
-2.13731e-11
-1.95257e-11
-1.98384e-11
-1.90994e-11
-1.82752e-11
-1.74509e-11
-1.63709e-11
-1.48077e-11
-1.11413e-11
-8.98126e-12
-7.02016e-12
-2.58638e-12
-6.53699e-13
-1.13687e-12
-8.81073e-13
-3.55271e-12
-6.25278e-12
-7.56017e-12
-1.01181e-11
-1.21645e-11
-1.1056e-11
-9.15179e-12
-5.45697e-12
-4.51905e-12
-2.359e-12
-6.25278e-13
4.83169e-13
-1.90425e-12
-2.72848e-12
-2.44427e-12
-2.10321e-12
-7.95808e-13
8.52651e-14
6.25278e-13
9.66338e-13
1.47793e-12
1.90425e-12
1.90425e-12
2.70006e-12
2.58638e-12
2.21689e-12
8.52651e-13
-1.73372e-12
-3.58114e-12
-4.23483e-12
-6.73595e-12
-9.20863e-12
-1.09708e-11
-1.26761e-11
-1.35003e-11
-1.40119e-11
-1.20508e-11
-1.08855e-11
-1.03455e-11
-8.07177e-12
-5.91172e-12
-5.6275e-12
-4.91696e-12
-5.11591e-12
-6.65068e-12
-5.91172e-12
-7.04858e-12
-7.44649e-12
-6.82121e-12
-6.50857e-12
-7.92966e-12
-8.35598e-12
-9.89075e-12
-1.13971e-11
-1.16813e-11
-9.54969e-12
-9.86233e-12
-1.0175e-11
-9.72022e-12
-1.04592e-11
-1.15108e-11
-1.1255e-11
-8.55493e-12
-6.16751e-12
-4.9738e-12
-4.40536e-12
-4.29168e-12
-3.97904e-12
-3.6664e-12
-1.87583e-12
-1.08002e-12
2.84217e-13
7.67386e-13
8.52651e-13
1.62004e-12
2.67164e-12
1.73372e-12
8.52651e-14
-2.16005e-12
-4.29168e-12
-6.84963e-12
-8.35598e-12
-9.43601e-12
-1.07718e-11
-1.42961e-11
-1.5433e-11
-1.69962e-11
-1.55751e-11
-1.62572e-11
-1.47793e-11
-1.25056e-11
-1.22782e-11
-1.43814e-11
-1.25908e-11
-1.06866e-11
-9.97602e-12
-1.06297e-11
-9.72022e-12
-7.04858e-12
-6.50857e-12
-6.11067e-12
-4.43379e-12
-3.97904e-12
-2.89901e-12
-4.94538e-12
-4.86011e-12
-5.85487e-12
-7.07701e-12
-8.10019e-12
-1.03171e-11
-1.48646e-11
-1.39551e-11
-1.64277e-11
-1.52056e-11
-1.63141e-11
-1.81046e-11
-1.87299e-11
-1.7053e-11
-1.64277e-11
-1.53193e-11
-1.17097e-11
-1.02887e-11
-1.09992e-11
-1.18234e-11
-1.4893e-11
-1.6513e-11
-1.91278e-11
-2.16289e-11
-2.20837e-11
-2.359e-11
-2.42721e-11
-2.28511e-11
-2.22826e-11
-1.99236e-11
-1.90425e-11
-1.7053e-11
-1.60867e-11
-1.50919e-11
-1.4154e-11
-1.1994e-11
-1.42393e-11
-1.34719e-11
-1.27045e-11
-1.24203e-11
-9.97602e-12
-8.95284e-12
-6.62226e-12
-2.67164e-12
-1.3074e-12
5.11591e-13
1.36424e-12
2.78533e-12
2.24532e-12
1.87583e-12
2.50111e-12
5.11591e-13
-3.12639e-13
-5.40012e-13
1.42109e-13
3.41061e-13
1.08002e-12
1.3074e-12
2.13163e-12
2.01794e-12
2.10321e-12
2.95586e-12
3.04112e-12
2.21689e-12
4.26326e-13
3.69482e-13
2.27374e-13
-7.95808e-13
-1.87583e-12
-2.78533e-12
-4.77485e-12
-5.96856e-12
-6.9349e-12
-8.52651e-12
-9.9476e-12
-1.08855e-11
-1.02318e-11
-1.09424e-11
-9.52127e-12
-1.24487e-11
-1.29319e-11
-1.39551e-11
-1.50351e-11
-1.30456e-11
-1.15676e-11
-1.29035e-11
-1.08287e-11