/*--------------------------------*- C++ -*----------------------------------*\
  =========                 |
  \\      /  F ield         | OpenFOAM: The Open Source CFD Toolbox
   \\    /   O peration     | Website:  https://openfoam.org
    \\  /    A nd           | Version:  9
     \\/     M anipulation  |
\*---------------------------------------------------------------------------*/
FoamFile
{
    format      ascii;
    class       volScalarField;
    location    "0.01";
    object      rho;
}
// * * * * * * * * * * * * * * * * * * * * * * * * * * * * * * * * * * * * * //

dimensions      [1 -3 0 0 0 0 0];

internalField   nonuniform List<scalar> 
1000
(
0.999645
0.999645
0.999645
0.999645
0.999645
0.999645
0.999645
0.999645
0.999645
0.999645
0.999645
0.999645
0.999645
0.999645
0.999645
0.999645
0.999645
0.999645
0.999645
0.999645
0.999645
0.999645
0.999645
0.999645
0.999645
0.999645
0.999645
0.999645
0.999645
0.999645
0.999645
0.999645
0.999645
0.999645
0.999645
0.999645
0.999645
0.999645
0.999645
0.999645
0.999645
0.999645
0.999645
0.999645
0.999645
0.999645
0.999645
0.999645
0.999645
0.999645
0.999645
0.999645
0.999645
0.999645
0.999645
0.999645
0.999645
0.999645
0.999645
0.999645
0.999645
0.999645
0.999645
0.999645
0.999645
0.999645
0.999645
0.999645
0.999645
0.999645
0.999645
0.999645
0.999645
0.999645
0.999645
0.999645
0.999645
0.999645
0.999645
0.999645
0.999645
0.999645
0.999645
0.999645
0.999645
0.999645
0.999645
0.999645
0.999645
0.999645
0.999645
0.999645
0.999645
0.999645
0.999645
0.999645
0.999645
0.999645
0.999645
0.999645
0.999645
0.999645
0.999645
0.999645
0.999645
0.999645
0.999645
0.999645
0.999645
0.999645
0.999645
0.999645
0.999645
0.999645
0.999645
0.999645
0.999645
0.999645
0.999645
0.999645
0.999645
0.999645
0.999645
0.999645
0.999645
0.999645
0.999645
0.999645
0.999645
0.999645
0.999645
0.999644
0.999642
0.999635
0.999616
0.999559
0.999395
0.998915
0.997511
0.993342
0.982592
0.970238
0.962277
0.95722
0.953677
0.950956
0.9487
0.946714
0.944883
0.943135
0.941421
0.939704
0.937951
0.936139
0.934255
0.932297
0.930278
0.928215
0.926128
0.924033
0.921938
0.919848
0.917765
0.915688
0.913617
0.91155
0.909488
0.907431
0.905377
0.903327
0.901282
0.89924
0.897202
0.895168
0.893138
0.891113
0.889091
0.887073
0.885059
0.883049
0.881042
0.87904
0.877042
0.875048
0.873057
0.871071
0.869088
0.867109
0.865134
0.863163
0.861196
0.859232
0.857273
0.855317
0.853365
0.851416
0.849472
0.847531
0.845594
0.843661
0.841732
0.839806
0.837884
0.835965
0.83405
0.832139
0.830232
0.828328
0.826428
0.824531
0.822638
0.820749
0.818863
0.816981
0.815103
0.813228
0.811356
0.809488
0.807624
0.805763
0.803906
0.802052
0.800202
0.798355
0.796512
0.794672
0.792836
0.791003
0.789173
0.787347
0.785525
0.783706
0.78189
0.780078
0.778269
0.776464
0.774662
0.772864
0.771068
0.769277
0.767488
0.765703
0.763922
0.762143
0.760369
0.758597
0.756829
0.755064
0.753302
0.751544
0.749789
0.748037
0.746289
0.744544
0.742802
0.741064
0.739329
0.737597
0.735868
0.734143
0.732421
0.730702
0.728986
0.727274
0.725565
0.723859
0.722156
0.720457
0.71876
0.717067
0.715377
0.713691
0.712007
0.710327
0.70865
0.706976
0.705305
0.703637
0.701973
0.700312
0.698653
0.696998
0.695346
0.693698
0.692052
0.690409
0.68877
0.687134
0.685501
0.683871
0.682244
0.68062
0.678999
0.677381
0.675766
0.674155
0.672546
0.670941
0.669338
0.667739
0.666143
0.664549
0.662959
0.661372
0.659788
0.658206
0.656628
0.655053
0.653481
0.651912
0.650346
0.648783
0.647222
0.645665
0.644111
0.64256
0.641012
0.639466
0.637924
0.636385
0.634848
0.633315
0.631784
0.630257
0.628732
0.62721
0.625691
0.624176
0.622663
0.621153
0.619645
0.618141
0.61664
0.615141
0.613646
0.612153
0.610663
0.609176
0.607692
0.606211
0.604733
0.603258
0.601785
0.600315
0.598848
0.597384
0.595923
0.594465
0.593009
0.591556
0.590107
0.58866
0.587215
0.585774
0.584335
0.582899
0.581466
0.580036
0.578609
0.577184
0.575762
0.574343
0.572927
0.571513
0.570102
0.568694
0.567289
0.565887
0.564487
0.56309
0.561696
0.560304
0.558915
0.557529
0.556146
0.554765
0.553388
0.552012
0.55064
0.54927
0.547903
0.546539
0.545177
0.543818
0.542462
0.541109
0.539758
0.53841
0.537064
0.535722
0.534382
0.533044
0.531709
0.530377
0.529048
0.527721
0.526397
0.525075
0.523757
0.522441
0.521127
0.519816
0.518508
0.517202
0.515899
0.514599
0.513301
0.512006
0.510714
0.509424
0.508137
0.506852
0.50557
0.504291
0.503014
0.50174
0.500468
0.499199
0.497933
0.496669
0.495408
0.494149
0.492893
0.49164
0.490389
0.489141
0.487895
0.486652
0.485411
0.484173
0.482938
0.481705
0.480475
0.479247
0.478022
0.4768
0.47558
0.474362
0.473147
0.471935
0.470725
0.469518
0.468313
0.467111
0.465911
0.464714
0.46352
0.462328
0.461139
0.459952
0.458767
0.457586
0.456407
0.45523
0.454056
0.452885
0.451716
0.45055
0.449386
0.448225
0.447067
0.445912
0.44476
0.44361
0.442464
0.441321
0.440182
0.439047
0.437916
0.436792
0.435676
0.434572
0.433486
0.432426
0.431404
0.430438
0.429547
0.42875
0.428061
0.427484
0.427017
0.426646
0.42636
0.426146
0.425994
0.425897
0.425839
0.425806
0.425791
0.425788
0.425786
0.425785
0.425786
0.425788
0.425799
0.425833
0.425903
0.425976
0.426022
0.426045
0.426061
0.426074
0.426088
0.426112
0.426159
0.426214
0.426255
0.426284
0.426303
0.426316
0.426329
0.426352
0.426405
0.426481
0.426546
0.426581
0.426589
0.426589
0.426581
0.426547
0.426484
0.426417
0.426348
0.426277
0.426213
0.426169
0.426151
0.426141
0.426136
0.426135
0.426137
0.426137
0.426133
0.426124
0.426116
0.426113
0.426121
0.426151
0.426186
0.426207
0.426217
0.42622
0.426224
0.426236
0.426267
0.426315
0.426353
0.426374
0.426386
0.426398
0.42642
0.426456
0.426489
0.426502
0.426503
0.426493
0.426442
0.426363
0.426312
0.426281
0.426265
0.426258
0.426255
0.426248
0.426226
0.426197
0.426178
0.426173
0.426178
0.426193
0.426204
0.426205
0.4262
0.42619
0.426188
0.426191
0.426214
0.426254
0.426276
0.426286
0.42629
0.426292
0.426296
0.426305
0.426337
0.426384
0.426416
0.426435
0.426445
0.426449
0.426449
0.426447
0.426446
0.426442
0.426424
0.426371
0.426307
0.426266
0.426244
0.426237
0.426241
0.42625
0.426252
0.426245
0.426218
0.426194
0.426186
0.426189
0.426208
0.426228
0.426234
0.426234
0.426224
0.426218
0.426219
0.426236
0.426279
0.426308
0.426318
0.42632
0.426317
0.426316
0.426321
0.426347
0.426404
0.426443
0.42646
0.426464
0.426457
0.426436
0.426419
0.426409
0.426402
0.426391
0.426363
0.426311
0.426272
0.426258
0.426254
0.42626
0.426275
0.426281
0.426278
0.426252
0.426227
0.426218
0.426218
0.426238
0.426266
0.426277
0.42628
0.426268
0.426258
0.426256
0.426271
0.426317
0.426351
0.426365
0.426367
0.426356
0.426348
0.426348
0.426374
0.426437
0.426475
0.426489
0.426487
0.426455
0.426413
0.426398
0.426394
0.426394
0.426393
0.426382
0.426338
0.426292
0.426271
0.426269
0.426286
0.42632
0.426336
0.426335
0.426306
0.426269
0.426255
0.426257
0.426289
0.426332
0.426348
0.426348
0.426329
0.426309
0.426304
0.426319
0.426373
0.426414
0.426431
0.426431
0.426412
0.426398
0.426397
0.42643
0.426495
0.426529
0.426538
0.426521
0.426454
0.426405
0.426392
0.426399
0.426425
0.426442
0.426439
0.426402
0.426348
0.426321
0.426318
0.426343
0.426389
0.42641
0.426411
0.42638
0.426342
0.426327
0.426332
0.42638
0.426437
0.426458
0.426455
0.426423
0.426391
0.426384
0.426399
0.426465
0.426517
0.426537
0.426536
0.42651
0.426492
0.426494
0.426533
0.426606
0.426642
0.426641
0.426594
0.426515
0.426466
0.426454
0.426474
0.426538
0.426576
0.42658
0.426543
0.426491
0.426458
0.426457
0.426504
0.42658
0.426607
0.4266
0.42656
0.426521
0.426496
0.426504
0.426591
0.426683
0.426716
0.426709
0.426679
0.426641
0.42662
0.426646
0.426753
0.426829
0.426855
0.426858
0.426851
0.426809
0.426765
0.426792
0.426873
0.426847
0.426735
0.42657
0.426299
0.425812
0.425003
0.423668
0.42113
0.416416
0.408057
0.393768
0.370653
0.338064
0.301371
0.27462
0.267219
0.265361
0.26618
0.266875
0.266461
0.263966
0.260995
0.260626
0.260712
0.261062
0.262067
0.264813
0.26713
0.267735
0.267963
0.267253
0.264826
0.264126
0.264125
0.264297
0.265205
0.267693
0.268436
0.268354
0.267975
0.266334
0.263451
0.262679
0.262524
0.262643
0.263763
0.266125
0.266823
0.267004
0.267065
0.266226
0.264229
0.26387
0.263914
0.264219
0.265608
0.267461
0.267689
0.267585
0.267166
0.265506
0.263504
0.263112
0.263056
0.263315
0.264745
0.266446
0.266857
0.267
0.266972
0.265872
0.264428
0.264252
0.264284
0.264549
0.265839
0.26694
0.266998
0.266889
0.266448
0.264824
0.263599
0.263454
0.263501
0.263896
0.265402
0.266654
0.266941
0.267043
0.266875
0.265634
0.264651
0.26453
0.264513
0.264689
0.265797
0.266494
0.266509
0.26641
0.265962
0.264563
0.263924
0.263897
0.263995
0.264467
0.265851
0.266621
0.266771
0.266795
0.266462
0.265232
0.264696
0.264606
0.264566
0.264771
0.265807
0.266229
0.266231
0.266144
0.265678
0.264556
0.264265
0.264293
0.264421
0.264949
0.266147
0.266575
0.266641
0.266601
0.266147
0.265113
0.264774
0.264687
0.264654
0.264923
0.265804
0.266044
0.266044
0.265965
0.265527
0.264722
0.26459
0.264622
0.264754
0.265309
0.266223
0.26642
0.26643
0.266329
0.265805
0.264968
0.264734
0.264667
0.264671
0.26504
0.265744
0.265877
0.265889
0.265854
0.265473
0.264904
0.264839
0.264869
0.264999
0.265539
0.266142
0.266218
0.266195
0.266063
0.26553
0.264894
0.264755
0.264723
0.264786
0.265236
0.265756
0.265858
0.265891
0.265882
0.265538
0.265099
0.265055
0.265076
0.265185
0.265637
0.265996
0.266012
0.265971
0.265828
0.265325
0.264907
0.264841
0.264838
0.264941
0.265389
0.265736
0.265814
0.265846
0.265809
0.265448
0.265157
0.265121
0.265088
0.265121
0.265552
0.265931
0.266592
0.268259
0.269825
0.270262
0.270281
0.270445
0.270545
0.270734
0.271158
0.271467
0.271554
0.271555
0.271385
)
;

boundaryField
{
    sides
    {
        type            calculated;
        value           nonuniform List<scalar> 2(0.271385 0.999645);
    }
    empty
    {
        type            empty;
    }
}


// ************************************************************************* //
