/*--------------------------------*- C++ -*----------------------------------*\
  =========                 |
  \\      /  F ield         | OpenFOAM: The Open Source CFD Toolbox
   \\    /   O peration     | Website:  https://openfoam.org
    \\  /    A nd           | Version:  9
     \\/     M anipulation  |
\*---------------------------------------------------------------------------*/
FoamFile
{
    format      ascii;
    class       volScalarField;
    location    "0.01";
    object      T;
}
// * * * * * * * * * * * * * * * * * * * * * * * * * * * * * * * * * * * * * //

dimensions      [0 0 0 1 0 0 0];

internalField   nonuniform List<scalar> 
1000
(
348.432
348.432
348.432
348.432
348.432
348.432
348.432
348.432
348.432
348.432
348.432
348.432
348.432
348.432
348.432
348.432
348.432
348.432
348.432
348.432
348.432
348.432
348.432
348.432
348.432
348.432
348.432
348.432
348.432
348.432
348.432
348.432
348.432
348.432
348.432
348.432
348.432
348.432
348.432
348.432
348.432
348.432
348.432
348.432
348.432
348.432
348.432
348.432
348.432
348.432
348.432
348.432
348.432
348.432
348.432
348.432
348.432
348.432
348.432
348.432
348.432
348.432
348.432
348.432
348.432
348.432
348.432
348.432
348.432
348.432
348.432
348.432
348.432
348.432
348.432
348.432
348.432
348.432
348.432
348.432
348.432
348.432
348.432
348.432
348.432
348.432
348.432
348.432
348.432
348.432
348.432
348.432
348.432
348.432
348.432
348.432
348.432
348.432
348.432
348.432
348.432
348.432
348.432
348.432
348.432
348.432
348.432
348.432
348.432
348.432
348.432
348.432
348.432
348.432
348.432
348.432
348.432
348.432
348.432
348.432
348.432
348.432
348.432
348.432
348.432
348.432
348.432
348.432
348.432
348.432
348.432
348.432
348.432
348.431
348.428
348.42
348.397
348.33
348.134
347.552
346.042
344.291
343.156
342.432
341.924
341.533
341.208
340.922
340.657
340.405
340.157
339.909
339.654
339.392
339.118
338.833
338.539
338.238
337.934
337.627
337.321
337.014
336.708
336.403
336.098
335.793
335.489
335.185
334.881
334.577
334.273
333.97
333.667
333.364
333.061
332.758
332.455
332.153
331.851
331.549
331.247
330.945
330.644
330.343
330.042
329.741
329.44
329.139
328.839
328.539
328.239
327.939
327.639
327.34
327.04
326.741
326.442
326.143
325.844
325.546
325.248
324.949
324.651
324.354
324.056
323.758
323.461
323.164
322.867
322.57
322.273
321.977
321.68
321.384
321.088
320.792
320.496
320.2
319.905
319.609
319.314
319.019
318.724
318.43
318.135
317.841
317.546
317.252
316.958
316.664
316.371
316.077
315.784
315.49
315.197
314.904
314.611
314.319
314.026
313.734
313.442
313.149
312.857
312.566
312.274
311.982
311.691
311.4
311.109
310.818
310.527
310.236
309.946
309.655
309.365
309.075
308.785
308.495
308.205
307.916
307.626
307.337
307.048
306.759
306.47
306.181
305.893
305.604
305.316
305.028
304.74
304.452
304.164
303.877
303.589
303.302
303.015
302.728
302.441
302.154
301.867
301.581
301.294
301.008
300.722
300.436
300.15
299.864
299.579
299.293
299.008
298.723
298.438
298.153
297.868
297.583
297.299
297.015
296.73
296.446
296.162
295.878
295.595
295.311
295.028
294.744
294.461
294.178
293.895
293.613
293.33
293.047
292.765
292.483
292.201
291.919
291.637
291.355
291.074
290.792
290.511
290.23
289.949
289.668
289.387
289.106
288.826
288.546
288.265
287.985
287.705
287.425
287.146
286.866
286.587
286.307
286.028
285.749
285.47
285.191
284.913
284.634
284.356
284.077
283.799
283.521
283.243
282.966
282.688
282.411
282.133
281.856
281.579
281.302
281.025
280.749
280.472
280.196
279.919
279.643
279.367
279.091
278.815
278.54
278.264
277.989
277.714
277.439
277.164
276.889
276.614
276.339
276.065
275.791
275.516
275.242
274.969
274.695
274.421
274.148
273.874
273.601
273.328
273.055
272.782
272.509
272.237
271.964
271.692
271.42
271.148
270.876
270.604
270.332
270.061
269.789
269.518
269.247
268.976
268.705
268.435
268.164
267.894
267.623
267.353
267.083
266.813
266.543
266.274
266.004
265.735
265.466
265.197
264.928
264.659
264.391
264.122
263.854
263.586
263.317
263.05
262.782
262.514
262.247
261.979
261.712
261.445
261.178
260.911
260.645
260.378
260.112
259.846
259.58
259.314
259.048
258.782
258.517
258.252
257.986
257.721
257.457
257.192
256.927
256.663
256.399
256.135
255.871
255.607
255.343
255.08
254.817
254.553
254.29
254.028
253.765
253.503
253.24
252.978
252.716
252.455
252.193
251.932
251.671
251.411
251.151
250.891
250.631
250.373
250.115
249.859
249.606
249.355
249.111
248.875
248.652
248.446
248.261
248.101
247.967
247.858
247.772
247.706
247.655
247.621
247.597
247.582
247.577
247.574
247.571
247.57
247.57
247.571
247.572
247.574
247.581
247.597
247.612
247.624
247.632
247.635
247.636
247.638
247.643
247.654
247.669
247.681
247.685
247.687
247.689
247.693
247.7
247.714
247.732
247.742
247.748
247.754
247.755
247.753
247.744
247.728
247.71
247.694
247.679
247.667
247.658
247.647
247.644
247.645
247.646
247.648
247.647
247.645
247.64
247.639
247.639
247.642
247.649
247.656
247.658
247.66
247.663
247.665
247.668
247.674
247.683
247.69
247.696
247.701
247.705
247.709
247.715
247.72
247.725
247.727
247.724
247.712
247.693
247.676
247.671
247.671
247.67
247.667
247.663
247.656
247.649
247.649
247.648
247.648
247.649
247.65
247.651
247.65
247.649
247.648
247.648
247.652
247.66
247.667
247.67
247.67
247.669
247.669
247.67
247.678
247.689
247.699
247.702
247.702
247.701
247.702
247.703
247.703
247.702
247.697
247.683
247.666
247.654
247.653
247.653
247.653
247.653
247.652
247.65
247.643
247.64
247.638
247.637
247.641
247.643
247.645
247.645
247.643
247.642
247.64
247.644
247.653
247.66
247.664
247.663
247.662
247.66
247.661
247.666
247.679
247.689
247.693
247.692
247.69
247.684
247.679
247.677
247.675
247.673
247.666
247.654
247.643
247.636
247.636
247.638
247.643
247.643
247.642
247.636
247.627
247.623
247.623
247.628
247.636
247.638
247.637
247.634
247.632
247.63
247.633
247.643
247.652
247.652
247.651
247.647
247.644
247.644
247.65
247.664
247.676
247.677
247.676
247.667
247.656
247.649
247.646
247.646
247.646
247.644
247.634
247.622
247.619
247.616
247.619
247.626
247.626
247.625
247.617
247.608
247.605
247.603
247.609
247.617
247.62
247.62
247.615
247.611
247.608
247.611
247.623
247.632
247.632
247.63
247.622
247.617
247.616
247.623
247.638
247.647
247.647
247.643
247.626
247.614
247.61
247.606
247.61
247.609
247.608
247.598
247.584
247.579
247.576
247.582
247.594
247.594
247.592
247.583
247.571
247.566
247.563
247.572
247.584
247.584
247.583
247.574
247.566
247.559
247.561
247.574
247.586
247.585
247.583
247.574
247.568
247.561
247.568
247.583
247.583
247.58
247.567
247.544
247.533
247.522
247.525
247.539
247.54
247.537
247.524
247.505
247.496
247.485
247.492
247.505
247.503
247.496
247.48
247.463
247.45
247.443
247.459
247.471
247.469
247.461
247.446
247.429
247.412
247.407
247.426
247.424
247.414
247.403
247.396
247.382
247.384
247.397
247.426
247.452
247.48
247.539
247.658
247.884
248.328
249.19
250.759
253.61
258.815
268.274
285.199
313.886
350.968
376.729
390.418
396.79
400.645
402.377
402.924
402.232
400.507
400.188
399.982
399.649
399.491
400.114
400.579
400.01
398.981
397.642
395.784
395.036
394.833
394.801
395.301
397.112
398.026
398.44
398.748
398.507
397.351
397.248
397.535
397.89
398.563
399.746
399.942
399.731
399.191
398.045
396.444
395.91
395.726
395.721
396.457
397.827
398.252
398.519
398.665
398.217
397.329
397.306
397.474
397.716
398.41
399.15
399.156
398.855
398.344
397.309
396.296
396.084
396.061
396.239
397.249
398.292
398.646
398.884
398.938
398.291
397.63
397.577
397.58
397.647
398.243
398.686
398.59
398.283
397.86
397.003
396.429
396.378
396.448
396.787
397.79
398.517
398.764
398.899
398.837
398.099
397.658
397.558
397.472
397.497
398.025
398.258
398.139
397.914
397.59
396.912
396.67
396.705
396.88
397.309
398.185
398.623
398.754
398.797
398.611
397.864
397.545
397.412
397.307
397.37
397.874
398
397.933
397.817
397.575
397.088
397.005
397.108
397.334
397.737
398.379
398.597
398.635
398.609
398.292
397.632
397.388
397.259
397.186
397.326
397.783
397.859
397.85
397.823
397.637
397.291
397.278
397.408
397.592
397.928
398.355
398.435
398.423
398.324
397.944
397.441
397.273
397.189
397.17
397.401
397.774
397.853
397.899
397.924
397.766
397.508
397.52
397.614
397.736
398.002
398.261
398.278
398.216
398.07
397.717
397.364
397.269
397.236
397.26
397.541
397.841
397.93
397.999
398.023
397.85
397.66
397.661
397.694
397.752
397.957
398.087
398.063
397.968
397.821
397.531
397.335
397.296
397.28
397.328
397.653
397.961
398.451
399.557
400.546
400.858
400.914
400.983
400.973
401.009
401.198
401.325
401.305
401.214
401.036
)
;

boundaryField
{
    sides
    {
        type            zeroGradient;
    }
    empty
    {
        type            empty;
    }
}


// ************************************************************************* //
