/*--------------------------------*- C++ -*----------------------------------*\
  =========                 |
  \\      /  F ield         | OpenFOAM: The Open Source CFD Toolbox
   \\    /   O peration     | Website:  https://openfoam.org
    \\  /    A nd           | Version:  9
     \\/     M anipulation  |
\*---------------------------------------------------------------------------*/
FoamFile
{
    format      ascii;
    class       volScalarField;
    location    "0.034";
    object      rho;
}
// * * * * * * * * * * * * * * * * * * * * * * * * * * * * * * * * * * * * * //

dimensions      [1 -3 0 0 0 0 0];

internalField   nonuniform List<scalar> 
1000
(
0.271751
0.271696
0.271609
0.271527
0.271449
0.271372
0.271293
0.271215
0.271139
0.271064
0.270986
0.270906
0.270826
0.270747
0.270672
0.2706
0.270529
0.270458
0.270383
0.270304
0.270223
0.270139
0.270057
0.269978
0.269903
0.269835
0.269773
0.269718
0.269668
0.269622
0.269578
0.269534
0.26949
0.269448
0.269408
0.269373
0.269341
0.26931
0.269279
0.269248
0.269217
0.269186
0.269155
0.269124
0.269093
0.269062
0.269031
0.269
0.268969
0.268938
0.268907
0.268875
0.268844
0.268813
0.268782
0.268751
0.26872
0.268689
0.268658
0.268627
0.268595
0.268565
0.268533
0.268504
0.26847
0.268442
0.268407
0.268381
0.268345
0.268318
0.268283
0.268257
0.268221
0.268195
0.268159
0.268132
0.268098
0.26807
0.268037
0.268006
0.267977
0.267944
0.267915
0.267883
0.267852
0.267822
0.26779
0.26776
0.267729
0.267697
0.267668
0.267636
0.267605
0.267575
0.267544
0.267513
0.267483
0.267451
0.267421
0.267391
0.267359
0.267329
0.267298
0.267267
0.267237
0.267206
0.267175
0.267145
0.267114
0.267084
0.267053
0.267022
0.266992
0.266961
0.266931
0.2669
0.26687
0.266839
0.266809
0.266778
0.266748
0.266717
0.266687
0.266656
0.266626
0.266596
0.266565
0.266535
0.266504
0.266474
0.266444
0.266413
0.266383
0.266353
0.266323
0.266292
0.266262
0.266232
0.266202
0.266172
0.266142
0.266112
0.266081
0.266051
0.266021
0.265991
0.265961
0.265931
0.265901
0.265872
0.265842
0.265812
0.265782
0.265752
0.265722
0.265692
0.265663
0.265633
0.265603
0.265574
0.265544
0.265514
0.265485
0.265455
0.265426
0.265396
0.265367
0.265337
0.265308
0.265279
0.265249
0.26522
0.265191
0.265162
0.265132
0.265103
0.265074
0.265045
0.265016
0.264987
0.264958
0.264929
0.2649
0.264872
0.264843
0.264814
0.264785
0.264757
0.264728
0.2647
0.264671
0.264643
0.264614
0.264586
0.264558
0.264529
0.264501
0.264473
0.264445
0.264417
0.264389
0.264361
0.264333
0.264306
0.264278
0.26425
0.264223
0.264195
0.264168
0.264141
0.264113
0.264086
0.264059
0.264032
0.264005
0.263978
0.263951
0.263925
0.263898
0.263871
0.263845
0.263819
0.263792
0.263766
0.26374
0.263714
0.263688
0.263662
0.263637
0.263611
0.263586
0.26356
0.263535
0.26351
0.263485
0.26346
0.263435
0.263411
0.263386
0.263362
0.263338
0.263313
0.263289
0.263266
0.263242
0.263218
0.263195
0.263172
0.263149
0.263126
0.263103
0.26308
0.263058
0.263036
0.263014
0.262992
0.26297
0.262949
0.262927
0.262906
0.262885
0.262865
0.262844
0.262824
0.262804
0.262784
0.262765
0.262745
0.262726
0.262707
0.262689
0.262671
0.262652
0.262635
0.262617
0.2626
0.262583
0.262566
0.26255
0.262534
0.262518
0.262503
0.262488
0.262473
0.262459
0.262445
0.262432
0.262418
0.262406
0.262393
0.262381
0.26237
0.262358
0.262348
0.262337
0.262328
0.262318
0.262309
0.262301
0.262293
0.262286
0.262279
0.262273
0.262267
0.262262
0.262257
0.262253
0.262249
0.262247
0.262244
0.262243
0.262242
0.262241
0.262242
0.262242
0.262243
0.262245
0.262248
0.262252
0.262257
0.262262
0.262269
0.262276
0.262285
0.262294
0.262304
0.262315
0.262327
0.26234
0.262354
0.262369
0.262385
0.262402
0.26242
0.26244
0.26246
0.262481
0.262504
0.262528
0.262553
0.26258
0.262607
0.262636
0.262666
0.262698
0.262731
0.262766
0.262802
0.262839
0.262878
0.262918
0.26296
0.263003
0.263048
0.263095
0.263143
0.263193
0.263245
0.263298
0.263354
0.26341
0.263469
0.263529
0.263592
0.263656
0.263722
0.26379
0.263859
0.263931
0.264005
0.26408
0.264157
0.264237
0.264318
0.264401
0.264487
0.264574
0.264663
0.264754
0.264847
0.264943
0.26504
0.265139
0.26524
0.265342
0.265447
0.265554
0.265663
0.265773
0.265885
0.265999
0.266115
0.266233
0.266352
0.266473
0.266596
0.266721
0.266847
0.266974
0.267103
0.267234
0.267366
0.267499
0.267634
0.26777
0.267908
0.268046
0.268186
0.268327
0.268469
0.268613
0.268757
0.268902
0.269048
0.269196
0.269344
0.269493
0.269642
0.269793
0.269944
0.270096
0.270248
0.270402
0.270555
0.27071
0.270865
0.271021
0.271176
0.271333
0.271489
0.271647
0.271804
0.271963
0.272121
0.27228
0.272439
0.272598
0.272758
0.272918
0.273078
0.273238
0.273399
0.27356
0.273721
0.273883
0.274044
0.274206
0.274368
0.27453
0.274692
0.274855
0.275017
0.27518
0.275343
0.275506
0.27567
0.275833
0.275997
0.27616
0.276324
0.276488
0.276652
0.276817
0.276981
0.277146
0.27731
0.277475
0.27764
0.277805
0.277971
0.278136
0.278301
0.278467
0.278633
0.278799
0.278965
0.279131
0.279297
0.279464
0.27963
0.279797
0.279963
0.280131
0.280297
0.280465
0.280631
0.280799
0.280966
0.281135
0.281302
0.28147
0.281638
0.281807
0.281974
0.282143
0.282311
0.28248
0.282649
0.282818
0.282986
0.283156
0.283325
0.283495
0.283664
0.283834
0.284003
0.284174
0.284343
0.284514
0.284684
0.284855
0.285025
0.285196
0.285366
0.285538
0.285708
0.28588
0.286051
0.286223
0.286394
0.286566
0.286737
0.28691
0.287081
0.287254
0.287425
0.287599
0.28777
0.287944
0.288116
0.28829
0.288462
0.288636
0.288808
0.288983
0.289155
0.28933
0.289503
0.289678
0.289851
0.290026
0.2902
0.290375
0.290549
0.290724
0.290898
0.291074
0.291248
0.291424
0.291599
0.291775
0.29195
0.292126
0.292301
0.292478
0.292653
0.29283
0.293006
0.293183
0.293359
0.293537
0.293713
0.293891
0.294067
0.294245
0.294421
0.2946
0.294777
0.294955
0.295132
0.295311
0.295489
0.295668
0.295845
0.296025
0.296202
0.296382
0.29656
0.29674
0.296918
0.297099
0.297277
0.297458
0.297637
0.297817
0.297996
0.298177
0.298357
0.298538
0.298718
0.298899
0.299079
0.299261
0.299441
0.299623
0.299803
0.299986
0.300166
0.300349
0.30053
0.300712
0.300894
0.301077
0.301258
0.301442
0.301623
0.301807
0.301989
0.302173
0.302355
0.302539
0.302721
0.302906
0.303089
0.303273
0.303456
0.303641
0.303824
0.30401
0.304193
0.304379
0.304562
0.304748
0.304932
0.305118
0.305302
0.305489
0.305673
0.30586
0.306045
0.306232
0.306416
0.306604
0.306789
0.306976
0.307162
0.30735
0.307535
0.307723
0.307909
0.308098
0.308284
0.308472
0.308659
0.308848
0.309034
0.309223
0.309411
0.3096
0.309787
0.309977
0.310164
0.310354
0.310542
0.310732
0.31092
0.311111
0.311299
0.31149
0.311678
0.311869
0.312058
0.31225
0.312439
0.31263
0.31282
0.313011
0.313201
0.313393
0.313583
0.313775
0.313965
0.314158
0.314348
0.314542
0.314732
0.314926
0.315116
0.31531
0.315501
0.315695
0.315886
0.316081
0.316271
0.316467
0.316657
0.316854
0.317044
0.317242
0.31743
0.31763
0.317818
0.318019
0.318205
0.318409
0.318593
0.318799
0.318981
0.31919
0.31937
0.319582
0.319759
0.319975
0.320149
0.320368
0.320539
0.320761
0.320931
0.321154
0.321324
0.321547
0.321717
0.321941
0.322111
0.322335
0.322506
0.32273
0.322901
0.323125
0.323296
0.323521
0.323692
0.323917
0.324089
0.324314
0.324486
0.324712
0.324884
0.32511
0.325282
0.325509
0.325681
0.325908
0.326081
0.326308
0.326481
0.326708
0.326882
0.327109
0.327283
0.327511
0.327684
0.327913
0.328087
0.328315
0.32849
0.328718
0.328893
0.329122
0.329297
0.329527
0.329702
0.329931
0.330107
0.330337
0.330513
0.330743
0.330919
0.33115
0.331326
0.331557
0.331733
0.331965
0.332142
0.332373
0.33255
0.332782
0.332959
0.333192
0.333369
0.333602
0.33378
0.334013
0.334191
0.334424
0.334603
0.334836
0.335015
0.335249
0.335428
0.335662
0.335842
0.336076
0.336256
0.336491
0.33667
0.336906
0.337086
0.337321
0.337501
0.337737
0.337917
0.338154
0.338334
0.338571
0.338751
0.338988
0.339169
0.339406
0.339587
0.339825
0.340006
0.340244
0.340426
0.340664
0.340846
0.341084
0.341266
0.341505
0.341687
0.341926
0.342109
0.342349
0.342532
0.342772
0.342955
0.343195
0.343379
0.34362
0.343804
0.344045
0.34423
0.344472
0.344657
0.3449
0.345085
0.345328
0.345515
0.345759
0.345945
0.34619
0.346378
0.346624
0.346812
0.347059
0.347248
0.347496
0.347687
0.347936
0.348128
0.348379
0.348571
0.348824
0.349018
0.349272
0.349467
0.349724
0.349921
0.35018
0.350378
0.35064
0.350839
0.351105
0.351306
0.351575
0.351777
0.35205
0.352254
0.352528
0.352742
0.353002
0.353244
0.353484
0.353739
0.353985
0.354231
0.35449
0.354737
0.354993
0.355247
0.355505
0.355759
0.356022
0.356277
0.356541
0.356798
0.357064
0.357322
0.357591
0.357848
0.358119
0.358375
0.358649
0.358902
0.359179
0.35943
0.35971
0.359957
0.360239
0.360482
0.360767
0.361005
0.361292
0.361526
0.361814
0.362044
0.362332
0.362559
0.362847
0.36307
0.363357
0.363578
0.363863
0.364082
0.364365
0.364582
0.364863
0.365078
0.365357
0.36557
0.365847
0.366059
0.366334
0.366544
0.366818
0.367027
0.367299
0.367507
0.367778
0.367984
0.368254
0.36846
0.368728
0.368933
0.369201
0.369405
0.369673
0.369876
0.370143
0.370346
0.370613
0.370816
0.371081
0.371284
0.37155
0.371752
0.372017
0.37222
0.372485
0.372687
0.372952
0.373154
0.373419
0.37362
0.373885
0.374085
0.374351
0.374549
0.374817
0.375013
0.375283
0.375476
0.375749
0.375939
0.376215
0.376403
0.376682
0.376866
0.377148
0.37733
0.377614
0.377795
0.37808
0.37826
0.378546
0.378726
0.379014
0.379194
0.379484
0.379664
0.379957
0.380138
0.380434
0.380617
0.380919
0.381106
0.381416
0.381607
0.381927
0.382125
0.382458
0.382666
0.383014
0.383233
0.3836
0.38383
0.384218
0.384461
0.38487
0.385124
0.385552
0.385817
0.386261
0.386532
0.386987
0.387263
0.387722
0.387995
0.388462
0.388696
)
;

boundaryField
{
    sides
    {
        type            calculated;
        value           nonuniform List<scalar> 2(0.388696 0.271751);
    }
    empty
    {
        type            empty;
    }
}


// ************************************************************************* //
