/*--------------------------------*- C++ -*----------------------------------*\
  =========                 |
  \\      /  F ield         | OpenFOAM: The Open Source CFD Toolbox
   \\    /   O peration     | Website:  https://openfoam.org
    \\  /    A nd           | Version:  9
     \\/     M anipulation  |
\*---------------------------------------------------------------------------*/
FoamFile
{
    format      ascii;
    class       volScalarField;
    location    "0.024";
    object      T;
}
// * * * * * * * * * * * * * * * * * * * * * * * * * * * * * * * * * * * * * //

dimensions      [0 0 0 1 0 0 0];

internalField   nonuniform List<scalar> 
100
(
300.436
298.557
297.404
296.168
294.954
293.733
292.51
291.282
290.05
288.815
287.578
286.343
285.115
283.898
282.695
281.506
280.332
279.169
278.014
276.864
275.716
274.568
273.421
272.274
271.13
269.987
268.849
267.713
266.579
265.447
264.319
263.195
262.076
260.961
259.849
258.74
257.633
256.532
255.437
254.349
253.269
252.201
251.156
250.163
249.266
248.549
248.081
247.826
247.728
247.686
247.632
247.52
247.432
247.398
247.396
247.428
247.488
247.502
247.501
247.489
247.463
247.455
247.46
247.488
247.523
247.527
247.524
247.516
247.506
247.501
247.504
247.521
247.545
247.552
247.55
247.544
247.542
247.537
247.531
247.537
247.56
247.58
247.59
247.592
247.589
247.58
247.544
247.496
247.468
247.58
248.333
249.225
249.557
249.646
249.653
249.716
250.262
251.043
251.272
251.351
)
;

boundaryField
{
    sides
    {
        type            zeroGradient;
    }
    empty
    {
        type            empty;
    }
}


// ************************************************************************* //
