/*--------------------------------*- C++ -*----------------------------------*\
  =========                 |
  \\      /  F ield         | OpenFOAM: The Open Source CFD Toolbox
   \\    /   O peration     | Website:  https://openfoam.org
    \\  /    A nd           | Version:  9
     \\/     M anipulation  |
\*---------------------------------------------------------------------------*/
FoamFile
{
    format      ascii;
    class       volVectorField;
    location    "0.024";
    object      U;
}
// * * * * * * * * * * * * * * * * * * * * * * * * * * * * * * * * * * * * * //

dimensions      [0 1 -1 0 0 0 0];

internalField   nonuniform List<vector> 
100
(
(142.027 0 0)
(147.366 0 0)
(150.464 0 0)
(153.815 0 0)
(157.104 0 0)
(160.409 0 0)
(163.711 0 0)
(167.014 0 0)
(170.317 0 0)
(173.62 0 0)
(176.925 0 0)
(180.23 0 0)
(183.535 0 0)
(186.842 0 0)
(190.149 0 0)
(193.457 0 0)
(196.765 0 0)
(200.075 0 0)
(203.385 0 0)
(206.696 0 0)
(210.009 0 0)
(213.322 0 0)
(216.635 0 0)
(219.949 0 0)
(223.265 0 0)
(226.582 0 0)
(229.9 0 0)
(233.218 0 0)
(236.533 0 0)
(239.846 0 0)
(243.159 0 0)
(246.476 0 0)
(249.798 0 0)
(253.123 0 0)
(256.445 0 0)
(259.76 0 0)
(263.071 0 0)
(266.381 0 0)
(269.694 0 0)
(273.006 0 0)
(276.305 0 0)
(279.571 0 0)
(282.762 0 0)
(285.804 0 0)
(288.515 0 0)
(290.691 0 0)
(292.167 0 0)
(292.886 0 0)
(293.134 0 0)
(293.194 0 0)
(293.251 0 0)
(293.403 0 0)
(293.532 0 0)
(293.584 0 0)
(293.598 0 0)
(293.624 0 0)
(293.683 0 0)
(293.68 0 0)
(293.677 0 0)
(293.673 0 0)
(293.638 0 0)
(293.628 0 0)
(293.611 0 0)
(293.532 0 0)
(293.465 0 0)
(293.433 0 0)
(293.426 0 0)
(293.431 0 0)
(293.446 0 0)
(293.456 0 0)
(293.452 0 0)
(293.395 0 0)
(293.321 0 0)
(293.284 0 0)
(293.27 0 0)
(293.269 0 0)
(293.279 0 0)
(293.289 0 0)
(293.289 0 0)
(293.261 0 0)
(293.178 0 0)
(293.114 0 0)
(293.073 0 0)
(293.046 0 0)
(293.035 0 0)
(293.047 0 0)
(293.146 0 0)
(293.309 0 0)
(293.354 0 0)
(292.987 0 0)
(290.576 0 0)
(287.687 0 0)
(286.567 0 0)
(286.354 0 0)
(286.353 0 0)
(286.166 0 0)
(284.427 0 0)
(281.984 0 0)
(280.96 0 0)
(280.792 0 0)
)
;

boundaryField
{
    sides
    {
        type            zeroGradient;
    }
    empty
    {
        type            empty;
    }
}


// ************************************************************************* //
