/*--------------------------------*- C++ -*----------------------------------*\
  =========                 |
  \\      /  F ield         | OpenFOAM: The Open Source CFD Toolbox
   \\    /   O peration     | Website:  https://openfoam.org
    \\  /    A nd           | Version:  9
     \\/     M anipulation  |
\*---------------------------------------------------------------------------*/
FoamFile
{
    format      ascii;
    class       volVectorField;
    location    "0.014";
    object      U;
}
// * * * * * * * * * * * * * * * * * * * * * * * * * * * * * * * * * * * * * //

dimensions      [0 1 -1 0 0 0 0];

internalField   nonuniform List<vector> 
100
(
(10.3295 0 0)
(22.6135 0 0)
(30.8998 0 0)
(38.2584 0 0)
(44.7204 0 0)
(50.8232 0 0)
(56.7506 0 0)
(62.6002 0 0)
(68.4073 0 0)
(74.1869 0 0)
(79.9461 0 0)
(85.6896 0 0)
(91.4206 0 0)
(97.1415 0 0)
(102.854 0 0)
(108.561 0 0)
(114.262 0 0)
(119.96 0 0)
(125.655 0 0)
(131.348 0 0)
(137.041 0 0)
(142.734 0 0)
(148.427 0 0)
(154.122 0 0)
(159.819 0 0)
(165.517 0 0)
(171.219 0 0)
(176.924 0 0)
(182.631 0 0)
(188.343 0 0)
(194.057 0 0)
(199.775 0 0)
(205.497 0 0)
(211.221 0 0)
(216.948 0 0)
(222.676 0 0)
(228.406 0 0)
(234.134 0 0)
(239.861 0 0)
(245.583 0 0)
(251.298 0 0)
(257.002 0 0)
(262.689 0 0)
(268.346 0 0)
(273.936 0 0)
(279.372 0 0)
(284.452 0 0)
(288.669 0 0)
(291.557 0 0)
(292.885 0 0)
(293.125 0 0)
(292.981 0 0)
(293.056 0 0)
(293.473 0 0)
(293.664 0 0)
(293.771 0 0)
(293.787 0 0)
(293.722 0 0)
(293.621 0 0)
(293.597 0 0)
(293.603 0 0)
(293.613 0 0)
(293.638 0 0)
(293.666 0 0)
(293.657 0 0)
(293.549 0 0)
(293.437 0 0)
(293.41 0 0)
(293.414 0 0)
(293.429 0 0)
(293.451 0 0)
(293.463 0 0)
(293.464 0 0)
(293.398 0 0)
(293.3 0 0)
(293.275 0 0)
(293.273 0 0)
(293.264 0 0)
(293.26 0 0)
(293.266 0 0)
(293.299 0 0)
(293.281 0 0)
(293.169 0 0)
(293.12 0 0)
(293.095 0 0)
(293.051 0 0)
(293.02 0 0)
(293.045 0 0)
(293.147 0 0)
(293.421 0 0)
(293.948 0 0)
(294.215 0 0)
(296.99 0 0)
(291.34 0 0)
(283.715 0 0)
(282.056 0 0)
(282.216 0 0)
(283.31 0 0)
(285.978 0 0)
(289.073 0 0)
)
;

boundaryField
{
    sides
    {
        type            zeroGradient;
    }
    empty
    {
        type            empty;
    }
}


// ************************************************************************* //
