/*--------------------------------*- C++ -*----------------------------------*\
  =========                 |
  \\      /  F ield         | OpenFOAM: The Open Source CFD Toolbox
   \\    /   O peration     | Website:  https://openfoam.org
    \\  /    A nd           | Version:  9
     \\/     M anipulation  |
\*---------------------------------------------------------------------------*/
FoamFile
{
    format      ascii;
    class       volScalarField;
    location    "0.036";
    object      T;
}
// * * * * * * * * * * * * * * * * * * * * * * * * * * * * * * * * * * * * * //

dimensions      [0 0 0 1 0 0 0];

internalField   nonuniform List<scalar> 
100
(
282.976
281.751
281.006
280.207
279.423
278.637
277.853
277.069
276.287
275.505
274.723
273.943
273.163
272.384
271.606
270.829
270.052
269.276
268.501
267.727
266.953
266.18
265.408
264.636
263.865
263.095
262.325
261.555
260.786
260.017
259.247
258.477
257.706
256.934
256.161
255.387
254.612
253.838
253.07
252.317
251.593
250.923
250.342
249.885
249.577
249.394
249.289
249.218
249.145
249.066
249.008
248.987
248.979
248.972
248.964
248.95
248.925
248.898
248.876
248.854
248.84
248.839
248.84
248.83
248.808
248.78
248.75
248.722
248.712
248.711
248.708
248.694
248.669
248.639
248.61
248.588
248.576
248.568
248.562
248.555
248.545
248.528
248.493
248.43
248.384
248.39
248.552
249.271
250.005
250.286
250.425
250.599
251.066
251.665
251.897
251.941
251.981
251.989
251.987
251.969
)
;

boundaryField
{
    sides
    {
        type            zeroGradient;
    }
    empty
    {
        type            empty;
    }
}


// ************************************************************************* //
