/*--------------------------------*- C++ -*----------------------------------*\
  =========                 |
  \\      /  F ield         | OpenFOAM: The Open Source CFD Toolbox
   \\    /   O peration     | Website:  https://openfoam.org
    \\  /    A nd           | Version:  9
     \\/     M anipulation  |
\*---------------------------------------------------------------------------*/
FoamFile
{
    format      ascii;
    class       volScalarField;
    location    "0.026";
    object      ddt0(rho,e);
}
// * * * * * * * * * * * * * * * * * * * * * * * * * * * * * * * * * * * * * //

dimensions      [1 -1 -3 0 0 0 0];

internalField   nonuniform List<scalar> 
1000
(
1.14314e+06
1.14155e+06
1.13869e+06
1.1347e+06
1.13446e+06
1.13573e+06
1.1337e+06
1.1272e+06
1.11923e+06
1.11391e+06
1.11378e+06
1.11882e+06
1.12714e+06
1.13614e+06
1.14349e+06
1.14791e+06
1.14929e+06
1.14969e+06
1.15153e+06
1.15782e+06
1.16536e+06
1.16491e+06
1.16463e+06
1.16439e+06
1.16422e+06
1.16413e+06
1.16409e+06
1.16408e+06
1.16411e+06
1.16415e+06
1.16419e+06
1.16424e+06
1.16429e+06
1.16436e+06
1.16441e+06
1.16446e+06
1.1645e+06
1.16456e+06
1.16461e+06
1.16467e+06
1.16472e+06
1.16478e+06
1.16483e+06
1.16489e+06
1.16494e+06
1.16499e+06
1.16505e+06
1.16511e+06
1.16516e+06
1.16521e+06
1.16526e+06
1.1653e+06
1.16535e+06
1.16539e+06
1.16544e+06
1.16549e+06
1.16554e+06
1.16559e+06
1.16563e+06
1.16568e+06
1.16572e+06
1.16577e+06
1.16582e+06
1.16586e+06
1.16591e+06
1.16595e+06
1.16599e+06
1.16603e+06
1.16607e+06
1.16611e+06
1.16615e+06
1.16619e+06
1.16623e+06
1.16627e+06
1.16631e+06
1.16634e+06
1.16638e+06
1.16642e+06
1.16646e+06
1.16649e+06
1.16653e+06
1.16656e+06
1.1666e+06
1.16663e+06
1.16666e+06
1.16669e+06
1.16673e+06
1.16676e+06
1.16679e+06
1.16682e+06
1.16685e+06
1.16688e+06
1.16692e+06
1.16694e+06
1.16698e+06
1.16698e+06
1.16706e+06
1.16699e+06
1.16719e+06
1.16691e+06
1.16742e+06
1.16668e+06
1.16786e+06
1.16625e+06
1.1684e+06
1.16585e+06
1.1686e+06
1.16629e+06
1.16737e+06
1.16787e+06
1.16711e+06
1.16716e+06
1.16747e+06
1.1677e+06
1.16663e+06
1.1689e+06
1.16507e+06
1.17064e+06
1.16392e+06
1.17059e+06
1.16592e+06
1.16662e+06
1.17108e+06
1.16226e+06
1.17234e+06
1.16572e+06
1.16493e+06
1.17375e+06
1.16112e+06
1.17017e+06
1.17106e+06
1.15984e+06
1.17441e+06
1.16702e+06
1.16096e+06
1.17679e+06
1.16336e+06
1.16297e+06
1.17779e+06
1.16069e+06
1.16482e+06
1.178e+06
1.15909e+06
1.16647e+06
1.17749e+06
1.15841e+06
1.16738e+06
1.17706e+06
1.15832e+06
1.16754e+06
1.17697e+06
1.15845e+06
1.16705e+06
1.17741e+06
1.15882e+06
1.16568e+06
1.17839e+06
1.15977e+06
1.16313e+06
1.17959e+06
1.16208e+06
1.15917e+06
1.17994e+06
1.16682e+06
1.15477e+06
1.17733e+06
1.17402e+06
1.15263e+06
1.17018e+06
1.18108e+06
1.15619e+06
1.16007e+06
1.18285e+06
1.16589e+06
1.15277e+06
1.17666e+06
1.17635e+06
1.15323e+06
1.16602e+06
1.18157e+06
1.16043e+06
1.15641e+06
1.18009e+06
1.17138e+06
1.15089e+06
1.17038e+06
1.18322e+06
1.15658e+06
1.1534e+06
1.1828e+06
1.17593e+06
1.14783e+06
1.16322e+06
1.18651e+06
1.16492e+06
1.14849e+06
1.1736e+06
1.18169e+06
1.1552e+06
1.15598e+06
1.18175e+06
1.17218e+06
1.148e+06
1.16546e+06
1.18733e+06
1.16335e+06
1.1437e+06
1.17182e+06
1.18921e+06
1.15884e+06
1.14405e+06
1.17455e+06
1.18555e+06
1.15592e+06
1.14921e+06
1.17823e+06
1.1799e+06
1.14992e+06
1.15245e+06
1.18455e+06
1.17971e+06
1.14436e+06
1.14902e+06
1.18619e+06
1.18358e+06
1.14617e+06
1.14627e+06
1.18187e+06
1.18262e+06
1.14883e+06
1.14851e+06
1.18192e+06
1.18131e+06
1.1458e+06
1.14455e+06
1.18287e+06
1.18904e+06
1.14958e+06
1.13599e+06
1.17282e+06
1.19237e+06
1.16022e+06
1.13716e+06
1.16511e+06
1.18987e+06
1.1636e+06
1.1349e+06
1.15902e+06
1.19399e+06
1.17557e+06
1.13444e+06
1.14215e+06
1.18471e+06
1.18763e+06
1.14805e+06
1.13691e+06
1.17249e+06
1.1896e+06
1.1564e+06
1.13068e+06
1.15904e+06
1.19481e+06
1.17706e+06
1.13448e+06
1.13666e+06
1.17788e+06
1.18889e+06
1.1534e+06
1.13282e+06
1.16185e+06
1.19098e+06
1.16968e+06
1.13089e+06
1.13744e+06
1.17994e+06
1.19171e+06
1.15526e+06
1.12873e+06
1.15248e+06
1.18614e+06
1.17494e+06
1.13679e+06
1.13296e+06
1.17113e+06
1.19278e+06
1.16394e+06
1.12741e+06
1.13708e+06
1.17646e+06
1.18556e+06
1.152e+06
1.12814e+06
1.15046e+06
1.18488e+06
1.17903e+06
1.14047e+06
1.12514e+06
1.15446e+06
1.18488e+06
1.17285e+06
1.13748e+06
1.13093e+06
1.16182e+06
1.18386e+06
1.16399e+06
1.13027e+06
1.13062e+06
1.16432e+06
1.1836e+06
1.16197e+06
1.13062e+06
1.13342e+06
1.16523e+06
1.18028e+06
1.15672e+06
1.12692e+06
1.13185e+06
1.1645e+06
1.18019e+06
1.15819e+06
1.12899e+06
1.13181e+06
1.16165e+06
1.1772e+06
1.15695e+06
1.12773e+06
1.12827e+06
1.15732e+06
1.17584e+06
1.15938e+06
1.13007e+06
1.12644e+06
1.15256e+06
1.17358e+06
1.16187e+06
1.13232e+06
1.12253e+06
1.14426e+06
1.1688e+06
1.1644e+06
1.13682e+06
1.12123e+06
1.13711e+06
1.16378e+06
1.16708e+06
1.14254e+06
1.12052e+06
1.12767e+06
1.15391e+06
1.16558e+06
1.1476e+06
1.12192e+06
1.11958e+06
1.14229e+06
1.16163e+06
1.15394e+06
1.12852e+06
1.11566e+06
1.13091e+06
1.15536e+06
1.15919e+06
1.13749e+06
1.11657e+06
1.12069e+06
1.14369e+06
1.15798e+06
1.14622e+06
1.12214e+06
1.11282e+06
1.12906e+06
1.151e+06
1.15225e+06
1.13128e+06
1.11178e+06
1.11579e+06
1.13764e+06
1.15131e+06
1.14062e+06
1.11731e+06
1.10713e+06
1.12108e+06
1.14158e+06
1.14526e+06
1.12779e+06
1.10734e+06
1.10685e+06
1.12568e+06
1.14166e+06
1.13692e+06
1.11586e+06
1.10106e+06
1.10826e+06
1.12783e+06
1.13804e+06
1.12706e+06
1.10543e+06
1.09579e+06
1.10841e+06
1.1287e+06
1.13165e+06
1.11414e+06
1.09621e+06
1.09366e+06
1.10761e+06
1.12356e+06
1.12246e+06
1.10404e+06
1.09363e+06
1.08872e+06
1.09813e+06
1.11458e+06
1.10801e+06
1.10393e+06
1.09636e+06
1.08944e+06
1.09242e+06
1.09443e+06
1.10148e+06
1.09934e+06
1.08728e+06
1.08035e+06
1.08108e+06
1.0868e+06
1.09313e+06
1.09075e+06
1.08041e+06
1.07224e+06
1.07132e+06
1.07635e+06
1.08261e+06
1.08109e+06
1.06972e+06
1.06187e+06
1.06285e+06
1.06738e+06
1.07297e+06
1.07115e+06
1.05874e+06
1.051e+06
1.05376e+06
1.05732e+06
1.06027e+06
1.05978e+06
1.05024e+06
1.04045e+06
1.03919e+06
1.04443e+06
1.05017e+06
1.04833e+06
1.03831e+06
1.03001e+06
1.02842e+06
1.0332e+06
1.03959e+06
1.03786e+06
1.02724e+06
1.01833e+06
1.01721e+06
1.02107e+06
1.02664e+06
1.02785e+06
1.01996e+06
1.00911e+06
1.00497e+06
1.01084e+06
1.01957e+06
1.0198e+06
1.00927e+06
997144
995458
1.00443e+06
1.01306e+06
1.0112e+06
1.00064e+06
990901
990622
1.00022e+06
1.00822e+06
1.00426e+06
991979
984897
988685
997412
1.00169e+06
997588
988349
982615
986774
996083
1.00104e+06
996118
986058
980029
984638
995523
1.00082e+06
994484
982878
978614
985243
996333
1.00116e+06
995339
984384
979037
984475
995454
1.00119e+06
996137
985029
978697
983725
995415
1.0026e+06
997793
986076
979270
984070
995788
1.00291e+06
998181
986477
979658
984320
996087
1.00304e+06
998313
987148
980533
985350
996421
1.00271e+06
998372
988175
982150
985736
995267
1.00116e+06
998186
989705
984160
986778
994562
999972
998151
991239
986024
987105
993073
998149
998090
993270
988453
987822
991410
995977
997590
995260
991186
988926
990025
993456
996479
996708
994364
991309
989971
991342
994197
996178
995823
993635
991453
990869
991980
993821
994856
994473
993178
991923
991493
991870
992464
992924
992905
992224
991486
991125
991277
991383
991259
990854
990245
990101
990095
990062
989896
989377
988870
988387
988010
987843
987651
987278
986854
986559
985951
985489
985074
984552
984365
983904
983320
982732
982110
981338
980634
980078
979566
979144
978584
977813
976876
975996
974948
973801
972723
971585
970676
969565
968421
967225
965774
964279
962695
960938
959008
957055
954734
952345
949883
947333
944552
941405
937992
934563
930834
926686
922211
917524
912523
906960
901008
894558
887788
880506
872815
864537
855698
846374
836350
825843
814720
802969
790478
777379
763848
749627
734827
719379
703334
686583
669326
651429
632995
613976
594634
574999
554723
534238
513466
492659
471537
450523
429506
408433
387644
366997
346670
326601
307092
287730
269246
251130
233575
216742
200486
185174
170396
156387
143099
130697
118990
108039
97723.2
88154.2
79396
71092.1
63549.9
56777.6
50384.8
44700
39300.1
34576.9
30419.7
26594.2
23239.4
20090.3
17276.3
14873.1
12778.3
10916.3
9248.97
7714.24
6394.46
5218.81
4239.61
3423.09
2596.07
1867.93
1458.99
1085.71
918.855
430.649
-86.7379
-45.2202
-116.869
-225.109
-578.16
-814.587
-852.678
-652.178
-850.44
-419.062
-201.535
-887.714
-2291.71
-2774.13
-3125.52
-519.367
-1538.16
-1051.59
-2033.82
-2818.87
-444.12
-860.259
-1966.31
-2991.61
-417.719
-1486.98
-1895.37
-3327.29
-855.51
-2222.58
-784.452
-1406.84
-2985.69
-3297.69
183.303
-1385.29
-1161.61
-2024.95
-3213.33
-426.964
-1417.15
-1462.18
-2062.72
-2058.29
-2068.82
-477.162
-2037.79
-3407.16
-476.015
-1733.67
-1499.5
-2102.93
-3565.56
-757.073
-2715.42
-1573.01
-1491.15
-2418.68
-4694.01
-764.771
-2065.49
-689.159
-1460.49
-3299.94
-3753.72
-2389.47
-611.696
-761.791
-632.229
-5122.98
-4785.49
-2876.34
2060.35
335.932
-1352.23
-6815.78
-8072.78
901.387
2729.29
781.068
-6693.05
-16025
4597.83
4404.53
2254.67
-22021.4
-7158.62
11377.1
5773.72
-9592.1
-36011.5
16479.9
9949.82
2918.14
-18005.1
-38719
20477.2
13358.1
13134.7
3314.11
-70725.5
-19658
26511.8
24811.9
29578.8
24087.4
-57586.1
-93608.8
31625.5
38938.2
36087.4
-25104.6
-177285
94410.5
55210.2
42891.3
-123592
-114748
78147.9
98338.1
8657.27
-254139
38632
126350
73849.5
-93236.8
-304229
146378
148342
77948.7
-176547
-276983
160675
167076
108594
-107963
-510688
245546
108391
168021
185837
-399472
-512915
207647
209096
231552
212448
120502
-552470
-567334
115015
429230
308989
415358
-428507
-864613
233480
274081
331081
-115976
-630407
-165010
324533
787100
-621078
-1.00858e+06
489764
303415
333788
-72170.4
-1.1145e+06
66755.6
-517.859
915331
548751
-800097
-884796
153115
644549
479145
671132
-358797
-968998
-226959
-69376
835496
733084
-1.01642e+06
-1.3229e+06
615634
834544
163965
-868020
-481822
339253
684991
510732
-682241
-460751
229557
368429
173466
-428376
115316
204142
-29771.1
-394358
181863
97311.1
-46129
-292097
148236
96158.1
-112753
-224317
135439
83419.1
-97255.6
-208486
127352
70000.1
-62495.5
-196334
119136
61296.3
-25371.4
-171594
104477
54799.9
17856.3
-177841
72810.9
41211.7
8784.13
-136617
46760
46555
4302.48
-80261.2
-11236.2
31417.6
28744.4
-55712.3
-43547.1
61758.1
54912.1
-73216.1
-50151.5
30941.5
49498.5
-28619.1
-79581.5
15099.4
49982.7
-64652.6
-76317.3
-16404.7
44374.8
6775.52
-55465.1
-17518.2
54715.7
-738.589
-77260.1
-44367.1
34730.3
)
;

boundaryField
{
    sides
    {
        type            calculated;
        value           nonuniform List<scalar> 2(34730.3 1.14314e+06);
    }
    empty
    {
        type            empty;
    }
}


// ************************************************************************* //
