/*--------------------------------*- C++ -*----------------------------------*\
  =========                 |
  \\      /  F ield         | OpenFOAM: The Open Source CFD Toolbox
   \\    /   O peration     | Website:  https://openfoam.org
    \\  /    A nd           | Version:  9
     \\/     M anipulation  |
\*---------------------------------------------------------------------------*/
FoamFile
{
    format      ascii;
    class       surfaceScalarField;
    location    "0.026";
    object      phi_0;
}
// * * * * * * * * * * * * * * * * * * * * * * * * * * * * * * * * * * * * * //

dimensions      [1 0 -1 0 0 0 0];

internalField   nonuniform List<scalar> 
999
(
21.4238
22.1817
22.9392
23.696
24.4526
25.2092
25.9655
26.7207
27.4747
28.228
28.981
29.7346
30.4892
31.2449
32.0014
32.7583
33.5153
34.2723
35.0293
35.787
36.5456
37.304
38.0622
38.8203
39.5782
40.3359
41.0935
41.851
42.6083
43.3655
44.1225
44.8794
45.6362
46.3929
47.1494
47.9058
48.662
49.4181
50.174
50.9299
51.6855
52.4411
53.1965
53.9518
54.7069
55.4619
56.2168
56.9715
57.7261
58.4805
59.2348
59.989
60.743
61.4969
62.2506
63.0042
63.7576
64.511
65.2641
66.0171
66.77
67.5227
68.2753
69.0278
69.7801
70.5322
71.2842
72.0361
72.7878
73.5394
74.2908
75.0421
75.7932
76.5442
77.295
78.0457
78.7962
79.5465
80.2968
81.0468
81.7968
82.5465
83.2962
84.0456
84.7949
85.5441
86.2931
87.0419
87.7906
88.5392
89.2876
90.0358
90.7839
91.5318
92.2796
93.0272
93.7746
94.5219
95.2691
96.016
96.7629
97.5095
98.2561
99.0023
99.7486
100.494
101.24
101.986
102.732
103.477
104.222
104.967
105.712
106.457
107.201
107.946
108.69
109.434
110.178
110.922
111.665
112.408
113.152
113.894
114.638
115.38
116.123
116.866
117.607
118.35
119.092
119.833
120.575
121.316
122.057
122.799
123.539
124.279
125.021
125.76
126.5
127.241
127.98
128.719
129.46
130.198
130.937
131.677
132.415
133.153
133.893
134.63
135.368
136.107
136.844
137.581
138.319
139.056
139.792
140.53
141.266
142.001
142.739
143.475
144.209
144.946
145.682
146.416
147.151
147.888
148.621
149.355
150.091
150.825
151.557
152.292
153.027
153.758
154.491
155.226
155.958
156.689
157.423
158.156
158.886
159.618
160.352
161.082
161.812
162.545
163.277
164.005
164.735
165.468
166.198
166.925
167.656
168.387
169.115
169.843
170.574
171.303
172.029
172.757
173.488
174.215
174.94
175.668
176.399
177.125
177.849
178.576
179.305
180.03
180.754
181.481
182.209
182.932
183.655
184.383
185.11
185.831
186.553
187.28
188.006
188.728
189.448
190.174
190.899
191.62
192.34
193.065
193.789
194.508
195.227
195.951
196.676
197.395
198.112
198.833
199.557
200.277
200.993
201.713
202.436
203.155
203.87
204.588
205.311
206.03
206.744
207.459
208.18
208.9
209.615
210.329
211.046
211.766
212.482
213.193
213.908
214.628
215.345
216.056
216.768
217.484
218.202
218.915
219.624
220.338
221.055
221.769
222.477
223.187
223.901
224.617
225.328
226.035
226.745
227.459
228.172
228.879
229.586
230.297
231.011
231.721
232.425
233.131
233.842
234.554
235.261
235.964
236.671
237.381
238.091
238.795
239.497
240.203
240.912
241.619
242.322
243.023
243.729
244.437
245.142
245.842
246.542
247.246
247.953
248.656
249.355
250.054
250.757
251.462
252.164
252.861
253.558
254.26
254.963
255.664
256.36
257.056
257.756
258.457
259.156
259.851
260.545
261.243
261.943
262.64
263.334
264.026
264.722
265.42
266.117
266.809
267.5
268.193
268.889
269.584
270.276
270.965
271.655
272.349
273.043
273.734
274.421
275.109
275.8
276.493
277.182
277.868
278.554
279.241
279.932
280.621
281.306
281.989
282.674
283.361
284.049
284.734
285.416
286.097
286.782
287.468
288.152
288.832
289.511
290.192
290.875
291.559
292.239
292.916
293.593
294.272
294.953
295.633
296.309
296.983
297.658
298.336
299.014
299.689
300.361
301.033
301.707
302.382
303.057
303.728
304.397
305.066
305.737
306.41
307.08
307.747
308.412
309.079
309.748
310.417
311.082
311.746
312.408
313.071
313.736
314.401
315.062
315.722
316.38
317.039
317.7
318.359
319.018
319.676
320.332
320.988
321.643
322.298
322.953
323.605
324.255
324.906
325.556
326.207
326.857
327.505
328.151
328.796
329.441
330.086
330.731
331.373
332.014
332.654
333.295
333.935
334.575
335.212
335.848
336.483
337.119
337.754
338.388
339.02
339.651
340.28
340.91
341.54
342.169
342.796
343.422
344.047
344.672
345.297
345.922
346.545
347.166
347.786
348.407
349.028
349.649
350.268
350.886
351.503
352.12
352.739
353.357
353.974
354.589
355.204
355.82
356.437
357.054
357.669
358.284
358.898
359.514
360.132
360.748
361.364
361.979
362.595
363.212
363.83
364.448
365.066
365.683
366.301
366.921
367.542
368.163
368.783
369.403
370.025
370.648
371.273
371.897
372.521
373.145
373.771
374.398
375.027
375.656
376.285
376.913
377.543
378.175
378.809
379.442
380.075
380.708
381.343
381.979
382.618
383.256
383.894
384.532
385.171
385.813
386.456
387.1
387.742
388.385
389.029
389.675
390.323
390.971
391.619
392.266
392.915
393.566
394.219
394.872
395.525
396.177
396.831
397.487
398.144
398.802
399.46
400.117
400.776
401.436
402.098
402.761
403.423
404.086
404.75
405.415
406.081
406.749
407.416
408.084
408.752
409.422
410.093
410.765
411.437
412.11
412.783
413.458
414.133
414.81
415.487
416.165
416.843
417.522
418.202
418.884
419.566
420.249
420.932
421.616
422.3
422.986
423.672
424.36
425.048
425.737
426.426
427.116
427.807
428.499
429.192
429.885
430.579
431.274
431.969
432.665
433.362
434.06
434.758
435.457
436.157
436.858
437.559
438.261
438.964
439.667
440.371
441.076
441.781
442.487
443.194
443.901
444.609
445.318
446.027
446.737
447.448
448.159
448.87
449.582
450.295
451.008
451.722
452.436
453.151
453.866
454.582
455.298
456.015
456.731
457.449
458.166
458.883
459.601
460.319
461.037
461.755
462.473
463.192
463.909
464.627
465.345
466.062
466.778
467.494
468.209
468.923
469.637
470.349
471.059
471.769
472.476
473.182
473.885
474.586
475.285
475.98
476.673
477.361
478.046
478.727
479.403
480.074
480.739
481.399
482.052
482.699
483.338
483.969
484.593
485.207
485.812
486.408
486.993
487.567
488.129
488.68
489.219
489.744
490.256
490.754
491.238
491.707
492.161
492.6
493.023
493.43
493.821
494.196
494.555
494.897
495.222
495.532
495.825
496.102
496.364
496.61
496.841
497.057
497.259
497.447
497.622
497.784
497.934
498.071
498.198
498.314
498.421
498.517
498.605
498.685
498.757
498.822
498.881
498.933
498.98
499.022
499.059
499.092
499.121
499.147
499.169
499.189
499.207
499.222
499.235
499.246
499.256
499.265
499.272
499.278
499.284
499.288
499.292
499.295
499.298
499.3
499.302
499.304
499.305
499.306
499.307
499.308
499.308
499.309
499.309
499.31
499.31
499.311
499.311
499.312
499.312
499.312
499.311
499.31
499.309
499.309
499.309
499.31
499.309
499.308
499.308
499.309
499.308
499.307
499.307
499.308
499.307
499.306
499.306
499.306
499.307
499.306
499.305
499.304
499.304
499.305
499.305
499.305
499.304
499.304
499.305
499.305
499.304
499.303
499.303
499.304
499.303
499.302
499.302
499.303
499.303
499.302
499.3
499.3
499.301
499.301
499.301
499.299
499.297
499.296
499.298
499.299
499.298
499.296
499.293
499.295
499.296
499.297
499.297
499.293
499.288
499.292
499.295
499.296
499.295
499.291
499.283
499.287
499.294
499.296
499.29
499.277
499.28
499.291
499.292
499.277
499.263
499.284
499.29
499.282
499.257
499.261
499.284
499.284
499.268
499.231
499.248
499.278
499.284
499.276
499.228
499.189
499.248
499.276
499.297
499.306
499.265
499.175
499.188
499.273
499.298
499.259
499.142
499.155
499.262
499.272
499.198
499.041
499.166
499.266
499.258
499.078
498.986
499.206
499.269
499.183
498.938
498.982
499.21
499.227
499.103
498.816
498.935
499.2
499.266
499.133
498.76
498.78
499.079
499.213
499.248
498.963
498.483
498.633
499.009
499.239
499.353
499.312
498.816
498.199
498.647
499.084
499.334
499.492
499.201
498.412
498.296
498.996
499.271
499.18
498.567
498.11
498.782
499.178
498.842
498.014
497.98
498.795
499.11
499.082
498.129
497.66
498.337
498.968
499.217
498.539
497.573
497.78
498.626
499.135
499.483
499.511
498.344
497.802
498.384
498.964
499.343
498.71
497.551
497.88
498.834
499
498.302
497.508
498.081
498.807
499.062
498.612
497.932
498.174
498.668
498.781
498.482
498.304
498.637
498.668
498.324
498.276
498.542
498.548
498.27
498.235
498.472
498.439
498.187
498.186
498.383
498.358
498.139
498.141
498.315
498.314
498.128
498.117
498.267
498.28
498.13
498.116
498.238
498.267
498.148
498.115
498.212
498.236
498.153
498.123
498.206
498.227
498.169
498.127
498.188
498.216
498.183
498.129
498.177
498.23
498.193
498.135
498.162
498.23
498.232
498.164
498.153
498.214
498.201
498.124
498.106
498.171
498.194
498.146
498.117
498.169
498.202
498.13
498.088
)
;

boundaryField
{
    sides
    {
        type            calculated;
        value           nonuniform List<scalar> 2(498.112 -20.6654);
    }
    empty
    {
        type            empty;
        value           nonuniform List<scalar> 0();
    }
}


// ************************************************************************* //
