/*--------------------------------*- C++ -*----------------------------------*\
  =========                 |
  \\      /  F ield         | OpenFOAM: The Open Source CFD Toolbox
   \\    /   O peration     | Website:  https://openfoam.org
    \\  /    A nd           | Version:  9
     \\/     M anipulation  |
\*---------------------------------------------------------------------------*/
FoamFile
{
    format      ascii;
    class       volScalarField;
    location    "0.026";
    object      T;
}
// * * * * * * * * * * * * * * * * * * * * * * * * * * * * * * * * * * * * * //

dimensions      [0 0 0 1 0 0 0];

internalField   nonuniform List<scalar> 
1000
(
236.55
236.57
236.608
236.652
236.696
236.733
236.768
236.804
236.848
236.898
236.948
236.991
237.024
237.046
237.057
237.061
237.061
237.061
237.06
237.055
237.042
237.026
237.011
236.997
236.983
236.968
236.954
236.94
236.926
236.912
236.898
236.885
236.871
236.857
236.843
236.829
236.815
236.801
236.787
236.773
236.759
236.745
236.731
236.717
236.702
236.688
236.674
236.66
236.646
236.632
236.618
236.604
236.59
236.575
236.561
236.547
236.533
236.519
236.505
236.49
236.476
236.462
236.448
236.433
236.419
236.405
236.391
236.376
236.362
236.348
236.333
236.319
236.305
236.29
236.276
236.262
236.247
236.233
236.218
236.204
236.19
236.175
236.161
236.146
236.132
236.117
236.103
236.088
236.074
236.059
236.045
236.03
236.016
236.001
235.987
235.972
235.958
235.943
235.928
235.914
235.899
235.884
235.87
235.854
235.842
235.824
235.813
235.794
235.784
235.764
235.755
235.735
235.725
235.705
235.695
235.676
235.665
235.648
235.633
235.621
235.602
235.592
235.573
235.56
235.546
235.527
235.517
235.499
235.484
235.473
235.453
235.441
235.427
235.407
235.397
235.381
235.363
235.353
235.335
235.318
235.308
235.289
235.273
235.263
235.244
235.228
235.218
235.198
235.183
235.172
235.153
235.137
235.127
235.108
235.092
235.081
235.063
235.046
235.035
235.018
234.999
234.989
234.973
234.953
234.942
234.928
234.908
234.894
234.883
234.863
234.847
234.837
234.819
234.8
234.789
234.775
234.754
234.74
234.729
234.71
234.692
234.682
234.666
234.646
234.633
234.621
234.601
234.584
234.574
234.558
234.537
234.523
234.513
234.494
234.474
234.463
234.45
234.43
234.413
234.402
234.386
234.366
234.352
234.341
234.322
234.302
234.291
234.279
234.259
234.239
234.229
234.216
234.195
234.178
234.167
234.152
234.132
234.115
234.105
234.089
234.067
234.052
234.042
234.027
234.005
233.988
233.978
233.963
233.942
233.925
233.915
233.9
233.878
233.862
233.852
233.837
233.815
233.797
233.787
233.774
233.754
233.734
233.722
233.71
233.691
233.67
233.658
233.647
233.628
233.606
233.591
233.582
233.567
233.545
233.527
233.516
233.503
233.482
233.463
233.451
233.44
233.421
233.399
233.384
233.374
233.36
233.338
233.319
233.307
233.295
233.276
233.255
233.241
233.231
233.216
233.195
233.175
233.163
233.152
233.134
233.113
233.097
233.086
233.073
233.052
233.032
233.018
233.007
232.992
232.972
232.953
232.94
232.929
232.911
232.89
232.873
232.862
232.85
232.832
232.811
232.795
232.784
232.77
232.752
232.732
232.717
232.706
232.692
232.673
232.654
232.639
232.628
232.613
232.595
232.576
232.561
232.55
232.536
232.517
232.499
232.484
232.473
232.459
232.44
232.422
232.407
232.396
232.383
232.365
232.346
232.332
232.32
232.307
232.29
232.272
232.256
232.245
232.233
232.217
232.199
232.183
232.171
232.16
232.145
232.127
232.111
232.098
232.087
232.074
232.058
232.041
232.028
232.017
232.006
231.991
231.974
231.96
231.949
231.939
231.926
231.91
231.895
231.883
231.873
231.862
231.848
231.833
231.82
231.81
231.801
231.789
231.774
231.761
231.751
231.742
231.732
231.72
231.706
231.696
231.687
231.68
231.669
231.657
231.646
231.638
231.631
231.624
231.614
231.603
231.594
231.588
231.582
231.576
231.567
231.558
231.552
231.547
231.544
231.538
231.531
231.525
231.521
231.519
231.517
231.514
231.509
231.506
231.505
231.506
231.506
231.506
231.505
231.505
231.505
231.507
231.509
231.512
231.516
231.519
231.523
231.529
231.536
231.544
231.551
231.559
231.567
231.578
231.589
231.601
231.613
231.626
231.639
231.655
231.671
231.689
231.706
231.724
231.743
231.765
231.787
231.81
231.834
231.858
231.883
231.911
231.94
231.97
232
232.031
232.063
232.098
232.134
232.171
232.208
232.246
232.285
232.327
232.37
232.414
232.458
232.503
232.549
232.597
232.647
232.698
232.75
232.801
232.853
232.908
232.964
233.021
233.078
233.135
233.193
233.253
233.315
233.377
233.438
233.5
233.563
233.628
233.693
233.759
233.824
233.889
233.955
234.023
234.092
234.16
234.227
234.295
234.364
234.433
234.504
234.574
234.643
234.712
234.782
234.853
234.925
234.996
235.066
235.136
235.207
235.279
235.351
235.422
235.493
235.564
235.635
235.707
235.78
235.852
235.923
235.993
236.065
236.137
236.21
236.283
236.354
236.425
236.496
236.569
236.642
236.715
236.786
236.857
236.929
237.002
237.075
237.147
237.219
237.29
237.362
237.435
237.508
237.581
237.652
237.724
237.796
237.869
237.942
238.014
238.086
238.158
238.23
238.303
238.376
238.449
238.521
238.593
238.665
238.738
238.81
238.883
238.956
239.028
239.1
239.172
239.245
239.318
239.391
239.463
239.535
239.608
239.68
239.753
239.826
239.898
239.971
240.043
240.115
240.188
240.261
240.333
240.406
240.478
240.551
240.623
240.696
240.768
240.841
240.914
240.986
241.059
241.131
241.204
241.276
241.349
241.421
241.494
241.567
241.639
241.712
241.784
241.857
241.93
242.002
242.075
242.147
242.22
242.293
242.365
242.438
242.51
242.583
242.656
242.728
242.801
242.873
242.946
243.019
243.091
243.164
243.236
243.309
243.381
243.454
243.526
243.599
243.671
243.744
243.816
243.888
243.961
244.033
244.105
244.177
244.25
244.322
244.394
244.466
244.538
244.609
244.681
244.753
244.824
244.895
244.967
245.038
245.109
245.18
245.25
245.32
245.391
245.461
245.53
245.6
245.669
245.737
245.806
245.874
245.941
246.008
246.075
246.141
246.207
246.271
246.336
246.399
246.462
246.524
246.585
246.646
246.705
246.764
246.821
246.877
246.933
246.987
247.039
247.091
247.141
247.19
247.238
247.284
247.328
247.371
247.413
247.453
247.491
247.528
247.564
247.597
247.629
247.66
247.689
247.716
247.742
247.767
247.789
247.811
247.831
247.85
247.867
247.883
247.898
247.912
247.925
247.936
247.947
247.957
247.966
247.974
247.981
247.988
247.994
247.999
248.004
248.008
248.012
248.015
248.018
248.021
248.024
248.026
248.028
248.029
248.031
248.032
248.033
248.034
248.035
248.036
248.036
248.037
248.037
248.038
248.038
248.039
248.039
248.039
248.04
248.04
248.04
248.04
248.04
248.041
248.041
248.041
248.041
248.041
248.041
248.041
248.042
248.042
248.042
248.042
248.042
248.042
248.042
248.042
248.042
248.042
248.043
248.043
248.043
248.043
248.043
248.043
248.043
248.043
248.043
248.043
248.044
248.044
248.044
248.044
248.044
248.044
248.044
248.045
248.045
248.045
248.045
248.045
248.045
248.045
248.045
248.045
248.046
248.046
248.046
248.046
248.046
248.046
248.047
248.047
248.047
248.047
248.047
248.047
248.047
248.048
248.048
248.048
248.048
248.049
248.049
248.049
248.049
248.05
248.05
248.051
248.051
248.051
248.051
248.052
248.053
248.053
248.054
248.054
248.055
248.056
248.057
248.058
248.057
248.058
248.06
248.062
248.062
248.062
248.064
248.067
248.068
248.068
248.068
248.073
248.076
248.077
248.076
248.078
248.085
248.088
248.09
248.09
248.088
248.096
248.106
248.11
248.116
248.118
248.114
248.118
248.133
248.143
248.146
248.142
248.144
248.165
248.173
248.178
248.171
248.186
248.207
248.218
248.216
248.21
248.238
248.262
248.268
248.259
248.264
248.307
248.321
248.327
248.319
248.334
248.378
248.406
248.412
248.396
248.4
248.454
248.488
248.516
248.514
248.491
248.503
248.581
248.622
248.662
248.672
248.661
248.622
248.674
248.759
248.812
248.85
248.856
248.812
248.816
248.894
248.969
248.984
248.972
248.934
249.012
249.084
249.105
249.054
249.06
249.165
249.245
249.262
249.23
249.182
249.28
249.36
249.414
249.394
249.322
249.346
249.453
249.569
249.593
249.627
249.568
249.522
249.596
249.67
249.743
249.733
249.639
249.654
249.786
249.823
249.801
249.733
249.782
249.876
249.922
249.913
249.86
249.884
249.948
249.977
249.974
249.955
249.997
250.016
250.003
250.001
250.037
250.051
250.04
250.038
250.07
250.081
250.067
250.067
250.096
250.105
250.093
250.092
250.116
250.126
250.116
250.114
250.133
250.141
250.134
250.133
250.147
250.154
250.15
250.146
250.158
250.164
250.163
250.158
250.168
250.174
250.173
250.169
250.175
250.181
250.181
250.178
250.179
250.187
250.186
250.182
250.184
250.192
250.194
250.19
250.189
250.195
250.198
250.193
250.19
250.196
250.2
250.198
250.194
250.198
250.202
250.199
250.196
)
;

boundaryField
{
    sides
    {
        type            zeroGradient;
    }
    empty
    {
        type            empty;
    }
}


// ************************************************************************* //
