/*--------------------------------*- C++ -*----------------------------------*\
  =========                 |
  \\      /  F ield         | OpenFOAM: The Open Source CFD Toolbox
   \\    /   O peration     | Website:  https://openfoam.org
    \\  /    A nd           | Version:  9
     \\/     M anipulation  |
\*---------------------------------------------------------------------------*/
FoamFile
{
    format      ascii;
    class       volVectorField;
    location    "0.026";
    object      U_0;
}
// * * * * * * * * * * * * * * * * * * * * * * * * * * * * * * * * * * * * * //

dimensions      [0 1 -1 0 0 0 0];

internalField   nonuniform List<vector> 
1000
(
(13.4462 0 0)
(14.0669 0 0)
(14.6915 0 0)
(15.2035 0 0)
(15.6839 0 0)
(16.1738 0 0)
(16.6728 0 0)
(17.1733 0 0)
(17.6728 0 0)
(18.1719 0 0)
(18.6714 0 0)
(19.1712 0 0)
(19.6711 0 0)
(20.1709 0 0)
(20.6706 0 0)
(21.1701 0 0)
(21.6697 0 0)
(22.1694 0 0)
(22.6691 0 0)
(23.1689 0 0)
(23.6688 0 0)
(24.1687 0 0)
(24.6685 0 0)
(25.1684 0 0)
(25.6683 0 0)
(26.1683 0 0)
(26.6684 0 0)
(27.1685 0 0)
(27.6687 0 0)
(28.169 0 0)
(28.6693 0 0)
(29.1697 0 0)
(29.6701 0 0)
(30.1706 0 0)
(30.6712 0 0)
(31.1718 0 0)
(31.6725 0 0)
(32.1732 0 0)
(32.674 0 0)
(33.1748 0 0)
(33.6757 0 0)
(34.1767 0 0)
(34.6777 0 0)
(35.1788 0 0)
(35.6799 0 0)
(36.1811 0 0)
(36.6824 0 0)
(37.1837 0 0)
(37.6851 0 0)
(38.1865 0 0)
(38.688 0 0)
(39.1896 0 0)
(39.6912 0 0)
(40.1929 0 0)
(40.6946 0 0)
(41.1964 0 0)
(41.6982 0 0)
(42.2001 0 0)
(42.7021 0 0)
(43.2041 0 0)
(43.7062 0 0)
(44.2083 0 0)
(44.7105 0 0)
(45.2128 0 0)
(45.7151 0 0)
(46.2175 0 0)
(46.7199 0 0)
(47.2224 0 0)
(47.7249 0 0)
(48.2275 0 0)
(48.7302 0 0)
(49.2329 0 0)
(49.7357 0 0)
(50.2385 0 0)
(50.7414 0 0)
(51.2443 0 0)
(51.7473 0 0)
(52.2504 0 0)
(52.7535 0 0)
(53.2567 0 0)
(53.7599 0 0)
(54.2632 0 0)
(54.7666 0 0)
(55.27 0 0)
(55.7734 0 0)
(56.2769 0 0)
(56.7805 0 0)
(57.2841 0 0)
(57.7878 0 0)
(58.2916 0 0)
(58.7954 0 0)
(59.2992 0 0)
(59.8031 0 0)
(60.3071 0 0)
(60.8111 0 0)
(61.3152 0 0)
(61.8193 0 0)
(62.3235 0 0)
(62.8278 0 0)
(63.3321 0 0)
(63.8365 0 0)
(64.3409 0 0)
(64.8454 0 0)
(65.3499 0 0)
(65.8545 0 0)
(66.3591 0 0)
(66.8638 0 0)
(67.3685 0 0)
(67.8733 0 0)
(68.3782 0 0)
(68.8831 0 0)
(69.3881 0 0)
(69.8931 0 0)
(70.3982 0 0)
(70.9033 0 0)
(71.4085 0 0)
(71.9138 0 0)
(72.4191 0 0)
(72.9244 0 0)
(73.4298 0 0)
(73.9353 0 0)
(74.4408 0 0)
(74.9464 0 0)
(75.452 0 0)
(75.9577 0 0)
(76.4634 0 0)
(76.9692 0 0)
(77.475 0 0)
(77.9809 0 0)
(78.4869 0 0)
(78.9929 0 0)
(79.4989 0 0)
(80.005 0 0)
(80.5112 0 0)
(81.0174 0 0)
(81.5237 0 0)
(82.03 0 0)
(82.5363 0 0)
(83.0428 0 0)
(83.5492 0 0)
(84.0558 0 0)
(84.5624 0 0)
(85.069 0 0)
(85.5757 0 0)
(86.0824 0 0)
(86.5892 0 0)
(87.096 0 0)
(87.603 0 0)
(88.1099 0 0)
(88.6169 0 0)
(89.1239 0 0)
(89.631 0 0)
(90.1382 0 0)
(90.6454 0 0)
(91.1526 0 0)
(91.6599 0 0)
(92.1673 0 0)
(92.6746 0 0)
(93.1821 0 0)
(93.6896 0 0)
(94.1972 0 0)
(94.7048 0 0)
(95.2125 0 0)
(95.7201 0 0)
(96.2279 0 0)
(96.7357 0 0)
(97.2436 0 0)
(97.7514 0 0)
(98.2594 0 0)
(98.7674 0 0)
(99.2754 0 0)
(99.7835 0 0)
(100.292 0 0)
(100.8 0 0)
(101.308 0 0)
(101.816 0 0)
(102.325 0 0)
(102.833 0 0)
(103.342 0 0)
(103.85 0 0)
(104.359 0 0)
(104.867 0 0)
(105.376 0 0)
(105.884 0 0)
(106.393 0 0)
(106.902 0 0)
(107.411 0 0)
(107.92 0 0)
(108.428 0 0)
(108.937 0 0)
(109.446 0 0)
(109.955 0 0)
(110.465 0 0)
(110.974 0 0)
(111.483 0 0)
(111.992 0 0)
(112.501 0 0)
(113.011 0 0)
(113.52 0 0)
(114.029 0 0)
(114.539 0 0)
(115.048 0 0)
(115.558 0 0)
(116.067 0 0)
(116.577 0 0)
(117.086 0 0)
(117.596 0 0)
(118.106 0 0)
(118.616 0 0)
(119.125 0 0)
(119.635 0 0)
(120.145 0 0)
(120.655 0 0)
(121.165 0 0)
(121.675 0 0)
(122.185 0 0)
(122.695 0 0)
(123.205 0 0)
(123.715 0 0)
(124.225 0 0)
(124.736 0 0)
(125.246 0 0)
(125.756 0 0)
(126.266 0 0)
(126.777 0 0)
(127.287 0 0)
(127.797 0 0)
(128.308 0 0)
(128.818 0 0)
(129.329 0 0)
(129.839 0 0)
(130.35 0 0)
(130.861 0 0)
(131.371 0 0)
(131.882 0 0)
(132.392 0 0)
(132.903 0 0)
(133.414 0 0)
(133.925 0 0)
(134.435 0 0)
(134.946 0 0)
(135.457 0 0)
(135.968 0 0)
(136.479 0 0)
(136.99 0 0)
(137.5 0 0)
(138.011 0 0)
(138.522 0 0)
(139.033 0 0)
(139.544 0 0)
(140.055 0 0)
(140.566 0 0)
(141.077 0 0)
(141.588 0 0)
(142.099 0 0)
(142.611 0 0)
(143.122 0 0)
(143.633 0 0)
(144.144 0 0)
(144.655 0 0)
(145.166 0 0)
(145.677 0 0)
(146.188 0 0)
(146.7 0 0)
(147.211 0 0)
(147.722 0 0)
(148.233 0 0)
(148.744 0 0)
(149.256 0 0)
(149.767 0 0)
(150.278 0 0)
(150.789 0 0)
(151.3 0 0)
(151.811 0 0)
(152.323 0 0)
(152.834 0 0)
(153.345 0 0)
(153.856 0 0)
(154.367 0 0)
(154.879 0 0)
(155.39 0 0)
(155.901 0 0)
(156.412 0 0)
(156.923 0 0)
(157.434 0 0)
(157.945 0 0)
(158.456 0 0)
(158.967 0 0)
(159.478 0 0)
(159.989 0 0)
(160.5 0 0)
(161.011 0 0)
(161.522 0 0)
(162.033 0 0)
(162.544 0 0)
(163.054 0 0)
(163.565 0 0)
(164.076 0 0)
(164.587 0 0)
(165.097 0 0)
(165.608 0 0)
(166.118 0 0)
(166.629 0 0)
(167.139 0 0)
(167.65 0 0)
(168.16 0 0)
(168.67 0 0)
(169.181 0 0)
(169.691 0 0)
(170.201 0 0)
(170.711 0 0)
(171.221 0 0)
(171.731 0 0)
(172.241 0 0)
(172.75 0 0)
(173.26 0 0)
(173.77 0 0)
(174.279 0 0)
(174.789 0 0)
(175.298 0 0)
(175.807 0 0)
(176.316 0 0)
(176.825 0 0)
(177.334 0 0)
(177.843 0 0)
(178.352 0 0)
(178.86 0 0)
(179.369 0 0)
(179.877 0 0)
(180.385 0 0)
(180.893 0 0)
(181.401 0 0)
(181.909 0 0)
(182.417 0 0)
(182.924 0 0)
(183.431 0 0)
(183.938 0 0)
(184.445 0 0)
(184.952 0 0)
(185.459 0 0)
(185.965 0 0)
(186.472 0 0)
(186.978 0 0)
(187.484 0 0)
(187.989 0 0)
(188.495 0 0)
(189 0 0)
(189.505 0 0)
(190.01 0 0)
(190.514 0 0)
(191.018 0 0)
(191.522 0 0)
(192.026 0 0)
(192.529 0 0)
(193.033 0 0)
(193.535 0 0)
(194.038 0 0)
(194.54 0 0)
(195.042 0 0)
(195.544 0 0)
(196.045 0 0)
(196.546 0 0)
(197.046 0 0)
(197.546 0 0)
(198.046 0 0)
(198.546 0 0)
(199.045 0 0)
(199.543 0 0)
(200.041 0 0)
(200.539 0 0)
(201.036 0 0)
(201.533 0 0)
(202.029 0 0)
(202.524 0 0)
(203.02 0 0)
(203.514 0 0)
(204.008 0 0)
(204.502 0 0)
(204.995 0 0)
(205.487 0 0)
(205.978 0 0)
(206.469 0 0)
(206.96 0 0)
(207.449 0 0)
(207.938 0 0)
(208.426 0 0)
(208.914 0 0)
(209.4 0 0)
(209.886 0 0)
(210.371 0 0)
(210.855 0 0)
(211.338 0 0)
(211.82 0 0)
(212.301 0 0)
(212.781 0 0)
(213.261 0 0)
(213.739 0 0)
(214.216 0 0)
(214.692 0 0)
(215.167 0 0)
(215.64 0 0)
(216.113 0 0)
(216.584 0 0)
(217.053 0 0)
(217.521 0 0)
(217.988 0 0)
(218.453 0 0)
(218.917 0 0)
(219.379 0 0)
(219.839 0 0)
(220.298 0 0)
(220.756 0 0)
(221.214 0 0)
(221.67 0 0)
(222.126 0 0)
(222.578 0 0)
(223.028 0 0)
(223.475 0 0)
(223.919 0 0)
(224.362 0 0)
(224.802 0 0)
(225.241 0 0)
(225.677 0 0)
(226.11 0 0)
(226.542 0 0)
(226.971 0 0)
(227.397 0 0)
(227.821 0 0)
(228.242 0 0)
(228.66 0 0)
(229.075 0 0)
(229.488 0 0)
(229.898 0 0)
(230.305 0 0)
(230.709 0 0)
(231.11 0 0)
(231.508 0 0)
(231.903 0 0)
(232.294 0 0)
(232.682 0 0)
(233.067 0 0)
(233.448 0 0)
(233.826 0 0)
(234.2 0 0)
(234.57 0 0)
(234.937 0 0)
(235.301 0 0)
(235.66 0 0)
(236.016 0 0)
(236.368 0 0)
(236.717 0 0)
(237.062 0 0)
(237.402 0 0)
(237.74 0 0)
(238.073 0 0)
(238.402 0 0)
(238.728 0 0)
(239.05 0 0)
(239.368 0 0)
(239.682 0 0)
(239.993 0 0)
(240.3 0 0)
(240.604 0 0)
(240.904 0 0)
(241.201 0 0)
(241.494 0 0)
(241.784 0 0)
(242.07 0 0)
(242.353 0 0)
(242.634 0 0)
(242.911 0 0)
(243.185 0 0)
(243.457 0 0)
(243.726 0 0)
(243.992 0 0)
(244.256 0 0)
(244.517 0 0)
(244.776 0 0)
(245.033 0 0)
(245.288 0 0)
(245.541 0 0)
(245.792 0 0)
(246.041 0 0)
(246.289 0 0)
(246.535 0 0)
(246.78 0 0)
(247.023 0 0)
(247.265 0 0)
(247.506 0 0)
(247.746 0 0)
(247.985 0 0)
(248.223 0 0)
(248.46 0 0)
(248.697 0 0)
(248.933 0 0)
(249.168 0 0)
(249.403 0 0)
(249.637 0 0)
(249.871 0 0)
(250.104 0 0)
(250.337 0 0)
(250.57 0 0)
(250.803 0 0)
(251.035 0 0)
(251.268 0 0)
(251.5 0 0)
(251.732 0 0)
(251.963 0 0)
(252.195 0 0)
(252.427 0 0)
(252.659 0 0)
(252.89 0 0)
(253.122 0 0)
(253.353 0 0)
(253.585 0 0)
(253.816 0 0)
(254.048 0 0)
(254.279 0 0)
(254.511 0 0)
(254.743 0 0)
(254.974 0 0)
(255.206 0 0)
(255.437 0 0)
(255.669 0 0)
(255.901 0 0)
(256.132 0 0)
(256.364 0 0)
(256.596 0 0)
(256.828 0 0)
(257.06 0 0)
(257.291 0 0)
(257.523 0 0)
(257.755 0 0)
(257.987 0 0)
(258.219 0 0)
(258.451 0 0)
(258.684 0 0)
(258.916 0 0)
(259.148 0 0)
(259.38 0 0)
(259.612 0 0)
(259.845 0 0)
(260.077 0 0)
(260.31 0 0)
(260.542 0 0)
(260.774 0 0)
(261.007 0 0)
(261.239 0 0)
(261.472 0 0)
(261.705 0 0)
(261.937 0 0)
(262.17 0 0)
(262.403 0 0)
(262.635 0 0)
(262.868 0 0)
(263.101 0 0)
(263.334 0 0)
(263.566 0 0)
(263.799 0 0)
(264.032 0 0)
(264.265 0 0)
(264.498 0 0)
(264.731 0 0)
(264.964 0 0)
(265.197 0 0)
(265.43 0 0)
(265.663 0 0)
(265.896 0 0)
(266.13 0 0)
(266.363 0 0)
(266.596 0 0)
(266.829 0 0)
(267.062 0 0)
(267.296 0 0)
(267.529 0 0)
(267.762 0 0)
(267.995 0 0)
(268.229 0 0)
(268.462 0 0)
(268.695 0 0)
(268.929 0 0)
(269.162 0 0)
(269.395 0 0)
(269.629 0 0)
(269.862 0 0)
(270.095 0 0)
(270.329 0 0)
(270.562 0 0)
(270.795 0 0)
(271.029 0 0)
(271.262 0 0)
(271.495 0 0)
(271.729 0 0)
(271.962 0 0)
(272.195 0 0)
(272.429 0 0)
(272.662 0 0)
(272.895 0 0)
(273.129 0 0)
(273.362 0 0)
(273.595 0 0)
(273.828 0 0)
(274.062 0 0)
(274.295 0 0)
(274.528 0 0)
(274.761 0 0)
(274.994 0 0)
(275.227 0 0)
(275.46 0 0)
(275.693 0 0)
(275.926 0 0)
(276.159 0 0)
(276.391 0 0)
(276.624 0 0)
(276.857 0 0)
(277.089 0 0)
(277.322 0 0)
(277.554 0 0)
(277.786 0 0)
(278.019 0 0)
(278.251 0 0)
(278.483 0 0)
(278.715 0 0)
(278.946 0 0)
(279.178 0 0)
(279.409 0 0)
(279.64 0 0)
(279.871 0 0)
(280.102 0 0)
(280.333 0 0)
(280.563 0 0)
(280.793 0 0)
(281.023 0 0)
(281.253 0 0)
(281.482 0 0)
(281.711 0 0)
(281.94 0 0)
(282.168 0 0)
(282.395 0 0)
(282.622 0 0)
(282.849 0 0)
(283.075 0 0)
(283.301 0 0)
(283.525 0 0)
(283.749 0 0)
(283.973 0 0)
(284.195 0 0)
(284.417 0 0)
(284.637 0 0)
(284.856 0 0)
(285.075 0 0)
(285.291 0 0)
(285.507 0 0)
(285.721 0 0)
(285.933 0 0)
(286.144 0 0)
(286.353 0 0)
(286.56 0 0)
(286.765 0 0)
(286.968 0 0)
(287.168 0 0)
(287.366 0 0)
(287.561 0 0)
(287.754 0 0)
(287.943 0 0)
(288.129 0 0)
(288.312 0 0)
(288.492 0 0)
(288.668 0 0)
(288.84 0 0)
(289.009 0 0)
(289.173 0 0)
(289.333 0 0)
(289.489 0 0)
(289.641 0 0)
(289.788 0 0)
(289.93 0 0)
(290.067 0 0)
(290.2 0 0)
(290.328 0 0)
(290.451 0 0)
(290.568 0 0)
(290.681 0 0)
(290.789 0 0)
(290.891 0 0)
(290.989 0 0)
(291.081 0 0)
(291.169 0 0)
(291.251 0 0)
(291.329 0 0)
(291.402 0 0)
(291.471 0 0)
(291.535 0 0)
(291.595 0 0)
(291.65 0 0)
(291.702 0 0)
(291.75 0 0)
(291.794 0 0)
(291.834 0 0)
(291.872 0 0)
(291.906 0 0)
(291.937 0 0)
(291.965 0 0)
(291.991 0 0)
(292.014 0 0)
(292.035 0 0)
(292.054 0 0)
(292.071 0 0)
(292.086 0 0)
(292.1 0 0)
(292.112 0 0)
(292.123 0 0)
(292.132 0 0)
(292.141 0 0)
(292.148 0 0)
(292.154 0 0)
(292.16 0 0)
(292.165 0 0)
(292.17 0 0)
(292.173 0 0)
(292.177 0 0)
(292.18 0 0)
(292.182 0 0)
(292.184 0 0)
(292.186 0 0)
(292.187 0 0)
(292.189 0 0)
(292.19 0 0)
(292.191 0 0)
(292.192 0 0)
(292.192 0 0)
(292.193 0 0)
(292.193 0 0)
(292.194 0 0)
(292.194 0 0)
(292.194 0 0)
(292.195 0 0)
(292.195 0 0)
(292.195 0 0)
(292.195 0 0)
(292.196 0 0)
(292.196 0 0)
(292.196 0 0)
(292.196 0 0)
(292.196 0 0)
(292.196 0 0)
(292.196 0 0)
(292.196 0 0)
(292.196 0 0)
(292.196 0 0)
(292.196 0 0)
(292.196 0 0)
(292.196 0 0)
(292.196 0 0)
(292.196 0 0)
(292.196 0 0)
(292.196 0 0)
(292.196 0 0)
(292.196 0 0)
(292.196 0 0)
(292.196 0 0)
(292.196 0 0)
(292.196 0 0)
(292.196 0 0)
(292.196 0 0)
(292.196 0 0)
(292.196 0 0)
(292.196 0 0)
(292.196 0 0)
(292.196 0 0)
(292.196 0 0)
(292.196 0 0)
(292.196 0 0)
(292.196 0 0)
(292.196 0 0)
(292.196 0 0)
(292.196 0 0)
(292.196 0 0)
(292.196 0 0)
(292.196 0 0)
(292.196 0 0)
(292.196 0 0)
(292.196 0 0)
(292.196 0 0)
(292.196 0 0)
(292.196 0 0)
(292.196 0 0)
(292.196 0 0)
(292.196 0 0)
(292.196 0 0)
(292.195 0 0)
(292.195 0 0)
(292.195 0 0)
(292.194 0 0)
(292.194 0 0)
(292.194 0 0)
(292.194 0 0)
(292.193 0 0)
(292.193 0 0)
(292.192 0 0)
(292.192 0 0)
(292.192 0 0)
(292.191 0 0)
(292.19 0 0)
(292.189 0 0)
(292.188 0 0)
(292.188 0 0)
(292.187 0 0)
(292.187 0 0)
(292.185 0 0)
(292.183 0 0)
(292.181 0 0)
(292.18 0 0)
(292.18 0 0)
(292.179 0 0)
(292.176 0 0)
(292.172 0 0)
(292.171 0 0)
(292.17 0 0)
(292.167 0 0)
(292.162 0 0)
(292.159 0 0)
(292.158 0 0)
(292.155 0 0)
(292.15 0 0)
(292.143 0 0)
(292.139 0 0)
(292.137 0 0)
(292.132 0 0)
(292.123 0 0)
(292.113 0 0)
(292.109 0 0)
(292.106 0 0)
(292.1 0 0)
(292.089 0 0)
(292.073 0 0)
(292.062 0 0)
(292.056 0 0)
(292.054 0 0)
(292.05 0 0)
(292.038 0 0)
(292.017 0 0)
(291.994 0 0)
(291.984 0 0)
(291.981 0 0)
(291.97 0 0)
(291.946 0 0)
(291.917 0 0)
(291.9 0 0)
(291.894 0 0)
(291.877 0 0)
(291.839 0 0)
(291.805 0 0)
(291.795 0 0)
(291.786 0 0)
(291.751 0 0)
(291.7 0 0)
(291.668 0 0)
(291.66 0 0)
(291.639 0 0)
(291.586 0 0)
(291.526 0 0)
(291.496 0 0)
(291.485 0 0)
(291.45 0 0)
(291.38 0 0)
(291.308 0 0)
(291.281 0 0)
(291.271 0 0)
(291.23 0 0)
(291.148 0 0)
(291.058 0 0)
(291.003 0 0)
(290.989 0 0)
(290.967 0 0)
(290.9 0 0)
(290.775 0 0)
(290.66 0 0)
(290.609 0 0)
(290.609 0 0)
(290.602 0 0)
(290.552 0 0)
(290.451 0 0)
(290.287 0 0)
(290.164 0 0)
(290.142 0 0)
(290.148 0 0)
(290.138 0 0)
(290.07 0 0)
(289.92 0 0)
(289.747 0 0)
(289.67 0 0)
(289.678 0 0)
(289.65 0 0)
(289.528 0 0)
(289.36 0 0)
(289.255 0 0)
(289.235 0 0)
(289.185 0 0)
(289.029 0 0)
(288.849 0 0)
(288.775 0 0)
(288.785 0 0)
(288.755 0 0)
(288.609 0 0)
(288.412 0 0)
(288.289 0 0)
(288.283 0 0)
(288.297 0 0)
(288.202 0 0)
(287.988 0 0)
(287.789 0 0)
(287.767 0 0)
(287.822 0 0)
(287.863 0 0)
(287.858 0 0)
(287.705 0 0)
(287.479 0 0)
(287.344 0 0)
(287.35 0 0)
(287.388 0 0)
(287.336 0 0)
(287.158 0 0)
(286.987 0 0)
(286.967 0 0)
(287.015 0 0)
(286.962 0 0)
(286.788 0 0)
(286.664 0 0)
(286.698 0 0)
(286.764 0 0)
(286.734 0 0)
(286.6 0 0)
(286.484 0 0)
(286.479 0 0)
(286.502 0 0)
(286.461 0 0)
(286.381 0 0)
(286.332 0 0)
(286.316 0 0)
(286.267 0 0)
(286.19 0 0)
(286.152 0 0)
(286.141 0 0)
(286.1 0 0)
(286.037 0 0)
(286.009 0 0)
(285.997 0 0)
(285.956 0 0)
(285.904 0 0)
(285.883 0 0)
(285.875 0 0)
(285.842 0 0)
(285.799 0 0)
(285.784 0 0)
(285.782 0 0)
(285.758 0 0)
(285.722 0 0)
(285.709 0 0)
(285.709 0 0)
(285.692 0 0)
(285.664 0 0)
(285.653 0 0)
(285.655 0 0)
(285.644 0 0)
(285.622 0 0)
(285.613 0 0)
(285.614 0 0)
(285.607 0 0)
(285.591 0 0)
(285.585 0 0)
(285.587 0 0)
(285.583 0 0)
(285.57 0 0)
(285.564 0 0)
(285.566 0 0)
(285.565 0 0)
(285.556 0 0)
(285.551 0 0)
(285.554 0 0)
(285.554 0 0)
(285.546 0 0)
(285.538 0 0)
(285.542 0 0)
(285.549 0 0)
(285.545 0 0)
(285.537 0 0)
(285.537 0 0)
(285.541 0 0)
(285.536 0 0)
(285.527 0 0)
(285.527 0 0)
(285.533 0 0)
(285.534 0 0)
(285.527 0 0)
(285.525 0 0)
(285.53 0 0)
(285.53 0 0)
(285.522 0 0)
(285.519 0 0)
)
;

boundaryField
{
    sides
    {
        type            zeroGradient;
    }
    empty
    {
        type            empty;
    }
}


// ************************************************************************* //
