/*--------------------------------*- C++ -*----------------------------------*\
  =========                 |
  \\      /  F ield         | OpenFOAM: The Open Source CFD Toolbox
   \\    /   O peration     | Website:  https://openfoam.org
    \\  /    A nd           | Version:  9
     \\/     M anipulation  |
\*---------------------------------------------------------------------------*/
FoamFile
{
    format      ascii;
    class       volScalarField;
    location    "0.023";
    object      mag(U);
}
// * * * * * * * * * * * * * * * * * * * * * * * * * * * * * * * * * * * * * //

dimensions      [0 1 -1 0 0 0 0];

internalField   nonuniform List<scalar> 
10000
(
2.63671
2.72301
2.79296
2.85235
2.91147
2.97228
3.03374
3.0951
3.15629
3.21744
3.27859
3.33976
3.40095
3.46214
3.52333
3.58453
3.64574
3.70694
3.76813
3.82933
3.89051
3.9517
4.01289
4.07407
4.13525
4.19644
4.25762
4.31881
4.37999
4.44118
4.50236
4.56355
4.62473
4.68592
4.7471
4.80829
4.86948
4.93067
4.99185
5.05304
5.11423
5.17542
5.23661
5.2978
5.35899
5.42018
5.48137
5.54256
5.60375
5.66494
5.72614
5.78733
5.84852
5.90971
5.97091
6.0321
6.0933
6.15449
6.21568
6.27688
6.33808
6.39927
6.46047
6.52166
6.58286
6.64406
6.70526
6.76646
6.82765
6.88885
6.95005
7.01125
7.07245
7.13365
7.19485
7.25605
7.31726
7.37846
7.43966
7.50086
7.56206
7.62327
7.68447
7.74568
7.80688
7.86808
7.92929
7.99049
8.0517
8.11291
8.17411
8.23532
8.29653
8.35773
8.41894
8.48015
8.54136
8.60257
8.66378
8.72499
8.7862
8.84741
8.90862
8.96983
9.03104
9.09225
9.15347
9.21468
9.27589
9.3371
9.39832
9.45953
9.52075
9.58196
9.64318
9.70439
9.76561
9.82682
9.88804
9.94926
10.0105
10.0717
10.1329
10.1941
10.2553
10.3166
10.3778
10.439
10.5002
10.5614
10.6227
10.6839
10.7451
10.8063
10.8676
10.9288
10.99
11.0512
11.1124
11.1737
11.2349
11.2961
11.3573
11.4186
11.4798
11.541
11.6023
11.6635
11.7247
11.7859
11.8472
11.9084
11.9696
12.0308
12.0921
12.1533
12.2145
12.2758
12.337
12.3982
12.4595
12.5207
12.5819
12.6432
12.7044
12.7656
12.8269
12.8881
12.9493
13.0106
13.0718
13.133
13.1943
13.2555
13.3167
13.378
13.4392
13.5005
13.5617
13.6229
13.6842
13.7454
13.8066
13.8679
13.9291
13.9904
14.0516
14.1129
14.1741
14.2353
14.2966
14.3578
14.4191
14.4803
14.5416
14.6028
14.664
14.7253
14.7865
14.8478
14.909
14.9703
15.0315
15.0928
15.154
15.2153
15.2765
15.3378
15.399
15.4603
15.5215
15.5828
15.644
15.7053
15.7665
15.8278
15.889
15.9503
16.0115
16.0728
16.134
16.1953
16.2565
16.3178
16.379
16.4403
16.5015
16.5628
16.6241
16.6853
16.7466
16.8078
16.8691
16.9303
16.9916
17.0529
17.1141
17.1754
17.2366
17.2979
17.3592
17.4204
17.4817
17.5429
17.6042
17.6655
17.7267
17.788
17.8493
17.9105
17.9718
18.033
18.0943
18.1556
18.2168
18.2781
18.3394
18.4006
18.4619
18.5232
18.5844
18.6457
18.707
18.7682
18.8295
18.8908
18.9521
19.0133
19.0746
19.1359
19.1971
19.2584
19.3197
19.3809
19.4422
19.5035
19.5648
19.626
19.6873
19.7486
19.8099
19.8711
19.9324
19.9937
20.055
20.1162
20.1775
20.2388
20.3001
20.3614
20.4226
20.4839
20.5452
20.6065
20.6677
20.729
20.7903
20.8516
20.9129
20.9741
21.0354
21.0967
21.158
21.2193
21.2806
21.3418
21.4031
21.4644
21.5257
21.587
21.6483
21.7096
21.7708
21.8321
21.8934
21.9547
22.016
22.0773
22.1386
22.1998
22.2611
22.3224
22.3837
22.445
22.5063
22.5676
22.6289
22.6902
22.7515
22.8128
22.874
22.9353
22.9966
23.0579
23.1192
23.1805
23.2418
23.3031
23.3644
23.4257
23.487
23.5483
23.6096
23.6709
23.7322
23.7935
23.8548
23.9161
23.9774
24.0387
24.1
24.1613
24.2226
24.2839
24.3452
24.4065
24.4678
24.5291
24.5904
24.6517
24.713
24.7743
24.8356
24.8969
24.9582
25.0195
25.0808
25.1421
25.2034
25.2647
25.326
25.3873
25.4486
25.51
25.5713
25.6326
25.6939
25.7552
25.8165
25.8778
25.9391
26.0004
26.0617
26.123
26.1844
26.2457
26.307
26.3683
26.4296
26.4909
26.5522
26.6135
26.6749
26.7362
26.7975
26.8588
26.9201
26.9814
27.0428
27.1041
27.1654
27.2267
27.288
27.3493
27.4107
27.472
27.5333
27.5946
27.6559
27.7173
27.7786
27.8399
27.9012
27.9625
28.0239
28.0852
28.1465
28.2078
28.2692
28.3305
28.3918
28.4531
28.5145
28.5758
28.6371
28.6984
28.7598
28.8211
28.8824
28.9437
29.0051
29.0664
29.1277
29.189
29.2504
29.3117
29.373
29.4344
29.4957
29.557
29.6184
29.6797
29.741
29.8024
29.8637
29.925
29.9864
30.0477
30.109
30.1704
30.2317
30.293
30.3544
30.4157
30.477
30.5384
30.5997
30.661
30.7224
30.7837
30.8451
30.9064
30.9677
31.0291
31.0904
31.1518
31.2131
31.2744
31.3358
31.3971
31.4585
31.5198
31.5811
31.6425
31.7038
31.7652
31.8265
31.8879
31.9492
32.0105
32.0719
32.1332
32.1946
32.2559
32.3173
32.3786
32.44
32.5013
32.5627
32.624
32.6854
32.7467
32.8081
32.8694
32.9308
32.9921
33.0535
33.1148
33.1762
33.2375
33.2989
33.3602
33.4216
33.4829
33.5443
33.6056
33.667
33.7283
33.7897
33.8511
33.9124
33.9738
34.0351
34.0965
34.1578
34.2192
34.2805
34.3419
34.4033
34.4646
34.526
34.5873
34.6487
34.7101
34.7714
34.8328
34.8941
34.9555
35.0169
35.0782
35.1396
35.201
35.2623
35.3237
35.385
35.4464
35.5078
35.5691
35.6305
35.6919
35.7532
35.8146
35.876
35.9373
35.9987
36.0601
36.1214
36.1828
36.2442
36.3055
36.3669
36.4283
36.4897
36.551
36.6124
36.6738
36.7351
36.7965
36.8579
36.9193
36.9806
37.042
37.1034
37.1648
37.2261
37.2875
37.3489
37.4103
37.4716
37.533
37.5944
37.6558
37.7171
37.7785
37.8399
37.9013
37.9626
38.024
38.0854
38.1468
38.2082
38.2695
38.3309
38.3923
38.4537
38.5151
38.5765
38.6378
38.6992
38.7606
38.822
38.8834
38.9448
39.0061
39.0675
39.1289
39.1903
39.2517
39.3131
39.3745
39.4358
39.4972
39.5586
39.62
39.6814
39.7428
39.8042
39.8656
39.9269
39.9883
40.0497
40.1111
40.1725
40.2339
40.2953
40.3567
40.4181
40.4795
40.5409
40.6023
40.6637
40.725
40.7864
40.8478
40.9092
40.9706
41.032
41.0934
41.1548
41.2162
41.2776
41.339
41.4004
41.4618
41.5232
41.5846
41.646
41.7074
41.7688
41.8302
41.8916
41.953
42.0144
42.0758
42.1372
42.1986
42.26
42.3214
42.3828
42.4442
42.5056
42.567
42.6284
42.6898
42.7512
42.8127
42.8741
42.9355
42.9969
43.0583
43.1197
43.1811
43.2425
43.3039
43.3653
43.4267
43.4881
43.5496
43.611
43.6724
43.7338
43.7952
43.8566
43.918
43.9794
44.0408
44.1023
44.1637
44.2251
44.2865
44.3479
44.4093
44.4707
44.5322
44.5936
44.655
44.7164
44.7778
44.8392
44.9007
44.9621
45.0235
45.0849
45.1463
45.2078
45.2692
45.3306
45.392
45.4534
45.5149
45.5763
45.6377
45.6991
45.7605
45.822
45.8834
45.9448
46.0062
46.0677
46.1291
46.1905
46.2519
46.3134
46.3748
46.4362
46.4976
46.5591
46.6205
46.6819
46.7434
46.8048
46.8662
46.9276
46.9891
47.0505
47.1119
47.1734
47.2348
47.2962
47.3577
47.4191
47.4805
47.542
47.6034
47.6648
47.7263
47.7877
47.8491
47.9106
47.972
48.0334
48.0949
48.1563
48.2177
48.2792
48.3406
48.402
48.4635
48.5249
48.5864
48.6478
48.7092
48.7707
48.8321
48.8936
48.955
49.0164
49.0779
49.1393
49.2008
49.2622
49.3236
49.3851
49.4465
49.508
49.5694
49.6309
49.6923
49.7538
49.8152
49.8766
49.9381
49.9995
50.061
50.1224
50.1839
50.2453
50.3068
50.3682
50.4297
50.4911
50.5526
50.614
50.6755
50.7369
50.7984
50.8598
50.9213
50.9827
51.0442
51.1056
51.1671
51.2285
51.29
51.3514
51.4129
51.4744
51.5358
51.5973
51.6587
51.7202
51.7816
51.8431
51.9045
51.966
52.0275
52.0889
52.1504
52.2118
52.2733
52.3348
52.3962
52.4577
52.5191
52.5806
52.6421
52.7035
52.765
52.8264
52.8879
52.9494
53.0108
53.0723
53.1338
53.1952
53.2567
53.3181
53.3796
53.4411
53.5025
53.564
53.6255
53.6869
53.7484
53.8099
53.8713
53.9328
53.9943
54.0557
54.1172
54.1787
54.2402
54.3016
54.3631
54.4246
54.486
54.5475
54.609
54.6705
54.7319
54.7934
54.8549
54.9163
54.9778
55.0393
55.1008
55.1622
55.2237
55.2852
55.3467
55.4081
55.4696
55.5311
55.5926
55.6541
55.7155
55.777
55.8385
55.9
55.9615
56.0229
56.0844
56.1459
56.2074
56.2689
56.3303
56.3918
56.4533
56.5148
56.5763
56.6378
56.6992
56.7607
56.8222
56.8837
56.9452
57.0067
57.0681
57.1296
57.1911
57.2526
57.3141
57.3756
57.4371
57.4986
57.56
57.6215
57.683
57.7445
57.806
57.8675
57.929
57.9905
58.052
58.1135
58.1749
58.2364
58.2979
58.3594
58.4209
58.4824
58.5439
58.6054
58.6669
58.7284
58.7899
58.8514
58.9129
58.9744
59.0359
59.0974
59.1589
59.2204
59.2819
59.3434
59.4049
59.4664
59.5279
59.5894
59.6509
59.7124
59.7739
59.8354
59.8969
59.9584
60.0199
60.0814
60.1429
60.2044
60.2659
60.3274
60.3889
60.4504
60.5119
60.5734
60.6349
60.6964
60.7579
60.8194
60.8809
60.9424
61.0039
61.0655
61.127
61.1885
61.25
61.3115
61.373
61.4345
61.496
61.5575
61.619
61.6806
61.7421
61.8036
61.8651
61.9266
61.9881
62.0496
62.1111
62.1727
62.2342
62.2957
62.3572
62.4187
62.4802
62.5417
62.6033
62.6648
62.7263
62.7878
62.8493
62.9109
62.9724
63.0339
63.0954
63.1569
63.2184
63.28
63.3415
63.403
63.4645
63.5261
63.5876
63.6491
63.7106
63.7721
63.8337
63.8952
63.9567
64.0182
64.0798
64.1413
64.2028
64.2643
64.3259
64.3874
64.4489
64.5104
64.572
64.6335
64.695
64.7566
64.8181
64.8796
64.9411
65.0027
65.0642
65.1257
65.1873
65.2488
65.3103
65.3719
65.4334
65.4949
65.5565
65.618
65.6795
65.7411
65.8026
65.8641
65.9257
65.9872
66.0487
66.1103
66.1718
66.2333
66.2949
66.3564
66.4179
66.4795
66.541
66.6026
66.6641
66.7256
66.7872
66.8487
66.9103
66.9718
67.0333
67.0949
67.1564
67.218
67.2795
67.3411
67.4026
67.4641
67.5257
67.5872
67.6488
67.7103
67.7719
67.8334
67.895
67.9565
68.018
68.0796
68.1411
68.2027
68.2642
68.3258
68.3873
68.4489
68.5104
68.572
68.6335
68.6951
68.7566
68.8182
68.8797
68.9413
69.0028
69.0644
69.1259
69.1875
69.249
69.3106
69.3722
69.4337
69.4953
69.5568
69.6184
69.6799
69.7415
69.803
69.8646
69.9262
69.9877
70.0493
70.1108
70.1724
70.2339
70.2955
70.3571
70.4186
70.4802
70.5417
70.6033
70.6649
70.7264
70.788
70.8495
70.9111
70.9727
71.0342
71.0958
71.1574
71.2189
71.2805
71.3421
71.4036
71.4652
71.5268
71.5883
71.6499
71.7115
71.773
71.8346
71.8962
71.9577
72.0193
72.0809
72.1424
72.204
72.2656
72.3271
72.3887
72.4503
72.5118
72.5734
72.635
72.6966
72.7581
72.8197
72.8813
72.9429
73.0044
73.066
73.1276
73.1892
73.2507
73.3123
73.3739
73.4355
73.497
73.5586
73.6202
73.6818
73.7433
73.8049
73.8665
73.9281
73.9897
74.0512
74.1128
74.1744
74.236
74.2976
74.3591
74.4207
74.4823
74.5439
74.6055
74.6671
74.7286
74.7902
74.8518
74.9134
74.975
75.0366
75.0981
75.1597
75.2213
75.2829
75.3445
75.4061
75.4677
75.5293
75.5908
75.6524
75.714
75.7756
75.8372
75.8988
75.9604
76.022
76.0836
76.1451
76.2067
76.2683
76.3299
76.3915
76.4531
76.5147
76.5763
76.6379
76.6995
76.7611
76.8227
76.8843
76.9459
77.0075
77.0691
77.1307
77.1923
77.2538
77.3154
77.377
77.4386
77.5002
77.5618
77.6234
77.685
77.7466
77.8082
77.8698
77.9314
77.993
78.0546
78.1162
78.1778
78.2395
78.3011
78.3627
78.4243
78.4859
78.5475
78.6091
78.6707
78.7323
78.7939
78.8555
78.9171
78.9787
79.0403
79.1019
79.1635
79.2251
79.2867
79.3484
79.41
79.4716
79.5332
79.5948
79.6564
79.718
79.7796
79.8412
79.9029
79.9645
80.0261
80.0877
80.1493
80.2109
80.2725
80.3341
80.3958
80.4574
80.519
80.5806
80.6422
80.7038
80.7655
80.8271
80.8887
80.9503
81.0119
81.0735
81.1352
81.1968
81.2584
81.32
81.3816
81.4433
81.5049
81.5665
81.6281
81.6897
81.7514
81.813
81.8746
81.9362
81.9979
82.0595
82.1211
82.1827
82.2444
82.306
82.3676
82.4292
82.4909
82.5525
82.6141
82.6757
82.7374
82.799
82.8606
82.9222
82.9839
83.0455
83.1071
83.1688
83.2304
83.292
83.3537
83.4153
83.4769
83.5385
83.6002
83.6618
83.7234
83.7851
83.8467
83.9083
83.97
84.0316
84.0932
84.1549
84.2165
84.2782
84.3398
84.4014
84.4631
84.5247
84.5863
84.648
84.7096
84.7713
84.8329
84.8945
84.9562
85.0178
85.0795
85.1411
85.2027
85.2644
85.326
85.3877
85.4493
85.5109
85.5726
85.6342
85.6959
85.7575
85.8192
85.8808
85.9425
86.0041
86.0657
86.1274
86.189
86.2507
86.3123
86.374
86.4356
86.4973
86.5589
86.6206
86.6822
86.7439
86.8055
86.8672
86.9288
86.9905
87.0521
87.1138
87.1754
87.2371
87.2987
87.3604
87.422
87.4837
87.5453
87.607
87.6686
87.7303
87.792
87.8536
87.9153
87.9769
88.0386
88.1002
88.1619
88.2236
88.2852
88.3469
88.4085
88.4702
88.5318
88.5935
88.6552
88.7168
88.7785
88.8401
88.9018
88.9635
89.0251
89.0868
89.1485
89.2101
89.2718
89.3334
89.3951
89.4568
89.5184
89.5801
89.6418
89.7034
89.7651
89.8268
89.8884
89.9501
90.0118
90.0734
90.1351
90.1968
90.2584
90.3201
90.3818
90.4434
90.5051
90.5668
90.6285
90.6901
90.7518
90.8135
90.8751
90.9368
90.9985
91.0602
91.1218
91.1835
91.2452
91.3069
91.3685
91.4302
91.4919
91.5536
91.6152
91.6769
91.7386
91.8003
91.8619
91.9236
91.9853
92.047
92.1087
92.1703
92.232
92.2937
92.3554
92.4171
92.4787
92.5404
92.6021
92.6638
92.7255
92.7871
92.8488
92.9105
92.9722
93.0339
93.0956
93.1572
93.2189
93.2806
93.3423
93.404
93.4657
93.5274
93.589
93.6507
93.7124
93.7741
93.8358
93.8975
93.9592
94.0209
94.0826
94.1442
94.2059
94.2676
94.3293
94.391
94.4527
94.5144
94.5761
94.6378
94.6995
94.7612
94.8229
94.8846
94.9462
95.0079
95.0696
95.1313
95.193
95.2547
95.3164
95.3781
95.4398
95.5015
95.5632
95.6249
95.6866
95.7483
95.81
95.8717
95.9334
95.9951
96.0568
96.1185
96.1802
96.2419
96.3036
96.3653
96.427
96.4887
96.5504
96.6121
96.6738
96.7355
96.7972
96.8589
96.9206
96.9823
97.0441
97.1058
97.1675
97.2292
97.2909
97.3526
97.4143
97.476
97.5377
97.5994
97.6611
97.7228
97.7846
97.8463
97.908
97.9697
98.0314
98.0931
98.1548
98.2165
98.2782
98.34
98.4017
98.4634
98.5251
98.5868
98.6485
98.7102
98.772
98.8337
98.8954
98.9571
99.0188
99.0805
99.1423
99.204
99.2657
99.3274
99.3891
99.4508
99.5126
99.5743
99.636
99.6977
99.7594
99.8212
99.8829
99.9446
100.006
100.068
100.13
100.192
100.253
100.315
100.377
100.438
100.5
100.562
100.624
100.685
100.747
100.809
100.87
100.932
100.994
101.056
101.117
101.179
101.241
101.303
101.364
101.426
101.488
101.549
101.611
101.673
101.735
101.796
101.858
101.92
101.982
102.043
102.105
102.167
102.229
102.29
102.352
102.414
102.475
102.537
102.599
102.661
102.722
102.784
102.846
102.908
102.969
103.031
103.093
103.155
103.216
103.278
103.34
103.402
103.463
103.525
103.587
103.649
103.71
103.772
103.834
103.896
103.957
104.019
104.081
104.142
104.204
104.266
104.328
104.389
104.451
104.513
104.575
104.636
104.698
104.76
104.822
104.883
104.945
105.007
105.069
105.13
105.192
105.254
105.316
105.377
105.439
105.501
105.563
105.624
105.686
105.748
105.81
105.871
105.933
105.995
106.057
106.119
106.18
106.242
106.304
106.366
106.427
106.489
106.551
106.613
106.674
106.736
106.798
106.86
106.921
106.983
107.045
107.107
107.168
107.23
107.292
107.354
107.415
107.477
107.539
107.601
107.663
107.724
107.786
107.848
107.91
107.971
108.033
108.095
108.157
108.218
108.28
108.342
108.404
108.465
108.527
108.589
108.651
108.713
108.774
108.836
108.898
108.96
109.021
109.083
109.145
109.207
109.268
109.33
109.392
109.454
109.516
109.577
109.639
109.701
109.763
109.824
109.886
109.948
110.01
110.072
110.133
110.195
110.257
110.319
110.38
110.442
110.504
110.566
110.628
110.689
110.751
110.813
110.875
110.936
110.998
111.06
111.122
111.184
111.245
111.307
111.369
111.431
111.493
111.554
111.616
111.678
111.74
111.801
111.863
111.925
111.987
112.049
112.11
112.172
112.234
112.296
112.358
112.419
112.481
112.543
112.605
112.667
112.728
112.79
112.852
112.914
112.976
113.037
113.099
113.161
113.223
113.284
113.346
113.408
113.47
113.532
113.593
113.655
113.717
113.779
113.841
113.902
113.964
114.026
114.088
114.15
114.211
114.273
114.335
114.397
114.459
114.52
114.582
114.644
114.706
114.768
114.829
114.891
114.953
115.015
115.077
115.138
115.2
115.262
115.324
115.386
115.448
115.509
115.571
115.633
115.695
115.757
115.818
115.88
115.942
116.004
116.066
116.127
116.189
116.251
116.313
116.375
116.436
116.498
116.56
116.622
116.684
116.746
116.807
116.869
116.931
116.993
117.055
117.116
117.178
117.24
117.302
117.364
117.426
117.487
117.549
117.611
117.673
117.735
117.796
117.858
117.92
117.982
118.044
118.106
118.167
118.229
118.291
118.353
118.415
118.476
118.538
118.6
118.662
118.724
118.786
118.847
118.909
118.971
119.033
119.095
119.157
119.218
119.28
119.342
119.404
119.466
119.528
119.589
119.651
119.713
119.775
119.837
119.899
119.96
120.022
120.084
120.146
120.208
120.27
120.331
120.393
120.455
120.517
120.579
120.641
120.702
120.764
120.826
120.888
120.95
121.012
121.073
121.135
121.197
121.259
121.321
121.383
121.444
121.506
121.568
121.63
121.692
121.754
121.815
121.877
121.939
122.001
122.063
122.125
122.187
122.248
122.31
122.372
122.434
122.496
122.558
122.619
122.681
122.743
122.805
122.867
122.929
122.991
123.052
123.114
123.176
123.238
123.3
123.362
123.424
123.485
123.547
123.609
123.671
123.733
123.795
123.856
123.918
123.98
124.042
124.104
124.166
124.228
124.289
124.351
124.413
124.475
124.537
124.599
124.661
124.722
124.784
124.846
124.908
124.97
125.032
125.094
125.155
125.217
125.279
125.341
125.403
125.465
125.527
125.589
125.65
125.712
125.774
125.836
125.898
125.96
126.022
126.083
126.145
126.207
126.269
126.331
126.393
126.455
126.517
126.578
126.64
126.702
126.764
126.826
126.888
126.95
127.011
127.073
127.135
127.197
127.259
127.321
127.383
127.445
127.506
127.568
127.63
127.692
127.754
127.816
127.878
127.94
128.001
128.063
128.125
128.187
128.249
128.311
128.373
128.435
128.496
128.558
128.62
128.682
128.744
128.806
128.868
128.93
128.992
129.053
129.115
129.177
129.239
129.301
129.363
129.425
129.487
129.548
129.61
129.672
129.734
129.796
129.858
129.92
129.982
130.044
130.105
130.167
130.229
130.291
130.353
130.415
130.477
130.539
130.601
130.662
130.724
130.786
130.848
130.91
130.972
131.034
131.096
131.158
131.22
131.281
131.343
131.405
131.467
131.529
131.591
131.653
131.715
131.777
131.838
131.9
131.962
132.024
132.086
132.148
132.21
132.272
132.334
132.396
132.457
132.519
132.581
132.643
132.705
132.767
132.829
132.891
132.953
133.015
133.076
133.138
133.2
133.262
133.324
133.386
133.448
133.51
133.572
133.634
133.696
133.757
133.819
133.881
133.943
134.005
134.067
134.129
134.191
134.253
134.315
134.377
134.438
134.5
134.562
134.624
134.686
134.748
134.81
134.872
134.934
134.996
135.058
135.12
135.181
135.243
135.305
135.367
135.429
135.491
135.553
135.615
135.677
135.739
135.801
135.863
135.924
135.986
136.048
136.11
136.172
136.234
136.296
136.358
136.42
136.482
136.544
136.606
136.668
136.729
136.791
136.853
136.915
136.977
137.039
137.101
137.163
137.225
137.287
137.349
137.411
137.473
137.535
137.596
137.658
137.72
137.782
137.844
137.906
137.968
138.03
138.092
138.154
138.216
138.278
138.34
138.402
138.463
138.525
138.587
138.649
138.711
138.773
138.835
138.897
138.959
139.021
139.083
139.145
139.207
139.269
139.331
139.393
139.454
139.516
139.578
139.64
139.702
139.764
139.826
139.888
139.95
140.012
140.074
140.136
140.198
140.26
140.322
140.384
140.446
140.508
140.569
140.631
140.693
140.755
140.817
140.879
140.941
141.003
141.065
141.127
141.189
141.251
141.313
141.375
141.437
141.499
141.561
141.623
141.685
141.746
141.808
141.87
141.932
141.994
142.056
142.118
142.18
142.242
142.304
142.366
142.428
142.49
142.552
142.614
142.676
142.738
142.8
142.862
142.924
142.986
143.048
143.11
143.171
143.233
143.295
143.357
143.419
143.481
143.543
143.605
143.667
143.729
143.791
143.853
143.915
143.977
144.039
144.101
144.163
144.225
144.287
144.349
144.411
144.473
144.535
144.597
144.659
144.721
144.783
144.845
144.906
144.968
145.03
145.092
145.154
145.216
145.278
145.34
145.402
145.464
145.526
145.588
145.65
145.712
145.774
145.836
145.898
145.96
146.022
146.084
146.146
146.208
146.27
146.332
146.394
146.456
146.518
146.58
146.642
146.704
146.766
146.828
146.89
146.952
147.014
147.076
147.138
147.2
147.262
147.324
147.386
147.448
147.509
147.571
147.633
147.695
147.757
147.819
147.881
147.943
148.005
148.067
148.129
148.191
148.253
148.315
148.377
148.439
148.501
148.563
148.625
148.687
148.749
148.811
148.873
148.935
148.997
149.059
149.121
149.183
149.245
149.307
149.369
149.431
149.493
149.555
149.617
149.679
149.741
149.803
149.865
149.927
149.989
150.051
150.113
150.175
150.237
150.299
150.361
150.423
150.485
150.547
150.609
150.671
150.733
150.795
150.857
150.919
150.981
151.043
151.105
151.167
151.229
151.291
151.353
151.415
151.477
151.539
151.601
151.663
151.725
151.787
151.849
151.911
151.973
152.035
152.097
152.159
152.221
152.283
152.345
152.407
152.469
152.531
152.593
152.655
152.717
152.779
152.841
152.903
152.965
153.027
153.089
153.151
153.213
153.275
153.337
153.399
153.461
153.523
153.585
153.648
153.71
153.772
153.834
153.896
153.958
154.02
154.082
154.144
154.206
154.268
154.33
154.392
154.454
154.516
154.578
154.64
154.702
154.764
154.826
154.888
154.95
155.012
155.074
155.136
155.198
155.26
155.322
155.384
155.446
155.508
155.57
155.632
155.694
155.756
155.818
155.88
155.942
156.004
156.066
156.128
156.19
156.252
156.315
156.377
156.439
156.501
156.563
156.625
156.687
156.749
156.811
156.873
156.935
156.997
157.059
157.121
157.183
157.245
157.307
157.369
157.431
157.493
157.555
157.617
157.679
157.741
157.803
157.865
157.927
157.989
158.052
158.114
158.176
158.238
158.3
158.362
158.424
158.486
158.548
158.61
158.672
158.734
158.796
158.858
158.92
158.982
159.044
159.106
159.168
159.23
159.292
159.354
159.416
159.479
159.541
159.603
159.665
159.727
159.789
159.851
159.913
159.975
160.037
160.099
160.161
160.223
160.285
160.347
160.409
160.471
160.533
160.595
160.657
160.72
160.782
160.844
160.906
160.968
161.03
161.092
161.154
161.216
161.278
161.34
161.402
161.464
161.526
161.588
161.65
161.712
161.775
161.837
161.899
161.961
162.023
162.085
162.147
162.209
162.271
162.333
162.395
162.457
162.519
162.581
162.643
162.705
162.768
162.83
162.892
162.954
163.016
163.078
163.14
163.202
163.264
163.326
163.388
163.45
163.512
163.574
163.636
163.699
163.761
163.823
163.885
163.947
164.009
164.071
164.133
164.195
164.257
164.319
164.381
164.443
164.505
164.568
164.63
164.692
164.754
164.816
164.878
164.94
165.002
165.064
165.126
165.188
165.25
165.312
165.375
165.437
165.499
165.561
165.623
165.685
165.747
165.809
165.871
165.933
165.995
166.057
166.12
166.182
166.244
166.306
166.368
166.43
166.492
166.554
166.616
166.678
166.74
166.802
166.865
166.927
166.989
167.051
167.113
167.175
167.237
167.299
167.361
167.423
167.485
167.547
167.61
167.672
167.734
167.796
167.858
167.92
167.982
168.044
168.106
168.168
168.23
168.293
168.355
168.417
168.479
168.541
168.603
168.665
168.727
168.789
168.851
168.914
168.976
169.038
169.1
169.162
169.224
169.286
169.348
169.41
169.472
169.535
169.597
169.659
169.721
169.783
169.845
169.907
169.969
170.031
170.093
170.156
170.218
170.28
170.342
170.404
170.466
170.528
170.59
170.652
170.714
170.777
170.839
170.901
170.963
171.025
171.087
171.149
171.211
171.273
171.336
171.398
171.46
171.522
171.584
171.646
171.708
171.77
171.832
171.895
171.957
172.019
172.081
172.143
172.205
172.267
172.329
172.391
172.454
172.516
172.578
172.64
172.702
172.764
172.826
172.888
172.951
173.013
173.075
173.137
173.199
173.261
173.323
173.385
173.447
173.51
173.572
173.634
173.696
173.758
173.82
173.882
173.944
174.007
174.069
174.131
174.193
174.255
174.317
174.379
174.441
174.504
174.566
174.628
174.69
174.752
174.814
174.876
174.938
175.001
175.063
175.125
175.187
175.249
175.311
175.373
175.435
175.498
175.56
175.622
175.684
175.746
175.808
175.87
175.933
175.995
176.057
176.119
176.181
176.243
176.305
176.367
176.43
176.492
176.554
176.616
176.678
176.74
176.802
176.865
176.927
176.989
177.051
177.113
177.175
177.237
177.299
177.362
177.424
177.486
177.548
177.61
177.672
177.734
177.797
177.859
177.921
177.983
178.045
178.107
178.169
178.232
178.294
178.356
178.418
178.48
178.542
178.604
178.667
178.729
178.791
178.853
178.915
178.977
179.04
179.102
179.164
179.226
179.288
179.35
179.412
179.475
179.537
179.599
179.661
179.723
179.785
179.847
179.91
179.972
180.034
180.096
180.158
180.22
180.283
180.345
180.407
180.469
180.531
180.593
180.655
180.718
180.78
180.842
180.904
180.966
181.028
181.091
181.153
181.215
181.277
181.339
181.401
181.463
181.526
181.588
181.65
181.712
181.774
181.836
181.899
181.961
182.023
182.085
182.147
182.209
182.272
182.334
182.396
182.458
182.52
182.582
182.645
182.707
182.769
182.831
182.893
182.955
183.018
183.08
183.142
183.204
183.266
183.328
183.391
183.453
183.515
183.577
183.639
183.701
183.764
183.826
183.888
183.95
184.012
184.074
184.137
184.199
184.261
184.323
184.385
184.447
184.51
184.572
184.634
184.696
184.758
184.82
184.883
184.945
185.007
185.069
185.131
185.194
185.256
185.318
185.38
185.442
185.504
185.567
185.629
185.691
185.753
185.815
185.878
185.94
186.002
186.064
186.126
186.188
186.251
186.313
186.375
186.437
186.499
186.561
186.624
186.686
186.748
186.81
186.872
186.935
186.997
187.059
187.121
187.183
187.246
187.308
187.37
187.432
187.494
187.556
187.619
187.681
187.743
187.805
187.867
187.93
187.992
188.054
188.116
188.178
188.241
188.303
188.365
188.427
188.489
188.551
188.614
188.676
188.738
188.8
188.862
188.925
188.987
189.049
189.111
189.173
189.236
189.298
189.36
189.422
189.484
189.547
189.609
189.671
189.733
189.795
189.858
189.92
189.982
190.044
190.106
190.169
190.231
190.293
190.355
190.417
190.48
190.542
190.604
190.666
190.728
190.791
190.853
190.915
190.977
191.039
191.102
191.164
191.226
191.288
191.35
191.413
191.475
191.537
191.599
191.661
191.724
191.786
191.848
191.91
191.972
192.035
192.097
192.159
192.221
192.283
192.346
192.408
192.47
192.532
192.594
192.657
192.719
192.781
192.843
192.906
192.968
193.03
193.092
193.154
193.217
193.279
193.341
193.403
193.465
193.528
193.59
193.652
193.714
193.777
193.839
193.901
193.963
194.025
194.088
194.15
194.212
194.274
194.336
194.399
194.461
194.523
194.585
194.648
194.71
194.772
194.834
194.896
194.959
195.021
195.083
195.145
195.207
195.27
195.332
195.394
195.456
195.519
195.581
195.643
195.705
195.767
195.83
195.892
195.954
196.016
196.079
196.141
196.203
196.265
196.327
196.39
196.452
196.514
196.576
196.639
196.701
196.763
196.825
196.887
196.95
197.012
197.074
197.136
197.199
197.261
197.323
197.385
197.448
197.51
197.572
197.634
197.696
197.759
197.821
197.883
197.945
198.008
198.07
198.132
198.194
198.257
198.319
198.381
198.443
198.505
198.568
198.63
198.692
198.754
198.817
198.879
198.941
199.003
199.066
199.128
199.19
199.252
199.314
199.377
199.439
199.501
199.563
199.626
199.688
199.75
199.812
199.875
199.937
199.999
200.061
200.124
200.186
200.248
200.31
200.372
200.435
200.497
200.559
200.621
200.684
200.746
200.808
200.87
200.933
200.995
201.057
201.119
201.182
201.244
201.306
201.368
201.431
201.493
201.555
201.617
201.68
201.742
201.804
201.866
201.929
201.991
202.053
202.115
202.177
202.24
202.302
202.364
202.426
202.489
202.551
202.613
202.675
202.738
202.8
202.862
202.924
202.987
203.049
203.111
203.173
203.236
203.298
203.36
203.422
203.485
203.547
203.609
203.671
203.734
203.796
203.858
203.92
203.983
204.045
204.107
204.169
204.232
204.294
204.356
204.418
204.481
204.543
204.605
204.667
204.73
204.792
204.854
204.916
204.979
205.041
205.103
205.165
205.228
205.29
205.352
205.414
205.477
205.539
205.601
205.663
205.726
205.788
205.85
205.912
205.975
206.037
206.099
206.162
206.224
206.286
206.348
206.411
206.473
206.535
206.597
206.66
206.722
206.784
206.846
206.909
206.971
207.033
207.095
207.158
207.22
207.282
207.344
207.407
207.469
207.531
207.593
207.656
207.718
207.78
207.842
207.905
207.967
208.029
208.092
208.154
208.216
208.278
208.341
208.403
208.465
208.527
208.59
208.652
208.714
208.776
208.839
208.901
208.963
209.025
209.088
209.15
209.212
209.275
209.337
209.399
209.461
209.524
209.586
209.648
209.71
209.773
209.835
209.897
209.959
210.022
210.084
210.146
210.209
210.271
210.333
210.395
210.458
210.52
210.582
210.644
210.707
210.769
210.831
210.893
210.956
211.018
211.08
211.143
211.205
211.267
211.329
211.392
211.454
211.516
211.578
211.641
211.703
211.765
211.827
211.89
211.952
212.014
212.077
212.139
212.201
212.263
212.326
212.388
212.45
212.512
212.575
212.637
212.699
212.762
212.824
212.886
212.948
213.011
213.073
213.135
213.197
213.26
213.322
213.384
213.446
213.509
213.571
213.633
213.696
213.758
213.82
213.882
213.945
214.007
214.069
214.131
214.194
214.256
214.318
214.381
214.443
214.505
214.567
214.63
214.692
214.754
214.816
214.879
214.941
215.003
215.066
215.128
215.19
215.252
215.315
215.377
215.439
215.502
215.564
215.626
215.688
215.751
215.813
215.875
215.937
216
216.062
216.124
216.187
216.249
216.311
216.373
216.436
216.498
216.56
216.622
216.685
216.747
216.809
216.872
216.934
216.996
217.058
217.121
217.183
217.245
217.307
217.37
217.432
217.494
217.557
217.619
217.681
217.743
217.806
217.868
217.93
217.993
218.055
218.117
218.179
218.242
218.304
218.366
218.428
218.491
218.553
218.615
218.678
218.74
218.802
218.864
218.927
218.989
219.051
219.113
219.176
219.238
219.3
219.363
219.425
219.487
219.549
219.612
219.674
219.736
219.799
219.861
219.923
219.985
220.048
220.11
220.172
220.234
220.297
220.359
220.421
220.484
220.546
220.608
220.67
220.733
220.795
220.857
220.919
220.982
221.044
221.106
221.169
221.231
221.293
221.355
221.418
221.48
221.542
221.604
221.667
221.729
221.791
221.854
221.916
221.978
222.04
222.103
222.165
222.227
222.29
222.352
222.414
222.476
222.539
222.601
222.663
222.725
222.788
222.85
222.912
222.975
223.037
223.099
223.161
223.224
223.286
223.348
223.41
223.473
223.535
223.597
223.66
223.722
223.784
223.846
223.909
223.971
224.033
224.095
224.158
224.22
224.282
224.345
224.407
224.469
224.531
224.594
224.656
224.718
224.78
224.843
224.905
224.967
225.029
225.092
225.154
225.216
225.279
225.341
225.403
225.465
225.528
225.59
225.652
225.714
225.777
225.839
225.901
225.963
226.026
226.088
226.15
226.213
226.275
226.337
226.399
226.462
226.524
226.586
226.648
226.711
226.773
226.835
226.897
226.96
227.022
227.084
227.147
227.209
227.271
227.333
227.396
227.458
227.52
227.582
227.645
227.707
227.769
227.831
227.894
227.956
228.018
228.08
228.143
228.205
228.267
228.329
228.392
228.454
228.516
228.579
228.641
228.703
228.765
228.828
228.89
228.952
229.014
229.077
229.139
229.201
229.263
229.326
229.388
229.45
229.512
229.575
229.637
229.699
229.761
229.824
229.886
229.948
230.01
230.073
230.135
230.197
230.259
230.322
230.384
230.446
230.508
230.571
230.633
230.695
230.757
230.82
230.882
230.944
231.006
231.069
231.131
231.193
231.255
231.318
231.38
231.442
231.504
231.567
231.629
231.691
231.753
231.816
231.878
231.94
232.002
232.065
232.127
232.189
232.251