/*--------------------------------*- C++ -*----------------------------------*\
  =========                 |
  \\      /  F ield         | OpenFOAM: The Open Source CFD Toolbox
   \\    /   O peration     | Website:  https://openfoam.org
    \\  /    A nd           | Version:  9
     \\/     M anipulation  |
\*---------------------------------------------------------------------------*/
FoamFile
{
    format      ascii;
    class       volScalarField;
    location    "0.023";
    object      rho;
}
// * * * * * * * * * * * * * * * * * * * * * * * * * * * * * * * * * * * * * //

dimensions      [1 -3 0 0 0 0 0];

internalField   nonuniform List<scalar> 
10000
(
0.436087
0.436078
0.436064
0.436051
0.436038
0.436024
0.43601
0.435996
0.435984
0.435972
0.43596
0.435947
0.435932
0.435917
0.435902
0.435889
0.435877
0.435868
0.43586
0.435854
0.43585
0.435846
0.435844
0.435841
0.435838
0.435836
0.435834
0.435832
0.435831
0.435829
0.435827
0.435825
0.435824
0.435822
0.43582
0.435818
0.435816
0.435815
0.435813
0.435811
0.435809
0.435807
0.435805
0.435804
0.435802
0.4358
0.435798
0.435796
0.435795
0.435793
0.435791
0.435789
0.435787
0.435785
0.435784
0.435782
0.43578
0.435778
0.435776
0.435774
0.435773
0.435771
0.435769
0.435767
0.435765
0.435763
0.435761
0.43576
0.435758
0.435756
0.435754
0.435752
0.43575
0.435748
0.435746
0.435745
0.435743
0.435741
0.435739
0.435737
0.435735
0.435733
0.435731
0.43573
0.435728
0.435726
0.435724
0.435722
0.43572
0.435718
0.435716
0.435714
0.435712
0.435711
0.435709
0.435707
0.435705
0.435703
0.435701
0.435699
0.435697
0.435695
0.435693
0.435691
0.43569
0.435688
0.435686
0.435684
0.435682
0.43568
0.435678
0.435676
0.435674
0.435672
0.43567
0.435668
0.435666
0.435664
0.435662
0.43566
0.435658
0.435657
0.435655
0.435653
0.435651
0.435649
0.435647
0.435645
0.435643
0.435641
0.435639
0.435637
0.435635
0.435633
0.435631
0.435629
0.435627
0.435625
0.435623
0.435621
0.435619
0.435617
0.435615
0.435613
0.435611
0.435609
0.435607
0.435605
0.435603
0.435601
0.435599
0.435597
0.435595
0.435593
0.435591
0.435589
0.435587
0.435585
0.435583
0.435581
0.435579
0.435577
0.435575
0.435573
0.435571
0.435569
0.435567
0.435565
0.435563
0.435561
0.435559
0.435556
0.435554
0.435552
0.43555
0.435548
0.435546
0.435544
0.435542
0.43554
0.435538
0.435536
0.435534
0.435532
0.43553
0.435528
0.435526
0.435524
0.435521
0.435519
0.435517
0.435515
0.435513
0.435511
0.435509
0.435507
0.435505
0.435503
0.435501
0.435499
0.435496
0.435494
0.435492
0.43549
0.435488
0.435486
0.435484
0.435482
0.43548
0.435477
0.435475
0.435473
0.435471
0.435469
0.435467
0.435465
0.435463
0.435461
0.435458
0.435456
0.435454
0.435452
0.43545
0.435448
0.435446
0.435443
0.435441
0.435439
0.435437
0.435435
0.435433
0.435431
0.435428
0.435426
0.435424
0.435422
0.43542
0.435418
0.435415
0.435413
0.435411
0.435409
0.435407
0.435405
0.435402
0.4354
0.435398
0.435396
0.435394
0.435392
0.435389
0.435387
0.435385
0.435383
0.435381
0.435378
0.435376
0.435374
0.435372
0.43537
0.435367
0.435365
0.435363
0.435361
0.435359
0.435356
0.435354
0.435352
0.43535
0.435347
0.435345
0.435343
0.435341
0.435339
0.435336
0.435334
0.435332
0.43533
0.435327
0.435325
0.435323
0.435321
0.435318
0.435316
0.435314
0.435312
0.435309
0.435307
0.435305
0.435303
0.4353
0.435298
0.435296
0.435294
0.435291
0.435289
0.435287
0.435285
0.435282
0.43528
0.435278
0.435275
0.435273
0.435271
0.435269
0.435266
0.435264
0.435262
0.435259
0.435257
0.435255
0.435253
0.43525
0.435248
0.435246
0.435243
0.435241
0.435239
0.435236
0.435234
0.435232
0.43523
0.435227
0.435225
0.435223
0.43522
0.435218
0.435216
0.435213
0.435211
0.435209
0.435206
0.435204
0.435202
0.435199
0.435197
0.435195
0.435192
0.43519
0.435188
0.435185
0.435183
0.435181
0.435178
0.435176
0.435173
0.435171
0.435169
0.435166
0.435164
0.435162
0.435159
0.435157
0.435155
0.435152
0.43515
0.435147
0.435145
0.435143
0.43514
0.435138
0.435135
0.435133
0.435131
0.435128
0.435126
0.435124
0.435121
0.435119
0.435116
0.435114
0.435112
0.435109
0.435107
0.435104
0.435102
0.435099
0.435097
0.435095
0.435092
0.43509
0.435087
0.435085
0.435083
0.43508
0.435078
0.435075
0.435073
0.43507
0.435068
0.435065
0.435063
0.435061
0.435058
0.435056
0.435053
0.435051
0.435048
0.435046
0.435043
0.435041
0.435039
0.435036
0.435034
0.435031
0.435029
0.435026
0.435024
0.435021
0.435019
0.435016
0.435014
0.435011
0.435009
0.435006
0.435004
0.435001
0.434999
0.434996
0.434994
0.434991
0.434989
0.434986
0.434984
0.434981
0.434979
0.434976
0.434974
0.434971
0.434969
0.434966
0.434964
0.434961
0.434959
0.434956
0.434954
0.434951
0.434949
0.434946
0.434944
0.434941
0.434939
0.434936
0.434934
0.434931
0.434928
0.434926
0.434923
0.434921
0.434918
0.434916
0.434913
0.434911
0.434908
0.434906
0.434903
0.4349
0.434898
0.434895
0.434893
0.43489
0.434888
0.434885
0.434882
0.43488
0.434877
0.434875
0.434872
0.43487
0.434867
0.434864
0.434862
0.434859
0.434857
0.434854
0.434851
0.434849
0.434846
0.434844
0.434841
0.434838
0.434836
0.434833
0.434831
0.434828
0.434825
0.434823
0.43482
0.434818
0.434815
0.434812
0.43481
0.434807
0.434804
0.434802
0.434799
0.434797
0.434794
0.434791
0.434789
0.434786
0.434783
0.434781
0.434778
0.434775
0.434773
0.43477
0.434767
0.434765
0.434762
0.434759
0.434757
0.434754
0.434751
0.434749
0.434746
0.434743
0.434741
0.434738
0.434735
0.434733
0.43473
0.434727
0.434725
0.434722
0.434719
0.434717
0.434714
0.434711
0.434709
0.434706
0.434703
0.4347
0.434698
0.434695
0.434692
0.43469
0.434687
0.434684
0.434682
0.434679
0.434676
0.434673
0.434671
0.434668
0.434665
0.434662
0.43466
0.434657
0.434654
0.434652
0.434649
0.434646
0.434643
0.434641
0.434638
0.434635
0.434632
0.43463
0.434627
0.434624
0.434621
0.434619
0.434616
0.434613
0.43461
0.434608
0.434605
0.434602
0.434599
0.434596
0.434594
0.434591
0.434588
0.434585
0.434583
0.43458
0.434577
0.434574
0.434571
0.434569
0.434566
0.434563
0.43456
0.434558
0.434555
0.434552
0.434549
0.434546
0.434543
0.434541
0.434538
0.434535
0.434532
0.434529
0.434527
0.434524
0.434521
0.434518
0.434515
0.434513
0.43451
0.434507
0.434504
0.434501
0.434498
0.434496
0.434493
0.43449
0.434487
0.434484
0.434481
0.434478
0.434476
0.434473
0.43447
0.434467
0.434464
0.434461
0.434458
0.434456
0.434453
0.43445
0.434447
0.434444
0.434441
0.434438
0.434436
0.434433
0.43443
0.434427
0.434424
0.434421
0.434418
0.434415
0.434412
0.43441
0.434407
0.434404
0.434401
0.434398
0.434395
0.434392
0.434389
0.434386
0.434383
0.434381
0.434378
0.434375
0.434372
0.434369
0.434366
0.434363
0.43436
0.434357
0.434354
0.434351
0.434348
0.434345
0.434342
0.43434
0.434337
0.434334
0.434331
0.434328
0.434325
0.434322
0.434319
0.434316
0.434313
0.43431
0.434307
0.434304
0.434301
0.434298
0.434295
0.434292
0.434289
0.434286
0.434283
0.43428
0.434277
0.434274
0.434271
0.434268
0.434265
0.434263
0.43426
0.434257
0.434254
0.434251
0.434248
0.434245
0.434242
0.434239
0.434236
0.434233
0.43423
0.434227
0.434224
0.434221
0.434217
0.434214
0.434211
0.434208
0.434205
0.434202
0.434199
0.434196
0.434193
0.43419
0.434187
0.434184
0.434181
0.434178
0.434175
0.434172
0.434169
0.434166
0.434163
0.43416
0.434157
0.434154
0.434151
0.434148
0.434145
0.434142
0.434138
0.434135
0.434132
0.434129
0.434126
0.434123
0.43412
0.434117
0.434114
0.434111
0.434108
0.434105
0.434102
0.434098
0.434095
0.434092
0.434089
0.434086
0.434083
0.43408
0.434077
0.434074
0.434071
0.434067
0.434064
0.434061
0.434058
0.434055
0.434052
0.434049
0.434046
0.434043
0.434039
0.434036
0.434033
0.43403
0.434027
0.434024
0.434021
0.434018
0.434014
0.434011
0.434008
0.434005
0.434002
0.433999
0.433996
0.433992
0.433989
0.433986
0.433983
0.43398
0.433977
0.433973
0.43397
0.433967
0.433964
0.433961
0.433958
0.433954
0.433951
0.433948
0.433945
0.433942
0.433939
0.433935
0.433932
0.433929
0.433926
0.433923
0.433919
0.433916
0.433913
0.43391
0.433907
0.433903
0.4339
0.433897
0.433894
0.433891
0.433887
0.433884
0.433881
0.433878
0.433874
0.433871
0.433868
0.433865
0.433862
0.433858
0.433855
0.433852
0.433849
0.433845
0.433842
0.433839
0.433836
0.433832
0.433829
0.433826
0.433823
0.433819
0.433816
0.433813
0.43381
0.433806
0.433803
0.4338
0.433797
0.433793
0.43379
0.433787
0.433783
0.43378
0.433777
0.433774
0.43377
0.433767
0.433764
0.433761
0.433757
0.433754
0.433751
0.433747
0.433744
0.433741
0.433737
0.433734
0.433731
0.433728
0.433724
0.433721
0.433718
0.433714
0.433711
0.433708
0.433704
0.433701
0.433698
0.433694
0.433691
0.433688
0.433684
0.433681
0.433678
0.433674
0.433671
0.433668
0.433664
0.433661
0.433658
0.433654
0.433651
0.433648
0.433644
0.433641
0.433638
0.433634
0.433631
0.433627
0.433624
0.433621
0.433617
0.433614
0.433611
0.433607
0.433604
0.433601
0.433597
0.433594
0.43359
0.433587
0.433584
0.43358
0.433577
0.433573
0.43357
0.433567
0.433563
0.43356
0.433556
0.433553
0.43355
0.433546
0.433543
0.433539
0.433536
0.433533
0.433529
0.433526
0.433522
0.433519
0.433515
0.433512
0.433509
0.433505
0.433502
0.433498
0.433495
0.433491
0.433488
0.433485
0.433481
0.433478
0.433474
0.433471
0.433467
0.433464
0.43346
0.433457
0.433453
0.43345
0.433447
0.433443
0.43344
0.433436
0.433433
0.433429
0.433426
0.433422
0.433419
0.433415
0.433412
0.433408
0.433405
0.433401
0.433398
0.433394
0.433391
0.433387
0.433384
0.43338
0.433377
0.433373
0.43337
0.433366
0.433363
0.433359
0.433356
0.433352
0.433349
0.433345
0.433342
0.433338
0.433335
0.433331
0.433328
0.433324
0.433321
0.433317
0.433313
0.43331
0.433306
0.433303
0.433299
0.433296
0.433292
0.433289
0.433285
0.433282
0.433278
0.433274
0.433271
0.433267
0.433264
0.43326
0.433257
0.433253
0.433249
0.433246
0.433242
0.433239
0.433235
0.433232
0.433228
0.433224
0.433221
0.433217
0.433214
0.43321
0.433206
0.433203
0.433199
0.433196
0.433192
0.433188
0.433185
0.433181
0.433178
0.433174
0.43317
0.433167
0.433163
0.43316
0.433156
0.433152
0.433149
0.433145
0.433141
0.433138
0.433134
0.433131
0.433127
0.433123
0.43312
0.433116
0.433112
0.433109
0.433105
0.433101
0.433098
0.433094
0.43309
0.433087
0.433083
0.43308
0.433076
0.433072
0.433069
0.433065
0.433061
0.433057
0.433054
0.43305
0.433046
0.433043
0.433039
0.433035
0.433032
0.433028
0.433024
0.433021
0.433017
0.433013
0.43301
0.433006
0.433002
0.432998
0.432995
0.432991
0.432987
0.432984
0.43298
0.432976
0.432973
0.432969
0.432965
0.432961
0.432958
0.432954
0.43295
0.432946
0.432943
0.432939
0.432935
0.432931
0.432928
0.432924
0.43292
0.432917
0.432913
0.432909
0.432905
0.432902
0.432898
0.432894
0.43289
0.432886
0.432883
0.432879
0.432875
0.432871
0.432868
0.432864
0.43286
0.432856
0.432853
0.432849
0.432845
0.432841
0.432837
0.432834
0.43283
0.432826
0.432822
0.432818
0.432815
0.432811
0.432807
0.432803
0.432799
0.432796
0.432792
0.432788
0.432784
0.43278
0.432777
0.432773
0.432769
0.432765
0.432761
0.432757
0.432754
0.43275
0.432746
0.432742
0.432738
0.432734
0.432731
0.432727
0.432723
0.432719
0.432715
0.432711
0.432708
0.432704
0.4327
0.432696
0.432692
0.432688
0.432684
0.432681
0.432677
0.432673
0.432669
0.432665
0.432661
0.432657
0.432653
0.43265
0.432646
0.432642
0.432638
0.432634
0.43263
0.432626
0.432622
0.432618
0.432615
0.432611
0.432607
0.432603
0.432599
0.432595
0.432591
0.432587
0.432583
0.432579
0.432575
0.432572
0.432568
0.432564
0.43256
0.432556
0.432552
0.432548
0.432544
0.43254
0.432536
0.432532
0.432528
0.432524
0.43252
0.432516
0.432513
0.432509
0.432505
0.432501
0.432497
0.432493
0.432489
0.432485
0.432481
0.432477
0.432473
0.432469
0.432465
0.432461
0.432457
0.432453
0.432449
0.432445
0.432441
0.432437
0.432433
0.432429
0.432425
0.432421
0.432417
0.432413
0.432409
0.432405
0.432401
0.432397
0.432393
0.432389
0.432385
0.432381
0.432377
0.432373
0.432369
0.432365
0.432361
0.432357
0.432353
0.432349
0.432345
0.432341
0.432337
0.432333
0.432329
0.432325
0.432321
0.432317
0.432313
0.432309
0.432305
0.4323
0.432296
0.432292
0.432288
0.432284
0.43228
0.432276
0.432272
0.432268
0.432264
0.43226
0.432256
0.432252
0.432248
0.432244
0.432239
0.432235
0.432231
0.432227
0.432223
0.432219
0.432215
0.432211
0.432207
0.432203
0.432199
0.432194
0.43219
0.432186
0.432182
0.432178
0.432174
0.43217
0.432166
0.432162
0.432157
0.432153
0.432149
0.432145
0.432141
0.432137
0.432133
0.432129
0.432124
0.43212
0.432116
0.432112
0.432108
0.432104
0.4321
0.432095
0.432091
0.432087
0.432083
0.432079
0.432075
0.432071
0.432066
0.432062
0.432058
0.432054
0.43205
0.432045
0.432041
0.432037
0.432033
0.432029
0.432025
0.43202
0.432016
0.432012
0.432008
0.432004
0.432
0.431995
0.431991
0.431987
0.431983
0.431978
0.431975
0.43197
0.431966
0.431961
0.431958
0.431953
0.431949
0.431945
0.431941
0.431936
0.431932
0.431928
0.431924
0.431919
0.431916
0.431911
0.431907
0.431902
0.431899
0.431894
0.43189
0.431885
0.431882
0.431877
0.431873
0.431868
0.431865
0.43186
0.431856
0.431851
0.431848
0.431843
0.431839
0.431834
0.43183
0.431826
0.431822
0.431817
0.431813
0.431809
0.431805
0.4318
0.431796
0.431791
0.431788
0.431783
0.431779
0.431774
0.43177
0.431766
0.431762
0.431757
0.431753
0.431749
0.431744
0.43174
0.431736
0.431731
0.431727
0.431723
0.431718
0.431714
0.43171
0.431705
0.431701
0.431697
0.431692
0.431688
0.431684
0.431679
0.431675
0.431671
0.431666
0.431662
0.431658
0.431653
0.431649
0.431645
0.43164
0.431636
0.431632
0.431627
0.431623
0.431618
0.431614
0.43161
0.431605
0.431601
0.431597
0.431592
0.431588
0.431583
0.431579
0.431575
0.43157
0.431566
0.431562
0.431557
0.431553
0.431548
0.431544
0.43154
0.431535
0.431531
0.431526
0.431522
0.431517
0.431513
0.431509
0.431504
0.4315
0.431495
0.431491
0.431487
0.431482
0.431478
0.431473
0.431469
0.431464
0.43146
0.431456
0.431451
0.431447
0.431442
0.431438
0.431433
0.431429
0.431424
0.43142
0.431415
0.431411
0.431407
0.431402
0.431398
0.431393
0.431389
0.431384
0.43138
0.431375
0.431371
0.431366
0.431362
0.431357
0.431353
0.431348
0.431344
0.431339
0.431335
0.43133
0.431326
0.431321
0.431317
0.431312
0.431308
0.431303
0.431299
0.431294
0.43129
0.431285
0.431281
0.431276
0.431272
0.431267
0.431263
0.431258
0.431254
0.431249
0.431245
0.43124
0.431236
0.431231
0.431226
0.431222
0.431217
0.431213
0.431208
0.431204
0.431199
0.431195
0.43119
0.431185
0.431181
0.431176
0.431172
0.431167
0.431163
0.431158
0.431154
0.431149
0.431144
0.43114
0.431135
0.431131
0.431126
0.431121
0.431117
0.431112
0.431108
0.431103
0.431099
0.431094
0.431089
0.431085
0.43108
0.431076
0.431071
0.431066
0.431062
0.431057
0.431052
0.431048
0.431043
0.431039
0.431034
0.431029
0.431025
0.43102
0.431015
0.431011
0.431006
0.431002
0.430997
0.430992
0.430988
0.430983
0.430978
0.430974
0.430969
0.430964
0.43096
0.430955
0.43095
0.430946
0.430941
0.430936
0.430932
0.430927
0.430922
0.430918
0.430913
0.430908
0.430904
0.430899
0.430894
0.43089
0.430885
0.43088
0.430876
0.430871
0.430866
0.430862
0.430857
0.430852
0.430847
0.430843
0.430838
0.430833
0.430829
0.430824
0.430819
0.430814
0.43081
0.430805
0.4308
0.430796
0.430791
0.430786
0.430781
0.430777
0.430772
0.430767
0.430762
0.430758
0.430753
0.430748
0.430743
0.430739
0.430734
0.430729
0.430724
0.43072
0.430715
0.43071
0.430705
0.430701
0.430696
0.430691
0.430686
0.430682
0.430677
0.430672
0.430667
0.430662
0.430658
0.430653
0.430648
0.430643
0.430639
0.430634
0.430629
0.430624
0.430619
0.430615
0.43061
0.430605
0.4306
0.430595
0.430591
0.430586
0.430581
0.430576
0.430571
0.430566
0.430562
0.430557
0.430552
0.430547
0.430542
0.430537
0.430533
0.430528
0.430523
0.430518
0.430513
0.430508
0.430504
0.430499
0.430494
0.430489
0.430484
0.430479
0.430475
0.43047
0.430465
0.43046
0.430455
0.43045
0.430445
0.43044
0.430436
0.430431
0.430426
0.430421
0.430416
0.430411
0.430406
0.430401
0.430397
0.430392
0.430387
0.430382
0.430377
0.430372
0.430367
0.430362
0.430357
0.430352
0.430348
0.430343
0.430338
0.430333
0.430328
0.430323
0.430318
0.430313
0.430308
0.430303
0.430298
0.430293
0.430288
0.430284
0.430279
0.430274
0.430269
0.430264
0.430259
0.430254
0.430249
0.430244
0.430239
0.430234
0.430229
0.430224
0.430219
0.430214
0.430209
0.430204
0.430199
0.430194
0.430189
0.430184
0.430179
0.430174
0.430169
0.430165
0.43016
0.430155
0.43015
0.430145
0.43014
0.430135
0.43013
0.430125
0.43012
0.430115
0.43011
0.430105
0.4301
0.430095
0.43009
0.430085
0.430079
0.430074
0.430069
0.430064
0.430059
0.430054
0.430049
0.430044
0.430039
0.430034
0.430029
0.430024
0.430019
0.430014
0.430009
0.430004
0.429999
0.429994
0.429989
0.429984
0.429979
0.429974
0.429969
0.429964
0.429959
0.429953
0.429948
0.429943
0.429938
0.429933
0.429928
0.429923
0.429918
0.429913
0.429908
0.429903
0.429898
0.429892
0.429887
0.429882
0.429877
0.429872
0.429867
0.429862
0.429857
0.429852
0.429847
0.429841
0.429836
0.429831
0.429826
0.429821
0.429816
0.429811
0.429806
0.429801
0.429795
0.42979
0.429785
0.42978
0.429775
0.42977
0.429765
0.429759
0.429754
0.429749
0.429744
0.429739
0.429734
0.429729
0.429723
0.429718
0.429713
0.429708
0.429703
0.429698
0.429692
0.429687
0.429682
0.429677
0.429672
0.429667
0.429661
0.429656
0.429651
0.429646
0.429641
0.429635
0.42963
0.429625
0.42962
0.429615
0.429609
0.429604
0.429599
0.429594
0.429589
0.429583
0.429578
0.429573
0.429568
0.429563
0.429557
0.429552
0.429547
0.429542
0.429536
0.429531
0.429526
0.429521
0.429516
0.42951
0.429505
0.4295
0.429495
0.429489
0.429484
0.429479
0.429474
0.429468
0.429463
0.429458
0.429453
0.429447
0.429442
0.429437
0.429431
0.429426
0.429421
0.429416
0.42941
0.429405
0.4294
0.429395
0.429389
0.429384
0.429379
0.429373
0.429368
0.429363
0.429358
0.429352
0.429347
0.429342
0.429336
0.429331
0.429326
0.42932
0.429315
0.42931
0.429304
0.429299
0.429294
0.429289
0.429283
0.429278
0.429273
0.429267
0.429262
0.429257
0.429251
0.429246
0.429241
0.429235
0.42923
0.429224
0.429219
0.429214
0.429208
0.429203
0.429198
0.429192
0.429187
0.429182
0.429176
0.429171
0.429166
0.42916
0.429155
0.429149
0.429144
0.429139
0.429133
0.429128
0.429123
0.429117
0.429112
0.429106
0.429101
0.429096
0.42909
0.429085
0.429079
0.429074
0.429069
0.429063
0.429058
0.429052
0.429047
0.429042
0.429036
0.429031
0.429025
0.42902
0.429014
0.429009
0.429004
0.428998
0.428993
0.428987
0.428982
0.428976
0.428971
0.428966
0.42896
0.428955
0.428949
0.428944
0.428938
0.428933
0.428927
0.428922
0.428916
0.428911
0.428906
0.4289
0.428895
0.428889
0.428884
0.428878
0.428873
0.428867
0.428862
0.428856
0.428851
0.428845
0.42884
0.428834
0.428829
0.428823
0.428818
0.428812
0.428807
0.428801
0.428796
0.42879
0.428785
0.428779
0.428774
0.428768
0.428763
0.428757
0.428752
0.428746
0.428741
0.428735
0.42873
0.428724
0.428719
0.428713
0.428707
0.428702
0.428696
0.428691
0.428685
0.42868
0.428674
0.428669
0.428663
0.428658
0.428652
0.428646
0.428641
0.428635
0.42863
0.428624
0.428619
0.428613
0.428607
0.428602
0.428596
0.428591
0.428585
0.42858
0.428574
0.428568
0.428563
0.428557
0.428552
0.428546
0.42854
0.428535
0.428529
0.428524
0.428518
0.428512
0.428507
0.428501
0.428496
0.42849
0.428484
0.428479
0.428473
0.428467
0.428462
0.428456
0.428451
0.428445
0.428439
0.428434
0.428428
0.428422
0.428417
0.428411
0.428406
0.4284
0.428394
0.428389
0.428383
0.428377
0.428372
0.428366
0.42836
0.428355
0.428349
0.428343
0.428338
0.428332
0.428326
0.428321
0.428315
0.428309
0.428304
0.428298
0.428292
0.428286
0.428281
0.428275
0.428269
0.428264
0.428258
0.428252
0.428247
0.428241
0.428235
0.428229
0.428224
0.428218
0.428212
0.428207
0.428201
0.428195
0.428189
0.428184
0.428178
0.428172
0.428167
0.428161
0.428155
0.428149
0.428144
0.428138
0.428132
0.428126
0.428121
0.428115
0.428109
0.428103
0.428098
0.428092
0.428086
0.42808
0.428075
0.428069
0.428063
0.428057
0.428052
0.428046
0.42804
0.428034
0.428028
0.428023
0.428017
0.428011
0.428005
0.428
0.427994
0.427988
0.427982
0.427976
0.427971
0.427965
0.427959
0.427953
0.427947
0.427942
0.427936
0.42793
0.427924
0.427918
0.427912
0.427907
0.427901
0.427895
0.427889
0.427883
0.427877
0.427872
0.427866
0.42786
0.427854
0.427848
0.427842
0.427837
0.427831
0.427825
0.427819
0.427813
0.427807
0.427801
0.427796
0.42779
0.427784
0.427778
0.427772
0.427766
0.42776
0.427755
0.427749
0.427743
0.427737
0.427731
0.427725
0.427719
0.427713
0.427707
0.427702
0.427696
0.42769
0.427684
0.427678
0.427672
0.427666
0.42766
0.427654
0.427648
0.427643
0.427637
0.427631
0.427625
0.427619
0.427613
0.427607
0.427601
0.427595
0.427589
0.427583
0.427577
0.427571
0.427566
0.42756
0.427554
0.427548
0.427542
0.427536
0.42753
0.427524
0.427518
0.427512
0.427506
0.4275
0.427494
0.427488
0.427482
0.427476
0.42747
0.427464
0.427458
0.427452
0.427446
0.42744
0.427434
0.427428
0.427422
0.427416
0.42741
0.427404
0.427398
0.427392
0.427386
0.42738
0.427374
0.427368
0.427362
0.427356
0.42735
0.427344
0.427338
0.427332
0.427326
0.42732
0.427314
0.427308
0.427302
0.427296
0.42729
0.427284
0.427278
0.427272
0.427266
0.42726
0.427254
0.427248
0.427242
0.427236
0.42723
0.427224
0.427218
0.427212
0.427205
0.427199
0.427193
0.427187
0.427181
0.427175
0.427169
0.427163
0.427157
0.427151
0.427145
0.427139
0.427133
0.427127
0.42712
0.427114
0.427108
0.427102
0.427096
0.42709
0.427084
0.427078
0.427072
0.427066
0.427059
0.427053
0.427047
0.427041
0.427035
0.427029
0.427023
0.427017
0.42701
0.427004
0.426998
0.426992
0.426986
0.42698
0.426974
0.426968
0.426961
0.426955
0.426949
0.426943
0.426937
0.426931
0.426925
0.426918
0.426912
0.426906
0.4269
0.426894
0.426888
0.426881
0.426875
0.426869
0.426863
0.426857
0.42685
0.426844
0.426838
0.426832
0.426826
0.42682
0.426813
0.426807
0.426801
0.426795
0.426789
0.426782
0.426776
0.42677
0.426764
0.426758
0.426751
0.426745
0.426739
0.426733
0.426727
0.42672
0.426714
0.426708
0.426702
0.426695
0.426689
0.426683
0.426677
0.42667
0.426664
0.426658
0.426652
0.426645
0.426639
0.426633
0.426627
0.42662
0.426614
0.426608
0.426602
0.426595
0.426589
0.426583
0.426577
0.42657
0.426564
0.426558
0.426552
0.426545
0.426539
0.426533
0.426526
0.42652
0.426514
0.426508
0.426501
0.426495
0.426489
0.426482
0.426476
0.42647
0.426463
0.426457
0.426451
0.426445
0.426438
0.426432
0.426426
0.426419
0.426413
0.426407
0.4264
0.426394
0.426388
0.426381
0.426375
0.426369
0.426362
0.426356
0.42635
0.426343
0.426337
0.426331
0.426324
0.426318
0.426312
0.426305
0.426299
0.426292
0.426286
0.42628
0.426273
0.426267
0.426261
0.426254
0.426248
0.426242
0.426235
0.426229
0.426222
0.426216
0.42621
0.426203
0.426197
0.42619
0.426184
0.426178
0.426171
0.426165
0.426158
0.426152
0.426146
0.426139
0.426133
0.426126
0.42612
0.426114
0.426107
0.426101
0.426094
0.426088
0.426081
0.426075
0.426069
0.426062
0.426056
0.426049
0.426043
0.426036
0.42603
0.426024
0.426017
0.426011
0.426004
0.425998
0.425991
0.425985
0.425978
0.425972
0.425965
0.425959
0.425952
0.425946
0.42594
0.425933
0.425927
0.42592
0.425914
0.425907
0.425901
0.425894
0.425888
0.425881
0.425875
0.425868
0.425862
0.425855
0.425849
0.425842
0.425836
0.425829
0.425823
0.425816
0.42581
0.425803
0.425797
0.42579
0.425784
0.425777
0.425771
0.425764
0.425757
0.425751
0.425744
0.425738
0.425731
0.425725
0.425718
0.425712
0.425705
0.425699
0.425692
0.425686
0.425679
0.425672
0.425666
0.425659
0.425653
0.425646
0.42564
0.425633
0.425626
0.42562
0.425613
0.425607
0.4256
0.425594
0.425587
0.42558
0.425574
0.425567
0.425561
0.425554
0.425547
0.425541
0.425534
0.425528
0.425521
0.425514
0.425508
0.425501
0.425495
0.425488
0.425481
0.425475
0.425468
0.425462
0.425455
0.425448
0.425442
0.425435
0.425428
0.425422
0.425415
0.425408
0.425402
0.425395
0.425389
0.425382
0.425375
0.425369
0.425362
0.425355
0.425349
0.425342
0.425335
0.425329
0.425322
0.425315
0.425309
0.425302
0.425295
0.425289
0.425282
0.425275
0.425269
0.425262
0.425255
0.425249
0.425242
0.425235
0.425229
0.425222
0.425215
0.425208
0.425202
0.425195
0.425188
0.425182
0.425175
0.425168
0.425161
0.425155
0.425148
0.425141
0.425135
0.425128
0.425121
0.425114
0.425108
0.425101
0.425094
0.425087
0.425081
0.425074
0.425067
0.425061
0.425054
0.425047
0.42504
0.425034
0.425027
0.42502
0.425013
0.425006
0.425
0.424993
0.424986
0.424979
0.424973
0.424966
0.424959
0.424952
0.424946
0.424939
0.424932
0.424925
0.424918
0.424912
0.424905
0.424898
0.424891
0.424884
0.424878
0.424871
0.424864
0.424857
0.42485
0.424844
0.424837
0.42483
0.424823
0.424816
0.42481
0.424803
0.424796
0.424789
0.424782
0.424775
0.424769
0.424762
0.424755
0.424748
0.424741
0.424734
0.424728
0.424721
0.424714
0.424707
0.4247
0.424693
0.424686
0.42468
0.424673
0.424666
0.424659
0.424652
0.424645
0.424638
0.424631
0.424625
0.424618
0.424611
0.424604
0.424597
0.42459
0.424583
0.424576
0.42457
0.424563
0.424556
0.424549
0.424542
0.424535
0.424528
0.424521
0.424514
0.424507
0.424501
0.424494
0.424487
0.42448
0.424473
0.424466
0.424459
0.424452
0.424445
0.424438
0.424431
0.424424
0.424417
0.42441
0.424404
0.424397
0.42439
0.424383
0.424376
0.424369
0.424362
0.424355
0.424348
0.424341
0.424334
0.424327
0.42432
0.424313
0.424306
0.424299
0.424292
0.424285
0.424278
0.424271
0.424264
0.424257
0.42425
0.424243
0.424236
0.424229
0.424222
0.424215
0.424208
0.424201
0.424194
0.424187
0.42418
0.424173
0.424166
0.424159
0.424152
0.424145
0.424138
0.424131
0.424124
0.424117
0.42411
0.424103
0.424096
0.424089
0.424082
0.424075
0.424068
0.424061
0.424054
0.424047
0.42404
0.424033
0.424026
0.424019
0.424012
0.424005
0.423997
0.42399
0.423983
0.423976
0.423969
0.423962
0.423955
0.423948
0.423941
0.423934
0.423927
0.42392
0.423913
0.423905
0.423898
0.423891
0.423884
0.423877
0.42387
0.423863
0.423856
0.423849
0.423842
0.423835
0.423827
0.42382
0.423813
0.423806
0.423799
0.423792
0.423785
0.423778
0.42377
0.423763
0.423756
0.423749
0.423742
0.423735
0.423728
0.423721
0.423713
0.423706
0.423699
0.423692
0.423685
0.423678
0.42367
0.423663
0.423656
0.423649
0.423642
0.423635
0.423628
0.42362
0.423613
0.423606
0.423599
0.423592
0.423584
0.423577
0.42357
0.423563
0.423556
0.423549
0.423541
0.423534
0.423527
0.42352
0.423513
0.423505
0.423498
0.423491
0.423484
0.423477
0.423469
0.423462
0.423455
0.423448
0.42344
0.423433
0.423426
0.423419
0.423412
0.423404
0.423397
0.42339
0.423383
0.423375
0.423368
0.423361
0.423354
0.423346
0.423339
0.423332
0.423325
0.423317
0.42331
0.423303
0.423296
0.423288
0.423281
0.423274
0.423267
0.423259
0.423252
0.423245
0.423237
0.42323
0.423223
0.423216
0.423208
0.423201
0.423194
0.423186
0.423179
0.423172
0.423165
0.423157
0.42315
0.423143
0.423135
0.423128
0.423121
0.423113
0.423106
0.423099
0.423092
0.423084
0.423077
0.42307
0.423062
0.423055
0.423048
0.42304
0.423033
0.423026
0.423018
0.423011
0.423004
0.422996
0.422989
0.422981
0.422974
0.422967
0.422959
0.422952
0.422945
0.422937
0.42293
0.422923
0.422915
0.422908
0.422901
0.422893
0.422886
0.422878
0.422871
0.422864
0.422856
0.422849
0.422841
0.422834
0.422827
0.422819
0.422812
0.422804
0.422797
0.42279
0.422782
0.422775
0.422767
0.42276
0.422753
0.422745
0.422738
0.42273
0.422723
0.422716
0.422708
0.422701
0.422693
0.422686
0.422678
0.422671
0.422664
0.422656
0.422649
0.422641
0.422634
0.422626
0.422619
0.422611
0.422604
0.422597
0.422589
0.422582
0.422574
0.422567
0.422559
0.422552
0.422544
0.422537
0.422529
0.422522
0.422514
0.422507
0.422499
0.422492
0.422484
0.422477
0.422469
0.422462
0.422454
0.422447
0.422439
0.422432
0.422424
0.422417
0.422409
0.422402
0.422394
0.422387
0.422379
0.422372
0.422364
0.422357
0.422349
0.422342
0.422334
0.422327
0.422319
0.422312
0.422304
0.422297
0.422289
0.422282
0.422274
0.422266
0.422259
0.422251
0.422244
0.422236
0.422229
0.422221
0.422214
0.422206
0.422198
0.422191
0.422183
0.422176
0.422168
0.422161
0.422153
0.422145
0.422138
0.42213
0.422123
0.422115
0.422108
0.4221
0.422092
0.422085
0.422077
0.42207
0.422062
0.422054
0.422047
0.422039
0.422032
0.422024
0.422016
0.422009
0.422001
0.421993
0.421986
0.421978
0.421971
0.421963
0.421955
0.421948
0.42194
0.421932
0.421925
0.421917
0.42191
0.421902
0.421894
0.421887
0.421879
0.421871
0.421864
0.421856
0.421848
0.421841
0.421833
0.421825
0.421818
0.42181
0.421802
0.421795
0.421787
0.421779
0.421772
0.421764
0.421756
0.421749
0.421741
0.421733
0.421726
0.421718
0.42171
0.421702
0.421695
0.421687
0.421679
0.421672
0.421664
0.421656
0.421649
0.421641
0.421633
0.421625
0.421618
0.42161
0.421602
0.421595
0.421587
0.421579
0.421571
0.421564
0.421556
0.421548
0.42154
0.421533
0.421525
0.421517
0.421509
0.421502
0.421494
0.421486
0.421478
0.421471
0.421463
0.421455
0.421447
0.42144
0.421432
0.421424
0.421416
0.421409
0.421401
0.421393
0.421385
0.421377
0.42137
0.421362
0.421354
0.421346
0.421338
0.421331
0.421323
0.421315
0.421307
0.421299
0.421292
0.421284
0.421276
0.421268
0.42126
0.421253
0.421245
0.421237
0.421229
0.421221
0.421214
0.421206
0.421198
0.42119
0.421182
0.421174
0.421167
0.421159
0.421151
0.421143
0.421135
0.421127
0.421119
0.421112
0.421104
0.421096
0.421088
0.42108
0.421072
0.421064
0.421057
0.421049
0.421041
0.421033
0.421025
0.421017
0.421009
0.421002
0.420994
0.420986
0.420978
0.42097
0.420962
0.420954
0.420946
0.420938
0.420931
0.420923
0.420915
0.420907
0.420899
0.420891
0.420883
0.420875
0.420867
0.420859
0.420851
0.420844
0.420836
0.420828
0.42082
0.420812
0.420804
0.420796
0.420788
0.42078
0.420772
0.420764
0.420756
0.420748
0.42074
0.420732
0.420724
0.420717
0.420709
0.420701
0.420693
0.420685
0.420677
0.420669
0.420661
0.420653
0.420645
0.420637
0.420629
0.420621
0.420613
0.420605
0.420597
0.420589
0.420581
0.420573
0.420565
0.420557
0.420549
0.420541
0.420533
0.420525
0.420517
0.420509
0.420501
0.420493
0.420485
0.420477
0.420469
0.420461
0.420453
0.420445
0.420437
0.420429
0.420421
0.420413
0.420405
0.420397
0.420389
0.420381
0.420373
0.420365
0.420357
0.420349
0.420341
0.420333
0.420324
0.420316
0.420308
0.4203
0.420292
0.420284
0.420276
0.420268
0.42026
0.420252
0.420244
0.420236
0.420228
0.42022
0.420212
0.420203
0.420195
0.420187
0.420179
0.420171
0.420163
0.420155
0.420147
0.420139
0.420131
0.420123
0.420114
0.420106
0.420098
0.42009
0.420082
0.420074
0.420066
0.420058
0.42005
0.420041
0.420033
0.420025
0.420017
0.420009
0.420001
0.419993
0.419985
0.419976
0.419968
0.41996
0.419952
0.419944
0.419936
0.419928
0.419919
0.419911
0.419903
0.419895
0.419887
0.419879
0.419871
0.419862
0.419854
0.419846
0.419838
0.41983
0.419822
0.419813
0.419805
0.419797
0.419789
0.419781