/*--------------------------------*- C++ -*----------------------------------*\
  =========                 |
  \\      /  F ield         | OpenFOAM: The Open Source CFD Toolbox
   \\    /   O peration     | Website:  https://openfoam.org
    \\  /    A nd           | Version:  9
     \\/     M anipulation  |
\*---------------------------------------------------------------------------*/
FoamFile
{
    format      ascii;
    class       volScalarField;
    location    "0.02";
    object      mag(U);
}
// * * * * * * * * * * * * * * * * * * * * * * * * * * * * * * * * * * * * * //

dimensions      [0 1 -1 0 0 0 0];

internalField   nonuniform List<scalar> 
1000
(
105.773
106.423
106.802
107.215
107.619
108.026
108.431
108.837
109.243
109.649
110.055
110.461
110.867
111.273
111.679
112.085
112.491
112.897
113.303
113.709
114.115
114.521
114.927
115.333
115.739
116.145
116.551
116.957
117.363
117.769
118.175
118.581
118.987
119.393
119.799
120.205
120.611
121.017
121.423
121.829
122.235
122.641
123.047
123.454
123.86
124.266
124.672
125.078
125.484
125.89
126.297
126.703
127.109
127.515
127.921
128.328
128.734
129.14
129.546
129.953
130.359
130.765
131.172
131.578
131.984
132.391
132.797
133.204
133.61
134.017
134.423
134.83
135.236
135.642
136.049
136.455
136.862
137.27
137.677
138.085
138.492
138.899
139.305
139.71
140.116
140.521
140.926
141.332
141.738
142.145
142.552
142.959
143.367
143.773
144.18
144.587
144.994
145.401
145.809
146.217
146.625
147.032
147.438
147.844
148.25
148.655
149.061
149.466
149.872
150.277
150.683
151.089
151.496
151.903
152.31
152.717
153.124
153.531
153.939
154.347
154.754
155.161
155.567
155.974
156.383
156.793
157.203
157.61
158.013
158.413
158.817
159.229
159.649
160.069
160.479
160.873
161.259
161.65
162.059
162.49
162.926
163.34
163.725
164.099
164.481
164.898
165.363
165.832
166.247
166.612
166.962
167.32
167.709
168.156
168.644
169.1
169.494
169.858
170.222
170.605
171.023
171.469
171.914
172.331
172.726
173.114
173.507
173.911
174.325
174.745
175.168
175.589
176.002
176.403
176.792
177.178
177.57
177.979
178.416
178.869
179.308
179.715
180.099
180.474
180.846
181.217
181.597
182.027
182.569
183.121
183.519
183.845
184.163
184.482
184.81
185.164
185.739
186.444
186.864
187.154
187.445
187.746
188.066
188.423
188.991
189.681
190.102
190.401
190.703
191.019
191.356
191.801
192.406
192.92
193.263
193.583
193.91
194.258
194.751
195.372
195.809
196.126
196.438
196.755
197.076
197.488
198.155
198.781
199.118
199.414
199.72
200.038
200.38
200.745
201.107
201.67
202.479
203.009
203.313
203.578
203.862
204.168
204.48
204.781
205.179
205.933
206.709
207.076
207.326
207.528
207.82
208.133
208.536
209.157
209.687
210.02
210.331
210.83
211.586
212.08
212.378
212.551
212.687
212.976
213.293
213.858
214.845
215.592
215.945
216.147
216.109
216.255
216.561
216.878
217.322
218.21
219.301
219.834
220.127
220.192
220.06
220.278
220.59
221.118
222.101
222.956
223.346
223.572
223.53
223.675
223.981
224.486
225.482
226.461
226.905
227.171
227.086
226.748
226.932
227.248
227.695
228.607
230.107
230.885
231.257
231.485
231.268
230.891
231.092
231.415
231.853
232.729
234.103
234.812
235.174
235.388
235.195
235.109
235.396
235.741
236.329
237.435
238.313
238.716
238.992
238.982
238.987
239.286
239.639
240.254
241.264
241.916
242.274
242.503
242.523
242.759
243.098
243.552
244.371
245.111
245.496
245.786
245.929
246.197
246.544
246.983
247.702
248.313
248.683
248.992
249.247
249.585
249.95
250.433
251.083
251.531
251.89
252.219
252.556
252.916
253.32
253.881
254.41
254.789
255.147
255.496
255.86
256.242
256.731
257.291
257.694
258.061
258.422
258.789
259.166
259.621
260.176
260.596
260.968
261.337
261.708
262.089
262.537
263.071
263.491
263.87
264.246
264.625
265.019
265.477
265.97
266.379
266.766
267.152
267.544
267.958
268.418
268.858
269.263
269.661
270.063
270.475
270.9
271.325
271.741
272.152
272.562
272.975
273.391
273.807
274.223
274.637
275.051
275.465
275.879
276.294
276.709
277.123
277.538
277.952
278.366
278.78
279.194
279.609
280.023
280.437
280.85
281.264
281.678
282.092
282.506
282.92
283.333
283.746
284.159
284.572
284.985
285.398
285.81
286.221
286.631
287.041
287.45
287.858
288.264
288.667
289.066
289.46
289.848
290.228
290.6
290.961
291.308
291.638
291.948
292.236
292.502
292.743
292.958
293.142
293.292
293.41
293.497
293.559
293.603
293.636
293.654
293.663
293.666
293.665
293.664
293.661
293.65
293.623
293.584
293.547
293.517
293.491
293.472
293.455
293.436
293.411
293.383
293.356
293.331
293.311
293.294
293.275
293.249
293.212
293.172
293.137
293.115
293.105
293.102
293.102
293.106
293.124
293.17
293.23
293.284
293.328
293.362
293.384
293.398
293.406
293.41
293.413
293.417
293.421
293.425
293.426
293.425
293.423
293.416
293.402
293.388
293.376
293.366
293.357
293.345
293.329
293.309
293.287
293.265
293.244
293.223
293.204
293.189
293.178
293.174
293.173
293.175
293.187
293.217
293.254
293.283
293.303
293.318
293.331
293.344
293.359
293.37
293.378
293.382
293.383
293.382
293.382
293.382
293.382
293.382
293.381
293.378
293.371
293.358
293.343
293.332
293.323
293.316
293.309
293.299
293.284
293.262
293.241
293.224
293.213
293.207
293.205
293.204
293.204
293.208
293.22
293.247
293.28
293.308
293.326
293.338
293.345
293.351
293.357
293.363
293.369
293.375
293.378
293.38
293.381
293.38
293.377
293.374
293.372
293.37
293.367
293.361
293.349
293.334
293.323
293.315
293.308
293.302
293.293
293.279
293.258
293.24
293.228
293.222
293.22
293.219
293.22
293.225
293.239
293.258
293.281
293.304
293.323
293.337
293.344
293.349
293.352
293.354
293.358
293.362
293.367
293.371
293.372
293.372
293.371
293.366
293.362
293.359
293.356
293.353
293.348
293.337
293.323
293.313
293.305
293.299
293.294
293.285
293.272
293.255
293.243
293.235
293.233
293.233
293.236
293.246
293.26
293.274
293.287
293.301
293.316
293.33
293.34
293.345
293.347
293.35
293.351
293.353
293.355
293.359
293.362
293.363
293.363
293.361
293.354
293.348
293.344
293.341
293.339
293.335
293.326
293.315
293.305
293.298
293.292
293.287
293.28
293.269
293.257
293.25
293.246
293.246
293.249
293.263
293.28
293.292
293.301
293.309
293.316
293.325
293.334
293.34
293.344
293.346
293.347
293.348
293.348
293.349
293.352
293.353
293.353
293.351
293.346
293.338
293.334
293.331
293.329
293.327
293.321
293.311
293.3
293.29
293.285
293.283
293.278
293.273
293.264
293.256
293.252
293.251
293.254
293.268
293.289
293.302
293.31
293.313
293.314
293.317
293.323
293.333
293.341
293.344
293.345
293.344
293.341
293.34
293.341
293.344
293.348
293.349
293.346
293.337
293.327
293.321
293.319
293.318
293.318
293.317
293.31
293.297
293.287
293.281
293.278
293.276
293.274
293.273
293.271
293.271
293.274
293.282
293.299
293.315
293.323
293.327
293.329
293.329
293.33
293.333
293.341
293.348
293.351
293.353
293.35
293.346
293.344
293.344
293.347
293.349
293.35
293.346
293.335
293.326
293.322
293.321
293.32
293.319
293.318
293.309
293.293
293.283
293.28
293.279
293.28
293.283
293.284
293.285
293.285
293.288
293.294
293.31
293.322
293.324
293.322
293.319
293.316
293.315
293.319
293.329
293.336
293.338
293.337
293.326
293.317
293.315
293.316
293.322
293.326
293.327
293.32
293.306
293.297
293.294
293.295
293.299
293.303
293.302
293.29
293.274
293.266
293.264
293.269
293.282
293.292
293.299
293.3
293.298
293.298
293.303
293.315
293.325
293.329
293.329
293.323
293.319
293.321
293.326
293.338
293.346
293.347
293.344
293.331
293.318
293.314
293.316
293.323
293.327
293.327
293.319
293.305
293.3
293.3
293.303
293.31
293.312
293.309
293.294
293.277
293.268
293.268
293.282
293.3
293.31
293.315
293.315
293.309
293.307
293.311
293.326
293.335
293.335
293.331
293.319
293.31
293.309
293.318
293.339
293.348
293.349
293.341
293.323
293.311
293.302
293.306
293.318
293.323
293.324
293.314
293.303
293.296
293.296
293.302
293.311
293.312
293.302
293.282
293.27
293.267
293.274
293.297
293.321
293.333
293.331
293.319
293.313
293.32
293.34
293.339
293.271
292.839
290.985
288.22
286.703
286.137
285.962
285.907
285.901
285.924
285.938
285.947
285.941
285.917
285.903
285.897
285.904
285.931
285.952
285.959
285.955
285.938
285.916
285.91
285.916
285.925
285.936
285.94
285.936
285.926
285.922
285.931
285.942
285.956
285.966
285.959
285.935
285.917
285.907
285.909
285.929
285.965
285.983
285.985
285.974
285.958
285.951
285.956
285.963
285.97
285.974
285.966
285.951
285.951
285.973
286.003
286.027
286.04
286.04
286.024
285.989
285.958
285.948
285.95
285.966
286.004
286.046
286.071
286.022
285.72
284.5
282.344
280.939
280.311
280.105
280.039
280.023
280.032
280.055
280.061
280.068
280.074
)
;

boundaryField
{
    sides
    {
        type            calculated;
        value           nonuniform List<scalar> 2(280.074 105.773);
    }
    empty
    {
        type            empty;
    }
}


// ************************************************************************* //
