/*--------------------------------*- C++ -*----------------------------------*\
  =========                 |
  \\      /  F ield         | OpenFOAM: The Open Source CFD Toolbox
   \\    /   O peration     | Website:  https://openfoam.org
    \\  /    A nd           | Version:  9
     \\/     M anipulation  |
\*---------------------------------------------------------------------------*/
FoamFile
{
    format      ascii;
    class       volScalarField;
    location    "0.02";
    object      rho;
}
// * * * * * * * * * * * * * * * * * * * * * * * * * * * * * * * * * * * * * //

dimensions      [1 -3 0 0 0 0 0];

internalField   nonuniform List<scalar> 
1000
(
0.75544
0.754035
0.753186
0.752268
0.751368
0.750465
0.749565
0.748665
0.747765
0.746867
0.74597
0.745074
0.744178
0.743284
0.74239
0.741497
0.740605
0.739715
0.738825
0.737936
0.737048
0.736161
0.735274
0.734389
0.733505
0.732621
0.731739
0.730858
0.729977
0.729098
0.728219
0.727342
0.726466
0.725591
0.724717
0.723844
0.722973
0.722104
0.721236
0.720369
0.719504
0.718641
0.717778
0.716917
0.716057
0.715198
0.714339
0.71348
0.712621
0.711762
0.710902
0.710042
0.709182
0.708321
0.707461
0.706601
0.705741
0.704882
0.704024
0.703167
0.702311
0.701456
0.700603
0.69975
0.698899
0.698048
0.697198
0.696348
0.6955
0.694652
0.693805
0.692959
0.692114
0.69127
0.690427
0.689585
0.688742
0.6879
0.687058
0.686217
0.685377
0.684539
0.683704
0.682871
0.682039
0.681208
0.680377
0.679546
0.678715
0.677885
0.677055
0.676226
0.675398
0.674569
0.673741
0.672914
0.672088
0.671264
0.670442
0.66962
0.668798
0.667976
0.667155
0.666337
0.665521
0.664708
0.663896
0.663085
0.662273
0.661461
0.66065
0.659839
0.659029
0.658219
0.65741
0.656601
0.655792
0.654985
0.654179
0.653374
0.652569
0.651763
0.650958
0.650154
0.649355
0.64856
0.647765
0.646966
0.646159
0.645348
0.644544
0.643756
0.642984
0.642215
0.641426
0.640611
0.639783
0.638965
0.638181
0.637439
0.636707
0.635931
0.635104
0.634257
0.633429
0.632663
0.631989
0.631329
0.630561
0.629704
0.628821
0.627955
0.627146
0.626436
0.625811
0.625123
0.624319
0.623463
0.62261
0.621793
0.621037
0.620336
0.619632
0.618878
0.618083
0.617278
0.616484
0.61571
0.614956
0.614214
0.613478
0.61274
0.611988
0.611214
0.610423
0.609626
0.608842
0.608089
0.607385
0.606711
0.60601
0.605251
0.604452
0.603637
0.602816
0.601996
0.6012
0.600483
0.599977
0.599487
0.598704
0.597811
0.596906
0.596008
0.595134
0.594338
0.593868
0.593663
0.592887
0.591932
0.590987
0.590063
0.589183
0.588391
0.587919
0.587689
0.58693
0.586003
0.585085
0.584194
0.583367
0.582673
0.582319
0.581744
0.580892
0.580012
0.579149
0.578345
0.577743
0.577408
0.576701
0.575816
0.574929
0.574054
0.573226
0.572491
0.572261
0.57186
0.570999
0.570089
0.569199
0.568329
0.567503
0.566717
0.565995
0.565496
0.565506
0.564923
0.564032
0.563075
0.562156
0.561278
0.560408
0.559576
0.55883
0.558742
0.558602
0.557795
0.556827
0.555771
0.554877
0.554049
0.553315
0.553006
0.552474
0.551644
0.550839
0.550241
0.550152
0.549537
0.548663
0.547574
0.546427
0.545546
0.544772
0.544263
0.544611
0.544399
0.543582
0.542562
0.541132
0.54003
0.539185
0.538405
0.537732
0.537819
0.538307
0.537745
0.536865
0.535622
0.534057
0.53309
0.532331
0.53176
0.532078
0.532073
0.531323
0.530365
0.528954
0.527867
0.527098
0.526509
0.526821
0.527054
0.526378
0.525476
0.524022
0.52216
0.521148
0.520387
0.519746
0.519847
0.520993
0.52085
0.520096
0.519145
0.517488
0.515588
0.514616
0.513867
0.513224
0.51327
0.514205
0.513947
0.513188
0.512235
0.510627
0.509207
0.508377
0.507674
0.507235
0.507728
0.507761
0.50707
0.506221
0.504908
0.503637
0.50284
0.502153
0.501761
0.5021
0.501769
0.501028
0.500111
0.498866
0.497968
0.497255
0.496661
0.496679
0.496496
0.495801
0.494982
0.493932
0.493089
0.492386
0.491777
0.491635
0.491266
0.490563
0.489777
0.488911
0.488176
0.487494
0.486962
0.486697
0.486107
0.485401
0.48465
0.483914
0.483224
0.482583
0.482192
0.481731
0.481056
0.480354
0.479641
0.478955
0.478295
0.477791
0.477389
0.476752
0.476068
0.475377
0.474698
0.474039
0.473484
0.473083
0.472475
0.471804
0.471129
0.470461
0.46981
0.46925
0.46882
0.468219
0.467562
0.466904
0.466252
0.46562
0.465082
0.464595
0.463984
0.463345
0.462705
0.462076
0.461477
0.460947
0.460386
0.459775
0.459157
0.458544
0.457947
0.457369
0.456793
0.456203
0.455606
0.45501
0.454418
0.453831
0.453245
0.452659
0.452071
0.451484
0.450897
0.450312
0.449727
0.449144
0.448561
0.447978
0.447396
0.446814
0.446234
0.445654
0.445075
0.444496
0.443918
0.44334
0.442764
0.442188
0.441613
0.441039
0.440465
0.439891
0.439319
0.438747
0.438177
0.437608
0.43704
0.436473
0.435906
0.435341
0.434777
0.434216
0.433659
0.433105
0.432555
0.43201
0.43147
0.430939
0.430419
0.429914
0.429427
0.428958
0.428511
0.428089
0.427694
0.427332
0.427007
0.426721
0.426478
0.426275
0.426112
0.425988
0.4259
0.425841
0.425809
0.425787
0.425774
0.425767
0.425762
0.425761
0.425765
0.425783
0.425824
0.425879
0.42593
0.425969
0.425995
0.42602
0.426045
0.426074
0.42611
0.42615
0.426187
0.426216
0.426241
0.426265
0.426292
0.426329
0.42638
0.426434
0.426477
0.426506
0.426521
0.426528
0.42653
0.426524
0.426497
0.426434
0.42635
0.426276
0.426219
0.426181
0.426153
0.426133
0.426119
0.426108
0.426102
0.426098
0.426096
0.426096
0.426095
0.426095
0.426095
0.426101
0.426118
0.426139
0.426158
0.426173
0.426187
0.426203
0.42622
0.426244
0.426274
0.426306
0.426337
0.426368
0.426395
0.426414
0.426423
0.426428
0.426429
0.426427
0.426414
0.426376
0.426328
0.426288
0.426258
0.426235
0.426215
0.426198
0.426185
0.426172
0.426162
0.426155
0.426151
0.426147
0.426147
0.426148
0.426151
0.426154
0.426156
0.426159
0.426167
0.426183
0.426202
0.426219
0.426231
0.426241
0.426251
0.426264
0.426284
0.426314
0.426344
0.426366
0.426381
0.426389
0.426392
0.426393
0.426392
0.426387
0.426371
0.426335
0.426291
0.426255
0.426229
0.426212
0.426201
0.426195
0.426189
0.426181
0.426171
0.426163
0.426158
0.426156
0.426156
0.426157
0.42616
0.426164
0.426167
0.42617
0.426175
0.426183
0.426198
0.426217
0.426234
0.426246
0.426255
0.426264
0.426275
0.426293
0.42632
0.426345
0.426363
0.426372
0.426376
0.426377
0.426376
0.426367
0.426348
0.42632
0.426289
0.42626
0.426236
0.426219
0.426208
0.426201
0.426197
0.426193
0.426189
0.426182
0.426175
0.426171
0.42617
0.42617
0.426173
0.426179
0.426184
0.426188
0.426191
0.426196
0.426203
0.426217
0.426236
0.426251
0.426263
0.426271
0.426278
0.426287
0.426303
0.426327
0.426346
0.426357
0.42636
0.42636
0.426354
0.42634
0.426321
0.426305
0.42629
0.42627
0.426248
0.426227
0.426214
0.426207
0.426206
0.426206
0.426205
0.426202
0.426196
0.426188
0.426184
0.426183
0.426185
0.426193
0.426203
0.426211
0.426215
0.426216
0.426219
0.426225
0.426238
0.426256
0.42627
0.42628
0.426285
0.426292
0.426302
0.426319
0.426337
0.426348
0.426353
0.426353
0.426345
0.426324
0.426301
0.426284
0.426275
0.42627
0.426261
0.426248
0.426233
0.426219
0.426211
0.426209
0.426211
0.426215
0.426215
0.426213
0.426206
0.426198
0.426195
0.426197
0.426206
0.426221
0.426232
0.426236
0.426238
0.426238
0.426238
0.426245
0.426262
0.426277
0.42629
0.4263
0.426306
0.426314
0.426323
0.426329
0.426334
0.426335
0.426332
0.426315
0.426289
0.42627
0.426261
0.426257
0.426255
0.426251
0.426244
0.426233
0.426224
0.42622
0.426219
0.426219
0.42622
0.426221
0.42622
0.426217
0.426218
0.426219
0.426222
0.426234
0.426244
0.426247
0.42625
0.426251
0.426253
0.426258
0.426271
0.42629
0.426305
0.426312
0.426315
0.426316
0.426317
0.42632
0.426323
0.426326
0.426327
0.42632
0.426298
0.426277
0.426264
0.426257
0.426256
0.426258
0.42626
0.426258
0.426249
0.426239
0.426235
0.426236
0.426243
0.42625
0.426253
0.426252
0.426246
0.426242
0.426241
0.426248
0.426265
0.426278
0.426284
0.426284
0.42628
0.426278
0.42628
0.426293
0.426314
0.426327
0.426331
0.42633
0.42632
0.426311
0.426308
0.426308
0.426309
0.426308
0.426299
0.426277
0.426258
0.426246
0.426239
0.42624
0.426245
0.426248
0.426247
0.426238
0.426228
0.426224
0.426223
0.426229
0.426237
0.42624
0.42624
0.426236
0.426235
0.426235
0.426244
0.426261
0.42627
0.426275
0.426274
0.426272
0.426273
0.426277
0.426294
0.426315
0.426324
0.426326
0.42632
0.426303
0.426293
0.426294
0.426298
0.426301
0.426301
0.426293
0.426271
0.426253
0.426246
0.426246
0.426256
0.426268
0.426279
0.426277
0.426264
0.426253
0.42625
0.426253
0.426267
0.426273
0.426273
0.42627
0.42626
0.426255
0.426256
0.426269
0.426292
0.426309
0.426316
0.426313
0.426306
0.426303
0.426307
0.426324
0.42634
0.426339
0.426336
0.426317
0.426293
0.426283
0.426287
0.426301
0.426313
0.426316
0.426309
0.426287
0.426265
0.426252
0.426254
0.426269
0.426282
0.426288
0.426288
0.426279
0.426269
0.426267
0.426276
0.426297
0.426306
0.426299
0.426289
0.426273
0.426267
0.42627
0.426292
0.426328
0.426344
0.426346
0.426337
0.426324
0.426317
0.426315
0.426327
0.426343
0.426348
0.42634
0.426312
0.426297
0.426298
0.426304
0.426321
0.426329
0.426317
0.426282
0.426268
0.42635
0.42693
0.429437
0.433194
0.435376
0.436123
0.436297
0.436381
0.436408
0.436439
0.43644
0.436416
0.436389
0.436349
0.436356
0.436374
0.436393
0.436418
0.43641
0.436394
0.436384
0.436388
0.436399
0.436412
0.436417
0.436399
0.436372
0.436356
0.43636
0.436383
0.436416
0.436442
0.436435
0.436411
0.436384
0.436363
0.436359
0.436381
0.4364
0.436405
0.43639
0.436378
0.436371
0.436371
0.436392
0.436419
0.436428
0.436412
0.436356
0.436314
0.436304
0.436315
0.436341
0.436368
0.436394
0.43638
0.436345
0.436323
0.436319
0.436332
0.436344
0.43635
0.436358
0.436356
0.436337
0.436294
0.436274
0.4363
0.436375
0.436793
0.438471
0.441451
0.443455
0.444188
0.444403
0.444512
0.444569
0.444622
0.444657
0.44465
0.444631
0.44463
)
;

boundaryField
{
    sides
    {
        type            calculated;
        value           nonuniform List<scalar> 2(0.44463 0.75544);
    }
    empty
    {
        type            empty;
    }
}


// ************************************************************************* //
