/*--------------------------------*- C++ -*----------------------------------*\
  =========                 |
  \\      /  F ield         | OpenFOAM: The Open Source CFD Toolbox
   \\    /   O peration     | Website:  https://openfoam.org
    \\  /    A nd           | Version:  9
     \\/     M anipulation  |
\*---------------------------------------------------------------------------*/
FoamFile
{
    format      ascii;
    class       volScalarField;
    location    "0.032";
    object      p;
}
// * * * * * * * * * * * * * * * * * * * * * * * * * * * * * * * * * * * * * //

dimensions      [1 -1 -2 0 0 0 0];

internalField   nonuniform List<scalar> 
1000
(
17840
17837.2
17833.5
17830.3
17827.3
17824.4
17821.5
17818.5
17815.6
17812.6
17809.6
17806.7
17803.7
17800.8
17797.8
17794.8
17791.9
17788.9
17786
17783
17780.1
17777.1
17774.2
17771.2
17768.3
17765.3
17762.4
17759.4
17756.5
17753.5
17750.6
17747.6
17744.7
17741.7
17738.8
17735.8
17732.9
17729.9
17727
17724
17721.1
17718.1
17715.2
17712.2
17709.3
17706.3
17703.4
17700.4
17697.5
17694.5
17691.6
17688.6
17685.7
17682.7
17679.8
17676.8
17673.8
17670.9
17667.9
17665
17662
17659.1
17656.1
17653.2
17650.2
17647.3
17644.3
17641.4
17638.5
17635.5
17632.6
17629.6
17626.7
17623.7
17620.8
17617.8
17614.9
17611.9
17609
17606
17603.1
17600.1
17597.2
17594.2
17591.3
17588.3
17585.4
17582.4
17579.5
17576.5
17573.6
17570.6
17567.7
17564.7
17561.8
17558.8
17555.9
17552.9
17550
17547
17544.1
17541.1
17538.2
17535.2
17532.3
17529.3
17526.4
17523.4
17520.5
17517.6
17514.6
17511.7
17508.7
17505.8
17502.8
17499.9
17496.9
17494
17491
17488.1
17485.2
17482.2
17479.3
17476.3
17473.4
17470.5
17467.5
17464.6
17461.6
17458.7
17455.7
17452.8
17449.9
17446.9
17444
17441.1
17438.1
17435.2
17432.3
17429.3
17426.4
17423.4
17420.5
17417.6
17414.7
17411.7
17408.8
17405.9
17402.9
17400
17397.1
17394.1
17391.2
17388.3
17385.4
17382.5
17379.5
17376.6
17373.7
17370.8
17367.9
17364.9
17362
17359.1
17356.2
17353.3
17350.4
17347.5
17344.5
17341.6
17338.7
17335.8
17332.9
17330
17327.1
17324.2
17321.3
17318.4
17315.5
17312.6
17309.8
17306.9
17304
17301.1
17298.2
17295.3
17292.4
17289.6
17286.7
17283.8
17280.9
17278.1
17275.2
17272.3
17269.5
17266.6
17263.8
17260.9
17258.1
17255.2
17252.4
17249.5
17246.7
17243.8
17241
17238.2
17235.3
17232.5
17229.7
17226.9
17224
17221.2
17218.4
17215.6
17212.8
17210
17207.2
17204.4
17201.6
17198.8
17196.1
17193.3
17190.5
17187.7
17185
17182.2
17179.5
17176.7
17174
17171.3
17168.5
17165.8
17163.1
17160.4
17157.6
17154.9
17152.2
17149.5
17146.9
17144.2
17141.5
17138.8
17136.2
17133.5
17130.9
17128.2
17125.6
17123
17120.4
17117.8
17115.2
17112.6
17110
17107.4
17104.8
17102.3
17099.7
17097.2
17094.7
17092.2
17089.6
17087.1
17084.7
17082.2
17079.7
17077.3
17074.8
17072.4
17070
17067.5
17065.2
17062.8
17060.4
17058
17055.7
17053.4
17051.1
17048.8
17046.5
17044.2
17042
17039.7
17037.5
17035.3
17033.1
17030.9
17028.8
17026.7
17024.5
17022.5
17020.4
17018.3
17016.3
17014.3
17012.3
17010.3
17008.4
17006.5
17004.6
17002.7
17000.9
16999
16997.2
16995.5
16993.7
16992
16990.3
16988.7
16987.1
16985.5
16983.9
16982.4
16980.9
16979.5
16978
16976.7
16975.3
16974
16972.7
16971.5
16970.3
16969.2
16968.1
16967
16966
16965.1
16964.2
16963.3
16962.5
16961.7
16961
16960.4
16959.8
16959.2
16958.7
16958.3
16958
16957.7
16957.4
16957.3
16957.2
16957.1
16957.1
16957.2
16957.3
16957.5
16957.8
16958.2
16958.7
16959.2
16959.9
16960.7
16961.5
16962.5
16963.5
16964.6
16965.9
16967.2
16968.7
16970.2
16971.9
16973.6
16975.5
16977.5
16979.6
16981.9
16984.2
16986.7
16989.3
16992.1
16995
16998
17001.2
17004.5
17007.9
17011.5
17015.3
17019.2
17023.3
17027.5
17031.9
17036.5
17041.2
17046.1
17051.2
17056.4
17061.8
17067.4
17073.2
17079.2
17085.4
17091.7
17098.3
17105
17111.9
17119.1
17126.4
17133.9
17141.6
17149.6
17157.7
17166
17174.5
17183.3
17192.2
17201.3
17210.6
17220.2
17229.9
17239.8
17249.9
17260.2
17270.7
17281.4
17292.3
17303.4
17314.6
17326.1
17337.7
17349.5
17361.4
17373.5
17385.8
17398.3
17410.9
17423.6
17436.5
17449.5
17462.7
17476
17489.5
17503.1
17516.8
17530.6
17544.5
17558.5
17572.7
17586.9
17601.3
17615.7
17630.2
17644.8
17659.5
17674.3
17689.1
17704
17719
17734
17749.1
17764.3
17779.5
17794.7
17810
17825.4
17840.8
17856.3
17871.7
17887.3
17902.8
17918.4
17934.1
17949.7
17965.4
17981.1
17996.9
18012.7
18028.5
18044.3
18060.2
18076.1
18092
18107.9
18123.8
18139.8
18155.8
18171.8
18187.8
18203.9
18220
18236.1
18252.2
18268.3
18284.5
18300.6
18316.8
18333
18349.2
18365.5
18381.7
18398
18414.3
18430.6
18446.9
18463.3
18479.6
18496
18512.4
18528.8
18545.2
18561.7
18578.2
18594.6
18611.1
18627.7
18644.2
18660.8
18677.3
18693.9
18710.5
18727.1
18743.8
18760.4
18777.1
18793.8
18810.5
18827.2
18844
18860.7
18877.5
18894.3
18911.1
18927.9
18944.8
18961.6
18978.5
18995.4
19012.3
19029.3
19046.2
19063.2
19080.2
19097.2
19114.2
19131.2
19148.3
19165.4
19182.4
19199.5
19216.7
19233.8
19251
19268.1
19285.3
19302.5
19319.8
19337
19354.3
19371.6
19388.8
19406.2
19423.5
19440.8
19458.2
19475.6
19493
19510.4
19527.8
19545.3
19562.8
19580.3
19597.8
19615.3
19632.8
19650.4
19668
19685.6
19703.2
19720.8
19738.5
19756.1
19773.8
19791.5
19809.2
19827
19844.7
19862.5
19880.3
19898.1
19915.9
19933.8
19951.6
19969.5
19987.4
20005.3
20023.2
20041.2
20059.2
20077.2
20095.2
20113.2
20131.2
20149.3
20167.4
20185.5
20203.6
20221.7
20239.9
20258
20276.2
20294.4
20312.6
20330.9
20349.1
20367.4
20385.7
20404
20422.4
20440.7
20459.1
20477.5
20495.9
20514.3
20532.7
20551.2
20569.7
20588.2
20606.7
20625.2
20643.8
20662.4
20681
20699.6
20718.2
20736.8
20755.5
20774.2
20792.9
20811.6
20830.3
20849.1
20867.9
20886.7
20905.5
20924.3
20943.2
20962
20980.9
20999.8
21018.7
21037.7
21056.6
21075.6
21094.6
21113.6
21132.7
21151.7
21170.8
21189.9
21209
21228.1
21247.3
21266.5
21285.6
21304.8
21324.1
21343.3
21362.6
21381.8
21401.1
21420.5
21439.8
21459.2
21478.5
21497.9
21517.3
21536.8
21556.2
21575.7
21595.2
21614.7
21634.2
21653.7
21673.3
21692.9
21712.5
21732.1
21751.8
21771.4
21791.1
21810.8
21830.5
21850.2
21870
21889.8
21909.6
21929.4
21949.2
21969
21988.9
22008.8
22028.7
22048.6
22068.6
22088.5
22108.5
22128.5
22148.5
22168.6
22188.6
22208.7
22228.8
22248.9
22269.1
22289.2
22309.4
22329.6
22349.8
22370
22390.3
22410.6
22430.8
22451.2
22471.5
22491.8
22512.2
22532.6
22553
22573.4
22593.9
22614.3
22634.8
22655.3
22675.8
22696.4
22716.9
22737.5
22758.1
22778.7
22799.4
22820
22840.7
22861.4
22882.1
22902.8
22923.6
22944.4
22965.1
22986
23006.8
23027.6
23048.5
23069.4
23090.3
23111.2
23132.2
23153.1
23174.1
23195.1
23216.1
23237.2
23258.2
23279.3
23300.4
23321.5
23342.7
23363.8
23385
23406.2
23427.4
23448.7
23469.9
23491.2
23512.5
23533.8
23555.1
23576.5
23597.8
23619.2
23640.6
23662
23683.5
23705
23726.4
23747.9
23769.5
23791
23812.6
23834.1
23855.7
23877.4
23899
23920.7
23942.3
23964
23985.7
24007.5
24029.2
24051
24072.8
24094.6
24116.5
24138.3
24160.2
24182.1
24204
24226
24247.9
24269.9
24291.9
24313.9
24336
24358
24380.1
24402.1
24424.2
24446.3
24468.5
24490.6
24512.8
24534.9
24557.1
24579.3
24601.6
24623.8
24646.1
24668.3
24690.7
24713
24735.3
24757.7
24780.1
24802.4
24824.9
24847.3
24869.8
24892.2
24914.7
24937.2
24959.8
24982.3
25004.9
25027.5
25050.2
25072.8
25095.5
25118.2
25141
25163.7
25186.6
25209.4
25232.3
25255.2
25278.2
25301.2
25324.2
25347.3
25370.4
25393.6
25416.9
25440.2
25463.6
25487
25510.6
25534.2
25557.8
25581.6
25605.4
25629.4
25653.4
25677.6
25701.8
25726.2
25750.7
25775.3
25800.1
25824.9
25850
25875.1
25900.4
25925.8
25951.5
25977.2
26003.1
26029.2
26055.4
26081.7
26108.3
26135
26161.8
26188.8
26215.9
26243.2
26270.6
26298.1
26325.8
26353.5
26381.4
26409.4
26437.4
26465.5
26493.7
26521.9
26550.2
26578.5
26606.8
26635.2
26663.5
26691.8
26720
26748.2
26776.1
26804.3
26832.4
26860.4
26888.2
26916
26943.6
26971.2
26998.7
27026
27053.2
27080.3
27107.2
27134
27160.8
27187.3
27213.8
27240.1
27266.3
27292.4
27318.4
27344.3
27370.1
27395.7
27421.3
27446.8
27472.2
27497.5
27522.7
27547.9
27573
27598
27623
27647.9
27672.8
27697.6
27722.3
27747
27771.7
27796.3
27820.9
27845.5
27870
27894.4
27918.9
27943.3
27967.7
27992
28016.3
28040.6
28064.8
28089
28113.2
28137.4
28161.5
28185.6
28209.7
28233.7
28257.7
28281.6
28305.6
28329.4
28353.3
28377
28400.8
28424.5
28448.1
28471.7
28495.3
28518.8
28542.3
28565.8
28589.2
28612.5
28635.8
28659.1
28682.3
28705.5
28728.7
28751.8
28774.9
28798
28821.1
28844.3
28867.5
28890.8
28914.3
28938
28962
28986.5
29011.5
29037.2
29063.8
29091.4
29120.2
29150.3
29181.9
29214.8
29249.5
29285.3
)
;

boundaryField
{
    sides
    {
        type            zeroGradient;
    }
    empty
    {
        type            empty;
    }
}


// ************************************************************************* //
