/*--------------------------------*- C++ -*----------------------------------*\
  =========                 |
  \\      /  F ield         | OpenFOAM: The Open Source CFD Toolbox
   \\    /   O peration     | Website:  https://openfoam.org
    \\  /    A nd           | Version:  9
     \\/     M anipulation  |
\*---------------------------------------------------------------------------*/
FoamFile
{
    format      ascii;
    class       surfaceScalarField;
    location    "0.032";
    object      phi;
}
// * * * * * * * * * * * * * * * * * * * * * * * * * * * * * * * * * * * * * //

dimensions      [1 0 -1 0 0 0 0];

internalField   nonuniform List<scalar> 
999
(
16.8927
17.3436
17.7944
18.2449
18.6952
19.1455
19.5954
20.045
20.4942
20.9433
21.3925
21.8416
22.2907
22.7395
23.1877
23.6353
24.0825
24.5294
24.9763
25.4234
25.8711
26.3193
26.768
27.2172
27.6666
28.1161
28.5656
29.0151
29.4646
29.9145
30.365
30.8154
31.2658
31.7161
32.1664
32.6166
33.0668
33.5168
33.9668
34.4168
34.8666
35.3164
35.7661
36.2158
36.6654
37.1149
37.5643
38.0137
38.463
38.9122
39.3614
39.8105
40.2596
40.7085
41.1574
41.6063
42.055
42.5037
42.9524
43.4009
43.8494
44.2978
44.7461
45.1944
45.6426
46.0908
46.5388
46.9868
47.4347
47.8826
48.3304
48.778
49.2257
49.6732
50.1207
50.5681
51.0155
51.4627
51.9099
52.3571
52.8041
53.2511
53.698
54.1448
54.5915
55.0383
55.4847
55.9314
56.3777
56.8241
57.2705
57.7166
58.1629
58.6088
59.0548
59.5008
59.9465
60.3924
60.838
61.2836
61.7292
62.1746
62.6199
63.0653
63.5104
63.9555
64.4006
64.8455
65.2904
65.7353
66.18
66.6246
67.0692
67.5137
67.9581
68.4024
68.8466
69.2908
69.7349
70.1788
70.6227
71.0666
71.5103
71.9539
72.3975
72.841
73.2844
73.7277
74.1709
74.6141
75.0571
75.5001
75.943
76.3858
76.8285
77.2711
77.7137
78.1561
78.5985
79.0408
79.4829
79.925
80.3671
80.809
81.2508
81.6925
82.1342
82.5757
83.0172
83.4586
83.8999
84.3411
84.7822
85.2232
85.6641
86.1049
86.5456
86.9863
87.4268
87.8672
88.3076
88.7478
89.188
89.6281
90.068
90.5079
90.9477
91.3873
91.8269
92.2664
92.7058
93.1451
93.5842
94.0233
94.4623
94.9012
95.3399
95.7786
96.2172
96.6557
97.094
97.5323
97.9705
98.4085
98.8465
99.2843
99.722
100.16
100.597
101.035
101.472
101.909
102.346
102.783
103.22
103.657
104.094
104.53
104.966
105.403
105.839
106.275
106.711
107.147
107.583
108.018
108.454
108.889
109.325
109.76
110.195
110.63
111.065
111.499
111.934
112.368
112.803
113.237
113.671
114.105
114.539
114.973
115.406
115.84
116.273
116.706
117.139
117.572
118.005
118.438
118.871
119.303
119.735
120.168
120.6
121.031
121.463
121.895
122.326
122.758
123.189
123.62
124.051
124.482
124.912
125.343
125.773
126.204
126.634
127.064
127.493
127.923
128.352
128.782
129.211
129.64
130.069
130.497
130.926
131.354
131.783
132.211
132.638
133.066
133.494
133.921
134.348
134.775
135.202
135.629
136.055
136.482
136.908
137.334
137.759
138.185
138.61
139.036
139.461
139.885
140.31
140.734
141.159
141.583
142.007
142.43
142.854
143.277
143.7
144.122
144.545
144.967
145.389
145.811
146.233
146.654
147.075
147.496
147.917
148.338
148.758
149.178
149.597
150.017
150.436
150.855
151.274
151.692
152.11
152.528
152.945
153.363
153.78
154.196
154.613
155.029
155.444
155.86
156.275
156.69
157.104
157.518
157.932
158.346
158.759
159.171
159.584
159.996
160.407
160.818
161.229
161.64
162.05
162.459
162.869
163.277
163.686
164.094
164.501
164.908
165.315
165.721
166.127
166.533
166.938
167.343
167.747
168.15
168.553
168.955
169.357
169.758
170.159
170.559
170.958
171.357
171.755
172.153
172.55
172.946
173.342
173.737
174.131
174.525
174.918
175.311
175.702
176.093
176.484
176.873
177.262
177.65
178.037
178.424
178.81
179.195
179.579
179.962
180.345
180.726
181.107
181.487
181.867
182.245
182.622
182.999
183.375
183.749
184.123
184.496
184.869
185.24
185.61
185.98
186.348
186.716
187.083
187.449
187.814
188.178
188.541
188.903
189.265
189.625
189.985
190.344
190.702
191.06
191.416
191.772
192.127
192.481
192.835
193.188
193.54
193.892
194.243
194.593
194.943
195.292
195.64
195.989
196.336
196.683
197.03
197.377
197.723
198.068
198.414
198.759
199.104
199.448
199.793
200.137
200.481
200.825
201.169
201.513
201.857
202.201
202.545
202.889
203.233
203.577
203.921
204.266
204.61
204.955
205.3
205.645
205.99
206.336
206.682
207.028
207.374
207.721
208.068
208.415
208.762
209.11
209.458
209.807
210.156
210.505
210.855
211.205
211.556
211.906
212.258
212.609
212.961
213.314
213.667
214.02
214.374
214.728
215.082
215.437
215.793
216.148
216.505
216.861
217.218
217.576
217.934
218.292
218.651
219.01
219.37
219.73
220.091
220.452
220.813
221.175
221.538
221.901
222.264
222.628
222.992
223.356
223.721
224.087
224.453
224.819
225.186
225.553
225.921
226.289
226.658
227.027
227.397
227.767
228.137
228.508
228.879
229.251
229.623
229.996
230.369
230.743
231.117
231.492
231.867
232.242
232.618
232.995
233.371
233.749
234.127
234.505
234.884
235.263
235.642
236.023
236.403
236.784
237.166
237.548
237.93
238.313
238.696
239.08
239.464
239.849
240.234
240.62
241.006
241.393
241.78
242.168
242.556
242.944
243.333
243.723
244.113
244.503
244.894
245.285
245.677
246.07
246.462
246.856
247.249
247.644
248.038
248.434
248.829
249.225
249.622
250.019
250.417
250.815
251.213
251.612
252.012
252.412
252.812
253.213
253.615
254.016
254.419
254.822
255.225
255.629
256.033
256.438
256.843
257.249
257.655
258.062
258.469
258.877
259.285
259.694
260.103
260.513
260.923
261.334
261.745
262.157
262.569
262.981
263.395
263.808
264.222
264.637
265.052
265.468
265.884
266.3
266.717
267.135
267.553
267.972
268.391
268.81
269.23
269.651
270.072
270.493
270.915
271.338
271.761
272.185
272.609
273.033
273.458
273.884
274.31
274.736
275.164
275.591
276.019
276.448
276.877
277.306
277.737
278.167
278.598
279.03
279.462
279.895
280.328
280.761
281.196
281.63
282.065
282.501
282.937
283.374
283.811
284.249
284.687
285.126
285.565
286.005
286.445
286.886
287.327
287.769
288.212
288.655
289.098
289.542
289.986
290.431
290.877
291.323
291.769
292.216
292.664
293.112
293.56
294.009
294.459
294.909
295.36
295.811
296.263
296.715
297.168
297.621
298.075
298.529
298.984
299.439
299.895
300.352
300.809
301.266
301.724
302.183
302.642
303.101
303.561
304.022
304.483
304.945
305.407
305.87
306.333
306.797
307.262
307.726
308.192
308.658
309.124
309.591
310.059
310.527
310.996
311.465
311.935
312.405
312.876
313.347
313.819
314.291
314.764
315.238
315.712
316.186
316.661
317.137
317.613
318.09
318.567
319.045
319.523
320.002
320.482
320.962
321.442
321.923
322.405
322.887
323.369
323.853
324.336
324.821
325.305
325.791
326.276
326.763
327.25
327.738
328.225
328.715
329.203
329.693
330.183
330.674
331.165
331.657
332.149
332.642
333.136
333.629
334.124
334.619
335.115
335.611
336.107
336.604
337.102
337.6
338.099
338.599
339.098
339.599
340.1
340.601
341.103
341.606
342.109
342.612
343.117
343.621
344.126
344.632
345.138
345.645
346.152
346.66
347.169
347.678
348.187
348.697
349.207
349.718
350.23
350.742
351.255
351.768
352.281
352.795
353.31
353.825
354.341
354.857
355.374
355.891
356.409
356.928
357.447
357.966
358.486
359.006
359.528
360.049
360.571
361.093
361.617
362.14
362.664
363.188
363.714
364.239
364.766
365.292
365.82
366.347
366.876
367.404
367.934
368.463
368.994
369.524
370.056
370.587
371.12
371.652
372.186
372.719
373.254
373.788
374.323
374.858
375.395
375.931
376.468
377.005
377.543
378.08
378.619
379.158
379.697
380.237
380.777
381.317
381.858
382.399
382.941
383.482
384.025
384.567
385.11
385.652
386.196
386.739
387.283
387.827
388.371
388.916
389.46
390.005
390.55
391.095
391.641
392.186
392.732
393.278
393.824
394.37
394.917
395.463
396.01
396.557
397.105
397.652
398.2
398.747
399.296
399.844
400.393
400.941
401.491
402.04
402.59
403.14
403.691
404.242
404.794
405.346
405.898
406.451
407.005
407.559
408.114
408.667
409.231
409.772
410.342
410.899
411.449
412.013
412.573
413.13
413.692
414.254
414.814
415.376
415.94
416.503
417.066
417.631
418.196
418.761
419.327
419.893
420.459
421.027
421.594
422.162
422.73
423.298
423.867
424.436
425.005
425.575
426.144
426.715
427.284
427.855
428.424
428.996
429.565
430.137
430.707
431.278
431.848
432.42
432.989
433.561
434.13
434.701
435.271
435.842
436.411
436.981
437.551
438.121
438.689
439.259
439.827
440.396
440.963
441.532
442.098
442.666
443.232
443.799
444.364
444.93
445.494
446.059
446.623
447.186
447.748
448.31
448.872
449.432
449.992
450.55
451.109
451.666
452.222
452.777
453.331
453.884
454.436
454.987
455.536
456.084
456.63
457.175
457.718
458.258
458.797
459.332
459.865
460.394
460.92
461.442
461.96
462.474
462.983
463.489
463.991
)
;

boundaryField
{
    sides
    {
        type            calculated;
        value           nonuniform List<scalar> 2(464.49 -16.4415);
    }
    empty
    {
        type            empty;
        value           nonuniform List<scalar> 0();
    }
}


// ************************************************************************* //
