/*--------------------------------*- C++ -*----------------------------------*\
  =========                 |
  \\      /  F ield         | OpenFOAM: The Open Source CFD Toolbox
   \\    /   O peration     | Website:  https://openfoam.org
    \\  /    A nd           | Version:  9
     \\/     M anipulation  |
\*---------------------------------------------------------------------------*/
FoamFile
{
    format      ascii;
    class       volVectorField;
    location    "0.032";
    object      U;
}
// * * * * * * * * * * * * * * * * * * * * * * * * * * * * * * * * * * * * * //

dimensions      [0 1 -1 0 0 0 0];

internalField   nonuniform List<vector> 
1000
(
(14.0493 0 0)
(14.503 0 0)
(15.0099 0 0)
(15.4257 0 0)
(15.803 0 0)
(16.1831 0 0)
(16.5717 0 0)
(16.9631 0 0)
(17.3539 0 0)
(17.7441 0 0)
(18.1342 0 0)
(18.5243 0 0)
(18.9145 0 0)
(19.3047 0 0)
(19.6949 0 0)
(20.0852 0 0)
(20.4756 0 0)
(20.866 0 0)
(21.2565 0 0)
(21.6471 0 0)
(22.0378 0 0)
(22.4284 0 0)
(22.8191 0 0)
(23.2098 0 0)
(23.6004 0 0)
(23.9911 0 0)
(24.3819 0 0)
(24.7726 0 0)
(25.1635 0 0)
(25.5543 0 0)
(25.9452 0 0)
(26.3362 0 0)
(26.7271 0 0)
(27.1181 0 0)
(27.5091 0 0)
(27.9001 0 0)
(28.2912 0 0)
(28.6823 0 0)
(29.0735 0 0)
(29.4647 0 0)
(29.8559 0 0)
(30.2472 0 0)
(30.6385 0 0)
(31.0298 0 0)
(31.4212 0 0)
(31.8126 0 0)
(32.204 0 0)
(32.5955 0 0)
(32.987 0 0)
(33.3785 0 0)
(33.7701 0 0)
(34.1617 0 0)
(34.5533 0 0)
(34.945 0 0)
(35.3367 0 0)
(35.7285 0 0)
(36.1202 0 0)
(36.512 0 0)
(36.9039 0 0)
(37.2957 0 0)
(37.6877 0 0)
(38.0796 0 0)
(38.4716 0 0)
(38.8636 0 0)
(39.2556 0 0)
(39.6477 0 0)
(40.0398 0 0)
(40.4319 0 0)
(40.8241 0 0)
(41.2163 0 0)
(41.6085 0 0)
(42.0008 0 0)
(42.3931 0 0)
(42.7854 0 0)
(43.1777 0 0)
(43.5701 0 0)
(43.9625 0 0)
(44.355 0 0)
(44.7474 0 0)
(45.1399 0 0)
(45.5325 0 0)
(45.925 0 0)
(46.3176 0 0)
(46.7102 0 0)
(47.1029 0 0)
(47.4956 0 0)
(47.8883 0 0)
(48.281 0 0)
(48.6738 0 0)
(49.0666 0 0)
(49.4594 0 0)
(49.8522 0 0)
(50.2451 0 0)
(50.638 0 0)
(51.0309 0 0)
(51.4239 0 0)
(51.8169 0 0)
(52.2099 0 0)
(52.6029 0 0)
(52.996 0 0)
(53.3891 0 0)
(53.7822 0 0)
(54.1753 0 0)
(54.5685 0 0)
(54.9617 0 0)
(55.3549 0 0)
(55.7482 0 0)
(56.1414 0 0)
(56.5347 0 0)
(56.928 0 0)
(57.3214 0 0)
(57.7147 0 0)
(58.1081 0 0)
(58.5015 0 0)
(58.895 0 0)
(59.2884 0 0)
(59.6819 0 0)
(60.0754 0 0)
(60.4689 0 0)
(60.8625 0 0)
(61.256 0 0)
(61.6496 0 0)
(62.0432 0 0)
(62.4368 0 0)
(62.8305 0 0)
(63.2242 0 0)
(63.6178 0 0)
(64.0116 0 0)
(64.4053 0 0)
(64.799 0 0)
(65.1928 0 0)
(65.5866 0 0)
(65.9804 0 0)
(66.3742 0 0)
(66.768 0 0)
(67.1619 0 0)
(67.5558 0 0)
(67.9497 0 0)
(68.3436 0 0)
(68.7375 0 0)
(69.1314 0 0)
(69.5254 0 0)
(69.9194 0 0)
(70.3134 0 0)
(70.7074 0 0)
(71.1014 0 0)
(71.4954 0 0)
(71.8894 0 0)
(72.2835 0 0)
(72.6776 0 0)
(73.0717 0 0)
(73.4657 0 0)
(73.8599 0 0)
(74.254 0 0)
(74.6481 0 0)
(75.0422 0 0)
(75.4364 0 0)
(75.8305 0 0)
(76.2247 0 0)
(76.6189 0 0)
(77.0131 0 0)
(77.4073 0 0)
(77.8015 0 0)
(78.1957 0 0)
(78.5899 0 0)
(78.9841 0 0)
(79.3784 0 0)
(79.7726 0 0)
(80.1668 0 0)
(80.5611 0 0)
(80.9553 0 0)
(81.3496 0 0)
(81.7438 0 0)
(82.1381 0 0)
(82.5323 0 0)
(82.9266 0 0)
(83.3209 0 0)
(83.7151 0 0)
(84.1094 0 0)
(84.5036 0 0)
(84.8979 0 0)
(85.2922 0 0)
(85.6864 0 0)
(86.0807 0 0)
(86.4749 0 0)
(86.8691 0 0)
(87.2634 0 0)
(87.6576 0 0)
(88.0518 0 0)
(88.446 0 0)
(88.8402 0 0)
(89.2344 0 0)
(89.6286 0 0)
(90.0228 0 0)
(90.417 0 0)
(90.8111 0 0)
(91.2053 0 0)
(91.5994 0 0)
(91.9935 0 0)
(92.3876 0 0)
(92.7817 0 0)
(93.1758 0 0)
(93.5698 0 0)
(93.9639 0 0)
(94.3579 0 0)
(94.7519 0 0)
(95.1459 0 0)
(95.5398 0 0)
(95.9338 0 0)
(96.3277 0 0)
(96.7216 0 0)
(97.1154 0 0)
(97.5093 0 0)
(97.9031 0 0)
(98.2969 0 0)
(98.6906 0 0)
(99.0844 0 0)
(99.4781 0 0)
(99.8717 0 0)
(100.265 0 0)
(100.659 0 0)
(101.053 0 0)
(101.446 0 0)
(101.84 0 0)
(102.233 0 0)
(102.626 0 0)
(103.02 0 0)
(103.413 0 0)
(103.806 0 0)
(104.2 0 0)
(104.593 0 0)
(104.986 0 0)
(105.379 0 0)
(105.772 0 0)
(106.165 0 0)
(106.558 0 0)
(106.951 0 0)
(107.344 0 0)
(107.736 0 0)
(108.129 0 0)
(108.522 0 0)
(108.914 0 0)
(109.307 0 0)
(109.699 0 0)
(110.091 0 0)
(110.484 0 0)
(110.876 0 0)
(111.268 0 0)
(111.66 0 0)
(112.052 0 0)
(112.444 0 0)
(112.836 0 0)
(113.227 0 0)
(113.619 0 0)
(114.01 0 0)
(114.402 0 0)
(114.793 0 0)
(115.184 0 0)
(115.575 0 0)
(115.966 0 0)
(116.357 0 0)
(116.748 0 0)
(117.139 0 0)
(117.529 0 0)
(117.92 0 0)
(118.31 0 0)
(118.7 0 0)
(119.09 0 0)
(119.48 0 0)
(119.87 0 0)
(120.26 0 0)
(120.649 0 0)
(121.038 0 0)
(121.428 0 0)
(121.817 0 0)
(122.205 0 0)
(122.594 0 0)
(122.983 0 0)
(123.371 0 0)
(123.759 0 0)
(124.147 0 0)
(124.535 0 0)
(124.923 0 0)
(125.31 0 0)
(125.697 0 0)
(126.084 0 0)
(126.471 0 0)
(126.858 0 0)
(127.244 0 0)
(127.631 0 0)
(128.016 0 0)
(128.402 0 0)
(128.788 0 0)
(129.173 0 0)
(129.558 0 0)
(129.942 0 0)
(130.327 0 0)
(130.711 0 0)
(131.095 0 0)
(131.478 0 0)
(131.862 0 0)
(132.245 0 0)
(132.627 0 0)
(133.01 0 0)
(133.392 0 0)
(133.773 0 0)
(134.155 0 0)
(134.536 0 0)
(134.916 0 0)
(135.297 0 0)
(135.676 0 0)
(136.056 0 0)
(136.435 0 0)
(136.814 0 0)
(137.192 0 0)
(137.57 0 0)
(137.947 0 0)
(138.324 0 0)
(138.7 0 0)
(139.076 0 0)
(139.452 0 0)
(139.827 0 0)
(140.201 0 0)
(140.575 0 0)
(140.948 0 0)
(141.321 0 0)
(141.693 0 0)
(142.065 0 0)
(142.436 0 0)
(142.806 0 0)
(143.176 0 0)
(143.545 0 0)
(143.913 0 0)
(144.281 0 0)
(144.648 0 0)
(145.014 0 0)
(145.38 0 0)
(145.745 0 0)
(146.109 0 0)
(146.472 0 0)
(146.835 0 0)
(147.196 0 0)
(147.558 0 0)
(147.918 0 0)
(148.279 0 0)
(148.637 0 0)
(148.995 0 0)
(149.351 0 0)
(149.707 0 0)
(150.061 0 0)
(150.414 0 0)
(150.766 0 0)
(151.117 0 0)
(151.467 0 0)
(151.816 0 0)
(152.163 0 0)
(152.51 0 0)
(152.855 0 0)
(153.199 0 0)
(153.542 0 0)
(153.883 0 0)
(154.223 0 0)
(154.562 0 0)
(154.899 0 0)
(155.235 0 0)
(155.569 0 0)
(155.902 0 0)
(156.233 0 0)
(156.563 0 0)
(156.891 0 0)
(157.218 0 0)
(157.543 0 0)
(157.866 0 0)
(158.188 0 0)
(158.508 0 0)
(158.826 0 0)
(159.142 0 0)
(159.456 0 0)
(159.769 0 0)
(160.079 0 0)
(160.388 0 0)
(160.694 0 0)
(160.999 0 0)
(161.302 0 0)
(161.602 0 0)
(161.901 0 0)
(162.197 0 0)
(162.491 0 0)
(162.784 0 0)
(163.073 0 0)
(163.361 0 0)
(163.647 0 0)
(163.93 0 0)
(164.211 0 0)
(164.489 0 0)
(164.766 0 0)
(165.04 0 0)
(165.312 0 0)
(165.581 0 0)
(165.848 0 0)
(166.113 0 0)
(166.376 0 0)
(166.636 0 0)
(166.894 0 0)
(167.149 0 0)
(167.402 0 0)
(167.653 0 0)
(167.902 0 0)
(168.148 0 0)
(168.392 0 0)
(168.634 0 0)
(168.874 0 0)
(169.111 0 0)
(169.347 0 0)
(169.58 0 0)
(169.811 0 0)
(170.04 0 0)
(170.267 0 0)
(170.493 0 0)
(170.716 0 0)
(170.937 0 0)
(171.157 0 0)
(171.374 0 0)
(171.59 0 0)
(171.805 0 0)
(172.017 0 0)
(172.229 0 0)
(172.438 0 0)
(172.646 0 0)
(172.853 0 0)
(173.059 0 0)
(173.263 0 0)
(173.465 0 0)
(173.667 0 0)
(173.868 0 0)
(174.067 0 0)
(174.265 0 0)
(174.463 0 0)
(174.659 0 0)
(174.855 0 0)
(175.05 0 0)
(175.244 0 0)
(175.437 0 0)
(175.63 0 0)
(175.822 0 0)
(176.013 0 0)
(176.204 0 0)
(176.394 0 0)
(176.584 0 0)
(176.773 0 0)
(176.962 0 0)
(177.151 0 0)
(177.339 0 0)
(177.527 0 0)
(177.715 0 0)
(177.902 0 0)
(178.089 0 0)
(178.276 0 0)
(178.463 0 0)
(178.649 0 0)
(178.836 0 0)
(179.022 0 0)
(179.208 0 0)
(179.394 0 0)
(179.58 0 0)
(179.766 0 0)
(179.952 0 0)
(180.137 0 0)
(180.323 0 0)
(180.509 0 0)
(180.694 0 0)
(180.88 0 0)
(181.065 0 0)
(181.251 0 0)
(181.437 0 0)
(181.622 0 0)
(181.808 0 0)
(181.993 0 0)
(182.179 0 0)
(182.365 0 0)
(182.55 0 0)
(182.736 0 0)
(182.922 0 0)
(183.107 0 0)
(183.293 0 0)
(183.479 0 0)
(183.665 0 0)
(183.851 0 0)
(184.037 0 0)
(184.222 0 0)
(184.408 0 0)
(184.594 0 0)
(184.781 0 0)
(184.967 0 0)
(185.153 0 0)
(185.339 0 0)
(185.525 0 0)
(185.711 0 0)
(185.898 0 0)
(186.084 0 0)
(186.271 0 0)
(186.457 0 0)
(186.644 0 0)
(186.83 0 0)
(187.017 0 0)
(187.203 0 0)
(187.39 0 0)
(187.577 0 0)
(187.763 0 0)
(187.95 0 0)
(188.137 0 0)
(188.324 0 0)
(188.511 0 0)
(188.698 0 0)
(188.885 0 0)
(189.072 0 0)
(189.259 0 0)
(189.446 0 0)
(189.634 0 0)
(189.821 0 0)
(190.008 0 0)
(190.196 0 0)
(190.383 0 0)
(190.571 0 0)
(190.758 0 0)
(190.946 0 0)
(191.133 0 0)
(191.321 0 0)
(191.509 0 0)
(191.696 0 0)
(191.884 0 0)
(192.072 0 0)
(192.26 0 0)
(192.448 0 0)
(192.636 0 0)
(192.824 0 0)
(193.012 0 0)
(193.2 0 0)
(193.388 0 0)
(193.577 0 0)
(193.765 0 0)
(193.953 0 0)
(194.142 0 0)
(194.33 0 0)
(194.519 0 0)
(194.707 0 0)
(194.896 0 0)
(195.084 0 0)
(195.273 0 0)
(195.462 0 0)
(195.651 0 0)
(195.839 0 0)
(196.028 0 0)
(196.217 0 0)
(196.406 0 0)
(196.595 0 0)
(196.784 0 0)
(196.973 0 0)
(197.162 0 0)
(197.352 0 0)
(197.541 0 0)
(197.73 0 0)
(197.92 0 0)
(198.109 0 0)
(198.298 0 0)
(198.488 0 0)
(198.677 0 0)
(198.867 0 0)
(199.057 0 0)
(199.246 0 0)
(199.436 0 0)
(199.626 0 0)
(199.816 0 0)
(200.005 0 0)
(200.195 0 0)
(200.385 0 0)
(200.575 0 0)
(200.765 0 0)
(200.955 0 0)
(201.145 0 0)
(201.336 0 0)
(201.526 0 0)
(201.716 0 0)
(201.906 0 0)
(202.097 0 0)
(202.287 0 0)
(202.478 0 0)
(202.668 0 0)
(202.859 0 0)
(203.049 0 0)
(203.24 0 0)
(203.43 0 0)
(203.621 0 0)
(203.812 0 0)
(204.003 0 0)
(204.194 0 0)
(204.384 0 0)
(204.575 0 0)
(204.766 0 0)
(204.957 0 0)
(205.148 0 0)
(205.34 0 0)
(205.531 0 0)
(205.722 0 0)
(205.913 0 0)
(206.104 0 0)
(206.296 0 0)
(206.487 0 0)
(206.678 0 0)
(206.87 0 0)
(207.061 0 0)
(207.253 0 0)
(207.445 0 0)
(207.636 0 0)
(207.828 0 0)
(208.02 0 0)
(208.211 0 0)
(208.403 0 0)
(208.595 0 0)
(208.787 0 0)
(208.979 0 0)
(209.171 0 0)
(209.363 0 0)
(209.555 0 0)
(209.747 0 0)
(209.939 0 0)
(210.131 0 0)
(210.323 0 0)
(210.516 0 0)
(210.708 0 0)
(210.9 0 0)
(211.093 0 0)
(211.285 0 0)
(211.478 0 0)
(211.67 0 0)
(211.863 0 0)
(212.055 0 0)
(212.248 0 0)
(212.441 0 0)
(212.633 0 0)
(212.826 0 0)
(213.019 0 0)
(213.212 0 0)
(213.405 0 0)
(213.597 0 0)
(213.79 0 0)
(213.983 0 0)
(214.176 0 0)
(214.37 0 0)
(214.563 0 0)
(214.756 0 0)
(214.949 0 0)
(215.142 0 0)
(215.336 0 0)
(215.529 0 0)
(215.722 0 0)
(215.916 0 0)
(216.109 0 0)
(216.303 0 0)
(216.496 0 0)
(216.69 0 0)
(216.883 0 0)
(217.077 0 0)
(217.271 0 0)
(217.464 0 0)
(217.658 0 0)
(217.852 0 0)
(218.046 0 0)
(218.24 0 0)
(218.433 0 0)
(218.627 0 0)
(218.821 0 0)
(219.015 0 0)
(219.209 0 0)
(219.404 0 0)
(219.598 0 0)
(219.792 0 0)
(219.986 0 0)
(220.18 0 0)
(220.375 0 0)
(220.569 0 0)
(220.763 0 0)
(220.958 0 0)
(221.152 0 0)
(221.347 0 0)
(221.541 0 0)
(221.736 0 0)
(221.93 0 0)
(222.125 0 0)
(222.32 0 0)
(222.514 0 0)
(222.709 0 0)
(222.904 0 0)
(223.099 0 0)
(223.293 0 0)
(223.488 0 0)
(223.683 0 0)
(223.878 0 0)
(224.073 0 0)
(224.268 0 0)
(224.463 0 0)
(224.658 0 0)
(224.853 0 0)
(225.048 0 0)
(225.244 0 0)
(225.439 0 0)
(225.634 0 0)
(225.829 0 0)
(226.025 0 0)
(226.22 0 0)
(226.416 0 0)
(226.611 0 0)
(226.806 0 0)
(227.002 0 0)
(227.197 0 0)
(227.393 0 0)
(227.589 0 0)
(227.784 0 0)
(227.98 0 0)
(228.176 0 0)
(228.371 0 0)
(228.567 0 0)
(228.763 0 0)
(228.959 0 0)
(229.154 0 0)
(229.35 0 0)
(229.546 0 0)
(229.742 0 0)
(229.938 0 0)
(230.134 0 0)
(230.33 0 0)
(230.526 0 0)
(230.722 0 0)
(230.919 0 0)
(231.115 0 0)
(231.311 0 0)
(231.507 0 0)
(231.703 0 0)
(231.9 0 0)
(232.096 0 0)
(232.292 0 0)
(232.489 0 0)
(232.685 0 0)
(232.881 0 0)
(233.078 0 0)
(233.274 0 0)
(233.471 0 0)
(233.667 0 0)
(233.864 0 0)
(234.061 0 0)
(234.257 0 0)
(234.454 0 0)
(234.651 0 0)
(234.847 0 0)
(235.044 0 0)
(235.241 0 0)
(235.438 0 0)
(235.634 0 0)
(235.831 0 0)
(236.028 0 0)
(236.225 0 0)
(236.422 0 0)
(236.619 0 0)
(236.816 0 0)
(237.013 0 0)
(237.21 0 0)
(237.407 0 0)
(237.604 0 0)
(237.801 0 0)
(237.998 0 0)
(238.195 0 0)
(238.392 0 0)
(238.589 0 0)
(238.787 0 0)
(238.984 0 0)
(239.181 0 0)
(239.378 0 0)
(239.575 0 0)
(239.773 0 0)
(239.97 0 0)
(240.167 0 0)
(240.365 0 0)
(240.562 0 0)
(240.759 0 0)
(240.957 0 0)
(241.154 0 0)
(241.352 0 0)
(241.549 0 0)
(241.746 0 0)
(241.944 0 0)
(242.141 0 0)
(242.339 0 0)
(242.536 0 0)
(242.733 0 0)
(242.931 0 0)
(243.128 0 0)
(243.325 0 0)
(243.523 0 0)
(243.72 0 0)
(243.918 0 0)
(244.115 0 0)
(244.313 0 0)
(244.51 0 0)
(244.708 0 0)
(244.906 0 0)
(245.104 0 0)
(245.301 0 0)
(245.499 0 0)
(245.697 0 0)
(245.895 0 0)
(246.093 0 0)
(246.291 0 0)
(246.489 0 0)
(246.687 0 0)
(246.884 0 0)
(247.082 0 0)
(247.28 0 0)
(247.478 0 0)
(247.676 0 0)
(247.874 0 0)
(248.072 0 0)
(248.27 0 0)
(248.468 0 0)
(248.666 0 0)
(248.863 0 0)
(249.061 0 0)
(249.259 0 0)
(249.457 0 0)
(249.655 0 0)
(249.852 0 0)
(250.05 0 0)
(250.248 0 0)
(250.445 0 0)
(250.643 0 0)
(250.84 0 0)
(251.037 0 0)
(251.234 0 0)
(251.431 0 0)
(251.628 0 0)
(251.825 0 0)
(252.022 0 0)
(252.218 0 0)
(252.414 0 0)
(252.61 0 0)
(252.806 0 0)
(253.001 0 0)
(253.196 0 0)
(253.391 0 0)
(253.585 0 0)
(253.779 0 0)
(253.973 0 0)
(254.166 0 0)
(254.359 0 0)
(254.551 0 0)
(254.742 0 0)
(254.933 0 0)
(255.124 0 0)
(255.313 0 0)
(255.502 0 0)
(255.69 0 0)
(255.878 0 0)
(256.064 0 0)
(256.25 0 0)
(256.435 0 0)
(256.618 0 0)
(256.801 0 0)
(256.983 0 0)
(257.163 0 0)
(257.343 0 0)
(257.521 0 0)
(257.698 0 0)
(257.874 0 0)
(258.049 0 0)
(258.223 0 0)
(258.395 0 0)
(258.567 0 0)
(258.737 0 0)
(258.906 0 0)
(259.074 0 0)
(259.24 0 0)
(259.406 0 0)
(259.571 0 0)
(259.734 0 0)
(259.897 0 0)
(260.059 0 0)
(260.22 0 0)
(260.38 0 0)
(260.54 0 0)
(260.699 0 0)
(260.857 0 0)
(261.016 0 0)
(261.174 0 0)
(261.331 0 0)
(261.489 0 0)
(261.647 0 0)
(261.804 0 0)
(261.962 0 0)
(262.121 0 0)
(262.279 0 0)
(262.439 0 0)
(262.599 0 0)
(262.758 0 0)
(262.921 0 0)
(263.082 0 0)
(263.244 0 0)
(263.407 0 0)
(263.571 0 0)
(263.736 0 0)
(263.903 0 0)
(264.07 0 0)
(264.238 0 0)
(264.407 0 0)
(264.578 0 0)
(264.749 0 0)
(264.921 0 0)
(265.095 0 0)
(265.269 0 0)
(265.444 0 0)
(265.621 0 0)
(265.798 0 0)
(265.976 0 0)
(266.155 0 0)
(266.334 0 0)
(266.515 0 0)
(266.696 0 0)
(266.877 0 0)
(267.06 0 0)
(267.243 0 0)
(267.426 0 0)
(267.61 0 0)
(267.794 0 0)
(267.979 0 0)
(268.164 0 0)
(268.349 0 0)
(268.535 0 0)
(268.721 0 0)
(268.907 0 0)
(269.093 0 0)
(269.279 0 0)
(269.466 0 0)
(269.652 0 0)
(269.839 0 0)
(270.026 0 0)
(270.213 0 0)
(270.399 0 0)
(270.586 0 0)
(270.773 0 0)
(270.96 0 0)
(271.146 0 0)
(271.333 0 0)
(271.519 0 0)
(271.706 0 0)
(271.892 0 0)
(272.078 0 0)
(272.264 0 0)
(272.45 0 0)
(272.636 0 0)
(272.822 0 0)
(273.007 0 0)
(273.193 0 0)
(273.378 0 0)
(273.563 0 0)
(273.748 0 0)
(273.933 0 0)
(274.117 0 0)
(274.302 0 0)
(274.486 0 0)
(274.67 0 0)
(274.853 0 0)
(275.037 0 0)
(275.22 0 0)
(275.402 0 0)
(275.585 0 0)
(275.767 0 0)
(275.948 0 0)
(276.13 0 0)
(276.311 0 0)
(276.491 0 0)
(276.671 0 0)
(276.85 0 0)
(277.028 0 0)
(277.206 0 0)
(277.383 0 0)
(277.558 0 0)
(277.732 0 0)
(277.904 0 0)
(278.074 0 0)
(278.241 0 0)
(278.405 0 0)
(278.563 0 0)
(278.717 0 0)
(278.863 0 0)
(279.002 0 0)
(279.132 0 0)
(279.251 0 0)
(279.359 0 0)
(279.454 0 0)
(279.537 0 0)
(279.608 0 0)
(279.826 0 0)
)
;

boundaryField
{
    sides
    {
        type            zeroGradient;
    }
    empty
    {
        type            empty;
    }
}


// ************************************************************************* //
