/*--------------------------------*- C++ -*----------------------------------*\
  =========                 |
  \\      /  F ield         | OpenFOAM: The Open Source CFD Toolbox
   \\    /   O peration     | Website:  https://openfoam.org
    \\  /    A nd           | Version:  9
     \\/     M anipulation  |
\*---------------------------------------------------------------------------*/
FoamFile
{
    format      ascii;
    class       surfaceScalarField;
    location    "0.045";
    object      phi;
}
// * * * * * * * * * * * * * * * * * * * * * * * * * * * * * * * * * * * * * //

dimensions      [1 0 -1 0 0 0 0];

internalField   nonuniform List<scalar> 
999
(
14.7228
14.9171
15.1114
15.3062
15.5014
15.6971
15.8933
16.0899
16.2866
16.4833
16.6796
16.8754
17.0704
17.2649
17.4587
17.652
17.8449
18.0374
18.2297
18.4218
18.6137
18.805
18.9953
19.1841
19.3709
19.5557
19.7388
19.9215
20.1041
20.2869
20.4697
20.6525
20.8351
21.0178
21.2005
21.3831
21.5656
21.748
21.9303
22.1125
22.2947
22.4769
22.6591
22.8412
23.0233
23.2053
23.3872
23.5691
23.751
23.9328
24.1146
24.2964
24.4781
24.6598
24.8415
25.0233
25.2051
25.3869
25.5687
25.7506
25.9325
26.1144
26.2964
26.4783
26.6602
26.8422
27.0241
27.206
27.388
27.5698
27.7517
27.9335
28.1153
28.297
28.4788
28.6605
28.8422
29.0239
29.2056
29.3873
29.5689
29.7505
29.9319
30.1132
30.2943
30.4755
30.6567
30.8381
31.0196
31.2013
31.3831
31.5647
31.7462
31.9276
32.109
32.2905
32.472
32.6537
32.8356
33.0178
33.2002
33.3825
33.5648
33.7469
33.9287
34.1103
34.2915
34.4724
34.6528
34.8326
35.0118
35.1902
35.3675
35.5434
35.7178
35.8907
36.0624
36.2336
36.4051
36.5778
36.7518
36.9265
37.1005
37.2749
37.4491
37.6239
37.7979
37.9733
38.1488
38.3253
38.5034
38.683
38.8631
39.0406
39.2143
39.3864
39.5602
39.7347
39.8727
39.9637
40.2464
40.4569
40.6326
40.8094
40.9883
41.1691
41.3499
41.4929
41.4485
41.5868
41.9214
42.0262
42.0043
42.4095
42.6318
42.7506
42.7626
42.91
43.1027
43.1464
43.3661
43.5701
43.6051
43.7582
44.031
44.0937
44.0935
44.5248
44.6824
44.413
44.7164
45.4441
45.1312
44.6283
45.9044
46.6624
47.0085
45.6623
45.3063
45.9441
47.1542
46.8875
45.9633
46.4538
47.727
48.0962
48.4421
48.8655
48.4923
47.4364
47.3022
47.9014
48.292
47.8839
47.7828
49.0618
49.3685
49.5819
49.7933
50.0197
50.2737
50.5783
50.9748
51.4734
49.5943
48.9195
49.0771
50.9263
51.1206
49.9368
49.721
50.9698
51.3034
51.5036
51.6914
51.8772
52.0616
52.2453
52.4277
52.6086
52.7893
52.9709
53.1539
53.3387
53.5279
53.7256
53.9344
54.1603
54.4123
54.7072
55.0702
55.5473
54.3061
53.1449
52.6607
53.926
55.2349
55.538
55.799
56.0948
56.462
56.9379
55.3783
54.4046
53.8787
55.0268
56.952
57.2598
55.3285
54.6894
56.4677
57.4875
56.7924
55.5359
56.2008
57.8467
57.6192
56.2408
56.19
58.1098
58.4498
58.6552
58.8558
59.0691
59.3035
59.5688
59.8833
60.293
60.2164
58.4844
58.3028
58.2077
57.3843
59.8809
60.9928
60.9905
58.9954
58.3552
58.9195
61.2261
61.5463
59.7799
59.138
60.2358
61.4412
61.6625
61.8244
61.9815
62.1328
62.2809
62.435
62.607
62.8052
63.0247
63.2586
63.5073
63.7861
64.1193
64.3788
62.5542
62.1673
62.1257
62.7278
62.385
61.9318
64.6097
64.9494
62.9986
62.3464
62.0633
65.2133
65.8738
64.8072
63.2007
62.5942
65.6222
66.3709
65.5025
63.7924
63.4535
66.3498
66.8936
65.3466
64.2151
65.2292
67.037
66.9072
65.1748
64.9064
67.1988
67.5197
66.1164
65.3904
67.3863
67.9764
67.1657
66.0526
67.3763
68.6137
68.1095
66.6967
67.3814
69.3126
69.1543
67.3792
67.2854
69.9485
70.3061
68.2969
67.4451
69.9673
71.1141
70.4081
68.5277
68.1955
71.3534
71.9833
70.3324
68.9813
69.6341
72.2931
72.612
70.2113
69.3717
71.7192
73.1643
72.6217
70.5577
69.8058
73.0664
74.1092
73.3995
71.2533
70.5138
73.4711
74.2993
73.2497
72.3662
72.398
73.0402
73.0937
73.0401
72.6779
73.3338
73.6229
73.6292
73.3381
73.4913
74.147
74.1761
73.9193
73.9745
74.6928
74.7294
74.4778
74.5103
75.2441
75.2823
75.0305
75.0601
75.8028
75.8417
75.5915
75.6047
76.3631
76.404
76.1592
76.148
76.9277
76.9725
76.7462
76.6772
77.4934
77.5456
77.3423
77.2052
78.0607
78.1227
77.9489
77.7356
78.6297
78.7068
78.5703
78.2743
79.1985
79.2939
79.2014
78.8374
79.7237
79.8838
79.8317
79.4361
80.1685
80.4759
80.4575
80.0716
80.5414
81.0667
81.0734
80.7482
80.91
81.6547
81.6888
81.4614
81.3176
82.2378
82.3074
82.1852
81.8243
82.7937
82.9274
82.8872
82.4712
83.0907
83.5441
83.5499
83.239
83.2905
84.1441
84.1983
84.0634
83.6927
84.7057
84.8436
84.8242
84.4186
84.7854
85.468
85.5017
85.3414
84.9774
86.0483
86.1789
86.1768
85.8396
85.8257
86.8676
86.9742
86.9939
86.7033
86.2937
88.0194
88.3292
88.5118
88.6355
87.7064
86.9304
90.4658
91.0387
88.3731
87.2486
89.6991
91.1803
90.2155
88.1917
89.194
91.7845
91.3268
88.8721
89.0038
92.3848
92.5671
89.7079
88.9227
92.7568
93.4974
91.242
89.6048
91.6219
94.0229
93.3059
90.7714
91.0513
93.3567
93.1439
92.0117
91.8591
92.5767
92.561
92.3552
92.0025
93.0405
93.087
92.9639
92.4462
93.4098
93.7101
93.6517
93.2879
93.2312
94.3192
94.3421
94.2193
93.6625
94.5164
95.024
94.9825
94.7492
94.24
95.6461
95.7731
95.7176
95.4289
94.8697
96.4856
96.663
96.6858
96.6162
96.2032
95.6619
97.7003
97.9184
97.9656
97.9575
97.834
97.1795
96.8756
98.5826
98.5375
97.5763
97.0297
99.3206
99.3941
98.7826
97.5979
98.7805
99.413
99.244
98.5799
98.3135
99.6958
99.5981
99.1334
98.4687
99.9498
99.9291
99.5695
98.7728
100.269
100.365
100.042
99.1904
100.607
100.884
100.602
99.7118
100.527
101.594
101.486
101.125
100.059
101.206
102.482
102.482
102.293
101.951
101.251
100.424
103.113
103.298
103.164
102.909
102.573
102.015
100.883
103.008
103.124
102.674
101.5
102.216
103.556
103.292
102.701
101.366
103.218
103.734
103.33
102.418
101.66
103.974
103.841
103.287
101.969
102.895
104.199
103.831
102.983
101.868
104.359
104.269
103.695
102.336
103.267
104.654
104.304
103.561
102.128
104.626
104.825
104.379
103.507
102.302
105.008
104.999
104.536
103.677
102.459
105.179
105.179
104.72
103.851
102.671
105.353
105.337
104.865
103.913
103.001
105.554
105.47
104.965
103.821
103.651
105.794
105.596
105.036
103.678
104.742
106.019
105.705
105.025
103.665
105.98
106.195
105.784
104.864
104.131
106.416
106.311
105.817
104.565
105.351
106.681
106.402
105.744
104.533
106.784
106.868
106.464
105.413
105.413
107.192
107.01
106.465
105.228
107.197
107.529
107.204
106.338
105.85
107.906
107.84
107.433
106.277
107.218
108.389
108.2
107.689
106.558
108.572
108.862
108.612
107.938
107.12
109.269
109.325
109.037
108.175
108.012
109.818
109.776
109.446
108.408
109.208
110.345
110.22
109.793
108.778
110.556
110.861
110.667
110.043
109.426
111.306
111.357
111.125
110.294
110.474
111.902
111.868
111.587
110.658
111.816
112.507
112.425
112.051
111.239
112.945
113.163
113.104
112.726
112.145
113.77
113.933
113.96
113.708
113.184
114.716
114.955
115.027
115.028
114.407
115.1
116.039
116.199
116.301
116.029
115.609
117.103
117.389
117.567
117.515
116.972
117.302
118.537
118.751
118.935
118.9
118.445
119.646
120.129
120.365
120.416
119.843
119.883
121.325
121.585
122.026
121.797
121.829
122.941
123.46
123.153
122.914
122.373
123.76
124.5
124.984
124.489
124.603
125.266
126.102
126.33
125.922
125.799
126.766
128.079
128.312
126.894
126.836
128.532
129.579
130.117
128.081
127.185
130.192
131.978
132.142
128.873
127.897
131.788
133.98
134.387
130.217
129.059
131.221
135.401
136.576
133.432
130.853
130.194
136.092
137.688
138.499
133.499
132.103
132.385
138.446
139.98
140.742
135.112
133.702
134.764
140.886
142.475
138.66
135.806
134.648
140.723
143.579
145.121
140.192
137.512
136.523
143.44
145.93
146.268
140.003
138.639
139.573
146.347
148.31
146.993
141.35
140.075
142.212
148.514
150.465
146.2
142.665
141.458
145.887
150.786
152.395
145.93
144.203
143.036
149.171
152.93
154.06
147.32
146.007
144.971
151.499
154.398
156.123
155.733
148.841
147.47
148.559
155.838
157.645
151.323
149.397
151.693
157.767
158.063
151.749
150.432
156.262
159.981
157.54
152.685
152.165
159.823
161.984
156.453
153.74
154.88
162.027
163.415
156.432
154.892
158.099
164.078
164.254
157.59
156.153
161.393
166.086
164.925
158.865
157.557
164.344
167.981
165.46
160.185
159.195
167.14
169.864
165.835
161.547
161.057
169.383
171.729
166.322
162.943
162.968
171.263
173.507
167.183
164.389
164.715
173.021
175.191
168.543
165.883
166.108
174.587
176.913
170.376
167.453
167.336
176.055
178.452
172.897
169.162
168.252
177.123
179.946
176.045
170.914
169.69
177.274
181.168
179.413
172.802
171.209
177.222
182.555
182.022
174.636
173.041
176.869
183.748
184.621
176.611
174.861
176.271
184.877
187.075
179.311
176.776
176.32
185.729
188.405
184.272
179
177.701
183.683
189.191
189.933
181.559
179.399
181.987
190.403
191.42
186.063
181.58
179.072
)
;

boundaryField
{
    sides
    {
        type            calculated;
        value           nonuniform List<scalar> 2(187.028 -14.5286);
    }
    empty
    {
        type            empty;
        value           nonuniform List<scalar> 0();
    }
}


// ************************************************************************* //
