/*--------------------------------*- C++ -*----------------------------------*\
  =========                 |
  \\      /  F ield         | OpenFOAM: The Open Source CFD Toolbox
   \\    /   O peration     | Website:  https://openfoam.org
    \\  /    A nd           | Version:  9
     \\/     M anipulation  |
\*---------------------------------------------------------------------------*/
FoamFile
{
    format      ascii;
    class       volScalarField;
    location    "0.045";
    object      rho;
}
// * * * * * * * * * * * * * * * * * * * * * * * * * * * * * * * * * * * * * //

dimensions      [1 -3 0 0 0 0 0];

internalField   nonuniform List<scalar> 
1000
(
0.1948
0.194784
0.194746
0.19472
0.194701
0.19468
0.194658
0.194635
0.194612
0.194589
0.194568
0.194547
0.194526
0.194506
0.194487
0.194468
0.194449
0.19443
0.194412
0.194393
0.194375
0.194357
0.19434
0.194324
0.194309
0.194298
0.194288
0.19428
0.194272
0.194264
0.194256
0.194247
0.194239
0.194231
0.194223
0.194214
0.194206
0.194198
0.19419
0.194182
0.194174
0.194166
0.194159
0.194152
0.194145
0.194139
0.194132
0.194126
0.19412
0.194114
0.194108
0.194101
0.194094
0.194088
0.194082
0.194076
0.194071
0.194065
0.19406
0.194056
0.194052
0.194048
0.194045
0.194042
0.19404
0.194038
0.194036
0.194035
0.194033
0.194032
0.194032
0.194031
0.19403
0.19403
0.19403
0.19403
0.19403
0.194029
0.194029
0.194029
0.19403
0.19403
0.19403
0.19403
0.194031
0.194032
0.194033
0.194034
0.194034
0.194035
0.194035
0.194036
0.194036
0.194037
0.194038
0.194039
0.19404
0.194041
0.194041
0.194042
0.194042
0.194042
0.194042
0.194042
0.194043
0.194043
0.194045
0.194047
0.194049
0.194052
0.194055
0.194059
0.194065
0.194072
0.19408
0.194091
0.194102
0.194115
0.194128
0.194139
0.19415
0.194159
0.194168
0.194178
0.194187
0.194197
0.194206
0.194217
0.194227
0.194235
0.194246
0.194257
0.194269
0.194282
0.194291
0.194298
0.194305
0.194316
0.194324
0.194299
0.194306
0.194365
0.194386
0.194404
0.194425
0.194449
0.194475
0.194499
0.194463
0.194412
0.194478
0.194529
0.194481
0.194499
0.194622
0.194648
0.194627
0.194606
0.194655
0.194661
0.194655
0.194736
0.194745
0.194723
0.194804
0.194838
0.194796
0.194841
0.194958
0.194909
0.194813
0.19508
0.195168
0.194865
0.194924
0.195471
0.195677
0.195477
0.19499
0.194906
0.195456
0.195647
0.195235
0.195063
0.195583
0.195855
0.195987
0.196136
0.196235
0.195705
0.195482
0.195497
0.19577
0.195769
0.195548
0.195817
0.196145
0.196238
0.196313
0.196391
0.196478
0.196583
0.196717
0.196906
0.196722
0.195983
0.195796
0.196358
0.196771
0.196521
0.196192
0.196364
0.196759
0.196874
0.196966
0.197055
0.197145
0.197234
0.197323
0.197411
0.197499
0.197587
0.197674
0.197763
0.197855
0.19795
0.198047
0.198151
0.198266
0.198395
0.198547
0.19874
0.198757
0.198013
0.19777
0.197768
0.198602
0.198869
0.199003
0.19914
0.199301
0.199504
0.19946
0.198719
0.198503
0.19845
0.199438
0.199838
0.199558
0.198996
0.19908
0.199929
0.200063
0.199531
0.199362
0.200106
0.200396
0.199995
0.199705
0.200231
0.200693
0.200832
0.20095
0.201069
0.201194
0.20133
0.201478
0.201647
0.201824
0.201322
0.200993
0.200994
0.200887
0.20108
0.202117
0.202396
0.201946
0.201481
0.201347
0.202252
0.202731
0.20253
0.202009
0.20199
0.20274
0.202981
0.203098
0.203207
0.203312
0.203412
0.203509
0.203615
0.203739
0.203874
0.204015
0.204163
0.204319
0.204491
0.204682
0.20445
0.203969
0.2039
0.204103
0.204233
0.204012
0.204551
0.205226
0.204964
0.204444
0.204233
0.204919
0.20573
0.205829
0.205122
0.204797
0.205203
0.206146
0.206283
0.205618
0.205284
0.20588
0.206625
0.206593
0.205944
0.205843
0.20673
0.207054
0.206664
0.20629
0.206785
0.207353
0.207261
0.206799
0.206979
0.207695
0.207755
0.207306
0.207278
0.208072
0.208252
0.207812
0.207621
0.208426
0.20877
0.208368
0.207998
0.208664
0.20927
0.209066
0.208476
0.208644
0.209654
0.209842
0.209207
0.208841
0.20948
0.210265
0.210251
0.209519
0.209324
0.210284
0.210809
0.210491
0.209856
0.209955
0.211023
0.211262
0.210634
0.210206
0.210535
0.211612
0.211814
0.211098
0.210673
0.210954
0.211933
0.211984
0.211488
0.211384
0.211616
0.211759
0.211801
0.211757
0.21179
0.212088
0.212163
0.212165
0.212111
0.21239
0.212525
0.212537
0.212475
0.212739
0.212892
0.212907
0.212842
0.213103
0.21326
0.213276
0.213211
0.213472
0.213632
0.213649
0.213583
0.213842
0.214006
0.214025
0.213957
0.214213
0.214383
0.214406
0.214336
0.214579
0.214763
0.214791
0.21472
0.214943
0.215146
0.21518
0.215109
0.215304
0.215531
0.215573
0.215507
0.215659
0.215918
0.215969
0.215913
0.216011
0.216306
0.216367
0.216328
0.216366
0.21669
0.216767
0.216748
0.216731
0.217063
0.217167
0.217172
0.217114
0.217419
0.21757
0.217596
0.21752
0.217757
0.217973
0.218018
0.217953
0.218079
0.218373
0.218435
0.218405
0.218411
0.218757
0.218852
0.218864
0.218794
0.219091
0.219269
0.219312
0.219244
0.219379
0.219679
0.219745
0.219733
0.219693
0.22004
0.220173
0.220213
0.220139
0.220295
0.220601
0.220671
0.220684
0.2206
0.22092
0.221144
0.22122
0.221255
0.22113
0.221418
0.221871
0.222016
0.222141
0.222144
0.221775
0.222306
0.223167
0.222959
0.222212
0.222294
0.223359
0.223543
0.222897
0.22267
0.223667
0.224064
0.223479
0.223066
0.223943
0.224593
0.224184
0.223548
0.224039
0.225047
0.224996
0.22417
0.224114
0.225341
0.225681
0.224981
0.224623
0.225372
0.225731
0.22548
0.22532
0.225534
0.225714
0.225758
0.225701
0.225897
0.226189
0.226258
0.226228
0.2263
0.226714
0.226819
0.226852
0.226789
0.227159
0.227408
0.227486
0.227473
0.22751
0.227984
0.228126
0.228191
0.228133
0.228359
0.228774
0.228909
0.228987
0.228923
0.229192
0.229675
0.229838
0.229967
0.230042
0.229946
0.23037
0.230903
0.231077
0.23122
0.231336
0.231374
0.231245
0.231755
0.23213
0.232137
0.231914
0.232475
0.232993
0.233057
0.232839
0.232883
0.233536
0.233709
0.233742
0.233635
0.234095
0.234425
0.234493
0.234408
0.234704
0.235155
0.23526
0.235209
0.235417
0.235966
0.236098
0.236069
0.236224
0.236849
0.237018
0.237033
0.237047
0.237791
0.238086
0.23822
0.238211
0.23824
0.239131
0.239483
0.239679
0.239818
0.239898
0.239784
0.240377
0.241133
0.241375
0.241547
0.241688
0.241794
0.24173
0.242034
0.242831
0.243024
0.243042
0.243027
0.243922
0.244285
0.244421
0.244376
0.244549
0.245481
0.245742
0.245834
0.245719
0.246407
0.247068
0.247251
0.247263
0.247272
0.248271
0.24864
0.248761
0.248654
0.249229
0.250014
0.250215
0.250232
0.250241
0.251283
0.251678
0.25182
0.251744
0.252101
0.253085
0.253346
0.253463
0.253349
0.253937
0.254802
0.255039
0.255155
0.255043
0.25562
0.256497
0.256733
0.256845
0.256728
0.257322
0.258173
0.258402
0.258499
0.258373
0.259084
0.259829
0.260035
0.260097
0.259989
0.260903
0.261458
0.261628
0.261626
0.261645
0.262672
0.263035
0.263167
0.263082
0.263401
0.264323
0.264554
0.264638
0.264507
0.265197
0.265836
0.266006
0.26601
0.265991
0.26693
0.267284
0.267401
0.267298
0.267659
0.268469
0.268665
0.268706
0.268607
0.269417
0.269865
0.269996
0.269924
0.270151
0.271001
0.271219
0.27129
0.271166
0.271839
0.272388
0.272544
0.272535
0.272537
0.273413
0.273728
0.273846
0.27376
0.274016
0.274818
0.275028
0.275115
0.274993
0.275486
0.276114
0.276283
0.276328
0.276216
0.276898
0.277345
0.277482
0.277472
0.277455
0.278233
0.278518
0.278623
0.27854
0.278744
0.279453
0.279636
0.279704
0.279581
0.280048
0.280563
0.280702
0.280719
0.280633
0.281274
0.281606
0.281715
0.28167
0.281722
0.282393
0.282593
0.282675
0.282581
0.282811
0.28337
0.28351
0.283575
0.283464
0.283774
0.28419
0.284281
0.28433
0.284215
0.284417
0.284814
0.284925
0.284981
0.284919
0.28488
0.285357
0.285485
0.285565
0.285596
0.285455
0.285646
0.286017
0.286081
0.286185
0.286159
0.286014
0.286404
0.286564
0.28666
0.2867
0.286525
0.28658
0.286879
0.287044
0.287123
0.28708
0.286965
0.287315
0.287481
0.287453
0.287454
0.287182
0.287299
0.287514
0.287908
0.287877
0.287794
0.287808
0.288182
0.28816
0.28807
0.287713
0.287852
0.288449
0.288516
0.288458
0.28797
0.288071
0.288837
0.288995
0.28882
0.288248
0.288415
0.289307
0.289378
0.28923
0.288625
0.288754
0.289877
0.290191
0.289669
0.28895
0.289133
0.290475
0.29091
0.290333
0.289375
0.289237
0.290719
0.291433
0.291401
0.290059
0.289575
0.290285
0.291688
0.292124
0.291572
0.290331
0.289966
0.291198
0.292355
0.292788
0.292068
0.290759
0.290424
0.291933
0.29301
0.292947
0.291374
0.290823
0.291195
0.293041
0.293608
0.293394
0.291635
0.291077
0.291671
0.293442
0.29394
0.292742
0.291484
0.291113
0.292615
0.293789
0.294114
0.292422
0.291451
0.291183
0.292938
0.29395
0.2939
0.291992
0.291352
0.29134
0.293331
0.29409
0.293494
0.291784
0.291289
0.291545
0.29355
0.294171
0.293239
0.291747
0.291283
0.291677
0.293498
0.294
0.29437
0.292745
0.291508
0.291117
0.29266
0.293863
0.293343
0.291641
0.29134
0.292994
0.293846
0.292608
0.291398
0.2916
0.293443
0.293741
0.292003
0.291212
0.292091
0.293643
0.293392
0.291577
0.291119
0.292611
0.293748
0.292896
0.291356
0.291153
0.292984
0.293774
0.292464
0.291213
0.291271
0.293224
0.293745
0.292123
0.291103
0.291422
0.293354
0.293656
0.291856
0.291007
0.291661
0.293469
0.293531
0.291628
0.290933
0.291905
0.293538
0.29338
0.291455
0.290873
0.292091
0.293573
0.293242
0.29134
0.290803
0.292128
0.293571
0.293174
0.291248
0.290729
0.292058
0.293499
0.293169
0.291229
0.290639
0.291787
0.293422
0.293272
0.291219
0.290588
0.291416
0.293238
0.293391
0.291397
0.290542
0.290937
0.293054
0.293435
0.291559
0.290583
0.290646
0.292738
0.293404
0.291844
0.290558
0.290386
0.292461
0.293351
0.292155
0.290628
0.290236
0.291991
0.29326
0.292726
0.290899
0.290229
0.291198
0.293111
0.29327
0.291316
0.290348
0.290497
0.292905
0.293389
0.291827
0.290838
0.290198
0.291754
0.293616
0.293035
0.290267
0.290613
0.292323
)
;

boundaryField
{
    sides
    {
        type            calculated;
        value           nonuniform List<scalar> 2(0.292323 0.1948);
    }
    empty
    {
        type            empty;
    }
}


// ************************************************************************* //
