/*--------------------------------*- C++ -*----------------------------------*\
  =========                 |
  \\      /  F ield         | OpenFOAM: The Open Source CFD Toolbox
   \\    /   O peration     | Website:  https://openfoam.org
    \\  /    A nd           | Version:  9
     \\/     M anipulation  |
\*---------------------------------------------------------------------------*/
FoamFile
{
    format      ascii;
    class       volScalarField;
    location    "0.039";
    object      rho;
}
// * * * * * * * * * * * * * * * * * * * * * * * * * * * * * * * * * * * * * //

dimensions      [1 -3 0 0 0 0 0];

internalField   nonuniform List<scalar> 
1000
(
0.577395
0.576809
0.576455
0.576071
0.575695
0.575318
0.574942
0.574565
0.574189
0.573812
0.573436
0.57306
0.572684
0.572309
0.571933
0.571558
0.571183
0.570808
0.570433
0.570059
0.569685
0.569311
0.568937
0.568563
0.56819
0.567816
0.567443
0.56707
0.566698
0.566325
0.565953
0.56558
0.565208
0.564837
0.564465
0.564094
0.563722
0.563351
0.562981
0.56261
0.56224
0.561869
0.561499
0.561129
0.56076
0.56039
0.560021
0.559652
0.559283
0.558914
0.558546
0.558177
0.557809
0.557441
0.557073
0.556706
0.556338
0.555971
0.555604
0.555237
0.554871
0.554504
0.554138
0.553772
0.553406
0.553041
0.552675
0.55231
0.551945
0.55158
0.551215
0.550851
0.550487
0.550122
0.549759
0.549395
0.549031
0.548668
0.548305
0.547942
0.547579
0.547216
0.546854
0.546492
0.54613
0.545768
0.545406
0.545045
0.544683
0.544322
0.543962
0.543601
0.543241
0.54288
0.542519
0.542158
0.5418
0.541444
0.541086
0.540723
0.540357
0.539995
0.539645
0.539305
0.53895
0.538577
0.538199
0.537827
0.537484
0.537182
0.536835
0.536452
0.536062
0.535676
0.535308
0.535007
0.534713
0.53434
0.533947
0.533556
0.533178
0.532852
0.532574
0.53221
0.531819
0.53143
0.531055
0.530758
0.530477
0.530098
0.529701
0.529306
0.528921
0.528582
0.528349
0.528011
0.527615
0.527217
0.52682
0.526433
0.526084
0.525855
0.525539
0.525149
0.524754
0.524361
0.523978
0.523633
0.52339
0.523065
0.522681
0.522294
0.52191
0.52154
0.521229
0.520952
0.520596
0.520219
0.519842
0.519475
0.519138
0.518838
0.518499
0.518135
0.517771
0.517414
0.517076
0.516745
0.516402
0.51605
0.515698
0.515351
0.515008
0.514666
0.514321
0.513974
0.513628
0.513283
0.512939
0.512595
0.512251
0.511907
0.511563
0.511219
0.510876
0.510533
0.510189
0.509846
0.509504
0.509161
0.508819
0.508476
0.508134
0.507793
0.507451
0.50711
0.506768
0.506427
0.506087
0.505746
0.505405
0.505065
0.504725
0.504384
0.504044
0.503704
0.503364
0.503025
0.502685
0.502346
0.502006
0.501667
0.501329
0.50099
0.500652
0.500314
0.499977
0.499639
0.499302
0.498965
0.498629
0.498292
0.497956
0.49762
0.497284
0.496948
0.496612
0.496277
0.495941
0.495606
0.495271
0.494936
0.494601
0.494266
0.493932
0.493598
0.493264
0.49293
0.492596
0.492263
0.491929
0.491596
0.491263
0.49093
0.490598
0.490265
0.489933
0.489601
0.489269
0.488937
0.488605
0.488274
0.487943
0.487612
0.487281
0.48695
0.48662
0.48629
0.485959
0.485629
0.4853
0.48497
0.484641
0.484311
0.483982
0.483653
0.483325
0.482996
0.482668
0.482339
0.482011
0.481683
0.481356
0.481028
0.480701
0.480374
0.480047
0.479719
0.479393
0.479066
0.478741
0.478415
0.478089
0.477762
0.477435
0.47711
0.476786
0.476463
0.476139
0.475812
0.475484
0.475158
0.474835
0.474517
0.474196
0.473871
0.473542
0.473213
0.472889
0.472573
0.472261
0.471938
0.471609
0.471278
0.470951
0.470632
0.47033
0.470012
0.469684
0.469353
0.469023
0.468701
0.468398
0.468091
0.467764
0.467434
0.467105
0.46678
0.466472
0.466172
0.465849
0.46552
0.465192
0.464868
0.464561
0.464259
0.463936
0.463609
0.463283
0.462963
0.462665
0.462354
0.462029
0.461703
0.461378
0.461063
0.460769
0.460456
0.460132
0.459806
0.459482
0.459165
0.45887
0.458564
0.458242
0.457918
0.457595
0.457275
0.456973
0.456677
0.456358
0.456036
0.455714
0.455394
0.455084
0.454793
0.454481
0.454161
0.45384
0.453521
0.453206
0.452912
0.452609
0.452291
0.451973
0.451654
0.451338
0.451034
0.450741
0.450428
0.450111
0.449795
0.449479
0.449168
0.448873
0.448571
0.448257
0.447942
0.447628
0.447315
0.44701
0.446717
0.446409
0.446097
0.445785
0.445473
0.445164
0.444866
0.444568
0.44426
0.44395
0.443642
0.443335
0.443038
0.442741
0.442436
0.442131
0.441827
0.441524
0.441229
0.440939
0.440641
0.440343
0.440046
0.439753
0.439464
0.439183
0.438901
0.438619
0.43834
0.438064
0.437795
0.437532
0.437275
0.437023
0.436777
0.436535
0.436304
0.436087
0.435884
0.435697
0.435527
0.435375
0.435241
0.435131
0.435042
0.434972
0.434918
0.43488
0.434854
0.434837
0.43482
0.434805
0.434803
0.434812
0.434832
0.434864
0.434902
0.434935
0.434959
0.434987
0.435018
0.435049
0.435077
0.435098
0.435115
0.435142
0.435177
0.435216
0.435256
0.435283
0.43531
0.43534
0.435365
0.435382
0.435386
0.435373
0.435363
0.435342
0.435291
0.43522
0.435144
0.435071
0.435021
0.434984
0.434955
0.434931
0.434903
0.434877
0.434865
0.434859
0.434854
0.43485
0.43484
0.434832
0.434838
0.434848
0.434859
0.434864
0.434857
0.434871
0.434895
0.434922
0.434951
0.434981
0.435012
0.435043
0.435072
0.435092
0.435098
0.435079
0.435069
0.435069
0.435066
0.435052
0.435021
0.434991
0.434958
0.434924
0.434893
0.434865
0.434837
0.434793
0.434722
0.434694
0.434682
0.434675
0.43467
0.434666
0.434658
0.434631
0.434615
0.434618
0.434625
0.434634
0.434644
0.43465
0.434638
0.434637
0.434649
0.434664
0.43468
0.434697
0.434709
0.434698
0.434689
0.434699
0.434708
0.434715
0.434716
0.434706
0.434662
0.434616
0.43458
0.434546
0.434518
0.434495
0.434476
0.434458
0.434429
0.434397
0.434383
0.434374
0.434367
0.434362
0.434358
0.43435
0.434325
0.43431
0.43431
0.434314
0.434321
0.434329
0.434339
0.434351
0.434363
0.434375
0.434381
0.434362
0.434334
0.434341
0.434357
0.434373
0.434387
0.434398
0.434401
0.434381
0.434352
0.434343
0.434328
0.434301
0.434269
0.434236
0.434187
0.434131
0.434109
0.434096
0.434086
0.434078
0.43407
0.434061
0.434042
0.434001
0.433983
0.43398
0.43398
0.433981
0.433983
0.433982
0.433966
0.433944
0.433945
0.433953
0.433963
0.433974
0.433984
0.433985
0.433967
0.433969
0.43398
0.433993
0.434004
0.434011
0.43401
0.433985
0.433969
0.433961
0.433945
0.433921
0.433896
0.433868
0.433826
0.43379
0.433774
0.433764
0.433755
0.433747
0.433732
0.4337
0.433683
0.433678
0.433674
0.433673
0.433671
0.433661
0.433639
0.433635
0.433638
0.433643
0.433648
0.43365
0.43364
0.433632
0.433637
0.433647
0.433656
0.433661
0.433649
0.433642
0.433648
0.433654
0.433658
0.43366
0.433656
0.433638
0.433593
0.433523
0.433494
0.433477
0.433463
0.433451
0.433442
0.433436
0.433433
0.43343
0.433427
0.433423
0.43342
0.433416
0.433406
0.433376
0.433343
0.433335
0.43333
0.433321
0.433298
0.433291
0.433295
0.433301
0.433309
0.433318
0.433327
0.433334
0.433333
0.433311
0.433306
0.433311
0.433317
0.43332
0.433321
0.433311
0.433276
0.433244
0.433225
0.433209
0.433196
0.433181
0.433156
0.43312
0.433104
0.433095
0.433088
0.433082
0.433072
0.433046
0.433026
0.43302
0.433017
0.433015
0.433011
0.432994
0.432974
0.432973
0.432975
0.432979
0.432981
0.432979
0.432959
0.432948
0.432953
0.432961
0.432968
0.432973
0.432973
0.432955
0.432937
0.432933
0.432929
0.432919
0.432892
0.432854
0.432835
0.432822
0.432813
0.432805
0.432795
0.432772
0.432738
0.432726
0.432719
0.432715
0.432712
0.432706
0.432688
0.432658
0.43265
0.432649
0.432649
0.43265
0.432648
0.432633
0.432609
0.432606
0.432609
0.432613
0.432617
0.432619
0.432608
0.432584
0.432582
0.432585
0.432588
0.432588
0.432583
0.43256
0.432529
0.432516
0.432505
0.432493
0.432481
0.432466
0.432435
0.432405
0.432396
0.432391
0.432387
0.432383
0.432378
0.432369
0.432343
0.432316
0.432311
0.43231
0.43231
0.43231
0.432305
0.432284
0.432262
0.432259
0.432262
0.432265
0.432266
0.432262
0.432239
0.432226
0.432227
0.432232
0.432235
0.432234
0.432222
0.432193
0.432181
0.432174
0.432165
0.432153
0.432131
0.432095
0.432078
0.432068
0.432061
0.432055
0.432045
0.432016
0.431994
0.431988
0.431985
0.431982
0.43198
0.431978
0.431972
0.431945
0.431922
0.431919
0.431919
0.43192
0.431921
0.431921
0.43191
0.431881
0.431874
0.431875
0.431876
0.431876
0.431866
0.431838
0.431828
0.431828
0.431828
0.431827
0.431822
0.431814
0.431805
0.431784
0.431721
0.431672
0.43166
0.431653
0.431649
0.431646
0.431644
0.431644
0.431643
0.431643
0.431641
0.431638
0.431629
0.431592
0.431521
0.431504
0.431503
0.431505
0.431507
0.431509
0.431511
0.431515
0.431521
0.431525
0.43153
0.431535
0.431539
0.431541
0.431537
0.431507
0.43143
0.431404
0.4314
0.431403
0.431422
0.431498
0.431817
0.43317
0.436692
0.439638
0.440959
0.441308
0.441308
0.44133
0.441369
0.441423
0.441448
0.441443
0.441405
0.441368
0.441366
0.44138
0.441423
0.441439
0.441426
0.441358
0.441248
0.441224
0.441224
0.441236
0.441262
0.441283
0.441283
0.441274
0.441264
0.441258
0.441251
0.441229
0.441133
0.441073
0.441056
0.441048
0.441044
0.441048
0.441057
0.441061
0.44106
0.441056
0.441047
0.441038
0.441031
0.441024
0.441018
0.440991
0.440921
0.440902
0.440908
0.440944
0.441071
0.441493
0.442869
0.445458
0.447426
0.448379
0.448756
0.44893
0.449025
0.449061
0.449071
0.449059
0.449023
0.448993
0.448989
0.44901
0.449052
0.449065
0.449057
0.44899
0.44891
0.448897
0.448898
0.448909
0.448929
0.44894
0.448941
0.448938
0.448941
0.448948
0.448951
0.448952
0.448926
0.448801
0.448722
0.448709
0.448708
0.448713
0.448729
0.448736
0.448736
0.448732
0.448726
0.448724
0.448728
0.448751
0.448773
0.448776
0.448776
0.448765
0.448716
0.448586
0.448534
0.448529
0.448531
0.448533
0.448538
0.448553
0.448595
0.448613
0.448619
0.448622
0.448625
0.448619
0.448571
0.448459
0.448429
0.448428
0.448432
0.448438
0.448451
0.448483
0.4485
0.448507
0.448512
0.448516
0.448515
0.448494
0.448397
)
;

boundaryField
{
    sides
    {
        type            calculated;
        value           nonuniform List<scalar> 2(0.448397 0.577395);
    }
    empty
    {
        type            empty;
    }
}


// ************************************************************************* //
