/*--------------------------------*- C++ -*----------------------------------*\
  =========                 |
  \\      /  F ield         | OpenFOAM: The Open Source CFD Toolbox
   \\    /   O peration     | Website:  https://openfoam.org
    \\  /    A nd           | Version:  9
     \\/     M anipulation  |
\*---------------------------------------------------------------------------*/
FoamFile
{
    format      ascii;
    class       volScalarField;
    location    "0.013";
    object      mag(U);
}
// * * * * * * * * * * * * * * * * * * * * * * * * * * * * * * * * * * * * * //

dimensions      [0 1 -1 0 0 0 0];

internalField   nonuniform List<scalar> 
100
(
7.36393
15.7505
20.3275
25.7573
31.0424
36.3753
41.7558
47.1995
52.7077
58.2767
63.9001
69.5709
75.282
81.027
86.7998
92.5954
98.4094
104.238
110.077
115.924
121.776
127.63
133.483
139.332
145.177
151.006
156.836
162.631
168.431
174.189
179.925
185.653
191.315
196.955
202.565
208.101
213.585
219.019
224.368
229.629
234.806
239.878
244.82
249.63
254.297
258.788
263.075
267.15
271.003
274.596
277.889
280.862
283.522
285.844
287.815
289.454
290.664
291.598
292.38
292.9
293.261
293.477
293.566
293.61
293.608
293.6
293.604
293.614
293.621
293.62
293.614
293.61
293.606
293.604
293.602
293.597
293.588
293.584
293.578
293.557
293.507
293.411
293.257
293.139
293.329
293.537
293.347
292.995
292.653
292.407
292.236
291.969
291.683
291.454
291.141
290.757
290.414
290.044
289.62
289.219
)
;

boundaryField
{
    sides
    {
        type            calculated;
        value           nonuniform List<scalar> 2(289.219 7.36393);
    }
    empty
    {
        type            empty;
    }
}


// ************************************************************************* //
