/*--------------------------------*- C++ -*----------------------------------*\
  =========                 |
  \\      /  F ield         | OpenFOAM: The Open Source CFD Toolbox
   \\    /   O peration     | Website:  https://openfoam.org
    \\  /    A nd           | Version:  9
     \\/     M anipulation  |
\*---------------------------------------------------------------------------*/
FoamFile
{
    format      ascii;
    class       volScalarField;
    location    "0.046";
    object      p;
}
// * * * * * * * * * * * * * * * * * * * * * * * * * * * * * * * * * * * * * //

dimensions      [1 -1 -2 0 0 0 0];

internalField   nonuniform List<scalar> 
10000
(
8849.82
8849.77
8849.7
8849.64
8849.58
8849.53
8849.47
8849.42
8849.36
8849.31
8849.25
8849.19
8849.14
8849.08
8849.03
8848.97
8848.92
8848.86
8848.81
8848.75
8848.69
8848.64
8848.58
8848.53
8848.47
8848.42
8848.36
8848.31
8848.25
8848.2
8848.14
8848.09
8848.03
8847.98
8847.92
8847.87
8847.81
8847.76
8847.7
8847.65
8847.59
8847.54
8847.48
8847.43
8847.37
8847.32
8847.26
8847.21
8847.15
8847.1
8847.04
8846.99
8846.93
8846.88
8846.82
8846.77
8846.71
8846.66
8846.6
8846.55
8846.49
8846.44
8846.38
8846.33
8846.28
8846.22
8846.17
8846.11
8846.06
8846
8845.95
8845.89
8845.84
8845.79
8845.73
8845.68
8845.62
8845.57
8845.51
8845.46
8845.41
8845.35
8845.3
8845.24
8845.19
8845.14
8845.08
8845.03
8844.97
8844.92
8844.87
8844.81
8844.76
8844.7
8844.65
8844.6
8844.54
8844.49
8844.43
8844.38
8844.33
8844.27
8844.22
8844.17
8844.11
8844.06
8844.01
8843.95
8843.9
8843.84
8843.79
8843.74
8843.68
8843.63
8843.58
8843.52
8843.47
8843.42
8843.36
8843.31
8843.26
8843.2
8843.15
8843.1
8843.04
8842.99
8842.94
8842.88
8842.83
8842.78
8842.72
8842.67
8842.62
8842.57
8842.51
8842.46
8842.41
8842.35
8842.3
8842.25
8842.2
8842.14
8842.09
8842.04
8841.98
8841.93
8841.88
8841.83
8841.77
8841.72
8841.67
8841.62
8841.56
8841.51
8841.46
8841.41
8841.35
8841.3
8841.25
8841.2
8841.14
8841.09
8841.04
8840.99
8840.93
8840.88
8840.83
8840.78
8840.73
8840.67
8840.62
8840.57
8840.52
8840.46
8840.41
8840.36
8840.31
8840.26
8840.2
8840.15
8840.1
8840.05
8840
8839.95
8839.89
8839.84
8839.79
8839.74
8839.69
8839.63
8839.58
8839.53
8839.48
8839.43
8839.38
8839.33
8839.27
8839.22
8839.17
8839.12
8839.07
8839.02
8838.97
8838.91
8838.86
8838.81
8838.76
8838.71
8838.66
8838.61
8838.56
8838.5
8838.45
8838.4
8838.35
8838.3
8838.25
8838.2
8838.15
8838.1
8838.05
8837.99
8837.94
8837.89
8837.84
8837.79
8837.74
8837.69
8837.64
8837.59
8837.54
8837.49
8837.44
8837.39
8837.34
8837.28
8837.23
8837.18
8837.13
8837.08
8837.03
8836.98
8836.93
8836.88
8836.83
8836.78
8836.73
8836.68
8836.63
8836.58
8836.53
8836.48
8836.43
8836.38
8836.33
8836.28
8836.23
8836.18
8836.13
8836.08
8836.03
8835.98
8835.93
8835.88
8835.83
8835.78
8835.73
8835.68
8835.63
8835.58
8835.53
8835.48
8835.44
8835.39
8835.34
8835.29
8835.24
8835.19
8835.14
8835.09
8835.04
8834.99
8834.94
8834.89
8834.84
8834.79
8834.75
8834.7
8834.65
8834.6
8834.55
8834.5
8834.45
8834.4
8834.35
8834.31
8834.26
8834.21
8834.16
8834.11
8834.06
8834.01
8833.97
8833.92
8833.87
8833.82
8833.77
8833.72
8833.67
8833.63
8833.58
8833.53
8833.48
8833.43
8833.38
8833.34
8833.29
8833.24
8833.19
8833.14
8833.1
8833.05
8833
8832.95
8832.9
8832.86
8832.81
8832.76
8832.71
8832.67
8832.62
8832.57
8832.52
8832.48
8832.43
8832.38
8832.33
8832.29
8832.24
8832.19
8832.14
8832.1
8832.05
8832
8831.95
8831.91
8831.86
8831.81
8831.77
8831.72
8831.67
8831.62
8831.58
8831.53
8831.48
8831.44
8831.39
8831.34
8831.3
8831.25
8831.2
8831.16
8831.11
8831.06
8831.02
8830.97
8830.92
8830.88
8830.83
8830.79
8830.74
8830.69
8830.65
8830.6
8830.55
8830.51
8830.46
8830.42
8830.37
8830.33
8830.28
8830.23
8830.19
8830.14
8830.1
8830.05
8830
8829.96
8829.91
8829.87
8829.82
8829.78
8829.73
8829.69
8829.64
8829.6
8829.55
8829.51
8829.46
8829.42
8829.37
8829.32
8829.28
8829.24
8829.19
8829.15
8829.1
8829.06
8829.01
8828.97
8828.92
8828.88
8828.83
8828.79
8828.74
8828.7
8828.65
8828.61
8828.57
8828.52
8828.48
8828.43
8828.39
8828.34
8828.3
8828.26
8828.21
8828.17
8828.13
8828.08
8828.04
8827.99
8827.95
8827.91
8827.86
8827.82
8827.78
8827.73
8827.69
8827.65
8827.6
8827.56
8827.52
8827.47
8827.43
8827.39
8827.34
8827.3
8827.26
8827.21
8827.17
8827.13
8827.09
8827.04
8827
8826.96
8826.92
8826.87
8826.83
8826.79
8826.75
8826.7
8826.66
8826.62
8826.58
8826.53
8826.49
8826.45
8826.41
8826.37
8826.32
8826.28
8826.24
8826.2
8826.16
8826.12
8826.07
8826.03
8825.99
8825.95
8825.91
8825.87
8825.83
8825.79
8825.74
8825.7
8825.66
8825.62
8825.58
8825.54
8825.5
8825.46
8825.42
8825.38
8825.34
8825.3
8825.26
8825.22
8825.17
8825.13
8825.09
8825.05
8825.01
8824.97
8824.93
8824.89
8824.85
8824.81
8824.77
8824.73
8824.7
8824.66
8824.62
8824.58
8824.54
8824.5
8824.46
8824.42
8824.38
8824.34
8824.3
8824.26
8824.22
8824.19
8824.15
8824.11
8824.07
8824.03
8823.99
8823.95
8823.92
8823.88
8823.84
8823.8
8823.76
8823.72
8823.69
8823.65
8823.61
8823.57
8823.53
8823.5
8823.46
8823.42
8823.38
8823.35
8823.31
8823.27
8823.24
8823.2
8823.16
8823.12
8823.09
8823.05
8823.01
8822.98
8822.94
8822.9
8822.87
8822.83
8822.79
8822.76
8822.72
8822.69
8822.65
8822.61
8822.58
8822.54
8822.51
8822.47
8822.43
8822.4
8822.36
8822.33
8822.29
8822.26
8822.22
8822.19
8822.15
8822.12
8822.08
8822.05
8822.01
8821.98
8821.94
8821.91
8821.87
8821.84
8821.81
8821.77
8821.74
8821.7
8821.67
8821.64
8821.6
8821.57
8821.53
8821.5
8821.47
8821.43
8821.4
8821.37
8821.33
8821.3
8821.27
8821.24
8821.2
8821.17
8821.14
8821.1
8821.07
8821.04
8821.01
8820.98
8820.94
8820.91
8820.88
8820.85
8820.82
8820.78
8820.75
8820.72
8820.69
8820.66
8820.63
8820.6
8820.57
8820.53
8820.5
8820.47
8820.44
8820.41
8820.38
8820.35
8820.32
8820.29
8820.26
8820.23
8820.2
8820.17
8820.14
8820.11
8820.08
8820.05
8820.02
8820
8819.97
8819.94
8819.91
8819.88
8819.85
8819.82
8819.79
8819.77
8819.74
8819.71
8819.68
8819.65
8819.63
8819.6
8819.57
8819.54
8819.52
8819.49
8819.46
8819.43
8819.41
8819.38
8819.35
8819.33
8819.3
8819.27
8819.25
8819.22
8819.2
8819.17
8819.14
8819.12
8819.09
8819.07
8819.04
8819.02
8818.99
8818.97
8818.94
8818.92
8818.89
8818.87
8818.84
8818.82
8818.8
8818.77
8818.75
8818.72
8818.7
8818.68
8818.65
8818.63
8818.61
8818.58
8818.56
8818.54
8818.52
8818.49
8818.47
8818.45
8818.43
8818.4
8818.38
8818.36
8818.34
8818.32
8818.3
8818.27
8818.25
8818.23
8818.21
8818.19
8818.17
8818.15
8818.13
8818.11
8818.09
8818.07
8818.05
8818.03
8818.01
8817.99
8817.97
8817.95
8817.94
8817.92
8817.9
8817.88
8817.86
8817.84
8817.83
8817.81
8817.79
8817.77
8817.76
8817.74
8817.72
8817.71
8817.69
8817.67
8817.66
8817.64
8817.62
8817.61
8817.59
8817.58
8817.56
8817.55
8817.53
8817.52
8817.5
8817.49
8817.47
8817.46
8817.44
8817.43
8817.42
8817.4
8817.39
8817.38
8817.36
8817.35
8817.34
8817.32
8817.31
8817.3
8817.29
8817.28
8817.27
8817.25
8817.24
8817.23
8817.22
8817.21
8817.2
8817.19
8817.18
8817.17
8817.16
8817.15
8817.14
8817.13
8817.12
8817.11
8817.1
8817.1
8817.09
8817.08
8817.07
8817.06
8817.06
8817.05
8817.04
8817.04
8817.03
8817.02
8817.02
8817.01
8817
8817
8816.99
8816.99
8816.98
8816.98
8816.97
8816.97
8816.97
8816.96
8816.96
8816.95
8816.95
8816.95
8816.95
8816.94
8816.94
8816.94
8816.94
8816.93
8816.93
8816.93
8816.93
8816.93
8816.93
8816.93
8816.93
8816.93
8816.93
8816.93
8816.93
8816.93
8816.93
8816.94
8816.94
8816.94
8816.94
8816.94
8816.95
8816.95
8816.95
8816.96
8816.96
8816.97
8816.97
8816.97
8816.98
8816.98
8816.99
8817
8817
8817.01
8817.01
8817.02
8817.03
8817.04
8817.04
8817.05
8817.06
8817.07
8817.08
8817.09
8817.1
8817.11
8817.12
8817.13
8817.14
8817.15
8817.16
8817.17
8817.18
8817.19
8817.2
8817.22
8817.23
8817.24
8817.26
8817.27
8817.28
8817.3
8817.31
8817.33
8817.34
8817.36
8817.38
8817.39
8817.41
8817.43
8817.44
8817.46
8817.48
8817.5
8817.52
8817.53
8817.55
8817.57
8817.59
8817.61
8817.63
8817.65
8817.68
8817.7
8817.72
8817.74
8817.76
8817.79
8817.81
8817.83
8817.86
8817.88
8817.91
8817.93
8817.96
8817.99
8818.01
8818.04
8818.07
8818.09
8818.12
8818.15
8818.18
8818.21
8818.24
8818.27
8818.3
8818.33
8818.36
8818.39
8818.42
8818.45
8818.49
8818.52
8818.55
8818.59
8818.62
8818.66
8818.69
8818.73
8818.76
8818.8
8818.84
8818.87
8818.91
8818.95
8818.99
8819.03
8819.07
8819.11
8819.15
8819.19
8819.23
8819.27
8819.31
8819.35
8819.4
8819.44
8819.49
8819.53
8819.58
8819.62
8819.67
8819.71
8819.76
8819.81
8819.86
8819.9
8819.95
8820
8820.05
8820.1
8820.15
8820.2
8820.26
8820.31
8820.36
8820.42
8820.47
8820.52
8820.58
8820.64
8820.69
8820.75
8820.81
8820.86
8820.92
8820.98
8821.04
8821.1
8821.16
8821.22
8821.28
8821.35
8821.41
8821.47
8821.54
8821.6
8821.67
8821.73
8821.8
8821.86
8821.93
8822
8822.07
8822.14
8822.21
8822.28
8822.35
8822.42
8822.49
8822.57
8822.64
8822.72
8822.79
8822.87
8822.94
8823.02
8823.1
8823.18
8823.26
8823.33
8823.41
8823.5
8823.58
8823.66
8823.74
8823.83
8823.91
8824
8824.08
8824.17
8824.26
8824.34
8824.43
8824.52
8824.61
8824.7
8824.79
8824.89
8824.98
8825.07
8825.17
8825.26
8825.36
8825.46
8825.55
8825.65
8825.75
8825.85
8825.95
8826.05
8826.15
8826.26
8826.36
8826.47
8826.57
8826.68
8826.78
8826.89
8827
8827.11
8827.22
8827.33
8827.44
8827.56
8827.67
8827.79
8827.9
8828.02
8828.13
8828.25
8828.37
8828.49
8828.61
8828.73
8828.86
8828.98
8829.1
8829.23
8829.36
8829.48
8829.61
8829.74
8829.87
8830
8830.13
8830.26
8830.4
8830.53
8830.67
8830.81
8830.94
8831.08
8831.22
8831.36
8831.5
8831.65
8831.79
8831.93
8832.08
8832.23
8832.37
8832.52
8832.67
8832.82
8832.97
8833.13
8833.28
8833.44
8833.59
8833.75
8833.91
8834.07
8834.23
8834.39
8834.55
8834.72
8834.88
8835.05
8835.21
8835.38
8835.55
8835.72
8835.89
8836.07
8836.24
8836.41
8836.59
8836.77
8836.95
8837.13
8837.31
8837.49
8837.67
8837.86
8838.04
8838.23
8838.42
8838.61
8838.8
8838.99
8839.19
8839.38
8839.58
8839.77
8839.97
8840.17
8840.37
8840.57
8840.78
8840.98
8841.19
8841.4
8841.6
8841.81
8842.03
8842.24
8842.45
8842.67
8842.88
8843.1
8843.32
8843.54
8843.76
8843.99
8844.21
8844.44
8844.67
8844.9
8845.13
8845.36
8845.59
8845.83
8846.06
8846.3
8846.54
8846.78
8847.02
8847.26
8847.51
8847.76
8848
8848.25
8848.5
8848.76
8849.01
8849.26
8849.52
8849.78
8850.04
8850.3
8850.56
8850.83
8851.09
8851.36
8851.63
8851.9
8852.17
8852.44
8852.72
8853
8853.27
8853.55
8853.83
8854.12
8854.4
8854.69
8854.98
8855.26
8855.56
8855.85
8856.14
8856.44
8856.73
8857.03
8857.33
8857.64
8857.94
8858.24
8858.55
8858.86
8859.17
8859.48
8859.79
8860.11
8860.43
8860.74
8861.06
8861.39
8861.71
8862.03
8862.36
8862.69
8863.02
8863.35
8863.68
8864.02
8864.36
8864.69
8865.03
8865.38
8865.72
8866.06
8866.41
8866.76
8867.11
8867.46
8867.82
8868.17
8868.53
8868.89
8869.25
8869.61
8869.97
8870.34
8870.7
8871.07
8871.44
8871.82
8872.19
8872.56
8872.94
8873.32
8873.7
8874.08
8874.47
8874.85
8875.24
8875.63
8876.02
8876.41
8876.81
8877.2
8877.6
8878
8878.4
8878.8
8879.21
8879.61
8880.02
8880.43
8880.84
8881.25
8881.67
8882.08
8882.5
8882.92
8883.34
8883.76
8884.18
8884.61
8885.04
8885.47
8885.9
8886.33
8886.76
8887.2
8887.63
8888.07
8888.51
8888.95
8889.4
8889.84
8890.29
8890.74
8891.19
8891.64
8892.09
8892.54
8893
8893.46
8893.91
8894.37
8894.84
8895.3
8895.76
8896.23
8896.7
8897.17
8897.64
8898.11
8898.58
8899.06
8899.53
8900.01
8900.49
8900.97
8901.45
8901.94
8902.42
8902.91
8903.4
8903.88
8904.38
8904.87
8905.36
8905.85
8906.35
8906.85
8907.35
8907.85
8908.35
8908.85
8909.35
8909.86
8910.36
8910.87
8911.38
8911.89
8912.4
8912.91
8913.42
8913.94
8914.45
8914.97
8915.49
8916.01
8916.53
8917.05
8917.57
8918.1
8918.62
8919.15
8919.68
8920.2
8920.73
8921.26
8921.79
8922.33
8922.86
8923.39
8923.93
8924.47
8925
8925.54
8926.08
8926.62
8927.16
8927.71
8928.25
8928.79
8929.34
8929.88
8930.43
8930.98
8931.53
8932.08
8932.63
8933.18
8933.73
8934.28
8934.84
8935.39
8935.95
8936.5
8937.06
8937.62
8938.17
8938.73
8939.29
8939.85
8940.42
8940.98
8941.54
8942.1
8942.67
8943.23
8943.8
8944.36
8944.93
8945.5
8946.07
8946.64
8947.21
8947.78
8948.35
8948.92
8949.49
8950.06
8950.63
8951.21
8951.78
8952.36
8952.93
8953.51
8954.08
8954.66
8955.24
8955.81
8956.39
8956.97
8957.55
8958.13
8958.71
8959.29
8959.87
8960.45
8961.04
8961.62
8962.2
8962.78
8963.37
8963.95
8964.54
8965.12
8965.71
8966.29
8966.88
8967.47
8968.05
8968.64
8969.23
8969.81
8970.4
8970.99
8971.58
8972.17
8972.76
8973.35
8973.94
8974.53
8975.12
8975.71
8976.3
8976.89
8977.49
8978.08
8978.67
8979.26
8979.86
8980.45
8981.04
8981.64
8982.23
8982.82
8983.42
8984.01
8984.61
8985.2
8985.8
8986.4
8986.99
8987.59
8988.18
8988.78
8989.38
8989.97
8990.57
8991.17
8991.77
8992.36
8992.96
8993.56
8994.16
8994.75
8995.35
8995.95
8996.55
8997.15
8997.75
8998.35
8998.95
8999.55
9000.15
9000.75
9001.35
9001.95
9002.55
9003.15
9003.75
9004.35
9004.95
9005.55
9006.15
9006.75
9007.36
9007.96
9008.56
9009.16
9009.76
9010.36
9010.97
9011.57
9012.17
9012.77
9013.38
9013.98
9014.58
9015.18
9015.79
9016.39
9016.99
9017.6
9018.2
9018.8
9019.41
9020.01
9020.62
9021.22
9021.82
9022.43
9023.03
9023.64
9024.24
9024.84
9025.45
9026.05
9026.66
9027.26
9027.87
9028.47
9029.08
9029.68
9030.29
9030.89
9031.5
9032.1
9032.71
9033.31
9033.92
9034.52
9035.13
9035.74
9036.34
9036.95
9037.55
9038.16
9038.77
9039.37
9039.98
9040.58
9041.19
9041.8
9042.4
9043.01
9043.62
9044.22
9044.83
9045.44
9046.04
9046.65
9047.26
9047.86
9048.47
9049.08
9049.69
9050.29
9050.9
9051.51
9052.12
9052.72
9053.33
9053.94
9054.55
9055.15
9055.76
9056.37
9056.98
9057.59
9058.19
9058.8
9059.41
9060.02
9060.63
9061.23
9061.84
9062.45
9063.06
9063.67
9064.28
9064.88
9065.49
9066.1
9066.71
9067.32
9067.93
9068.54
9069.15
9069.76
9070.36
9070.97
9071.58
9072.19
9072.8
9073.41
9074.02
9074.63
9075.24
9075.85
9076.46
9077.07
9077.68
9078.29
9078.9
9079.51
9080.12
9080.73
9081.34
9081.95
9082.56
9083.17
9083.78
9084.39
9085
9085.61
9086.22
9086.83
9087.44
9088.05
9088.66
9089.27
9089.88
9090.49
9091.1
9091.71
9092.32
9092.94
9093.55
9094.16
9094.77
9095.38
9095.99
9096.6
9097.21
9097.82
9098.44
9099.05
9099.66
9100.27
9100.88
9101.49
9102.11
9102.72
9103.33
9103.94
9104.55
9105.16
9105.78
9106.39
9107
9107.61
9108.22
9108.84
9109.45
9110.06
9110.67
9111.29
9111.9
9112.51
9113.12
9113.74
9114.35
9114.96
9115.57
9116.19
9116.8
9117.41
9118.03
9118.64
9119.25
9119.86
9120.48
9121.09
9121.7
9122.32
9122.93
9123.54
9124.16
9124.77
9125.38
9126
9126.61
9127.22
9127.84
9128.45
9129.07
9129.68
9130.29
9130.91
9131.52
9132.14
9132.75
9133.36
9133.98
9134.59
9135.21
9135.82
9136.44
9137.05
9137.66
9138.28
9138.89
9139.51
9140.12
9140.74
9141.35
9141.97
9142.58
9143.2
9143.81
9144.43
9145.04
9145.66
9146.27
9146.89
9147.5
9148.12
9148.73
9149.35
9149.96
9150.58
9151.2
9151.81
9152.43
9153.04
9153.66
9154.27
9154.89
9155.51
9156.12
9156.74
9157.35
9157.97
9158.59
9159.2
9159.82
9160.43
9161.05
9161.67
9162.28
9162.9
9163.52
9164.13
9164.75
9165.37
9165.98
9166.6
9167.22
9167.83
9168.45
9169.07
9169.68
9170.3
9170.92
9171.54
9172.15
9172.77
9173.39
9174.01
9174.62
9175.24
9175.86
9176.48
9177.09
9177.71
9178.33
9178.95
9179.56
9180.18
9180.8
9181.42
9182.04
9182.65
9183.27
9183.89
9184.51
9185.13
9185.74
9186.36
9186.98
9187.6
9188.22
9188.84
9189.46
9190.07
9190.69
9191.31
9191.93
9192.55
9193.17
9193.79
9194.41
9195.03
9195.64
9196.26
9196.88
9197.5
9198.12
9198.74
9199.36
9199.98
9200.6
9201.22
9201.84
9202.46
9203.08
9203.7
9204.32
9204.94
9205.56
9206.18
9206.8
9207.42
9208.04
9208.66
9209.28
9209.9
9210.52
9211.14
9211.76
9212.38
9213
9213.62
9214.24
9214.86
9215.48
9216.1
9216.72
9217.34
9217.97
9218.59
9219.21
9219.83
9220.45
9221.07
9221.69
9222.31
9222.93
9223.56
9224.18
9224.8
9225.42
9226.04
9226.66
9227.28
9227.91
9228.53
9229.15
9229.77
9230.39
9231.02
9231.64
9232.26
9232.88
9233.5
9234.13
9234.75
9235.37
9235.99
9236.61
9237.24
9237.86
9238.48
9239.1
9239.73
9240.35
9240.97
9241.6
9242.22
9242.84
9243.46
9244.09
9244.71
9245.33
9245.96
9246.58
9247.2
9247.83
9248.45
9249.07
9249.7
9250.32
9250.94
9251.57
9252.19
9252.81
9253.44
9254.06
9254.68
9255.31
9255.93
9256.56
9257.18
9257.8
9258.43
9259.05
9259.68
9260.3
9260.92
9261.55
9262.17
9262.8
9263.42
9264.05
9264.67
9265.3
9265.92
9266.54
9267.17
9267.79
9268.42
9269.04
9269.67
9270.29
9270.92
9271.54
9272.17
9272.79
9273.42
9274.05
9274.67
9275.3
9275.92
9276.55
9277.17
9277.8
9278.42
9279.05
9279.67
9280.3
9280.93
9281.55
9282.18
9282.8
9283.43
9284.06
9284.68
9285.31
9285.93
9286.56
9287.19
9287.81
9288.44
9289.07
9289.69
9290.32
9290.95
9291.57
9292.2
9292.83
9293.45
9294.08
9294.71
9295.33
9295.96
9296.59
9297.22
9297.84
9298.47
9299.1
9299.72
9300.35
9300.98
9301.61
9302.23
9302.86
9303.49
9304.12
9304.74
9305.37
9306
9306.63
9307.26
9307.88
9308.51
9309.14
9309.77
9310.4
9311.02
9311.65
9312.28
9312.91
9313.54
9314.17
9314.79
9315.42
9316.05
9316.68
9317.31
9317.94
9318.57
9319.19
9319.82
9320.45
9321.08
9321.71
9322.34
9322.97
9323.6
9324.23
9324.86
9325.49
9326.12
9326.74
9327.37
9328
9328.63
9329.26
9329.89
9330.52
9331.15
9331.78
9332.41
9333.04
9333.67
9334.3
9334.93
9335.56
9336.19
9336.82
9337.45
9338.08
9338.71
9339.34
9339.97
9340.6
9341.23
9341.87
9342.5
9343.13
9343.76
9344.39
9345.02
9345.65
9346.28
9346.91
9347.54
9348.17
9348.81
9349.44
9350.07
9350.7
9351.33
9351.96
9352.59
9353.22
9353.86
9354.49
9355.12
9355.75
9356.38
9357.01
9357.65
9358.28
9358.91
9359.54
9360.17
9360.81
9361.44
9362.07
9362.7
9363.33
9363.97
9364.6
9365.23
9365.86
9366.5
9367.13
9367.76
9368.39
9369.03
9369.66
9370.29
9370.93
9371.56
9372.19
9372.82
9373.46
9374.09
9374.72
9375.36
9375.99
9376.62
9377.26
9377.89
9378.52
9379.16
9379.79
9380.42
9381.06
9381.69
9382.33
9382.96
9383.59
9384.23
9384.86
9385.5
9386.13
9386.76
9387.4
9388.03
9388.67
9389.3
9389.93
9390.57
9391.2
9391.84
9392.47
9393.11
9393.74
9394.38
9395.01
9395.65
9396.28
9396.92
9397.55
9398.19
9398.82
9399.46
9400.09
9400.73
9401.36
9402
9402.63
9403.27
9403.9
9404.54
9405.17
9405.81
9406.45
9407.08
9407.72
9408.35
9408.99
9409.62
9410.26
9410.9
9411.53
9412.17
9412.8
9413.44
9414.08
9414.71
9415.35
9415.99
9416.62
9417.26
9417.89
9418.53
9419.17
9419.8
9420.44
9421.08
9421.72
9422.35
9422.99
9423.63
9424.26
9424.9
9425.54
9426.17
9426.81
9427.45
9428.09
9428.72
9429.36
9430
9430.64
9431.27
9431.91
9432.55
9433.19
9433.82
9434.46
9435.1
9435.74
9436.38
9437.01
9437.65
9438.29
9438.93
9439.57
9440.2
9440.84
9441.48
9442.12
9442.76
9443.4
9444.04
9444.67
9445.31
9445.95
9446.59
9447.23
9447.87
9448.51
9449.15
9449.78
9450.42
9451.06
9451.7
9452.34
9452.98
9453.62
9454.26
9454.9
9455.54
9456.18
9456.82
9457.46
9458.1
9458.74
9459.38
9460.02
9460.65
9461.29
9461.93
9462.57
9463.21
9463.85
9464.5
9465.14
9465.78
9466.42
9467.06
9467.7
9468.34
9468.98
9469.62
9470.26
9470.9
9471.54
9472.18
9472.82
9473.46
9474.1
9474.74
9475.39
9476.03
9476.67
9477.31
9477.95
9478.59
9479.23
9479.87
9480.52
9481.16
9481.8
9482.44
9483.08
9483.72
9484.36
9485.01
9485.65
9486.29
9486.93
9487.57
9488.22
9488.86
9489.5
9490.14
9490.78
9491.43
9492.07
9492.71
9493.35
9494
9494.64
9495.28
9495.92
9496.57
9497.21
9497.85
9498.49
9499.14
9499.78
9500.42
9501.07
9501.71
9502.35
9503
9503.64
9504.28
9504.92
9505.57
9506.21
9506.86
9507.5
9508.14
9508.79
9509.43
9510.07
9510.72
9511.36
9512
9512.65
9513.29
9513.94
9514.58
9515.22
9515.87
9516.51
9517.16
9517.8
9518.45
9519.09
9519.73
9520.38
9521.02
9521.67
9522.31
9522.96
9523.6
9524.25
9524.89
9525.54
9526.18
9526.83
9527.47
9528.12
9528.76
9529.41
9530.05
9530.7
9531.34
9531.99
9532.63
9533.28
9533.92
9534.57
9535.22
9535.86
9536.51
9537.15
9537.8
9538.44
9539.09
9539.74
9540.38
9541.03
9541.67
9542.32
9542.97
9543.61
9544.26
9544.91
9545.55
9546.2
9546.85
9547.49
9548.14
9548.79
9549.43
9550.08
9550.73
9551.37
9552.02
9552.67
9553.31
9553.96
9554.61
9555.26
9555.9
9556.55
9557.2
9557.84
9558.49
9559.14
9559.79
9560.43
9561.08
9561.73
9562.38
9563.03
9563.67
9564.32
9564.97
9565.62
9566.27
9566.91
9567.56
9568.21
9568.86
9569.51
9570.16
9570.8
9571.45
9572.1
9572.75
9573.4
9574.05
9574.69
9575.34
9575.99
9576.64
9577.29
9577.94
9578.59
9579.24
9579.89
9580.54
9581.18
9581.83
9582.48
9583.13
9583.78
9584.43
9585.08
9585.73
9586.38
9587.03
9587.68
9588.33
9588.98
9589.63
9590.28
9590.93
9591.58
9592.23
9592.88
9593.53
9594.18
9594.83
9595.48
9596.13
9596.78
9597.43
9598.08
9598.73
9599.38
9600.03
9600.68
9601.34
9601.99
9602.64
9603.29
9603.94
9604.59
9605.24
9605.89
9606.54
9607.2
9607.85
9608.5
9609.15
9609.8
9610.45
9611.1
9611.76
9612.41
9613.06
9613.71
9614.36
9615.01
9615.67
9616.32
9616.97
9617.62
9618.27
9618.93
9619.58
9620.23
9620.88
9621.54
9622.19
9622.84
9623.49
9624.15
9624.8
9625.45
9626.1
9626.76
9627.41
9628.06
9628.72
9629.37
9630.02
9630.67
9631.33
9631.98
9632.63
9633.29
9633.94
9634.59
9635.25
9635.9
9636.55
9637.21
9637.86
9638.52
9639.17
9639.82
9640.48
9641.13
9641.78
9642.44
9643.09
9643.75
9644.4
9645.06
9645.71
9646.36
9647.02
9647.67
9648.33
9648.98
9649.64
9650.29
9650.95
9651.6
9652.25
9652.91
9653.56
9654.22
9654.87
9655.53
9656.18
9656.84
9657.49
9658.15
9658.81
9659.46
9660.12
9660.77
9661.43
9662.08
9662.74
9663.39
9664.05
9664.7
9665.36
9666.02
9666.67
9667.33
9667.98
9668.64
9669.3
9669.95
9670.61
9671.27
9671.92
9672.58
9673.23
9673.89
9674.55
9675.2
9675.86
9676.52
9677.17
9677.83
9678.49
9679.14
9679.8
9680.46
9681.11
9681.77
9682.43
9683.09
9683.74
9684.4
9685.06
9685.71
9686.37
9687.03
9687.69
9688.34
9689
9689.66
9690.32
9690.98
9691.63
9692.29
9692.95
9693.61
9694.27
9694.92
9695.58
9696.24
9696.9
9697.56
9698.21
9698.87
9699.53
9700.19
9700.85
9701.51
9702.16
9702.82
9703.48
9704.14
9704.8
9705.46
9706.12
9706.78
9707.44
9708.09
9708.75
9709.41
9710.07
9710.73
9711.39
9712.05
9712.71
9713.37
9714.03
9714.69
9715.35
9716.01
9716.67
9717.33
9717.99
9718.65
9719.31
9719.97
9720.63
9721.29
9721.95
9722.61
9723.27
9723.93
9724.59
9725.25
9725.91
9726.57
9727.23
9727.89
9728.55
9729.21
9729.87
9730.53
9731.19
9731.85
9732.51
9733.18
9733.84
9734.5
9735.16
9735.82
9736.48
9737.14
9737.8
9738.47
9739.13
9739.79
9740.45
9741.11
9741.77
9742.43
9743.1
9743.76
9744.42
9745.08
9745.74
9746.41
9747.07
9747.73
9748.39
9749.05
9749.72
9750.38
9751.04
9751.7
9752.37
9753.03
9753.69
9754.35
9755.02
9755.68
9756.34
9757
9757.67
9758.33
9758.99
9759.66
9760.32
9760.98
9761.65
9762.31
9762.97
9763.63
9764.3
9764.96
9765.62
9766.29
9766.95
9767.62
9768.28
9768.94
9769.61
9770.27
9770.93
9771.6
9772.26
9772.93
9773.59
9774.25
9774.92
9775.58
9776.25
9776.91
9777.58
9778.24
9778.9
9779.57
9780.23
9780.9
9781.56
9782.23
9782.89
9783.56
9784.22
9784.89
9785.55
9786.22
9786.88
9787.55
9788.21
9788.88
9789.54
9790.21
9790.87
9791.54
9792.2
9792.87
9793.54
9794.2
9794.87
9795.53
9796.2
9796.86
9797.53
9798.2
9798.86
9799.53
9800.19
9800.86
9801.53
9802.19
9802.86
9803.53
9804.19
9804.86
9805.53
9806.19
9806.86
9807.53
9808.19
9808.86
9809.53
9810.19
9810.86
9811.53
9812.19
9812.86
9813.53
9814.19
9814.86
9815.53
9816.2
9816.86
9817.53
9818.2
9818.87
9819.53
9820.2
9820.87
9821.54
9822.2
9822.87
9823.54
9824.21
9824.88
9825.54
9826.21
9826.88
9827.55
9828.22
9828.89
9829.55
9830.22
9830.89
9831.56
9832.23
9832.9
9833.57
9834.23
9834.9
9835.57
9836.24
9836.91
9837.58
9838.25
9838.92
9839.59
9840.25
9840.92
9841.59
9842.26
9842.93
9843.6
9844.27
9844.94
9845.61
9846.28
9846.95
9847.62
9848.29
9848.96
9849.63
9850.3
9850.97
9851.64
9852.31
9852.98
9853.65
9854.32
9854.99
9855.66
9856.33
9857
9857.67
9858.34
9859.01
9859.68
9860.35
9861.02
9861.7
9862.37
9863.04
9863.71
9864.38
9865.05
9865.72
9866.39
9867.06
9867.74
9868.41
9869.08
9869.75
9870.42
9871.09
9871.76
9872.44
9873.11
9873.78
9874.45
9875.12
9875.79
9876.47
9877.14
9877.81
9878.48
9879.16
9879.83
9880.5
9881.17
9881.84
9882.52
9883.19
9883.86
9884.53
9885.21
9885.88
9886.55
9887.23
9887.9
9888.57
9889.24
9889.92
9890.59
9891.26
9891.94
9892.61
9893.28
9893.96
9894.63
9895.3
9895.98
9896.65
9897.32
9898
9898.67
9899.34
9900.02
9900.69
9901.37
9902.04
9902.71
9903.39
9904.06
9904.74
9905.41
9906.08
9906.76
9907.43
9908.11
9908.78
9909.46
9910.13
9910.81
9911.48
9912.15
9912.83
9913.5
9914.18
9914.85
9915.53
9916.2
9916.88
9917.55
9918.23
9918.9
9919.58
9920.26
9920.93
9921.61
9922.28
9922.96
9923.63
9924.31
9924.98
9925.66
9926.34
9927.01
9927.69
9928.36
9929.04
9929.72
9930.39
9931.07
9931.74
9932.42
9933.1
9933.77
9934.45
9935.13
9935.8
9936.48
9937.16
9937.83
9938.51
9939.19
9939.86
9940.54
9941.22
9941.89
9942.57
9943.25
9943.92
9944.6
9945.28
9945.96
9946.63
9947.31
9947.99
9948.67
9949.34
9950.02
9950.7
9951.38
9952.05
9952.73
9953.41
9954.09
9954.77
9955.44
9956.12
9956.8
9957.48
9958.16
9958.83
9959.51
9960.19
9960.87
9961.55
9962.23
9962.91
9963.58
9964.26
9964.94
9965.62
9966.3
9966.98
9967.66
9968.34
9969.02
9969.69
9970.37
9971.05
9971.73
9972.41
9973.09
9973.77
9974.45
9975.13
9975.81
9976.49
9977.17
9977.85
9978.53
9979.21
9979.89
9980.57
9981.25
9981.93
9982.61
9983.29
9983.97
9984.65
9985.33
9986.01
9986.69
9987.37
9988.05
9988.73
9989.41
9990.09
9990.77
9991.45
9992.13
9992.82
9993.5
9994.18
9994.86
9995.54
9996.22
9996.9
9997.58
9998.26
9998.95
9999.63
10000.3
10001
10001.7
10002.4
10003
10003.7
10004.4
10005.1
10005.8
10006.4
10007.1
10007.8
10008.5
10009.2
10009.9
10010.5
10011.2
10011.9
10012.6
10013.3
10013.9
10014.6
10015.3
10016
10016.7
10017.4
10018
10018.7
10019.4
10020.1
10020.8
10021.5
10022.1
10022.8
10023.5
10024.2
10024.9
10025.6
10026.2
10026.9
10027.6
10028.3
10029
10029.7
10030.3
10031
10031.7
10032.4
10033.1
10033.8
10034.4
10035.1
10035.8
10036.5
10037.2
10037.9
10038.6
10039.2
10039.9
10040.6
10041.3
10042
10042.7
10043.3
10044
10044.7
10045.4
10046.1
10046.8
10047.5
10048.1
10048.8
10049.5
10050.2
10050.9
10051.6
10052.3
10052.9
10053.6
10054.3
10055
10055.7
10056.4
10057.1
10057.7
10058.4
10059.1
10059.8
10060.5
10061.2
10061.9
10062.5
10063.2
10063.9
10064.6
10065.3
10066
10066.7
10067.3
10068
10068.7
10069.4
10070.1
10070.8
10071.5
10072.2
10072.8
10073.5
10074.2
10074.9
10075.6
10076.3
10077
10077.7
10078.3
10079
10079.7
10080.4
10081.1
10081.8
10082.5
10083.2
10083.8
10084.5
10085.2
10085.9
10086.6
10087.3
10088
10088.7
10089.3
10090
10090.7
10091.4
10092.1
10092.8
10093.5
10094.2
10094.9
10095.5
10096.2
10096.9
10097.6
10098.3
10099
10099.7
10100.4
10101.1
10101.7
10102.4
10103.1
10103.8
10104.5
10105.2
10105.9
10106.6
10107.3
10107.9
10108.6
10109.3
10110
10110.7
10111.4
10112.1
10112.8
10113.5
10114.2
10114.8
10115.5
10116.2
10116.9
10117.6
10118.3
10119
10119.7
10120.4
10121.1
10121.8
10122.4
10123.1
10123.8
10124.5
10125.2
10125.9
10126.6
10127.3
10128
10128.7
10129.4
10130
10130.7
10131.4
10132.1
10132.8
10133.5
10134.2
10134.9
10135.6
10136.3
10137
10137.7
10138.3
10139
10139.7
10140.4
10141.1
10141.8
10142.5
10143.2
10143.9
10144.6
10145.3
10146
10146.7
10147.3
10148
10148.7
10149.4
10150.1
10150.8
10151.5
10152.2
10152.9
10153.6
10154.3
10155
10155.7
10156.4
10157.1
10157.7
10158.4
10159.1
10159.8
10160.5
10161.2
10161.9
10162.6
10163.3
10164
10164.7
10165.4
10166.1
10166.8
10167.5
10168.2
10168.8
10169.5
10170.2
10170.9
10171.6
10172.3
10173
10173.7
10174.4
10175.1
10175.8
10176.5
10177.2
10177.9
10178.6
10179.3
10180
10180.7
10181.4
10182.1
10182.7
10183.4
10184.1
10184.8
10185.5
10186.2
10186.9
10187.6
10188.3
10189
10189.7
10190.4
10191.1
10191.8
10192.5
10193.2
10193.9
10194.6
10195.3
10196
10196.7
10197.4
10198.1
10198.8
10199.5
10200.2
10200.9
10201.5
10202.2
10202.9
10203.6
10204.3
10205
10205.7
10206.4
10207.1
10207.8
10208.5
10209.2
10209.9
10210.6
10211.3
10212
10212.7
10213.4
10214.1
10214.8
10215.5
10216.2
10216.9
10217.6
10218.3
10219
10219.7
10220.4
10221.1
10221.8
10222.5
10223.2
10223.9
10224.6
10225.3
10226
10226.7
10227.4
10228.1
10228.8
10229.5
10230.2
10230.9
10231.6
10232.3
10233
10233.7
10234.4
10235.1
10235.8
10236.5
10237.2
10237.9
10238.6
10239.3
10240
10240.7
10241.4
10242.1
10242.8
10243.5
10244.2
10244.9
10245.6
10246.3
10247
10247.7
10248.4
10249.1
10249.8
10250.5
10251.2
10251.9
10252.6
10253.3
10254
10254.7
10255.4
10256.1
10256.8
10257.5
10258.2
10258.9
10259.6
10260.3
10261
10261.7
10262.4
10263.1
10263.8
10264.5
10265.2
10265.9
10266.6
10267.3
10268
10268.7
10269.4
10270.1
10270.8
10271.5
10272.2
10272.9
10273.6
10274.3
10275
10275.7
10276.4
10277.1
10277.8
10278.5
10279.2
10279.9
10280.6
10281.3
10282.1
10282.8
10283.5
10284.2
10284.9
10285.6
10286.3
10287
10287.7
10288.4
10289.1
10289.8
10290.5
10291.2
10291.9
10292.6
10293.3
10294
10294.7
10295.4
10296.1
10296.8
10297.5
10298.2
10298.9
10299.6
10300.3
10301.1
10301.8
10302.5
10303.2
10303.9
10304.6
10305.3
10306
10306.7
10307.4
10308.1
10308.8
10309.5
10310.2
10310.9
10311.6
10312.3
10313
10313.7
10314.4
10315.1
10315.9
10316.6
10317.3
10318
10318.7
10319.4
10320.1
10320.8
10321.5
10322.2
10322.9
10323.6
10324.3
10325
10325.7
10326.4
10327.2
10327.9
10328.6
10329.3
10330
10330.7
10331.4
10332.1
10332.8
10333.5
10334.2
10334.9
10335.6
10336.3
10337
10337.8
10338.5
10339.2
10339.9
10340.6
10341.3
10342
10342.7
10343.4
10344.1
10344.8
10345.5
10346.2
10347
10347.7
10348.4
10349.1
10349.8
10350.5
10351.2
10351.9
10352.6
10353.3
10354
10354.7
10355.4
10356.2
10356.9
10357.6
10358.3
10359
10359.7
10360.4
10361.1
10361.8
10362.5
10363.2
10364
10364.7
10365.4
10366.1
10366.8
10367.5
10368.2
10368.9
10369.6
10370.3
10371.1
10371.8
10372.5
10373.2
10373.9
10374.6
10375.3
10376
10376.7
10377.4
10378.2
10378.9
10379.6
10380.3
10381
10381.7
10382.4
10383.1
10383.8
10384.5
10385.3
10386
10386.7
10387.4
10388.1
10388.8
10389.5
10390.2
10390.9
10391.7
10392.4
10393.1
10393.8
10394.5
10395.2
10395.9
10396.6
10397.3
10398.1
10398.8
10399.5
10400.2
10400.9
10401.6
10402.3
10403
10403.8
10404.5
10405.2
10405.9
10406.6
10407.3
10408
10408.7
10409.5
10410.2
10410.9
10411.6
10412.3
10413
10413.7
10414.4
10415.2
10415.9
10416.6
10417.3
10418
10418.7
10419.4
10420.2
10420.9
10421.6
10422.3
10423
10423.7
10424.4
10425.1
10425.9
10426.6
10427.3
10428
10428.7
10429.4
10430.1
10430.9
10431.6
10432.3
10433
10433.7
10434.4
10435.1
10435.9
10436.6
10437.3
10438
10438.7
10439.4
10440.2
10440.9
10441.6
10442.3
10443
10443.7
10444.4
10445.2
10445.9
10446.6
10447.3
10448
10448.7
10449.4
10450.2
10450.9
10451.6
10452.3
10453
10453.7
10454.5
10455.2
10455.9
10456.6
10457.3
10458
10458.8
10459.5
10460.2
10460.9
10461.6
10462.3
10463.1
10463.8
10464.5
10465.2
10465.9