/*--------------------------------*- C++ -*----------------------------------*\
  =========                 |
  \\      /  F ield         | OpenFOAM: The Open Source CFD Toolbox
   \\    /   O peration     | Website:  https://openfoam.org
    \\  /    A nd           | Version:  9
     \\/     M anipulation  |
\*---------------------------------------------------------------------------*/
FoamFile
{
    format      ascii;
    class       surfaceScalarField;
    location    "0.046";
    object      phi;
}
// * * * * * * * * * * * * * * * * * * * * * * * * * * * * * * * * * * * * * //

dimensions      [1 0 -1 0 0 0 0];

internalField   nonuniform List<scalar> 
9999
(
4.84165
4.86013
4.87861
4.89709
4.91557
4.93405
4.95253
4.97101
4.98948
5.00796
5.02644
5.04491
5.06339
5.08187
5.10034
5.11881
5.13729
5.15576
5.17423
5.1927
5.21117
5.22965
5.24812
5.26658
5.28505
5.30352
5.32199
5.34046
5.35892
5.37739
5.39586
5.41432
5.43279
5.45125
5.46971
5.48818
5.50664
5.5251
5.54356
5.56202
5.58048
5.59894
5.6174
5.63586
5.65432
5.67277
5.69123
5.70968
5.72814
5.7466
5.76505
5.7835
5.80196
5.82041
5.83886
5.85731
5.87576
5.89422
5.91267
5.93111
5.94956
5.96801
5.98646
6.00491
6.02335
6.0418
6.06024
6.07869
6.09713
6.11558
6.13402
6.15246
6.1709
6.18935
6.20779
6.22623
6.24467
6.26311
6.28154
6.29998
6.31842
6.33686
6.35529
6.37373
6.39217
6.4106
6.42903
6.44747
6.4659
6.48433
6.50276
6.5212
6.53963
6.55806
6.57649
6.59491
6.61334
6.63177
6.6502
6.66862
6.68705
6.70548
6.7239
6.74233
6.76075
6.77917
6.7976
6.81602
6.83444
6.85286
6.87128
6.8897
6.90812
6.92654
6.94496
6.96338
6.98179
7.00021
7.01862
7.03704
7.05545
7.07386
7.09228
7.11069
7.12911
7.14752
7.16594
7.18435
7.20276
7.22117
7.23957
7.25798
7.27638
7.29479
7.31319
7.3316
7.35001
7.36842
7.38683
7.40523
7.42364
7.44205
7.46045
7.47885
7.49725
7.51564
7.53404
7.55243
7.57083
7.58922
7.60762
7.62602
7.64442
7.66282
7.68123
7.69963
7.71803
7.73643
7.75483
7.77322
7.79161
7.81
7.82838
7.84677
7.86515
7.88353
7.90191
7.9203
7.93868
7.95707
7.97546
7.99385
8.01225
8.03064
8.04904
8.06744
8.08583
8.10423
8.12262
8.14101
8.1594
8.17778
8.19616
8.21454
8.23291
8.25128
8.26965
8.28801
8.30638
8.32474
8.3431
8.36146
8.37982
8.39818
8.41655
8.43492
8.45329
8.47167
8.49005
8.50844
8.52683
8.54522
8.56362
8.58203
8.60044
8.61886
8.63728
8.6557
8.67413
8.69256
8.711
8.72943
8.74787
8.76631
8.78475
8.80319
8.82163
8.84007
8.85851
8.87695
8.89539
8.91383
8.93228
8.95073
8.96918
8.98763
9.00608
9.02453
9.04298
9.06144
9.07989
9.09834
9.11679
9.13524
9.15369
9.17214
9.19059
9.20904
9.22748
9.24593
9.26438
9.28283
9.30128
9.31972
9.33817
9.35661
9.37506
9.39351
9.41195
9.4304
9.44884
9.46729
9.48573
9.50417
9.52262
9.54106
9.5595
9.57794
9.59639
9.61483
9.63327
9.65171
9.67015
9.68859
9.70703
9.72547
9.74391
9.76235
9.78079
9.79922
9.81766
9.8361
9.85454
9.87297
9.89141
9.90985
9.92828
9.94672
9.96515
9.98359
10.002
10.0205
10.0389
10.0573
10.0758
10.0942
10.1126
10.131
10.1495
10.1679
10.1863
10.2048
10.2232
10.2416
10.2601
10.2785
10.2969
10.3153
10.3338
10.3522
10.3706
10.3891
10.4075
10.4259
10.4443
10.4628
10.4812
10.4996
10.518
10.5364
10.5549
10.5733
10.5917
10.6101
10.6286
10.647
10.6654
10.6838
10.7022
10.7207
10.7391
10.7575
10.7759
10.7943
10.8127
10.8312
10.8496
10.868
10.8864
10.9048
10.9232
10.9417
10.9601
10.9785
10.9969
11.0153
11.0337
11.0521
11.0705
11.0889
11.1074
11.1258
11.1442
11.1626
11.181
11.1994
11.2178
11.2362
11.2546
11.273
11.2914
11.3098
11.3282
11.3466
11.365
11.3834
11.4019
11.4203
11.4387
11.4571
11.4755
11.4939
11.5123
11.5307
11.5491
11.5675
11.5858
11.6042
11.6226
11.641
11.6594
11.6778
11.6962
11.7146
11.733
11.7514
11.7698
11.7882
11.8066
11.825
11.8434
11.8618
11.8801
11.8985
11.9169
11.9353
11.9537
11.9721
11.9905
12.0089
12.0272
12.0456
12.064
12.0824
12.1008
12.1192
12.1375
12.1559
12.1743
12.1927
12.2111
12.2294
12.2478
12.2662
12.2846
12.303
12.3213
12.3397
12.3581
12.3765
12.3948
12.4132
12.4316
12.45
12.4683
12.4867
12.5051
12.5234
12.5418
12.5602
12.5786
12.5969
12.6153
12.6337
12.652
12.6704
12.6887
12.7071
12.7255
12.7438
12.7622
12.7806
12.7989
12.8173
12.8356
12.854
12.8724
12.8907
12.9091
12.9274
12.9458
12.9642
12.9825
13.0009
13.0192
13.0376
13.0559
13.0743
13.0926
13.111
13.1293
13.1477
13.166
13.1844
13.2027
13.2211
13.2394
13.2578
13.2761
13.2944
13.3128
13.3311
13.3495
13.3678
13.3862
13.4045
13.4228
13.4412
13.4595
13.4778
13.4962
13.5145
13.5329
13.5512
13.5695
13.5879
13.6062
13.6245
13.6429
13.6612
13.6795
13.6978
13.7162
13.7345
13.7528
13.7711
13.7895
13.8078
13.8261
13.8444
13.8628
13.8811
13.8994
13.9177
13.936
13.9544
13.9727
13.991
14.0093
14.0276
14.0459
14.0643
14.0826
14.1009
14.1192
14.1375
14.1558
14.1741
14.1924
14.2107
14.229
14.2473
14.2656
14.284
14.3023
14.3206
14.3389
14.3572
14.3755
14.3938
14.4121
14.4304
14.4487
14.4669
14.4852
14.5035
14.5218
14.5401
14.5584
14.5767
14.595
14.6133
14.6316
14.6499
14.6681
14.6864
14.7047
14.723
14.7413
14.7596
14.7778
14.7961
14.8144
14.8327
14.851
14.8692
14.8875
14.9058
14.924
14.9423
14.9606
14.9789
14.9971
15.0154
15.0337
15.0519
15.0702
15.0885
15.1067
15.125
15.1433
15.1615
15.1798
15.198
15.2163
15.2345
15.2528
15.2711
15.2893
15.3076
15.3258
15.3441
15.3623
15.3806
15.3988
15.4171
15.4353
15.4536
15.4718
15.49
15.5083
15.5265
15.5448
15.563
15.5812
15.5995
15.6177
15.6359
15.6542
15.6724
15.6906
15.7089
15.7271
15.7453
15.7636
15.7818
15.8
15.8182
15.8364
15.8547
15.8729
15.8911
15.9093
15.9275
15.9458
15.964
15.9822
16.0004
16.0186
16.0368
16.055
16.0732
16.0914
16.1096
16.1278
16.146
16.1642
16.1824
16.2006
16.2188
16.237
16.2552
16.2734
16.2916
16.3098
16.328
16.3462
16.3644
16.3826
16.4007
16.4189
16.4371
16.4553
16.4735
16.4917
16.5098
16.528
16.5462
16.5644
16.5825
16.6007
16.6189
16.637
16.6552
16.6734
16.6915
16.7097
16.7279
16.746
16.7642
16.7823
16.8005
16.8186
16.8368
16.8549
16.8731
16.8912
16.9094
16.9275
16.9457
16.9638
16.982
17.0001
17.0182
17.0364
17.0545
17.0726
17.0908
17.1089
17.127
17.1452
17.1633
17.1814
17.1995
17.2177
17.2358
17.2539
17.272
17.2901
17.3082
17.3264
17.3445
17.3626
17.3807
17.3988
17.4169
17.435
17.4531
17.4712
17.4893
17.5074
17.5255
17.5436
17.5617
17.5798
17.5979
17.6159
17.634
17.6521
17.6702
17.6883
17.7064
17.7244
17.7425
17.7606
17.7786
17.7967
17.8148
17.8329
17.8509
17.869
17.887
17.9051
17.9232
17.9412
17.9593
17.9773
17.9954
18.0134
18.0315
18.0495
18.0675
18.0856
18.1036
18.1217
18.1397
18.1577
18.1758
18.1938
18.2118
18.2298
18.2479
18.2659
18.2839
18.3019
18.3199
18.3379
18.356
18.374
18.392
18.41
18.428
18.446
18.464
18.482
18.5
18.518
18.536
18.5539
18.5719
18.5899
18.6079
18.6259
18.6439
18.6618
18.6798
18.6978
18.7157
18.7337
18.7517
18.7696
18.7876
18.8056
18.8235
18.8415
18.8594
18.8774
18.8953
18.9133
18.9312
18.9491
18.9671
18.985
19.0029
19.0209
19.0388
19.0567
19.0746
19.0926
19.1105
19.1284
19.1463
19.1642
19.1821
19.2
19.2179
19.2358
19.2537
19.2716
19.2895
19.3074
19.3253
19.3432
19.3611
19.379
19.3968
19.4147
19.4326
19.4504
19.4683
19.4862
19.504
19.5219
19.5398
19.5576
19.5755
19.5933
19.6111
19.629
19.6468
19.6647
19.6825
19.7003
19.7182
19.736
19.7538
19.7716
19.7894
19.8073
19.8251
19.8429
19.8607
19.8785
19.8963
19.9141
19.9319
19.9497
19.9674
19.9852
20.003
20.0208
20.0386
20.0563
20.0741
20.0919
20.1096
20.1274
20.1452
20.1629
20.1807
20.1984
20.2161
20.2339
20.2516
20.2694
20.2871
20.3048
20.3225
20.3403
20.358
20.3757
20.3934
20.4111
20.4288
20.4465
20.4642
20.4819
20.4996
20.5173
20.5349
20.5526
20.5703
20.588
20.6056
20.6233
20.6409
20.6586
20.6763
20.6939
20.7115
20.7292
20.7468
20.7645
20.7821
20.7997
20.8173
20.8349
20.8526
20.8702
20.8878
20.9054
20.923
20.9406
20.9582
20.9757
20.9933
21.0109
21.0285
21.046
21.0636
21.0812
21.0987
21.1163
21.1338
21.1514
21.1689
21.1864
21.204
21.2215
21.239
21.2565
21.2741
21.2916
21.3091
21.3266
21.3441
21.3616
21.379
21.3965
21.414
21.4315
21.4489
21.4664
21.4839
21.5013
21.5188
21.5362
21.5537
21.5711
21.5885
21.6059
21.6234
21.6408
21.6582
21.6756
21.693
21.7104
21.7278
21.7452
21.7625
21.7799
21.7973
21.8146
21.832
21.8494
21.8667
21.8841
21.9014
21.9187
21.936
21.9534
21.9707
21.988
22.0053
22.0226
22.0399
22.0572
22.0745
22.0917
22.109
22.1263
22.1435
22.1608
22.178
22.1953
22.2125
22.2298
22.247
22.2642
22.2814
22.2986
22.3158
22.333
22.3502
22.3674
22.3846
22.4017
22.4189
22.436
22.4532
22.4703
22.4875
22.5046
22.5217
22.5389
22.556
22.5731
22.5902
22.6073
22.6243
22.6414
22.6585
22.6756
22.6926
22.7097
22.7267
22.7438
22.7608
22.7778
22.7948
22.8118
22.8288
22.8458
22.8628
22.8798
22.8968
22.9137
22.9307
22.9476
22.9646
22.9815
22.9985
23.0154
23.0323
23.0492
23.0661
23.083
23.0999
23.1167
23.1336
23.1505
23.1673
23.1842
23.201
23.2178
23.2346
23.2515
23.2683
23.285
23.3018
23.3186
23.3354
23.3521
23.3689
23.3856
23.4024
23.4191
23.4358
23.4525
23.4692
23.4859
23.5026
23.5193
23.5359
23.5526
23.5692
23.5859
23.6025
23.6191
23.6357
23.6523
23.6689
23.6855
23.7021
23.7186
23.7352
23.7517
23.7683
23.7848
23.8013
23.8178
23.8343
23.8508
23.8673
23.8837
23.9002
23.9166
23.9331
23.9495
23.9659
23.9823
23.9987
24.0151
24.0315
24.0478
24.0642
24.0805
24.0968
24.1132
24.1295
24.1458
24.1621
24.1783
24.1946
24.2108
24.2271
24.2433
24.2595
24.2757
24.2919
24.3081
24.3243
24.3405
24.3566
24.3728
24.3889
24.405
24.4211
24.4372
24.4533
24.4693
24.4854
24.5014
24.5175
24.5335
24.5495
24.5655
24.5815
24.5974
24.6134
24.6293
24.6452
24.6612
24.6771
24.693
24.7088
24.7247
24.7406
24.7564
24.7722
24.788
24.8038
24.8196
24.8354
24.8511
24.8669
24.8826
24.8983
24.914
24.9297
24.9454
24.9611
24.9767
24.9923
25.0079
25.0236
25.0391
25.0547
25.0703
25.0858
25.1013
25.1169
25.1324
25.1478
25.1633
25.1788
25.1942
25.2096
25.2251
25.2404
25.2558
25.2712
25.2865
25.3019
25.3172
25.3325
25.3478
25.363
25.3783
25.3935
25.4088
25.424
25.4392
25.4543
25.4695
25.4846
25.4997
25.5149
25.5299
25.545
25.5601
25.5751
25.5901
25.6052
25.6201
25.6351
25.6501
25.665
25.6799
25.6948
25.7097
25.7246
25.7394
25.7543
25.7691
25.7839
25.7987
25.8134
25.8282
25.8429
25.8576
25.8723
25.887
25.9016
25.9163
25.9309
25.9455
25.9601
25.9746
25.9892
26.0037
26.0182
26.0327
26.0472
26.0616
26.0761
26.0905
26.1049
26.1192
26.1336
26.1479
26.1623
26.1766
26.1908
26.2051
26.2193
26.2336
26.2478
26.2619
26.2761
26.2902
26.3044
26.3185
26.3326
26.3466
26.3607
26.3747
26.3887
26.4027
26.4166
26.4306
26.4445
26.4584
26.4723
26.4862
26.5
26.5138
26.5276
26.5414
26.5552
26.5689
26.5826
26.5963
26.61
26.6237
26.6373
26.6509
26.6645
26.6781
26.6917
26.7052
26.7187
26.7322
26.7457
26.7591
26.7726
26.786
26.7994
26.8127
26.8261
26.8394
26.8527
26.866
26.8793
26.8925
26.9058
26.919
26.9322
26.9453
26.9585
26.9716
26.9847
26.9978
27.0108
27.0239
27.0369
27.0499
27.0629
27.0758
27.0888
27.1017
27.1146
27.1274
27.1403
27.1531
27.1659
27.1787
27.1915
27.2043
27.217
27.2297
27.2424
27.2551
27.2677
27.2804
27.293
27.3056
27.3181
27.3307
27.3432
27.3557
27.3682
27.3807
27.3932
27.4056
27.418
27.4304
27.4428
27.4551
27.4675
27.4798
27.4921
27.5044
27.5166
27.5289
27.5411
27.5533
27.5655
27.5776
27.5898
27.6019
27.614
27.6261
27.6382
27.6503
27.6623
27.6743
27.6863
27.6983
27.7103
27.7222
27.7342
27.7461
27.758
27.7699
27.7817
27.7936
27.8054
27.8172
27.829
27.8408
27.8525
27.8643
27.876
27.8877
27.8994
27.9111
27.9228
27.9344
27.9461
27.9577
27.9693
27.9809
27.9925
28.004
28.0156
28.0271
28.0386
28.0501
28.0616
28.0731
28.0845
28.096
28.1074
28.1188
28.1302
28.1416
28.153
28.1643
28.1757
28.187
28.1983
28.2097
28.2209
28.2322
28.2435
28.2548
28.266
28.2772
28.2885
28.2997
28.3109
28.3221
28.3332
28.3444
28.3556
28.3667
28.3778
28.389
28.4001
28.4112
28.4223
28.4333
28.4444
28.4555
28.4665
28.4776
28.4886
28.4996
28.5106
28.5216
28.5326
28.5436
28.5546
28.5655
28.5765
28.5874
28.5984
28.6093
28.6202
28.6312
28.6421
28.653
28.6639
28.6747
28.6856
28.6965
28.7074
28.7182
28.7291
28.7399
28.7507
28.7616
28.7724
28.7832
28.794
28.8048
28.8156
28.8264
28.8372
28.848
28.8587
28.8695
28.8803
28.891
28.9018
28.9125
28.9233
28.934
28.9447
28.9555
28.9662
28.9769
28.9876
28.9983
29.009
29.0197
29.0304
29.0411
29.0518
29.0625
29.0732
29.0839
29.0945
29.1052
29.1159
29.1265
29.1372
29.1478
29.1585
29.1691
29.1798
29.1904
29.2011
29.2117
29.2223
29.233
29.2436
29.2542
29.2649
29.2755
29.2861
29.2967
29.3073
29.318
29.3286
29.3392
29.3498
29.3604
29.371
29.3816
29.3922
29.4028
29.4134
29.424
29.4346
29.4452
29.4558
29.4664
29.477
29.4876
29.4981
29.5087
29.5193
29.5299
29.5405
29.5511
29.5617
29.5722
29.5828
29.5934
29.604
29.6146
29.6251
29.6357
29.6463
29.6569
29.6674
29.678
29.6886
29.6992
29.7097
29.7203
29.7309
29.7415
29.752
29.7626
29.7732
29.7838
29.7943
29.8049
29.8155
29.8261
29.8366
29.8472
29.8578
29.8683
29.8789
29.8895
29.9001
29.9106
29.9212
29.9318
29.9424
29.9529
29.9635
29.9741
29.9847
29.9953
30.0058
30.0164
30.027
30.0376
30.0481
30.0587
30.0693
30.0799
30.0905
30.1011
30.1116
30.1222
30.1328
30.1434
30.154
30.1646
30.1751
30.1857
30.1963
30.2069
30.2175
30.2281
30.2387
30.2493
30.2599
30.2705
30.281
30.2916
30.3022
30.3128
30.3234
30.334
30.3446
30.3552
30.3658
30.3764
30.387
30.3976
30.4082
30.4188
30.4295
30.4401
30.4507
30.4613
30.4719
30.4825
30.4931
30.5037
30.5143
30.5249
30.5356
30.5462
30.5568
30.5674
30.578
30.5887
30.5993
30.6099
30.6205
30.6311
30.6418
30.6524
30.663
30.6737
30.6843
30.6949
30.7056
30.7162
30.7268
30.7375
30.7481
30.7587
30.7694
30.78
30.7906
30.8013
30.8119
30.8226
30.8332
30.8439
30.8545
30.8652
30.8758
30.8865
30.8971
30.9078
30.9184
30.9291
30.9397
30.9504
30.961
30.9717
30.9824
30.993
31.0037
31.0143
31.025
31.0357
31.0463
31.057
31.0677
31.0783
31.089
31.0997
31.1104
31.121
31.1317
31.1424
31.1531
31.1637
31.1744
31.1851
31.1958
31.2065
31.2172
31.2278
31.2385
31.2492
31.2599
31.2706
31.2813
31.292
31.3027
31.3134
31.3241
31.3348
31.3455
31.3562
31.3669
31.3776
31.3883
31.399
31.4097
31.4204
31.4311
31.4418
31.4525
31.4632
31.4739
31.4847
31.4954
31.5061
31.5168
31.5275
31.5382
31.549
31.5597
31.5704
31.5811
31.5919
31.6026
31.6133
31.624
31.6348
31.6455
31.6562
31.667
31.6777
31.6884
31.6992
31.7099
31.7206
31.7314
31.7421
31.7529
31.7636
31.7744
31.7851
31.7958
31.8066
31.8173
31.8281
31.8388
31.8496
31.8604
31.8711
31.8819
31.8926
31.9034
31.9141
31.9249
31.9357
31.9464
31.9572
31.968
31.9787
31.9895
32.0003
32.011
32.0218
32.0326
32.0434
32.0541
32.0649
32.0757
32.0865
32.0972
32.108
32.1188
32.1296
32.1404
32.1512
32.1619
32.1727
32.1835
32.1943
32.2051
32.2159
32.2267
32.2375
32.2483
32.2591
32.2699
32.2807
32.2915
32.3023
32.3131
32.3239
32.3347
32.3455
32.3563
32.3671
32.3779
32.3887
32.3995
32.4104
32.4212
32.432
32.4428
32.4536
32.4644
32.4753
32.4861
32.4969
32.5077
32.5186
32.5294
32.5402
32.551
32.5619
32.5727
32.5835
32.5944
32.6052
32.616
32.6269
32.6377
32.6486
32.6594
32.6702
32.6811
32.6919
32.7028
32.7136
32.7245
32.7353
32.7462
32.757
32.7679
32.7787
32.7896
32.8004
32.8113
32.8221
32.833
32.8439
32.8547
32.8656
32.8764
32.8873
32.8982
32.909
32.9199
32.9308
32.9416
32.9525
32.9634
32.9743
32.9851
32.996
33.0069
33.0178
33.0287
33.0395
33.0504
33.0613
33.0722
33.0831
33.094
33.1048
33.1157
33.1266
33.1375
33.1484
33.1593
33.1702
33.1811
33.192
33.2029
33.2138
33.2247
33.2356
33.2465
33.2574
33.2683
33.2792
33.2901
33.301
33.3119
33.3229
33.3338
33.3447
33.3556
33.3665
33.3774
33.3883
33.3993
33.4102
33.4211
33.432
33.443
33.4539
33.4648
33.4757
33.4867
33.4976
33.5085
33.5195
33.5304
33.5413
33.5523
33.5632
33.5741
33.5851
33.596
33.607
33.6179
33.6288
33.6398
33.6507
33.6617
33.6726
33.6836
33.6945
33.7055
33.7164
33.7274
33.7384
33.7493
33.7603
33.7712
33.7822
33.7932
33.8041
33.8151
33.826
33.837
33.848
33.8589
33.8699
33.8809
33.8919
33.9028
33.9138
33.9248
33.9358
33.9467
33.9577
33.9687
33.9797
33.9907
34.0017
34.0126
34.0236
34.0346
34.0456
34.0566
34.0676
34.0786
34.0896
34.1006
34.1116
34.1226
34.1336
34.1446
34.1556
34.1666
34.1776
34.1886
34.1996
34.2106
34.2216
34.2326
34.2436
34.2546
34.2656
34.2767
34.2877
34.2987
34.3097
34.3207
34.3317
34.3428
34.3538
34.3648
34.3758
34.3869
34.3979
34.4089
34.4199
34.431
34.442
34.453
34.4641
34.4751
34.4861
34.4972
34.5082
34.5193
34.5303
34.5413
34.5524
34.5634
34.5745
34.5855
34.5966
34.6076
34.6187
34.6297
34.6408
34.6518
34.6629
34.6739
34.685
34.6961
34.7071
34.7182
34.7292
34.7403
34.7514
34.7624
34.7735
34.7846
34.7956
34.8067
34.8178
34.8289
34.8399
34.851
34.8621
34.8732
34.8843
34.8953
34.9064
34.9175
34.9286
34.9397
34.9508
34.9618
34.9729
34.984
34.9951
35.0062
35.0173
35.0284
35.0395
35.0506
35.0617
35.0728
35.0839
35.095
35.1061
35.1172
35.1283
35.1394
35.1505
35.1616
35.1727
35.1838
35.195
35.2061
35.2172
35.2283
35.2394
35.2505
35.2617
35.2728
35.2839
35.295
35.3062
35.3173
35.3284
35.3395
35.3507
35.3618
35.3729
35.3841
35.3952
35.4063
35.4175
35.4286
35.4397
35.4509
35.462
35.4732
35.4843
35.4955
35.5066
35.5177
35.5289
35.54
35.5512
35.5624
35.5735
35.5847
35.5958
35.607
35.6181
35.6293
35.6405
35.6516
35.6628
35.6739
35.6851
35.6963
35.7074
35.7186
35.7298
35.741
35.7521
35.7633
35.7745
35.7856
35.7968
35.808
35.8192
35.8304
35.8415
35.8527
35.8639
35.8751
35.8863
35.8975
35.9087
35.9199
35.931
35.9422
35.9534
35.9646
35.9758
35.987
35.9982
36.0094
36.0206
36.0318
36.043
36.0542
36.0654
36.0767
36.0879
36.0991
36.1103
36.1215
36.1327
36.1439
36.1551
36.1664
36.1776
36.1888
36.2
36.2112
36.2225
36.2337
36.2449
36.2561
36.2674
36.2786
36.2898
36.3011
36.3123
36.3235
36.3348
36.346
36.3572
36.3685
36.3797
36.3909
36.4022
36.4134
36.4247
36.4359
36.4472
36.4584
36.4697
36.4809
36.4922
36.5034
36.5147
36.5259
36.5372
36.5485
36.5597
36.571
36.5822
36.5935
36.6048
36.616
36.6273
36.6386
36.6498
36.6611
36.6724
36.6836
36.6949
36.7062
36.7175
36.7287
36.74
36.7513
36.7626
36.7739
36.7851
36.7964
36.8077
36.819
36.8303
36.8416
36.8529
36.8642
36.8755
36.8868
36.898
36.9093
36.9206
36.9319
36.9432
36.9545
36.9658
36.9771
36.9885
36.9998
37.0111
37.0224
37.0337
37.045
37.0563
37.0676
37.0789
37.0903
37.1016
37.1129
37.1242
37.1355
37.1469
37.1582
37.1695
37.1808
37.1922
37.2035
37.2148
37.2261
37.2375
37.2488
37.2601
37.2715
37.2828
37.2941
37.3055
37.3168
37.3282
37.3395
37.3509
37.3622
37.3735
37.3849
37.3962
37.4076
37.4189
37.4303
37.4417
37.453
37.4644
37.4757
37.4871
37.4984
37.5098
37.5212
37.5325
37.5439
37.5553
37.5666
37.578
37.5894
37.6007
37.6121
37.6235
37.6348
37.6462
37.6576
37.669
37.6804
37.6917
37.7031
37.7145
37.7259
37.7373
37.7487
37.76
37.7714
37.7828
37.7942
37.8056
37.817
37.8284
37.8398
37.8512
37.8626
37.874
37.8854
37.8968
37.9082
37.9196
37.931
37.9424
37.9538
37.9652
37.9766
37.9881
37.9995
38.0109
38.0223
38.0337
38.0451
38.0565
38.068
38.0794
38.0908
38.1022
38.1137
38.1251
38.1365
38.1479
38.1594
38.1708
38.1822
38.1937
38.2051
38.2165
38.228
38.2394
38.2509
38.2623
38.2737
38.2852
38.2966
38.3081
38.3195
38.331
38.3424
38.3539
38.3653
38.3768
38.3882
38.3997
38.4111
38.4226
38.4341
38.4455
38.457
38.4685
38.4799
38.4914
38.5028
38.5143
38.5258
38.5373
38.5487
38.5602
38.5717
38.5832
38.5946
38.6061
38.6176
38.6291
38.6405
38.652
38.6635
38.675
38.6865
38.698
38.7095
38.721
38.7324
38.7439
38.7554
38.7669
38.7784
38.7899
38.8014
38.8129
38.8244
38.8359
38.8474
38.8589
38.8704
38.8819
38.8934
38.905
38.9165
38.928
38.9395
38.951
38.9625
38.974
38.9856
38.9971
39.0086
39.0201
39.0316
39.0432
39.0547
39.0662
39.0778
39.0893
39.1008
39.1123
39.1239
39.1354
39.1469
39.1585
39.17
39.1816
39.1931
39.2046
39.2162
39.2277
39.2393
39.2508
39.2624
39.2739
39.2855
39.297
39.3086
39.3201
39.3317
39.3432
39.3548
39.3664
39.3779
39.3895
39.401
39.4126
39.4242
39.4357
39.4473
39.4589
39.4704
39.482
39.4936
39.5052
39.5167
39.5283
39.5399
39.5515
39.563
39.5746
39.5862
39.5978
39.6094
39.621
39.6325
39.6441
39.6557
39.6673
39.6789
39.6905
39.7021
39.7137
39.7253
39.7369
39.7485
39.7601
39.7717
39.7833
39.7949
39.8065
39.8181
39.8297
39.8413
39.8529
39.8645
39.8762
39.8878
39.8994
39.911
39.9226
39.9342
39.9459
39.9575
39.9691
39.9807
39.9924
40.004
40.0156
40.0272
40.0389
40.0505
40.0621
40.0738
40.0854
40.097
40.1087
40.1203
40.1319
40.1436
40.1552
40.1669
40.1785
40.1902
40.2018
40.2135
40.2251
40.2368
40.2484
40.2601
40.2717
40.2834
40.295
40.3067
40.3184
40.33
40.3417
40.3533
40.365
40.3767
40.3883
40.4
40.4117
40.4233
40.435
40.4467
40.4584
40.47
40.4817
40.4934
40.5051
40.5168
40.5284
40.5401
40.5518
40.5635
40.5752
40.5869
40.5986
40.6102
40.6219
40.6336
40.6453
40.657
40.6687
40.6804
40.6921
40.7038
40.7155
40.7272
40.7389
40.7506
40.7623
40.774
40.7858
40.7975
40.8092
40.8209
40.8326
40.8443
40.856
40.8677
40.8795
40.8912
40.9029
40.9146
40.9264
40.9381
40.9498
40.9615
40.9733
40.985
40.9967
41.0085
41.0202
41.0319
41.0437
41.0554
41.0671
41.0789
41.0906
41.1024
41.1141
41.1258
41.1376
41.1493
41.1611
41.1728
41.1846
41.1963
41.2081
41.2199
41.2316
41.2434
41.2551
41.2669
41.2786
41.2904
41.3022
41.3139
41.3257
41.3375
41.3492
41.361
41.3728
41.3845
41.3963
41.4081
41.4199
41.4316
41.4434
41.4552
41.467
41.4788
41.4906
41.5023
41.5141
41.5259
41.5377
41.5495
41.5613
41.5731
41.5849
41.5967
41.6085
41.6203
41.6321
41.6439
41.6557
41.6675
41.6793
41.6911
41.7029
41.7147
41.7265
41.7383
41.7501
41.7619
41.7737
41.7855
41.7974
41.8092
41.821
41.8328
41.8446
41.8565
41.8683
41.8801
41.8919
41.9038
41.9156
41.9274
41.9393
41.9511
41.9629
41.9748
41.9866
41.9984
42.0103
42.0221
42.0339
42.0458
42.0576
42.0695
42.0813
42.0932
42.105
42.1169
42.1287
42.1406
42.1524
42.1643
42.1761
42.188
42.1999
42.2117
42.2236
42.2354
42.2473
42.2592
42.271
42.2829
42.2948
42.3066
42.3185
42.3304
42.3423
42.3541
42.366
42.3779
42.3898
42.4016
42.4135
42.4254
42.4373
42.4492
42.4611
42.473
42.4848
42.4967
42.5086
42.5205
42.5324
42.5443
42.5562
42.5681
42.58
42.5919
42.6038
42.6157
42.6276
42.6395
42.6514
42.6633
42.6752
42.6871
42.6991
42.711
42.7229
42.7348
42.7467
42.7586
42.7706
42.7825
42.7944
42.8063
42.8182
42.8302
42.8421
42.854
42.866
42.8779
42.8898
42.9018
42.9137
42.9256
42.9376
42.9495
42.9614
42.9734
42.9853
42.9973
43.0092
43.0212
43.0331
43.045
43.057
43.069
43.0809
43.0929
43.1048
43.1168
43.1287
43.1407
43.1526
43.1646
43.1766
43.1885
43.2005
43.2125
43.2244
43.2364
43.2484
43.2603
43.2723
43.2843
43.2963
43.3082
43.3202
43.3322
43.3442
43.3562
43.3681
43.3801
43.3921
43.4041
43.4161
43.4281
43.4401
43.4521
43.464
43.476
43.488
43.5
43.512
43.524
43.536
43.548
43.56
43.572
43.584
43.596
43.6081
43.6201
43.6321
43.6441
43.6561
43.6681
43.6801
43.6921
43.7042
43.7162
43.7282
43.7402
43.7522
43.7643
43.7763
43.7883
43.8004
43.8124
43.8244
43.8364
43.8485
43.8605
43.8726
43.8846
43.8966
43.9087
43.9207
43.9327
43.9448
43.9568
43.9689
43.9809
43.993
44.005
44.0171
44.0291
44.0412
44.0532
44.0653
44.0774
44.0894
44.1015
44.1135
44.1256
44.1377
44.1497
44.1618
44.1739
44.1859
44.198
44.2101
44.2221
44.2342
44.2463
44.2584
44.2704
44.2825
44.2946
44.3067
44.3188
44.3309
44.3429
44.355
44.3671
44.3792
44.3913
44.4034
44.4155
44.4276
44.4397
44.4518
44.4639
44.476
44.4881
44.5002
44.5123
44.5244
44.5365
44.5486
44.5607
44.5728
44.5849
44.597
44.6091
44.6213
44.6334
44.6455
44.6576
44.6697
44.6818
44.694
44.7061
44.7182
44.7303
44.7425
44.7546
44.7667
44.7789
44.791
44.8031
44.8153
44.8274
44.8395
44.8517
44.8638
44.876
44.8881
44.9002
44.9124
44.9245
44.9367
44.9488
44.961
44.9731
44.9853
44.9974
45.0096
45.0218
45.0339
45.0461
45.0582
45.0704
45.0826
45.0947
45.1069
45.1191
45.1312
45.1434
45.1556
45.1677
45.1799
45.1921
45.2043
45.2164
45.2286
45.2408
45.253
45.2652
45.2773
45.2895
45.3017
45.3139
45.3261
45.3383
45.3505
45.3627
45.3749
45.3871
45.3992
45.4114
45.4236
45.4358
45.448
45.4603
45.4725
45.4847
45.4969
45.5091
45.5213
45.5335
45.5457
45.5579
45.5701
45.5823
45.5946
45.6068
45.619
45.6312
45.6434
45.6557
45.6679
45.6801
45.6923
45.7046
45.7168
45.729
45.7413
45.7535
45.7657
45.778
45.7902
45.8025
45.8147
45.8269
45.8392
45.8514
45.8637
45.8759
45.8882
45.9004
45.9127
45.9249
45.9372
45.9494
45.9617
45.9739
45.9862
45.9984
46.0107
46.023
46.0352
46.0475
46.0598
46.072
46.0843
46.0966
46.1088
46.1211
46.1334
46.1457
46.1579
46.1702
46.1825
46.1948
46.2071
46.2193
46.2316
46.2439
46.2562
46.2685
46.2808
46.2931
46.3053
46.3176
46.3299
46.3422
46.3545
46.3668
46.3791
46.3914
46.4037
46.416
46.4283
46.4406
46.4529
46.4653
46.4776
46.4899
46.5022
46.5145
46.5268
46.5391
46.5514
46.5638
46.5761
46.5884
46.6007
46.6131
46.6254
46.6377
46.65
46.6624
46.6747
46.687
46.6994
46.7117
46.724
46.7364
46.7487
46.761
46.7734
46.7857
46.7981
46.8104
46.8228
46.8351
46.8475
46.8598
46.8722
46.8845
46.8969
46.9092
46.9216
46.9339
46.9463
46.9586
46.971
46.9834
46.9957
47.0081
47.0205
47.0328
47.0452
47.0576
47.0699
47.0823
47.0947
47.1071
47.1194
47.1318
47.1442
47.1566
47.169
47.1813
47.1937
47.2061
47.2185
47.2309
47.2433
47.2557
47.2681
47.2805
47.2929
47.3053
47.3176
47.33
47.3424
47.3548
47.3673
47.3797
47.3921
47.4045
47.4169
47.4293
47.4417
47.4541
47.4665
47.4789
47.4913
47.5038
47.5162
47.5286
47.541
47.5534
47.5659
47.5783
47.5907
47.6031
47.6156
47.628
47.6404
47.6529
47.6653
47.6777
47.6902
47.7026
47.7151
47.7275
47.7399
47.7524
47.7648
47.7773
47.7897
47.8022
47.8146
47.8271
47.8395
47.852
47.8644
47.8769
47.8893
47.9018
47.9143
47.9267
47.9392
47.9516
47.9641
47.9766
47.989
48.0015
48.014
48.0265
48.0389
48.0514
48.0639
48.0764
48.0888
48.1013
48.1138
48.1263
48.1388
48.1512
48.1637
48.1762
48.1887
48.2012
48.2137
48.2262
48.2387
48.2512
48.2637
48.2762
48.2887
48.3012
48.3137
48.3262
48.3387
48.3512
48.3637
48.3762
48.3887
48.4012
48.4137
48.4262
48.4387
48.4513
48.4638
48.4763
48.4888
48.5013
48.5139
48.5264
48.5389
48.5514
48.564
48.5765
48.589
48.6016
48.6141
48.6266
48.6392
48.6517
48.6642
48.6768
48.6893
48.7019
48.7144
48.727
48.7395
48.752
48.7646
48.7771
48.7897
48.8022
48.8148
48.8274
48.8399
48.8525
48.865
48.8776
48.8901
48.9027
48.9153
48.9278
48.9404
48.953
48.9655
48.9781
48.9907
49.0033
49.0158
49.0284
49.041
49.0536
49.0662
49.0787
49.0913
49.1039
49.1165
49.1291
49.1417
49.1543
49.1668
49.1794
49.192
49.2046
49.2172
49.2298
49.2424
49.255
49.2676
49.2802
49.2928
49.3054
49.318
49.3306
49.3432
49.3559
49.3685
49.3811
49.3937
49.4063
49.4189
49.4315
49.4442
49.4568
49.4694
49.482
49.4947
49.5073
49.5199
49.5325
49.5452
49.5578
49.5704
49.5831
49.5957
49.6083
49.621
49.6336
49.6463
49.6589
49.6715
49.6842
49.6968
49.7095
49.7221
49.7348
49.7474
49.7601
49.7727
49.7854
49.798
49.8107
49.8234
49.836
49.8487
49.8613
49.874
49.8867
49.8993
49.912
49.9247
49.9374
49.95
49.9627
49.9754
49.9881
50.0007
50.0134
50.0261
50.0388
50.0515
50.0641
50.0768
50.0895
50.1022
50.1149
50.1276
50.1403
50.153
50.1657
50.1783
50.191
50.2037
50.2164
50.2291
50.2418
50.2546
50.2673
50.28
50.2927
50.3054
50.3181
50.3308
50.3435
50.3562
50.3689
50.3817
50.3944
50.4071
50.4198
50.4325
50.4453
50.458
50.4707
50.4834
50.4962
50.5089
50.5216
50.5344
50.5471
50.5598
50.5726
50.5853
50.598
50.6108
50.6235
50.6363
50.649
50.6618
50.6745
50.6873
50.7
50.7128
50.7255
50.7383
50.751
50.7638
50.7765
50.7893
50.8021
50.8148
50.8276
50.8403
50.8531
50.8659
50.8786
50.8914
50.9042
50.9169
50.9297
50.9425
50.9553
50.968
50.9808
50.9936
51.0064
51.0192
51.032
51.0447
51.0575
51.0703
51.0831
51.0959
51.1087
51.1215
51.1343
51.1471
51.1599
51.1727
51.1855
51.1983
51.2111
51.2239
51.2367
51.2495
51.2623
51.2751
51.2879
51.3007
51.3135
51.3263
51.3391
51.352
51.3648
51.3776
51.3904
51.4032
51.4161
51.4289
51.4417
51.4545
51.4674
51.4802
51.493
51.5059
51.5187
51.5315
51.5444
51.5572
51.57
51.5829
51.5957
51.6086
51.6214
51.6342
51.6471
51.6599
51.6728
51.6856
51.6985
51.7113
51.7242
51.7371
51.7499
51.7628
51.7756
51.7885
51.8014
51.8142
51.8271
51.8399
51.8528
51.8657
51.8786
51.8914
51.9043
51.9172
51.9301
51.9429
51.9558
51.9687
51.9816
51.9945
52.0073
52.0202
52.0331
52.046
52.0589
52.0718
52.0847
52.0976
52.1105
52.1234
52.1363
52.1492
52.1621
52.175
52.1879
52.2008
52.2137
52.2266
52.2395
52.2524
52.2653
52.2782
52.2911
52.3041
52.317
52.3299
52.3428
52.3557
52.3687
52.3816
52.3945
52.4074
52.4204
52.4333
52.4462
52.4592
52.4721
52.485
52.498
52.5109
52.5238
52.5368
52.5497
52.5627
52.5756
52.5886
52.6015
52.6144
52.6274
52.6403
52.6533
52.6663
52.6792
52.6922
52.7051
52.7181
52.7311
52.744
52.757
52.7699
52.7829
52.7959
52.8088
52.8218
52.8348
52.8478
52.8607
52.8737
52.8867
52.8997
52.9127
52.9256
52.9386
52.9516
52.9646
52.9776
52.9906
53.0036
53.0165
53.0295
53.0425
53.0555
53.0685
53.0815
53.0945
53.1075
53.1205
53.1335
53.1465
53.1595
53.1725
53.1856
53.1986
53.2116
53.2246
53.2376
53.2506
53.2636
53.2767
53.2897
53.3027
53.3157
53.3287
53.3418
53.3548
53.3678
53.3808
53.3939
53.4069
53.4199
53.433
53.446
53.459
53.4721
53.4851
53.4982
53.5112
53.5243
53.5373
53.5503
53.5634
53.5764
53.5895
53.6025
53.6156
53.6287
53.6417
53.6548
53.6678
53.6809
53.6939
53.707
53.7201
53.7331
53.7462
53.7593
53.7723
53.7854
53.7985
53.8116
53.8246
53.8377
53.8508
53.8639
53.8769
53.89
53.9031
53.9162
53.9293
53.9424
53.9554
53.9685
53.9816
53.9947
54.0078
54.0209
54.034
54.0471
54.0602
54.0733
54.0864
54.0995
54.1126
54.1257
54.1388
54.1519
54.165
54.1781
54.1913
54.2044
54.2175
54.2306
54.2437
54.2568
54.27
54.2831
54.2962
54.3093
54.3225
54.3356
54.3487
54.3618
54.375
54.3881
54.4012
54.4144
54.4275
54.4406
54.4538
54.4669
54.4801
54.4932
54.5064
54.5195
54.5326
54.5458
54.5589
54.5721
54.5852
54.5984
54.6116
54.6247
54.6379
54.651
54.6642
54.6774
54.6905
54.7037
54.7168
54.73
54.7432
54.7564
54.7695
54.7827
54.7959
54.8091
54.8222
54.8354
54.8486
54.8618
54.875
54.8881
54.9013
54.9145
54.9277
54.9409
54.9541
54.9673
54.9805
54.9937
55.0069
55.0201
55.0332
55.0464
55.0597
55.0729
55.0861
55.0993
55.1125
55.1257
55.1389
55.1521
55.1653
55.1785
55.1917
55.205
55.2182
55.2314
55.2446
55.2578
55.2711
55.2843
55.2975
55.3107
55.324
55.3372
55.3504
55.3637
55.3769
55.3901
55.4034
55.4166
55.4299
55.4431
55.4563
55.4696
55.4828
55.4961
55.5093
55.5226
55.5358
55.5491
55.5623
55.5756
55.5888
55.6021
55.6154
55.6286
55.6419
55.6551
55.6684
55.6817
55.6949
55.7082
55.7215
55.7348
55.748
55.7613
55.7746
55.7879
55.8011
55.8144
55.8277
55.841
55.8543
55.8675
55.8808
55.8941
55.9074
55.9207
55.934
55.9473
55.9606
55.9739
55.9872