/*--------------------------------*- C++ -*----------------------------------*\
  =========                 |
  \\      /  F ield         | OpenFOAM: The Open Source CFD Toolbox
   \\    /   O peration     | Website:  https://openfoam.org
    \\  /    A nd           | Version:  9
     \\/     M anipulation  |
\*---------------------------------------------------------------------------*/
FoamFile
{
    format      ascii;
    class       volScalarField;
    location    "0.05";
    object      rho;
}
// * * * * * * * * * * * * * * * * * * * * * * * * * * * * * * * * * * * * * //

dimensions      [1 -3 0 0 0 0 0];

internalField   nonuniform List<scalar> 
10000
(
0.540359
0.540316
0.54029
0.540262
0.540234
0.540206
0.540179
0.540151
0.540123
0.540095
0.540067
0.540039
0.540011
0.539983
0.539956
0.539928
0.5399
0.539872
0.539844
0.539816
0.539788
0.539761
0.539733
0.539705
0.539677
0.539649
0.539622
0.539594
0.539566
0.539538
0.53951
0.539483
0.539455
0.539427
0.539399
0.539371
0.539344
0.539316
0.539288
0.53926
0.539232
0.539205
0.539177
0.539149
0.539121
0.539093
0.539066
0.539038
0.53901
0.538982
0.538954
0.538927
0.538899
0.538871
0.538843
0.538815
0.538787
0.538759
0.538732
0.538704
0.538676
0.538648
0.53862
0.538592
0.538565
0.538537
0.538509
0.538481
0.538453
0.538426
0.538398
0.53837
0.538342
0.538314
0.538287
0.538259
0.538231
0.538203
0.538175
0.538148
0.53812
0.538092
0.538064
0.538036
0.538008
0.537981
0.537953
0.537925
0.537898
0.53787
0.537842
0.537814
0.537786
0.537759
0.537731
0.537703
0.537675
0.537647
0.53762
0.537592
0.537564
0.537537
0.537509
0.537481
0.537454
0.537426
0.537398
0.537371
0.537343
0.537316
0.537288
0.53726
0.537232
0.537204
0.537176
0.537149
0.537121
0.537094
0.537066
0.537038
0.53701
0.536982
0.536954
0.536927
0.5369
0.536873
0.536845
0.536817
0.536788
0.53676
0.536732
0.536705
0.536679
0.536652
0.536624
0.536595
0.536567
0.536538
0.536511
0.536484
0.536458
0.53643
0.536402
0.536374
0.536345
0.536317
0.53629
0.536263
0.536236
0.536208
0.53618
0.536152
0.536124
0.536096
0.536069
0.536042
0.536014
0.535985
0.535957
0.53593
0.535904
0.535876
0.535848
0.535819
0.53579
0.535762
0.535737
0.535712
0.535685
0.535656
0.535626
0.535596
0.535567
0.53554
0.535516
0.535491
0.535463
0.535434
0.535405
0.535376
0.535347
0.535319
0.535292
0.535267
0.535244
0.535218
0.535189
0.535158
0.535128
0.535097
0.535068
0.535041
0.535019
0.534997
0.534968
0.534938
0.534908
0.534878
0.534848
0.53482
0.534793
0.534768
0.534748
0.534723
0.534693
0.534662
0.534631
0.534601
0.534572
0.534549
0.534528
0.5345
0.534469
0.534437
0.534407
0.534377
0.53435
0.534331
0.534308
0.534277
0.534246
0.534215
0.534184
0.534154
0.534128
0.534111
0.534089
0.534059
0.534028
0.533996
0.533965
0.533934
0.533906
0.533885
0.533866
0.533838
0.533807
0.533775
0.533745
0.533714
0.533687
0.533665
0.533641
0.533612
0.533582
0.533553
0.533529
0.533506
0.533477
0.533446
0.533416
0.533385
0.533357
0.533334
0.533312
0.533283
0.533252
0.533222
0.533191
0.533162
0.533136
0.533112
0.533088
0.533063
0.533041
0.533014
0.532984
0.532953
0.532922
0.53289
0.53286
0.532831
0.53281
0.53279
0.532761
0.53273
0.532698
0.532667
0.532636
0.532605
0.532578
0.532561
0.532549
0.532522
0.532491
0.532459
0.532427
0.532396
0.532365
0.532334
0.532305
0.532283
0.532265
0.532238
0.532207
0.532175
0.532144
0.532113
0.532084
0.53206
0.532048
0.532026
0.531995
0.531964
0.531933
0.531901
0.531871
0.531841
0.531816
0.531796
0.53177
0.53174
0.531709
0.53168
0.531654
0.531634
0.531608
0.531577
0.531546
0.531514
0.531483
0.531454
0.531428
0.53141
0.531385
0.531354
0.531323
0.531292
0.531262
0.531234
0.531214
0.531192
0.531162
0.531131
0.5311
0.53107
0.531042
0.531019
0.530999
0.530971
0.53094
0.53091
0.53088
0.530854
0.530835
0.53081
0.53078
0.530749
0.530718
0.530688
0.53066
0.53064
0.530619
0.530589
0.530558
0.530527
0.530496
0.530465
0.530436
0.530412
0.530395
0.530369
0.530339
0.530307
0.530276
0.530245
0.530216
0.53019
0.53017
0.530146
0.530117
0.530088
0.53006
0.530037
0.530015
0.529985
0.529954
0.529923
0.529892
0.529861
0.529831
0.529803
0.529785
0.52977
0.529742
0.529711
0.529679
0.529648
0.529618
0.529589
0.529566
0.529548
0.52952
0.529489
0.529458
0.529427
0.529396
0.529366
0.529338
0.529316
0.529298
0.529269
0.529238
0.529207
0.529177
0.529146
0.529117
0.52909
0.529074
0.529063
0.529036
0.529005
0.528974
0.528942
0.528911
0.52888
0.528849
0.528818
0.528787
0.528756
0.528726
0.528699
0.528682
0.528676
0.528653
0.528622
0.52859
0.528558
0.528527
0.528496
0.528466
0.52844
0.52842
0.528395
0.528364
0.528333
0.528302
0.528271
0.52824
0.528209
0.528181
0.528157
0.528149
0.528134
0.528105
0.528073
0.528041
0.528008
0.527977
0.527946
0.527915
0.527884
0.527853
0.527823
0.527797
0.527781
0.527774
0.527749
0.527718
0.527687
0.527655
0.527623
0.527593
0.527563
0.527535
0.527514
0.52749
0.527461
0.527431
0.527401
0.527372
0.527347
0.527327
0.5273
0.527269
0.527239
0.527207
0.527176
0.527146
0.527115
0.527085
0.527059
0.527043
0.527037
0.527013
0.526982
0.52695
0.526916
0.526884
0.526853
0.526822
0.526792
0.526762
0.526737
0.526723
0.526708
0.526679
0.526649
0.526617
0.526586
0.526555
0.526525
0.526496
0.526471
0.526453
0.526426
0.526395
0.526364
0.526334
0.526303
0.526274
0.526251
0.526232
0.526205
0.526174
0.526143
0.526112
0.526082
0.526051
0.526023
0.525999
0.525991
0.525975
0.525945
0.525914
0.525882
0.525851
0.52582
0.525789
0.52576
0.525733
0.525714
0.525689
0.525659
0.525629
0.525598
0.525568
0.525539
0.525514
0.525495
0.525468
0.525438
0.525407
0.525376
0.525344
0.525314
0.525283
0.525252
0.525223
0.525198
0.525187
0.525191
0.52517
0.525139
0.525107
0.525071
0.525037
0.525006
0.524975
0.524945
0.524914
0.524886
0.524864
0.524846
0.524819
0.524788
0.524758
0.524727
0.524697
0.524667
0.524642
0.524625
0.524601
0.524571
0.52454
0.52451
0.524479
0.52445
0.524425
0.524406
0.524382
0.524352
0.524322
0.524292
0.524263
0.524237
0.524217
0.524192
0.524162
0.524132
0.524101
0.524071
0.524042
0.524016
0.523998
0.523975
0.523945
0.523915
0.523884
0.523854
0.523825
0.523799
0.52378
0.523757
0.523727
0.523696
0.523665
0.523635
0.523604
0.523574
0.523545
0.523519
0.523505
0.523498
0.523472
0.523442
0.52341
0.523377
0.523346
0.523315
0.523285
0.523255
0.523227
0.523206
0.523187
0.523159
0.523129
0.523098
0.523068
0.523038
0.52301
0.522989
0.522968
0.522939
0.522909
0.522878
0.522847
0.522817
0.522786
0.522756
0.522726
0.522698
0.522678
0.522674
0.522657
0.522627
0.522596
0.522565
0.522535
0.522505
0.522478
0.522455
0.522428
0.522398
0.522368
0.522337
0.522307
0.522277
0.522249
0.522226
0.522207
0.522179
0.522149
0.522118
0.522088
0.522057
0.522027
0.521998
0.521973
0.521962
0.521953
0.521926
0.521895
0.521864
0.52183
0.521799
0.521768
0.521738
0.521709
0.521683
0.521663
0.521637
0.521607
0.521577
0.521546
0.521516
0.521485
0.521455
0.521425
0.521397
0.521374
0.52137
0.521357
0.521329
0.521298
0.521265
0.521229
0.521196
0.521165
0.521135
0.521104
0.521074
0.521046
0.521023
0.521017
0.521007
0.520979
0.520948
0.520916
0.520882
0.52085
0.52082
0.520789
0.52076
0.520732
0.52071
0.520693
0.520667
0.520637
0.520606
0.520576
0.520546
0.520517
0.520493
0.520471
0.520443
0.520413
0.520383
0.520353
0.520322
0.520292
0.520264
0.52024
0.520231
0.520219
0.520191
0.52016
0.520129
0.520097
0.520067
0.520036
0.520007
0.519979
0.519957
0.519935
0.519906
0.519875
0.519845
0.519815
0.519786
0.519759
0.519739
0.519719
0.51969
0.51966
0.51963
0.519599
0.519569
0.519539
0.519511
0.519486
0.519472
0.519451
0.519422
0.519392
0.519362
0.519332
0.519303
0.519279
0.519262
0.519237
0.519208
0.519177
0.519147
0.519117
0.519087
0.519058
0.519033
0.519014
0.518989
0.518959
0.518929
0.518899
0.518869
0.518841
0.518815
0.518797
0.518772
0.518742
0.518712
0.518681
0.518651
0.518621
0.51859
0.518561
0.518532
0.518508
0.518499
0.518494
0.518468
0.518437
0.518406
0.518371
0.518338
0.518307
0.518277
0.518248
0.51822
0.518197
0.518177
0.51815
0.51812
0.51809
0.51806
0.518029
0.517999
0.51797
0.517941
0.517917
0.517909
0.5179
0.517873
0.517843
0.517811
0.517775
0.517739
0.517708
0.517678
0.517648
0.517618
0.517589
0.517563
0.517549
0.517546
0.517524
0.517494
0.517463
0.51743
0.517398
0.517367
0.517337
0.517308
0.51728
0.517258
0.517234
0.517204
0.517174
0.517144
0.517114
0.517084
0.517054
0.517025
0.516997
0.516976
0.516973
0.51696
0.516931
0.516901
0.516868
0.516833
0.516802
0.516772
0.516742
0.516712
0.516684
0.516663
0.516644
0.516616
0.516586
0.516556
0.516526
0.516496
0.516466
0.516436
0.516408
0.516382
0.51637
0.516364
0.516339
0.516309
0.516278
0.516244
0.516211
0.516181
0.516151
0.516121
0.516093
0.516068
0.51605
0.516024
0.515994
0.515964
0.515934
0.515904
0.515875
0.515848
0.515829
0.515816
0.515791
0.515761
0.515731
0.515701
0.515671
0.515641
0.515612
0.515582
0.515554
0.515528
0.515505
0.515484
0.515464
0.515442
0.515414
0.515384
0.515354
0.515325
0.515295
0.515265
0.515235
0.515205
0.515175
0.515147
0.515122
0.515108
0.515094
0.515067
0.515037
0.515007
0.514977
0.514947
0.514917
0.514887
0.514857
0.514827
0.514798
0.514768
0.514739
0.514713
0.514697
0.514695
0.514674
0.514644
0.514614
0.51458
0.514545
0.514513
0.514483
0.514453
0.514424
0.514398
0.514378
0.514368
0.514344
0.514315
0.514285
0.514255
0.514225
0.514196
0.514168
0.514144
0.514119
0.514091
0.514061
0.514031
0.514002
0.513973
0.513945
0.513924
0.513908
0.513882
0.513852
0.513822
0.513792
0.513762
0.513732
0.513703
0.513673
0.513646
0.513623
0.513615
0.513599
0.513571
0.513541
0.51351
0.513478
0.513447
0.513418
0.513388
0.513358
0.513329
0.513303
0.513283
0.513268
0.513241
0.513212
0.513182
0.513152
0.513123
0.513094
0.513067
0.513046
0.513024
0.512996
0.512966
0.512936
0.512907
0.512878
0.512851
0.51283
0.512808
0.512779
0.51275
0.51272
0.512691
0.512661
0.512634
0.512611
0.512593
0.512568
0.512538
0.512508
0.512479
0.512449
0.51242
0.512393
0.512371
0.512359
0.512335
0.512306
0.512276
0.512246
0.512217
0.512187
0.512158
0.512129
0.512104
0.512083
0.512059
0.51203
0.512001
0.511971
0.511943
0.511916
0.511894
0.511873
0.511844
0.511815
0.511786
0.511756
0.511728
0.511701
0.511683
0.511667
0.511641
0.511611
0.511581
0.511551
0.511519
0.511489
0.511459
0.51143
0.5114
0.511372
0.511346
0.511332
0.511326
0.511302
0.511272
0.511242
0.51121
0.511178
0.511147
0.511118
0.511088
0.51106
0.511033
0.511013
0.510994
0.510967
0.510938
0.510908
0.510879
0.510849
0.510821
0.510796
0.510776
0.510749
0.51072
0.510691
0.510661
0.510632
0.510603
0.510575
0.510552
0.510543
0.510528
0.5105
0.51047
0.51044
0.510409
0.510378
0.510348
0.510318
0.510289
0.510259
0.51023
0.510201
0.510175
0.510155
0.510145
0.510123
0.510094
0.510065
0.510035
0.510005
0.509976
0.509946
0.509917
0.509888
0.509859
0.509834
0.509818
0.509802
0.509775
0.509745
0.509716
0.509686
0.509657
0.509628
0.5096
0.509575
0.509552
0.509524
0.509495
0.509465
0.509436
0.509407
0.509377
0.509348
0.509321
0.509298
0.50929
0.509275
0.509247
0.509217
0.509187
0.509155
0.509125
0.509095
0.509066
0.509037
0.509008
0.508983
0.508966
0.508948
0.50892
0.508891
0.508861
0.508831
0.508802
0.508772
0.508743
0.508714
0.508686
0.508662
0.50865
0.508633
0.508606
0.508576
0.508547
0.508516
0.508484
0.508454
0.508425
0.508395
0.508366
0.508337
0.508308
0.50828
0.508257
0.50825
0.508245
0.50822
0.50819
0.50816
0.508126
0.508092
0.508062
0.508032
0.508003
0.507975
0.507947
0.507924
0.507903
0.507877
0.507848
0.507819
0.507791
0.507764
0.507743
0.507725
0.507699
0.50767
0.507641
0.507611
0.507581
0.507552
0.507523
0.507493
0.507465
0.507438
0.507417
0.507408
0.507389
0.507361
0.507332
0.507302
0.507271
0.507241
0.507212
0.507182
0.507154
0.507126
0.507104
0.507085
0.507058
0.507029
0.507
0.50697
0.506941
0.506912
0.506883
0.506855
0.506829
0.506811
0.5068
0.506775
0.506747
0.506717
0.506687
0.506656
0.506626
0.506596
0.506567
0.506538
0.506509
0.50648
0.506452
0.506429
0.50642
0.506413
0.506387
0.506358
0.506328
0.506296
0.506263
0.506233
0.506204
0.506175
0.506146
0.50612
0.506101
0.50608
0.506052
0.506023
0.505994
0.505965
0.505937
0.505909
0.505886
0.505861
0.505833
0.505804
0.505775
0.505747
0.505718
0.505691
0.505671
0.505661
0.50564
0.505612
0.505583
0.505553
0.505524
0.505494
0.505465
0.505436
0.505407
0.505378
0.505349
0.505323
0.505301
0.505289
0.505268
0.505239
0.50521
0.505181
0.505152
0.505123
0.505094
0.505065
0.505036
0.505007
0.504981
0.504959
0.504939
0.504913
0.504885
0.504858
0.504832
0.504809
0.504782
0.504754
0.504725
0.504696
0.504666
0.504637
0.504608
0.50458
0.504551
0.504523
0.504499
0.504489
0.504482
0.504457
0.504428
0.504398
0.504366
0.50433
0.504296
0.504267
0.504238
0.504209
0.50418
0.504151
0.504125
0.504104
0.504103
0.504092
0.504065
0.504036
0.504006
0.503972
0.503939
0.503909
0.50388
0.503851
0.503823
0.503797
0.503774
0.503747
0.503719
0.50369
0.503661
0.503632
0.503603
0.503574
0.503545
0.503517
0.503493
0.503479
0.50348
0.50346
0.503431
0.503402
0.50337
0.503334
0.503301
0.503271
0.503242
0.503213
0.503184
0.503156
0.50313
0.50311
0.503097
0.503073
0.503044
0.503016
0.502986
0.502956
0.502927
0.502898
0.502869
0.50284
0.502812
0.502786
0.502766
0.502761
0.502745
0.502717
0.502688
0.502658
0.502626
0.502595
0.502566
0.502537
0.502509
0.50248
0.502454
0.502429
0.502402
0.502373
0.502345
0.502316
0.502287
0.502258
0.50223
0.502203
0.50218
0.502173
0.502167
0.502141
0.502112
0.502082
0.502049
0.502011
0.501977
0.501947
0.501919
0.50189
0.501862
0.501837
0.501823
0.501822
0.501802
0.501774
0.501744
0.501713
0.501679
0.501647
0.501618
0.501589
0.50156
0.501532
0.501507
0.501486
0.501461
0.501433
0.501404
0.501376
0.501347
0.501319
0.501291
0.501265
0.501243
0.501218
0.501191
0.501163
0.501136
0.501111
0.501096
0.50108
0.501053
0.501025
0.500996
0.500966
0.500934
0.5009
0.500869
0.50084
0.500812
0.500783
0.500756
0.500732
0.500722
0.500722
0.5007
0.500672
0.500642
0.500611
0.500576
0.500545
0.500516
0.500487
0.500458
0.50043
0.500403
0.500378
0.50035
0.500322
0.500294
0.500265
0.500237
0.500209
0.500184
0.500167
0.500165
0.500148
0.50012
0.500091
0.500061
0.500027
0.499993
0.499963
0.499935
0.499906
0.499878
0.499849
0.499821
0.499794
0.499772
0.49976
0.49974
0.499713
0.499684
0.499655
0.499626
0.499596
0.499566
0.499538
0.499509
0.499481
0.499452
0.499424
0.499399
0.49938
0.499375
0.499356
0.499328
0.499299
0.49927
0.499239
0.499207
0.499178
0.49915
0.499121
0.499093
0.499066
0.499043
0.499023
0.498997
0.498968
0.49894
0.498912
0.498883
0.498856
0.498832
0.498816
0.498795
0.498768
0.498739
0.498711
0.498682
0.498652
0.498624
0.498595
0.498567
0.498539
0.498512
0.498491
0.498479
0.498457
0.498429
0.498401
0.498372
0.498342
0.49831
0.498279
0.49825
0.498221
0.498193
0.498165
0.498137
0.498112
0.498097
0.498095
0.498076
0.498047
0.498019
0.497988
0.497953
0.497917
0.497887
0.497858
0.49783
0.497802
0.497776
0.497757
0.497754
0.497739
0.497712
0.497683
0.497654
0.497621
0.497584
0.497553
0.497524
0.497495
0.497467
0.497439
0.497412
0.497389
0.497376
0.497357
0.49733
0.497302
0.497273
0.497244
0.497215
0.497187
0.497158
0.49713
0.497102
0.497076
0.497058
0.49705
0.497029
0.497002
0.496973
0.496944
0.496914
0.496881
0.49685
0.496822
0.496793
0.496765
0.496737
0.496709
0.496684
0.496668
0.496655
0.496631
0.496603
0.496574
0.496546
0.496517
0.496489
0.49646
0.496432
0.496404
0.496377
0.496352
0.496326
0.496298
0.496269
0.496241
0.496213
0.496184
0.496156
0.496129
0.496104
0.496087
0.496088
0.496073
0.496046
0.496018
0.495988
0.495956
0.495922
0.495892
0.495863
0.495835
0.495806
0.495778
0.49575
0.495722
0.495694
0.495665
0.495637
0.49561
0.495585
0.495566
0.495562
0.495547
0.49552
0.495492
0.495463
0.495434
0.495402
0.495371
0.495343
0.495314
0.495286
0.495258
0.49523
0.495204
0.495183
0.49516
0.495133
0.495105
0.495076
0.495048
0.49502
0.494993
0.494966
0.494942
0.494928
0.494914
0.494888
0.49486
0.494832
0.494804
0.494775
0.494747
0.494718
0.49469
0.494662
0.494634
0.494606
0.494578
0.49455
0.494525
0.494506
0.494493
0.494469
0.494442
0.494413
0.494385
0.494356
0.494328
0.4943
0.494271
0.494243
0.494216
0.494191
0.494171
0.494148
0.494121
0.494093
0.494064
0.494036
0.494008
0.49398
0.493952
0.493924
0.493896
0.493871
0.493851
0.493848
0.493834
0.493807
0.493779
0.49375
0.493719
0.493687
0.493657
0.493629
0.493601
0.493573
0.493545
0.493517
0.493489
0.493463
0.493438
0.493412
0.493385
0.493359
0.493334
0.493316
0.493299
0.493273
0.493245
0.493217
0.493188
0.49316
0.493129
0.4931
0.493072
0.493044
0.493016
0.492988
0.49296
0.492934
0.492911
0.492903
0.492897
0.492873
0.492845
0.492816
0.492787
0.492755
0.492721
0.492692
0.492664
0.492636
0.492608
0.49258
0.492552
0.492524
0.492497
0.492473
0.492459
0.492449
0.492426
0.492398
0.49237
0.492342
0.492314
0.492285
0.492257
0.492229
0.492201
0.492174
0.492146
0.492121
0.492097
0.49207
0.492041
0.492013
0.491985
0.491958
0.49193
0.491902
0.491876
0.491853
0.491841
0.491829
0.491804
0.491776
0.491748
0.491719
0.49169
0.491661
0.491633
0.491605
0.491577
0.49155
0.491523
0.491499
0.491472
0.491444
0.491416
0.491388
0.49136
0.491333
0.491306
0.491282
0.491267
0.491259
0.491236
0.491208
0.49118
0.491151
0.491121
0.491088
0.491057
0.491029
0.491001
0.490973
0.490947
0.490925
0.490915
0.4909
0.490875
0.490847
0.490819
0.490791
0.490761
0.490728
0.490696
0.490667
0.490638
0.49061
0.490581
0.490553
0.490526
0.490498
0.490473
0.490451
0.490446
0.490441
0.490417
0.490389
0.490361
0.490331
0.490298
0.490257
0.490223
0.490193
0.490165
0.490137
0.490109
0.490082
0.490058
0.490043
0.490048
0.490039
0.490013
0.489986
0.489958
0.489928
0.489892
0.489853
0.48982
0.489791
0.489762
0.489733
0.489705
0.489677
0.489649
0.489622
0.489596
0.489569
0.489545
0.489527
0.489526
0.489515
0.489488
0.489459
0.48943
0.4894
0.489366
0.489336
0.489308
0.489281
0.489254
0.489228
0.489204
0.489184
0.489159
0.489131
0.489103
0.489074
0.489044
0.489015
0.488987
0.48896
0.488934
0.48891
0.488896
0.488885
0.488861
0.488834
0.488806
0.488777
0.488748
0.488718
0.488688
0.48866
0.488632
0.488606
0.488582
0.488563
0.48854
0.488514
0.488487
0.48846
0.488432
0.488404
0.488374
0.488346
0.488317
0.488289
0.488264
0.488248
0.488234
0.48821
0.488184
0.488157
0.48813
0.488103
0.488076
0.488048
0.48802
0.487992
0.487964
0.487939
0.487914
0.487886
0.487858
0.48783
0.487802
0.487775
0.487748
0.487722
0.487696
0.487673
0.487656
0.487656
0.487641
0.487614
0.487585
0.487556
0.487526
0.487493
0.487453
0.487419
0.487392
0.487365
0.487338
0.487312
0.487286
0.487259
0.487233
0.487209
0.487195
0.48719
0.487168
0.487141
0.487113
0.487086
0.487058
0.487028
0.486994
0.486963
0.486936
0.486908
0.48688
0.486853
0.486825
0.4868
0.486781
0.486767
0.486743
0.486716
0.486689
0.486662
0.486634
0.486606
0.486579
0.486552
0.486524
0.486497
0.486471
0.48645
0.486439
0.48642
0.486393
0.486365
0.486337
0.48631
0.486281
0.486251
0.486223
0.486195
0.486168
0.486141
0.486114
0.486087
0.486062
0.486037
0.486011
0.485984
0.485957
0.485932
0.48591
0.485896
0.485876
0.48585
0.485823
0.485795
0.485767
0.485738
0.485706
0.485674
0.485645
0.485618
0.48559
0.485563
0.485538
0.485517
0.485511
0.485506
0.485482
0.485454
0.485427
0.485398
0.485368
0.485333
0.485295
0.485265
0.485237
0.48521
0.485183
0.485155
0.485128
0.485103
0.485081
0.485072
0.48506
0.485035
0.485008
0.48498
0.484953
0.484924
0.484894
0.484865
0.484838
0.484811
0.484784
0.484757
0.484732
0.484712
0.484694
0.484668
0.484641
0.484613
0.484586
0.484558
0.484527
0.484496
0.484468
0.48444
0.484413
0.484386
0.484359
0.484336
0.484321
0.484322
0.484305
0.484279
0.484251
0.484223
0.484193
0.484157
0.484122
0.484094
0.484066
0.484039
0.484012
0.483985
0.483962
0.483948
0.483931
0.483905
0.483878
0.483851
0.483824
0.483796
0.483767
0.48374
0.483712
0.483685
0.483658
0.48363
0.483604
0.483579
0.483552
0.483524
0.483497
0.48347
0.483443
0.483417
0.483394
0.483379
0.483373
0.483352
0.483325
0.483297
0.48327
0.483241
0.483211
0.483183
0.483156
0.483129
0.483102
0.483076
0.483054
0.483034
0.483008
0.482981
0.482954
0.482926
0.482898
0.48287
0.482842
0.482815
0.482788
0.482762
0.482736
0.482715
0.482701
0.48268
0.482653
0.482626
0.482598
0.48257
0.482541
0.482513
0.482486
0.482459
0.482432
0.482406
0.482381
0.482357
0.482337
0.482317
0.482292
0.482265
0.482238
0.482212
0.482185
0.482157
0.48213
0.482103
0.482076
0.48205
0.482024
0.481998
0.481972
0.481946
0.481921
0.481898
0.481887
0.481873
0.481847
0.481819
0.481791
0.481764
0.481736
0.481706
0.481676
0.48165
0.481624
0.481597
0.481572
0.481545
0.481517
0.481489
0.48146
0.481431
0.481404
0.481378
0.481356
0.481345
0.481328
0.481305
0.48128
0.481255
0.481228
0.481201
0.481172
0.48114
0.481107
0.481075
0.481046
0.481018
0.480991
0.480965
0.480943
0.480933
0.480929
0.480908
0.480882
0.480856
0.480829
0.480801
0.48077
0.480736
0.480706
0.480678
0.48065
0.480623
0.480599
0.480584
0.480571
0.480549
0.480524
0.480498
0.480472
0.480445
0.480416
0.480383
0.48035
0.48032
0.480291
0.480264
0.480236
0.480209
0.480185
0.480166
0.480156
0.480138
0.480112
0.480086
0.480059
0.480031
0.480003
0.479974
0.479947
0.479919
0.479893
0.47987
0.47985
0.479826
0.4798
0.479773
0.479746
0.479718
0.479689
0.479659
0.479631
0.479603
0.479576
0.47955
0.479526
0.47951
0.479503
0.479484
0.479458
0.479431
0.479404
0.479376
0.479347
0.479316
0.479285
0.479258
0.47923
0.479203
0.479178
0.479154
0.479136
0.479119
0.479094
0.479068
0.479041
0.479013
0.478984
0.478954
0.478921
0.47889
0.478862
0.478835
0.478809
0.478784
0.478762
0.478746
0.478747
0.478739
0.478714
0.478686
0.478657
0.478627
0.478595
0.478557
0.478518
0.478488
0.478461
0.478435
0.478411
0.478388
0.478369
0.478356
0.478341
0.478316
0.478288
0.478259
0.478228
0.478196
0.478161
0.478125
0.478095
0.478068
0.478042
0.478019
0.477998
0.477983
0.477984
0.477983
0.47796
0.477932
0.477902
0.47787
0.477836
0.477797
0.477755
0.477724
0.477697
0.477671
0.477648
0.477626
0.47761
0.477603
0.47759
0.477565
0.477537
0.477508
0.477476
0.477443
0.477406
0.477372
0.477343
0.477316
0.477291
0.477268
0.477248
0.477237
0.477229
0.477207
0.47718
0.477152
0.477123
0.477092
0.477057
0.477018
0.476988
0.47696
0.476934
0.476909
0.476886
0.476869
0.476868
0.476863
0.476839
0.476812
0.476785
0.476756
0.476724
0.476686
0.476647
0.476618
0.47659
0.476564
0.476538
0.476514
0.476496
0.476488
0.47647
0.476444
0.476418
0.476391
0.476363
0.476333
0.476305
0.476278
0.476251
0.476224
0.476199
0.476178
0.476158
0.476133
0.476106
0.476079
0.476052
0.476025
0.475999
0.475973
0.475947
0.475922
0.475897
0.475871
0.475845
0.475817
0.475789
0.475761
0.475733
0.475706
0.475681
0.475661
0.475654
0.475641
0.475618
0.475592
0.475566
0.47554
0.475512
0.47548
0.475448
0.475418
0.475391
0.475363
0.475336
0.47531
0.475289
0.475272
0.47525
0.475224
0.475199
0.475173
0.475146
0.475119
0.475087
0.475055
0.475027
0.474999
0.474972
0.474945
0.474918
0.474893
0.474877
0.474873
0.474857
0.474832
0.474806
0.47478
0.474753
0.474725
0.474693
0.474664
0.474636
0.474609
0.474582
0.474556
0.474532
0.474517
0.474503
0.474479
0.474453
0.474426
0.4744
0.474373
0.474342
0.47431
0.474282
0.474256
0.474229
0.474202
0.474176
0.474154
0.474141
0.474124
0.474099
0.474073
0.474046
0.47402
0.473993
0.473966
0.47394
0.473914
0.473888
0.473862
0.473836
0.473812
0.473787
0.47376
0.473732
0.473705
0.473677
0.473651
0.473625
0.473599
0.473575
0.473555
0.473544
0.473526
0.4735
0.473474
0.473447
0.473419
0.473391
0.473361
0.473327
0.473295
0.473267
0.473241
0.473215
0.47319
0.473165
0.473141
0.473121
0.473111
0.473104
0.47308
0.473053
0.473026
0.472998
0.472969
0.472941
0.472911
0.472878
0.472849
0.472823
0.472798
0.472773
0.472749
0.472725
0.472701
0.47268
0.472667
0.472646
0.472619
0.472591
0.472563
0.472535
0.472507
0.472477
0.472445
0.472416
0.472391
0.472366
0.472342
0.472318
0.472294
0.47227
0.472251
0.472242
0.472224
0.472197
0.47217
0.472142
0.472115
0.472086
0.472053
0.472021
0.471994
0.471968
0.471943
0.471919
0.471896
0.471875
0.47186
0.471845
0.471819
0.471792
0.471765
0.471736
0.471706
0.471674
0.471642
0.471614
0.471587
0.471562
0.471538
0.471516
0.4715
0.471493
0.471475
0.47145
0.471424
0.471395
0.471365
0.471334
0.471299
0.471263
0.471234
0.471207
0.471181
0.471157
0.471137
0.471122
0.471118
0.471104
0.47108
0.471053
0.471023
0.470991
0.470956
0.470921
0.470891
0.470863
0.470837
0.470813
0.470792
0.470774
0.470759
0.470739
0.470716
0.470691
0.470662
0.470629
0.470593
0.470562
0.470533
0.470505
0.470481
0.470466
0.470453
0.470434
0.470414
0.470393
0.47037
0.470346
0.470319
0.470286
0.470252
0.470218
0.470187
0.470158
0.47013
0.470104
0.470084
0.470074
0.470064
0.470045
0.470022
0.469999
0.469974
0.469947
0.469914
0.469881
0.469852
0.469824
0.469797
0.469772
0.46975
0.469727
0.469701
0.469675
0.469649
0.469622
0.469595
0.469569
0.469543
0.469518
0.469493
0.469476
0.469468
0.469448
0.469423
0.469396
0.46937
0.469343
0.469312
0.469274
0.46924
0.469212
0.469185
0.469159
0.469134
0.46911
0.469093
0.46909
0.46908
0.469057
0.469031
0.469005
0.468978
0.468949
0.468918
0.468879
0.468841
0.468808
0.46878
0.468754
0.468728
0.468704
0.468682
0.468661
0.46864
0.468618
0.468598
0.468588
0.468595
0.468578
0.46855
0.46852
0.468488
0.468455
0.468421
0.468385
0.46834
0.468301
0.468277
0.468259
0.468247
0.46824
0.46822
0.468192
0.46816
0.468123
0.468091
0.46806
0.468032
0.468013
0.468005
0.467986
0.467962
0.46794
0.467923
0.467915
0.467908
0.467893
0.467859
0.467812
0.467771
0.467734
0.467698
0.467665
0.467635
0.467612
0.46759
0.467563
0.467537
0.467515
0.467501
0.4675
0.467497
0.467483
0.467451
0.467407
0.467368
0.467332
0.467296
0.467262
0.467232
0.467216
0.467205
0.46718
0.467154
0.467131
0.467117
0.467114
0.467111
0.467101
0.467071
0.467021
0.466979
0.466943
0.466906
0.466866
0.466823
0.466788
0.466758
0.46673
0.466708
0.466694
0.46669
0.466692
0.466702
0.466718
0.466708
0.466682
0.466646
0.466601
0.466538
0.466467
0.466423
0.466391
0.466361
0.466333
0.466308
0.466286
0.466271
0.466265
0.466273
0.466289
0.466283
0.466262
0.466237
0.46621
0.466178
0.466142
0.46609
0.46602
0.465973
0.465941
0.465913
0.465886
0.46586
0.465837
0.465816
0.465799
0.465789
0.465805
0.465841
0.465833
0.46581
0.465781
0.465749
0.465712
0.465659
0.465593
0.465549
0.465517
0.465489
0.465463
0.465437
0.465415
0.465394
0.465374
0.465354
0.465332
0.465309
0.465288
0.465275
0.465288
0.465287
0.465262
0.465233
0.465202
0.465166
0.465114
0.46505
0.465017
0.464994
0.464973
0.464955
0.464937
0.464922
0.464924
0.46493
0.464908
0.464879
0.464848
0.464814
0.464775
0.464724
0.464659
0.464621
0.464595
0.464574
0.464555
0.464539
0.464523
0.464513
0.464532
0.46457
0.464559
0.46453
0.4645
0.464465
0.464421
0.464355
0.464273
0.46423
0.464204
0.464181
0.464163
0.464147
0.464134
0.464119
0.464098
0.464074
0.464049
0.464028
0.46402
0.464039
0.464033
0.464007
0.463978
0.463949
0.463916
0.463865
0.463786
0.463746
0.463725
0.463706
0.463687
0.463667
0.463647
0.463634
0.463646
0.463653
0.463629
0.463599
0.463568
0.463533
0.463485
0.463412
0.463371
0.463348
0.463331
0.463316
0.463301
0.463284
0.463274
0.463291
0.463295
0.463268
0.463237
0.463205
0.463168
0.463116
0.463038
0.462995
0.462973
0.462956
0.462944
0.462934
0.462914
0.462887
0.462857
0.462827
0.462799
0.462778
0.462782
0.4628
0.462784
0.462762
0.462746
0.462732
0.462717
0.462679
0.462602
0.462543
0.462501
0.462466
0.462433
0.462398
0.462363
0.462332
0.462316
0.462339
0.462363
0.462354
0.462345
0.462345
0.462338
0.462325
0.462282
0.462184
0.462118
0.462079
0.462045
0.46201
0.461972
0.461936
0.461906
0.461878
0.461855
0.46184
0.461841
0.461876
0.461942
0.461955
0.461939
0.461912
0.461875
0.461821
0.461722
0.461614
0.461565
0.461535
0.461508
0.461484
0.461465
0.461453
0.461463
0.461522
0.46155
0.461531
0.461501
0.461465
0.461418
0.461351
0.461261
0.461213
0.461184
0.461161
0.461146
0.461141
0.461147
0.461182
0.46121
0.461191
0.461159
0.461118
0.461066
0.460995
0.460903
0.460844
0.460809
0.46078
0.460759
0.460747
0.46075
0.460781
0.460854
0.460885
0.460873
0.460841
0.460794
0.460724
0.46062
0.460528
0.460464
0.46042
0.460387
0.460362
0.460345
0.460349
0.460387
0.460435
0.460486
0.460504
0.460494
0.460464
0.460411
0.460312
0.460192
0.460121
0.460063
0.460018
0.459983
0.459956
0.459939
0.459944
0.459992
0.460041
0.460082
0.460102
0.460096
0.460073
0.460023
0.459923
0.459819
0.459767
0.459722
0.459683
0.45965
0.459623
0.459597
0.459572
0.459552
0.45954
0.459532
0.459526
0.459521
0.459533
0.459594
0.459611
0.459585
0.459551
0.459507
0.459445
0.459338
0.459219
0.459171
0.459143
0.459122
0.459107
0.459099
0.459108
0.459168
0.459245
0.459243
0.459217
0.459182
0.459137
0.45907
0.458954
0.458844
0.4588
0.458771
0.458747
0.458728
0.458716
0.458719
0.458769
0.458862
0.458876
0.458855
0.458826
0.458787
0.458735
0.458644
0.458507
0.45844
0.458407
0.458381
0.458358
0.458341
0.458332
0.458346
0.458424
0.458496
0.458491
0.458466
0.458434
0.458394
0.458336
0.458231
0.4581
0.458045
0.458015
0.45799
0.457969
0.457953
0.457946
0.457968
0.458052
0.458099
0.458086
0.458059
0.458025
0.457982
0.457916
0.4578
0.45771
0.45767
0.457641
0.457616
0.457595
0.457582
0.457585
0.457634
0.457698
0.457699
0.457678
0.457649
0.457612
0.457556
0.457454
0.45735
0.457303
0.457271
0.457243
0.457217
0.457198
0.457195
0.45723
0.457313
0.457347
0.457339
0.45732
0.457293
0.457255
0.457188
0.457054
0.456947
0.4569
0.456867
0.456838
0.456811
0.456789
0.456779
0.456803
0.456875
0.456918
0.456921
0.456907
0.456887
0.456858
0.456807
0.456709
0.45663
0.456589
0.456557
0.456526
0.456497
0.456472
0.45645
0.456428
0.456408
0.456393
0.456382
0.456373
0.45636
0.456343
0.456324
0.456311
0.456324
0.45634
0.456315
0.456281
0.456245
0.456201
0.456134
0.456019
0.455937
0.455907
0.455889
0.455886
0.455893
0.4559
0.455918
0.455983
0.456017
0.455993
0.455957
0.455914
0.455857
0.45577
0.455652
0.455587
0.455555
0.45553
0.455513
0.455507
0.455517
0.455556
0.455619
0.455622
0.455598
0.455561
0.455511
0.455438
0.455359
0.455305
0.455267
0.455235
0.455212
0.455211
0.455224
0.455217
0.455208
0.455197
0.455181
0.455155
0.455093
0.455023
0.454986
0.454958
0.454932
0.454909
0.454904
0.454944
0.454963
0.454942
0.454915
0.454887
0.454852
0.454787
0.454703
0.454665
0.45464
0.454617
0.454596
0.454582
0.454595
0.454625
0.454617
0.454596
0.454572
0.454544
0.454499
0.454424
0.45437