/*--------------------------------*- C++ -*----------------------------------*\
  =========                 |
  \\      /  F ield         | OpenFOAM: The Open Source CFD Toolbox
   \\    /   O peration     | Website:  https://openfoam.org
    \\  /    A nd           | Version:  9
     \\/     M anipulation  |
\*---------------------------------------------------------------------------*/
FoamFile
{
    format      ascii;
    class       volScalarField;
    location    "0.042";
    object      ddt0(p);
}
// * * * * * * * * * * * * * * * * * * * * * * * * * * * * * * * * * * * * * //

dimensions      [1 -1 -3 0 0 0 0];

internalField   nonuniform List<scalar> 
1000
(
-438658
-438563
-438437
-438330
-438234
-438136
-438033
-437926
-437816
-437703
-437589
-437476
-437364
-437254
-437143
-437031
-436917
-436803
-436690
-436575
-436460
-436344
-436226
-436107
-435987
-435866
-435741
-435614
-435488
-435366
-435248
-435130
-435010
-434889
-434768
-434644
-434511
-434372
-434232
-434095
-433965
-433838
-433706
-433573
-433443
-433311
-433173
-433032
-432886
-432741
-432607
-432475
-432335
-432185
-432028
-431871
-431725
-431583
-431436
-431297
-431167
-431011
-430823
-430633
-430495
-430344
-430180
-430034
-429881
-429788
-429568
-429365
-429136
-429024
-428882
-428689
-428519
-428374
-428199
-427994
-427797
-427618
-427441
-427262
-427081
-426894
-426703
-426513
-426319
-426116
-425910
-425706
-425504
-425302
-425098
-424890
-424687
-424470
-424264
-424062
-423825
-423602
-423414
-423130
-422957
-422668
-422415
-422270
-421978
-421769
-421478
-421279
-421007
-420810
-420458
-420200
-419988
-419749
-419373
-419150
-418917
-418623
-418286
-418112
-417707
-417448
-417198
-416897
-416531
-416223
-415957
-415596
-415339
-414951
-414599
-414328
-413925
-413652
-413251
-412836
-412518
-412129
-411819
-411441
-410992
-410699
-410136
-409816
-409381
-409001
-408538
-408168
-407727
-407318
-406838
-406445
-405837
-405391
-405036
-404722
-404098
-403500
-403070
-402569
-402313
-401584
-401080
-400538
-400041
-399752
-398869
-398388
-397887
-397428
-396885
-396092
-395504
-395081
-394562
-393621
-393886
-393272
-392436
-392229
-390195
-388983
-387902
-387019
-386228
-385389
-384725
-383917
-383187
-382399
-381618
-380795
-379936
-379073
-378197
-377295
-376372
-375433
-374485
-373525
-372539
-371527
-370497
-369456
-368405
-367330
-366231
-365123
-364009
-362883
-361737
-360565
-359379
-358190
-356984
-355754
-354505
-353245
-351980
-350707
-349418
-348112
-346797
-345471
-344134
-342781
-341415
-340040
-338660
-337276
-335888
-334494
-333097
-331697
-330295
-328889
-327480
-326070
-324659
-323253
-321852
-320461
-319078
-317705
-316340
-314982
-313633
-312294
-310970
-309663
-308379
-307119
-305883
-304673
-303485
-302319
-301175
-300054
-298958
-297890
-296852
-295847
-294877
-293944
-293048
-292188
-291363
-290573
-289817
-289094
-288405
-287752
-287135
-286556
-286014
-285512
-285048
-284622
-284231
-283873
-283548
-283255
-282994
-282763
-282564
-282396
-282258
-282150
-282072
-282022
-281997
-281996
-282018
-282061
-282124
-282208
-282311
-282433
-282573
-282730
-282905
-283095
-283299
-283515
-283742
-283980
-284228
-284486
-284754
-285031
-285316
-285610
-285910
-286218
-286531
-286850
-287174
-287501
-287833
-288168
-288508
-288851
-289198
-289547
-289898
-290253
-290610
-290969
-291330
-291692
-292055
-292419
-292785
-293153
-293522
-293892
-294264
-294637
-295011
-295387
-295764
-296141
-296518
-296895
-297273
-297652
-298033
-298414
-298797
-299181
-299565
-299949
-300333
-300717
-301101
-301483
-301866
-302249
-302633
-303020
-303408
-303798
-304189
-304580
-304971
-305362
-305753
-306143
-306533
-306922
-307312
-307702
-308094
-308487
-308881
-309276
-309671
-310067
-310462
-310857
-311253
-311648
-312043
-312438
-312834
-313230
-313628
-314027
-314426
-314826
-315226
-315625
-316024
-316424
-316823
-317223
-317622
-318022
-318422
-318823
-319225
-319627
-320030
-320432
-320835
-321238
-321641
-322046
-322451
-322856
-323262
-323668
-324074
-324481
-324889
-325297
-325706
-326114
-326522
-326930
-327338
-327747
-328156
-328566
-328977
-329387
-329798
-330209
-330621
-331034
-331446
-331859
-332270
-332682
-333095
-333508
-333922
-334337
-334752
-335168
-335585
-336002
-336420
-336838
-337257
-337675
-338093
-338512
-338930
-339349
-339769
-340190
-340611
-341033
-341455
-341877
-342300
-342724
-343148
-343573
-343998
-344423
-344849
-345275
-345702
-346130
-346559
-346987
-347415
-347844
-348273
-348702
-349132
-349563
-349994
-350425
-350857
-351289
-351723
-352157
-352592
-353028
-353464
-353900
-354336
-354773
-355211
-355650
-356089
-356528
-356967
-357407
-357847
-358288
-358729
-359171
-359613
-360056
-360498
-360941
-361384
-361828
-362273
-362718
-363164
-363610
-364056
-364504
-364951
-365400
-365850
-366300
-366750
-367200
-367651
-368103
-368556
-369009
-369463
-369917
-370372
-370827
-371282
-371738
-372195
-372652
-373109
-373567
-374025
-374482
-374941
-375400
-375861
-376322
-376783
-377245
-377708
-378171
-378635
-379100
-379566
-380031
-380498
-380964
-381430
-381898
-382365
-382834
-383302
-383772
-384242
-384712
-385183
-385654
-386127
-386600
-387074
-387549
-388024
-388500
-388976
-389454
-389931
-390410
-390889
-391368
-391848
-392327
-392808
-393288
-393770
-394252
-394734
-395217
-395699
-396184
-396667
-397153
-397638
-398125
-398612
-399098
-399587
-400073
-400563
-401050
-401542
-402031
-402522
-403014
-403503
-403998
-404488
-404985
-405477
-405973
-406469
-406963
-407461
-407955
-408455
-408950
-409450
-409948
-410447
-410948
-411445
-411948
-412447
-412950
-413452
-413955
-414459
-414962
-415468
-415971
-416478
-416983
-417492
-417998
-418506
-419014
-419521
-420031
-420537
-421049
-421556
-422068
-422575
-423085
-423593
-424102
-424612
-425119
-425631
-426137
-426647
-427152
-427661
-428167
-428673
-429180
-429683
-430189
-430688
-431192
-431692
-432190
-432692
-433185
-433683
-434175
-434667
-435157
-435644
-436132
-436613
-437097
-437574
-438050
-438524
-438991
-439461
-439922
-440384
-440839
-441291
-441740
-442181
-442623
-443054
-443486
-443907
-444325
-444738
-445139
-445541
-445929
-446314
-446692
-447058
-447420
-447769
-448111
-448444
-448766
-449080
-449382
-449673
-449954
-450222
-450478
-450724
-450954
-451174
-451380
-451570
-451748
-451909
-452056
-452187
-452304
-452401
-452484
-452550
-452595
-452626
-452638
-452630
-452606
-452562
-452497
-452414
-452313
-452189
-452047
-451887
-451704
-451501
-451281
-451037
-450774
-450495
-450191
-449870
-449533
-449171
-448794
-448401
-447984
-447555
-447111
-446646
-446169
-445680
-445173
-444655
-444130
-443589
-443041
-442489
-441927
-441359
-440791
-440220
-439646
-439077
-438512
-437949
-437395
-436853
-436317
-435798
-435295
-434809
-434340
-433900
-433481
-433091
-432728
-432403
-432104
-431849
-431631
-431455
-431319
-431237
-431194
-431206
-431269
-431387
-431557
-431788
-432072
-432411
-432802
-433322
-433836
-434451
-435085
-435869
-436599
-437473
-438359
-439370
-440422
-441530
-442704
-443927
-445212
-446560
-447964
-449428
-450948
-452512
-454124
-455780
-457482
-459229
-461016
-462834
-464686
-466571
-468484
-470425
-472390
-474375
-476378
-478396
-480431
-482416
-484556
-486602
-488609
-490682
-492811
-494746
-496878
-498875
-500848
-503013
-504859
-506894
-508933
-510850
-512786
-514753
-516629
-518411
-520413
-522218
-523964
-525770
-527604
-529253
-530991
-532710
-534367
-535972
-537586
-539164
-540756
-542281
-543781
-545287
-546735
-548160
-549583
-550974
-552319
-553655
-554987
-556282
-557545
-558799
-560035
-561237
-562421
-563587
-564728
-565849
-566956
-568039
-569093
-570124
-571132
-572108
-573054
-573971
-574855
-575699
-576501
-577255
-577953
-578591
-579166
-579667
-580088
-580422
-580660
-580790
-580806
-580694
-580447
-580055
-579512
-578806
-577931
-576882
-575651
-574236
-572637
-570851
-568884
-566742
-564434
-561971
-559369
-556646
-553822
-550924
-547977
-545011
-542057
-539149
-536319
-533603
-531032
-528642
-526461
-524521
-522844
-521455
-520367
-519599
-519126
-519015
-519244
-519794
-520650
-521806
-523247
-524945
-526874
-529011
-531336
-533820
-536438
-539167
-541987
-544873
-547807
-550767
-553742
-556714
-559674
-562611
-565520
-568395
-571230
-574023
-576771
-579472
-582126
-584731
-587290
-589802
-592269
-594687
-597116
-599418
-601779
-603998
-606238
-608458
-610638
-612785
-614891
-616978
-619039
-621056
-623078
-625060
-627012
-628967
-630885
-632781
-634652
-636511
-638348
-640166
-641979
-643767
-645536
-647296
-649036
-650758
-652474
-654167
-655845
-657517
-659175
-660819
-662456
-664074
-665670
-667271
-668868
-670424
-672000
-673552
-675078
-676605
-678122
-679651
-681097
)
;

boundaryField
{
    sides
    {
        type            calculated;
        value           nonuniform List<scalar> 2(-681097 -438658);
    }
    empty
    {
        type            empty;
    }
}


// ************************************************************************* //
