/*--------------------------------*- C++ -*----------------------------------*\
  =========                 |
  \\      /  F ield         | OpenFOAM: The Open Source CFD Toolbox
   \\    /   O peration     | Website:  https://openfoam.org
    \\  /    A nd           | Version:  9
     \\/     M anipulation  |
\*---------------------------------------------------------------------------*/
FoamFile
{
    format      ascii;
    class       volScalarField;
    location    "0.042";
    object      ddt0(rho,K);
}
// * * * * * * * * * * * * * * * * * * * * * * * * * * * * * * * * * * * * * //

dimensions      [1 -1 -3 0 0 0 0];

internalField   nonuniform List<scalar> 
1000
(
176.042
109.881
34.765
-27.0276
-85.1668
-145.764
-209.151
-274.453
-341.304
-409.584
-479.117
-549.823
-621.869
-695.535
-770.928
-847.838
-925.926
-1005.09
-1085.63
-1167.94
-1252.2
-1338.22
-1425.52
-1513.77
-1602.98
-1693.62
-1786.32
-1881.46
-1978.83
-2077.86
-2177.97
-2278.8
-2380.13
-2481.89
-2584.4
-2688.56
-2795.32
-2905.1
-3017.64
-3132.24
-3248.32
-3365.7
-3484.21
-3603.21
-3722.14
-3841.32
-3961.23
-4082.3
-4204.94
-4329.1
-4454.71
-4582.9
-4715.03
-4851.53
-4992.03
-5135.42
-5280.4
-5427
-5575.25
-5723.54
-5872.13
-6023.72
-6179.24
-6334.59
-6486.93
-6640.63
-6796.59
-6952.66
-7108.37
-7263.08
-7457.71
-7637.96
-7782.81
-7960.75
-8127.72
-8295.82
-8477.97
-8651.1
-8821.74
-9005.4
-9181.97
-9352.63
-9542.56
-9735.26
-9911.62
-10098.3
-10300.6
-10487.9
-10669.8
-10873.8
-11077.1
-11261.3
-11458.8
-11676.3
-11877.7
-12068.2
-12283.8
-12508.9
-12709.2
-12911.9
-13144.5
-13367.1
-13567.8
-13782.5
-14023.6
-14252.6
-14457.3
-14687.6
-14936.2
-15169.3
-15393.3
-15624.7
-15875.7
-16124
-16350.5
-16583.8
-16848.5
-17108.9
-17338.3
-17580.5
-17859.8
-18131.5
-18362.6
-18616.7
-18906.2
-19183.5
-19422.5
-19692.4
-19990.4
-20263.2
-20524.2
-20795.1
-21102
-21402
-21661.3
-21934
-22250.1
-22578
-22857
-23132.3
-23433.6
-23770.3
-24094.9
-24378.6
-24672.6
-25015.6
-25349
-25646
-25963.8
-26297.4
-26660.6
-27006.5
-27301.7
-27612.4
-27979.2
-28374.1
-28698.6
-29028.2
-29367.6
-29746.1
-30129.3
-30467.7
-30836.1
-31181
-31572.4
-31958.5
-32329.6
-32707.3
-33051.5
-33470.2
-33883.5
-34266.1
-34647.9
-35003.3
-35453.4
-35906.3
-36277.2
-36661.1
-37072.9
-37466.3
-37872.5
-38215.2
-38605.2
-39139.5
-39778.9
-40386
-40885
-41383.9
-41848.2
-42331.4
-42826.6
-43302.6
-43773.6
-44252.6
-44751.5
-45258.2
-45758.5
-46256.9
-46766.1
-47294
-47833.9
-48373.5
-48909.2
-49451.9
-50010.7
-50581.6
-51151.6
-51715.4
-52283.3
-52865.7
-53463
-54065.1
-54661.9
-55258.2
-55865.7
-56490.8
-57124.6
-57754.5
-58377.4
-59004
-59650.2
-60311.6
-60974.5
-61628.6
-62279.7
-62944
-63631.5
-64324.6
-65011.1
-65683.4
-66358.5
-67054
-67766.2
-68483.2
-69182.8
-69876.4
-70577.1
-71300.6
-72036.2
-72762.7
-73472.1
-74173.4
-74889.9
-75623.6
-76361.5
-77086.7
-77795.7
-78503
-79227
-79958.9
-80685.8
-81395.3
-82086.5
-82781.5
-83491.1
-84207
-84914.2
-85600.9
-86272.5
-86947.9
-87631.9
-88316.4
-88984.6
-89626.5
-90253.7
-90881.9
-91523.6
-92167.9
-92796.5
-93396.2
-93974.7
-94556.2
-95147.3
-95741.6
-96318.7
-96863
-97382.6
-97902.8
-98436.9
-98975.6
-99499.2
-99993.6
-100466
-100935
-101413
-101898
-102368
-102808
-103230
-103650
-104079
-104515
-104942
-105344
-105725
-106103
-106493
-106892
-107286
-107660
-108008
-108344
-108694
-109068
-109446
-109804
-110135
-110448
-110770
-111116
-111477
-111826
-112150
-112456
-112764
-113089
-113431
-113774
-114099
-114405
-114708
-115024
-115356
-115695
-116025
-116330
-116623
-116928
-117261
-117606
-117944
-118259
-118552
-118844
-119160
-119505
-119853
-120183
-120493
-120790
-121091
-121418
-121767
-122112
-122437
-122746
-123052
-123369
-123712
-124065
-124400
-124711
-125018
-125338
-125677
-126033
-126390
-126723
-127028
-127332
-127655
-128003
-128369
-128732
-129065
-129372
-129684
-130020
-130377
-130743
-131102
-131440
-131756
-132077
-132425
-132793
-133158
-133508
-133840
-134161
-134493
-134856
-135241
-135618
-135968
-136294
-136616
-136952
-137317
-137704
-138091
-138452
-138787
-139116
-139463
-139833
-140218
-140600
-140963
-141305
-141642
-142000
-142385
-142782
-143168
-143527
-143867
-144205
-144564
-144953
-145364
-145768
-146140
-146485
-146826
-147189
-147579
-147984
-148383
-148765
-149127
-149482
-149854
-150252
-150665
-151069
-151449
-151805
-152158
-152532
-152939
-153367
-153786
-154179
-154548
-154911
-155284
-155678
-156093
-156517
-156925
-157304
-157671
-158054
-158466
-158899
-159326
-159730
-160111
-160480
-160858
-161264
-161700
-162145
-162574
-162975
-163355
-163736
-164137
-164565
-165006
-165439
-165849
-166240
-166629
-167037
-167473
-167926
-168375
-168797
-169192
-169578
-169977
-170403
-170851
-171308
-171753
-172175
-172578
-172981
-173406
-173857
-174318
-174768
-175194
-175601
-176002
-176423
-176871
-177345
-177820
-178270
-178693
-179100
-179518
-179961
-180426
-180896
-181356
-181794
-182216
-182639
-183079
-183545
-184028
-184509
-184969
-185405
-185825
-186252
-186702
-187179
-187670
-188151
-188607
-189038
-189469
-189920
-190404
-190907
-191401
-191869
-192310
-192743
-193190
-193661
-194157
-194657
-195151
-195622
-196072
-196522
-196980
-197472
-197976
-198487
-198974
-199436
-199885
-200339
-200823
-201327
-201844
-202353
-202841
-203310
-203773
-204243
-204746
-205256
-205788
-206290
-206780
-207246
-207706
-208201
-208696
-209244
-209759
-210280
-210767
-211231
-211730
-212207
-212768
-213281
-213839
-214334
-214820
-215317
-215774
-216342
-216822
-217423
-217914
-218446
-218955
-219397
-219982
-220411
-221065
-221534
-222125
-222639
-223078
-223684
-224054
-224773
-225169
-225866
-226306
-226845
-227389
-227796
-228505
-228860
-229644
-230006
-230686
-231146
-231636
-232279
-232645
-233427
-233794
-234530
-234978
-235525
-236104
-236506
-237230
-237624
-238381
-238829
-239456
-239968
-240452
-241073
-241533
-242263
-242726
-243455
-243876
-244519
-244980
-245555
-246203
-246695
-247495
-247855
-248642
-248967
-249679
-250160
-250809
-251473
-251992
-252716
-253091
-253827
-254222
-254981
-255515
-256199
-256832
-257299
-258052
-258362
-259217
-259680
-260345
-261138
-261469
-262358
-262683
-263418
-264013
-264605
-265391
-265847
-266675
-267062
-267803
-268402
-268947
-269844
-270232
-271148
-271567
-272281
-272915
-273468
-274345
-274798
-275746
-276175
-276943
-277594
-278097
-279064
-279505
-280432
-281076
-281644
-282518
-282961
-283839
-284537
-285262
-286084
-286772
-287450
-288187
-288895
-289621
-290529
-291195
-292118
-292807
-293517
-294362
-295060
-295915
-296794
-297675
-298392
-299337
-300085
-300779
-301837
-302603
-303507
-304520
-305350
-306181
-307099
-308010
-308843
-309877
-310899
-311743
-312762
-313779
-314534
-315617
-316727
-317490
-318745
-319831
-320548
-321839
-322848
-323624
-324962
-326051
-326910
-328201
-329333
-330163
-331376
-332600
-333486
-334695
-336007
-336927
-338044
-339338
-340314
-341342
-342702
-343763
-344787
-346069
-347242
-348110
-349401
-350514
-351564
-352590
-353980
-354829
-355972
-357011
-358263
-358872
-360310
-361179
-362214
-363060
-364432
-364911
-366119
-366957
-367905
-368624
-369760
-370406
-371311
-372101
-372859
-373607
-374257
-375049
-375718
-376420
-376974
-377688
-378125
-378795
-379313
-379791
-380294
-380878
-381211
-381677
-382182
-382489
-382796
-383343
-383539
-383869
-384255
-384590
-384747
-385118
-385391
-385582
-385801
-386139
-386286
-386580
-386757
-387030
-387235
-387455
-387572
-387945
-388081
-388296
-388525
-388855
-388986
-389254
-389488
-389837
-389927
-390277
-390618
-390921
-391073
-391535
-391845
-392141
-392419
-392904
-393196
-393584
-393944
-394414
-394782
-395249
-395637
-396149
-396582
-397088
-397511
-398092
-398571
-399143
-399617
-400227
-400756
-401384
-401915
-402558
-403127
-403805
-404391
-405077
-405685
-406403
-407037
-407767
-408418
-409173
-409855
-410632
-411331
-412127
-412851
-413674
-414427
-415276
-416065
-416952
-417784
-418709
-419584
-420555
-421486
-422516
-423516
-424616
-425700
-426886
-428071
-429353
-430651
-432045
-433474
-434994
-436567
-438222
-439949
-441748
-443635
-445579
-447622
-449703
-451892
-454096
-456407
-458708
-461109
-463472
-465922
-468306
-470753
-473109
-475494
-477769
-480036
-482177
-484270
-486233
-488103
-489850
-491463
-492982
-494295
-495610
-496589
-497614
-498386
-499195
-499702
-500264
-500617
-501048
-501197
-501458
-501552
-501747
-501739
-501862
-501828
-501971
-501936
-502016
-501992
-502168
-502166
-502314
-502361
-502591
-502690
-502951
-503074
-503372
-503576
-503951
-504149
-504514
-504802
-505271
-505574
-506003
-506339
-506863
-507237
-507785
-508179
-508729
-509170
-509777
-510250
-510858
-511315
-511975
-512499
-513175
-513708
-514385
-514928
-515638
-516225
-516959
-517556
-518296
-518906
-519669
-520310
-521094
-521747
-522538
-523206
-524021
-524717
-525548
-526253
-527081
-527796
-528664
-529404
-530264
-531012
-531903
-532660
-533618
-535055
)
;

boundaryField
{
    sides
    {
        type            calculated;
        value           nonuniform List<scalar> 2(-535055 176.042);
    }
    empty
    {
        type            empty;
    }
}


// ************************************************************************* //
