/*--------------------------------*- C++ -*----------------------------------*\
  =========                 |
  \\      /  F ield         | OpenFOAM: The Open Source CFD Toolbox
   \\    /   O peration     | Website:  https://openfoam.org
    \\  /    A nd           | Version:  9
     \\/     M anipulation  |
\*---------------------------------------------------------------------------*/
FoamFile
{
    format      ascii;
    class       volScalarField;
    location    "0.042";
    object      T;
}
// * * * * * * * * * * * * * * * * * * * * * * * * * * * * * * * * * * * * * //

dimensions      [0 0 0 1 0 0 0];

internalField   nonuniform List<scalar> 
1000
(
186.306
186.312
186.324
186.339
186.355
186.37
186.386
186.401
186.417
186.433
186.448
186.464
186.48
186.496
186.512
186.528
186.543
186.558
186.575
186.591
186.608
186.624
186.64
186.655
186.67
186.686
186.703
186.72
186.737
186.754
186.769
186.784
186.798
186.813
186.828
186.845
186.863
186.881
186.9
186.918
186.934
186.949
186.962
186.975
186.987
187
187.013
187.029
187.046
187.064
187.085
187.105
187.127
187.147
187.166
187.184
187.199
187.211
187.221
187.229
187.234
187.237
187.24
187.241
187.242
187.243
187.243
187.243
187.243
187.242
187.24
187.232
187.227
187.218
187.209
187.203
187.196
187.186
187.18
187.173
187.163
187.156
187.151
187.142
187.133
187.128
187.121
187.111
187.105
187.1
187.091
187.083
187.078
187.071
187.062
187.055
187.051
187.043
187.034
187.029
187.024
187.015
187.007
187.003
186.997
186.988
186.981
186.978
186.971
186.962
186.956
186.952
186.946
186.937
186.931
186.928
186.922
186.913
186.907
186.904
186.898
186.889
186.884
186.881
186.876
186.867
186.861
186.859
186.854
186.846
186.84
186.837
186.834
186.827
186.82
186.816
186.814
186.808
186.801
186.797
186.795
186.791
186.784
186.779
186.777
186.774
186.768
186.763
186.76
186.758
186.755
186.749
186.745
186.743
186.741
186.737
186.732
186.73
186.729
186.727
186.722
186.719
186.717
186.716
186.715
186.711
186.708
186.707
186.707
186.706
186.703
186.701
186.7
186.7
186.7
186.698
186.697
186.697
186.697
186.698
186.697
186.696
186.697
186.698
186.699
186.699
186.7
186.702
186.704
186.706
186.708
186.71
186.712
186.716
186.719
186.722
186.725
186.728
186.733
186.737
186.742
186.746
186.75
186.756
186.761
186.767
186.773
186.778
186.785
186.792
186.8
186.807
186.814
186.822
186.83
186.839
186.848
186.857
186.866
186.876
186.887
186.898
186.908
186.919
186.931
186.943
186.956
186.969
186.981
186.994
187.009
187.023
187.038
187.053
187.068
187.084
187.1
187.118
187.135
187.152
187.169
187.187
187.207
187.226
187.246
187.265
187.285
187.306
187.328
187.35
187.371
187.393
187.416
187.439
187.464
187.488
187.512
187.536
187.561
187.587
187.613
187.64
187.666
187.692
187.719
187.748
187.776
187.804
187.833
187.861
187.89
187.92
187.95
187.981
188.01
188.04
188.071
188.103
188.135
188.166
188.198
188.229
188.261
188.294
188.327
188.36
188.392
188.425
188.458
188.491
188.525
188.559
188.592
188.626
188.659
188.694
188.728
188.763
188.797
188.831
188.865
188.899
188.935
188.97
189.004
189.039
189.073
189.108
189.143
189.179
189.214
189.249
189.283
189.318
189.353
189.389
189.424
189.46
189.494
189.529
189.565
189.6
189.636
189.671
189.706
189.741
189.777
189.813
189.849
189.884
189.919
189.954
189.989
190.025
190.062
190.098
190.133
190.168
190.203
190.239
190.275
190.311
190.347
190.382
190.418
190.453
190.489
190.525
190.561
190.597
190.632
190.667
190.703
190.739
190.776
190.812
190.847
190.882
190.918
190.954
190.99
191.027
191.063
191.098
191.134
191.169
191.205
191.242
191.278
191.314
191.35
191.386
191.421
191.458
191.494
191.531
191.566
191.602
191.638
191.674
191.71
191.747
191.784
191.819
191.855
191.89
191.927
191.963
192
192.037
192.073
192.108
192.144
192.18
192.217
192.254
192.29
192.326
192.362
192.398
192.435
192.472
192.509
192.545
192.581
192.617
192.653
192.689
192.727
192.764
192.8
192.836
192.872
192.908
192.945
192.982
193.019
193.056
193.092
193.128
193.164
193.201
193.238
193.275
193.312
193.348
193.384
193.421
193.458
193.495
193.532
193.569
193.606
193.642
193.678
193.715
193.752
193.789
193.826
193.863
193.9
193.936
193.973
194.01
194.048
194.085
194.121
194.158
194.194
194.231
194.269
194.306
194.344
194.381
194.417
194.454
194.491
194.528
194.565
194.603
194.64
194.677
194.714
194.751
194.788
194.826
194.863
194.901
194.937
194.974
195.011
195.048
195.086
195.124
195.161
195.199
195.236
195.273
195.31
195.347
195.385
195.423
195.46
195.497
195.534
195.572
195.609
195.647
195.685
195.723
195.76
195.797
195.835
195.872
195.91
195.948
195.986
196.023
196.061
196.098
196.136
196.173
196.211
196.25
196.287
196.325
196.362
196.4
196.437
196.475
196.513
196.552
196.589
196.627
196.665
196.702
196.74
196.779
196.817
196.855
196.893
196.93
196.968
197.006
197.044
197.082
197.121
197.159
197.197
197.234
197.272
197.31
197.349
197.387
197.425
197.463
197.501
197.539
197.577
197.615
197.654
197.693
197.731
197.769
197.807
197.845
197.883
197.922
197.96
197.999
198.037
198.075
198.113
198.151
198.19
198.229
198.268
198.306
198.344
198.383
198.421
198.459
198.498
198.537
198.576
198.614
198.653
198.69
198.73
198.767
198.807
198.846
198.884
198.924
198.961
199.001
199.038
199.078
199.116
199.155
199.195
199.232
199.273
199.309
199.349
199.387
199.427
199.466
199.503
199.545
199.58
199.623
199.657
199.7
199.737
199.777
199.817
199.854
199.895
199.93
199.973
200.009
200.051
200.089
200.127
200.168
200.204
200.246
200.282
200.324
200.362
200.402
200.442
200.479
200.52
200.557
200.599
200.636
200.677
200.716
200.755
200.796
200.833
200.875
200.911
200.954
200.991
201.033
201.07
201.11
201.15
201.187
201.231
201.266
201.311
201.345
201.389
201.425
201.467
201.505
201.545
201.586
201.624
201.665
201.703
201.744
201.783
201.822
201.864
201.9
201.945
201.98
202.022
202.061
202.1
202.143
202.18
202.223
202.261
202.301
202.342
202.38
202.423
202.46
202.503
202.542
202.582
202.623
202.661
202.704
202.741
202.785
202.823
202.865
202.906
202.944
202.987
203.025
203.068
203.108
203.148
203.191
203.229
203.272
203.312
203.353
203.396
203.435
203.478
203.518
203.56
203.6
203.643
203.684
203.727
203.768
203.81
203.853
203.893
203.937
203.979
204.022
204.065
204.108
204.15
204.193
204.236
204.278
204.323
204.367
204.41
204.455
204.499
204.542
204.587
204.632
204.676
204.722
204.768
204.813
204.858
204.904
204.95
204.996
205.044
205.09
205.137
205.186
205.231
205.28
205.329
205.376
205.425
205.475
205.523
205.574
205.624
205.673
205.724
205.776
205.826
205.878
205.931
205.982
206.034
206.088
206.141
206.194
206.249
206.304
206.357
206.413
206.468
206.524
206.579
206.637
206.692
206.751
206.806
206.867
206.921
206.984
207.038
207.102
207.154
207.223
207.273
207.343
207.393
207.465
207.512
207.589
207.634
207.712
207.757
207.837
207.879
207.962
208.003
208.086
208.128
208.211
208.253
208.337
208.379
208.462
208.504
208.587
208.63
208.712
208.755
208.837
208.88
208.961
209.004
209.086
209.127
209.209
209.25
209.331
209.373
209.453
209.494
209.573
209.614
209.693
209.733
209.812
209.851
209.929
209.968
210.045
210.084
210.16
210.198
210.274
210.311
210.386
210.423
210.497
210.533
210.606
210.643
210.715
210.75
210.821
210.857
210.927
210.962
211.032
211.067
211.135
211.169
211.237
211.271
211.339
211.372
211.439
211.472
211.538
211.57
211.636
211.668
211.733
211.765
211.829
211.861
211.925
211.957
212.02
212.051
212.114
212.145
212.207
212.238
212.3
212.331
212.392
212.423
212.484
212.514
212.575
212.606
212.666
212.696
212.756
212.786
212.847
212.876
212.936
212.966
213.026
213.056
213.115
213.145
213.204
213.234
213.294
213.323
213.383
213.413
213.473
213.503
213.563
213.593
213.653
213.684
213.745
213.775
213.837
213.869
213.931
213.963
214.027
214.06
214.126
214.159
214.226
214.261
214.33
214.366
214.438
214.475
214.549
214.587
214.664
214.703
214.783
214.824
214.906
214.948
215.033
215.076
215.163
215.208
215.297
215.343
215.433
215.479
215.572
215.618
215.711
215.758
215.851
215.899
215.991
216.038
216.13
216.177
216.268
216.315
216.405
216.451
216.54
216.585
216.673
216.718
216.804
216.848
216.933
216.976
217.059
217.101
217.184
217.226
217.307
217.348
217.428
217.468
217.547
217.587
217.665
217.704
217.781
217.819
217.895
217.933
218.009
218.046
218.12
218.157
218.231
218.267
218.34
218.376
218.449
218.484
218.556
218.591
218.662
218.697
218.767
218.801
218.871
218.905
218.974
219.008
219.076
219.11
219.178
219.211
219.278
219.311
219.378
219.411
219.477
219.509
219.575
219.607
219.672
219.704
219.769
219.801
219.865
219.896
219.96
219.991
220.058
220.081
220.174
)
;

boundaryField
{
    sides
    {
        type            zeroGradient;
    }
    empty
    {
        type            empty;
    }
}


// ************************************************************************* //
