/*--------------------------------*- C++ -*----------------------------------*\
  =========                 |
  \\      /  F ield         | OpenFOAM: The Open Source CFD Toolbox
   \\    /   O peration     | Website:  https://openfoam.org
    \\  /    A nd           | Version:  9
     \\/     M anipulation  |
\*---------------------------------------------------------------------------*/
FoamFile
{
    format      ascii;
    class       volVectorField;
    location    "0.042";
    object      U;
}
// * * * * * * * * * * * * * * * * * * * * * * * * * * * * * * * * * * * * * //

dimensions      [0 1 -1 0 0 0 0];

internalField   nonuniform List<vector> 
1000
(
(21.0555 0 0)
(21.3406 0 0)
(21.7177 0 0)
(22.0232 0 0)
(22.2891 0 0)
(22.5533 0 0)
(22.8246 0 0)
(23.099 0 0)
(23.3733 0 0)
(23.647 0 0)
(23.9204 0 0)
(24.1938 0 0)
(24.4673 0 0)
(24.7408 0 0)
(25.0143 0 0)
(25.2878 0 0)
(25.5613 0 0)
(25.8348 0 0)
(26.1083 0 0)
(26.3818 0 0)
(26.6553 0 0)
(26.9288 0 0)
(27.2023 0 0)
(27.4757 0 0)
(27.7492 0 0)
(28.0226 0 0)
(28.2961 0 0)
(28.5695 0 0)
(28.843 0 0)
(29.1164 0 0)
(29.3899 0 0)
(29.6633 0 0)
(29.9367 0 0)
(30.21 0 0)
(30.4834 0 0)
(30.7568 0 0)
(31.0301 0 0)
(31.3034 0 0)
(31.5768 0 0)
(31.8501 0 0)
(32.1234 0 0)
(32.3967 0 0)
(32.6699 0 0)
(32.9431 0 0)
(33.2163 0 0)
(33.4895 0 0)
(33.7626 0 0)
(34.0357 0 0)
(34.3087 0 0)
(34.5818 0 0)
(34.8548 0 0)
(35.1278 0 0)
(35.4009 0 0)
(35.6738 0 0)
(35.9468 0 0)
(36.2197 0 0)
(36.4926 0 0)
(36.7655 0 0)
(37.0383 0 0)
(37.3111 0 0)
(37.5839 0 0)
(37.8566 0 0)
(38.1292 0 0)
(38.4018 0 0)
(38.6743 0 0)
(38.9468 0 0)
(39.2192 0 0)
(39.4917 0 0)
(39.764 0 0)
(40.0363 0 0)
(40.3085 0 0)
(40.5808 0 0)
(40.8531 0 0)
(41.1252 0 0)
(41.3972 0 0)
(41.6692 0 0)
(41.9411 0 0)
(42.213 0 0)
(42.4848 0 0)
(42.7565 0 0)
(43.0282 0 0)
(43.2998 0 0)
(43.5713 0 0)
(43.8428 0 0)
(44.1142 0 0)
(44.3855 0 0)
(44.6568 0 0)
(44.9279 0 0)
(45.199 0 0)
(45.47 0 0)
(45.7409 0 0)
(46.0117 0 0)
(46.2825 0 0)
(46.5532 0 0)
(46.8237 0 0)
(47.0942 0 0)
(47.3646 0 0)
(47.6349 0 0)
(47.905 0 0)
(48.1751 0 0)
(48.4451 0 0)
(48.715 0 0)
(48.9847 0 0)
(49.2544 0 0)
(49.5239 0 0)
(49.7934 0 0)
(50.0626 0 0)
(50.3318 0 0)
(50.6009 0 0)
(50.8698 0 0)
(51.1386 0 0)
(51.4072 0 0)
(51.6758 0 0)
(51.9442 0 0)
(52.2124 0 0)
(52.4805 0 0)
(52.7485 0 0)
(53.0163 0 0)
(53.2839 0 0)
(53.5514 0 0)
(53.8187 0 0)
(54.0859 0 0)
(54.3528 0 0)
(54.6197 0 0)
(54.8863 0 0)
(55.1528 0 0)
(55.419 0 0)
(55.6851 0 0)
(55.9511 0 0)
(56.2168 0 0)
(56.4822 0 0)
(56.7475 0 0)
(57.0126 0 0)
(57.2775 0 0)
(57.5421 0 0)
(57.8065 0 0)
(58.0707 0 0)
(58.3347 0 0)
(58.5984 0 0)
(58.8619 0 0)
(59.1251 0 0)
(59.3881 0 0)
(59.6507 0 0)
(59.9132 0 0)
(60.1753 0 0)
(60.4372 0 0)
(60.6988 0 0)
(60.9601 0 0)
(61.221 0 0)
(61.4817 0 0)
(61.7421 0 0)
(62.0021 0 0)
(62.2619 0 0)
(62.5213 0 0)
(62.7803 0 0)
(63.0391 0 0)
(63.2975 0 0)
(63.5555 0 0)
(63.8131 0 0)
(64.0704 0 0)
(64.3274 0 0)
(64.584 0 0)
(64.8401 0 0)
(65.0959 0 0)
(65.3513 0 0)
(65.6063 0 0)
(65.8609 0 0)
(66.115 0 0)
(66.3687 0 0)
(66.622 0 0)
(66.8749 0 0)
(67.1273 0 0)
(67.3792 0 0)
(67.6307 0 0)
(67.8817 0 0)
(68.1322 0 0)
(68.3823 0 0)
(68.6318 0 0)
(68.8809 0 0)
(69.1294 0 0)
(69.3776 0 0)
(69.6259 0 0)
(69.8736 0 0)
(70.1204 0 0)
(70.3661 0 0)
(70.6105 0 0)
(70.854 0 0)
(71.0966 0 0)
(71.3385 0 0)
(71.5796 0 0)
(71.8201 0 0)
(72.06 0 0)
(72.2991 0 0)
(72.5376 0 0)
(72.7753 0 0)
(73.0123 0 0)
(73.2486 0 0)
(73.484 0 0)
(73.7187 0 0)
(73.9525 0 0)
(74.1855 0 0)
(74.4176 0 0)
(74.6488 0 0)
(74.8792 0 0)
(75.1086 0 0)
(75.3371 0 0)
(75.5646 0 0)
(75.7911 0 0)
(76.0166 0 0)
(76.2412 0 0)
(76.4647 0 0)
(76.6871 0 0)
(76.9085 0 0)
(77.1288 0 0)
(77.348 0 0)
(77.5661 0 0)
(77.7831 0 0)
(77.9989 0 0)
(78.2135 0 0)
(78.427 0 0)
(78.6392 0 0)
(78.8502 0 0)
(79.06 0 0)
(79.2685 0 0)
(79.4758 0 0)
(79.6818 0 0)
(79.8865 0 0)
(80.0899 0 0)
(80.2919 0 0)
(80.4926 0 0)
(80.692 0 0)
(80.89 0 0)
(81.0866 0 0)
(81.2818 0 0)
(81.4757 0 0)
(81.6681 0 0)
(81.8591 0 0)
(82.0487 0 0)
(82.2368 0 0)
(82.4236 0 0)
(82.6088 0 0)
(82.7927 0 0)
(82.9751 0 0)
(83.156 0 0)
(83.3355 0 0)
(83.5136 0 0)
(83.6902 0 0)
(83.8653 0 0)
(84.0391 0 0)
(84.2114 0 0)
(84.3823 0 0)
(84.5517 0 0)
(84.7198 0 0)
(84.8864 0 0)
(85.0517 0 0)
(85.2156 0 0)
(85.3782 0 0)
(85.5394 0 0)
(85.6993 0 0)
(85.8579 0 0)
(86.0153 0 0)
(86.1714 0 0)
(86.3262 0 0)
(86.4799 0 0)
(86.6323 0 0)
(86.7836 0 0)
(86.9338 0 0)
(87.0828 0 0)
(87.2308 0 0)
(87.3778 0 0)
(87.5237 0 0)
(87.6686 0 0)
(87.8126 0 0)
(87.9557 0 0)
(88.0979 0 0)
(88.2392 0 0)
(88.3797 0 0)
(88.5193 0 0)
(88.6583 0 0)
(88.7964 0 0)
(88.9339 0 0)
(89.0707 0 0)
(89.2069 0 0)
(89.3425 0 0)
(89.4775 0 0)
(89.6119 0 0)
(89.7459 0 0)
(89.8793 0 0)
(90.0123 0 0)
(90.1448 0 0)
(90.277 0 0)
(90.4087 0 0)
(90.5401 0 0)
(90.6712 0 0)
(90.8019 0 0)
(90.9324 0 0)
(91.0625 0 0)
(91.1925 0 0)
(91.3222 0 0)
(91.4517 0 0)
(91.581 0 0)
(91.7101 0 0)
(91.8391 0 0)
(91.9679 0 0)
(92.0966 0 0)
(92.2252 0 0)
(92.3537 0 0)
(92.482 0 0)
(92.6103 0 0)
(92.7385 0 0)
(92.8667 0 0)
(92.9948 0 0)
(93.1228 0 0)
(93.2508 0 0)
(93.3788 0 0)
(93.5068 0 0)
(93.6347 0 0)
(93.7626 0 0)
(93.8905 0 0)
(94.0184 0 0)
(94.1463 0 0)
(94.2743 0 0)
(94.4022 0 0)
(94.5301 0 0)
(94.6581 0 0)
(94.786 0 0)
(94.914 0 0)
(95.042 0 0)
(95.17 0 0)
(95.2981 0 0)
(95.4262 0 0)
(95.5543 0 0)
(95.6824 0 0)
(95.8106 0 0)
(95.9388 0 0)
(96.067 0 0)
(96.1953 0 0)
(96.3236 0 0)
(96.4519 0 0)
(96.5803 0 0)
(96.7087 0 0)
(96.8372 0 0)
(96.9657 0 0)
(97.0942 0 0)
(97.2228 0 0)
(97.3514 0 0)
(97.48 0 0)
(97.6087 0 0)
(97.7375 0 0)
(97.8663 0 0)
(97.9951 0 0)
(98.1239 0 0)
(98.2528 0 0)
(98.3818 0 0)
(98.5108 0 0)
(98.6398 0 0)
(98.7689 0 0)
(98.898 0 0)
(99.0272 0 0)
(99.1564 0 0)
(99.2856 0 0)
(99.4149 0 0)
(99.5442 0 0)
(99.6736 0 0)
(99.803 0 0)
(99.9324 0 0)
(100.062 0 0)
(100.191 0 0)
(100.321 0 0)
(100.451 0 0)
(100.58 0 0)
(100.71 0 0)
(100.84 0 0)
(100.97 0 0)
(101.099 0 0)
(101.229 0 0)
(101.359 0 0)
(101.489 0 0)
(101.619 0 0)
(101.749 0 0)
(101.879 0 0)
(102.01 0 0)
(102.14 0 0)
(102.27 0 0)
(102.4 0 0)
(102.531 0 0)
(102.661 0 0)
(102.791 0 0)
(102.922 0 0)
(103.052 0 0)
(103.183 0 0)
(103.313 0 0)
(103.444 0 0)
(103.574 0 0)
(103.705 0 0)
(103.836 0 0)
(103.967 0 0)
(104.097 0 0)
(104.228 0 0)
(104.359 0 0)
(104.49 0 0)
(104.621 0 0)
(104.752 0 0)
(104.883 0 0)
(105.014 0 0)
(105.145 0 0)
(105.276 0 0)
(105.408 0 0)
(105.539 0 0)
(105.67 0 0)
(105.801 0 0)
(105.933 0 0)
(106.064 0 0)
(106.196 0 0)
(106.327 0 0)
(106.459 0 0)
(106.59 0 0)
(106.722 0 0)
(106.853 0 0)
(106.985 0 0)
(107.117 0 0)
(107.248 0 0)
(107.38 0 0)
(107.512 0 0)
(107.644 0 0)
(107.776 0 0)
(107.908 0 0)
(108.04 0 0)
(108.172 0 0)
(108.304 0 0)
(108.436 0 0)
(108.568 0 0)
(108.7 0 0)
(108.832 0 0)
(108.964 0 0)
(109.097 0 0)
(109.229 0 0)
(109.361 0 0)
(109.493 0 0)
(109.626 0 0)
(109.758 0 0)
(109.891 0 0)
(110.023 0 0)
(110.156 0 0)
(110.288 0 0)
(110.421 0 0)
(110.554 0 0)
(110.686 0 0)
(110.819 0 0)
(110.952 0 0)
(111.084 0 0)
(111.217 0 0)
(111.35 0 0)
(111.483 0 0)
(111.616 0 0)
(111.749 0 0)
(111.882 0 0)
(112.015 0 0)
(112.148 0 0)
(112.281 0 0)
(112.414 0 0)
(112.547 0 0)
(112.681 0 0)
(112.814 0 0)
(112.947 0 0)
(113.08 0 0)
(113.214 0 0)
(113.347 0 0)
(113.48 0 0)
(113.614 0 0)
(113.747 0 0)
(113.881 0 0)
(114.014 0 0)
(114.148 0 0)
(114.282 0 0)
(114.415 0 0)
(114.549 0 0)
(114.683 0 0)
(114.816 0 0)
(114.95 0 0)
(115.084 0 0)
(115.218 0 0)
(115.352 0 0)
(115.485 0 0)
(115.619 0 0)
(115.753 0 0)
(115.887 0 0)
(116.021 0 0)
(116.156 0 0)
(116.29 0 0)
(116.424 0 0)
(116.558 0 0)
(116.692 0 0)
(116.826 0 0)
(116.961 0 0)
(117.095 0 0)
(117.229 0 0)
(117.364 0 0)
(117.498 0 0)
(117.633 0 0)
(117.767 0 0)
(117.902 0 0)
(118.036 0 0)
(118.171 0 0)
(118.305 0 0)
(118.44 0 0)
(118.575 0 0)
(118.709 0 0)
(118.844 0 0)
(118.979 0 0)
(119.114 0 0)
(119.249 0 0)
(119.384 0 0)
(119.518 0 0)
(119.653 0 0)
(119.788 0 0)
(119.923 0 0)
(120.058 0 0)
(120.194 0 0)
(120.329 0 0)
(120.464 0 0)
(120.599 0 0)
(120.734 0 0)
(120.869 0 0)
(121.005 0 0)
(121.14 0 0)
(121.275 0 0)
(121.411 0 0)
(121.546 0 0)
(121.682 0 0)
(121.817 0 0)
(121.953 0 0)
(122.088 0 0)
(122.224 0 0)
(122.359 0 0)
(122.495 0 0)
(122.631 0 0)
(122.766 0 0)
(122.902 0 0)
(123.038 0 0)
(123.174 0 0)
(123.31 0 0)
(123.445 0 0)
(123.581 0 0)
(123.717 0 0)
(123.853 0 0)
(123.989 0 0)
(124.125 0 0)
(124.261 0 0)
(124.398 0 0)
(124.534 0 0)
(124.67 0 0)
(124.806 0 0)
(124.942 0 0)
(125.079 0 0)
(125.215 0 0)
(125.351 0 0)
(125.488 0 0)
(125.624 0 0)
(125.76 0 0)
(125.897 0 0)
(126.033 0 0)
(126.17 0 0)
(126.307 0 0)
(126.443 0 0)
(126.58 0 0)
(126.716 0 0)
(126.853 0 0)
(126.99 0 0)
(127.127 0 0)
(127.263 0 0)
(127.4 0 0)
(127.537 0 0)
(127.674 0 0)
(127.811 0 0)
(127.948 0 0)
(128.085 0 0)
(128.222 0 0)
(128.359 0 0)
(128.496 0 0)
(128.633 0 0)
(128.771 0 0)
(128.908 0 0)
(129.045 0 0)
(129.182 0 0)
(129.32 0 0)
(129.457 0 0)
(129.594 0 0)
(129.732 0 0)
(129.869 0 0)
(130.007 0 0)
(130.144 0 0)
(130.282 0 0)
(130.419 0 0)
(130.557 0 0)
(130.694 0 0)
(130.832 0 0)
(130.97 0 0)
(131.108 0 0)
(131.245 0 0)
(131.383 0 0)
(131.521 0 0)
(131.659 0 0)
(131.797 0 0)
(131.935 0 0)
(132.073 0 0)
(132.211 0 0)
(132.349 0 0)
(132.487 0 0)
(132.625 0 0)
(132.763 0 0)
(132.901 0 0)
(133.039 0 0)
(133.178 0 0)
(133.316 0 0)
(133.454 0 0)
(133.592 0 0)
(133.731 0 0)
(133.869 0 0)
(134.008 0 0)
(134.146 0 0)
(134.284 0 0)
(134.423 0 0)
(134.561 0 0)
(134.7 0 0)
(134.839 0 0)
(134.977 0 0)
(135.116 0 0)
(135.255 0 0)
(135.393 0 0)
(135.532 0 0)
(135.671 0 0)
(135.81 0 0)
(135.949 0 0)
(136.087 0 0)
(136.226 0 0)
(136.365 0 0)
(136.504 0 0)
(136.643 0 0)
(136.782 0 0)
(136.921 0 0)
(137.06 0 0)
(137.199 0 0)
(137.338 0 0)
(137.477 0 0)
(137.616 0 0)
(137.755 0 0)
(137.895 0 0)
(138.034 0 0)
(138.173 0 0)
(138.312 0 0)
(138.451 0 0)
(138.59 0 0)
(138.73 0 0)
(138.869 0 0)
(139.008 0 0)
(139.147 0 0)
(139.286 0 0)
(139.426 0 0)
(139.565 0 0)
(139.704 0 0)
(139.843 0 0)
(139.982 0 0)
(140.121 0 0)
(140.26 0 0)
(140.4 0 0)
(140.539 0 0)
(140.678 0 0)
(140.817 0 0)
(140.955 0 0)
(141.094 0 0)
(141.233 0 0)
(141.372 0 0)
(141.511 0 0)
(141.649 0 0)
(141.788 0 0)
(141.926 0 0)
(142.065 0 0)
(142.203 0 0)
(142.341 0 0)
(142.48 0 0)
(142.618 0 0)
(142.756 0 0)
(142.893 0 0)
(143.031 0 0)
(143.168 0 0)
(143.306 0 0)
(143.443 0 0)
(143.58 0 0)
(143.717 0 0)
(143.854 0 0)
(143.99 0 0)
(144.126 0 0)
(144.262 0 0)
(144.398 0 0)
(144.534 0 0)
(144.669 0 0)
(144.804 0 0)
(144.939 0 0)
(145.073 0 0)
(145.207 0 0)
(145.341 0 0)
(145.475 0 0)
(145.608 0 0)
(145.741 0 0)
(145.873 0 0)
(146.005 0 0)
(146.136 0 0)
(146.267 0 0)
(146.398 0 0)
(146.528 0 0)
(146.658 0 0)
(146.787 0 0)
(146.916 0 0)
(147.044 0 0)
(147.171 0 0)
(147.298 0 0)
(147.425 0 0)
(147.55 0 0)
(147.675 0 0)
(147.8 0 0)
(147.923 0 0)
(148.046 0 0)
(148.169 0 0)
(148.29 0 0)
(148.411 0 0)
(148.531 0 0)
(148.65 0 0)
(148.768 0 0)
(148.886 0 0)
(149.002 0 0)
(149.118 0 0)
(149.233 0 0)
(149.347 0 0)
(149.46 0 0)
(149.572 0 0)
(149.683 0 0)
(149.793 0 0)
(149.902 0 0)
(150.01 0 0)
(150.117 0 0)
(150.222 0 0)
(150.327 0 0)
(150.431 0 0)
(150.534 0 0)
(150.635 0 0)
(150.736 0 0)
(150.835 0 0)
(150.933 0 0)
(151.031 0 0)
(151.127 0 0)
(151.222 0 0)
(151.316 0 0)
(151.408 0 0)
(151.5 0 0)
(151.591 0 0)
(151.68 0 0)
(151.769 0 0)
(151.856 0 0)
(151.943 0 0)
(152.028 0 0)
(152.112 0 0)
(152.196 0 0)
(152.278 0 0)
(152.36 0 0)
(152.441 0 0)
(152.52 0 0)
(152.599 0 0)
(152.678 0 0)
(152.755 0 0)
(152.832 0 0)
(152.908 0 0)
(152.984 0 0)
(153.059 0 0)
(153.133 0 0)
(153.207 0 0)
(153.281 0 0)
(153.354 0 0)
(153.427 0 0)
(153.5 0 0)
(153.572 0 0)
(153.645 0 0)
(153.717 0 0)
(153.789 0 0)
(153.861 0 0)
(153.934 0 0)
(154.006 0 0)
(154.079 0 0)
(154.152 0 0)
(154.225 0 0)
(154.299 0 0)
(154.373 0 0)
(154.448 0 0)
(154.523 0 0)
(154.598 0 0)
(154.675 0 0)
(154.752 0 0)
(154.83 0 0)
(154.908 0 0)
(154.987 0 0)
(155.068 0 0)
(155.149 0 0)
(155.231 0 0)
(155.314 0 0)
(155.398 0 0)
(155.483 0 0)
(155.57 0 0)
(155.657 0 0)
(155.746 0 0)
(155.835 0 0)
(155.926 0 0)
(156.018 0 0)
(156.111 0 0)
(156.206 0 0)
(156.301 0 0)
(156.398 0 0)
(156.496 0 0)
(156.595 0 0)
(156.696 0 0)
(156.798 0 0)
(156.901 0 0)
(157.005 0 0)
(157.111 0 0)
(157.217 0 0)
(157.325 0 0)
(157.434 0 0)
(157.544 0 0)
(157.656 0 0)
(157.769 0 0)
(157.882 0 0)
(157.997 0 0)
(158.113 0 0)
(158.23 0 0)
(158.348 0 0)
(158.467 0 0)
(158.588 0 0)
(158.709 0 0)
(158.831 0 0)
(158.954 0 0)
(159.078 0 0)
(159.203 0 0)
(159.329 0 0)
(159.456 0 0)
(159.584 0 0)
(159.712 0 0)
(159.841 0 0)
(159.971 0 0)
(160.102 0 0)
(160.234 0 0)
(160.366 0 0)
(160.499 0 0)
(160.633 0 0)
(160.767 0 0)
(160.902 0 0)
(161.038 0 0)
(161.174 0 0)
(161.311 0 0)
(161.448 0 0)
(161.586 0 0)
(161.724 0 0)
(161.863 0 0)
(162.002 0 0)
(162.142 0 0)
(162.282 0 0)
(162.423 0 0)
(162.564 0 0)
(162.705 0 0)
(162.847 0 0)
(162.989 0 0)
(163.131 0 0)
(163.274 0 0)
(163.417 0 0)
(163.56 0 0)
(163.704 0 0)
(163.847 0 0)
(163.991 0 0)
(164.135 0 0)
(164.279 0 0)
(164.423 0 0)
(164.566 0 0)
(164.71 0 0)
(164.854 0 0)
(164.997 0 0)
(165.14 0 0)
(165.282 0 0)
(165.424 0 0)
(165.566 0 0)
(165.706 0 0)
(165.846 0 0)
(165.984 0 0)
(166.122 0 0)
(166.258 0 0)
(166.393 0 0)
(166.526 0 0)
(166.657 0 0)
(166.786 0 0)
(166.913 0 0)
(167.038 0 0)
(167.16 0 0)
(167.28 0 0)
(167.396 0 0)
(167.51 0 0)
(167.621 0 0)
(167.729 0 0)
(167.833 0 0)
(167.934 0 0)
(168.032 0 0)
(168.126 0 0)
(168.217 0 0)
(168.304 0 0)
(168.389 0 0)
(168.47 0 0)
(168.548 0 0)
(168.624 0 0)
(168.696 0 0)
(168.767 0 0)
(168.835 0 0)
(168.902 0 0)
(168.966 0 0)
(169.03 0 0)
(169.092 0 0)
(169.154 0 0)
(169.215 0 0)
(169.276 0 0)
(169.338 0 0)
(169.399 0 0)
(169.462 0 0)
(169.525 0 0)
(169.589 0 0)
(169.655 0 0)
(169.721 0 0)
(169.79 0 0)
(169.86 0 0)
(169.931 0 0)
(170.005 0 0)
(170.08 0 0)
(170.158 0 0)
(170.237 0 0)
(170.318 0 0)
(170.401 0 0)
(170.485 0 0)
(170.572 0 0)
(170.66 0 0)
(170.751 0 0)
(170.843 0 0)
(170.936 0 0)
(171.032 0 0)
(171.129 0 0)
(171.227 0 0)
(171.327 0 0)
(171.429 0 0)
(171.532 0 0)
(171.637 0 0)
(171.743 0 0)
(171.85 0 0)
(171.959 0 0)
(172.069 0 0)
(172.18 0 0)
(172.292 0 0)
(172.406 0 0)
(172.521 0 0)
(172.637 0 0)
(172.754 0 0)
(172.872 0 0)
(172.991 0 0)
(173.111 0 0)
(173.232 0 0)
(173.355 0 0)
(173.478 0 0)
(173.602 0 0)
(173.728 0 0)
(173.854 0 0)
(173.981 0 0)
(174.109 0 0)
(174.238 0 0)
(174.367 0 0)
(174.498 0 0)
(174.63 0 0)
(174.762 0 0)
(174.895 0 0)
(175.029 0 0)
(175.164 0 0)
(175.299 0 0)
(175.435 0 0)
(175.572 0 0)
(175.71 0 0)
(175.849 0 0)
(175.988 0 0)
(176.128 0 0)
(176.269 0 0)
(176.41 0 0)
(176.552 0 0)
(176.695 0 0)
(176.838 0 0)
(176.982 0 0)
(177.127 0 0)
(177.273 0 0)
(177.42 0 0)
(177.57 0 0)
(177.853 0 0)
)
;

boundaryField
{
    sides
    {
        type            zeroGradient;
    }
    empty
    {
        type            empty;
    }
}


// ************************************************************************* //
