/*--------------------------------*- C++ -*----------------------------------*\
  =========                 |
  \\      /  F ield         | OpenFOAM: The Open Source CFD Toolbox
   \\    /   O peration     | Website:  https://openfoam.org
    \\  /    A nd           | Version:  9
     \\/     M anipulation  |
\*---------------------------------------------------------------------------*/
FoamFile
{
    format      ascii;
    class       volScalarField;
    location    "0.028";
    object      p;
}
// * * * * * * * * * * * * * * * * * * * * * * * * * * * * * * * * * * * * * //

dimensions      [1 -1 -2 0 0 0 0];

internalField   nonuniform List<scalar> 
1000
(
22672.6
22666.5
22661
22657.2
22653.3
22649.2
22645
22640.8
22636.8
22632.6
22628.5
22624.4
22620.2
22616.1
22612
22607.8
22603.7
22599.5
22595.4
22591.2
22587
22582.9
22578.7
22574.5
22570.4
22566.2
22562
22557.8
22553.6
22549.4
22545.2
22541
22536.8
22532.6
22528.4
22524.2
22520
22515.8
22511.5
22507.3
22503.1
22498.8
22494.6
22490.4
22486.1
22481.9
22477.6
22473.4
22469.1
22464.9
22460.6
22456.3
22452
22447.8
22443.5
22439.2
22434.9
22430.6
22426.3
22422.1
22417.8
22413.5
22409.2
22404.8
22400.5
22396.2
22391.9
22387.6
22383.2
22378.9
22374.6
22370.2
22365.9
22361.5
22357.2
22352.9
22348.5
22344.2
22339.8
22335.5
22331.1
22326.8
22322.4
22318.1
22313.7
22309.3
22305
22300.6
22296.2
22291.8
22287.4
22283.1
22278.7
22274.3
22269.9
22265.5
22261.1
22256.7
22252.3
22247.9
22243.5
22239.1
22234.7
22230.3
22225.9
22221.5
22217.1
22212.7
22208.3
22203.9
22199.4
22195
22190.6
22186.2
22181.8
22177.4
22173
22168.5
22164.1
22159.7
22155.3
22150.9
22146.4
22142
22137.6
22133.2
22128.8
22124.3
22119.9
22115.5
22111.1
22106.6
22102.2
22097.8
22093.3
22088.9
22084.5
22080
22075.6
22071.2
22066.7
22062.3
22057.9
22053.4
22049
22044.5
22040.1
22035.7
22031.2
22026.8
22022.3
22017.9
22013.4
22009
22004.5
22000.1
21995.6
21991.2
21986.7
21982.3
21977.8
21973.4
21968.9
21964.4
21960
21955.5
21951
21946.6
21942.1
21937.7
21933.2
21928.7
21924.3
21919.8
21915.3
21910.9
21906.4
21901.9
21897.4
21893
21888.5
21884
21879.5
21875
21870.6
21866.1
21861.6
21857.1
21852.6
21848.2
21843.7
21839.2
21834.7
21830.2
21825.8
21821.3
21816.8
21812.3
21807.8
21803.3
21798.8
21794.3
21789.8
21785.3
21780.9
21776.4
21771.9
21767.4
21762.9
21758.4
21753.9
21749.4
21744.9
21740.4
21735.9
21731.4
21726.9
21722.4
21717.9
21713.4
21708.9
21704.4
21699.9
21695.4
21690.9
21686.5
21681.9
21677.4
21673
21668.5
21664
21659.5
21655
21650.5
21646
21641.5
21637
21632.5
21628
21623.5
21619
21614.5
21610.1
21605.6
21601.1
21596.6
21592.1
21587.6
21583.2
21578.7
21574.2
21569.7
21565.3
21560.8
21556.3
21551.8
21547.4
21542.9
21538.4
21534
21529.5
21525.1
21520.6
21516.1
21511.7
21507.3
21502.8
21498.4
21493.9
21489.5
21485.1
21480.6
21476.2
21471.8
21467.4
21463
21458.5
21454.1
21449.7
21445.3
21440.9
21436.5
21432.2
21427.8
21423.4
21419
21414.7
21410.3
21405.9
21401.6
21397.3
21392.9
21388.6
21384.3
21379.9
21375.6
21371.3
21367
21362.7
21358.4
21354.2
21349.9
21345.6
21341.4
21337.1
21332.9
21328.7
21324.5
21320.3
21316.1
21311.9
21307.7
21303.5
21299.4
21295.2
21291.1
21287
21282.9
21278.8
21274.7
21270.6
21266.5
21262.5
21258.6
21254.6
21250.5
21246.4
21242.4
21238.6
21234.9
21231
21227
21222.8
21218.8
21215.1
21211.6
21208.2
21204.7
21200.7
21196.4
21192.2
21188.5
21185.2
21182.3
21179.5
21176.4
21172.6
21168.2
21163.7
21159.6
21156.1
21153.2
21150.9
21148.8
21146.9
21144.5
21141.4
21137.3
21132.6
21127.9
21123.5
21119.5
21116.2
21113.4
21111.2
21109.6
21108.6
21107.9
21107.7
21107.6
21107.6
21107.6
21107.6
21107.7
21107.7
21107.8
21107.9
21108.3
21108.9
21110.1
21112.4
21116
21121.2
21127
21133.7
21141.2
21149.2
21157.2
21165.3
21173.6
21181.7
21189.5
21196.9
21204
21210.7
21217
21222.7
21228.1
21233
21237.7
21242.2
21246.3
21250.2
21253.8
21257.2
21260.5
21263.7
21266.9
21270
21273
21275.9
21278.8
21281.7
21284.5
21287.3
21290.1
21293
21295.8
21298.4
21301
21303.5
21306
21308.6
21311.3
21314.2
21317
21319.8
21322.3
21324.4
21325.8
21326.6
21327.4
21328.7
21331.3
21336.5
21344.6
21355.8
21369.3
21384.3
21400.5
21417
21433.4
21449.4
21465.1
21480.2
21494.4
21507.7
21519.9
21531.2
21541.5
21551
21560.1
21569.1
21578
21586.7
21594.8
21602.3
21609.3
21615.8
21621.9
21627.8
21633.3
21638.5
21643
21646.8
21652
21661.4
21680.3
21716.9
21761.6
21806.4
21844.5
21871.4
21888.1
21897.2
21901.9
21905.5
21908.5
21910.7
21912.2
21913.8
21915.9
21919
21923.6
21932.3
21949.9
21985.1
22039.7
22096.3
22146.2
22188.1
22220.7
22242.9
22255.8
22262.3
22269.8
22282.4
22301.5
22326.9
22359.1
22396.6
22436.2
22473
22500.6
22519.5
22533.3
22544.3
22553.1
22558.9
22563.2
22566.2
22568.9
22572.8
22580.8
22597.2
22631.2
22698.7
22762.2
22807.8
22835.7
22851.4
22862.2
22869.9
22874.8
22878
22882.1
22889.5
22905.1
22938.3
23005.6
23072.5
23110.8
23130.4
23141.6
23149.3
23156.2
23161.6
23172.5
23195.4
23241.9
23320.4
23367.2
23393.7
23405.5
23423
23456.5
23500.1
23535.9
23556.9
23562.7
23565
23571
23587.8
23627.3
23700.5
23761.2
23793.9
23820.4
23845.1
23854.3
23864.4
23885.2
23904.4
23918.8
23936.6
23970.5
24012.7
24020.5
24018.1
24034.6
24044.3
24046.1
24062.9
24068.5
24059.4
24118.7
24207.3
24215.5
24222.6
24204
24231.7
24287.1
24298.8
24308.3
24320
24278.9
24271.1
24385.2
24462.4
24525.5
24584.1
24627.7
24647.7
24678
24708.1
24733.1
24747.9
24751
24753.6
24752.5
24764.5
24770.7
24756.6
24781.5
24857.1
24885.9
24881.8
24886.1
25011.6
25032
25038.6
24999.5
25022.3
25146.8
25167.9
25181.1
25189.2
25207.1
25250.4
25285.7
25317.4
25347.2
25363.6
25370
25328
25384.9
25493.9
25518.5
25523.4
25532.9
25556
25605.6
25668.7
25698.6
25753.5
25786.2
25791
25800.7
25811.7
25832.7
25859.4
25865.7
25855
25870.6
25989.8
26035.4
26045.2
26025.1
26085.6
26197
26205.5
26213
26215.6
26220.1
26250.1
26271.6
26271.7
26251.7
26292.7
26410.2
26444.3
26459.9
26456.8
26460.5
26450
26462.5
26565.6
26584.6
26583.3
26555.9
26633.6
26729.6
26756.5
26792.3
26797.4
26797.3
26770.3
26829
26913.3
26953.1
26994.7
27013.8
27015.2
26989.8
27008.4
27099.7
27152.9
27178.3
27179.2
27169.2
27255.3
27282.7
27294.6
27298.3
27286
27322.6
27424.1
27461
27478.9
27480.9
27459
27519.2
27585.1
27638.7
27667
27677.2
27668.6
27688.6
27771
27778
27787.9
27771.6
27775.3
27911.2
27983
27985.4
27982.6
27989.5
27998.3
27982.4
28037.8
28096.1
28110.9
28142
28149
28129.1
28211.8
28286.2
28294.5
28305.9
28352
28375.3
28361.3
28393.7
28502.4
28524.8
28531.5
28534.7
28525.4
28546.2
28596.8
28616.2
28613.3
28671.5
28748
28758.4
28748.9
28759.4
28873.5
28928.1
28945.1
28936.2
28951.2
29039
29073.1
29080.1
29072
29159.4
29193.2
29192.3
29174.6
29220.3
29292.6
29338.4
29358.6
29343.1
29422.6
29509.5
29541.2
29563.4
29566.5
29545
29638.1
29734.1
29769.7
29799
29825.9
29845.3
29847.9
29828.5
29914.9
29997.9
30030.6
30054
30062.3
30046.4
30111.3
30215.5
30242.8
30249.4
30225.4
30341.1
30469.6
30503.4
30516.3
30528.1
30506.1
30455.7
30621.5
30768.6
30815.6
30858.1
30902.8
30952.8
30998.1
31037.9
31077.5
31113.8
31151.9
31195.3
31246.6
31300.1
31355
31409.4
31462.8
31508.2
31556.4
31612.9
31675.5
31740.2
31805.3
31862.2
31920.2
31988
32055.1
32107.4
32129.8
32132.8
32132.1
32129.9
32126.4
32126.6
32126.3
32131.5
32137.1
32144.4
32153.9
32185.3
32268.1
32296.6
32312.6
32323.7
32304.8
32298.7
32457
32522.4
32540.5
32515.7
32493.2
32692.9
32781.6
32789
32726.1
32776.9
32949.9
32979.6
32931.6
32924.2
33144.1
33223.4
33226.5
33100.8
33105.7
33348.2
33426.1
33434.8
33311.6
33272.3
33418
33496.3
33488.6
33432.2
33577.4
33724.2
33769
33790.3
33679.1
33610
33877.8
34051.4
34082.2
33883.1
33787.1
34013.1
34194.7
34218.9
34032.4
33959.6
34195.1
34340.2
34329.9
34140.3
34137.4
34405.8
34490.1
34401.3
34255.1
34335.3
34518.7
34551.5
34477.1
34409.1
34475.7
34544.4
34547.4
34529.4
34565.3
34599.3
34583
34612.9
34700.6
34706.1
34675.7
34739.3
34811.6
34815.4
34791.3
34812.1
34848.6
34821.2
34867.2
35015.2
35038.3
34995.5
34961.4
34972.9
34981.7
34965.5
35024.3
35069.4
35046.5
35049.1
35178.1
35211.3
35175.7
35133.6
35192
35233.3
35197.1
35181.9
35284.9
35318.3
35276.9
35249.4
35310.3
35337.5
35320.3
35309.9
35333.4
35327.1
35326.8
35449
35484
35443.8
35403.5
35483.6
35533.7
35503.3
35458.4
35463.5
35473.1
35431.7
35546.4
35687.8
35654.8
35510.5
35517.7
35648.9
35675.4
35596
35558.6
35643.8
35684.3
35636.2
35601.1
35649.7
35681.7
35633.5
35643.7
35784.9
35763.4
35590.9
35633
35859.1
35827.6
35568.5
35589.7
35903.1
35915.1
35593.2
35546.6
35844.5
35945.5
35790.3
35618.7
35586.6
35799.9
36046.9
35917.2
35499.6
)
;

boundaryField
{
    sides
    {
        type            zeroGradient;
    }
    empty
    {
        type            empty;
    }
}


// ************************************************************************* //
