/*--------------------------------*- C++ -*----------------------------------*\
  =========                 |
  \\      /  F ield         | OpenFOAM: The Open Source CFD Toolbox
   \\    /   O peration     | Website:  https://openfoam.org
    \\  /    A nd           | Version:  9
     \\/     M anipulation  |
\*---------------------------------------------------------------------------*/
FoamFile
{
    format      ascii;
    class       volScalarField;
    location    "0.026";
    object      T;
}
// * * * * * * * * * * * * * * * * * * * * * * * * * * * * * * * * * * * * * //

dimensions      [0 0 0 1 0 0 0];

internalField   nonuniform List<scalar> 
100
(
247.654
247.461
247.337
247.285
247.19
247.004
246.776
246.482
246.26
245.891
245.717
245.359
245.135
244.867
244.553
244.368
244.067
243.756
243.591
243.359
243.004
242.756
242.631
242.407
242.056
241.801
241.689
241.524
241.213
240.947
240.828
240.725
240.503
240.228
240.06
240.006
239.945
239.792
239.591
239.494
239.485
239.5
239.479
239.442
239.44
239.461
239.546
239.634
239.715
239.812
239.956
240.197
240.539
240.85
241.068
241.332
241.676
242.136
242.661
243.075
243.398
243.77
244.216
244.719
245.212
245.604
245.897
246.177
246.497
246.821
247.119
247.381
247.588
247.744
247.874
248.004
248.147
248.276
248.402
248.537
248.629
248.68
248.75
248.84
248.927
249.013
249.076
249.102
249.114
249.141
249.206
249.282
249.334
249.359
249.369
249.381
249.413
249.497
249.537
249.616
)
;

boundaryField
{
    sides
    {
        type            zeroGradient;
    }
    empty
    {
        type            empty;
    }
}


// ************************************************************************* //
