/*--------------------------------*- C++ -*----------------------------------*\
  =========                 |
  \\      /  F ield         | OpenFOAM: The Open Source CFD Toolbox
   \\    /   O peration     | Website:  https://openfoam.org
    \\  /    A nd           | Version:  9
     \\/     M anipulation  |
\*---------------------------------------------------------------------------*/
FoamFile
{
    format      ascii;
    class       volScalarField;
    location    "0.042";
    object      p;
}
// * * * * * * * * * * * * * * * * * * * * * * * * * * * * * * * * * * * * * //

dimensions      [1 -1 -2 0 0 0 0];

internalField   nonuniform List<scalar> 
1000
(
11306.7
11305.3
11303
11301
11299.3
11297.6
11295.9
11294.2
11292.5
11290.8
11289
11287.3
11285.6
11283.9
11282.2
11280.5
11278.9
11277.2
11275.5
11273.8
11272.2
11270.5
11268.8
11267.2
11265.5
11263.9
11262.2
11260.6
11258.9
11257.3
11255.7
11254
11252.4
11250.8
11249.2
11247.6
11246
11244.4
11242.8
11241.2
11239.6
11238
11236.4
11234.8
11233.3
11231.7
11230.2
11228.6
11227
11225.5
11224
11222.4
11220.9
11219.4
11217.8
11216.3
11214.8
11213.3
11211.8
11210.3
11208.8
11207.3
11205.8
11204.4
11202.9
11201.4
11200
11198.5
11197.1
11195.6
11194.2
11192.7
11191.3
11189.9
11188.5
11187.1
11185.7
11184.3
11182.9
11181.5
11180.1
11178.7
11177.4
11176
11174.6
11173.3
11172
11170.6
11169.3
11168
11166.7
11165.4
11164.1
11162.8
11161.5
11160.2
11159
11157.7
11156.5
11155.2
11154
11152.7
11151.5
11150.3
11149.1
11147.9
11146.8
11145.6
11144.4
11143.3
11142.1
11141
11139.9
11138.8
11137.6
11136.6
11135.5
11134.4
11133.3
11132.3
11131.3
11130.2
11129.2
11128.2
11127.2
11126.2
11125.3
11124.3
11123.4
11122.5
11121.5
11120.6
11119.8
11118.9
11118
11117.2
11116.4
11115.5
11114.7
11114
11113.2
11112.4
11111.7
11111
11110.3
11109.6
11108.9
11108.3
11107.7
11107.1
11106.5
11105.9
11105.3
11104.8
11104.3
11103.8
11103.3
11102.9
11102.5
11102.1
11101.7
11101.3
11101
11100.7
11100.4
11100.1
11099.9
11099.7
11099.5
11099.3
11099.2
11099.1
11099
11098.9
11098.9
11098.9
11099
11099
11099.1
11099.2
11099.4
11099.6
11099.9
11100.2
11100.5
11100.9
11101.3
11101.7
11102.2
11102.7
11103.3
11103.9
11104.5
11105.2
11105.9
11106.7
11107.5
11108.3
11109.2
11110.2
11111.2
11112.2
11113.3
11114.5
11115.7
11116.9
11118.3
11119.6
11121
11122.5
11124
11125.6
11127.3
11129
11130.8
11132.6
11134.5
11136.5
11138.5
11140.6
11142.7
11144.9
11147.2
11149.6
11152
11154.5
11157.1
11159.8
11162.5
11165.3
11168.2
11171.1
11174.1
11177.2
11180.4
11183.7
11187
11190.4
11193.9
11197.5
11201.2
11204.9
11208.8
11212.7
11216.7
11220.7
11224.9
11229.1
11233.5
11237.9
11242.3
11246.9
11251.6
11256.3
11261.1
11266
11271
11276.1
11281.2
11286.4
11291.7
11297.1
11302.5
11308.1
11313.7
11319.3
11325.1
11330.9
11336.8
11342.8
11348.8
11354.9
11361
11367.3
11373.5
11379.9
11386.3
11392.8
11399.3
11405.8
11412.5
11419.2
11425.9
11432.7
11439.5
11446.4
11453.3
11460.2
11467.2
11474.3
11481.4
11488.5
11495.6
11502.8
11510
11517.3
11524.6
11531.9
11539.2
11546.6
11554
11561.4
11568.8
11576.3
11583.8
11591.3
11598.8
11606.4
11613.9
11621.5
11629.1
11636.7
11644.4
11652
11659.7
11667.3
11675
11682.7
11690.4
11698.2
11705.9
11713.6
11721.4
11729.2
11736.9
11744.7
11752.5
11760.3
11768.1
11776
11783.8
11791.6
11799.5
11807.3
11815.2
11823.1
11831
11838.9
11846.8
11854.7
11862.6
11870.5
11878.4
11886.4
11894.3
11902.3
11910.2
11918.2
11926.2
11934.2
11942.2
11950.1
11958.2
11966.2
11974.2
11982.2
11990.2
11998.3
12006.3
12014.4
12022.4
12030.5
12038.6
12046.7
12054.8
12062.8
12070.9
12079.1
12087.2
12095.3
12103.4
12111.6
12119.7
12127.9
12136
12144.2
12152.4
12160.6
12168.7
12176.9
12185.1
12193.3
12201.6
12209.8
12218
12226.2
12234.5
12242.7
12251
12259.3
12267.5
12275.8
12284.1
12292.4
12300.7
12309
12317.3
12325.6
12334
12342.3
12350.7
12359
12367.4
12375.7
12384.1
12392.5
12400.9
12409.2
12417.6
12426.1
12434.5
12442.9
12451.3
12459.8
12468.2
12476.6
12485.1
12493.6
12502
12510.5
12519
12527.5
12536
12544.5
12553
12561.5
12570.1
12578.6
12587.1
12595.7
12604.2
12612.8
12621.4
12630
12638.5
12647.1
12655.7
12664.3
12673
12681.6
12690.2
12698.9
12707.5
12716.1
12724.8
12733.5
12742.1
12750.8
12759.5
12768.2
12776.9
12785.6
12794.3
12803.1
12811.8
12820.5
12829.3
12838
12846.8
12855.6
12864.3
12873.1
12881.9
12890.7
12899.5
12908.3
12917.2
12926
12934.8
12943.7
12952.5
12961.4
12970.2
12979.1
12988
12996.9
13005.8
13014.7
13023.6
13032.5
13041.4
13050.4
13059.3
13068.3
13077.2
13086.2
13095.2
13104.1
13113.1
13122.1
13131.1
13140.1
13149.1
13158.2
13167.2
13176.2
13185.3
13194.3
13203.4
13212.5
13221.6
13230.6
13239.7
13248.8
13257.9
13267.1
13276.2
13285.3
13294.5
13303.6
13312.8
13321.9
13331.1
13340.3
13349.4
13358.6
13367.8
13377
13386.3
13395.5
13404.7
13414
13423.2
13432.5
13441.7
13451
13460.3
13469.6
13478.8
13488.2
13497.5
13506.8
13516.1
13525.4
13534.8
13544.1
13553.5
13562.8
13572.2
13581.6
13591
13600.4
13609.8
13619.2
13628.6
13638
13647.5
13656.9
13666.4
13675.8
13685.3
13694.8
13704.2
13713.7
13723.2
13732.7
13742.2
13751.8
13761.3
13770.8
13780.4
13789.9
13799.5
13809.1
13818.6
13828.2
13837.8
13847.4
13857
13866.7
13876.3
13885.9
13895.6
13905.2
13914.9
13924.5
13934.2
13943.9
13953.6
13963.3
13973
13982.7
13992.4
14002.1
14011.9
14021.6
14031.4
14041.1
14050.9
14060.7
14070.5
14080.3
14090.1
14099.9
14109.7
14119.5
14129.4
14139.2
14149.1
14158.9
14168.8
14178.7
14188.6
14198.4
14208.3
14218.3
14228.2
14238.1
14248
14258
14267.9
14277.9
14287.9
14297.8
14307.8
14317.8
14327.8
14337.8
14347.8
14357.9
14367.9
14377.9
14388
14398
14408.1
14418.2
14428.3
14438.4
14448.5
14458.6
14468.7
14478.8
14488.9
14499.1
14509.2
14519.4
14529.6
14539.7
14549.9
14560.1
14570.3
14580.5
14590.7
14601
14611.2
14621.5
14631.7
14642
14652.2
14662.5
14672.8
14683.1
14693.4
14703.7
14714
14724.4
14734.7
14745
14755.4
14765.8
14776.1
14786.5
14796.9
14807.3
14817.7
14828.1
14838.5
14849
14859.4
14869.9
14880.3
14890.8
14901.3
14911.8
14922.3
14932.8
14943.3
14953.8
14964.3
14974.9
14985.4
14996
15006.5
15017.1
15027.7
15038.3
15048.9
15059.5
15070.1
15080.8
15091.4
15102.1
15112.7
15123.4
15134
15144.7
15155.4
15166.1
15176.8
15187.5
15198.3
15209
15219.7
15230.5
15241.2
15252
15262.8
15273.6
15284.4
15295.2
15306
15316.8
15327.6
15338.5
15349.3
15360.2
15371.1
15381.9
15392.8
15403.7
15414.6
15425.6
15436.5
15447.5
15458.4
15469.4
15480.4
15491.4
15502.4
15513.4
15524.5
15535.5
15546.6
15557.7
15568.8
15579.9
15591.1
15602.2
15613.4
15624.6
15635.9
15647.1
15658.4
15669.7
15681
15692.4
15703.8
15715.2
15726.6
15738.1
15749.6
15761.2
15772.8
15784.4
15796.1
15807.8
15819.5
15831.3
15843.2
15855.1
15867
15879
15891
15903.1
15915.3
15927.5
15939.8
15952.1
15964.5
15977
15989.5
16002.1
16014.7
16027.5
16040.2
16053.1
16066
16079
16092.1
16105.2
16118.4
16131.7
16145
16158.4
16171.8
16185.3
16198.9
16212.5
16226.2
16240
16253.8
16267.6
16281.5
16295.4
16309.4
16323.4
16337.5
16351.5
16365.6
16379.8
16393.9
16408
16422.2
16436.4
16450.6
16464.7
16478.9
16493.1
16507.2
16521.3
16535.5
16549.6
16563.6
16577.7
16591.7
16605.7
16619.6
16633.5
16647.4
16661.3
16675.1
16688.8
16702.5
16716.2
16729.9
16743.5
16757
16770.5
16784
16797.4
16810.8
16824.1
16837.4
16850.7
16863.9
16877.1
16890.2
16903.3
16916.4
16929.5
16942.5
16955.5
16968.4
16981.4
16994.3
17007.2
17020
17032.9
17045.7
17058.5
17071.3
17084.1
17096.8
17109.6
17122.3
17135
17147.8
17160.5
17173.2
17185.9
17198.6
17211.2
17223.9
17236.6
17249.3
17261.9
17274.6
17287.3
17299.9
17312.6
17325.2
17337.9
17350.6
17363.3
17375.9
17388.6
17401.3
17414
17426.7
17439.4
17452.2
17464.9
17477.7
17490.5
17503.3
17516.2
17529.1
17542
17555
17568
17581.1
17594.3
17607.5
17620.8
17634.2
17647.7
17661.3
17675
17688.9
17702.9
17717.1
17731.4
17745.9
17760.6
17775.5
17790.6
17805.9
17821.5
17837.3
17853.3
17869.6
17886.2
17903
17920.1
17937.5
17955.2
17973.1
17991.2
18009.6
18028.2
18047.1
18066.1
18085.4
18104.8
18124.4
18144.1
18164
18183.9
18203.9
18224
18244.1
18264.2
18284.3
18304.3
18324.3
18344.3
18364.2
18384
18403.7
18423.3
18442.7
18462.1
18481.3
18500.4
18519.4
18538.3
18557
18575.5
18594
18612.3
18630.5
18648.5
18666.5
18684.3
18702
18719.6
18737.1
18754.4
18771.7
18788.9
18805.9
18822.9
18839.8
18856.6
18873.3
18889.9
18906.5
18922.9
18939.3
18955.6
18971.8
18988
19004.1
19020.1
19036
19051.9
19067.7
19083.5
19099.2
19114.8
19130.3
19145.9
19161.3
19176.7
19192
19207.3
19222.5
19237.7
19252.8
19267.8
19282.9
19297.8
19312.7
19327.6
19342.4
19357.2
19371.9
19386.5
19401.2
19415.3
)
;

boundaryField
{
    sides
    {
        type            zeroGradient;
    }
    empty
    {
        type            empty;
    }
}


// ************************************************************************* //
