/*--------------------------------*- C++ -*----------------------------------*\
  =========                 |
  \\      /  F ield         | OpenFOAM: The Open Source CFD Toolbox
   \\    /   O peration     | Website:  https://openfoam.org
    \\  /    A nd           | Version:  9
     \\/     M anipulation  |
\*---------------------------------------------------------------------------*/
FoamFile
{
    format      ascii;
    class       volScalarField;
    location    "0.042";
    object      rho;
}
// * * * * * * * * * * * * * * * * * * * * * * * * * * * * * * * * * * * * * //

dimensions      [1 -3 0 0 0 0 0];

internalField   nonuniform List<scalar> 
1000
(
0.211887
0.211853
0.211795
0.21174
0.211688
0.211638
0.211587
0.211536
0.211485
0.211434
0.211383
0.211332
0.211281
0.21123
0.211179
0.211129
0.211079
0.211029
0.210978
0.210927
0.210876
0.210825
0.210776
0.210727
0.210679
0.21063
0.21058
0.210529
0.210478
0.210427
0.210376
0.210327
0.21028
0.210234
0.210189
0.210143
0.210097
0.21005
0.210001
0.209951
0.209899
0.209847
0.209795
0.209743
0.209693
0.209646
0.209601
0.209559
0.20952
0.209485
0.209451
0.20942
0.209389
0.20936
0.209331
0.209303
0.209275
0.209247
0.20922
0.209197
0.209177
0.209155
0.209136
0.209116
0.209096
0.209077
0.209058
0.209038
0.20902
0.209
0.208981
0.208963
0.208944
0.208925
0.208906
0.208888
0.208869
0.208851
0.208832
0.208814
0.208796
0.208777
0.208759
0.208741
0.208723
0.208705
0.208687
0.20867
0.208652
0.208635
0.208617
0.2086
0.208583
0.208566
0.208549
0.208532
0.208515
0.208498
0.208482
0.208465
0.208449
0.208433
0.208417
0.208401
0.208385
0.208369
0.208353
0.208338
0.208322
0.208307
0.208292
0.208277
0.208262
0.208247
0.208233
0.208218
0.208204
0.20819
0.208176
0.208162
0.208148
0.208134
0.208121
0.208107
0.208094
0.208081
0.208069
0.208056
0.208043
0.208031
0.208019
0.208007
0.207995
0.207984
0.207972
0.207961
0.20795
0.20794
0.207929
0.207919
0.207909
0.207899
0.207889
0.207879
0.20787
0.207861
0.207852
0.207844
0.207836
0.207827
0.20782
0.207812
0.207805
0.207798
0.207791
0.207785
0.207778
0.207772
0.207767
0.207761
0.207756
0.207752
0.207747
0.207743
0.207739
0.207736
0.207733
0.20773
0.207728
0.207726
0.207724
0.207723
0.207722
0.207721
0.207721
0.207721
0.207721
0.207722
0.207724
0.207726
0.207728
0.207731
0.207735
0.207739
0.207743
0.207748
0.207753
0.207759
0.207766
0.207773
0.20778
0.207788
0.207797
0.207806
0.207816
0.207826
0.207837
0.207848
0.20786
0.207873
0.207887
0.207901
0.207915
0.207931
0.207947
0.207964
0.207981
0.208
0.208019
0.208038
0.208059
0.20808
0.208102
0.208125
0.208149
0.208173
0.208199
0.208225
0.208252
0.20828
0.208309
0.208339
0.208369
0.208401
0.208433
0.208467
0.208501
0.208537
0.208573
0.20861
0.208649
0.208688
0.208729
0.20877
0.208812
0.208856
0.208901
0.208946
0.208993
0.209041
0.209089
0.209139
0.20919
0.209243
0.209296
0.20935
0.209405
0.209462
0.209519
0.209578
0.209638
0.209699
0.209761
0.209824
0.209888
0.209953
0.210019
0.210087
0.210155
0.210224
0.210295
0.210366
0.210439
0.210512
0.210587
0.210662
0.210739
0.210816
0.210894
0.210973
0.211053
0.211134
0.211216
0.211299
0.211382
0.211466
0.211551
0.211637
0.211723
0.211811
0.211898
0.211987
0.212076
0.212166
0.212257
0.212348
0.212439
0.212531
0.212624
0.212717
0.212811
0.212905
0.213
0.213095
0.21319
0.213286
0.213383
0.213479
0.213576
0.213674
0.213771
0.213869
0.213968
0.214066
0.214165
0.214264
0.214363
0.214463
0.214563
0.214663
0.214763
0.214863
0.214964
0.215064
0.215165
0.215266
0.215368
0.215469
0.215571
0.215672
0.215774
0.215876
0.215978
0.21608
0.216183
0.216285
0.216388
0.21649
0.216593
0.216695
0.216799
0.216901
0.217005
0.217108
0.217211
0.217314
0.217418
0.217521
0.217625
0.217729
0.217832
0.217936
0.21804
0.218144
0.218248
0.218352
0.218457
0.218561
0.218665
0.21877
0.218874
0.218979
0.219084
0.219188
0.219293
0.219398
0.219503
0.219608
0.219713
0.219819
0.219924
0.220029
0.220135
0.22024
0.220346
0.220451
0.220557
0.220663
0.220769
0.220874
0.220981
0.221086
0.221193
0.221299
0.221405
0.221511
0.221618
0.221724
0.221831
0.221937
0.222045
0.222151
0.222258
0.222365
0.222472
0.222579
0.222686
0.222793
0.222901
0.223007
0.223116
0.223222
0.223331
0.223437
0.223546
0.223653
0.223761
0.223869
0.223977
0.224085
0.224193
0.224301
0.22441
0.224517
0.224627
0.224734
0.224844
0.224951
0.225061
0.225169
0.225278
0.225387
0.225496
0.225604
0.225714
0.225823
0.225933
0.226041
0.226151
0.22626
0.22637
0.226479
0.22659
0.226699
0.226809
0.226918
0.227029
0.227138
0.227249
0.227358
0.227469
0.227579
0.22769
0.2278
0.227911
0.228021
0.228132
0.228242
0.228354
0.228464
0.228576
0.228686
0.228798
0.228908
0.22902
0.229131
0.229243
0.229353
0.229466
0.229576
0.229689
0.2298
0.229912
0.230024
0.230136
0.230248
0.23036
0.230472
0.230585
0.230696
0.230809
0.230921
0.231034
0.231146
0.23126
0.231372
0.231485
0.231597
0.231711
0.231823
0.231937
0.23205
0.232164
0.232276
0.23239
0.232503
0.232617
0.23273
0.232845
0.232958
0.233072
0.233185
0.2333
0.233413
0.233528
0.233642
0.233757
0.23387
0.233986
0.234099
0.234215
0.234329
0.234444
0.234558
0.234674
0.234788
0.234904
0.235018
0.235134
0.235248
0.235365
0.235479
0.235595
0.23571
0.235827
0.235941
0.236058
0.236173
0.23629
0.236405
0.236522
0.236637
0.236754
0.236869
0.236987
0.237102
0.23722
0.237335
0.237453
0.237568
0.237686
0.237802
0.23792
0.238036
0.238154
0.23827
0.238389
0.238505
0.238623
0.23874
0.238858
0.238975
0.239093
0.23921
0.239329
0.239446
0.239565
0.239682
0.239801
0.239918
0.240038
0.240155
0.240274
0.240392
0.240512
0.240629
0.240749
0.240866
0.240987
0.241104
0.241225
0.241342
0.241463
0.24158
0.241702
0.241819
0.241941
0.242057
0.242181
0.242296
0.242421
0.242535
0.242662
0.242774
0.242903
0.243014
0.243144
0.243253
0.243386
0.243493
0.243628
0.243733
0.24387
0.243974
0.244111
0.244216
0.244353
0.244458
0.244596
0.244701
0.244838
0.244943
0.245081
0.245186
0.245324
0.245429
0.245568
0.245673
0.245811
0.245917
0.246055
0.246161
0.2463
0.246406
0.246544
0.24665
0.246789
0.246895
0.247035
0.247141
0.24728
0.247387
0.247526
0.247633
0.247772
0.247879
0.248019
0.248126
0.248266
0.248372
0.248513
0.24862
0.24876
0.248867
0.249008
0.249115
0.249256
0.249363
0.249504
0.249612
0.249753
0.249861
0.250002
0.25011
0.250251
0.250359
0.250501
0.250609
0.250751
0.250859
0.251001
0.251109
0.251251
0.25136
0.251502
0.251611
0.251753
0.251862
0.252005
0.252114
0.252257
0.252366
0.252509
0.252618
0.252761
0.25287
0.253014
0.253123
0.253267
0.253376
0.25352
0.25363
0.253774
0.253884
0.254028
0.254138
0.254282
0.254392
0.254537
0.254647
0.254792
0.254902
0.255047
0.255158
0.255303
0.255413
0.255559
0.255669
0.255815
0.255926
0.256071
0.256183
0.256328
0.25644
0.256585
0.256697
0.256843
0.256955
0.257101
0.257213
0.257359
0.257471
0.257618
0.25773
0.257877
0.257989
0.258136
0.258248
0.258395
0.258508
0.258655
0.258768
0.258915
0.259028
0.259176
0.259289
0.259436
0.259549
0.259698
0.259811
0.259959
0.260072
0.260221
0.260334
0.260483
0.260596
0.260745
0.260859
0.261008
0.261122
0.26127
0.261386
0.261532
0.261651
0.261794
0.261917
0.262056
0.262183
0.262319
0.262448
0.262584
0.262714
0.262849
0.262978
0.263116
0.263244
0.263383
0.263509
0.263651
0.263775
0.263919
0.264042
0.264188
0.26431
0.264458
0.264578
0.264728
0.264846
0.264999
0.265117
0.265271
0.265389
0.265543
0.265661
0.265817
0.265935
0.266091
0.26621
0.266367
0.266487
0.266645
0.266765
0.266924
0.267045
0.267204
0.267327
0.267487
0.26761
0.267772
0.267896
0.268059
0.268184
0.268348
0.268474
0.26864
0.268767
0.268935
0.269063
0.269232
0.269361
0.269532
0.269663
0.269835
0.269967
0.270141
0.270275
0.27045
0.270585
0.270763
0.270899
0.271078
0.271216
0.271397
0.271535
0.271718
0.271858
0.272042
0.272183
0.272369
0.272511
0.272698
0.272842
0.27303
0.273174
0.273363
0.273508
0.273698
0.273843
0.274034
0.27418
0.274371
0.274517
0.274709
0.274855
0.275047
0.275193
0.275384
0.27553
0.275721
0.275867
0.276057
0.276202
0.276392
0.276536
0.276726
0.276869
0.277057
0.2772
0.277387
0.27753
0.277715
0.277857
0.278041
0.278182
0.278365
0.278504
0.278687
0.278825
0.279006
0.279144
0.279323
0.27946
0.279638
0.279774
0.279952
0.280086
0.280263
0.280397
0.280572
0.280706
0.28088
0.281013
0.281186
0.281319
0.281491
0.281623
0.281795
0.281926
0.282098
0.282228
0.282399
0.28253
0.2827
0.28283
0.283
0.28313
0.2833
0.283429
0.283599
0.283728
0.283897
0.284026
0.284195
0.284324
0.284493
0.284622
0.284791
0.284919
0.285088
0.285216
0.285385
0.285514
0.285682
0.285811
0.285979
0.286108
0.286277
0.286406
0.286575
0.286703
0.286873
0.287002
0.287172
0.287301
0.287471
0.287602
0.287773
0.287903
0.288075
0.288207
0.288381
0.288514
0.288689
0.288824
0.289001
0.289137
0.289317
0.289456
0.289639
0.289781
0.289968
0.290112
0.290304
0.290452
0.290649
0.290801
0.291003
0.29116
0.291369
0.29153
0.291745
0.291912
0.292134
0.292306
0.292535
0.292713
0.292948
0.293131
0.293373
0.29356
0.293808
0.294
0.294253
0.294448
0.294705
0.294904
0.295163
0.295365
0.295626
0.295829
0.296091
0.296294
0.296556
0.296758
0.297019
0.297221
0.29748
0.29768
0.297936
0.298134
0.298387
0.298582
0.298832
0.299025
0.299271
0.299461
0.299704
0.299891
0.300131
0.300314
0.300551
0.300732
0.300965
0.301143
0.301374
0.301549
0.301777
0.30195
0.302175
0.302346
0.302568
0.302737
0.302957
0.303124
0.303341
0.303506
0.303721
0.303884
0.304097
0.304259
0.30447
0.30463
0.304839
0.304998
0.305205
0.305362
0.305567
0.305723
0.305927
0.306081
0.306283
0.306436
0.306636
0.306788
0.306987
0.307138
0.307335
0.307485
0.30768
0.307829
0.308023
0.308171
0.308363
0.30851
0.308701
0.308847
0.309037
0.309175
0.309377
0.309469
)
;

boundaryField
{
    sides
    {
        type            calculated;
        value           nonuniform List<scalar> 2(0.309469 0.211887);
    }
    empty
    {
        type            empty;
    }
}


// ************************************************************************* //
