/*--------------------------------*- C++ -*----------------------------------*\
  =========                 |
  \\      /  F ield         | OpenFOAM: The Open Source CFD Toolbox
   \\    /   O peration     | Website:  https://openfoam.org
    \\  /    A nd           | Version:  9
     \\/     M anipulation  |
\*---------------------------------------------------------------------------*/
FoamFile
{
    format      ascii;
    class       volVectorField;
    location    "0.028";
    object      ddt0(rho,U);
}
// * * * * * * * * * * * * * * * * * * * * * * * * * * * * * * * * * * * * * //

dimensions      [1 -2 -2 0 0 0 0];

internalField   nonuniform List<vector> 
1000
(
(-13.4609 0 0)
(-33.5737 0 0)
(-49.5953 0 0)
(-63.0774 0 0)
(-76.4979 0 0)
(-90.459 0 0)
(-104.745 0 0)
(-119.042 0 0)
(-133.164 0 0)
(-147.089 0 0)
(-160.898 0 0)
(-174.667 0 0)
(-188.522 0 0)
(-202.617 0 0)
(-217.003 0 0)
(-231.587 0 0)
(-246.199 0 0)
(-260.786 0 0)
(-275.333 0 0)
(-289.722 0 0)
(-303.945 0 0)
(-318.096 0 0)
(-332.315 0 0)
(-346.601 0 0)
(-361.418 0 0)
(-375.786 0 0)
(-389.937 0 0)
(-404.073 0 0)
(-418.19 0 0)
(-432.333 0 0)
(-446.405 0 0)
(-460.481 0 0)
(-474.633 0 0)
(-488.749 0 0)
(-502.787 0 0)
(-516.827 0 0)
(-530.891 0 0)
(-544.961 0 0)
(-559.056 0 0)
(-573.172 0 0)
(-587.265 0 0)
(-601.334 0 0)
(-615.419 0 0)
(-629.527 0 0)
(-643.625 0 0)
(-657.695 0 0)
(-671.736 0 0)
(-685.754 0 0)
(-699.764 0 0)
(-713.792 0 0)
(-727.845 0 0)
(-741.903 0 0)
(-755.949 0 0)
(-769.986 0 0)
(-784.027 0 0)
(-798.077 0 0)
(-812.136 0 0)
(-826.198 0 0)
(-840.255 0 0)
(-854.3 0 0)
(-868.334 0 0)
(-882.368 0 0)
(-896.408 0 0)
(-910.453 0 0)
(-924.498 0 0)
(-938.542 0 0)
(-952.584 0 0)
(-966.627 0 0)
(-980.672 0 0)
(-994.718 0 0)
(-1008.76 0 0)
(-1022.79 0 0)
(-1036.81 0 0)
(-1050.82 0 0)
(-1064.82 0 0)
(-1078.83 0 0)
(-1092.84 0 0)
(-1106.85 0 0)
(-1120.85 0 0)
(-1134.85 0 0)
(-1148.84 0 0)
(-1162.82 0 0)
(-1176.81 0 0)
(-1190.79 0 0)
(-1204.77 0 0)
(-1218.71 0 0)
(-1232.69 0 0)
(-1246.58 0 0)
(-1260.61 0 0)
(-1274.43 0 0)
(-1288.55 0 0)
(-1302.21 0 0)
(-1316.47 0 0)
(-1330.01 0 0)
(-1344.34 0 0)
(-1358.06 0 0)
(-1371.98 0 0)
(-1386.09 0 0)
(-1400 0 0)
(-1413.88 0 0)
(-1427.73 0 0)
(-1441.81 0 0)
(-1455.39 0 0)
(-1469.91 0 0)
(-1482.88 0 0)
(-1497.87 0 0)
(-1510.73 0 0)
(-1525.32 0 0)
(-1539.16 0 0)
(-1552.32 0 0)
(-1567.63 0 0)
(-1579.96 0 0)
(-1594.84 0 0)
(-1608.89 0 0)
(-1621.37 0 0)
(-1637.26 0 0)
(-1649.71 0 0)
(-1663.4 0 0)
(-1679.12 0 0)
(-1690.61 0 0)
(-1705.61 0 0)
(-1720.59 0 0)
(-1731.76 0 0)
(-1747.75 0 0)
(-1761.93 0 0)
(-1773.04 0 0)
(-1789.7 0 0)
(-1803.28 0 0)
(-1814.34 0 0)
(-1831.47 0 0)
(-1844.74 0 0)
(-1855.62 0 0)
(-1873.03 0 0)
(-1886.35 0 0)
(-1896.93 0 0)
(-1914.36 0 0)
(-1928.13 0 0)
(-1938.32 0 0)
(-1955.42 0 0)
(-1969.97 0 0)
(-1979.8 0 0)
(-1996.23 0 0)
(-2011.76 0 0)
(-2021.44 0 0)
(-2036.82 0 0)
(-2053.41 0 0)
(-2063.33 0 0)
(-2077.26 0 0)
(-2094.82 0 0)
(-2105.58 0 0)
(-2117.69 0 0)
(-2135.76 0 0)
(-2148.2 0 0)
(-2158.39 0 0)
(-2175.88 0 0)
(-2190.94 0 0)
(-2199.91 0 0)
(-2215.14 0 0)
(-2233.03 0 0)
(-2242.81 0 0)
(-2254.3 0 0)
(-2273.36 0 0)
(-2286.73 0 0)
(-2295.01 0 0)
(-2311.67 0 0)
(-2329.72 0 0)
(-2338.51 0 0)
(-2349.82 0 0)
(-2369.51 0 0)
(-2383.34 0 0)
(-2390.9 0 0)
(-2406.7 0 0)
(-2425.77 0 0)
(-2435.46 0 0)
(-2445.13 0 0)
(-2464.09 0 0)
(-2479.95 0 0)
(-2487.67 0 0)
(-2501.07 0 0)
(-2520.8 0 0)
(-2532.76 0 0)
(-2540.76 0 0)
(-2557.85 0 0)
(-2576.39 0 0)
(-2585.13 0 0)
(-2594.76 0 0)
(-2614.51 0 0)
(-2631.18 0 0)
(-2637.81 0 0)
(-2649.25 0 0)
(-2670.48 0 0)
(-2685.57 0 0)
(-2691.18 0 0)
(-2703.99 0 0)
(-2725.67 0 0)
(-2739.51 0 0)
(-2745.2 0 0)
(-2759.03 0 0)
(-2780.3 0 0)
(-2793.01 0 0)
(-2799.2 0 0)
(-2814.26 0 0)
(-2835.09 0 0)
(-2846.51 0 0)
(-2852.69 0 0)
(-2868.92 0 0)
(-2890.27 0 0)
(-2901 0 0)
(-2906.06 0 0)
(-2922.13 0 0)
(-2944.89 0 0)
(-2956.81 0 0)
(-2960.6 0 0)
(-2974.49 0 0)
(-2997.79 0 0)
(-3012.35 0 0)
(-3016.53 0 0)
(-3027.86 0 0)
(-3050.06 0 0)
(-3066.57 0 0)
(-3071.87 0 0)
(-3081.66 0 0)
(-3103.24 0 0)
(-3121.48 0 0)
(-3126.92 0 0)
(-3133.93 0 0)
(-3154.93 0 0)
(-3177.02 0 0)
(-3184.68 0 0)
(-3187.53 0 0)
(-3204.04 0 0)
(-3229.02 0 0)
(-3242.75 0 0)
(-3245.11 0 0)
(-3255.31 0 0)
(-3278.56 0 0)
(-3297.51 0 0)
(-3302.64 0 0)
(-3308.71 0 0)
(-3328.99 0 0)
(-3351.84 0 0)
(-3360.53 0 0)
(-3362.35 0 0)
(-3377 0 0)
(-3403.28 0 0)
(-3420.24 0 0)
(-3421.7 0 0)
(-3426.82 0 0)
(-3448.89 0 0)
(-3473.65 0 0)
(-3482.91 0 0)
(-3483.98 0 0)
(-3497.16 0 0)
(-3522.44 0 0)
(-3539.9 0 0)
(-3542.51 0 0)
(-3547.77 0 0)
(-3569.43 0 0)
(-3594.87 0 0)
(-3604.85 0 0)
(-3604.02 0 0)
(-3614.02 0 0)
(-3639.98 0 0)
(-3662.69 0 0)
(-3668.29 0 0)
(-3669.16 0 0)
(-3684.39 0 0)
(-3710.49 0 0)
(-3727.37 0 0)
(-3729.38 0 0)
(-3733.96 0 0)
(-3755.01 0 0)
(-3781.5 0 0)
(-3793.8 0 0)
(-3792.8 0 0)
(-3798.96 0 0)
(-3822.41 0 0)
(-3848.51 0 0)
(-3859.19 0 0)
(-3858.94 0 0)
(-3867.57 0 0)
(-3891.48 0 0)
(-3914.72 0 0)
(-3922.42 0 0)
(-3922.37 0 0)
(-3933.91 0 0)
(-3960.2 0 0)
(-3983.49 0 0)
(-3989.78 0 0)
(-3988.31 0 0)
(-3998.84 0 0)
(-4024.6 0 0)
(-4048.29 0 0)
(-4055.98 0 0)
(-4055.95 0 0)
(-4066.8 0 0)
(-4091.86 0 0)
(-4114.74 0 0)
(-4121.8 0 0)
(-4120.75 0 0)
(-4130.41 0 0)
(-4155.72 0 0)
(-4181.23 0 0)
(-4191.35 0 0)
(-4190.52 0 0)
(-4196.98 0 0)
(-4218.94 0 0)
(-4244.25 0 0)
(-4256.78 0 0)
(-4257.5 0 0)
(-4262.92 0 0)
(-4283.43 0 0)
(-4309.98 0 0)
(-4325.67 0 0)
(-4327.25 0 0)
(-4329.1 0 0)
(-4345.02 0 0)
(-4371.01 0 0)
(-4390.78 0 0)
(-4396.25 0 0)
(-4397.63 0 0)
(-4410.05 0 0)
(-4434.63 0 0)
(-4457.06 0 0)
(-4465.76 0 0)
(-4465.79 0 0)
(-4472.88 0 0)
(-4494.13 0 0)
(-4519.67 0 0)
(-4534.75 0 0)
(-4537.29 0 0)
(-4540.54 0 0)
(-4556.29 0 0)
(-4581.46 0 0)
(-4601.25 0 0)
(-4607.55 0 0)
(-4608.29 0 0)
(-4617.89 0 0)
(-4640.54 0 0)
(-4664.99 0 0)
(-4678.45 0 0)
(-4680.79 0 0)
(-4684.79 0 0)
(-4701.04 0 0)
(-4725.66 0 0)
(-4745.04 0 0)
(-4751.88 0 0)
(-4753.27 0 0)
(-4762.5 0 0)
(-4784.11 0 0)
(-4808.45 0 0)
(-4823.3 0 0)
(-4826.71 0 0)
(-4829.76 0 0)
(-4844.11 0 0)
(-4868.11 0 0)
(-4889.38 0 0)
(-4899.01 0 0)
(-4900.73 0 0)
(-4907.27 0 0)
(-4925.72 0 0)
(-4949.96 0 0)
(-4968.33 0 0)
(-4975.08 0 0)
(-4977.16 0 0)
(-4987.23 0 0)
(-5008.47 0 0)
(-5032.12 0 0)
(-5047.1 0 0)
(-5051.28 0 0)
(-5054.57 0 0)
(-5067.33 0 0)
(-5089.97 0 0)
(-5112.5 0 0)
(-5124.85 0 0)
(-5128.63 0 0)
(-5133.68 0 0)
(-5148.61 0 0)
(-5172.28 0 0)
(-5193.38 0 0)
(-5204.14 0 0)
(-5207.39 0 0)
(-5213.57 0 0)
(-5228.94 0 0)
(-5254.73 0 0)
(-5273.15 0 0)
(-5282.41 0 0)
(-5286.62 0 0)
(-5298.77 0 0)
(-5306.12 0 0)
(-5327.09 0 0)
(-5354.79 0 0)
(-5360.25 0 0)
(-5370.1 0 0)
(-5376.89 0 0)
(-5391.05 0 0)
(-5413.03 0 0)
(-5421.43 0 0)
(-5438.81 0 0)
(-5459.41 0 0)
(-5464.97 0 0)
(-5473.35 0 0)
(-5489.52 0 0)
(-5508.79 0 0)
(-5528.05 0 0)
(-5541.72 0 0)
(-5549.45 0 0)
(-5558.27 0 0)
(-5573.02 0 0)
(-5590.64 0 0)
(-5607.28 0 0)
(-5621.37 0 0)
(-5631.2 0 0)
(-5640.42 0 0)
(-5655.79 0 0)
(-5675.31 0 0)
(-5692.92 0 0)
(-5707.92 0 0)
(-5719.22 0 0)
(-5727.89 0 0)
(-5740.37 0 0)
(-5756.88 0 0)
(-5773.05 0 0)
(-5788.31 0 0)
(-5801.22 0 0)
(-5811.18 0 0)
(-5823.32 0 0)
(-5841.47 0 0)
(-5861.03 0 0)
(-5877.41 0 0)
(-5889.78 0 0)
(-5899.51 0 0)
(-5910.85 0 0)
(-5926.38 0 0)
(-5944.42 0 0)
(-5960.91 0 0)
(-5973.26 0 0)
(-5982.69 0 0)
(-5994.3 0 0)
(-6010.24 0 0)
(-6027.98 0 0)
(-6045.21 0 0)
(-6060.01 0 0)
(-6071.15 0 0)
(-6080.67 0 0)
(-6093.85 0 0)
(-6111.49 0 0)
(-6129.67 0 0)
(-6144.01 0 0)
(-6154.35 0 0)
(-6163.63 0 0)
(-6175.16 0 0)
(-6191.22 0 0)
(-6209.47 0 0)
(-6225.63 0 0)
(-6237.36 0 0)
(-6247.15 0 0)
(-6258.2 0 0)
(-6272.36 0 0)
(-6289.09 0 0)
(-6305.64 0 0)
(-6318.98 0 0)
(-6328.63 0 0)
(-6337.59 0 0)
(-6349.48 0 0)
(-6365.33 0 0)
(-6382.62 0 0)
(-6397.04 0 0)
(-6406.69 0 0)
(-6415.14 0 0)
(-6426.75 0 0)
(-6442.09 0 0)
(-6458.4 0 0)
(-6473.16 0 0)
(-6485.03 0 0)
(-6493.87 0 0)
(-6502.48 0 0)
(-6514.66 0 0)
(-6530.84 0 0)
(-6547.28 0 0)
(-6560.15 0 0)
(-6569.19 0 0)
(-6577.17 0 0)
(-6588.1 0 0)
(-6603.79 0 0)
(-6621.75 0 0)
(-6636.39 0 0)
(-6645.23 0 0)
(-6651.51 0 0)
(-6660.8 0 0)
(-6676.28 0 0)
(-6694.7 0 0)
(-6709.95 0 0)
(-6719.02 0 0)
(-6725.12 0 0)
(-6734.69 0 0)
(-6750.4 0 0)
(-6768.54 0 0)
(-6783.45 0 0)
(-6793.1 0 0)
(-6800.3 0 0)
(-6809.75 0 0)
(-6824.16 0 0)
(-6841.49 0 0)
(-6857.21 0 0)
(-6868.18 0 0)
(-6875.74 0 0)
(-6884.7 0 0)
(-6898.51 0 0)
(-6916 0 0)
(-6932.26 0 0)
(-6943.59 0 0)
(-6951.01 0 0)
(-6959.66 0 0)
(-6973.44 0 0)
(-6991.05 0 0)
(-7007.63 0 0)
(-7019.29 0 0)
(-7027 0 0)
(-7035.47 0 0)
(-7048.71 0 0)
(-7066.32 0 0)
(-7083.83 0 0)
(-7096.9 0 0)
(-7105.18 0 0)
(-7112.76 0 0)
(-7124.37 0 0)
(-7141.21 0 0)
(-7159.6 0 0)
(-7174.24 0 0)
(-7183.28 0 0)
(-7190.14 0 0)
(-7200.28 0 0)
(-7216.3 0 0)
(-7235.51 0 0)
(-7252.14 0 0)
(-7262.81 0 0)
(-7269.58 0 0)
(-7278.17 0 0)
(-7292.74 0 0)
(-7311.96 0 0)
(-7330.01 0 0)
(-7342.23 0 0)
(-7349.43 0 0)
(-7357.14 0 0)
(-7370.53 0 0)
(-7389.23 0 0)
(-7408.1 0 0)
(-7421.8 0 0)
(-7429.9 0 0)
(-7437.3 0 0)
(-7449.24 0 0)
(-7466.82 0 0)
(-7485.82 0 0)
(-7500.82 0 0)
(-7510.42 0 0)
(-7518.04 0 0)
(-7529.03 0 0)
(-7545.31 0 0)
(-7564.03 0 0)
(-7580.33 0 0)
(-7591.5 0 0)
(-7599.88 0 0)
(-7609.98 0 0)
(-7624.71 0 0)
(-7642.6 0 0)
(-7659.6 0 0)
(-7672.65 0 0)
(-7682.31 0 0)
(-7692.28 0 0)
(-7705.42 0 0)
(-7721.91 0 0)
(-7739.06 0 0)
(-7753.64 0 0)
(-7765.07 0 0)
(-7775.5 0 0)
(-7787.66 0 0)
(-7802.67 0 0)
(-7819.26 0 0)
(-7834.82 0 0)
(-7848.09 0 0)
(-7859.45 0 0)
(-7870.81 0 0)
(-7884.18 0 0)
(-7899.54 0 0)
(-7915.56 0 0)
(-7930.36 0 0)
(-7943.31 0 0)
(-7954.98 0 0)
(-7967.06 0 0)
(-7980.84 0 0)
(-7996.16 0 0)
(-8011.81 0 0)
(-8026.45 0 0)
(-8039.42 0 0)
(-8051.5 0 0)
(-8064.19 0 0)
(-8078.28 0 0)
(-8093.61 0 0)
(-8109.1 0 0)
(-8123.63 0 0)
(-8136.91 0 0)
(-8149.68 0 0)
(-8162.65 0 0)
(-8176.58 0 0)
(-8191.39 0 0)
(-8206.47 0 0)
(-8221.2 0 0)
(-8235.05 0 0)
(-8248.33 0 0)
(-8261.62 0 0)
(-8275.45 0 0)
(-8289.88 0 0)
(-8304.69 0 0)
(-8319.41 0 0)
(-8333.56 0 0)
(-8347.38 0 0)
(-8361.03 0 0)
(-8374.94 0 0)
(-8389.17 0 0)
(-8403.66 0 0)
(-8418.11 0 0)
(-8432.39 0 0)
(-8446.6 0 0)
(-8460.8 0 0)
(-8475.05 0 0)
(-8489.23 0 0)
(-8503.49 0 0)
(-8517.63 0 0)
(-8531.83 0 0)
(-8545.93 0 0)
(-8560.08 0 0)
(-8574.33 0 0)
(-8588.55 0 0)
(-8602.86 0 0)
(-8616.97 0 0)
(-8631.16 0 0)
(-8645.2 0 0)
(-8659.36 0 0)
(-8673.56 0 0)
(-8687.84 0 0)
(-8702.09 0 0)
(-8716.4 0 0)
(-8730.83 0 0)
(-8745.09 0 0)
(-8759.37 0 0)
(-8773.51 0 0)
(-8787.83 0 0)
(-8802.09 0 0)
(-8816.4 0 0)
(-8830.78 0 0)
(-8845.1 0 0)
(-8859.46 0 0)
(-8873.68 0 0)
(-8887.81 0 0)
(-8902.04 0 0)
(-8916.24 0 0)
(-8930.54 0 0)
(-8944.78 0 0)
(-8959.01 0 0)
(-8973.28 0 0)
(-8987.64 0 0)
(-9001.79 0 0)
(-9015.82 0 0)
(-9029.99 0 0)
(-9044.03 0 0)
(-9058.23 0 0)
(-9072.51 0 0)
(-9086.79 0 0)
(-9101.15 0 0)
(-9115.44 0 0)
(-9129.77 0 0)
(-9144.12 0 0)
(-9158.31 0 0)
(-9172.59 0 0)
(-9186.79 0 0)
(-9200.98 0 0)
(-9215.19 0 0)
(-9229.43 0 0)
(-9243.65 0 0)
(-9257.93 0 0)
(-9272.21 0 0)
(-9286.44 0 0)
(-9300.84 0 0)
(-9315.01 0 0)
(-9329.27 0 0)
(-9343.31 0 0)
(-9357.47 0 0)
(-9371.62 0 0)
(-9385.73 0 0)
(-9399.82 0 0)
(-9413.85 0 0)
(-9427.88 0 0)
(-9441.9 0 0)
(-9456 0 0)
(-9469.92 0 0)
(-9484.1 0 0)
(-9498.04 0 0)
(-9512.13 0 0)
(-9526.22 0 0)
(-9540.16 0 0)
(-9554.33 0 0)
(-9568.25 0 0)
(-9582.21 0 0)
(-9596.19 0 0)
(-9610.14 0 0)
(-9623.98 0 0)
(-9637.76 0 0)
(-9651.61 0 0)
(-9665.34 0 0)
(-9679.21 0 0)
(-9692.83 0 0)
(-9706.45 0 0)
(-9720.01 0 0)
(-9733.45 0 0)
(-9746.9 0 0)
(-9760.1 0 0)
(-9773.48 0 0)
(-9786.64 0 0)
(-9799.84 0 0)
(-9812.96 0 0)
(-9825.97 0 0)
(-9838.94 0 0)
(-9851.77 0 0)
(-9864.64 0 0)
(-9877.19 0 0)
(-9889.8 0 0)
(-9902.18 0 0)
(-9914.48 0 0)
(-9926.53 0 0)
(-9938.4 0 0)
(-9950.14 0 0)
(-9961.73 0 0)
(-9973.03 0 0)
(-9984.01 0 0)
(-9994.93 0 0)
(-10005.4 0 0)
(-10015.8 0 0)
(-10025.7 0 0)
(-10035.5 0 0)
(-10044.7 0 0)
(-10053.5 0 0)
(-10062 0 0)
(-10070 0 0)
(-10077.6 0 0)
(-10084.7 0 0)
(-10090.9 0 0)
(-10096.6 0 0)
(-10101.5 0 0)
(-10105.9 0 0)
(-10109.3 0 0)
(-10111.7 0 0)
(-10113.2 0 0)
(-10113.4 0 0)
(-10112.8 0 0)
(-10110.6 0 0)
(-10107.1 0 0)
(-10102 0 0)
(-10095.3 0 0)
(-10086.9 0 0)
(-10076.5 0 0)
(-10064 0 0)
(-10049.1 0 0)
(-10032 0 0)
(-10012 0 0)
(-9989.58 0 0)
(-9964.13 0 0)
(-9935.2 0 0)
(-9903.16 0 0)
(-9867.22 0 0)
(-9827.71 0 0)
(-9784 0 0)
(-9736.24 0 0)
(-9683.53 0 0)
(-9626.32 0 0)
(-9564.51 0 0)
(-9496.61 0 0)
(-9424.3 0 0)
(-9345.49 0 0)
(-9261.21 0 0)
(-9170.88 0 0)
(-9074.17 0 0)
(-8971.52 0 0)
(-8861.37 0 0)
(-8745.88 0 0)
(-8622.44 0 0)
(-8492.98 0 0)
(-8355.96 0 0)
(-8212.47 0 0)
(-8062.51 0 0)
(-7904.71 0 0)
(-7741.28 0 0)
(-7570.57 0 0)
(-7394.16 0 0)
(-7210.85 0 0)
(-7022.28 0 0)
(-6828.04 0 0)
(-6628.75 0 0)
(-6425.3 0 0)
(-6215.95 0 0)
(-6005.38 0 0)
(-5789.96 0 0)
(-5571.29 0 0)
(-5354.11 0 0)
(-5131.81 0 0)
(-4909.87 0 0)
(-4689.58 0 0)
(-4468.06 0 0)
(-4248.03 0 0)
(-4033.02 0 0)
(-3815.93 0 0)
(-3605.42 0 0)
(-3399.49 0 0)
(-3194.78 0 0)
(-2997.75 0 0)
(-2806.75 0 0)
(-2620.13 0 0)
(-2438.45 0 0)
(-2270.81 0 0)
(-2099.93 0 0)
(-1944.85 0 0)
(-1793.3 0 0)
(-1648.23 0 0)
(-1515.63 0 0)
(-1385.09 0 0)
(-1268.59 0 0)
(-1150.55 0 0)
(-1050.57 0 0)
(-947.55 0 0)
(-860.81 0 0)
(-779.434 0 0)
(-687.866 0 0)
(-617.465 0 0)
(-567.686 0 0)
(-508.21 0 0)
(-437.69 0 0)
(-405.026 0 0)
(-350.778 0 0)
(-309.201 0 0)
(-274.857 0 0)
(-241.043 0 0)
(-216.354 0 0)
(-185.613 0 0)
(-160.003 0 0)
(-138.39 0 0)
(-136.201 0 0)
(-101.611 0 0)
(-94.0293 0 0)
(-75.3194 0 0)
(-76.2486 0 0)
(-68.1193 0 0)
(-50.3804 0 0)
(-46.3143 0 0)
(-31.0954 0 0)
(-52.0149 0 0)
(-19.1671 0 0)
(-34.012 0 0)
(-23.6687 0 0)
(-22.9957 0 0)
(-15.0922 0 0)
(-23.3563 0 0)
(-13.6209 0 0)
(18.246 0 0)
(-31.0056 0 0)
(-20.2204 0 0)
(-101.69 0 0)
(-129.515 0 0)
(-317.794 0 0)
(-510.488 0 0)
(-793.304 0 0)
(-1173.37 0 0)
(-1426.42 0 0)
(-1675.36 0 0)
(-1103.72 0 0)
(526.709 0 0)
(5411.25 0 0)
(5133.61 0 0)
(-4071.9 0 0)
(-3851.77 0 0)
(-258.356 0 0)
(6646.33 0 0)
(2742.24 0 0)
(-6096.47 0 0)
(-3653.76 0 0)
(2043.46 0 0)
(7221.57 0 0)
(-749.919 0 0)
(-6373.62 0 0)
(-2278.27 0 0)
(4132.89 0 0)
(6669.68 0 0)
(-4341.66 0 0)
(-5485.03 0 0)
(-1731.08 0 0)
(6279.79 0 0)
(5480.53 0 0)
(-4921.81 0 0)
(-5111.84 0 0)
(-429.249 0 0)
(8783.25 0 0)
(4518.66 0 0)
(-7645.77 0 0)
(-5126.35 0 0)
(4887.44 0 0)
(9873.56 0 0)
(-1747.71 0 0)
(-8969.28 0 0)
(-7591.98 0 0)
(-2674.27 0 0)
(7623.86 0 0)
(10631.1 0 0)
(-1734.17 0 0)
(-9074.76 0 0)
(-5651.29 0 0)
(5923.67 0 0)
(11226.4 0 0)
(156.362 0 0)
(-8997.09 0 0)
(-8126.54 0 0)
(-2994.62 0 0)
(7676.37 0 0)
(10494.2 0 0)
(-2661.33 0 0)
(-7703.83 0 0)
(-5616.47 0 0)
(3894.27 0 0)
(11402.2 0 0)
(1364.09 0 0)
(-7814.77 0 0)
(-8405.91 0 0)
(-3713.66 0 0)
(5893.2 0 0)
(8943.48 0 0)
(1670.11 0 0)
(-8228.9 0 0)
(-4600.47 0 0)
(4572.02 0 0)
(8049.75 0 0)
(-1766.47 0 0)
(-6771.36 0 0)
(-1737.36 0 0)
(7431.87 0 0)
(6201.93 0 0)
(-2968.75 0 0)
(-6129.39 0 0)
(-2741.88 0 0)
(4485.66 0 0)
(6750.17 0 0)
(-1678.05 0 0)
(-7300.19 0 0)
(-2068.28 0 0)
(6186.53 0 0)
(5847.97 0 0)
(-1870.37 0 0)
(-7580.38 0 0)
(-4819.36 0 0)
(879.535 0 0)
(7439.71 0 0)
(3794.17 0 0)
(-5036.64 0 0)
(-5362.86 0 0)
(-2728.52 0 0)
(2147.37 0 0)
(4456.59 0 0)
(1344.83 0 0)
(-3284.46 0 0)
(-2452.68 0 0)
(1163.02 0 0)
(3386.49 0 0)
(1799.05 0 0)
(-2872.69 0 0)
(-2879.47 0 0)
(1137.75 0 0)
(4045.36 0 0)
(2139.09 0 0)
(-1140.28 0 0)
(-2656.22 0 0)
(-15.4537 0 0)
(2531.43 0 0)
(1288.12 0 0)
(-1040.25 0 0)
(-2047 0 0)
(-883.076 0 0)
(4536.21 0 0)
(4333.29 0 0)
(-1424.85 0 0)
(-5694.23 0 0)
(-581.828 0 0)
(4062.83 0 0)
(2502.59 0 0)
(-702.84 0 0)
(-5997.63 0 0)
(-5786.18 0 0)
(3101.7 0 0)
(7895.1 0 0)
(2625.76 0 0)
(-5735.34 0 0)
(-7229.88 0 0)
(-2564.61 0 0)
(7841.84 0 0)
)
;

boundaryField
{
    sides
    {
        type            calculated;
        value           nonuniform List<vector> 2((7841.84 0 0) (-13.4609 0 0));
    }
    empty
    {
        type            empty;
    }
}


// ************************************************************************* //
