/*--------------------------------*- C++ -*----------------------------------*\
  =========                 |
  \\      /  F ield         | OpenFOAM: The Open Source CFD Toolbox
   \\    /   O peration     | Website:  https://openfoam.org
    \\  /    A nd           | Version:  9
     \\/     M anipulation  |
\*---------------------------------------------------------------------------*/
FoamFile
{
    format      ascii;
    class       surfaceScalarField;
    location    "0.028";
    object      phi;
}
// * * * * * * * * * * * * * * * * * * * * * * * * * * * * * * * * * * * * * //

dimensions      [1 0 -1 0 0 0 0];

internalField   nonuniform List<scalar> 
999
(
21.2882
21.9158
22.543
23.17
23.7965
24.4224
25.048
25.6736
26.2992
26.9246
27.5492
28.1729
28.7956
29.4178
30.0401
30.663
31.2867
31.9113
32.5366
33.1624
33.7884
34.4143
35.0401
35.6662
36.2932
36.9206
37.5479
38.1751
38.8021
39.4291
40.0558
40.6825
41.309
41.9354
42.5617
43.1879
43.8139
44.4398
45.0656
45.6913
46.3169
46.9424
47.5677
48.1929
48.8181
49.4431
50.0679
50.6927
51.3173
51.9418
52.5662
53.1905
53.8147
54.4387
55.0626
55.6864
56.3101
56.9336
57.557
58.1804
58.8035
59.4266
60.0496
60.6724
61.2951
61.9177
62.5402
63.1625
63.7847
64.4069
65.0289
65.6507
66.2725
66.8941
67.5156
68.137
68.7582
69.3794
70.0004
70.6212
71.242
71.8626
72.4831
73.1035
73.7238
74.3439
74.9639
75.5837
76.2035
76.823
77.4426
78.0618
78.6811
79.3001
79.9191
80.5379
81.1565
81.7751
82.3936
83.0118
83.63
84.2481
84.8658
85.4838
86.1011
86.719
87.336
87.9534
88.5706
89.1872
89.8045
90.4207
91.0374
91.6541
92.2698
92.8865
93.5023
94.1178
94.7343
95.3492
95.9647
96.5807
97.195
97.8103
98.4258
99.0396
99.6547
100.27
100.883
101.498
102.112
102.725
103.339
103.954
104.566
105.18
105.794
106.406
107.019
107.632
108.244
108.857
109.47
110.081
110.693
111.306
111.917
112.528
113.141
113.752
114.362
114.974
115.585
116.195
116.806
117.417
118.026
118.636
119.247
119.857
120.465
121.076
121.686
122.294
122.902
123.513
124.121
124.728
125.338
125.947
126.554
127.161
127.771
128.379
128.985
129.592
130.201
130.807
131.413
132.021
132.628
133.233
133.839
134.447
135.053
135.657
136.263
136.87
137.475
138.078
138.684
139.291
139.894
140.497
141.103
141.708
142.311
142.913
143.519
144.123
144.725
145.327
145.932
146.536
147.137
147.738
148.343
148.946
149.546
150.146
150.75
151.353
151.953
152.552
153.154
153.757
154.357
154.955
155.556
156.159
156.758
157.356
157.956
158.557
159.157
159.753
160.352
160.953
161.553
162.149
162.745
163.345
163.945
164.542
165.137
165.734
166.334
166.931
167.525
168.121
168.72
169.318
169.911
170.505
171.102
171.701
172.296
172.887
173.481
174.079
174.675
175.268
175.859
176.454
177.051
177.644
178.235
178.827
179.423
180.018
180.609
181.198
181.79
182.385
182.979
183.568
184.157
184.749
185.343
185.934
186.521
187.111
187.703
188.296
188.885
189.471
190.059
190.651
191.243
191.83
192.416
193.004
193.595
194.185
194.77
195.355
195.942
196.533
197.122
197.706
198.289
198.875
199.464
200.052
200.636
201.218
201.803
202.391
202.977
203.56
204.141
204.724
205.31
205.897
206.479
207.059
207.64
208.225
208.81
209.391
209.97
210.55
211.133
211.717
212.298
212.876
213.454
214.034
214.617
215.197
215.774
216.351
216.93
217.511
218.091
218.667
219.242
219.818
220.397
220.976
221.553
222.126
222.7
223.276
223.854
224.431
225.004
225.575
226.148
226.724
227.3
227.873
228.444
229.014
229.587
230.161
230.734
231.304
231.872
232.441
233.013
233.585
234.155
234.722
235.288
235.857
236.427
236.996
237.563
238.127
238.692
239.259
239.827
240.393
240.956
241.518
242.082
242.647
243.212
243.775
244.336
244.895
245.456
246.018
246.581
247.14
247.698
248.255
248.813
249.373
249.932
250.488
251.043
251.596
252.152
252.708
253.263
253.816
254.367
254.918
255.468
256.021
256.572
257.123
257.672
258.22
258.769
259.317
259.863
260.41
260.955
261.498
262.041
262.583
263.126
263.669
264.209
264.748
265.286
265.824
266.362
266.899
267.435
267.969
268.502
269.035
269.568
270.1
270.631
271.161
271.688
272.216
272.743
273.269
273.795
274.318
274.841
275.362
275.884
276.405
276.925
277.444
277.96
278.476
278.992
279.508
280.023
280.535
281.047
281.557
282.068
282.578
283.088
283.596
284.103
284.608
285.114
285.62
286.125
286.629
287.132
287.634
288.135
288.637
289.139
289.64
290.141
290.64
291.139
291.638
292.138
292.637
293.136
293.635
294.132
294.63
295.129
295.629
296.128
296.626
297.124
297.622
298.122
298.622
299.122
299.622
300.122
300.622
301.123
301.625
302.127
302.63
303.132
303.634
304.138
304.643
305.148
305.654
306.16
306.665
307.172
307.68
308.189
308.699
309.208
309.717
310.228
310.74
311.253
311.766
312.279
312.793
313.307
313.822
314.339
314.857
315.374
315.892
316.41
316.93
317.451
317.972
318.494
319.015
319.538
320.061
320.586
321.112
321.638
322.164
322.69
323.218
323.747
324.278
324.808
325.338
325.868
326.4
326.933
327.468
328.002
328.537
329.071
329.607
330.144
330.683
331.222
331.761
332.3
332.84
333.381
333.924
334.467
335.011
335.554
336.098
336.643
337.19
337.738
338.286
338.834
339.382
339.931
340.482
341.035
341.587
342.139
342.692
343.245
343.8
344.357
344.914
345.47
346.027
346.585
347.144
347.705
348.266
348.827
349.389
349.951
350.514
351.079
351.644
352.21
352.776
353.343
353.91
354.479
355.048
355.619
356.19
356.761
357.332
357.905
358.479
359.054
359.629
360.205
360.781
361.358
361.936
362.515
363.094
363.675
364.256
364.837
365.419
366.002
366.586
367.171
367.756
368.342
368.929
369.516
370.104
370.693
371.283
371.874
372.465
373.057
373.649
374.242
374.837
375.432
376.027
376.624
377.221
377.819
378.417
379.016
379.616
380.217
380.819
381.421
382.024
382.628
383.232
383.837
384.443
385.05
385.657
386.265
386.874
387.484
388.094
388.705
389.317
389.929
390.542
391.156
391.771
392.386
393.002
393.619
394.236
394.855
395.474
396.093
396.714
397.335
397.956
398.579
399.202
399.826
400.451
401.076
401.702
402.329
402.956
403.585
404.213
404.843
405.473
406.104
406.736
407.368
408.001
408.635
409.27
409.905
410.541
411.177
411.815
412.453
413.091
413.731
414.371
415.011
415.653
416.295
416.938
417.581
418.226
418.871
419.516
420.162
420.809
421.457
422.105
422.754
423.404
424.054
424.705
425.357
426.009
426.662
427.316
427.97
428.626
429.281
429.938
430.595
431.252
431.911
432.57
433.229
433.89
434.551
435.212
435.874
436.537
437.201
437.865
438.53
439.195
439.861
440.527
441.195
441.862
442.531
443.2
443.869
444.539
445.21
445.881
446.553
447.226
447.898
448.572
449.246
449.92
450.595
451.271
451.946
452.623
453.299
453.976
454.654
455.332
456.01
456.688
457.367
458.046
458.725
459.405
460.084
460.764
461.444
462.124
462.803
463.483
464.163
464.842
465.521
466.199
466.877
467.555
468.232
468.908
469.583
470.257
470.929
471.601
472.271
472.939
473.605
474.27
474.932
475.591
476.248
476.901
477.552
478.198
478.841
479.48
480.114
480.743
481.367
481.985
482.597
483.203
483.802
484.393
484.977
485.553
486.121
486.679
487.228
487.767
488.295
488.813
489.319
489.814
490.297
490.768
491.225
491.67
492.101
492.518
492.922
493.311
493.686
494.046
494.392
494.723
495.04
495.341
495.628
495.901
496.159
496.403
496.634
496.851
497.054
497.245
497.423
497.588
497.743
497.886
498.018
498.141
498.253
498.356
498.45
498.536
498.614
498.685
498.749
498.807
498.859
498.905
498.946
498.983
499.016
499.044
499.07
499.092
499.111
499.127
499.14
499.152
499.162
499.169
499.175
499.181
499.184
499.186
499.186
499.187
499.187
499.185
499.183
499.179
499.178
499.172
499.169
499.163
499.158
499.151
499.147
499.141
499.131
499.126
499.116
499.116
499.108
499.117
499.13
499.167
499.223
499.291
499.398
499.473
499.53
499.322
498.691
498.609
499.125
499.302
499.016
498.368
498.591
499.129
499.176
498.765
498.205
498.718
499.109
499.124
498.413
498.244
498.885
499.169
498.969
498.27
498.125
498.831
499.149
498.649
497.768
498.16
498.825
498.948
498.124
497.515
498.202
498.884
499.242
499.419
498.164
497.445
498.476
499.016
499.136
498.196
497.402
498.112
498.778
499.209
499.237
498.088
497.675
498.415
498.934
499.091
498.403
497.619
497.92
498.707
499.148
499.297
498.35
497.749
498.158
498.816
498.993
498.168
497.707
498.428
498.818
498.572
497.83
497.586
498.231
498.568
498.588
497.974
497.558
498.148
498.597
498.552
497.827
497.486
498.064
498.575
498.865
498.399
497.789
497.925
498.397
498.685
498.852
498.381
498.097
498.265
498.54
498.631
498.389
498.104
498.19
498.488
498.593
498.371
498.063
497.968
498.224
498.328
498.285
498.052
497.953
498.196
498.397
498.193
497.764
497.57
497.961
498.283
498.208
497.805
497.669
497.986
498.562
498.675
498.226
497.664
497.434
498.366
499.124
)
;

boundaryField
{
    sides
    {
        type            calculated;
        value           nonuniform List<scalar> 2(498.464 -20.6602);
    }
    empty
    {
        type            empty;
        value           nonuniform List<scalar> 0();
    }
}


// ************************************************************************* //
