/*--------------------------------*- C++ -*----------------------------------*\
  =========                 |
  \\      /  F ield         | OpenFOAM: The Open Source CFD Toolbox
   \\    /   O peration     | Website:  https://openfoam.org
    \\  /    A nd           | Version:  9
     \\/     M anipulation  |
\*---------------------------------------------------------------------------*/
FoamFile
{
    format      ascii;
    class       volScalarField;
    location    "0.039";
    object      mag(U);
}
// * * * * * * * * * * * * * * * * * * * * * * * * * * * * * * * * * * * * * //

dimensions      [0 1 -1 0 0 0 0];

internalField   nonuniform List<scalar> 
100
(
211.468
214.797
216.742
218.842
220.903
222.974
225.043
227.112
229.181
231.25
233.318
235.387
237.455
239.523
241.59
243.657
245.724
247.791
249.857
251.923
253.988
256.052
258.116
260.179
262.242
264.303
266.364
268.424
270.483
272.541
274.597
276.652
278.705
280.756
282.804
284.847
286.881
288.899
290.881
292.8
294.597
296.204
297.495
298.403
298.936
299.199
299.328
299.432
299.566
299.677
299.702
299.655
299.57
299.469
299.374
299.306
299.264
299.215
299.147
299.047
298.927
298.802
298.686
298.622
298.578
298.529
298.462
298.37
298.256
298.139
298.031
297.956
297.896
297.838
297.774
297.688
297.58
297.456
297.324
297.203
297.108
297.055
297.062
297.041
296.925
296.519
294.713
291.98
290.5
289.718
288.962
287.442
285.522
284.498
284.052
283.79
283.647
283.6
283.553
283.461
)
;

boundaryField
{
    sides
    {
        type            calculated;
        value           nonuniform List<scalar> 2(283.461 211.468);
    }
    empty
    {
        type            empty;
    }
}


// ************************************************************************* //
