/*--------------------------------*- C++ -*----------------------------------*\
  =========                 |
  \\      /  F ield         | OpenFOAM: The Open Source CFD Toolbox
   \\    /   O peration     | Website:  https://openfoam.org
    \\  /    A nd           | Version:  9
     \\/     M anipulation  |
\*---------------------------------------------------------------------------*/
FoamFile
{
    format      ascii;
    class       volScalarField;
    location    "0.049";
    object      ddt0(p);
}
// * * * * * * * * * * * * * * * * * * * * * * * * * * * * * * * * * * * * * //

dimensions      [1 -1 -3 0 0 0 0];

internalField   nonuniform List<scalar> 
1000
(
-254950
-254856
-254683
-254535
-254397
-254253
-254100
-253940
-253773
-253602
-253423
-253239
-253048
-252851
-252647
-252436
-252216
-251987
-251747
-251498
-251240
-250974
-250698
-250412
-250113
-249801
-249474
-249135
-248783
-248419
-248042
-247650
-247242
-246819
-246382
-245930
-245465
-244989
-244502
-244006
-243504
-242997
-242484
-241967
-241446
-240921
-240383
-240087
-239519
-238976
-237865
-237727
-236801
-236543
-235670
-235308
-234463
-234012
-233191
-232655
-231859
-231243
-230466
-229779
-229015
-228272
-227503
-226724
-225936
-225126
-224313
-223480
-222639
-221783
-220918
-220040
-219152
-218253
-217343
-216421
-215489
-214546
-213594
-212631
-211659
-210679
-209689
-208692
-207687
-206676
-205658
-204633
-203603
-202569
-201530
-200488
-199443
-198395
-197345
-196295
-195246
-194197
-193150
-192105
-191065
-190029
-188999
-187975
-186958
-185949
-184949
-183959
-182980
-182014
-181061
-180121
-179197
-178289
-177398
-176524
-175668
-174832
-174015
-173219
-172443
-171690
-170959
-170251
-169567
-168908
-168273
-167662
-167077
-166516
-165981
-165471
-164986
-164527
-164093
-163684
-163301
-162942
-162608
-162298
-162011
-161748
-161507
-161289
-161093
-160918
-160763
-160628
-160514
-160418
-160339
-160276
-160231
-160202
-160190
-160193
-160209
-160238
-160280
-160333
-160398
-160474
-160559
-160654
-160759
-160874
-160996
-161126
-161262
-161405
-161554
-161709
-161869
-162035
-162204
-162377
-162554
-162734
-162918
-163106
-163297
-163490
-163686
-163884
-164084
-164286
-164489
-164693
-164898
-165106
-165314
-165523
-165733
-165944
-166154
-166365
-166577
-166790
-167004
-167220
-167438
-167656
-167874
-168092
-168310
-168528
-168746
-168963
-169182
-169400
-169619
-169839
-170059
-170280
-170500
-170721
-170942
-171164
-171385
-171607
-171828
-172050
-172271
-172493
-172715
-172937
-173159
-173381
-173603
-173824
-174045
-174265
-174485
-174706
-174927
-175148
-175371
-175593
-175816
-176039
-176262
-176485
-176708
-176930
-177153
-177376
-177599
-177823
-178046
-178270
-178494
-178718
-178941
-179165
-179388
-179610
-179833
-180056
-180279
-180503
-180726
-180949
-181172
-181394
-181617
-181841
-182064
-182287
-182510
-182734
-182957
-183181
-183404
-183627
-183850
-184073
-184297
-184520
-184744
-184968
-185192
-185416
-185640
-185865
-186090
-186315
-186539
-186764
-186988
-187213
-187438
-187662
-187887
-188111
-188335
-188560
-188785
-189011
-189236
-189462
-189688
-189914
-190140
-190367
-190594
-190820
-191047
-191273
-191500
-191727
-191954
-192181
-192407
-192634
-192861
-193088
-193315
-193542
-193769
-193997
-194224
-194453
-194681
-194910
-195138
-195367
-195596
-195825
-196055
-196285
-196515
-196745
-196975
-197205
-197436
-197666
-197897
-198128
-198358
-198589
-198819
-199050
-199282
-199513
-199745
-199978
-200210
-200442
-200675
-200908
-201142
-201376
-201609
-201843
-202077
-202311
-202546
-202780
-203015
-203249
-203484
-203719
-203954
-204190
-204426
-204662
-204899
-205135
-205372
-205609
-205846
-206084
-206321
-206559
-206796
-207034
-207272
-207510
-207749
-207987
-208226
-208465
-208704
-208944
-209184
-209425
-209665
-209906
-210147
-210388
-210629
-210871
-211112
-211354
-211596
-211838
-212080
-212322
-212565
-212809
-213052
-213296
-213539
-213783
-214027
-214271
-214516
-214760
-215005
-215250
-215496
-215742
-215988
-216235
-216481
-216729
-216976
-217223
-217470
-217718
-217966
-218215
-218463
-218712
-218961
-219210
-219459
-219709
-219959
-220210
-220460
-220711
-220962
-221213
-221464
-221716
-221968
-222221
-222473
-222726
-222979
-223232
-223486
-223740
-223994
-224248
-224503
-224757
-225012
-225268
-225523
-225779
-226035
-226291
-226547
-226804
-227061
-227318
-227575
-227833
-228091
-228349
-228608
-228866
-229125
-229384
-229644
-229904
-230163
-230423
-230683
-230944
-231205
-231466
-231727
-231989
-232250
-232512
-232774
-233037
-233300
-233563
-233826
-234090
-234353
-234617
-234881
-235145
-235409
-235673
-235937
-236201
-236465
-236730
-236994
-237259
-237524
-237789
-238054
-238319
-238583
-238848
-239113
-239378
-239643
-239908
-240172
-240437
-240701
-240964
-241229
-241491
-241756
-242018
-242281
-242543
-242804
-243066
-243325
-243587
-243846
-244105
-244363
-244620
-244877
-245131
-245387
-245640
-245893
-246144
-246394
-246643
-246889
-247135
-247378
-247621
-247861
-248099
-248336
-248569
-248802
-249030
-249257
-249481
-249702
-249921
-250136
-250348
-250555
-250761
-250960
-251158
-251350
-251538
-251722
-251900
-252074
-252241
-252405
-252561
-252713
-252858
-252996
-253128
-253252
-253370
-253479
-253582
-253676
-253762
-253839
-253906
-253966
-254014
-254054
-254082
-254100
-254108
-254103
-254089
-254060
-254020
-253967
-253900
-253822
-253727
-253621
-253499
-253362
-253212
-253043
-252861
-252661
-252446
-252214
-251964
-251698
-251412
-251111
-250790
-250451
-250095
-249717
-249324
-248908
-248475
-248022
-247549
-247057
-246545
-246014
-245463
-244892
-244303
-243694
-243066
-242420
-241756
-241074
-240374
-239657
-238925
-238175
-237411
-236633
-235840
-235036
-234219
-233392
-232555
-231709
-230856
-229997
-229134
-228268
-227400
-226533
-225667
-224806
-223949
-223101
-222263
-221435
-220623
-219826
-219047
-218289
-217554
-216844
-216162
-215510
-214891
-214307
-213759
-213251
-212786
-212364
-211988
-211662
-211385
-211161
-210990
-210875
-210817
-210818
-210878
-210999
-211181
-211426
-211731
-212101
-212532
-213026
-213583
-214205
-214886
-215631
-216434
-217313
-218247
-219191
-220310
-221357
-222476
-223561
-224774
-226239
-227430
-228842
-230294
-231735
-233196
-234633
-236121
-237669
-239235
-240865
-242467
-244092
-245744
-247398
-249042
-250683
-252325
-253972
-255631
-257289
-258949
-260607
-262253
-263875
-265477
-267078
-268663
-270233
-271790
-273322
-274845
-276356
-277846
-279319
-280761
-282178
-283573
-284942
-286296
-287627
-288936
-290226
-291490
-292734
-293955
-295150
-296325
-297469
-298590
-299691
-300768
-301830
-302871
-303889
-304888
-305859
-306808
-307736
-308638
-309522
-310385
-311227
-312052
-312854
-313635
-314393
-315125
-315833
-316512
-317162
-317787
-318380
-318951
-319485
-319980
-320439
-320847
-321215
-321533
-321803
-322006
-322150
-322230
-322243
-322172
-322037
-321799
-321480
-321055
-320528
-319888
-319135
-318278
-317295
-316185
-314948
-313579
-312077
-310442
-308677
-306782
-304762
-302622
-300365
-298002
-295541
-292993
-290370
-287687
-284959
-282203
-279439
-276688
-273970
-271306
-268719
-266230
-263859
-261628
-259557
-257665
-255969
-254486
-253227
-252204
-251425
-250893
-250611
-250581
-250803
-251269
-251947
-252857
-253977
-255299
-256798
-258460
-260270
-262211
-264258
-266402
-268623
-270911
-273249
-275623
-278019
-280424
-282828
-285228
-287611
-289975
-292311
-294616
-296887
-299120
-301314
-303468
-305580
-307653
-309684
-311676
-313627
-315539
-317413
-319251
-321053
-322822
-324558
-326263
-327938
-329584
-331202
-332792
-334358
-335899
-337416
-338911
-340384
-341837
-343268
-344680
-346073
-347448
-348805
-350146
-351471
-352780
-354073
-355352
-356617
-357867
-359105
-360329
-361540
-362739
-363926
-365101
-366264
-367417
-368558
-369689
-370809
-371919
-373020
-374111
-375192
-376264
-377328
-378383
-379429
-380467
-381497
-382520
-383534
-384541
-385540
-386533
-387517
-388496
-389467
-390432
-391390
-392342
-393287
-394227
-395160
-396088
-397009
-397925
-398835
-399740
-400639
-401532
-402421
-403304
-404182
-405056
-405924
-406788
-407647
-408501
-409350
-410195
-411036
-411872
-412704
-413532
-414356
-415175
-415991
-416802
-417610
-418414
-419214
-420010
-420802
-421591
-422376
-423158
-423935
-424710
-425481
-426250
-427014
-427776
-428534
-429290
-430042
-430792
-431538
-432281
-433022
-433760
-434494
-435226
-435955
-436682
-437406
-438127
-438846
-439562
-440276
-440987
-441695
-442402
-443105
-443806
-444505
-445202
-445896
-446588
-447277
-447964
-448649
-449333
-450013
-450692
-451368
-452043
-452715
-453386
-454054
-454720
-455384
-456047
-456707
-457362
-458020
-458654
)
;

boundaryField
{
    sides
    {
        type            calculated;
        value           nonuniform List<scalar> 2(-458654 -254950);
    }
    empty
    {
        type            empty;
    }
}


// ************************************************************************* //
