/*--------------------------------*- C++ -*----------------------------------*\
  =========                 |
  \\      /  F ield         | OpenFOAM: The Open Source CFD Toolbox
   \\    /   O peration     | Website:  https://openfoam.org
    \\  /    A nd           | Version:  9
     \\/     M anipulation  |
\*---------------------------------------------------------------------------*/
FoamFile
{
    format      ascii;
    class       surfaceScalarField;
    location    "0.049";
    object      ddtCorrDdt0(phi);
}
// * * * * * * * * * * * * * * * * * * * * * * * * * * * * * * * * * * * * * //

dimensions      [1 0 -2 0 0 0 0];

internalField   nonuniform List<scalar> 
999
(
-187.437
-201.189
-214.968
-228.771
-242.587
-256.421
-270.274
-284.139
-298.004
-311.883
-325.805
-339.78
-353.785
-367.793
-381.806
-395.86
-409.989
-424.193
-438.439
-452.701
-466.995
-481.373
-495.884
-510.536
-525.29
-540.092
-554.922
-569.812
-584.832
-600.047
-615.475
-631.075
-646.776
-662.516
-678.281
-694.116
-710.091
-726.256
-742.606
-759.077
-775.576
-792.007
-808.311
-824.482
-840.567
-856.658
-873.358
-884.059
-904.218
-926.201
-937.622
-959.597
-971.486
-992.267
-1005.54
-1024.89
-1039.76
-1058.02
-1074.49
-1092.31
-1110.16
-1128.09
-1146.81
-1165.09
-1184.2
-1202.68
-1221.74
-1240.29
-1258.99
-1277.49
-1295.97
-1314.41
-1332.89
-1351.54
-1370.35
-1389.41
-1408.8
-1428.53
-1448.57
-1468.96
-1489.73
-1510.73
-1531.89
-1553.25
-1574.73
-1596.2
-1617.58
-1638.91
-1660.3
-1681.58
-1702.64
-1723.66
-1744.82
-1766.1
-1787.25
-1808.37
-1829.81
-1851.63
-1873.46
-1895.03
-1916.57
-1938.18
-1959.54
-1980.38
-2000.99
-2021.73
-2042.43
-2062.77
-2082.85
-2103.01
-2123.2
-2143.04
-2162.49
-2181.9
-2201.38
-2220.57
-2239.29
-2257.78
-2276.32
-2294.7
-2312.56
-2329.98
-2347.34
-2364.66
-2381.55
-2397.85
-2413.9
-2429.95
-2445.76
-2460.97
-2475.71
-2490.32
-2504.88
-2518.99
-2532.46
-2545.58
-2558.7
-2571.63
-2583.98
-2595.77
-2607.4
-2619.02
-2630.32
-2641.01
-2651.25
-2661.44
-2671.65
-2681.44
-2690.61
-2699.47
-2708.4
-2717.31
-2725.74
-2733.62
-2741.34
-2749.18
-2756.94
-2764.23
-2771.07
-2777.87
-2784.84
-2791.73
-2798.14
-2804.14
-2810.14
-2816.37
-2822.57
-2828.35
-2833.74
-2839.17
-2844.88
-2850.61
-2855.96
-2860.91
-2865.88
-2871.18
-2876.6
-2881.68
-2886.33
-2890.94
-2895.89
-2901.07
-2906.03
-2910.54
-2914.9
-2919.57
-2924.62
-2929.56
-2934.06
-2938.25
-2942.63
-2947.48
-2952.42
-2957.03
-2961.17
-2965.32
-2969.92
-2974.82
-2979.54
-2983.77
-2987.78
-2992.1
-2996.88
-3001.78
-3006.29
-3010.4
-3014.53
-3019.08
-3023.98
-3028.71
-3032.95
-3036.96
-3041.22
-3045.95
-3050.84
-3055.37
-3059.5
-3063.6
-3068.08
-3072.97
-3077.77
-3082.11
-3086.21
-3090.44
-3095.11
-3100.04
-3104.69
-3108.91
-3113.01
-3117.42
-3122.24
-3127.15
-3131.67
-3135.76
-3139.88
-3144.41
-3149.3
-3154.16
-3158.59
-3162.67
-3166.86
-3171.53
-3176.54
-3181.44
-3185.87
-3189.93
-3194.15
-3198.86
-3203.93
-3208.9
-3213.35
-3217.39
-3221.61
-3226.38
-3231.55
-3236.61
-3241.09
-3245.12
-3249.29
-3254.04
-3259.24
-3264.34
-3268.9
-3273.01
-3277.16
-3281.85
-3287.04
-3292.22
-3296.88
-3301.05
-3305.24
-3309.92
-3315.05
-3320.24
-3325.04
-3329.35
-3333.55
-3338.14
-3343.24
-3348.45
-3353.32
-3357.76
-3362.05
-3366.58
-3371.56
-3376.86
-3381.96
-3386.53
-3390.78
-3395.22
-3400.15
-3405.47
-3410.77
-3415.6
-3419.86
-3424.04
-3428.75
-3434.09
-3439.59
-3444.7
-3449.19
-3453.33
-3457.73
-3462.8
-3468.4
-3473.89
-3478.75
-3483.04
-3487.28
-3492.01
-3497.37
-3502.98
-3508.24
-3512.87
-3517.18
-3521.71
-3526.72
-3532.14
-3537.58
-3542.66
-3547.2
-3551.55
-3556.29
-3561.61
-3567.17
-3572.51
-3577.38
-3581.79
-3586.16
-3591.15
-3596.85
-3602.61
-3607.78
-3612.32
-3616.62
-3621.21
-3626.48
-3632.36
-3638.15
-3643.2
-3647.62
-3651.95
-3656.66
-3661.97
-3667.81
-3673.63
-3678.77
-3683.25
-3687.62
-3692.42
-3697.79
-3703.6
-3709.37
-3714.52
-3719.03
-3723.5
-3728.56
-3734.21
-3739.98
-3745.47
-3750.41
-3754.95
-3759.57
-3764.83
-3770.69
-3776.6
-3782.05
-3786.9
-3791.35
-3795.87
-3801.06
-3807.06
-3813.31
-3818.98
-3823.82
-3828.23
-3832.81
-3837.94
-3843.73
-3849.84
-3855.71
-3860.86
-3865.43
-3870.04
-3875.22
-3880.98
-3886.95
-3892.68
-3897.88
-3902.61
-3907.34
-3912.63
-3918.56
-3924.72
-3930.46
-3935.52
-3940.12
-3944.79
-3950.01
-3955.96
-3962.32
-3968.47
-3973.87
-3978.51
-3982.95
-3987.88
-3993.61
-3999.89
-4006.2
-4011.98
-4017.04
-4021.66
-4026.44
-4031.89
-4038.01
-4044.3
-4050.16
-4055.37
-4060.22
-4065.17
-4070.63
-4076.67
-4083.01
-4089.07
-4094.42
-4099.12
-4103.76
-4109.02
-4115.1
-4121.66
-4128.09
-4133.9
-4139
-4143.63
-4148.42
-4153.88
-4160.13
-4166.73
-4173.05
-4178.68
-4183.69
-4188.5
-4193.71
-4199.65
-4206.13
-4212.55
-4218.31
-4223.39
-4228.27
-4233.52
-4239.41
-4245.84
-4252.43
-4258.7
-4264.26
-4269.09
-4273.7
-4278.87
-4285.01
-4291.84
-4298.65
-4304.81
-4310.21
-4315.14
-4320.18
-4325.74
-4331.93
-4338.48
-4344.89
-4350.83
-4356.14
-4361.26
-4366.68
-4372.75
-4379.42
-4386.14
-4392.39
-4397.85
-4402.77
-4407.75
-4413.29
-4419.64
-4426.58
-4433.46
-4439.85
-4445.36
-4450.41
-4455.55
-4461.21
-4467.69
-4474.32
-4480.99
-4486.97
-4492.51
-4497.86
-4503.26
-4509.63
-4516.25
-4523.42
-4529.87
-4535.65
-4540.88
-4545.71
-4551.55
-4557.54
-4564.82
-4571.77
-4578.6
-4584.86
-4589.9
-4595.73
-4600.69
-4607.62
-4614
-4621.04
-4627.81
-4633.13
-4639.6
-4644.14
-4651.17
-4657.14
-4664.66
-4672.02
-4678.14
-4685.07
-4689.32
-4695.82
-4700.79
-4708.08
-4715.3
-4722.3
-4730.11
-4735.23
-4742.3
-4747
-4754.02
-4760.8
-4767.74
-4775.96
-4781.53
-4788.94
-4793.78
-4800.36
-4806.85
-4813.83
-4822.2
-4829.19
-4837.4
-4843.45
-4850.46
-4856.12
-4863.06
-4870.05
-4877.84
-4886.18
-4893.37
-4901.33
-4906.92
-4914.56
-4920.77
-4929.35
-4937.81
-4946.06
-4955.06
-4961.49
-4969.55
-4975.69
-4983.74
-4991.76
-5000.51
-5010.06
-5018.29
-5027.64
-5034.61
-5043.45
-5051.11
-5060.21
-5070.42
-5079.18
-5090.42
-5098.07
-5107.75
-5116.16
-5124.26
-5135.63
-5144.07
-5156.73
-5166.72
-5176.89
-5188.35
-5196.16
-5208.24
-5217.65
-5229.46
-5241.81
-5252.89
-5265.7
-5275.87
-5288.13
-5298.34
-5310.83
-5323.71
-5335.78
-5351.3
-5362.9
-5376.91
-5389.72
-5401.31
-5415.88
-5428.59
-5444.25
-5458.72
-5473.88
-5488.82
-5501.89
-5517.48
-5531.05
-5546.57
-5563.5
-5578.99
-5596.22
-5612.89
-5627.97
-5644.64
-5660.46
-5676.22
-5694.66
-5711.38
-5729.73
-5748.18
-5764.28
-5782.29
-5798.66
-5815.6
-5834.39
-5852.48
-5871.59
-5890.55
-5908.42
-5925.96
-5943.69
-5961
-5979.12
-5998.22
-6016.35
-6035.1
-6053.3
-6069.87
-6087.29
-6104.18
-6120.54
-6138.51
-6155.74
-6172.27
-6189.73
-6205.07
-6219.88
-6235.51
-6249.23
-6263.89
-6279.35
-6292.86
-6307.22
-6320.48
-6332.01
-6343.26
-6354.15
-6364.67
-6375.13
-6385.7
-6396.71
-6404.52
-6413.03
-6420.91
-6425.51
-6431.74
-6439.68
-6443.65
-6449.85
-6456.9
-6458.42
-6461.09
-6464.41
-6464.94
-6465.05
-6468.96
-6473.01
-6470.62
-6470.88
-6471.11
-6467.94
-6465.57
-6465.09
-6464.13
-6462.82
-6460.85
-6457.94
-6454.26
-6450.49
-6446.31
-6442.21
-6438.75
-6436.36
-6433.87
-6430.78
-6426.78
-6422.08
-6416.85
-6412.02
-6408.09
-6405.1
-6402.5
-6399.7
-6396.34
-6392.66
-6388.46
-6384.52
-6381.05
-6378.05
-6375.85
-6373.97
-6372.04
-6370.14
-6367.87
-6365.62
-6363.51
-6361.76
-6360.71
-6360.07
-6359.7
-6359.44
-6358.9
-6358.46
-6358.08
-6358.11
-6358.78
-6359.84
-6361.23
-6362.68
-6363.88
-6365.18
-6366.47
-6368.16
-6370.42
-6373.07
-6376.16
-6379.37
-6382.43
-6385.53
-6388.49
-6391.7
-6395.33
-6399.39
-6404
-6408.87
-6413.77
-6418.72
-6423.48
-6428.43
-6433.73
-6439.5
-6445.89
-6452.63
-6459.6
-6466.77
-6473.85
-6481.28
-6489.08
-6497.24
-6506.56
-6516.44
-6526.63
-6537.44
-6548.54
-6560.28
-6572.44
-6585.27
-6599.42
-6614.73
-6630.72
-6647.57
-6665.26
-6683.8
-6703.25
-6723.7
-6745.5
-6768.71
-6793.07
-6818.55
-6845.09
-6872.61
-6900.95
-6930.34
-6960.87
-6992.54
-7025.18
-7058.81
-7093.1
-7127.82
-7162.72
-7197.9
-7233.18
-7268.55
-7303.8
-7338.94
-7373.53
-7407.34
-7440.04
-7471.56
-7501.71
-7530.48
-7557.76
-7583.5
-7607.53
-7629.61
-7649.68
-7667.54
-7683.33
-7696.8
-7708.51
-7717.72
-7725.82
-7731.84
-7735.81
-7737.72
-7738.76
-7738.2
-7736.16
-7732.79
-7728.92
-7724.11
-7718.61
-7712.45
-7706.01
-7699.17
-7692.01
-7684.63
-7677.24
-7669.93
-7662.82
-7655.91
-7649.22
-7642.78
-7636.52
-7630.57
-7624.89
-7619.59
-7614.66
-7610.16
-7606.02
-7602.28
-7598.81
-7595.69
-7592.79
-7590.23
-7587.94
-7586.01
-7584.36
-7583.03
-7581.94
-7581.12
-7580.46
-7580.05
-7579.8
-7579.82
-7580.07
-7580.57
-7581.3
-7582.25
-7583.35
-7584.64
-7586.03
-7587.6
-7589.28
-7591.14
-7593.14
-7595.32
-7597.64
-7600.1
-7602.66
-7605.35
-7608.12
-7611.02
-7614.03
-7617.19
-7620.5
-7623.95
-7627.53
-7631.23
-7635.01
-7638.89
-7642.81
-7646.83
-7650.91
-7655.11
-7659.41
-7663.82
-7668.32
-7672.91
-7677.56
-7682.3
-7687.09
-7691.96
-7696.92
-7701.98
-7707.13
-7712.38
-7717.72
-7723.14
-7728.6
-7734.14
-7739.71
-7745.35
-7751.05
-7756.83
-7762.68
-7768.61
-7774.61
-7780.66
-7786.76
-7792.92
-7799.12
-7805.37
-7811.68
-7818.06
-7824.51
-7831.03
-7837.61
-7844.25
-7850.93
-7857.67
-7864.42
-7871.23
-7878.06
-7884.94
-7891.87
-7898.85
-7905.89
-7912.99
-7920.14
-7927.35
-7934.59
-7941.89
-7949.21
-7956.58
-7963.98
-7971.42
-7978.9
-7986.43
-7994
-8001.62
-8009.27
-8016.97
-8024.71
-8032.49
-8040.29
-8048.14
-8056.02
-8063.93
-8071.89
-8079.88
-8087.92
-8096
-8104.12
-8112.28
-8120.47
-8128.7
-8136.95
-8145.24
-8153.55
-8161.91
-8170.29
-8178.72
-8187.18
-8195.69
-8204.23
-8212.81
-8221.42
-8230.07
-8238.75
-8247.45
-8256.18
-8264.94
-8273.72
-8282.54
-8291.39
-8300.27
-8309.19
-8318.14
-8327.13
-8336.15
-8345.2
-8354.29
-8363.4
-8372.54
-8381.7
-8390.9
-8400.12
-8409.38
)
;

boundaryField
{
    sides
    {
        type            calculated;
        value           nonuniform List<scalar> 2(-8418.66 173.695);
    }
    empty
    {
        type            empty;
        value           nonuniform List<scalar> 0();
    }
}


// ************************************************************************* //
