/*--------------------------------*- C++ -*----------------------------------*\
  =========                 |
  \\      /  F ield         | OpenFOAM: The Open Source CFD Toolbox
   \\    /   O peration     | Website:  https://openfoam.org
    \\  /    A nd           | Version:  9
     \\/     M anipulation  |
\*---------------------------------------------------------------------------*/
FoamFile
{
    format      ascii;
    class       volScalarField;
    location    "0.049";
    object      rho_0;
}
// * * * * * * * * * * * * * * * * * * * * * * * * * * * * * * * * * * * * * //

dimensions      [1 -3 0 0 0 0 0];

internalField   nonuniform List<scalar> 
1000
(
0.18276
0.182741
0.1827
0.182661
0.182626
0.182592
0.182558
0.182524
0.18249
0.182456
0.182422
0.182388
0.182355
0.182322
0.182289
0.182256
0.182223
0.182191
0.18216
0.182128
0.182097
0.182066
0.182035
0.182005
0.181975
0.181946
0.181917
0.181888
0.18186
0.181831
0.181803
0.181776
0.181749
0.181723
0.181698
0.181672
0.181646
0.181621
0.181596
0.181572
0.181548
0.181526
0.181505
0.181484
0.181462
0.181441
0.18142
0.181399
0.181377
0.181357
0.181339
0.181321
0.181305
0.18129
0.181275
0.18126
0.181245
0.18123
0.181214
0.181198
0.181183
0.181168
0.181155
0.181144
0.181133
0.181125
0.181118
0.181112
0.181107
0.181103
0.181098
0.181093
0.181088
0.181082
0.181076
0.181069
0.181062
0.181056
0.18105
0.181046
0.181043
0.181043
0.181045
0.181049
0.181056
0.181065
0.181077
0.181091
0.181107
0.181124
0.181144
0.181164
0.181185
0.181208
0.181232
0.181257
0.181282
0.18131
0.181339
0.181371
0.181404
0.181439
0.181476
0.181514
0.181554
0.181593
0.181634
0.181676
0.181719
0.181762
0.181806
0.181851
0.181897
0.181943
0.18199
0.182038
0.182087
0.182137
0.182186
0.182237
0.182289
0.182342
0.182395
0.182448
0.182503
0.182558
0.182614
0.18267
0.182727
0.182785
0.182843
0.182902
0.18296
0.183021
0.183081
0.183142
0.183203
0.183265
0.183328
0.183391
0.183454
0.183518
0.183582
0.183647
0.183712
0.183777
0.183842
0.183909
0.183975
0.184042
0.184109
0.184176
0.184243
0.184312
0.18438
0.184447
0.184516
0.184585
0.184654
0.184723
0.184792
0.184861
0.184931
0.185001
0.185071
0.185141
0.185211
0.185282
0.185352
0.185423
0.185493
0.185564
0.185635
0.185707
0.185778
0.185848
0.18592
0.185991
0.186063
0.186135
0.186206
0.186278
0.18635
0.186422
0.186494
0.186566
0.186637
0.18671
0.186782
0.186855
0.186927
0.186999
0.187071
0.187144
0.187217
0.18729
0.187362
0.187434
0.187507
0.187581
0.187654
0.187727
0.187799
0.187872
0.187946
0.188019
0.188092
0.188165
0.188238
0.188312
0.188386
0.188459
0.188533
0.188606
0.188679
0.188753
0.188827
0.188901
0.188975
0.189048
0.189122
0.189197
0.189271
0.189345
0.189418
0.189492
0.189567
0.189641
0.189716
0.18979
0.189864
0.189938
0.190013
0.190088
0.190162
0.190237
0.190311
0.190386
0.190461
0.190536
0.190611
0.190685
0.19076
0.190835
0.190911
0.190986
0.191061
0.191136
0.19121
0.191286
0.191362
0.191438
0.191513
0.191588
0.191663
0.191738
0.191815
0.191891
0.191966
0.192041
0.192117
0.192193
0.192269
0.192346
0.192421
0.192497
0.192573
0.192649
0.192725
0.192802
0.192878
0.192954
0.19303
0.193106
0.193183
0.19326
0.193337
0.193413
0.193489
0.193566
0.193643
0.19372
0.193797
0.193874
0.19395
0.194027
0.194104
0.194182
0.194259
0.194336
0.194413
0.19449
0.194567
0.194645
0.194723
0.1948
0.194877
0.194954
0.195032
0.19511
0.195188
0.195266
0.195344
0.195421
0.195498
0.195576
0.195655
0.195734
0.195812
0.195889
0.195967
0.196045
0.196124
0.196202
0.196281
0.196359
0.196437
0.196516
0.196594
0.196673
0.196752
0.196831
0.19691
0.196988
0.197067
0.197146
0.197225
0.197304
0.197384
0.197462
0.197541
0.19762
0.1977
0.19778
0.197859
0.197938
0.198017
0.198096
0.198176
0.198256
0.198336
0.198416
0.198495
0.198575
0.198654
0.198734
0.198814
0.198895
0.198975
0.199055
0.199135
0.199214
0.199295
0.199375
0.199456
0.199537
0.199617
0.199697
0.199777
0.199858
0.199939
0.20002
0.200101
0.200181
0.200261
0.200342
0.200423
0.200505
0.200586
0.200667
0.200748
0.200828
0.200909
0.200991
0.201073
0.201155
0.201236
0.201317
0.201398
0.20148
0.201561
0.201644
0.201726
0.201808
0.201889
0.20197
0.202052
0.202134
0.202217
0.202299
0.202381
0.202463
0.202545
0.202627
0.202709
0.202792
0.202875
0.202957
0.203039
0.203121
0.203204
0.203287
0.20337
0.203453
0.203536
0.203619
0.203701
0.203783
0.203866
0.20395
0.204034
0.204117
0.2042
0.204283
0.204366
0.204449
0.204533
0.204617
0.2047
0.204784
0.204867
0.20495
0.205034
0.205118
0.205202
0.205287
0.20537
0.205454
0.205537
0.205621
0.205705
0.20579
0.205874
0.205959
0.206043
0.206127
0.206211
0.206295
0.20638
0.206465
0.20655
0.206635
0.206719
0.206803
0.206888
0.206973
0.207058
0.207143
0.207228
0.207313
0.207398
0.207483
0.207568
0.207653
0.207739
0.207825
0.20791
0.207995
0.20808
0.208165
0.208251
0.208337
0.208423
0.208509
0.208595
0.20868
0.208766
0.208851
0.208938
0.209024
0.20911
0.209196
0.209283
0.209368
0.209454
0.209541
0.209627
0.209714
0.209801
0.209888
0.209974
0.21006
0.210146
0.210233
0.21032
0.210407
0.210495
0.210582
0.210668
0.210755
0.210842
0.210929
0.211016
0.211104
0.211191
0.211279
0.211365
0.211453
0.211539
0.211628
0.211716
0.211804
0.211892
0.211978
0.212067
0.212153
0.212241
0.21233
0.212417
0.212507
0.212594
0.212684
0.21277
0.212859
0.212947
0.213034
0.213126
0.21321
0.213304
0.213387
0.213479
0.213565
0.213655
0.213745
0.213832
0.213925
0.21401
0.214103
0.214188
0.214278
0.214368
0.214455
0.214549
0.214634
0.214728
0.214814
0.214905
0.214995
0.215083
0.215177
0.215263
0.215357
0.215444
0.215535
0.215625
0.215714
0.215807
0.215894
0.215989
0.216076
0.216171
0.216259
0.216351
0.216442
0.216531
0.216626
0.216713
0.216811
0.216897
0.216994
0.217081
0.217176
0.217266
0.217359
0.217453
0.217544
0.217639
0.21773
0.217824
0.217917
0.218009
0.218105
0.218196
0.218294
0.218385
0.218482
0.218575
0.218669
0.218767
0.218859
0.218958
0.219052
0.219149
0.219247
0.21934
0.21944
0.219534
0.219634
0.219732
0.219828
0.219931
0.220025
0.220129
0.220225
0.220326
0.220427
0.220526
0.220631
0.22073
0.220835
0.220935
0.221038
0.221143
0.221244
0.221352
0.221455
0.221562
0.22167
0.221774
0.221884
0.221989
0.2221
0.222208
0.222318
0.22243
0.22254
0.222654
0.222765
0.222878
0.222993
0.223107
0.223223
0.22334
0.223458
0.223576
0.223695
0.223813
0.223935
0.224056
0.224178
0.224303
0.224426
0.224553
0.224678
0.224804
0.224932
0.225061
0.225191
0.225322
0.225454
0.225586
0.22572
0.225854
0.225989
0.226126
0.226263
0.226402
0.226542
0.226682
0.226823
0.226965
0.227107
0.227251
0.227396
0.227541
0.227688
0.227835
0.227983
0.228132
0.22828
0.22843
0.228581
0.228732
0.228883
0.229037
0.229189
0.229343
0.229495
0.229651
0.229803
0.22996
0.230112
0.230272
0.230421
0.230584
0.230732
0.230895
0.231041
0.231207
0.23135
0.231521
0.23166
0.231831
0.231968
0.232141
0.232274
0.232448
0.232581
0.232754
0.232886
0.233058
0.233189
0.233359
0.233488
0.233657
0.233786
0.233953
0.234081
0.234247
0.234372
0.234536
0.23466
0.234822
0.234945
0.235106
0.235228
0.235386
0.235507
0.235663
0.235781
0.235936
0.236053
0.236206
0.236322
0.236473
0.236588
0.236737
0.236849
0.236997
0.237108
0.237254
0.237364
0.237508
0.237617
0.237759
0.237867
0.238008
0.238114
0.238253
0.238358
0.238496
0.238601
0.238737
0.23884
0.238975
0.239077
0.239211
0.239312
0.239445
0.239546
0.239677
0.239777
0.239907
0.240006
0.240135
0.240234
0.240362
0.24046
0.240587
0.240685
0.240812
0.240908
0.241034
0.24113
0.241255
0.241351
0.241476
0.241571
0.241696
0.241791
0.241915
0.242009
0.242133
0.242228
0.242351
0.242446
0.242569
0.242663
0.242787
0.242881
0.243005
0.243099
0.243224
0.243319
0.243443
0.243539
0.243664
0.243761
0.243887
0.243984
0.244112
0.244211
0.244341
0.244441
0.244572
0.244674
0.244808
0.244913
0.24505
0.245157
0.245297
0.245407
0.245551
0.245664
0.245812
0.245929
0.246082
0.246203
0.24636
0.246486
0.246648
0.246778
0.246946
0.247079
0.247253
0.247391
0.247569
0.247711
0.247895
0.248041
0.24823
0.248378
0.248571
0.248723
0.24892
0.249073
0.249273
0.249428
0.249631
0.249787
0.24999
0.250146
0.250351
0.250506
0.25071
0.250866
0.251069
0.251223
0.251424
0.251576
0.251775
0.251926
0.252122
0.252271
0.252464
0.252611
0.252802
0.252946
0.253133
0.253275
0.25346
0.253599
0.253781
0.253918
0.254097
0.254233
0.254409
0.254542
0.254715
0.254846
0.255017
0.255147
0.255315
0.255443
0.255609
0.255735
0.255899
0.256023
0.256186
0.256308
0.256469
0.25659
0.256749
0.256869
0.257025
0.257144
0.257299
0.257416
0.25757
0.257686
0.257838
0.257953
0.258104
0.258218
0.258367
0.25848
0.258628
0.25874
0.258886
0.258997
0.259143
0.259253
0.259397
0.259506
0.259649
0.259757
0.259899
0.260006
0.260147
0.260254
0.260393
0.260499
0.260638
0.260743
0.26088
0.260985
0.261121
0.261225
0.26136
0.261463
0.261598
0.2617
0.261834
0.261936
0.262069
0.26217
0.262302
0.262402
0.262533
0.262633
0.262763
0.262863
0.262992
0.263091
0.26322
0.263318
0.263446
0.263543
0.263671
0.263768
0.263894
0.263991
0.264117
0.264213
0.264338
0.264433
0.264558
0.264653
0.264777
0.264871
0.264995
0.265088
0.265211
0.265305
0.265427
0.26552
0.265642
0.265734
0.265855
0.265947
0.266067
0.266159
0.266279
0.26637
0.266489
0.26658
0.266699
0.266789
0.266908
0.266998
0.267115
0.267205
0.267322
0.267411
0.267528
0.267617
0.267733
0.267822
0.267937
0.268025
0.268141
0.268228
0.268343
0.268431
0.268545
0.268632
0.268746
0.268832
0.268946
0.269032
0.269145
0.269231
0.269344
0.269429
0.269542
0.269627
0.269739
0.269824
0.269935
0.27002
0.270131
0.270215
0.270326
0.27041
0.27052
0.270604
0.270713
0.270797
0.270906
0.27099
0.271099
0.271182
0.27129
0.271373
0.271481
0.271564
0.271671
0.27175
0.271865
0.271911
)
;

boundaryField
{
    sides
    {
        type            calculated;
        value           nonuniform List<scalar> 2(0.271911 0.18276);
    }
    empty
    {
        type            empty;
    }
}


// ************************************************************************* //
