/*--------------------------------*- C++ -*----------------------------------*\
  =========                 |
  \\      /  F ield         | OpenFOAM: The Open Source CFD Toolbox
   \\    /   O peration     | Website:  https://openfoam.org
    \\  /    A nd           | Version:  9
     \\/     M anipulation  |
\*---------------------------------------------------------------------------*/
FoamFile
{
    format      ascii;
    class       volVectorField;
    location    "0.049";
    object      U;
}
// * * * * * * * * * * * * * * * * * * * * * * * * * * * * * * * * * * * * * //

dimensions      [0 1 -1 0 0 0 0];

internalField   nonuniform List<vector> 
1000
(
(22.9549 0 0)
(23.154 0 0)
(23.4345 0 0)
(23.6655 0 0)
(23.8623 0 0)
(24.0552 0 0)
(24.2534 0 0)
(24.4542 0 0)
(24.6551 0 0)
(24.8553 0 0)
(25.0551 0 0)
(25.2548 0 0)
(25.4543 0 0)
(25.6537 0 0)
(25.853 0 0)
(26.0521 0 0)
(26.251 0 0)
(26.4497 0 0)
(26.6482 0 0)
(26.8465 0 0)
(27.0445 0 0)
(27.2424 0 0)
(27.44 0 0)
(27.6373 0 0)
(27.8344 0 0)
(28.0312 0 0)
(28.2278 0 0)
(28.424 0 0)
(28.6199 0 0)
(28.8155 0 0)
(29.0108 0 0)
(29.2058 0 0)
(29.4003 0 0)
(29.5945 0 0)
(29.7883 0 0)
(29.9817 0 0)
(30.1746 0 0)
(30.3671 0 0)
(30.5592 0 0)
(30.7509 0 0)
(30.9421 0 0)
(31.1328 0 0)
(31.323 0 0)
(31.5127 0 0)
(31.702 0 0)
(31.8908 0 0)
(32.079 0 0)
(32.2671 0 0)
(32.4548 0 0)
(32.6418 0 0)
(32.8279 0 0)
(33.0134 0 0)
(33.1984 0 0)
(33.3829 0 0)
(33.5667 0 0)
(33.7501 0 0)
(33.9328 0 0)
(34.1149 0 0)
(34.2964 0 0)
(34.4773 0 0)
(34.6575 0 0)
(34.8371 0 0)
(35.0159 0 0)
(35.1941 0 0)
(35.3716 0 0)
(35.5483 0 0)
(35.7243 0 0)
(35.8995 0 0)
(36.074 0 0)
(36.2476 0 0)
(36.4205 0 0)
(36.5925 0 0)
(36.7638 0 0)
(36.9342 0 0)
(37.1037 0 0)
(37.2724 0 0)
(37.4403 0 0)
(37.6072 0 0)
(37.7733 0 0)
(37.9384 0 0)
(38.1027 0 0)
(38.266 0 0)
(38.4283 0 0)
(38.5897 0 0)
(38.7502 0 0)
(38.9096 0 0)
(39.0681 0 0)
(39.2256 0 0)
(39.3821 0 0)
(39.5375 0 0)
(39.6919 0 0)
(39.8453 0 0)
(39.9977 0 0)
(40.149 0 0)
(40.2993 0 0)
(40.4485 0 0)
(40.5966 0 0)
(40.7437 0 0)
(40.8898 0 0)
(41.0347 0 0)
(41.1786 0 0)
(41.3214 0 0)
(41.4632 0 0)
(41.6039 0 0)
(41.7434 0 0)
(41.882 0 0)
(42.0194 0 0)
(42.1558 0 0)
(42.2912 0 0)
(42.4255 0 0)
(42.5587 0 0)
(42.6909 0 0)
(42.8221 0 0)
(42.9523 0 0)
(43.0815 0 0)
(43.2096 0 0)
(43.3368 0 0)
(43.463 0 0)
(43.5883 0 0)
(43.7126 0 0)
(43.836 0 0)
(43.9585 0 0)
(44.0801 0 0)
(44.2008 0 0)
(44.3207 0 0)
(44.4397 0 0)
(44.5579 0 0)
(44.6754 0 0)
(44.792 0 0)
(44.9079 0 0)
(45.0231 0 0)
(45.1375 0 0)
(45.2513 0 0)
(45.3644 0 0)
(45.4769 0 0)
(45.5888 0 0)
(45.7 0 0)
(45.8107 0 0)
(45.9209 0 0)
(46.0305 0 0)
(46.1396 0 0)
(46.2482 0 0)
(46.3564 0 0)
(46.4642 0 0)
(46.5715 0 0)
(46.6784 0 0)
(46.785 0 0)
(46.8912 0 0)
(46.9971 0 0)
(47.1027 0 0)
(47.208 0 0)
(47.313 0 0)
(47.4178 0 0)
(47.5223 0 0)
(47.6266 0 0)
(47.7307 0 0)
(47.8346 0 0)
(47.9383 0 0)
(48.0418 0 0)
(48.1453 0 0)
(48.2485 0 0)
(48.3517 0 0)
(48.4548 0 0)
(48.5577 0 0)
(48.6606 0 0)
(48.7633 0 0)
(48.8661 0 0)
(48.9687 0 0)
(49.0713 0 0)
(49.1738 0 0)
(49.2764 0 0)
(49.3788 0 0)
(49.4813 0 0)
(49.5838 0 0)
(49.6862 0 0)
(49.7886 0 0)
(49.891 0 0)
(49.9935 0 0)
(50.0959 0 0)
(50.1983 0 0)
(50.3008 0 0)
(50.4033 0 0)
(50.5057 0 0)
(50.6083 0 0)
(50.7108 0 0)
(50.8134 0 0)
(50.916 0 0)
(51.0186 0 0)
(51.1212 0 0)
(51.2239 0 0)
(51.3267 0 0)
(51.4294 0 0)
(51.5322 0 0)
(51.6351 0 0)
(51.738 0 0)
(51.8409 0 0)
(51.9439 0 0)
(52.0469 0 0)
(52.1499 0 0)
(52.253 0 0)
(52.3562 0 0)
(52.4593 0 0)
(52.5626 0 0)
(52.6658 0 0)
(52.7692 0 0)
(52.8725 0 0)
(52.9759 0 0)
(53.0794 0 0)
(53.1829 0 0)
(53.2865 0 0)
(53.3901 0 0)
(53.4937 0 0)
(53.5974 0 0)
(53.7011 0 0)
(53.8049 0 0)
(53.9088 0 0)
(54.0127 0 0)
(54.1166 0 0)
(54.2206 0 0)
(54.3246 0 0)
(54.4287 0 0)
(54.5328 0 0)
(54.6369 0 0)
(54.7412 0 0)
(54.8454 0 0)
(54.9497 0 0)
(55.0541 0 0)
(55.1585 0 0)
(55.2629 0 0)
(55.3674 0 0)
(55.472 0 0)
(55.5766 0 0)
(55.6812 0 0)
(55.7859 0 0)
(55.8906 0 0)
(55.9954 0 0)
(56.1002 0 0)
(56.205 0 0)
(56.3099 0 0)
(56.4149 0 0)
(56.5199 0 0)
(56.6249 0 0)
(56.73 0 0)
(56.8351 0 0)
(56.9403 0 0)
(57.0455 0 0)
(57.1508 0 0)
(57.2561 0 0)
(57.3614 0 0)
(57.4668 0 0)
(57.5723 0 0)
(57.6778 0 0)
(57.7833 0 0)
(57.8888 0 0)
(57.9945 0 0)
(58.1001 0 0)
(58.2058 0 0)
(58.3116 0 0)
(58.4173 0 0)
(58.5232 0 0)
(58.629 0 0)
(58.7349 0 0)
(58.8409 0 0)
(58.9469 0 0)
(59.0529 0 0)
(59.159 0 0)
(59.2651 0 0)
(59.3713 0 0)
(59.4775 0 0)
(59.5837 0 0)
(59.69 0 0)
(59.7963 0 0)
(59.9026 0 0)
(60.009 0 0)
(60.1155 0 0)
(60.2219 0 0)
(60.3285 0 0)
(60.435 0 0)
(60.5416 0 0)
(60.6482 0 0)
(60.7549 0 0)
(60.8616 0 0)
(60.9684 0 0)
(61.0751 0 0)
(61.182 0 0)
(61.2888 0 0)
(61.3957 0 0)
(61.5026 0 0)
(61.6096 0 0)
(61.7166 0 0)
(61.8237 0 0)
(61.9308 0 0)
(62.0379 0 0)
(62.145 0 0)
(62.2522 0 0)
(62.3595 0 0)
(62.4667 0 0)
(62.574 0 0)
(62.6814 0 0)
(62.7887 0 0)
(62.8961 0 0)
(63.0036 0 0)
(63.1111 0 0)
(63.2186 0 0)
(63.3261 0 0)
(63.4337 0 0)
(63.5414 0 0)
(63.649 0 0)
(63.7567 0 0)
(63.8644 0 0)
(63.9722 0 0)
(64.08 0 0)
(64.1878 0 0)
(64.2957 0 0)
(64.4036 0 0)
(64.5115 0 0)
(64.6195 0 0)
(64.7275 0 0)
(64.8356 0 0)
(64.9436 0 0)
(65.0517 0 0)
(65.1599 0 0)
(65.268 0 0)
(65.3763 0 0)
(65.4845 0 0)
(65.5928 0 0)
(65.7011 0 0)
(65.8094 0 0)
(65.9178 0 0)
(66.0262 0 0)
(66.1346 0 0)
(66.2431 0 0)
(66.3516 0 0)
(66.4601 0 0)
(66.5687 0 0)
(66.6773 0 0)
(66.786 0 0)
(66.8946 0 0)
(67.0033 0 0)
(67.1121 0 0)
(67.2208 0 0)
(67.3296 0 0)
(67.4385 0 0)
(67.5473 0 0)
(67.6562 0 0)
(67.7652 0 0)
(67.8741 0 0)
(67.9831 0 0)
(68.0921 0 0)
(68.2012 0 0)
(68.3103 0 0)
(68.4194 0 0)
(68.5285 0 0)
(68.6377 0 0)
(68.7469 0 0)
(68.8562 0 0)
(68.9654 0 0)
(69.0748 0 0)
(69.1841 0 0)
(69.2935 0 0)
(69.4029 0 0)
(69.5123 0 0)
(69.6218 0 0)
(69.7313 0 0)
(69.8408 0 0)
(69.9504 0 0)
(70.06 0 0)
(70.1696 0 0)
(70.2792 0 0)
(70.3889 0 0)
(70.4986 0 0)
(70.6084 0 0)
(70.7181 0 0)
(70.828 0 0)
(70.9378 0 0)
(71.0477 0 0)
(71.1576 0 0)
(71.2675 0 0)
(71.3775 0 0)
(71.4875 0 0)
(71.5975 0 0)
(71.7075 0 0)
(71.8176 0 0)
(71.9277 0 0)
(72.0379 0 0)
(72.148 0 0)
(72.2582 0 0)
(72.3685 0 0)
(72.4788 0 0)
(72.589 0 0)
(72.6994 0 0)
(72.8097 0 0)
(72.9201 0 0)
(73.0305 0 0)
(73.141 0 0)
(73.2515 0 0)
(73.362 0 0)
(73.4725 0 0)
(73.5831 0 0)
(73.6937 0 0)
(73.8043 0 0)
(73.915 0 0)
(74.0256 0 0)
(74.1364 0 0)
(74.2471 0 0)
(74.3579 0 0)
(74.4687 0 0)
(74.5795 0 0)
(74.6904 0 0)
(74.8013 0 0)
(74.9122 0 0)
(75.0232 0 0)
(75.1341 0 0)
(75.2452 0 0)
(75.3562 0 0)
(75.4673 0 0)
(75.5784 0 0)
(75.6895 0 0)
(75.8007 0 0)
(75.9119 0 0)
(76.0231 0 0)
(76.1343 0 0)
(76.2456 0 0)
(76.3569 0 0)
(76.4683 0 0)
(76.5796 0 0)
(76.691 0 0)
(76.8024 0 0)
(76.9139 0 0)
(77.0254 0 0)
(77.1369 0 0)
(77.2485 0 0)
(77.36 0 0)
(77.4716 0 0)
(77.5833 0 0)
(77.6949 0 0)
(77.8066 0 0)
(77.9183 0 0)
(78.0301 0 0)
(78.1419 0 0)
(78.2537 0 0)
(78.3655 0 0)
(78.4774 0 0)
(78.5893 0 0)
(78.7012 0 0)
(78.8132 0 0)
(78.9251 0 0)
(79.0372 0 0)
(79.1492 0 0)
(79.2613 0 0)
(79.3734 0 0)
(79.4855 0 0)
(79.5977 0 0)
(79.7099 0 0)
(79.8221 0 0)
(79.9343 0 0)
(80.0466 0 0)
(80.1589 0 0)
(80.2712 0 0)
(80.3836 0 0)
(80.496 0 0)
(80.6084 0 0)
(80.7209 0 0)
(80.8334 0 0)
(80.9459 0 0)
(81.0584 0 0)
(81.171 0 0)
(81.2836 0 0)
(81.3962 0 0)
(81.5089 0 0)
(81.6215 0 0)
(81.7342 0 0)
(81.847 0 0)
(81.9598 0 0)
(82.0726 0 0)
(82.1854 0 0)
(82.2982 0 0)
(82.4111 0 0)
(82.524 0 0)
(82.637 0 0)
(82.75 0 0)
(82.863 0 0)
(82.976 0 0)
(83.089 0 0)
(83.2021 0 0)
(83.3152 0 0)
(83.4284 0 0)
(83.5415 0 0)
(83.6547 0 0)
(83.768 0 0)
(83.8812 0 0)
(83.9945 0 0)
(84.1078 0 0)
(84.2212 0 0)
(84.3345 0 0)
(84.4479 0 0)
(84.5613 0 0)
(84.6748 0 0)
(84.7883 0 0)
(84.9018 0 0)
(85.0153 0 0)
(85.1288 0 0)
(85.2424 0 0)
(85.356 0 0)
(85.4696 0 0)
(85.5833 0 0)
(85.697 0 0)
(85.8107 0 0)
(85.9244 0 0)
(86.0382 0 0)
(86.152 0 0)
(86.2658 0 0)
(86.3796 0 0)
(86.4934 0 0)
(86.6073 0 0)
(86.7212 0 0)
(86.8351 0 0)
(86.949 0 0)
(87.063 0 0)
(87.177 0 0)
(87.291 0 0)
(87.405 0 0)
(87.519 0 0)
(87.633 0 0)
(87.7471 0 0)
(87.8612 0 0)
(87.9752 0 0)
(88.0894 0 0)
(88.2035 0 0)
(88.3176 0 0)
(88.4317 0 0)
(88.5459 0 0)
(88.66 0 0)
(88.7742 0 0)
(88.8883 0 0)
(89.0025 0 0)
(89.1167 0 0)
(89.2308 0 0)
(89.345 0 0)
(89.4592 0 0)
(89.5733 0 0)
(89.6875 0 0)
(89.8016 0 0)
(89.9157 0 0)
(90.0298 0 0)
(90.1439 0 0)
(90.258 0 0)
(90.3721 0 0)
(90.4861 0 0)
(90.6001 0 0)
(90.7141 0 0)
(90.828 0 0)
(90.9419 0 0)
(91.0558 0 0)
(91.1696 0 0)
(91.2833 0 0)
(91.3971 0 0)
(91.5107 0 0)
(91.6243 0 0)
(91.7378 0 0)
(91.8513 0 0)
(91.9647 0 0)
(92.078 0 0)
(92.1912 0 0)
(92.3043 0 0)
(92.4173 0 0)
(92.5303 0 0)
(92.6431 0 0)
(92.7558 0 0)
(92.8683 0 0)
(92.9808 0 0)
(93.0931 0 0)
(93.2052 0 0)
(93.3172 0 0)
(93.4291 0 0)
(93.5407 0 0)
(93.6522 0 0)
(93.7635 0 0)
(93.8746 0 0)
(93.9855 0 0)
(94.0962 0 0)
(94.2066 0 0)
(94.3169 0 0)
(94.4268 0 0)
(94.5365 0 0)
(94.646 0 0)
(94.7551 0 0)
(94.864 0 0)
(94.9725 0 0)
(95.0808 0 0)
(95.1887 0 0)
(95.2962 0 0)
(95.4034 0 0)
(95.5102 0 0)
(95.6166 0 0)
(95.7226 0 0)
(95.8282 0 0)
(95.9334 0 0)
(96.0381 0 0)
(96.1424 0 0)
(96.2462 0 0)
(96.3494 0 0)
(96.4522 0 0)
(96.5544 0 0)
(96.6561 0 0)
(96.7572 0 0)
(96.8578 0 0)
(96.9577 0 0)
(97.057 0 0)
(97.1557 0 0)
(97.2537 0 0)
(97.3511 0 0)
(97.4478 0 0)
(97.5437 0 0)
(97.639 0 0)
(97.7335 0 0)
(97.8272 0 0)
(97.9202 0 0)
(98.0123 0 0)
(98.1037 0 0)
(98.1942 0 0)
(98.2838 0 0)
(98.3726 0 0)
(98.4606 0 0)
(98.5476 0 0)
(98.6337 0 0)
(98.7189 0 0)
(98.8031 0 0)
(98.8864 0 0)
(98.9688 0 0)
(99.0501 0 0)
(99.1305 0 0)
(99.2098 0 0)
(99.2882 0 0)
(99.3655 0 0)
(99.4419 0 0)
(99.5172 0 0)
(99.5914 0 0)
(99.6647 0 0)
(99.7369 0 0)
(99.808 0 0)
(99.8781 0 0)
(99.9472 0 0)
(100.015 0 0)
(100.082 0 0)
(100.148 0 0)
(100.213 0 0)
(100.277 0 0)
(100.341 0 0)
(100.403 0 0)
(100.464 0 0)
(100.524 0 0)
(100.583 0 0)
(100.642 0 0)
(100.7 0 0)
(100.756 0 0)
(100.812 0 0)
(100.868 0 0)
(100.922 0 0)
(100.976 0 0)
(101.029 0 0)
(101.082 0 0)
(101.134 0 0)
(101.186 0 0)
(101.237 0 0)
(101.287 0 0)
(101.337 0 0)
(101.387 0 0)
(101.437 0 0)
(101.487 0 0)
(101.536 0 0)
(101.585 0 0)
(101.634 0 0)
(101.683 0 0)
(101.732 0 0)
(101.781 0 0)
(101.831 0 0)
(101.88 0 0)
(101.93 0 0)
(101.98 0 0)
(102.031 0 0)
(102.082 0 0)
(102.133 0 0)
(102.185 0 0)
(102.238 0 0)
(102.291 0 0)
(102.345 0 0)
(102.399 0 0)
(102.455 0 0)
(102.511 0 0)
(102.568 0 0)
(102.625 0 0)
(102.684 0 0)
(102.743 0 0)
(102.804 0 0)
(102.865 0 0)
(102.928 0 0)
(102.991 0 0)
(103.056 0 0)
(103.122 0 0)
(103.188 0 0)
(103.256 0 0)
(103.325 0 0)
(103.395 0 0)
(103.467 0 0)
(103.539 0 0)
(103.612 0 0)
(103.687 0 0)
(103.763 0 0)
(103.84 0 0)
(103.918 0 0)
(103.997 0 0)
(104.077 0 0)
(104.159 0 0)
(104.242 0 0)
(104.325 0 0)
(104.41 0 0)
(104.496 0 0)
(104.583 0 0)
(104.671 0 0)
(104.76 0 0)
(104.85 0 0)
(104.941 0 0)
(105.033 0 0)
(105.126 0 0)
(105.22 0 0)
(105.315 0 0)
(105.411 0 0)
(105.507 0 0)
(105.605 0 0)
(105.703 0 0)
(105.803 0 0)
(105.903 0 0)
(106.004 0 0)
(106.105 0 0)
(106.208 0 0)
(106.311 0 0)
(106.415 0 0)
(106.519 0 0)
(106.625 0 0)
(106.731 0 0)
(106.837 0 0)
(106.945 0 0)
(107.052 0 0)
(107.161 0 0)
(107.27 0 0)
(107.379 0 0)
(107.489 0 0)
(107.6 0 0)
(107.711 0 0)
(107.823 0 0)
(107.935 0 0)
(108.047 0 0)
(108.16 0 0)
(108.273 0 0)
(108.387 0 0)
(108.501 0 0)
(108.616 0 0)
(108.73 0 0)
(108.845 0 0)
(108.961 0 0)
(109.076 0 0)
(109.192 0 0)
(109.308 0 0)
(109.424 0 0)
(109.541 0 0)
(109.657 0 0)
(109.774 0 0)
(109.89 0 0)
(110.007 0 0)
(110.123 0 0)
(110.24 0 0)
(110.356 0 0)
(110.472 0 0)
(110.588 0 0)
(110.704 0 0)
(110.819 0 0)
(110.934 0 0)
(111.048 0 0)
(111.162 0 0)
(111.275 0 0)
(111.387 0 0)
(111.498 0 0)
(111.608 0 0)
(111.718 0 0)
(111.826 0 0)
(111.932 0 0)
(112.038 0 0)
(112.142 0 0)
(112.244 0 0)
(112.344 0 0)
(112.443 0 0)
(112.539 0 0)
(112.634 0 0)
(112.726 0 0)
(112.817 0 0)
(112.904 0 0)
(112.99 0 0)
(113.073 0 0)
(113.153 0 0)
(113.231 0 0)
(113.306 0 0)
(113.378 0 0)
(113.448 0 0)
(113.515 0 0)
(113.58 0 0)
(113.642 0 0)
(113.702 0 0)
(113.759 0 0)
(113.815 0 0)
(113.868 0 0)
(113.919 0 0)
(113.968 0 0)
(114.016 0 0)
(114.062 0 0)
(114.107 0 0)
(114.151 0 0)
(114.194 0 0)
(114.237 0 0)
(114.279 0 0)
(114.321 0 0)
(114.363 0 0)
(114.405 0 0)
(114.448 0 0)
(114.491 0 0)
(114.535 0 0)
(114.579 0 0)
(114.625 0 0)
(114.672 0 0)
(114.72 0 0)
(114.769 0 0)
(114.82 0 0)
(114.873 0 0)
(114.927 0 0)
(114.982 0 0)
(115.039 0 0)
(115.098 0 0)
(115.159 0 0)
(115.221 0 0)
(115.285 0 0)
(115.35 0 0)
(115.417 0 0)
(115.486 0 0)
(115.556 0 0)
(115.628 0 0)
(115.702 0 0)
(115.777 0 0)
(115.853 0 0)
(115.931 0 0)
(116.01 0 0)
(116.09 0 0)
(116.172 0 0)
(116.255 0 0)
(116.339 0 0)
(116.425 0 0)
(116.512 0 0)
(116.6 0 0)
(116.689 0 0)
(116.779 0 0)
(116.87 0 0)
(116.962 0 0)
(117.055 0 0)
(117.15 0 0)
(117.245 0 0)
(117.341 0 0)
(117.438 0 0)
(117.536 0 0)
(117.635 0 0)
(117.735 0 0)
(117.836 0 0)
(117.937 0 0)
(118.04 0 0)
(118.143 0 0)
(118.247 0 0)
(118.352 0 0)
(118.457 0 0)
(118.563 0 0)
(118.67 0 0)
(118.778 0 0)
(118.887 0 0)
(118.996 0 0)
(119.106 0 0)
(119.216 0 0)
(119.328 0 0)
(119.44 0 0)
(119.552 0 0)
(119.665 0 0)
(119.779 0 0)
(119.894 0 0)
(120.009 0 0)
(120.124 0 0)
(120.241 0 0)
(120.358 0 0)
(120.475 0 0)
(120.593 0 0)
(120.712 0 0)
(120.831 0 0)
(120.951 0 0)
(121.071 0 0)
(121.192 0 0)
(121.313 0 0)
(121.435 0 0)
(121.557 0 0)
(121.68 0 0)
(121.803 0 0)
(121.927 0 0)
(122.052 0 0)
(122.177 0 0)
(122.302 0 0)
(122.428 0 0)
(122.554 0 0)
(122.681 0 0)
(122.808 0 0)
(122.936 0 0)
(123.064 0 0)
(123.192 0 0)
(123.321 0 0)
(123.451 0 0)
(123.581 0 0)
(123.711 0 0)
(123.842 0 0)
(123.973 0 0)
(124.104 0 0)
(124.236 0 0)
(124.369 0 0)
(124.501 0 0)
(124.635 0 0)
(124.768 0 0)
(124.902 0 0)
(125.036 0 0)
(125.171 0 0)
(125.306 0 0)
(125.442 0 0)
(125.577 0 0)
(125.714 0 0)
(125.85 0 0)
(125.987 0 0)
(126.124 0 0)
(126.262 0 0)
(126.4 0 0)
(126.538 0 0)
(126.677 0 0)
(126.816 0 0)
(126.956 0 0)
(127.095 0 0)
(127.235 0 0)
(127.376 0 0)
(127.516 0 0)
(127.657 0 0)
(127.799 0 0)
(127.94 0 0)
(128.082 0 0)
(128.225 0 0)
(128.367 0 0)
(128.51 0 0)
(128.654 0 0)
(128.797 0 0)
(128.941 0 0)
(129.085 0 0)
(129.23 0 0)
(129.374 0 0)
(129.519 0 0)
(129.665 0 0)
(129.81 0 0)
(129.956 0 0)
(130.103 0 0)
(130.249 0 0)
(130.396 0 0)
(130.543 0 0)
(130.69 0 0)
(130.838 0 0)
(130.986 0 0)
(131.134 0 0)
(131.282 0 0)
(131.431 0 0)
(131.58 0 0)
(131.729 0 0)
(131.879 0 0)
(132.029 0 0)
(132.179 0 0)
(132.329 0 0)
(132.479 0 0)
(132.63 0 0)
(132.781 0 0)
(132.933 0 0)
(133.084 0 0)
(133.236 0 0)
(133.388 0 0)
(133.54 0 0)
(133.693 0 0)
(133.846 0 0)
(133.999 0 0)
(134.152 0 0)
(134.305 0 0)
(134.459 0 0)
(134.613 0 0)
(134.768 0 0)
(134.922 0 0)
(135.079 0 0)
(135.344 0 0)
)
;

boundaryField
{
    sides
    {
        type            zeroGradient;
    }
    empty
    {
        type            empty;
    }
}


// ************************************************************************* //
