/*--------------------------------*- C++ -*----------------------------------*\
  =========                 |
  \\      /  F ield         | OpenFOAM: The Open Source CFD Toolbox
   \\    /   O peration     | Website:  https://openfoam.org
    \\  /    A nd           | Version:  9
     \\/     M anipulation  |
\*---------------------------------------------------------------------------*/
FoamFile
{
    format      ascii;
    class       volVectorField;
    location    "0.02";
    object      U;
}
// * * * * * * * * * * * * * * * * * * * * * * * * * * * * * * * * * * * * * //

dimensions      [0 1 -1 0 0 0 0];

internalField   nonuniform List<vector> 
100
(
(106.926 0 0)
(113.3 0 0)
(117.007 0 0)
(121.016 0 0)
(124.951 0 0)
(128.904 0 0)
(132.853 0 0)
(136.803 0 0)
(140.753 0 0)
(144.706 0 0)
(148.662 0 0)
(152.622 0 0)
(156.584 0 0)
(160.547 0 0)
(164.514 0 0)
(168.484 0 0)
(172.46 0 0)
(176.439 0 0)
(180.421 0 0)
(184.406 0 0)
(188.393 0 0)
(192.384 0 0)
(196.379 0 0)
(200.378 0 0)
(204.38 0 0)
(208.383 0 0)
(212.385 0 0)
(216.386 0 0)
(220.392 0 0)
(224.411 0 0)
(228.451 0 0)
(232.516 0 0)
(236.598 0 0)
(240.68 0 0)
(244.745 0 0)
(248.789 0 0)
(252.817 0 0)
(256.84 0 0)
(260.865 0 0)
(264.894 0 0)
(268.917 0 0)
(272.923 0 0)
(276.891 0 0)
(280.777 0 0)
(284.487 0 0)
(287.797 0 0)
(290.422 0 0)
(292.113 0 0)
(292.84 0 0)
(293.029 0 0)
(293.073 0 0)
(293.197 0 0)
(293.541 0 0)
(293.702 0 0)
(293.751 0 0)
(293.745 0 0)
(293.687 0 0)
(293.63 0 0)
(293.623 0 0)
(293.624 0 0)
(293.631 0 0)
(293.638 0 0)
(293.642 0 0)
(293.621 0 0)
(293.526 0 0)
(293.452 0 0)
(293.427 0 0)
(293.421 0 0)
(293.429 0 0)
(293.446 0 0)
(293.456 0 0)
(293.456 0 0)
(293.388 0 0)
(293.314 0 0)
(293.279 0 0)
(293.267 0 0)
(293.263 0 0)
(293.268 0 0)
(293.287 0 0)
(293.297 0 0)
(293.256 0 0)
(293.163 0 0)
(293.103 0 0)
(293.066 0 0)
(293.036 0 0)
(293.025 0 0)
(293.044 0 0)
(293.142 0 0)
(293.347 0 0)
(293.479 0 0)
(293.198 0 0)
(290.715 0 0)
(287.717 0 0)
(286.463 0 0)
(286.225 0 0)
(286.491 0 0)
(286.484 0 0)
(285.531 0 0)
(282.614 0 0)
(280.811 0 0)
)
;

boundaryField
{
    sides
    {
        type            zeroGradient;
    }
    empty
    {
        type            empty;
    }
}


// ************************************************************************* //
