/*--------------------------------*- C++ -*----------------------------------*\
  =========                 |
  \\      /  F ield         | OpenFOAM: The Open Source CFD Toolbox
   \\    /   O peration     | Website:  https://openfoam.org
    \\  /    A nd           | Version:  9
     \\/     M anipulation  |
\*---------------------------------------------------------------------------*/
FoamFile
{
    format      ascii;
    class       volScalarField;
    location    "0.024";
    object      mag(U);
}
// * * * * * * * * * * * * * * * * * * * * * * * * * * * * * * * * * * * * * //

dimensions      [0 1 -1 0 0 0 0];

internalField   nonuniform List<scalar> 
10000
(
2.87739
2.95724
3.02495
3.08212
3.13815
3.19562
3.25382
3.312
3.37003
3.42803
3.48603
3.54405
3.60205
3.66006
3.71806
3.77607
3.83408
3.8921
3.95013
4.00816
4.06619
4.12421
4.18224
4.24026
4.29828
4.35629
4.41431
4.47232
4.53034
4.58836
4.64637
4.70439
4.7624
4.82042
4.87844
4.93645
4.99447
5.05249
5.11051
5.16852
5.22654
5.28456
5.34258
5.4006
5.45862
5.51664
5.57466
5.63268
5.6907
5.74872
5.80674
5.86476
5.92279
5.98081
6.03883
6.09685
6.15488
6.2129
6.27093
6.32895
6.38698
6.445
6.50303
6.56105
6.61908
6.6771
6.73513
6.79316
6.85119
6.90921
6.96724
7.02527
7.0833
7.14133
7.19936
7.25739
7.31542
7.37345
7.43148
7.48951
7.54754
7.60557
7.6636
7.72164
7.77967
7.8377
7.89574
7.95377
8.0118
8.06984
8.12787
8.18591
8.24394
8.30198
8.36001
8.41805
8.47609
8.53412
8.59216
8.6502
8.70824
8.76627
8.82431
8.88235
8.94039
8.99843
9.05647
9.11451
9.17255
9.23059
9.28863
9.34667
9.40472
9.46276
9.5208
9.57884
9.63689
9.69493
9.75297
9.81102
9.86906
9.92711
9.98515
10.0432
10.1012
10.1593
10.2173
10.2754
10.3334
10.3915
10.4495
10.5076
10.5656
10.6237
10.6817
10.7398
10.7978
10.8559
10.9139
10.972
11.03
11.0881
11.1461
11.2042
11.2622
11.3203
11.3783
11.4364
11.4944
11.5525
11.6105
11.6686
11.7267
11.7847
11.8428
11.9008
11.9589
12.0169
12.075
12.1331
12.1911
12.2492
12.3072
12.3653
12.4233
12.4814
12.5395
12.5975
12.6556
12.7136
12.7717
12.8298
12.8878
12.9459
13.0039
13.062
13.1201
13.1781
13.2362
13.2943
13.3523
13.4104
13.4685
13.5265
13.5846
13.6427
13.7007
13.7588
13.8169
13.8749
13.933
13.9911
14.0491
14.1072
14.1653
14.2233
14.2814
14.3395
14.3975
14.4556
14.5137
14.5718
14.6298
14.6879
14.746
14.804
14.8621
14.9202
14.9783
15.0363
15.0944
15.1525
15.2106
15.2686
15.3267
15.3848
15.4429
15.5009
15.559
15.6171
15.6752
15.7332
15.7913
15.8494
15.9075
15.9656
16.0236
16.0817
16.1398
16.1979
16.256
16.314
16.3721
16.4302
16.4883
16.5464
16.6044
16.6625
16.7206
16.7787
16.8368
16.8949
16.9529
17.011
17.0691
17.1272
17.1853
17.2434
17.3015
17.3595
17.4176
17.4757
17.5338
17.5919
17.65
17.7081
17.7662
17.8243
17.8823
17.9404
17.9985
18.0566
18.1147
18.1728
18.2309
18.289
18.3471
18.4052
18.4633
18.5213
18.5794
18.6375
18.6956
18.7537
18.8118
18.8699
18.928
18.9861
19.0442
19.1023
19.1604
19.2185
19.2766
19.3347
19.3928
19.4509
19.509
19.5671
19.6252
19.6833
19.7414
19.7995
19.8576
19.9157
19.9738
20.0319
20.09
20.1481
20.2062
20.2643
20.3224
20.3805
20.4386
20.4967
20.5548
20.6129
20.671
20.7291
20.7872
20.8453
20.9035
20.9616
21.0197
21.0778
21.1359
21.194
21.2521
21.3102
21.3683
21.4264
21.4845
21.5427
21.6008
21.6589
21.717
21.7751
21.8332
21.8913
21.9494
22.0075
22.0657
22.1238
22.1819
22.24
22.2981
22.3562
22.4143
22.4725
22.5306
22.5887
22.6468
22.7049
22.763
22.8212
22.8793
22.9374
22.9955
23.0536
23.1118
23.1699
23.228
23.2861
23.3442
23.4024
23.4605
23.5186
23.5767
23.6348
23.693
23.7511
23.8092
23.8673
23.9255
23.9836
24.0417
24.0998
24.158
24.2161
24.2742
24.3323
24.3905
24.4486
24.5067
24.5648
24.623
24.6811
24.7392
24.7974
24.8555
24.9136
24.9717
25.0299
25.088
25.1461
25.2043
25.2624
25.3205
25.3787
25.4368
25.4949
25.5531
25.6112
25.6693
25.7275
25.7856
25.8437
25.9019
25.96
26.0181
26.0763
26.1344
26.1925
26.2507
26.3088
26.367
26.4251
26.4832
26.5414
26.5995
26.6576
26.7158
26.7739
26.8321
26.8902
26.9483
27.0065
27.0646
27.1228
27.1809
27.2391
27.2972
27.3553
27.4135
27.4716
27.5298
27.5879
27.6461
27.7042
27.7624
27.8205
27.8786
27.9368
27.9949
28.0531
28.1112
28.1694
28.2275
28.2857
28.3438
28.402
28.4601
28.5183
28.5764
28.6346
28.6927
28.7509
28.809
28.8672
28.9253
28.9835
29.0416
29.0998
29.1579
29.2161
29.2743
29.3324
29.3906
29.4487
29.5069
29.565
29.6232
29.6813
29.7395
29.7977
29.8558
29.914
29.9721
30.0303
30.0884
30.1466
30.2048
30.2629
30.3211
30.3792
30.4374
30.4956
30.5537
30.6119
30.67
30.7282
30.7864
30.8445
30.9027
30.9609
31.019
31.0772
31.1354
31.1935
31.2517
31.3099
31.368
31.4262
31.4843
31.5425
31.6007
31.6589
31.717
31.7752
31.8334
31.8915
31.9497
32.0079
32.066
32.1242
32.1824
32.2405
32.2987
32.3569
32.4151
32.4732
32.5314
32.5896
32.6477
32.7059
32.7641
32.8223
32.8804
32.9386
32.9968
33.055
33.1131
33.1713
33.2295
33.2877
33.3459
33.404
33.4622
33.5204
33.5786
33.6367
33.6949
33.7531
33.8113
33.8695
33.9276
33.9858
34.044
34.1022
34.1604
34.2185
34.2767
34.3349
34.3931
34.4513
34.5095
34.5676
34.6258
34.684
34.7422
34.8004
34.8586
34.9167
34.9749
35.0331
35.0913
35.1495
35.2077
35.2659
35.3241
35.3822
35.4404
35.4986
35.5568
35.615
35.6732
35.7314
35.7896
35.8478
35.906
35.9641
36.0223
36.0805
36.1387
36.1969
36.2551
36.3133
36.3715
36.4297
36.4879
36.5461
36.6043
36.6625
36.7207
36.7789
36.8371
36.8953
36.9535
37.0116
37.0698
37.128
37.1862
37.2444
37.3026
37.3608
37.419
37.4772
37.5354
37.5936
37.6518
37.71
37.7682
37.8264
37.8846
37.9429
38.0011
38.0593
38.1175
38.1757
38.2339
38.2921
38.3503
38.4085
38.4667
38.5249
38.5831
38.6413
38.6995
38.7577
38.8159
38.8741
38.9324
38.9906
39.0488
39.107
39.1652
39.2234
39.2816
39.3398
39.398
39.4562
39.5145
39.5727
39.6309
39.6891
39.7473
39.8055
39.8637
39.9219
39.9802
40.0384
40.0966
40.1548
40.213
40.2712
40.3294
40.3877
40.4459
40.5041
40.5623
40.6205
40.6788
40.737
40.7952
40.8534
40.9116
40.9698
41.0281
41.0863
41.1445
41.2027
41.2609
41.3192
41.3774
41.4356
41.4938
41.5521
41.6103
41.6685
41.7267
41.785
41.8432
41.9014
41.9596
42.0179
42.0761
42.1343
42.1925
42.2508
42.309
42.3672
42.4254
42.4837
42.5419
42.6001
42.6584
42.7166
42.7748
42.833
42.8913
42.9495
43.0077
43.066
43.1242
43.1824
43.2407
43.2989
43.3571
43.4154
43.4736
43.5318
43.5901
43.6483
43.7065
43.7648
43.823
43.8812
43.9395
43.9977
44.0559
44.1142
44.1724
44.2307
44.2889
44.3471
44.4054
44.4636
44.5219
44.5801
44.6383
44.6966
44.7548
44.8131
44.8713
44.9295
44.9878
45.046
45.1043
45.1625
45.2208
45.279
45.3372
45.3955
45.4537
45.512
45.5702
45.6285
45.6867
45.745
45.8032
45.8614
45.9197
45.9779
46.0362
46.0944
46.1527
46.2109
46.2692
46.3274
46.3857
46.4439
46.5022
46.5604
46.6187
46.6769
46.7352
46.7934
46.8517
46.9099
46.9682
47.0264
47.0847
47.143
47.2012
47.2595
47.3177
47.376
47.4342
47.4925
47.5507
47.609
47.6673
47.7255
47.7838
47.842
47.9003
47.9585
48.0168
48.0751
48.1333
48.1916
48.2498
48.3081
48.3664
48.4246
48.4829
48.5411
48.5994
48.6577
48.7159
48.7742
48.8325
48.8907
48.949
49.0072
49.0655
49.1238
49.182
49.2403
49.2986
49.3568
49.4151
49.4734
49.5316
49.5899
49.6482
49.7064
49.7647
49.823
49.8812
49.9395
49.9978
50.0561
50.1143
50.1726
50.2309
50.2891
50.3474
50.4057
50.464
50.5222
50.5805
50.6388
50.697
50.7553
50.8136
50.8719
50.9301
50.9884
51.0467
51.105
51.1632
51.2215
51.2798
51.3381
51.3964
51.4546
51.5129
51.5712
51.6295
51.6877
51.746
51.8043
51.8626
51.9209
51.9791
52.0374
52.0957
52.154
52.2123
52.2705
52.3288
52.3871
52.4454
52.5037
52.562
52.6202
52.6785
52.7368
52.7951
52.8534
52.9117
52.97
53.0282
53.0865
53.1448
53.2031
53.2614
53.3197
53.378
53.4363
53.4945
53.5528
53.6111
53.6694
53.7277
53.786
53.8443
53.9026
53.9609
54.0192
54.0774
54.1357
54.194
54.2523
54.3106
54.3689
54.4272
54.4855
54.5438
54.6021
54.6604
54.7187
54.777
54.8353
54.8936
54.9519
55.0102
55.0685
55.1268
55.1851
55.2434
55.3017
55.3599
55.4182
55.4765
55.5348
55.5931
55.6514
55.7097
55.7681
55.8264
55.8847
55.943
56.0013
56.0596
56.1179
56.1762
56.2345
56.2928
56.3511
56.4094
56.4677
56.526
56.5843
56.6426
56.7009
56.7592
56.8175
56.8758
56.9341
56.9924
57.0508
57.1091
57.1674
57.2257
57.284
57.3423
57.4006
57.4589
57.5172
57.5755
57.6339
57.6922
57.7505
57.8088
57.8671
57.9254
57.9837
58.042
58.1004
58.1587
58.217
58.2753
58.3336
58.3919
58.4502
58.5086
58.5669
58.6252
58.6835
58.7418
58.8001
58.8585
58.9168
58.9751
59.0334
59.0917
59.1501
59.2084
59.2667
59.325
59.3833
59.4417
59.5
59.5583
59.6166
59.675
59.7333
59.7916
59.8499
59.9082
59.9666
60.0249
60.0832
60.1415
60.1999
60.2582
60.3165
60.3748
60.4332
60.4915
60.5498
60.6082
60.6665
60.7248
60.7831
60.8415
60.8998
60.9581
61.0165
61.0748
61.1331
61.1914
61.2498
61.3081
61.3664
61.4248
61.4831
61.5414
61.5998
61.6581
61.7164
61.7748
61.8331
61.8914
61.9498
62.0081
62.0664
62.1248
62.1831
62.2415
62.2998
62.3581
62.4165
62.4748
62.5331
62.5915
62.6498
62.7082
62.7665
62.8248
62.8832
62.9415
62.9999
63.0582
63.1165
63.1749
63.2332
63.2916
63.3499
63.4082
63.4666
63.5249
63.5833
63.6416
63.7
63.7583
63.8167
63.875
63.9333
63.9917
64.05
64.1084
64.1667
64.2251
64.2834
64.3418
64.4001
64.4585
64.5168
64.5752
64.6335
64.6919
64.7502
64.8086
64.8669
64.9253
64.9836
65.042
65.1003
65.1587
65.217
65.2754
65.3337
65.3921
65.4504
65.5088
65.5671
65.6255
65.6839
65.7422
65.8006
65.8589
65.9173
65.9756
66.034
66.0924
66.1507
66.2091
66.2674
66.3258
66.3841
66.4425
66.5009
66.5592
66.6176
66.6759
66.7343
66.7927
66.851
66.9094
66.9677
67.0261
67.0845
67.1428
67.2012
67.2596
67.3179
67.3763
67.4347
67.493
67.5514
67.6097
67.6681
67.7265
67.7848
67.8432
67.9016
67.9599
68.0183
68.0767
68.1351
68.1934
68.2518
68.3102
68.3685
68.4269
68.4853
68.5436
68.602
68.6604
68.7188
68.7771
68.8355
68.8939
68.9522
69.0106
69.069
69.1274
69.1857
69.2441
69.3025
69.3609
69.4192
69.4776
69.536
69.5944
69.6527
69.7111
69.7695
69.8279
69.8862
69.9446
70.003
70.0614
70.1198
70.1781
70.2365
70.2949
70.3533
70.4117
70.47
70.5284
70.5868
70.6452
70.7036
70.762
70.8203
70.8787
70.9371
70.9955
71.0539
71.1123
71.1706
71.229
71.2874
71.3458
71.4042
71.4626
71.521
71.5793
71.6377
71.6961
71.7545
71.8129
71.8713
71.9297
71.9881
72.0464
72.1048
72.1632
72.2216
72.28
72.3384
72.3968
72.4552
72.5136
72.572
72.6304
72.6887
72.7471
72.8055
72.8639
72.9223
72.9807
73.0391
73.0975
73.1559
73.2143
73.2727
73.3311
73.3895
73.4479
73.5063
73.5647
73.6231
73.6815
73.7399
73.7983
73.8567
73.9151
73.9735
74.0319
74.0903
74.1487
74.2071
74.2655
74.3239
74.3823
74.4407
74.4991
74.5575
74.6159
74.6743
74.7327
74.7911
74.8495
74.9079
74.9663
75.0247
75.0831
75.1415
75.1999
75.2583
75.3167
75.3752
75.4336
75.492
75.5504
75.6088
75.6672
75.7256
75.784
75.8424
75.9008
75.9592
76.0177
76.0761
76.1345
76.1929
76.2513
76.3097
76.3681
76.4265
76.485
76.5434
76.6018
76.6602
76.7186
76.777
76.8354
76.8939
76.9523
77.0107
77.0691
77.1275
77.1859
77.2444
77.3028
77.3612
77.4196
77.478
77.5364
77.5949
77.6533
77.7117
77.7701
77.8285
77.887
77.9454
78.0038
78.0622
78.1206
78.1791
78.2375
78.2959
78.3543
78.4128
78.4712
78.5296
78.588
78.6465
78.7049
78.7633
78.8217
78.8802
78.9386
78.997
79.0554
79.1139
79.1723
79.2307
79.2892
79.3476
79.406
79.4644
79.5229
79.5813
79.6397
79.6982
79.7566
79.815
79.8734
79.9319
79.9903
80.0487
80.1072
80.1656
80.224
80.2825
80.3409
80.3993
80.4578
80.5162
80.5746
80.6331
80.6915
80.75
80.8084
80.8668
80.9253
80.9837
81.0421
81.1006
81.159
81.2175
81.2759
81.3343
81.3928
81.4512
81.5097
81.5681
81.6265
81.685
81.7434
81.8019
81.8603
81.9187
81.9772
82.0356
82.0941
82.1525
82.211
82.2694
82.3278
82.3863
82.4447
82.5032
82.5616
82.6201
82.6785
82.737
82.7954
82.8539
82.9123
82.9708
83.0292
83.0877
83.1461
83.2045
83.263
83.3214
83.3799
83.4383
83.4968
83.5553
83.6137
83.6722
83.7306
83.7891
83.8475
83.906
83.9644
84.0229
84.0813
84.1398
84.1982
84.2567
84.3151
84.3736
84.4321
84.4905
84.549
84.6074
84.6659
84.7243
84.7828
84.8413
84.8997
84.9582
85.0166
85.0751
85.1335
85.192
85.2505
85.3089
85.3674
85.4258
85.4843
85.5428
85.6012
85.6597
85.7182
85.7766
85.8351
85.8935
85.952
86.0105
86.0689
86.1274
86.1859
86.2443
86.3028
86.3613
86.4197
86.4782
86.5367
86.5951
86.6536
86.7121
86.7705
86.829
86.8875
86.9459
87.0044
87.0629
87.1213
87.1798
87.2383
87.2968
87.3552
87.4137
87.4722
87.5306
87.5891
87.6476
87.7061
87.7645
87.823
87.8815
87.94
87.9984
88.0569
88.1154
88.1739
88.2323
88.2908
88.3493
88.4078
88.4662
88.5247
88.5832
88.6417
88.7002
88.7586
88.8171
88.8756
88.9341
88.9926
89.051
89.1095
89.168
89.2265
89.285
89.3434
89.4019
89.4604
89.5189
89.5774
89.6359
89.6943
89.7528
89.8113
89.8698
89.9283
89.9868
90.0452
90.1037
90.1622
90.2207
90.2792
90.3377
90.3962
90.4546
90.5131
90.5716
90.6301
90.6886
90.7471
90.8056
90.8641
90.9226
90.9811
91.0395
91.098
91.1565
91.215
91.2735
91.332
91.3905
91.449
91.5075
91.566
91.6245
91.683
91.7415
91.8
91.8584
91.9169
91.9754
92.0339
92.0924
92.1509
92.2094
92.2679
92.3264
92.3849
92.4434
92.5019
92.5604
92.6189
92.6774
92.7359
92.7944
92.8529
92.9114
92.9699
93.0284
93.0869
93.1454
93.2039
93.2624
93.3209
93.3794
93.4379
93.4964
93.5549
93.6134
93.6719
93.7305
93.789
93.8475
93.906
93.9645
94.023
94.0815
94.14
94.1985
94.257
94.3155
94.374
94.4325
94.491
94.5496
94.6081
94.6666
94.7251
94.7836
94.8421
94.9006
94.9591
95.0176
95.0762
95.1347
95.1932
95.2517
95.3102
95.3687
95.4272
95.4857
95.5443
95.6028
95.6613
95.7198
95.7783
95.8368
95.8954
95.9539
96.0124
96.0709
96.1294
96.1879
96.2465
96.305
96.3635
96.422
96.4805
96.5391
96.5976
96.6561
96.7146
96.7731
96.8317
96.8902
96.9487
97.0072
97.0658
97.1243
97.1828
97.2413
97.2998
97.3584
97.4169
97.4754
97.5339
97.5925
97.651
97.7095
97.768
97.8266
97.8851
97.9436
98.0022
98.0607
98.1192
98.1777
98.2363
98.2948
98.3533
98.4119
98.4704
98.5289
98.5875
98.646
98.7045
98.763
98.8216
98.8801
98.9386
98.9972
99.0557
99.1142
99.1728
99.2313
99.2898
99.3484
99.4069
99.4654
99.524
99.5825
99.6411
99.6996
99.7581
99.8167
99.8752
99.9337
99.9923
100.051
100.109
100.168
100.226
100.285
100.344
100.402
100.461
100.519
100.578
100.636
100.695
100.753
100.812
100.87
100.929
100.987
101.046
101.105
101.163
101.222
101.28
101.339
101.397
101.456
101.514
101.573
101.631
101.69
101.749
101.807
101.866
101.924
101.983
102.041
102.1
102.158
102.217
102.276
102.334
102.393
102.451
102.51
102.568
102.627
102.685
102.744
102.802
102.861
102.92
102.978
103.037
103.095
103.154
103.212
103.271
103.329
103.388
103.447
103.505
103.564
103.622
103.681
103.739
103.798
103.856
103.915
103.974
104.032
104.091
104.149
104.208
104.266
104.325
104.384
104.442
104.501
104.559
104.618
104.676
104.735
104.793
104.852
104.911
104.969
105.028
105.086
105.145
105.203
105.262
105.321
105.379
105.438
105.496
105.555
105.613
105.672
105.731
105.789
105.848
105.906
105.965
106.023
106.082
106.141
106.199
106.258
106.316
106.375
106.433
106.492
106.551
106.609
106.668
106.726
106.785
106.843
106.902
106.961
107.019
107.078
107.136
107.195
107.253
107.312
107.371
107.429
107.488
107.546
107.605
107.663
107.722
107.781
107.839
107.898
107.956
108.015
108.074
108.132
108.191
108.249
108.308
108.366
108.425
108.484
108.542
108.601
108.659
108.718
108.776
108.835
108.894
108.952
109.011
109.069
109.128
109.187
109.245
109.304
109.362
109.421
109.48
109.538
109.597
109.655
109.714
109.772
109.831
109.89
109.948
110.007
110.065
110.124
110.183
110.241
110.3
110.358
110.417
110.476
110.534
110.593
110.651
110.71
110.769
110.827
110.886
110.944
111.003
111.062
111.12
111.179
111.237
111.296
111.355
111.413
111.472
111.53
111.589
111.648
111.706
111.765
111.823
111.882
111.941
111.999
112.058
112.116
112.175
112.234
112.292
112.351
112.409
112.468
112.527
112.585
112.644
112.702
112.761
112.82
112.878
112.937
112.995
113.054
113.113
113.171
113.23
113.288
113.347
113.406
113.464
113.523
113.581
113.64
113.699
113.757
113.816
113.875
113.933
113.992
114.05
114.109
114.168
114.226
114.285
114.343
114.402
114.461
114.519
114.578
114.636
114.695
114.754
114.812
114.871
114.93
114.988
115.047
115.105
115.164
115.223
115.281
115.34
115.399
115.457
115.516
115.574
115.633
115.692
115.75
115.809
115.867
115.926
115.985
116.043
116.102
116.161
116.219
116.278
116.336
116.395
116.454
116.512
116.571
116.63
116.688
116.747
116.805
116.864
116.923
116.981
117.04
117.099
117.157
117.216
117.274
117.333
117.392
117.45
117.509
117.568
117.626
117.685
117.744
117.802
117.861
117.919
117.978
118.037
118.095
118.154
118.213
118.271
118.33
118.388
118.447
118.506
118.564
118.623
118.682
118.74
118.799
118.858
118.916
118.975
119.034
119.092
119.151
119.209
119.268
119.327
119.385
119.444
119.503
119.561
119.62
119.679
119.737
119.796
119.854
119.913
119.972
120.03
120.089
120.148
120.206
120.265
120.324
120.382
120.441
120.5
120.558
120.617
120.675
120.734
120.793
120.851
120.91
120.969
121.027
121.086
121.145
121.203
121.262
121.321
121.379
121.438
121.497
121.555
121.614
121.673
121.731
121.79
121.848
121.907
121.966
122.024
122.083
122.142
122.2
122.259
122.318
122.376
122.435
122.494
122.552
122.611
122.67
122.728
122.787
122.846
122.904
122.963
123.022
123.08
123.139
123.198
123.256
123.315
123.374
123.432
123.491
123.55
123.608
123.667
123.726
123.784
123.843
123.902
123.96
124.019
124.078
124.136
124.195
124.254
124.312
124.371
124.43
124.488
124.547
124.606
124.664
124.723
124.782
124.84
124.899
124.958
125.016
125.075
125.134
125.192
125.251
125.31
125.368
125.427
125.486
125.544
125.603
125.662
125.72
125.779
125.838
125.896
125.955
126.014
126.072
126.131
126.19
126.248
126.307
126.366
126.424
126.483
126.542
126.6
126.659
126.718
126.776
126.835
126.894
126.952
127.011
127.07
127.129
127.187
127.246
127.305
127.363
127.422
127.481
127.539
127.598
127.657
127.715
127.774
127.833
127.891
127.95
128.009
128.067
128.126
128.185
128.243
128.302
128.361
128.42
128.478
128.537
128.596
128.654
128.713
128.772
128.83
128.889
128.948
129.006
129.065
129.124
129.183
129.241
129.3
129.359
129.417
129.476
129.535
129.593
129.652
129.711
129.769
129.828
129.887
129.946
130.004
130.063
130.122
130.18
130.239
130.298
130.356
130.415
130.474
130.533
130.591
130.65
130.709
130.767
130.826
130.885
130.943
131.002
131.061
131.12
131.178
131.237
131.296
131.354
131.413
131.472
131.53
131.589
131.648
131.707
131.765
131.824
131.883
131.941
132
132.059
132.117
132.176
132.235
132.294
132.352
132.411
132.47
132.528
132.587
132.646
132.705
132.763
132.822
132.881
132.939
132.998
133.057
133.116
133.174
133.233
133.292
133.35
133.409
133.468
133.527
133.585
133.644
133.703
133.761
133.82
133.879
133.938
133.996
134.055
134.114
134.172
134.231
134.29
134.349
134.407
134.466
134.525
134.583
134.642
134.701
134.76
134.818
134.877
134.936
134.994
135.053
135.112
135.171
135.229
135.288
135.347
135.406
135.464
135.523
135.582
135.64
135.699
135.758
135.817
135.875
135.934
135.993
136.051
136.11
136.169
136.228
136.286
136.345
136.404
136.463
136.521
136.58
136.639
136.698
136.756
136.815
136.874
136.932
136.991
137.05
137.109
137.167
137.226
137.285
137.344
137.402
137.461
137.52
137.579
137.637
137.696
137.755
137.813
137.872
137.931
137.99
138.048
138.107
138.166
138.225
138.283
138.342
138.401
138.46
138.518
138.577
138.636
138.695
138.753
138.812
138.871
138.929
138.988
139.047
139.106
139.164
139.223
139.282
139.341
139.399
139.458
139.517
139.576
139.634
139.693
139.752
139.811
139.869
139.928
139.987
140.046
140.104
140.163
140.222
140.281
140.339
140.398
140.457
140.516
140.574
140.633
140.692
140.751
140.809
140.868
140.927
140.986
141.044
141.103
141.162
141.221
141.279
141.338
141.397
141.456
141.514
141.573
141.632
141.691
141.749
141.808
141.867
141.926
141.984
142.043
142.102
142.161
142.22
142.278
142.337
142.396
142.455
142.513
142.572
142.631
142.69
142.748
142.807
142.866
142.925
142.983
143.042
143.101
143.16
143.218
143.277
143.336
143.395
143.454
143.512
143.571
143.63
143.689
143.747
143.806
143.865
143.924
143.982
144.041
144.1
144.159
144.217
144.276
144.335
144.394
144.453
144.511
144.57
144.629
144.688
144.746
144.805
144.864
144.923
144.982
145.04
145.099
145.158
145.217
145.275
145.334
145.393
145.452
145.51
145.569
145.628
145.687
145.746
145.804
145.863
145.922
145.981
146.039
146.098
146.157
146.216
146.275
146.333
146.392
146.451
146.51
146.568
146.627
146.686
146.745
146.804
146.862
146.921
146.98
147.039
147.098
147.156
147.215
147.274
147.333
147.391
147.45
147.509
147.568
147.627
147.685
147.744
147.803
147.862
147.921
147.979
148.038
148.097
148.156
148.214
148.273
148.332
148.391
148.45
148.508
148.567
148.626
148.685
148.744
148.802
148.861
148.92
148.979
149.038
149.096
149.155
149.214
149.273
149.332
149.39
149.449
149.508
149.567
149.626
149.684
149.743
149.802
149.861
149.919
149.978
150.037
150.096
150.155
150.213
150.272
150.331
150.39
150.449
150.507
150.566
150.625
150.684
150.743
150.801
150.86
150.919
150.978
151.037
151.096
151.154
151.213
151.272
151.331
151.39
151.448
151.507
151.566
151.625
151.684
151.742
151.801
151.86
151.919
151.978
152.036
152.095
152.154
152.213
152.272
152.33
152.389
152.448
152.507
152.566
152.625
152.683
152.742
152.801
152.86
152.919
152.977
153.036
153.095
153.154
153.213
153.271
153.33
153.389
153.448
153.507
153.566
153.624
153.683
153.742
153.801
153.86
153.918
153.977
154.036
154.095
154.154
154.213
154.271
154.33
154.389
154.448
154.507
154.565
154.624
154.683
154.742
154.801
154.86
154.918
154.977
155.036
155.095
155.154
155.213
155.271
155.33
155.389
155.448
155.507
155.565
155.624
155.683
155.742
155.801
155.86
155.918
155.977
156.036
156.095
156.154
156.213
156.271
156.33
156.389
156.448
156.507
156.566
156.624
156.683
156.742
156.801
156.86
156.919
156.977
157.036
157.095
157.154
157.213
157.272
157.33
157.389
157.448
157.507
157.566
157.625
157.683
157.742
157.801
157.86
157.919
157.978
158.036
158.095
158.154
158.213
158.272
158.331
158.389
158.448
158.507
158.566
158.625
158.684
158.743
158.801
158.86
158.919
158.978
159.037
159.096
159.154
159.213
159.272
159.331
159.39
159.449
159.507
159.566
159.625
159.684
159.743
159.802
159.861
159.919
159.978
160.037
160.096
160.155
160.214
160.272
160.331
160.39
160.449
160.508
160.567
160.626
160.684
160.743
160.802
160.861
160.92
160.979
161.038
161.096
161.155
161.214
161.273
161.332
161.391
161.45
161.508
161.567
161.626
161.685
161.744
161.803
161.862
161.92
161.979
162.038
162.097
162.156
162.215
162.274
162.332
162.391
162.45
162.509
162.568
162.627
162.686
162.744
162.803
162.862
162.921
162.98
163.039
163.098
163.156
163.215
163.274
163.333
163.392
163.451
163.51
163.568
163.627
163.686
163.745
163.804
163.863
163.922
163.981
164.039
164.098
164.157
164.216
164.275
164.334
164.393
164.452
164.51
164.569
164.628
164.687
164.746
164.805
164.864
164.922
164.981
165.04
165.099
165.158
165.217
165.276
165.335
165.393
165.452
165.511
165.57
165.629
165.688
165.747
165.806
165.864
165.923
165.982
166.041
166.1
166.159
166.218
166.277
166.335
166.394
166.453
166.512
166.571
166.63
166.689
166.748
166.806
166.865
166.924
166.983
167.042
167.101
167.16
167.219
167.278
167.336
167.395
167.454
167.513
167.572
167.631
167.69
167.749
167.807
167.866
167.925
167.984
168.043
168.102
168.161
168.22
168.279
168.337
168.396
168.455
168.514
168.573
168.632
168.691
168.75
168.809
168.867
168.926
168.985
169.044
169.103
169.162
169.221
169.28
169.339
169.397
169.456
169.515
169.574
169.633
169.692
169.751
169.81
169.869
169.928
169.986
170.045
170.104
170.163
170.222
170.281
170.34
170.399
170.458
170.516
170.575
170.634
170.693
170.752
170.811
170.87
170.929
170.988
171.047
171.105
171.164
171.223
171.282
171.341
171.4
171.459
171.518
171.577
171.636
171.694
171.753
171.812
171.871
171.93
171.989
172.048
172.107
172.166
172.225
172.284
172.342
172.401
172.46
172.519
172.578
172.637
172.696
172.755
172.814
172.873
172.932
172.99
173.049
173.108
173.167
173.226
173.285
173.344
173.403
173.462
173.521
173.58
173.638
173.697
173.756
173.815
173.874
173.933
173.992
174.051
174.11
174.169
174.228
174.286
174.345
174.404
174.463
174.522
174.581
174.64
174.699
174.758
174.817
174.876
174.935
174.993
175.052
175.111
175.17
175.229
175.288
175.347
175.406
175.465
175.524
175.583
175.642
175.7
175.759
175.818
175.877
175.936
175.995
176.054
176.113
176.172
176.231
176.29
176.349
176.408
176.466
176.525
176.584
176.643
176.702
176.761
176.82
176.879
176.938
176.997
177.056
177.115
177.174
177.232
177.291
177.35
177.409
177.468
177.527
177.586
177.645
177.704
177.763
177.822
177.881
177.94
177.999
178.057
178.116
178.175
178.234
178.293
178.352
178.411
178.47
178.529
178.588
178.647
178.706
178.765
178.824
178.883
178.941
179
179.059
179.118
179.177
179.236
179.295
179.354
179.413
179.472
179.531
179.59
179.649
179.708
179.767
179.825
179.884
179.943
180.002
180.061
180.12
180.179
180.238
180.297
180.356
180.415
180.474
180.533
180.592
180.651
180.71
180.769
180.827
180.886
180.945
181.004
181.063
181.122
181.181
181.24
181.299
181.358
181.417
181.476
181.535
181.594
181.653
181.712
181.771
181.829
181.888
181.947
182.006
182.065
182.124
182.183
182.242
182.301
182.36
182.419
182.478
182.537
182.596
182.655
182.714
182.773
182.832
182.891
182.949
183.008
183.067
183.126
183.185
183.244
183.303
183.362
183.421
183.48
183.539
183.598
183.657
183.716
183.775
183.834
183.893
183.952
184.011
184.07
184.129
184.187
184.246
184.305
184.364
184.423
184.482
184.541
184.6
184.659
184.718
184.777
184.836
184.895
184.954
185.013
185.072
185.131
185.19
185.249
185.308
185.367
185.426
185.485
185.543
185.602
185.661
185.72
185.779
185.838
185.897
185.956
186.015
186.074
186.133
186.192
186.251
186.31
186.369
186.428
186.487
186.546
186.605
186.664
186.723
186.782
186.841
186.9
186.959
187.018
187.077
187.135
187.194
187.253
187.312
187.371
187.43
187.489
187.548
187.607
187.666
187.725
187.784
187.843
187.902
187.961
188.02
188.079
188.138
188.197
188.256
188.315
188.374
188.433
188.492
188.551
188.61
188.669
188.728
188.787
188.846
188.905
188.963
189.022
189.081
189.14
189.199
189.258
189.317
189.376
189.435
189.494
189.553
189.612
189.671
189.73
189.789
189.848
189.907
189.966
190.025
190.084
190.143
190.202
190.261
190.32
190.379
190.438
190.497
190.556
190.615
190.674
190.733
190.792
190.851
190.91
190.969
191.028
191.087
191.146
191.205
191.264
191.322
191.381
191.44
191.499
191.558
191.617
191.676
191.735
191.794
191.853
191.912
191.971
192.03
192.089
192.148
192.207
192.266
192.325
192.384
192.443
192.502
192.561
192.62
192.679
192.738
192.797
192.856
192.915
192.974
193.033
193.092
193.151
193.21
193.269
193.328
193.387
193.446
193.505
193.564
193.623
193.682
193.741
193.8
193.859
193.918
193.977
194.036
194.095
194.154
194.213
194.272
194.331
194.39
194.449
194.508
194.567
194.626
194.685
194.744
194.803
194.861
194.92
194.979
195.038
195.097
195.156
195.215
195.274
195.333
195.392
195.451
195.51
195.569
195.628
195.687
195.746
195.805
195.864
195.923
195.982
196.041
196.1
196.159
196.218
196.277
196.336
196.395
196.454
196.513
196.572
196.631
196.69
196.749
196.808
196.867
196.926
196.985
197.044
197.103
197.162
197.221
197.28
197.339
197.398
197.457
197.516
197.575
197.634
197.693
197.752
197.811
197.87
197.929
197.988
198.047
198.106
198.165
198.224
198.283
198.342
198.401
198.46
198.519
198.578
198.637
198.696
198.755
198.814
198.873
198.932
198.991
199.05
199.109
199.168
199.227
199.286
199.345
199.404
199.463
199.522
199.581
199.64
199.699
199.758
199.817
199.876
199.935
199.994
200.053
200.112
200.171
200.23
200.289
200.348
200.407
200.466
200.525
200.584
200.643
200.702
200.761
200.82
200.879
200.938
200.997
201.056
201.115
201.174
201.233
201.292
201.351
201.41
201.469
201.528
201.587
201.646
201.705
201.764
201.823
201.882
201.941
202
202.059
202.118
202.177
202.236
202.295
202.354
202.413
202.472
202.531
202.59
202.649
202.708
202.767
202.826
202.885
202.944
203.003
203.062
203.121
203.18
203.239
203.298
203.357
203.416
203.475
203.534
203.593
203.652
203.711
203.77
203.829
203.888
203.947
204.006
204.065
204.124
204.183
204.242
204.301
204.36
204.419
204.478
204.537
204.596
204.655
204.714
204.773
204.832
204.891
204.95
205.009
205.068
205.127
205.186
205.245
205.304
205.363
205.422
205.481
205.54
205.599
205.658
205.717
205.776
205.835
205.894
205.953
206.012
206.071
206.13
206.189
206.248
206.307
206.366
206.425
206.484
206.543
206.602
206.661
206.72
206.779
206.838
206.897
206.956
207.015
207.074
207.133
207.192
207.251
207.31
207.369
207.428
207.487
207.546
207.605
207.664
207.723
207.782
207.841
207.9
207.959
208.018
208.077
208.136
208.195
208.254
208.313
208.372
208.431
208.49
208.549
208.608
208.667
208.726
208.785
208.845
208.904
208.963
209.022
209.081
209.14
209.199
209.258
209.317
209.376
209.435
209.494
209.553
209.612
209.671
209.73
209.789
209.848
209.907
209.966
210.025
210.084
210.143
210.202
210.261
210.32
210.379
210.438
210.497
210.556
210.615
210.674
210.733
210.792
210.851
210.91
210.969
211.028
211.087
211.146
211.205
211.264
211.323
211.382
211.441
211.5
211.559
211.618
211.677
211.736
211.795
211.854
211.913
211.972
212.031
212.09
212.149
212.208
212.267
212.326
212.385
212.444
212.503
212.562
212.621
212.68
212.739
212.798
212.857
212.916
212.975
213.034
213.093
213.152
213.211
213.27
213.329
213.388
213.447
213.506
213.565
213.624
213.683
213.742
213.801
213.86
213.919
213.977
214.036
214.095
214.154
214.213
214.272
214.331
214.39
214.449
214.508
214.567
214.626
214.685
214.744
214.803
214.862
214.921
214.98
215.039
215.098
215.157
215.216
215.275
215.334
215.393
215.452
215.511
215.57
215.629
215.688
215.747
215.806
215.865
215.924
215.983
216.042
216.101
216.16
216.219
216.278
216.337
216.396
216.455
216.514
216.573
216.632
216.691
216.75
216.809
216.868
216.927
216.986
217.045
217.104
217.163
217.222
217.281
217.34
217.399
217.458
217.517
217.576
217.635
217.694
217.753
217.812
217.871
217.93
217.989
218.048
218.107
218.165
218.224
218.283
218.342
218.401
218.46
218.519
218.578
218.637
218.696
218.755
218.814
218.873
218.932
218.991
219.05
219.109
219.168
219.227
219.286
219.345
219.404
219.463
219.522
219.581
219.64
219.699
219.758
219.817
219.876
219.935
219.994
220.053
220.111
220.17
220.229
220.288
220.347
220.406
220.465
220.524
220.583