/*--------------------------------*- C++ -*----------------------------------*\
  =========                 |
  \\      /  F ield         | OpenFOAM: The Open Source CFD Toolbox
   \\    /   O peration     | Website:  https://openfoam.org
    \\  /    A nd           | Version:  9
     \\/     M anipulation  |
\*---------------------------------------------------------------------------*/
FoamFile
{
    format      ascii;
    class       surfaceScalarField;
    location    "0.024";
    object      phi;
}
// * * * * * * * * * * * * * * * * * * * * * * * * * * * * * * * * * * * * * //

dimensions      [1 0 -1 0 0 0 0];

internalField   nonuniform List<scalar> 
9999
(
4.82417
4.91936
5.01455
5.10973
5.20491
5.30009
5.39526
5.49042
5.58557
5.68072
5.77587
5.87103
5.96619
6.06134
6.15647
6.25158
6.34667
6.44177
6.53687
6.632
6.72714
6.82231
6.91751
7.01272
7.10795
7.20318
7.29843
7.39367
7.48892
7.58417
7.67942
7.77469
7.86995
7.9652
8.06046
8.15572
8.25098
8.34624
8.44149
8.53675
8.63201
8.72726
8.82252
8.91777
9.01303
9.10828
9.20354
9.29879
9.39404
9.4893
9.58455
9.6798
9.77506
9.87031
9.96556
10.0608
10.1561
10.2513
10.3466
10.4418
10.5371
10.6323
10.7276
10.8228
10.9181
11.0133
11.1086
11.2038
11.2991
11.3943
11.4895
11.5848
11.68
11.7753
11.8705
11.9658
12.061
12.1563
12.2515
12.3468
12.442
12.5372
12.6325
12.7277
12.823
12.9182
13.0134
13.1087
13.2039
13.2992
13.3944
13.4896
13.5849
13.6801
13.7754
13.8706
13.9658
14.0611
14.1563
14.2516
14.3468
14.442
14.5373
14.6325
14.7277
14.823
14.9182
15.0134
15.1087
15.2039
15.2991
15.3944
15.4896
15.5848
15.6801
15.7753
15.8705
15.9658
16.061
16.1562
16.2514
16.3467
16.4419
16.5371
16.6324
16.7276
16.8228
16.918
17.0133
17.1085
17.2037
17.2989
17.3942
17.4894
17.5846
17.6798
17.7751
17.8703
17.9655
18.0607
18.1559
18.2512
18.3464
18.4416
18.5368
18.632
18.7273
18.8225
18.9177
19.0129
19.1081
19.2033
19.2986
19.3938
19.489
19.5842
19.6794
19.7746
19.8698
19.9651
20.0603
20.1555
20.2507
20.3459
20.4411
20.5363
20.6315
20.7268
20.822
20.9172
21.0124
21.1076
21.2028
21.298
21.3932
21.4884
21.5836
21.6788
21.774
21.8692
21.9644
22.0596
22.1548
22.25
22.3452
22.4405
22.5357
22.6309
22.7261
22.8213
22.9165
23.0117
23.1069
23.2021
23.2972
23.3924
23.4876
23.5828
23.678
23.7732
23.8684
23.9636
24.0588
24.154
24.2492
24.3444
24.4396
24.5348
24.63
24.7252
24.8203
24.9155
25.0107
25.1059
25.2011
25.2963
25.3915
25.4867
25.5819
25.677
25.7722
25.8674
25.9626
26.0578
26.153
26.2481
26.3433
26.4385
26.5337
26.6289
26.7241
26.8192
26.9144
27.0096
27.1048
27.1999
27.2951
27.3903
27.4855
27.5807
27.6758
27.771
27.8662
27.9614
28.0565
28.1517
28.2469
28.342
28.4372
28.5324
28.6276
28.7227
28.8179
28.9131
29.0082
29.1034
29.1986
29.2937
29.3889
29.4841
29.5792
29.6744
29.7696
29.8647
29.9599
30.0551
30.1502
30.2454
30.3405
30.4357
30.5309
30.626
30.7212
30.8163
30.9115
31.0066
31.1018
31.197
31.2921
31.3873
31.4824
31.5776
31.6727
31.7679
31.863
31.9582
32.0533
32.1485
32.2436
32.3388
32.4339
32.5291
32.6242
32.7194
32.8145
32.9097
33.0048
33.1
33.1951
33.2902
33.3854
33.4805
33.5757
33.6708
33.766
33.8611
33.9562
34.0514
34.1465
34.2417
34.3368
34.4319
34.5271
34.6222
34.7173
34.8125
34.9076
35.0027
35.0979
35.193
35.2881
35.3833
35.4784
35.5735
35.6687
35.7638
35.8589
35.954
36.0492
36.1443
36.2394
36.3345
36.4297
36.5248
36.6199
36.715
36.8102
36.9053
37.0004
37.0955
37.1906
37.2858
37.3809
37.476
37.5711
37.6662
37.7613
37.8565
37.9516
38.0467
38.1418
38.2369
38.332
38.4271
38.5222
38.6174
38.7125
38.8076
38.9027
38.9978
39.0929
39.188
39.2831
39.3782
39.4733
39.5684
39.6635
39.7586
39.8537
39.9488
40.0439
40.139
40.2341
40.3292
40.4243
40.5194
40.6145
40.7096
40.8047
40.8998
40.9949
41.09
41.1851
41.2802
41.3753
41.4704
41.5654
41.6605
41.7556
41.8507
41.9458
42.0409
42.136
42.2311
42.3261
42.4212
42.5163
42.6114
42.7065
42.8016
42.8966
42.9917
43.0868
43.1819
43.2769
43.372
43.4671
43.5622
43.6573
43.7523
43.8474
43.9425
44.0375
44.1326
44.2277
44.3228
44.4178
44.5129
44.608
44.703
44.7981
44.8932
44.9882
45.0833
45.1784
45.2734
45.3685
45.4635
45.5586
45.6537
45.7487
45.8438
45.9388
46.0339
46.129
46.224
46.3191
46.4141
46.5092
46.6042
46.6993
46.7943
46.8894
46.9844
47.0795
47.1745
47.2696
47.3646
47.4597
47.5547
47.6498
47.7448
47.8399
47.9349
48.03
48.125
48.22
48.3151
48.4101
48.5052
48.6002
48.6952
48.7903
48.8853
48.9803
49.0754
49.1704
49.2654
49.3605
49.4555
49.5505
49.6456
49.7406
49.8356
49.9306
50.0257
50.1207
50.2157
50.3107
50.4058
50.5008
50.5958
50.6908
50.7859
50.8809
50.9759
51.0709
51.1659
51.261
51.356
51.451
51.546
51.641
51.736
51.831
51.926
52.0211
52.1161
52.2111
52.3061
52.4011
52.4961
52.5911
52.6861
52.7811
52.8761
52.9711
53.0661
53.1611
53.2561
53.3511
53.4461
53.5411
53.6361
53.7311
53.8261
53.9211
54.0161
54.1111
54.2061
54.3011
54.3961
54.4911
54.586
54.681
54.776
54.871
54.966
55.061
55.156
55.2509
55.3459
55.4409
55.5359
55.6309
55.7258
55.8208
55.9158
56.0108
56.1058
56.2007
56.2957
56.3907
56.4857
56.5806
56.6756
56.7706
56.8655
56.9605
57.0555
57.1504
57.2454
57.3404
57.4353
57.5303
57.6253
57.7202
57.8152
57.9101
58.0051
58.1
58.195
58.29
58.3849
58.4799
58.5748
58.6698
58.7647
58.8597
58.9546
59.0496
59.1445
59.2395
59.3344
59.4294
59.5243
59.6193
59.7142
59.8091
59.9041
59.999
60.094
60.1889
60.2838
60.3788
60.4737
60.5686
60.6636
60.7585
60.8534
60.9484
61.0433
61.1382
61.2332
61.3281
61.423
61.518
61.6129
61.7078
61.8027
61.8977
61.9926
62.0875
62.1824
62.2773
62.3723
62.4672
62.5621
62.657
62.7519
62.8468
62.9417
63.0367
63.1316
63.2265
63.3214
63.4163
63.5112
63.6061
63.701
63.7959
63.8908
63.9857
64.0806
64.1755
64.2704
64.3653
64.4602
64.5551
64.65
64.7449
64.8398
64.9347
65.0296
65.1245
65.2194
65.3143
65.4092
65.5041
65.5989
65.6938
65.7887
65.8836
65.9785
66.0734
66.1682
66.2631
66.358
66.4529
66.5478
66.6426
66.7375
66.8324
66.9273
67.0221
67.117
67.2119
67.3067
67.4016
67.4965
67.5913
67.6862
67.7811
67.8759
67.9708
68.0657
68.1605
68.2554
68.3502
68.4451
68.54
68.6348
68.7297
68.8245
68.9194
69.0142
69.1091
69.2039
69.2988
69.3936
69.4885
69.5833
69.6782
69.773
69.8679
69.9627
70.0575
70.1524
70.2472
70.3421
70.4369
70.5317
70.6266
70.7214
70.8162
70.9111
71.0059
71.1007
71.1956
71.2904
71.3852
71.48
71.5749
71.6697
71.7645
71.8593
71.9542
72.049
72.1438
72.2386
72.3334
72.4282
72.5231
72.6179
72.7127
72.8075
72.9023
72.9971
73.0919
73.1867
73.2815
73.3764
73.4712
73.566
73.6608
73.7556
73.8504
73.9452
74.04
74.1348
74.2296
74.3243
74.4191
74.5139
74.6087
74.7035
74.7983
74.8931
74.9879
75.0827
75.1775
75.2722
75.367
75.4618
75.5566
75.6514
75.7461
75.8409
75.9357
76.0305
76.1253
76.22
76.3148
76.4096
76.5043
76.5991
76.6939
76.7886
76.8834
76.9782
77.0729
77.1677
77.2625
77.3572
77.452
77.5467
77.6415
77.7363
77.831
77.9258
78.0205
78.1153
78.21
78.3048
78.3995
78.4943
78.589
78.6838
78.7785
78.8733
78.968
79.0627
79.1575
79.2522
79.347
79.4417
79.5364
79.6312
79.7259
79.8206
79.9154
80.0101
80.1048
80.1995
80.2943
80.389
80.4837
80.5784
80.6732
80.7679
80.8626
80.9573
81.052
81.1468
81.2415
81.3362
81.4309
81.5256
81.6203
81.715
81.8097
81.9045
81.9992
82.0939
82.1886
82.2833
82.378
82.4727
82.5674
82.6621
82.7568
82.8515
82.9462
83.0408
83.1355
83.2302
83.3249
83.4196
83.5143
83.609
83.7037
83.7984
83.893
83.9877
84.0824
84.1771
84.2718
84.3664
84.4611
84.5558
84.6505
84.7451
84.8398
84.9345
85.0291
85.1238
85.2185
85.3131
85.4078
85.5025
85.5971
85.6918
85.7865
85.8811
85.9758
86.0704
86.1651
86.2597
86.3544
86.449
86.5437
86.6383
86.733
86.8276
86.9223
87.0169
87.1116
87.2062
87.3008
87.3955
87.4901
87.5848
87.6794
87.774
87.8687
87.9633
88.0579
88.1525
88.2472
88.3418
88.4364
88.5311
88.6257
88.7203
88.8149
88.9095
89.0042
89.0988
89.1934
89.288
89.3826
89.4772
89.5718
89.6664
89.7611
89.8557
89.9503
90.0449
90.1395
90.2341
90.3287
90.4233
90.5179
90.6125
90.7071
90.8017
90.8963
90.9909
91.0854
91.18
91.2746
91.3692
91.4638
91.5584
91.653
91.7475
91.8421
91.9367
92.0313
92.1259
92.2204
92.315
92.4096
92.5042
92.5987
92.6933
92.7879
92.8824
92.977
93.0716
93.1661
93.2607
93.3552
93.4498
93.5444
93.6389
93.7335
93.828
93.9226
94.0171
94.1117
94.2062
94.3008
94.3953
94.4899
94.5844
94.679
94.7735
94.868
94.9626
95.0571
95.1516
95.2462
95.3407
95.4352
95.5298
95.6243
95.7188
95.8134
95.9079
96.0024
96.0969
96.1914
96.286
96.3805
96.475
96.5695
96.664
96.7585
96.8531
96.9476
97.0421
97.1366
97.2311
97.3256
97.4201
97.5146
97.6091
97.7036
97.7981
97.8926
97.9871
98.0816
98.1761
98.2706
98.3651
98.4596
98.554
98.6485
98.743
98.8375
98.932
99.0265
99.1209
99.2154
99.3099
99.4044
99.4989
99.5933
99.6878
99.7823
99.8767
99.9712
100.066
100.16
100.255
100.349
100.444
100.538
100.632
100.727
100.821
100.916
101.01
101.105
101.199
101.294
101.388
101.482
101.577
101.671
101.766
101.86
101.955
102.049
102.144
102.238
102.332
102.427
102.521
102.616
102.71
102.805
102.899
102.993
103.088
103.182
103.277
103.371
103.466
103.56
103.654
103.749
103.843
103.938
104.032
104.126
104.221
104.315
104.41
104.504
104.598
104.693
104.787
104.882
104.976
105.07
105.165
105.259
105.354
105.448
105.542
105.637
105.731
105.825
105.92
106.014
106.109
106.203
106.297
106.392
106.486
106.58
106.675
106.769
106.864
106.958
107.052
107.147
107.241
107.335
107.43
107.524
107.618
107.713
107.807
107.901
107.996
108.09
108.185
108.279
108.373
108.468
108.562
108.656
108.751
108.845
108.939
109.034
109.128
109.222
109.317
109.411
109.505
109.599
109.694
109.788
109.882
109.977
110.071
110.165
110.26
110.354
110.448
110.543
110.637
110.731
110.826
110.92
111.014
111.108
111.203
111.297
111.391
111.486
111.58
111.674
111.768
111.863
111.957
112.051
112.146
112.24
112.334
112.428
112.523
112.617
112.711
112.806
112.9
112.994
113.088
113.183
113.277
113.371
113.465
113.56
113.654
113.748
113.842
113.937
114.031
114.125
114.219
114.314
114.408
114.502
114.596
114.691
114.785
114.879
114.973
115.068
115.162
115.256
115.35
115.445
115.539
115.633
115.727
115.821
115.916
116.01
116.104
116.198
116.292
116.387
116.481
116.575
116.669
116.764
116.858
116.952
117.046
117.14
117.235
117.329
117.423
117.517
117.611
117.705
117.8
117.894
117.988
118.082
118.176
118.271
118.365
118.459
118.553
118.647
118.741
118.836
118.93
119.024
119.118
119.212
119.306
119.401
119.495
119.589
119.683
119.777
119.871
119.966
120.06
120.154
120.248
120.342
120.436
120.53
120.625
120.719
120.813
120.907
121.001
121.095
121.189
121.284
121.378
121.472
121.566
121.66
121.754
121.848
121.942
122.036
122.131
122.225
122.319
122.413
122.507
122.601
122.695
122.789
122.883
122.978
123.072
123.166
123.26
123.354
123.448
123.542
123.636
123.73
123.824
123.918
124.013
124.107
124.201
124.295
124.389
124.483
124.577
124.671
124.765
124.859
124.953
125.047
125.141
125.235
125.329
125.424
125.518
125.612
125.706
125.8
125.894
125.988
126.082
126.176
126.27
126.364
126.458
126.552
126.646
126.74
126.834
126.928
127.022
127.116
127.21
127.304
127.398
127.492
127.586
127.68
127.774
127.868
127.962
128.056
128.15
128.244
128.338
128.432
128.526
128.62
128.714
128.808
128.902
128.996
129.09
129.184
129.278
129.372
129.466
129.56
129.654
129.748
129.842
129.936
130.03
130.124
130.218
130.312
130.406
130.5
130.594
130.688
130.782
130.876
130.97
131.064
131.158
131.252
131.346
131.439
131.533
131.627
131.721
131.815
131.909
132.003
132.097
132.191
132.285
132.379
132.473
132.567
132.661
132.755
132.848
132.942
133.036
133.13
133.224
133.318
133.412
133.506
133.6
133.694
133.788
133.881
133.975
134.069
134.163
134.257
134.351
134.445
134.539
134.633
134.726
134.82
134.914
135.008
135.102
135.196
135.29
135.384
135.477
135.571
135.665
135.759
135.853
135.947
136.041
136.134
136.228
136.322
136.416
136.51
136.604
136.698
136.791
136.885
136.979
137.073
137.167
137.261
137.354
137.448
137.542
137.636
137.73
137.824
137.917
138.011
138.105
138.199
138.293
138.386
138.48
138.574
138.668
138.762
138.855
138.949
139.043
139.137
139.231
139.324
139.418
139.512
139.606
139.7
139.793
139.887
139.981
140.075
140.169
140.262
140.356
140.45
140.544
140.637
140.731
140.825
140.919
141.012
141.106
141.2
141.294
141.387
141.481
141.575
141.669
141.762
141.856
141.95
142.044
142.137
142.231
142.325
142.419
142.512
142.606
142.7
142.793
142.887
142.981
143.075
143.168
143.262
143.356
143.449
143.543
143.637
143.731
143.824
143.918
144.012
144.105
144.199
144.293
144.386
144.48
144.574
144.668
144.761
144.855
144.949
145.042
145.136
145.23
145.323
145.417
145.511
145.604
145.698
145.792
145.885
145.979
146.073
146.166
146.26
146.353
146.447
146.541
146.634
146.728
146.822
146.915
147.009
147.103
147.196
147.29
147.384
147.477
147.571
147.664
147.758
147.852
147.945
148.039
148.132
148.226
148.32
148.413
148.507
148.6
148.694
148.788
148.881
148.975
149.068
149.162
149.256
149.349
149.443
149.536
149.63
149.724
149.817
149.911
150.004
150.098
150.191
150.285
150.379
150.472
150.566
150.659
150.753
150.846
150.94
151.033
151.127
151.221
151.314
151.408
151.501
151.595
151.688
151.782
151.875
151.969
152.062
152.156
152.249
152.343
152.436
152.53
152.623
152.717
152.811
152.904
152.998
153.091
153.185
153.278
153.372
153.465
153.559
153.652
153.746
153.839
153.932
154.026
154.119
154.213
154.306
154.4
154.493
154.587
154.68
154.774
154.867
154.961
155.054
155.148
155.241
155.335
155.428
155.521
155.615
155.708
155.802
155.895
155.989
156.082
156.176
156.269
156.362
156.456
156.549
156.643
156.736
156.83
156.923
157.016
157.11
157.203
157.297
157.39
157.483
157.577
157.67
157.764
157.857
157.95
158.044
158.137
158.231
158.324
158.417
158.511
158.604
158.698
158.791
158.884
158.978
159.071
159.164
159.258
159.351
159.445
159.538
159.631
159.725
159.818
159.911
160.005
160.098
160.191
160.285
160.378
160.471
160.565
160.658
160.751
160.845
160.938
161.031
161.125
161.218
161.311
161.405
161.498
161.591
161.685
161.778
161.871
161.965
162.058
162.151
162.244
162.338
162.431
162.524
162.618
162.711
162.804
162.897
162.991
163.084
163.177
163.271
163.364
163.457
163.55
163.644
163.737
163.83
163.923
164.017
164.11
164.203
164.296
164.39
164.483
164.576
164.669
164.763
164.856
164.949
165.042
165.136
165.229
165.322
165.415
165.509
165.602
165.695
165.788
165.881
165.975
166.068
166.161
166.254
166.347
166.441
166.534
166.627
166.72
166.813
166.907
167
167.093
167.186
167.279
167.373
167.466
167.559
167.652
167.745
167.838
167.932
168.025
168.118
168.211
168.304
168.397
168.491
168.584
168.677
168.77
168.863
168.956
169.049
169.143
169.236
169.329
169.422
169.515
169.608
169.701
169.794
169.888
169.981
170.074
170.167
170.26
170.353
170.446
170.539
170.632
170.726
170.819
170.912
171.005
171.098
171.191
171.284
171.377
171.47
171.563
171.656
171.749
171.843
171.936
172.029
172.122
172.215
172.308
172.401
172.494
172.587
172.68
172.773
172.866
172.959
173.052
173.145
173.238
173.331
173.424
173.517
173.61
173.703
173.796
173.889
173.982
174.076
174.169
174.262
174.355
174.448
174.541
174.634
174.727
174.82
174.913
175.006
175.099
175.192
175.284
175.377
175.47
175.563
175.656
175.749
175.842
175.935
176.028
176.121
176.214
176.307
176.4
176.493
176.586
176.679
176.772
176.865
176.958
177.051
177.144
177.237
177.33
177.422
177.515
177.608
177.701
177.794
177.887
177.98
178.073
178.166
178.259
178.352
178.445
178.537
178.63
178.723
178.816
178.909
179.002
179.095
179.188
179.281
179.373
179.466
179.559
179.652
179.745
179.838
179.931
180.024
180.116
180.209
180.302
180.395
180.488
180.581
180.674
180.766
180.859
180.952
181.045
181.138
181.231
181.323
181.416
181.509
181.602
181.695
181.788
181.88
181.973
182.066
182.159
182.252
182.344
182.437
182.53
182.623
182.716
182.808
182.901
182.994
183.087
183.18
183.272
183.365
183.458
183.551
183.643
183.736
183.829
183.922
184.014
184.107
184.2
184.293
184.386
184.478
184.571
184.664
184.756
184.849
184.942
185.035
185.127
185.22
185.313
185.406
185.498
185.591
185.684
185.776
185.869
185.962
186.055
186.147
186.24
186.333
186.425
186.518
186.611
186.703
186.796
186.889
186.982
187.074
187.167
187.26
187.352
187.445
187.538
187.63
187.723
187.816
187.908
188.001
188.093
188.186
188.279
188.371
188.464
188.557
188.649
188.742
188.835
188.927
189.02
189.112
189.205
189.298
189.39
189.483
189.576
189.668
189.761
189.853
189.946
190.039
190.131
190.224
190.316
190.409
190.502
190.594
190.687
190.779
190.872
190.964
191.057
191.15
191.242
191.335
191.427
191.52
191.612
191.705
191.797
191.89
191.983
192.075
192.168
192.26
192.353
192.445
192.538
192.63
192.723
192.815
192.908
193
193.093
193.185
193.278
193.37
193.463
193.555
193.648
193.74
193.833
193.925
194.018
194.11
194.203
194.295
194.388
194.48
194.573
194.665
194.758
194.85
194.943
195.035
195.128
195.22
195.313
195.405
195.497
195.59
195.682
195.775
195.867
195.96
196.052
196.144
196.237
196.329
196.422
196.514
196.607
196.699
196.791
196.884
196.976
197.069
197.161
197.253
197.346
197.438
197.531
197.623
197.715
197.808
197.9
197.992
198.085
198.177
198.27
198.362
198.454
198.547
198.639
198.731
198.824
198.916
199.008
199.101
199.193
199.285
199.378
199.47
199.563
199.655
199.747
199.839
199.932
200.024
200.116
200.209
200.301
200.393
200.486
200.578
200.67
200.763
200.855
200.947
201.039
201.132
201.224
201.316
201.409
201.501
201.593
201.685
201.778
201.87
201.962
202.054
202.147
202.239
202.331
202.423
202.516
202.608
202.7
202.792
202.885
202.977
203.069
203.161
203.254
203.346
203.438
203.53
203.622
203.715
203.807
203.899
203.991
204.083
204.176
204.268
204.36
204.452
204.544
204.637
204.729
204.821
204.913
205.005
205.098
205.19
205.282
205.374
205.466
205.558
205.65
205.743
205.835
205.927
206.019
206.111
206.203
206.295
206.388
206.48
206.572
206.664
206.756
206.848
206.94
207.032
207.125
207.217
207.309
207.401
207.493
207.585
207.677
207.769
207.861
207.953
208.046
208.138
208.23
208.322
208.414
208.506
208.598
208.69
208.782
208.874
208.966
209.058
209.15
209.242
209.334
209.426
209.518
209.611
209.703
209.795
209.887
209.979
210.071
210.163
210.255
210.347
210.439
210.531
210.623
210.715
210.807
210.899
210.991
211.083
211.175
211.267
211.359
211.451
211.543
211.635
211.727
211.819
211.91
212.002
212.094
212.186
212.278
212.37
212.462
212.554
212.646
212.738
212.83
212.922
213.014
213.106
213.198
213.29
213.382
213.473
213.565
213.657
213.749
213.841
213.933
214.025
214.117
214.209
214.301
214.392
214.484
214.576
214.668
214.76
214.852
214.944
215.036
215.128
215.219
215.311
215.403
215.495
215.587
215.679
215.77
215.862
215.954
216.046
216.138
216.23
216.322
216.413
216.505
216.597
216.689
216.781
216.872
216.964
217.056
217.148
217.24
217.331
217.423
217.515
217.607
217.699
217.79
217.882
217.974
218.066
218.157
218.249
218.341
218.433
218.525
218.616
218.708
218.8
218.892
218.983
219.075
219.167
219.258
219.35
219.442
219.534
219.625
219.717
219.809
219.901
219.992
220.084
220.176
220.267
220.359
220.451
220.542
220.634
220.726
220.818
220.909
221.001
221.093
221.184
221.276
221.368
221.459
221.551
221.643
221.734
221.826
221.918
222.009
222.101
222.193
222.284
222.376
222.467
222.559
222.651
222.742
222.834
222.926
223.017
223.109
223.2
223.292
223.384
223.475
223.567
223.658
223.75
223.842
223.933
224.025
224.116
224.208
224.299
224.391
224.483
224.574
224.666
224.757
224.849
224.94
225.032
225.123
225.215
225.307
225.398
225.49
225.581
225.673
225.764
225.856
225.947
226.039
226.13
226.222
226.313
226.405
226.496
226.588
226.679
226.771
226.862
226.954
227.045
227.137
227.228
227.32
227.411
227.503
227.594
227.686
227.777
227.869
227.96
228.051
228.143
228.234
228.326
228.417
228.509
228.6
228.691
228.783
228.874
228.966
229.057
229.149
229.24
229.331
229.423
229.514
229.606
229.697
229.788
229.88
229.971
230.063
230.154
230.245
230.337
230.428
230.519
230.611
230.702
230.794
230.885
230.976
231.068
231.159
231.25
231.342
231.433
231.524
231.616
231.707
231.798
231.89
231.981
232.072
232.164
232.255
232.346
232.437
232.529
232.62
232.711
232.803
232.894
232.985
233.076
233.168
233.259
233.35
233.442
233.533
233.624
233.715
233.807
233.898
233.989
234.08
234.172
234.263
234.354
234.445
234.537
234.628
234.719
234.81
234.901
234.993
235.084
235.175
235.266
235.358
235.449
235.54
235.631
235.722
235.813
235.905
235.996
236.087
236.178
236.269
236.361
236.452
236.543
236.634
236.725
236.816
236.907
236.999
237.09
237.181
237.272
237.363
237.454
237.545
237.637
237.728
237.819
237.91
238.001
238.092
238.183
238.274
238.365
238.457
238.548
238.639
238.73
238.821
238.912
239.003
239.094
239.185
239.276
239.367
239.458
239.549
239.641
239.732
239.823
239.914
240.005
240.096
240.187
240.278
240.369
240.46
240.551
240.642
240.733
240.824
240.915
241.006
241.097
241.188
241.279
241.37
241.461
241.552
241.643
241.734
241.825
241.916
242.007
242.098
242.189
242.28
242.371
242.462
242.553
242.644
242.734
242.825
242.916
243.007
243.098
243.189
243.28
243.371
243.462
243.553
243.644
243.735
243.826
243.916
244.007
244.098
244.189
244.28
244.371
244.462
244.553
244.644
244.734
244.825
244.916
245.007
245.098
245.189
245.28
245.37
245.461
245.552
245.643
245.734
245.825
245.915
246.006
246.097
246.188
246.279
246.37
246.46
246.551
246.642
246.733
246.824
246.914
247.005
247.096
247.187
247.278
247.368
247.459
247.55
247.641
247.731
247.822
247.913
248.004
248.094
248.185
248.276
248.367
248.457
248.548
248.639
248.73
248.82
248.911
249.002
249.093
249.183
249.274
249.365
249.455
249.546
249.637
249.727
249.818
249.909
249.999
250.09
250.181
250.271
250.362
250.453
250.543
250.634
250.725
250.815
250.906
250.997
251.087
251.178
251.269
251.359
251.45
251.541
251.631
251.722
251.812
251.903
251.994
252.084
252.175
252.265
252.356
252.447
252.537
252.628
252.718
252.809
252.9
252.99
253.081
253.171
253.262
253.352
253.443
253.533
253.624
253.715
253.805
253.896
253.986
254.077
254.167
254.258
254.348
254.439
254.529
254.62
254.71
254.801
254.891
254.982
255.072
255.163
255.253
255.344
255.434
255.525
255.615
255.706
255.796
255.887
255.977
256.067
256.158
256.248
256.339
256.429
256.52
256.61
256.701
256.791
256.881
256.972
257.062
257.153
257.243
257.333
257.424
257.514
257.605
257.695
257.785
257.876
257.966
258.057
258.147
258.237
258.328
258.418
258.508
258.599
258.689
258.78
258.87
258.96
259.051
259.141
259.231
259.322
259.412
259.502
259.593
259.683
259.773
259.863
259.954
260.044
260.134
260.225
260.315
260.405
260.496
260.586
260.676
260.766
260.857
260.947
261.037
261.127
261.218
261.308
261.398
261.488
261.579
261.669
261.759
261.849
261.94
262.03
262.12
262.21
262.3
262.391
262.481
262.571
262.661
262.752
262.842
262.932
263.022
263.112
263.202
263.293
263.383
263.473
263.563
263.653
263.743
263.834
263.924
264.014
264.104
264.194
264.284
264.374
264.465
264.555
264.645
264.735
264.825
264.915
265.005
265.095
265.185
265.276
265.366
265.456
265.546
265.636
265.726
265.816
265.906
265.996
266.086
266.176
266.266
266.356
266.447
266.537
266.627
266.717
266.807
266.897
266.987
267.077
267.167
267.257
267.347
267.437
267.527
267.617
267.707
267.797
267.887
267.977
268.067
268.157
268.247
268.337
268.427
268.517
268.607
268.697
268.787
268.877
268.967
269.056
269.146
269.236
269.326
269.416
269.506
269.596
269.686
269.776
269.866
269.956
270.046
270.136
270.225
270.315
270.405
270.495
270.585
270.675
270.765
270.855
270.944
271.034
271.124
271.214
271.304
271.394
271.484
271.573
271.663
271.753
271.843
271.933
272.023
272.112
272.202
272.292
272.382
272.472
272.562
272.651
272.741
272.831
272.921
273.011
273.1
273.19
273.28
273.37
273.459
273.549
273.639
273.729
273.818
273.908
273.998
274.088
274.177
274.267
274.357
274.447
274.536
274.626
274.716
274.805
274.895
274.985
275.075
275.164
275.254
275.344
275.433
275.523
275.613
275.702
275.792
275.882
275.971
276.061
276.151
276.24
276.33
276.42
276.509
276.599
276.689
276.778
276.868
276.957
277.047
277.137
277.226
277.316
277.405
277.495
277.585
277.674
277.764
277.853
277.943
278.033
278.122
278.212
278.301
278.391
278.48
278.57
278.66
278.749
278.839
278.928
279.018
279.107
279.197
279.286
279.376
279.465
279.555
279.644
279.734
279.823
279.913
280.002
280.092
280.181
280.271
280.36
280.45
280.539
280.629
280.718
280.808
280.897
280.987
281.076
281.165
281.255
281.344
281.434
281.523
281.613
281.702
281.791
281.881
281.97
282.06
282.149
282.238
282.328
282.417
282.507
282.596
282.685
282.775
282.864
282.954
283.043
283.132
283.222
283.311
283.4
283.49
283.579
283.668
283.758
283.847
283.936
284.026
284.115
284.204
284.294
284.383
284.472
284.562
284.651
284.74
284.829
284.919
285.008
285.097
285.187
285.276
285.365
285.454
285.544
285.633
285.722
285.811
285.901
285.99
286.079
286.168
286.258
286.347
286.436
286.525
286.614
286.704
286.793
286.882
286.971
287.06
287.15
287.239
287.328
287.417
287.506
287.595
287.685
287.774
287.863
287.952
288.041
288.13
288.22
288.309
288.398
288.487
288.576
288.665
288.754
288.843
288.932
289.022
289.111
289.2
289.289
289.378
289.467
289.556
289.645
289.734
289.823
289.912
290.001
290.091
290.18
290.269
290.358
290.447
290.536
290.625
290.714
290.803
290.892
290.981
291.07
291.159
291.248
291.337
291.426
291.515
291.604
291.693
291.782
291.871
291.96
292.049
292.138
292.227
292.316
292.405
292.494
292.583
292.672
292.76
292.849
292.938
293.027
293.116
293.205
293.294
293.383
293.472
293.561
293.65
293.739
293.827
293.916
294.005
294.094
294.183
294.272
294.361
294.45
294.538
294.627
294.716
294.805
294.894
294.983
295.071
295.16
295.249
295.338
295.427
295.516
295.604
295.693
295.782
295.871
295.96
296.048
296.137
296.226
296.315
296.404
296.492
296.581
296.67
296.759
296.847
296.936
297.025
297.114
297.202
297.291
297.38
297.468
297.557
297.646
297.735
297.823
297.912
298.001
298.089
298.178
298.267
298.356
298.444
298.533
298.622
298.71
298.799
298.888
298.976
299.065
299.154
299.242
299.331
299.419
299.508
299.597
299.685
299.774
299.863
299.951
300.04
300.128
300.217
300.306
300.394
300.483
300.571
300.66
300.748
300.837
300.926
301.014
301.103
301.191
301.28
301.368
301.457
301.545
301.634
301.723
301.811
301.9
301.988
302.077
302.165
302.254
302.342
302.431
302.519
302.608
302.696
302.785
302.873
302.962
303.05
303.138
303.227
303.315
303.404
303.492
303.581
303.669
303.758
303.846
303.934
304.023
304.111
304.2
304.288
304.376
304.465
304.553
304.642
304.73
304.818
304.907
304.995
305.084
305.172
305.26
305.349
305.437
305.525
305.614
305.702
305.79
305.879
305.967
306.055
306.144
306.232
306.32
306.409
306.497
306.585
306.674
306.762
306.85
306.938
307.027
307.115
307.203
307.292
307.38
307.468
307.556
307.645
307.733
307.821
307.909
307.997
308.086
308.174
308.262
308.35
308.439
308.527
308.615
308.703
308.791
308.88
308.968
309.056
309.144
309.232
309.32
309.409
309.497
309.585
309.673
309.761
309.849
309.938
310.026
310.114
310.202
310.29
310.378
310.466
310.554
310.643
310.731
310.819
310.907
310.995
311.083
311.171
311.259
311.347
311.435
311.523
311.611
311.699
311.787
311.876
311.964
312.052
312.14
312.228
312.316
312.404
312.492
312.58
312.668
312.756
312.844
312.932
313.02
313.108
313.196
313.284
313.372
313.46
313.548
313.636
313.723
313.811
313.899
313.987
314.075
314.163
314.251
314.339
314.427
314.515
314.603
314.691
314.779
314.866
314.954
315.042
315.13
315.218
315.306
315.394
315.482
315.57
315.657
315.745
315.833
315.921
316.009
316.097
316.184
316.272
316.36
316.448
316.536
316.624
316.711
316.799
316.887
316.975
317.063
317.15
317.238
317.326
317.414
317.501
317.589
317.677
317.765
317.852
317.94
318.028
318.116
318.203
318.291
318.379
318.467
318.554
318.642
318.73
318.817
318.905
318.993
319.08
319.168
319.256
319.343
319.431
319.519
319.606
319.694
319.782
319.869
319.957
320.045
320.132
320.22
320.308
320.395
320.483
320.57
320.658
320.746
320.833
320.921
321.008
321.096
321.184
321.271
321.359
321.446
321.534
321.621
321.709
321.797
321.884
321.972
322.059
322.147
322.234
322.322
322.409
322.497
322.584
322.672
322.759
322.847
322.934
323.022
323.109
323.197
323.284
323.372
323.459
323.547
323.634
323.722
323.809
323.896
323.984
324.071
324.159
324.246
324.334
324.421
324.508
324.596
324.683
324.771
324.858
324.945
325.033
325.12
325.208
325.295
325.382
325.47
325.557
325.644
325.732
325.819
325.906
325.994
326.081
326.168
326.256
326.343
326.43
326.518
326.605
326.692
326.779
326.867
326.954
327.041
327.129
327.216
327.303
327.39
327.478
327.565
327.652
327.739
327.827
327.914
328.001
328.088
328.176
328.263
328.35
328.437
328.524
328.612
328.699
328.786
328.873
328.96
329.047
329.135
329.222
329.309
329.396
329.483
329.57
329.658
329.745
329.832
329.919
330.006
330.093
330.18
330.267
330.354
330.442
330.529
330.616
330.703
330.79
330.877
330.964
331.051
331.138
331.225
331.312
331.399
331.486
331.573
331.66
331.748
331.835
331.922
332.009
332.096
332.183
332.27
332.357
332.444
332.531
332.618
332.705
332.791
332.878
332.965
333.052
333.139
333.226
333.313
333.4
333.487
333.574
333.661
333.748
333.835
333.922
334.009
334.096
334.182
334.269
334.356
334.443
334.53
334.617
334.704
334.791
334.877
334.964
335.051
335.138
335.225
335.312
335.398
335.485
335.572
335.659
335.746
335.833
335.919
336.006
336.093
336.18
336.267
336.353
336.44
336.527
336.614
336.7
336.787
336.874
336.961
337.047
337.134
337.221
337.308
337.394
337.481
337.568
337.654
337.741
337.828
337.915
338.001
338.088
338.175
338.261
338.348
338.435
338.521
338.608
338.695
338.781
338.868
338.954
339.041
339.128
339.214
339.301
339.388
339.474
339.561
339.647
339.734
339.821
339.907
339.994
340.08
340.167
340.253
340.34
340.427
340.513
340.6
340.686
340.773
340.859
340.946
341.032
341.119
341.205
341.292
341.378
341.465
341.551
341.638
341.724
341.811
341.897
341.984
342.07
342.157
342.243
342.329
342.416
342.502
342.589
342.675
342.762
342.848
342.934
343.021
343.107
343.194
343.28
343.366
343.453
343.539
343.626
343.712
343.798
343.885
343.971
344.057
344.144
344.23
344.316
344.403
344.489
344.575
344.662
344.748
344.834
344.921
345.007
345.093
345.179
345.266
345.352
345.438
345.525
345.611
345.697
345.783
345.87
345.956
346.042
346.128
346.214
346.301
346.387
346.473
346.559
346.646
346.732
346.818
346.904
346.99
347.076
347.163
347.249
347.335
347.421