/*--------------------------------*- C++ -*----------------------------------*\
  =========                 |
  \\      /  F ield         | OpenFOAM: The Open Source CFD Toolbox
   \\    /   O peration     | Website:  https://openfoam.org
    \\  /    A nd           | Version:  9
     \\/     M anipulation  |
\*---------------------------------------------------------------------------*/
FoamFile
{
    format      ascii;
    class       volScalarField;
    location    "0.024";
    object      T;
}
// * * * * * * * * * * * * * * * * * * * * * * * * * * * * * * * * * * * * * //

dimensions      [0 0 0 1 0 0 0];

internalField   nonuniform List<scalar> 
10000
(
243.947
243.95
243.956
243.962
243.968
243.974
243.979
243.985
243.991
243.998
244.003
244.008
244.013
244.018
244.024
244.03
244.037
244.043
244.049
244.055
244.059
244.063
244.065
244.067
244.068
244.069
244.069
244.069
244.069
244.069
244.069
244.068
244.068
244.068
244.067
244.067
244.066
244.066
244.065
244.065
244.065
244.064
244.064
244.063
244.063
244.062
244.062
244.062
244.061
244.061
244.06
244.06
244.06
244.059
244.059
244.058
244.058
244.057
244.057
244.057
244.056
244.056
244.055
244.055
244.054
244.054
244.054
244.053
244.053
244.052
244.052
244.051
244.051
244.051
244.05
244.05
244.049
244.049
244.048
244.048
244.048
244.047
244.047
244.046
244.046
244.045
244.045
244.045
244.044
244.044
244.043
244.043
244.042
244.042
244.042
244.041
244.041
244.04
244.04
244.039
244.039
244.038
244.038
244.038
244.037
244.037
244.036
244.036
244.035
244.035
244.035
244.034
244.034
244.033
244.033
244.032
244.032
244.031
244.031
244.031
244.03
244.03
244.029
244.029
244.028
244.028
244.027
244.027
244.027
244.026
244.026
244.025
244.025
244.024
244.024
244.023
244.023
244.022
244.022
244.022
244.021
244.021
244.02
244.02
244.019
244.019
244.018
244.018
244.017
244.017
244.017
244.016
244.016
244.015
244.015
244.014
244.014
244.013
244.013
244.012
244.012
244.012
244.011
244.011
244.01
244.01
244.009
244.009
244.008
244.008
244.007
244.007
244.006
244.006
244.006
244.005
244.005
244.004
244.004
244.003
244.003
244.002
244.002
244.001
244.001
244
244
243.999
243.999
243.999
243.998
243.998
243.997
243.997
243.996
243.996
243.995
243.995
243.994
243.994
243.993
243.993
243.992
243.992
243.991
243.991
243.99
243.99
243.99
243.989
243.989
243.988
243.988
243.987
243.987
243.986
243.986
243.985
243.985
243.984
243.984
243.983
243.983
243.982
243.982
243.981
243.981
243.98
243.98
243.979
243.979
243.978
243.978
243.978
243.977
243.977
243.976
243.976
243.975
243.975
243.974
243.974
243.973
243.973
243.972
243.972
243.971
243.971
243.97
243.97
243.969
243.969
243.968
243.968
243.967
243.967
243.966
243.966
243.965
243.965
243.964
243.964
243.963
243.963
243.962
243.962
243.961
243.961
243.96
243.96
243.959
243.959
243.958
243.958
243.957
243.957
243.956
243.956
243.955
243.955
243.954
243.954
243.953
243.953
243.952
243.952
243.951
243.951
243.95
243.95
243.949
243.949
243.948
243.948
243.947
243.947
243.946
243.946
243.945
243.945
243.944
243.944
243.943
243.943
243.942
243.942
243.941
243.941
243.94
243.94
243.939
243.939
243.938
243.938
243.937
243.937
243.936
243.936
243.935
243.934
243.934
243.933
243.933
243.932
243.932
243.931
243.931
243.93
243.93
243.929
243.929
243.928
243.928
243.927
243.927
243.926
243.926
243.925
243.925
243.924
243.924
243.923
243.923
243.922
243.921
243.921
243.92
243.92
243.919
243.919
243.918
243.918
243.917
243.917
243.916
243.916
243.915
243.915
243.914
243.914
243.913
243.912
243.912
243.911
243.911
243.91
243.91
243.909
243.909
243.908
243.908
243.907
243.907
243.906
243.906
243.905
243.904
243.904
243.903
243.903
243.902
243.902
243.901
243.901
243.9
243.9
243.899
243.899
243.898
243.897
243.897
243.896
243.896
243.895
243.895
243.894
243.894
243.893
243.893
243.892
243.891
243.891
243.89
243.89
243.889
243.889
243.888
243.888
243.887
243.887
243.886
243.885
243.885
243.884
243.884
243.883
243.883
243.882
243.882
243.881
243.881
243.88
243.879
243.879
243.878
243.878
243.877
243.877
243.876
243.876
243.875
243.874
243.874
243.873
243.873
243.872
243.872
243.871
243.871
243.87
243.869
243.869
243.868
243.868
243.867
243.867
243.866
243.865
243.865
243.864
243.864
243.863
243.863
243.862
243.862
243.861
243.86
243.86
243.859
243.859
243.858
243.858
243.857
243.856
243.856
243.855
243.855
243.854
243.854
243.853
243.852
243.852
243.851
243.851
243.85
243.85
243.849
243.848
243.848
243.847
243.847
243.846
243.846
243.845
243.844
243.844
243.843
243.843
243.842
243.842
243.841
243.84
243.84
243.839
243.839
243.838
243.837
243.837
243.836
243.836
243.835
243.835
243.834
243.833
243.833
243.832
243.832
243.831
243.83
243.83
243.829
243.829
243.828
243.828
243.827
243.826
243.826
243.825
243.825
243.824
243.823
243.823
243.822
243.822
243.821
243.821
243.82
243.819
243.819
243.818
243.818
243.817
243.816
243.816
243.815
243.815
243.814
243.813
243.813
243.812
243.812
243.811
243.81
243.81
243.809
243.809
243.808
243.807
243.807
243.806
243.806
243.805
243.804
243.804
243.803
243.803
243.802
243.801
243.801
243.8
243.8
243.799
243.798
243.798
243.797
243.797
243.796
243.795
243.795
243.794
243.794
243.793
243.792
243.792
243.791
243.791
243.79
243.789
243.789
243.788
243.787
243.787
243.786
243.786
243.785
243.784
243.784
243.783
243.783
243.782
243.781
243.781
243.78
243.78
243.779
243.778
243.778
243.777
243.776
243.776
243.775
243.775
243.774
243.773
243.773
243.772
243.771
243.771
243.77
243.77
243.769
243.768
243.768
243.767
243.766
243.766
243.765
243.765
243.764
243.763
243.763
243.762
243.761
243.761
243.76
243.76
243.759
243.758
243.758
243.757
243.756
243.756
243.755
243.755
243.754
243.753
243.753
243.752
243.751
243.751
243.75
243.75
243.749
243.748
243.748
243.747
243.746
243.746
243.745
243.744
243.744
243.743
243.743
243.742
243.741
243.741
243.74
243.739
243.739
243.738
243.737
243.737
243.736
243.736
243.735
243.734
243.734
243.733
243.732
243.732
243.731
243.73
243.73
243.729
243.728
243.728
243.727
243.726
243.726
243.725
243.725
243.724
243.723
243.723
243.722
243.721
243.721
243.72
243.719
243.719
243.718
243.717
243.717
243.716
243.715
243.715
243.714
243.713
243.713
243.712
243.712
243.711
243.71
243.71
243.709
243.708
243.708
243.707
243.706
243.706
243.705
243.704
243.704
243.703
243.702
243.702
243.701
243.7
243.7
243.699
243.698
243.698
243.697
243.696
243.696
243.695
243.694
243.694
243.693
243.692
243.692
243.691
243.69
243.69
243.689
243.688
243.688
243.687
243.686
243.686
243.685
243.684
243.684
243.683
243.682
243.682
243.681
243.68
243.68
243.679
243.678
243.678
243.677
243.676
243.676
243.675
243.674
243.674
243.673
243.672
243.672
243.671
243.67
243.67
243.669
243.668
243.667
243.667
243.666
243.665
243.665
243.664
243.663
243.663
243.662
243.661
243.661
243.66
243.659
243.659
243.658
243.657
243.657
243.656
243.655
243.654
243.654
243.653
243.652
243.652
243.651
243.65
243.65
243.649
243.648
243.648
243.647
243.646
243.646
243.645
243.644
243.643
243.643
243.642
243.641
243.641
243.64
243.639
243.639
243.638
243.637
243.637
243.636
243.635
243.634
243.634
243.633
243.632
243.632
243.631
243.63
243.63
243.629
243.628
243.627
243.627
243.626
243.625
243.625
243.624
243.623
243.622
243.622
243.621
243.62
243.62
243.619
243.618
243.618
243.617
243.616
243.615
243.615
243.614
243.613
243.613
243.612
243.611
243.61
243.61
243.609
243.608
243.608
243.607
243.606
243.605
243.605
243.604
243.603
243.603
243.602
243.601
243.6
243.6
243.599
243.598
243.598
243.597
243.596
243.595
243.595
243.594
243.593
243.593
243.592
243.591
243.59
243.59
243.589
243.588
243.588
243.587
243.586
243.585
243.585
243.584
243.583
243.582
243.582
243.581
243.58
243.58
243.579
243.578
243.577
243.577
243.576
243.575
243.574
243.574
243.573
243.572
243.572
243.571
243.57
243.569
243.569
243.568
243.567
243.566
243.566
243.565
243.564
243.563
243.563
243.562
243.561
243.561
243.56
243.559
243.558
243.558
243.557
243.556
243.555
243.555
243.554
243.553
243.552
243.552
243.551
243.55
243.549
243.549
243.548
243.547
243.546
243.546
243.545
243.544
243.544
243.543
243.542
243.541
243.541
243.54
243.539
243.538
243.538
243.537
243.536
243.535
243.535
243.534
243.533
243.532
243.532
243.531
243.53
243.529
243.529
243.528
243.527
243.526
243.526
243.525
243.524
243.523
243.522
243.522
243.521
243.52
243.519
243.519
243.518
243.517
243.516
243.516
243.515
243.514
243.513
243.513
243.512
243.511
243.51
243.51
243.509
243.508
243.507
243.507
243.506
243.505
243.504
243.503
243.503
243.502
243.501
243.5
243.5
243.499
243.498
243.497
243.497
243.496
243.495
243.494
243.493
243.493
243.492
243.491
243.49
243.49
243.489
243.488
243.487
243.487
243.486
243.485
243.484
243.483
243.483
243.482
243.481
243.48
243.48
243.479
243.478
243.477
243.476
243.476
243.475
243.474
243.473
243.473
243.472
243.471
243.47
243.469
243.469
243.468
243.467
243.466
243.466
243.465
243.464
243.463
243.462
243.462
243.461
243.46
243.459
243.458
243.458
243.457
243.456
243.455
243.455
243.454
243.453
243.452
243.451
243.451
243.45
243.449
243.448
243.447
243.447
243.446
243.445
243.444
243.443
243.443
243.442
243.441
243.44
243.439
243.439
243.438
243.437
243.436
243.435
243.435
243.434
243.433
243.432
243.431
243.431
243.43
243.429
243.428
243.427
243.427
243.426
243.425
243.424
243.423
243.423
243.422
243.421
243.42
243.419
243.419
243.418
243.417
243.416
243.415
243.415
243.414
243.413
243.412
243.411
243.411
243.41
243.409
243.408
243.407
243.406
243.406
243.405
243.404
243.403
243.402
243.402
243.401
243.4
243.399
243.398
243.397
243.397
243.396
243.395
243.394
243.393
243.393
243.392
243.391
243.39
243.389
243.388
243.388
243.387
243.386
243.385
243.384
243.384
243.383
243.382
243.381
243.38
243.379
243.379
243.378
243.377
243.376
243.375
243.374
243.374
243.373
243.372
243.371
243.37
243.369
243.369
243.368
243.367
243.366
243.365
243.365
243.364
243.363
243.362
243.361
243.36
243.36
243.359
243.358
243.357
243.356
243.355
243.354
243.354
243.353
243.352
243.351
243.35
243.349
243.349
243.348
243.347
243.346
243.345
243.344
243.344
243.343
243.342
243.341
243.34
243.339
243.339
243.338
243.337
243.336
243.335
243.334
243.333
243.333
243.332
243.331
243.33
243.329
243.328
243.328
243.327
243.326
243.325
243.324
243.323
243.322
243.322
243.321
243.32
243.319
243.318
243.317
243.316
243.316
243.315
243.314
243.313
243.312
243.311
243.31
243.31
243.309
243.308
243.307
243.306
243.305
243.305
243.303
243.303
243.302
243.301
243.3
243.299
243.298
243.298
243.297
243.296
243.295
243.294
243.293
243.293
243.291
243.291
243.29
243.289
243.288
243.287
243.286
243.286
243.284
243.284
243.283
243.282
243.281
243.28
243.279
243.279
243.277
243.277
243.276
243.275
243.274
243.273
243.272
243.272
243.27
243.27
243.269
243.268
243.267
243.266
243.265
243.265
243.263
243.263
243.262
243.261
243.26
243.259
243.258
243.258
243.256
243.256
243.255
243.254
243.253
243.252
243.251
243.25
243.25
243.249
243.248
243.247
243.246
243.245
243.244
243.243
243.242
243.242
243.241
243.24
243.239
243.238
243.237
243.236
243.235
243.234
243.234
243.233
243.232
243.231
243.23
243.229
243.228
243.227
243.226
243.225
243.225
243.224
243.223
243.222
243.221
243.22
243.219
243.218
243.217
243.217
243.216
243.215
243.214
243.213
243.212
243.211
243.21
243.209
243.208
243.208
243.207
243.206
243.205
243.204
243.203
243.202
243.201
243.2
243.199
243.198
243.198
243.197
243.196
243.195
243.194
243.193
243.192
243.191
243.19
243.189
243.188
243.188
243.187
243.186
243.185
243.184
243.183
243.182
243.181
243.18
243.179
243.178
243.178
243.177
243.176
243.175
243.174
243.173
243.172
243.171
243.17
243.169
243.168
243.167
243.166
243.166
243.165
243.164
243.163
243.162
243.161
243.16
243.159
243.158
243.157
243.156
243.155
243.154
243.154
243.153
243.152
243.151
243.15
243.149
243.148
243.147
243.146
243.145
243.144
243.143
243.142
243.141
243.141
243.14
243.139
243.138
243.137
243.136
243.135
243.134
243.133
243.132
243.131
243.13
243.129
243.128
243.127
243.127
243.126
243.125
243.124
243.123
243.122
243.121
243.12
243.119
243.118
243.117
243.116
243.115
243.114
243.113
243.112
243.112
243.111
243.11
243.109
243.108
243.107
243.106
243.105
243.104
243.103
243.102
243.101
243.1
243.099
243.098
243.097
243.096
243.095
243.094
243.094
243.093
243.092
243.091
243.09
243.089
243.088
243.087
243.086
243.085
243.084
243.083
243.082
243.081
243.08
243.079
243.078
243.077
243.076
243.075
243.074
243.073
243.072
243.072
243.071
243.07
243.069
243.068
243.067
243.066
243.065
243.064
243.063
243.062
243.061
243.06
243.059
243.058
243.057
243.056
243.055
243.054
243.053
243.052
243.051
243.05
243.049
243.048
243.047
243.046
243.045
243.044
243.044
243.043
243.042
243.041
243.04
243.039
243.038
243.037
243.036
243.035
243.034
243.033
243.032
243.031
243.03
243.029
243.028
243.027
243.026
243.025
243.024
243.023
243.022
243.021
243.02
243.019
243.018
243.017
243.016
243.015
243.014
243.013
243.012
243.011
243.01
243.009
243.008
243.007
243.006
243.005
243.004
243.003
243.002
243.001
243
242.999
242.998
242.997
242.996
242.995
242.994
242.993
242.992
242.991
242.99
242.989
242.988
242.987
242.986
242.985
242.984
242.983
242.982
242.981
242.981
242.98
242.979
242.978
242.977
242.976
242.975
242.974
242.973
242.972
242.971
242.97
242.969
242.968
242.967
242.965
242.964
242.963
242.962
242.961
242.96
242.959
242.958
242.957
242.956
242.955
242.954
242.953
242.952
242.951
242.95
242.949
242.948
242.947
242.946
242.945
242.944
242.943
242.942
242.941
242.94
242.939
242.938
242.937
242.936
242.935
242.934
242.933
242.932
242.931
242.93
242.929
242.928
242.927
242.926
242.925
242.924
242.923
242.922
242.921
242.92
242.919
242.918
242.917
242.916
242.915
242.914
242.913
242.912
242.911
242.91
242.909
242.908
242.907
242.906
242.905
242.904
242.903
242.902
242.9
242.899
242.898
242.897
242.896
242.895
242.894
242.893
242.892
242.891
242.89
242.889
242.888
242.887
242.886
242.885
242.884
242.883
242.882
242.881
242.88
242.879
242.878
242.877
242.876
242.875
242.874
242.873
242.872
242.87
242.869
242.868
242.867
242.866
242.865
242.864
242.863
242.862
242.861
242.86
242.859
242.858
242.857
242.856
242.855
242.854
242.853
242.852
242.851
242.85
242.849
242.847
242.846
242.845
242.844
242.843
242.842
242.841
242.84
242.839
242.838
242.837
242.836
242.835
242.834
242.833
242.832
242.831
242.83
242.829
242.827
242.826
242.825
242.824
242.823
242.822
242.821
242.82
242.819
242.818
242.817
242.816
242.815
242.814
242.813
242.812
242.811
242.809
242.808
242.807
242.806
242.805
242.804
242.803
242.802
242.801
242.8
242.799
242.798
242.797
242.796
242.795
242.793
242.792
242.791
242.79
242.789
242.788
242.787
242.786
242.785
242.784
242.783
242.782
242.781
242.78
242.778
242.777
242.776
242.775
242.774
242.773
242.772
242.771
242.77
242.769
242.768
242.767
242.765
242.764
242.763
242.762
242.761
242.76
242.759
242.758
242.757
242.756
242.755
242.754
242.753
242.751
242.75
242.749
242.748
242.747
242.746
242.745
242.744
242.743
242.742
242.741
242.739
242.738
242.737
242.736
242.735
242.734
242.733
242.732
242.731
242.73
242.729
242.727
242.726
242.725
242.724
242.723
242.722
242.721
242.72
242.719
242.718
242.716
242.715
242.714
242.713
242.712
242.711
242.71
242.709
242.708
242.707
242.705
242.704
242.703
242.702
242.701
242.7
242.699
242.698
242.697
242.696
242.694
242.693
242.692
242.691
242.69
242.689
242.688
242.687
242.686
242.684
242.683
242.682
242.681
242.68
242.679
242.678
242.677
242.676
242.674
242.673
242.672
242.671
242.67
242.669
242.668
242.667
242.666
242.664
242.663
242.662
242.661
242.66
242.659
242.658
242.657
242.655
242.654
242.653
242.652
242.651
242.65
242.649
242.648
242.646
242.645
242.644
242.643
242.642
242.641
242.64
242.639
242.637
242.636
242.635
242.634
242.633
242.632
242.631
242.63
242.628
242.627
242.626
242.625
242.624
242.623
242.622
242.62
242.619
242.618
242.617
242.616
242.615
242.614
242.613
242.611
242.61
242.609
242.608
242.607
242.606
242.605
242.603
242.602
242.601
242.6
242.599
242.598
242.597
242.595
242.594
242.593
242.592
242.591
242.59
242.589
242.587
242.586
242.585
242.584
242.583
242.582
242.581
242.579
242.578
242.577
242.576
242.575
242.574
242.573
242.571
242.57
242.569
242.568
242.567
242.566
242.564
242.563
242.562
242.561
242.56
242.559
242.558
242.556
242.555
242.554
242.553
242.552
242.551
242.549
242.548
242.547
242.546
242.545
242.544
242.542
242.541
242.54
242.539
242.538
242.537
242.535
242.534
242.533
242.532
242.531
242.53
242.529
242.527
242.526
242.525
242.524
242.523
242.522
242.52
242.519
242.518
242.517
242.516
242.514
242.513
242.512
242.511
242.51
242.509
242.507
242.506
242.505
242.504
242.503
242.502
242.5
242.499
242.498
242.497
242.496
242.495
242.493
242.492
242.491
242.49
242.489
242.487
242.486
242.485
242.484
242.483
242.482
242.48
242.479
242.478
242.477
242.476
242.474
242.473
242.472
242.471
242.47
242.469
242.467
242.466
242.465
242.464
242.463
242.461
242.46
242.459
242.458
242.457
242.455
242.454
242.453
242.452
242.451
242.449
242.448
242.447
242.446
242.445
242.443
242.442
242.441
242.44
242.439
242.438
242.436
242.435
242.434
242.433
242.432
242.43
242.429
242.428
242.427
242.426
242.424
242.423
242.422
242.421
242.419
242.418
242.417
242.416
242.415
242.413
242.412
242.411
242.41
242.409
242.407
242.406
242.405
242.404
242.403
242.401
242.4
242.399
242.398
242.397
242.395
242.394
242.393
242.392
242.39
242.389
242.388
242.387
242.386
242.384
242.383
242.382
242.381
242.38
242.378
242.377
242.376
242.375
242.373
242.372
242.371
242.37
242.369
242.367
242.366
242.365
242.364
242.362
242.361
242.36
242.359
242.358
242.356
242.355
242.354
242.353
242.351
242.35
242.349
242.348
242.347
242.345
242.344
242.343
242.342
242.34
242.339
242.338
242.337
242.335
242.334
242.333
242.332
242.331
242.329
242.328
242.327
242.326
242.324
242.323
242.322
242.321
242.319
242.318
242.317
242.316
242.314
242.313
242.312
242.311
242.309
242.308
242.307
242.306
242.305
242.303
242.302
242.301
242.3
242.298
242.297
242.296
242.295
242.293
242.292
242.291
242.29
242.288
242.287
242.286
242.285
242.283
242.282
242.281
242.28
242.278
242.277
242.276
242.275
242.273
242.272
242.271
242.27
242.268
242.267
242.266
242.265
242.263
242.262
242.261
242.26
242.258
242.257
242.256
242.254
242.253
242.252
242.251
242.249
242.248
242.247
242.246
242.244
242.243
242.242
242.241
242.239
242.238
242.237
242.236
242.234
242.233
242.232
242.23
242.229
242.228
242.227
242.225
242.224
242.223
242.222
242.22
242.219
242.218
242.217
242.215
242.214
242.213
242.211
242.21
242.209
242.208
242.206
242.205
242.204
242.203
242.201
242.2
242.199
242.197
242.196
242.195
242.194
242.192
242.191
242.19
242.188
242.187
242.186
242.185
242.183
242.182
242.181
242.179
242.178
242.177
242.176
242.174
242.173
242.172
242.17
242.169
242.168
242.167
242.165
242.164
242.163
242.161
242.16
242.159
242.158
242.156
242.155
242.154
242.152
242.151
242.15
242.149
242.147
242.146
242.145
242.143
242.142
242.141
242.139
242.138
242.137
242.136
242.134
242.133
242.132
242.13
242.129
242.128
242.127
242.125
242.124
242.123
242.121
242.12
242.119
242.117
242.116
242.115
242.113
242.112
242.111
242.11
242.108
242.107
242.106
242.104
242.103
242.102
242.1
242.099
242.098
242.096
242.095
242.094
242.093
242.091
242.09
242.089
242.087
242.086
242.085
242.083
242.082
242.081
242.079
242.078
242.077
242.075
242.074
242.073
242.072
242.07
242.069
242.068
242.066
242.065
242.064
242.062
242.061
242.06
242.058
242.057
242.056
242.054
242.053
242.052
242.05
242.049
242.048
242.046
242.045
242.044
242.042
242.041
242.04
242.038
242.037
242.036
242.034
242.033
242.032
242.03
242.029
242.028
242.026
242.025
242.024
242.022
242.021
242.02
242.018
242.017
242.016
242.014
242.013
242.012
242.01
242.009
242.008
242.006
242.005
242.004
242.002
242.001
242
241.998
241.997
241.996
241.994
241.993
241.992
241.99
241.989
241.988
241.986
241.985
241.984
241.982
241.981
241.98
241.978
241.977
241.976
241.974
241.973
241.972
241.97
241.969
241.967
241.966
241.965
241.963
241.962
241.961
241.959
241.958
241.957
241.955
241.954
241.953
241.951
241.95
241.949
241.947
241.946
241.944
241.943
241.942
241.94
241.939
241.938
241.936
241.935
241.934
241.932
241.931
241.93
241.928
241.927
241.925
241.924
241.923
241.921
241.92
241.919
241.917
241.916
241.914
241.913
241.912
241.91
241.909
241.908
241.906
241.905
241.904
241.902
241.901
241.899
241.898
241.897
241.895
241.894
241.893
241.891
241.89
241.888
241.887
241.886
241.884
241.883
241.882
241.88
241.879
241.877
241.876
241.875
241.873
241.872
241.871
241.869
241.868
241.866
241.865
241.864
241.862
241.861
241.86
241.858
241.857
241.855
241.854
241.853
241.851
241.85
241.848
241.847
241.846
241.844
241.843
241.841
241.84
241.839
241.837
241.836
241.835
241.833
241.832
241.83
241.829
241.828
241.826
241.825
241.823
241.822
241.821
241.819
241.818
241.816
241.815
241.814
241.812
241.811
241.809
241.808
241.807
241.805
241.804
241.802
241.801
241.8
241.798
241.797
241.795
241.794
241.793
241.791
241.79
241.788
241.787
241.786
241.784
241.783
241.781
241.78
241.779
241.777
241.776
241.774
241.773
241.772
241.77
241.769
241.767
241.766
241.764
241.763
241.762
241.76
241.759
241.757
241.756
241.755
241.753
241.752
241.75
241.749
241.748
241.746
241.745
241.743
241.742
241.74
241.739
241.738
241.736
241.735
241.733
241.732
241.73
241.729
241.728
241.726
241.725
241.723
241.722
241.721
241.719
241.718
241.716
241.715
241.713
241.712
241.711
241.709
241.708
241.706
241.705
241.703
241.702
241.701
241.699
241.698
241.696
241.695
241.693
241.692
241.691
241.689
241.688
241.686
241.685
241.683
241.682
241.68
241.679
241.678
241.676
241.675
241.673
241.672
241.67
241.669
241.668
241.666
241.665
241.663
241.662
241.66
241.659
241.657
241.656
241.655
241.653
241.652
241.65
241.649
241.647
241.646
241.644
241.643
241.642
241.64
241.639
241.637
241.636
241.634
241.633
241.631
241.63
241.629
241.627
241.626
241.624
241.623
241.621
241.62
241.618
241.617
241.615
241.614
241.613
241.611
241.61
241.608
241.607
241.605
241.604
241.602
241.601
241.599
241.598
241.596
241.595
241.594
241.592
241.591
241.589
241.588
241.586
241.585
241.583
241.582
241.58
241.579
241.577
241.576
241.575
241.573
241.572
241.57
241.569
241.567
241.566
241.564
241.563
241.561
241.56
241.558
241.557
241.555
241.554
241.552
241.551
241.55
241.548
241.547
241.545
241.544
241.542
241.541
241.539
241.538
241.536
241.535
241.533
241.532
241.53
241.529
241.527
241.526
241.524
241.523
241.521
241.52
241.518
241.517
241.516
241.514
241.513
241.511
241.51
241.508
241.507
241.505
241.504
241.502
241.501
241.499
241.498
241.496
241.495
241.493
241.492
241.49
241.489
241.487
241.486
241.484
241.483
241.481
241.48
241.478
241.477
241.475
241.474
241.472
241.471
241.469
241.468
241.466
241.465
241.463
241.462
241.46
241.459
241.457
241.456
241.454
241.453
241.451
241.45
241.448
241.447
241.445
241.444
241.442
241.441
241.439
241.438
241.436
241.435
241.433
241.432
241.43
241.429
241.427
241.426
241.424
241.423
241.421
241.42
241.418
241.417
241.415
241.414
241.412
241.411
241.409
241.408
241.406
241.405
241.403
241.402
241.4
241.399
241.397
241.396
241.394
241.392
241.391
241.389
241.388
241.386
241.385
241.383
241.382
241.38
241.379
241.377
241.376
241.374
241.373
241.371
241.37
241.368
241.367
241.365
241.364
241.362
241.361
241.359
241.357
241.356
241.354
241.353
241.351
241.35
241.348
241.347
241.345
241.344
241.342
241.341
241.339
241.338
241.336
241.335
241.333
241.331
241.33
241.328
241.327
241.325
241.324
241.322
241.321
241.319
241.318
241.316
241.315
241.313
241.311
241.31
241.308
241.307
241.305
241.304
241.302
241.301
241.299
241.298
241.296
241.295
241.293
241.291
241.29
241.288
241.287
241.285
241.284
241.282
241.281
241.279
241.277
241.276
241.274
241.273
241.271
241.27
241.268
241.267
241.265
241.264
241.262
241.26
241.259
241.257
241.256
241.254
241.253
241.251
241.25
241.248
241.246
241.245
241.243
241.242
241.24
241.239
241.237
241.236
241.234
241.232
241.231
241.229
241.228
241.226
241.225
241.223
241.221
241.22
241.218
241.217
241.215
241.214
241.212
241.211
241.209
241.207
241.206
241.204
241.203
241.201
241.2
241.198
241.196
241.195
241.193
241.192
241.19
241.189
241.187
241.185
241.184
241.182
241.181
241.179
241.178
241.176
241.174
241.173
241.171
241.17
241.168
241.166
241.165
241.163
241.162
241.16
241.159
241.157
241.155
241.154
241.152
241.151
241.149
241.148
241.146
241.144
241.143
241.141
241.14
241.138
241.136
241.135
241.133
241.132
241.13
241.128
241.127
241.125
241.124
241.122
241.121
241.119
241.117
241.116
241.114
241.113
241.111
241.109
241.108
241.106
241.105
241.103
241.101
241.1
241.098
241.097
241.095
241.093
241.092
241.09
241.089
241.087
241.085
241.084
241.082
241.081
241.079
241.077
241.076
241.074
241.073
241.071
241.069
241.068
241.066
241.065
241.063
241.061
241.06
241.058
241.057
241.055
241.053
241.052
241.05
241.049
241.047
241.045
241.044
241.042
241.041
241.039
241.037
241.036
241.034
241.032
241.031
241.029
241.028
241.026
241.024
241.023
241.021
241.02
241.018
241.016
241.015
241.013
241.011
241.01
241.008
241.007
241.005
241.003
241.002
241
240.998
240.997
240.995
240.994
240.992
240.99
240.989
240.987
240.986
240.984
240.982
240.981
240.979
240.977
240.976
240.974
240.972
240.971
240.969
240.968
240.966
240.964
240.963
240.961
240.959
240.958
240.956
240.955
240.953
240.951
240.95
240.948
240.946
240.945
240.943
240.941
240.94
240.938
240.937
240.935
240.933
240.932
240.93
240.928
240.927
240.925
240.923
240.922
240.92
240.919
240.917
240.915
240.914
240.912
240.91
240.909
240.907
240.905
240.904
240.902
240.9
240.899
240.897
240.896
240.894
240.892
240.891
240.889
240.887
240.886
240.884
240.882
240.881
240.879
240.877
240.876
240.874
240.872
240.871
240.869
240.867
240.866
240.864
240.863
240.861
240.859
240.858
240.856
240.854
240.853
240.851
240.849
240.848
240.846
240.844
240.843
240.841
240.839
240.838
240.836
240.834
240.833
240.831
240.829
240.828
240.826
240.824
240.823
240.821
240.819
240.818
240.816
240.814
240.813
240.811
240.809
240.808
240.806
240.804
240.803
240.801
240.799
240.798
240.796
240.794
240.793
240.791
240.789
240.788
240.786
240.784
240.783
240.781
240.779
240.778
240.776
240.774
240.773
240.771
240.769
240.768
240.766
240.764
240.762
240.761
240.759
240.757
240.756
240.754
240.752
240.751
240.749
240.747
240.746
240.744
240.742
240.741
240.739
240.737
240.736
240.734
240.732
240.73
240.729
240.727
240.725
240.724
240.722
240.72
240.719
240.717
240.715
240.714
240.712
240.71
240.709
240.707
240.705
240.703
240.702
240.7
240.698
240.697
240.695
240.693
240.692
240.69
240.688
240.687
240.685
240.683
240.681
240.68
240.678
240.676
240.675
240.673
240.671
240.67
240.668
240.666
240.664
240.663
240.661
240.659
240.658
240.656
240.654
240.652
240.651
240.649
240.647
240.646
240.644
240.642
240.641
240.639
240.637
240.635
240.634
240.632
240.63
240.629
240.627
240.625
240.623
240.622
240.62
240.618
240.617
240.615
240.613
240.611
240.61
240.608
240.606
240.605
240.603
240.601
240.599
240.598
240.596
240.594
240.593
240.591
240.589
240.587
240.586
240.584
240.582
240.581
240.579
240.577
240.575
240.574
240.572
240.57
240.568
240.567
240.565
240.563
240.562
240.56
240.558
240.556
240.555
240.553
240.551
240.55
240.548
240.546
240.544
240.543
240.541
240.539
240.537
240.536
240.534
240.532
240.53
240.529
240.527
240.525
240.524
240.522
240.52
240.518
240.517
240.515
240.513
240.511
240.51
240.508
240.506
240.504
240.503
240.501
240.499
240.498
240.496
240.494
240.492
240.491
240.489
240.487
240.485
240.484
240.482
240.48
240.478
240.477
240.475
240.473
240.471
240.47
240.468
240.466
240.464
240.463
240.461
240.459
240.457
240.456
240.454
240.452
240.45
240.449
240.447
240.445
240.443
240.442
240.44
240.438
240.436
240.435
240.433
240.431
240.429
240.428
240.426
240.424
240.422
240.421
240.419
240.417
240.415
240.414
240.412
240.41
240.408
240.407
240.405
240.403
240.401
240.4
240.398
240.396
240.394
240.392
240.391
240.389
240.387
240.385
240.384
240.382
240.38
240.378
240.377
240.375
240.373
240.371
240.37
240.368
240.366
240.364
240.363
240.361
240.359
240.357
240.355
240.354
240.352
240.35
240.348
240.347
240.345
240.343
240.341
240.34
240.338
240.336
240.334
240.332
240.331
240.329
240.327
240.325
240.324
240.322
240.32
240.318
240.316
240.315
240.313
240.311
240.309
240.308
240.306
240.304
240.302
240.3
240.299
240.297
240.295
240.293
240.292
240.29
240.288
240.286
240.284
240.283
240.281
240.279
240.277
240.275
240.274
240.272
240.27
240.268
240.267
240.265
240.263
240.261
240.259
240.258
240.256
240.254
240.252
240.25
240.249
240.247
240.245
240.243
240.242
240.24
240.238
240.236
240.234
240.233
240.231
240.229
240.227
240.225
240.224
240.222
240.22
240.218
240.216
240.215
240.213
240.211
240.209
240.207
240.206
240.204
240.202
240.2
240.198
240.197
240.195
240.193
240.191
240.189
240.188
240.186
240.184
240.182
240.18
240.179
240.177
240.175
240.173
240.171
240.17
240.168
240.166
240.164
240.162
240.161
240.159
240.157
240.155
240.153
240.152
240.15
240.148
240.146
240.144
240.143
240.141
240.139
240.137
240.135
240.134
240.132
240.13
240.128
240.126
240.124
240.123
240.121
240.119
240.117
240.115
240.114
240.112
240.11
240.108
240.106
240.105
240.103
240.101
240.099
240.097
240.095
240.094
240.092
240.09
240.088
240.086
240.085
240.083
240.081
240.079
240.077
240.075
240.074
240.072
240.07
240.068
240.066
240.065
240.063
240.061
240.059
240.057
240.055
240.054
240.052
240.05
240.048
240.046
240.045
240.043
240.041
240.039
240.037
240.035
240.034
240.032
240.03
240.028
240.026
240.024
240.023
240.021
240.019
240.017
240.015
240.013
240.012
240.01
240.008
240.006
240.004
240.003
240.001
239.999
239.997
239.995
239.993
239.992
239.99
239.988
239.986
239.984
239.982
239.981
239.979
239.977
239.975
239.973
239.971
239.97
239.968
239.966
239.964
239.962
239.96
239.959
239.957
239.955
239.953
239.951
239.949
239.948
239.946
239.944
239.942
239.94
239.938
239.936
239.935
239.933
239.931