/*--------------------------------*- C++ -*----------------------------------*\
  =========                 |
  \\      /  F ield         | OpenFOAM: The Open Source CFD Toolbox
   \\    /   O peration     | Website:  https://openfoam.org
    \\  /    A nd           | Version:  9
     \\/     M anipulation  |
\*---------------------------------------------------------------------------*/
FoamFile
{
    format      ascii;
    class       volVectorField;
    location    "0.024";
    object      U;
}
// * * * * * * * * * * * * * * * * * * * * * * * * * * * * * * * * * * * * * //

dimensions      [0 1 -1 0 0 0 0];

internalField   nonuniform List<vector> 
10000
(
(2.87739 0 0)
(2.95724 0 0)
(3.02495 0 0)
(3.08212 0 0)
(3.13815 0 0)
(3.19562 0 0)
(3.25382 0 0)
(3.312 0 0)
(3.37003 0 0)
(3.42803 0 0)
(3.48603 0 0)
(3.54405 0 0)
(3.60205 0 0)
(3.66006 0 0)
(3.71806 0 0)
(3.77607 0 0)
(3.83408 0 0)
(3.8921 0 0)
(3.95013 0 0)
(4.00816 0 0)
(4.06619 0 0)
(4.12421 0 0)
(4.18224 0 0)
(4.24026 0 0)
(4.29828 0 0)
(4.35629 0 0)
(4.41431 0 0)
(4.47232 0 0)
(4.53034 0 0)
(4.58836 0 0)
(4.64637 0 0)
(4.70439 0 0)
(4.7624 0 0)
(4.82042 0 0)
(4.87844 0 0)
(4.93645 0 0)
(4.99447 0 0)
(5.05249 0 0)
(5.11051 0 0)
(5.16852 0 0)
(5.22654 0 0)
(5.28456 0 0)
(5.34258 0 0)
(5.4006 0 0)
(5.45862 0 0)
(5.51664 0 0)
(5.57466 0 0)
(5.63268 0 0)
(5.6907 0 0)
(5.74872 0 0)
(5.80674 0 0)
(5.86476 0 0)
(5.92279 0 0)
(5.98081 0 0)
(6.03883 0 0)
(6.09685 0 0)
(6.15488 0 0)
(6.2129 0 0)
(6.27093 0 0)
(6.32895 0 0)
(6.38698 0 0)
(6.445 0 0)
(6.50303 0 0)
(6.56105 0 0)
(6.61908 0 0)
(6.6771 0 0)
(6.73513 0 0)
(6.79316 0 0)
(6.85119 0 0)
(6.90921 0 0)
(6.96724 0 0)
(7.02527 0 0)
(7.0833 0 0)
(7.14133 0 0)
(7.19936 0 0)
(7.25739 0 0)
(7.31542 0 0)
(7.37345 0 0)
(7.43148 0 0)
(7.48951 0 0)
(7.54754 0 0)
(7.60557 0 0)
(7.6636 0 0)
(7.72164 0 0)
(7.77967 0 0)
(7.8377 0 0)
(7.89574 0 0)
(7.95377 0 0)
(8.0118 0 0)
(8.06984 0 0)
(8.12787 0 0)
(8.18591 0 0)
(8.24394 0 0)
(8.30198 0 0)
(8.36001 0 0)
(8.41805 0 0)
(8.47609 0 0)
(8.53412 0 0)
(8.59216 0 0)
(8.6502 0 0)
(8.70824 0 0)
(8.76627 0 0)
(8.82431 0 0)
(8.88235 0 0)
(8.94039 0 0)
(8.99843 0 0)
(9.05647 0 0)
(9.11451 0 0)
(9.17255 0 0)
(9.23059 0 0)
(9.28863 0 0)
(9.34667 0 0)
(9.40472 0 0)
(9.46276 0 0)
(9.5208 0 0)
(9.57884 0 0)
(9.63689 0 0)
(9.69493 0 0)
(9.75297 0 0)
(9.81102 0 0)
(9.86906 0 0)
(9.92711 0 0)
(9.98515 0 0)
(10.0432 0 0)
(10.1012 0 0)
(10.1593 0 0)
(10.2173 0 0)
(10.2754 0 0)
(10.3334 0 0)
(10.3915 0 0)
(10.4495 0 0)
(10.5076 0 0)
(10.5656 0 0)
(10.6237 0 0)
(10.6817 0 0)
(10.7398 0 0)
(10.7978 0 0)
(10.8559 0 0)
(10.9139 0 0)
(10.972 0 0)
(11.03 0 0)
(11.0881 0 0)
(11.1461 0 0)
(11.2042 0 0)
(11.2622 0 0)
(11.3203 0 0)
(11.3783 0 0)
(11.4364 0 0)
(11.4944 0 0)
(11.5525 0 0)
(11.6105 0 0)
(11.6686 0 0)
(11.7267 0 0)
(11.7847 0 0)
(11.8428 0 0)
(11.9008 0 0)
(11.9589 0 0)
(12.0169 0 0)
(12.075 0 0)
(12.1331 0 0)
(12.1911 0 0)
(12.2492 0 0)
(12.3072 0 0)
(12.3653 0 0)
(12.4233 0 0)
(12.4814 0 0)
(12.5395 0 0)
(12.5975 0 0)
(12.6556 0 0)
(12.7136 0 0)
(12.7717 0 0)
(12.8298 0 0)
(12.8878 0 0)
(12.9459 0 0)
(13.0039 0 0)
(13.062 0 0)
(13.1201 0 0)
(13.1781 0 0)
(13.2362 0 0)
(13.2943 0 0)
(13.3523 0 0)
(13.4104 0 0)
(13.4685 0 0)
(13.5265 0 0)
(13.5846 0 0)
(13.6427 0 0)
(13.7007 0 0)
(13.7588 0 0)
(13.8169 0 0)
(13.8749 0 0)
(13.933 0 0)
(13.9911 0 0)
(14.0491 0 0)
(14.1072 0 0)
(14.1653 0 0)
(14.2233 0 0)
(14.2814 0 0)
(14.3395 0 0)
(14.3975 0 0)
(14.4556 0 0)
(14.5137 0 0)
(14.5718 0 0)
(14.6298 0 0)
(14.6879 0 0)
(14.746 0 0)
(14.804 0 0)
(14.8621 0 0)
(14.9202 0 0)
(14.9783 0 0)
(15.0363 0 0)
(15.0944 0 0)
(15.1525 0 0)
(15.2106 0 0)
(15.2686 0 0)
(15.3267 0 0)
(15.3848 0 0)
(15.4429 0 0)
(15.5009 0 0)
(15.559 0 0)
(15.6171 0 0)
(15.6752 0 0)
(15.7332 0 0)
(15.7913 0 0)
(15.8494 0 0)
(15.9075 0 0)
(15.9656 0 0)
(16.0236 0 0)
(16.0817 0 0)
(16.1398 0 0)
(16.1979 0 0)
(16.256 0 0)
(16.314 0 0)
(16.3721 0 0)
(16.4302 0 0)
(16.4883 0 0)
(16.5464 0 0)
(16.6044 0 0)
(16.6625 0 0)
(16.7206 0 0)
(16.7787 0 0)
(16.8368 0 0)
(16.8949 0 0)
(16.9529 0 0)
(17.011 0 0)
(17.0691 0 0)
(17.1272 0 0)
(17.1853 0 0)
(17.2434 0 0)
(17.3015 0 0)
(17.3595 0 0)
(17.4176 0 0)
(17.4757 0 0)
(17.5338 0 0)
(17.5919 0 0)
(17.65 0 0)
(17.7081 0 0)
(17.7662 0 0)
(17.8243 0 0)
(17.8823 0 0)
(17.9404 0 0)
(17.9985 0 0)
(18.0566 0 0)
(18.1147 0 0)
(18.1728 0 0)
(18.2309 0 0)
(18.289 0 0)
(18.3471 0 0)
(18.4052 0 0)
(18.4633 0 0)
(18.5213 0 0)
(18.5794 0 0)
(18.6375 0 0)
(18.6956 0 0)
(18.7537 0 0)
(18.8118 0 0)
(18.8699 0 0)
(18.928 0 0)
(18.9861 0 0)
(19.0442 0 0)
(19.1023 0 0)
(19.1604 0 0)
(19.2185 0 0)
(19.2766 0 0)
(19.3347 0 0)
(19.3928 0 0)
(19.4509 0 0)
(19.509 0 0)
(19.5671 0 0)
(19.6252 0 0)
(19.6833 0 0)
(19.7414 0 0)
(19.7995 0 0)
(19.8576 0 0)
(19.9157 0 0)
(19.9738 0 0)
(20.0319 0 0)
(20.09 0 0)
(20.1481 0 0)
(20.2062 0 0)
(20.2643 0 0)
(20.3224 0 0)
(20.3805 0 0)
(20.4386 0 0)
(20.4967 0 0)
(20.5548 0 0)
(20.6129 0 0)
(20.671 0 0)
(20.7291 0 0)
(20.7872 0 0)
(20.8453 0 0)
(20.9035 0 0)
(20.9616 0 0)
(21.0197 0 0)
(21.0778 0 0)
(21.1359 0 0)
(21.194 0 0)
(21.2521 0 0)
(21.3102 0 0)
(21.3683 0 0)
(21.4264 0 0)
(21.4845 0 0)
(21.5427 0 0)
(21.6008 0 0)
(21.6589 0 0)
(21.717 0 0)
(21.7751 0 0)
(21.8332 0 0)
(21.8913 0 0)
(21.9494 0 0)
(22.0075 0 0)
(22.0657 0 0)
(22.1238 0 0)
(22.1819 0 0)
(22.24 0 0)
(22.2981 0 0)
(22.3562 0 0)
(22.4143 0 0)
(22.4725 0 0)
(22.5306 0 0)
(22.5887 0 0)
(22.6468 0 0)
(22.7049 0 0)
(22.763 0 0)
(22.8212 0 0)
(22.8793 0 0)
(22.9374 0 0)
(22.9955 0 0)
(23.0536 0 0)
(23.1118 0 0)
(23.1699 0 0)
(23.228 0 0)
(23.2861 0 0)
(23.3442 0 0)
(23.4024 0 0)
(23.4605 0 0)
(23.5186 0 0)
(23.5767 0 0)
(23.6348 0 0)
(23.693 0 0)
(23.7511 0 0)
(23.8092 0 0)
(23.8673 0 0)
(23.9255 0 0)
(23.9836 0 0)
(24.0417 0 0)
(24.0998 0 0)
(24.158 0 0)
(24.2161 0 0)
(24.2742 0 0)
(24.3323 0 0)
(24.3905 0 0)
(24.4486 0 0)
(24.5067 0 0)
(24.5648 0 0)
(24.623 0 0)
(24.6811 0 0)
(24.7392 0 0)
(24.7974 0 0)
(24.8555 0 0)
(24.9136 0 0)
(24.9717 0 0)
(25.0299 0 0)
(25.088 0 0)
(25.1461 0 0)
(25.2043 0 0)
(25.2624 0 0)
(25.3205 0 0)
(25.3787 0 0)
(25.4368 0 0)
(25.4949 0 0)
(25.5531 0 0)
(25.6112 0 0)
(25.6693 0 0)
(25.7275 0 0)
(25.7856 0 0)
(25.8437 0 0)
(25.9019 0 0)
(25.96 0 0)
(26.0181 0 0)
(26.0763 0 0)
(26.1344 0 0)
(26.1925 0 0)
(26.2507 0 0)
(26.3088 0 0)
(26.367 0 0)
(26.4251 0 0)
(26.4832 0 0)
(26.5414 0 0)
(26.5995 0 0)
(26.6576 0 0)
(26.7158 0 0)
(26.7739 0 0)
(26.8321 0 0)
(26.8902 0 0)
(26.9483 0 0)
(27.0065 0 0)
(27.0646 0 0)
(27.1228 0 0)
(27.1809 0 0)
(27.2391 0 0)
(27.2972 0 0)
(27.3553 0 0)
(27.4135 0 0)
(27.4716 0 0)
(27.5298 0 0)
(27.5879 0 0)
(27.6461 0 0)
(27.7042 0 0)
(27.7624 0 0)
(27.8205 0 0)
(27.8786 0 0)
(27.9368 0 0)
(27.9949 0 0)
(28.0531 0 0)
(28.1112 0 0)
(28.1694 0 0)
(28.2275 0 0)
(28.2857 0 0)
(28.3438 0 0)
(28.402 0 0)
(28.4601 0 0)
(28.5183 0 0)
(28.5764 0 0)
(28.6346 0 0)
(28.6927 0 0)
(28.7509 0 0)
(28.809 0 0)
(28.8672 0 0)
(28.9253 0 0)
(28.9835 0 0)
(29.0416 0 0)
(29.0998 0 0)
(29.1579 0 0)
(29.2161 0 0)
(29.2743 0 0)
(29.3324 0 0)
(29.3906 0 0)
(29.4487 0 0)
(29.5069 0 0)
(29.565 0 0)
(29.6232 0 0)
(29.6813 0 0)
(29.7395 0 0)
(29.7977 0 0)
(29.8558 0 0)
(29.914 0 0)
(29.9721 0 0)
(30.0303 0 0)
(30.0884 0 0)
(30.1466 0 0)
(30.2048 0 0)
(30.2629 0 0)
(30.3211 0 0)
(30.3792 0 0)
(30.4374 0 0)
(30.4956 0 0)
(30.5537 0 0)
(30.6119 0 0)
(30.67 0 0)
(30.7282 0 0)
(30.7864 0 0)
(30.8445 0 0)
(30.9027 0 0)
(30.9609 0 0)
(31.019 0 0)
(31.0772 0 0)
(31.1354 0 0)
(31.1935 0 0)
(31.2517 0 0)
(31.3099 0 0)
(31.368 0 0)
(31.4262 0 0)
(31.4843 0 0)
(31.5425 0 0)
(31.6007 0 0)
(31.6589 0 0)
(31.717 0 0)
(31.7752 0 0)
(31.8334 0 0)
(31.8915 0 0)
(31.9497 0 0)
(32.0079 0 0)
(32.066 0 0)
(32.1242 0 0)
(32.1824 0 0)
(32.2405 0 0)
(32.2987 0 0)
(32.3569 0 0)
(32.4151 0 0)
(32.4732 0 0)
(32.5314 0 0)
(32.5896 0 0)
(32.6477 0 0)
(32.7059 0 0)
(32.7641 0 0)
(32.8223 0 0)
(32.8804 0 0)
(32.9386 0 0)
(32.9968 0 0)
(33.055 0 0)
(33.1131 0 0)
(33.1713 0 0)
(33.2295 0 0)
(33.2877 0 0)
(33.3459 0 0)
(33.404 0 0)
(33.4622 0 0)
(33.5204 0 0)
(33.5786 0 0)
(33.6367 0 0)
(33.6949 0 0)
(33.7531 0 0)
(33.8113 0 0)
(33.8695 0 0)
(33.9276 0 0)
(33.9858 0 0)
(34.044 0 0)
(34.1022 0 0)
(34.1604 0 0)
(34.2185 0 0)
(34.2767 0 0)
(34.3349 0 0)
(34.3931 0 0)
(34.4513 0 0)
(34.5095 0 0)
(34.5676 0 0)
(34.6258 0 0)
(34.684 0 0)
(34.7422 0 0)
(34.8004 0 0)
(34.8586 0 0)
(34.9167 0 0)
(34.9749 0 0)
(35.0331 0 0)
(35.0913 0 0)
(35.1495 0 0)
(35.2077 0 0)
(35.2659 0 0)
(35.3241 0 0)
(35.3822 0 0)
(35.4404 0 0)
(35.4986 0 0)
(35.5568 0 0)
(35.615 0 0)
(35.6732 0 0)
(35.7314 0 0)
(35.7896 0 0)
(35.8478 0 0)
(35.906 0 0)
(35.9641 0 0)
(36.0223 0 0)
(36.0805 0 0)
(36.1387 0 0)
(36.1969 0 0)
(36.2551 0 0)
(36.3133 0 0)
(36.3715 0 0)
(36.4297 0 0)
(36.4879 0 0)
(36.5461 0 0)
(36.6043 0 0)
(36.6625 0 0)
(36.7207 0 0)
(36.7789 0 0)
(36.8371 0 0)
(36.8953 0 0)
(36.9535 0 0)
(37.0116 0 0)
(37.0698 0 0)
(37.128 0 0)
(37.1862 0 0)
(37.2444 0 0)
(37.3026 0 0)
(37.3608 0 0)
(37.419 0 0)
(37.4772 0 0)
(37.5354 0 0)
(37.5936 0 0)
(37.6518 0 0)
(37.71 0 0)
(37.7682 0 0)
(37.8264 0 0)
(37.8846 0 0)
(37.9429 0 0)
(38.0011 0 0)
(38.0593 0 0)
(38.1175 0 0)
(38.1757 0 0)
(38.2339 0 0)
(38.2921 0 0)
(38.3503 0 0)
(38.4085 0 0)
(38.4667 0 0)
(38.5249 0 0)
(38.5831 0 0)
(38.6413 0 0)
(38.6995 0 0)
(38.7577 0 0)
(38.8159 0 0)
(38.8741 0 0)
(38.9324 0 0)
(38.9906 0 0)
(39.0488 0 0)
(39.107 0 0)
(39.1652 0 0)
(39.2234 0 0)
(39.2816 0 0)
(39.3398 0 0)
(39.398 0 0)
(39.4562 0 0)
(39.5145 0 0)
(39.5727 0 0)
(39.6309 0 0)
(39.6891 0 0)
(39.7473 0 0)
(39.8055 0 0)
(39.8637 0 0)
(39.9219 0 0)
(39.9802 0 0)
(40.0384 0 0)
(40.0966 0 0)
(40.1548 0 0)
(40.213 0 0)
(40.2712 0 0)
(40.3294 0 0)
(40.3877 0 0)
(40.4459 0 0)
(40.5041 0 0)
(40.5623 0 0)
(40.6205 0 0)
(40.6788 0 0)
(40.737 0 0)
(40.7952 0 0)
(40.8534 0 0)
(40.9116 0 0)
(40.9698 0 0)
(41.0281 0 0)
(41.0863 0 0)
(41.1445 0 0)
(41.2027 0 0)
(41.2609 0 0)
(41.3192 0 0)
(41.3774 0 0)
(41.4356 0 0)
(41.4938 0 0)
(41.5521 0 0)
(41.6103 0 0)
(41.6685 0 0)
(41.7267 0 0)
(41.785 0 0)
(41.8432 0 0)
(41.9014 0 0)
(41.9596 0 0)
(42.0179 0 0)
(42.0761 0 0)
(42.1343 0 0)
(42.1925 0 0)
(42.2508 0 0)
(42.309 0 0)
(42.3672 0 0)
(42.4254 0 0)
(42.4837 0 0)
(42.5419 0 0)
(42.6001 0 0)
(42.6584 0 0)
(42.7166 0 0)
(42.7748 0 0)
(42.833 0 0)
(42.8913 0 0)
(42.9495 0 0)
(43.0077 0 0)
(43.066 0 0)
(43.1242 0 0)
(43.1824 0 0)
(43.2407 0 0)
(43.2989 0 0)
(43.3571 0 0)
(43.4154 0 0)
(43.4736 0 0)
(43.5318 0 0)
(43.5901 0 0)
(43.6483 0 0)
(43.7065 0 0)
(43.7648 0 0)
(43.823 0 0)
(43.8812 0 0)
(43.9395 0 0)
(43.9977 0 0)
(44.0559 0 0)
(44.1142 0 0)
(44.1724 0 0)
(44.2307 0 0)
(44.2889 0 0)
(44.3471 0 0)
(44.4054 0 0)
(44.4636 0 0)
(44.5219 0 0)
(44.5801 0 0)
(44.6383 0 0)
(44.6966 0 0)
(44.7548 0 0)
(44.8131 0 0)
(44.8713 0 0)
(44.9295 0 0)
(44.9878 0 0)
(45.046 0 0)
(45.1043 0 0)
(45.1625 0 0)
(45.2208 0 0)
(45.279 0 0)
(45.3372 0 0)
(45.3955 0 0)
(45.4537 0 0)
(45.512 0 0)
(45.5702 0 0)
(45.6285 0 0)
(45.6867 0 0)
(45.745 0 0)
(45.8032 0 0)
(45.8614 0 0)
(45.9197 0 0)
(45.9779 0 0)
(46.0362 0 0)
(46.0944 0 0)
(46.1527 0 0)
(46.2109 0 0)
(46.2692 0 0)
(46.3274 0 0)
(46.3857 0 0)
(46.4439 0 0)
(46.5022 0 0)
(46.5604 0 0)
(46.6187 0 0)
(46.6769 0 0)
(46.7352 0 0)
(46.7934 0 0)
(46.8517 0 0)
(46.9099 0 0)
(46.9682 0 0)
(47.0264 0 0)
(47.0847 0 0)
(47.143 0 0)
(47.2012 0 0)
(47.2595 0 0)
(47.3177 0 0)
(47.376 0 0)
(47.4342 0 0)
(47.4925 0 0)
(47.5507 0 0)
(47.609 0 0)
(47.6673 0 0)
(47.7255 0 0)
(47.7838 0 0)
(47.842 0 0)
(47.9003 0 0)
(47.9585 0 0)
(48.0168 0 0)
(48.0751 0 0)
(48.1333 0 0)
(48.1916 0 0)
(48.2498 0 0)
(48.3081 0 0)
(48.3664 0 0)
(48.4246 0 0)
(48.4829 0 0)
(48.5411 0 0)
(48.5994 0 0)
(48.6577 0 0)
(48.7159 0 0)
(48.7742 0 0)
(48.8325 0 0)
(48.8907 0 0)
(48.949 0 0)
(49.0072 0 0)
(49.0655 0 0)
(49.1238 0 0)
(49.182 0 0)
(49.2403 0 0)
(49.2986 0 0)
(49.3568 0 0)
(49.4151 0 0)
(49.4734 0 0)
(49.5316 0 0)
(49.5899 0 0)
(49.6482 0 0)
(49.7064 0 0)
(49.7647 0 0)
(49.823 0 0)
(49.8812 0 0)
(49.9395 0 0)
(49.9978 0 0)
(50.0561 0 0)
(50.1143 0 0)
(50.1726 0 0)
(50.2309 0 0)
(50.2891 0 0)
(50.3474 0 0)
(50.4057 0 0)
(50.464 0 0)
(50.5222 0 0)
(50.5805 0 0)
(50.6388 0 0)
(50.697 0 0)
(50.7553 0 0)
(50.8136 0 0)
(50.8719 0 0)
(50.9301 0 0)
(50.9884 0 0)
(51.0467 0 0)
(51.105 0 0)
(51.1632 0 0)
(51.2215 0 0)
(51.2798 0 0)
(51.3381 0 0)
(51.3964 0 0)
(51.4546 0 0)
(51.5129 0 0)
(51.5712 0 0)
(51.6295 0 0)
(51.6877 0 0)
(51.746 0 0)
(51.8043 0 0)
(51.8626 0 0)
(51.9209 0 0)
(51.9791 0 0)
(52.0374 0 0)
(52.0957 0 0)
(52.154 0 0)
(52.2123 0 0)
(52.2705 0 0)
(52.3288 0 0)
(52.3871 0 0)
(52.4454 0 0)
(52.5037 0 0)
(52.562 0 0)
(52.6202 0 0)
(52.6785 0 0)
(52.7368 0 0)
(52.7951 0 0)
(52.8534 0 0)
(52.9117 0 0)
(52.97 0 0)
(53.0282 0 0)
(53.0865 0 0)
(53.1448 0 0)
(53.2031 0 0)
(53.2614 0 0)
(53.3197 0 0)
(53.378 0 0)
(53.4363 0 0)
(53.4945 0 0)
(53.5528 0 0)
(53.6111 0 0)
(53.6694 0 0)
(53.7277 0 0)
(53.786 0 0)
(53.8443 0 0)
(53.9026 0 0)
(53.9609 0 0)
(54.0192 0 0)
(54.0774 0 0)
(54.1357 0 0)
(54.194 0 0)
(54.2523 0 0)
(54.3106 0 0)
(54.3689 0 0)
(54.4272 0 0)
(54.4855 0 0)
(54.5438 0 0)
(54.6021 0 0)
(54.6604 0 0)
(54.7187 0 0)
(54.777 0 0)
(54.8353 0 0)
(54.8936 0 0)
(54.9519 0 0)
(55.0102 0 0)
(55.0685 0 0)
(55.1268 0 0)
(55.1851 0 0)
(55.2434 0 0)
(55.3017 0 0)
(55.3599 0 0)
(55.4182 0 0)
(55.4765 0 0)
(55.5348 0 0)
(55.5931 0 0)
(55.6514 0 0)
(55.7097 0 0)
(55.7681 0 0)
(55.8264 0 0)
(55.8847 0 0)
(55.943 0 0)
(56.0013 0 0)
(56.0596 0 0)
(56.1179 0 0)
(56.1762 0 0)
(56.2345 0 0)
(56.2928 0 0)
(56.3511 0 0)
(56.4094 0 0)
(56.4677 0 0)
(56.526 0 0)
(56.5843 0 0)
(56.6426 0 0)
(56.7009 0 0)
(56.7592 0 0)
(56.8175 0 0)
(56.8758 0 0)
(56.9341 0 0)
(56.9924 0 0)
(57.0508 0 0)
(57.1091 0 0)
(57.1674 0 0)
(57.2257 0 0)
(57.284 0 0)
(57.3423 0 0)
(57.4006 0 0)
(57.4589 0 0)
(57.5172 0 0)
(57.5755 0 0)
(57.6339 0 0)
(57.6922 0 0)
(57.7505 0 0)
(57.8088 0 0)
(57.8671 0 0)
(57.9254 0 0)
(57.9837 0 0)
(58.042 0 0)
(58.1004 0 0)
(58.1587 0 0)
(58.217 0 0)
(58.2753 0 0)
(58.3336 0 0)
(58.3919 0 0)
(58.4502 0 0)
(58.5086 0 0)
(58.5669 0 0)
(58.6252 0 0)
(58.6835 0 0)
(58.7418 0 0)
(58.8001 0 0)
(58.8585 0 0)
(58.9168 0 0)
(58.9751 0 0)
(59.0334 0 0)
(59.0917 0 0)
(59.1501 0 0)
(59.2084 0 0)
(59.2667 0 0)
(59.325 0 0)
(59.3833 0 0)
(59.4417 0 0)
(59.5 0 0)
(59.5583 0 0)
(59.6166 0 0)
(59.675 0 0)
(59.7333 0 0)
(59.7916 0 0)
(59.8499 0 0)
(59.9082 0 0)
(59.9666 0 0)
(60.0249 0 0)
(60.0832 0 0)
(60.1415 0 0)
(60.1999 0 0)
(60.2582 0 0)
(60.3165 0 0)
(60.3748 0 0)
(60.4332 0 0)
(60.4915 0 0)
(60.5498 0 0)
(60.6082 0 0)
(60.6665 0 0)
(60.7248 0 0)
(60.7831 0 0)
(60.8415 0 0)
(60.8998 0 0)
(60.9581 0 0)
(61.0165 0 0)
(61.0748 0 0)
(61.1331 0 0)
(61.1914 0 0)
(61.2498 0 0)
(61.3081 0 0)
(61.3664 0 0)
(61.4248 0 0)
(61.4831 0 0)
(61.5414 0 0)
(61.5998 0 0)
(61.6581 0 0)
(61.7164 0 0)
(61.7748 0 0)
(61.8331 0 0)
(61.8914 0 0)
(61.9498 0 0)
(62.0081 0 0)
(62.0664 0 0)
(62.1248 0 0)
(62.1831 0 0)
(62.2415 0 0)
(62.2998 0 0)
(62.3581 0 0)
(62.4165 0 0)
(62.4748 0 0)
(62.5331 0 0)
(62.5915 0 0)
(62.6498 0 0)
(62.7082 0 0)
(62.7665 0 0)
(62.8248 0 0)
(62.8832 0 0)
(62.9415 0 0)
(62.9999 0 0)
(63.0582 0 0)
(63.1165 0 0)
(63.1749 0 0)
(63.2332 0 0)
(63.2916 0 0)
(63.3499 0 0)
(63.4082 0 0)
(63.4666 0 0)
(63.5249 0 0)
(63.5833 0 0)
(63.6416 0 0)
(63.7 0 0)
(63.7583 0 0)
(63.8167 0 0)
(63.875 0 0)
(63.9333 0 0)
(63.9917 0 0)
(64.05 0 0)
(64.1084 0 0)
(64.1667 0 0)
(64.2251 0 0)
(64.2834 0 0)
(64.3418 0 0)
(64.4001 0 0)
(64.4585 0 0)
(64.5168 0 0)
(64.5752 0 0)
(64.6335 0 0)
(64.6919 0 0)
(64.7502 0 0)
(64.8086 0 0)
(64.8669 0 0)
(64.9253 0 0)
(64.9836 0 0)
(65.042 0 0)
(65.1003 0 0)
(65.1587 0 0)
(65.217 0 0)
(65.2754 0 0)
(65.3337 0 0)
(65.3921 0 0)
(65.4504 0 0)
(65.5088 0 0)
(65.5671 0 0)
(65.6255 0 0)
(65.6839 0 0)
(65.7422 0 0)
(65.8006 0 0)
(65.8589 0 0)
(65.9173 0 0)
(65.9756 0 0)
(66.034 0 0)
(66.0924 0 0)
(66.1507 0 0)
(66.2091 0 0)
(66.2674 0 0)
(66.3258 0 0)
(66.3841 0 0)
(66.4425 0 0)
(66.5009 0 0)
(66.5592 0 0)
(66.6176 0 0)
(66.6759 0 0)
(66.7343 0 0)
(66.7927 0 0)
(66.851 0 0)
(66.9094 0 0)
(66.9677 0 0)
(67.0261 0 0)
(67.0845 0 0)
(67.1428 0 0)
(67.2012 0 0)
(67.2596 0 0)
(67.3179 0 0)
(67.3763 0 0)
(67.4347 0 0)
(67.493 0 0)
(67.5514 0 0)
(67.6097 0 0)
(67.6681 0 0)
(67.7265 0 0)
(67.7848 0 0)
(67.8432 0 0)
(67.9016 0 0)
(67.9599 0 0)
(68.0183 0 0)
(68.0767 0 0)
(68.1351 0 0)
(68.1934 0 0)
(68.2518 0 0)
(68.3102 0 0)
(68.3685 0 0)
(68.4269 0 0)
(68.4853 0 0)
(68.5436 0 0)
(68.602 0 0)
(68.6604 0 0)
(68.7188 0 0)
(68.7771 0 0)
(68.8355 0 0)
(68.8939 0 0)
(68.9522 0 0)
(69.0106 0 0)
(69.069 0 0)
(69.1274 0 0)
(69.1857 0 0)
(69.2441 0 0)
(69.3025 0 0)
(69.3609 0 0)
(69.4192 0 0)
(69.4776 0 0)
(69.536 0 0)
(69.5944 0 0)
(69.6527 0 0)
(69.7111 0 0)
(69.7695 0 0)
(69.8279 0 0)
(69.8862 0 0)
(69.9446 0 0)
(70.003 0 0)
(70.0614 0 0)
(70.1198 0 0)
(70.1781 0 0)
(70.2365 0 0)
(70.2949 0 0)
(70.3533 0 0)
(70.4117 0 0)
(70.47 0 0)
(70.5284 0 0)
(70.5868 0 0)
(70.6452 0 0)
(70.7036 0 0)
(70.762 0 0)
(70.8203 0 0)
(70.8787 0 0)
(70.9371 0 0)
(70.9955 0 0)
(71.0539 0 0)
(71.1123 0 0)
(71.1706 0 0)
(71.229 0 0)
(71.2874 0 0)
(71.3458 0 0)
(71.4042 0 0)
(71.4626 0 0)
(71.521 0 0)
(71.5793 0 0)
(71.6377 0 0)
(71.6961 0 0)
(71.7545 0 0)
(71.8129 0 0)
(71.8713 0 0)
(71.9297 0 0)
(71.9881 0 0)
(72.0464 0 0)
(72.1048 0 0)
(72.1632 0 0)
(72.2216 0 0)
(72.28 0 0)
(72.3384 0 0)
(72.3968 0 0)
(72.4552 0 0)
(72.5136 0 0)
(72.572 0 0)
(72.6304 0 0)
(72.6887 0 0)
(72.7471 0 0)
(72.8055 0 0)
(72.8639 0 0)
(72.9223 0 0)
(72.9807 0 0)
(73.0391 0 0)
(73.0975 0 0)
(73.1559 0 0)
(73.2143 0 0)
(73.2727 0 0)
(73.3311 0 0)
(73.3895 0 0)
(73.4479 0 0)
(73.5063 0 0)
(73.5647 0 0)
(73.6231 0 0)
(73.6815 0 0)
(73.7399 0 0)
(73.7983 0 0)
(73.8567 0 0)
(73.9151 0 0)
(73.9735 0 0)
(74.0319 0 0)
(74.0903 0 0)
(74.1487 0 0)
(74.2071 0 0)
(74.2655 0 0)
(74.3239 0 0)
(74.3823 0 0)
(74.4407 0 0)
(74.4991 0 0)
(74.5575 0 0)
(74.6159 0 0)
(74.6743 0 0)
(74.7327 0 0)
(74.7911 0 0)
(74.8495 0 0)
(74.9079 0 0)
(74.9663 0 0)
(75.0247 0 0)
(75.0831 0 0)
(75.1415 0 0)
(75.1999 0 0)
(75.2583 0 0)
(75.3167 0 0)
(75.3752 0 0)
(75.4336 0 0)
(75.492 0 0)
(75.5504 0 0)
(75.6088 0 0)
(75.6672 0 0)
(75.7256 0 0)
(75.784 0 0)
(75.8424 0 0)
(75.9008 0 0)
(75.9592 0 0)
(76.0177 0 0)
(76.0761 0 0)
(76.1345 0 0)
(76.1929 0 0)
(76.2513 0 0)
(76.3097 0 0)
(76.3681 0 0)
(76.4265 0 0)
(76.485 0 0)
(76.5434 0 0)
(76.6018 0 0)
(76.6602 0 0)
(76.7186 0 0)
(76.777 0 0)
(76.8354 0 0)
(76.8939 0 0)
(76.9523 0 0)
(77.0107 0 0)
(77.0691 0 0)
(77.1275 0 0)
(77.1859 0 0)
(77.2444 0 0)
(77.3028 0 0)
(77.3612 0 0)
(77.4196 0 0)
(77.478 0 0)
(77.5364 0 0)
(77.5949 0 0)
(77.6533 0 0)
(77.7117 0 0)
(77.7701 0 0)
(77.8285 0 0)
(77.887 0 0)
(77.9454 0 0)
(78.0038 0 0)
(78.0622 0 0)
(78.1206 0 0)
(78.1791 0 0)
(78.2375 0 0)
(78.2959 0 0)
(78.3543 0 0)
(78.4128 0 0)
(78.4712 0 0)
(78.5296 0 0)
(78.588 0 0)
(78.6465 0 0)
(78.7049 0 0)
(78.7633 0 0)
(78.8217 0 0)
(78.8802 0 0)
(78.9386 0 0)
(78.997 0 0)
(79.0554 0 0)
(79.1139 0 0)
(79.1723 0 0)
(79.2307 0 0)
(79.2892 0 0)
(79.3476 0 0)
(79.406 0 0)
(79.4644 0 0)
(79.5229 0 0)
(79.5813 0 0)
(79.6397 0 0)
(79.6982 0 0)
(79.7566 0 0)
(79.815 0 0)
(79.8734 0 0)
(79.9319 0 0)
(79.9903 0 0)
(80.0487 0 0)
(80.1072 0 0)
(80.1656 0 0)
(80.224 0 0)
(80.2825 0 0)
(80.3409 0 0)
(80.3993 0 0)
(80.4578 0 0)
(80.5162 0 0)
(80.5746 0 0)
(80.6331 0 0)
(80.6915 0 0)
(80.75 0 0)
(80.8084 0 0)
(80.8668 0 0)
(80.9253 0 0)
(80.9837 0 0)
(81.0421 0 0)
(81.1006 0 0)
(81.159 0 0)
(81.2175 0 0)
(81.2759 0 0)
(81.3343 0 0)
(81.3928 0 0)
(81.4512 0 0)
(81.5097 0 0)
(81.5681 0 0)
(81.6265 0 0)
(81.685 0 0)
(81.7434 0 0)
(81.8019 0 0)
(81.8603 0 0)
(81.9187 0 0)
(81.9772 0 0)
(82.0356 0 0)
(82.0941 0 0)
(82.1525 0 0)
(82.211 0 0)
(82.2694 0 0)
(82.3278 0 0)
(82.3863 0 0)
(82.4447 0 0)
(82.5032 0 0)
(82.5616 0 0)
(82.6201 0 0)
(82.6785 0 0)
(82.737 0 0)
(82.7954 0 0)
(82.8539 0 0)
(82.9123 0 0)
(82.9708 0 0)
(83.0292 0 0)
(83.0877 0 0)
(83.1461 0 0)
(83.2045 0 0)
(83.263 0 0)
(83.3214 0 0)
(83.3799 0 0)
(83.4383 0 0)
(83.4968 0 0)
(83.5553 0 0)
(83.6137 0 0)
(83.6722 0 0)
(83.7306 0 0)
(83.7891 0 0)
(83.8475 0 0)
(83.906 0 0)
(83.9644 0 0)
(84.0229 0 0)
(84.0813 0 0)
(84.1398 0 0)
(84.1982 0 0)
(84.2567 0 0)
(84.3151 0 0)
(84.3736 0 0)
(84.4321 0 0)
(84.4905 0 0)
(84.549 0 0)
(84.6074 0 0)
(84.6659 0 0)
(84.7243 0 0)
(84.7828 0 0)
(84.8413 0 0)
(84.8997 0 0)
(84.9582 0 0)
(85.0166 0 0)
(85.0751 0 0)
(85.1335 0 0)
(85.192 0 0)
(85.2505 0 0)
(85.3089 0 0)
(85.3674 0 0)
(85.4258 0 0)
(85.4843 0 0)
(85.5428 0 0)
(85.6012 0 0)
(85.6597 0 0)
(85.7182 0 0)
(85.7766 0 0)
(85.8351 0 0)
(85.8935 0 0)
(85.952 0 0)
(86.0105 0 0)
(86.0689 0 0)
(86.1274 0 0)
(86.1859 0 0)
(86.2443 0 0)
(86.3028 0 0)
(86.3613 0 0)
(86.4197 0 0)
(86.4782 0 0)
(86.5367 0 0)
(86.5951 0 0)
(86.6536 0 0)
(86.7121 0 0)
(86.7705 0 0)
(86.829 0 0)
(86.8875 0 0)
(86.9459 0 0)
(87.0044 0 0)
(87.0629 0 0)
(87.1213 0 0)
(87.1798 0 0)
(87.2383 0 0)
(87.2968 0 0)
(87.3552 0 0)
(87.4137 0 0)
(87.4722 0 0)
(87.5306 0 0)
(87.5891 0 0)
(87.6476 0 0)
(87.7061 0 0)
(87.7645 0 0)
(87.823 0 0)
(87.8815 0 0)
(87.94 0 0)
(87.9984 0 0)
(88.0569 0 0)
(88.1154 0 0)
(88.1739 0 0)
(88.2323 0 0)
(88.2908 0 0)
(88.3493 0 0)
(88.4078 0 0)
(88.4662 0 0)
(88.5247 0 0)
(88.5832 0 0)
(88.6417 0 0)
(88.7002 0 0)
(88.7586 0 0)
(88.8171 0 0)
(88.8756 0 0)
(88.9341 0 0)
(88.9926 0 0)
(89.051 0 0)
(89.1095 0 0)
(89.168 0 0)
(89.2265 0 0)
(89.285 0 0)
(89.3434 0 0)
(89.4019 0 0)
(89.4604 0 0)
(89.5189 0 0)
(89.5774 0 0)
(89.6359 0 0)
(89.6943 0 0)
(89.7528 0 0)
(89.8113 0 0)
(89.8698 0 0)
(89.9283 0 0)
(89.9868 0 0)
(90.0452 0 0)
(90.1037 0 0)
(90.1622 0 0)
(90.2207 0 0)
(90.2792 0 0)
(90.3377 0 0)
(90.3962 0 0)
(90.4546 0 0)
(90.5131 0 0)
(90.5716 0 0)
(90.6301 0 0)
(90.6886 0 0)
(90.7471 0 0)
(90.8056 0 0)
(90.8641 0 0)
(90.9226 0 0)
(90.9811 0 0)
(91.0395 0 0)
(91.098 0 0)
(91.1565 0 0)
(91.215 0 0)
(91.2735 0 0)
(91.332 0 0)
(91.3905 0 0)
(91.449 0 0)
(91.5075 0 0)
(91.566 0 0)
(91.6245 0 0)
(91.683 0 0)
(91.7415 0 0)
(91.8 0 0)
(91.8584 0 0)
(91.9169 0 0)
(91.9754 0 0)
(92.0339 0 0)
(92.0924 0 0)
(92.1509 0 0)
(92.2094 0 0)
(92.2679 0 0)
(92.3264 0 0)
(92.3849 0 0)
(92.4434 0 0)
(92.5019 0 0)
(92.5604 0 0)
(92.6189 0 0)
(92.6774 0 0)
(92.7359 0 0)
(92.7944 0 0)
(92.8529 0 0)
(92.9114 0 0)
(92.9699 0 0)
(93.0284 0 0)
(93.0869 0 0)
(93.1454 0 0)
(93.2039 0 0)
(93.2624 0 0)
(93.3209 0 0)
(93.3794 0 0)
(93.4379 0 0)
(93.4964 0 0)
(93.5549 0 0)
(93.6134 0 0)
(93.6719 0 0)
(93.7305 0 0)
(93.789 0 0)
(93.8475 0 0)
(93.906 0 0)
(93.9645 0 0)
(94.023 0 0)
(94.0815 0 0)
(94.14 0 0)
(94.1985 0 0)
(94.257 0 0)
(94.3155 0 0)
(94.374 0 0)
(94.4325 0 0)
(94.491 0 0)
(94.5496 0 0)
(94.6081 0 0)
(94.6666 0 0)
(94.7251 0 0)
(94.7836 0 0)
(94.8421 0 0)
(94.9006 0 0)
(94.9591 0 0)
(95.0176 0 0)
(95.0762 0 0)
(95.1347 0 0)
(95.1932 0 0)
(95.2517 0 0)
(95.3102 0 0)
(95.3687 0 0)
(95.4272 0 0)
(95.4857 0 0)
(95.5443 0 0)
(95.6028 0 0)
(95.6613 0 0)
(95.7198 0 0)
(95.7783 0 0)
(95.8368 0 0)
(95.8954 0 0)
(95.9539 0 0)
(96.0124 0 0)
(96.0709 0 0)
(96.1294 0 0)
(96.1879 0 0)
(96.2465 0 0)
(96.305 0 0)
(96.3635 0 0)
(96.422 0 0)
(96.4805 0 0)
(96.5391 0 0)
(96.5976 0 0)
(96.6561 0 0)
(96.7146 0 0)
(96.7731 0 0)
(96.8317 0 0)
(96.8902 0 0)
(96.9487 0 0)
(97.0072 0 0)
(97.0658 0 0)
(97.1243 0 0)
(97.1828 0 0)
(97.2413 0 0)
(97.2998 0 0)
(97.3584 0 0)
(97.4169 0 0)
(97.4754 0 0)
(97.5339 0 0)
(97.5925 0 0)
(97.651 0 0)
(97.7095 0 0)
(97.768 0 0)
(97.8266 0 0)
(97.8851 0 0)
(97.9436 0 0)
(98.0022 0 0)
(98.0607 0 0)
(98.1192 0 0)
(98.1777 0 0)
(98.2363 0 0)
(98.2948 0 0)
(98.3533 0 0)
(98.4119 0 0)
(98.4704 0 0)
(98.5289 0 0)
(98.5875 0 0)
(98.646 0 0)
(98.7045 0 0)
(98.763 0 0)
(98.8216 0 0)
(98.8801 0 0)
(98.9386 0 0)
(98.9972 0 0)
(99.0557 0 0)
(99.1142 0 0)
(99.1728 0 0)
(99.2313 0 0)
(99.2898 0 0)
(99.3484 0 0)
(99.4069 0 0)
(99.4654 0 0)
(99.524 0 0)
(99.5825 0 0)
(99.6411 0 0)
(99.6996 0 0)
(99.7581 0 0)
(99.8167 0 0)
(99.8752 0 0)
(99.9337 0 0)
(99.9923 0 0)
(100.051 0 0)
(100.109 0 0)
(100.168 0 0)
(100.226 0 0)
(100.285 0 0)
(100.344 0 0)
(100.402 0 0)
(100.461 0 0)
(100.519 0 0)
(100.578 0 0)
(100.636 0 0)
(100.695 0 0)
(100.753 0 0)
(100.812 0 0)
(100.87 0 0)
(100.929 0 0)
(100.987 0 0)
(101.046 0 0)
(101.105 0 0)
(101.163 0 0)
(101.222 0 0)
(101.28 0 0)
(101.339 0 0)
(101.397 0 0)
(101.456 0 0)
(101.514 0 0)
(101.573 0 0)
(101.631 0 0)
(101.69 0 0)
(101.749 0 0)
(101.807 0 0)
(101.866 0 0)
(101.924 0 0)
(101.983 0 0)
(102.041 0 0)
(102.1 0 0)
(102.158 0 0)
(102.217 0 0)
(102.276 0 0)
(102.334 0 0)
(102.393 0 0)
(102.451 0 0)
(102.51 0 0)
(102.568 0 0)
(102.627 0 0)
(102.685 0 0)
(102.744 0 0)
(102.802 0 0)
(102.861 0 0)
(102.92 0 0)
(102.978 0 0)
(103.037 0 0)
(103.095 0 0)
(103.154 0 0)
(103.212 0 0)
(103.271 0 0)
(103.329 0 0)
(103.388 0 0)
(103.447 0 0)
(103.505 0 0)
(103.564 0 0)
(103.622 0 0)
(103.681 0 0)
(103.739 0 0)
(103.798 0 0)
(103.856 0 0)
(103.915 0 0)
(103.974 0 0)
(104.032 0 0)
(104.091 0 0)
(104.149 0 0)
(104.208 0 0)
(104.266 0 0)
(104.325 0 0)
(104.384 0 0)
(104.442 0 0)
(104.501 0 0)
(104.559 0 0)
(104.618 0 0)
(104.676 0 0)
(104.735 0 0)
(104.793 0 0)
(104.852 0 0)
(104.911 0 0)
(104.969 0 0)
(105.028 0 0)
(105.086 0 0)
(105.145 0 0)
(105.203 0 0)
(105.262 0 0)
(105.321 0 0)
(105.379 0 0)
(105.438 0 0)
(105.496 0 0)
(105.555 0 0)
(105.613 0 0)
(105.672 0 0)
(105.731 0 0)
(105.789 0 0)
(105.848 0 0)
(105.906 0 0)
(105.965 0 0)
(106.023 0 0)
(106.082 0 0)
(106.141 0 0)
(106.199 0 0)
(106.258 0 0)
(106.316 0 0)
(106.375 0 0)
(106.433 0 0)
(106.492 0 0)
(106.551 0 0)
(106.609 0 0)
(106.668 0 0)
(106.726 0 0)
(106.785 0 0)
(106.843 0 0)
(106.902 0 0)
(106.961 0 0)
(107.019 0 0)
(107.078 0 0)
(107.136 0 0)
(107.195 0 0)
(107.253 0 0)
(107.312 0 0)
(107.371 0 0)
(107.429 0 0)
(107.488 0 0)
(107.546 0 0)
(107.605 0 0)
(107.663 0 0)
(107.722 0 0)
(107.781 0 0)
(107.839 0 0)
(107.898 0 0)
(107.956 0 0)
(108.015 0 0)
(108.074 0 0)
(108.132 0 0)
(108.191 0 0)
(108.249 0 0)
(108.308 0 0)
(108.366 0 0)
(108.425 0 0)
(108.484 0 0)
(108.542 0 0)
(108.601 0 0)
(108.659 0 0)
(108.718 0 0)
(108.776 0 0)
(108.835 0 0)
(108.894 0 0)
(108.952 0 0)
(109.011 0 0)
(109.069 0 0)
(109.128 0 0)
(109.187 0 0)
(109.245 0 0)
(109.304 0 0)
(109.362 0 0)
(109.421 0 0)
(109.48 0 0)
(109.538 0 0)
(109.597 0 0)
(109.655 0 0)
(109.714 0 0)
(109.772 0 0)
(109.831 0 0)
(109.89 0 0)
(109.948 0 0)
(110.007 0 0)
(110.065 0 0)
(110.124 0 0)
(110.183 0 0)
(110.241 0 0)
(110.3 0 0)
(110.358 0 0)
(110.417 0 0)
(110.476 0 0)
(110.534 0 0)
(110.593 0 0)
(110.651 0 0)
(110.71 0 0)
(110.769 0 0)
(110.827 0 0)
(110.886 0 0)
(110.944 0 0)
(111.003 0 0)
(111.062 0 0)
(111.12 0 0)
(111.179 0 0)
(111.237 0 0)
(111.296 0 0)
(111.355 0 0)
(111.413 0 0)
(111.472 0 0)
(111.53 0 0)
(111.589 0 0)
(111.648 0 0)
(111.706 0 0)
(111.765 0 0)
(111.823 0 0)
(111.882 0 0)
(111.941 0 0)
(111.999 0 0)
(112.058 0 0)
(112.116 0 0)
(112.175 0 0)
(112.234 0 0)
(112.292 0 0)
(112.351 0 0)
(112.409 0 0)
(112.468 0 0)
(112.527 0 0)
(112.585 0 0)
(112.644 0 0)
(112.702 0 0)
(112.761 0 0)
(112.82 0 0)
(112.878 0 0)
(112.937 0 0)
(112.995 0 0)
(113.054 0 0)
(113.113 0 0)
(113.171 0 0)
(113.23 0 0)
(113.288 0 0)
(113.347 0 0)
(113.406 0 0)
(113.464 0 0)
(113.523 0 0)
(113.581 0 0)
(113.64 0 0)
(113.699 0 0)
(113.757 0 0)
(113.816 0 0)
(113.875 0 0)
(113.933 0 0)
(113.992 0 0)
(114.05 0 0)
(114.109 0 0)
(114.168 0 0)
(114.226 0 0)
(114.285 0 0)
(114.343 0 0)
(114.402 0 0)
(114.461 0 0)
(114.519 0 0)
(114.578 0 0)
(114.636 0 0)
(114.695 0 0)
(114.754 0 0)
(114.812 0 0)
(114.871 0 0)
(114.93 0 0)
(114.988 0 0)
(115.047 0 0)
(115.105 0 0)
(115.164 0 0)
(115.223 0 0)
(115.281 0 0)
(115.34 0 0)
(115.399 0 0)
(115.457 0 0)
(115.516 0 0)
(115.574 0 0)
(115.633 0 0)
(115.692 0 0)
(115.75 0 0)
(115.809 0 0)
(115.867 0 0)
(115.926 0 0)
(115.985 0 0)
(116.043 0 0)
(116.102 0 0)
(116.161 0 0)
(116.219 0 0)
(116.278 0 0)
(116.336 0 0)
(116.395 0 0)
(116.454 0 0)
(116.512 0 0)
(116.571 0 0)
(116.63 0 0)
(116.688 0 0)
(116.747 0 0)
(116.805 0 0)
(116.864 0 0)
(116.923 0 0)
(116.981 0 0)
(117.04 0 0)
(117.099 0 0)
(117.157 0 0)
(117.216 0 0)
(117.274 0 0)
(117.333 0 0)
(117.392 0 0)
(117.45 0 0)
(117.509 0 0)
(117.568 0 0)
(117.626 0 0)
(117.685 0 0)
(117.744 0 0)
(117.802 0 0)
(117.861 0 0)
(117.919 0 0)
(117.978 0 0)
(118.037 0 0)
(118.095 0 0)
(118.154 0 0)
(118.213 0 0)
(118.271 0 0)
(118.33 0 0)
(118.388 0 0)
(118.447 0 0)
(118.506 0 0)
(118.564 0 0)
(118.623 0 0)
(118.682 0 0)
(118.74 0 0)
(118.799 0 0)
(118.858 0 0)
(118.916 0 0)
(118.975 0 0)
(119.034 0 0)
(119.092 0 0)
(119.151 0 0)
(119.209 0 0)
(119.268 0 0)
(119.327 0 0)
(119.385 0 0)
(119.444 0 0)
(119.503 0 0)
(119.561 0 0)
(119.62 0 0)
(119.679 0 0)
(119.737 0 0)
(119.796 0 0)
(119.854 0 0)
(119.913 0 0)
(119.972 0 0)
(120.03 0 0)
(120.089 0 0)
(120.148 0 0)
(120.206 0 0)
(120.265 0 0)
(120.324 0 0)
(120.382 0 0)
(120.441 0 0)
(120.5 0 0)
(120.558 0 0)
(120.617 0 0)
(120.675 0 0)
(120.734 0 0)
(120.793 0 0)
(120.851 0 0)
(120.91 0 0)
(120.969 0 0)
(121.027 0 0)
(121.086 0 0)
(121.145 0 0)
(121.203 0 0)
(121.262 0 0)
(121.321 0 0)
(121.379 0 0)
(121.438 0 0)
(121.497 0 0)
(121.555 0 0)
(121.614 0 0)
(121.673 0 0)
(121.731 0 0)
(121.79 0 0)
(121.848 0 0)
(121.907 0 0)
(121.966 0 0)
(122.024 0 0)
(122.083 0 0)
(122.142 0 0)
(122.2 0 0)
(122.259 0 0)
(122.318 0 0)
(122.376 0 0)
(122.435 0 0)
(122.494 0 0)
(122.552 0 0)
(122.611 0 0)
(122.67 0 0)
(122.728 0 0)
(122.787 0 0)
(122.846 0 0)
(122.904 0 0)
(122.963 0 0)
(123.022 0 0)
(123.08 0 0)
(123.139 0 0)
(123.198 0 0)
(123.256 0 0)
(123.315 0 0)
(123.374 0 0)
(123.432 0 0)
(123.491 0 0)
(123.55 0 0)
(123.608 0 0)
(123.667 0 0)
(123.726 0 0)
(123.784 0 0)
(123.843 0 0)
(123.902 0 0)
(123.96 0 0)
(124.019 0 0)
(124.078 0 0)
(124.136 0 0)
(124.195 0 0)
(124.254 0 0)
(124.312 0 0)
(124.371 0 0)
(124.43 0 0)
(124.488 0 0)
(124.547 0 0)
(124.606 0 0)
(124.664 0 0)
(124.723 0 0)
(124.782 0 0)
(124.84 0 0)
(124.899 0 0)
(124.958 0 0)
(125.016 0 0)
(125.075 0 0)
(125.134 0 0)
(125.192 0 0)
(125.251 0 0)
(125.31 0 0)
(125.368 0 0)
(125.427 0 0)
(125.486 0 0)
(125.544 0 0)
(125.603 0 0)
(125.662 0 0)
(125.72 0 0)
(125.779 0 0)
(125.838 0 0)
(125.896 0 0)
(125.955 0 0)
(126.014 0 0)