/*--------------------------------*- C++ -*----------------------------------*\
  =========                 |
  \\      /  F ield         | OpenFOAM: The Open Source CFD Toolbox
   \\    /   O peration     | Website:  https://openfoam.org
    \\  /    A nd           | Version:  9
     \\/     M anipulation  |
\*---------------------------------------------------------------------------*/
FoamFile
{
    format      ascii;
    class       volScalarField;
    location    "0.033";
    object      p;
}
// * * * * * * * * * * * * * * * * * * * * * * * * * * * * * * * * * * * * * //

dimensions      [1 -1 -2 0 0 0 0];

internalField   nonuniform List<scalar> 
100
(
49773.8
48963.7
48477.3
47959.9
47456.2
46955
46458.6
45966.6
45479
44995.7
44516.7
44042.1
43571.7
43105.5
42643.6
42185.8
41732.2
41282.8
40837.5
40396.2
39959.1
39525.9
39096.9
38671.8
38250.7
37833.6
37420.4
37011.2
36605.8
36204.4
35806.8
35413.1
35023.3
34637.3
34255.3
33877.2
33503.4
33134
32770.2
32414
32069.6
31747.5
31457
31218.2
31047.6
30944
30888.3
30855.5
30826.4
30789.7
30754.4
30732.2
30720.1
30714.3
30710.7
30706.3
30697.7
30686
30674.2
30664
30658.6
30657
30656.9
30653.5
30644.2
30631.6
30618.9
30609
30603.6
30601
30597.3
30587.1
30578.7
30572.9
30566.8
30558.6
30543
30525.2
30525.7
30531.4
30535.1
30535
30527.5
30497.6
30463
30451
30462.5
30581
30955.1
31239.2
31327.5
31354.4
31415.4
31628.8
31911.4
32054.9
32090.7
32073.5
32060.9
32058.3
)
;

boundaryField
{
    sides
    {
        type            zeroGradient;
    }
    empty
    {
        type            empty;
    }
}


// ************************************************************************* //
