/*--------------------------------*- C++ -*----------------------------------*\
  =========                 |
  \\      /  F ield         | OpenFOAM: The Open Source CFD Toolbox
   \\    /   O peration     | Website:  https://openfoam.org
    \\  /    A nd           | Version:  9
     \\/     M anipulation  |
\*---------------------------------------------------------------------------*/
FoamFile
{
    format      ascii;
    class       volVectorField;
    location    "0.049";
    object      U;
}
// * * * * * * * * * * * * * * * * * * * * * * * * * * * * * * * * * * * * * //

dimensions      [0 1 -1 0 0 0 0];

internalField   nonuniform List<vector> 
10000
(
(234.283 0 0)
(234.31 0 0)
(234.326 0 0)
(234.343 0 0)
(234.36 0 0)
(234.376 0 0)
(234.393 0 0)
(234.41 0 0)
(234.427 0 0)
(234.444 0 0)
(234.461 0 0)
(234.478 0 0)
(234.495 0 0)
(234.512 0 0)
(234.528 0 0)
(234.545 0 0)
(234.562 0 0)
(234.579 0 0)
(234.596 0 0)
(234.613 0 0)
(234.63 0 0)
(234.646 0 0)
(234.663 0 0)
(234.68 0 0)
(234.697 0 0)
(234.714 0 0)
(234.73 0 0)
(234.747 0 0)
(234.764 0 0)
(234.781 0 0)
(234.798 0 0)
(234.815 0 0)
(234.831 0 0)
(234.848 0 0)
(234.865 0 0)
(234.882 0 0)
(234.899 0 0)
(234.916 0 0)
(234.933 0 0)
(234.95 0 0)
(234.966 0 0)
(234.983 0 0)
(235 0 0)
(235.017 0 0)
(235.034 0 0)
(235.051 0 0)
(235.068 0 0)
(235.085 0 0)
(235.101 0 0)
(235.118 0 0)
(235.135 0 0)
(235.152 0 0)
(235.169 0 0)
(235.186 0 0)
(235.202 0 0)
(235.219 0 0)
(235.236 0 0)
(235.253 0 0)
(235.27 0 0)
(235.287 0 0)
(235.303 0 0)
(235.32 0 0)
(235.337 0 0)
(235.354 0 0)
(235.371 0 0)
(235.388 0 0)
(235.405 0 0)
(235.422 0 0)
(235.438 0 0)
(235.455 0 0)
(235.472 0 0)
(235.489 0 0)
(235.506 0 0)
(235.523 0 0)
(235.539 0 0)
(235.556 0 0)
(235.573 0 0)
(235.59 0 0)
(235.607 0 0)
(235.624 0 0)
(235.64 0 0)
(235.657 0 0)
(235.674 0 0)
(235.691 0 0)
(235.708 0 0)
(235.725 0 0)
(235.742 0 0)
(235.758 0 0)
(235.775 0 0)
(235.792 0 0)
(235.809 0 0)
(235.826 0 0)
(235.843 0 0)
(235.859 0 0)
(235.876 0 0)
(235.893 0 0)
(235.91 0 0)
(235.927 0 0)
(235.944 0 0)
(235.961 0 0)
(235.977 0 0)
(235.994 0 0)
(236.011 0 0)
(236.027 0 0)
(236.044 0 0)
(236.061 0 0)
(236.079 0 0)
(236.096 0 0)
(236.112 0 0)
(236.129 0 0)
(236.146 0 0)
(236.162 0 0)
(236.179 0 0)
(236.197 0 0)
(236.214 0 0)
(236.23 0 0)
(236.247 0 0)
(236.264 0 0)
(236.281 0 0)
(236.298 0 0)
(236.315 0 0)
(236.331 0 0)
(236.348 0 0)
(236.365 0 0)
(236.381 0 0)
(236.398 0 0)
(236.415 0 0)
(236.433 0 0)
(236.449 0 0)
(236.466 0 0)
(236.483 0 0)
(236.499 0 0)
(236.516 0 0)
(236.534 0 0)
(236.551 0 0)
(236.567 0 0)
(236.584 0 0)
(236.6 0 0)
(236.617 0 0)
(236.634 0 0)
(236.651 0 0)
(236.668 0 0)
(236.685 0 0)
(236.702 0 0)
(236.719 0 0)
(236.735 0 0)
(236.752 0 0)
(236.769 0 0)
(236.786 0 0)
(236.803 0 0)
(236.821 0 0)
(236.837 0 0)
(236.853 0 0)
(236.87 0 0)
(236.887 0 0)
(236.904 0 0)
(236.922 0 0)
(236.939 0 0)
(236.955 0 0)
(236.971 0 0)
(236.988 0 0)
(237.005 0 0)
(237.023 0 0)
(237.041 0 0)
(237.057 0 0)
(237.072 0 0)
(237.088 0 0)
(237.104 0 0)
(237.122 0 0)
(237.142 0 0)
(237.16 0 0)
(237.176 0 0)
(237.191 0 0)
(237.206 0 0)
(237.222 0 0)
(237.238 0 0)
(237.256 0 0)
(237.276 0 0)
(237.296 0 0)
(237.312 0 0)
(237.327 0 0)
(237.342 0 0)
(237.357 0 0)
(237.373 0 0)
(237.39 0 0)
(237.41 0 0)
(237.428 0 0)
(237.445 0 0)
(237.461 0 0)
(237.477 0 0)
(237.494 0 0)
(237.512 0 0)
(237.528 0 0)
(237.544 0 0)
(237.56 0 0)
(237.579 0 0)
(237.599 0 0)
(237.616 0 0)
(237.631 0 0)
(237.646 0 0)
(237.66 0 0)
(237.676 0 0)
(237.693 0 0)
(237.715 0 0)
(237.735 0 0)
(237.75 0 0)
(237.764 0 0)
(237.779 0 0)
(237.794 0 0)
(237.809 0 0)
(237.827 0 0)
(237.85 0 0)
(237.869 0 0)
(237.885 0 0)
(237.899 0 0)
(237.914 0 0)
(237.929 0 0)
(237.944 0 0)
(237.963 0 0)
(237.985 0 0)
(238.003 0 0)
(238.018 0 0)
(238.033 0 0)
(238.048 0 0)
(238.063 0 0)
(238.082 0 0)
(238.104 0 0)
(238.122 0 0)
(238.137 0 0)
(238.151 0 0)
(238.166 0 0)
(238.181 0 0)
(238.197 0 0)
(238.217 0 0)
(238.239 0 0)
(238.256 0 0)
(238.27 0 0)
(238.285 0 0)
(238.3 0 0)
(238.316 0 0)
(238.335 0 0)
(238.356 0 0)
(238.373 0 0)
(238.388 0 0)
(238.403 0 0)
(238.418 0 0)
(238.435 0 0)
(238.456 0 0)
(238.476 0 0)
(238.492 0 0)
(238.506 0 0)
(238.521 0 0)
(238.535 0 0)
(238.549 0 0)
(238.564 0 0)
(238.579 0 0)
(238.598 0 0)
(238.625 0 0)
(238.65 0 0)
(238.666 0 0)
(238.681 0 0)
(238.695 0 0)
(238.709 0 0)
(238.723 0 0)
(238.738 0 0)
(238.753 0 0)
(238.771 0 0)
(238.794 0 0)
(238.813 0 0)
(238.828 0 0)
(238.843 0 0)
(238.857 0 0)
(238.872 0 0)
(238.888 0 0)
(238.907 0 0)
(238.929 0 0)
(238.946 0 0)
(238.961 0 0)
(238.975 0 0)
(238.99 0 0)
(239.006 0 0)
(239.025 0 0)
(239.048 0 0)
(239.066 0 0)
(239.081 0 0)
(239.095 0 0)
(239.109 0 0)
(239.124 0 0)
(239.139 0 0)
(239.158 0 0)
(239.181 0 0)
(239.2 0 0)
(239.215 0 0)
(239.23 0 0)
(239.244 0 0)
(239.259 0 0)
(239.276 0 0)
(239.297 0 0)
(239.317 0 0)
(239.332 0 0)
(239.347 0 0)
(239.362 0 0)
(239.378 0 0)
(239.398 0 0)
(239.419 0 0)
(239.436 0 0)
(239.45 0 0)
(239.465 0 0)
(239.479 0 0)
(239.494 0 0)
(239.51 0 0)
(239.53 0 0)
(239.553 0 0)
(239.57 0 0)
(239.584 0 0)
(239.599 0 0)
(239.613 0 0)
(239.628 0 0)
(239.643 0 0)
(239.661 0 0)
(239.685 0 0)
(239.707 0 0)
(239.723 0 0)
(239.737 0 0)
(239.752 0 0)
(239.766 0 0)
(239.782 0 0)
(239.802 0 0)
(239.825 0 0)
(239.841 0 0)
(239.856 0 0)
(239.87 0 0)
(239.885 0 0)
(239.9 0 0)
(239.915 0 0)
(239.934 0 0)
(239.958 0 0)
(239.976 0 0)
(239.99 0 0)
(240.005 0 0)
(240.019 0 0)
(240.034 0 0)
(240.05 0 0)
(240.07 0 0)
(240.092 0 0)
(240.11 0 0)
(240.124 0 0)
(240.139 0 0)
(240.153 0 0)
(240.168 0 0)
(240.186 0 0)
(240.207 0 0)
(240.227 0 0)
(240.243 0 0)
(240.257 0 0)
(240.272 0 0)
(240.286 0 0)
(240.301 0 0)
(240.317 0 0)
(240.336 0 0)
(240.359 0 0)
(240.377 0 0)
(240.393 0 0)
(240.408 0 0)
(240.425 0 0)
(240.445 0 0)
(240.463 0 0)
(240.478 0 0)
(240.492 0 0)
(240.507 0 0)
(240.521 0 0)
(240.536 0 0)
(240.552 0 0)
(240.573 0 0)
(240.598 0 0)
(240.617 0 0)
(240.632 0 0)
(240.646 0 0)
(240.661 0 0)
(240.676 0 0)
(240.693 0 0)
(240.715 0 0)
(240.736 0 0)
(240.752 0 0)
(240.766 0 0)
(240.781 0 0)
(240.795 0 0)
(240.809 0 0)
(240.824 0 0)
(240.84 0 0)
(240.859 0 0)
(240.884 0 0)
(240.902 0 0)
(240.917 0 0)
(240.932 0 0)
(240.946 0 0)
(240.961 0 0)
(240.976 0 0)
(240.995 0 0)
(241.019 0 0)
(241.037 0 0)
(241.052 0 0)
(241.067 0 0)
(241.081 0 0)
(241.097 0 0)
(241.114 0 0)
(241.135 0 0)
(241.154 0 0)
(241.169 0 0)
(241.184 0 0)
(241.198 0 0)
(241.213 0 0)
(241.228 0 0)
(241.245 0 0)
(241.267 0 0)
(241.29 0 0)
(241.306 0 0)
(241.321 0 0)
(241.335 0 0)
(241.35 0 0)
(241.365 0 0)
(241.382 0 0)
(241.404 0 0)
(241.426 0 0)
(241.441 0 0)
(241.456 0 0)
(241.47 0 0)
(241.485 0 0)
(241.499 0 0)
(241.515 0 0)
(241.535 0 0)
(241.558 0 0)
(241.575 0 0)
(241.589 0 0)
(241.604 0 0)
(241.618 0 0)
(241.633 0 0)
(241.648 0 0)
(241.666 0 0)
(241.689 0 0)
(241.71 0 0)
(241.725 0 0)
(241.74 0 0)
(241.754 0 0)
(241.769 0 0)
(241.784 0 0)
(241.799 0 0)
(241.818 0 0)
(241.844 0 0)
(241.866 0 0)
(241.881 0 0)
(241.896 0 0)
(241.91 0 0)
(241.924 0 0)
(241.939 0 0)
(241.954 0 0)
(241.971 0 0)
(241.993 0 0)
(242.014 0 0)
(242.029 0 0)
(242.044 0 0)
(242.058 0 0)
(242.073 0 0)
(242.088 0 0)
(242.105 0 0)
(242.126 0 0)
(242.147 0 0)
(242.163 0 0)
(242.178 0 0)
(242.192 0 0)
(242.207 0 0)
(242.222 0 0)
(242.238 0 0)
(242.259 0 0)
(242.286 0 0)
(242.304 0 0)
(242.319 0 0)
(242.333 0 0)
(242.348 0 0)
(242.362 0 0)
(242.377 0 0)
(242.392 0 0)
(242.41 0 0)
(242.431 0 0)
(242.45 0 0)
(242.466 0 0)
(242.48 0 0)
(242.495 0 0)
(242.511 0 0)
(242.529 0 0)
(242.551 0 0)
(242.569 0 0)
(242.584 0 0)
(242.599 0 0)
(242.613 0 0)
(242.628 0 0)
(242.643 0 0)
(242.661 0 0)
(242.683 0 0)
(242.704 0 0)
(242.72 0 0)
(242.734 0 0)
(242.749 0 0)
(242.763 0 0)
(242.778 0 0)
(242.796 0 0)
(242.818 0 0)
(242.838 0 0)
(242.854 0 0)
(242.868 0 0)
(242.882 0 0)
(242.897 0 0)
(242.912 0 0)
(242.927 0 0)
(242.943 0 0)
(242.967 0 0)
(242.996 0 0)
(243.014 0 0)
(243.029 0 0)
(243.043 0 0)
(243.057 0 0)
(243.071 0 0)
(243.086 0 0)
(243.101 0 0)
(243.118 0 0)
(243.139 0 0)
(243.159 0 0)
(243.175 0 0)
(243.189 0 0)
(243.204 0 0)
(243.219 0 0)
(243.234 0 0)
(243.25 0 0)
(243.271 0 0)
(243.294 0 0)
(243.31 0 0)
(243.325 0 0)
(243.339 0 0)
(243.354 0 0)
(243.368 0 0)
(243.383 0 0)
(243.4 0 0)
(243.423 0 0)
(243.448 0 0)
(243.465 0 0)
(243.48 0 0)
(243.494 0 0)
(243.509 0 0)
(243.524 0 0)
(243.539 0 0)
(243.557 0 0)
(243.578 0 0)
(243.597 0 0)
(243.612 0 0)
(243.627 0 0)
(243.642 0 0)
(243.656 0 0)
(243.672 0 0)
(243.689 0 0)
(243.712 0 0)
(243.731 0 0)
(243.746 0 0)
(243.761 0 0)
(243.776 0 0)
(243.791 0 0)
(243.808 0 0)
(243.829 0 0)
(243.848 0 0)
(243.863 0 0)
(243.878 0 0)
(243.893 0 0)
(243.907 0 0)
(243.922 0 0)
(243.94 0 0)
(243.963 0 0)
(243.986 0 0)
(244.002 0 0)
(244.017 0 0)
(244.032 0 0)
(244.046 0 0)
(244.061 0 0)
(244.077 0 0)
(244.097 0 0)
(244.119 0 0)
(244.135 0 0)
(244.15 0 0)
(244.165 0 0)
(244.18 0 0)
(244.195 0 0)
(244.212 0 0)
(244.234 0 0)
(244.252 0 0)
(244.267 0 0)
(244.282 0 0)
(244.296 0 0)
(244.311 0 0)
(244.325 0 0)
(244.34 0 0)
(244.355 0 0)
(244.372 0 0)
(244.397 0 0)
(244.429 0 0)
(244.45 0 0)
(244.464 0 0)
(244.478 0 0)
(244.49 0 0)
(244.503 0 0)
(244.517 0 0)
(244.532 0 0)
(244.547 0 0)
(244.563 0 0)
(244.583 0 0)
(244.606 0 0)
(244.623 0 0)
(244.638 0 0)
(244.653 0 0)
(244.667 0 0)
(244.682 0 0)
(244.697 0 0)
(244.716 0 0)
(244.74 0 0)
(244.762 0 0)
(244.778 0 0)
(244.792 0 0)
(244.807 0 0)
(244.821 0 0)
(244.836 0 0)
(244.853 0 0)
(244.872 0 0)
(244.892 0 0)
(244.909 0 0)
(244.924 0 0)
(244.939 0 0)
(244.954 0 0)
(244.971 0 0)
(244.992 0 0)
(245.012 0 0)
(245.028 0 0)
(245.042 0 0)
(245.057 0 0)
(245.072 0 0)
(245.087 0 0)
(245.104 0 0)
(245.125 0 0)
(245.147 0 0)
(245.163 0 0)
(245.178 0 0)
(245.192 0 0)
(245.207 0 0)
(245.223 0 0)
(245.241 0 0)
(245.262 0 0)
(245.28 0 0)
(245.295 0 0)
(245.31 0 0)
(245.325 0 0)
(245.34 0 0)
(245.356 0 0)
(245.377 0 0)
(245.398 0 0)
(245.414 0 0)
(245.428 0 0)
(245.443 0 0)
(245.457 0 0)
(245.472 0 0)
(245.487 0 0)
(245.502 0 0)
(245.518 0 0)
(245.539 0 0)
(245.57 0 0)
(245.594 0 0)
(245.609 0 0)
(245.624 0 0)
(245.637 0 0)
(245.649 0 0)
(245.664 0 0)
(245.678 0 0)
(245.693 0 0)
(245.708 0 0)
(245.726 0 0)
(245.75 0 0)
(245.771 0 0)
(245.786 0 0)
(245.801 0 0)
(245.815 0 0)
(245.83 0 0)
(245.845 0 0)
(245.862 0 0)
(245.883 0 0)
(245.903 0 0)
(245.918 0 0)
(245.933 0 0)
(245.947 0 0)
(245.962 0 0)
(245.977 0 0)
(245.992 0 0)
(246.011 0 0)
(246.036 0 0)
(246.059 0 0)
(246.075 0 0)
(246.09 0 0)
(246.105 0 0)
(246.12 0 0)
(246.135 0 0)
(246.153 0 0)
(246.175 0 0)
(246.192 0 0)
(246.207 0 0)
(246.222 0 0)
(246.236 0 0)
(246.251 0 0)
(246.266 0 0)
(246.282 0 0)
(246.302 0 0)
(246.326 0 0)
(246.343 0 0)
(246.358 0 0)
(246.372 0 0)
(246.387 0 0)
(246.402 0 0)
(246.417 0 0)
(246.435 0 0)
(246.458 0 0)
(246.477 0 0)
(246.492 0 0)
(246.507 0 0)
(246.522 0 0)
(246.537 0 0)
(246.552 0 0)
(246.57 0 0)
(246.592 0 0)
(246.611 0 0)
(246.626 0 0)
(246.641 0 0)
(246.656 0 0)
(246.67 0 0)
(246.685 0 0)
(246.7 0 0)
(246.715 0 0)
(246.73 0 0)
(246.751 0 0)
(246.781 0 0)
(246.806 0 0)
(246.822 0 0)
(246.836 0 0)
(246.85 0 0)
(246.863 0 0)
(246.877 0 0)
(246.891 0 0)
(246.906 0 0)
(246.921 0 0)
(246.935 0 0)
(246.95 0 0)
(246.966 0 0)
(246.983 0 0)
(247.008 0 0)
(247.041 0 0)
(247.061 0 0)
(247.076 0 0)
(247.09 0 0)
(247.102 0 0)
(247.115 0 0)
(247.129 0 0)
(247.144 0 0)
(247.159 0 0)
(247.175 0 0)
(247.193 0 0)
(247.216 0 0)
(247.234 0 0)
(247.249 0 0)
(247.264 0 0)
(247.278 0 0)
(247.292 0 0)
(247.307 0 0)
(247.322 0 0)
(247.336 0 0)
(247.352 0 0)
(247.369 0 0)
(247.394 0 0)
(247.427 0 0)
(247.447 0 0)
(247.462 0 0)
(247.476 0 0)
(247.489 0 0)
(247.503 0 0)
(247.518 0 0)
(247.532 0 0)
(247.548 0 0)
(247.566 0 0)
(247.586 0 0)
(247.603 0 0)
(247.618 0 0)
(247.633 0 0)
(247.648 0 0)
(247.663 0 0)
(247.679 0 0)
(247.7 0 0)
(247.72 0 0)
(247.736 0 0)
(247.751 0 0)
(247.766 0 0)
(247.78 0 0)
(247.795 0 0)
(247.81 0 0)
(247.826 0 0)
(247.848 0 0)
(247.879 0 0)
(247.903 0 0)
(247.918 0 0)
(247.933 0 0)
(247.946 0 0)
(247.958 0 0)
(247.972 0 0)
(247.987 0 0)
(248.002 0 0)
(248.018 0 0)
(248.036 0 0)
(248.058 0 0)
(248.075 0 0)
(248.09 0 0)
(248.105 0 0)
(248.119 0 0)
(248.134 0 0)
(248.148 0 0)
(248.163 0 0)
(248.178 0 0)
(248.194 0 0)
(248.217 0 0)
(248.25 0 0)
(248.276 0 0)
(248.291 0 0)
(248.306 0 0)
(248.318 0 0)
(248.327 0 0)
(248.338 0 0)
(248.353 0 0)
(248.367 0 0)
(248.382 0 0)
(248.397 0 0)
(248.413 0 0)
(248.436 0 0)
(248.469 0 0)
(248.495 0 0)
(248.511 0 0)
(248.525 0 0)
(248.537 0 0)
(248.548 0 0)
(248.562 0 0)
(248.576 0 0)
(248.591 0 0)
(248.606 0 0)
(248.623 0 0)
(248.645 0 0)
(248.666 0 0)
(248.682 0 0)
(248.697 0 0)
(248.712 0 0)
(248.726 0 0)
(248.741 0 0)
(248.758 0 0)
(248.777 0 0)
(248.797 0 0)
(248.814 0 0)
(248.828 0 0)
(248.843 0 0)
(248.858 0 0)
(248.873 0 0)
(248.889 0 0)
(248.907 0 0)
(248.934 0 0)
(248.961 0 0)
(248.977 0 0)
(248.992 0 0)
(249.006 0 0)
(249.018 0 0)
(249.028 0 0)
(249.042 0 0)
(249.057 0 0)
(249.071 0 0)
(249.086 0 0)
(249.102 0 0)
(249.121 0 0)
(249.152 0 0)
(249.184 0 0)
(249.202 0 0)
(249.217 0 0)
(249.23 0 0)
(249.241 0 0)
(249.254 0 0)
(249.268 0 0)
(249.283 0 0)
(249.298 0 0)
(249.315 0 0)
(249.336 0 0)
(249.354 0 0)
(249.369 0 0)
(249.384 0 0)
(249.399 0 0)
(249.414 0 0)
(249.428 0 0)
(249.443 0 0)
(249.459 0 0)
(249.477 0 0)
(249.504 0 0)
(249.534 0 0)
(249.553 0 0)
(249.568 0 0)
(249.582 0 0)
(249.595 0 0)
(249.609 0 0)
(249.624 0 0)
(249.639 0 0)
(249.654 0 0)
(249.672 0 0)
(249.692 0 0)
(249.709 0 0)
(249.724 0 0)
(249.739 0 0)
(249.754 0 0)
(249.769 0 0)
(249.785 0 0)
(249.803 0 0)
(249.826 0 0)
(249.845 0 0)
(249.86 0 0)
(249.875 0 0)
(249.89 0 0)
(249.904 0 0)
(249.919 0 0)
(249.934 0 0)
(249.949 0 0)
(249.965 0 0)
(249.984 0 0)
(250.011 0 0)
(250.038 0 0)
(250.055 0 0)
(250.07 0 0)
(250.085 0 0)
(250.099 0 0)
(250.114 0 0)
(250.129 0 0)
(250.143 0 0)
(250.158 0 0)
(250.174 0 0)
(250.19 0 0)
(250.209 0 0)
(250.231 0 0)
(250.248 0 0)
(250.263 0 0)
(250.278 0 0)
(250.293 0 0)
(250.308 0 0)
(250.323 0 0)
(250.339 0 0)
(250.361 0 0)
(250.387 0 0)
(250.405 0 0)
(250.421 0 0)
(250.435 0 0)
(250.45 0 0)
(250.463 0 0)
(250.478 0 0)
(250.493 0 0)
(250.508 0 0)
(250.523 0 0)
(250.539 0 0)
(250.559 0 0)
(250.586 0 0)
(250.609 0 0)
(250.625 0 0)
(250.639 0 0)
(250.654 0 0)
(250.667 0 0)
(250.681 0 0)
(250.695 0 0)
(250.71 0 0)
(250.725 0 0)
(250.74 0 0)
(250.755 0 0)
(250.77 0 0)
(250.787 0 0)
(250.813 0 0)
(250.847 0 0)
(250.868 0 0)
(250.883 0 0)
(250.897 0 0)
(250.909 0 0)
(250.917 0 0)
(250.929 0 0)
(250.944 0 0)
(250.959 0 0)
(250.974 0 0)
(250.989 0 0)
(251.009 0 0)
(251.039 0 0)
(251.07 0 0)
(251.087 0 0)
(251.102 0 0)
(251.116 0 0)
(251.127 0 0)
(251.14 0 0)
(251.154 0 0)
(251.169 0 0)
(251.184 0 0)
(251.199 0 0)
(251.214 0 0)
(251.229 0 0)
(251.245 0 0)
(251.265 0 0)
(251.292 0 0)
(251.313 0 0)
(251.328 0 0)
(251.343 0 0)
(251.358 0 0)
(251.373 0 0)
(251.388 0 0)
(251.402 0 0)
(251.417 0 0)
(251.433 0 0)
(251.448 0 0)
(251.468 0 0)
(251.497 0 0)
(251.522 0 0)
(251.538 0 0)
(251.553 0 0)
(251.567 0 0)
(251.581 0 0)
(251.595 0 0)
(251.61 0 0)
(251.625 0 0)
(251.64 0 0)
(251.655 0 0)
(251.673 0 0)
(251.693 0 0)
(251.711 0 0)
(251.727 0 0)
(251.743 0 0)
(251.759 0 0)
(251.777 0 0)
(251.798 0 0)
(251.816 0 0)
(251.831 0 0)
(251.846 0 0)
(251.861 0 0)
(251.876 0 0)
(251.891 0 0)
(251.909 0 0)
(251.928 0 0)
(251.945 0 0)
(251.96 0 0)
(251.975 0 0)
(251.99 0 0)
(252.005 0 0)
(252.02 0 0)
(252.035 0 0)
(252.05 0 0)
(252.068 0 0)
(252.094 0 0)
(252.128 0 0)
(252.149 0 0)
(252.164 0 0)
(252.178 0 0)
(252.191 0 0)
(252.204 0 0)
(252.219 0 0)
(252.233 0 0)
(252.249 0 0)
(252.264 0 0)
(252.282 0 0)
(252.3 0 0)
(252.316 0 0)
(252.33 0 0)
(252.345 0 0)
(252.36 0 0)
(252.375 0 0)
(252.39 0 0)
(252.406 0 0)
(252.425 0 0)
(252.453 0 0)
(252.482 0 0)
(252.5 0 0)
(252.515 0 0)
(252.529 0 0)
(252.541 0 0)
(252.555 0 0)
(252.569 0 0)
(252.584 0 0)
(252.6 0 0)
(252.615 0 0)
(252.634 0 0)
(252.656 0 0)
(252.674 0 0)
(252.689 0 0)
(252.704 0 0)
(252.719 0 0)
(252.734 0 0)
(252.75 0 0)
(252.768 0 0)
(252.789 0 0)
(252.809 0 0)
(252.824 0 0)
(252.839 0 0)
(252.854 0 0)
(252.869 0 0)
(252.885 0 0)
(252.903 0 0)
(252.925 0 0)
(252.945 0 0)
(252.961 0 0)
(252.976 0 0)
(252.991 0 0)
(253.006 0 0)
(253.021 0 0)
(253.037 0 0)
(253.055 0 0)
(253.075 0 0)
(253.093 0 0)
(253.108 0 0)
(253.124 0 0)
(253.139 0 0)
(253.156 0 0)
(253.176 0 0)
(253.196 0 0)
(253.211 0 0)
(253.226 0 0)
(253.241 0 0)
(253.256 0 0)
(253.271 0 0)
(253.287 0 0)
(253.303 0 0)
(253.324 0 0)
(253.347 0 0)
(253.364 0 0)
(253.379 0 0)
(253.394 0 0)
(253.408 0 0)
(253.423 0 0)
(253.438 0 0)
(253.453 0 0)
(253.468 0 0)
(253.483 0 0)
(253.5 0 0)
(253.525 0 0)
(253.558 0 0)
(253.58 0 0)
(253.595 0 0)
(253.61 0 0)
(253.623 0 0)
(253.635 0 0)
(253.65 0 0)
(253.665 0 0)
(253.68 0 0)
(253.695 0 0)
(253.713 0 0)
(253.732 0 0)
(253.749 0 0)
(253.764 0 0)
(253.779 0 0)
(253.794 0 0)
(253.809 0 0)
(253.824 0 0)
(253.84 0 0)
(253.857 0 0)
(253.879 0 0)
(253.905 0 0)
(253.923 0 0)
(253.939 0 0)
(253.953 0 0)
(253.968 0 0)
(253.983 0 0)
(253.998 0 0)
(254.013 0 0)
(254.028 0 0)
(254.043 0 0)
(254.058 0 0)
(254.073 0 0)
(254.088 0 0)
(254.105 0 0)
(254.129 0 0)
(254.163 0 0)
(254.186 0 0)
(254.201 0 0)
(254.216 0 0)
(254.229 0 0)
(254.24 0 0)
(254.254 0 0)
(254.269 0 0)
(254.284 0 0)
(254.299 0 0)
(254.316 0 0)
(254.337 0 0)
(254.356 0 0)
(254.372 0 0)
(254.387 0 0)
(254.402 0 0)
(254.417 0 0)
(254.433 0 0)
(254.449 0 0)
(254.47 0 0)
(254.495 0 0)
(254.514 0 0)
(254.529 0 0)
(254.544 0 0)
(254.559 0 0)
(254.574 0 0)
(254.589 0 0)
(254.604 0 0)
(254.62 0 0)
(254.639 0 0)
(254.659 0 0)
(254.675 0 0)
(254.69 0 0)
(254.705 0 0)
(254.72 0 0)
(254.735 0 0)
(254.75 0 0)
(254.765 0 0)
(254.781 0 0)
(254.799 0 0)
(254.824 0 0)
(254.853 0 0)
(254.871 0 0)
(254.886 0 0)
(254.901 0 0)
(254.915 0 0)
(254.929 0 0)
(254.944 0 0)
(254.959 0 0)
(254.974 0 0)
(254.99 0 0)
(255.008 0 0)
(255.028 0 0)
(255.044 0 0)
(255.059 0 0)
(255.074 0 0)
(255.089 0 0)
(255.104 0 0)
(255.12 0 0)
(255.135 0 0)
(255.15 0 0)
(255.168 0 0)
(255.194 0 0)
(255.225 0 0)
(255.244 0 0)
(255.259 0 0)
(255.274 0 0)
(255.286 0 0)
(255.296 0 0)
(255.309 0 0)
(255.324 0 0)
(255.339 0 0)
(255.354 0 0)
(255.37 0 0)
(255.389 0 0)
(255.417 0 0)
(255.444 0 0)
(255.462 0 0)
(255.477 0 0)
(255.491 0 0)
(255.505 0 0)
(255.518 0 0)
(255.533 0 0)
(255.548 0 0)
(255.563 0 0)
(255.578 0 0)
(255.594 0 0)
(255.609 0 0)
(255.625 0 0)
(255.641 0 0)
(255.656 0 0)
(255.672 0 0)
(255.688 0 0)
(255.709 0 0)
(255.739 0 0)
(255.767 0 0)
(255.784 0 0)
(255.799 0 0)
(255.813 0 0)
(255.824 0 0)
(255.832 0 0)
(255.844 0 0)
(255.859 0 0)
(255.874 0 0)
(255.889 0 0)
(255.904 0 0)
(255.92 0 0)
(255.937 0 0)
(255.961 0 0)
(255.998 0 0)
(256.026 0 0)
(256.042 0 0)
(256.057 0 0)
(256.07 0 0)
(256.081 0 0)
(256.093 0 0)
(256.107 0 0)
(256.122 0 0)
(256.137 0 0)
(256.152 0 0)
(256.167 0 0)
(256.182 0 0)
(256.198 0 0)
(256.213 0 0)
(256.229 0 0)
(256.244 0 0)
(256.259 0 0)
(256.276 0 0)
(256.296 0 0)
(256.327 0 0)
(256.356 0 0)
(256.373 0 0)
(256.388 0 0)
(256.402 0 0)
(256.414 0 0)
(256.427 0 0)
(256.442 0 0)
(256.457 0 0)
(256.472 0 0)
(256.488 0 0)
(256.507 0 0)
(256.53 0 0)
(256.548 0 0)
(256.563 0 0)
(256.578 0 0)
(256.593 0 0)
(256.608 0 0)
(256.623 0 0)
(256.638 0 0)
(256.653 0 0)
(256.668 0 0)
(256.684 0 0)
(256.704 0 0)
(256.732 0 0)
(256.756 0 0)
(256.772 0 0)
(256.787 0 0)
(256.801 0 0)
(256.815 0 0)
(256.83 0 0)
(256.845 0 0)
(256.86 0 0)
(256.875 0 0)
(256.891 0 0)
(256.911 0 0)
(256.934 0 0)
(256.952 0 0)
(256.967 0 0)
(256.982 0 0)
(256.997 0 0)
(257.012 0 0)
(257.027 0 0)
(257.043 0 0)
(257.06 0 0)
(257.08 0 0)
(257.099 0 0)
(257.115 0 0)
(257.131 0 0)
(257.146 0 0)
(257.162 0 0)
(257.179 0 0)
(257.2 0 0)
(257.219 0 0)
(257.235 0 0)
(257.251 0 0)
(257.266 0 0)
(257.281 0 0)
(257.296 0 0)
(257.312 0 0)
(257.33 0 0)
(257.35 0 0)
(257.366 0 0)
(257.382 0 0)
(257.397 0 0)
(257.412 0 0)
(257.427 0 0)
(257.442 0 0)
(257.457 0 0)
(257.473 0 0)
(257.49 0 0)
(257.514 0 0)
(257.548 0 0)
(257.572 0 0)
(257.588 0 0)
(257.602 0 0)
(257.616 0 0)
(257.627 0 0)
(257.64 0 0)
(257.654 0 0)
(257.669 0 0)
(257.684 0 0)
(257.7 0 0)
(257.716 0 0)
(257.733 0 0)
(257.752 0 0)
(257.768 0 0)
(257.783 0 0)
(257.799 0 0)
(257.815 0 0)
(257.832 0 0)
(257.855 0 0)
(257.881 0 0)
(257.899 0 0)
(257.914 0 0)
(257.929 0 0)
(257.944 0 0)
(257.958 0 0)
(257.973 0 0)
(257.988 0 0)
(258.003 0 0)
(258.018 0 0)
(258.033 0 0)
(258.049 0 0)
(258.065 0 0)
(258.084 0 0)
(258.11 0 0)
(258.131 0 0)
(258.147 0 0)
(258.162 0 0)
(258.177 0 0)
(258.192 0 0)
(258.207 0 0)
(258.222 0 0)
(258.237 0 0)
(258.253 0 0)
(258.268 0 0)
(258.286 0 0)
(258.31 0 0)
(258.338 0 0)
(258.356 0 0)
(258.372 0 0)
(258.387 0 0)
(258.401 0 0)
(258.415 0 0)
(258.43 0 0)
(258.445 0 0)
(258.461 0 0)
(258.476 0 0)
(258.493 0 0)
(258.511 0 0)
(258.529 0 0)
(258.545 0 0)
(258.56 0 0)
(258.575 0 0)
(258.59 0 0)
(258.605 0 0)
(258.621 0 0)
(258.638 0 0)
(258.661 0 0)
(258.687 0 0)
(258.705 0 0)
(258.721 0 0)
(258.736 0 0)
(258.75 0 0)
(258.764 0 0)
(258.778 0 0)
(258.793 0 0)
(258.808 0 0)
(258.823 0 0)
(258.838 0 0)
(258.854 0 0)
(258.87 0 0)
(258.889 0 0)
(258.918 0 0)
(258.949 0 0)
(258.967 0 0)
(258.983 0 0)
(258.997 0 0)
(259.01 0 0)
(259.021 0 0)
(259.035 0 0)
(259.05 0 0)
(259.065 0 0)
(259.08 0 0)
(259.095 0 0)
(259.111 0 0)
(259.126 0 0)
(259.142 0 0)
(259.16 0 0)
(259.178 0 0)
(259.198 0 0)
(259.22 0 0)
(259.243 0 0)
(259.261 0 0)
(259.277 0 0)
(259.292 0 0)
(259.307 0 0)
(259.322 0 0)
(259.337 0 0)
(259.352 0 0)
(259.367 0 0)
(259.383 0 0)
(259.398 0 0)
(259.415 0 0)
(259.437 0 0)
(259.461 0 0)
(259.479 0 0)
(259.494 0 0)
(259.509 0 0)
(259.524 0 0)
(259.538 0 0)
(259.55 0 0)
(259.564 0 0)
(259.579 0 0)
(259.594 0 0)
(259.609 0 0)
(259.625 0 0)
(259.641 0 0)
(259.662 0 0)
(259.696 0 0)
(259.728 0 0)
(259.745 0 0)
(259.761 0 0)
(259.775 0 0)
(259.787 0 0)
(259.795 0 0)
(259.806 0 0)
(259.821 0 0)
(259.836 0 0)
(259.851 0 0)
(259.867 0 0)
(259.883 0 0)
(259.901 0 0)
(259.925 0 0)
(259.952 0 0)
(259.969 0 0)
(259.985 0 0)
(260 0 0)
(260.015 0 0)
(260.029 0 0)
(260.044 0 0)
(260.059 0 0)
(260.075 0 0)
(260.09 0 0)
(260.107 0 0)
(260.125 0 0)
(260.142 0 0)
(260.157 0 0)
(260.173 0 0)
(260.188 0 0)
(260.203 0 0)
(260.218 0 0)
(260.233 0 0)
(260.249 0 0)
(260.266 0 0)
(260.29 0 0)
(260.323 0 0)
(260.346 0 0)
(260.361 0 0)
(260.376 0 0)
(260.39 0 0)
(260.402 0 0)
(260.415 0 0)
(260.43 0 0)
(260.445 0 0)
(260.46 0 0)
(260.476 0 0)
(260.496 0 0)
(260.521 0 0)
(260.542 0 0)
(260.558 0 0)
(260.573 0 0)
(260.588 0 0)
(260.602 0 0)
(260.615 0 0)
(260.629 0 0)
(260.644 0 0)
(260.659 0 0)
(260.674 0 0)
(260.69 0 0)
(260.708 0 0)
(260.732 0 0)
(260.759 0 0)
(260.777 0 0)
(260.792 0 0)
(260.807 0 0)
(260.822 0 0)
(260.836 0 0)
(260.851 0 0)
(260.866 0 0)
(260.881 0 0)
(260.897 0 0)
(260.913 0 0)
(260.932 0 0)
(260.955 0 0)
(260.973 0 0)
(260.989 0 0)
(261.004 0 0)
(261.02 0 0)
(261.035 0 0)
(261.051 0 0)
(261.067 0 0)
(261.086 0 0)
(261.105 0 0)
(261.121 0 0)
(261.136 0 0)
(261.151 0 0)
(261.166 0 0)
(261.182 0 0)
(261.197 0 0)
(261.212 0 0)
(261.228 0 0)
(261.245 0 0)
(261.27 0 0)
(261.301 0 0)
(261.322 0 0)
(261.338 0 0)
(261.353 0 0)
(261.367 0 0)
(261.38 0 0)
(261.394 0 0)
(261.409 0 0)
(261.424 0 0)
(261.439 0 0)
(261.455 0 0)
(261.472 0 0)
(261.49 0 0)
(261.507 0 0)
(261.522 0 0)
(261.537 0 0)
(261.553 0 0)
(261.568 0 0)
(261.583 0 0)
(261.599 0 0)
(261.617 0 0)
(261.641 0 0)
(261.667 0 0)
(261.685 0 0)
(261.7 0 0)
(261.715 0 0)
(261.73 0 0)
(261.743 0 0)
(261.755 0 0)
(261.769 0 0)
(261.784 0 0)
(261.8 0 0)
(261.815 0 0)
(261.83 0 0)
(261.847 0 0)
(261.866 0 0)
(261.897 0 0)
(261.928 0 0)
(261.946 0 0)
(261.962 0 0)
(261.976 0 0)
(261.989 0 0)
(261.998 0 0)
(262.01 0 0)
(262.025 0 0)
(262.04 0 0)
(262.056 0 0)
(262.072 0 0)
(262.09 0 0)
(262.116 0 0)
(262.145 0 0)
(262.163 0 0)
(262.179 0 0)
(262.194 0 0)
(262.208 0 0)
(262.22 0 0)
(262.234 0 0)
(262.249 0 0)
(262.264 0 0)
(262.28 0 0)
(262.296 0 0)
(262.313 0 0)
(262.333 0 0)
(262.352 0 0)
(262.368 0 0)
(262.383 0 0)
(262.399 0 0)
(262.414 0 0)
(262.43 0 0)
(262.449 0 0)
(262.47 0 0)
(262.487 0 0)
(262.503 0 0)
(262.519 0 0)
(262.534 0 0)
(262.55 0 0)
(262.565 0 0)
(262.583 0 0)
(262.604 0 0)
(262.623 0 0)
(262.639 0 0)
(262.654 0 0)
(262.669 0 0)
(262.685 0 0)
(262.7 0 0)
(262.715 0 0)
(262.73 0 0)
(262.745 0 0)
(262.761 0 0)
(262.777 0 0)
(262.794 0 0)
(262.816 0 0)
(262.845 0 0)
(262.867 0 0)
(262.882 0 0)
(262.898 0 0)
(262.913 0 0)
(262.927 0 0)
(262.942 0 0)
(262.957 0 0)
(262.973 0 0)
(262.988 0 0)
(263.003 0 0)
(263.02 0 0)
(263.038 0 0)
(263.059 0 0)
(263.076 0 0)
(263.092 0 0)
(263.108 0 0)
(263.123 0 0)
(263.139 0 0)
(263.156 0 0)
(263.172 0 0)
(263.187 0 0)
(263.202 0 0)
(263.218 0 0)
(263.233 0 0)
(263.248 0 0)
(263.264 0 0)
(263.28 0 0)
(263.296 0 0)
(263.319 0 0)
(263.353 0 0)
(263.38 0 0)
(263.397 0 0)
(263.412 0 0)
(263.426 0 0)
(263.439 0 0)
(263.447 0 0)
(263.459 0 0)
(263.474 0 0)
(263.49 0 0)
(263.505 0 0)
(263.521 0 0)
(263.537 0 0)
(263.555 0 0)
(263.578 0 0)
(263.6 0 0)
(263.617 0 0)
(263.632 0 0)
(263.647 0 0)
(263.662 0 0)
(263.677 0 0)
(263.691 0 0)
(263.705 0 0)
(263.721 0 0)
(263.736 0 0)
(263.751 0 0)
(263.767 0 0)
(263.783 0 0)
(263.802 0 0)
(263.83 0 0)
(263.864 0 0)
(263.884 0 0)
(263.9 0 0)
(263.915 0 0)
(263.928 0 0)
(263.939 0 0)
(263.949 0 0)
(263.964 0 0)
(263.979 0 0)
(263.994 0 0)
(264.01 0 0)
(264.025 0 0)
(264.042 0 0)
(264.062 0 0)
(264.088 0 0)
(264.108 0 0)
(264.124 0 0)
(264.139 0 0)
(264.155 0 0)
(264.17 0 0)
(264.184 0 0)
(264.198 0 0)
(264.214 0 0)
(264.229 0 0)
(264.244 0 0)
(264.26 0 0)
(264.276 0 0)
(264.294 0 0)
(264.318 0 0)
(264.342 0 0)
(264.36 0 0)
(264.375 0 0)
(264.39 0 0)
(264.405 0 0)
(264.419 0 0)
(264.432 0 0)
(264.446 0 0)
(264.461 0 0)
(264.476 0 0)
(264.492 0 0)
(264.507 0 0)
(264.524 0 0)
(264.546 0 0)
(264.579 0 0)
(264.607 0 0)
(264.624 0 0)
(264.639 0 0)
(264.654 0 0)
(264.666 0 0)
(264.675 0 0)
(264.686 0 0)
(264.701 0 0)
(264.716 0 0)
(264.732 0 0)
(264.747 0 0)
(264.763 0 0)
(264.781 0 0)
(264.806 0 0)
(264.832 0 0)
(264.85 0 0)
(264.865 0 0)
(264.881 0 0)
(264.896 0 0)
(264.911 0 0)
(264.926 0 0)
(264.941 0 0)
(264.957 0 0)
(264.973 0 0)
(264.99 0 0)
(265.01 0 0)
(265.031 0 0)
(265.048 0 0)
(265.063 0 0)
(265.079 0 0)
(265.094 0 0)
(265.11 0 0)
(265.125 0 0)
(265.141 0 0)
(265.158 0 0)
(265.175 0 0)
(265.192 0 0)
(265.207 0 0)
(265.223 0 0)
(265.238 0 0)
(265.253 0 0)
(265.269 0 0)
(265.284 0 0)
(265.3 0 0)
(265.317 0 0)
(265.338 0 0)
(265.368 0 0)
(265.393 0 0)
(265.41 0 0)
(265.425 0 0)
(265.44 0 0)
(265.455 0 0)
(265.468 0 0)
(265.482 0 0)
(265.498 0 0)
(265.513 0 0)
(265.529 0 0)
(265.544 0 0)
(265.56 0 0)
(265.577 0 0)
(265.598 0 0)
(265.618 0 0)
(265.634 0 0)
(265.65 0 0)
(265.665 0 0)
(265.681 0 0)
(265.696 0 0)
(265.711 0 0)
(265.727 0 0)
(265.742 0 0)
(265.757 0 0)
(265.773 0 0)
(265.788 0 0)
(265.804 0 0)
(265.819 0 0)
(265.836 0 0)
(265.855 0 0)
(265.883 0 0)
(265.913 0 0)
(265.932 0 0)
(265.947 0 0)
(265.962 0 0)
(265.976 0 0)
(265.987 0 0)
(265.998 0 0)
(266.012 0 0)
(266.027 0 0)
(266.043 0 0)
(266.059 0 0)
(266.076 0 0)
(266.099 0 0)
(266.13 0 0)
(266.153 0 0)
(266.169 0 0)
(266.185 0 0)
(266.199 0 0)
(266.212 0 0)
(266.221 0 0)
(266.233 0 0)
(266.248 0 0)
(266.263 0 0)
(266.278 0 0)
(266.294 0 0)
(266.31 0 0)
(266.329 0 0)
(266.355 0 0)
(266.382 0 0)
(266.4 0 0)
(266.416 0 0)
(266.431 0 0)
(266.446 0 0)
(266.461 0 0)
(266.476 0 0)
(266.492 0 0)
(266.507 0 0)
(266.523 0 0)
(266.539 0 0)
(266.557 0 0)
(266.576 0 0)
(266.592 0 0)
(266.607 0 0)
(266.623 0 0)
(266.638 0 0)
(266.654 0 0)
(266.669 0 0)
(266.685 0 0)
(266.701 0 0)
(266.718 0 0)
(266.741 0 0)
(266.766 0 0)
(266.784 0 0)
(266.8 0 0)
(266.815 0 0)
(266.831 0 0)
(266.846 0 0)
(266.861 0 0)
(266.876 0 0)
(266.891 0 0)
(266.907 0 0)
(266.922 0 0)
(266.938 0 0)
(266.955 0 0)
(266.975 0 0)
(266.994 0 0)
(267.01 0 0)
(267.026 0 0)
(267.042 0 0)
(267.058 0 0)
(267.076 0 0)
(267.098 0 0)
(267.12 0 0)
(267.137 0 0)
(267.152 0 0)
(267.168 0 0)
(267.183 0 0)
(267.198 0 0)
(267.214 0 0)
(267.229 0 0)
(267.244 0 0)
(267.26 0 0)
(267.275 0 0)
(267.291 0 0)
(267.307 0 0)
(267.327 0 0)
(267.351 0 0)
(267.372 0 0)
(267.388 0 0)
(267.403 0 0)
(267.419 0 0)
(267.434 0 0)
(267.45 0 0)
(267.465 0 0)
(267.48 0 0)
(267.495 0 0)
(267.51 0 0)
(267.526 0 0)
(267.541 0 0)
(267.557 0 0)
(267.573 0 0)
(267.589 0 0)
(267.61 0 0)
(267.638 0 0)
(267.663 0 0)
(267.68 0 0)
(267.695 0 0)
(267.711 0 0)
(267.725 0 0)
(267.738 0 0)
(267.751 0 0)
(267.766 0 0)
(267.782 0 0)
(267.797 0 0)
(267.813 0 0)
(267.829 0 0)
(267.846 0 0)
(267.867 0 0)
(267.891 0 0)
(267.909 0 0)
(267.925 0 0)
(267.94 0 0)
(267.956 0 0)
(267.971 0 0)
(267.986 0 0)
(268.001 0 0)
(268.016 0 0)
(268.032 0 0)
(268.048 0 0)
(268.064 0 0)
(268.082 0 0)
(268.106 0 0)
(268.129 0 0)
(268.146 0 0)
(268.162 0 0)
(268.177 0 0)
(268.193 0 0)
(268.208 0 0)
(268.223 0 0)
(268.238 0 0)
(268.253 0 0)
(268.269 0 0)
(268.284 0 0)
(268.3 0 0)
(268.316 0 0)
(268.334 0 0)
(268.357 0 0)
(268.381 0 0)
(268.398 0 0)
(268.414 0 0)
(268.43 0 0)
(268.445 0 0)
(268.461 0 0)
(268.476 0 0)
(268.492 0 0)
(268.507 0 0)
(268.523 0 0)
(268.54 0 0)
(268.56 0 0)
(268.578 0 0)
(268.594 0 0)
(268.61 0 0)
(268.625 0 0)
(268.641 0 0)
(268.656 0 0)
(268.672 0 0)
(268.687 0 0)
(268.703 0 0)
(268.718 0 0)
(268.735 0 0)
(268.754 0 0)
(268.778 0 0)
(268.801 0 0)
(268.818 0 0)
(268.834 0 0)
(268.849 0 0)
(268.865 0 0)
(268.88 0 0)
(268.896 0 0)
(268.911 0 0)
(268.927 0 0)
(268.943 0 0)
(268.961 0 0)
(268.981 0 0)
(268.999 0 0)
(269.015 0 0)
(269.03 0 0)
(269.046 0 0)
(269.062 0 0)
(269.078 0 0)
(269.097 0 0)
(269.118 0 0)
(269.136 0 0)
(269.152 0 0)
(269.168 0 0)
(269.184 0 0)
(269.199 0 0)
(269.215 0 0)
(269.231 0 0)
(269.247 0 0)
(269.265 0 0)
(269.283 0 0)
(269.299 0 0)
(269.314 0 0)
(269.33 0 0)
(269.345 0 0)
(269.361 0 0)
(269.376 0 0)
(269.392 0 0)
(269.408 0 0)
(269.426 0 0)
(269.45 0 0)
(269.476 0 0)
(269.494 0 0)
(269.51 0 0)
(269.526 0 0)
(269.541 0 0)
(269.556 0 0)
(269.569 0 0)
(269.582 0 0)
(269.597 0 0)
(269.612 0 0)
(269.628 0 0)
(269.644 0 0)
(269.66 0 0)
(269.678 0 0)
(269.702 0 0)
(269.728 0 0)
(269.747 0 0)
(269.763 0 0)
(269.778 0 0)
(269.794 0 0)
(269.809 0 0)
(269.823 0 0)
(269.837 0 0)