/*--------------------------------*- C++ -*----------------------------------*\
  =========                 |
  \\      /  F ield         | OpenFOAM: The Open Source CFD Toolbox
   \\    /   O peration     | Website:  https://openfoam.org
    \\  /    A nd           | Version:  9
     \\/     M anipulation  |
\*---------------------------------------------------------------------------*/
FoamFile
{
    format      ascii;
    class       volVectorField;
    location    "0.031";
    object      ddtCorrDdt0(rho,U);
}
// * * * * * * * * * * * * * * * * * * * * * * * * * * * * * * * * * * * * * //

dimensions      [1 -2 -2 0 0 0 0];

internalField   nonuniform List<vector> 
1000
(
(-37.1365 0 0)
(-50.1399 0 0)
(-61.8568 0 0)
(-71.4417 0 0)
(-80.7133 0 0)
(-90.3218 0 0)
(-100.111 0 0)
(-109.853 0 0)
(-119.484 0 0)
(-129.061 0 0)
(-138.685 0 0)
(-148.43 0 0)
(-158.269 0 0)
(-168.113 0 0)
(-177.862 0 0)
(-187.423 0 0)
(-196.787 0 0)
(-206.089 0 0)
(-215.482 0 0)
(-225.024 0 0)
(-234.755 0 0)
(-244.7 0 0)
(-254.806 0 0)
(-265.022 0 0)
(-275.307 0 0)
(-285.505 0 0)
(-295.484 0 0)
(-305.327 0 0)
(-315.075 0 0)
(-324.788 0 0)
(-334.583 0 0)
(-344.461 0 0)
(-354.91 0 0)
(-364.944 0 0)
(-374.688 0 0)
(-384.465 0 0)
(-394.167 0 0)
(-403.854 0 0)
(-413.603 0 0)
(-423.333 0 0)
(-432.992 0 0)
(-442.609 0 0)
(-452.267 0 0)
(-461.977 0 0)
(-471.691 0 0)
(-481.381 0 0)
(-491.071 0 0)
(-500.794 0 0)
(-510.535 0 0)
(-520.248 0 0)
(-529.916 0 0)
(-539.565 0 0)
(-549.228 0 0)
(-558.912 0 0)
(-568.597 0 0)
(-578.275 0 0)
(-587.953 0 0)
(-597.64 0 0)
(-607.328 0 0)
(-617.003 0 0)
(-626.659 0 0)
(-636.307 0 0)
(-645.963 0 0)
(-655.631 0 0)
(-665.3 0 0)
(-674.96 0 0)
(-684.62 0 0)
(-694.283 0 0)
(-703.956 0 0)
(-713.615 0 0)
(-723.291 0 0)
(-732.917 0 0)
(-742.592 0 0)
(-752.142 0 0)
(-761.868 0 0)
(-771.348 0 0)
(-781.157 0 0)
(-790.563 0 0)
(-800.453 0 0)
(-809.968 0 0)
(-819.62 0 0)
(-829.365 0 0)
(-838.967 0 0)
(-848.58 0 0)
(-858.144 0 0)
(-867.853 0 0)
(-877.215 0 0)
(-887.264 0 0)
(-896.247 0 0)
(-906.518 0 0)
(-915.602 0 0)
(-925.437 0 0)
(-935.308 0 0)
(-944.242 0 0)
(-954.752 0 0)
(-963.635 0 0)
(-973.434 0 0)
(-983.553 0 0)
(-992.103 0 0)
(-1002.66 0 0)
(-1011.96 0 0)
(-1020.87 0 0)
(-1031.71 0 0)
(-1040.33 0 0)
(-1049.8 0 0)
(-1060.6 0 0)
(-1068.79 0 0)
(-1078.72 0 0)
(-1089.4 0 0)
(-1097.32 0 0)
(-1107.55 0 0)
(-1118.21 0 0)
(-1125.91 0 0)
(-1136.22 0 0)
(-1147.06 0 0)
(-1154.56 0 0)
(-1164.73 0 0)
(-1175.93 0 0)
(-1183.34 0 0)
(-1193.06 0 0)
(-1204.74 0 0)
(-1212.31 0 0)
(-1221.24 0 0)
(-1233.34 0 0)
(-1241.52 0 0)
(-1249.44 0 0)
(-1261.58 0 0)
(-1270.91 0 0)
(-1277.94 0 0)
(-1289.41 0 0)
(-1300.21 0 0)
(-1306.98 0 0)
(-1317 0 0)
(-1329 0 0)
(-1336.53 0 0)
(-1344.76 0 0)
(-1357 0 0)
(-1366.23 0 0)
(-1373.17 0 0)
(-1384.33 0 0)
(-1395.52 0 0)
(-1402.48 0 0)
(-1411.57 0 0)
(-1423.84 0 0)
(-1432.43 0 0)
(-1439.53 0 0)
(-1451.01 0 0)
(-1462.12 0 0)
(-1468.88 0 0)
(-1477.76 0 0)
(-1490.31 0 0)
(-1499.27 0 0)
(-1505.71 0 0)
(-1516.71 0 0)
(-1528.84 0 0)
(-1535.92 0 0)
(-1543.25 0 0)
(-1555.76 0 0)
(-1566.69 0 0)
(-1572.63 0 0)
(-1581.33 0 0)
(-1594.59 0 0)
(-1604.13 0 0)
(-1609.65 0 0)
(-1619.62 0 0)
(-1633.06 0 0)
(-1641.44 0 0)
(-1646.98 0 0)
(-1657.94 0 0)
(-1671.2 0 0)
(-1678.82 0 0)
(-1684.55 0 0)
(-1696.16 0 0)
(-1709.14 0 0)
(-1716.27 0 0)
(-1722.34 0 0)
(-1734.24 0 0)
(-1746.95 0 0)
(-1753.85 0 0)
(-1760.12 0 0)
(-1772.14 0 0)
(-1784.75 0 0)
(-1791.53 0 0)
(-1797.74 0 0)
(-1809.82 0 0)
(-1822.65 0 0)
(-1829.46 0 0)
(-1835.19 0 0)
(-1847.05 0 0)
(-1860.57 0 0)
(-1867.87 0 0)
(-1872.71 0 0)
(-1883.68 0 0)
(-1898.08 0 0)
(-1906.71 0 0)
(-1910.79 0 0)
(-1919.98 0 0)
(-1934.67 0 0)
(-1945.37 0 0)
(-1949.71 0 0)
(-1956.69 0 0)
(-1970.49 0 0)
(-1983.18 0 0)
(-1989 0 0)
(-1994.32 0 0)
(-2006.29 0 0)
(-2020.19 0 0)
(-2027.99 0 0)
(-2032.5 0 0)
(-2042.33 0 0)
(-2056.75 0 0)
(-2066.94 0 0)
(-2071.25 0 0)
(-2078.25 0 0)
(-2092.22 0 0)
(-2105.58 0 0)
(-2111.47 0 0)
(-2115.32 0 0)
(-2126.18 0 0)
(-2141.84 0 0)
(-2152.2 0 0)
(-2155.5 0 0)
(-2161.28 0 0)
(-2175.21 0 0)
(-2190 0 0)
(-2197.09 0 0)
(-2200.2 0 0)
(-2209.19 0 0)
(-2224.42 0 0)
(-2236.43 0 0)
(-2241.04 0 0)
(-2245.87 0 0)
(-2258.15 0 0)
(-2273.3 0 0)
(-2282.03 0 0)
(-2284.99 0 0)
(-2291.97 0 0)
(-2306.92 0 0)
(-2321.59 0 0)
(-2327.82 0 0)
(-2329.83 0 0)
(-2338.31 0 0)
(-2354.68 0 0)
(-2368.82 0 0)
(-2373.76 0 0)
(-2375.87 0 0)
(-2385.49 0 0)
(-2401.99 0 0)
(-2414.84 0 0)
(-2419.04 0 0)
(-2422.24 0 0)
(-2433.47 0 0)
(-2449.89 0 0)
(-2460.99 0 0)
(-2463.93 0 0)
(-2467.78 0 0)
(-2480.65 0 0)
(-2497.87 0 0)
(-2508.34 0 0)
(-2510.12 0 0)
(-2513.32 0 0)
(-2526.34 0 0)
(-2544.26 0 0)
(-2555.54 0 0)
(-2557.68 0 0)
(-2560.42 0 0)
(-2572.44 0 0)
(-2589.75 0 0)
(-2601.44 0 0)
(-2604.48 0 0)
(-2607.62 0 0)
(-2619.35 0 0)
(-2636.42 0 0)
(-2648.24 0 0)
(-2651.18 0 0)
(-2653.46 0 0)
(-2664.5 0 0)
(-2682.37 0 0)
(-2696.26 0 0)
(-2700.23 0 0)
(-2700.96 0 0)
(-2709.08 0 0)
(-2725.97 0 0)
(-2742.04 0 0)
(-2749.03 0 0)
(-2750.24 0 0)
(-2756.01 0 0)
(-2770.75 0 0)
(-2787.33 0 0)
(-2796.52 0 0)
(-2798.28 0 0)
(-2802.17 0 0)
(-2815.19 0 0)
(-2833.13 0 0)
(-2845.72 0 0)
(-2848.76 0 0)
(-2849.66 0 0)
(-2858.21 0 0)
(-2875.32 0 0)
(-2891.87 0 0)
(-2899.59 0 0)
(-2900.85 0 0)
(-2905.31 0 0)
(-2918.7 0 0)
(-2935.94 0 0)
(-2947.54 0 0)
(-2950.74 0 0)
(-2952.91 0 0)
(-2962.64 0 0)
(-2979.98 0 0)
(-2996.03 0 0)
(-3003.14 0 0)
(-3003.75 0 0)
(-3007.49 0 0)
(-3020.57 0 0)
(-3038.89 0 0)
(-3052.62 0 0)
(-3057.4 0 0)
(-3058.85 0 0)
(-3065.91 0 0)
(-3081.2 0 0)
(-3098 0 0)
(-3107.89 0 0)
(-3110.39 0 0)
(-3113.17 0 0)
(-3123.72 0 0)
(-3141.39 0 0)
(-3157.58 0 0)
(-3165.23 0 0)
(-3166.59 0 0)
(-3170.07 0 0)
(-3181.89 0 0)
(-3199.55 0 0)
(-3214.11 0 0)
(-3220.83 0 0)
(-3223.27 0 0)
(-3229.16 0 0)
(-3242.91 0 0)
(-3260.11 0 0)
(-3272.53 0 0)
(-3277.48 0 0)
(-3279.51 0 0)
(-3286.85 0 0)
(-3300 0 0)
(-3320.62 0 0)
(-3331.73 0 0)
(-3336.87 0 0)
(-3339.62 0 0)
(-3348.3 0 0)
(-3358.25 0 0)
(-3379.93 0 0)
(-3390.54 0 0)
(-3394.59 0 0)
(-3400.56 0 0)
(-3409.99 0 0)
(-3417.59 0 0)
(-3431.21 0 0)
(-3450.92 0 0)
(-3455.62 0 0)
(-3461.32 0 0)
(-3466.93 0 0)
(-3477.67 0 0)
(-3493.89 0 0)
(-3503.34 0 0)
(-3513.39 0 0)
(-3527.49 0 0)
(-3534.97 0 0)
(-3542.74 0 0)
(-3555.29 0 0)
(-3568.67 0 0)
(-3580.8 0 0)
(-3590.79 0 0)
(-3598.26 0 0)
(-3606.08 0 0)
(-3616.72 0 0)
(-3629.6 0 0)
(-3642.26 0 0)
(-3652.7 0 0)
(-3660.97 0 0)
(-3669.34 0 0)
(-3680.58 0 0)
(-3694.02 0 0)
(-3707.47 0 0)
(-3718.81 0 0)
(-3727.16 0 0)
(-3735.09 0 0)
(-3745.54 0 0)
(-3758.25 0 0)
(-3771.26 0 0)
(-3783.45 0 0)
(-3793.09 0 0)
(-3801.05 0 0)
(-3810.79 0 0)
(-3823.37 0 0)
(-3837.02 0 0)
(-3850.12 0 0)
(-3860.98 0 0)
(-3868.87 0 0)
(-3877.78 0 0)
(-3890.19 0 0)
(-3903.78 0 0)
(-3916.16 0 0)
(-3927.46 0 0)
(-3937.02 0 0)
(-3945.27 0 0)
(-3955.69 0 0)
(-3969.26 0 0)
(-3983.28 0 0)
(-3995.36 0 0)
(-4005.03 0 0)
(-4013.34 0 0)
(-4022.91 0 0)
(-4035.25 0 0)
(-4048.9 0 0)
(-4061.3 0 0)
(-4071.45 0 0)
(-4080.02 0 0)
(-4088.74 0 0)
(-4099.35 0 0)
(-4112.07 0 0)
(-4125.42 0 0)
(-4137.02 0 0)
(-4145.89 0 0)
(-4153.76 0 0)
(-4163.07 0 0)
(-4174.75 0 0)
(-4187.44 0 0)
(-4199.28 0 0)
(-4208.98 0 0)
(-4216.48 0 0)
(-4223.8 0 0)
(-4233.61 0 0)
(-4246.25 0 0)
(-4258.78 0 0)
(-4268.72 0 0)
(-4276.29 0 0)
(-4283.53 0 0)
(-4292.14 0 0)
(-4302.68 0 0)
(-4314.47 0 0)
(-4325.21 0 0)
(-4333.26 0 0)
(-4339.61 0 0)
(-4346.59 0 0)
(-4355.54 0 0)
(-4365.91 0 0)
(-4376.59 0 0)
(-4386.39 0 0)
(-4394.14 0 0)
(-4400.44 0 0)
(-4407.42 0 0)
(-4416.72 0 0)
(-4427.79 0 0)
(-4438.53 0 0)
(-4447.03 0 0)
(-4453.18 0 0)
(-4458.93 0 0)
(-4466.45 0 0)
(-4476.34 0 0)
(-4486.96 0 0)
(-4496.27 0 0)
(-4503.61 0 0)
(-4509.68 0 0)
(-4516.18 0 0)
(-4524.65 0 0)
(-4534.94 0 0)
(-4545.12 0 0)
(-4553.55 0 0)
(-4560.14 0 0)
(-4565.98 0 0)
(-4572.71 0 0)
(-4581.52 0 0)
(-4592.07 0 0)
(-4602.14 0 0)
(-4609.68 0 0)
(-4615.16 0 0)
(-4621.18 0 0)
(-4629.5 0 0)
(-4639.62 0 0)
(-4649.87 0 0)
(-4658.77 0 0)
(-4665.83 0 0)
(-4671.73 0 0)
(-4678.18 0 0)
(-4686.56 0 0)
(-4696.81 0 0)
(-4707.18 0 0)
(-4715.8 0 0)
(-4722.24 0 0)
(-4727.92 0 0)
(-4735.02 0 0)
(-4744.56 0 0)
(-4755.49 0 0)
(-4765.58 0 0)
(-4773.44 0 0)
(-4779.57 0 0)
(-4785.68 0 0)
(-4793.51 0 0)
(-4803.35 0 0)
(-4813.86 0 0)
(-4823.31 0 0)
(-4830.67 0 0)
(-4836.92 0 0)
(-4843.75 0 0)
(-4852.28 0 0)
(-4862.4 0 0)
(-4872.78 0 0)
(-4882.04 0 0)
(-4889.4 0 0)
(-4895.54 0 0)
(-4902.27 0 0)
(-4911.12 0 0)
(-4922.11 0 0)
(-4933.18 0 0)
(-4941.97 0 0)
(-4947.96 0 0)
(-4953.32 0 0)
(-4960.95 0 0)
(-4971.75 0 0)
(-4983.83 0 0)
(-4994.04 0 0)
(-5001.07 0 0)
(-5006.33 0 0)
(-5012.85 0 0)
(-5022.34 0 0)
(-5034.01 0 0)
(-5045.14 0 0)
(-5053.63 0 0)
(-5059.67 0 0)
(-5065.47 0 0)
(-5073.58 0 0)
(-5084.49 0 0)
(-5096.38 0 0)
(-5106.61 0 0)
(-5113.89 0 0)
(-5119.56 0 0)
(-5126.49 0 0)
(-5136.22 0 0)
(-5147.94 0 0)
(-5159.05 0 0)
(-5167.51 0 0)
(-5173.77 0 0)
(-5180.22 0 0)
(-5189.01 0 0)
(-5200.19 0 0)
(-5211.81 0 0)
(-5221.47 0 0)
(-5228.56 0 0)
(-5234.74 0 0)
(-5242.4 0 0)
(-5252.69 0 0)
(-5264.38 0 0)
(-5275.2 0 0)
(-5283.51 0 0)
(-5290.01 0 0)
(-5296.96 0 0)
(-5306.14 0 0)
(-5317.64 0 0)
(-5329.36 0 0)
(-5339.09 0 0)
(-5346.21 0 0)
(-5352.4 0 0)
(-5360.08 0 0)
(-5370.64 0 0)
(-5383.03 0 0)
(-5394.49 0 0)
(-5403.17 0 0)
(-5409.37 0 0)
(-5415.67 0 0)
(-5424.47 0 0)
(-5436.39 0 0)
(-5449.05 0 0)
(-5459.63 0 0)
(-5466.95 0 0)
(-5472.61 0 0)
(-5479.78 0 0)
(-5490.17 0 0)
(-5503.04 0 0)
(-5515.33 0 0)
(-5524.7 0 0)
(-5531.14 0 0)
(-5537.28 0 0)
(-5545.92 0 0)
(-5557.73 0 0)
(-5570.72 0 0)
(-5581.9 0 0)
(-5589.92 0 0)
(-5596.07 0 0)
(-5603.19 0 0)
(-5613.24 0 0)
(-5625.6 0 0)
(-5637.93 0 0)
(-5647.8 0 0)
(-5655.09 0 0)
(-5661.82 0 0)
(-5670.37 0 0)
(-5681.67 0 0)
(-5694.2 0 0)
(-5705.68 0 0)
(-5714.64 0 0)
(-5721.81 0 0)
(-5729.34 0 0)
(-5738.92 0 0)
(-5750.53 0 0)
(-5762.5 0 0)
(-5773 0 0)
(-5781.51 0 0)
(-5789.09 0 0)
(-5797.56 0 0)
(-5807.9 0 0)
(-5819.63 0 0)
(-5831.24 0 0)
(-5841.34 0 0)
(-5850.04 0 0)
(-5858.16 0 0)
(-5867.25 0 0)
(-5877.71 0 0)
(-5889.07 0 0)
(-5900.24 0 0)
(-5910.27 0 0)
(-5919.17 0 0)
(-5927.8 0 0)
(-5937.19 0 0)
(-5947.65 0 0)
(-5959 0 0)
(-5970.05 0 0)
(-5980.2 0 0)
(-5989.38 0 0)
(-5998.28 0 0)
(-6007.83 0 0)
(-6018.34 0 0)
(-6029.53 0 0)
(-6040.57 0 0)
(-6050.93 0 0)
(-6060.35 0 0)
(-6069.48 0 0)
(-6079.05 0 0)
(-6089.38 0 0)
(-6100.5 0 0)
(-6111.56 0 0)
(-6122.27 0 0)
(-6132.24 0 0)
(-6141.72 0 0)
(-6151.42 0 0)
(-6161.54 0 0)
(-6172.35 0 0)
(-6183.37 0 0)
(-6194.27 0 0)
(-6204.65 0 0)
(-6214.51 0 0)
(-6224.25 0 0)
(-6234.23 0 0)
(-6244.81 0 0)
(-6255.69 0 0)
(-6266.82 0 0)
(-6277.54 0 0)
(-6287.87 0 0)
(-6298 0 0)
(-6308.07 0 0)
(-6318.44 0 0)
(-6329.08 0 0)
(-6340 0 0)
(-6350.91 0 0)
(-6361.73 0 0)
(-6372.2 0 0)
(-6382.63 0 0)
(-6393.06 0 0)
(-6403.66 0 0)
(-6414.39 0 0)
(-6425.22 0 0)
(-6436.08 0 0)
(-6446.87 0 0)
(-6457.66 0 0)
(-6468.31 0 0)
(-6479.02 0 0)
(-6489.75 0 0)
(-6500.54 0 0)
(-6511.37 0 0)
(-6522.26 0 0)
(-6533.16 0 0)
(-6544.13 0 0)
(-6555.04 0 0)
(-6566.04 0 0)
(-6576.93 0 0)
(-6587.79 0 0)
(-6598.76 0 0)
(-6609.59 0 0)
(-6620.62 0 0)
(-6631.49 0 0)
(-6642.54 0 0)
(-6653.55 0 0)
(-6664.62 0 0)
(-6675.79 0 0)
(-6686.78 0 0)
(-6697.9 0 0)
(-6708.88 0 0)
(-6719.97 0 0)
(-6731.05 0 0)
(-6742.18 0 0)
(-6753.43 0 0)
(-6764.55 0 0)
(-6775.9 0 0)
(-6786.95 0 0)
(-6798.25 0 0)
(-6809.39 0 0)
(-6820.53 0 0)
(-6831.86 0 0)
(-6842.79 0 0)
(-6854.35 0 0)
(-6865.32 0 0)
(-6876.88 0 0)
(-6888.03 0 0)
(-6899.28 0 0)
(-6910.7 0 0)
(-6921.7 0 0)
(-6933.33 0 0)
(-6944.25 0 0)
(-6955.94 0 0)
(-6967.14 0 0)
(-6978.49 0 0)
(-6990.08 0 0)
(-7001.23 0 0)
(-7012.82 0 0)
(-7024 0 0)
(-7035.4 0 0)
(-7046.84 0 0)
(-7058.07 0 0)
(-7069.91 0 0)
(-7080.92 0 0)
(-7093.02 0 0)
(-7103.98 0 0)
(-7115.89 0 0)
(-7127.34 0 0)
(-7138.71 0 0)
(-7150.57 0 0)
(-7161.55 0 0)
(-7173.74 0 0)
(-7184.49 0 0)
(-7196.93 0 0)
(-7207.62 0 0)
(-7220.11 0 0)
(-7230.98 0 0)
(-7243.39 0 0)
(-7254.64 0 0)
(-7266.14 0 0)
(-7278.94 0 0)
(-7288.46 0 0)
(-7302.97 0 0)
(-7311.6 0 0)
(-7325.76 0 0)
(-7335.97 0 0)
(-7347.81 0 0)
(-7360.6 0 0)
(-7370.07 0 0)
(-7385.01 0 0)
(-7392.77 0 0)
(-7409.04 0 0)
(-7416.47 0 0)
(-7431.58 0 0)
(-7441.99 0 0)
(-7453.1 0 0)
(-7467.25 0 0)
(-7475.96 0 0)
(-7491.37 0 0)
(-7498.92 0 0)
(-7516.36 0 0)
(-7521.57 0 0)
(-7539.73 0 0)
(-7547.46 0 0)
(-7560.03 0 0)
(-7574.71 0 0)
(-7581.38 0 0)
(-7599.78 0 0)
(-7604.57 0 0)
(-7624.63 0 0)
(-7627.78 0 0)
(-7648.29 0 0)
(-7653.29 0 0)
(-7669.5 0 0)
(-7680.77 0 0)
(-7689.29 0 0)
(-7709.95 0 0)
(-7708.14 0 0)
(-7737.11 0 0)
(-7733.01 0 0)
(-7757.12 0 0)
(-7762.5 0 0)
(-7777.45 0 0)
(-7788.26 0 0)
(-7800.33 0 0)
(-7815.83 0 0)
(-7818.54 0 0)
(-7845.87 0 0)
(-7840.87 0 0)
(-7866.76 0 0)
(-7870.69 0 0)
(-7886.59 0 0)
(-7897.38 0 0)
(-7908.91 0 0)
(-7924.78 0 0)
(-7930.01 0 0)
(-7950.27 0 0)
(-7956.65 0 0)
(-7971.64 0 0)
(-7981.55 0 0)
(-7999.52 0 0)
(-8001.74 0 0)
(-8025.15 0 0)
(-8030.48 0 0)
(-8042.34 0 0)
(-8062.33 0 0)
(-8062.52 0 0)
(-8087.73 0 0)
(-8089.71 0 0)
(-8108.89 0 0)
(-8116.52 0 0)
(-8134.17 0 0)
(-8140.88 0 0)
(-8156.64 0 0)
(-8170.66 0 0)
(-8177.55 0 0)
(-8196.74 0 0)
(-8203.47 0 0)
(-8221.15 0 0)
(-8227.88 0 0)
(-8247.72 0 0)
(-8251.06 0 0)
(-8275.27 0 0)
(-8274.55 0 0)
(-8297.93 0 0)
(-8308.05 0 0)
(-8313.06 0 0)
(-8338.28 0 0)
(-8341.68 0 0)
(-8357.18 0 0)
(-8366.82 0 0)
(-8395.55 0 0)
(-8373.4 0 0)
(-8427.4 0 0)
(-8419.26 0 0)
(-8415.37 0 0)
(-8469.47 0 0)
(-8450.52 0 0)
(-8464.19 0 0)
(-8496.99 0 0)
(-8497.57 0 0)
(-8494.5 0 0)
(-8546.36 0 0)
(-8527.18 0 0)
(-8537.46 0 0)
(-8583.24 0 0)
(-8565.05 0 0)
(-8586.31 0 0)
(-8605.19 0 0)
(-8616.43 0 0)
(-8619.29 0 0)
(-8652.69 0 0)
(-8645.15 0 0)
(-8657.94 0 0)
(-8704.14 0 0)
(-8669.11 0 0)
(-8712.49 0 0)
(-8724.29 0 0)
(-8723.34 0 0)
(-8747.81 0 0)
(-8757.61 0 0)
(-8772.91 0 0)
(-8772.08 0 0)
(-8809.31 0 0)
(-8806.02 0 0)
(-8815.81 0 0)
(-8840.45 0 0)
(-8851.18 0 0)
(-8854.83 0 0)
(-8869.86 0 0)
(-8905.51 0 0)
(-8881.93 0 0)
(-8913.33 0 0)
(-8934.15 0 0)
(-8933.41 0 0)
(-8952.78 0 0)
(-8962.19 0 0)
(-8974.52 0 0)
(-8987.09 0 0)
(-9007.37 0 0)
(-9018.78 0 0)
(-9018.93 0 0)
(-9027.52 0 0)
(-9067.2 0 0)
(-9071.74 0 0)
(-9062.32 0 0)
(-9083.43 0 0)
(-9108.21 0 0)
(-9118.74 0 0)
(-9115.65 0 0)
(-9142.85 0 0)
(-9146.54 0 0)
(-9149.89 0 0)
(-9180.61 0 0)
(-9194.2 0 0)
(-9193.38 0 0)
(-9186.12 0 0)
(-9219.91 0 0)
(-9242.65 0 0)
(-9251.05 0 0)
(-9248.52 0 0)
(-9235.61 0 0)
(-9260.07 0 0)
(-9323.22 0 0)
(-9314.68 0 0)
(-9260.58 0 0)
(-9293.47 0 0)
(-9343.51 0 0)
(-9362.37 0 0)
(-9341.77 0 0)
(-9315.1 0 0)
(-9345.25 0 0)
(-9400.76 0 0)
(-9393.56 0 0)
(-9359.22 0 0)
(-9375.94 0 0)
(-9408.71 0 0)
(-9421.46 0 0)
(-9401.8 0 0)
(-9400.71 0 0)
(-9429.88 0 0)
(-9426.15 0 0)
(-9418.2 0 0)
(-9437.5 0 0)
(-9448.56 0 0)
(-9430.1 0 0)
(-9418.78 0 0)
(-9432.32 0 0)
(-9440.25 0 0)
(-9439.04 0 0)
(-9438.17 0 0)
(-9423.51 0 0)
(-9398.33 0 0)
(-9391.3 0 0)
(-9405.74 0 0)
(-9409.62 0 0)
(-9381.22 0 0)
(-9338.73 0 0)
(-9316.5 0 0)
(-9319.86 0 0)
(-9319.2 0 0)
(-9292.94 0 0)
(-9247.74 0 0)
(-9198.93 0 0)
(-9162.11 0 0)
(-9143.56 0 0)
(-9125.36 0 0)
(-9085.18 0 0)
(-9022.43 0 0)
(-8950.33 0 0)
(-8881.58 0 0)
(-8829.97 0 0)
(-8796.91 0 0)
(-8754.81 0 0)
(-8675.15 0 0)
(-8567.09 0 0)
(-8463.86 0 0)
(-8380.35 0 0)
(-8303.99 0 0)
(-8217.61 0 0)
(-8114.21 0 0)
(-7998.38 0 0)
(-7878.71 0 0)
(-7760.97 0 0)
(-7641.55 0 0)
(-7510.05 0 0)
(-7362.25 0 0)
(-7207.51 0 0)
(-7057.95 0 0)
(-6914.9 0 0)
(-6767.51 0 0)
(-6603.03 0 0)
(-6426.9 0 0)
(-6250.79 0 0)
(-6081.38 0 0)
(-5916.73 0 0)
(-5747.02 0 0)
(-5559.37 0 0)
(-5362.46 0 0)
(-5159.61 0 0)
(-4964.58 0 0)
(-4770.19 0 0)
(-4594.19 0 0)
(-4406.56 0 0)
(-4219.76 0 0)
(-4015.55 0 0)
(-3819.35 0 0)
(-3608.19 0 0)
(-3428.23 0 0)
(-3230.44 0 0)
(-3069.33 0 0)
(-2886.79 0 0)
(-2748.3 0 0)
(-2570.95 0 0)
(-2378.85 0 0)
)
;

boundaryField
{
    sides
    {
        type            calculated;
        value           nonuniform List<vector> 2((-2378.85 0 0) (-37.1365 0 0));
    }
    empty
    {
        type            empty;
    }
}


// ************************************************************************* //
