/*--------------------------------*- C++ -*----------------------------------*\
  =========                 |
  \\      /  F ield         | OpenFOAM: The Open Source CFD Toolbox
   \\    /   O peration     | Website:  https://openfoam.org
    \\  /    A nd           | Version:  9
     \\/     M anipulation  |
\*---------------------------------------------------------------------------*/
FoamFile
{
    format      ascii;
    class       surfaceScalarField;
    location    "0.031";
    object      phi;
}
// * * * * * * * * * * * * * * * * * * * * * * * * * * * * * * * * * * * * * //

dimensions      [1 0 -1 0 0 0 0];

internalField   nonuniform List<scalar> 
999
(
20.8272
21.3141
21.8008
22.2871
22.7731
23.2589
23.7445
24.23
24.7152
25.1998
25.6839
26.1679
26.652
27.1362
27.6204
28.1042
28.5874
29.0698
29.5514
30.0326
30.5136
30.9949
31.4767
31.9593
32.4425
32.9263
33.4106
33.895
34.3795
34.8638
35.3482
35.8327
36.3182
36.804
37.2898
37.7756
38.2612
38.7467
39.2321
39.7175
40.2027
40.6878
41.1728
41.6577
42.1425
42.6273
43.1119
43.5964
44.0809
44.5653
45.0495
45.5337
46.0178
46.5018
46.9857
47.4695
47.9532
48.4368
48.9203
49.4038
49.8871
50.3704
50.8535
51.3366
51.8195
52.3024
52.7851
53.2678
53.7504
54.2329
54.7153
55.1975
55.6798
56.1618
56.6439
57.1257
57.6076
58.0892
58.5709
59.0524
59.5337
60.0151
60.4963
60.9775
61.4585
61.9395
62.4201
62.9011
63.3815
63.8622
64.3425
64.8228
65.3032
65.783
66.2634
66.7431
67.2229
67.7029
68.1821
68.6619
69.1414
69.6203
70.1
70.579
71.0577
71.5371
72.0156
72.4941
72.9733
73.4513
73.9295
74.4085
74.8861
75.364
75.8427
76.3201
76.7975
77.276
77.7531
78.2301
78.7083
79.1853
79.6617
80.1395
80.6166
81.0924
81.5697
82.0468
82.5223
82.9988
83.476
83.9515
84.427
84.9039
85.3796
85.8544
86.3306
86.8067
87.2812
87.7564
88.2325
88.7071
89.1813
89.6569
90.132
90.6056
91.0801
91.5554
92.0293
92.5026
92.9773
93.4519
93.9247
94.398
94.8727
95.3462
95.8183
96.2918
96.766
97.2385
97.7102
98.1837
98.6573
99.1289
99.6004
100.074
100.547
101.017
101.489
101.962
102.434
102.904
103.375
103.848
104.319
104.789
105.26
105.732
106.203
106.672
107.142
107.614
108.085
108.553
109.023
109.494
109.964
110.432
110.901
111.372
111.842
112.31
112.778
113.248
113.718
114.185
114.652
115.122
115.591
116.059
116.525
116.993
117.462
117.93
118.396
118.863
119.331
119.799
120.265
120.73
121.198
121.666
122.131
122.596
123.062
123.53
123.996
124.46
124.924
125.391
125.858
126.322
126.785
127.249
127.716
128.181
128.645
129.107
129.572
130.037
130.501
130.963
131.426
131.89
132.355
132.817
133.278
133.741
134.205
134.669
135.13
135.59
136.052
136.516
136.978
137.438
137.898
138.359
138.822
139.284
139.743
140.202
140.663
141.125
141.585
142.043
142.501
142.962
143.424
143.883
144.34
144.797
145.257
145.718
146.176
146.632
147.089
147.547
148.007
148.465
148.92
149.375
149.833
150.292
150.749
151.203
151.657
152.114
152.572
153.029
153.482
153.935
154.39
154.846
155.303
155.756
156.208
156.661
157.116
157.572
158.025
158.475
158.927
159.38
159.835
160.288
160.738
161.187
161.639
162.092
162.545
162.995
163.443
163.892
164.343
164.795
165.245
165.692
166.139
166.588
167.039
167.489
167.936
168.381
168.827
169.275
169.724
170.171
170.616
171.06
171.505
171.952
172.398
172.843
173.286
173.728
174.171
174.617
175.062
175.504
175.944
176.384
176.826
177.269
177.711
178.151
178.589
179.028
179.468
179.909
180.348
180.785
181.221
181.657
182.094
182.533
182.969
183.404
183.837
184.27
184.705
185.14
185.573
186.005
186.436
186.867
187.297
187.729
188.16
188.591
189.02
189.448
189.877
190.304
190.73
191.157
191.581
192.005
192.428
192.851
193.274
193.697
194.118
194.537
194.956
195.375
195.793
196.211
196.628
197.043
197.458
197.872
198.286
198.699
199.111
199.521
199.93
200.339
200.748
201.156
201.563
201.968
202.372
202.775
203.178
203.581
203.982
204.382
204.781
205.178
205.575
205.972
206.368
206.762
207.155
207.547
207.938
208.329
208.719
209.108
209.496
209.882
210.267
210.652
211.037
211.42
211.803
212.184
212.564
212.944
213.324
213.703
214.081
214.458
214.833
215.209
215.584
215.959
216.334
216.707
217.08
217.452
217.824
218.196
218.568
218.94
219.31
219.681
220.051
220.421
220.792
221.162
221.532
221.901
222.27
222.64
223.01
223.38
223.75
224.12
224.489
224.859
225.23
225.601
225.973
226.344
226.715
227.086
227.458
227.831
228.204
228.578
228.951
229.325
229.698
230.073
230.448
230.824
231.2
231.577
231.953
232.33
232.707
233.086
233.465
233.844
234.223
234.602
234.983
235.364
235.746
236.128
236.51
236.892
237.275
237.659
238.043
238.429
238.814
239.199
239.585
239.971
240.359
240.747
241.136
241.524
241.913
242.302
242.692
243.083
243.475
243.867
244.259
244.651
245.044
245.437
245.832
246.227
246.622
247.018
247.414
247.81
248.207
248.605
249.004
249.403
249.802
250.201
250.601
251.002
251.404
251.806
252.208
252.61
253.013
253.417
253.822
254.227
254.633
255.038
255.444
255.85
256.258
256.667
257.076
257.485
257.893
258.303
258.713
259.125
259.537
259.949
260.362
260.774
261.188
261.602
262.018
262.433
262.849
263.264
263.681
264.098
264.517
264.935
265.354
265.773
266.193
266.613
267.035
267.457
267.879
268.302
268.724
269.147
269.572
269.997
270.423
270.849
271.275
271.701
272.128
272.556
272.986
273.415
273.844
274.274
274.704
275.135
275.567
276
276.433
276.866
277.299
277.733
278.168
278.605
279.041
279.478
279.914
280.351
280.789
281.229
281.669
282.109
282.549
282.989
283.43
283.872
284.315
284.759
285.203
285.647
286.091
286.536
286.982
287.429
287.876
288.324
288.771
289.22
289.669
290.119
290.569
291.021
291.472
291.924
292.376
292.829
293.283
293.737
294.192
294.647
295.103
295.559
296.016
296.474
296.932
297.391
297.85
298.31
298.77
299.231
299.693
300.155
300.618
301.081
301.545
302.009
302.474
302.939
303.405
303.872
304.339
304.807
305.275
305.744
306.214
306.684
307.155
307.626
308.098
308.57
309.043
309.516
309.991
310.465
310.941
311.417
311.893
312.37
312.848
313.326
313.805
314.284
314.764
315.245
315.726
316.207
316.69
317.173
317.656
318.14
318.625
319.11
319.596
320.082
320.57
321.057
321.545
322.034
322.524
323.014
323.504
323.996
324.488
324.98
325.473
325.967
326.461
326.956
327.451
327.947
328.444
328.941
329.439
329.938
330.437
330.937
331.437
331.938
332.44
332.942
333.445
333.948
334.452
334.957
335.462
335.968
336.474
336.981
337.489
337.997
338.506
339.015
339.525
340.036
340.547
341.059
341.572
342.085
342.599
343.113
343.628
344.143
344.66
345.176
345.694
346.212
346.73
347.25
347.769
348.29
348.811
349.333
349.855
350.378
350.901
351.425
351.95
352.475
353.001
353.528
354.055
354.583
355.111
355.64
356.17
356.7
357.231
357.763
358.295
358.827
359.361
359.894
360.429
360.964
361.5
362.036
362.573
363.111
363.649
364.188
364.727
365.268
365.808
366.35
366.891
367.434
367.977
368.521
369.065
369.61
370.156
370.701
371.249
371.795
372.344
372.892
373.441
373.991
374.541
375.093
375.643
376.197
376.749
377.303
377.856
378.411
378.966
379.522
380.078
380.634
381.193
381.75
382.309
382.868
383.428
383.988
384.549
385.111
385.672
386.235
386.798
387.361
387.925
388.491
389.055
389.621
390.187
390.754
391.322
391.888
392.458
393.026
393.595
394.165
394.735
395.306
395.877
396.449
397.02
397.593
398.166
398.74
399.313
399.888
400.462
401.038
401.612
402.189
402.765
403.341
403.919
404.496
405.074
405.651
406.232
406.807
407.389
407.969
408.546
409.129
409.709
410.289
410.871
411.454
412.033
412.618
413.2
413.78
414.367
414.949
415.533
416.117
416.702
417.286
417.873
418.458
419.042
419.632
420.216
420.803
421.392
421.979
422.567
423.156
423.746
424.333
424.925
425.515
426.105
426.697
427.289
427.881
428.472
429.069
429.66
430.254
430.851
431.446
432.042
432.639
433.236
433.834
434.434
435.034
435.634
436.232
436.836
437.44
438.042
438.644
439.25
439.857
440.462
441.07
441.678
442.285
442.896
443.508
444.12
444.729
445.342
445.958
446.575
447.191
447.804
448.418
449.042
449.666
450.281
450.898
451.522
452.149
452.774
453.394
454.016
454.646
455.276
455.901
456.526
457.155
457.788
458.417
459.045
459.677
460.308
460.939
461.571
462.205
462.838
463.468
464.1
464.733
465.367
466.001
466.634
467.264
467.892
468.524
469.157
469.788
470.415
471.038
471.663
472.29
472.916
473.538
474.155
474.769
475.382
475.996
476.608
477.215
477.816
478.41
479.001
479.592
480.182
480.768
481.345
481.912
482.474
483.031
483.585
484.131
484.67
485.2
485.722
486.237
486.743
487.239
487.724
488.199
488.664
489.121
489.567
490
490.422
490.832
491.232
491.623
492.001
492.365
492.715
493.051
493.374
493.686
493.987
494.275
494.55
494.811
495.055
495.288
495.506
495.713
495.905
496.087
496.252
)
;

boundaryField
{
    sides
    {
        type            calculated;
        value           nonuniform List<scalar> 2(496.405 -20.3401);
    }
    empty
    {
        type            empty;
        value           nonuniform List<scalar> 0();
    }
}


// ************************************************************************* //
