/*--------------------------------*- C++ -*----------------------------------*\
  =========                 |
  \\      /  F ield         | OpenFOAM: The Open Source CFD Toolbox
   \\    /   O peration     | Website:  https://openfoam.org
    \\  /    A nd           | Version:  9
     \\/     M anipulation  |
\*---------------------------------------------------------------------------*/
FoamFile
{
    format      ascii;
    class       surfaceScalarField;
    location    "0.031";
    object      phi_0;
}
// * * * * * * * * * * * * * * * * * * * * * * * * * * * * * * * * * * * * * //

dimensions      [1 0 -1 0 0 0 0];

internalField   nonuniform List<scalar> 
999
(
20.8291
21.3164
21.8034
22.2902
22.7765
23.2627
23.7487
24.2346
24.7201
25.2051
25.6897
26.1741
26.6586
27.1432
27.6277
28.1119
28.5955
29.0782
29.5602
30.0418
30.5232
31.0049
31.4871
31.9701
32.4537
32.9379
33.4226
33.9074
34.3922
34.877
35.3617
35.8467
36.3326
36.8188
37.305
37.7911
38.2772
38.7631
39.2489
39.7346
40.2202
40.7057
41.1911
41.6764
42.1616
42.6467
43.1317
43.6167
44.1015
44.5863
45.0709
45.5555
46.04
46.5243
47.0086
47.4928
47.9769
48.4609
48.9448
49.4286
49.9124
50.396
50.8795
51.363
51.8463
52.3295
52.8127
53.2958
53.7787
54.2616
54.7444
55.227
55.7096
56.1921
56.6745
57.1567
57.639
58.121
58.6031
59.0849
59.5667
60.0485
60.5301
61.0116
61.493
61.9744
62.4554
62.9367
63.4175
63.8986
64.3793
64.86
65.3408
65.821
66.3017
66.7818
67.262
67.7424
68.222
68.7022
69.1821
69.6614
70.1414
70.6207
71.0998
71.5797
72.0585
72.5374
73.017
73.4954
73.974
74.4533
74.9313
75.4097
75.8888
76.3664
76.8443
77.3232
77.8006
78.278
78.7566
79.234
79.7107
80.189
80.6664
81.1426
81.6203
82.0978
82.5737
83.0505
83.5281
84.0039
84.4799
84.9572
85.4332
85.9084
86.3851
86.8615
87.3363
87.8119
88.2884
88.7634
89.238
89.714
90.1894
90.6634
91.1383
91.614
92.0882
92.5619
93.0371
93.5119
93.9851
94.4589
94.934
95.4077
95.8803
96.3542
96.8288
97.3015
97.7737
98.2477
98.7216
99.1935
99.6654
100.139
100.612
101.084
101.555
102.029
102.501
102.972
103.443
103.916
104.388
104.858
105.329
105.802
106.273
106.743
107.214
107.686
108.156
108.625
109.096
109.567
110.038
110.506
110.976
111.447
111.917
112.385
112.853
113.324
113.794
114.262
114.729
115.199
115.669
116.137
116.604
117.072
117.542
118.01
118.476
118.943
119.412
119.88
120.346
120.812
121.28
121.748
122.214
122.679
123.146
123.614
124.08
124.545
125.009
125.476
125.944
126.408
126.872
127.337
127.804
128.269
128.733
129.196
129.661
130.127
130.591
131.053
131.516
131.982
132.446
132.909
133.37
133.833
134.298
134.762
135.223
135.683
136.146
136.611
137.073
137.533
137.993
138.456
138.919
139.381
139.84
140.299
140.761
141.224
141.684
142.142
142.601
143.062
143.524
143.983
144.44
144.898
145.359
145.82
146.279
146.735
147.192
147.651
148.111
148.569
149.024
149.481
149.939
150.398
150.855
151.309
151.764
152.221
152.68
153.137
153.59
154.044
154.499
154.956
155.413
155.866
156.319
156.772
157.228
157.683
158.136
158.588
159.04
159.494
159.949
160.402
160.852
161.302
161.754
162.208
162.661
163.111
163.56
164.009
164.461
164.913
165.363
165.811
166.258
166.707
167.159
167.609
168.056
168.502
168.948
169.396
169.846
170.293
170.739
171.183
171.628
172.076
172.523
172.968
173.41
173.853
174.297
174.743
175.188
175.631
176.071
176.512
176.954
177.398
177.84
178.28
178.719
179.158
179.599
180.04
180.479
180.916
181.352
181.789
182.227
182.666
183.103
183.538
183.971
184.405
184.841
185.276
185.709
186.141
186.573
187.003
187.435
187.867
188.299
188.729
189.159
189.588
190.017
190.444
190.871
191.298
191.723
192.147
192.571
192.994
193.418
193.84
194.262
194.682
195.101
195.52
195.939
196.358
196.774
197.19
197.605
198.02
198.434
198.848
199.26
199.671
200.08
200.49
200.899
201.307
201.715
202.12
202.525
202.929
203.332
203.735
204.137
204.537
204.936
205.334
205.732
206.129
206.525
206.92
207.313
207.705
208.097
208.488
208.879
209.268
209.656
210.043
210.429
210.814
211.199
211.583
211.966
212.348
212.728
213.109
213.489
213.868
214.247
214.624
215
215.376
215.752
216.127
216.502
216.876
217.249
217.621
217.994
218.367
218.739
219.111
219.482
219.852
220.223
220.594
220.965
221.335
221.705
222.075
222.445
222.814
223.185
223.555
223.926
224.296
224.666
225.036
225.407
225.779
226.151
226.522
226.894
227.265
227.637
228.01
228.384
228.758
229.132
229.505
229.879
230.254
230.63
231.007
231.383
231.759
232.136
232.513
232.891
233.27
233.649
234.029
234.408
234.788
235.168
235.55
235.932
236.314
236.697
237.08
237.463
237.847
238.232
238.617
239.003
239.389
239.775
240.161
240.549
240.937
241.326
241.716
242.105
242.494
242.884
243.276
243.668
244.06
244.452
244.845
245.238
245.632
246.027
246.422
246.818
247.214
247.61
248.006
248.404
248.803
249.202
249.601
250
250.399
250.8
251.201
251.603
252.006
252.408
252.811
253.214
253.618
254.023
254.429
254.835
255.241
255.647
256.054
256.462
256.871
257.28
257.689
258.099
258.508
258.919
259.331
259.744
260.156
260.569
260.982
261.396
261.811
262.226
262.642
263.058
263.474
263.891
264.309
264.728
265.147
265.566
265.985
266.405
266.826
267.248
267.67
268.093
268.516
268.939
269.362
269.787
270.213
270.639
271.065
271.491
271.918
272.346
272.774
273.204
273.634
274.063
274.493
274.924
275.355
275.788
276.221
276.654
277.088
277.521
277.956
278.391
278.828
279.265
279.702
280.139
280.576
281.015
281.454
281.894
282.335
282.775
283.216
283.657
284.1
284.544
284.988
285.432
285.876
286.321
286.766
287.213
287.66
288.108
288.555
289.003
289.452
289.902
290.352
290.803
291.255
291.706
292.158
292.611
293.064
293.519
293.974
294.429
294.884
295.34
295.797
296.255
296.713
297.172
297.631
298.09
298.55
299.011
299.472
299.934
300.397
300.86
301.324
301.788
302.252
302.718
303.184
303.65
304.118
304.585
305.053
305.522
305.991
306.461
306.932
307.403
307.875
308.347
308.82
309.293
309.767
310.241
310.717
311.192
311.669
312.145
312.623
313.101
313.579
314.059
314.539
315.019
315.5
315.981
316.464
316.946
317.43
317.914
318.398
318.883
319.369
319.855
320.342
320.83
321.318
321.806
322.296
322.786
323.276
323.767
324.259
324.751
325.244
325.738
326.232
326.726
327.222
327.718
328.214
328.711
329.209
329.707
330.206
330.706
331.206
331.707
332.208
332.71
333.213
333.716
334.22
334.724
335.229
335.735
336.241
336.748
337.256
337.764
338.273
338.782
339.292
339.802
340.313
340.825
341.338
341.85
342.364
342.878
343.393
343.909
344.425
344.941
345.458
345.976
346.495
347.014
347.533
348.054
348.575
349.096
349.618
350.141
350.664
351.188
351.713
352.238
352.764
353.29
353.817
354.345
354.873
355.402
355.932
356.462
356.992
357.524
358.056
358.588
359.121
359.655
360.189
360.725
361.26
361.797
362.333
362.871
363.409
363.947
364.487
365.027
365.567
366.108
366.65
367.192
367.736
368.279
368.823
369.368
369.913
370.46
371.006
371.554
372.101
372.65
373.198
373.748
374.299
374.849
375.401
375.952
376.506
377.058
377.613
378.167
378.722
379.278
379.834
380.391
380.947
381.507
382.064
382.624
383.183
383.743
384.304
384.865
385.427
385.989
386.553
387.116
387.68
388.245
388.81
389.375
389.942
390.509
391.075
391.644
392.211
392.781
393.35
393.92
394.49
395.061
395.631
396.203
396.776
397.348
397.921
398.494
399.068
399.642
400.218
400.792
401.369
401.944
402.521
403.098
403.674
404.252
404.83
405.408
405.986
406.567
407.143
407.726
408.306
408.883
409.468
410.047
410.628
411.211
411.793
412.373
412.959
413.541
414.123
414.71
415.292
415.876
416.461
417.047
417.631
418.219
418.804
419.389
419.979
420.563
421.152
421.741
422.328
422.917
423.506
424.096
424.685
425.277
425.867
426.458
427.05
427.643
428.235
428.828
429.424
430.016
430.611
431.208
431.803
432.4
432.998
433.595
434.194
434.794
435.395
435.994
436.594
437.199
437.803
438.404
439.008
439.614
440.221
440.827
441.435
442.044
442.651
443.263
443.876
444.487
445.097
445.711
446.327
446.944
447.56
448.174
448.79
449.415
450.038
450.652
451.27
451.896
452.523
453.147
453.767
454.39
455.021
455.651
456.275
456.901
457.532
458.164
458.793
459.421
460.054
460.685
461.316
461.949
462.583
463.215
463.845
464.477
465.111
465.744
466.378
467.01
467.64
468.268
468.9
469.533
470.163
470.788
471.411
472.036
472.663
473.287
473.907
474.523
475.135
475.747
476.36
476.97
477.575
478.173
478.765
479.354
479.944
480.532
481.114
481.686
482.25
482.809
483.363
483.912
484.455
484.989
485.514
486.031
486.541
487.042
487.533
488.011
488.48
488.94
489.39
489.829
490.256
490.671
491.074
491.468
491.851
492.222
492.578
492.92
493.249
493.564
493.869
494.162
494.443
494.709
494.962
495.199
495.424
495.634
495.834
496.02
496.196
496.354
)
;

boundaryField
{
    sides
    {
        type            calculated;
        value           nonuniform List<scalar> 2(496.501 -20.3416);
    }
    empty
    {
        type            empty;
        value           nonuniform List<scalar> 0();
    }
}


// ************************************************************************* //
