/*--------------------------------*- C++ -*----------------------------------*\
  =========                 |
  \\      /  F ield         | OpenFOAM: The Open Source CFD Toolbox
   \\    /   O peration     | Website:  https://openfoam.org
    \\  /    A nd           | Version:  9
     \\/     M anipulation  |
\*---------------------------------------------------------------------------*/
FoamFile
{
    format      ascii;
    class       volScalarField;
    location    "0.031";
    object      rho_0;
}
// * * * * * * * * * * * * * * * * * * * * * * * * * * * * * * * * * * * * * //

dimensions      [1 -3 0 0 0 0 0];

internalField   nonuniform List<scalar> 
1000
(
0.308287
0.308216
0.308103
0.307999
0.307899
0.307799
0.307699
0.307602
0.307505
0.307405
0.307301
0.307197
0.307097
0.307001
0.30691
0.306819
0.306725
0.306626
0.30652
0.306412
0.306303
0.306198
0.3061
0.306011
0.305931
0.305859
0.305795
0.305734
0.305675
0.305617
0.30556
0.305504
0.305454
0.305412
0.305371
0.305331
0.30529
0.305249
0.305208
0.305167
0.305126
0.305084
0.305043
0.305001
0.30496
0.304918
0.304877
0.304835
0.304794
0.304752
0.30471
0.304669
0.304627
0.304586
0.304544
0.304502
0.304461
0.304419
0.304377
0.304336
0.304294
0.304252
0.304211
0.304169
0.304127
0.304086
0.304044
0.304002
0.303961
0.303919
0.303877
0.303836
0.303794
0.303752
0.30371
0.30367
0.303625
0.303587
0.303541
0.303504
0.303457
0.303421
0.303373
0.303337
0.30329
0.303254
0.303207
0.303169
0.303125
0.303082
0.303044
0.302997
0.30296
0.302915
0.302874
0.302835
0.302788
0.302751
0.302707
0.302663
0.302626
0.30258
0.302539
0.302501
0.302454
0.302414
0.302374
0.302327
0.302289
0.302249
0.302201
0.302164
0.302123
0.302076
0.302038
0.301998
0.30195
0.301912
0.301872
0.301824
0.301785
0.301747
0.301699
0.301658
0.301622
0.301575
0.301531
0.301495
0.301451
0.301404
0.301368
0.301327
0.301279
0.30124
0.301202
0.301155
0.301112
0.301076
0.301032
0.300985
0.300948
0.300908
0.300861
0.300819
0.300782
0.300738
0.300692
0.300654
0.300614
0.300567
0.300525
0.300489
0.300445
0.300398
0.30036
0.300322
0.300275
0.30023
0.300194
0.300154
0.300106
0.300064
0.300028
0.299985
0.299938
0.299897
0.299861
0.299817
0.29977
0.29973
0.299694
0.299649
0.299602
0.299564
0.299526
0.299482
0.299435
0.299397
0.299359
0.299314
0.299269
0.29923
0.299192
0.299147
0.299102
0.299063
0.299026
0.298981
0.298935
0.298896
0.29886
0.298816
0.298769
0.298729
0.298693
0.298651
0.298604
0.298562
0.298526
0.298487
0.29844
0.298396
0.298358
0.298321
0.298277
0.298231
0.298192
0.298155
0.298113
0.298067
0.298026
0.29799
0.29795
0.297904
0.29786
0.297823
0.297787
0.297743
0.297697
0.297656
0.297621
0.297583
0.297537
0.297492
0.297454
0.297419
0.297378
0.297332
0.29729
0.297254
0.297217
0.297173
0.297128
0.29709
0.297055
0.297015
0.29697
0.296927
0.296891
0.296856
0.296815
0.296769
0.296727
0.296692
0.296658
0.296616
0.296571
0.29653
0.296495
0.29646
0.296418
0.296374
0.296335
0.296301
0.296265
0.296222
0.296178
0.296141
0.296108
0.296073
0.29603
0.295986
0.295948
0.295916
0.295882
0.29584
0.295797
0.295759
0.295727
0.295693
0.295652
0.29561
0.295573
0.295541
0.295508
0.295468
0.295426
0.295389
0.295357
0.295326
0.295289
0.295247
0.295209
0.295176
0.295146
0.295112
0.295072
0.295034
0.295001
0.294971
0.294939
0.294901
0.294862
0.294829
0.294801
0.294771
0.294736
0.294698
0.294663
0.294634
0.294606
0.294576
0.294541
0.294505
0.294475
0.294448
0.29442
0.294388
0.294354
0.294322
0.294296
0.294272
0.294244
0.294212
0.29418
0.294152
0.294128
0.294105
0.294078
0.294048
0.29402
0.293996
0.293975
0.293952
0.293926
0.293898
0.293873
0.293854
0.293836
0.293816
0.293791
0.293767
0.293746
0.293729
0.293713
0.293695
0.293675
0.293655
0.293639
0.293626
0.293614
0.293599
0.293582
0.293566
0.293554
0.293546
0.293538
0.293528
0.293516
0.293506
0.293499
0.293496
0.293492
0.293487
0.293481
0.293477
0.293475
0.293476
0.293478
0.293479
0.293479
0.293479
0.293481
0.293486
0.293494
0.293503
0.293514
0.293524
0.293536
0.293551
0.293568
0.293586
0.293605
0.293624
0.293645
0.293668
0.293693
0.293721
0.29375
0.29378
0.293811
0.293844
0.29388
0.293919
0.29396
0.294
0.294043
0.294088
0.294136
0.294187
0.29424
0.294295
0.29435
0.294409
0.29447
0.294534
0.294602
0.294671
0.294741
0.294813
0.294889
0.294969
0.295051
0.295135
0.295222
0.29531
0.295401
0.295496
0.295594
0.295695
0.295798
0.295902
0.296009
0.29612
0.296234
0.296351
0.29647
0.296591
0.296715
0.296841
0.296971
0.297104
0.297239
0.297376
0.297514
0.297655
0.297799
0.297946
0.298096
0.298247
0.2984
0.298554
0.29871
0.29887
0.299032
0.299196
0.299361
0.299527
0.299694
0.299864
0.300036
0.30021
0.300384
0.300559
0.300735
0.300912
0.301091
0.301272
0.301454
0.301637
0.301819
0.302002
0.302187
0.302373
0.302561
0.302748
0.302936
0.303124
0.303312
0.303502
0.303692
0.303884
0.304075
0.304266
0.304457
0.304649
0.304842
0.305036
0.30523
0.305423
0.305616
0.30581
0.306004
0.306199
0.306395
0.30659
0.306785
0.30698
0.307175
0.307371
0.307568
0.307765
0.307961
0.308157
0.308353
0.30855
0.308747
0.308946
0.309144
0.309341
0.309538
0.309736
0.309934
0.310132
0.310332
0.310531
0.310729
0.310927
0.311126
0.311325
0.311525
0.311726
0.311925
0.312125
0.312324
0.312524
0.312725
0.312926
0.313127
0.313328
0.313528
0.313728
0.313929
0.314131
0.314333
0.314536
0.314737
0.314938
0.31514
0.315342
0.315545
0.315749
0.315952
0.316154
0.316356
0.316559
0.316763
0.316967
0.317171
0.317374
0.317577
0.317781
0.317985
0.31819
0.318396
0.318601
0.318805
0.319009
0.319214
0.31942
0.319626
0.319832
0.320037
0.320242
0.320448
0.320655
0.320862
0.321069
0.321276
0.321482
0.321688
0.321895
0.322103
0.322311
0.322519
0.322726
0.322934
0.323141
0.32335
0.323559
0.323768
0.323977
0.324185
0.324393
0.324602
0.324812
0.325023
0.325233
0.325442
0.325652
0.325861
0.326072
0.326283
0.326495
0.326706
0.326916
0.327126
0.327337
0.327549
0.327762
0.327974
0.328186
0.328397
0.328608
0.328821
0.329035
0.329248
0.329461
0.329674
0.329886
0.3301
0.330314
0.330528
0.330743
0.330957
0.33117
0.331384
0.331598
0.331814
0.33203
0.332245
0.33246
0.332675
0.33289
0.333106
0.333323
0.333539
0.333756
0.333972
0.334188
0.334404
0.334621
0.334839
0.335057
0.335274
0.335492
0.335709
0.335927
0.336145
0.336364
0.336583
0.336801
0.33702
0.337239
0.337458
0.337677
0.337897
0.338117
0.338337
0.338557
0.338776
0.338997
0.339217
0.339438
0.33966
0.339881
0.340102
0.340323
0.340544
0.340766
0.340988
0.34121
0.341433
0.341655
0.341878
0.3421
0.342323
0.342546
0.34277
0.342994
0.343217
0.343441
0.343665
0.343889
0.344113
0.344338
0.344563
0.344788
0.345013
0.345238
0.345463
0.345689
0.345914
0.34614
0.346367
0.346593
0.346819
0.347046
0.347273
0.3475
0.347727
0.347954
0.348182
0.34841
0.348638
0.348866
0.349094
0.349322
0.349551
0.34978
0.350009
0.350238
0.350468
0.350697
0.350927
0.351157
0.351387
0.351617
0.351848
0.352078
0.352309
0.35254
0.352772
0.353003
0.353235
0.353467
0.353699
0.353931
0.354163
0.354396
0.354628
0.354861
0.355094
0.355327
0.355561
0.355795
0.356028
0.356262
0.356497
0.356731
0.356965
0.3572
0.357435
0.35767
0.357905
0.358141
0.358376
0.358612
0.358848
0.359084
0.35932
0.359557
0.359794
0.36003
0.360267
0.360505
0.360742
0.360979
0.361217
0.361455
0.361693
0.361931
0.36217
0.362408
0.362647
0.362886
0.363125
0.363364
0.363603
0.363843
0.364083
0.364323
0.364563
0.364804
0.365043
0.365285
0.365525
0.365766
0.366008
0.366248
0.366491
0.366731
0.366975
0.367215
0.367458
0.367701
0.367943
0.368187
0.368428
0.368673
0.368914
0.36916
0.369402
0.369647
0.36989
0.370134
0.37038
0.370622
0.37087
0.371112
0.37136
0.371603
0.37185
0.372096
0.372341
0.372589
0.372832
0.373084
0.373325
0.373578
0.37382
0.374073
0.374317
0.374566
0.374817
0.375061
0.375316
0.375558
0.375815
0.376058
0.376315
0.376559
0.376814
0.377064
0.377314
0.377569
0.377817
0.378074
0.378323
0.37858
0.378831
0.379087
0.379341
0.379597
0.379853
0.380108
0.380367
0.380621
0.380884
0.381137
0.381402
0.381658
0.381921
0.382182
0.382443
0.382708
0.382969
0.383238
0.383499
0.38377
0.384033
0.384305
0.384572
0.384844
0.385115
0.385387
0.385663
0.385935
0.386216
0.386487
0.386774
0.387047
0.387334
0.387614
0.387902
0.388185
0.388475
0.388766
0.389049
0.389356
0.389636
0.389941
0.390237
0.390537
0.390837
0.391146
0.391446
0.391754
0.39207
0.392373
0.392691
0.393008
0.393321
0.393644
0.393964
0.39429
0.394611
0.394947
0.395266
0.395607
0.395939
0.39627
0.396615
0.39695
0.397295
0.397637
0.397985
0.398331
0.398679
0.399036
0.399382
0.399741
0.400095
0.400456
0.40081
0.401175
0.401538
0.401896
0.402266
0.402628
0.402997
0.403363
0.403732
0.404099
0.40447
0.404841
0.405212
0.40558
0.405951
0.406327
0.406696
0.407066
0.407437
0.40781
0.408181
0.408549
0.408922
0.409287
0.409657
0.410025
0.410394
0.410757
0.411119
0.411486
0.411848
0.412212
0.412568
0.412922
0.413279
0.413645
0.413994
0.414339
0.41469
0.415043
0.415393
0.415734
0.416071
0.416413
0.416759
0.417094
0.417424
0.417757
0.418091
0.418421
0.418744
0.419069
0.419394
0.419713
0.420031
0.420351
0.420667
0.420978
0.421288
0.421598
0.421906
0.422213
0.422519
0.422819
0.423116
0.423413
0.423712
0.424009
0.4243
0.424585
0.424871
0.425158
0.425445
0.425728
0.426006
0.42628
0.426553
0.426828
0.427102
0.427372
0.427638
0.427898
0.428155
0.428412
0.428672
0.42893
0.429182
0.429427
0.429667
0.429906
0.430144
0.430379
0.43061
0.430836
0.431058
0.431277
0.431492
0.431703
0.431906
0.432104
0.432298
0.432489
0.432675
0.432855
0.433029
0.433198
0.433364
0.433526
0.433684
0.433835
0.43398
0.434117
0.434251
0.434378
0.434506
0.434623
0.434742
0.434845
0.434952
0.435041
0.43514
0.435216
0.435314
0.435385
0.435495
0.435575
)
;

boundaryField
{
    sides
    {
        type            calculated;
        value           nonuniform List<scalar> 2(0.435575 0.308287);
    }
    empty
    {
        type            empty;
    }
}


// ************************************************************************* //
