/*--------------------------------*- C++ -*----------------------------------*\
  =========                 |
  \\      /  F ield         | OpenFOAM: The Open Source CFD Toolbox
   \\    /   O peration     | Website:  https://openfoam.org
    \\  /    A nd           | Version:  9
     \\/     M anipulation  |
\*---------------------------------------------------------------------------*/
FoamFile
{
    format      ascii;
    class       volScalarField;
    location    "0.025";
    object      T;
}
// * * * * * * * * * * * * * * * * * * * * * * * * * * * * * * * * * * * * * //

dimensions      [0 0 0 1 0 0 0];

internalField   nonuniform List<scalar> 
10000
(
237.977
237.98
237.986
237.992
237.997
238.001
238.006
238.012
238.018
238.024
238.03
238.034
238.037
238.04
238.041
238.042
238.042
238.043
238.043
238.043
238.043
238.042
238.042
238.042
238.042
238.041
238.041
238.041
238.041
238.04
238.04
238.04
238.04
238.039
238.039
238.039
238.039
238.038
238.038
238.038
238.038
238.038
238.037
238.037
238.037
238.037
238.036
238.036
238.036
238.036
238.036
238.035
238.035
238.035
238.035
238.035
238.035
238.034
238.034
238.034
238.034
238.034
238.034
238.033
238.033
238.033
238.033
238.033
238.033
238.032
238.032
238.032
238.032
238.032
238.032
238.031
238.031
238.031
238.031
238.031
238.03
238.03
238.03
238.03
238.03
238.029
238.029
238.029
238.029
238.028
238.028
238.028
238.027
238.027
238.027
238.027
238.026
238.026
238.026
238.025
238.025
238.024
238.024
238.024
238.023
238.023
238.022
238.022
238.021
238.021
238.021
238.02
238.02
238.019
238.019
238.018
238.018
238.017
238.016
238.016
238.015
238.015
238.014
238.014
238.013
238.013
238.012
238.011
238.011
238.01
238.01
238.009
238.009
238.008
238.007
238.007
238.006
238.006
238.005
238.004
238.004
238.003
238.003
238.002
238.002
238.001
238.001
238
237.999
237.999
237.998
237.998
237.997
237.997
237.996
237.996
237.995
237.995
237.994
237.994
237.993
237.993
237.992
237.992
237.991
237.991
237.991
237.99
237.99
237.989
237.989
237.989
237.988
237.988
237.987
237.987
237.987
237.986
237.986
237.985
237.985
237.985
237.984
237.984
237.984
237.983
237.983
237.983
237.982
237.982
237.981
237.981
237.981
237.98
237.98
237.98
237.979
237.979
237.979
237.978
237.978
237.978
237.977
237.977
237.977
237.976
237.976
237.975
237.975
237.975
237.974
237.974
237.974
237.973
237.973
237.973
237.972
237.972
237.972
237.971
237.971
237.971
237.971
237.97
237.97
237.97
237.969
237.969
237.969
237.968
237.968
237.968
237.968
237.967
237.967
237.967
237.966
237.966
237.966
237.966
237.965
237.965
237.965
237.965
237.964
237.964
237.964
237.964
237.964
237.963
237.963
237.963
237.963
237.962
237.962
237.962
237.962
237.962
237.961
237.961
237.961
237.961
237.961
237.961
237.96
237.96
237.96
237.96
237.96
237.959
237.959
237.959
237.959
237.959
237.959
237.958
237.958
237.958
237.958
237.958
237.958
237.957
237.957
237.957
237.957
237.957
237.957
237.957
237.956
237.956
237.956
237.956
237.956
237.956
237.956
237.955
237.955
237.955
237.955
237.955
237.955
237.955
237.954
237.954
237.954
237.954
237.954
237.953
237.953
237.953
237.953
237.953
237.952
237.952
237.952
237.952
237.951
237.951
237.951
237.951
237.95
237.95
237.95
237.949
237.949
237.949
237.949
237.948
237.948
237.948
237.947
237.947
237.947
237.946
237.946
237.945
237.945
237.945
237.944
237.944
237.944
237.943
237.943
237.942
237.942
237.942
237.941
237.941
237.941
237.94
237.94
237.939
237.939
237.939
237.938
237.938
237.937
237.937
237.937
237.936
237.936
237.935
237.935
237.935
237.934
237.934
237.933
237.933
237.932
237.932
237.931
237.931
237.931
237.93
237.93
237.929
237.929
237.928
237.928
237.927
237.926
237.926
237.925
237.925
237.924
237.924
237.923
237.923
237.922
237.921
237.921
237.92
237.92
237.919
237.918
237.918
237.917
237.917
237.916
237.915
237.915
237.914
237.914
237.913
237.912
237.912
237.911
237.911
237.91
237.909
237.909
237.908
237.908
237.907
237.907
237.906
237.905
237.905
237.904
237.904
237.903
237.903
237.902
237.902
237.901
237.901
237.9
237.9
237.899
237.899
237.898
237.897
237.897
237.896
237.896
237.895
237.895
237.894
237.894
237.893
237.893
237.892
237.892
237.891
237.891
237.89
237.89
237.889
237.889
237.888
237.888
237.887
237.887
237.886
237.886
237.885
237.885
237.885
237.884
237.884
237.883
237.883
237.882
237.882
237.881
237.881
237.881
237.88
237.88
237.879
237.879
237.878
237.878
237.878
237.877
237.877
237.877
237.876
237.876
237.876
237.875
237.875
237.874
237.874
237.874
237.873
237.873
237.873
237.872
237.872
237.872
237.871
237.871
237.871
237.87
237.87
237.87
237.869
237.869
237.869
237.868
237.868
237.868
237.867
237.867
237.866
237.866
237.866
237.865
237.865
237.864
237.864
237.864
237.863
237.863
237.862
237.862
237.862
237.861
237.861
237.86
237.86
237.86
237.859
237.859
237.859
237.858
237.858
237.857
237.857
237.857
237.856
237.856
237.856
237.855
237.855
237.855
237.854
237.854
237.854
237.853
237.853
237.853
237.852
237.852
237.852
237.851
237.851
237.851
237.85
237.85
237.85
237.85
237.849
237.849
237.849
237.848
237.848
237.847
237.847
237.847
237.846
237.846
237.846
237.845
237.845
237.844
237.844
237.844
237.843
237.843
237.842
237.842
237.842
237.841
237.841
237.84
237.84
237.839
237.839
237.839
237.838
237.838
237.837
237.837
237.836
237.836
237.836
237.835
237.835
237.834
237.834
237.833
237.833
237.833
237.832
237.832
237.832
237.831
237.831
237.83
237.83
237.83
237.829
237.829
237.829
237.828
237.828
237.828
237.827
237.827
237.827
237.826
237.826
237.826
237.825
237.825
237.825
237.824
237.824
237.824
237.823
237.823
237.823
237.822
237.822
237.821
237.821
237.821
237.82
237.82
237.819
237.819
237.818
237.818
237.817
237.817
237.817
237.816
237.816
237.815
237.815
237.814
237.814
237.813
237.813
237.812
237.812
237.811
237.811
237.81
237.81
237.809
237.809
237.809
237.808
237.808
237.807
237.807
237.806
237.806
237.806
237.805
237.805
237.804
237.804
237.804
237.803
237.803
237.802
237.802
237.802
237.801
237.801
237.801
237.8
237.8
237.8
237.799
237.799
237.799
237.798
237.798
237.798
237.797
237.797
237.796
237.796
237.796
237.795
237.795
237.794
237.794
237.793
237.793
237.793
237.792
237.792
237.791
237.791
237.79
237.79
237.789
237.789
237.788
237.788
237.787
237.787
237.786
237.786
237.785
237.784
237.784
237.783
237.783
237.782
237.782
237.781
237.781
237.78
237.78
237.779
237.779
237.779
237.778
237.778
237.777
237.777
237.776
237.776
237.775
237.775
237.775
237.774
237.774
237.773
237.773
237.773
237.772
237.772
237.772
237.771
237.771
237.77
237.77
237.77
237.769
237.769
237.769
237.768
237.768
237.767
237.767
237.767
237.766
237.766
237.765
237.765
237.764
237.764
237.764
237.763
237.763
237.762
237.762
237.761
237.761
237.76
237.759
237.759
237.758
237.758
237.757
237.757
237.756
237.756
237.755
237.754
237.754
237.753
237.753
237.752
237.752
237.751
237.751
237.75
237.749
237.749
237.748
237.748
237.747
237.747
237.746
237.746
237.745
237.745
237.745
237.744
237.744
237.743
237.743
237.742
237.742
237.742
237.741
237.741
237.74
237.74
237.74
237.739
237.739
237.739
237.738
237.738
237.737
237.737
237.737
237.736
237.736
237.735
237.735
237.735
237.734
237.734
237.733
237.733
237.732
237.732
237.731
237.731
237.73
237.73
237.729
237.729
237.728
237.727
237.727
237.726
237.726
237.725
237.724
237.724
237.723
237.723
237.722
237.721
237.721
237.72
237.72
237.719
237.718
237.718
237.717
237.717
237.716
237.716
237.715
237.714
237.714
237.713
237.713
237.712
237.712
237.711
237.711
237.711
237.71
237.71
237.709
237.709
237.708
237.708
237.707
237.707
237.707
237.706
237.706
237.705
237.705
237.705
237.704
237.704
237.703
237.703
237.703
237.702
237.702
237.701
237.701
237.7
237.7
237.7
237.699
237.699
237.698
237.698
237.697
237.696
237.696
237.695
237.695
237.694
237.694
237.693
237.692
237.692
237.691
237.69
237.69
237.689
237.689
237.688
237.687
237.687
237.686
237.685
237.685
237.684
237.683
237.683
237.682
237.682
237.681
237.68
237.68
237.679
237.679
237.678
237.678
237.677
237.676
237.676
237.675
237.675
237.674
237.674
237.674
237.673
237.673
237.672
237.672
237.671
237.671
237.67
237.67
237.67
237.669
237.669
237.668
237.668
237.668
237.667
237.667
237.666
237.666
237.665
237.665
237.665
237.664
237.664
237.663
237.663
237.662
237.662
237.661
237.661
237.66
237.659
237.659
237.658
237.658
237.657
237.656
237.656
237.655
237.654
237.654
237.653
237.652
237.652
237.651
237.65
237.65
237.649
237.648
237.647
237.647
237.646
237.645
237.645
237.644
237.643
237.643
237.642
237.642
237.641
237.64
237.64
237.639
237.639
237.638
237.638
237.637
237.637
237.636
237.636
237.635
237.635
237.634
237.634
237.633
237.633
237.632
237.632
237.631
237.631
237.631
237.63
237.63
237.629
237.629
237.629
237.628
237.628
237.627
237.627
237.626
237.626
237.625
237.625
237.624
237.624
237.623
237.623
237.622
237.622
237.621
237.62
237.62
237.619
237.619
237.618
237.617
237.617
237.616
237.615
237.614
237.614
237.613
237.612
237.611
237.611
237.61
237.609
237.609
237.608
237.607
237.606
237.606
237.605
237.604
237.604
237.603
237.602
237.602
237.601
237.6
237.6
237.599
237.598
237.598
237.597
237.597
237.596
237.596
237.595
237.595
237.594
237.594
237.593
237.593
237.592
237.592
237.591
237.591
237.591
237.59
237.59
237.589
237.589
237.588
237.588
237.588
237.587
237.587
237.586
237.586
237.585
237.585
237.584
237.584
237.583
237.583
237.582
237.582
237.581
237.58
237.58
237.579
237.578
237.578
237.577
237.576
237.576
237.575
237.574
237.573
237.573
237.572
237.571
237.57
237.57
237.569
237.568
237.567
237.566
237.566
237.565
237.564
237.563
237.563
237.562
237.561
237.56
237.56
237.559
237.558
237.558
237.557
237.556
237.556
237.555
237.555
237.554
237.553
237.553
237.552
237.552
237.551
237.551
237.55
237.55
237.549
237.549
237.548
237.548
237.548
237.547
237.547
237.546
237.546
237.545
237.545
237.545
237.544
237.544
237.543
237.543
237.542
237.542
237.541
237.541
237.54
237.54
237.539
237.538
237.538
237.537
237.537
237.536
237.535
237.535
237.534
237.533
237.532
237.532
237.531
237.53
237.529
237.528
237.528
237.527
237.526
237.525
237.524
237.523
237.523
237.522
237.521
237.52
237.519
237.518
237.518
237.517
237.516
237.515
237.515
237.514
237.513
237.512
237.512
237.511
237.511
237.51
237.509
237.509
237.508
237.507
237.507
237.506
237.506
237.505
237.505
237.504
237.504
237.503
237.503
237.503
237.502
237.502
237.501
237.501
237.5
237.5
237.5
237.499
237.499
237.498
237.498
237.497
237.497
237.496
237.496
237.495
237.495
237.494
237.494
237.493
237.492
237.492
237.491
237.49
237.49
237.489
237.488
237.487
237.487
237.486
237.485
237.484
237.483
237.482
237.482
237.481
237.48
237.479
237.478
237.477
237.476
237.475
237.474
237.474
237.473
237.472
237.471
237.47
237.469
237.469
237.468
237.467
237.466
237.465
237.465
237.464
237.463
237.463
237.462
237.461
237.461
237.46
237.46
237.459
237.458
237.458
237.457
237.457
237.456
237.456
237.455
237.455
237.455
237.454
237.454
237.453
237.453
237.452
237.452
237.452
237.451
237.451
237.45
237.45
237.449
237.449
237.448
237.448
237.447
237.447
237.446
237.446
237.445
237.444
237.444
237.443
237.442
237.442
237.441
237.44
237.439
237.438
237.438
237.437
237.436
237.435
237.434
237.433
237.432
237.431
237.43
237.429
237.428
237.427
237.426
237.425
237.424
237.423
237.423
237.422
237.421
237.42
237.419
237.418
237.417
237.417
237.416
237.415
237.414
237.413
237.413
237.412
237.411
237.411
237.41
237.409
237.409
237.408
237.408
237.407
237.407
237.406
237.406
237.405
237.405
237.404
237.404
237.403
237.403
237.402
237.402
237.402
237.401
237.401
237.4
237.4
237.399
237.399
237.399
237.398
237.398
237.397
237.397
237.396
237.395
237.395
237.394
237.394
237.393
237.392
237.391
237.391
237.39
237.389
237.388
237.387
237.386
237.385
237.385
237.384
237.383
237.382
237.381
237.38
237.379
237.378
237.377
237.376
237.375
237.373
237.372
237.371
237.371
237.37
237.369
237.368
237.367
237.366
237.365
237.364
237.363
237.362
237.362
237.361
237.36
237.359
237.359
237.358
237.357
237.357
237.356
237.355
237.355
237.354
237.354
237.353
237.353
237.352
237.352
237.351
237.351
237.35
237.35
237.349
237.349
237.348
237.348
237.348
237.347
237.347
237.346
237.346
237.345
237.345
237.345
237.344
237.344
237.343
237.342
237.342
237.341
237.341
237.34
237.339
237.338
237.338
237.337
237.336
237.335
237.334
237.333
237.332
237.331
237.331
237.329
237.328
237.327
237.326
237.325
237.324
237.323
237.322
237.321
237.32
237.319
237.318
237.317
237.316
237.315
237.314
237.312
237.312
237.311
237.31
237.309
237.308
237.307
237.306
237.305
237.304
237.304
237.303
237.302
237.301
237.301
237.3
237.299
237.299
237.298
237.298
237.297
237.297
237.296
237.296
237.295
237.295
237.294
237.294
237.293
237.293
237.292
237.292
237.292
237.291
237.291
237.29
237.29
237.289
237.289
237.289
237.288
237.288
237.287
237.287
237.286
237.285
237.285
237.284
237.283
237.283
237.282
237.281
237.28
237.279
237.279
237.278
237.277
237.276
237.275
237.274
237.273
237.271
237.27
237.269
237.268
237.267
237.266
237.265
237.263
237.262
237.261
237.26
237.259
237.258
237.257
237.256
237.254
237.253
237.252
237.251
237.25
237.249
237.248
237.247
237.247
237.246
237.245
237.244
237.243
237.243
237.242
237.241
237.24
237.24
237.239
237.239
237.238
237.237
237.237
237.236
237.236
237.235
237.235
237.234
237.234
237.234
237.233
237.233
237.232
237.232
237.232
237.231
237.231
237.23
237.23
237.23
237.229
237.229
237.228
237.228
237.227
237.227
237.226
237.225
237.225
237.224
237.223
237.222
237.222
237.221
237.22
237.219
237.218
237.217
237.216
237.215
237.214
237.213
237.212
237.21
237.209
237.208
237.207
237.206
237.204
237.203
237.202
237.201
237.199
237.198
237.197
237.196
237.195
237.193
237.192
237.191
237.19
237.189
237.188
237.187
237.186
237.185
237.184
237.183
237.182
237.181
237.181
237.18
237.179
237.178
237.178
237.177
237.176
237.175
237.175
237.174
237.174
237.173
237.173
237.172
237.172
237.171
237.171
237.171
237.17
237.17
237.17
237.169
237.169
237.168
237.168
237.168
237.167
237.167
237.166
237.166
237.166
237.165
237.165
237.164
237.163
237.163
237.162
237.161
237.161
237.16
237.159
237.158
237.158
237.156
237.156
237.155
237.154
237.152
237.151
237.15
237.149
237.148
237.147
237.145
237.144
237.143
237.141
237.14
237.139
237.137
237.136
237.135
237.134
237.132
237.131
237.13
237.128
237.127
237.126
237.125
237.124
237.122
237.121
237.12
237.119
237.118
237.117
237.116
237.115
237.114
237.114
237.113
237.112
237.111
237.111
237.11
237.109
237.109
237.108
237.107
237.107
237.106
237.106
237.105
237.105
237.104
237.104
237.104
237.103
237.103
237.103
237.102
237.102
237.101
237.101
237.101
237.1
237.1
237.1
237.099
237.099
237.098
237.098
237.097
237.097
237.096
237.095
237.095
237.094
237.093
237.093
237.092
237.091
237.09
237.089
237.088
237.087
237.086
237.084
237.083
237.082
237.081
237.079
237.078
237.077
237.075
237.074
237.073
237.071
237.07
237.068
237.067
237.066
237.064
237.063
237.062
237.06
237.059
237.058
237.056
237.055
237.054
237.053
237.051
237.05
237.049
237.048
237.047
237.046
237.045
237.044
237.043
237.042
237.042
237.041
237.04
237.039
237.039
237.038
237.037
237.037
237.036
237.036
237.035
237.035
237.034
237.034
237.034
237.033
237.033
237.032
237.032
237.032
237.031
237.031
237.031
237.031
237.03
237.03
237.029
237.029
237.029
237.028
237.028
237.027
237.027
237.026
237.026
237.025
237.024
237.024
237.023
237.022
237.021
237.02
237.019
237.018
237.017
237.016
237.015
237.014
237.012
237.011
237.01
237.008
237.007
237.005
237.004
237.003
237.001
237
236.998
236.997
236.995
236.994
236.992
236.991
236.989
236.988
236.986
236.985
236.984
236.982
236.981
236.98
236.978
236.977
236.976
236.975
236.974
236.972
236.971
236.97
236.969
236.968
236.968
236.967
236.966
236.965
236.964
236.964
236.963
236.962
236.962
236.961
236.961
236.96
236.96
236.959
236.959
236.959
236.958
236.958
236.958
236.957
236.957
236.957
236.956
236.956
236.956
236.955
236.955
236.955
236.954
236.954
236.954
236.953
236.953
236.952
236.952
236.951
236.951
236.95
236.949
236.949
236.948
236.947
236.946
236.945
236.944
236.943
236.942
236.94
236.939
236.938
236.937
236.935
236.934
236.932
236.931
236.929
236.928
236.926
236.925
236.923
236.922
236.92
236.919
236.917
236.915
236.914
236.912
236.911
236.909
236.908
236.906
236.905
236.903
236.902
236.901
236.899
236.898
236.897
236.896
236.895
236.893
236.892
236.891
236.89
236.889
236.888
236.887
236.887
236.886
236.885
236.884
236.884
236.883
236.883
236.882
236.882
236.881
236.881
236.88
236.88
236.879
236.879
236.879
236.878
236.878
236.878
236.878
236.877
236.877
236.877
236.877
236.876
236.876
236.876
236.875
236.875
236.875
236.874
236.874
236.873
236.873
236.872
236.871
236.871
236.87
236.869
236.868
236.867
236.866
236.865
236.864
236.863
236.861
236.86
236.859
236.857
236.856
236.855
236.853
236.851
236.85
236.848
236.847
236.845
236.843
236.842
236.84
236.838
236.837
236.835
236.833
236.832
236.83
236.828
236.827
236.825
236.824
236.822
236.821
236.819
236.818
236.816
236.815
236.814
236.812
236.811
236.81
236.809
236.808
236.807
236.806
236.805
236.804
236.803
236.802
236.801
236.8
236.8
236.799
236.799
236.798
236.797
236.797
236.797
236.796
236.796
236.795
236.795
236.795
236.795
236.794
236.794
236.794
236.794
236.793
236.793
236.793
236.793
236.793
236.792
236.792
236.792
236.791
236.791
236.791
236.79
236.79
236.789
236.789
236.788
236.787
236.787
236.786
236.785
236.784
236.783
236.782
236.781
236.78
236.778
236.777
236.776
236.774
236.773
236.771
236.77
236.768
236.767
236.765
236.763
236.762
236.76
236.758
236.756
236.754
236.753
236.751
236.749
236.747
236.746
236.744
236.742
236.74
236.739
236.737
236.735
236.734
236.732
236.73
236.729
236.727
236.726
236.724
236.723
236.722
236.72
236.719
236.718
236.717
236.716
236.715
236.714
236.713
236.712
236.711
236.71
236.71
236.709
236.708
236.708
236.707
236.707
236.706
236.706
236.706
236.705
236.705
236.705
236.705
236.704
236.704
236.704
236.704
236.704
236.704
236.703
236.703
236.703
236.703
236.703
236.703
236.702
236.702
236.702
236.701
236.701
236.701
236.7
236.7
236.699
236.698
236.698
236.697
236.696
236.695
236.694
236.693
236.692
236.69
236.689
236.688
236.686
236.685
236.684
236.682
236.68
236.679
236.677
236.675
236.674
236.672
236.67
236.668
236.666
236.664
236.662
236.66
236.659
236.657
236.655
236.653
236.651
236.649
236.647
236.645
236.644
236.642
236.64
236.638
236.637
236.635
236.633
236.632
236.63
236.629
236.627
236.626
236.625
236.623
236.622
236.621
236.62
236.619
236.618
236.617
236.616
236.615
236.615
236.614
236.613
236.613
236.612
236.612
236.611
236.611
236.61
236.61
236.61
236.61
236.609
236.609
236.609
236.609
236.609
236.609
236.609
236.608
236.608
236.608
236.608
236.608
236.608
236.608
236.607
236.607
236.607
236.607
236.606
236.606
236.605
236.605
236.604
236.604
236.603
236.602
236.601
236.6
236.599
236.598
236.597
236.596
236.595
236.593
236.592
236.59
236.589
236.587
236.586
236.584
236.582
236.58
236.578
236.577
236.575
236.573
236.571
236.569
236.567
236.565
236.563
236.561
236.559
236.557
236.555
236.553
236.551
236.549
236.547
236.545
236.543
236.541
236.539
236.537
236.536
236.534
236.532
236.531
236.529
236.527
236.526
236.525
236.523
236.522
236.521
236.519
236.518
236.517
236.516
236.515
236.514
236.514
236.513
236.512
236.512
236.511
236.51
236.51
236.51
236.509
236.509
236.509
236.508
236.508
236.508
236.508
236.508
236.508
236.508
236.508
236.507
236.507
236.507
236.507
236.507
236.507
236.507
236.507
236.507
236.507
236.507
236.506
236.506
236.506
236.505
236.505
236.504
236.504
236.503
236.502
236.502
236.501
236.5
236.499
236.498
236.496
236.495
236.494
236.492
236.491
236.489
236.488
236.486
236.484
236.483
236.481
236.479
236.477
236.475
236.473
236.471
236.469
236.467
236.465
236.462
236.46
236.458
236.456
236.454
236.452
236.449
236.447
236.445
236.443
236.441
236.439
236.437
236.435
236.433
236.431
236.429
236.427
236.425
236.424
236.422
236.42
236.419
236.417
236.416
236.414
236.413
236.412
236.411
236.409
236.408
236.407
236.407
236.406
236.405
236.404
236.403
236.403
236.402
236.402
236.401
236.401
236.401
236.401
236.4
236.4
236.4
236.4
236.4
236.4
236.4
236.4
236.4
236.4
236.4
236.4
236.4
236.4
236.4
236.4
236.4
236.4
236.4
236.399
236.399
236.399
236.399
236.399
236.398
236.398
236.397
236.397
236.396
236.395
236.394
236.393
236.392
236.391
236.39
236.389
236.387
236.386
236.384
236.383
236.381
236.38
236.378
236.376
236.374
236.372
236.37
236.368
236.366
236.364
236.362
236.36
236.357
236.355
236.353
236.351
236.348
236.346
236.344
236.341
236.339
236.337
236.335
236.332
236.33
236.328
236.326
236.324
236.321
236.319
236.317
236.315
236.313
236.311
236.31
236.308
236.306
236.304
236.303
236.301
236.3
236.298
236.297
236.296
236.295
236.293
236.292
236.291
236.291
236.29
236.289
236.288
236.288
236.287
236.287
236.286
236.286
236.286
236.285
236.285
236.285
236.285
236.285
236.285
236.285
236.284
236.284
236.284
236.284
236.284
236.284
236.284
236.285
236.285
236.285
236.285
236.285
236.285
236.285
236.284
236.284
236.284
236.284
236.284
236.284
236.283
236.283
236.283
236.282
236.281
236.28
236.28
236.279
236.278
236.276
236.275
236.274
236.272
236.271
236.269
236.268
236.266
236.264
236.263
236.261
236.259
236.257
236.255
236.253
236.25
236.248
236.246
236.244
236.241
236.239
236.237
236.234
236.232
236.23
236.227
236.225
236.222
236.22
236.217
236.215
236.213
236.21
236.208
236.206
236.203
236.201
236.199
236.197
236.194
236.192
236.19
236.188
236.186
236.184
236.183
236.181
236.179
236.177
236.176
236.174
236.173
236.172
236.17
236.169
236.168
236.167
236.166
236.165
236.164
236.164
236.163
236.162
236.162
236.161
236.161
236.161
236.16
236.16
236.16
236.16
236.16
236.16
236.16
236.16
236.16
236.16
236.16
236.16
236.16
236.16
236.16
236.16
236.16
236.16
236.16
236.16
236.16
236.16
236.16
236.16
236.16
236.16
236.16
236.16
236.16
236.16
236.16
236.159
236.159
236.158
236.158
236.157
236.156
236.155
236.154
236.153
236.152
236.151
236.149
236.148
236.146
236.144
236.143
236.141
236.139
236.137
236.135
236.133
236.131
236.129
236.126
236.124
236.122
236.119
236.117
236.114
236.112
236.109
236.107
236.104
236.102
236.099
236.096
236.094
236.091
236.088
236.086
236.083
236.08
236.078
236.075
236.072
236.07
236.067
236.065
236.062
236.06
236.058
236.055
236.053
236.051
236.049
236.047
236.045
236.043
236.041
236.04
236.038
236.037
236.035
236.034
236.033
236.032
236.031
236.03
236.029
236.028
236.028
236.027
236.027
236.026
236.026
236.026
236.026
236.025
236.025
236.025
236.025
236.025
236.025
236.025
236.025
236.025
236.025
236.025
236.026
236.026
236.026
236.026
236.026
236.026
236.026
236.027
236.027
236.027
236.027
236.027
236.027
236.027
236.027
236.027
236.027
236.027
236.027
236.027
236.027
236.027
236.027
236.027
236.026
236.026
236.025
236.024
236.023
236.022
236.021
236.02
236.018
236.016
236.015
236.013
236.011
236.009
236.006
236.004
236.002
235.999
235.997
235.994
235.991
235.988
235.986
235.983
235.98
235.977
235.974
235.971
235.967
235.964
235.961
235.958
235.955
235.952
235.949
235.946
235.943
235.941
235.938
235.935
235.933
235.93
235.927
235.925
235.923
235.921
235.918
235.916
235.915
235.913
235.911
235.909
235.908
235.907
235.905
235.904
235.903
235.902
235.901
235.9
235.9
235.899
235.899
235.898
235.898
235.898
235.897
235.897
235.897
235.897
235.897
235.897
235.897
235.897
235.897
235.897
235.897
235.897
235.897
235.897
235.897
235.897
235.897
235.897
235.897
235.897
235.897
235.897
235.897
235.897
235.897
235.897
235.897
235.897
235.897
235.897
235.897
235.896
235.896
235.895
235.894
235.893
235.892
235.89
235.889
235.887
235.885
235.883
235.881
235.879
235.876
235.874
235.872
235.869
235.866
235.863
235.861
235.858
235.855
235.852
235.849
235.846
235.843
235.84
235.837
235.835
235.832
235.829
235.826
235.824
235.821
235.819
235.816
235.814
235.812
235.81
235.807
235.805
235.804
235.802
235.8
235.798
235.797
235.795
235.794
235.793
235.792
235.791
235.79
235.789
235.788
235.787
235.787
235.786
235.786
235.785
235.785
235.785
235.784
235.784
235.784
235.784
235.784
235.784
235.784
235.784
235.784
235.784
235.784
235.784
235.784
235.784
235.784
235.784
235.784
235.784
235.784
235.784
235.784
235.784
235.784
235.784
235.784
235.783
235.783
235.782
235.781
235.78
235.779
235.778
235.777
235.775
235.773
235.771
235.769
235.767
235.765
235.763
235.761
235.758
235.756
235.753
235.75
235.748
235.745
235.742
235.74
235.737
235.734
235.731
235.728
235.725
235.722
235.72
235.717
235.714
235.711
235.708
235.705
235.702
235.7
235.697
235.694
235.692
235.689
235.687
235.684
235.682
235.68
235.678
235.676
235.674
235.672
235.67
235.669
235.667
235.666
235.665
235.664
235.663
235.662
235.661
235.66
235.659
235.659
235.658
235.658
235.658
235.657
235.657
235.657
235.657
235.657
235.657
235.657
235.657
235.657
235.657
235.657
235.657
235.657
235.657
235.657
235.657
235.657
235.657
235.657
235.657
235.658
235.658
235.658
235.658
235.658
235.658
235.658
235.658
235.658
235.658
235.658
235.658
235.658
235.657
235.657
235.656
235.656
235.655
235.653
235.652
235.65
235.649
235.647
235.644
235.642
235.64
235.637
235.635
235.632
235.629
235.626
235.624
235.621
235.618
235.615
235.613
235.61
235.607
235.604
235.601
235.599
235.596
235.593
235.59
235.587
235.584
235.581
235.578
235.575
235.572
235.569
235.566
235.563
235.559
235.556
235.554
235.551
235.548
235.545
235.542
235.54
235.537
235.535
235.533
235.531
235.529
235.527
235.525
235.524
235.522
235.521
235.52
235.519
235.518
235.517
235.517
235.516
235.515
235.515
235.515
235.515
235.514
235.514
235.514
235.514
235.514
235.514
235.514
235.514
235.514
235.514
235.514
235.514
235.514
235.514
235.514
235.514
235.515
235.515
235.515
235.515
235.515
235.515
235.515
235.515
235.515
235.515
235.515
235.515
235.515
235.515
235.515
235.515
235.515
235.515
235.515
235.515
235.515
235.514
235.513
235.512
235.51
235.508
235.506
235.503
235.5
235.497
235.494
235.49
235.487
235.483
235.48
235.476
235.473
235.47
235.467
235.463
235.46
235.458
235.455
235.452
235.45
235.447
235.445
235.443
235.441
235.439
235.437
235.435
235.434
235.432
235.431
235.429
235.428
235.427
235.425
235.424
235.423
235.422
235.421
235.419
235.418
235.417
235.416
235.414
235.413
235.411
235.409
235.407
235.406
235.404
235.402
235.399
235.397
235.395
235.393
235.391
235.389
235.387
235.385
235.383
235.381
235.379
235.377
235.376
235.374
235.372
235.371
235.37
235.368
235.367
235.366
235.365
235.364
235.363
235.362
235.362
235.361
235.361
235.36
235.36
235.359
235.359
235.358
235.358
235.358
235.358
235.357
235.357
235.357
235.357
235.357
235.357
235.357
235.357
235.356
235.356
235.356
235.356
235.356
235.356
235.356
235.356
235.356
235.356
235.356
235.356
235.356
235.356
235.356
235.355
235.354
235.353
235.351
235.349
235.347
235.344
235.341
235.338
235.334
235.33
235.326
235.321
235.317
235.313
235.309
235.305
235.301
235.296
235.293
235.289
235.285
235.281
235.278
235.274
235.271
235.268
235.265
235.263
235.26
235.258
235.256
235.254
235.252
235.25
235.248
235.247
235.246
235.245
235.244
235.243
235.242
235.241
235.24
235.24
235.239
235.238
235.238
235.238
235.237
235.237
235.237
235.236
235.236
235.236
235.236
235.236
235.235
235.235
235.235
235.235
235.235
235.235
235.235
235.235
235.234
235.233
235.232
235.231
235.229
235.227
235.225
235.222
235.22
235.217
235.215
235.212
235.209
235.207
235.205
235.202
235.2
235.198
235.196
235.194
235.193
235.191
235.189
235.188
235.186
235.185
235.184
235.183
235.182
235.181
235.181
235.18
235.179
235.179
235.178
235.177
235.177
235.176
235.176
235.175
235.175
235.175
235.174
235.174
235.174
235.173
235.173
235.173
235.173
235.173
235.173
235.173
235.172
235.172
235.172
235.171
235.17
235.169
235.167
235.165
235.163
235.16
235.157
235.154
235.15
235.147
235.143
235.139
235.136
235.132
235.128
235.125
235.122
235.118
235.115
235.112
235.109
235.107
235.104
235.102
235.1
235.098
235.096
235.094
235.092
235.091
235.089
235.088
235.087
235.086
235.085
235.084
235.083
235.082
235.082
235.081
235.081
235.08
235.079
235.079
235.079
235.078
235.078
235.077
235.077
235.077
235.077
235.077
235.076
235.076
235.076
235.076
235.076
235.075
235.075
235.073
235.072
235.07
235.068
235.066
235.063
235.06
235.056
235.053
235.049
235.046
235.042
235.039
235.035
235.032
235.029
235.026
235.024
235.021
235.019
235.017
235.015
235.014
235.012
235.011
235.009
235.008
235.007
235.006
235.005
235.004
235.003
235.003
235.002
235.002
235.001
235.001
235
234.999
234.998
234.997
234.996
234.995
234.993
234.992
234.991
234.99
234.989
234.989
234.988
234.987
234.986
234.985
234.984
234.982
234.981
234.98
234.979
234.978
234.978
234.977
234.977
234.976
234.976
234.976
234.975
234.974
234.973
234.972
234.97
234.968
234.966
234.963
234.961
234.958
234.955
234.952
234.949
234.946
234.944
234.941
234.939
234.936
234.934
234.932
234.93
234.929
234.927
234.926
234.925
234.924
234.922
234.921
234.92
234.919
234.917
234.916
234.914
234.913
234.911
234.909
234.908
234.906
234.904
234.902
234.9
234.898
234.895
234.893
234.891
234.889
234.887
234.885
234.884
234.882
234.881
234.88
234.879
234.878
234.878
234.877
234.876
234.876
234.875
234.875
234.874
234.873
234.872
234.872
234.871
234.87
234.869
234.868
234.867
234.866
234.865
234.864
234.862
234.861
234.86
234.859
234.858
234.857
234.855
234.854
234.851
234.849
234.846
234.844
234.841
234.839
234.837
234.834
234.832
234.83
234.828
234.825
234.823
234.82
234.818
234.815
234.812
234.81
234.807
234.805
234.802
234.799
234.796
234.793
234.789
234.786
234.783
234.78
234.779
234.778
234.779
234.779
234.78
234.781
234.783
234.785
234.785
234.785
234.784
234.782
234.778
234.773
234.766
234.761
234.758
234.758
234.759
234.763
234.766
234.77
234.77
234.769
234.767
234.764
234.759
234.757
234.757
234.758
234.76
234.761
234.76
234.759
234.757
234.753
234.749
234.749
234.75
234.751
234.752
234.751
234.749
234.747
234.744
234.744
234.743
234.743
234.741
234.739
234.737
234.733
234.731
234.729
234.727
234.725
234.722
234.72
234.717
234.715