/*--------------------------------*- C++ -*----------------------------------*\
  =========                 |
  \\      /  F ield         | OpenFOAM: The Open Source CFD Toolbox
   \\    /   O peration     | Website:  https://openfoam.org
    \\  /    A nd           | Version:  9
     \\/     M anipulation  |
\*---------------------------------------------------------------------------*/
FoamFile
{
    format      ascii;
    class       volScalarField;
    location    "0.022";
    object      p;
}
// * * * * * * * * * * * * * * * * * * * * * * * * * * * * * * * * * * * * * //

dimensions      [1 -1 -2 0 0 0 0];

internalField   nonuniform List<scalar> 
10000
(
34008.7
34008.6
34008.5
34008.4
34008.3
34008.2
34008.1
34008.1
34008
34007.9
34007.8
34007.7
34007.6
34007.5
34007.4
34007.3
34007.3
34007.2
34007.1
34007
34006.9
34006.8
34006.7
34006.6
34006.5
34006.4
34006.4
34006.3
34006.2
34006.1
34006
34005.9
34005.8
34005.7
34005.6
34005.5
34005.4
34005.3
34005.2
34005.1
34005
34004.9
34004.9
34004.8
34004.7
34004.6
34004.5
34004.4
34004.3
34004.2
34004.1
34004
34003.9
34003.8
34003.7
34003.6
34003.5
34003.4
34003.3
34003.2
34003.1
34003
34002.9
34002.8
34002.7
34002.6
34002.5
34002.4
34002.3
34002.2
34002.1
34002
34001.9
34001.8
34001.7
34001.6
34001.5
34001.3
34001.2
34001.1
34001
34000.9
34000.8
34000.7
34000.6
34000.5
34000.4
34000.3
34000.2
34000.1
34000
33999.9
33999.7
33999.6
33999.5
33999.4
33999.3
33999.2
33999.1
33999
33998.9
33998.8
33998.7
33998.5
33998.4
33998.3
33998.2
33998.1
33998
33997.9
33997.8
33997.6
33997.5
33997.4
33997.3
33997.2
33997.1
33997
33996.8
33996.7
33996.6
33996.5
33996.4
33996.3
33996.1
33996
33995.9
33995.8
33995.7
33995.6
33995.4
33995.3
33995.2
33995.1
33995
33994.9
33994.7
33994.6
33994.5
33994.4
33994.3
33994.1
33994
33993.9
33993.8
33993.6
33993.5
33993.4
33993.3
33993.2
33993
33992.9
33992.8
33992.7
33992.5
33992.4
33992.3
33992.2
33992
33991.9
33991.8
33991.7
33991.5
33991.4
33991.3
33991.2
33991
33990.9
33990.8
33990.6
33990.5
33990.4
33990.3
33990.1
33990
33989.9
33989.7
33989.6
33989.5
33989.4
33989.2
33989.1
33989
33988.8
33988.7
33988.6
33988.4
33988.3
33988.2
33988
33987.9
33987.8
33987.6
33987.5
33987.4
33987.2
33987.1
33987
33986.8
33986.7
33986.6
33986.4
33986.3
33986.2
33986
33985.9
33985.7
33985.6
33985.5
33985.3
33985.2
33985
33984.9
33984.8
33984.6
33984.5
33984.4
33984.2
33984.1
33983.9
33983.8
33983.7
33983.5
33983.4
33983.2
33983.1
33982.9
33982.8
33982.7
33982.5
33982.4
33982.2
33982.1
33981.9
33981.8
33981.6
33981.5
33981.4
33981.2
33981.1
33980.9
33980.8
33980.6
33980.5
33980.3
33980.2
33980
33979.9
33979.7
33979.6
33979.4
33979.3
33979.2
33979
33978.9
33978.7
33978.6
33978.4
33978.3
33978.1
33977.9
33977.8
33977.6
33977.5
33977.3
33977.2
33977
33976.9
33976.7
33976.6
33976.4
33976.3
33976.1
33976
33975.8
33975.7
33975.5
33975.3
33975.2
33975
33974.9
33974.7
33974.6
33974.4
33974.2
33974.1
33973.9
33973.8
33973.6
33973.5
33973.3
33973.1
33973
33972.8
33972.7
33972.5
33972.3
33972.2
33972
33971.9
33971.7
33971.5
33971.4
33971.2
33971
33970.9
33970.7
33970.6
33970.4
33970.2
33970.1
33969.9
33969.7
33969.6
33969.4
33969.2
33969.1
33968.9
33968.7
33968.6
33968.4
33968.2
33968.1
33967.9
33967.7
33967.6
33967.4
33967.2
33967.1
33966.9
33966.7
33966.6
33966.4
33966.2
33966.1
33965.9
33965.7
33965.5
33965.4
33965.2
33965
33964.9
33964.7
33964.5
33964.3
33964.2
33964
33963.8
33963.7
33963.5
33963.3
33963.1
33963
33962.8
33962.6
33962.4
33962.3
33962.1
33961.9
33961.7
33961.5
33961.4
33961.2
33961
33960.8
33960.7
33960.5
33960.3
33960.1
33959.9
33959.8
33959.6
33959.4
33959.2
33959
33958.9
33958.7
33958.5
33958.3
33958.1
33958
33957.8
33957.6
33957.4
33957.2
33957
33956.9
33956.7
33956.5
33956.3
33956.1
33955.9
33955.8
33955.6
33955.4
33955.2
33955
33954.8
33954.6
33954.5
33954.3
33954.1
33953.9
33953.7
33953.5
33953.3
33953.1
33952.9
33952.8
33952.6
33952.4
33952.2
33952
33951.8
33951.6
33951.4
33951.2
33951
33950.9
33950.7
33950.5
33950.3
33950.1
33949.9
33949.7
33949.5
33949.3
33949.1
33948.9
33948.7
33948.5
33948.3
33948.2
33948
33947.8
33947.6
33947.4
33947.2
33947
33946.8
33946.6
33946.4
33946.2
33946
33945.8
33945.6
33945.4
33945.2
33945
33944.8
33944.7
33944.5
33944.3
33944.1
33943.9
33943.7
33943.5
33943.3
33943.1
33943
33942.8
33942.6
33942.4
33942.2
33942
33941.9
33941.7
33941.5
33941.4
33941.2
33941
33940.9
33940.7
33940.5
33940.4
33940.2
33940.1
33939.9
33939.8
33939.7
33939.5
33939.4
33939.2
33939.1
33939
33938.9
33938.7
33938.6
33938.5
33938.4
33938.3
33938.2
33938.1
33938
33937.9
33937.8
33937.7
33937.6
33937.5
33937.4
33937.4
33937.3
33937.2
33937.1
33937.1
33937
33936.9
33936.9
33936.8
33936.8
33936.7
33936.7
33936.7
33936.6
33936.6
33936.6
33936.6
33936.5
33936.5
33936.5
33936.5
33936.5
33936.5
33936.5
33936.5
33936.5
33936.5
33936.5
33936.5
33936.5
33936.5
33936.5
33936.5
33936.5
33936.5
33936.5
33936.5
33936.4
33936.4
33936.4
33936.3
33936.3
33936.3
33936.2
33936.1
33936.1
33936
33935.9
33935.8
33935.7
33935.7
33935.6
33935.5
33935.4
33935.3
33935.2
33935
33934.9
33934.8
33934.7
33934.6
33934.5
33934.4
33934.3
33934.2
33934.1
33934
33933.9
33933.8
33933.7
33933.6
33933.5
33933.4
33933.3
33933.2
33933.1
33932.9
33932.8
33932.7
33932.5
33932.4
33932.3
33932.1
33931.9
33931.8
33931.6
33931.4
33931.2
33931
33930.8
33930.5
33930.3
33930.1
33929.8
33929.6
33929.3
33929.1
33928.8
33928.6
33928.3
33928
33927.8
33927.5
33927.3
33927
33926.8
33926.5
33926.3
33926
33925.8
33925.6
33925.4
33925.1
33924.9
33924.7
33924.5
33924.3
33924.1
33923.9
33923.8
33923.6
33923.4
33923.2
33923
33922.8
33922.7
33922.5
33922.3
33922.1
33921.9
33921.7
33921.5
33921.3
33921
33920.8
33920.6
33920.3
33920.1
33919.8
33919.6
33919.3
33919
33918.7
33918.5
33918.2
33917.9
33917.6
33917.3
33916.9
33916.6
33916.3
33916
33915.7
33915.4
33915.1
33914.8
33914.4
33914.1
33913.8
33913.6
33913.3
33913
33912.7
33912.4
33912.2
33911.9
33911.7
33911.4
33911.2
33910.9
33910.7
33910.5
33910.3
33910
33909.8
33909.6
33909.4
33909.2
33909
33908.8
33908.6
33908.4
33908.2
33908
33907.8
33907.6
33907.4
33907.2
33906.9
33906.7
33906.5
33906.2
33906
33905.7
33905.5
33905.2
33904.9
33904.6
33904.3
33904
33903.7
33903.4
33903.1
33902.7
33902.4
33902.1
33901.7
33901.4
33901
33900.7
33900.3
33900
33899.6
33899.3
33898.9
33898.6
33898.2
33897.9
33897.6
33897.2
33896.9
33896.6
33896.3
33896
33895.7
33895.4
33895.1
33894.8
33894.5
33894.3
33894
33893.7
33893.5
33893.2
33893
33892.8
33892.5
33892.3
33892.1
33891.9
33891.7
33891.5
33891.3
33891.1
33890.9
33890.7
33890.4
33890.2
33890
33889.8
33889.6
33889.4
33889.2
33889
33888.7
33888.5
33888.2
33888
33887.7
33887.5
33887.2
33886.9
33886.6
33886.3
33886
33885.7
33885.3
33885
33884.7
33884.3
33883.9
33883.6
33883.2
33882.8
33882.4
33882.1
33881.7
33881.3
33880.9
33880.5
33880.1
33879.7
33879.3
33878.9
33878.5
33878.1
33877.7
33877.3
33877
33876.6
33876.2
33875.9
33875.5
33875.2
33874.8
33874.5
33874.2
33873.9
33873.5
33873.2
33872.9
33872.7
33872.4
33872.1
33871.8
33871.6
33871.3
33871.1
33870.8
33870.6
33870.4
33870.1
33869.9
33869.7
33869.5
33869.3
33869.1
33868.9
33868.7
33868.5
33868.3
33868.1
33867.9
33867.7
33867.5
33867.3
33867.1
33866.9
33866.6
33866.4
33866.2
33865.9
33865.7
33865.4
33865.2
33864.9
33864.6
33864.3
33864
33863.7
33863.4
33863.1
33862.7
33862.3
33862
33861.6
33861.2
33860.8
33860.4
33860
33859.5
33859.1
33858.7
33858.2
33857.8
33857.3
33856.9
33856.4
33856
33855.5
33855
33854.6
33854.1
33853.6
33853.2
33852.7
33852.3
33851.8
33851.4
33851
33850.5
33850.1
33849.7
33849.3
33848.9
33848.5
33848.1
33847.7
33847.3
33846.9
33846.5
33846.2
33845.8
33845.5
33845.1
33844.8
33844.4
33844.1
33843.8
33843.5
33843.2
33842.9
33842.6
33842.4
33842.1
33841.8
33841.6
33841.3
33841.1
33840.8
33840.6
33840.4
33840.1
33839.9
33839.7
33839.5
33839.3
33839.1
33838.9
33838.6
33838.4
33838.2
33838
33837.8
33837.6
33837.4
33837.2
33837
33836.7
33836.5
33836.2
33836
33835.7
33835.5
33835.2
33834.9
33834.6
33834.2
33833.9
33833.6
33833.2
33832.8
33832.4
33832
33831.6
33831.2
33830.7
33830.3
33829.8
33829.3
33828.8
33828.3
33827.8
33827.3
33826.8
33826.2
33825.7
33825.1
33824.6
33824
33823.5
33822.9
33822.3
33821.8
33821.2
33820.6
33820.1
33819.5
33818.9
33818.4
33817.8
33817.2
33816.7
33816.1
33815.5
33815
33814.4
33813.9
33813.3
33812.8
33812.2
33811.7
33811.1
33810.6
33810.1
33809.5
33809
33808.5
33807.9
33807.4
33806.9
33806.4
33805.8
33805.3
33804.8
33804.3
33803.8
33803.3
33802.8
33802.3
33801.8
33801.3
33800.8
33800.3
33799.8
33799.3
33798.8
33798.3
33797.8
33797.3
33796.9
33796.4
33795.9
33795.4
33795
33794.5
33794
33793.6
33793.1
33792.6
33792.2
33791.7
33791.3
33790.8
33790.4
33789.9
33789.5
33789
33788.6
33788.2
33787.7
33787.3
33786.9
33786.5
33786
33785.6
33785.2
33784.8
33784.4
33784
33783.6
33783.2
33782.8
33782.4
33782
33781.6
33781.2
33780.9
33780.5
33780.1
33779.7
33779.3
33779
33778.6
33778.2
33777.9
33777.5
33777.2
33776.8
33776.4
33776.1
33775.7
33775.4
33775
33774.7
33774.3
33774
33773.6
33773.3
33772.9
33772.6
33772.2
33771.9
33771.5
33771.2
33770.8
33770.5
33770.1
33769.7
33769.4
33769
33768.7
33768.4
33768
33767.7
33767.3
33767
33766.7
33766.3
33766
33765.7
33765.4
33765
33764.7
33764.4
33764.1
33763.8
33763.6
33763.3
33763
33762.7
33762.5
33762.2
33762
33761.7
33761.5
33761.3
33761.1
33760.8
33760.6
33760.4
33760.2
33760
33759.8
33759.6
33759.4
33759.2
33759
33758.8
33758.6
33758.4
33758.1
33757.9
33757.7
33757.5
33757.2
33756.9
33756.7
33756.4
33756.1
33755.8
33755.5
33755.2
33754.8
33754.5
33754.1
33753.7
33753.4
33753
33752.6
33752.2
33751.8
33751.4
33750.9
33750.5
33750.1
33749.7
33749.3
33748.9
33748.6
33748.2
33747.8
33747.4
33747.1
33746.7
33746.4
33746
33745.7
33745.4
33745
33744.7
33744.4
33744.1
33743.8
33743.5
33743.3
33743
33742.7
33742.4
33742.2
33741.9
33741.6
33741.4
33741.1
33740.8
33740.5
33740.2
33739.9
33739.6
33739.3
33739
33738.7
33738.4
33738
33737.7
33737.3
33736.9
33736.5
33736.1
33735.7
33735.3
33734.9
33734.5
33734
33733.6
33733.1
33732.7
33732.3
33731.8
33731.4
33731
33730.5
33730.1
33729.7
33729.3
33728.9
33728.5
33728.1
33727.7
33727.3
33727
33726.6
33726.2
33725.9
33725.5
33725.2
33724.9
33724.5
33724.2
33723.9
33723.5
33723.2
33722.9
33722.6
33722.3
33721.9
33721.6
33721.3
33721
33720.6
33720.3
33719.9
33719.6
33719.2
33718.9
33718.5
33718.1
33717.7
33717.3
33716.8
33716.4
33716
33715.5
33715.1
33714.6
33714.2
33713.7
33713.3
33712.8
33712.3
33711.9
33711.4
33711
33710.5
33710.1
33709.7
33709.3
33708.8
33708.4
33708
33707.6
33707.3
33706.9
33706.5
33706.1
33705.8
33705.4
33705.1
33704.7
33704.4
33704.1
33703.7
33703.4
33703.1
33702.8
33702.4
33702.1
33701.8
33701.4
33701.1
33700.8
33700.4
33700.1
33699.7
33699.3
33698.9
33698.5
33698.1
33697.7
33697.3
33696.9
33696.4
33695.9
33695.5
33695
33694.5
33694
33693.5
33693
33692.5
33692
33691.6
33691.1
33690.6
33690.1
33689.7
33689.2
33688.7
33688.3
33687.9
33687.4
33687
33686.6
33686.2
33685.8
33685.4
33685.1
33684.7
33684.4
33684
33683.7
33683.3
33683
33682.7
33682.3
33682
33681.7
33681.4
33681
33680.7
33680.4
33680
33679.7
33679.4
33679
33678.6
33678.3
33677.9
33677.5
33677
33676.6
33676.2
33675.7
33675.2
33674.8
33674.3
33673.7
33673.2
33672.7
33672.2
33671.7
33671.1
33670.6
33670.1
33669.5
33669
33668.5
33668
33667.5
33667
33666.5
33666.1
33665.6
33665.1
33664.7
33664.3
33663.9
33663.5
33663.1
33662.7
33662.3
33661.9
33661.6
33661.2
33660.9
33660.5
33660.2
33659.9
33659.5
33659.2
33658.9
33658.5
33658.2
33657.9
33657.5
33657.2
33656.9
33656.5
33656.1
33655.7
33655.4
33654.9
33654.5
33654.1
33653.6
33653.1
33652.7
33652.2
33651.6
33651.1
33650.6
33650
33649.5
33648.9
33648.3
33647.8
33647.2
33646.6
33646.1
33645.5
33645
33644.4
33643.9
33643.4
33642.9
33642.4
33641.9
33641.4
33641
33640.5
33640.1
33639.6
33639.2
33638.8
33638.4
33638
33637.7
33637.3
33636.9
33636.6
33636.3
33635.9
33635.6
33635.2
33634.9
33634.6
33634.2
33633.9
33633.6
33633.2
33632.9
33632.5
33632.1
33631.7
33631.3
33630.9
33630.5
33630
33629.6
33629.1
33628.6
33628.1
33627.5
33627
33626.4
33625.9
33625.3
33624.7
33624.1
33623.5
33622.9
33622.3
33621.7
33621.1
33620.5
33620
33619.4
33618.8
33618.3
33617.8
33617.2
33616.7
33616.2
33615.8
33615.3
33614.8
33614.4
33614
33613.5
33613.1
33612.7
33612.3
33612
33611.6
33611.2
33610.9
33610.5
33610.2
33609.8
33609.5
33609.1
33608.8
33608.5
33608.1
33607.8
33607.4
33607
33606.7
33606.3
33605.9
33605.4
33605
33604.5
33604.1
33603.6
33603.1
33602.5
33602
33601.4
33600.8
33600.2
33599.6
33599
33598.4
33597.8
33597.1
33596.5
33595.9
33595.3
33594.7
33594.1
33593.5
33592.9
33592.3
33591.7
33591.2
33590.6
33590.1
33589.6
33589.1
33588.6
33588.1
33587.7
33587.2
33586.8
33586.4
33586
33585.6
33585.2
33584.8
33584.4
33584.1
33583.7
33583.3
33583
33582.6
33582.3
33581.9
33581.6
33581.2
33580.9
33580.5
33580.1
33579.8
33579.4
33578.9
33578.5
33578.1
33577.6
33577.1
33576.6
33576.1
33575.5
33575
33574.4
33573.8
33573.2
33572.5
33571.9
33571.2
33570.6
33569.9
33569.3
33568.6
33568
33567.4
33566.7
33566.1
33565.5
33564.9
33564.3
33563.7
33563.1
33562.6
33562
33561.5
33561
33560.5
33560
33559.5
33559.1
33558.6
33558.2
33557.8
33557.4
33557
33556.6
33556.2
33555.8
33555.4
33555.1
33554.7
33554.4
33554
33553.7
33553.3
33552.9
33552.6
33552.2
33551.8
33551.4
33551
33550.6
33550.1
33549.7
33549.2
33548.7
33548.2
33547.6
33547.1
33546.5
33545.9
33545.3
33544.6
33544
33543.3
33542.6
33542
33541.3
33540.6
33539.9
33539.2
33538.6
33537.9
33537.3
33536.6
33536
33535.4
33534.8
33534.2
33533.6
33533
33532.5
33531.9
33531.4
33530.9
33530.4
33529.9
33529.4
33529
33528.6
33528.1
33527.7
33527.3
33526.9
33526.5
33526.2
33525.8
33525.4
33525.1
33524.7
33524.3
33524
33523.6
33523.2
33522.9
33522.5
33522.1
33521.7
33521.3
33520.8
33520.4
33519.9
33519.4
33518.9
33518.3
33517.7
33517.1
33516.5
33515.9
33515.2
33514.6
33513.9
33513.2
33512.5
33511.8
33511.1
33510.4
33509.7
33509
33508.3
33507.6
33506.9
33506.2
33505.6
33504.9
33504.3
33503.7
33503.1
33502.5
33501.9
33501.4
33500.8
33500.3
33499.8
33499.3
33498.8
33498.3
33497.9
33497.4
33497
33496.6
33496.2
33495.8
33495.4
33495.1
33494.7
33494.3
33494
33493.6
33493.2
33492.9
33492.5
33492.1
33491.7
33491.3
33490.9
33490.5
33490.1
33489.6
33489.1
33488.6
33488.1
33487.5
33486.9
33486.3
33485.7
33485
33484.4
33483.7
33483
33482.3
33481.5
33480.8
33480.1
33479.3
33478.6
33477.9
33477.1
33476.4
33475.7
33475
33474.3
33473.6
33473
33472.3
33471.7
33471.1
33470.5
33469.9
33469.3
33468.7
33468.2
33467.7
33467.2
33466.7
33466.2
33465.8
33465.3
33464.9
33464.5
33464.1
33463.7
33463.3
33462.9
33462.6
33462.2
33461.8
33461.5
33461.1
33460.7
33460.4
33460
33459.6
33459.2
33458.8
33458.4
33457.9
33457.4
33456.9
33456.4
33455.9
33455.3
33454.7
33454.1
33453.4
33452.7
33452
33451.3
33450.6
33449.8
33449.1
33448.3
33447.5
33446.8
33446
33445.2
33444.5
33443.7
33443
33442.3
33441.5
33440.8
33440.1
33439.5
33438.8
33438.1
33437.5
33436.9
33436.3
33435.7
33435.2
33434.6
33434.1
33433.6
33433.1
33432.7
33432.2
33431.8
33431.4
33431
33430.6
33430.2
33429.8
33429.4
33429.1
33428.7
33428.4
33428
33427.6
33427.3
33426.9
33426.5
33426.1
33425.7
33425.3
33424.9
33424.4
33423.9
33423.4
33422.8
33422.3
33421.6
33421
33420.3
33419.7
33418.9
33418.2
33417.4
33416.7
33415.9
33415.1
33414.3
33413.5
33412.7
33411.9
33411.1
33410.3
33409.5
33408.7
33408
33407.2
33406.5
33405.8
33405.1
33404.4
33403.7
33403
33402.4
33401.8
33401.2
33400.6
33400.1
33399.6
33399.1
33398.6
33398.1
33397.6
33397.2
33396.8
33396.4
33396
33395.6
33395.2
33394.9
33394.5
33394.2
33393.8
33393.5
33393.1
33392.7
33392.4
33392
33391.6
33391.2
33390.8
33390.4
33389.9
33389.4
33388.9
33388.3
33387.7
33387.1
33386.5
33385.8
33385.1
33384.3
33383.6
33382.8
33382
33381.2
33380.3
33379.5
33378.7
33377.8
33377
33376.1
33375.3
33374.5
33373.7
33372.9
33372.1
33371.3
33370.5
33369.8
33369.1
33368.4
33367.7
33367
33366.4
33365.7
33365.1
33364.5
33364
33363.4
33362.9
33362.4
33362
33361.5
33361.1
33360.7
33360.3
33359.9
33359.5
33359.1
33358.8
33358.4
33358.1
33357.7
33357.4
33357.1
33356.7
33356.4
33356
33355.6
33355.2
33354.8
33354.3
33353.9
33353.4
33352.8
33352.3
33351.7
33351
33350.3
33349.6
33348.9
33348.1
33347.3
33346.5
33345.7
33344.8
33344
33343.1
33342.2
33341.3
33340.5
33339.6
33338.7
33337.9
33337
33336.2
33335.3
33334.5
33333.7
33332.9
33332.2
33331.4
33330.7
33330
33329.3
33328.7
33328
33327.4
33326.8
33326.3
33325.7
33325.2
33324.7
33324.3
33323.8
33323.4
33323
33322.6
33322.2
33321.9
33321.5
33321.2
33320.8
33320.5
33320.1
33319.8
33319.5
33319.1
33318.8
33318.4
33318
33317.6
33317.2
33316.7
33316.3
33315.7
33315.2
33314.6
33313.9
33313.3
33312.6
33311.8
33311.1
33310.3
33309.4
33308.6
33307.7
33306.8
33305.9
33305
33304.1
33303.2
33302.2
33301.3
33300.4
33299.5
33298.6
33297.7
33296.9
33296
33295.2
33294.4
33293.6
33292.8
33292
33291.3
33290.6
33289.9
33289.3
33288.6
33288
33287.4
33286.9
33286.4
33285.9
33285.4
33284.9
33284.5
33284.1
33283.7
33283.3
33283
33282.6
33282.3
33281.9
33281.6
33281.3
33281
33280.6
33280.3
33280
33279.6
33279.2
33278.9
33278.4
33278
33277.5
33277
33276.4
33275.8
33275.2
33274.5
33273.8
33273.1
33272.3
33271.5
33270.6
33269.8
33268.9
33268
33267
33266.1
33265.1
33264.2
33263.2
33262.2
33261.3
33260.3
33259.4
33258.5
33257.6
33256.7
33255.8
33254.9
33254.1
33253.2
33252.4
33251.6
33250.9
33250.1
33249.4
33248.8
33248.1
33247.5
33246.9
33246.3
33245.8
33245.3
33244.8
33244.4
33243.9
33243.5
33243.1
33242.8
33242.4
33242.1
33241.7
33241.4
33241.1
33240.8
33240.5
33240.2
33239.8
33239.5
33239.2
33238.8
33238.4
33238
33237.6
33237.1
33236.6
33236.1
33235.5
33234.8
33234.2
33233.4
33232.7
33231.9
33231
33230.2
33229.3
33228.4
33227.4
33226.4
33225.5
33224.5
33223.5
33222.5
33221.5
33220.5
33219.5
33218.5
33217.5
33216.5
33215.6
33214.7
33213.7
33212.8
33212
33211.1
33210.3
33209.5
33208.7
33207.9
33207.2
33206.5
33205.8
33205.2
33204.6
33204
33203.5
33203
33202.5
33202
33201.6
33201.2
33200.8
33200.4
33200.1
33199.8
33199.4
33199.1
33198.8
33198.5
33198.2
33197.9
33197.6
33197.3
33197
33196.7
33196.3
33195.9
33195.5
33195
33194.5
33194
33193.4
33192.7
33192.1
33191.3
33190.6
33189.8
33188.9
33188
33187.1
33186.2
33185.2
33184.2
33183.2
33182.1
33181.1
33180.1
33179
33178
33176.9
33175.9
33174.9
33173.8
33172.8
33171.8
33170.9
33169.9
33169
33168.1
33167.2
33166.3
33165.4
33164.6
33163.8
33163.1
33162.4
33161.7
33161
33160.4
33159.8
33159.3
33158.7
33158.2
33157.8
33157.3
33156.9
33156.6
33156.2
33155.9
33155.5
33155.2
33154.9
33154.7
33154.4
33154.1
33153.8
33153.5
33153.3
33153
33152.6
33152.3
33152
33151.6
33151.1
33150.6
33150.1
33149.6
33148.9
33148.3
33147.6
33146.8
33146
33145.1
33144.2
33143.3
33142.4
33141.4
33140.3
33139.3
33138.3
33137.2
33136.1
33135
33133.9
33132.8
33131.7
33130.6
33129.6
33128.5
33127.4
33126.4
33125.4
33124.4
33123.4
33122.4
33121.5
33120.6
33119.7
33118.8
33118
33117.2
33116.4
33115.7
33115
33114.4
33113.7
33113.2
33112.6
33112.1
33111.6
33111.2
33110.7
33110.4
33110
33109.6
33109.3
33109
33108.7
33108.5
33108.2
33107.9
33107.7
33107.4
33107.1
33106.9
33106.6
33106.3
33106
33105.6
33105.2
33104.7
33104.3
33103.7
33103.1
33102.5
33101.8
33101.1
33100.3
33099.5
33098.6
33097.6
33096.7
33095.7
33094.7
33093.6
33092.5
33091.4
33090.3
33089.2
33088.1
33086.9
33085.8
33084.6
33083.5
33082.4
33081.3
33080.2
33079.1
33078
33076.9
33075.9
33074.9
33073.9
33072.9
33072
33071.1
33070.2
33069.4
33068.6
33067.8
33067.1
33066.4
33065.7
33065.1
33064.5
33064
33063.5
33063
33062.6
33062.1
33061.8
33061.4
33061.1
33060.8
33060.5
33060.3
33060
33059.8
33059.5
33059.3
33059
33058.8
33058.6
33058.3
33058
33057.7
33057.4
33057
33056.5
33056.1
33055.5
33054.9
33054.3
33053.6
33052.9
33052.1
33051.2
33050.3
33049.4
33048.4
33047.4
33046.3
33045.2
33044.1
33043
33041.8
33040.6
33039.4
33038.3
33037.1
33035.9
33034.7
33033.5
33032.3
33031.1
33030
33028.8
33027.7
33026.6
33025.5
33024.5
33023.4
33022.4
33021.4
33020.5
33019.6
33018.7
33017.9
33017.1
33016.3
33015.6
33014.9
33014.3
33013.7
33013.1
33012.6
33012.1
33011.7
33011.3
33010.9
33010.5
33010.2
33009.9
33009.7
33009.4
33009.2
33009
33008.7
33008.5
33008.3
33008.1
33007.9
33007.7
33007.4
33007.1
33006.8
33006.5
33006.1
33005.6
33005.1
33004.6
33004
33003.3
33002.6
33001.8
33001
33000.1
32999.1
32998.2
32997.1
32996.1
32995
32993.8
32992.7
32991.5
32990.3
32989.1
32987.8
32986.6
32985.3
32984.1
32982.9
32981.6
32980.4
32979.2
32978
32976.8
32975.6
32974.5
32973.3
32972.2
32971.1
32970.1
32969
32968
32967.1
32966.2
32965.3
32964.5
32963.7
32962.9
32962.2
32961.5
32960.9
32960.3
32959.8
32959.3
32958.8
32958.4
32958
32957.7
32957.4
32957.1
32956.8
32956.5
32956.3
32956.1
32955.9
32955.7
32955.5
32955.3
32955.1
32954.9
32954.7
32954.4
32954.2
32953.8
32953.5
32953.1
32952.6
32952.1
32951.5
32950.9
32950.2
32949.4
32948.6
32947.8
32946.8
32945.9
32944.8
32943.8
32942.7
32941.5
32940.4
32939.1
32937.9
32936.7
32935.4
32934.1
32932.8
32931.5
32930.2
32928.9
32927.6
32926.4
32925.1
32923.8
32922.6
32921.3
32920.1
32918.9
32917.7
32916.6
32915.4
32914.3
32913.3
32912.3
32911.3
32910.3
32909.4
32908.6
32907.7
32907
32906.2
32905.6
32904.9
32904.4
32903.8
32903.3
32902.9
32902.5
32902.1
32901.8
32901.5
32901.2
32900.9
32900.7
32900.5
32900.3
32900.2
32900
32899.9
32899.7
32899.5
32899.4
32899.2
32899
32898.8
32898.5
32898.2
32897.9
32897.5
32897
32896.5
32895.9
32895.2
32894.5
32893.7
32892.9
32892
32891.1
32890.1
32889
32887.9
32886.8
32885.6
32884.4
32883.1
32881.8
32880.5
32879.2
32877.9
32876.5
32875.2
32873.8
32872.4
32871.1
32869.7
32868.4
32867
32865.7
32864.4
32863.1
32861.8
32860.5
32859.3
32858
32856.9
32855.7
32854.6
32853.5
32852.5
32851.5
32850.5
32849.6
32848.8
32848
32847.2
32846.5
32845.9
32845.3
32844.7
32844.2
32843.7
32843.3
32842.9
32842.6
32842.3
32842.1
32841.8
32841.6
32841.4
32841.3
32841.1
32841
32840.9
32840.8
32840.7
32840.5
32840.4
32840.3
32840.1
32839.9
32839.7
32839.4
32839
32838.6
32838.2
32837.6
32837.1
32836.4
32835.7
32834.9
32834.1
32833.2
32832.2
32831.2
32830.1
32829
32827.8
32826.6
32825.3
32824.1
32822.7
32821.4
32820
32818.6
32817.2
32815.8
32814.4
32813
32811.5
32810.1
32808.7
32807.3
32805.8
32804.5
32803.1
32801.7
32800.4
32799
32797.7
32796.5
32795.2
32794
32792.9
32791.7
32790.7
32789.6
32788.6
32787.7
32786.8
32786
32785.2
32784.5
32783.8
32783.2
32782.6
32782.1
32781.6
32781.2
32780.8
32780.5
32780.2
32780
32779.8
32779.6
32779.4
32779.3
32779.1
32779
32778.9
32778.8
32778.7
32778.7
32778.6
32778.5
32778.3
32778.2
32778
32777.7
32777.4
32777.1
32776.7
32776.2
32775.6
32775
32774.4
32773.6
32772.8
32771.9
32771
32770
32769
32767.9
32766.7
32765.5
32764.2
32762.9
32761.6
32760.2
32758.8
32757.4
32756
32754.5
32753
32751.6
32750.1
32748.6
32747.1
32745.6
32744.1
32742.6
32741.1
32739.7
32738.2
32736.8
32735.4
32734
32732.7
32731.4
32730.1
32728.8
32727.6
32726.5
32725.3
32724.3
32723.3
32722.3
32721.4
32720.5
32719.7
32719
32718.3
32717.7
32717.1
32716.6
32716.1
32715.7
32715.4
32715.1
32714.8
32714.6
32714.4
32714.2
32714.1
32714
32713.9
32713.8
32713.7
32713.7
32713.6
32713.6
32713.5
32713.5
32713.4
32713.3
32713.1
32712.9
32712.7
32712.4
32712
32711.6
32711.1
32710.6
32709.9
32709.3
32708.5
32707.7
32706.8
32705.8
32704.8
32703.7
32702.6
32701.4
32700.1
32698.8
32697.5
32696.1
32694.7
32693.3
32691.8
32690.3
32688.7
32687.2
32685.6
32684.1
32682.5
32680.9
32679.3
32677.8
32676.2
32674.6
32673.1
32671.6
32670.1
32668.6
32667.1
32665.6
32664.2
32662.8
32661.5
32660.2
32658.9
32657.7
32656.5
32655.4
32654.4
32653.4
32652.4
32651.5
32650.7
32649.9
32649.2
32648.6
32648
32647.5
32647
32646.6
32646.3
32646
32645.7
32645.5
32645.3
32645.2
32645.1
32645
32644.9
32644.9
32644.8
32644.8
32644.8
32644.8
32644.8
32644.8
32644.7
32644.7
32644.6
32644.4
32644.3
32644
32643.7
32643.4
32643
32642.5
32641.9
32641.3
32640.6
32639.9
32639.1
32638.2
32637.2
32636.2
32635.1
32633.9
32632.7
32631.5
32630.1
32628.8
32627.4
32625.9
32624.4
32622.9
32621.3
32619.7
32618.1
32616.5
32614.9
32613.2
32611.6
32609.9
32608.3
32606.6
32605
32603.4
32601.8
32600.2
32598.6
32597
32595.4
32593.9
32592.4
32591
32589.6
32588.2
32586.9
32585.6
32584.3
32583.2
32582
32581
32580
32579
32578.2
32577.3
32576.6
32575.9
32575.3
32574.7
32574.3
32573.8
32573.5
32573.1
32572.9
32572.6
32572.5
32572.3
32572.2
32572.1
32572.1
32572
32572
32572
32572
32572
32572
32572
32572
32571.9
32571.9
32571.9
32571.8
32571.6
32571.5
32571.2
32570.9
32570.5
32570.1
32569.5
32569
32568.3
32567.6
32566.8
32566
32565
32564.1
32563
32561.9
32560.7
32559.5
32558.2
32556.8
32555.4
32554
32552.5
32551
32549.4
32547.8
32546.2
32544.5
32542.9
32541.2
32539.5
32537.8
32536
32534.3
32532.6
32530.9
32529.2
32527.5
32525.8
32524.1
32522.5
32520.8
32519.2
32517.6
32516
32514.5
32513
32511.5
32510.1
32508.7
32507.4
32506.2
32504.9
32503.8
32502.7
32501.6
32500.7
32499.8
32499
32498.2
32497.5
32496.9
32496.3
32495.8
32495.4
32495
32494.7
32494.5
32494.2
32494.1
32493.9
32493.8
32493.7
32493.7
32493.6
32493.6
32493.6
32493.6
32493.6
32493.6
32493.6
32493.6
32493.6
32493.6
32493.6
32493.6
32493.6
32493.5
32493.4
32493.3
32493.1
32492.8
32492.4
32492
32491.5
32491
32490.3
32489.6
32488.9
32488
32487.1
32486.2
32485.1
32484
32482.8
32481.6
32480.3
32479
32477.6
32476.1
32474.6
32473
32471.4
32469.7
32468.1
32466.3
32464.6
32462.8
32461
32459.1
32457.3
32455.4
32453.6
32451.7
32449.8
32448
32446.1
32444.3
32442.5
32440.7
32438.9
32437.1
32435.4
32433.7
32432
32430.3
32428.7
32427.1
32425.5
32424
32422.6
32421.2
32419.9
32418.6
32417.5
32416.4
32415.4
32414.5
32413.7
32413
32412.4
32411.8
32411.4
32411
32410.7
32410.4
32410.3
32410.1
32410
32410
32409.9
32409.9
32409.9
32409.9
32409.9
32409.9
32409.9
32410
32410
32410
32410
32410.1
32410.1
32410.1
32410.1
32410.1
32410.1
32410.1
32410.1
32410.1
32410.1
32410.1
32410
32409.9
32409.7
32409.4
32409
32408.4
32407.7
32406.9
32406
32405
32403.9
32402.7
32401.4
32400
32398.6
32397
32395.4
32393.7
32391.9
32390.1
32388.2
32386.3
32384.3
32382.2
32380.2
32378.1
32376
32373.9
32371.8
32369.7
32367.6
32365.5
32363.4
32361.4
32359.4
32357.4
32355.4
32353.5
32351.6
32349.7
32348
32346.2
32344.6
32343
32341.5
32340.2
32338.9
32337.7
32336.6
32335.6
32334.7
32333.9
32333.2
32332.6
32332.1
32331.6
32331.3
32331
32330.8
32330.6
32330.5
32330.4
32330.4
32330.3
32330.3
32330.3
32330.3
32330.3
32330.3
32330.3
32330.3
32330.3
32330.3
32330.3
32330.3
32330.3
32330.3
32330.3
32330.3
32330.3
32330.3
32330.2
32330.1
32329.9
32329.6
32329
32328.3
32327.5
32326.5
32325.4
32324.2
32322.9
32321.5
32320
32318.4
32316.8
32315
32313.3
32311.4
32309.5
32307.6
32305.7
32303.7
32301.7
32299.7
32297.6
32295.7
32293.7
32291.7
32289.8
32287.8
32285.9
32284.1
32282.3
32280.5
32278.8
32277.1
32275.5
32274
32272.6
32271.2
32269.9
32268.7
32267.6
32266.6
32265.6
32264.8
32264
32263.3
32262.7
32262.2
32261.8
32261.4
32261.1
32260.8
32260.6
32260.5
32260.3
32260.3
32260.2
32260.1
32260.1
32260.1
32260.1
32260.1
32260.1
32260.1
32260.1
32260.1
32260.1
32260.1
32260.1
32260
32259.9
32259.7
32259.3
32258.9
32258.3
32257.6
32256.7
32255.8
32254.8
32253.7
32252.5
32251.2
32249.9
32248.4
32246.9
32245.3
32243.6
32241.9
32240
32238.2
32236.3
32234.4
32232.4
32230.4
32228.4
32226.4
32224.5
32222.5
32220.6
32218.7
32216.8
32214.9
32213
32211.2
32209.4
32207.6
32205.8
32204
32202.2
32200.4
32198.7
32197.1
32195.5
32194
32192.5
32191.2
32189.9
32188.7
32187.7
32186.7
32185.9
32185.1
32184.5
32183.9
32183.4
32183.1
32182.8
32182.6
32182.4
32182.4
32182.3
32182.3
32182.2
32182.2
32182.2
32182.2
32182.2
32182.2
32182.2
32182.2
32182.2
32182.2
32182.3
32182.3
32182.3
32182.3
32182.3
32182.3
32182.3
32182.3
32182.2
32182.2
32182.2
32182.1
32181.8
32181.4
32180.8
32180
32179
32177.8
32176.5
32175.1
32173.6
32172
32170.4
32168.6
32166.8
32165
32163.1
32161.1
32159.2
32157.2
32155.2
32153.1
32151.1
32149
32147
32144.9
32142.8
32140.8
32138.8
32136.9
32134.9
32133
32131.1
32129.3
32127.4
32125.6
32123.7
32121.9
32120
32118.2
32116.3
32114.5
32112.7
32110.9
32109.1
32107.3
32105.7
32104.1
32102.7
32101.3
32100.1
32099
32098
32097.2
32096.4
32095.8
32095.4
32095
32094.7
32094.5
32094.4
32094.4
32094.3
32094.3
32094.3
32094.3
32094.4
32094.4
32094.5
32094.6
32094.7
32094.9
32095
32095.2
32095.4
32095.5
32095.7
32095.8
32095.8
32095.9
32095.9
32095.9
32095.9
32095.9
32095.9
32095.9
32095.9
32095.8
32095.7
32095.5
32095.1
32094.3
32093.2
32091.8
32090.1
32088.2
32085.9
32083.5
32080.9
32078.3
32075.5
32072.8
32070.2
32067.6
32065
32062.6
32060.2
32058
32055.9
32053.8
32051.9
32050.2
32048.5
32046.9
32045.5
32044.1
32042.9
32041.7
32040.6
32039.6
32038.7
32037.8
32037
32036.2
32035.5
32034.8
32034.1
32033.4
32032.6
32031.8
32031
32030.1
32029.1
32027.9
32026.7
32025.5
32024.1
32022.7
32021.3
32019.8
32018.4
32016.9
32015.6
32014.2
32012.9
32011.6
32010.3
32009.1
32007.9
32006.8
32005.7
32004.7
32003.8
32002.9
32002.2
32001.5
32000.9
32000.4
32000
31999.7
31999.4
31999.1
31998.9
31998.8
31998.6
31998.5
31998.4
31998.3
31998.3
31998.2
31998.2
31998.2
31998.2
31998.1
31998.1
31998.1
31998
31998
31997.9
31997.7
31997.4
31996.9
31996.3
31995.4
31994.4
31993.2
31991.8
31990.2
31988.4
31986.4
31984.2
31981.9
31979.4
31976.8
31974
31971.2
31968.3
31965.4
31962.4
31959.5
31956.7
31953.9
31951.2
31948.5
31946
31943.6
31941.4
31939.3
31937.4
31935.7
31934.2
31932.8
31931.7
31930.6
31929.7
31928.9
31928.2
31927.6
31927.1
31926.7
31926.4
31926.2
31926.1
31925.9
31925.9
31925.8
31925.8
31925.8
31925.8
31925.8
31925.7
31925.7
31925.7
31925.7
31925.7
31925.6
31925.5
31925.3
31924.9
31924.2
31923.3
31922.1
31920.6
31918.8
31916.9
31914.9
31912.8
31910.7
31908.5
31906.4
31904.4
31902.5
31900.6
31898.9
31897.3
31895.9
31894.5
31893.3
31892.1
31891.1
31890.2
31889.4
31888.8
31888.3
31887.9
31887.6
31887.4
31887.2
31887.1
31887
31886.9
31886.8
31886.8
31886.8
31886.8
31886.7
31886.6
31886.4
31886.1
31885.6
31885
31884.4
31883.6
31882.6
31881.5
31880.3
31878.9
31877.3
31875.5
31873.5
31871.4
31869.2
31866.9
31864.4
31861.9
31859.4
31856.9
31854.5
31852.1
31849.8
31847.5
31845.4
31843.3
31841.4
31839.6
31837.9
31836.4
31834.9
31833.7
31832.5
31831.5
31830.6
31829.9
31829.2
31828.7
31828.3
31827.9
31827.6
31827.4
31827.2
31827.1
31827
31826.9
31826.8
31826.7
31826.6
31826.4
31826.2
31825.8
31825.4