/*--------------------------------*- C++ -*----------------------------------*\
  =========                 |
  \\      /  F ield         | OpenFOAM: The Open Source CFD Toolbox
   \\    /   O peration     | Website:  https://openfoam.org
    \\  /    A nd           | Version:  9
     \\/     M anipulation  |
\*---------------------------------------------------------------------------*/
FoamFile
{
    format      ascii;
    class       surfaceScalarField;
    location    "0.022";
    object      phi;
}
// * * * * * * * * * * * * * * * * * * * * * * * * * * * * * * * * * * * * * //

dimensions      [1 0 -1 0 0 0 0];

internalField   nonuniform List<scalar> 
9999
(
2.15766
2.27822
2.39877
2.51931
2.63984
2.76037
2.88092
3.00148
3.12206
3.24264
3.36323
3.48382
3.60442
3.72501
3.84561
3.9662
4.0868
4.2074
4.32799
4.44859
4.56918
4.68978
4.81037
4.93097
5.05157
5.17216
5.29276
5.41335
5.53395
5.65454
5.77514
5.89573
6.01633
6.13692
6.25751
6.37811
6.4987
6.6193
6.73989
6.86048
6.98108
7.10167
7.22226
7.34286
7.46345
7.58404
7.70464
7.82523
7.94582
8.06641
8.18701
8.3076
8.42819
8.54878
8.66937
8.78996
8.91056
9.03115
9.15174
9.27233
9.39292
9.51351
9.6341
9.75469
9.87528
9.99587
10.1165
10.237
10.3576
10.4782
10.5988
10.7194
10.84
10.9606
11.0812
11.2018
11.3223
11.4429
11.5635
11.6841
11.8047
11.9253
12.0459
12.1664
12.287
12.4076
12.5282
12.6488
12.7694
12.89
13.0105
13.1311
13.2517
13.3723
13.4929
13.6135
13.734
13.8546
13.9752
14.0958
14.2164
14.337
14.4575
14.5781
14.6987
14.8193
14.9399
15.0604
15.181
15.3016
15.4222
15.5428
15.6633
15.7839
15.9045
16.0251
16.1457
16.2662
16.3868
16.5074
16.628
16.7485
16.8691
16.9897
17.1103
17.2308
17.3514
17.472
17.5926
17.7131
17.8337
17.9543
18.0749
18.1954
18.316
18.4366
18.5571
18.6777
18.7983
18.9189
19.0394
19.16
19.2806
19.4011
19.5217
19.6423
19.7628
19.8834
20.004
20.1246
20.2451
20.3657
20.4863
20.6068
20.7274
20.8479
20.9685
21.0891
21.2096
21.3302
21.4508
21.5713
21.6919
21.8125
21.933
22.0536
22.1741
22.2947
22.4153
22.5358
22.6564
22.7769
22.8975
23.0181
23.1386
23.2592
23.3797
23.5003
23.6208
23.7414
23.862
23.9825
24.1031
24.2236
24.3442
24.4647
24.5853
24.7058
24.8264
24.9469
25.0675
25.188
25.3086
25.4291
25.5497
25.6702
25.7908
25.9113
26.0319
26.1524
26.273
26.3935
26.5141
26.6346
26.7552
26.8757
26.9963
27.1168
27.2373
27.3579
27.4784
27.599
27.7195
27.8401
27.9606
28.0811
28.2017
28.3222
28.4428
28.5633
28.6838
28.8044
28.9249
29.0454
29.166
29.2865
29.407
29.5276
29.6481
29.7686
29.8892
30.0097
30.1302
30.2508
30.3713
30.4918
30.6124
30.7329
30.8534
30.9739
31.0945
31.215
31.3355
31.4561
31.5766
31.6971
31.8176
31.9382
32.0587
32.1792
32.2997
32.4202
32.5408
32.6613
32.7818
32.9023
33.0228
33.1434
33.2639
33.3844
33.5049
33.6254
33.7459
33.8665
33.987
34.1075
34.228
34.3485
34.469
34.5895
34.71
34.8306
34.9511
35.0716
35.1921
35.3126
35.4331
35.5536
35.6741
35.7946
35.9151
36.0356
36.1561
36.2766
36.3971
36.5176
36.6381
36.7586
36.8791
36.9996
37.1201
37.2406
37.3611
37.4816
37.6021
37.7226
37.8431
37.9636
38.0841
38.2046
38.3251
38.4456
38.5661
38.6865
38.807
38.9275
39.048
39.1685
39.289
39.4095
39.53
39.6504
39.7709
39.8914
40.0119
40.1324
40.2529
40.3733
40.4938
40.6143
40.7348
40.8553
40.9757
41.0962
41.2167
41.3372
41.4576
41.5781
41.6986
41.819
41.9395
42.06
42.1805
42.3009
42.4214
42.5419
42.6623
42.7828
42.9033
43.0237
43.1442
43.2647
43.3851
43.5056
43.626
43.7465
43.867
43.9874
44.1079
44.2283
44.3488
44.4693
44.5897
44.7102
44.8306
44.9511
45.0715
45.192
45.3124
45.4329
45.5533
45.6738
45.7942
45.9147
46.0351
46.1556
46.276
46.3964
46.5169
46.6373
46.7578
46.8782
46.9987
47.1191
47.2395
47.36
47.4804
47.6008
47.7213
47.8417
47.9621
48.0826
48.203
48.3234
48.4439
48.5643
48.6847
48.8052
48.9256
49.046
49.1664
49.2869
49.4073
49.5277
49.6481
49.7686
49.889
50.0094
50.1298
50.2502
50.3706
50.4911
50.6115
50.7319
50.8523
50.9727
51.0931
51.2135
51.3339
51.4544
51.5748
51.6952
51.8156
51.936
52.0564
52.1768
52.2972
52.4176
52.538
52.6584
52.7788
52.8992
53.0196
53.14
53.2604
53.3807
53.5011
53.6215
53.7419
53.8623
53.9827
54.103
54.2234
54.3438
54.4642
54.5845
54.7049
54.8253
54.9456
55.066
55.1863
55.3067
55.427
55.5474
55.6677
55.788
55.9083
56.0286
56.149
56.2693
56.3895
56.5098
56.6301
56.7503
56.8706
56.9908
57.111
57.2312
57.3514
57.4716
57.5917
57.7119
57.832
57.952
58.0721
58.1921
58.3121
58.4321
58.5521
58.672
58.7919
58.9118
59.0316
59.1514
59.2712
59.3909
59.5106
59.6302
59.7499
59.8694
59.989
60.1085
60.228
60.3474
60.4668
60.5862
60.7055
60.8248
60.9441
61.0633
61.1825
61.3017
61.4208
61.5399
61.6589
61.778
61.897
62.0159
62.1348
62.2537
62.3725
62.4913
62.6101
62.7288
62.8475
62.9661
63.0847
63.2032
63.3217
63.4402
63.5586
63.6769
63.7952
63.9135
64.0317
64.1498
64.268
64.386
64.5041
64.6221
64.74
64.858
64.9759
65.0938
65.2116
65.3295
65.4474
65.5652
65.6831
65.8009
65.9188
66.0367
66.1546
66.2726
66.3906
66.5086
66.6267
66.7448
66.863
66.9813
67.0996
67.218
67.3364
67.4549
67.5734
67.6921
67.8107
67.9294
68.0482
68.167
68.2859
68.4048
68.5237
68.6426
68.7615
68.8805
68.9994
69.1184
69.2374
69.3563
69.4753
69.5942
69.7131
69.832
69.9509
70.0698
70.1887
70.3075
70.4264
70.5453
70.6642
70.7831
70.902
71.021
71.14
71.259
71.3781
71.4972
71.6164
71.7357
71.855
71.9745
72.094
72.2136
72.3332
72.453
72.5728
72.6928
72.8128
72.9329
73.0531
73.1733
73.2936
73.414
73.5344
73.6548
73.7753
73.8958
74.0163
74.1368
74.2573
74.3777
74.4982
74.6186
74.739
74.8593
74.9796
75.0998
75.22
75.3401
75.4602
75.5802
75.7001
75.82
75.9398
76.0596
76.1793
76.299
76.4186
76.5382
76.6578
76.7774
76.897
77.0166
77.1361
77.2557
77.3753
77.495
77.6147
77.7344
77.8542
77.974
78.0939
78.2138
78.3339
78.454
78.5741
78.6944
78.8147
78.9351
79.0556
79.1761
79.2967
79.4174
79.5381
79.6589
79.7797
79.9005
80.0214
80.1422
80.2631
80.384
80.5049
80.6257
80.7465
80.8673
80.988
81.1087
81.2294
81.3499
81.4704
81.5909
81.7113
81.8316
81.9518
82.072
82.1921
82.3122
82.4321
82.552
82.6719
82.7917
82.9114
83.0311
83.1508
83.2704
83.39
83.5095
83.6291
83.7486
83.8682
83.9877
84.1073
84.2268
84.3464
84.4661
84.5857
84.7054
84.8252
84.945
85.0649
85.1849
85.3049
85.425
85.5452
85.6655
85.7858
85.9062
86.0267
86.1473
86.2679
86.3886
86.5094
86.6302
86.7511
86.872
86.993
87.114
87.235
87.356
87.477
87.598
87.719
87.84
87.9609
88.0818
88.2027
88.3235
88.4443
88.565
88.6857
88.8063
88.9268
89.0472
89.1676
89.2879
89.4082
89.5283
89.6484
89.7684
89.8883
90.0082
90.128
90.2477
90.3674
90.487
90.6065
90.726
90.8455
90.9649
91.0843
91.2036
91.3229
91.4422
91.5615
91.6808
91.8001
91.9194
92.0388
92.1581
92.2775
92.3969
92.5164
92.6359
92.7555
92.8751
92.9948
93.1146
93.2345
93.3544
93.4744
93.5946
93.7148
93.8351
93.9555
94.076
94.1965
94.3172
94.4379
94.5587
94.6796
94.8005
94.9215
95.0425
95.1636
95.2847
95.4059
95.5271
95.6482
95.7694
95.8906
96.0117
96.1328
96.2539
96.375
96.496
96.617
96.7379
96.8588
96.9796
97.1004
97.2211
97.3417
97.4622
97.5827
97.7031
97.8234
97.9436
98.0638
98.1838
98.3038
98.4237
98.5436
98.6633
98.783
98.9026
99.0221
99.1416
99.261
99.3803
99.4996
99.6188
99.7379
99.857
99.9761
100.095
100.214
100.333
100.452
100.571
100.69
100.809
100.928
101.047
101.166
101.285
101.404
101.523
101.642
101.761
101.88
102
102.119
102.238
102.358
102.478
102.597
102.717
102.837
102.957
103.078
103.198
103.318
103.439
103.56
103.68
103.801
103.922
104.043
104.164
104.285
104.407
104.528
104.649
104.771
104.892
105.014
105.135
105.256
105.378
105.499
105.621
105.742
105.864
105.985
106.106
106.227
106.349
106.47
106.591
106.712
106.833
106.954
107.075
107.196
107.317
107.437
107.558
107.678
107.799
107.919
108.04
108.16
108.28
108.4
108.52
108.64
108.76
108.88
108.999
109.119
109.238
109.358
109.477
109.596
109.716
109.835
109.954
110.073
110.192
110.311
110.43
110.549
110.667
110.786
110.905
111.023
111.142
111.261
111.379
111.498
111.617
111.735
111.854
111.973
112.091
112.21
112.329
112.448
112.567
112.686
112.805
112.924
113.043
113.163
113.282
113.402
113.521
113.641
113.761
113.882
114.002
114.122
114.243
114.364
114.484
114.605
114.726
114.848
114.969
115.09
115.212
115.334
115.455
115.577
115.699
115.821
115.943
116.065
116.187
116.309
116.431
116.553
116.675
116.797
116.919
117.041
117.163
117.285
117.407
117.529
117.651
117.773
117.895
118.016
118.138
118.26
118.382
118.504
118.625
118.747
118.869
118.991
119.112
119.234
119.355
119.477
119.598
119.72
119.841
119.963
120.084
120.206
120.327
120.448
120.57
120.691
120.812
120.933
121.055
121.176
121.297
121.418
121.539
121.66
121.781
121.902
122.023
122.144
122.265
122.386
122.507
122.628
122.748
122.869
122.99
123.111
123.231
123.352
123.473
123.593
123.714
123.834
123.955
124.075
124.196
124.316
124.437
124.557
124.677
124.798
124.918
125.038
125.158
125.278
125.399
125.519
125.639
125.759
125.879
125.999
126.119
126.239
126.358
126.478
126.598
126.718
126.838
126.957
127.077
127.197
127.316
127.436
127.555
127.675
127.794
127.914
128.033
128.153
128.272
128.392
128.511
128.631
128.75
128.869
128.989
129.108
129.227
129.347
129.466
129.585
129.705
129.824
129.943
130.063
130.182
130.301
130.421
130.54
130.659
130.778
130.898
131.017
131.136
131.255
131.374
131.493
131.613
131.732
131.851
131.97
132.088
132.207
132.326
132.445
132.563
132.682
132.801
132.919
133.037
133.156
133.274
133.392
133.51
133.628
133.746
133.864
133.982
134.1
134.218
134.336
134.454
134.571
134.689
134.807
134.924
135.042
135.16
135.277
135.395
135.513
135.631
135.749
135.867
135.985
136.103
136.221
136.339
136.458
136.576
136.695
136.814
136.933
137.052
137.171
137.29
137.409
137.529
137.648
137.768
137.887
138.007
138.126
138.246
138.365
138.485
138.604
138.724
138.843
138.962
139.082
139.201
139.32
139.439
139.558
139.677
139.796
139.914
140.033
140.151
140.27
140.388
140.507
140.625
140.743
140.862
140.98
141.098
141.216
141.334
141.452
141.571
141.689
141.807
141.925
142.043
142.161
142.28
142.398
142.517
142.635
142.754
142.872
142.991
143.11
143.229
143.348
143.467
143.587
143.706
143.825
143.945
144.065
144.184
144.304
144.423
144.543
144.662
144.782
144.902
145.021
145.14
145.26
145.379
145.498
145.618
145.737
145.856
145.975
146.094
146.213
146.331
146.45
146.569
146.687
146.806
146.924
147.043
147.161
147.28
147.398
147.516
147.635
147.753
147.871
147.99
148.108
148.226
148.345
148.463
148.582
148.7
148.819
148.938
149.057
149.176
149.295
149.414
149.533
149.652
149.771
149.891
150.01
150.13
150.249
150.369
150.488
150.608
150.727
150.847
150.966
151.085
151.205
151.324
151.443
151.563
151.682
151.801
151.92
152.038
152.157
152.276
152.395
152.513
152.632
152.75
152.869
152.987
153.105
153.224
153.342
153.46
153.578
153.696
153.814
153.933
154.051
154.169
154.287
154.405
154.524
154.642
154.76
154.879
154.998
155.116
155.235
155.354
155.473
155.592
155.711
155.83
155.95
156.069
156.189
156.308
156.428
156.547
156.667
156.786
156.906
157.025
157.145
157.264
157.384
157.503
157.622
157.741
157.86
157.979
158.098
158.217
158.335
158.454
158.572
158.691
158.809
158.927
159.046
159.164
159.282
159.4
159.518
159.636
159.754
159.872
159.989
160.107
160.225
160.343
160.461
160.579
160.697
160.815
160.933
161.052
161.17
161.289
161.407
161.526
161.645
161.764
161.883
162.002
162.121
162.241
162.36
162.48
162.599
162.719
162.839
162.958
163.078
163.197
163.317
163.436
163.556
163.675
163.794
163.914
164.033
164.152
164.271
164.389
164.508
164.627
164.745
164.864
164.982
165.1
165.218
165.336
165.454
165.572
165.69
165.808
165.925
166.043
166.161
166.278
166.396
166.514
166.631
166.749
166.867
166.985
167.103
167.22
167.338
167.457
167.575
167.693
167.812
167.931
168.049
168.168
168.287
168.407
168.526
168.645
168.765
168.884
169.004
169.124
169.243
169.363
169.483
169.602
169.722
169.841
169.961
170.08
170.199
170.318
170.437
170.556
170.675
170.794
170.913
171.031
171.149
171.268
171.386
171.504
171.622
171.74
171.858
171.975
172.093
172.211
172.328
172.446
172.563
172.681
172.798
172.915
173.033
173.15
173.268
173.385
173.503
173.621
173.739
173.857
173.975
174.093
174.211
174.33
174.448
174.567
174.686
174.805
174.924
175.043
175.163
175.282
175.402
175.522
175.641
175.761
175.88
176
176.12
176.239
176.358
176.478
176.597
176.716
176.835
176.954
177.073
177.192
177.31
177.429
177.547
177.666
177.784
177.902
178.02
178.138
178.255
178.373
178.49
178.608
178.725
178.843
178.96
179.077
179.195
179.312
179.429
179.546
179.664
179.781
179.898
180.016
180.133
180.251
180.368
180.486
180.604
180.722
180.84
180.959
181.077
181.196
181.315
181.434
181.553
181.673
181.792
181.911
182.031
182.15
182.27
182.39
182.509
182.629
182.748
182.867
182.987
183.106
183.225
183.344
183.463
183.582
183.701
183.819
183.938
184.056
184.174
184.292
184.41
184.528
184.646
184.764
184.881
184.999
185.116
185.233
185.35
185.468
185.585
185.702
185.819
185.936
186.053
186.17
186.287
186.404
186.521
186.638
186.756
186.873
186.99
187.108
187.226
187.344
187.462
187.58
187.698
187.817
187.935
188.054
188.173
188.292
188.412
188.531
188.65
188.77
188.889
189.009
189.128
189.248
189.367
189.486
189.606
189.725
189.844
189.963
190.082
190.2
190.319
190.438
190.556
190.674
190.792
190.91
191.028
191.146
191.264
191.381
191.499
191.616
191.733
191.85
191.968
192.085
192.201
192.318
192.435
192.552
192.669
192.786
192.902
193.019
193.136
193.253
193.37
193.487
193.604
193.721
193.839
193.956
194.074
194.192
194.31
194.428
194.546
194.665
194.784
194.902
195.021
195.141
195.26
195.379
195.498
195.618
195.737
195.856
195.976
196.095
196.214
196.333
196.452
196.571
196.69
196.809
196.928
197.046
197.165
197.283
197.401
197.519
197.637
197.755
197.872
197.99
198.107
198.225
198.342
198.459
198.576
198.693
198.809
198.926
199.043
199.159
199.276
199.393
199.509
199.626
199.742
199.859
199.975
200.092
200.209
200.325
200.442
200.559
200.677
200.794
200.912
201.029
201.147
201.265
201.384
201.502
201.621
201.739
201.858
201.977
202.096
202.215
202.335
202.454
202.573
202.692
202.811
202.931
203.05
203.169
203.288
203.406
203.525
203.644
203.762
203.881
203.999
204.117
204.235
204.353
204.471
204.588
204.706
204.823
204.94
205.057
205.174
205.291
205.408
205.525
205.641
205.758
205.874
205.99
206.107
206.223
206.339
206.455
206.572
206.688
206.804
206.921
207.037
207.154
207.27
207.387
207.504
207.621
207.738
207.856
207.973
208.091
208.209
208.327
208.446
208.564
208.683
208.802
208.921
209.04
209.159
209.278
209.397
209.516
209.635
209.754
209.873
209.992
210.111
210.23
210.348
210.467
210.585
210.704
210.822
210.94
211.058
211.175
211.293
211.411
211.528
211.645
211.762
211.879
211.996
212.112
212.229
212.345
212.462
212.578
212.694
212.81
212.926
213.042
213.158
213.274
213.39
213.506
213.622
213.738
213.854
213.97
214.087
214.203
214.319
214.436
214.553
214.67
214.787
214.905
215.022
215.14
215.258
215.377
215.495
215.613
215.732
215.851
215.97
216.089
216.208
216.327
216.446
216.565
216.684
216.803
216.921
217.04
217.159
217.277
217.396
217.514
217.632
217.75
217.868
217.986
218.103
218.221
218.338
218.455
218.572
218.689
218.806
218.922
219.039
219.155
219.271
219.387
219.503
219.619
219.735
219.851
219.966
220.082
220.198
220.313
220.429
220.544
220.66
220.776
220.891
221.007
221.123
221.239
221.356
221.472
221.589
221.706
221.823
221.94
222.058
222.176
222.294
222.412
222.53
222.649
222.767
222.886
223.005
223.124
223.243
223.362
223.481
223.599
223.718
223.837
223.956
224.074
224.193
224.311
224.429
224.547
224.665
224.783
224.901
225.019
225.136
225.253
225.37
225.487
225.604
225.72
225.837
225.953
226.069
226.185
226.301
226.417
226.532
226.648
226.763
226.879
226.994
227.109
227.225
227.34
227.455
227.57
227.685
227.801
227.916
228.032
228.147
228.263
228.379
228.495
228.612
228.728
228.845
228.962
229.079
229.197
229.315
229.433
229.551
229.669
229.788
229.906
230.025
230.144
230.262
230.381
230.5
230.619
230.738
230.856
230.975
231.093
231.212
231.33
231.448
231.566
231.684
231.802
231.92
232.037
232.154
232.271
232.388
232.505
232.622
232.738
232.855
232.971
233.087
233.202
233.318
233.434
233.549
233.664
233.779
233.894
234.009
234.124
234.239
234.354
234.469
234.584
234.699
234.813
234.928
235.043
235.158
235.274
235.389
235.505
235.621
235.737
235.853
235.97
236.087
236.204
236.321
236.439
236.556
236.674
236.793
236.911
237.029
237.148
237.266
237.385
237.504
237.623
237.741
237.86
237.978
238.097
238.215
238.334
238.452
238.57
238.688
238.806
238.923
239.041
239.158
239.275
239.392
239.509
239.626
239.742
239.858
239.975
240.09
240.206
240.322
240.437
240.552
240.667
240.782
240.897
241.012
241.127
241.241
241.356
241.47
241.585
241.699
241.814
241.928
242.043
242.157
242.272
242.387
242.502
242.617
242.732
242.848
242.964
243.08
243.196
243.313
243.43
243.547
243.665
243.782
243.9
244.018
244.136
244.254
244.373
244.491
244.61
244.728
244.847
244.966
245.084
245.202
245.321
245.439
245.557
245.675
245.793
245.911
246.029
246.146
246.263
246.381
246.498
246.614
246.731
246.848
246.964
247.08
247.196
247.311
247.427
247.542
247.657
247.772
247.887
248.001
248.116
248.23
248.345
248.459
248.573
248.687
248.801
248.915
249.029
249.143
249.257
249.372
249.486
249.6
249.715
249.829
249.944
250.06
250.175
250.291
250.407
250.523
250.64
250.757
250.874
250.991
251.109
251.226
251.344
251.462
251.581
251.699
251.817
251.936
252.054
252.172
252.291
252.409
252.527
252.646
252.764
252.882
252.999
253.117
253.235
253.352
253.47
253.587
253.704
253.82
253.937
254.053
254.17
254.285
254.401
254.517
254.632
254.747
254.862
254.977
255.092
255.206
255.32
255.434
255.548
255.662
255.776
255.89
256.003
256.117
256.231
256.344
256.458
256.572
256.685
256.799
256.913
257.027
257.142
257.256
257.371
257.486
257.601
257.717
257.833
257.949
258.066
258.182
258.299
258.417
258.534
258.652
258.77
258.888
259.006
259.124
259.242
259.36
259.479
259.597
259.715
259.833
259.951
260.069
260.187
260.305
260.423
260.54
260.658
260.775
260.892
261.009
261.125
261.242
261.358
261.474
261.59
261.706
261.821
261.937
262.052
262.167
262.281
262.396
262.51
262.624
262.738
262.851
262.965
263.078
263.192
263.305
263.418
263.532
263.645
263.758
263.871
263.984
264.097
264.211
264.324
264.438
264.552
264.666
264.78
264.895
265.01
265.125
265.241
265.357
265.473
265.589
265.706
265.823
265.94
266.057
266.175
266.293
266.41
266.528
266.646
266.764
266.883
267.001
267.119
267.237
267.355
267.473
267.59
267.708
267.826
267.943
268.061
268.178
268.295
268.412
268.528
268.645
268.761
268.877
268.993
269.109
269.224
269.339
269.454
269.569
269.683
269.798
269.912
270.026
270.139
270.253
270.366
270.479
270.592
270.705
270.818
270.931
271.044
271.156
271.269
271.382
271.494
271.607
271.72
271.833
271.946
272.059
272.173
272.287
272.401
272.515
272.63
272.745
272.86
272.976
273.092
273.208
273.325
273.441
273.558
273.676
273.793
273.91
274.028
274.146
274.264
274.382
274.5
274.618
274.735
274.853
274.971
275.089
275.206
275.324
275.441
275.559
275.676
275.793
275.91
276.027
276.143
276.259
276.376
276.491
276.607
276.723
276.838
276.953
277.068
277.182
277.296
277.41
277.524
277.638
277.751
277.864
277.977
278.09
278.203
278.315
278.428
278.54
278.653
278.765
278.877
278.989
279.101
279.214
279.326
279.438
279.551
279.664
279.777
279.89
280.003
280.117
280.231
280.345
280.46
280.575
280.691
280.806
280.922
281.039
281.155
281.272
281.389
281.506
281.623
281.741
281.858
281.976
282.093
282.211
282.329
282.446
282.564
282.682
282.799
282.917
283.034
283.151
283.268
283.386
283.502
283.619
283.736
283.852
283.968
284.084
284.2
284.316
284.431
284.546
284.661
284.775
284.89
285.004
285.117
285.231
285.344
285.457
285.57
285.683
285.796
285.908
286.02
286.132
286.244
286.356
286.468
286.579
286.691
286.803
286.914
287.026
287.138
287.25
287.362
287.474
287.587
287.699
287.812
287.926
288.039
288.153
288.268
288.382
288.497
288.612
288.728
288.844
288.96
289.077
289.193
289.31
289.427
289.544
289.661
289.779
289.896
290.014
290.131
290.249
290.366
290.484
290.601
290.718
290.836
290.953
291.07
291.187
291.304
291.42
291.537
291.653
291.769
291.885
292.001
292.116
292.232
292.347
292.462
292.576
292.69
292.804
292.918
293.032
293.145
293.258
293.37
293.483
293.595
293.707
293.819
293.931
294.043
294.154
294.265
294.377
294.488
294.599
294.71
294.821
294.932
295.044
295.155
295.266
295.378
295.49
295.602
295.714
295.827
295.94
296.053
296.167
296.281
296.396
296.51
296.625
296.741
296.856
296.972
297.088
297.205
297.321
297.438
297.555
297.672
297.789
297.906
298.023
298.141
298.258
298.375
298.492
298.609
298.727
298.844
298.96
299.077
299.194
299.311
299.427
299.543
299.659
299.775
299.891
300.006
300.122
300.237
300.352
300.466
300.58
300.694
300.808
300.921
301.035
301.148
301.26
301.373
301.485
301.597
301.708
301.82
301.931
302.043
302.154
302.265
302.375
302.486
302.597
302.708
302.818
302.929
303.04
303.15
303.261
303.372
303.484
303.595
303.707
303.819
303.931
304.044
304.157
304.27
304.384
304.498
304.613
304.727
304.842
304.958
305.073
305.189
305.305
305.421
305.538
305.654
305.771
305.888
306.005
306.122
306.239
306.356
306.473
306.59
306.707
306.823
306.94
307.057
307.174
307.29
307.406
307.523
307.639
307.755
307.871
307.986
308.102
308.217
308.332
308.446
308.561
308.675
308.789
308.902
309.015
309.128
309.241
309.354
309.466
309.578
309.689
309.801
309.912
310.023
310.134
310.245
310.355
310.466
310.576
310.686
310.796
310.906
311.016
311.126
311.236
311.346
311.457
311.567
311.677
311.788
311.899
312.011
312.122
312.234
312.346
312.459
312.572
312.685
312.799
312.913
313.028
313.142
313.257
313.372
313.488
313.604
313.719
313.836
313.952
314.068
314.185
314.301
314.418
314.535
314.651
314.768
314.885
315.002
315.118
315.235
315.352
315.468
315.584
315.701
315.817
315.933
316.049
316.164
316.28
316.395
316.51
316.625
316.74
316.854
316.968
317.082
317.196
317.309
317.422
317.535
317.647
317.759
317.871
317.982
318.094
318.205
318.315
318.426
318.536
318.646
318.756
318.866
318.976
319.086
319.195
319.305
319.414
319.524
319.633
319.742
319.852
319.962
320.071
320.181
320.292
320.402
320.513
320.624
320.735
320.847
320.959
321.072
321.185
321.298
321.412
321.525
321.64
321.754
321.869
321.984
322.099
322.215
322.33
322.446
322.562
322.678
322.794
322.911
323.027
323.144
323.26
323.377
323.493
323.609
323.726
323.842
323.958
324.075
324.191
324.307
324.422
324.538
324.654
324.769
324.884
324.999
325.114
325.228
325.343
325.457
325.57
325.684
325.797
325.91
326.022
326.135
326.247
326.358
326.47
326.581
326.692
326.802
326.913
327.023
327.132
327.242
327.352
327.461
327.57
327.679
327.788
327.897
328.006
328.115
328.224
328.333
328.442
328.551
328.66
328.769
328.879
328.988
329.099
329.209
329.32
329.431
329.542
329.654
329.766
329.878
329.991
330.104
330.218
330.332
330.446
330.56
330.675
330.789
330.904
331.02
331.135
331.251
331.367
331.482
331.598
331.714
331.83
331.947
332.063
332.179
332.295
332.411
332.527
332.643
332.759
332.875
332.99
333.106
333.221
333.337
333.452
333.567
333.682
333.796
333.911
334.025
334.138
334.252
334.365
334.478
334.591
334.703
334.815
334.927
335.039
335.15
335.261
335.371
335.481
335.591
335.701
335.811
335.92
336.029
336.138
336.247
336.355
336.464
336.572
336.681
336.789
336.897
337.005
337.114
337.222
337.33
337.439
337.547
337.656
337.765
337.875
337.984
338.094
338.204
338.315
338.426
338.537
338.649
338.761
338.873
338.986
339.099
339.212
339.326
339.44
339.554
339.668
339.783
339.898
340.013
340.128
340.243
340.358
340.474
340.59
340.705
340.821
340.937
341.053
341.169
341.284
341.4
341.516
341.631
341.747
341.862
341.978
342.093
342.208
342.323
342.438
342.552
342.667
342.781
342.895
343.009
343.122
343.235
343.348
343.461
343.573
343.685
343.796
343.908
344.019
344.129
344.24
344.35
344.46
344.569
344.678
344.787
344.896
345.005
345.113
345.221
345.329
345.437
345.545
345.653
345.76
345.868
345.976
346.083
346.191
346.298
346.406
346.514
346.622
346.731
346.839
346.948
347.057
347.166
347.276
347.386
347.496
347.607
347.718
347.83
347.941
348.053
348.166
348.278
348.391
348.505
348.618
348.732
348.846
348.96
349.075
349.189
349.304
349.419
349.534
349.649
349.765
349.88
349.995
350.111
350.226
350.341
350.457
350.572
350.687
350.803
350.918
351.033
351.148
351.263
351.377
351.492
351.606
351.721
351.835
351.948
352.062
352.175
352.288
352.401
352.514
352.626
352.738
352.849
352.96
353.071
353.182
353.292
353.402
353.512
353.621
353.73
353.839
353.948
354.056
354.164
354.272
354.38
354.487
354.595
354.702
354.809
354.916
355.024
355.131
355.238
355.345
355.452
355.559
355.666
355.774
355.881
355.989
356.096
356.205
356.313
356.422
356.531
356.64
356.75
356.859
356.97
357.08
357.191
357.302
357.414
357.526
357.638
357.75
357.863
357.976
358.089
358.202
358.316
358.43
358.544
358.658
358.772
358.887
359.002
359.116
359.231
359.346
359.461
359.576
359.69
359.805
359.92
360.035
360.15
360.264
360.379
360.494
360.608
360.722
360.837
360.951
361.065
361.179
361.292
361.406
361.519
361.632
361.744
361.857
361.969
362.081
362.193
362.304
362.415
362.526
362.636
362.746
362.856
362.965
363.074
363.183
363.291
363.399
363.507
363.615
363.723
363.83
363.937
364.044
364.151
364.258
364.365
364.472
364.578
364.685
364.792
364.898
365.005
365.111
365.218
365.325
365.431
365.538
365.645
365.752
365.859
365.966
366.074
366.182
366.29
366.399
366.508
366.617
366.726
366.836
366.946
367.057
367.168
367.279
367.39
367.501
367.613
367.725
367.838
367.95
368.063
368.176
368.29
368.403
368.517
368.631
368.745
368.859
368.973
369.088
369.202
369.317
369.431
369.546
369.661
369.775
369.89
370.004
370.119
370.233
370.347
370.462
370.576
370.69
370.804
370.917
371.031
371.145
371.258
371.371
371.484
371.597
371.709
371.821
371.933
372.045
372.156
372.267
372.377
372.487
372.596
372.705
372.814
372.922
373.03
373.138
373.245
373.352
373.459
373.566
373.672
373.778
373.884
373.991
374.097
374.203
374.309
374.415
374.521
374.627
374.733
374.839
374.945
375.051
375.157
375.263
375.369
375.475
375.581
375.687
375.793
375.899
376.006
376.112
376.218
376.325
376.432
376.54
376.648
376.756
376.866
376.975
377.085
377.196
377.307
377.418
377.53
377.642
377.754
377.867
377.98
378.093
378.206
378.32
378.434
378.549
378.663
378.777
378.892
379.007
379.122
379.236
379.351
379.466
379.58
379.695
379.809
379.923
380.038
380.152
380.266
380.379
380.493
380.606
380.719
380.832
380.944
381.057
381.168
381.28
381.39
381.501
381.611
381.72
381.83
381.938
382.047
382.155
382.262
382.369
382.476
382.583
382.689
382.796
382.902
383.008
383.113
383.219
383.325
383.43
383.536
383.641
383.747
383.853
383.958
384.064
384.169
384.275
384.381
384.486
384.592
384.697
384.803
384.909
385.014
385.12
385.226
385.333
385.441
385.549
385.657
385.766
385.876
385.986
386.097
386.208
386.319
386.431
386.543
386.655
386.768
386.88
386.993
387.106
387.22
387.333
387.446
387.56
387.673
387.787
387.9
388.013
388.126
388.239
388.352
388.465
388.578
388.69
388.803
388.915
389.026
389.138
389.249
389.36
389.47
389.58
389.69
389.8
389.909
390.018
390.126
390.234
390.342
390.449
390.556
390.663
390.769
390.875
390.981
391.087
391.193
391.298
391.404
391.509
391.615
391.72
391.825
391.93
392.035
392.141
392.246
392.351
392.456
392.562
392.667
392.772
392.878
392.983
393.089
393.196
393.303
393.411
393.519
393.627
393.736
393.845
393.954
394.064
394.174
394.285
394.395
394.507
394.618
394.73
394.841
394.953
395.065
395.178
395.29
395.403
395.515
395.627
395.74
395.852
395.964
396.077
396.189
396.301
396.413
396.525
396.636
396.748
396.86
396.971
397.083
397.194
397.305
397.416
397.527
397.638
397.748
397.858
397.968
398.077
398.186
398.295
398.403
398.511
398.618
398.725
398.831
398.938
399.044
399.149
399.254
399.36
399.465
399.569
399.674
399.779
399.883
399.988
400.093
400.197
400.302
400.406
400.511
400.616
400.72
400.825
400.929
401.034
401.139
401.243
401.348
401.453
401.557
401.662
401.767
401.872
401.977
402.083
402.189
402.297
402.404
402.513
402.621
402.731
402.84
402.951
403.061
403.172
403.283
403.394
403.506
403.617
403.729
403.84
403.952
404.064
404.175
404.287
404.399
404.511
404.623
404.734
404.846
404.957
405.069
405.18
405.291
405.402
405.513
405.624
405.734
405.845
405.956
406.067
406.178
406.288
406.399
406.51
406.621
406.731
406.841
406.951
407.061
407.17
407.279
407.387
407.495
407.602
407.709
407.815
407.921
408.027
408.132
408.237
408.342
408.446
408.55
408.654
408.758
408.862
408.966
409.07
409.174
409.278
409.381
409.485
409.588
409.692
409.795
409.899
410.002
410.106
410.209
410.313
410.417
410.521
410.625
410.729
410.833
410.937
411.041
411.145
411.25
411.354
411.459
411.565
411.672
411.78
411.889
412
412.111
412.223
412.335
412.448
412.561
412.674
412.787
412.9
413.013
413.125
413.237
413.349
413.46
413.571
413.682
413.792
413.901
414.011
414.119
414.228
414.336
414.444
414.551
414.658
414.765
414.871
414.978
415.084
415.19
415.296
415.402
415.508
415.614
415.72
415.826
415.933
416.04
416.147
416.254
416.362
416.47
416.578
416.686
416.794
416.902
417.011
417.119
417.227
417.335
417.443
417.551
417.658
417.766
417.873
417.98
418.087
418.193
418.3
418.406
418.511
418.617
418.722
418.827
418.932
419.036
419.14
419.244
419.348
419.452
419.556
419.659
419.763
419.866
419.97
420.073
420.176
420.28
420.383
420.486
420.59
420.693
420.796
420.899
421.003
421.107
421.211
421.316
421.422
421.528
421.635
421.742
421.85
421.959
422.068
422.178
422.289
422.4
422.511
422.623
422.735
422.847
422.959
423.071
423.184
423.296
423.408
423.519
423.631
423.742
423.852
423.962
424.072
424.181
424.29
424.398
424.505
424.612
424.719
424.825
424.93
425.035
425.14
425.244
425.348
425.452
425.555
425.658
425.762
425.865
425.968
426.071
426.174
426.277
426.38
426.482
426.585
426.688
426.791
426.894
426.996
427.099
427.202
427.306
427.41
427.516
427.622
427.729
427.837
427.945
428.054
428.163
428.272
428.381
428.49
428.599
428.708
428.816
428.924
429.032
429.139
429.246
429.352
429.458
429.564
429.669
429.774
429.879
429.983
430.087
430.19
430.294
430.397
430.5
430.602
430.705
430.807
430.91
431.012
431.115
431.217
431.32
431.423
431.526
431.629
431.733
431.837
431.941
432.046
432.151
432.257
432.363
432.47
432.577
432.685
432.793
432.901