/*--------------------------------*- C++ -*----------------------------------*\
  =========                 |
  \\      /  F ield         | OpenFOAM: The Open Source CFD Toolbox
   \\    /   O peration     | Website:  https://openfoam.org
    \\  /    A nd           | Version:  9
     \\/     M anipulation  |
\*---------------------------------------------------------------------------*/
FoamFile
{
    format      ascii;
    class       volScalarField;
    location    "0.008";
    object      ddt0(rho);
}
// * * * * * * * * * * * * * * * * * * * * * * * * * * * * * * * * * * * * * //

dimensions      [1 -3 -1 0 0 0 0];

internalField   nonuniform List<scalar> 
100
(
-1.60178e-05
-6.23644e-05
-0.000192503
-0.000582895
-0.0017091
-0.00485172
-0.0133136
-0.0352557
-0.0899188
-0.220381
-0.517646
-1.1615
-2.47977
-5.01309
-9.54769
-16.9145
-26.3776
-35.9901
-45.8536
-54.4215
-60.7336
-64.4594
-65.8678
-65.5191
-63.9871
-61.7205
-59.0218
-56.0802
-53.0121
-49.8894
-46.7641
-43.6453
-40.6449
-37.4651
-35.0231
-31.2299
-29.7083
-26.5002
-22.4015
-23.4109
-18.8765
-14.1883
-16.2612
-15.3292
-8.41552
-5.62743
-9.10811
-9.8763
-4.07039
1.00682
1.48872
-4.39516
-5.20963
-0.0663992
2.47889
4.55769
3.38968
-2.27572
-0.572021
-0.526061
0.959128
3.48919
2.7128
1.03
0.467734
-0.780925
0.699739
1.6815
1.19793
10.7905
41.8785
119.046
107.658
72.9697
48.5008
28.6103
14.2987
5.00302
1.47964
10.1284
0.664501
-4.18267
-11.5168
-11.1947
28.0553
6.13027
-5.64112
-17.2266
20.4829
7.8485
0.612273
-0.484738
-1.2413
60.164
211.827
398.039
69.7309
11.755
1.69303
0.203251
)
;

boundaryField
{
    sides
    {
        type            calculated;
        value           nonuniform List<scalar> 2(0.203251 -1.60178e-05);
    }
    empty
    {
        type            empty;
    }
}


// ************************************************************************* //
