/*--------------------------------*- C++ -*----------------------------------*\
  =========                 |
  \\      /  F ield         | OpenFOAM: The Open Source CFD Toolbox
   \\    /   O peration     | Website:  https://openfoam.org
    \\  /    A nd           | Version:  9
     \\/     M anipulation  |
\*---------------------------------------------------------------------------*/
FoamFile
{
    format      ascii;
    class       volScalarField;
    location    "0.008";
    object      p_0;
}
// * * * * * * * * * * * * * * * * * * * * * * * * * * * * * * * * * * * * * //

dimensions      [1 -1 -2 0 0 0 0];

internalField   nonuniform List<scalar> 
100
(
100000
100000
100000
100000
99999.9
99999.9
99999.6
99998.8
99996.9
99991.9
99980
99952.3
99891.4
99763.7
99511.2
99043.5
98254.8
97105.3
95571.1
93660.9
91431.2
88965.4
86349.9
83658.1
80943.6
78242.5
75577.8
72963.9
70410.1
67922.2
65504.4
63158.3
60887.9
58688.6
56573.7
54518.9
52565.6
50660
48856.3
47118.9
45453.6
43876.2
42376.7
40955.3
39615.6
38359
37190.1
36113.1
35123.4
34229.3
33410.6
32721.1
32119.9
31606.6
31185
30867.9
30576.2
30440.1
30328.6
30256.5
30244.5
30220.4
30219.4
30219.7
30217.8
30220.3
30229
30233.2
30228.3
30235.3
30233.4
30214.2
30222.1
30220.6
30221.4
30206
30210.4
30244.1
30262.2
30208.6
30156.1
30145
30183.4
30266.4
30206.3
29952.7
29913
30019.2
30001.1
29745.5
29670
29531.3
29238.4
28458.2
25558.4
14663.5
10840
10123.8
10017.3
10002.1
)
;

boundaryField
{
    sides
    {
        type            zeroGradient;
    }
    empty
    {
        type            empty;
    }
}


// ************************************************************************* //
