/*--------------------------------*- C++ -*----------------------------------*\
  =========                 |
  \\      /  F ield         | OpenFOAM: The Open Source CFD Toolbox
   \\    /   O peration     | Website:  https://openfoam.org
    \\  /    A nd           | Version:  9
     \\/     M anipulation  |
\*---------------------------------------------------------------------------*/
FoamFile
{
    format      ascii;
    class       volScalarField;
    location    "0.042";
    object      mag(U);
}
// * * * * * * * * * * * * * * * * * * * * * * * * * * * * * * * * * * * * * //

dimensions      [0 1 -1 0 0 0 0];

internalField   nonuniform List<scalar> 
100
(
43.2003
45.2956
48.8931
51.6142
53.9103
56.3035
58.7105
61.0915
63.4322
65.7682
68.1019
70.411
72.6983
74.97
77.2539
79.5192
81.7373
83.9546
86.2122
88.4457
90.5997
92.7545
94.9281
97.136
99.3581
101.502
103.629
105.775
107.955
110.173
112.41
114.619
116.807
118.981
121.124
123.244
125.19
126.982
128.333
129.22
130.014
130.805
131.702
132.779
134.01
135.033
136.003
136.897
137.787
138.885
140.285
141.722
142.847
143.992
145.205
146.153
147.042
148.013
149.146
150.202
151.126
152.099
153.349
154.863
156.159
157.323
158.553
159.866
161.011
161.342
159.867
155.315
143.238
114.3
58.1039
21.6556
44.9571
79.1571
100.544
106.18
108.923
111.629
114.333
116.902
119.462
122.049
124.694
127.417
130.187
132.975
135.753
138.52
141.282
144.05
146.843
149.629
152.375
155.143
157.86
161.988
)
;

boundaryField
{
    sides
    {
        type            calculated;
        value           nonuniform List<scalar> 2(161.988 43.2003);
    }
    empty
    {
        type            empty;
    }
}


// ************************************************************************* //
