/*--------------------------------*- C++ -*----------------------------------*\
  =========                 |
  \\      /  F ield         | OpenFOAM: The Open Source CFD Toolbox
   \\    /   O peration     | Website:  https://openfoam.org
    \\  /    A nd           | Version:  9
     \\/     M anipulation  |
\*---------------------------------------------------------------------------*/
FoamFile
{
    format      ascii;
    class       volVectorField;
    location    "0.042";
    object      U;
}
// * * * * * * * * * * * * * * * * * * * * * * * * * * * * * * * * * * * * * //

dimensions      [0 1 -1 0 0 0 0];

internalField   nonuniform List<vector> 
100
(
(43.2003 0 0)
(45.2956 0 0)
(48.8931 0 0)
(51.6142 0 0)
(53.9103 0 0)
(56.3035 0 0)
(58.7105 0 0)
(61.0915 0 0)
(63.4322 0 0)
(65.7682 0 0)
(68.1019 0 0)
(70.411 0 0)
(72.6983 0 0)
(74.97 0 0)
(77.2539 0 0)
(79.5192 0 0)
(81.7373 0 0)
(83.9546 0 0)
(86.2122 0 0)
(88.4457 0 0)
(90.5997 0 0)
(92.7545 0 0)
(94.9281 0 0)
(97.136 0 0)
(99.3581 0 0)
(101.502 0 0)
(103.629 0 0)
(105.775 0 0)
(107.955 0 0)
(110.173 0 0)
(112.41 0 0)
(114.619 0 0)
(116.807 0 0)
(118.981 0 0)
(121.124 0 0)
(123.244 0 0)
(125.19 0 0)
(126.982 0 0)
(128.333 0 0)
(129.22 0 0)
(130.014 0 0)
(130.805 0 0)
(131.702 0 0)
(132.779 0 0)
(134.01 0 0)
(135.033 0 0)
(136.003 0 0)
(136.897 0 0)
(137.787 0 0)
(138.885 0 0)
(140.285 0 0)
(141.722 0 0)
(142.847 0 0)
(143.992 0 0)
(145.205 0 0)
(146.153 0 0)
(147.042 0 0)
(148.013 0 0)
(149.146 0 0)
(150.202 0 0)
(151.126 0 0)
(152.099 0 0)
(153.349 0 0)
(154.863 0 0)
(156.159 0 0)
(157.323 0 0)
(158.553 0 0)
(159.866 0 0)
(161.011 0 0)
(161.342 0 0)
(159.867 0 0)
(155.315 0 0)
(143.238 0 0)
(114.3 0 0)
(58.1039 0 0)
(21.6556 0 0)
(44.9571 0 0)
(79.1571 0 0)
(100.544 0 0)
(106.18 0 0)
(108.923 0 0)
(111.629 0 0)
(114.333 0 0)
(116.902 0 0)
(119.462 0 0)
(122.049 0 0)
(124.694 0 0)
(127.417 0 0)
(130.187 0 0)
(132.975 0 0)
(135.753 0 0)
(138.52 0 0)
(141.282 0 0)
(144.05 0 0)
(146.843 0 0)
(149.629 0 0)
(152.375 0 0)
(155.143 0 0)
(157.86 0 0)
(161.988 0 0)
)
;

boundaryField
{
    sides
    {
        type            zeroGradient;
    }
    empty
    {
        type            empty;
    }
}


// ************************************************************************* //
