/*--------------------------------*- C++ -*----------------------------------*\
  =========                 |
  \\      /  F ield         | OpenFOAM: The Open Source CFD Toolbox
   \\    /   O peration     | Website:  https://openfoam.org
    \\  /    A nd           | Version:  9
     \\/     M anipulation  |
\*---------------------------------------------------------------------------*/
FoamFile
{
    format      ascii;
    class       volScalarField;
    location    "0.009";
    object      mag(U);
}
// * * * * * * * * * * * * * * * * * * * * * * * * * * * * * * * * * * * * * //

dimensions      [0 1 -1 0 0 0 0];

internalField   nonuniform List<scalar> 
10000
(
1.28897e-12
1.29923e-12
1.21147e-12
1.11955e-12
1.14124e-12
1.1967e-12
1.15316e-12
1.11055e-12
1.17257e-12
1.12372e-12
1.15552e-12
1.07025e-12
1.04859e-12
1.19388e-12
1.14696e-12
1.07266e-12
1.16896e-12
1.19997e-12
1.27943e-12
1.27635e-12
1.30757e-12
1.47167e-12
1.48286e-12
1.51834e-12
1.54357e-12
1.39588e-12
1.33382e-12
1.26484e-12
1.20213e-12
1.16455e-12
1.1136e-12
1.08962e-12
1.16722e-12
1.20021e-12
1.14533e-12
1.04618e-12
9.3765e-13
8.76556e-13
8.65626e-13
8.27493e-13
8.93361e-13
9.32292e-13
8.32428e-13
6.5867e-13
5.88352e-13
6.6659e-13
5.39924e-13
5.15586e-13
5.49873e-13
5.57703e-13
6.63228e-13
8.65303e-13
1.0434e-12
1.17415e-12
1.17147e-12
1.14159e-12
1.28145e-12
1.28931e-12
1.25395e-12
1.1884e-12
1.11301e-12
1.1517e-12
1.08168e-12
9.85874e-13
9.42735e-13
8.50128e-13
7.16841e-13
5.84247e-13
5.2322e-13
5.65355e-13
4.99594e-13
4.66956e-13
5.16557e-13
4.73248e-13
4.0527e-13
4.51905e-13
5.07281e-13
6.33014e-13
6.34143e-13
5.97263e-13
6.66226e-13
7.22576e-13
7.19e-13
7.80183e-13
8.07196e-13
9.6512e-13
1.13928e-12
1.23943e-12
1.29337e-12
1.26963e-12
1.26771e-12
1.361e-12
1.32099e-12
1.39915e-12
1.44406e-12
1.53408e-12
1.6038e-12
1.62147e-12
1.57655e-12
1.51182e-12
1.53843e-12
1.52004e-12
1.39343e-12
1.05506e-12
7.11619e-13
4.88389e-13
4.77122e-13
4.36339e-13
3.49507e-13
4.25934e-13
3.777e-13
3.64681e-13
5.10441e-13
5.27763e-13
6.27848e-13
7.2574e-13
7.51087e-13
8.09458e-13
6.70782e-13
6.07431e-13
7.18741e-13
8.26894e-13
7.73083e-13
6.87985e-13
6.98135e-13
7.61269e-13
8.92757e-13
8.31561e-13
7.57158e-13
7.12051e-13
6.08692e-13
4.64869e-13
4.91505e-13
4.09893e-13
2.9204e-13
2.87716e-13
2.18741e-13
1.48771e-13
1.93679e-13
1.20357e-13
2.27296e-14
2.65307e-14
1.23886e-14
4.42211e-14
4.16771e-14
7.81295e-14
2.87134e-16
4.31638e-14
1.11747e-13
5.54385e-14
4.56443e-14
2.70537e-14
1.01131e-14
8.19136e-14
8.36825e-14
1.39835e-15
6.01753e-15
6.76026e-14
3.9612e-14
1.89916e-15
8.32016e-14
5.13253e-14
5.64668e-14
1.01348e-13
1.27251e-13
1.70457e-13
5.63475e-14
5.88543e-15
3.95413e-14
7.85833e-14
3.56119e-14
1.22068e-13
1.18637e-13
7.22903e-14
1.05603e-13
1.54215e-13
1.97295e-13
2.63092e-13
2.21922e-13
1.9927e-13
2.14699e-13
2.0072e-13
2.39698e-13
2.09716e-13
5.85195e-14
1.50792e-13
2.85633e-13
3.33385e-13
2.82258e-13
3.14004e-13
2.94732e-13
2.85191e-13
2.47595e-13
2.01276e-13
2.47443e-13
1.66759e-13
6.79371e-14
1.89355e-13
2.09188e-13
1.80324e-13
1.59755e-13
1.47631e-13
2.31595e-13
1.97394e-13
6.34189e-14
4.3669e-14
7.71088e-15
2.68479e-14
6.41216e-14
1.04993e-13
1.77767e-14
1.53513e-13
2.58292e-13
2.31146e-13
2.57705e-13
3.30565e-13
3.90174e-13
4.77506e-13
4.51588e-13
4.92382e-13
5.86704e-13
6.13906e-13
5.14171e-13
5.68468e-13
6.69017e-13
6.63492e-13
6.76479e-13
7.33987e-13
7.18359e-13
6.5506e-13
7.07467e-13
6.71446e-13
6.74125e-13
6.99356e-13
6.92029e-13
7.97753e-13
9.32093e-13
9.16512e-13
9.76821e-13
1.07971e-12
1.13034e-12
1.18899e-12
1.19881e-12
1.27325e-12
1.35071e-12
1.35088e-12
1.34827e-12
1.37692e-12
1.33217e-12
1.43803e-12
1.44604e-12
1.36327e-12
1.28166e-12
1.21306e-12
1.13141e-12
1.05369e-12
1.12238e-12
1.10316e-12
1.00369e-12
1.05059e-12
1.09254e-12
1.05259e-12
1.06647e-12
9.72955e-13
1.00103e-12
1.0155e-12
8.98193e-13
8.67914e-13
7.93801e-13
8.01744e-13
7.96793e-13
8.04909e-13
8.80128e-13
7.72318e-13
6.8618e-13
6.58821e-13
5.60801e-13
4.18664e-13
3.41355e-13
2.87554e-13
3.72075e-13
4.69114e-13
6.38061e-13
8.21814e-13
9.436e-13
1.00382e-12
9.18106e-13
9.44548e-13
9.78962e-13
8.74533e-13
8.88265e-13
8.65133e-13
8.2808e-13
8.28358e-13
8.14031e-13
7.79284e-13
7.91483e-13
7.58711e-13
7.71227e-13
8.20656e-13
7.7944e-13
8.41571e-13
8.1606e-13
8.10911e-13
9.28203e-13
1.10312e-12
1.22334e-12
1.25672e-12
1.16735e-12
1.02901e-12
1.0905e-12
1.04989e-12
8.82691e-13
7.89052e-13
6.57968e-13
5.98828e-13
6.46138e-13
6.79668e-13
5.29068e-13
3.50779e-13
3.95078e-13
3.59694e-13
2.8741e-13
3.25245e-13
4.20189e-13
5.32946e-13
5.80339e-13
5.23552e-13
5.99927e-13
6.65456e-13
5.88176e-13
6.69793e-13
7.1866e-13
7.27304e-13
7.75087e-13
7.32302e-13
8.06663e-13
9.12062e-13
9.48197e-13
1.02795e-12
1.08929e-12
1.22719e-12
1.31612e-12
1.32109e-12
1.3564e-12
1.3953e-12
1.35665e-12
1.27936e-12
1.24677e-12
1.28893e-12
1.32696e-12
1.20553e-12
1.23279e-12
1.21668e-12
1.16695e-12
1.21525e-12
1.30584e-12
1.41771e-12
1.53797e-12
1.51141e-12
1.5654e-12
1.59439e-12
1.4442e-12
1.37729e-12
1.29148e-12
1.27145e-12
1.21546e-12
1.09741e-12
1.05308e-12
1.11198e-12
1.12355e-12
1.05382e-12
9.18859e-13
9.46159e-13
1.05587e-12
1.11398e-12
1.22117e-12
1.30091e-12
1.33019e-12
1.29381e-12
1.30677e-12
1.36005e-12
1.20864e-12
1.01712e-12
9.15074e-13
7.11067e-13
6.38568e-13
5.50598e-13
4.75222e-13
5.41475e-13
6.13898e-13
4.9539e-13
5.11346e-13
5.2239e-13
4.37378e-13
3.64189e-13
2.16501e-13
1.54846e-13
1.44264e-13
4.92855e-14
9.18685e-14
1.0753e-13
2.59128e-13
3.84789e-13
3.48158e-13
3.11835e-13
2.55971e-13
2.7504e-13
3.39504e-13
3.94779e-13
5.72358e-13
7.14889e-13
7.35461e-13
8.46807e-13
8.02746e-13
7.8129e-13
8.81763e-13
8.74157e-13
8.8793e-13
8.62265e-13
7.61686e-13
8.21489e-13
8.67785e-13
7.65733e-13
6.64926e-13
6.10674e-13
6.64105e-13
7.70416e-13
8.76257e-13
9.02276e-13
1.02424e-12
1.0765e-12
1.149e-12
1.1986e-12
1.1592e-12
1.22175e-12
1.23496e-12
1.24788e-12
1.35303e-12
1.27086e-12
1.15179e-12
1.04812e-12
1.08126e-12
1.02486e-12
9.81806e-13
1.08223e-12
1.03619e-12
8.80008e-13
8.5871e-13
7.87666e-13
7.38938e-13
7.30325e-13
6.95294e-13
7.39247e-13
7.32147e-13
7.70016e-13
7.99444e-13
7.00664e-13
5.72063e-13
4.91182e-13
4.54079e-13
3.78956e-13
3.94185e-13
5.08744e-13
5.99305e-13
4.99965e-13
3.48083e-13
4.29963e-13
5.20164e-13
4.55764e-13
4.80583e-13
4.88542e-13
3.04891e-13
2.48637e-13
2.3118e-13
1.55059e-13
2.31601e-13
2.16244e-13
1.70902e-13
2.39487e-13
2.43622e-13
3.3497e-13
4.00049e-13
4.15067e-13
4.95407e-13
5.0223e-13
4.4069e-13
4.28561e-13
5.23349e-13
4.80341e-13
4.67368e-13
5.0965e-13
4.15946e-13
4.12104e-13
4.07369e-13
2.86089e-13
2.47358e-13
7.69717e-14
1.38947e-13
2.63948e-13
3.47242e-13
2.87891e-13
1.94996e-13
1.43345e-13
6.23696e-14
2.5109e-13
2.94019e-13
2.34569e-13
2.28283e-13
2.66017e-13
2.28794e-13
2.59898e-13
1.81e-13
1.61917e-13
2.14024e-13
1.98085e-13
1.52205e-13
2.11455e-13
3.06628e-13
3.13817e-13
2.75081e-13
3.08e-13
2.54923e-13
2.87632e-13
3.80494e-13
5.86914e-13
8.25478e-13
9.17459e-13
8.5564e-13
8.18767e-13
8.88136e-13
9.59492e-13
9.669e-13
1.01191e-12
1.05887e-12
1.13312e-12
1.09003e-12
9.87006e-13
9.78086e-13
9.42505e-13
9.62223e-13
1.07175e-12
1.12525e-12
1.18427e-12
1.23423e-12
1.19128e-12
1.21873e-12
1.32898e-12
1.29967e-12
1.351e-12
1.37455e-12
1.33878e-12
1.36115e-12
1.31282e-12
1.33797e-12
1.24752e-12
1.11445e-12
1.1111e-12
1.08891e-12
9.49013e-13
8.08956e-13
7.40192e-13
8.12008e-13
8.04006e-13
7.435e-13
6.7539e-13
6.04543e-13
6.44286e-13
6.76065e-13
6.01908e-13
5.53717e-13
4.77569e-13
3.57973e-13
2.41747e-13
2.01353e-13
2.91631e-13
4.03186e-13
3.30832e-13
3.25903e-13
4.37551e-13
3.55473e-13
3.64437e-13
2.98216e-13
2.58608e-13
3.33218e-13
2.68748e-13
2.80152e-13
2.87835e-13
1.69052e-13
2.03889e-13
2.85487e-13
4.04146e-13
5.40826e-13
5.78345e-13
6.4572e-13
7.41063e-13
7.70729e-13
7.18661e-13
7.87982e-13
8.8072e-13
8.41065e-13
7.20973e-13
6.82262e-13
6.81063e-13
6.31408e-13
6.85241e-13
7.09273e-13
7.22873e-13
8.26427e-13
8.27494e-13
9.29573e-13
9.82521e-13
8.43443e-13
8.00601e-13
8.14708e-13
7.12936e-13
6.16399e-13
5.36196e-13
4.29095e-13
4.26283e-13
5.02727e-13
5.69705e-13
5.63631e-13
6.35947e-13
7.86581e-13
8.90132e-13
9.0917e-13
9.56499e-13
1.08833e-12
1.21899e-12
1.2111e-12
1.29328e-12
1.30801e-12
1.34634e-12
1.30731e-12
1.21425e-12
1.09855e-12
1.02866e-12
1.01167e-12
9.718e-13
8.82474e-13
6.87821e-13
6.62786e-13
5.88294e-13
5.09905e-13
5.37493e-13
6.43496e-13
5.56009e-13
4.51002e-13
3.31449e-13
3.75686e-13
3.66969e-13
3.8226e-13
4.53405e-13
3.32841e-13
2.31558e-13
1.9925e-13
7.77e-14
8.66299e-14
4.48858e-14
9.88203e-14
3.86294e-14
1.7969e-13
2.04999e-13
2.54035e-13
2.69966e-13
3.9033e-13
6.24474e-13
5.75615e-13
5.25546e-13
5.02177e-13
3.70361e-13
2.99961e-13
4.62123e-13
5.24747e-13
6.55903e-13
7.11262e-13
7.6804e-13
8.62641e-13
8.23731e-13
7.75246e-13
8.15079e-13
8.11194e-13
8.45506e-13
8.24196e-13
7.06814e-13
7.39312e-13
7.59523e-13
6.08754e-13
6.42832e-13
5.04327e-13
5.00312e-13
4.87246e-13
4.86893e-13
5.37896e-13
4.54065e-13
3.37368e-13
3.72463e-13
3.98404e-13
3.45575e-13
2.16291e-13
7.02172e-14
8.16146e-14
1.11766e-13
4.57678e-14
8.56523e-14
5.55033e-14
8.66005e-14
3.97293e-14
5.65118e-14
1.17163e-13
3.3006e-14
1.85932e-14
1.52833e-13
1.39562e-13
4.64921e-14
5.37453e-14
5.59252e-14
7.3958e-14
4.61135e-14
1.09006e-13
2.02734e-13
2.19143e-13
2.42594e-13
2.02991e-13
1.92672e-13
2.2467e-13
1.64889e-13
1.15483e-13
1.52125e-13
1.52883e-13
1.74049e-13
2.30251e-13
2.22647e-13
3.15434e-13
2.50557e-13
1.80062e-13
1.86407e-13
1.40608e-13
3.62686e-14
1.49784e-14
7.37749e-14
2.63423e-14
9.30927e-14
1.83656e-13
2.97676e-13
3.21681e-13
3.35556e-13
3.90211e-13
5.13054e-13
5.73282e-13
6.18005e-13
6.25172e-13
6.7006e-13
6.30342e-13
5.59871e-13
6.03175e-13
6.77179e-13
6.76649e-13
7.84982e-13
7.63638e-13
8.07657e-13
8.8421e-13
8.70374e-13
9.32266e-13
9.92135e-13
8.79927e-13
7.93316e-13
7.90915e-13
8.34618e-13
9.0049e-13
8.49631e-13
9.06708e-13
8.9891e-13
7.42825e-13
7.2073e-13
7.34856e-13
6.90038e-13
7.61801e-13
7.68765e-13
7.26958e-13
7.75362e-13
7.32969e-13
7.59468e-13
7.48619e-13
7.41596e-13
6.98995e-13
7.02262e-13
6.71911e-13
6.4378e-13
4.76376e-13
4.70763e-13
4.59855e-13
4.806e-13
5.45607e-13
5.22648e-13
6.35638e-13
6.05562e-13
6.03556e-13
6.26335e-13
5.43159e-13
5.19396e-13
5.17686e-13
3.94194e-13
3.57748e-13
3.53678e-13
2.62454e-13
2.81804e-13
3.56256e-13
4.04229e-13
4.99328e-13
5.55922e-13
6.37533e-13
7.26268e-13
7.01913e-13
6.63133e-13
6.27529e-13
6.36791e-13
6.51185e-13
7.08015e-13
7.6654e-13
8.05403e-13
9.96596e-13
1.08732e-12
1.046e-12
1.09718e-12
1.13823e-12
1.14013e-12
1.18442e-12
1.16023e-12
1.12001e-12
1.09971e-12
1.13044e-12
1.11787e-12
1.06353e-12
9.80443e-13
1.07841e-12
1.18248e-12
1.30516e-12
1.30937e-12
1.25349e-12
1.06797e-12
1.0991e-12
1.19797e-12
1.23437e-12
1.22722e-12
1.19803e-12
1.05523e-12
1.0132e-12
8.9636e-13
8.25583e-13
8.59237e-13
8.79966e-13
8.769e-13
8.1672e-13
8.2499e-13
9.14996e-13
1.04316e-12
1.07393e-12
1.07163e-12
1.18388e-12
1.1548e-12
1.08978e-12
1.15302e-12
1.18775e-12
1.1224e-12
1.094e-12
1.13485e-12
1.22778e-12
1.20066e-12
1.17821e-12
1.08286e-12
1.0217e-12
1.05153e-12
1.01929e-12
8.99198e-13
1.00496e-12
1.08998e-12
1.14617e-12
1.17165e-12
1.04526e-12
1.07949e-12
1.08879e-12
1.06727e-12
1.03969e-12
9.83278e-13
1.08771e-12
1.20659e-12
1.14963e-12
1.15025e-12
1.13619e-12
1.11404e-12
1.04163e-12
9.36251e-13
8.26215e-13
7.69328e-13
6.10441e-13
5.96783e-13
6.04333e-13
5.5565e-13
5.706e-13
5.33061e-13
5.20817e-13
5.24189e-13
4.37992e-13
3.58157e-13
2.94834e-13
1.62561e-13
7.28305e-14
7.52033e-14
6.86448e-14
5.34752e-14
1.93363e-14
9.46648e-14
1.5917e-13
1.50371e-13
2.07348e-13
2.72636e-13
2.60681e-13
2.9015e-13
1.85881e-13
2.61132e-13
2.86815e-13
1.53793e-13
9.84886e-14
3.09178e-14
4.01628e-14
7.09284e-14
2.08674e-14
2.178e-15
6.24987e-14
2.20388e-13
2.19977e-13
2.70422e-13
3.13549e-13
4.56922e-13
5.12056e-13
5.93064e-13
6.08932e-13
5.33949e-13
4.78547e-13
3.56009e-13
2.65452e-13
2.04661e-13
8.94751e-14
1.39955e-13
4.43885e-14
1.30282e-13
2.51328e-13
2.54372e-13
3.2123e-13
2.19837e-13
1.425e-13
1.24703e-13
6.91683e-14
1.27722e-13
2.40506e-13
3.63982e-13
4.35812e-13
5.02033e-13
4.05065e-13
2.80566e-13
2.31304e-13
7.1379e-14
8.63777e-14
1.97092e-13
2.61311e-13
3.10013e-13
2.59169e-13
3.28052e-13
4.47732e-13
5.28289e-13
4.85988e-13
5.74805e-13
6.25354e-13
5.63047e-13
6.02412e-13
6.73225e-13
6.4868e-13
7.13686e-13
7.32856e-13
7.05298e-13
7.17567e-13
5.33135e-13
4.61003e-13
4.70372e-13
5.08244e-13
4.51157e-13
3.83095e-13
4.0544e-13
3.83668e-13
4.07123e-13
3.9599e-13
4.23616e-13
4.53551e-13
4.39974e-13
4.01114e-13
3.20123e-13
2.40626e-13
2.57773e-13
2.62504e-13
3.16523e-13
3.16768e-13
2.69953e-13
3.09401e-13
3.72495e-13
3.37814e-13
4.14796e-13
4.75714e-13
6.12819e-13
6.24305e-13
5.67391e-13
5.99056e-13
6.12524e-13
5.15467e-13
5.71986e-13
6.77883e-13
6.98423e-13
6.24655e-13
5.20056e-13
5.96378e-13
6.57156e-13
6.47584e-13
6.04743e-13
6.4104e-13
7.74065e-13
7.68357e-13
6.96264e-13
7.10394e-13
6.89519e-13
6.70586e-13
6.33037e-13
5.98663e-13
4.66136e-13
4.38e-13
3.56706e-13
3.19089e-13
3.63765e-13
2.03375e-13
1.26857e-13
9.86619e-14
8.08777e-14
9.45637e-14
5.68567e-15
6.17433e-14
1.77493e-14
5.58932e-14
3.77067e-14
1.64229e-13
1.71774e-13
1.466e-13
5.86375e-14
4.16919e-14
9.39656e-14
1.2896e-13
4.27879e-15
3.33021e-14
8.16004e-14
2.39251e-14
1.99626e-14
1.47896e-14
3.45083e-14
1.46804e-13
1.84937e-13
1.83581e-13
1.70185e-13
5.639e-14
1.09706e-13
2.82489e-14
2.03308e-14
8.48425e-14
1.20609e-13
1.99465e-13
2.92956e-13
3.49895e-13
2.78003e-13
2.29929e-13
1.93035e-13
1.13632e-13
4.58585e-14
1.55172e-13
2.50486e-13
2.91415e-13
3.99903e-13
4.62047e-13
4.9234e-13
5.75416e-13
5.11666e-13
5.08464e-13
6.0723e-13
5.81454e-13
4.64653e-13
3.39227e-13
3.09885e-13
3.49132e-13
2.67688e-13
1.4317e-13
1.35062e-14
9.00594e-15
1.35697e-13
2.41091e-13
1.67034e-13
1.28677e-13
1.58282e-13
1.13352e-13
1.00818e-13
2.13173e-13
1.69489e-13
2.32206e-13
3.31032e-13
3.90442e-13
4.13973e-13
3.34748e-13
2.44339e-13
1.85394e-13
6.9596e-14
3.81795e-14
6.26457e-14
1.2251e-14
8.41597e-14
1.67519e-14
2.84087e-15
9.60715e-16
4.93285e-14
5.2714e-15
2.83677e-14
1.05457e-13
3.3057e-14
1.26265e-13
8.7331e-14
7.23039e-14
1.37507e-13
2.43495e-13
3.48707e-13
4.12668e-13
4.67792e-13
4.96025e-13
3.34607e-13
3.20879e-13
3.32906e-13
3.51107e-13
3.27122e-13
3.08134e-13
3.06919e-13
2.34207e-13
2.69609e-13
2.21349e-13
1.82943e-13
2.97866e-13
4.57064e-13
4.67013e-13
4.85638e-13
4.36271e-13
3.54028e-13
3.43502e-13
3.89324e-13
3.73993e-13
4.37719e-13
4.72422e-13
4.21135e-13
4.32748e-13
3.63289e-13
2.84826e-13
2.80648e-13
3.09477e-13
3.09862e-13
2.78636e-13
3.61306e-13
4.78499e-13
5.8692e-13
6.20474e-13
7.1693e-13
6.40984e-13
5.66659e-13
6.04313e-13
7.50401e-13
9.52604e-13
1.0192e-12
9.84929e-13
1.05886e-12
1.11353e-12
1.12786e-12
1.08054e-12
1.03746e-12
1.02191e-12
9.64287e-13
9.39922e-13
9.73092e-13
9.5331e-13
8.92653e-13
7.72879e-13
5.41253e-13
5.26604e-13
4.02562e-13
2.12418e-13
1.6278e-13
8.98028e-14
8.76523e-14
3.58429e-14
1.03658e-14
1.28217e-14
1.48785e-13
1.95413e-13
1.32372e-13
1.42797e-13
1.91654e-13
2.46681e-13
3.27257e-13
2.1108e-13
2.21968e-13
3.12108e-13
3.67662e-13
3.07249e-13
3.6273e-13
5.31273e-13
5.91155e-13
5.31032e-13
6.70642e-13
7.34763e-13
6.33201e-13
7.00948e-13
7.38214e-13
7.11131e-13
8.02606e-13
8.65713e-13
8.75101e-13
8.99391e-13
8.29661e-13
8.96886e-13
9.33862e-13
9.08792e-13
9.12956e-13
9.6807e-13
1.12528e-12
1.24362e-12
1.18276e-12
1.11678e-12
1.12763e-12
1.06868e-12
1.04548e-12
1.03218e-12
9.73948e-13
9.58637e-13
9.31716e-13
8.83053e-13
8.96254e-13
8.26408e-13
7.14165e-13
6.10678e-13
6.3597e-13
6.44169e-13
5.16712e-13
4.49026e-13
3.13805e-13
2.78185e-13
3.63572e-13
3.20119e-13
2.41899e-13
2.44102e-13
3.19062e-13
3.46674e-13
2.31391e-13
2.87694e-13
3.79812e-13
2.69941e-13
3.61962e-13
4.71538e-13
4.81676e-13
5.27435e-13
4.49781e-13
5.22323e-13
5.99268e-13
6.37436e-13
6.69517e-13
9.52124e-13
1.13831e-12
1.11713e-12
1.05238e-12
1.09729e-12
1.09993e-12
1.07982e-12
1.14166e-12
1.08733e-12
1.04564e-12
1.03446e-12
9.96468e-13
9.93615e-13
1.03592e-12
9.679e-13
1.06438e-12
1.14281e-12
1.23803e-12
1.29443e-12
1.25451e-12
1.33192e-12
1.37785e-12
1.38475e-12
1.42448e-12
1.46226e-12
1.45692e-12
1.42045e-12
1.31893e-12
1.26711e-12
1.32558e-12
1.32339e-12
1.26273e-12
1.25865e-12
1.32703e-12
1.33573e-12
1.31545e-12
1.43537e-12
1.45478e-12
1.27747e-12
1.24646e-12
1.15006e-12
1.1388e-12
1.16648e-12
1.04929e-12
1.02733e-12
1.0233e-12
9.80164e-13
1.03155e-12
1.05422e-12
1.15291e-12
1.13674e-12
1.09876e-12
1.09657e-12
1.06593e-12
9.61972e-13
1.01579e-12
1.0578e-12
1.01084e-12
9.60727e-13
9.4703e-13
9.15893e-13
8.78039e-13
8.17579e-13
7.66539e-13
6.86396e-13
6.11149e-13
4.91811e-13
4.50215e-13
5.21992e-13
5.15848e-13
4.42022e-13
4.64111e-13
4.01786e-13
3.38735e-13
3.77259e-13
2.64863e-13
1.02621e-13
9.54635e-14
7.46673e-14
1.61369e-13
2.28277e-13
1.81218e-13
2.41272e-13
3.07154e-13
2.81564e-13
2.82358e-13
3.73029e-13
4.28808e-13
5.00641e-13
6.03953e-13
6.76276e-13
7.81291e-13
8.30714e-13
9.13358e-13
8.00559e-13
7.03135e-13
7.26153e-13
6.50175e-13
5.89372e-13
7.27484e-13
7.30969e-13
6.68121e-13
6.20035e-13
6.63497e-13
6.56631e-13
5.91897e-13
5.65982e-13
5.66583e-13
5.769e-13
6.44712e-13
6.63897e-13
5.31985e-13
5.708e-13
5.39087e-13
4.29509e-13
4.84525e-13
4.68198e-13
5.05464e-13
4.84703e-13
5.0624e-13
5.93512e-13
7.02494e-13
7.5835e-13
8.21664e-13
9.37632e-13
8.45492e-13
7.08971e-13
7.00107e-13
7.93042e-13
7.41005e-13
6.33129e-13
4.88483e-13
4.03758e-13
4.0333e-13
4.50555e-13
4.51021e-13
3.52491e-13
2.82742e-13
3.52674e-13
4.42997e-13
4.80477e-13
5.97457e-13
6.86337e-13
7.07725e-13
7.59309e-13
8.15184e-13
8.23934e-13
7.84005e-13
7.90226e-13
6.56219e-13
4.64337e-13
3.29312e-13
2.12918e-13
2.05038e-13
3.26021e-14
3.75428e-14
1.59834e-14
1.39408e-14
1.24656e-13
8.32374e-14
3.80999e-14
7.24757e-14
4.11719e-14
3.824e-14
2.01543e-14
1.21195e-13
2.00441e-13
1.87327e-13
1.61907e-13
2.18659e-13
3.50978e-13
3.90616e-13
3.57293e-13
3.82468e-13
3.3325e-13
1.70876e-13
1.51034e-13
1.78366e-13
1.46826e-13
1.10536e-13
4.95875e-15
1.04501e-13
1.81875e-13
1.59063e-13
3.96564e-14
5.0249e-14
4.62008e-14
3.42032e-15
1.55698e-14
2.89843e-14
9.2929e-14
4.64071e-14
2.11013e-13
1.6187e-13
1.26091e-13
2.08792e-13
2.70426e-13
2.54657e-13
2.23991e-13
1.92346e-13
2.21244e-13
6.69802e-14
8.57536e-14
1.13667e-13
6.51673e-14
3.45825e-14
1.84123e-14
7.95926e-14
9.56698e-14
1.26982e-14
2.20055e-14
2.93089e-14
7.32228e-14
9.77112e-14
5.66122e-15
7.02844e-15
9.02079e-14
1.45243e-13
1.93384e-13
2.53592e-13
3.73329e-13
3.63263e-13
2.48615e-13
3.13237e-13
3.18257e-13
2.48573e-13
2.60831e-13
2.61755e-13
3.42767e-13
4.90457e-13
5.39901e-13
4.66699e-13
4.23653e-13
3.85608e-13
3.39065e-13
2.85605e-13
3.05309e-13
3.91586e-13
3.45997e-13
2.63615e-13
3.59547e-13
3.45563e-13
2.96721e-13
3.91355e-13
4.82655e-13
4.79577e-13
3.42154e-13
1.63709e-13
8.21187e-14
5.45039e-14
3.61064e-14
1.64195e-13
1.85483e-13
1.87478e-13
2.3121e-13
1.62925e-13
4.62795e-14
4.5086e-14
5.52735e-16
6.84904e-14
1.0352e-13
1.95974e-13
1.92203e-13
1.69211e-13
2.08586e-13
1.63343e-13
1.18738e-13
3.97074e-14
3.98109e-14
9.26331e-14
1.38947e-13
2.23703e-13
3.71963e-13
5.00859e-13
6.11781e-13
6.81579e-13
8.23973e-13
8.53144e-13
9.1748e-13
9.73888e-13
8.46929e-13
8.0741e-13
7.61775e-13
6.33369e-13
6.32871e-13
7.66358e-13
7.01353e-13
6.61281e-13
6.5168e-13
5.29753e-13
4.79325e-13
3.57702e-13
2.71814e-13
1.95746e-13
2.44267e-13
3.80954e-13
3.73536e-13
2.72932e-13
3.02549e-13
3.93463e-13
5.03517e-13
6.32801e-13
5.52736e-13
4.45456e-13
4.68003e-13
4.74357e-13
4.27091e-13
4.22862e-13
4.82403e-13
5.5664e-13
6.78348e-13
6.58118e-13
6.31707e-13
6.66919e-13
5.85775e-13
4.97554e-13
4.35435e-13
4.13269e-13
2.74555e-13
2.87182e-13
3.91158e-13
4.3049e-13
4.91948e-13
4.38846e-13
3.13926e-13
3.22427e-13
4.08523e-13
4.16436e-13
4.43024e-13
4.48082e-13
4.70593e-13
4.78916e-13
5.45255e-13
5.15691e-13
3.73478e-13
2.06572e-13
1.67761e-13
9.04649e-15
1.27003e-13
2.05491e-13
2.74418e-13
3.44295e-13
3.53635e-13
2.93461e-13
2.8741e-13
1.77236e-13
7.77721e-14
1.12869e-13
1.24265e-13
8.39905e-14
1.76848e-13
2.16653e-13
3.67386e-13
4.58766e-13
4.02692e-13
4.89367e-13
6.39335e-13
7.10961e-13
7.93234e-13
8.03207e-13
7.59938e-13
8.00142e-13
7.4973e-13
8.67515e-13
9.45514e-13
9.6613e-13
1.02993e-12
1.00647e-12
9.48106e-13
8.77257e-13
7.49411e-13
6.74953e-13
7.21589e-13
6.98887e-13
7.25997e-13
7.46987e-13
8.61783e-13
9.33294e-13
9.89556e-13
1.12431e-12
1.09984e-12
1.04641e-12
1.07609e-12
1.13836e-12
1.19594e-12
1.25538e-12
1.24735e-12
1.28915e-12
1.30452e-12
1.19555e-12
1.20912e-12
1.23829e-12
1.31828e-12
1.33438e-12
1.39741e-12
1.46705e-12
1.4344e-12
1.36946e-12
1.33833e-12
1.45485e-12
1.53722e-12
1.57275e-12
1.63372e-12
1.601e-12
1.54501e-12
1.45493e-12
1.35589e-12
1.4769e-12
1.65307e-12
1.73256e-12
1.69196e-12
1.79191e-12
1.72651e-12
1.58361e-12
1.67705e-12
2.10843e-12
3.08526e-12
7.0494e-12
2.00878e-11
6.27985e-11
2.03178e-10
6.58737e-10
2.1432e-09
6.94997e-09
2.25372e-08
7.3111e-08
2.37222e-07
7.69724e-07
2.49756e-06
8.10404e-06
2.62957e-05
8.53228e-05
0.000276849
0.000898291
0.00291469
0.00945746
0.0306892
0.0996091
0.323365
1.05942
3.12539
5.36406
6.60707
7.25206
7.59446
7.78046
7.88429
7.94459
7.98193
8.00766
8.02852
8.04973
8.07812
8.12888
8.24559
8.56338
9.52562
11.541
13.1961
14.1279
14.6688
15.0073
15.2352
15.3977
15.5178
15.6078
15.6749
15.7244
15.7603
15.7862
15.8045
15.8174
15.8263
15.8325
15.8368
15.8396
15.8416
15.8429
15.8438
15.8444
15.8448
15.845
15.8452
15.8453
15.8454
15.8454
15.8454
15.8455
15.8455
15.8455
15.8455
15.8455
15.8455
15.8455
15.8455
15.8455
15.8455
15.8455
15.8455
15.8455
15.8455
15.8455
15.8455
15.8455
15.8455
15.8455
15.8455
15.8455
15.8455
15.8455
15.8455
15.8455
15.8455
15.8455
15.8455
15.8455
15.8455
15.8455
15.8455
15.8455
15.8455
15.8455
15.8455
15.8455
15.8455
15.8455
15.8455
15.8455
15.8455
15.8455
15.8455
15.8455
15.8455
15.8455
15.8455
15.8455
15.8455
15.8455
15.8455
15.8455
15.8456
15.846
15.8471
15.8508
15.8627
15.9016
16.0281
16.4452
17.6159
18.8811
19.6026
19.8933
20.1461
20.2463
20.2575
20.3121
20.3822
20.4268
20.4262
20.4493
20.5131
20.5681
20.5787
20.5811
20.6321
20.6879
20.7159
20.7125
20.7416
20.7944
20.8331
20.8336
20.8421
20.8859
20.9267
20.9378
20.9344
20.9634
20.9997
21.0189
21.0136
21.0264
21.0548
21.0752
21.0732
21.0744
21.0926
21.1082
21.1092
21.1051
21.1126
21.1208
21.1204
21.1173
21.1209
21.1319
21.1585
21.234
21.4817
22.0859
22.624
22.8788
23.0493
23.1011
23.1296
23.1724
23.2031
23.2059
23.2079
23.235
23.2606
23.2674
23.2616
23.2743
23.292
23.3002
23.2946
23.2971
23.3059
23.3108
23.3087
23.308
23.3137
23.3296
23.3694
23.4897
23.8844
24.8316
25.6701
26.1337
26.3178
26.4831
26.5593
26.5687
26.5926
26.6415
26.6797
26.6838
26.6854
26.721
26.7566
26.7689
26.7611
26.7772
26.8008
26.8112
26.8006
26.8003
26.8097
26.8204
26.8317
26.8643
26.9767
27.3238
27.7973
28.0606
28.2236
28.2847
28.321
28.3564
28.3741
28.3747
28.3818
28.4009
28.416
28.4153
28.4125
28.4193
28.4272
28.432
28.4391
28.4653
28.551
28.8231
29.3857
29.8191
30.0169
30.1707
30.2205
30.2235
30.2598
30.298
30.3113
30.2984
30.3075
30.3255
30.3338
30.3357
30.3529
30.425
30.6555
31.0533
31.3051
31.4246
31.5124
31.5367
31.5375
31.5575
31.5743
31.5758
31.5745
31.5888
31.633
31.7474
32.0561
32.4431
32.6967
32.809
32.8818
32.928
32.9444
32.9511
32.9729
32.995
33.0037
32.9964
33.0017
33.0167
33.0398
33.0836
33.216
33.5721
33.9448
34.1714
34.2383
34.3019
34.3595
34.3878
34.3822
34.3944
34.4275
34.4501
34.4431
34.4377
34.4509
34.4697
34.494
34.5526
34.7536
35.2706
35.7713
36.0423
36.1365
36.2392
36.2999
36.3147
36.3147
36.3503
36.394
36.416
36.4097
36.4195
36.4503
36.4747
36.4743
36.4686
36.4817
36.4968
36.499
36.4929
36.4956
36.5071
36.5326
36.5955
36.7918
37.3519
38.0028
38.4078
38.5496
38.6712
38.7508
38.7745
38.7683
38.7991
38.8412
38.8614
38.8489
38.8501
38.8665
38.8769
38.881
38.8882
38.9241
39.043
39.3727
39.7712
39.973
40.129
40.2002
40.2124
40.2333
40.2733
40.3036
40.3048
40.3017
40.3204
40.3401
40.3406
40.3348
40.3447
40.3791
40.4669
40.7186
41.2521
41.685
41.9702
42.0754
42.1203
42.1876
42.2343
42.2422
42.236
42.2616
42.2905
42.2953
42.2876
42.298
42.3378
42.4389
42.71
43.124
43.3781
43.5752
43.6526
43.6624
43.6969
43.7497
43.7835
43.7775
43.7762
43.7999
43.8223
43.8268
43.8259
43.8507
43.942
44.2076
44.6685
44.977
45.1499
45.272
45.3117
45.316
45.3504
45.3902
45.408
45.3993
45.4055
45.4265
45.4401
45.4449
45.4601
45.5234
45.7263
46.1722
46.5511
46.7121
46.8583
46.9296
46.9382
46.9426
46.9832
47.0194
47.02
47.0078
47.0215
47.0574
47.1304
47.3106
47.6233
47.8407
48.0139
48.0768
48.0764
48.1065
48.1487
48.1661
48.162
48.1788
48.2477
48.4412
48.768
48.9792
49.0779
49.1805
49.2308
49.2294
49.2331
49.264
49.2897
49.3013
49.324
49.4134
49.6784
50.0431
50.2567
50.3385
50.4319
50.4889
50.5013
50.4985
50.5266
50.5586
50.5693
50.5684
50.5934
50.6883
50.952
51.3201
51.5227
51.6601
51.7559
51.7884
51.788
51.8176
51.8588
51.8779
51.8699
51.8728
51.905
51.9953
52.2199
52.5676
52.7854
52.9504
53.0485
53.0757
53.0747
53.1099
53.1561
53.1764
53.1654
53.1643
53.1978
53.299
53.5384
53.8724
54.0658
54.1829
54.2908
54.3422
54.3385
54.3336
54.3618
54.402
54.4356
54.4749
54.6018
54.8759
55.1265
55.2736
55.3111
55.3213
55.3745
55.4255
55.4352
55.4215
55.4348
55.4855
55.6108
55.8981
56.2284
56.4133
56.5686
56.6469
56.6787
56.7129
56.7407
56.7535
56.7626
56.7885
56.8129
56.8339
56.8656
56.9718
57.2711
57.6407
57.8815
57.9603
58.0081
58.0867
58.1506
58.1619
58.1496
58.1744
58.2128
58.2293
58.2295
58.2449
58.3119
58.5092
58.8946
59.1976
59.3141
59.4329
59.5247
59.5618
59.5558
59.5702
59.6207
59.6598
59.6571
59.6411
59.657
59.7034
59.8079
60.0616
60.4196
60.6333
60.8172
60.9175
60.9409
60.9372
60.9787
61.0358
61.0629
61.0477
61.0371
61.0597
61.1024
61.1781
61.3508
61.6915
61.9723
62.1875
62.3086
62.3407
62.3416
62.386
62.4444
62.4726
62.46
62.4524
62.47
62.5003
62.5441
62.6356
62.8885
63.2842
63.5752
63.687
63.7452
63.8329
63.9028
63.9162
63.8995
63.9115
63.9505
63.9792
63.9982
64.0384
64.192
64.4455
64.6543
64.725
64.742
64.7991
64.8945
65.029
65.2154
65.369
65.5017
65.6218
65.68
65.6836
65.6957
65.7529
65.804
65.8078
65.7922
65.8096
65.8655
65.9925
66.277
66.6335
66.843
67.029
67.138
67.1678
67.1691
67.2174
67.2858
67.3216
67.3093
67.3016
67.327
67.3651
67.409
67.4916
67.7332
68.0856
68.3707
68.5123
68.55
68.5879
68.6585
68.7155
68.7204
68.7045
68.7212
68.7562
68.7916
68.8245
68.9188
69.1736
69.4714
69.6887
69.7639
69.7761
69.8285
69.8905
69.9157
69.9125
69.9295
69.9959
70.1429
70.3356
70.4775
70.5829
70.7115
70.8649
71.0088
71.1157
71.2
71.2934
71.3947
71.4671
71.4995
71.522
71.5588
71.635
71.7401
71.8506
71.9408
72.0233
72.1172
72.2449
72.4126
72.5679
72.6638
72.7167
72.771
72.8832
73.0213
73.1234
73.1526
73.1745
73.2295
73.3632
73.5072
73.5933
73.6398
73.7027
73.816
73.9524
74.0666
74.1494
74.2327
74.3336
74.4377
74.5264
74.6069
74.7049
74.8195
74.9197
74.9832
75.0357
75.1109
75.2418
75.378
75.4654
75.5157
75.5772
75.6916
75.827
75.9312
75.9946
76.062
76.1764
76.3054
76.3966
76.4442
76.4901
76.6226
76.7808
76.8731
76.8958
76.9198
77.0349
77.2184
77.3638
77.3977
77.4124
77.4736
77.6468
77.8263
77.9046
77.9207
77.9449
78.0774
78.2618
78.3913
78.4136
78.4221
78.4904
78.6657
78.8408
78.9132
78.9226
78.9395
79.0493
79.2552
79.4376
79.5119
79.5033
79.4942
79.5385
79.7059
79.9352
80.1108
80.1676
80.1561
80.1531
80.2023
80.3709
80.5664
80.7029
80.7282
80.7351
80.7754
80.9313
81.1256
81.2643
81.2911
81.2913
81.3126
81.3929
81.5853
81.8107
81.973
82.021
82.0249
82.0396
82.0738
82.2017
82.3974
82.5592
82.6076
82.621
82.6571
82.8061
82.9816
83.0779
83.0951
83.1127
83.207
83.3952
83.5667
83.6261
83.6441
83.6801
83.8251
83.9948
84.0793
84.1018
84.1383
84.2867
84.4642
84.5638
84.5836
84.6025
84.7076
84.8862
85.0284
85.0627
85.0782
85.1468
85.3153
85.4827
85.5418
85.5595
85.5957
85.7452
85.9349
86.0625
86.0816
86.0843
86.1211
86.2728
86.4802
86.6407
86.6802
86.6743
86.6879
86.778
86.9771
87.1659
87.2588
87.2594
87.252
87.2931
87.4544
87.6995
87.8914
87.9761
87.9693
87.9166
87.9133
87.9427
88.0585
88.2823
88.6083
88.812
88.9097
88.9057
88.826
88.7738
88.7922
88.8812
89.0829
89.3788
89.5783
89.6682
89.6618
89.6028
89.5986
89.6464
89.8141
90.0782
90.2931
90.4045
90.4119
90.3647
90.3507
90.3783
90.4912
90.7103
90.9654
91.13
91.1802
91.1808
91.1858
91.2184
91.2897
91.4713
91.6721
91.8081
91.8401
91.845
91.8697
91.9106
92.0569
92.3025
92.5298
92.66
92.677
92.6227
92.5805
92.6004
92.7077
92.9276
93.2215
93.4081
93.4771
93.4622
93.3926
93.3878
93.4275
93.5774
93.8268
94.0453
94.1624
94.1754
94.151
94.1624
94.2409
94.4331
94.6665
94.8264
94.8722
94.8732
94.8828
94.9183
94.9644
95.0505
95.2309
95.4538
95.6276
95.6951
95.7032
95.711
95.7479
95.8848
96.0726
96.2061
96.2409
96.2618
96.3407
96.5094
96.6682
96.7176
96.737
96.7766
96.9218
97.1039
97.2126
97.2392
97.262
97.3573
97.5328
97.682
97.7228
97.742
97.7914
97.9497
98.1301
98.2222
98.2444
98.2672
98.3653
98.5527
98.7214
98.7756
98.7803
98.7976
98.8788
99.0678
99.2569
99.3508
99.3672
99.3821
99.4493
99.6296
99.83
99.9463
99.9592
99.9381
99.9542
100.051
100.261
100.482
100.613
100.634
100.607
100.615
100.694
100.89
101.141
101.309
101.355
101.32
101.266
101.281
101.383
101.599
101.886
102.068
102.129
102.111
102.056
102.067
102.146
102.34
102.602
102.781
102.841
102.831
102.811
102.838
102.948
103.163
103.361
103.463
103.473
103.461
103.487
103.597
103.809
104.004
104.098
104.103
104.09
104.118
104.248
104.489
104.714
104.834
104.846
104.785
104.759
104.794
104.938
105.197
105.454
105.594
105.62
105.568
105.518
105.54
105.65
105.877
106.167
106.344
106.4
106.374
106.299
106.301
106.368
106.55
106.848
107.072
107.179
107.184
107.108
107.066
107.093
107.214
107.451
107.737
107.907
107.958
107.932
107.875
107.889
107.972
108.169
108.442
108.625
108.688
108.672
108.616
108.626
108.705
108.898
109.182
109.379
109.456
109.449
109.379
109.374
109.423
109.582
109.843
110.055
110.158
110.167
110.132
110.142
110.217
110.406
110.669
110.85
110.912
110.893
110.822
110.827
110.891
111.068
111.355
111.571
111.674
111.682
111.628
111.619
111.662
111.808
112.06
112.28
112.392
112.406
112.363
112.357
112.399
112.544
112.798