/*--------------------------------*- C++ -*----------------------------------*\
  =========                 |
  \\      /  F ield         | OpenFOAM: The Open Source CFD Toolbox
   \\    /   O peration     | Website:  https://openfoam.org
    \\  /    A nd           | Version:  9
     \\/     M anipulation  |
\*---------------------------------------------------------------------------*/
FoamFile
{
    format      ascii;
    class       volScalarField;
    location    "0.009";
    object      rho;
}
// * * * * * * * * * * * * * * * * * * * * * * * * * * * * * * * * * * * * * //

dimensions      [1 -3 0 0 0 0 0];

internalField   nonuniform List<scalar> 
10000
(
0.999645
0.999645
0.999645
0.999645
0.999645
0.999645
0.999645
0.999645
0.999645
0.999645
0.999645
0.999645
0.999645
0.999645
0.999645
0.999645
0.999645
0.999645
0.999645
0.999645
0.999645
0.999645
0.999645
0.999645
0.999645
0.999645
0.999645
0.999645
0.999645
0.999645
0.999645
0.999645
0.999645
0.999645
0.999645
0.999645
0.999645
0.999645
0.999645
0.999645
0.999645
0.999645
0.999645
0.999645
0.999645
0.999645
0.999645
0.999645
0.999645
0.999645
0.999645
0.999645
0.999645
0.999645
0.999645
0.999645
0.999645
0.999645
0.999645
0.999645
0.999645
0.999645
0.999645
0.999645
0.999645
0.999645
0.999645
0.999645
0.999645
0.999645
0.999645
0.999645
0.999645
0.999645
0.999645
0.999645
0.999645
0.999645
0.999645
0.999645
0.999645
0.999645
0.999645
0.999645
0.999645
0.999645
0.999645
0.999645
0.999645
0.999645
0.999645
0.999645
0.999645
0.999645
0.999645
0.999645
0.999645
0.999645
0.999645
0.999645
0.999645
0.999645
0.999645
0.999645
0.999645
0.999645
0.999645
0.999645
0.999645
0.999645
0.999645
0.999645
0.999645
0.999645
0.999645
0.999645
0.999645
0.999645
0.999645
0.999645
0.999645
0.999645
0.999645
0.999645
0.999645
0.999645
0.999645
0.999645
0.999645
0.999645
0.999645
0.999645
0.999645
0.999645
0.999645
0.999645
0.999645
0.999645
0.999645
0.999645
0.999645
0.999645
0.999645
0.999645
0.999645
0.999645
0.999645
0.999645
0.999645
0.999645
0.999645
0.999645
0.999645
0.999645
0.999645
0.999645
0.999645
0.999645
0.999645
0.999645
0.999645
0.999645
0.999645
0.999645
0.999645
0.999645
0.999645
0.999645
0.999645
0.999645
0.999645
0.999645
0.999645
0.999645
0.999645
0.999645
0.999645
0.999645
0.999645
0.999645
0.999645
0.999645
0.999645
0.999645
0.999645
0.999645
0.999645
0.999645
0.999645
0.999645
0.999645
0.999645
0.999645
0.999645
0.999645
0.999645
0.999645
0.999645
0.999645
0.999645
0.999645
0.999645
0.999645
0.999645
0.999645
0.999645
0.999645
0.999645
0.999645
0.999645
0.999645
0.999645
0.999645
0.999645
0.999645
0.999645
0.999645
0.999645
0.999645
0.999645
0.999645
0.999645
0.999645
0.999645
0.999645
0.999645
0.999645
0.999645
0.999645
0.999645
0.999645
0.999645
0.999645
0.999645
0.999645
0.999645
0.999645
0.999645
0.999645
0.999645
0.999645
0.999645
0.999645
0.999645
0.999645
0.999645
0.999645
0.999645
0.999645
0.999645
0.999645
0.999645
0.999645
0.999645
0.999645
0.999645
0.999645
0.999645
0.999645
0.999645
0.999645
0.999645
0.999645
0.999645
0.999645
0.999645
0.999645
0.999645
0.999645
0.999645
0.999645
0.999645
0.999645
0.999645
0.999645
0.999645
0.999645
0.999645
0.999645
0.999645
0.999645
0.999645
0.999645
0.999645
0.999645
0.999645
0.999645
0.999645
0.999645
0.999645
0.999645
0.999645
0.999645
0.999645
0.999645
0.999645
0.999645
0.999645
0.999645
0.999645
0.999645
0.999645
0.999645
0.999645
0.999645
0.999645
0.999645
0.999645
0.999645
0.999645
0.999645
0.999645
0.999645
0.999645
0.999645
0.999645
0.999645
0.999645
0.999645
0.999645
0.999645
0.999645
0.999645
0.999645
0.999645
0.999645
0.999645
0.999645
0.999645
0.999645
0.999645
0.999645
0.999645
0.999645
0.999645
0.999645
0.999645
0.999645
0.999645
0.999645
0.999645
0.999645
0.999645
0.999645
0.999645
0.999645
0.999645
0.999645
0.999645
0.999645
0.999645
0.999645
0.999645
0.999645
0.999645
0.999645
0.999645
0.999645
0.999645
0.999645
0.999645
0.999645
0.999645
0.999645
0.999645
0.999645
0.999645
0.999645
0.999645
0.999645
0.999645
0.999645
0.999645
0.999645
0.999645
0.999645
0.999645
0.999645
0.999645
0.999645
0.999645
0.999645
0.999645
0.999645
0.999645
0.999645
0.999645
0.999645
0.999645
0.999645
0.999645
0.999645
0.999645
0.999645
0.999645
0.999645
0.999645
0.999645
0.999645
0.999645
0.999645
0.999645
0.999645
0.999645
0.999645
0.999645
0.999645
0.999645
0.999645
0.999645
0.999645
0.999645
0.999645
0.999645
0.999645
0.999645
0.999645
0.999645
0.999645
0.999645
0.999645
0.999645
0.999645
0.999645
0.999645
0.999645
0.999645
0.999645
0.999645
0.999645
0.999645
0.999645
0.999645
0.999645
0.999645
0.999645
0.999645
0.999645
0.999645
0.999645
0.999645
0.999645
0.999645
0.999645
0.999645
0.999645
0.999645
0.999645
0.999645
0.999645
0.999645
0.999645
0.999645
0.999645
0.999645
0.999645
0.999645
0.999645
0.999645
0.999645
0.999645
0.999645
0.999645
0.999645
0.999645
0.999645
0.999645
0.999645
0.999645
0.999645
0.999645
0.999645
0.999645
0.999645
0.999645
0.999645
0.999645
0.999645
0.999645
0.999645
0.999645
0.999645
0.999645
0.999645
0.999645
0.999645
0.999645
0.999645
0.999645
0.999645
0.999645
0.999645
0.999645
0.999645
0.999645
0.999645
0.999645
0.999645
0.999645
0.999645
0.999645
0.999645
0.999645
0.999645
0.999645
0.999645
0.999645
0.999645
0.999645
0.999645
0.999645
0.999645
0.999645
0.999645
0.999645
0.999645
0.999645
0.999645
0.999645
0.999645
0.999645
0.999645
0.999645
0.999645
0.999645
0.999645
0.999645
0.999645
0.999645
0.999645
0.999645
0.999645
0.999645
0.999645
0.999645
0.999645
0.999645
0.999645
0.999645
0.999645
0.999645
0.999645
0.999645
0.999645
0.999645
0.999645
0.999645
0.999645
0.999645
0.999645
0.999645
0.999645
0.999645
0.999645
0.999645
0.999645
0.999645
0.999645
0.999645
0.999645
0.999645
0.999645
0.999645
0.999645
0.999645
0.999645
0.999645
0.999645
0.999645
0.999645
0.999645
0.999645
0.999645
0.999645
0.999645
0.999645
0.999645
0.999645
0.999645
0.999645
0.999645
0.999645
0.999645
0.999645
0.999645
0.999645
0.999645
0.999645
0.999645
0.999645
0.999645
0.999645
0.999645
0.999645
0.999645
0.999645
0.999645
0.999645
0.999645
0.999645
0.999645
0.999645
0.999645
0.999645
0.999645
0.999645
0.999645
0.999645
0.999645
0.999645
0.999645
0.999645
0.999645
0.999645
0.999645
0.999645
0.999645
0.999645
0.999645
0.999645
0.999645
0.999645
0.999645
0.999645
0.999645
0.999645
0.999645
0.999645
0.999645
0.999645
0.999645
0.999645
0.999645
0.999645
0.999645
0.999645
0.999645
0.999645
0.999645
0.999645
0.999645
0.999645
0.999645
0.999645
0.999645
0.999645
0.999645
0.999645
0.999645
0.999645
0.999645
0.999645
0.999645
0.999645
0.999645
0.999645
0.999645
0.999645
0.999645
0.999645
0.999645
0.999645
0.999645
0.999645
0.999645
0.999645
0.999645
0.999645
0.999645
0.999645
0.999645
0.999645
0.999645
0.999645
0.999645
0.999645
0.999645
0.999645
0.999645
0.999645
0.999645
0.999645
0.999645
0.999645
0.999645
0.999645
0.999645
0.999645
0.999645
0.999645
0.999645
0.999645
0.999645
0.999645
0.999645
0.999645
0.999645
0.999645
0.999645
0.999645
0.999645
0.999645
0.999645
0.999645
0.999645
0.999645
0.999645
0.999645
0.999645
0.999645
0.999645
0.999645
0.999645
0.999645
0.999645
0.999645
0.999645
0.999645
0.999645
0.999645
0.999645
0.999645
0.999645
0.999645
0.999645
0.999645
0.999645
0.999645
0.999645
0.999645
0.999645
0.999645
0.999645
0.999645
0.999645
0.999645
0.999645
0.999645
0.999645
0.999645
0.999645
0.999645
0.999645
0.999645
0.999645
0.999645
0.999645
0.999645
0.999645
0.999645
0.999645
0.999645
0.999645
0.999645
0.999645
0.999645
0.999645
0.999645
0.999645
0.999645
0.999645
0.999645
0.999645
0.999645
0.999645
0.999645
0.999645
0.999645
0.999645
0.999645
0.999645
0.999645
0.999645
0.999645
0.999645
0.999645
0.999645
0.999645
0.999645
0.999645
0.999645
0.999645
0.999645
0.999645
0.999645
0.999645
0.999645
0.999645
0.999645
0.999645
0.999645
0.999645
0.999645
0.999645
0.999645
0.999645
0.999645
0.999645
0.999645
0.999645
0.999645
0.999645
0.999645
0.999645
0.999645
0.999645
0.999645
0.999645
0.999645
0.999645
0.999645
0.999645
0.999645
0.999645
0.999645
0.999645
0.999645
0.999645
0.999645
0.999645
0.999645
0.999645
0.999645
0.999645
0.999645
0.999645
0.999645
0.999645
0.999645
0.999645
0.999645
0.999645
0.999645
0.999645
0.999645
0.999645
0.999645
0.999645
0.999645
0.999645
0.999645
0.999645
0.999645
0.999645
0.999645
0.999645
0.999645
0.999645
0.999645
0.999645
0.999645
0.999645
0.999645
0.999645
0.999645
0.999645
0.999645
0.999645
0.999645
0.999645
0.999645
0.999645
0.999645
0.999645
0.999645
0.999645
0.999645
0.999645
0.999645
0.999645
0.999645
0.999645
0.999645
0.999645
0.999645
0.999645
0.999645
0.999645
0.999645
0.999645
0.999645
0.999645
0.999645
0.999645
0.999645
0.999645
0.999645
0.999645
0.999645
0.999645
0.999645
0.999645
0.999645
0.999645
0.999645
0.999645
0.999645
0.999645
0.999645
0.999645
0.999645
0.999645
0.999645
0.999645
0.999645
0.999645
0.999645
0.999645
0.999645
0.999645
0.999645
0.999645
0.999645
0.999645
0.999645
0.999645
0.999645
0.999645
0.999645
0.999645
0.999645
0.999645
0.999645
0.999645
0.999645
0.999645
0.999645
0.999645
0.999645
0.999645
0.999645
0.999645
0.999645
0.999645
0.999645
0.999645
0.999645
0.999645
0.999645
0.999645
0.999645
0.999645
0.999645
0.999645
0.999645
0.999645
0.999645
0.999645
0.999645
0.999645
0.999645
0.999645
0.999645
0.999645
0.999645
0.999645
0.999645
0.999645
0.999645
0.999645
0.999645
0.999645
0.999645
0.999645
0.999645
0.999645
0.999645
0.999645
0.999645
0.999645
0.999645
0.999645
0.999645
0.999645
0.999645
0.999645
0.999645
0.999645
0.999645
0.999645
0.999645
0.999645
0.999645
0.999645
0.999645
0.999645
0.999645
0.999645
0.999645
0.999645
0.999645
0.999645
0.999645
0.999645
0.999645
0.999645
0.999645
0.999645
0.999645
0.999645
0.999645
0.999645
0.999645
0.999645
0.999645
0.999645
0.999645
0.999645
0.999645
0.999645
0.999645
0.999645
0.999645
0.999645
0.999645
0.999645
0.999645
0.999645
0.999645
0.999645
0.999645
0.999645
0.999645
0.999645
0.999645
0.999645
0.999645
0.999645
0.999645
0.999645
0.999645
0.999645
0.999645
0.999645
0.999645
0.999645
0.999645
0.999645
0.999645
0.999645
0.999645
0.999645
0.999645
0.999645
0.999645
0.999645
0.999645
0.999645
0.999645
0.999645
0.999645
0.999645
0.999645
0.999645
0.999645
0.999645
0.999645
0.999645
0.999645
0.999645
0.999645
0.999645
0.999645
0.999645
0.999645
0.999645
0.999645
0.999645
0.999645
0.999645
0.999645
0.999645
0.999645
0.999645
0.999645
0.999645
0.999645
0.999645
0.999645
0.999645
0.999645
0.999645
0.999645
0.999645
0.999645
0.999645
0.999645
0.999645
0.999645
0.999645
0.999645
0.999645
0.999645
0.999645
0.999645
0.999645
0.999645
0.999645
0.999645
0.999645
0.999645
0.999645
0.999645
0.999645
0.999645
0.999645
0.999645
0.999645
0.999645
0.999645
0.999645
0.999645
0.999645
0.999645
0.999645
0.999645
0.999645
0.999645
0.999645
0.999645
0.999645
0.999645
0.999645
0.999645
0.999645
0.999645
0.999645
0.999645
0.999645
0.999645
0.999645
0.999645
0.999645
0.999645
0.999645
0.999645
0.999645
0.999645
0.999645
0.999645
0.999645
0.999645
0.999645
0.999645
0.999645
0.999645
0.999645
0.999645
0.999645
0.999645
0.999645
0.999645
0.999645
0.999645
0.999645
0.999645
0.999645
0.999645
0.999645
0.999645
0.999645
0.999645
0.999645
0.999645
0.999645
0.999645
0.999645
0.999645
0.999645
0.999645
0.999645
0.999645
0.999645
0.999645
0.999645
0.999645
0.999645
0.999645
0.999645
0.999645
0.999645
0.999645
0.999645
0.999645
0.999645
0.999645
0.999645
0.999645
0.999645
0.999645
0.999645
0.999645
0.999645
0.999645
0.999645
0.999645
0.999645
0.999645
0.999645
0.999645
0.999645
0.999645
0.999645
0.999645
0.999645
0.999645
0.999645
0.999645
0.999645
0.999645
0.999645
0.999645
0.999645
0.999645
0.999645
0.999645
0.999645
0.999645
0.999645
0.999645
0.999645
0.999645
0.999645
0.999645
0.999645
0.999645
0.999645
0.999645
0.999645
0.999645
0.999645
0.999645
0.999645
0.999645
0.999645
0.999645
0.999645
0.999645
0.999645
0.999645
0.999645
0.999645
0.999645
0.999645
0.999645
0.999645
0.999645
0.999645
0.999645
0.999645
0.999645
0.999645
0.999645
0.999645
0.999645
0.999645
0.999645
0.999645
0.999645
0.999645
0.999645
0.999645
0.999645
0.999645
0.999645
0.999645
0.999645
0.999645
0.999645
0.999645
0.999645
0.999645
0.999645
0.999645
0.999645
0.999645
0.999645
0.999645
0.999645
0.999645
0.999645
0.999645
0.999645
0.999645
0.999645
0.999645
0.999645
0.999645
0.999645
0.999645
0.999645
0.999645
0.999645
0.999645
0.999645
0.999645
0.999645
0.999645
0.999645
0.999645
0.999645
0.999645
0.999645
0.999645
0.999645
0.999645
0.999645
0.999645
0.999645
0.999645
0.999645
0.999645
0.999645
0.999645
0.999645
0.999645
0.999645
0.999645
0.999645
0.999645
0.999645
0.999645
0.999645
0.999645
0.999645
0.999645
0.999645
0.999645
0.999645
0.999645
0.999645
0.999645
0.999645
0.999645
0.999645
0.999645
0.999645
0.999645
0.999645
0.999645
0.999645
0.999645
0.999645
0.999645
0.999645
0.999645
0.999645
0.999645
0.999645
0.999645
0.999645
0.999645
0.999645
0.999645
0.999645
0.999645
0.999645
0.999645
0.999645
0.999645
0.999645
0.999645
0.999645
0.999645
0.999645
0.999645
0.999645
0.999645
0.999645
0.999645
0.999645
0.999645
0.999645
0.999645
0.999645
0.999645
0.999645
0.999645
0.999645
0.999645
0.999645
0.999645
0.999645
0.999645
0.999645
0.999645
0.999645
0.999645
0.999645
0.999645
0.999645
0.999645
0.999645
0.999645
0.999645
0.999645
0.999645
0.999645
0.999645
0.999645
0.999645
0.999645
0.999645
0.999645
0.999645
0.999645
0.999645
0.999645
0.999645
0.999645
0.999645
0.999645
0.999645
0.999645
0.999645
0.999645
0.999645
0.999645
0.999645
0.999645
0.999645
0.999645
0.999645
0.999645
0.999645
0.999645
0.999645
0.999645
0.999645
0.999645
0.999645
0.999645
0.999645
0.999645
0.999645
0.999645
0.999645
0.999645
0.999645
0.999645
0.999645
0.999645
0.999645
0.999645
0.999645
0.999645
0.999645
0.999645
0.999645
0.999645
0.999645
0.999645
0.999645
0.999645
0.999645
0.999645
0.999645
0.999645
0.999645
0.999645
0.999645
0.999645
0.999645
0.999645
0.999645
0.999645
0.999645
0.999645
0.999645
0.999645
0.999645
0.999645
0.999645
0.999645
0.999645
0.999645
0.999645
0.999645
0.999645
0.999645
0.999645
0.999645
0.999645
0.999645
0.999645
0.999645
0.999645
0.999645
0.999645
0.999645
0.999645
0.999645
0.999645
0.999645
0.999645
0.999645
0.999645
0.999645
0.999645
0.999645
0.999645
0.999645
0.999645
0.999645
0.999645
0.999645
0.999645
0.999645
0.999645
0.999645
0.999645
0.999645
0.999645
0.999645
0.999645
0.999645
0.999645
0.999645
0.999645
0.999645
0.999645
0.999645
0.999645
0.999645
0.999645
0.999645
0.999645
0.999645
0.999645
0.999645
0.999645
0.999645
0.999645
0.999645
0.999645
0.999645
0.999645
0.999645
0.999645
0.999645
0.999645
0.999645
0.999645
0.999645
0.999645
0.999645
0.999645
0.999645
0.999645
0.999645
0.999645
0.999645
0.999645
0.999645
0.999645
0.999645
0.999645
0.999645
0.999645
0.999645
0.999645
0.999645
0.999645
0.999645
0.999645
0.999645
0.999645
0.999645
0.999645
0.999645
0.999645
0.999645
0.999645
0.999645
0.999645
0.999645
0.999645
0.999645
0.999645
0.999645
0.999645
0.999645
0.999645
0.999645
0.999645
0.999645
0.999645
0.999645
0.999645
0.999645
0.999645
0.999645
0.999645
0.999645
0.999645
0.999645
0.999645
0.999645
0.999645
0.999645
0.999645
0.999645
0.999645
0.999645
0.999645
0.999645
0.999645
0.999645
0.999645
0.999645
0.999645
0.999645
0.999645
0.999645
0.999645
0.999645
0.999645
0.999645
0.999645
0.999645
0.999645
0.999645
0.999645
0.999645
0.999645
0.999645
0.999645
0.999645
0.999645
0.999645
0.999645
0.999645
0.999645
0.999645
0.999645
0.999645
0.999645
0.999645
0.999645
0.999645
0.999645
0.999645
0.999645
0.999645
0.999645
0.999645
0.999645
0.999645
0.999645
0.999645
0.999645
0.999645
0.999645
0.999645
0.999645
0.999645
0.999645
0.999645
0.999645
0.999645
0.999645
0.999645
0.999645
0.999645
0.999645
0.999645
0.999645
0.999645
0.999645
0.999645
0.999645
0.999645
0.999645
0.999645
0.999645
0.999645
0.999645
0.999645
0.999645
0.999645
0.999645
0.999645
0.999645
0.999645
0.999645
0.999645
0.999645
0.999645
0.999645
0.999645
0.999645
0.999645
0.999645
0.999645
0.999645
0.999645
0.999645
0.999645
0.999645
0.999645
0.999645
0.999645
0.999645
0.999645
0.999645
0.999645
0.999645
0.999643
0.999638
0.99962
0.999563
0.999379
0.998782
0.996818
0.99132
0.985399
0.982123
0.980426
0.979526
0.979037
0.978764
0.978606
0.978508
0.97844
0.978385
0.97833
0.978255
0.978122
0.977816
0.976982
0.974459
0.969195
0.964894
0.962477
0.961077
0.960201
0.959612
0.959192
0.958881
0.958649
0.958475
0.958348
0.958255
0.958188
0.958141
0.958108
0.958084
0.958069
0.958058
0.95805
0.958045
0.958042
0.958039
0.958038
0.958037
0.958036
0.958036
0.958036
0.958035
0.958035
0.958035
0.958035
0.958035
0.958035
0.958035
0.958035
0.958035
0.958035
0.958035
0.958035
0.958035
0.958035
0.958035
0.958035
0.958035
0.958035
0.958035
0.958035
0.958035
0.958035
0.958035
0.958035
0.958035
0.958035
0.958035
0.958035
0.958035
0.958035
0.958035
0.958035
0.958035
0.958035
0.958035
0.958035
0.958035
0.958035
0.958035
0.958035
0.958035
0.958035
0.958035
0.958035
0.958035
0.958035
0.958035
0.958035
0.958035
0.958035
0.958035
0.958035
0.958035
0.958035
0.958035
0.958035
0.958035
0.958034
0.958031
0.958022
0.957991
0.95789
0.957564
0.956487
0.953472
0.950203
0.948481
0.947432
0.947106
0.946824
0.946585
0.946466
0.946477
0.946379
0.946209
0.946078
0.946071
0.946039
0.945888
0.94575
0.945698
0.945704
0.945597
0.94546
0.945368
0.94538
0.945329
0.945204
0.945103
0.945089
0.945084
0.944987
0.944892
0.944848
0.944864
0.944809
0.944727
0.944673
0.944686
0.944668
0.944608
0.944561
0.944562
0.944566
0.944534
0.944504
0.944501
0.944513
0.944506
0.944492
0.944482
0.944466
0.944408
0.944212
0.943567
0.942019
0.940691
0.939944
0.93968
0.939427
0.939304
0.939293
0.939264
0.939179
0.939109
0.939096
0.939104
0.939052
0.938999
0.938976
0.938994
0.938975
0.938943
0.938924
0.938936
0.938937
0.938922
0.938911
0.938902
0.938876
0.93878
0.938464
0.93745
0.93505
0.932933
0.931852
0.931164
0.930938
0.93079
0.93062
0.930513
0.930518
0.930487
0.930378
0.930286
0.930261
0.930272
0.930205
0.930131
0.930095
0.930121
0.930101
0.930065
0.930056
0.930064
0.930058
0.930019
0.929912
0.92962
0.928763
0.927611
0.926867
0.926556
0.926329
0.926222
0.926199
0.926159
0.926104
0.926064
0.926065
0.92606
0.926024
0.925997
0.926001
0.92601
0.925994
0.925956
0.925877
0.925671
0.925009
0.923604
0.922512
0.921904
0.921726
0.921528
0.921398
0.921355
0.921376
0.92132
0.921253
0.921226
0.921256
0.92125
0.92121
0.921133
0.920957
0.920417
0.919457
0.918768
0.918426
0.918343
0.91822
0.918144
0.918142
0.918153
0.918124
0.918088
0.91805
0.917969
0.917707
0.916924
0.915908
0.915349
0.915002
0.914849
0.914784
0.914698
0.914637
0.914612
0.914617
0.91458
0.914539
0.914521
0.914524
0.914493
0.914371
0.914006
0.913104
0.912198
0.911762
0.911401
0.91126
0.911259
0.911186
0.911082
0.911012
0.911034
0.911029
0.910978
0.910941
0.910936
0.910937
0.910884
0.910704
0.910172
0.908897
0.907717
0.907089
0.906666
0.906532
0.906486
0.906361
0.906253
0.906203
0.906223
0.906162
0.906071
0.906009
0.906021
0.906017
0.905961
0.905914
0.905907
0.905928
0.905915
0.905888
0.905873
0.905866
0.905825
0.905669
0.905162
0.903763
0.902153
0.901315
0.900715
0.900503
0.900462
0.900328
0.900208
0.900152
0.900188
0.900149
0.900076
0.900034
0.900061
0.900076
0.900045
0.899987
0.899884
0.899618
0.898847
0.89789
0.897241
0.897007
0.896864
0.896717
0.896629
0.896634
0.896614
0.896537
0.896478
0.89647
0.896492
0.896474
0.896438
0.896403
0.896344
0.896163
0.895549
0.894211
0.893072
0.892581
0.892197
0.891992
0.89195
0.891922
0.891819
0.891731
0.891704
0.891741
0.891721
0.891668
0.891616
0.891547
0.891351
0.890706
0.88966
0.888913
0.888652
0.888442
0.888265
0.888167
0.888187
0.888146
0.88805
0.887983
0.887992
0.888015
0.88798
0.88792
0.887838
0.887648
0.887056
0.885956
0.8851
0.884678
0.884541
0.884367
0.884249
0.884203
0.884221
0.884168
0.884095
0.884051
0.884074
0.884078
0.884037
0.883958
0.883793
0.883334
0.882299
0.881404
0.880822
0.88064
0.880545
0.880397
0.880289
0.880281
0.880302
0.880258
0.880195
0.880156
0.880123
0.879997
0.879552
0.878734
0.878125
0.877926
0.877735
0.877586
0.877514
0.877554
0.877527
0.877453
0.877359
0.877211
0.876817
0.876087
0.875483
0.875146
0.875069
0.874991
0.874874
0.874794
0.874805
0.87482
0.874762
0.874642
0.874397
0.873797
0.873011
0.872476
0.872127
0.872015
0.871974
0.871864
0.871775
0.871744
0.87177
0.871733
0.871665
0.87157
0.871371
0.870804
0.869966
0.869325
0.869041
0.868951
0.868805
0.868688
0.868628
0.868661
0.868631
0.868561
0.868504
0.868453
0.868308
0.867807
0.866936
0.866268
0.866003
0.865895
0.865723
0.865597
0.865538
0.865583
0.865555
0.86548
0.865416
0.865348
0.865185
0.86468
0.863871
0.863251
0.862959
0.862909
0.862818
0.862681
0.862588
0.862585
0.862623
0.862559
0.862394
0.862004
0.861327
0.860857
0.860641
0.860378
0.860224
0.860198
0.860234
0.860179
0.860088
0.860014
0.859943
0.859733
0.859085
0.858225
0.857653
0.857449
0.85729
0.857152
0.857072
0.857021
0.856952
0.856899
0.856903
0.856912
0.85685
0.856708
0.856399
0.855696
0.854904
0.854471
0.854079
0.85388
0.853858
0.853833
0.853707
0.853592
0.853541
0.853592
0.853581
0.853507
0.853404
0.853245
0.852851
0.852024
0.85131
0.850801
0.850611
0.850591
0.850464
0.850314
0.850211
0.850239
0.850258
0.850205
0.850121
0.850067
0.850022
0.849855
0.849269
0.848353
0.847695
0.847467
0.847356
0.847163
0.847015
0.846947
0.847
0.846968
0.846883
0.84682
0.846795
0.846787
0.846668
0.846232
0.84534
0.84458
0.844263
0.844109
0.84389
0.843736
0.843666
0.84371
0.84367
0.843584
0.843529
0.843518
0.843508
0.843427
0.843189
0.842573
0.84166
0.8411
0.840665
0.840448
0.840413
0.840398
0.840282
0.840157
0.84009
0.840128
0.840145
0.840068
0.839892
0.83948
0.838911
0.838618
0.83834
0.838171
0.838081
0.837994
0.837741
0.83723
0.836706
0.836424
0.836358
0.836222
0.836047
0.83592
0.835918
0.835946
0.83589
0.835794
0.835722
0.835651
0.835447
0.834813
0.833909
0.833257
0.833012
0.832896
0.832693
0.83253
0.832445
0.832491
0.832442
0.832335
0.832261
0.83225
0.832268
0.832189
0.83194
0.831301
0.830454
0.829981
0.829685
0.829412
0.829255
0.829258
0.82924
0.829139
0.829043
0.829014
0.829041
0.829009
0.828888
0.828592
0.827964
0.82733
0.82703
0.82673
0.826538
0.826459
0.8265
0.826451
0.826344
0.826227
0.826092
0.825861
0.825503
0.825089
0.824723
0.824438
0.824211
0.82395
0.823627
0.823325
0.823116
0.823009
0.822896
0.822729
0.822572
0.822439
0.822351
0.822275
0.822114
0.821828
0.821478
0.82113
0.820845
0.820669
0.820506
0.820215
0.819881
0.819605
0.819442
0.819423
0.819279
0.818996
0.818722
0.818499
0.81843
0.818384
0.818142
0.81782
0.817521
0.81731
0.817169
0.816965
0.8167
0.816443
0.816232
0.816039
0.815818
0.815591
0.815403
0.815268
0.815093
0.81483
0.814554
0.814318
0.814195
0.814098
0.813853
0.813544
0.813263
0.813075
0.812965
0.812762
0.812482
0.812223
0.812052
0.811948
0.811732
0.811432
0.811166
0.811024
0.811013
0.810772
0.81041
0.810098
0.809893
0.809934
0.809796
0.809439
0.809071
0.808788
0.808737
0.808741
0.808453
0.808066
0.807752
0.807576
0.807636
0.807464
0.807103
0.806748
0.806484
0.806465
0.806471
0.806184
0.805787
0.805462
0.805245
0.805299
0.805315
0.805014
0.804584
0.80416
0.803867
0.803781
0.803916
0.803902
0.803585
0.803157
0.802763
0.802487
0.80241
0.802505
0.802352
0.801996
0.801608
0.801316
0.801196
0.801273
0.801112
0.800748
0.800327
0.799991
0.799731
0.799715
0.799846
0.799769
0.799437
0.799033
0.798661
0.798369
0.798198
0.798267
0.798204
0.797886
0.797514
0.797223
0.797104
0.797128
0.796884
0.796509
0.79618
0.795943
0.795966
0.795929
0.79562
0.795251
0.794955
0.79483
0.794823
0.794562
0.794208
0.793916
0.793796
0.793828
0.793595
0.79323
0.792918
0.792702
0.792739
0.792609
0.792274
0.791934
0.791671
0.791646
0.791608
0.791306
0.790944
0.790653
0.790525
0.790595
0.790409
0.790045
0.789645
0.789353
0.789222
0.789323
0.789234
0.7889
0.788474
0.788139
0.787903
0.787922
0.787977
0.787719
0.787323
0.78691
0.786625
0.786532
0.786677
0.786733
0.786459
0.78605
0.785522
0.785116
0.784825
0.784619
0.78472
0.785021
0.785119
0.784864
0.784459
0.78387
0.783353
0.783032
0.782787
0.782819
0.783061
0.783137
0.782868
0.782456
0.78192
0.781522
0.781246
0.781168
0.781337
0.781463
0.78124
0.780858
0.780345
0.779912
0.779617
0.779407
0.779478
0.779674
0.779609
0.779294
0.77889
0.778502
0.778194
0.777944
0.777902
0.777995
0.777841
0.777504
0.777112
0.77677
0.776496
0.77636
0.776486
0.776645
0.776466
0.776101
0.775578
0.775082
0.774776
0.774555
0.774634
0.774893
0.774909
0.774611
0.774185
0.773628
0.773226
0.772949
0.772825
0.77296
0.773093
0.772885
0.772517
0.772058
0.771721
0.771471
0.771464
0.771619
0.771534
0.771217
0.770818
0.77044
0.770125
0.769843
0.769624
0.769592
0.769705
0.769687
0.7694
0.769023
0.768644
0.768367
0.768216
0.768276
0.768123
0.767793
0.767474
0.767226
0.767216
0.767137
0.766833
0.766482
0.766204
0.766079
0.766118
0.765908
0.765565
0.765259
0.765031
0.765048
0.764934
0.764619
0.764275
0.764007
0.76392
0.763942
0.763701
0.76335
0.763045
0.762824
0.762857
0.762805
0.762504
0.762115
0.761792
0.761554
0.761551
0.761598
0.761356
0.760995
0.760656
0.760403
0.760366
0.760453
0.760249
0.759888
0.759439
0.759124
0.758901
0.758937
0.759075
0.758904
0.758555
0.758099
0.757756
0.75751
0.75751
0.757699
0.757633
0.757316
0.756851
0.756335
0.756022
0.755798
0.75586
0.756111
0.756097
0.755799
0.755371
0.754855
0.754522
0.754277
0.754275
0.754474
0.754453
0.754158
0.753748
0.753309
0.75302
0.752822
0.752879
0.752955
0.752723
0.752358
0.751936
0.751645
0.751446
0.751504
0.751563
0.751318
0.750944
0.750519
0.750235
0.75007
0.750182
0.750325
0.750127
0.749765
0.749241
0.748797
0.748523
0.748386
0.748537
0.748749
0.748599
0.74826
0.747759
0.747259
0.746965
0.746758
0.746842
0.747103
0.74707
0.74677
0.746332
0.745778
0.745422
0.74517
0.745142
0.745375
0.74551
0.745287
0.744916
0.744364
0.743884
0.743603
0.743417
0.743524
0.743785
0.743727
0.743424
0.742986
0.742474
0.742154
0.741917
0.741926
0.742145
0.742137
0.74185
0.741436
0.740924
0.740595
0.740354
0.740355
0.740585
0.740625
0.740356
0.739962
0.739426
0.739045
0.738787
0.738695
0.738855
0.73896
0.738735
0.738376
0.737914
0.737582
0.737341
0.737326
0.737527
0.737512
0.737225
0.736807
0.736272
0.735921
0.735674
0.735633
0.735846
0.735959
0.735734
0.735373
0.734873
0.734478
0.734217
0.734095
0.734233
0.734358
0.73415
0.733802
0.733323
0.732934
0.732674
0.732546
0.732684
0.732853
0.732691
0.732372
0.731944
0.731517
0.731204
0.730927
0.730691
0.73064
0.730811
0.730884
0.730651
0.730303
0.729887
0.729572
0.729331
0.729267
0.729335
0.72915
0.728831
0.728504
0.728253
0.728162
0.728215
0.728016
0.727685
0.7273
0.727021
0.726815
0.726851
0.726976
0.726821
0.726517
0.726167
0.725854
0.725567
0.725287
0.725044
0.724897
0.724977
0.725068
0.724863
0.72453
0.724123
0.723817
0.723584
0.723554
0.723655
0.723485
0.723166
0.722768
0.722467
0.72224
0.722229
0.72233
0.722147
0.721817
0.721374
0.72103
0.720787
0.720738
0.720971
0.721163
0.720997
0.720678
0.72023
0.719719
0.719369
0.719082
0.718803
0.718561
0.718405
0.718529
0.71885
0.718883
0.718625
0.718255
0.71769
0.717214
0.716931
0.716716
0.716752
0.717024
0.717091
0.716848
0.716488
0.715953
0.715513
0.715245
0.715046
0.715107
0.71534
0.715295
0.715019
0.714642
0.714236
0.713954
0.713735
0.713729
0.713723
0.713474
0.713146
0.712856
0.712634
0.712632
0.712753
0.712589
0.712271
0.711825
0.711439
0.711187
0.711054
0.711186
0.711319
0.711125
0.710794
0.710313
0.709888
0.709627
0.709449
0.709547
0.709794
0.709725
0.709442
0.709037
0.708557
0.708239
0.708004
0.707935
0.708091
0.708084
0.70782
0.707453
0.70702
0.706731
0.706511
0.706512
0.7067
0.706636
0.706356
0.705963
0.70552
0.705228
0.705002
0.704969
0.705128
0.705059
0.704784
0.704421
0.704078
0.70383
0.703682
0.703749
0.703641
0.703357
0.703005
0.702723
0.702507
0.702506
0.702637
0.702492
0.70219
0.701764
0.701335
0.701045
0.700815
0.700744
0.700911
0.700989
0.700769
0.700444
0.700039
0.699728
0.699492
0.699395
0.699494
0.699392
0.699111
0.698753
0.698441
0.698207
0.698115
0.698167
0.697993
0.6977
0.697417
0.697193
0.697164
0.697294
0.69716
0.696859
0.696408
0.695901
0.695594
0.695366
0.69532
0.695552
0.69573
0.695555
0.69524
0.694753
0.694199
0.693876
0.693647
0.693577
0.693831
0.694191
0.694135
0.693861
0.693461
0.692795
0.692233
0.691931
0.691705
0.691649
0.691923
0.692311
0.692275
0.692009
0.691631
0.691024
0.690518
0.690231
0.690007
0.689974
0.690222
0.690407
0.690238
0.689931
0.689468
0.688947
0.688634
0.688406
0.688336
0.688545
0.688747
0.688592
0.688291
0.687838
0.687307
0.686987
0.686757
0.68667
0.686869
0.687101
0.686968
0.686676
0.686244
0.685692
0.685347
0.685112
0.684981
0.685138
0.685443
0.685393
0.68513
0.684761
0.684222
0.683819
0.68356
0.683348
0.683332
0.68351
0.683464
0.683209
0.682873
0.682533
0.682287
0.682109
0.682154
0.682119
0.681869
0.681533
0.681187
0.680942
0.680774
0.680842
0.68094
0.680756
0.680461
0.680099
0.679809
0.679581
0.679493
0.67945
0.679218
0.678928
0.678666
0.678457
0.678443
0.678564
0.678422
0.678139
0.677759
0.677418
0.677178
0.677009
0.677063
0.677006
0.67675
0.676402
0.676041
0.675797
0.675631
0.675724
0.675942
0.675842
0.67557
0.67518
0.674716
0.674416
0.674193
0.674108
0.674267
0.674317
0.674091
0.673763
0.673253
0.672816
0.672557
0.672357
0.672386
0.672716
0.672898
0.672727
0.672431
0.671983
0.671401
0.671046
0.670807
0.670625
0.670685
0.670947
0.670941
0.670698
0.670371
0.669933
0.669607
0.669372
0.6692
0.66925
0.669309
0.66911
0.668816
0.668477
0.668224
0.668028
0.668041
0.668171
0.668028
0.667745
0.667333
0.666857
0.666555
0.666331
0.666194
0.666316
0.666522
0.666404
0.666136
0.665769
0.665377
0.665111
0.6649
0.664841
0.664987
0.664936
0.664686
0.664352
0.663977
0.663713
0.6635
0.663441
0.663519
0.663367
0.663093
0.662759
0.662491
0.66228
0.662237
0.662373
0.662278
0.662016
0.661649
0.661237
0.660964
0.660751
0.660685
0.660842
0.660838
0.660604
0.660289
0.659909
0.659633
0.659419
0.659336
0.659453
0.659382
0.659131
0.658785
0.658401
0.658141
0.657934
0.657896
0.658068
0.658034
0.657793
0.65747
0.657083
0.656804
0.656586
0.656475
0.656561
0.656481
0.656232
0.655912
0.655609
0.655382
0.655232
0.655302
0.655295
0.655067
0.654762
0.654414
0.654161
0.653957
0.653917