/*--------------------------------*- C++ -*----------------------------------*\
  =========                 |
  \\      /  F ield         | OpenFOAM: The Open Source CFD Toolbox
   \\    /   O peration     | Website:  https://openfoam.org
    \\  /    A nd           | Version:  9
     \\/     M anipulation  |
\*---------------------------------------------------------------------------*/
FoamFile
{
    format      ascii;
    class       volScalarField;
    location    "0.02";
    object      p;
}
// * * * * * * * * * * * * * * * * * * * * * * * * * * * * * * * * * * * * * //

dimensions      [1 -1 -2 0 0 0 0];

internalField   nonuniform List<scalar> 
10000
(
41500.2
41499.9
41499.7
41499.5
41499.3
41499.1
41498.8
41498.6
41498.4
41498.2
41498
41497.8
41497.6
41497.4
41497.1
41496.9
41496.7
41496.5
41496.3
41496.1
41495.8
41495.6
41495.4
41495.2
41495
41494.8
41494.5
41494.3
41494.1
41493.9
41493.7
41493.5
41493.2
41493
41492.8
41492.6
41492.3
41492.1
41491.9
41491.7
41491.5
41491.2
41491
41490.8
41490.6
41490.3
41490.1
41489.9
41489.7
41489.4
41489.2
41489
41488.7
41488.5
41488.3
41488.1
41487.8
41487.6
41487.4
41487.1
41486.9
41486.7
41486.5
41486.2
41486
41485.8
41485.5
41485.3
41485.1
41484.8
41484.6
41484.4
41484.1
41483.9
41483.7
41483.4
41483.2
41482.9
41482.7
41482.5
41482.2
41482
41481.8
41481.5
41481.3
41481
41480.8
41480.6
41480.3
41480.1
41479.8
41479.6
41479.4
41479.1
41478.9
41478.6
41478.4
41478.1
41477.9
41477.6
41477.4
41477.2
41476.9
41476.7
41476.4
41476.2
41475.9
41475.7
41475.4
41475.2
41474.9
41474.7
41474.4
41474.2
41473.9
41473.7
41473.4
41473.2
41472.9
41472.7
41472.4
41472.2
41471.9
41471.7
41471.4
41471.2
41470.9
41470.7
41470.4
41470.1
41469.9
41469.6
41469.4
41469.1
41468.9
41468.6
41468.3
41468.1
41467.8
41467.6
41467.3
41467
41466.8
41466.5
41466.3
41466
41465.7
41465.5
41465.2
41465
41464.7
41464.4
41464.2
41463.9
41463.6
41463.4
41463.1
41462.8
41462.6
41462.3
41462
41461.8
41461.5
41461.2
41461
41460.7
41460.4
41460.2
41459.9
41459.6
41459.4
41459.1
41458.8
41458.5
41458.3
41458
41457.7
41457.5
41457.2
41456.9
41456.6
41456.4
41456.1
41455.8
41455.5
41455.3
41455
41454.7
41454.4
41454.1
41453.9
41453.6
41453.3
41453
41452.8
41452.5
41452.2
41451.9
41451.6
41451.4
41451.1
41450.8
41450.5
41450.2
41449.9
41449.7
41449.4
41449.1
41448.8
41448.5
41448.2
41448
41447.7
41447.4
41447.1
41446.8
41446.5
41446.2
41445.9
41445.7
41445.4
41445.1
41444.8
41444.5
41444.2
41443.9
41443.6
41443.3
41443
41442.8
41442.5
41442.2
41441.9
41441.6
41441.3
41441
41440.7
41440.4
41440.1
41439.8
41439.5
41439.2
41438.9
41438.6
41438.3
41438
41437.7
41437.4
41437.1
41436.8
41436.5
41436.2
41435.9
41435.6
41435.3
41435
41434.7
41434.4
41434.1
41433.8
41433.5
41433.2
41432.9
41432.6
41432.3
41432
41431.7
41431.4
41431.1
41430.8
41430.5
41430.2
41429.9
41429.5
41429.2
41428.9
41428.6
41428.3
41428
41427.7
41427.4
41427.1
41426.8
41426.4
41426.1
41425.8
41425.5
41425.2
41424.9
41424.6
41424.3
41423.9
41423.6
41423.3
41423
41422.7
41422.4
41422
41421.7
41421.4
41421.1
41420.8
41420.5
41420.1
41419.8
41419.5
41419.2
41418.9
41418.5
41418.2
41417.9
41417.6
41417.2
41416.9
41416.6
41416.3
41415.9
41415.6
41415.3
41415
41414.6
41414.3
41414
41413.7
41413.3
41413
41412.7
41412.4
41412
41411.7
41411.4
41411
41410.7
41410.4
41410.1
41409.7
41409.4
41409.1
41408.7
41408.4
41408.1
41407.7
41407.4
41407.1
41406.7
41406.4
41406.1
41405.7
41405.4
41405
41404.7
41404.4
41404
41403.7
41403.4
41403
41402.7
41402.3
41402
41401.7
41401.3
41401
41400.6
41400.3
41400
41399.6
41399.3
41398.9
41398.6
41398.2
41397.9
41397.6
41397.2
41396.9
41396.5
41396.2
41395.8
41395.5
41395.1
41394.8
41394.4
41394.1
41393.7
41393.4
41393.1
41392.7
41392.4
41392
41391.7
41391.3
41390.9
41390.6
41390.2
41389.9
41389.5
41389.2
41388.8
41388.5
41388.1
41387.8
41387.4
41387.1
41386.7
41386.3
41386
41385.6
41385.3
41384.9
41384.6
41384.2
41383.8
41383.5
41383.1
41382.8
41382.4
41382
41381.7
41381.3
41381
41380.6
41380.2
41379.9
41379.5
41379.1
41378.8
41378.4
41378.1
41377.7
41377.3
41377
41376.6
41376.2
41375.9
41375.5
41375.1
41374.8
41374.4
41374
41373.6
41373.3
41372.9
41372.5
41372.2
41371.8
41371.4
41371.1
41370.7
41370.3
41369.9
41369.6
41369.2
41368.8
41368.4
41368.1
41367.7
41367.3
41366.9
41366.6
41366.2
41365.8
41365.4
41365.1
41364.7
41364.3
41363.9
41363.5
41363.2
41362.8
41362.4
41362
41361.6
41361.3
41360.9
41360.5
41360.1
41359.7
41359.3
41359
41358.6
41358.2
41357.8
41357.4
41357
41356.6
41356.3
41355.9
41355.5
41355.1
41354.7
41354.3
41353.9
41353.5
41353.2
41352.8
41352.4
41352
41351.6
41351.2
41350.8
41350.4
41350
41349.6
41349.2
41348.8
41348.5
41348.1
41347.7
41347.3
41346.9
41346.5
41346.1
41345.7
41345.3
41344.9
41344.5
41344.1
41343.7
41343.3
41342.9
41342.5
41342.1
41341.7
41341.3
41340.9
41340.5
41340.1
41339.7
41339.3
41338.9
41338.5
41338.1
41337.7
41337.3
41336.9
41336.5
41336.1
41335.7
41335.2
41334.8
41334.4
41334
41333.6
41333.2
41332.8
41332.4
41332
41331.6
41331.2
41330.8
41330.3
41329.9
41329.5
41329.1
41328.7
41328.3
41327.9
41327.5
41327
41326.6
41326.2
41325.8
41325.4
41325
41324.6
41324.1
41323.7
41323.3
41322.9
41322.5
41322.1
41321.6
41321.2
41320.8
41320.4
41320
41319.5
41319.1
41318.7
41318.3
41317.9
41317.4
41317
41316.6
41316.2
41315.7
41315.3
41314.9
41314.5
41314
41313.6
41313.2
41312.8
41312.3
41311.9
41311.5
41311.1
41310.6
41310.2
41309.8
41309.3
41308.9
41308.5
41308
41307.6
41307.2
41306.8
41306.3
41305.9
41305.5
41305
41304.6
41304.2
41303.7
41303.3
41302.8
41302.4
41302
41301.5
41301.1
41300.7
41300.2
41299.8
41299.4
41298.9
41298.5
41298
41297.6
41297.2
41296.7
41296.3
41295.8
41295.4
41295
41294.5
41294.1
41293.6
41293.2
41292.7
41292.3
41291.9
41291.4
41291
41290.5
41290.1
41289.6
41289.2
41288.7
41288.3
41287.8
41287.4
41286.9
41286.5
41286
41285.6
41285.1
41284.7
41284.2
41283.8
41283.3
41282.9
41282.4
41282
41281.5
41281.1
41280.6
41280.2
41279.7
41279.3
41278.8
41278.3
41277.9
41277.4
41277
41276.5
41276.1
41275.6
41275.1
41274.7
41274.2
41273.8
41273.3
41272.8
41272.4
41271.9
41271.5
41271
41270.5
41270.1
41269.6
41269.1
41268.7
41268.2
41267.8
41267.3
41266.8
41266.4
41265.9
41265.4
41265
41264.5
41264
41263.6
41263.1
41262.6
41262.2
41261.7
41261.2
41260.7
41260.3
41259.8
41259.3
41258.9
41258.4
41257.9
41257.4
41257
41256.5
41256
41255.5
41255.1
41254.6
41254.1
41253.6
41253.2
41252.7
41252.2
41251.7
41251.3
41250.8
41250.3
41249.8
41249.3
41248.9
41248.4
41247.9
41247.4
41246.9
41246.5
41246
41245.5
41245
41244.5
41244
41243.6
41243.1
41242.6
41242.1
41241.6
41241.1
41240.7
41240.2
41239.7
41239.2
41238.7
41238.2
41237.7
41237.2
41236.8
41236.3
41235.8
41235.3
41234.8
41234.3
41233.8
41233.3
41232.8
41232.3
41231.8
41231.3
41230.9
41230.4
41229.9
41229.4
41228.9
41228.4
41227.9
41227.4
41226.9
41226.4
41225.9
41225.4
41224.9
41224.4
41223.9
41223.4
41222.9
41222.4
41221.9
41221.4
41220.9
41220.4
41219.9
41219.4
41218.9
41218.4
41217.9
41217.4
41216.9
41216.4
41215.9
41215.4
41214.9
41214.4
41213.8
41213.3
41212.8
41212.3
41211.8
41211.3
41210.8
41210.3
41209.8
41209.3
41208.8
41208.2
41207.7
41207.2
41206.7
41206.2
41205.7
41205.2
41204.7
41204.1
41203.6
41203.1
41202.6
41202.1
41201.6
41201.1
41200.5
41200
41199.5
41199
41198.5
41198
41197.4
41196.9
41196.4
41195.9
41195.4
41194.8
41194.3
41193.8
41193.3
41192.7
41192.2
41191.7
41191.2
41190.7
41190.1
41189.6
41189.1
41188.6
41188
41187.5
41187
41186.5
41185.9
41185.4
41184.9
41184.3
41183.8
41183.3
41182.8
41182.2
41181.7
41181.2
41180.6
41180.1
41179.6
41179
41178.5
41178
41177.4
41176.9
41176.4
41175.8
41175.3
41174.8
41174.2
41173.7
41173.2
41172.6
41172.1
41171.5
41171
41170.5
41169.9
41169.4
41168.9
41168.3
41167.8
41167.2
41166.7
41166.2
41165.6
41165.1
41164.5
41164
41163.4
41162.9
41162.4
41161.8
41161.3
41160.7
41160.2
41159.6
41159.1
41158.5
41158
41157.4
41156.9
41156.3
41155.8
41155.2
41154.7
41154.1
41153.6
41153
41152.5
41151.9
41151.4
41150.8
41150.3
41149.7
41149.2
41148.6
41148.1
41147.5
41147
41146.4
41145.9
41145.3
41144.7
41144.2
41143.6
41143.1
41142.5
41142
41141.4
41140.8
41140.3
41139.7
41139.2
41138.6
41138
41137.5
41136.9
41136.4
41135.8
41135.2
41134.7
41134.1
41133.5
41133
41132.4
41131.8
41131.3
41130.7
41130.1
41129.6
41129
41128.4
41127.9
41127.3
41126.7
41126.2
41125.6
41125
41124.5
41123.9
41123.3
41122.7
41122.2
41121.6
41121
41120.5
41119.9
41119.3
41118.7
41118.2
41117.6
41117
41116.4
41115.9
41115.3
41114.7
41114.1
41113.6
41113
41112.4
41111.8
41111.2
41110.7
41110.1
41109.5
41108.9
41108.3
41107.8
41107.2
41106.6
41106
41105.4
41104.8
41104.3
41103.7
41103.1
41102.5
41101.9
41101.3
41100.8
41100.2
41099.6
41099
41098.4
41097.8
41097.2
41096.6
41096.1
41095.5
41094.9
41094.3
41093.7
41093.1
41092.5
41091.9
41091.3
41090.7
41090.1
41089.6
41089
41088.4
41087.8
41087.2
41086.6
41086
41085.4
41084.8
41084.2
41083.6
41083
41082.4
41081.8
41081.2
41080.6
41080
41079.4
41078.8
41078.2
41077.6
41077
41076.4
41075.8
41075.2
41074.6
41074
41073.4
41072.8
41072.2
41071.6
41071
41070.4
41069.8
41069.2
41068.5
41067.9
41067.3
41066.7
41066.1
41065.5
41064.9
41064.3
41063.7
41063.1
41062.5
41061.8
41061.2
41060.6
41060
41059.4
41058.8
41058.2
41057.6
41056.9
41056.3
41055.7
41055.1
41054.5
41053.9
41053.2
41052.6
41052
41051.4
41050.8
41050.2
41049.5
41048.9
41048.3
41047.7
41047.1
41046.4
41045.8
41045.2
41044.6
41044
41043.3
41042.7
41042.1
41041.5
41040.8
41040.2
41039.6
41039
41038.3
41037.7
41037.1
41036.5
41035.8
41035.2
41034.6
41033.9
41033.3
41032.7
41032.1
41031.4
41030.8
41030.2
41029.5
41028.9
41028.3
41027.6
41027
41026.4
41025.7
41025.1
41024.5
41023.8
41023.2
41022.6
41021.9
41021.3
41020.7
41020
41019.4
41018.7
41018.1
41017.5
41016.8
41016.2
41015.6
41014.9
41014.3
41013.6
41013
41012.3
41011.7
41011.1
41010.4
41009.8
41009.1
41008.5
41007.8
41007.2
41006.6
41005.9
41005.3
41004.6
41004
41003.3
41002.7
41002
41001.4
41000.7
41000.1
40999.4
40998.8
40998.1
40997.5
40996.8
40996.2
40995.5
40994.9
40994.2
40993.6
40992.9
40992.3
40991.6
40991
40990.3
40989.6
40989
40988.3
40987.7
40987
40986.4
40985.7
40985
40984.4
40983.7
40983.1
40982.4
40981.7
40981.1
40980.4
40979.8
40979.1
40978.4
40977.8
40977.1
40976.5
40975.8
40975.1
40974.5
40973.8
40973.1
40972.5
40971.8
40971.1
40970.5
40969.8
40969.1
40968.5
40967.8
40967.1
40966.5
40965.8
40965.1
40964.4
40963.8
40963.1
40962.4
40961.8
40961.1
40960.4
40959.7
40959.1
40958.4
40957.7
40957
40956.4
40955.7
40955
40954.3
40953.7
40953
40952.3
40951.6
40951
40950.3
40949.6
40948.9
40948.2
40947.6
40946.9
40946.2
40945.5
40944.8
40944.2
40943.5
40942.8
40942.1
40941.4
40940.7
40940.1
40939.4
40938.7
40938
40937.3
40936.6
40935.9
40935.3
40934.6
40933.9
40933.2
40932.5
40931.8
40931.1
40930.4
40929.7
40929.1
40928.4
40927.7
40927
40926.3
40925.6
40924.9
40924.2
40923.5
40922.8
40922.1
40921.4
40920.7
40920
40919.3
40918.6
40918
40917.3
40916.6
40915.9
40915.2
40914.5
40913.8
40913.1
40912.4
40911.7
40911
40910.3
40909.6
40908.9
40908.2
40907.5
40906.7
40906
40905.3
40904.6
40903.9
40903.2
40902.5
40901.8
40901.1
40900.4
40899.7
40899
40898.3
40897.6
40896.9
40896.2
40895.4
40894.7
40894
40893.3
40892.6
40891.9
40891.2
40890.5
40889.8
40889
40888.3
40887.6
40886.9
40886.2
40885.5
40884.8
40884
40883.3
40882.6
40881.9
40881.2
40880.5
40879.7
40879
40878.3
40877.6
40876.9
40876.1
40875.4
40874.7
40874
40873.3
40872.5
40871.8
40871.1
40870.4
40869.6
40868.9
40868.2
40867.5
40866.7
40866
40865.3
40864.6
40863.8
40863.1
40862.4
40861.7
40860.9
40860.2
40859.5
40858.7
40858
40857.3
40856.5
40855.8
40855.1
40854.3
40853.6
40852.9
40852.2
40851.4
40850.7
40849.9
40849.2
40848.5
40847.7
40847
40846.3
40845.5
40844.8
40844.1
40843.3
40842.6
40841.8
40841.1
40840.4
40839.6
40838.9
40838.1
40837.4
40836.7
40835.9
40835.2
40834.4
40833.7
40832.9
40832.2
40831.5
40830.7
40830
40829.2
40828.5
40827.7
40827
40826.2
40825.5
40824.7
40824
40823.2
40822.5
40821.7
40821
40820.2
40819.5
40818.7
40818
40817.2
40816.5
40815.7
40815
40814.2
40813.5
40812.7
40812
40811.2
40810.5
40809.7
40808.9
40808.2
40807.4
40806.7
40805.9
40805.2
40804.4
40803.6
40802.9
40802.1
40801.4
40800.6
40799.8
40799.1
40798.3
40797.6
40796.8
40796
40795.3
40794.5
40793.7
40793
40792.2
40791.4
40790.7
40789.9
40789.1
40788.4
40787.6
40786.8
40786.1
40785.3
40784.5
40783.8
40783
40782.2
40781.5
40780.7
40779.9
40779.1
40778.4
40777.6
40776.8
40776.1
40775.3
40774.5
40773.7
40773
40772.2
40771.4
40770.6
40769.9
40769.1
40768.3
40767.5
40766.7
40766
40765.2
40764.4
40763.6
40762.8
40762.1
40761.3
40760.5
40759.7
40758.9
40758.2
40757.4
40756.6
40755.8
40755
40754.2
40753.5
40752.7
40751.9
40751.1
40750.3
40749.5
40748.7
40747.9
40747.2
40746.4
40745.6
40744.8
40744
40743.2
40742.4
40741.6
40740.8
40740
40739.3
40738.5
40737.7
40736.9
40736.1
40735.3
40734.5
40733.7
40732.9
40732.1
40731.3
40730.5
40729.7
40728.9
40728.1
40727.3
40726.5
40725.7
40724.9
40724.1
40723.3
40722.5
40721.7
40720.9
40720.1
40719.3
40718.5
40717.7
40716.9
40716.1
40715.3
40714.5
40713.7
40712.9
40712.1
40711.3
40710.5
40709.7
40708.9
40708.1
40707.2
40706.4
40705.6
40704.8
40704
40703.2
40702.4
40701.6
40700.8
40700
40699.1
40698.3
40697.5
40696.7
40695.9
40695.1
40694.3
40693.4
40692.6
40691.8
40691
40690.2
40689.4
40688.5
40687.7
40686.9
40686.1
40685.3
40684.5
40683.6
40682.8
40682
40681.2
40680.3
40679.5
40678.7
40677.9
40677.1
40676.2
40675.4
40674.6
40673.8
40672.9
40672.1
40671.3
40670.5
40669.6
40668.8
40668
40667.2
40666.3
40665.5
40664.7
40663.8
40663
40662.2
40661.3
40660.5
40659.7
40658.8
40658
40657.2
40656.4
40655.5
40654.7
40653.8
40653
40652.2
40651.3
40650.5
40649.7
40648.8
40648
40647.2
40646.3
40645.5
40644.6
40643.8
40643
40642.1
40641.3
40640.4
40639.6
40638.8
40637.9
40637.1
40636.2
40635.4
40634.5
40633.7
40632.9
40632
40631.2
40630.3
40629.5
40628.6
40627.8
40626.9
40626.1
40625.2
40624.4
40623.5
40622.7
40621.8
40621
40620.1
40619.3
40618.4
40617.6
40616.7
40615.9
40615
40614.2
40613.3
40612.5
40611.6
40610.8
40609.9
40609
40608.2
40607.3
40606.5
40605.6
40604.8
40603.9
40603
40602.2
40601.3
40600.5
40599.6
40598.7
40597.9
40597
40596.2
40595.3
40594.4
40593.6
40592.7
40591.8
40591
40590.1
40589.3
40588.4
40587.5
40586.7
40585.8
40584.9
40584.1
40583.2
40582.3
40581.4
40580.6
40579.7
40578.8
40578
40577.1
40576.2
40575.4
40574.5
40573.6
40572.7
40571.9
40571
40570.1
40569.2
40568.4
40567.5
40566.6
40565.7
40564.9
40564
40563.1
40562.2
40561.3
40560.5
40559.6
40558.7
40557.8
40557
40556.1
40555.2
40554.3
40553.4
40552.5
40551.7
40550.8
40549.9
40549
40548.1
40547.2
40546.4
40545.5
40544.6
40543.7
40542.8
40541.9
40541
40540.1
40539.3
40538.4
40537.5
40536.6
40535.7
40534.8
40533.9
40533
40532.1
40531.2
40530.4
40529.5
40528.6
40527.7
40526.8
40525.9
40525
40524.1
40523.2
40522.3
40521.4
40520.5
40519.6
40518.7
40517.8
40516.9
40516
40515.1
40514.2
40513.3
40512.4
40511.5
40510.6
40509.7
40508.8
40507.9
40507
40506.1
40505.2
40504.3
40503.4
40502.5
40501.6
40500.7
40499.8
40498.8
40497.9
40497
40496.1
40495.2
40494.3
40493.4
40492.5
40491.6
40490.7
40489.8
40488.8
40487.9
40487
40486.1
40485.2
40484.3
40483.4
40482.5
40481.5
40480.6
40479.7
40478.8
40477.9
40477
40476
40475.1
40474.2
40473.3
40472.4
40471.4
40470.5
40469.6
40468.7
40467.8
40466.8
40465.9
40465
40464.1
40463.2
40462.2
40461.3
40460.4
40459.5
40458.5
40457.6
40456.7
40455.8
40454.8
40453.9
40453
40452
40451.1
40450.2
40449.3
40448.3
40447.4
40446.5
40445.5
40444.6
40443.7
40442.7
40441.8
40440.9
40439.9
40439
40438.1
40437.1
40436.2
40435.3
40434.3
40433.4
40432.5
40431.5
40430.6
40429.6
40428.7
40427.8
40426.8
40425.9
40424.9
40424
40423.1
40422.1
40421.2
40420.2
40419.3
40418.3
40417.4
40416.5
40415.5
40414.6
40413.6
40412.7
40411.7
40410.8
40409.8
40408.9
40407.9
40407
40406
40405.1
40404.2
40403.2
40402.3
40401.3
40400.3
40399.4
40398.4
40397.5
40396.5
40395.6
40394.6
40393.7
40392.7
40391.8
40390.8
40389.9
40388.9
40387.9
40387
40386
40385.1
40384.1
40383.2
40382.2
40381.2
40380.3
40379.3
40378.4
40377.4
40376.4
40375.5
40374.5
40373.5
40372.6
40371.6
40370.7
40369.7
40368.7
40367.8
40366.8
40365.8
40364.9
40363.9
40362.9
40362
40361
40360
40359.1
40358.1
40357.1
40356.1
40355.2
40354.2
40353.2
40352.3
40351.3
40350.3
40349.3
40348.4
40347.4
40346.4
40345.4
40344.5
40343.5
40342.5
40341.5
40340.6
40339.6
40338.6
40337.6
40336.6
40335.7
40334.7
40333.7
40332.7
40331.7
40330.8
40329.8
40328.8
40327.8
40326.8
40325.8
40324.9
40323.9
40322.9
40321.9
40320.9
40319.9
40318.9
40318
40317
40316
40315
40314
40313
40312
40311
40310
40309.1
40308.1
40307.1
40306.1
40305.1
40304.1
40303.1
40302.1
40301.1
40300.1
40299.1
40298.1
40297.1
40296.1
40295.1
40294.1
40293.1
40292.1
40291.1
40290.1
40289.1
40288.1
40287.1
40286.1
40285.1
40284.1
40283.1
40282.1
40281.1
40280.1
40279.1
40278.1
40277.1
40276.1
40275.1
40274.1
40273.1
40272.1
40271.1
40270.1
40269.1
40268.1
40267
40266
40265
40264
40263
40262
40261
40260
40259
40257.9
40256.9
40255.9
40254.9
40253.9
40252.9
40251.9
40250.8
40249.8
40248.8
40247.8
40246.8
40245.8
40244.7
40243.7
40242.7
40241.7
40240.7
40239.6
40238.6
40237.6
40236.6
40235.6
40234.5
40233.5
40232.5
40231.5
40230.4
40229.4
40228.4
40227.4
40226.3
40225.3
40224.3
40223.2
40222.2
40221.2
40220.2
40219.1
40218.1
40217.1
40216
40215
40214
40212.9
40211.9
40210.9
40209.8
40208.8
40207.8
40206.7
40205.7
40204.7
40203.6
40202.6
40201.6
40200.5
40199.5
40198.5
40197.4
40196.4
40195.3
40194.3
40193.3
40192.2
40191.2
40190.1
40189.1
40188
40187
40186
40184.9
40183.9
40182.8
40181.8
40180.7
40179.7
40178.6
40177.6
40176.5
40175.5
40174.5
40173.4
40172.4
40171.3
40170.3
40169.2
40168.2
40167.1
40166
40165
40163.9
40162.9
40161.8
40160.8
40159.7
40158.7
40157.6
40156.6
40155.5
40154.4
40153.4
40152.3
40151.3
40150.2
40149.2
40148.1
40147
40146
40144.9
40143.9
40142.8
40141.7
40140.7
40139.6
40138.5
40137.5
40136.4
40135.3
40134.3
40133.2
40132.2
40131.1
40130
40128.9
40127.9
40126.8
40125.7
40124.7
40123.6
40122.5
40121.5
40120.4
40119.3
40118.2
40117.2
40116.1
40115
40114
40112.9
40111.8
40110.7
40109.7
40108.6
40107.5
40106.4
40105.3
40104.3
40103.2
40102.1
40101
40100
40098.9
40097.8
40096.7
40095.6
40094.5
40093.5
40092.4
40091.3
40090.2
40089.1
40088
40087
40085.9
40084.8
40083.7
40082.6
40081.5
40080.4
40079.4
40078.3
40077.2
40076.1
40075
40073.9
40072.8
40071.7
40070.6
40069.5
40068.4
40067.3
40066.3
40065.2
40064.1
40063
40061.9
40060.8
40059.7
40058.6
40057.5
40056.4
40055.3
40054.2
40053.1
40052
40050.9
40049.8
40048.7
40047.6
40046.5
40045.4
40044.3
40043.2
40042.1
40041
40039.9
40038.8
40037.6
40036.5
40035.4
40034.3
40033.2
40032.1
40031
40029.9
40028.8
40027.7
40026.6
40025.4
40024.3
40023.2
40022.1
40021
40019.9
40018.8
40017.7
40016.5
40015.4
40014.3
40013.2
40012.1
40011
40009.8
40008.7
40007.6
40006.5
40005.4
40004.2
40003.1
40002
40000.9
39999.8
39998.6
39997.5
39996.4
39995.3
39994.1
39993
39991.9
39990.8
39989.6
39988.5
39987.4
39986.3
39985.1
39984
39982.9
39981.7
39980.6
39979.5
39978.3
39977.2
39976.1
39975
39973.8
39972.7
39971.5
39970.4
39969.3
39968.1
39967
39965.9
39964.7
39963.6
39962.5
39961.3
39960.2
39959
39957.9
39956.8
39955.6
39954.5
39953.3
39952.2
39951.1
39949.9
39948.8
39947.6
39946.5
39945.3
39944.2
39943
39941.9
39940.7
39939.6
39938.4
39937.3
39936.2
39935
39933.9
39932.7
39931.5
39930.4
39929.2
39928.1
39926.9
39925.8
39924.6
39923.5
39922.3
39921.2
39920
39918.9
39917.7
39916.5
39915.4
39914.2
39913.1
39911.9
39910.7
39909.6
39908.4
39907.3
39906.1
39904.9
39903.8
39902.6
39901.4
39900.3
39899.1
39897.9
39896.8
39895.6
39894.4
39893.3
39892.1
39890.9
39889.8
39888.6
39887.4
39886.3
39885.1
39883.9
39882.7
39881.6
39880.4
39879.2
39878
39876.9
39875.7
39874.5
39873.3
39872.2
39871
39869.8
39868.6
39867.5
39866.3
39865.1
39863.9
39862.7
39861.6
39860.4
39859.2
39858
39856.8
39855.6
39854.5
39853.3
39852.1
39850.9
39849.7
39848.5
39847.3
39846.1
39845
39843.8
39842.6
39841.4
39840.2
39839
39837.8
39836.6
39835.4
39834.2
39833
39831.8
39830.6
39829.5
39828.3
39827.1
39825.9
39824.7
39823.5
39822.3
39821.1
39819.9
39818.7
39817.5
39816.3
39815.1
39813.9
39812.7
39811.4
39810.2
39809
39807.8
39806.6
39805.4
39804.2
39803
39801.8
39800.6
39799.4
39798.2
39797
39795.7
39794.5
39793.3
39792.1
39790.9
39789.7
39788.5
39787.3
39786
39784.8
39783.6
39782.4
39781.2
39780
39778.7
39777.5
39776.3
39775.1
39773.9
39772.6
39771.4
39770.2
39769
39767.7
39766.5
39765.3
39764.1
39762.8
39761.6
39760.4
39759.2
39757.9
39756.7
39755.5
39754.2
39753
39751.8
39750.5
39749.3
39748.1
39746.8
39745.6
39744.4
39743.1
39741.9
39740.7
39739.4
39738.2
39737
39735.7
39734.5
39733.2
39732
39730.8
39729.5
39728.3
39727
39725.8
39724.5
39723.3
39722
39720.8
39719.6
39718.3
39717.1
39715.8
39714.6
39713.3
39712.1
39710.8
39709.6
39708.3
39707.1
39705.8
39704.6
39703.3
39702
39700.8
39699.5
39698.3
39697
39695.8
39694.5
39693.2
39692
39690.7
39689.5
39688.2
39686.9
39685.7
39684.4
39683.1
39681.9
39680.6
39679.3
39678.1
39676.8
39675.5
39674.3
39673
39671.7
39670.5
39669.2
39667.9
39666.6
39665.4
39664.1
39662.8
39661.6
39660.3
39659
39657.7
39656.4
39655.2
39653.9
39652.6
39651.3
39650
39648.8
39647.5
39646.2
39644.9
39643.6
39642.3
39641.1
39639.8
39638.5
39637.2
39635.9
39634.6
39633.3
39632
39630.8
39629.5
39628.2
39626.9
39625.6
39624.3
39623
39621.7
39620.4
39619.1
39617.8
39616.5
39615.2
39613.9
39612.6
39611.3
39610
39608.7
39607.4
39606.1
39604.8
39603.5
39602.2
39600.9
39599.6
39598.3
39597
39595.6
39594.3
39593
39591.7
39590.4
39589.1
39587.8
39586.5
39585.1
39583.8
39582.5
39581.2
39579.9
39578.6
39577.2
39575.9
39574.6
39573.3
39571.9
39570.6
39569.3
39568
39566.6
39565.3
39564
39562.7
39561.3
39560
39558.7
39557.3
39556
39554.7
39553.3
39552
39550.7
39549.3
39548
39546.7
39545.3
39544
39542.7
39541.3
39540
39538.6
39537.3
39535.9
39534.6
39533.3
39531.9
39530.6
39529.2
39527.9
39526.5
39525.2
39523.8
39522.5
39521.1
39519.8
39518.4
39517
39515.7
39514.3
39513
39511.6
39510.3
39508.9
39507.5
39506.2
39504.8
39503.4
39502.1
39500.7
39499.4
39498
39496.6
39495.3
39493.9
39492.5
39491.1
39489.8
39488.4
39487
39485.6
39484.3
39482.9
39481.5
39480.1
39478.8
39477.4
39476
39474.6
39473.2
39471.8
39470.5
39469.1
39467.7
39466.3
39464.9
39463.5
39462.1
39460.7
39459.4
39458
39456.6
39455.2
39453.8
39452.4
39451
39449.6
39448.2
39446.8
39445.4
39444
39442.6
39441.2
39439.8
39438.4
39436.9
39435.5
39434.1
39432.7
39431.3
39429.9
39428.5
39427.1
39425.6
39424.2
39422.8
39421.4
39420
39418.6
39417.1
39415.7
39414.3
39412.9
39411.4
39410
39408.6
39407.1
39405.7
39404.3
39402.8
39401.4
39400
39398.5
39397.1
39395.7
39394.2
39392.8
39391.3
39389.9
39388.5
39387
39385.6
39384.1
39382.7
39381.2
39379.8
39378.3
39376.9
39375.4
39373.9
39372.5
39371
39369.6
39368.1
39366.7
39365.2
39363.7
39362.3
39360.8
39359.3
39357.9
39356.4
39354.9
39353.4
39352
39350.5
39349
39347.5
39346.1
39344.6
39343.1
39341.6
39340.1
39338.6
39337.1
39335.7
39334.2
39332.7
39331.2
39329.7
39328.2
39326.7
39325.2
39323.7
39322.2
39320.7
39319.2
39317.7
39316.2
39314.7
39313.2
39311.7
39310.1
39308.6
39307.1
39305.6
39304.1
39302.6
39301
39299.5
39298
39296.5
39294.9
39293.4
39291.9
39290.3
39288.8
39287.3
39285.7
39284.2
39282.7
39281.1
39279.6
39278
39276.5
39274.9
39273.4
39271.8
39270.3
39268.7
39267.2
39265.6
39264
39262.5
39260.9
39259.4
39257.8
39256.2
39254.7
39253.1
39251.5
39249.9
39248.4
39246.8
39245.2
39243.6
39242
39240.4
39238.8
39237.3
39235.7
39234.1
39232.5
39230.9
39229.3
39227.7
39226.1
39224.5
39222.9
39221.2
39219.6
39218
39216.4
39214.8
39213.2
39211.5
39209.9
39208.3
39206.7
39205
39203.4
39201.8
39200.1
39198.5
39196.9
39195.2
39193.6
39191.9
39190.3
39188.6
39187
39185.3
39183.6
39182
39180.3
39178.6
39177
39175.3
39173.6
39172
39170.3
39168.6
39166.9
39165.2
39163.5
39161.8
39160.2
39158.5
39156.8
39155.1
39153.4
39151.6
39149.9
39148.2
39146.5
39144.8
39143.1
39141.4
39139.6
39137.9
39136.2
39134.4
39132.7
39131
39129.2
39127.5
39125.7
39124
39122.2
39120.5
39118.7
39116.9
39115.2
39113.4
39111.6
39109.8
39108.1
39106.3
39104.5
39102.7
39100.9
39099.1
39097.3
39095.5
39093.7
39091.9
39090.1
39088.3
39086.5
39084.6
39082.8
39081
39079.2
39077.3
39075.5
39073.6
39071.8
39069.9
39068.1
39066.2
39064.4
39062.5
39060.6
39058.7
39056.9
39055
39053.1
39051.2
39049.3
39047.4
39045.5
39043.6
39041.7
39039.8
39037.9
39035.9
39034
39032.1
39030.1
39028.2
39026.2
39024.3
39022.3
39020.4
39018.4
39016.4
39014.5
39012.5
39010.5
39008.5
39006.5
39004.5
39002.5
39000.5
38998.5
38996.5
38994.5
38992.4
38990.4
38988.4
38986.3
38984.3
38982.2
38980.1
38978.1
38976
38973.9
38971.8
38969.8
38967.7
38965.6
38963.5
38961.3
38959.2
38957.1
38955
38952.8
38950.7
38948.5
38946.4
38944.2
38942
38939.9
38937.7
38935.5
38933.3
38931.1
38928.9
38926.7
38924.5
38922.2
38920
38917.7
38915.5
38913.2
38911
38908.7
38906.4
38904.1
38901.8
38899.5
38897.2
38894.9
38892.6
38890.2
38887.9
38885.5
38883.2
38880.8
38878.4
38876.1
38873.7
38871.3
38868.9
38866.4
38864
38861.6
38859.1
38856.7
38854.2
38851.7
38849.3
38846.8
38844.3
38841.8
38839.2
38836.7
38834.2
38831.6
38829.1
38826.5
38823.9
38821.3
38818.7
38816.1
38813.5
38810.9
38808.2
38805.6
38802.9
38800.2
38797.6
38794.9
38792.2
38789.4
38786.7
38784
38781.2
38778.5
38775.7
38772.9
38770.1
38767.3
38764.5
38761.6
38758.8
38755.9
38753
38750.1
38747.2
38744.3
38741.4
38738.5
38735.5
38732.6
38729.6
38726.6
38723.6
38720.6
38717.5
38714.5
38711.4
38708.3
38705.3
38702.1
38699
38695.9
38692.7
38689.6
38686.4
38683.2
38680
38676.8
38673.5
38670.3
38667
38663.7
38660.4
38657.1
38653.8
38650.4
38647.1
38643.7
38640.3
38636.9
38633.4
38630
38626.5
38623
38619.5
38616
38612.5
38608.9
38605.4
38601.8
38598.2
38594.6
38590.9
38587.3
38583.6
38579.9
38576.2
38572.5
38568.7
38564.9
38561.2
38557.3
38553.5
38549.7
38545.8
38541.9
38538
38534.1
38530.2
38526.2
38522.2
38518.3
38514.2
38510.2
38506.1
38502.1
38498
38493.9
38489.7
38485.6
38481.4
38477.2
38473
38468.7
38464.5
38460.2
38455.9
38451.6
38447.3
38442.9
38438.5
38434.1
38429.7
38425.3
38420.8
38416.3
38411.8
38407.3
38402.7
38398.2
38393.6
38389
38384.3
38379.7
38375
38370.3
38365.6
38360.9
38356.1
38351.3
38346.5
38341.7
38336.9
38332
38327.2
38322.3
38317.3
38312.4
38307.4
38302.4
38297.4
38292.4
38287.4
38282.3
38277.2
38272.1
38267
38261.8
38256.7
38251.5
38246.3
38241.1
38235.8
38230.5
38225.3
38219.9
38214.6
38209.3
38203.9
38198.5
38193.1
38187.7
38182.3
38176.8
38171.3
38165.8
38160.3
38154.8
38149.2
38143.7
38138.1
38132.5
38126.9
38121.2
38115.6
38109.9
38104.2
38098.5
38092.8
38087
38081.3
38075.5
38069.7
38063.9
38058.1
38052.2
38046.4
38040.5
38034.6
38028.7
38022.8
38016.9
38010.9
38005
37999
37993
37987
37981
37975
37968.9
37962.9
37956.8
37950.7
37944.6
37938.5
37932.4
37926.3
37920.1
37914
37907.8
37901.6
37895.4
37889.2
37883
37876.8
37870.5
37864.3
37858
37851.8
37845.5
37839.2
37832.9
37826.6
37820.3
37814
37807.6
37801.3
37795
37788.6
37782.2
37775.9
37769.5
37763.1
37756.7
37750.3
37743.9
37737.5
37731
37724.6
37718.2
37711.7
37705.2
37698.8
37692.3
37685.9
37679.4
37672.9
37666.4
37659.9
37653.4
37646.9
37640.4
37633.9
37627.4
37620.8
37614.3
37607.8
37601.2
37594.7
37588.1
37581.6
37575
37568.5
37561.9
37555.4
37548.8
37542.2
37535.7
37529.1
37522.5
37515.9
37509.3
37502.7
37496.2
37489.6
37483
37476.4
37469.8
37463.2
37456.6
37450
37443.3
37436.7
37430.1
37423.5
37416.9
37410.3
37403.7
37397.1
37390.4
37383.8
37377.2
37370.6
37363.9
37357.3
37350.7
37344.1
37337.4
37330.8
37324.2
37317.6
37310.9
37304.3
37297.7
37291
37284.4
37277.8
37271.1
37264.5
37257.9
37251.2
37244.6
37238
37231.3
37224.7
37218.1
37211.4
37204.8
37198.2
37191.5
37184.9
37178.3
37171.6
37165
37158.4
37151.8
37145.1
37138.5
37131.9
37125.2
37118.6
37112
37105.4
37098.7
37092.1
37085.5
37078.8
37072.2
37065.6
37059
37052.4
37045.7
37039.1
37032.5
37025.9
37019.2
37012.6
37006
36999.4
36992.8
36986.2
36979.5
36972.9
36966.3
36959.7
36953.1
36946.5
36939.9
36933.3
36926.7
36920
36913.4
36906.8
36900.2
36893.6
36887
36880.4
36873.8
36867.2
36860.6
36854
36847.4
36840.8
36834.2
36827.6
36821
36814.4
36807.9
36801.3
36794.7
36788.1
36781.5
36774.9
36768.3
36761.7
36755.2
36748.6
36742
36735.4
36728.8
36722.3
36715.7
36709.1
36702.5
36695.9
36689.4
36682.8
36676.2
36669.7
36663.1
36656.5
36649.9
36643.4
36636.8
36630.3
36623.7
36617.1
36610.6
36604
36597.4
36590.9
36584.3
36577.8
36571.2
36564.7
36558.1
36551.6
36545
36538.5
36531.9
36525.4
36518.8
36512.3
36505.7
36499.2
36492.6
36486.1
36479.5
36473
36466.5
36459.9
36453.4
36446.9
36440.3
36433.8
36427.3
36420.7
36414.2
36407.7
36401.1
36394.6
36388.1
36381.6
36375
36368.5
36362
36355.5
36348.9
36342.4
36335.9
36329.4
36322.9
36316.4
36309.8
36303.3
36296.8
36290.3
36283.8
36277.3
36270.8
36264.3
36257.8
36251.3
36244.8
36238.3
36231.8
36225.3
36218.8
36212.3
36205.8
36199.3
36192.8
36186.3
36179.8
36173.3
36166.8
36160.3
36153.8
36147.3
36140.9
36134.4
36127.9
36121.4
36114.9
36108.4
36102
36095.5
36089
36082.5
36076.1
36069.6
36063.1
36056.6
36050.2
36043.7
36037.2
36030.7
36024.3
36017.8
36011.3
36004.9
35998.4
35992
35985.5
35979
35972.6
35966.1
35959.7
35953.2
35946.8
35940.3
35933.8
35927.4
35920.9
35914.5
35908
35901.6
35895.2
35888.7
35882.3
35875.8
35869.4
35862.9
35856.5
35850.1
35843.6
35837.2
35830.7
35824.3
35817.9
35811.4
35805
35798.6
35792.1
35785.7
35779.3
35772.9
35766.4
35760
35753.6
35747.2
35740.8
35734.3
35727.9
35721.5
35715.1
35708.7
35702.2
35695.8
35689.4
35683
35676.6
35670.2
35663.8
35657.4
35651
35644.6
35638.2
35631.7
35625.3
35618.9
35612.5
35606.1
35599.7
35593.4
35587
35580.6
35574.2
35567.8
35561.4
35555
35548.6
35542.2
35535.8
35529.4
35523.1
35516.7
35510.3
35503.9
35497.5
35491.1
35484.8
35478.4
35472
35465.6
35459.3
35452.9
35446.5
35440.1
35433.8
35427.4
35421
35414.7
35408.3
35401.9
35395.6
35389.2
35382.8
35376.5
35370.1
35363.8
35357.4
35351
35344.7
35338.3
35332
35325.6
35319.3
35312.9
35306.6
35300.2
35293.9
35287.5
35281.2
35274.8
35268.5
35262.2
35255.8
35249.5
35243.1
35236.8
35230.5
35224.1
35217.8
35211.5
35205.1
35198.8
35192.5
35186.1
35179.8
35173.5
35167.2
35160.8
35154.5
35148.2
35141.9
35135.5
35129.2
35122.9
35116.6
35110.3
35104
35097.6
35091.3
35085
35078.7
35072.4
35066.1
35059.8