/*--------------------------------*- C++ -*----------------------------------*\
  =========                 |
  \\      /  F ield         | OpenFOAM: The Open Source CFD Toolbox
   \\    /   O peration     | Website:  https://openfoam.org
    \\  /    A nd           | Version:  9
     \\/     M anipulation  |
\*---------------------------------------------------------------------------*/
FoamFile
{
    format      ascii;
    class       volScalarField;
    location    "0.044";
    object      mag(U);
}
// * * * * * * * * * * * * * * * * * * * * * * * * * * * * * * * * * * * * * //

dimensions      [0 1 -1 0 0 0 0];

internalField   nonuniform List<scalar> 
1000
(
225.32
225.618
225.793
225.982
226.168
226.355
226.542
226.728
226.915
227.102
227.288
227.475
227.661
227.848
228.035
228.221
228.408
228.594
228.781
228.968
229.154
229.341
229.527
229.714
229.9
230.087
230.274
230.46
230.647
230.833
231.02
231.207
231.393
231.58
231.766
231.953
232.139
232.326
232.512
232.699
232.886
233.072
233.259
233.445
233.632
233.818
234.005
234.191
234.378
234.564
234.751
234.937
235.124
235.311
235.497
235.684
235.87
236.057
236.243
236.43
236.616
236.803
236.989
237.176
237.362
237.548
237.735
237.921
238.108
238.294
238.481
238.667
238.854
239.04
239.227
239.413
239.6
239.786
239.973
240.159
240.345
240.532
240.718
240.905
241.091
241.277
241.464
241.65
241.837
242.023
242.21
242.396
242.583
242.769
242.955
243.142
243.328
243.515
243.701
243.887
244.074
244.26
244.447
244.633
244.819
245.006
245.192
245.379
245.565
245.752
245.938
246.124
246.311
246.497
246.684
246.87
247.057
247.243
247.429
247.616
247.802
247.988
248.175
248.361
248.548
248.734
248.92
249.107
249.293
249.48
249.666
249.852
250.039
250.225
250.411
250.598
250.784
250.971
251.157
251.343
251.53
251.716
251.902
252.089
252.275
252.461
252.648
252.834
253.02
253.207
253.393
253.58
253.766
253.952
254.139
254.325
254.511
254.697
254.884
255.07
255.256
255.442
255.629
255.815
256.001
256.188
256.374
256.56
256.747
256.933
257.12
257.306
257.493
257.679
257.866
258.053
258.239
258.426
258.612
258.798
258.985
259.171
259.357
259.544
259.73
259.916
260.102
260.288
260.474
260.66
260.846
261.033
261.219
261.405
261.591
261.777
261.963
262.15
262.336
262.522
262.708
262.895
263.081
263.267
263.453
263.64
263.826
264.012
264.199
264.385
264.571
264.757
264.944
265.13
265.316
265.502
265.688
265.874
266.061
266.247
266.433
266.619
266.805
266.991
267.178
267.364
267.55
267.736
267.922
268.109
268.295
268.481
268.667
268.853
269.039
269.226
269.412
269.598
269.784
269.97
270.157
270.343
270.529
270.715
270.901
271.087
271.274
271.46
271.646
271.832
272.018
272.204
272.391
272.577
272.763
272.949
273.135
273.321
273.508
273.694
273.88
274.066
274.252
274.439
274.625
274.811
274.997
275.183
275.369
275.555
275.742
275.929
276.115
276.3
276.485
276.671
276.859
277.046
277.232
277.417
277.601
277.787
277.974
278.162
278.349
278.534
278.717
278.902
279.089
279.278
279.465
279.65
279.834
280.019
280.204
280.389
280.578
280.77
280.956
281.138
281.319
281.503
281.697
281.889
282.071
282.251
282.433
282.621
282.818
283.002
283.183
283.364
283.549
283.745
283.934
284.115
284.296
284.478
284.67
284.864
285.047
285.228
285.409
285.595
285.791
285.978
286.16
286.341
286.524
286.715
286.908
287.092
287.273
287.455
287.641
287.836
288.023
288.205
288.386
288.569
288.76
288.953
289.136
289.318
289.5
289.685
289.879
290.067
290.25
290.432
290.614
290.802
290.996
291.181
291.363
291.545
291.729
291.92
292.111
292.294
292.476
292.659
292.844
293.036
293.224
293.407
293.59
293.773
293.962
294.153
294.337
294.519
294.701
294.883
295.066
295.249
295.437
295.637
295.828
296.012
296.194
296.376
296.558
296.738
296.915
297.094
297.275
297.456
297.638
297.827
298.028
298.213
298.392
298.57
298.748
298.925
299.105
299.28
299.453
299.623
299.79
299.949
300.107
300.268
300.428
300.584
300.737
300.887
301.031
301.168
301.296
301.418
301.533
301.637
301.729
301.809
301.873
301.914
301.945
301.977
302.001
302.017
302.035
302.063
302.067
302.063
302.053
302.034
301.993
301.928
301.883
301.849
301.819
301.791
301.764
301.737
301.707
301.667
301.628
301.595
301.561
301.526
301.493
301.464
301.437
301.404
301.381
301.372
301.367
301.369
301.385
301.421
301.458
301.489
301.524
301.553
301.576
301.593
301.605
301.608
301.601
301.601
301.602
301.602
301.6
301.595
301.581
301.56
301.547
301.537
301.526
301.513
301.498
301.477
301.448
301.424
301.401
301.38
301.359
301.335
301.305
301.287
301.277
301.27
301.267
301.267
301.269
301.281
301.307
301.331
301.352
301.37
301.38
301.379
301.385
301.392
301.398
301.402
301.403
301.398
301.386
301.38
301.376
301.371
301.363
301.346
301.331
301.32
301.309
301.295
301.273
301.251
301.235
301.22
301.205
301.191
301.178
301.166
301.154
301.139
301.115
301.105
301.105
301.114
301.135
301.155
301.163
301.174
301.187
301.198
301.207
301.214
301.213
301.204
301.204
301.207
301.208
301.207
301.201
301.185
301.174
301.169
301.164
301.159
301.152
301.144
301.134
301.119
301.089
301.045
301.024
301.01
300.998
300.986
300.974
300.964
300.956
300.95
300.947
300.945
300.949
300.962
300.981
300.998
300.994
300.968
300.969
300.976
300.983
300.989
300.994
300.999
301.004
301.007
301.008
301.009
301.008
301.005
300.999
300.984
300.964
300.95
300.934
300.913
300.901
300.89
300.88
300.87
300.859
300.847
300.831
300.805
300.787
300.777
300.77
300.764
300.759
300.751
300.742
300.751
300.767
300.783
300.795
300.803
300.799
300.794
300.797
300.8
300.803
300.804
300.801
300.788
300.781
300.779
300.777
300.774
300.769
300.757
300.736
300.728
300.721
300.714
300.707
300.698
300.688
300.673
300.653
300.628
300.602
300.583
300.572
300.564
300.558
300.555
300.554
300.559
300.571
300.581
300.592
300.601
300.604
300.595
300.592
300.592
300.594
300.595
300.596
300.595
300.587
300.572
300.567
300.565
300.565
300.562
300.554
300.535
300.519
300.513
300.508
300.503
300.495
300.477
300.453
300.443
300.433
300.424
300.415
300.402
300.383
300.372
300.367
300.365
300.366
300.371
300.372
300.367
300.371
300.378
300.384
300.388
300.388
300.376
300.37
300.371
300.372
300.372
300.372
300.368
300.352
300.341
300.336
300.332
300.325
300.31
300.292
300.285
300.28
300.275
300.27
300.265
300.258
300.251
300.239
300.208
300.178
300.169
300.166
300.163
300.163
300.165
300.171
300.178
300.177
300.165
300.165
300.169
300.172
300.176
300.179
300.178
300.166
300.153
300.151
300.15
300.15
300.148
300.145
300.13
300.094
300.08
300.075
300.072
300.068
300.065
300.062
300.059
300.055
300.05
300.045
300.039
300.028
300.002
299.977
299.97
299.967
299.965
299.964
299.959
299.948
299.952
299.958
299.964
299.968
299.971
299.973
299.972
299.958
299.93
299.924
299.924
299.925
299.925
299.924
299.923
299.922
299.921
299.919
299.917
299.913
299.905
299.879
299.824
299.804
299.798
299.794
299.789
299.785
299.781
299.777
299.774
299.772
299.771
299.772
299.772
299.768
299.738
299.72
299.722
299.727
299.731
299.734
299.737
299.738
299.739
299.74
299.741
299.74
299.727
299.691
299.679
299.676
299.675
299.674
299.672
299.672
299.674
299.673
299.671
299.668
299.664
299.659
299.65
299.621
299.585
299.574
299.568
299.563
299.556
299.541
299.522
299.521
299.525
299.528
299.532
299.535
299.536
299.531
299.508
299.5
299.5
299.5
299.5
299.5
299.498
299.489
299.45
299.415
299.408
299.406
299.405
299.403
299.401
299.4
299.399
299.397
299.395
299.393
299.389
299.386
299.381
299.372
299.343
299.305
299.297
299.294
299.288
299.265
299.175
298.782
297.159
294.379
292.813
292.232
292.027
291.954
291.943
291.913
291.862
291.853
291.844
291.84
291.851
291.857
291.863
291.873
291.876
291.874
291.848
291.771
291.734
291.724
291.731
291.737
291.745
291.756
291.76
291.761
291.763
291.765
291.762
291.741
291.716
291.711
291.71
291.712
291.714
291.71
291.69
291.681
291.683
291.688
291.696
291.698
291.695
291.678
291.618
291.443
290.898
289.375
287.582
286.53
286.016
285.796
285.704
285.664
285.661
285.665
285.667
285.679
285.687
285.686
285.662
285.588
285.56
285.553
285.557
285.567
285.585
285.596
285.592
285.583
285.551
285.521
285.518
285.52
285.526
285.547
285.554
285.554
285.551
285.534
285.473
285.434
285.428
285.427
285.43
285.447
285.473
285.478
285.478
285.475
285.457
285.397
285.367
285.362
285.362
285.362
285.366
285.369
285.369
285.368
285.369
285.374
285.387
285.389
285.386
285.382
285.369
285.316
285.237
285.217
285.212
285.21
285.21
285.218
285.236
285.238
285.236
285.232
285.223
285.19
285.152
285.143
285.139
285.137
285.139
285.145
285.143
285.14
285.133
285.108
285.043
285.018
285.012
285.009
285.007
285.012
285.024
285.026
285.022
)
;

boundaryField
{
    sides
    {
        type            calculated;
        value           nonuniform List<scalar> 2(285.022 225.32);
    }
    empty
    {
        type            empty;
    }
}


// ************************************************************************* //
