/*--------------------------------*- C++ -*----------------------------------*\
  =========                 |
  \\      /  F ield         | OpenFOAM: The Open Source CFD Toolbox
   \\    /   O peration     | Website:  https://openfoam.org
    \\  /    A nd           | Version:  9
     \\/     M anipulation  |
\*---------------------------------------------------------------------------*/
FoamFile
{
    format      ascii;
    class       volScalarField;
    location    "0.044";
    object      p;
}
// * * * * * * * * * * * * * * * * * * * * * * * * * * * * * * * * * * * * * //

dimensions      [1 -1 -2 0 0 0 0];

internalField   nonuniform List<scalar> 
1000
(
44404
44347.8
44313.8
44277
44240.9
44204.7
44168.5
44132.4
44096.3
44060.2
44024.2
43988.1
43952.1
43916.2
43880.2
43844.3
43808.4
43772.5
43736.6
43700.8
43665
43629.2
43593.5
43557.7
43522
43486.4
43450.7
43415.1
43379.5
43343.9
43308.3
43272.8
43237.3
43201.8
43166.4
43130.9
43095.5
43060.1
43024.8
42989.4
42954.1
42918.8
42883.6
42848.3
42813.1
42777.9
42742.8
42707.7
42672.5
42637.5
42602.4
42567.4
42532.3
42497.4
42462.4
42427.4
42392.5
42357.6
42322.8
42287.9
42253.1
42218.3
42183.6
42148.8
42114.1
42079.4
42044.8
42010.1
41975.5
41940.9
41906.3
41871.8
41837.3
41802.7
41768.3
41733.8
41699.4
41665
41630.6
41596.3
41561.9
41527.6
41493.4
41459.1
41424.9
41390.7
41356.5
41322.3
41288.2
41254.1
41220
41185.9
41151.9
41117.8
41083.8
41049.9
41015.9
40982
40948.1
40914.2
40880.4
40846.5
40812.7
40779
40745.2
40711.5
40677.7
40644.1
40610.4
40576.7
40543.1
40509.5
40475.9
40442.4
40408.9
40375.4
40341.9
40308.4
40275
40241.6
40208.2
40174.9
40141.5
40108.2
40074.9
40041.6
40008.4
39975.2
39942
39908.8
39875.7
39842.5
39809.4
39776.3
39743.3
39710.3
39677.2
39644.3
39611.3
39578.4
39545.4
39512.5
39479.7
39446.8
39414
39381.2
39348.4
39315.7
39282.9
39250.2
39217.5
39184.9
39152.2
39119.6
39087
39054.4
39021.9
38989.4
38956.9
38924.4
38892
38859.6
38827.2
38794.8
38762.4
38730.1
38697.7
38665.4
38633.1
38600.9
38568.6
38536.4
38504.1
38471.9
38439.8
38407.6
38375.5
38343.4
38311.3
38279.3
38247.3
38215.3
38183.3
38151.4
38119.5
38087.7
38055.8
38024
37992.2
37960.4
37928.7
37897
37865.3
37833.6
37801.9
37770.2
37738.6
37707
37675.4
37643.8
37612.3
37580.8
37549.3
37517.8
37486.3
37454.9
37423.5
37392.1
37360.7
37329.3
37298
37266.7
37235.4
37204.1
37172.9
37141.7
37110.5
37079.4
37048.2
37017.1
36986
36954.9
36923.9
36892.8
36861.8
36830.8
36799.9
36768.9
36738
36707.1
36676.2
36645.4
36614.5
36583.7
36552.9
36522.2
36491.4
36460.7
36430
36399.3
36368.6
36338
36307.4
36276.8
36246.2
36215.7
36185.1
36154.6
36124.1
36093.6
36063.2
36032.8
36002.4
35972
35941.6
35911.3
35881
35850.7
35820.4
35790.2
35759.9
35729.7
35699.5
35669.3
35639.2
35609.1
35579
35548.8
35518.7
35488.7
35458.8
35428.9
35398.9
35368.8
35338.8
35308.9
35279.1
35249.5
35219.6
35189.7
35159.7
35129.8
35100.2
35070.9
35041.3
35011.4
34981.4
34951.6
34922.1
34893
34863.6
34833.9
34804.2
34774.5
34744.9
34715.3
34686.3
34657.9
34628.5
34598.5
34568.4
34538.8
34510.8
34482.4
34452.5
34422.4
34392.6
34363.8
34336.2
34306.8
34276.9
34247.1
34217.8
34190.2
34161.6
34131.9
34102.1
34072.6
34044.4
34016.7
33987.4
33957.7
33928.2
33899.3
33872
33843.3
33813.9
33784.4
33755.2
33727.3
33699.7
33670.5
33641.2
33612
33583.3
33556.1
33527.7
33498.5
33469.4
33440.4
33412.6
33385.1
33356.3
33327.3
33298.4
33269.9
33242.6
33214.6
33185.8
33157
33128.3
33100.3
33073.2
33044.8
33016.1
32987.4
32959
32931.6
32904.2
32875.7
32847.2
32818.7
32790.6
32763.6
32735.9
32707.6
32679.3
32651.1
32623.6
32596.6
32568.5
32540.3
32512
32483.8
32455.7
32427.8
32400.5
32375.1
32348.4
32320.6
32292.8
32264.9
32237.1
32209.2
32180.9
32153
32125.5
32098.1
32071
32045
32021
31994.7
31967.9
31941.2
31914.7
31888.6
31863.1
31837.3
31811.7
31786.2
31760.8
31734.9
31709.4
31685.2
31661.4
31638.2
31615.5
31593.4
31571.9
31551
31530.7
31511.9
31494.6
31478.9
31464.8
31452.3
31441.2
31430.3
31421.3
31415.6
31411.9
31409.8
31410.2
31413.7
31414.9
31415.6
31416.8
31418.5
31419.9
31419.7
31422.3
31425.7
31429.1
31432.3
31435.4
31438.1
31440.5
31441.5
31443.5
31447
31451.3
31455.8
31460
31463.4
31465.6
31465.4
31465.5
31466.2
31466.6
31466.2
31463.7
31457.8
31449.3
31441
31435.3
31430.9
31427.4
31424.7
31422.4
31419.8
31416.5
31415.1
31414.5
31414.3
31414.2
31414.2
31413.5
31412
31412.4
31413.4
31414.8
31416.3
31418
31419.3
31420.1
31422.3
31425
31427.8
31430.2
31431.8
31431.6
31432.4
31433.5
31434.2
31434.4
31433.8
31430.5
31425.3
31421
31417.3
31414.1
31411.2
31408.1
31404.2
31401.9
31400.5
31399.4
31398.6
31397.9
31396.7
31395
31394.5
31394.4
31394.5
31394.5
31393.7
31393.4
31394.1
31395
31396
31396.1
31396.4
31398
31399.9
31401.9
31403.8
31405.6
31407.1
31408.3
31408.2
31406.2
31405.4
31404.9
31403.2
31399.9
31395.7
31390.6
31386.9
31384.5
31382.6
31381
31379.5
31377.3
31374.4
31373
31372.3
31371.8
31371.4
31370.8
31368.9
31367.9
31368
31368.5
31369.1
31370
31370.9
31371.8
31372.5
31371.1
31368
31368.4
31369.9
31371.6
31373.3
31374.9
31376.3
31377.5
31378.4
31378.9
31379.1
31378.5
31376.6
31373.5
31369.7
31364.1
31356.3
31353.1
31351.5
31350.4
31349.4
31348.6
31348
31347.5
31347
31346.8
31346.6
31346.6
31346.6
31346.4
31345.1
31343.4
31342.8
31342.1
31341.1
31341.4
31342.4
31343.5
31344.7
31346
31347.2
31347.8
31346.9
31347
31347.8
31348.5
31348.9
31348.8
31347.5
31344.3
31341.7
31339.1
31336.6
31334.4
31332.2
31329.1
31326.5
31325.3
31324.5
31323.8
31323
31321.8
31319.3
31318
31317.6
31317.5
31317.6
31317.5
31316.6
31314.9
31314.9
31315.4
31316.1
31316.8
31317.6
31318.3
31318.6
31318.2
31317.2
31315.9
31315.5
31315.9
31316.4
31316.8
31316.9
31316.7
31316.2
31315
31312.8
31310.7
31308.7
31306.3
31302.7
31300.3
31298.8
31297.9
31297.3
31296.6
31295.8
31294.1
31291.6
31290.6
31290.5
31290.6
31290.7
31290.3
31288.6
31287.3
31287.6
31288.2
31288.9
31289.3
31288.6
31287.3
31287.9
31288.6
31289.4
31289.9
31289.9
31288.6
31288.2
31288.1
31287.9
31287.2
31285.6
31282.8
31279.3
31277.4
31276.1
31274.9
31273.8
31272.3
31269.3
31267.5
31266.9
31266.5
31266.2
31265.9
31265.1
31262.9
31261.4
31261.1
31261.1
31260.9
31259.7
31258.2
31258.2
31258.7
31259.3
31260
31260.8
31261.6
31262.3
31262.3
31259.6
31256.7
31256.7
31257
31257.3
31257.3
31257
31256.1
31254.5
31251.8
31247.8
31246.1
31245.2
31244.5
31243.9
31243.2
31242.2
31239.7
31237.4
31236.8
31236.5
31236.4
31236.2
31235.8
31234
31229.4
31228
31228.1
31228.5
31229
31229.5
31230.3
31231
31231.7
31232.4
31233.1
31233.6
31233.5
31231
31228.4
31228.1
31228
31227.8
31227.1
31225
31221.6
31219.9
31218.9
31218
31217.4
31216.8
31216.3
31215.5
31212.8
31208.1
31206.7
31206.3
31206.2
31206.2
31206.2
31206.3
31206.5
31206.7
31206.9
31207.1
31207.3
31207
31204.4
31197.7
31195.9
31196.1
31196.5
31197.1
31197.7
31198.3
31198.9
31199.3
31199.6
31199.7
31199.5
31198.9
31197
31191.5
31187.4
31186.1
31185.3
31184.6
31184.2
31183.9
31183.7
31183.6
31183.4
31183
31182.4
31180.3
31175.2
31173.5
31173.3
31173.4
31173.6
31173.9
31174.3
31175.1
31175.5
31175.9
31176.3
31176.8
31177.1
31176.7
31173.6
31169.6
31168.9
31168.9
31168.9
31168.5
31166.6
31163.8
31162.8
31162.1
31161.4
31160.9
31160.3
31159.5
31157.6
31153.5
31151.7
31151.1
31150.9
31150.7
31150.5
31150.1
31148.6
31143
31138.1
31137.3
31137.3
31137.5
31137.7
31137.9
31138.1
31138.3
31138.6
31138.9
31139.2
31139.7
31140.1
31140.4
31140
31136.7
31131.8
31131
31131
31131.8
31134.9
31147.3
31201.4
31425.7
31808.7
32035.1
32119.3
32146.1
32155.7
32160.1
32157
32149.4
32147.8
32146.5
32145.8
32147.1
32147.6
32148.3
32149.7
32149.8
32149.2
32145.5
32134.4
32128.9
32127.4
32128
32128.6
32129.3
32130.4
32130.6
32130.2
32129.9
32129.6
32128.6
32125
32120.8
32119.4
32118.5
32118
32117.4
32116
32112.1
32109.6
32108.5
32107.7
32107.4
32107.2
32107.7
32109.3
32114.2
32133.3
32206.7
32421.3
32680.9
32828.4
32891.3
32917.9
32930
32935
32939.5
32942.4
32943.4
32945.2
32946.3
32946
32942.4
32931.6
32927.6
32926.6
32927.2
32928.7
32931.3
32932.6
32932.1
32930.8
32926.2
32921.8
32921.5
32921.7
32922.6
32925.5
32926.6
32926.6
32926.2
32923.7
32914.9
32909.3
32908.4
32908.2
32908.6
32911
32914.7
32915.4
32915.3
32914.9
32912.3
32903.6
32899.4
32898.8
32898.9
32899.3
32900.1
32900.9
32901.2
32901.6
32902.1
32903.3
32905.8
32906.6
32906.9
32907.1
32906
32899.1
32888.5
32886.6
32886.7
32887.2
32888
32890
32893.5
32894.7
32895.2
32895.5
32895
32891.1
32886.5
32886.1
32886.5
32887
32888.2
32889.8
32890.4
32890.8
32890.6
32887.9
32879.4
32876.5
32876.5
32876.9
32877.5
32878.9
32881.5
32882.4
32883
)
;

boundaryField
{
    sides
    {
        type            zeroGradient;
    }
    empty
    {
        type            empty;
    }
}


// ************************************************************************* //
