/*--------------------------------*- C++ -*----------------------------------*\
  =========                 |
  \\      /  F ield         | OpenFOAM: The Open Source CFD Toolbox
   \\    /   O peration     | Website:  https://openfoam.org
    \\  /    A nd           | Version:  9
     \\/     M anipulation  |
\*---------------------------------------------------------------------------*/
FoamFile
{
    format      ascii;
    class       volScalarField;
    location    "0.044";
    object      rho;
}
// * * * * * * * * * * * * * * * * * * * * * * * * * * * * * * * * * * * * * //

dimensions      [1 -3 0 0 0 0 0];

internalField   nonuniform List<scalar> 
1000
(
0.559633
0.559127
0.55882
0.558488
0.558164
0.557837
0.557512
0.557186
0.55686
0.556535
0.55621
0.555885
0.55556
0.555235
0.55491
0.554586
0.554261
0.553937
0.553613
0.553289
0.552966
0.552642
0.552319
0.551995
0.551672
0.551349
0.551026
0.550703
0.550381
0.550059
0.549736
0.549414
0.549092
0.54877
0.548449
0.548127
0.547806
0.547485
0.547164
0.546843
0.546522
0.546201
0.545881
0.54556
0.54524
0.54492
0.5446
0.544281
0.543961
0.543642
0.543322
0.543003
0.542684
0.542366
0.542047
0.541728
0.54141
0.541092
0.540773
0.540456
0.540138
0.53982
0.539503
0.539185
0.538868
0.538551
0.538235
0.537918
0.537601
0.537285
0.536969
0.536652
0.536336
0.53602
0.535705
0.535389
0.535074
0.534758
0.534443
0.534128
0.533814
0.533499
0.533185
0.53287
0.532556
0.532242
0.531928
0.531614
0.531301
0.530987
0.530674
0.53036
0.530047
0.529734
0.529421
0.529109
0.528796
0.528484
0.528172
0.52786
0.527548
0.527236
0.526924
0.526613
0.526302
0.52599
0.525679
0.525368
0.525058
0.524747
0.524436
0.524126
0.523816
0.523506
0.523196
0.522886
0.522576
0.522267
0.521958
0.521648
0.521339
0.52103
0.520722
0.520413
0.520105
0.519796
0.519488
0.51918
0.518872
0.518564
0.518257
0.517949
0.517642
0.517335
0.517028
0.516721
0.516414
0.516107
0.515801
0.515495
0.515188
0.514882
0.514577
0.514271
0.513965
0.51366
0.513354
0.513049
0.512744
0.512439
0.512134
0.51183
0.511525
0.511221
0.510917
0.510613
0.510309
0.510005
0.509702
0.509398
0.509095
0.508792
0.508489
0.508186
0.507884
0.507581
0.507278
0.506976
0.506674
0.506371
0.506069
0.505767
0.505465
0.505163
0.504861
0.50456
0.504258
0.503957
0.503656
0.503355
0.503055
0.502754
0.502454
0.502154
0.501854
0.501555
0.501255
0.500956
0.500657
0.500358
0.500059
0.49976
0.499462
0.499163
0.498865
0.498567
0.498268
0.49797
0.497673
0.497375
0.497077
0.49678
0.496482
0.496185
0.495888
0.495591
0.495294
0.494997
0.4947
0.494404
0.494107
0.493811
0.493515
0.493219
0.492924
0.492628
0.492333
0.492038
0.491743
0.491448
0.491153
0.490858
0.490564
0.490269
0.489975
0.489681
0.489387
0.489093
0.488799
0.488505
0.488212
0.487919
0.487626
0.487332
0.48704
0.486747
0.486454
0.486162
0.485869
0.485577
0.485285
0.484993
0.484701
0.484409
0.484118
0.483827
0.483535
0.483244
0.482953
0.482662
0.482371
0.482081
0.48179
0.4815
0.48121
0.480919
0.48063
0.48034
0.480051
0.479761
0.479471
0.479182
0.478892
0.478604
0.478315
0.478027
0.477738
0.477449
0.47716
0.476872
0.476585
0.476298
0.47601
0.475721
0.475433
0.475145
0.47486
0.474575
0.474288
0.474
0.473711
0.473424
0.473139
0.472857
0.472572
0.472284
0.471995
0.471708
0.471424
0.471143
0.47086
0.470573
0.470287
0.47
0.469714
0.469429
0.469149
0.468874
0.46859
0.4683
0.46801
0.467724
0.467453
0.467177
0.466888
0.466598
0.466309
0.46603
0.465763
0.465478
0.465188
0.464899
0.464615
0.464348
0.46407
0.463782
0.463493
0.463207
0.462934
0.462665
0.462379
0.462091
0.461804
0.461524
0.461258
0.460979
0.460693
0.460406
0.460122
0.459851
0.459582
0.459298
0.459012
0.458728
0.458448
0.458183
0.457906
0.457621
0.457337
0.457055
0.456783
0.456515
0.456234
0.455951
0.455668
0.455389
0.455123
0.454849
0.454568
0.454285
0.454005
0.453731
0.453465
0.453187
0.452906
0.452626
0.452347
0.452079
0.45181
0.451531
0.451251
0.450972
0.450696
0.450431
0.450159
0.449881
0.449603
0.449326
0.449056
0.448791
0.448515
0.448237
0.447959
0.447682
0.447405
0.44713
0.446862
0.446611
0.446348
0.446075
0.4458
0.445526
0.445252
0.444976
0.444697
0.444422
0.44415
0.44388
0.443612
0.443356
0.443118
0.442859
0.442594
0.442331
0.442068
0.44181
0.441558
0.441303
0.441049
0.440796
0.440545
0.440288
0.440037
0.439796
0.439561
0.439331
0.439106
0.438886
0.438673
0.438466
0.438265
0.438078
0.437907
0.437751
0.437611
0.437487
0.437377
0.437269
0.437179
0.437123
0.437086
0.437066
0.43707
0.437104
0.437116
0.437123
0.437135
0.437152
0.437167
0.437165
0.43719
0.437225
0.437259
0.437291
0.437321
0.437349
0.437372
0.437383
0.437402
0.437437
0.43748
0.437525
0.437567
0.437601
0.437622
0.437621
0.437622
0.437629
0.437633
0.437629
0.437604
0.437546
0.437462
0.43738
0.437323
0.437279
0.437245
0.437218
0.437195
0.437169
0.437137
0.437123
0.437117
0.437115
0.437115
0.437115
0.437108
0.437094
0.437097
0.437108
0.437122
0.437137
0.437153
0.437167
0.437175
0.437197
0.437224
0.437252
0.437276
0.437292
0.437291
0.437299
0.43731
0.437317
0.437319
0.437313
0.437281
0.437229
0.437187
0.43715
0.437118
0.43709
0.437059
0.437021
0.436998
0.436984
0.436973
0.436965
0.436958
0.436947
0.43693
0.436925
0.436925
0.436926
0.436927
0.436918
0.436916
0.436923
0.436933
0.436942
0.436944
0.436947
0.436963
0.436982
0.437002
0.437021
0.437039
0.437055
0.437066
0.437066
0.437046
0.437039
0.437034
0.437017
0.436984
0.436943
0.436892
0.436856
0.436833
0.436814
0.436799
0.436784
0.436762
0.436733
0.43672
0.436713
0.436709
0.436705
0.436699
0.43668
0.436671
0.436672
0.436677
0.436684
0.436693
0.436703
0.436712
0.436718
0.436705
0.436674
0.436679
0.436694
0.436712
0.436729
0.436745
0.43676
0.436771
0.43678
0.436786
0.436788
0.436783
0.436764
0.436734
0.436697
0.436641
0.436565
0.436533
0.436517
0.436506
0.436497
0.43649
0.436483
0.436479
0.436475
0.436473
0.436472
0.436472
0.436473
0.436471
0.436459
0.436443
0.436437
0.436431
0.436421
0.436425
0.436434
0.436446
0.436459
0.436472
0.436485
0.436491
0.436483
0.436484
0.436493
0.4365
0.436505
0.436505
0.436492
0.436462
0.436436
0.436411
0.436387
0.436365
0.436345
0.436314
0.436289
0.436278
0.436271
0.436265
0.436258
0.436246
0.436222
0.43621
0.436208
0.436208
0.436209
0.43621
0.436203
0.436185
0.436186
0.436192
0.4362
0.436209
0.436218
0.436226
0.436231
0.436229
0.436222
0.436211
0.43621
0.436218
0.436228
0.436236
0.436244
0.436251
0.436256
0.436253
0.436238
0.436222
0.436204
0.436184
0.436154
0.436138
0.436129
0.43612
0.436111
0.4361
0.436087
0.436064
0.436033
0.436019
0.436013
0.436011
0.436009
0.436002
0.435982
0.435968
0.435968
0.435973
0.435979
0.435983
0.435976
0.435964
0.435971
0.435982
0.435992
0.436001
0.436003
0.435994
0.435993
0.435993
0.435991
0.435985
0.435969
0.435939
0.435903
0.435882
0.435866
0.435853
0.435841
0.435824
0.435794
0.435776
0.435771
0.435767
0.435765
0.435762
0.435755
0.435734
0.43572
0.435717
0.435717
0.435716
0.435704
0.435688
0.435689
0.435693
0.435699
0.435706
0.435713
0.435721
0.435728
0.435728
0.4357
0.435672
0.435672
0.435676
0.435678
0.435679
0.435676
0.435667
0.435651
0.435624
0.435585
0.435568
0.435559
0.435552
0.435545
0.435538
0.435528
0.435504
0.43548
0.435474
0.435472
0.435471
0.435469
0.435465
0.435447
0.435401
0.435387
0.435388
0.435392
0.435397
0.435403
0.43541
0.435417
0.435424
0.435431
0.435438
0.435443
0.435443
0.435418
0.435392
0.435388
0.435387
0.435385
0.435379
0.435358
0.435324
0.435307
0.435297
0.435288
0.435282
0.435276
0.435271
0.435263
0.435236
0.43519
0.435175
0.435172
0.43517
0.43517
0.435171
0.435172
0.435174
0.435176
0.435178
0.43518
0.435182
0.435179
0.435152
0.435086
0.435068
0.43507
0.435075
0.43508
0.435086
0.435092
0.435098
0.435102
0.435105
0.435106
0.435105
0.435098
0.43508
0.435025
0.434984
0.434971
0.434963
0.434956
0.434952
0.434949
0.434947
0.434946
0.434944
0.43494
0.434934
0.434913
0.434862
0.434845
0.434844
0.434845
0.434846
0.434849
0.434853
0.434861
0.434865
0.434869
0.434873
0.434878
0.43488
0.434877
0.434846
0.434805
0.434799
0.434799
0.434799
0.434795
0.434776
0.434748
0.434738
0.43473
0.434724
0.434719
0.434713
0.434705
0.434686
0.434646
0.434627
0.434622
0.434619
0.434618
0.434616
0.434612
0.434597
0.434541
0.434492
0.434485
0.434484
0.434486
0.434488
0.43449
0.434493
0.434495
0.434497
0.4345
0.434503
0.434507
0.434511
0.434514
0.43451
0.434478
0.43443
0.434422
0.434423
0.43443
0.434461
0.434584
0.435124
0.437356
0.441191
0.443294
0.444199
0.444564
0.444659
0.444634
0.444559
0.444467
0.444465
0.444492
0.444521
0.44454
0.444535
0.444513
0.4445
0.4445
0.444505
0.444496
0.4444
0.444338
0.444312
0.4443
0.4443
0.44431
0.444333
0.44435
0.444349
0.444341
0.444327
0.444307
0.444267
0.444236
0.444233
0.444229
0.444222
0.44421
0.444188
0.444143
0.444121
0.444116
0.444117
0.444119
0.444115
0.444114
0.444124
0.44417
0.44436
0.445088
0.447207
0.449746
0.45126
0.451838
0.452015
0.452159
0.452252
0.452338
0.45237
0.452357
0.452339
0.452339
0.45234
0.452328
0.452244
0.452203
0.452186
0.452174
0.452173
0.452202
0.452224
0.452233
0.452228
0.452178
0.452124
0.452115
0.452117
0.452131
0.452168
0.452182
0.452182
0.452172
0.452139
0.452048
0.451998
0.451993
0.451994
0.451999
0.452022
0.452056
0.452061
0.452062
0.452059
0.452036
0.45195
0.451907
0.4519
0.4519
0.451903
0.451913
0.451923
0.451927
0.451931
0.451934
0.451944
0.451969
0.451979
0.451983
0.451985
0.451975
0.451907
0.451801
0.451781
0.451782
0.451786
0.451795
0.451816
0.45185
0.451861
0.451866
0.451869
0.451865
0.451827
0.451782
0.451778
0.451782
0.451787
0.451799
0.451814
0.45182
0.451824
0.451822
0.451794
0.451712
0.451683
0.451684
0.451688
0.451694
0.451709
0.451735
0.451743
0.451749
)
;

boundaryField
{
    sides
    {
        type            calculated;
        value           nonuniform List<scalar> 2(0.451749 0.559633);
    }
    empty
    {
        type            empty;
    }
}


// ************************************************************************* //
