/*--------------------------------*- C++ -*----------------------------------*\
  =========                 |
  \\      /  F ield         | OpenFOAM: The Open Source CFD Toolbox
   \\    /   O peration     | Website:  https://openfoam.org
    \\  /    A nd           | Version:  9
     \\/     M anipulation  |
\*---------------------------------------------------------------------------*/
FoamFile
{
    format      ascii;
    class       volScalarField;
    location    "0.044";
    object      T;
}
// * * * * * * * * * * * * * * * * * * * * * * * * * * * * * * * * * * * * * //

dimensions      [0 0 0 1 0 0 0];

internalField   nonuniform List<scalar> 
1000
(
276.365
276.265
276.205
276.139
276.075
276.01
275.945
275.881
275.816
275.752
275.687
275.623
275.558
275.494
275.429
275.365
275.3
275.236
275.171
275.107
275.042
274.978
274.913
274.849
274.785
274.72
274.656
274.591
274.527
274.462
274.398
274.334
274.269
274.205
274.141
274.076
274.012
273.948
273.883
273.819
273.755
273.69
273.626
273.562
273.497
273.433
273.369
273.304
273.24
273.176
273.112
273.047
272.983
272.919
272.855
272.791
272.726
272.662
272.598
272.534
272.47
272.405
272.341
272.277
272.213
272.149
272.085
272.021
271.957
271.893
271.828
271.764
271.7
271.636
271.572
271.508
271.444
271.38
271.316
271.252
271.188
271.124
271.06
270.996
270.932
270.868
270.804
270.74
270.676
270.612
270.548
270.484
270.42
270.356
270.292
270.228
270.164
270.1
270.036
269.973
269.909
269.845
269.781
269.717
269.653
269.589
269.526
269.462
269.398
269.334
269.27
269.206
269.143
269.079
269.015
268.951
268.887
268.824
268.76
268.696
268.632
268.569
268.505
268.441
268.377
268.314
268.25
268.186
268.123
268.059
267.995
267.931
267.868
267.804
267.74
267.677
267.613
267.55
267.486
267.422
267.359
267.295
267.231
267.168
267.104
267.041
266.977
266.914
266.85
266.786
266.723
266.659
266.596
266.532
266.469
266.405
266.342
266.278
266.215
266.151
266.088
266.024
265.961
265.898
265.834
265.771
265.707
265.644
265.58
265.517
265.453
265.39
265.326
265.263
265.199
265.136
265.073
265.009
264.946
264.882
264.819
264.756
264.692
264.629
264.566
264.503
264.439
264.376
264.313
264.25
264.186
264.123
264.06
263.997
263.934
263.87
263.807
263.744
263.681
263.618
263.554
263.491
263.428
263.365
263.302
263.238
263.175
263.112
263.049
262.986
262.923
262.859
262.796
262.733
262.67
262.607
262.544
262.481
262.418
262.355
262.292
262.229
262.166
262.103
262.04
261.977
261.914
261.851
261.788
261.725
261.662
261.599
261.536
261.473
261.41
261.347
261.284
261.221
261.158
261.095
261.032
260.969
260.906
260.844
260.781
260.718
260.655
260.592
260.529
260.466
260.403
260.341
260.278
260.215
260.152
260.089
260.026
259.964
259.901
259.838
259.775
259.712
259.65
259.587
259.524
259.461
259.399
259.336
259.273
259.21
259.148
259.085
259.022
258.96
258.897
258.834
258.772
258.709
258.647
258.584
258.521
258.458
258.396
258.334
258.271
258.208
258.145
258.082
258.02
257.958
257.896
257.833
257.77
257.708
257.645
257.582
257.52
257.46
257.397
257.334
257.27
257.207
257.147
257.086
257.023
256.958
256.895
256.833
256.774
256.711
256.647
256.583
256.521
256.461
256.4
256.336
256.272
256.209
256.148
256.089
256.025
255.961
255.898
255.835
255.776
255.714
255.651
255.587
255.524
255.463
255.404
255.34
255.277
255.213
255.151
255.092
255.03
254.967
254.903
254.84
254.779
254.719
254.657
254.593
254.53
254.467
254.408
254.347
254.283
254.22
254.157
254.096
254.036
253.974
253.911
253.848
253.785
253.725
253.664
253.601
253.539
253.476
253.413
253.354
253.292
253.23
253.167
253.105
253.044
252.984
252.921
252.858
252.796
252.733
252.67
252.608
252.547
252.491
252.431
252.369
252.307
252.245
252.182
252.12
252.056
251.994
251.932
251.871
251.81
251.751
251.697
251.638
251.578
251.518
251.458
251.399
251.342
251.284
251.226
251.168
251.11
251.052
250.994
250.939
250.886
250.833
250.781
250.731
250.682
250.635
250.589
250.546
250.506
250.471
250.438
250.41
250.385
250.36
250.339
250.326
250.318
250.313
250.314
250.322
250.324
250.326
250.328
250.332
250.335
250.335
250.341
250.348
250.356
250.363
250.37
250.376
250.381
250.384
250.388
250.396
250.406
250.416
250.426
250.433
250.438
250.438
250.438
250.439
250.44
250.439
250.433
250.42
250.4
250.381
250.368
250.358
250.35
250.344
250.339
250.333
250.325
250.322
250.32
250.32
250.319
250.319
250.318
250.314
250.315
250.317
250.32
250.324
250.327
250.33
250.332
250.337
250.343
250.349
250.355
250.358
250.358
250.359
250.362
250.363
250.364
250.362
250.354
250.342
250.333
250.324
250.317
250.31
250.303
250.294
250.288
250.285
250.282
250.28
250.279
250.276
250.272
250.271
250.27
250.27
250.27
250.268
250.267
250.269
250.271
250.273
250.273
250.274
250.277
250.281
250.286
250.29
250.294
250.297
250.3
250.3
250.295
250.293
250.291
250.288
250.28
250.27
250.258
250.25
250.244
250.24
250.236
250.232
250.227
250.22
250.217
250.215
250.214
250.213
250.211
250.207
250.204
250.205
250.206
250.207
250.208
250.21
250.212
250.214
250.21
250.203
250.204
250.207
250.211
250.214
250.218
250.221
250.223
250.225
250.226
250.226
250.225
250.22
250.213
250.204
250.191
250.173
250.166
250.162
250.159
250.157
250.155
250.153
250.151
250.15
250.149
250.149
250.149
250.148
250.147
250.144
250.14
250.138
250.137
250.134
250.135
250.136
250.138
250.141
250.144
250.146
250.147
250.145
250.145
250.146
250.147
250.148
250.148
250.144
250.136
250.13
250.124
250.118
250.112
250.107
250.099
250.093
250.09
250.087
250.085
250.083
250.08
250.074
250.07
250.069
250.068
250.067
250.066
250.064
250.06
250.059
250.06
250.061
250.062
250.063
250.064
250.064
250.061
250.057
250.053
250.05
250.049
250.047
250.046
250.042
250.036
250.029
250.022
250.013
250.005
249.999
249.992
249.98
249.97
249.964
249.962
249.962
249.963
249.964
249.964
249.961
249.961
249.963
249.966
249.968
249.969
249.966
249.964
249.966
249.969
249.97
249.972
249.97
249.966
249.967
249.967
249.967
249.966
249.964
249.959
249.957
249.956
249.955
249.954
249.95
249.944
249.937
249.934
249.932
249.931
249.929
249.926
249.92
249.916
249.914
249.913
249.912
249.911
249.909
249.904
249.9
249.899
249.898
249.898
249.895
249.891
249.892
249.893
249.894
249.896
249.898
249.9
249.902
249.902
249.896
249.889
249.889
249.89
249.89
249.89
249.89
249.887
249.884
249.877
249.868
249.864
249.862
249.861
249.859
249.858
249.856
249.85
249.845
249.843
249.843
249.842
249.842
249.841
249.837
249.826
249.823
249.823
249.824
249.825
249.827
249.828
249.83
249.831
249.833
249.835
249.836
249.836
249.83
249.824
249.823
249.823
249.822
249.821
249.816
249.808
249.804
249.802
249.8
249.799
249.797
249.796
249.794
249.788
249.777
249.774
249.773
249.773
249.773
249.773
249.773
249.774
249.774
249.774
249.775
249.775
249.775
249.769
249.753
249.749
249.75
249.751
249.752
249.753
249.755
249.756
249.757
249.758
249.758
249.757
249.756
249.752
249.739
249.73
249.727
249.725
249.723
249.722
249.722
249.721
249.721
249.72
249.72
249.718
249.713
249.702
249.698
249.697
249.698
249.698
249.699
249.7
249.701
249.703
249.703
249.704
249.705
249.706
249.705
249.698
249.689
249.688
249.688
249.688
249.687
249.682
249.676
249.674
249.672
249.671
249.669
249.668
249.666
249.662
249.652
249.648
249.647
249.646
249.646
249.646
249.645
249.641
249.628
249.617
249.615
249.615
249.615
249.616
249.616
249.617
249.617
249.618
249.619
249.62
249.621
249.622
249.622
249.622
249.614
249.603
249.6
249.6
249.602
249.609
249.638
249.762
250.273
251.121
251.709
251.856
251.86
251.88
251.929
251.947
251.94
251.928
251.904
251.881
251.881
251.887
251.905
251.924
251.925
251.917
251.893
251.86
251.852
251.856
251.867
251.872
251.872
251.867
251.859
251.857
251.859
251.864
251.867
251.862
251.847
251.838
251.833
251.832
251.835
251.837
251.831
251.824
251.818
251.812
251.808
251.809
251.813
251.82
251.832
251.875
252.037
252.514
253.099
253.389
253.55
253.655
253.668
253.654
253.64
253.645
253.659
253.684
253.692
253.689
253.668
253.632
253.624
253.626
253.638
253.649
253.653
253.651
253.642
253.634
253.628
253.624
253.626
253.627
253.626
253.628
253.628
253.628
253.631
253.63
253.613
253.598
253.594
253.592
253.592
253.598
253.608
253.609
253.609
253.607
253.6
253.581
253.573
253.572
253.573
253.574
253.575
253.576
253.576
253.577
253.578
253.582
253.587
253.588
253.589
253.588
253.585
253.571
253.549
253.545
253.545
253.547
253.548
253.552
253.559
253.562
253.563
253.564
253.563
253.554
253.544
253.543
253.543
253.545
253.547
253.551
253.553
253.554
253.553
253.547
253.528
253.522
253.522
253.522
253.523
253.526
253.532
253.534
253.535
)
;

boundaryField
{
    sides
    {
        type            zeroGradient;
    }
    empty
    {
        type            empty;
    }
}


// ************************************************************************* //
