/*--------------------------------*- C++ -*----------------------------------*\
  =========                 |
  \\      /  F ield         | OpenFOAM: The Open Source CFD Toolbox
   \\    /   O peration     | Website:  https://openfoam.org
    \\  /    A nd           | Version:  9
     \\/     M anipulation  |
\*---------------------------------------------------------------------------*/
FoamFile
{
    format      ascii;
    class       volScalarField;
    location    "0.026";
    object      p;
}
// * * * * * * * * * * * * * * * * * * * * * * * * * * * * * * * * * * * * * //

dimensions      [1 -1 -2 0 0 0 0];

internalField   nonuniform List<scalar> 
1000
(
25850.1
25845.5
25840.3
25835.7
25831.5
25827.2
25822.8
25818.5
25814.1
25809.7
25805.3
25801
25796.6
25792.2
25787.8
25783.4
25779
25774.6
25770.2
25765.8
25761.4
25757
25752.6
25748.2
25743.8
25739.3
25734.9
25730.5
25726
25721.6
25717.1
25712.7
25708.2
25703.8
25699.3
25694.8
25690.4
25685.9
25681.4
25676.9
25672.5
25668
25663.5
25659
25654.5
25650
25645.5
25640.9
25636.4
25631.9
25627.4
25622.8
25618.3
25613.8
25609.2
25604.7
25600.1
25595.6
25591
25586.5
25581.9
25577.3
25572.7
25568.2
25563.6
25559
25554.4
25549.8
25545.2
25540.6
25536
25531.4
25526.8
25522.1
25517.5
25512.9
25508.2
25503.6
25499
25494.3
25489.7
25485
25480.3
25475.7
25471
25466.3
25461.6
25457
25452.3
25447.6
25442.9
25438.2
25433.5
25428.8
25424.1
25419.3
25414.6
25409.9
25405.1
25400.4
25395.7
25390.9
25386.2
25381.4
25376.7
25371.9
25367.1
25362.4
25357.6
25352.8
25348
25343.2
25338.4
25333.6
25328.8
25324
25319.2
25314.4
25309.6
25304.7
25299.9
25295.1
25290.2
25285.4
25280.5
25275.7
25270.8
25266
25261.1
25256.2
25251.3
25246.5
25241.6
25236.7
25231.8
25226.9
25222
25217.1
25212.2
25207.2
25202.3
25197.4
25192.5
25187.5
25182.6
25177.6
25172.7
25167.7
25162.8
25157.8
25152.8
25147.9
25142.9
25137.9
25132.9
25127.9
25122.9
25117.9
25112.9
25107.9
25102.9
25097.9
25092.9
25087.8
25082.8
25077.8
25072.7
25067.7
25062.6
25057.6
25052.5
25047.5
25042.4
25037.3
25032.3
25027.2
25022.1
25017
25011.9
25006.8
25001.7
24996.6
24991.5
24986.4
24981.3
24976.1
24971
24965.9
24960.7
24955.6
24950.5
24945.3
24940.2
24935
24929.8
24924.7
24919.5
24914.3
24909.1
24904
24898.8
24893.6
24888.4
24883.2
24878
24872.8
24867.6
24862.4
24857.1
24851.9
24846.7
24841.5
24836.2
24831
24825.7
24820.5
24815.2
24810
24804.7
24799.5
24794.2
24788.9
24783.7
24778.4
24773.1
24767.8
24762.5
24757.2
24751.9
24746.6
24741.3
24736
24730.7
24725.4
24720.1
24714.8
24709.5
24704.1
24698.8
24693.5
24688.1
24682.8
24677.5
24672.1
24666.8
24661.4
24656.1
24650.7
24645.4
24640
24634.6
24629.3
24623.9
24618.5
24613.2
24607.8
24602.4
24597.1
24591.7
24586.3
24580.9
24575.5
24570.1
24564.7
24559.4
24554
24548.6
24543.2
24537.8
24532.4
24527
24521.6
24516.2
24510.8
24505.4
24500
24494.6
24489.2
24483.8
24478.4
24473
24467.6
24462.2
24456.8
24451.4
24446
24440.6
24435.2
24429.8
24424.4
24419
24413.6
24408.2
24402.8
24397.5
24392.1
24386.7
24381.3
24375.9
24370.6
24365.2
24359.8
24354.5
24349.1
24343.7
24338.4
24333.1
24327.7
24322.4
24317
24311.7
24306.4
24301.1
24295.8
24290.5
24285.2
24279.9
24274.6
24269.3
24264.1
24258.8
24253.6
24248.3
24243.1
24237.9
24232.7
24227.5
24222.3
24217.1
24212
24206.8
24201.7
24196.6
24191.5
24186.4
24181.3
24176.2
24171.2
24166.2
24161.1
24156.1
24151.2
24146.2
24141.3
24136.3
24131.4
24126.6
24121.7
24116.9
24112.1
24107.3
24102.5
24097.8
24093.1
24088.4
24083.8
24079.1
24074.6
24070
24065.5
24061
24056.5
24052.1
24047.7
24043.4
24039.1
24034.8
24030.6
24026.4
24022.3
24018.2
24014.2
24010.2
24006.3
24002.4
23998.6
23994.8
23991.1
23987.5
23983.9
23980.3
23976.9
23973.5
23970.2
23966.9
23963.8
23960.7
23957.7
23954.7
23951.9
23949.1
23946.5
23943.9
23941.4
23939
23936.8
23934.6
23932.5
23930.6
23928.8
23927.1
23925.5
23924
23922.7
23921.5
23920.5
23919.6
23918.9
23918.3
23918
23917.7
23917.7
23917.7
23917.9
23918.1
23918.7
23919.5
23920.5
23921.7
23923.1
23924.8
23926.7
23928.8
23931.2
23933.8
23936.6
23939.7
23943.1
23946.7
23950.6
23954.8
23959.3
23964.1
23969.2
23974.6
23980.3
23986.4
23992.8
23999.5
24006.6
24014
24021.8
24029.9
24038.4
24047.3
24056.6
24066.3
24076.3
24086.8
24097.6
24108.9
24120.5
24132.6
24145.1
24157.9
24171.3
24185
24199.1
24213.7
24228.6
24244
24259.8
24276
24292.6
24309.7
24327.1
24344.9
24363.1
24381.6
24400.6
24419.9
24439.5
24459.5
24479.9
24500.6
24521.6
24542.9
24564.5
24586.4
24608.6
24631.1
24653.8
24676.8
24700
24723.4
24747.1
24771
24795
24819.3
24843.7
24868.3
24893.1
24918
24943
24968.2
24993.5
25018.9
25044.4
25070
25095.8
25121.6
25147.5
25173.5
25199.5
25225.6
25251.8
25278.1
25304.4
25330.7
25357.1
25383.6
25410
25436.6
25463.2
25489.8
25516.4
25543.1
25569.8
25596.6
25623.3
25650.1
25677
25703.8
25730.7
25757.6
25784.5
25811.5
25838.5
25865.5
25892.5
25919.6
25946.6
25973.7
26000.8
26027.9
26055.1
26082.3
26109.4
26136.6
26163.9
26191.1
26218.4
26245.6
26272.9
26300.2
26327.6
26354.9
26382.3
26409.7
26437
26464.4
26491.9
26519.3
26546.7
26574.2
26601.7
26629.2
26656.7
26684.2
26711.7
26739.2
26766.8
26794.3
26821.9
26849.5
26877.1
26904.7
26932.3
26959.9
26987.5
27015.1
27042.7
27070.4
27098
27125.6
27153.3
27180.9
27208.6
27236.2
27263.9
27291.5
27319.2
27346.8
27374.4
27402.1
27429.7
27457.3
27485
27512.6
27540.2
27567.8
27595.4
27623
27650.5
27678.1
27705.6
27733.2
27760.7
27788.2
27815.6
27843.1
27870.5
27897.9
27925.3
27952.7
27980
28007.3
28034.6
28061.9
28089.1
28116.3
28143.4
28170.6
28197.6
28224.7
28251.7
28278.6
28305.5
28332.4
28359.2
28385.9
28412.6
28439.2
28465.8
28492.3
28518.8
28545.2
28571.5
28597.7
28623.9
28650
28676
28701.9
28727.7
28753.5
28779.2
28804.7
28830.2
28855.6
28880.8
28906
28931
28955.9
28980.8
29005.4
29030
29054.4
29078.7
29102.9
29126.9
29150.8
29174.5
29198.1
29221.5
29244.7
29267.8
29290.8
29313.5
29336.1
29358.4
29380.6
29402.6
29424.4
29446.1
29467.5
29488.6
29509.6
29530.4
29550.9
29571.2
29591.3
29611.2
29630.8
29650.1
29669.2
29688.1
29706.7
29725.1
29743.1
29761
29778.5
29795.8
29812.8
29829.5
29845.9
29862.1
29877.9
29893.5
29908.8
29923.7
29938.4
29952.8
29966.9
29980.7
29994.1
30007.3
30020.2
30032.8
30045
30057
30068.6
30080
30091
30101.8
30112.2
30122.3
30132.2
30141.7
30151
30160
30168.7
30177.1
30185.2
30193
30200.6
30207.9
30215
30221.8
30228.3
30234.6
30240.6
30246.4
30251.9
30257.3
30262.4
30267.3
30271.9
30276.4
30280.6
30284.7
30288.6
30292.3
30295.8
30299.1
30302.3
30305.3
30308.1
30310.8
30313.4
30315.8
30318.1
30320.3
30322.3
30324.2
30326
30327.7
30329.3
30330.8
30332.2
30333.5
30334.8
30335.9
30337
30338
30339
30339.8
30340.7
30341.4
30342.1
30342.8
30343.4
30344
30344.5
30345
30345.4
30345.9
30346.2
30346.6
30346.9
30347.2
30347.5
30347.8
30348
30348.2
30348.4
30348.6
30348.7
30348.9
30349
30349.2
30349.3
30349.4
30349.5
30349.6
30349.6
30349.7
30349.8
30349.9
30349.9
30350
30350
30350
30350.1
30350.1
30350.1
30350.2
30350.2
30350.2
30350.2
30350.2
30350.2
30350.2
30350.2
30350.2
30350.3
30350.3
30350.3
30350.3
30350.3
30350.3
30350.3
30350.3
30350.3
30350.3
30350.3
30350.3
30350.3
30350.3
30350.3
30350.3
30350.3
30350.3
30350.3
30350.3
30350.3
30350.3
30350.4
30350.4
30350.4
30350.4
30350.4
30350.4
30350.4
30350.4
30350.4
30350.4
30350.4
30350.4
30350.4
30350.4
30350.4
30350.4
30350.4
30350.4
30350.4
30350.4
30350.5
30350.5
30350.5
30350.5
30350.5
30350.5
30350.5
30350.5
30350.5
30350.5
30350.5
30350.6
30350.6
30350.6
30350.7
30350.7
30350.8
30350.9
30351
30351.2
30351.4
30351.6
30351.8
30352.1
30352.4
30352.8
30353.3
30353.8
30354.3
30355
30355.7
30356.5
30357.5
30358.5
30359.6
30360.9
30362.4
30363.9
30365.7
30367.6
30369.7
30371.9
30374.4
30377.1
30380
30383.1
30386.4
30390
30393.8
30397.8
30402.1
30406.6
30411.3
30416.3
30421.4
30426.8
30432.3
30438
30443.9
30449.9
30456.1
30462.3
30468.6
30475
30481.4
30487.8
30494.2
30500.6
30506.9
30513.1
30519.2
30525.2
30531
30536.7
30542.2
30547.4
30552.5
30557.3
30561.9
30566.4
30570.5
30574.5
30578.2
30581.7
30584.9
30587.9
30590.7
30593.3
30595.8
30598
30600
30601.9
30603.6
30605.2
30606.7
30608
30609.3
30610.4
30611.5
30612.5
30613.4
30614.3
30615.1
30615.9
30616.6
30617.4
30618.1
30618.7
30619.4
30620.1
30620.7
30621.3
30621.9
30622.5
30623.1
30623.7
30624.2
30624.7
30625.2
30625.7
30626.2
30626.6
30627
30627.4
30627.7
30628.1
30628.4
30628.6
30628.9
30629.1
30629.3
30629.5
30629.6
30629.7
30629.8
30629.9
30630
30630
30630.1
30630.1
30630.1
30630.1
30630.1
30630.1
30630.1
30630.1
30630.1
30630.1
30630.1
30630.1
30630.1
30630.1
30630.1
30630.1
)
;

boundaryField
{
    sides
    {
        type            zeroGradient;
    }
    empty
    {
        type            empty;
    }
}


// ************************************************************************* //
