/*--------------------------------*- C++ -*----------------------------------*\
  =========                 |
  \\      /  F ield         | OpenFOAM: The Open Source CFD Toolbox
   \\    /   O peration     | Website:  https://openfoam.org
    \\  /    A nd           | Version:  9
     \\/     M anipulation  |
\*---------------------------------------------------------------------------*/
FoamFile
{
    format      ascii;
    class       volScalarField;
    location    "0.025";
    object      ddt0(rho,e);
}
// * * * * * * * * * * * * * * * * * * * * * * * * * * * * * * * * * * * * * //

dimensions      [1 -1 -3 0 0 0 0];

internalField   nonuniform List<scalar> 
1000
(
1.16078e+06
1.15878e+06
1.15447e+06
1.15399e+06
1.15478e+06
1.15085e+06
1.14256e+06
1.13482e+06
1.13211e+06
1.13576e+06
1.14408e+06
1.15393e+06
1.16235e+06
1.1675e+06
1.16916e+06
1.16973e+06
1.17216e+06
1.17994e+06
1.18539e+06
1.18483e+06
1.18459e+06
1.18439e+06
1.18426e+06
1.18421e+06
1.18421e+06
1.18425e+06
1.18432e+06
1.18439e+06
1.18447e+06
1.18456e+06
1.18466e+06
1.18475e+06
1.18484e+06
1.18492e+06
1.18502e+06
1.18511e+06
1.18521e+06
1.18531e+06
1.1854e+06
1.1855e+06
1.1856e+06
1.1857e+06
1.18579e+06
1.18589e+06
1.18599e+06
1.18609e+06
1.18619e+06
1.18628e+06
1.18637e+06
1.18646e+06
1.18655e+06
1.18664e+06
1.18673e+06
1.18682e+06
1.18691e+06
1.187e+06
1.18709e+06
1.18717e+06
1.18725e+06
1.18733e+06
1.18742e+06
1.1875e+06
1.18758e+06
1.18766e+06
1.18774e+06
1.18782e+06
1.1879e+06
1.18797e+06
1.18805e+06
1.18813e+06
1.18821e+06
1.18829e+06
1.18837e+06
1.18845e+06
1.18853e+06
1.1886e+06
1.18868e+06
1.18875e+06
1.18883e+06
1.1889e+06
1.18898e+06
1.18905e+06
1.18912e+06
1.18919e+06
1.18926e+06
1.18932e+06
1.18939e+06
1.18946e+06
1.18953e+06
1.1896e+06
1.18966e+06
1.18973e+06
1.1898e+06
1.18987e+06
1.18993e+06
1.19e+06
1.19006e+06
1.19013e+06
1.1902e+06
1.19026e+06
1.19033e+06
1.19037e+06
1.19046e+06
1.19046e+06
1.19063e+06
1.19049e+06
1.19089e+06
1.19038e+06
1.19134e+06
1.19005e+06
1.19199e+06
1.18957e+06
1.19262e+06
1.18952e+06
1.19227e+06
1.19091e+06
1.19063e+06
1.1917e+06
1.19156e+06
1.19124e+06
1.19116e+06
1.19226e+06
1.19017e+06
1.19396e+06
1.18824e+06
1.19583e+06
1.18768e+06
1.19446e+06
1.19185e+06
1.18852e+06
1.19791e+06
1.18566e+06
1.19555e+06
1.19364e+06
1.18557e+06
1.20036e+06
1.18728e+06
1.1902e+06
1.20056e+06
1.18303e+06
1.19581e+06
1.19789e+06
1.18156e+06
1.20032e+06
1.19434e+06
1.18205e+06
1.20318e+06
1.1909e+06
1.18387e+06
1.20436e+06
1.18827e+06
1.18608e+06
1.20452e+06
1.18658e+06
1.1878e+06
1.20452e+06
1.18559e+06
1.18875e+06
1.2048e+06
1.18503e+06
1.18866e+06
1.20572e+06
1.18518e+06
1.18702e+06
1.20711e+06
1.18684e+06
1.18357e+06
1.20798e+06
1.19114e+06
1.17898e+06
1.20622e+06
1.19834e+06
1.17602e+06
1.19999e+06
1.20599e+06
1.17795e+06
1.19072e+06
1.20981e+06
1.18496e+06
1.18281e+06
1.2082e+06
1.19339e+06
1.17828e+06
1.20359e+06
1.20223e+06
1.17611e+06
1.19403e+06
1.21202e+06
1.18238e+06
1.17821e+06
1.21188e+06
1.20094e+06
1.1712e+06
1.19426e+06
1.21411e+06
1.18421e+06
1.17751e+06
1.20815e+06
1.20092e+06
1.17498e+06
1.19456e+06
1.21211e+06
1.18277e+06
1.17531e+06
1.21091e+06
1.20804e+06
1.17018e+06
1.18198e+06
1.2179e+06
1.199e+06
1.16852e+06
1.19283e+06
1.21489e+06
1.18613e+06
1.17352e+06
1.20649e+06
1.20987e+06
1.17274e+06
1.17656e+06
1.2167e+06
1.20841e+06
1.16673e+06
1.17741e+06
1.21788e+06
1.20489e+06
1.168e+06
1.18421e+06
1.21687e+06
1.19527e+06
1.16496e+06
1.19234e+06
1.22315e+06
1.19192e+06
1.15798e+06
1.1894e+06
1.22523e+06
1.19655e+06
1.16121e+06
1.18735e+06
1.21997e+06
1.19322e+06
1.16139e+06
1.19046e+06
1.22546e+06
1.19572e+06
1.15491e+06
1.18034e+06
1.22486e+06
1.20577e+06
1.16143e+06
1.17569e+06
1.21861e+06
1.2058e+06
1.16076e+06
1.1702e+06
1.21987e+06
1.21887e+06
1.16714e+06
1.1562e+06
1.20356e+06
1.22311e+06
1.18216e+06
1.1575e+06
1.19425e+06
1.22508e+06
1.19174e+06
1.15096e+06
1.17416e+06
1.22245e+06
1.21419e+06
1.16555e+06
1.1599e+06
1.2044e+06
1.21984e+06
1.1785e+06
1.15135e+06
1.18639e+06
1.22664e+06
1.20545e+06
1.15729e+06
1.15984e+06
1.2065e+06
1.21931e+06
1.17796e+06
1.15148e+06
1.18398e+06
1.2232e+06
1.20559e+06
1.15855e+06
1.15563e+06
1.19954e+06
1.2199e+06
1.18591e+06
1.15294e+06
1.17341e+06
1.21452e+06
1.21108e+06
1.16772e+06
1.15072e+06
1.18513e+06
1.21732e+06
1.19855e+06
1.15884e+06
1.15948e+06
1.19918e+06
1.21715e+06
1.18558e+06
1.15118e+06
1.16436e+06
1.20437e+06
1.21168e+06
1.17614e+06
1.15075e+06
1.17268e+06
1.20923e+06
1.20677e+06
1.16898e+06
1.15042e+06
1.17687e+06
1.20916e+06
1.20053e+06
1.16348e+06
1.15067e+06
1.17999e+06
1.20965e+06
1.19787e+06
1.16129e+06
1.15094e+06
1.1801e+06
1.20685e+06
1.1933e+06
1.15795e+06
1.14875e+06
1.17725e+06
1.20373e+06
1.19191e+06
1.15789e+06
1.14773e+06
1.17487e+06
1.20236e+06
1.19328e+06
1.16018e+06
1.14734e+06
1.17129e+06
1.1996e+06
1.19449e+06
1.16265e+06
1.14569e+06
1.16503e+06
1.19449e+06
1.19545e+06
1.16671e+06
1.14523e+06
1.15798e+06
1.1879e+06
1.19623e+06
1.17194e+06
1.14556e+06
1.15021e+06
1.17906e+06
1.19458e+06
1.17706e+06
1.14864e+06
1.144e+06
1.16792e+06
1.19046e+06
1.18335e+06
1.15473e+06
1.13974e+06
1.15652e+06
1.18336e+06
1.18665e+06
1.16249e+06
1.13996e+06
1.14542e+06
1.17122e+06
1.18579e+06
1.17097e+06
1.14436e+06
1.13686e+06
1.15658e+06
1.17899e+06
1.17735e+06
1.15286e+06
1.13362e+06
1.14188e+06
1.16652e+06
1.17837e+06
1.1626e+06
1.13741e+06
1.13095e+06
1.14977e+06
1.17174e+06
1.16996e+06
1.1459e+06
1.12747e+06
1.13421e+06
1.15675e+06
1.16889e+06
1.15643e+06
1.13364e+06
1.12323e+06
1.13618e+06
1.15933e+06
1.1639e+06
1.14255e+06
1.12036e+06
1.12187e+06
1.14181e+06
1.15654e+06
1.15122e+06
1.13049e+06
1.11427e+06
1.119e+06
1.14142e+06
1.15164e+06
1.13479e+06
1.12396e+06
1.11372e+06
1.11839e+06
1.12769e+06
1.13109e+06
1.13389e+06
1.12833e+06
1.11449e+06
1.10927e+06
1.11407e+06
1.1217e+06
1.12489e+06
1.11805e+06
1.10496e+06
1.10105e+06
1.10662e+06
1.11314e+06
1.11472e+06
1.10781e+06
1.0961e+06
1.09212e+06
1.09841e+06
1.10525e+06
1.10711e+06
1.09813e+06
1.08331e+06
1.08043e+06
1.09058e+06
1.09602e+06
1.09299e+06
1.08584e+06
1.07405e+06
1.07077e+06
1.08103e+06
1.08762e+06
1.08403e+06
1.07359e+06
1.06138e+06
1.0597e+06
1.07016e+06
1.07803e+06
1.07377e+06
1.05827e+06
1.04615e+06
1.05277e+06
1.06641e+06
1.0685e+06
1.05859e+06
1.04489e+06
1.03938e+06
1.0481e+06
1.05848e+06
1.05634e+06
1.0436e+06
1.03187e+06
1.03195e+06
1.0431e+06
1.0515e+06
1.046e+06
1.03283e+06
1.02516e+06
1.02871e+06
1.03863e+06
1.04441e+06
1.03947e+06
1.02562e+06
1.01591e+06
1.02174e+06
1.03573e+06
1.04161e+06
1.03307e+06
1.0187e+06
1.01225e+06
1.02005e+06
1.03393e+06
1.03815e+06
1.02825e+06
1.01432e+06
1.00999e+06
1.01791e+06
1.03039e+06
1.03534e+06
1.02658e+06
1.01234e+06
1.00745e+06
1.01709e+06
1.03074e+06
1.03446e+06
1.02406e+06
1.01012e+06
1.00652e+06
1.01725e+06
1.03083e+06
1.03265e+06
1.02097e+06
1.00775e+06
1.00659e+06
1.018e+06
1.03063e+06
1.03099e+06
1.01922e+06
1.00721e+06
1.0072e+06
1.01863e+06
1.02887e+06
1.02786e+06
1.0168e+06
1.00742e+06
1.00849e+06
1.01855e+06
1.02686e+06
1.02543e+06
1.01617e+06
1.00833e+06
1.00896e+06
1.01714e+06
1.02416e+06
1.02334e+06
1.01611e+06
1.00938e+06
1.00942e+06
1.01522e+06
1.02091e+06
1.02148e+06
1.01675e+06
1.01087e+06
1.00907e+06
1.01185e+06
1.01621e+06
1.0185e+06
1.01656e+06
1.01233e+06
1.00893e+06
1.00863e+06
1.01119e+06
1.014e+06
1.0147e+06
1.01237e+06
1.0089e+06
1.00644e+06
1.00655e+06
1.00826e+06
1.00955e+06
1.00912e+06
1.00684e+06
1.00448e+06
1.00313e+06
1.00285e+06
1.00289e+06
1.00253e+06
1.00139e+06
999745
998132
996741
995702
994685
993150
991320
989141
987023
985199
983595
981547
978780
975626
972433
969513
966268
962675
958686
954309
949578
944423
939027
933253
927086
920586
913647
905937
897604
888585
878797
868633
857991
846727
834866
822465
809306
795258
780432
764962
748776
731873
714175
695965
677323
657893
638064
617535
596659
575668
554039
532148
510072
487759
465444
443278
421006
398851
377107
355317
334050
313477
293207
273627
254506
236142
218502
201592
185438
169951
155542
141991
129279
117170
105930
95713.3
86240.6
77192.7
68876.2
61344.5
54333.4
48121
42361.4
37254.6
32708.7
28373.7
24648.1
21363
18439.5
15787.2
13542.3
11515.5
9806.09
8298.97
6820.29
5642.65
4616.58
3854.95
3026.64
2293.73
1645
1107.82
641.801
360.758
140.558
-67.3925
-63.6878
34.6393
-236.098
-65.7511
-186.29
-95.9805
-78.4895
-1340.34
-2662.42
-2730.2
-7.32878
-1207.15
-1250.89
-2822.58
-1922.68
-1132.88
-846.158
-450.699
-1611.81
-2780.53
-1056.07
-1737.67
-440.928
-735.907
-2297.07
-2393.29
-2458.65
-3111.81
-686.904
-1265.19
-517.86
286.277
-1571.3
-4127.56
866.427
-731.295
-455.302
-3199.77
-2342.9
-350.864
-431.193
-1104.45
-4765.78
-308.841
-237.35
-278.393
-2872.08
-3697.5
458.812
-674.146
-451.143
-3411.86
-3118.32
-2818.07
-813.507
-1308.87
-1258.67
-4396.24
-2930.64
-1673.9
-1539.13
359.775
-830.91
-3448.51
-2864.96
-540.533
-1377.48
-318.71
-535.675
-2137.5
-3495.13
-1928.05
-2271.08
-673.85
-1371.13
-2888.86
-2944.2
-1003.95
-1061.47
-961.095
-2270.79
-3200.06
-119.213
-2325.66
-1926.68
-2812.57
-3370.72
-20.2979
-1817.42
-2342.05
-2656.7
-2136.99
-1725.36
-847.372
-2734.36
-2298.42
-2998.36
-1102.09
-1155.55
-2132.41
-3642.02
-2531.45
-2842.81
-284
-2822.13
-1676.55
-1801.16
-2099.59
-2583.75
-360.876
-1669
-1360.56
-2995.52
-3804.23
-2096.22
-1223.63
-1572.99
-3157.59
-1506.25
-2904.87
-1855.63
-2307.82
-3035.2
-609.713
-2980.84
-1657.92
-2404.99
-4509.93
248.381
-2593.06
-1597.71
-2969.15
-5078.94
-1448.37
-39.7223
-682.549
-2729.65
-9127.19
610.782
-3600.23
-885.334
-475.004
519.57
-9589.66
-15056.2
2233.94
728.839
2211.2
1084.15
397.148
-17366.9
-20084.3
6116.96
7070.76
6706.71
7579.21
-23819.2
-33530.6
13646.7
13987.8
6371.98
-48111.7
-13859.2
9118.27
30786.8
5472.03
-79029.2
3647.66
27561
22934.1
10044.2
-103976
-24270.3
11823.9
53167.6
40917.7
39077.7
-43552.1
-211520
65882.1
42732.2
65008.3
52600.7
-7950.69
-261330
38188.2
84482.7
84242
-84031.7
-259788
143050
79510
105568
-47642.9
-456006
136165
153621
174960
79676
-319217
-339821
157266
279223
152545
-39566.8
-707506
200716
242672
163987
-493200
181608
300627
-40443.2
-733654
410061
246138
-200626
-661347
442425
376486
-375168
-445593
368552
567974
-619372
-502400
541116
289506
-483478
-491573
574691
333334
-458410
-477479
413091
427004
-378061
-589389
387301
499331
-309392
-717565
569956
337465
-113492
-762971
471947
283025
-17870.8
-775772
417307
345630
-4246.9
-766776
371193
289727
64710.7
-646732
244811
260796
103960
-625215
151124
296198
132650
-371257
-153279
172005
207885
-370223
-88007.8
93199
385421
-278184
-467312
349972
246474
7936.58
-343377
-120913
135281
368777
-256571
-335306
244386
348676
-446500
-362171
226445
235746
44519.4
-211355
-50035.4
172756
126042
-110681
-110921
-66665.9
153967
190188
-197470
-259641
128165
181581
28566.4
-201583
-19216.9
219460
12662.4
-182261
-117916
101197
108424
-40374.8
-59112.8
32128.6
30919.3
-49497.9
-60932.6
21552
-8561.13
-3662.31
-39935.6
11292.1
-10023.4
335.996
)
;

boundaryField
{
    sides
    {
        type            calculated;
        value           nonuniform List<scalar> 2(335.996 1.16078e+06);
    }
    empty
    {
        type            empty;
    }
}


// ************************************************************************* //
