/*--------------------------------*- C++ -*----------------------------------*\
  =========                 |
  \\      /  F ield         | OpenFOAM: The Open Source CFD Toolbox
   \\    /   O peration     | Website:  https://openfoam.org
    \\  /    A nd           | Version:  9
     \\/     M anipulation  |
\*---------------------------------------------------------------------------*/
FoamFile
{
    format      ascii;
    class       volVectorField;
    location    "0.025";
    object      ddt0(rho,U);
}
// * * * * * * * * * * * * * * * * * * * * * * * * * * * * * * * * * * * * * //

dimensions      [1 -2 -2 0 0 0 0];

internalField   nonuniform List<vector> 
1000
(
(32.9479 0 0)
(-0.217375 0 0)
(-22.4571 0 0)
(-42.3814 0 0)
(-63.2611 0 0)
(-84.6745 0 0)
(-106.127 0 0)
(-127.663 0 0)
(-149.406 0 0)
(-171.349 0 0)
(-193.448 0 0)
(-215.567 0 0)
(-237.579 0 0)
(-259.431 0 0)
(-281.112 0 0)
(-302.745 0 0)
(-324.478 0 0)
(-346.924 0 0)
(-368.879 0 0)
(-390.015 0 0)
(-411.675 0 0)
(-433.357 0 0)
(-454.981 0 0)
(-476.618 0 0)
(-498.222 0 0)
(-519.855 0 0)
(-541.504 0 0)
(-563.094 0 0)
(-584.692 0 0)
(-606.35 0 0)
(-628.005 0 0)
(-649.619 0 0)
(-671.194 0 0)
(-692.743 0 0)
(-714.298 0 0)
(-735.874 0 0)
(-757.438 0 0)
(-778.979 0 0)
(-800.519 0 0)
(-822.062 0 0)
(-843.591 0 0)
(-865.109 0 0)
(-886.629 0 0)
(-908.157 0 0)
(-929.689 0 0)
(-951.212 0 0)
(-972.716 0 0)
(-994.202 0 0)
(-1015.69 0 0)
(-1037.19 0 0)
(-1058.7 0 0)
(-1080.22 0 0)
(-1101.74 0 0)
(-1123.26 0 0)
(-1144.79 0 0)
(-1166.3 0 0)
(-1187.81 0 0)
(-1209.31 0 0)
(-1230.8 0 0)
(-1252.3 0 0)
(-1273.8 0 0)
(-1295.3 0 0)
(-1316.8 0 0)
(-1338.28 0 0)
(-1359.75 0 0)
(-1381.22 0 0)
(-1402.68 0 0)
(-1424.13 0 0)
(-1445.59 0 0)
(-1467.06 0 0)
(-1488.53 0 0)
(-1510 0 0)
(-1531.47 0 0)
(-1552.93 0 0)
(-1574.38 0 0)
(-1595.83 0 0)
(-1617.27 0 0)
(-1638.71 0 0)
(-1660.14 0 0)
(-1681.57 0 0)
(-1703 0 0)
(-1724.41 0 0)
(-1745.82 0 0)
(-1767.22 0 0)
(-1788.62 0 0)
(-1810.02 0 0)
(-1831.41 0 0)
(-1852.81 0 0)
(-1874.2 0 0)
(-1895.59 0 0)
(-1916.98 0 0)
(-1938.37 0 0)
(-1959.75 0 0)
(-1981.13 0 0)
(-2002.51 0 0)
(-2023.89 0 0)
(-2045.26 0 0)
(-2066.63 0 0)
(-2088 0 0)
(-2109.35 0 0)
(-2130.71 0 0)
(-2152.05 0 0)
(-2173.39 0 0)
(-2194.7 0 0)
(-2216.05 0 0)
(-2237.33 0 0)
(-2258.73 0 0)
(-2279.9 0 0)
(-2301.42 0 0)
(-2322.44 0 0)
(-2344.21 0 0)
(-2364.92 0 0)
(-2386.88 0 0)
(-2407.44 0 0)
(-2429.45 0 0)
(-2450.42 0 0)
(-2471.5 0 0)
(-2493.03 0 0)
(-2514.34 0 0)
(-2535.65 0 0)
(-2556.8 0 0)
(-2578.27 0 0)
(-2599.01 0 0)
(-2621.25 0 0)
(-2640.97 0 0)
(-2664.18 0 0)
(-2683.26 0 0)
(-2706.29 0 0)
(-2726.82 0 0)
(-2747.18 0 0)
(-2770.94 0 0)
(-2788.81 0 0)
(-2812.74 0 0)
(-2833.38 0 0)
(-2852.36 0 0)
(-2877.67 0 0)
(-2895.14 0 0)
(-2917.18 0 0)
(-2941.28 0 0)
(-2957.44 0 0)
(-2982.33 0 0)
(-3004.06 0 0)
(-3020.53 0 0)
(-3047.21 0 0)
(-3066.52 0 0)
(-3084.05 0 0)
(-3111.58 0 0)
(-3128.86 0 0)
(-3147.91 0 0)
(-3175.35 0 0)
(-3191.47 0 0)
(-3211.96 0 0)
(-3238.77 0 0)
(-3254.22 0 0)
(-3275.79 0 0)
(-3302.15 0 0)
(-3317.22 0 0)
(-3339.35 0 0)
(-3365.49 0 0)
(-3380.16 0 0)
(-3402.48 0 0)
(-3429.04 0 0)
(-3443.34 0 0)
(-3465.04 0 0)
(-3492.67 0 0)
(-3506.93 0 0)
(-3526.96 0 0)
(-3556.15 0 0)
(-3571.39 0 0)
(-3588.34 0 0)
(-3618.62 0 0)
(-3636.81 0 0)
(-3650.16 0 0)
(-3679.47 0 0)
(-3702.4 0 0)
(-3713.57 0 0)
(-3739.09 0 0)
(-3766.7 0 0)
(-3778.77 0 0)
(-3799.03 0 0)
(-3829.02 0 0)
(-3844.51 0 0)
(-3860.02 0 0)
(-3890.14 0 0)
(-3910.43 0 0)
(-3921.74 0 0)
(-3949.3 0 0)
(-3976.75 0 0)
(-3986.52 0 0)
(-4005.92 0 0)
(-4039.4 0 0)
(-4055.98 0 0)
(-4065.58 0 0)
(-4095.26 0 0)
(-4123.57 0 0)
(-4132.82 0 0)
(-4151.12 0 0)
(-4183.79 0 0)
(-4201.63 0 0)
(-4212.27 0 0)
(-4240.81 0 0)
(-4268.42 0 0)
(-4277.45 0 0)
(-4295.3 0 0)
(-4330.3 0 0)
(-4349.74 0 0)
(-4355.16 0 0)
(-4380.75 0 0)
(-4416.02 0 0)
(-4428.85 0 0)
(-4437.05 0 0)
(-4467.83 0 0)
(-4497.54 0 0)
(-4506.14 0 0)
(-4521.59 0 0)
(-4556.1 0 0)
(-4578.04 0 0)
(-4582.9 0 0)
(-4605.23 0 0)
(-4642.96 0 0)
(-4659.86 0 0)
(-4662.5 0 0)
(-4687.78 0 0)
(-4725.87 0 0)
(-4740.64 0 0)
(-4745.06 0 0)
(-4772.8 0 0)
(-4807.68 0 0)
(-4818.52 0 0)
(-4825.58 0 0)
(-4858.38 0 0)
(-4892.61 0 0)
(-4898.93 0 0)
(-4904.1 0 0)
(-4938.89 0 0)
(-4975.59 0 0)
(-4982.81 0 0)
(-4987.06 0 0)
(-5019.6 0 0)
(-5055.04 0 0)
(-5062.91 0 0)
(-5068.5 0 0)
(-5102.56 0 0)
(-5139.32 0 0)
(-5145.55 0 0)
(-5146.6 0 0)
(-5179.11 0 0)
(-5220.63 0 0)
(-5231.71 0 0)
(-5230.71 0 0)
(-5257.98 0 0)
(-5299.02 0 0)
(-5312.97 0 0)
(-5311.26 0 0)
(-5336.23 0 0)
(-5380.89 0 0)
(-5400.53 0 0)
(-5395.12 0 0)
(-5409.97 0 0)
(-5453.81 0 0)
(-5483.71 0 0)
(-5483.27 0 0)
(-5491.07 0 0)
(-5529.88 0 0)
(-5565.62 0 0)
(-5568.7 0 0)
(-5568 0 0)
(-5600.08 0 0)
(-5645.04 0 0)
(-5660.79 0 0)
(-5655.65 0 0)
(-5672.84 0 0)
(-5716.15 0 0)
(-5744.22 0 0)
(-5742.48 0 0)
(-5748.23 0 0)
(-5786.83 0 0)
(-5828.19 0 0)
(-5836.83 0 0)
(-5831.07 0 0)
(-5852.45 0 0)
(-5897.53 0 0)
(-5924.35 0 0)
(-5921.84 0 0)
(-5927.4 0 0)
(-5965.09 0 0)
(-6006.43 0 0)
(-6016.61 0 0)
(-6010.57 0 0)
(-6028.86 0 0)
(-6073.07 0 0)
(-6104.21 0 0)
(-6105.04 0 0)
(-6106.42 0 0)
(-6137.76 0 0)
(-6180.73 0 0)
(-6198.53 0 0)
(-6193.7 0 0)
(-6203.81 0 0)
(-6243.22 0 0)
(-6281.38 0 0)
(-6290.3 0 0)
(-6287.14 0 0)
(-6307.25 0 0)
(-6349.97 0 0)
(-6380.09 0 0)
(-6381.31 0 0)
(-6380.85 0 0)
(-6408.25 0 0)
(-6451.44 0 0)
(-6475.36 0 0)
(-6473.91 0 0)
(-6478.42 0 0)
(-6511.1 0 0)
(-6552.52 0 0)
(-6570.59 0 0)
(-6567.41 0 0)
(-6575.76 0 0)
(-6611.3 0 0)
(-6650.4 0 0)
(-6664.64 0 0)
(-6661.51 0 0)
(-6673.15 0 0)
(-6710.62 0 0)
(-6748.34 0 0)
(-6760.5 0 0)
(-6757.27 0 0)
(-6770.26 0 0)
(-6807.84 0 0)
(-6843.94 0 0)
(-6854.83 0 0)
(-6851.97 0 0)
(-6865.52 0 0)
(-6902.88 0 0)
(-6939 0 0)
(-6950.8 0 0)
(-6948.42 0 0)
(-6961.22 0 0)
(-6997.9 0 0)
(-7034.85 0 0)
(-7048.26 0 0)
(-7046.12 0 0)
(-7057.03 0 0)
(-7091.83 0 0)
(-7129.5 0 0)
(-7145.38 0 0)
(-7143.7 0 0)
(-7151.74 0 0)
(-7183.65 0 0)
(-7222.28 0 0)
(-7242.08 0 0)
(-7242.13 0 0)
(-7246.94 0 0)
(-7274.57 0 0)
(-7313.71 0 0)
(-7338.41 0 0)
(-7341.16 0 0)
(-7342.41 0 0)
(-7364.62 0 0)
(-7403.25 0 0)
(-7432.86 0 0)
(-7439.96 0 0)
(-7439.54 0 0)
(-7455.37 0 0)
(-7490.81 0 0)
(-7525.35 0 0)
(-7539.44 0 0)
(-7538.61 0 0)
(-7547.16 0 0)
(-7577.79 0 0)
(-7615.5 0 0)
(-7636.77 0 0)
(-7638.77 0 0)
(-7641.85 0 0)
(-7664.61 0 0)
(-7701.77 0 0)
(-7731.02 0 0)
(-7739.41 0 0)
(-7739.36 0 0)
(-7752.89 0 0)
(-7785.88 0 0)
(-7820.85 0 0)
(-7838.57 0 0)
(-7839.79 0 0)
(-7844.74 0 0)
(-7869.57 0 0)
(-7906.32 0 0)
(-7933.83 0 0)
(-7941.19 0 0)
(-7941.62 0 0)
(-7955.71 0 0)
(-7988.38 0 0)
(-8023.42 0 0)
(-8040.98 0 0)
(-8042.03 0 0)
(-8047.2 0 0)
(-8071.04 0 0)
(-8106.69 0 0)
(-8134.64 0 0)
(-8144.19 0 0)
(-8145.95 0 0)
(-8156.98 0 0)
(-8185.6 0 0)
(-8221.98 0 0)
(-8244.36 0 0)
(-8247.07 0 0)
(-8249.11 0 0)
(-8269.17 0 0)
(-8303.33 0 0)
(-8333.59 0 0)
(-8348.52 0 0)
(-8351.67 0 0)
(-8358.07 0 0)
(-8380.54 0 0)
(-8418.32 0 0)
(-8444.59 0 0)
(-8450.53 0 0)
(-8462.58 0 0)
(-8471.8 0 0)
(-8490.9 0 0)
(-8514.36 0 0)
(-8533.43 0 0)
(-8558.05 0 0)
(-8591.57 0 0)
(-8589.28 0 0)
(-8599.72 0 0)
(-8627.94 0 0)
(-8649.3 0 0)
(-8668.19 0 0)
(-8683.69 0 0)
(-8692.49 0 0)
(-8706.78 0 0)
(-8729.85 0 0)
(-8756.19 0 0)
(-8779.73 0 0)
(-8795.3 0 0)
(-8804.9 0 0)
(-8819.58 0 0)
(-8843 0 0)
(-8867.96 0 0)
(-8889.45 0 0)
(-8901.76 0 0)
(-8908.55 0 0)
(-8924.69 0 0)
(-8951.75 0 0)
(-8975.64 0 0)
(-8993.2 0 0)
(-9007.61 0 0)
(-9018.07 0 0)
(-9035.25 0 0)
(-9063.32 0 0)
(-9088.09 0 0)
(-9104.19 0 0)
(-9114.5 0 0)
(-9123.39 0 0)
(-9141.25 0 0)
(-9169.49 0 0)
(-9195.74 0 0)
(-9211.87 0 0)
(-9218.52 0 0)
(-9227.95 0 0)
(-9253.16 0 0)
(-9284.31 0 0)
(-9305.67 0 0)
(-9316.65 0 0)
(-9324.03 0 0)
(-9337.95 0 0)
(-9363.64 0 0)
(-9390.64 0 0)
(-9407.1 0 0)
(-9414.77 0 0)
(-9423.57 0 0)
(-9442.69 0 0)
(-9471.42 0 0)
(-9497.84 0 0)
(-9512.24 0 0)
(-9519.82 0 0)
(-9531.81 0 0)
(-9553.14 0 0)
(-9579.77 0 0)
(-9602.72 0 0)
(-9616.4 0 0)
(-9622.41 0 0)
(-9632.01 0 0)
(-9655.08 0 0)
(-9685.26 0 0)
(-9708.44 0 0)
(-9719.07 0 0)
(-9724.47 0 0)
(-9736.53 0 0)
(-9760.73 0 0)
(-9790.05 0 0)
(-9810.8 0 0)
(-9819.18 0 0)
(-9824.01 0 0)
(-9837.28 0 0)
(-9861.35 0 0)
(-9889.55 0 0)
(-9911.28 0 0)
(-9921.04 0 0)
(-9925.98 0 0)
(-9939.05 0 0)
(-9964.79 0 0)
(-9993.95 0 0)
(-10014.3 0 0)
(-10022.1 0 0)
(-10026.7 0 0)
(-10040.4 0 0)
(-10066.9 0 0)
(-10095.9 0 0)
(-10114.6 0 0)
(-10121.4 0 0)
(-10126.9 0 0)
(-10142.9 0 0)
(-10170.1 0 0)
(-10198.2 0 0)
(-10215.4 0 0)
(-10221.5 0 0)
(-10227.4 0 0)
(-10243.9 0 0)
(-10270.7 0 0)
(-10296.4 0 0)
(-10312.2 0 0)
(-10319.1 0 0)
(-10327.5 0 0)
(-10345.3 0 0)
(-10371.2 0 0)
(-10395.5 0 0)
(-10411 0 0)
(-10419.3 0 0)
(-10428.9 0 0)
(-10446.1 0 0)
(-10470 0 0)
(-10492.9 0 0)
(-10508.7 0 0)
(-10518.7 0 0)
(-10529.1 0 0)
(-10545.5 0 0)
(-10567.1 0 0)
(-10588.6 0 0)
(-10605.2 0 0)
(-10616.9 0 0)
(-10627.4 0 0)
(-10641.5 0 0)
(-10659.7 0 0)
(-10679.3 0 0)
(-10696.9 0 0)
(-10710.5 0 0)
(-10722 0 0)
(-10734.1 0 0)
(-10749 0 0)
(-10766.3 0 0)
(-10783.7 0 0)
(-10798.9 0 0)
(-10811.2 0 0)
(-10822.1 0 0)
(-10833.8 0 0)
(-10847.5 0 0)
(-10862.5 0 0)
(-10876.7 0 0)
(-10889.1 0 0)
(-10899.3 0 0)
(-10909 0 0)
(-10919.2 0 0)
(-10929.9 0 0)
(-10940.3 0 0)
(-10949.8 0 0)
(-10958 0 0)
(-10965 0 0)
(-10971.3 0 0)
(-10977 0 0)
(-10982.2 0 0)
(-10986.3 0 0)
(-10988.9 0 0)
(-10990.1 0 0)
(-10989.6 0 0)
(-10987.7 0 0)
(-10984.4 0 0)
(-10979.7 0 0)
(-10972.6 0 0)
(-10962.8 0 0)
(-10950.3 0 0)
(-10935.3 0 0)
(-10917.9 0 0)
(-10897.2 0 0)
(-10873.1 0 0)
(-10845.1 0 0)
(-10813.1 0 0)
(-10776.7 0 0)
(-10735.7 0 0)
(-10689.9 0 0)
(-10638.8 0 0)
(-10582.2 0 0)
(-10519.8 0 0)
(-10451.2 0 0)
(-10375.7 0 0)
(-10293.2 0 0)
(-10203.3 0 0)
(-10105.7 0 0)
(-10000.4 0 0)
(-9887.2 0 0)
(-9765.67 0 0)
(-9635.65 0 0)
(-9497.03 0 0)
(-9349.47 0 0)
(-9192.79 0 0)
(-9027.05 0 0)
(-8852.4 0 0)
(-8668.84 0 0)
(-8476.51 0 0)
(-8275.53 0 0)
(-8066.43 0 0)
(-7849.6 0 0)
(-7625.11 0 0)
(-7393.78 0 0)
(-7155.84 0 0)
(-6912.22 0 0)
(-6663.78 0 0)
(-6410.72 0 0)
(-6154.15 0 0)
(-5894.93 0 0)
(-5633.83 0 0)
(-5371.94 0 0)
(-5110.27 0 0)
(-4849.44 0 0)
(-4590.54 0 0)
(-4334.7 0 0)
(-4082.34 0 0)
(-3834.79 0 0)
(-3592.99 0 0)
(-3357.26 0 0)
(-3128.63 0 0)
(-2907.46 0 0)
(-2694.54 0 0)
(-2490.29 0 0)
(-2295.05 0 0)
(-2109.13 0 0)
(-1932.64 0 0)
(-1766.11 0 0)
(-1609.38 0 0)
(-1462.41 0 0)
(-1324.87 0 0)
(-1196.88 0 0)
(-1078.39 0 0)
(-968.879 0 0)
(-867.733 0 0)
(-774.925 0 0)
(-690.151 0 0)
(-612.777 0 0)
(-542.689 0 0)
(-479.143 0 0)
(-421.947 0 0)
(-370.593 0 0)
(-324.329 0 0)
(-283.181 0 0)
(-246.622 0 0)
(-214.239 0 0)
(-185.532 0 0)
(-160.331 0 0)
(-138.105 0 0)
(-118.619 0 0)
(-101.621 0 0)
(-86.7165 0 0)
(-73.9719 0 0)
(-62.8136 0 0)
(-53.1674 0 0)
(-44.3861 0 0)
(-36.6311 0 0)
(-29.8489 0 0)
(-24.1582 0 0)
(-19.5412 0 0)
(-16.3242 0 0)
(-14.5645 0 0)
(-13.3789 0 0)
(-12.973 0 0)
(-12.5578 0 0)
(-11.3832 0 0)
(-12.3345 0 0)
(-11.1524 0 0)
(-10.6837 0 0)
(-6.88294 0 0)
(5.27437 0 0)
(12.8302 0 0)
(11.01 0 0)
(-0.618445 0 0)
(-10.8423 0 0)
(-0.406155 0 0)
(13.1913 0 0)
(10.4185 0 0)
(-3.73215 0 0)
(-12.5421 0 0)
(-6.52314 0 0)
(6.84685 0 0)
(13.6588 0 0)
(6.8769 0 0)
(-9.06886 0 0)
(-11.3065 0 0)
(-3.57026 0 0)
(12.2 0 0)
(15.6906 0 0)
(14.4923 0 0)
(11.6314 0 0)
(1.77935 0 0)
(-12.2224 0 0)
(-12.4869 0 0)
(-11.4078 0 0)
(3.33752 0 0)
(17.343 0 0)
(1.11214 0 0)
(-20.754 0 0)
(-8.42023 0 0)
(17.4111 0 0)
(17.2845 0 0)
(-7.18915 0 0)
(-19.8184 0 0)
(-2.21997 0 0)
(25.7918 0 0)
(10.1881 0 0)
(-23.2531 0 0)
(-15.5161 0 0)
(13.3669 0 0)
(21.8598 0 0)
(-5.11998 0 0)
(-20.4342 0 0)
(-7.55275 0 0)
(20.1379 0 0)
(22.5559 0 0)
(15.2127 0 0)
(-0.581032 0 0)
(-14.5567 0 0)
(-1.33518 0 0)
(21.2093 0 0)
(19.4079 0 0)
(10.6147 0 0)
(-16.079 0 0)
(-17.1564 0 0)
(-1.6116 0 0)
(17.5511 0 0)
(14.7682 0 0)
(-2.85419 0 0)
(-14.9017 0 0)
(-14.1833 0 0)
(-6.79502 0 0)
(10.6514 0 0)
(17.8216 0 0)
(10.6692 0 0)
(-11.029 0 0)
(-9.23661 0 0)
(2.85225 0 0)
(11.6329 0 0)
(9.62891 0 0)
(-1.82639 0 0)
(-10.2816 0 0)
(-5.9466 0 0)
(9.28272 0 0)
(13.9103 0 0)
(1.78678 0 0)
(-7.2196 0 0)
(-3.02388 0 0)
(11.7185 0 0)
(14.4896 0 0)
(0.576387 0 0)
(-8.76544 0 0)
(0.497231 0 0)
(12.4206 0 0)
(9.73218 0 0)
(-6.57169 0 0)
(-7.89434 0 0)
(11.6843 0 0)
(13.9773 0 0)
(9.76884 0 0)
(-4.1776 0 0)
(-10.6211 0 0)
(3.01914 0 0)
(13.4039 0 0)
(13.3246 0 0)
(12.1992 0 0)
(1.36457 0 0)
(-7.88065 0 0)
(-6.50338 0 0)
(-0.37089 0 0)
(8.87882 0 0)
(9.97922 0 0)
(-3.10354 0 0)
(-11.2591 0 0)
(-3.5157 0 0)
(8.12344 0 0)
(12.2418 0 0)
(-3.11791 0 0)
(-12.0952 0 0)
(-3.55948 0 0)
(13.2902 0 0)
(12.043 0 0)
(-11.1367 0 0)
(-7.70732 0 0)
(2.50753 0 0)
(14.3174 0 0)
(5.33023 0 0)
(-13.9854 0 0)
(-8.38736 0 0)
(6.31525 0 0)
(24.9805 0 0)
(7.0878 0 0)
(-23.3523 0 0)
(-7.80569 0 0)
(15.7999 0 0)
(38.8447 0 0)
(-5.91133 0 0)
(-34.6991 0 0)
(-11.9699 0 0)
(16.5375 0 0)
(56.1964 0 0)
(26.4369 0 0)
(-48.8104 0 0)
(-34.4548 0 0)
(-25.4678 0 0)
(0.58379 0 0)
(62.3297 0 0)
(122.358 0 0)
(-7.88329 0 0)
(-103.91 0 0)
(-69.4225 0 0)
(-41.5771 0 0)
(11.3691 0 0)
(109.503 0 0)
(202.497 0 0)
(-58.9093 0 0)
(-222.042 0 0)
(-143.946 0 0)
(-26.8359 0 0)
(166.47 0 0)
(327.371 0 0)
(-115.96 0 0)
(-317.381 0 0)
(-58.5284 0 0)
(327.648 0 0)
(368.657 0 0)
(-352.628 0 0)
(-382.434 0 0)
(-21.4991 0 0)
(555.593 0 0)
(393.083 0 0)
(-595.212 0 0)
(-389.42 0 0)
(26.2205 0 0)
(741.145 0 0)
(704.54 0 0)
(-652.674 0 0)
(-738.692 0 0)
(-512.379 0 0)
(-207.512 0 0)
(505.247 0 0)
(1464.32 0 0)
(502.565 0 0)
(-1477.88 0 0)
(-1097.36 0 0)
(-589.916 0 0)
(279.759 0 0)
(2111.22 0 0)
(1047.26 0 0)
(-2032.81 0 0)
(-1150.92 0 0)
(612.238 0 0)
(2454.64 0 0)
(190.656 0 0)
(-2438.13 0 0)
(-1223.59 0 0)
(740.68 0 0)
(3318.32 0 0)
(1161.95 0 0)
(-3387.18 0 0)
(-2228.89 0 0)
(-419.238 0 0)
(2808.86 0 0)
(4276.63 0 0)
(-2290.22 0 0)
(-4125.28 0 0)
(-2520.43 0 0)
(133.327 0 0)
(5646.68 0 0)
(2393.87 0 0)
(-5378.94 0 0)
(-2452.82 0 0)
(3099.95 0 0)
(2083.12 0 0)
(-4267.9 0 0)
(-228.772 0 0)
(4819.07 0 0)
(573.969 0 0)
(-5108.04 0 0)
(285.211 0 0)
(5616.03 0 0)
(-977.034 0 0)
(-5169.49 0 0)
(972.987 0 0)
(6095.09 0 0)
(-1914.78 0 0)
(-5463.93 0 0)
(1707.32 0 0)
(6749.69 0 0)
(-2951.54 0 0)
(-5456.54 0 0)
(1755.06 0 0)
(7083.32 0 0)
(-3201.69 0 0)
(-5891.54 0 0)
(1539.02 0 0)
(7365.64 0 0)
(-2455.92 0 0)
(-6142.21 0 0)
(952.441 0 0)
(7166.23 0 0)
(-1385.64 0 0)
(-6704.91 0 0)
(295.41 0 0)
(7106.96 0 0)
(-323.462 0 0)
(-6659.26 0 0)
(-957.312 0 0)
(6579.88 0 0)
(1503.3 0 0)
(-6638.83 0 0)
(-1720.24 0 0)
(6175.31 0 0)
(1945.9 0 0)
(-6148.33 0 0)
(-1820.5 0 0)
(5519.86 0 0)
(2092.34 0 0)
(-5263.53 0 0)
(-1752.92 0 0)
(4547.2 0 0)
(2266.35 0 0)
(-4542.78 0 0)
(-1676.82 0 0)
(4113.63 0 0)
(2452.34 0 0)
(-4514.41 0 0)
(-1977.28 0 0)
(2620.36 0 0)
(3699.12 0 0)
(-2889.28 0 0)
(-2100.13 0 0)
(2422.89 0 0)
(3210.79 0 0)
(-2643.05 0 0)
(-3188.02 0 0)
(592.341 0 0)
(4085.71 0 0)
(-256.313 0 0)
(-3644.08 0 0)
(-1211.56 0 0)
(3426.71 0 0)
(3166.31 0 0)
(-2867.43 0 0)
(-3351.07 0 0)
(496.694 0 0)
(3567.64 0 0)
(-493.891 0 0)
(-3081.06 0 0)
(1650.49 0 0)
(3878.37 0 0)
(-876.036 0 0)
(-3448.01 0 0)
(-1161.93 0 0)
(2541.08 0 0)
(1557.69 0 0)
(-2119.25 0 0)
(-1485.45 0 0)
(263.485 0 0)
(1550.55 0 0)
(869.153 0 0)
(-1992.5 0 0)
(-1948.31 0 0)
(647.175 0 0)
(2716.46 0 0)
(245.403 0 0)
(-2310.79 0 0)
(-1008.7 0 0)
(2121.88 0 0)
(1218.14 0 0)
(-1845.05 0 0)
(-1245.57 0 0)
(2086.77 0 0)
(1773.72 0 0)
(-974.419 0 0)
(-1407.89 0 0)
(-78.513 0 0)
(759.908 0 0)
(56.2567 0 0)
(-475.093 0 0)
(79.64 0 0)
(441.833 0 0)
(-5.79331 0 0)
(-409.078 0 0)
(-206.502 0 0)
(129.801 0 0)
(23.794 0 0)
(-363.732 0 0)
(-173.352 0 0)
)
;

boundaryField
{
    sides
    {
        type            calculated;
        value           nonuniform List<vector> 2((-173.352 0 0) (32.9479 0 0));
    }
    empty
    {
        type            empty;
    }
}


// ************************************************************************* //
