/*--------------------------------*- C++ -*----------------------------------*\
  =========                 |
  \\      /  F ield         | OpenFOAM: The Open Source CFD Toolbox
   \\    /   O peration     | Website:  https://openfoam.org
    \\  /    A nd           | Version:  9
     \\/     M anipulation  |
\*---------------------------------------------------------------------------*/
FoamFile
{
    format      ascii;
    class       volScalarField;
    location    "0.025";
    object      p_0;
}
// * * * * * * * * * * * * * * * * * * * * * * * * * * * * * * * * * * * * * //

dimensions      [1 -1 -2 0 0 0 0];

internalField   nonuniform List<scalar> 
1000
(
28094.6
28088.6
28081.9
28076
28070.5
28064.9
28059.3
28053.6
28047.9
28042.3
28036.6
28030.9
28025.3
28019.6
28013.9
28008.2
28002.6
27996.9
27991.2
27985.5
27979.8
27974.1
27968.4
27962.7
27957
27951.2
27945.5
27939.8
27934.1
27928.3
27922.6
27916.9
27911.1
27905.4
27899.6
27893.9
27888.1
27882.4
27876.6
27870.8
27865.1
27859.3
27853.5
27847.7
27841.9
27836.1
27830.3
27824.5
27818.7
27812.9
27807.1
27801.3
27795.4
27789.6
27783.8
27777.9
27772.1
27766.2
27760.4
27754.5
27748.7
27742.8
27736.9
27731.1
27725.2
27719.3
27713.4
27707.5
27701.6
27695.7
27689.8
27683.9
27678
27672.1
27666.2
27660.3
27654.3
27648.4
27642.5
27636.5
27630.6
27624.6
27618.7
27612.7
27606.8
27600.8
27594.8
27588.8
27582.9
27576.9
27570.9
27564.9
27558.9
27552.9
27546.9
27540.9
27534.9
27528.8
27522.8
27516.8
27510.8
27504.7
27498.7
27492.6
27486.6
27480.5
27474.5
27468.4
27462.3
27456.3
27450.2
27444.1
27438
27431.9
27425.9
27419.8
27413.7
27407.5
27401.4
27395.3
27389.2
27383.1
27377
27370.8
27364.7
27358.5
27352.4
27346.2
27340.1
27333.9
27327.8
27321.6
27315.4
27309.3
27303.1
27296.9
27290.7
27284.5
27278.3
27272.1
27265.9
27259.7
27253.5
27247.3
27241.1
27234.8
27228.6
27222.4
27216.1
27209.9
27203.6
27197.4
27191.1
27184.9
27178.6
27172.3
27166.1
27159.8
27153.5
27147.2
27140.9
27134.6
27128.3
27122
27115.7
27109.4
27103.1
27096.8
27090.5
27084.1
27077.8
27071.5
27065.1
27058.8
27052.4
27046.1
27039.7
27033.4
27027
27020.6
27014.3
27007.9
27001.5
26995.1
26988.7
26982.3
26975.9
26969.5
26963.1
26956.7
26950.3
26943.9
26937.4
26931
26924.6
26918.1
26911.7
26905.3
26898.8
26892.4
26885.9
26879.4
26873
26866.5
26860
26853.6
26847.1
26840.6
26834.1
26827.6
26821.1
26814.6
26808.1
26801.6
26795.1
26788.6
26782.1
26775.6
26769
26762.5
26756
26749.4
26742.9
26736.3
26729.8
26723.2
26716.7
26710.1
26703.6
26697
26690.4
26683.9
26677.3
26670.7
26664.1
26657.5
26650.9
26644.4
26637.8
26631.2
26624.6
26618
26611.3
26604.7
26598.1
26591.5
26584.9
26578.3
26571.6
26565
26558.4
26551.8
26545.1
26538.5
26531.8
26525.2
26518.6
26511.9
26505.3
26498.6
26492
26485.3
26478.7
26472
26465.3
26458.7
26452
26445.3
26438.7
26432
26425.3
26418.7
26412
26405.3
26398.7
26392
26385.3
26378.7
26372
26365.3
26358.6
26352
26345.3
26338.6
26331.9
26325.3
26318.6
26311.9
26305.2
26298.6
26291.9
26285.2
26278.6
26271.9
26265.2
26258.6
26251.9
26245.3
26238.6
26232
26225.3
26218.7
26212
26205.4
26198.7
26192.1
26185.5
26178.8
26172.2
26165.6
26159
26152.4
26145.8
26139.2
26132.6
26126
26119.4
26112.9
26106.3
26099.7
26093.2
26086.7
26080.1
26073.6
26067.1
26060.6
26054.1
26047.6
26041.1
26034.6
26028.2
26021.8
26015.3
26008.9
26002.5
25996.1
25989.7
25983.4
25977
25970.7
25964.4
25958.1
25951.8
25945.5
25939.3
25933
25926.8
25920.6
25914.5
25908.3
25902.2
25896.1
25890
25884
25878
25872
25866
25860
25854.1
25848.2
25842.4
25836.6
25830.8
25825
25819.3
25813.6
25808
25802.4
25796.8
25791.3
25785.8
25780.4
25775
25769.7
25764.4
25759.2
25754
25748.8
25743.8
25738.8
25733.8
25728.9
25724.1
25719.3
25714.6
25710
25705.5
25701
25696.6
25692.3
25688
25683.9
25679.8
25675.9
25672
25668.2
25664.5
25661
25657.5
25654.2
25651
25647.8
25644.9
25642
25639.3
25636.7
25634.2
25631.9
25629.8
25627.8
25626
25624.3
25622.9
25621.6
25620.5
25619.6
25619
25618.5
25618.3
25618.3
25618.3
25618.4
25618.6
25619.2
25620.1
25621.4
25622.9
25624.8
25627
25629.4
25632.1
25635.2
25638.5
25642.2
25646.2
25650.5
25655.2
25660.3
25665.7
25671.5
25677.7
25684.2
25691.2
25698.6
25706.3
25714.5
25723.2
25732.3
25741.8
25751.8
25762.3
25773.2
25784.6
25796.5
25808.8
25821.7
25835
25848.8
25863.2
25878
25893.3
25909.2
25925.5
25942.4
25959.7
25977.5
25995.8
26014.6
26033.9
26053.6
26073.8
26094.5
26115.6
26137.1
26159.1
26181.4
26204.2
26227.4
26251
26274.9
26299.2
26323.8
26348.7
26374
26399.5
26425.4
26451.5
26477.9
26504.5
26531.3
26558.4
26585.6
26613.1
26640.7
26668.5
26696.5
26724.6
26752.8
26781.2
26809.6
26838.2
26866.9
26895.7
26924.6
26953.5
26982.5
27011.6
27040.7
27069.9
27099.2
27128.5
27157.9
27187.3
27216.7
27246.2
27275.8
27305.3
27334.9
27364.6
27394.2
27423.9
27453.7
27483.4
27513.2
27543
27572.9
27602.8
27632.7
27662.6
27692.6
27722.6
27752.6
27782.7
27812.7
27842.8
27873
27903.1
27933.3
27963.5
27993.7
28024
28054.2
28084.5
28114.9
28145.2
28175.6
28205.9
28236.3
28266.8
28297.2
28327.7
28358.2
28388.7
28419.2
28449.7
28480.3
28510.9
28541.4
28572
28602.7
28633.3
28663.9
28694.6
28725.2
28755.9
28786.6
28817.2
28847.9
28878.6
28909.3
28939.9
28970.6
29001.2
29031.9
29062.5
29093.1
29123.7
29154.2
29184.7
29215.2
29245.6
29276
29306.3
29336.5
29366.7
29396.8
29426.7
29456.6
29486.4
29516
29545.5
29574.8
29604
29633
29661.7
29690.3
29718.6
29746.6
29774.4
29801.9
29829
29855.8
29882.3
29908.3
29933.9
29959.1
29983.9
30008.1
30031.9
30055.1
30077.7
30099.8
30121.3
30142.2
30162.4
30182
30200.9
30219.1
30236.6
30253.5
30269.6
30285
30299.7
30313.7
30326.9
30339.5
30351.4
30362.5
30373
30382.9
30392.1
30400.6
30408.6
30416
30422.8
30429.1
30434.9
30440.2
30445.1
30449.5
30453.5
30457.2
30460.4
30463.4
30466.1
30468.5
30470.6
30472.5
30474.2
30475.7
30477
30478.2
30479.2
30480.1
30480.9
30481.6
30482.2
30482.7
30483.1
30483.5
30483.8
30484.1
30484.4
30484.6
30484.7
30484.9
30485
30485.1
30485.2
30485.3
30485.3
30485.4
30485.4
30485.5
30485.5
30485.5
30485.6
30485.6
30485.6
30485.7
30485.7
30485.7
30485.7
30485.6
30485.6
30485.7
30485.7
30485.7
30485.6
30485.6
30485.7
30485.7
30485.7
30485.7
30485.7
30485.7
30485.7
30485.7
30485.7
30485.7
30485.6
30485.6
30485.6
30485.6
30485.7
30485.7
30485.7
30485.7
30485.7
30485.7
30485.8
30485.8
30485.7
30485.7
30485.8
30485.8
30485.8
30485.7
30485.8
30485.8
30485.8
30485.8
30485.8
30485.8
30485.9
30485.9
30485.8
30485.7
30485.7
30485.8
30485.8
30485.8
30485.7
30485.7
30485.7
30485.8
30485.8
30485.8
30485.7
30485.7
30485.8
30485.8
30485.9
30485.9
30485.8
30485.8
30485.8
30485.8
30485.9
30485.8
30485.8
30485.8
30485.8
30485.9
30485.8
30485.8
30485.8
30485.8
30485.8
30485.8
30485.8
30485.8
30485.8
30485.8
30485.8
30485.7
30485.8
30485.8
30485.8
30485.7
30485.7
30485.7
30485.7
30485.8
30485.7
30485.7
30485.7
30485.6
30485.7
30485.7
30485.7
30485.7
30485.7
30485.7
30485.7
30485.7
30485.7
30485.7
30485.7
30485.8
30485.8
30485.8
30485.8
30485.8
30485.8
30485.9
30485.9
30485.9
30485.9
30486
30486.1
30486.1
30486
30486.1
30486.3
30486.3
30486.3
30486.3
30486.5
30486.7
30486.8
30486.8
30486.8
30487
30487.3
30487.6
30487.8
30488
30487.9
30487.9
30488.5
30489.1
30489.6
30490
30490.2
30490
30490.2
30491.4
30492.5
30493.3
30493.7
30493.4
30493.7
30495.5
30497
30497.4
30497
30497.9
30501
30502.4
30502.9
30502.2
30504
30508.2
30509.9
30510.5
30509.6
30511.3
30516.5
30520.9
30523.9
30526.2
30526
30524.2
30530.1
30538.1
30543.7
30547.1
30546.8
30544.3
30552.3
30561.2
30567.2
30566.2
30563.7
30576.2
30588
30593.8
30592.6
30589.4
30602.4
30617.7
30628.2
30630.8
30625.4
30629.7
30651.4
30669.9
30680.6
30679.7
30669.9
30689.3
30712.8
30719
30715.2
30732.1
30754.1
30754.8
30747.3
30773
30795.7
30795
30790.4
30818
30839.6
30835.6
30837.6
30869.4
30886
30879.4
30884.1
30917.7
30935
30927.4
30932.1
30966.5
30985.4
30977.7
30980.6
31014
31035.6
31029.1
31024.9
31060.6
31084.9
31080.4
31070.1
31105.9
31129.6
31128.4
31117.3
31147.2
31171.9
31171.5
31160.8
31186.7
31210.4
31210.4
31200.7
31222.2
31242.9
31244.3
31236.1
31252.3
31272.4
31274.6
31266.1
31278.4
31299.4
31303.2
31293.3
31298.2
31318.6
31322.5
31311.9
31316.5
31335.2
31342.6
31339.6
31330.7
31344.4
31360
31358.5
31345.7
31349.8
31367
31373.9
31368.7
31362.5
31372.4
31380.2
31370
31365
31378
31386.6
31383.7
31377.3
31381
31388.6
31391.4
31388.7
31384.5
31387.3
31395.4
31398.9
31392.1
31386.2
31392.1
31399.7
31397.1
31389.4
31391.8
31400.1
31398
31389.1
31389.7
31395.7
31397.8
31395.5
31394
31395.7
31396.8
31395.6
31394.7
31396.1
31397.2
31397.2
31396.7
31397.2
31398.3
)
;

boundaryField
{
    sides
    {
        type            zeroGradient;
    }
    empty
    {
        type            empty;
    }
}


// ************************************************************************* //
