/*--------------------------------*- C++ -*----------------------------------*\
  =========                 |
  \\      /  F ield         | OpenFOAM: The Open Source CFD Toolbox
   \\    /   O peration     | Website:  https://openfoam.org
    \\  /    A nd           | Version:  9
     \\/     M anipulation  |
\*---------------------------------------------------------------------------*/
FoamFile
{
    format      ascii;
    class       volVectorField;
    location    "0.025";
    object      U_0;
}
// * * * * * * * * * * * * * * * * * * * * * * * * * * * * * * * * * * * * * //

dimensions      [0 1 -1 0 0 0 0];

internalField   nonuniform List<vector> 
1000
(
(12.7258 0 0)
(13.3914 0 0)
(14.0375 0 0)
(14.5703 0 0)
(15.0751 0 0)
(15.5905 0 0)
(16.1151 0 0)
(16.6411 0 0)
(17.1664 0 0)
(17.6913 0 0)
(18.2164 0 0)
(18.7414 0 0)
(19.2664 0 0)
(19.7912 0 0)
(20.3159 0 0)
(20.8408 0 0)
(21.3657 0 0)
(21.8908 0 0)
(22.4158 0 0)
(22.9408 0 0)
(23.4658 0 0)
(23.9909 0 0)
(24.5161 0 0)
(25.0413 0 0)
(25.5666 0 0)
(26.0919 0 0)
(26.6174 0 0)
(27.1428 0 0)
(27.6684 0 0)
(28.194 0 0)
(28.7196 0 0)
(29.2454 0 0)
(29.7712 0 0)
(30.297 0 0)
(30.823 0 0)
(31.349 0 0)
(31.875 0 0)
(32.4011 0 0)
(32.9273 0 0)
(33.4536 0 0)
(33.9799 0 0)
(34.5063 0 0)
(35.0328 0 0)
(35.5593 0 0)
(36.0859 0 0)
(36.6126 0 0)
(37.1393 0 0)
(37.6662 0 0)
(38.193 0 0)
(38.72 0 0)
(39.247 0 0)
(39.7741 0 0)
(40.3012 0 0)
(40.8284 0 0)
(41.3557 0 0)
(41.8831 0 0)
(42.4105 0 0)
(42.938 0 0)
(43.4655 0 0)
(43.9931 0 0)
(44.5208 0 0)
(45.0486 0 0)
(45.5764 0 0)
(46.1042 0 0)
(46.6322 0 0)
(47.1602 0 0)
(47.6883 0 0)
(48.2164 0 0)
(48.7446 0 0)
(49.2728 0 0)
(49.8012 0 0)
(50.3296 0 0)
(50.858 0 0)
(51.3866 0 0)
(51.9151 0 0)
(52.4438 0 0)
(52.9725 0 0)
(53.5013 0 0)
(54.0302 0 0)
(54.5591 0 0)
(55.0881 0 0)
(55.6171 0 0)
(56.1462 0 0)
(56.6754 0 0)
(57.2047 0 0)
(57.734 0 0)
(58.2633 0 0)
(58.7928 0 0)
(59.3223 0 0)
(59.8518 0 0)
(60.3815 0 0)
(60.9111 0 0)
(61.4409 0 0)
(61.9707 0 0)
(62.5006 0 0)
(63.0306 0 0)
(63.5606 0 0)
(64.0907 0 0)
(64.6208 0 0)
(65.151 0 0)
(65.6813 0 0)
(66.2116 0 0)
(66.742 0 0)
(67.2725 0 0)
(67.803 0 0)
(68.3336 0 0)
(68.8643 0 0)
(69.395 0 0)
(69.9258 0 0)
(70.4566 0 0)
(70.9875 0 0)
(71.5185 0 0)
(72.0495 0 0)
(72.5806 0 0)
(73.1118 0 0)
(73.643 0 0)
(74.1743 0 0)
(74.7056 0 0)
(75.237 0 0)
(75.7685 0 0)
(76.3001 0 0)
(76.8317 0 0)
(77.3633 0 0)
(77.8951 0 0)
(78.4269 0 0)
(78.9587 0 0)
(79.4906 0 0)
(80.0226 0 0)
(80.5547 0 0)
(81.0868 0 0)
(81.6189 0 0)
(82.1511 0 0)
(82.6835 0 0)
(83.2158 0 0)
(83.7482 0 0)
(84.2807 0 0)
(84.8132 0 0)
(85.3458 0 0)
(85.8785 0 0)
(86.4112 0 0)
(86.944 0 0)
(87.4769 0 0)
(88.0098 0 0)
(88.5428 0 0)
(89.0758 0 0)
(89.6089 0 0)
(90.1421 0 0)
(90.6752 0 0)
(91.2085 0 0)
(91.7419 0 0)
(92.2753 0 0)
(92.8087 0 0)
(93.3423 0 0)
(93.8758 0 0)
(94.4095 0 0)
(94.9432 0 0)
(95.4769 0 0)
(96.0107 0 0)
(96.5447 0 0)
(97.0786 0 0)
(97.6126 0 0)
(98.1466 0 0)
(98.6807 0 0)
(99.2149 0 0)
(99.7492 0 0)
(100.283 0 0)
(100.818 0 0)
(101.352 0 0)
(101.887 0 0)
(102.421 0 0)
(102.956 0 0)
(103.49 0 0)
(104.025 0 0)
(104.56 0 0)
(105.095 0 0)
(105.629 0 0)
(106.164 0 0)
(106.699 0 0)
(107.234 0 0)
(107.769 0 0)
(108.305 0 0)
(108.84 0 0)
(109.375 0 0)
(109.91 0 0)
(110.446 0 0)
(110.981 0 0)
(111.517 0 0)
(112.052 0 0)
(112.588 0 0)
(113.123 0 0)
(113.659 0 0)
(114.195 0 0)
(114.73 0 0)
(115.266 0 0)
(115.802 0 0)
(116.338 0 0)
(116.874 0 0)
(117.41 0 0)
(117.946 0 0)
(118.482 0 0)
(119.018 0 0)
(119.555 0 0)
(120.091 0 0)
(120.627 0 0)
(121.164 0 0)
(121.7 0 0)
(122.236 0 0)
(122.773 0 0)
(123.31 0 0)
(123.846 0 0)
(124.383 0 0)
(124.919 0 0)
(125.456 0 0)
(125.993 0 0)
(126.53 0 0)
(127.067 0 0)
(127.604 0 0)
(128.141 0 0)
(128.678 0 0)
(129.215 0 0)
(129.752 0 0)
(130.289 0 0)
(130.826 0 0)
(131.363 0 0)
(131.9 0 0)
(132.438 0 0)
(132.975 0 0)
(133.512 0 0)
(134.05 0 0)
(134.587 0 0)
(135.125 0 0)
(135.662 0 0)
(136.2 0 0)
(136.737 0 0)
(137.275 0 0)
(137.813 0 0)
(138.35 0 0)
(138.888 0 0)
(139.426 0 0)
(139.964 0 0)
(140.502 0 0)
(141.039 0 0)
(141.577 0 0)
(142.115 0 0)
(142.653 0 0)
(143.191 0 0)
(143.729 0 0)
(144.267 0 0)
(144.805 0 0)
(145.343 0 0)
(145.882 0 0)
(146.42 0 0)
(146.958 0 0)
(147.496 0 0)
(148.034 0 0)
(148.573 0 0)
(149.111 0 0)
(149.649 0 0)
(150.188 0 0)
(150.726 0 0)
(151.264 0 0)
(151.803 0 0)
(152.341 0 0)
(152.879 0 0)
(153.418 0 0)
(153.956 0 0)
(154.495 0 0)
(155.033 0 0)
(155.572 0 0)
(156.11 0 0)
(156.649 0 0)
(157.187 0 0)
(157.726 0 0)
(158.264 0 0)
(158.803 0 0)
(159.342 0 0)
(159.88 0 0)
(160.419 0 0)
(160.957 0 0)
(161.496 0 0)
(162.034 0 0)
(162.573 0 0)
(163.112 0 0)
(163.65 0 0)
(164.189 0 0)
(164.727 0 0)
(165.266 0 0)
(165.804 0 0)
(166.343 0 0)
(166.881 0 0)
(167.42 0 0)
(167.959 0 0)
(168.497 0 0)
(169.035 0 0)
(169.574 0 0)
(170.112 0 0)
(170.651 0 0)
(171.189 0 0)
(171.728 0 0)
(172.266 0 0)
(172.804 0 0)
(173.343 0 0)
(173.881 0 0)
(174.419 0 0)
(174.957 0 0)
(175.495 0 0)
(176.034 0 0)
(176.572 0 0)
(177.11 0 0)
(177.648 0 0)
(178.186 0 0)
(178.723 0 0)
(179.261 0 0)
(179.799 0 0)
(180.337 0 0)
(180.874 0 0)
(181.412 0 0)
(181.95 0 0)
(182.487 0 0)
(183.024 0 0)
(183.562 0 0)
(184.099 0 0)
(184.636 0 0)
(185.173 0 0)
(185.71 0 0)
(186.247 0 0)
(186.784 0 0)
(187.321 0 0)
(187.857 0 0)
(188.394 0 0)
(188.93 0 0)
(189.467 0 0)
(190.003 0 0)
(190.539 0 0)
(191.075 0 0)
(191.611 0 0)
(192.146 0 0)
(192.682 0 0)
(193.217 0 0)
(193.752 0 0)
(194.288 0 0)
(194.823 0 0)
(195.357 0 0)
(195.892 0 0)
(196.426 0 0)
(196.961 0 0)
(197.495 0 0)
(198.029 0 0)
(198.562 0 0)
(199.096 0 0)
(199.629 0 0)
(200.162 0 0)
(200.695 0 0)
(201.228 0 0)
(201.76 0 0)
(202.292 0 0)
(202.824 0 0)
(203.356 0 0)
(203.887 0 0)
(204.418 0 0)
(204.949 0 0)
(205.48 0 0)
(206.01 0 0)
(206.54 0 0)
(207.069 0 0)
(207.598 0 0)
(208.127 0 0)
(208.656 0 0)
(209.184 0 0)
(209.712 0 0)
(210.239 0 0)
(210.766 0 0)
(211.292 0 0)
(211.818 0 0)
(212.344 0 0)
(212.869 0 0)
(213.394 0 0)
(213.918 0 0)
(214.442 0 0)
(214.965 0 0)
(215.488 0 0)
(216.01 0 0)
(216.531 0 0)
(217.052 0 0)
(217.573 0 0)
(218.092 0 0)
(218.611 0 0)
(219.13 0 0)
(219.647 0 0)
(220.164 0 0)
(220.68 0 0)
(221.196 0 0)
(221.71 0 0)
(222.224 0 0)
(222.737 0 0)
(223.249 0 0)
(223.76 0 0)
(224.27 0 0)
(224.78 0 0)
(225.288 0 0)
(225.795 0 0)
(226.301 0 0)
(226.806 0 0)
(227.31 0 0)
(227.813 0 0)
(228.315 0 0)
(228.815 0 0)
(229.314 0 0)
(229.811 0 0)
(230.308 0 0)
(230.802 0 0)
(231.296 0 0)
(231.787 0 0)
(232.277 0 0)
(232.766 0 0)
(233.252 0 0)
(233.737 0 0)
(234.22 0 0)
(234.701 0 0)
(235.18 0 0)
(235.659 0 0)
(236.137 0 0)
(236.613 0 0)
(237.087 0 0)
(237.558 0 0)
(238.025 0 0)
(238.49 0 0)
(238.953 0 0)
(239.413 0 0)
(239.87 0 0)
(240.325 0 0)
(240.777 0 0)
(241.227 0 0)
(241.674 0 0)
(242.117 0 0)
(242.559 0 0)
(242.997 0 0)
(243.432 0 0)
(243.863 0 0)
(244.292 0 0)
(244.717 0 0)
(245.139 0 0)
(245.558 0 0)
(245.973 0 0)
(246.384 0 0)
(246.792 0 0)
(247.196 0 0)
(247.596 0 0)
(247.993 0 0)
(248.385 0 0)
(248.774 0 0)
(249.159 0 0)
(249.539 0 0)
(249.916 0 0)
(250.288 0 0)
(250.657 0 0)
(251.021 0 0)
(251.381 0 0)
(251.737 0 0)
(252.088 0 0)
(252.436 0 0)
(252.779 0 0)
(253.118 0 0)
(253.454 0 0)
(253.785 0 0)
(254.111 0 0)
(254.434 0 0)
(254.753 0 0)
(255.068 0 0)
(255.379 0 0)
(255.687 0 0)
(255.99 0 0)
(256.29 0 0)
(256.587 0 0)
(256.88 0 0)
(257.17 0 0)
(257.456 0 0)
(257.74 0 0)
(258.02 0 0)
(258.298 0 0)
(258.573 0 0)
(258.845 0 0)
(259.115 0 0)
(259.382 0 0)
(259.647 0 0)
(259.91 0 0)
(260.171 0 0)
(260.43 0 0)
(260.687 0 0)
(260.943 0 0)
(261.197 0 0)
(261.449 0 0)
(261.701 0 0)
(261.951 0 0)
(262.199 0 0)
(262.447 0 0)
(262.694 0 0)
(262.94 0 0)
(263.185 0 0)
(263.43 0 0)
(263.673 0 0)
(263.917 0 0)
(264.159 0 0)
(264.402 0 0)
(264.644 0 0)
(264.885 0 0)
(265.127 0 0)
(265.368 0 0)
(265.609 0 0)
(265.849 0 0)
(266.09 0 0)
(266.33 0 0)
(266.57 0 0)
(266.81 0 0)
(267.05 0 0)
(267.29 0 0)
(267.53 0 0)
(267.77 0 0)
(268.009 0 0)
(268.249 0 0)
(268.489 0 0)
(268.728 0 0)
(268.968 0 0)
(269.207 0 0)
(269.447 0 0)
(269.687 0 0)
(269.926 0 0)
(270.166 0 0)
(270.405 0 0)
(270.645 0 0)
(270.884 0 0)
(271.124 0 0)
(271.363 0 0)
(271.602 0 0)
(271.842 0 0)
(272.081 0 0)
(272.321 0 0)
(272.56 0 0)
(272.8 0 0)
(273.039 0 0)
(273.278 0 0)
(273.518 0 0)
(273.757 0 0)
(273.996 0 0)
(274.236 0 0)
(274.475 0 0)
(274.714 0 0)
(274.953 0 0)
(275.192 0 0)
(275.432 0 0)
(275.671 0 0)
(275.91 0 0)
(276.149 0 0)
(276.388 0 0)
(276.627 0 0)
(276.865 0 0)
(277.104 0 0)
(277.343 0 0)
(277.581 0 0)
(277.82 0 0)
(278.058 0 0)
(278.297 0 0)
(278.535 0 0)
(278.773 0 0)
(279.011 0 0)
(279.249 0 0)
(279.486 0 0)
(279.724 0 0)
(279.961 0 0)
(280.198 0 0)
(280.435 0 0)
(280.672 0 0)
(280.908 0 0)
(281.144 0 0)
(281.38 0 0)
(281.615 0 0)
(281.85 0 0)
(282.085 0 0)
(282.319 0 0)
(282.553 0 0)
(282.786 0 0)
(283.018 0 0)
(283.25 0 0)
(283.481 0 0)
(283.712 0 0)
(283.942 0 0)
(284.171 0 0)
(284.398 0 0)
(284.625 0 0)
(284.851 0 0)
(285.075 0 0)
(285.298 0 0)
(285.52 0 0)
(285.74 0 0)
(285.959 0 0)
(286.175 0 0)
(286.39 0 0)
(286.603 0 0)
(286.813 0 0)
(287.021 0 0)
(287.227 0 0)
(287.429 0 0)
(287.629 0 0)
(287.826 0 0)
(288.02 0 0)
(288.21 0 0)
(288.397 0 0)
(288.58 0 0)
(288.759 0 0)
(288.935 0 0)
(289.106 0 0)
(289.272 0 0)
(289.434 0 0)
(289.592 0 0)
(289.744 0 0)
(289.892 0 0)
(290.035 0 0)
(290.172 0 0)
(290.305 0 0)
(290.432 0 0)
(290.554 0 0)
(290.67 0 0)
(290.781 0 0)
(290.887 0 0)
(290.987 0 0)
(291.082 0 0)
(291.172 0 0)
(291.257 0 0)
(291.337 0 0)
(291.411 0 0)
(291.481 0 0)
(291.546 0 0)
(291.607 0 0)
(291.663 0 0)
(291.715 0 0)
(291.763 0 0)
(291.807 0 0)
(291.847 0 0)
(291.884 0 0)
(291.918 0 0)
(291.949 0 0)
(291.977 0 0)
(292.002 0 0)
(292.025 0 0)
(292.045 0 0)
(292.064 0 0)
(292.08 0 0)
(292.095 0 0)
(292.108 0 0)
(292.119 0 0)
(292.13 0 0)
(292.139 0 0)
(292.146 0 0)
(292.153 0 0)
(292.159 0 0)
(292.165 0 0)
(292.169 0 0)
(292.173 0 0)
(292.177 0 0)
(292.18 0 0)
(292.183 0 0)
(292.185 0 0)
(292.187 0 0)
(292.188 0 0)
(292.19 0 0)
(292.191 0 0)
(292.192 0 0)
(292.193 0 0)
(292.193 0 0)
(292.194 0 0)
(292.194 0 0)
(292.195 0 0)
(292.195 0 0)
(292.195 0 0)
(292.196 0 0)
(292.196 0 0)
(292.196 0 0)
(292.197 0 0)
(292.197 0 0)
(292.197 0 0)
(292.197 0 0)
(292.197 0 0)
(292.197 0 0)
(292.197 0 0)
(292.197 0 0)
(292.197 0 0)
(292.197 0 0)
(292.197 0 0)
(292.197 0 0)
(292.197 0 0)
(292.197 0 0)
(292.197 0 0)
(292.197 0 0)
(292.197 0 0)
(292.197 0 0)
(292.197 0 0)
(292.197 0 0)
(292.197 0 0)
(292.197 0 0)
(292.197 0 0)
(292.197 0 0)
(292.196 0 0)
(292.196 0 0)
(292.196 0 0)
(292.197 0 0)
(292.197 0 0)
(292.197 0 0)
(292.197 0 0)
(292.197 0 0)
(292.197 0 0)
(292.197 0 0)
(292.197 0 0)
(292.197 0 0)
(292.197 0 0)
(292.197 0 0)
(292.197 0 0)
(292.197 0 0)
(292.197 0 0)
(292.197 0 0)
(292.197 0 0)
(292.197 0 0)
(292.197 0 0)
(292.196 0 0)
(292.197 0 0)
(292.197 0 0)
(292.197 0 0)
(292.196 0 0)
(292.196 0 0)
(292.196 0 0)
(292.196 0 0)
(292.196 0 0)
(292.196 0 0)
(292.196 0 0)
(292.196 0 0)
(292.196 0 0)
(292.196 0 0)
(292.196 0 0)
(292.196 0 0)
(292.196 0 0)
(292.196 0 0)
(292.196 0 0)
(292.196 0 0)
(292.196 0 0)
(292.196 0 0)
(292.196 0 0)
(292.196 0 0)
(292.196 0 0)
(292.196 0 0)
(292.196 0 0)
(292.196 0 0)
(292.196 0 0)
(292.196 0 0)
(292.196 0 0)
(292.196 0 0)
(292.196 0 0)
(292.196 0 0)
(292.196 0 0)
(292.196 0 0)
(292.196 0 0)
(292.196 0 0)
(292.196 0 0)
(292.196 0 0)
(292.196 0 0)
(292.196 0 0)
(292.196 0 0)
(292.196 0 0)
(292.196 0 0)
(292.196 0 0)
(292.196 0 0)
(292.196 0 0)
(292.196 0 0)
(292.196 0 0)
(292.196 0 0)
(292.196 0 0)
(292.196 0 0)
(292.196 0 0)
(292.195 0 0)
(292.195 0 0)
(292.195 0 0)
(292.195 0 0)
(292.196 0 0)
(292.196 0 0)
(292.196 0 0)
(292.195 0 0)
(292.196 0 0)
(292.196 0 0)
(292.196 0 0)
(292.196 0 0)
(292.196 0 0)
(292.196 0 0)
(292.196 0 0)
(292.196 0 0)
(292.195 0 0)
(292.195 0 0)
(292.195 0 0)
(292.195 0 0)
(292.195 0 0)
(292.195 0 0)
(292.195 0 0)
(292.195 0 0)
(292.195 0 0)
(292.194 0 0)
(292.194 0 0)
(292.193 0 0)
(292.193 0 0)
(292.193 0 0)
(292.192 0 0)
(292.191 0 0)
(292.19 0 0)
(292.19 0 0)
(292.189 0 0)
(292.188 0 0)
(292.186 0 0)
(292.185 0 0)
(292.185 0 0)
(292.184 0 0)
(292.183 0 0)
(292.181 0 0)
(292.178 0 0)
(292.175 0 0)
(292.174 0 0)
(292.173 0 0)
(292.172 0 0)
(292.17 0 0)
(292.167 0 0)
(292.162 0 0)
(292.157 0 0)
(292.155 0 0)
(292.154 0 0)
(292.152 0 0)
(292.148 0 0)
(292.14 0 0)
(292.132 0 0)
(292.129 0 0)
(292.126 0 0)
(292.119 0 0)
(292.108 0 0)
(292.098 0 0)
(292.094 0 0)
(292.09 0 0)
(292.079 0 0)
(292.062 0 0)
(292.049 0 0)
(292.044 0 0)
(292.037 0 0)
(292.02 0 0)
(291.997 0 0)
(291.978 0 0)
(291.969 0 0)
(291.964 0 0)
(291.955 0 0)
(291.936 0 0)
(291.905 0 0)
(291.868 0 0)
(291.846 0 0)
(291.842 0 0)
(291.836 0 0)
(291.819 0 0)
(291.78 0 0)
(291.725 0 0)
(291.694 0 0)
(291.687 0 0)
(291.664 0 0)
(291.615 0 0)
(291.554 0 0)
(291.521 0 0)
(291.511 0 0)
(291.481 0 0)
(291.416 0 0)
(291.333 0 0)
(291.288 0 0)
(291.284 0 0)
(291.265 0 0)
(291.207 0 0)
(291.102 0 0)
(291.017 0 0)
(290.996 0 0)
(290.996 0 0)
(290.974 0 0)
(290.888 0 0)
(290.766 0 0)
(290.709 0 0)
(290.708 0 0)
(290.656 0 0)
(290.545 0 0)
(290.469 0 0)
(290.428 0 0)
(290.339 0 0)
(290.219 0 0)
(290.158 0 0)
(290.123 0 0)
(290.019 0 0)
(289.896 0 0)
(289.841 0 0)
(289.798 0 0)
(289.673 0 0)
(289.54 0 0)
(289.499 0 0)
(289.457 0 0)
(289.315 0 0)
(289.178 0 0)
(289.141 0 0)
(289.098 0 0)
(288.952 0 0)
(288.814 0 0)
(288.782 0 0)
(288.74 0 0)
(288.591 0 0)
(288.448 0 0)
(288.41 0 0)
(288.371 0 0)
(288.24 0 0)
(288.098 0 0)
(288.05 0 0)
(288.021 0 0)
(287.905 0 0)
(287.758 0 0)
(287.699 0 0)
(287.687 0 0)
(287.59 0 0)
(287.441 0 0)
(287.375 0 0)
(287.373 0 0)
(287.289 0 0)
(287.144 0 0)
(287.078 0 0)
(287.077 0 0)
(287.003 0 0)
(286.872 0 0)
(286.811 0 0)
(286.804 0 0)
(286.739 0 0)
(286.626 0 0)
(286.569 0 0)
(286.559 0 0)
(286.5 0 0)
(286.4 0 0)
(286.352 0 0)
(286.349 0 0)
(286.315 0 0)
(286.23 0 0)
(286.168 0 0)
(286.158 0 0)
(286.127 0 0)
(286.056 0 0)
(286.005 0 0)
(286.01 0 0)
(286.006 0 0)
(285.948 0 0)
(285.887 0 0)
(285.873 0 0)
(285.885 0 0)
(285.855 0 0)
(285.787 0 0)
(285.752 0 0)
(285.772 0 0)
(285.782 0 0)
(285.74 0 0)
(285.696 0 0)
(285.695 0 0)
(285.695 0 0)
(285.649 0 0)
(285.607 0 0)
(285.622 0 0)
(285.652 0 0)
(285.64 0 0)
(285.6 0 0)
(285.589 0 0)
(285.606 0 0)
(285.612 0 0)
(285.597 0 0)
(285.573 0 0)
(285.571 0 0)
(285.591 0 0)
(285.603 0 0)
(285.58 0 0)
(285.55 0 0)
(285.553 0 0)
(285.575 0 0)
(285.571 0 0)
(285.545 0 0)
(285.539 0 0)
(285.555 0 0)
(285.555 0 0)
(285.527 0 0)
(285.514 0 0)
(285.529 0 0)
(285.542 0 0)
(285.538 0 0)
(285.529 0 0)
(285.53 0 0)
(285.533 0 0)
(285.531 0 0)
(285.527 0 0)
(285.529 0 0)
(285.534 0 0)
(285.537 0 0)
(285.537 0 0)
(285.54 0 0)
(285.545 0 0)
)
;

boundaryField
{
    sides
    {
        type            zeroGradient;
    }
    empty
    {
        type            empty;
    }
}


// ************************************************************************* //
