/*--------------------------------*- C++ -*----------------------------------*\
  =========                 |
  \\      /  F ield         | OpenFOAM: The Open Source CFD Toolbox
   \\    /   O peration     | Website:  https://openfoam.org
    \\  /    A nd           | Version:  9
     \\/     M anipulation  |
\*---------------------------------------------------------------------------*/
FoamFile
{
    format      ascii;
    class       volScalarField;
    location    "0.024";
    object      mag(U);
}
// * * * * * * * * * * * * * * * * * * * * * * * * * * * * * * * * * * * * * //

dimensions      [0 1 -1 0 0 0 0];

internalField   nonuniform List<scalar> 
1000
(
9.56679
10.3032
10.974
11.5344
12.0741
12.6274
13.1896
13.7522
14.313
14.873
15.4331
15.9933
16.5537
17.1142
17.6747
18.2352
18.7957
19.3563
19.917
20.4778
21.0386
21.5995
22.1605
22.7216
23.2827
23.8439
24.4052
24.9666
25.528
26.0895
26.6511
27.2127
27.7744
28.3362
28.8981
29.46
30.022
30.5841
31.1463
31.7085
32.2708
32.8332
33.3956
33.9581
34.5207
35.0833
35.6461
36.2089
36.7717
37.3347
37.8977
38.4607
39.0239
39.5871
40.1503
40.7137
41.2771
41.8406
42.4041
42.9677
43.5314
44.0951
44.659
45.2229
45.7868
46.3508
46.9149
47.4791
48.0434
48.6077
49.1721
49.7365
50.301
50.8656
51.4303
51.995
52.5599
53.1247
53.6897
54.2547
54.8198
55.385
55.9502
56.5155
57.0808
57.6463
58.2118
58.7773
59.3429
59.9086
60.4744
61.0402
61.6061
62.1721
62.7381
63.3042
63.8703
64.4365
65.0028
65.5692
66.1356
66.7021
67.2686
67.8352
68.4019
68.9686
69.5354
70.1023
70.6692
71.2362
71.8032
72.3704
72.9375
73.5048
74.0721
74.6395
75.2069
75.7744
76.3419
76.9096
77.4772
78.045
78.6128
79.1806
79.7486
80.3166
80.8846
81.4527
82.0209
82.5891
83.1574
83.7257
84.2941
84.8626
85.4311
85.9997
86.5683
87.137
87.7058
88.2746
88.8435
89.4124
89.9814
90.5504
91.1195
91.6887
92.2579
92.8272
93.3965
93.9659
94.5353
95.1048
95.6743
96.2439
96.8136
97.3833
97.9531
98.5229
99.0927
99.6627
100.233
100.803
101.373
101.943
102.513
103.083
103.654
104.224
104.794
105.365
105.935
106.506
107.076
107.647
108.218
108.788
109.359
109.93
110.501
111.072
111.643
112.214
112.785
113.356
113.927
114.499
115.07
115.641
116.212
116.784
117.355
117.927
118.498
119.07
119.641
120.213
120.785
121.357
121.928
122.5
123.072
123.644
124.216
124.788
125.36
125.932
126.504
127.076
127.648
128.221
128.793
129.365
129.938
130.51
131.082
131.655
132.227
132.8
133.372
133.945
134.518
135.09
135.663
136.236
136.808
137.381
137.954
138.527
139.1
139.672
140.245
140.818
141.391
141.964
142.537
143.11
143.683
144.257
144.83
145.403
145.976
146.549
147.122
147.696
148.269
148.842
149.415
149.989
150.562
151.135
151.709
152.282
152.856
153.429
154.002
154.576
155.149
155.723
156.296
156.87
157.443
158.017
158.59
159.164
159.737
160.311
160.884
161.458
162.031
162.605
163.178
163.752
164.325
164.899
165.472
166.046
166.619
167.193
167.766
168.34
168.913
169.487
170.06
170.633
171.207
171.78
172.354
172.927
173.5
174.073
174.647
175.22
175.793
176.366
176.939
177.513
178.086
178.659
179.232
179.805
180.378
180.95
181.523
182.096
182.669
183.242
183.814
184.387
184.959
185.532
186.104
186.676
187.249
187.821
188.393
188.965
189.537
190.109
190.681
191.253
191.824
192.396
192.967
193.539
194.11
194.681
195.252
195.823
196.394
196.965
197.535
198.106
198.676
199.246
199.816
200.386
200.956
201.526
202.095
202.664
203.234
203.803
204.371
204.94
205.509
206.077
206.645
207.213
207.781
208.348
208.915
209.482
210.049
210.616
211.182
211.748
212.314
212.879
213.445
214.01
214.574
215.139
215.703
216.267
216.83
217.393
217.956
218.518
219.08
219.642
220.203
220.764
221.325
221.885
222.444
223.003
223.562
224.12
224.678
225.235
225.792
226.348
226.903
227.458
228.013
228.567
229.12
229.672
230.224
230.775
231.326
231.875
232.424
232.973
233.52
234.067
234.612
235.157
235.701
236.244
236.786
237.327
237.867
238.406
238.944
239.481
240.016
240.551
241.084
241.616
242.146
242.675
243.203
243.729
244.254
244.778
245.299
245.819
246.338
246.854
247.369
247.882
248.393
248.902
249.409
249.914
250.417
250.917
251.415
251.911
252.404
252.895
253.384
253.871
254.354
254.835
255.312
255.786
256.258
256.726
257.191
257.653
258.111
258.566
259.017
259.465
259.909
260.35
260.786
261.219
261.647
262.072
262.492
262.908
263.32
263.728
264.131
264.529
264.923
265.313
265.698
266.078
266.454
266.825
267.191
267.553
267.909
268.261
268.609
268.951
269.289
269.623
269.951
270.275
270.595
270.91
271.221
271.528
271.83
272.128
272.422
272.712
272.999
273.281
273.56
273.836
274.108
274.377
274.642
274.905
275.164
275.421
275.675
275.927
276.176
276.422
276.667
276.909
277.149
277.387
277.623
277.858
278.091
278.321
278.551
278.779
279.005
279.23
279.453
279.676
279.896
280.116
280.334
280.551
280.767
280.981
281.194
281.406
281.617
281.827
282.035
282.242
282.448
282.653
282.856
283.058
283.259
283.458
283.656
283.852
284.048
284.241
284.433
284.624
284.813
285.001
285.187
285.371
285.554
285.735
285.914
286.092
286.267
286.441
286.613
286.783
286.951
287.117
287.281
287.443
287.603
287.761
287.916
288.07
288.221
288.37
288.517
288.661
288.803
288.943
289.08
289.215
289.347
289.477
289.604
289.729
289.852
289.971
290.089
290.204
290.316
290.425
290.532
290.637
290.739
290.838
290.935
291.029
291.12
291.209
291.296
291.379
291.461
291.54
291.616
291.69
291.761
291.83
291.897
291.961
292.023
292.083
292.141
292.196
292.249
292.3
292.349
292.396
292.441
292.484
292.525
292.564
292.602
292.637
292.671
292.704
292.734
292.764
292.791
292.818
292.843
292.866
292.888
292.909
292.929
292.948
292.966
292.982
292.998
293.013
293.026
293.039
293.051
293.063
293.073
293.083
293.092
293.101
293.109
293.116
293.123
293.129
293.135
293.141
293.146
293.151
293.155
293.159
293.163
293.166
293.169
293.172
293.175
293.177
293.18
293.182
293.183
293.185
293.187
293.188
293.19
293.191
293.192
293.193
293.194
293.195
293.195
293.196
293.197
293.197
293.198
293.198
293.199
293.199
293.199
293.199
293.2
293.2
293.2
293.2
293.201
293.201
293.201
293.201
293.201
293.201
293.201
293.201
293.201
293.202
293.202
293.202
293.202
293.202
293.202
293.202
293.202
293.202
293.202
293.202
293.202
293.202
293.202
293.202
293.202
293.202
293.202
293.202
293.202
293.202
293.202
293.202
293.202
293.202
293.202
293.202
293.202
293.202
293.202
293.202
293.202
293.202
293.202
293.202
293.202
293.202
293.202
293.202
293.202
293.202
293.202
293.202
293.202
293.203
293.203
293.203
293.203
293.203
293.203
293.203
293.203
293.203
293.203
293.203
293.203
293.203
293.203
293.203
293.203
293.203
293.203
293.203
293.203
293.203
293.203
293.203
293.203
293.203
293.203
293.203
293.203
293.203
293.203
293.203
293.203
293.203
293.203
293.203
293.203
293.203
293.203
293.203
293.203
293.203
293.203
293.203
293.203
293.203
293.203
293.203
293.203
293.203
293.203
293.203
293.203
293.203
293.203
293.203
293.203
293.203
293.203
293.203
293.203
293.203
293.203
293.203
293.203
293.203
293.203
293.203
293.203
293.203
293.203
293.203
293.203
293.203
293.203
293.203
293.203
293.203
293.203
293.203
293.203
293.203
293.203
293.203
293.203
293.203
293.203
293.203
293.203
293.203
293.203
293.203
293.203
293.203
293.203
293.203
293.203
293.203
293.203
293.203
293.203
293.203
293.203
293.203
293.203
293.203
293.203
293.203
293.203
293.203
293.203
293.203
293.203
293.203
293.203
293.203
293.203
293.203
293.203
293.203
293.203
293.203
293.203
293.203
293.203
293.203
293.203
293.203
293.203
293.203
293.202
293.202
293.202
293.202
293.202
293.202
293.202
293.202
293.202
293.202
293.202
293.202
293.202
293.201
293.201
293.201
293.201
293.2
293.2
293.199
293.198
293.197
293.195
293.193
293.191
293.189
293.186
293.182
293.179
293.174
293.169
293.163
293.157
293.149
293.141
293.131
293.121
293.109
293.096
293.081
293.065
293.047
293.028
293.007
292.984
292.959
292.932
292.904
292.873
292.84
292.806
292.769
292.73
292.69
292.648
292.604
292.559
292.512
292.464
292.415
292.366
292.315
292.264
292.213
292.162
292.112
292.061
292.012
291.963
291.915
291.869
291.824
291.78
291.738
291.699
291.661
291.624
291.59
291.558
291.528
291.5
291.474
291.45
291.427
291.407
291.388
291.371
291.355
291.341
291.328
291.316
291.306
291.296
291.287
291.279
291.272
291.265
291.259
291.253
291.248
291.243
291.238
291.233
291.228
291.223
291.219
291.214
291.209
291.204
291.2
291.195
291.19
291.185
291.181
291.176
291.172
291.167
291.163
291.16
291.156
291.152
291.149
291.146
291.144
291.142
291.14
291.138
291.136
291.135
291.134
291.133
291.132
291.132
291.132
291.132
291.132
291.132
291.131
291.131
291.131
291.131
291.131
291.131
291.131
291.131
291.131
291.131
291.131
)
;

boundaryField
{
    sides
    {
        type            calculated;
        value           nonuniform List<scalar> 2(291.131 9.56679);
    }
    empty
    {
        type            empty;
    }
}


// ************************************************************************* //
