/*--------------------------------*- C++ -*----------------------------------*\
  =========                 |
  \\      /  F ield         | OpenFOAM: The Open Source CFD Toolbox
   \\    /   O peration     | Website:  https://openfoam.org
    \\  /    A nd           | Version:  9
     \\/     M anipulation  |
\*---------------------------------------------------------------------------*/
FoamFile
{
    format      ascii;
    class       volVectorField;
    location    "0.024";
    object      U;
}
// * * * * * * * * * * * * * * * * * * * * * * * * * * * * * * * * * * * * * //

dimensions      [0 1 -1 0 0 0 0];

internalField   nonuniform List<vector> 
1000
(
(9.56679 0 0)
(10.3032 0 0)
(10.974 0 0)
(11.5344 0 0)
(12.0741 0 0)
(12.6274 0 0)
(13.1896 0 0)
(13.7522 0 0)
(14.313 0 0)
(14.873 0 0)
(15.4331 0 0)
(15.9933 0 0)
(16.5537 0 0)
(17.1142 0 0)
(17.6747 0 0)
(18.2352 0 0)
(18.7957 0 0)
(19.3563 0 0)
(19.917 0 0)
(20.4778 0 0)
(21.0386 0 0)
(21.5995 0 0)
(22.1605 0 0)
(22.7216 0 0)
(23.2827 0 0)
(23.8439 0 0)
(24.4052 0 0)
(24.9666 0 0)
(25.528 0 0)
(26.0895 0 0)
(26.6511 0 0)
(27.2127 0 0)
(27.7744 0 0)
(28.3362 0 0)
(28.8981 0 0)
(29.46 0 0)
(30.022 0 0)
(30.5841 0 0)
(31.1463 0 0)
(31.7085 0 0)
(32.2708 0 0)
(32.8332 0 0)
(33.3956 0 0)
(33.9581 0 0)
(34.5207 0 0)
(35.0833 0 0)
(35.6461 0 0)
(36.2089 0 0)
(36.7717 0 0)
(37.3347 0 0)
(37.8977 0 0)
(38.4607 0 0)
(39.0239 0 0)
(39.5871 0 0)
(40.1503 0 0)
(40.7137 0 0)
(41.2771 0 0)
(41.8406 0 0)
(42.4041 0 0)
(42.9677 0 0)
(43.5314 0 0)
(44.0951 0 0)
(44.659 0 0)
(45.2229 0 0)
(45.7868 0 0)
(46.3508 0 0)
(46.9149 0 0)
(47.4791 0 0)
(48.0434 0 0)
(48.6077 0 0)
(49.1721 0 0)
(49.7365 0 0)
(50.301 0 0)
(50.8656 0 0)
(51.4303 0 0)
(51.995 0 0)
(52.5599 0 0)
(53.1247 0 0)
(53.6897 0 0)
(54.2547 0 0)
(54.8198 0 0)
(55.385 0 0)
(55.9502 0 0)
(56.5155 0 0)
(57.0808 0 0)
(57.6463 0 0)
(58.2118 0 0)
(58.7773 0 0)
(59.3429 0 0)
(59.9086 0 0)
(60.4744 0 0)
(61.0402 0 0)
(61.6061 0 0)
(62.1721 0 0)
(62.7381 0 0)
(63.3042 0 0)
(63.8703 0 0)
(64.4365 0 0)
(65.0028 0 0)
(65.5692 0 0)
(66.1356 0 0)
(66.7021 0 0)
(67.2686 0 0)
(67.8352 0 0)
(68.4019 0 0)
(68.9686 0 0)
(69.5354 0 0)
(70.1023 0 0)
(70.6692 0 0)
(71.2362 0 0)
(71.8032 0 0)
(72.3704 0 0)
(72.9375 0 0)
(73.5048 0 0)
(74.0721 0 0)
(74.6395 0 0)
(75.2069 0 0)
(75.7744 0 0)
(76.3419 0 0)
(76.9096 0 0)
(77.4772 0 0)
(78.045 0 0)
(78.6128 0 0)
(79.1806 0 0)
(79.7486 0 0)
(80.3166 0 0)
(80.8846 0 0)
(81.4527 0 0)
(82.0209 0 0)
(82.5891 0 0)
(83.1574 0 0)
(83.7257 0 0)
(84.2941 0 0)
(84.8626 0 0)
(85.4311 0 0)
(85.9997 0 0)
(86.5683 0 0)
(87.137 0 0)
(87.7058 0 0)
(88.2746 0 0)
(88.8435 0 0)
(89.4124 0 0)
(89.9814 0 0)
(90.5504 0 0)
(91.1195 0 0)
(91.6887 0 0)
(92.2579 0 0)
(92.8272 0 0)
(93.3965 0 0)
(93.9659 0 0)
(94.5353 0 0)
(95.1048 0 0)
(95.6743 0 0)
(96.2439 0 0)
(96.8136 0 0)
(97.3833 0 0)
(97.9531 0 0)
(98.5229 0 0)
(99.0927 0 0)
(99.6627 0 0)
(100.233 0 0)
(100.803 0 0)
(101.373 0 0)
(101.943 0 0)
(102.513 0 0)
(103.083 0 0)
(103.654 0 0)
(104.224 0 0)
(104.794 0 0)
(105.365 0 0)
(105.935 0 0)
(106.506 0 0)
(107.076 0 0)
(107.647 0 0)
(108.218 0 0)
(108.788 0 0)
(109.359 0 0)
(109.93 0 0)
(110.501 0 0)
(111.072 0 0)
(111.643 0 0)
(112.214 0 0)
(112.785 0 0)
(113.356 0 0)
(113.927 0 0)
(114.499 0 0)
(115.07 0 0)
(115.641 0 0)
(116.212 0 0)
(116.784 0 0)
(117.355 0 0)
(117.927 0 0)
(118.498 0 0)
(119.07 0 0)
(119.641 0 0)
(120.213 0 0)
(120.785 0 0)
(121.357 0 0)
(121.928 0 0)
(122.5 0 0)
(123.072 0 0)
(123.644 0 0)
(124.216 0 0)
(124.788 0 0)
(125.36 0 0)
(125.932 0 0)
(126.504 0 0)
(127.076 0 0)
(127.648 0 0)
(128.221 0 0)
(128.793 0 0)
(129.365 0 0)
(129.938 0 0)
(130.51 0 0)
(131.082 0 0)
(131.655 0 0)
(132.227 0 0)
(132.8 0 0)
(133.372 0 0)
(133.945 0 0)
(134.518 0 0)
(135.09 0 0)
(135.663 0 0)
(136.236 0 0)
(136.808 0 0)
(137.381 0 0)
(137.954 0 0)
(138.527 0 0)
(139.1 0 0)
(139.672 0 0)
(140.245 0 0)
(140.818 0 0)
(141.391 0 0)
(141.964 0 0)
(142.537 0 0)
(143.11 0 0)
(143.683 0 0)
(144.257 0 0)
(144.83 0 0)
(145.403 0 0)
(145.976 0 0)
(146.549 0 0)
(147.122 0 0)
(147.696 0 0)
(148.269 0 0)
(148.842 0 0)
(149.415 0 0)
(149.989 0 0)
(150.562 0 0)
(151.135 0 0)
(151.709 0 0)
(152.282 0 0)
(152.856 0 0)
(153.429 0 0)
(154.002 0 0)
(154.576 0 0)
(155.149 0 0)
(155.723 0 0)
(156.296 0 0)
(156.87 0 0)
(157.443 0 0)
(158.017 0 0)
(158.59 0 0)
(159.164 0 0)
(159.737 0 0)
(160.311 0 0)
(160.884 0 0)
(161.458 0 0)
(162.031 0 0)
(162.605 0 0)
(163.178 0 0)
(163.752 0 0)
(164.325 0 0)
(164.899 0 0)
(165.472 0 0)
(166.046 0 0)
(166.619 0 0)
(167.193 0 0)
(167.766 0 0)
(168.34 0 0)
(168.913 0 0)
(169.487 0 0)
(170.06 0 0)
(170.633 0 0)
(171.207 0 0)
(171.78 0 0)
(172.354 0 0)
(172.927 0 0)
(173.5 0 0)
(174.073 0 0)
(174.647 0 0)
(175.22 0 0)
(175.793 0 0)
(176.366 0 0)
(176.939 0 0)
(177.513 0 0)
(178.086 0 0)
(178.659 0 0)
(179.232 0 0)
(179.805 0 0)
(180.378 0 0)
(180.95 0 0)
(181.523 0 0)
(182.096 0 0)
(182.669 0 0)
(183.242 0 0)
(183.814 0 0)
(184.387 0 0)
(184.959 0 0)
(185.532 0 0)
(186.104 0 0)
(186.676 0 0)
(187.249 0 0)
(187.821 0 0)
(188.393 0 0)
(188.965 0 0)
(189.537 0 0)
(190.109 0 0)
(190.681 0 0)
(191.253 0 0)
(191.824 0 0)
(192.396 0 0)
(192.967 0 0)
(193.539 0 0)
(194.11 0 0)
(194.681 0 0)
(195.252 0 0)
(195.823 0 0)
(196.394 0 0)
(196.965 0 0)
(197.535 0 0)
(198.106 0 0)
(198.676 0 0)
(199.246 0 0)
(199.816 0 0)
(200.386 0 0)
(200.956 0 0)
(201.526 0 0)
(202.095 0 0)
(202.664 0 0)
(203.234 0 0)
(203.803 0 0)
(204.371 0 0)
(204.94 0 0)
(205.509 0 0)
(206.077 0 0)
(206.645 0 0)
(207.213 0 0)
(207.781 0 0)
(208.348 0 0)
(208.915 0 0)
(209.482 0 0)
(210.049 0 0)
(210.616 0 0)
(211.182 0 0)
(211.748 0 0)
(212.314 0 0)
(212.879 0 0)
(213.445 0 0)
(214.01 0 0)
(214.574 0 0)
(215.139 0 0)
(215.703 0 0)
(216.267 0 0)
(216.83 0 0)
(217.393 0 0)
(217.956 0 0)
(218.518 0 0)
(219.08 0 0)
(219.642 0 0)
(220.203 0 0)
(220.764 0 0)
(221.325 0 0)
(221.885 0 0)
(222.444 0 0)
(223.003 0 0)
(223.562 0 0)
(224.12 0 0)
(224.678 0 0)
(225.235 0 0)
(225.792 0 0)
(226.348 0 0)
(226.903 0 0)
(227.458 0 0)
(228.013 0 0)
(228.567 0 0)
(229.12 0 0)
(229.672 0 0)
(230.224 0 0)
(230.775 0 0)
(231.326 0 0)
(231.875 0 0)
(232.424 0 0)
(232.973 0 0)
(233.52 0 0)
(234.067 0 0)
(234.612 0 0)
(235.157 0 0)
(235.701 0 0)
(236.244 0 0)
(236.786 0 0)
(237.327 0 0)
(237.867 0 0)
(238.406 0 0)
(238.944 0 0)
(239.481 0 0)
(240.016 0 0)
(240.551 0 0)
(241.084 0 0)
(241.616 0 0)
(242.146 0 0)
(242.675 0 0)
(243.203 0 0)
(243.729 0 0)
(244.254 0 0)
(244.778 0 0)
(245.299 0 0)
(245.819 0 0)
(246.338 0 0)
(246.854 0 0)
(247.369 0 0)
(247.882 0 0)
(248.393 0 0)
(248.902 0 0)
(249.409 0 0)
(249.914 0 0)
(250.417 0 0)
(250.917 0 0)
(251.415 0 0)
(251.911 0 0)
(252.404 0 0)
(252.895 0 0)
(253.384 0 0)
(253.871 0 0)
(254.354 0 0)
(254.835 0 0)
(255.312 0 0)
(255.786 0 0)
(256.258 0 0)
(256.726 0 0)
(257.191 0 0)
(257.653 0 0)
(258.111 0 0)
(258.566 0 0)
(259.017 0 0)
(259.465 0 0)
(259.909 0 0)
(260.35 0 0)
(260.786 0 0)
(261.219 0 0)
(261.647 0 0)
(262.072 0 0)
(262.492 0 0)
(262.908 0 0)
(263.32 0 0)
(263.728 0 0)
(264.131 0 0)
(264.529 0 0)
(264.923 0 0)
(265.313 0 0)
(265.698 0 0)
(266.078 0 0)
(266.454 0 0)
(266.825 0 0)
(267.191 0 0)
(267.553 0 0)
(267.909 0 0)
(268.261 0 0)
(268.609 0 0)
(268.951 0 0)
(269.289 0 0)
(269.623 0 0)
(269.951 0 0)
(270.275 0 0)
(270.595 0 0)
(270.91 0 0)
(271.221 0 0)
(271.528 0 0)
(271.83 0 0)
(272.128 0 0)
(272.422 0 0)
(272.712 0 0)
(272.999 0 0)
(273.281 0 0)
(273.56 0 0)
(273.836 0 0)
(274.108 0 0)
(274.377 0 0)
(274.642 0 0)
(274.905 0 0)
(275.164 0 0)
(275.421 0 0)
(275.675 0 0)
(275.927 0 0)
(276.176 0 0)
(276.422 0 0)
(276.667 0 0)
(276.909 0 0)
(277.149 0 0)
(277.387 0 0)
(277.623 0 0)
(277.858 0 0)
(278.091 0 0)
(278.321 0 0)
(278.551 0 0)
(278.779 0 0)
(279.005 0 0)
(279.23 0 0)
(279.453 0 0)
(279.676 0 0)
(279.896 0 0)
(280.116 0 0)
(280.334 0 0)
(280.551 0 0)
(280.767 0 0)
(280.981 0 0)
(281.194 0 0)
(281.406 0 0)
(281.617 0 0)
(281.827 0 0)
(282.035 0 0)
(282.242 0 0)
(282.448 0 0)
(282.653 0 0)
(282.856 0 0)
(283.058 0 0)
(283.259 0 0)
(283.458 0 0)
(283.656 0 0)
(283.852 0 0)
(284.048 0 0)
(284.241 0 0)
(284.433 0 0)
(284.624 0 0)
(284.813 0 0)
(285.001 0 0)
(285.187 0 0)
(285.371 0 0)
(285.554 0 0)
(285.735 0 0)
(285.914 0 0)
(286.092 0 0)
(286.267 0 0)
(286.441 0 0)
(286.613 0 0)
(286.783 0 0)
(286.951 0 0)
(287.117 0 0)
(287.281 0 0)
(287.443 0 0)
(287.603 0 0)
(287.761 0 0)
(287.916 0 0)
(288.07 0 0)
(288.221 0 0)
(288.37 0 0)
(288.517 0 0)
(288.661 0 0)
(288.803 0 0)
(288.943 0 0)
(289.08 0 0)
(289.215 0 0)
(289.347 0 0)
(289.477 0 0)
(289.604 0 0)
(289.729 0 0)
(289.852 0 0)
(289.971 0 0)
(290.089 0 0)
(290.204 0 0)
(290.316 0 0)
(290.425 0 0)
(290.532 0 0)
(290.637 0 0)
(290.739 0 0)
(290.838 0 0)
(290.935 0 0)
(291.029 0 0)
(291.12 0 0)
(291.209 0 0)
(291.296 0 0)
(291.379 0 0)
(291.461 0 0)
(291.54 0 0)
(291.616 0 0)
(291.69 0 0)
(291.761 0 0)
(291.83 0 0)
(291.897 0 0)
(291.961 0 0)
(292.023 0 0)
(292.083 0 0)
(292.141 0 0)
(292.196 0 0)
(292.249 0 0)
(292.3 0 0)
(292.349 0 0)
(292.396 0 0)
(292.441 0 0)
(292.484 0 0)
(292.525 0 0)
(292.564 0 0)
(292.602 0 0)
(292.637 0 0)
(292.671 0 0)
(292.704 0 0)
(292.734 0 0)
(292.764 0 0)
(292.791 0 0)
(292.818 0 0)
(292.843 0 0)
(292.866 0 0)
(292.888 0 0)
(292.909 0 0)
(292.929 0 0)
(292.948 0 0)
(292.966 0 0)
(292.982 0 0)
(292.998 0 0)
(293.013 0 0)
(293.026 0 0)
(293.039 0 0)
(293.051 0 0)
(293.063 0 0)
(293.073 0 0)
(293.083 0 0)
(293.092 0 0)
(293.101 0 0)
(293.109 0 0)
(293.116 0 0)
(293.123 0 0)
(293.129 0 0)
(293.135 0 0)
(293.141 0 0)
(293.146 0 0)
(293.151 0 0)
(293.155 0 0)
(293.159 0 0)
(293.163 0 0)
(293.166 0 0)
(293.169 0 0)
(293.172 0 0)
(293.175 0 0)
(293.177 0 0)
(293.18 0 0)
(293.182 0 0)
(293.183 0 0)
(293.185 0 0)
(293.187 0 0)
(293.188 0 0)
(293.19 0 0)
(293.191 0 0)
(293.192 0 0)
(293.193 0 0)
(293.194 0 0)
(293.195 0 0)
(293.195 0 0)
(293.196 0 0)
(293.197 0 0)
(293.197 0 0)
(293.198 0 0)
(293.198 0 0)
(293.199 0 0)
(293.199 0 0)
(293.199 0 0)
(293.199 0 0)
(293.2 0 0)
(293.2 0 0)
(293.2 0 0)
(293.2 0 0)
(293.201 0 0)
(293.201 0 0)
(293.201 0 0)
(293.201 0 0)
(293.201 0 0)
(293.201 0 0)
(293.201 0 0)
(293.201 0 0)
(293.201 0 0)
(293.202 0 0)
(293.202 0 0)
(293.202 0 0)
(293.202 0 0)
(293.202 0 0)
(293.202 0 0)
(293.202 0 0)
(293.202 0 0)
(293.202 0 0)
(293.202 0 0)
(293.202 0 0)
(293.202 0 0)
(293.202 0 0)
(293.202 0 0)
(293.202 0 0)
(293.202 0 0)
(293.202 0 0)
(293.202 0 0)
(293.202 0 0)
(293.202 0 0)
(293.202 0 0)
(293.202 0 0)
(293.202 0 0)
(293.202 0 0)
(293.202 0 0)
(293.202 0 0)
(293.202 0 0)
(293.202 0 0)
(293.202 0 0)
(293.202 0 0)
(293.202 0 0)
(293.202 0 0)
(293.202 0 0)
(293.202 0 0)
(293.202 0 0)
(293.202 0 0)
(293.202 0 0)
(293.202 0 0)
(293.202 0 0)
(293.202 0 0)
(293.202 0 0)
(293.202 0 0)
(293.202 0 0)
(293.202 0 0)
(293.203 0 0)
(293.203 0 0)
(293.203 0 0)
(293.203 0 0)
(293.203 0 0)
(293.203 0 0)
(293.203 0 0)
(293.203 0 0)
(293.203 0 0)
(293.203 0 0)
(293.203 0 0)
(293.203 0 0)
(293.203 0 0)
(293.203 0 0)
(293.203 0 0)
(293.203 0 0)
(293.203 0 0)
(293.203 0 0)
(293.203 0 0)
(293.203 0 0)
(293.203 0 0)
(293.203 0 0)
(293.203 0 0)
(293.203 0 0)
(293.203 0 0)
(293.203 0 0)
(293.203 0 0)
(293.203 0 0)
(293.203 0 0)
(293.203 0 0)
(293.203 0 0)
(293.203 0 0)
(293.203 0 0)
(293.203 0 0)
(293.203 0 0)
(293.203 0 0)
(293.203 0 0)
(293.203 0 0)
(293.203 0 0)
(293.203 0 0)
(293.203 0 0)
(293.203 0 0)
(293.203 0 0)
(293.203 0 0)
(293.203 0 0)
(293.203 0 0)
(293.203 0 0)
(293.203 0 0)
(293.203 0 0)
(293.203 0 0)
(293.203 0 0)
(293.203 0 0)
(293.203 0 0)
(293.203 0 0)
(293.203 0 0)
(293.203 0 0)
(293.203 0 0)
(293.203 0 0)
(293.203 0 0)
(293.203 0 0)
(293.203 0 0)
(293.203 0 0)
(293.203 0 0)
(293.203 0 0)
(293.203 0 0)
(293.203 0 0)
(293.203 0 0)
(293.203 0 0)
(293.203 0 0)
(293.203 0 0)
(293.203 0 0)
(293.203 0 0)
(293.203 0 0)
(293.203 0 0)
(293.203 0 0)
(293.203 0 0)
(293.203 0 0)
(293.203 0 0)
(293.203 0 0)
(293.203 0 0)
(293.203 0 0)
(293.203 0 0)
(293.203 0 0)
(293.203 0 0)
(293.203 0 0)
(293.203 0 0)
(293.203 0 0)
(293.203 0 0)
(293.203 0 0)
(293.203 0 0)
(293.203 0 0)
(293.203 0 0)
(293.203 0 0)
(293.203 0 0)
(293.203 0 0)
(293.203 0 0)
(293.203 0 0)
(293.203 0 0)
(293.203 0 0)
(293.203 0 0)
(293.203 0 0)
(293.203 0 0)
(293.203 0 0)
(293.203 0 0)
(293.203 0 0)
(293.203 0 0)
(293.203 0 0)
(293.203 0 0)
(293.203 0 0)
(293.203 0 0)
(293.203 0 0)
(293.203 0 0)
(293.203 0 0)
(293.203 0 0)
(293.203 0 0)
(293.203 0 0)
(293.203 0 0)
(293.203 0 0)
(293.203 0 0)
(293.203 0 0)
(293.203 0 0)
(293.203 0 0)
(293.203 0 0)
(293.203 0 0)
(293.203 0 0)
(293.203 0 0)
(293.203 0 0)
(293.203 0 0)
(293.203 0 0)
(293.202 0 0)
(293.202 0 0)
(293.202 0 0)
(293.202 0 0)
(293.202 0 0)
(293.202 0 0)
(293.202 0 0)
(293.202 0 0)
(293.202 0 0)
(293.202 0 0)
(293.202 0 0)
(293.202 0 0)
(293.202 0 0)
(293.201 0 0)
(293.201 0 0)
(293.201 0 0)
(293.201 0 0)
(293.2 0 0)
(293.2 0 0)
(293.199 0 0)
(293.198 0 0)
(293.197 0 0)
(293.195 0 0)
(293.193 0 0)
(293.191 0 0)
(293.189 0 0)
(293.186 0 0)
(293.182 0 0)
(293.179 0 0)
(293.174 0 0)
(293.169 0 0)
(293.163 0 0)
(293.157 0 0)
(293.149 0 0)
(293.141 0 0)
(293.131 0 0)
(293.121 0 0)
(293.109 0 0)
(293.096 0 0)
(293.081 0 0)
(293.065 0 0)
(293.047 0 0)
(293.028 0 0)
(293.007 0 0)
(292.984 0 0)
(292.959 0 0)
(292.932 0 0)
(292.904 0 0)
(292.873 0 0)
(292.84 0 0)
(292.806 0 0)
(292.769 0 0)
(292.73 0 0)
(292.69 0 0)
(292.648 0 0)
(292.604 0 0)
(292.559 0 0)
(292.512 0 0)
(292.464 0 0)
(292.415 0 0)
(292.366 0 0)
(292.315 0 0)
(292.264 0 0)
(292.213 0 0)
(292.162 0 0)
(292.112 0 0)
(292.061 0 0)
(292.012 0 0)
(291.963 0 0)
(291.915 0 0)
(291.869 0 0)
(291.824 0 0)
(291.78 0 0)
(291.738 0 0)
(291.699 0 0)
(291.661 0 0)
(291.624 0 0)
(291.59 0 0)
(291.558 0 0)
(291.528 0 0)
(291.5 0 0)
(291.474 0 0)
(291.45 0 0)
(291.427 0 0)
(291.407 0 0)
(291.388 0 0)
(291.371 0 0)
(291.355 0 0)
(291.341 0 0)
(291.328 0 0)
(291.316 0 0)
(291.306 0 0)
(291.296 0 0)
(291.287 0 0)
(291.279 0 0)
(291.272 0 0)
(291.265 0 0)
(291.259 0 0)
(291.253 0 0)
(291.248 0 0)
(291.243 0 0)
(291.238 0 0)
(291.233 0 0)
(291.228 0 0)
(291.223 0 0)
(291.219 0 0)
(291.214 0 0)
(291.209 0 0)
(291.204 0 0)
(291.2 0 0)
(291.195 0 0)
(291.19 0 0)
(291.185 0 0)
(291.181 0 0)
(291.176 0 0)
(291.172 0 0)
(291.167 0 0)
(291.163 0 0)
(291.16 0 0)
(291.156 0 0)
(291.152 0 0)
(291.149 0 0)
(291.146 0 0)
(291.144 0 0)
(291.142 0 0)
(291.14 0 0)
(291.138 0 0)
(291.136 0 0)
(291.135 0 0)
(291.134 0 0)
(291.133 0 0)
(291.132 0 0)
(291.132 0 0)
(291.132 0 0)
(291.132 0 0)
(291.132 0 0)
(291.132 0 0)
(291.131 0 0)
(291.131 0 0)
(291.131 0 0)
(291.131 0 0)
(291.131 0 0)
(291.131 0 0)
(291.131 0 0)
(291.131 0 0)
(291.131 0 0)
(291.131 0 0)
(291.131 0 0)
)
;

boundaryField
{
    sides
    {
        type            zeroGradient;
    }
    empty
    {
        type            empty;
    }
}


// ************************************************************************* //
