/*--------------------------------*- C++ -*----------------------------------*\
  =========                 |
  \\      /  F ield         | OpenFOAM: The Open Source CFD Toolbox
   \\    /   O peration     | Website:  https://openfoam.org
    \\  /    A nd           | Version:  9
     \\/     M anipulation  |
\*---------------------------------------------------------------------------*/
FoamFile
{
    format      ascii;
    class       volScalarField;
    location    "0.006";
    object      mag(U);
}
// * * * * * * * * * * * * * * * * * * * * * * * * * * * * * * * * * * * * * //

dimensions      [0 1 -1 0 0 0 0];

internalField   nonuniform List<scalar> 
1000
(
6.85e-13
6.26208e-13
5.8225e-13
6.39104e-13
5.90228e-13
6.33697e-13
6.20546e-13
5.93688e-13
6.25965e-13
6.39726e-13
6.64733e-13
6.56784e-13
6.94073e-13
6.4476e-13
6.55976e-13
5.30972e-13
4.31516e-13
4.93633e-13
4.66064e-13
3.96894e-13
3.91285e-13
4.33367e-13
3.68099e-13
2.51857e-13
3.18715e-13
3.83868e-13
4.58434e-13
4.7013e-13
5.04484e-13
5.04484e-13
5.157e-13
4.82962e-13
4.71226e-13
5.27466e-13
5.40638e-13
4.8566e-13
4.52536e-13
4.30727e-13
3.72976e-13
3.58986e-13
3.90839e-13
4.08918e-13
3.48411e-13
2.97287e-13
3.43014e-13
1.97031e-13
9.96496e-14
2.06855e-13
2.23401e-13
2.63254e-13
3.09761e-13
3.09485e-13
2.79738e-13
2.8129e-13
2.57172e-13
2.92799e-13
2.76621e-13
2.72419e-13
3.12689e-13
3.58746e-13
3.92781e-13
2.85995e-13
2.3226e-13
2.74257e-13
2.68666e-13
2.02276e-13
2.19903e-13
2.49059e-13
2.22367e-13
2.10855e-13
2.46771e-13
2.3959e-13
2.40104e-13
2.23724e-13
2.55737e-13
3.18902e-13
2.52012e-13
2.89554e-13
3.23171e-13
2.56081e-13
2.41834e-13
2.76105e-13
2.57022e-13
3.0492e-13
2.50959e-13
2.26583e-13
1.87571e-13
2.55785e-13
2.65033e-13
2.53245e-13
3.00589e-13
3.0177e-13
3.00098e-13
2.79528e-13
2.70328e-13
2.40853e-13
2.80991e-13
2.94877e-13
3.53114e-13
2.97813e-13
3.02585e-13
3.09567e-13
2.93428e-13
3.0388e-13
2.9189e-13
3.04925e-13
3.17618e-13
3.14994e-13
2.96575e-13
3.18474e-13
3.57327e-13
3.23035e-13
2.79232e-13
2.34456e-13
1.69539e-13
1.42056e-13
1.94707e-13
2.49185e-13
2.01067e-13
2.44044e-13
2.48959e-13
2.38124e-13
2.07229e-13
1.07714e-13
8.53341e-14
1.29711e-13
8.64745e-14
4.91477e-14
6.12129e-14
3.78271e-14
8.90118e-14
2.70525e-14
3.61732e-14
1.40972e-14
2.51181e-14
2.35863e-14
3.53748e-14
4.77279e-14
1.49992e-14
2.18565e-14
2.43518e-14
1.13773e-14
2.22553e-14
3.551e-14
4.65812e-14
1.51693e-14
8.23986e-14
7.42888e-14
6.97146e-15
7.65581e-15
3.08508e-14
1.57253e-14
8.83304e-14
6.84125e-14
9.10883e-14
4.88266e-14
1.09249e-13
1.44957e-13
1.37657e-13
1.30433e-13
9.82117e-14
1.23193e-13
7.0144e-14
2.84393e-14
6.01709e-14
2.25127e-14
2.24228e-14
1.01552e-13
3.58287e-14
3.67034e-14
1.40244e-14
7.13635e-14
6.52889e-14
7.73703e-14
3.4666e-14
8.04661e-14
4.15743e-14
2.83229e-14
8.52996e-14
1.23402e-13
1.55606e-13
1.24743e-13
1.42609e-13
1.22378e-13
9.84156e-14
7.50617e-14
5.02058e-14
4.36601e-14
9.72298e-14
1.06715e-13
7.71604e-14
6.51608e-14
1.09616e-13
1.69473e-13
2.12442e-13
2.02226e-13
1.81219e-13
1.09741e-13
1.01205e-13
1.30778e-13
1.80822e-13
2.16909e-13
2.27237e-13
1.57291e-13
4.84144e-14
1.57016e-14
1.21331e-13
1.64518e-13
1.14068e-13
1.23041e-13
1.62098e-13
1.05426e-13
6.32025e-14
1.71428e-14
6.65611e-14
1.46968e-13
1.25958e-13
1.94194e-13
3.26259e-13
4.43676e-13
4.49977e-13
4.61355e-13
4.14873e-13
4.20077e-13
4.08528e-13
3.62148e-13
3.50211e-13
3.26244e-13
2.07576e-13
9.00124e-14
3.49422e-14
4.49287e-14
7.6775e-14
2.1636e-14
3.85343e-14
2.41046e-14
1.84533e-14
6.01109e-14
1.5711e-13
1.93914e-13
1.4887e-13
2.02666e-14
4.34479e-14
7.579e-14
1.04397e-13
1.29929e-13
1.41233e-13
7.44475e-14
2.04109e-14
4.18361e-14
6.16784e-14
1.93634e-14
6.79425e-14
5.69195e-14
2.25522e-13
7.02443e-13
2.52749e-12
7.74271e-12
2.33232e-11
6.79102e-11
1.89579e-10
5.16915e-10
1.39397e-09
3.72683e-09
9.914e-09
2.62465e-08
6.91763e-08
1.81599e-07
4.75078e-07
1.23952e-06
3.22818e-06
8.40025e-06
2.18638e-05
5.69848e-05
0.000148908
0.000390588
0.00102955
0.00272977
0.00728583
0.0195856
0.0530432
0.144755
0.398198
1.10521
3.12201
7.99098
13.4149
17.0704
19.5563
21.4343
22.9942
24.3893
25.7063
26.996
28.2874
29.5951
30.9238
32.2718
33.6349
35.0081
36.3873
37.7696
39.1533
40.5374
41.9214
43.305
44.6882
46.0708
47.453
48.8346
50.2156
51.5962
52.9763
54.3559
55.735
57.1136
58.4918
59.8695
61.2469
62.6238
64.0004
65.3766
66.7525
68.1281
69.5034
70.8783
72.253
73.6274
75.0016
76.3756
77.7493
79.1228
80.4961
81.8693
83.2422
84.615
85.9876
87.36
88.7323
90.1045
91.4765
92.8484
94.2201
95.5918
96.9633
98.3348
99.7061
101.077
102.449
103.82
105.191
106.562
107.932
109.303
110.674
112.045
113.415
114.786
116.157
117.527
118.898
120.268
121.639
123.009
124.379
125.75
127.12
128.491
129.861
131.231
132.602
133.972
135.342
136.713
138.083
139.454
140.824
142.195
143.565
144.935
146.306
147.677
149.047
150.418
151.788
153.159
154.53
155.9
157.271
158.642
160.013
161.384
162.755
164.126
165.497
166.868
168.239
169.61
170.981
172.353
173.724
175.095
176.467
177.838
179.21
180.582
181.953
183.325
184.697
186.069
187.441
188.813
190.185
191.557
192.929
194.301
195.673
197.046
198.418
199.79
201.163
202.535
203.908
205.281
206.653
208.026
209.399
210.772
212.145
213.518
214.891
216.264
217.637
219.01
220.383
221.756
223.129
224.502
225.875
227.248
228.622
229.995
231.368
232.741
234.114
235.487
236.861
238.234
239.607
240.979
242.352
243.725
245.098
246.471
247.843
249.216
250.588
251.96
253.332
254.704
256.076
257.447
258.819
260.19
261.561
262.932
264.302
265.673
267.043
268.412
269.782
271.151
272.519
273.887
275.255
276.621
277.987
279.351
280.713
282.072
283.425
284.769
286.097
287.394
288.636
289.787
290.802
291.637
292.273
292.726
293.039
293.258
293.419
293.537
293.615
293.653
293.668
293.67
293.669
293.668
293.668
293.67
293.671
293.667
293.64
293.571
293.507
293.473
293.461
293.458
293.458
293.456
293.441
293.393
293.337
293.304
293.289
293.283
293.279
293.275
293.264
293.228
293.156
293.097
293.068
293.058
293.059
293.075
293.124
293.172
293.21
293.247
293.296
293.353
293.397
293.42
293.428
293.426
293.41
293.399
293.398
293.409
293.436
293.45
293.451
293.437
293.393
293.361
293.351
293.35
293.355
293.358
293.355
293.325
293.273
293.243
293.231
293.228
293.227
293.223
293.199
293.15
293.121
293.113
293.124
293.189
293.274
293.316
293.332
293.334
293.326
293.321
293.324
293.352
293.39
293.408
293.411
293.397
293.368
293.355
293.355
293.372
293.397
293.405
293.403
293.368
293.321
293.3
293.295
293.303
293.319
293.325
293.319
293.278
293.227
293.202
293.194
293.194
293.198
293.2
293.196
293.186
293.184
293.195
293.249
293.32
293.361
293.378
293.377
293.349
293.324
293.319
293.333
293.376
293.407
293.419
293.415
293.374
293.346
293.34
293.351
293.381
293.399
293.4
293.372
293.307
293.275
293.27
293.283
293.316
293.335
293.336
293.3
293.225
293.185
293.172
293.174
293.193
293.231
293.247
293.24
293.226
293.234
293.27
293.318
293.362
293.395
293.398
293.348
293.305
293.303
293.326
293.356
293.397
293.427
293.422
293.359
293.321
293.322
293.34
293.355
293.38
293.408
293.373
293.28
293.248
293.26
293.277
293.299
293.342
293.367
293.291
293.22
293.228
293.348
293.908
293.744
287.412
291.583
296.551
298.992
298.218
292.44
289.867
289.722
289.827
290.19
291.569
295.455
297.37
297.42
296.731
294.161
290.629
289.886
289.793
290.13
292.254
296.059
296.861
296.993
296.5
293.688
290.397
289.871
289.994
290.527
292.812
295.884
296.48
296.461
295.997
293.679
290.746
290.234
290.211
290.669
293.118
295.68
296.097
296.16
295.667
293.15
290.709
290.406
290.494
291.038
293.367
295.534
295.931
295.837
295.342
293.165
291.122
290.875
290.913
291.379
293.609
295.372
295.673
295.699
295.188
292.841
291.258
291.095
291.135
291.625
293.72
295.297
295.512
295.382
294.869
292.868
291.513
291.347
291.389
291.812
293.681
295.007
295.211
295.186
294.694
292.699
291.612
291.471
291.484
291.942
293.762
294.893
295.002
294.89
294.404
292.676
291.756
291.64
291.731
292.15
293.741
294.739
294.868
294.831
294.403
292.766
291.97
291.852
291.869
292.297
293.862
294.681
294.756
294.688
294.256
292.805
292.071
291.976
292.075
292.455
293.793
294.505
294.567
294.523
294.155
292.822
292.196
292.092
292.11
292.49
293.805
294.381
294.431
294.396
294.051
292.836
292.196
292.131
292.201
292.53
293.66
294.209
294.277
294.253
293.997
292.951
292.383
292.302
292.32
292.601
293.67
294.211
294.228
293.484
284.451
204.863
31.4673
2.21586
0.147291
0.00976018
0.000647319
4.29934e-05
2.86061e-06
1.90708e-07
1.27384e-08
8.52376e-10
5.70613e-11
3.78492e-12
9.35499e-14
1.38667e-13
2.24243e-13
2.33256e-13
1.4666e-13
1.99622e-13
2.80026e-13
3.17917e-13
3.34724e-13
2.58512e-13
2.85075e-13
3.64028e-13
3.6309e-13
5.2135e-13
6.2661e-13
6.39583e-13
6.28106e-13
4.61738e-13
2.30201e-13
1.38985e-13
8.26176e-14
5.15731e-14
3.44982e-14
1.77725e-14
2.01571e-14
1.33554e-13
2.39693e-13
2.3966e-13
1.48996e-13
1.02932e-13
4.93913e-14
3.0889e-14
2.60261e-14
4.69348e-15
6.8968e-14
3.32719e-14
5.24643e-14
8.16893e-15
4.15352e-14
2.85824e-14
2.42672e-14
5.58804e-14
1.28779e-13
1.38306e-13
1.82207e-13
7.55791e-14
8.09992e-15
1.19641e-13
5.67046e-14
5.15686e-15
6.85898e-14
6.08368e-14
1.28486e-15
3.16816e-14
4.64711e-14
8.84423e-14
8.06842e-14
5.05245e-14
1.73674e-13
2.02628e-13
1.61813e-13
1.12946e-13
1.10253e-14
4.8682e-14
7.70243e-14
5.88011e-15
7.26672e-14
1.92859e-13
2.64706e-13
3.32082e-13
3.00325e-13
2.06407e-13
1.34609e-13
4.98833e-14
8.98519e-14
1.40526e-13
1.07818e-13
6.70761e-14
9.63965e-14
1.4021e-13
1.74846e-13
2.09956e-13
2.02332e-13
2.06113e-13
2.91497e-13
3.84526e-13
4.17262e-13
4.73416e-13
4.37867e-13
4.10459e-13
5.36245e-13
5.28205e-13
4.74425e-13
3.80308e-13
3.22966e-13
3.90039e-13
4.61663e-13
4.64008e-13
3.13198e-13
2.80369e-13
1.07485e-13
1.47332e-15
4.14474e-14
8.00534e-14
1.72783e-13
2.74194e-13
3.51107e-13
3.35307e-13
2.63048e-13
2.15758e-13
1.36351e-13
4.47138e-14
1.58832e-13
2.08004e-13
2.39304e-13
3.04468e-13
2.45349e-13
1.41662e-13
1.23784e-13
1.90782e-13
2.65287e-13
3.1168e-13
2.98216e-13
2.55432e-13
2.30134e-13
1.64829e-13
1.31074e-13
9.90782e-14
1.71879e-13
2.42368e-13
1.68308e-13
1.12103e-13
2.27722e-13
2.69467e-13
1.56747e-13
2.70737e-14
9.65019e-15
6.67062e-14
1.886e-14
4.44981e-14
1.18661e-13
8.56159e-14
3.95705e-14
3.59184e-14
3.16291e-14
2.03155e-13
1.49819e-13
2.14238e-13
3.40136e-13
1.90675e-13
1.15399e-13
5.24439e-14
9.43668e-15
4.69797e-14
4.02578e-14
)
;

boundaryField
{
    sides
    {
        type            calculated;
        value           nonuniform List<scalar> 2(4.02578e-14 6.85e-13);
    }
    empty
    {
        type            empty;
    }
}


// ************************************************************************* //
