/*--------------------------------*- C++ -*----------------------------------*\
  =========                 |
  \\      /  F ield         | OpenFOAM: The Open Source CFD Toolbox
   \\    /   O peration     | Website:  https://openfoam.org
    \\  /    A nd           | Version:  9
     \\/     M anipulation  |
\*---------------------------------------------------------------------------*/
FoamFile
{
    format      ascii;
    class       volScalarField;
    location    "0.019";
    object      ddt0(rho,e);
}
// * * * * * * * * * * * * * * * * * * * * * * * * * * * * * * * * * * * * * //

dimensions      [1 -1 -3 0 0 0 0];

internalField   nonuniform List<scalar> 
100
(
362824
340486
403742
442881
458502
467509
476313
486015
496013
505731
515471
523219
535205
532915
563052
527772
573369
580466
526347
598798
525466
669625
492064
406799
756621
451345
319305
710560
503161
99396.3
430736
650866
168997
-64876.5
379742
572265
84072.4
-235398
157405
576017
290771
-287613
-264023
339056
605962
111955
-451326
-327795
291557
593259
199039
-347698
-493415
-169186
457989
436159
4798.02
-249910
-356525
-254252
86516.9
271073
89274.4
935.195
-179433
-206391
-68685
-17418.8
24805.8
56150.8
34488.4
-105629
-151466
-81998.2
-24974.5
1207
-205043
-158853
169986
-116488
-293916
-394551
519950
73983.4
-721727
-279814
676654
-325988
-1.19499e+06
1.35277e+06
51069.3
-2.33817e+06
241163
1.57123e+06
-1.07614e+06
-1.84879e+06
936753
631739
-1.23483e+06
-1.32221e+06
)
;

boundaryField
{
    sides
    {
        type            calculated;
        value           nonuniform List<scalar> 2(-1.32221e+06 362824);
    }
    empty
    {
        type            empty;
    }
}


// ************************************************************************* //
