/*--------------------------------*- C++ -*----------------------------------*\
  =========                 |
  \\      /  F ield         | OpenFOAM: The Open Source CFD Toolbox
   \\    /   O peration     | Website:  https://openfoam.org
    \\  /    A nd           | Version:  9
     \\/     M anipulation  |
\*---------------------------------------------------------------------------*/
FoamFile
{
    format      ascii;
    class       volScalarField;
    location    "0.019";
    object      ddt0(p);
}
// * * * * * * * * * * * * * * * * * * * * * * * * * * * * * * * * * * * * * //

dimensions      [1 -1 -3 0 0 0 0];

internalField   nonuniform List<scalar> 
100
(
-4.56136e+06
-4.51072e+06
-4.49348e+06
-4.46134e+06
-4.42974e+06
-4.39804e+06
-4.36508e+06
-4.33074e+06
-4.29476e+06
-4.25674e+06
-4.21612e+06
-4.17249e+06
-4.12467e+06
-4.07369e+06
-4.01556e+06
-3.95609e+06
-3.88377e+06
-3.78985e+06
-3.70337e+06
-3.60391e+06
-3.4963e+06
-3.35583e+06
-3.20556e+06
-3.00291e+06
-2.82484e+06
-2.61809e+06
-2.34756e+06
-2.12599e+06
-1.87111e+06
-1.63487e+06
-1.40965e+06
-1.21566e+06
-1.04882e+06
-899856
-773470
-671303
-585623
-513548
-454304
-404107
-357783
-315486
-279856
-249326
-219000
-187552
-158242
-134304
-117799
-101087
-64329.6
-70931.3
-22010
-43733.5
-21075.6
-16842.1
14284.5
-10886.2
6066.2
64315.3
-51895.9
27953
1777.18
10680.7
5675.46
9849.97
5271.31
36564.5
37632.2
-45731.4
-48702.4
-8823.81
-24178.1
-13301
-15652.3
-10731.6
336410
423063
-635016
-120993
335477
770178
-1.35007e+06
-288839
1.3823e+06
597259
-2.05509e+06
191799
2.31672e+06
-2.39701e+06
-1.43175e+06
4.46433e+06
59109.6
-5.03898e+06
1.24557e+06
4.10898e+06
-1.68928e+06
-2.61401e+06
1.26453e+06
-593435
)
;

boundaryField
{
    sides
    {
        type            calculated;
        value           nonuniform List<scalar> 2(-593435 -4.56136e+06);
    }
    empty
    {
        type            empty;
    }
}


// ************************************************************************* //
