/*--------------------------------*- C++ -*----------------------------------*\
  =========                 |
  \\      /  F ield         | OpenFOAM: The Open Source CFD Toolbox
   \\    /   O peration     | Website:  https://openfoam.org
    \\  /    A nd           | Version:  9
     \\/     M anipulation  |
\*---------------------------------------------------------------------------*/
FoamFile
{
    format      ascii;
    class       volScalarField;
    location    "0.019";
    object      ddt0(rho,K);
}
// * * * * * * * * * * * * * * * * * * * * * * * * * * * * * * * * * * * * * //

dimensions      [1 -1 -3 0 0 0 0];

internalField   nonuniform List<scalar> 
100
(
24710.2
7219.13
-1810.19
-22119.4
-46058.5
-74337.5
-107239
-144493
-185878
-231149
-279941
-331873
-386222
-442610
-499667
-556520
-615370
-668918
-717928
-763036
-796990
-823143
-821352
-806412
-793860
-726888
-641302
-575068
-452388
-318090
-239942
-160429
-41884.4
42130.4
55619.6
75444.2
143681
187134
153019
107020
128523
181917
170139
89045
41600.1
84930.4
143773
119222
27341.5
-28814.9
19083.7
68764.7
103897
46854.9
-59714.3
-64313.4
7517.13
20353.7
47433.3
85979.7
-38369.9
-57286.1
-28918.2
-19855.4
12421.5
25949.3
6991.08
13331.6
10776.8
-32632.8
-43422.8
-9269.59
-10279.8
-19876.3
-28171.1
-20468
194726
219353
-304693
-92325.7
208719
387134
-674353
-210678
741540
346006
-996255
121471
1.21886e+06
-1.23887e+06
-660194
2.38233e+06
78019.4
-2.53163e+06
600726
2.2679e+06
-695129
-1.53872e+06
181435
-190390
)
;

boundaryField
{
    sides
    {
        type            calculated;
        value           nonuniform List<scalar> 2(-190390 24710.2);
    }
    empty
    {
        type            empty;
    }
}


// ************************************************************************* //
