/*--------------------------------*- C++ -*----------------------------------*\
  =========                 |
  \\      /  F ield         | OpenFOAM: The Open Source CFD Toolbox
   \\    /   O peration     | Website:  https://openfoam.org
    \\  /    A nd           | Version:  9
     \\/     M anipulation  |
\*---------------------------------------------------------------------------*/
FoamFile
{
    format      ascii;
    class       volScalarField;
    location    "0.019";
    object      mag(U);
}
// * * * * * * * * * * * * * * * * * * * * * * * * * * * * * * * * * * * * * //

dimensions      [0 1 -1 0 0 0 0];

internalField   nonuniform List<scalar> 
100
(
29.2833
38.0337
45.0165
51.3147
57.7598
64.2225
70.6938
77.1767
83.6685
90.1665
96.6681
103.169
109.668
116.154
122.639
129.085
135.534
141.92
148.248
154.534
160.748
166.92
172.935
178.827
184.614
190.202
195.604
200.839
205.831
210.599
215.198
219.601
223.817
227.892
231.842
235.666
239.384
243.012
246.55
249.999
253.366
256.652
259.842
262.924
265.904
268.783
271.545
274.163
276.629
278.956
281.13
283.14
284.967
286.57
287.995
289.271
290.334
291.202
291.918
292.376
292.675
292.939
293.078
293.14
293.179
293.194
293.195
293.184
293.155
293.102
293.065
293.052
293.033
293.015
293.002
292.983
292.944
292.874
292.818
292.804
292.78
292.706
292.652
292.659
292.596
292.428
292.323
292.289
292.116
291.936
291.928
291.77
291.457
291.45
291.557
291.331
291.161
291.293
291.537
291.785
)
;

boundaryField
{
    sides
    {
        type            calculated;
        value           nonuniform List<scalar> 2(291.785 29.2833);
    }
    empty
    {
        type            empty;
    }
}


// ************************************************************************* //
