/*--------------------------------*- C++ -*----------------------------------*\
  =========                 |
  \\      /  F ield         | OpenFOAM: The Open Source CFD Toolbox
   \\    /   O peration     | Website:  https://openfoam.org
    \\  /    A nd           | Version:  9
     \\/     M anipulation  |
\*---------------------------------------------------------------------------*/
FoamFile
{
    format      ascii;
    class       surfaceScalarField;
    location    "0.019";
    object      phi_0;
}
// * * * * * * * * * * * * * * * * * * * * * * * * * * * * * * * * * * * * * //

dimensions      [1 0 -1 0 0 0 0];

internalField   nonuniform List<scalar> 
99
(
88.3957
103.863
119.358
134.798
150.154
165.416
180.58
195.643
210.599
225.442
240.163
254.749
269.191
283.461
297.578
311.45
325.141
338.53
351.559
364.353
376.691
388.754
400.08
410.618
421.03
430.347
438.586
446.611
453.51
459.084
464.351
469.266
472.982
475.891
478.972
481.97
484.031
485.426
487.149
489.263
490.842
491.508
492.087
493.369
494.907
495.681
495.605
495.614
496.396
497.524
498.004
497.776
497.19
497.11
497.792
498.43
498.389
498.091
497.595
497.042
497.33
497.599
497.712
497.678
497.419
497.111
497.002
496.857
496.765
496.992
497.2
497.088
496.967
496.901
496.92
496.957
495.564
493.944
496.284
496.532
495.023
491.933
497.12
498.18
492.616
490.255
497.998
496.924
487.618
497.402
502.236
484.256
484.381
503.25
497.667
481.523
488.396
497.94
492.083
)
;

boundaryField
{
    sides
    {
        type            calculated;
        value           nonuniform List<scalar> 2(492.293 -72.7297);
    }
    empty
    {
        type            empty;
        value           nonuniform List<scalar> 0();
    }
}


// ************************************************************************* //
