/*--------------------------------*- C++ -*----------------------------------*\
  =========                 |
  \\      /  F ield         | OpenFOAM: The Open Source CFD Toolbox
   \\    /   O peration     | Website:  https://openfoam.org
    \\  /    A nd           | Version:  9
     \\/     M anipulation  |
\*---------------------------------------------------------------------------*/
FoamFile
{
    format      ascii;
    class       volScalarField;
    location    "0.019";
    object      T;
}
// * * * * * * * * * * * * * * * * * * * * * * * * * * * * * * * * * * * * * //

dimensions      [0 0 0 1 0 0 0];

internalField   nonuniform List<scalar> 
100
(
287.465
287.339
287.078
286.675
286.243
285.819
285.405
284.993
284.582
284.169
283.755
283.335
282.917
282.477
282.074
281.556
281.238
280.575
280.277
279.625
279.244
278.634
277.898
277.551
276.781
275.843
275.401
274.523
273.261
272.549
271.778
270.393
269.143
268.391
267.421
265.943
264.636
263.849
263.015
261.679
260.258
259.345
258.783
257.901
256.553
255.345
254.731
254.376
253.694
252.583
251.571
251.061
250.917
250.699
250.177
249.406
248.921
248.814
248.866
248.904
248.848
248.645
248.489
248.488
248.545
248.704
248.787
248.804
248.795
248.781
248.79
248.841
248.97
249.082
249.143
249.179
249.199
249.155
249.192
249.393
249.532
249.536
249.559
249.8
249.871
249.772
249.895
250.28
250.253
250.168
250.743
250.848
250.494
250.959
251.732
251.554
251.209
251.636
252.217
253.863
)
;

boundaryField
{
    sides
    {
        type            zeroGradient;
    }
    empty
    {
        type            empty;
    }
}


// ************************************************************************* //
