/*--------------------------------*- C++ -*----------------------------------*\
  =========                 |
  \\      /  F ield         | OpenFOAM: The Open Source CFD Toolbox
   \\    /   O peration     | Website:  https://openfoam.org
    \\  /    A nd           | Version:  9
     \\/     M anipulation  |
\*---------------------------------------------------------------------------*/
FoamFile
{
    format      ascii;
    class       volScalarField;
    location    "0.02";
    object      mag(U);
}
// * * * * * * * * * * * * * * * * * * * * * * * * * * * * * * * * * * * * * //

dimensions      [0 1 -1 0 0 0 0];

internalField   nonuniform List<scalar> 
1000
(
6.71278
7.7485
8.51934
9.18649
9.87568
10.5868
11.2993
12.008
12.7155
13.4234
14.1317
14.8401
15.5486
16.2571
16.9658
17.6746
18.3835
19.0925
19.8016
20.5108
21.2201
21.9295
22.639
23.3486
24.0584
24.7682
25.4782
26.1882
26.8983
27.6086
28.3189
29.0294
29.74
30.4506
31.1614
31.8722
32.5832
33.2942
34.0054
34.7167
35.428
36.1395
36.851
37.5627
38.2744
38.9862
39.6982
40.4102
41.1223
41.8345
42.5469
43.2593
43.9718
44.6843
45.397
46.1098
46.8227
47.5356
48.2486
48.9618
49.675
50.3883
51.1017
51.8152
52.5288
53.2424
53.9561
54.67
55.3839
56.0979
56.812
57.5261
58.2404
58.9547
59.6691
60.3836
61.0981
61.8128
62.5275
63.2423
63.9572
64.6722
65.3872
66.1023
66.8175
67.5327
68.2481
68.9635
69.679
70.3945
71.1101
71.8258
72.5416
73.2574
73.9733
74.6893
75.4054
76.1215
76.8376
77.5539
78.2702
78.9866
79.703
80.4195
81.136
81.8527
82.5693
83.2861
84.0029
84.7197
85.4366
86.1536
86.8706
87.5877
88.3049
89.022
89.7393
90.4566
91.1739
91.8913
92.6087
93.3262
94.0438
94.7614
95.479
96.1967
96.9144
97.6321
98.3499
99.0678
99.7856
100.504
101.221
101.939
102.658
103.376
104.094
104.812
105.53
106.248
106.966
107.685
108.403
109.121
109.839
110.558
111.276
111.995
112.713
113.431
114.15
114.868
115.587
116.305
117.024
117.742
118.46
119.179
119.897
120.615
121.334
122.052
122.771
123.489
124.207
124.926
125.644
126.363
127.081
127.799
128.518
129.236
129.954
130.673
131.391
132.109
132.827
133.546
134.264
134.982
135.7
136.418
137.136
137.853
138.571
139.289
140.007
140.724
141.442
142.159
142.876
143.594
144.311
145.028
145.745
146.462
147.179
147.896
148.613
149.329
150.046
150.762
151.478
152.194
152.91
153.626
154.342
155.057
155.773
156.488
157.203
157.918
158.633
159.348
160.062
160.776
161.49
162.204
162.918
163.632
164.345
165.058
165.771
166.483
167.196
167.908
168.62
169.332
170.043
170.754
171.465
172.175
172.886
173.596
174.305
175.014
175.723
176.432
177.14
177.848
178.556
179.263
179.969
180.676
181.382
182.087
182.792
183.496
184.201
184.904
185.607
186.31
187.012
187.713
188.414
189.114
189.814
190.513
191.211
191.909
192.606
193.302
193.997
194.692
195.386
196.079
196.772
197.463
198.154
198.844
199.532
200.22
200.907
201.593
202.277
202.961
203.643
204.324
205.005
205.683
206.361
207.037
207.712
208.385
209.057
209.727
210.396
211.063
211.729
212.393
213.055
213.715
214.374
215.031
215.685
216.338
216.988
217.637
218.283
218.927
219.568
220.207
220.844
221.478
222.11
222.739
223.365
223.989
224.61
225.227
225.842
226.454
227.063
227.669
228.271
228.87
229.466
230.058
230.647
231.233
231.815
232.393
232.968
233.539
234.106
234.67
235.23
235.785
236.338
236.886
237.43
237.971
238.507
239.04
239.568
240.093
240.614
241.131
241.644
242.153
242.659
243.16
243.658
244.152
244.643
245.13
245.613
246.093
246.569
247.042
247.511
247.978
248.441
248.901
249.358
249.812
250.263
250.712
251.157
251.6
252.041
252.479
252.915
253.348
253.779
254.209
254.636
255.061
255.484
255.905
256.325
256.743
257.159
257.574
257.988
258.399
258.81
259.219
259.627
260.034
260.44
260.844
261.247
261.65
262.051
262.451
262.851
263.249
263.646
264.043
264.438
264.833
265.227
265.62
266.012
266.403
266.793
267.183
267.571
267.959
268.346
268.732
269.117
269.501
269.884
270.266
270.647
271.027
271.406
271.784
272.16
272.536
272.911
273.284
273.656
274.027
274.396
274.764
275.131
275.496
275.859
276.221
276.582
276.941
277.298
277.653
278.006
278.358
278.707
279.054
279.4
279.743
280.084
280.422
280.758
281.091
281.422
281.75
282.075
282.398
282.717
283.033
283.346
283.656
283.962
284.265
284.564
284.859
285.151
285.438
285.721
286
286.275
286.545
286.811
287.071
287.327
287.578
287.824
288.064
288.3
288.529
288.754
288.972
289.185
289.392
289.593
289.788
289.977
290.159
290.336
290.506
290.67
290.828
290.98
291.125
291.264
291.397
291.523
291.644
291.758
291.867
291.969
292.066
292.157
292.243
292.324
292.399
292.47
292.535
292.596
292.652
292.705
292.753
292.797
292.838
292.875
292.909
292.94
292.968
292.994
293.017
293.038
293.056
293.073
293.088
293.101
293.113
293.124
293.133
293.141
293.149
293.155
293.16
293.165
293.17
293.173
293.177
293.179
293.182
293.184
293.186
293.187
293.189
293.19
293.191
293.192
293.193
293.193
293.194
293.195
293.195
293.195
293.196
293.196
293.196
293.197
293.197
293.197
293.198
293.198
293.198
293.198
293.198
293.199
293.199
293.199
293.199
293.199
293.199
293.2
293.2
293.2
293.2
293.2
293.2
293.2
293.2
293.2
293.2
293.201
293.201
293.201
293.201
293.201
293.201
293.201
293.201
293.201
293.201
293.201
293.201
293.201
293.201
293.201
293.201
293.201
293.201
293.201
293.201
293.201
293.201
293.201
293.201
293.201
293.2
293.2
293.2
293.2
293.2
293.2
293.2
293.2
293.2
293.2
293.2
293.2
293.2
293.2
293.2
293.2
293.2
293.2
293.2
293.2
293.2
293.2
293.2
293.2
293.2
293.2
293.2
293.2
293.2
293.2
293.2
293.2
293.2
293.2
293.2
293.2
293.2
293.2
293.201
293.201
293.201
293.201
293.201
293.201
293.201
293.201
293.201
293.201
293.201
293.201
293.201
293.201
293.201
293.201
293.201
293.201
293.201
293.201
293.201
293.201
293.201
293.201
293.201
293.201
293.201
293.201
293.201
293.201
293.201
293.201
293.201
293.201
293.201
293.201
293.201
293.201
293.201
293.201
293.201
293.201
293.201
293.201
293.201
293.201
293.202
293.202
293.202
293.202
293.202
293.202
293.202
293.202
293.202
293.202
293.202
293.202
293.202
293.202
293.202
293.202
293.202
293.202
293.202
293.202
293.202
293.202
293.202
293.202
293.202
293.202
293.202
293.202
293.202
293.202
293.202
293.202
293.202
293.202
293.202
293.202
293.202
293.202
293.202
293.202
293.202
293.202
293.202
293.202
293.202
293.202
293.202
293.202
293.202
293.202
293.202
293.202
293.202
293.202
293.202
293.202
293.202
293.202
293.202
293.202
293.202
293.202
293.202
293.202
293.202
293.202
293.202
293.202
293.202
293.202
293.202
293.202
293.202
293.202
293.202
293.202
293.202
293.202
293.202
293.202
293.202
293.202
293.202
293.202
293.202
293.202
293.202
293.202
293.202
293.202
293.202
293.202
293.202
293.202
293.202
293.202
293.202
293.202
293.203
293.203
293.203
293.203
293.203
293.203
293.203
293.203
293.203
293.203
293.203
293.203
293.203
293.203
293.203
293.203
293.203
293.203
293.203
293.203
293.203
293.203
293.203
293.203
293.203
293.203
293.203
293.203
293.203
293.203
293.203
293.203
293.203
293.203
293.203
293.203
293.203
293.203
293.203
293.203
293.203
293.203
293.203
293.203
293.203
293.203
293.203
293.203
293.203
293.203
293.203
293.203
293.203
293.203
293.203
293.203
293.203
293.203
293.203
293.203
293.203
293.203
293.203
293.203
293.203
293.203
293.203
293.203
293.203
293.203
293.203
293.203
293.203
293.203
293.203
293.203
293.203
293.203
293.203
293.203
293.203
293.203
293.203
293.203
293.203
293.203
293.203
293.203
293.203
293.203
293.203
293.203
293.203
293.203
293.203
293.203
293.203
293.203
293.203
293.203
293.203
293.203
293.203
293.203
293.203
293.203
293.203
293.203
293.203
293.202
293.202
293.202
293.202
293.202
293.202
293.202
293.202
293.201
293.2
293.2
293.199
293.198
293.197
293.195
293.193
293.191
293.188
293.185
293.18
293.175
293.17
293.163
293.155
293.146
293.135
293.123
293.109
293.093
293.075
293.054
293.032
293.007
292.979
292.948
292.915
292.878
292.839
292.797
292.752
292.704
292.654
292.601
292.545
292.488
292.43
292.369
292.309
292.247
292.185
292.124
292.063
292.003
291.945
291.888
291.833
291.78
291.73
291.683
291.638
291.597
291.558
291.522
291.49
291.46
291.433
291.409
291.387
291.368
291.35
291.335
291.321
291.309
291.299
291.29
291.282
291.275
291.269
291.264
291.259
291.255
291.252
291.249
291.249
291.248
291.247
291.246
291.246
291.243
291.239
291.234
291.229
291.224
291.218
291.212
291.205
291.198
291.19
291.182
291.175
291.167
291.16
291.153
291.147
291.142
291.138
291.134
291.132
291.131
291.131
291.13
291.13
291.13
291.129
291.129
291.129
291.129
291.129
291.129
291.129
291.129
291.129
291.129
291.129
)
;

boundaryField
{
    sides
    {
        type            calculated;
        value           nonuniform List<scalar> 2(291.129 6.71278);
    }
    empty
    {
        type            empty;
    }
}


// ************************************************************************* //
