/*--------------------------------*- C++ -*----------------------------------*\
  =========                 |
  \\      /  F ield         | OpenFOAM: The Open Source CFD Toolbox
   \\    /   O peration     | Website:  https://openfoam.org
    \\  /    A nd           | Version:  9
     \\/     M anipulation  |
\*---------------------------------------------------------------------------*/
FoamFile
{
    format      ascii;
    class       volScalarField;
    location    "0.047";
    object      T;
}
// * * * * * * * * * * * * * * * * * * * * * * * * * * * * * * * * * * * * * //

dimensions      [0 0 0 1 0 0 0];

internalField   nonuniform List<scalar> 
10000
(
171.834
171.835
171.837
171.838
171.84
171.842
171.844
171.845
171.847
171.849
171.85
171.852
171.854
171.856
171.857
171.859
171.861
171.862
171.864
171.866
171.868
171.869
171.871
171.873
171.875
171.876
171.878
171.88
171.881
171.883
171.885
171.887
171.888
171.89
171.892
171.893
171.895
171.897
171.899
171.9
171.902
171.904
171.906
171.907
171.909
171.911
171.912
171.914
171.916
171.918
171.919
171.921
171.923
171.924
171.926
171.928
171.93
171.931
171.933
171.935
171.936
171.938
171.94
171.942
171.943
171.945
171.947
171.948
171.95
171.952
171.954
171.955
171.957
171.959
171.96
171.962
171.964
171.966
171.967
171.969
171.971
171.972
171.974
171.976
171.977
171.979
171.981
171.983
171.984
171.986
171.988
171.989
171.991
171.993
171.994
171.996
171.998
172
172.001
172.003
172.005
172.006
172.008
172.01
172.011
172.013
172.015
172.016
172.018
172.02
172.021
172.023
172.025
172.026
172.028
172.03
172.032
172.033
172.035
172.037
172.038
172.04
172.042
172.043
172.045
172.046
172.048
172.05
172.052
172.053
172.055
172.057
172.058
172.06
172.062
172.063
172.065
172.066
172.068
172.07
172.071
172.073
172.075
172.077
172.078
172.08
172.082
172.083
172.085
172.086
172.088
172.089
172.091
172.093
172.094
172.096
172.098
172.099
172.101
172.103
172.105
172.106
172.108
172.109
172.111
172.112
172.114
172.115
172.117
172.118
172.12
172.121
172.123
172.125
172.127
172.128
172.13
172.132
172.134
172.135
172.137
172.138
172.14
172.141
172.143
172.144
172.146
172.147
172.148
172.149
172.151
172.152
172.154
172.155
172.157
172.158
172.16
172.162
172.164
172.165
172.167
172.169
172.171
172.173
172.175
172.176
172.178
172.18
172.181
172.183
172.184
172.186
172.187
172.188
172.189
172.19
172.19
172.191
172.192
172.192
172.193
172.193
172.193
172.193
172.193
172.194
172.194
172.194
172.194
172.194
172.194
172.194
172.194
172.194
172.194
172.194
172.194
172.193
172.193
172.193
172.193
172.192
172.192
172.192
172.192
172.192
172.191
172.191
172.191
172.191
172.19
172.19
172.19
172.19
172.189
172.189
172.189
172.189
172.188
172.188
172.188
172.188
172.187
172.187
172.187
172.187
172.186
172.186
172.186
172.186
172.185
172.185
172.185
172.185
172.185
172.184
172.184
172.184
172.184
172.183
172.183
172.183
172.183
172.182
172.182
172.182
172.182
172.182
172.181
172.181
172.181
172.181
172.18
172.18
172.18
172.18
172.179
172.179
172.179
172.179
172.179
172.178
172.178
172.178
172.178
172.177
172.177
172.177
172.177
172.177
172.176
172.176
172.176
172.176
172.176
172.175
172.175
172.175
172.175
172.174
172.174
172.174
172.174
172.174
172.173
172.173
172.173
172.173
172.172
172.172
172.172
172.172
172.172
172.171
172.171
172.171
172.171
172.171
172.17
172.17
172.17
172.17
172.17
172.169
172.169
172.169
172.169
172.169
172.168
172.168
172.168
172.168
172.168
172.167
172.167
172.167
172.167
172.167
172.166
172.166
172.166
172.166
172.166
172.165
172.165
172.165
172.165
172.165
172.164
172.164
172.164
172.164
172.164
172.163
172.163
172.163
172.163
172.163
172.162
172.162
172.162
172.162
172.162
172.162
172.161
172.161
172.161
172.161
172.161
172.16
172.16
172.16
172.16
172.16
172.159
172.159
172.159
172.159
172.159
172.159
172.158
172.158
172.158
172.158
172.158
172.158
172.157
172.157
172.157
172.157
172.157
172.157
172.156
172.156
172.156
172.156
172.156
172.155
172.155
172.155
172.155
172.155
172.155
172.154
172.154
172.154
172.154
172.154
172.154
172.154
172.153
172.153
172.153
172.153
172.153
172.153
172.152
172.152
172.152
172.152
172.152
172.152
172.152
172.151
172.151
172.151
172.151
172.151
172.151
172.15
172.15
172.15
172.15
172.15
172.15
172.15
172.149
172.149
172.149
172.149
172.149
172.149
172.149
172.148
172.148
172.148
172.148
172.148
172.148
172.148
172.148
172.147
172.147
172.147
172.147
172.147
172.147
172.147
172.147
172.146
172.146
172.146
172.146
172.146
172.146
172.146
172.146
172.145
172.145
172.145
172.145
172.145
172.145
172.145
172.145
172.144
172.144
172.144
172.144
172.144
172.144
172.144
172.144
172.144
172.143
172.143
172.143
172.143
172.143
172.143
172.143
172.143
172.143
172.143
172.142
172.142
172.142
172.142
172.142
172.142
172.142
172.142
172.142
172.142
172.142
172.141
172.141
172.141
172.141
172.141
172.141
172.141
172.141
172.141
172.141
172.141
172.141
172.141
172.14
172.14
172.14
172.14
172.14
172.14
172.14
172.14
172.14
172.14
172.14
172.14
172.14
172.14
172.139
172.139
172.139
172.139
172.139
172.139
172.139
172.139
172.139
172.139
172.139
172.139
172.139
172.139
172.139
172.139
172.139
172.139
172.139
172.139
172.139
172.138
172.138
172.138
172.138
172.138
172.138
172.138
172.138
172.138
172.138
172.138
172.138
172.138
172.138
172.138
172.138
172.138
172.138
172.138
172.138
172.138
172.138
172.138
172.138
172.138
172.138
172.138
172.138
172.138
172.138
172.138
172.138
172.138
172.138
172.138
172.138
172.138
172.138
172.138
172.138
172.138
172.138
172.138
172.138
172.138
172.138
172.138
172.138
172.138
172.138
172.138
172.138
172.138
172.138
172.138
172.138
172.138
172.139
172.139
172.139
172.139
172.139
172.139
172.139
172.139
172.139
172.139
172.139
172.139
172.139
172.139
172.139
172.139
172.139
172.139
172.139
172.14
172.14
172.14
172.14
172.14
172.14
172.14
172.14
172.14
172.14
172.14
172.14
172.141
172.141
172.141
172.141
172.141
172.141
172.141
172.141
172.141
172.141
172.142
172.142
172.142
172.142
172.142
172.142
172.142
172.142
172.142
172.143
172.143
172.143
172.143
172.143
172.143
172.143
172.144
172.144
172.144
172.144
172.144
172.144
172.144
172.145
172.145
172.145
172.145
172.145
172.145
172.146
172.146
172.146
172.146
172.146
172.146
172.147
172.147
172.147
172.147
172.147
172.148
172.148
172.148
172.148
172.148
172.149
172.149
172.149
172.149
172.149
172.15
172.15
172.15
172.15
172.151
172.151
172.151
172.151
172.152
172.152
172.152
172.152
172.152
172.153
172.153
172.153
172.154
172.154
172.154
172.154
172.155
172.155
172.155
172.155
172.156
172.156
172.156
172.157
172.157
172.157
172.157
172.158
172.158
172.158
172.159
172.159
172.159
172.16
172.16
172.16
172.161
172.161
172.161
172.162
172.162
172.162
172.163
172.163
172.163
172.164
172.164
172.164
172.165
172.165
172.166
172.166
172.166
172.167
172.167
172.167
172.168
172.168
172.169
172.169
172.169
172.17
172.17
172.171
172.171
172.172
172.172
172.172
172.173
172.173
172.174
172.174
172.175
172.175
172.175
172.176
172.176
172.177
172.177
172.178
172.178
172.179
172.179
172.18
172.18
172.181
172.181
172.182
172.182
172.183
172.183
172.184
172.184
172.185
172.185
172.186
172.187
172.187
172.188
172.188
172.189
172.189
172.19
172.19
172.191
172.192
172.192
172.193
172.193
172.194
172.195
172.195
172.196
172.196
172.197
172.198
172.198
172.199
172.2
172.2
172.201
172.202
172.202
172.203
172.204
172.204
172.205
172.206
172.206
172.207
172.208
172.208
172.209
172.21
172.211
172.211
172.212
172.213
172.214
172.214
172.215
172.216
172.217
172.217
172.218
172.219
172.22
172.22
172.221
172.222
172.223
172.224
172.225
172.225
172.226
172.227
172.228
172.229
172.23
172.23
172.231
172.232
172.233
172.234
172.235
172.236
172.237
172.238
172.238
172.239
172.24
172.241
172.242
172.243
172.244
172.245
172.246
172.247
172.248
172.249
172.25
172.251
172.252
172.253
172.254
172.255
172.256
172.257
172.258
172.259
172.26
172.261
172.262
172.263
172.264
172.266
172.267
172.268
172.269
172.27
172.271
172.272
172.273
172.274
172.276
172.277
172.278
172.279
172.28
172.282
172.283
172.284
172.285
172.286
172.288
172.289
172.29
172.291
172.293
172.294
172.295
172.296
172.298
172.299
172.3
172.302
172.303
172.304
172.306
172.307
172.308
172.31
172.311
172.312
172.314
172.315
172.316
172.318
172.319
172.321
172.322
172.324
172.325
172.326
172.328
172.329
172.331
172.332
172.334
172.335
172.337
172.338
172.34
172.341
172.343
172.345
172.346
172.348
172.349
172.351
172.352
172.354
172.356
172.357
172.359
172.361
172.362
172.364
172.366
172.367
172.369
172.371
172.372
172.374
172.376
172.377
172.379
172.381
172.383
172.384
172.386
172.388
172.39
172.392
172.393
172.395
172.397
172.399
172.401
172.403
172.404
172.406
172.408
172.41
172.412
172.414
172.416
172.418
172.42
172.422
172.423
172.425
172.427
172.429
172.431
172.433
172.435
172.437
172.439
172.441
172.443
172.446
172.448
172.45
172.452
172.454
172.456
172.458
172.46
172.462
172.464
172.467
172.469
172.471
172.473
172.475
172.477
172.48
172.482
172.484
172.486
172.488
172.491
172.493
172.495
172.497
172.5
172.502
172.504
172.507
172.509
172.511
172.514
172.516
172.518
172.521
172.523
172.525
172.528
172.53
172.532
172.535
172.537
172.54
172.542
172.545
172.547
172.549
172.552
172.554
172.557
172.559
172.562
172.564
172.567
172.569
172.572
172.574
172.577
172.58
172.582
172.585
172.587
172.59
172.592
172.595
172.598
172.6
172.603
172.605
172.608
172.611
172.613
172.616
172.619
172.621
172.624
172.627
172.629
172.632
172.635
172.637
172.64
172.643
172.646
172.648
172.651
172.654
172.657
172.659
172.662
172.665
172.668
172.671
172.673
172.676
172.679
172.682
172.685
172.687
172.69
172.693
172.696
172.699
172.702
172.704
172.707
172.71
172.713
172.716
172.719
172.722
172.725
172.728
172.73
172.733
172.736
172.739
172.742
172.745
172.748
172.751
172.754
172.757
172.76
172.763
172.766
172.769
172.772
172.775
172.778
172.781
172.784
172.787
172.79
172.793
172.796
172.799
172.802
172.805
172.808
172.811
172.814
172.817
172.82
172.823
172.826
172.829
172.832
172.835
172.838
172.841
172.844
172.847
172.851
172.854
172.857
172.86
172.863
172.866
172.869
172.872
172.875
172.878
172.882
172.885
172.888
172.891
172.894
172.897
172.9
172.903
172.906
172.91
172.913
172.916
172.919
172.922
172.925
172.928
172.932
172.935
172.938
172.941
172.944
172.947
172.95
172.954
172.957
172.96
172.963
172.966
172.969
172.973
172.976
172.979
172.982
172.985
172.989
172.992
172.995
172.998
173.001
173.004
173.008
173.011
173.014
173.017
173.02
173.024
173.027
173.03
173.033
173.036
173.04
173.043
173.046
173.049
173.052
173.056
173.059
173.062
173.065
173.068
173.072
173.075
173.078
173.081
173.085
173.088
173.091
173.094
173.097
173.101
173.104
173.107
173.11
173.114
173.117
173.12
173.123
173.126
173.13
173.133
173.136
173.139
173.143
173.146
173.149
173.152
173.156
173.159
173.162
173.165
173.168
173.172
173.175
173.178
173.181
173.185
173.188
173.191
173.194
173.198
173.201
173.204
173.207
173.211
173.214
173.217
173.22
173.224
173.227
173.23
173.233
173.237
173.24
173.243
173.246
173.25
173.253
173.256
173.259
173.263
173.266
173.269
173.272
173.276
173.279
173.282
173.285
173.289
173.292
173.295
173.298
173.302
173.305
173.308
173.311
173.315
173.318
173.321
173.324
173.328
173.331
173.334
173.337
173.341
173.344
173.347
173.35
173.354
173.357
173.36
173.363
173.367
173.37
173.373
173.376
173.38
173.383
173.386
173.389
173.393
173.396
173.399
173.402
173.406
173.409
173.412
173.416
173.419
173.422
173.425
173.429
173.432
173.435
173.438
173.442
173.445
173.448
173.451
173.455
173.458
173.461
173.464
173.468
173.471
173.474
173.477
173.481
173.484
173.487
173.49
173.494
173.497
173.5
173.504
173.507
173.51
173.513
173.517
173.52
173.523
173.526
173.53
173.533
173.536
173.539
173.543
173.546
173.549
173.553
173.556
173.559
173.562
173.566
173.569
173.572
173.575
173.579
173.582
173.585
173.588
173.592
173.595
173.598
173.601
173.605
173.608
173.611
173.615
173.618
173.621
173.624
173.628
173.631
173.634
173.637
173.641
173.644
173.647
173.651
173.654
173.657
173.66
173.664
173.667
173.67
173.673
173.677
173.68
173.683
173.686
173.69
173.693
173.696
173.7
173.703
173.706
173.709
173.713
173.716
173.719
173.722
173.726
173.729
173.732
173.736
173.739
173.742
173.745
173.749
173.752
173.755
173.758
173.762
173.765
173.768
173.772
173.775
173.778
173.781
173.785
173.788
173.791
173.794
173.798
173.801
173.804
173.808
173.811
173.814
173.817
173.821
173.824
173.827
173.83
173.834
173.837
173.84
173.844
173.847
173.85
173.853
173.857
173.86
173.863
173.866
173.87
173.873
173.876
173.88
173.883
173.886
173.889
173.893
173.896
173.899
173.902
173.906
173.909
173.912
173.916
173.919
173.922
173.925
173.929
173.932
173.935
173.939
173.942
173.945
173.948
173.952
173.955
173.958
173.961
173.965
173.968
173.971
173.975
173.978
173.981
173.984
173.988
173.991
173.994
173.998
174.001
174.004
174.007
174.011
174.014
174.017
174.02
174.024
174.027
174.03
174.034
174.037
174.04
174.043
174.047
174.05
174.053
174.057
174.06
174.063
174.066
174.07
174.073
174.076
174.08
174.083
174.086
174.089
174.093
174.096
174.099
174.103
174.106
174.109
174.112
174.116
174.119
174.122
174.126
174.129
174.132
174.135
174.139
174.142
174.145
174.149
174.152
174.155
174.158
174.162
174.165
174.168
174.172
174.175
174.178
174.181
174.185
174.188
174.191
174.195
174.198
174.201
174.204
174.208
174.211
174.214
174.218
174.221
174.224
174.227
174.231
174.234
174.237
174.241
174.244
174.247
174.25
174.254
174.257
174.26
174.264
174.267
174.27
174.273
174.277
174.28
174.283
174.287
174.29
174.293
174.296
174.3
174.303
174.306
174.31
174.313
174.316
174.319
174.323
174.326
174.329
174.333
174.336
174.339
174.342
174.346
174.349
174.352
174.356
174.359
174.362
174.366
174.369
174.372
174.375
174.379
174.382
174.385
174.389
174.392
174.395
174.398
174.402
174.405
174.408
174.412
174.415
174.418
174.421
174.425
174.428
174.431
174.435
174.438
174.441
174.445
174.448
174.451
174.454
174.458
174.461
174.464
174.468
174.471
174.474
174.477
174.481
174.484
174.487
174.491
174.494
174.497
174.501
174.504
174.507
174.51
174.514
174.517
174.52
174.524
174.527
174.53
174.534
174.537
174.54
174.543
174.547
174.55
174.553
174.557
174.56
174.563
174.566
174.57
174.573
174.576
174.58
174.583
174.586
174.59
174.593
174.596
174.599
174.603
174.606
174.609
174.613
174.616
174.619
174.623
174.626
174.629
174.632
174.636
174.639
174.642
174.646
174.649
174.652
174.656
174.659
174.662
174.665
174.669
174.672
174.675
174.679
174.682
174.685
174.689
174.692
174.695
174.698
174.702
174.705
174.708
174.712
174.715
174.718
174.722
174.725
174.728
174.732
174.735
174.738
174.741
174.745
174.748
174.751
174.755
174.758
174.761
174.765
174.768
174.771
174.774
174.778
174.781
174.784
174.788
174.791
174.794
174.798
174.801
174.804
174.808
174.811
174.814
174.817
174.821
174.824
174.827
174.831
174.834
174.837
174.841
174.844
174.847
174.85
174.854
174.857
174.86
174.864
174.867
174.87
174.874
174.877
174.88
174.884
174.887
174.89
174.893
174.897
174.9
174.903
174.907
174.91
174.913
174.917
174.92
174.923
174.927
174.93
174.933
174.936
174.94
174.943
174.946
174.95
174.953
174.956
174.96
174.963
174.966
174.97
174.973
174.976
174.98
174.983
174.986
174.989
174.993
174.996
174.999
175.003
175.006
175.009
175.013
175.016
175.019
175.023
175.026
175.029
175.032
175.036
175.039
175.042
175.046
175.049
175.052
175.056
175.059
175.062
175.066
175.069
175.072
175.076
175.079
175.082
175.085
175.089
175.092
175.095
175.099
175.102
175.105
175.109
175.112
175.115
175.119
175.122
175.125
175.129
175.132
175.135
175.139
175.142
175.145
175.148
175.152
175.155
175.158
175.162
175.165
175.168
175.172
175.175
175.178
175.182
175.185
175.188
175.192
175.195
175.198
175.202
175.205
175.208
175.211
175.215
175.218
175.221
175.225
175.228
175.231
175.235
175.238
175.241
175.245
175.248
175.251
175.255
175.258
175.261
175.265
175.268
175.271
175.275
175.278
175.281
175.285
175.288
175.291
175.294
175.298
175.301
175.304
175.308
175.311
175.314
175.318
175.321
175.324
175.328
175.331
175.334
175.338
175.341
175.344
175.348
175.351
175.354
175.358
175.361
175.364
175.368
175.371
175.374
175.377
175.381
175.384
175.387
175.391
175.394
175.397
175.401
175.404
175.407
175.411
175.414
175.417
175.421
175.424
175.427
175.431
175.434
175.437
175.441
175.444
175.447
175.451
175.454
175.457
175.461
175.464
175.467
175.471
175.474
175.477
175.481
175.484
175.487
175.491
175.494
175.497
175.501
175.504
175.507
175.51
175.514
175.517
175.52
175.524
175.527
175.53
175.534
175.537
175.54
175.544
175.547
175.55
175.554
175.557
175.56
175.564
175.567
175.57
175.574
175.577
175.58
175.584
175.587
175.59
175.594
175.597
175.6
175.604
175.607
175.61
175.614
175.617
175.62
175.624
175.627
175.63
175.634
175.637
175.64
175.644
175.647
175.65
175.654
175.657
175.66
175.664
175.667
175.67
175.674
175.677
175.68
175.684
175.687
175.69
175.694
175.697
175.7
175.704
175.707
175.71
175.714
175.717
175.72
175.724
175.727
175.73
175.734
175.737
175.74
175.744
175.747
175.75
175.754
175.757
175.76
175.764
175.767
175.77
175.774
175.777
175.78
175.784
175.787
175.79
175.794
175.797
175.8
175.804
175.807
175.81
175.814
175.817
175.82
175.824
175.827
175.83
175.834
175.837
175.84
175.844
175.847
175.85
175.854
175.857
175.86
175.864
175.867
175.87
175.874
175.877
175.88
175.884
175.887
175.89
175.894
175.897
175.9
175.904
175.907
175.91
175.914
175.917
175.92
175.924
175.927
175.93
175.934
175.937
175.94
175.944
175.947
175.95
175.954
175.957
175.96
175.964
175.967
175.971
175.974
175.977
175.981
175.984
175.987
175.991
175.994
175.997
176.001
176.004
176.007
176.011
176.014
176.017
176.021
176.024
176.027
176.031
176.034
176.037
176.041
176.044
176.047
176.051
176.054
176.057
176.061
176.064
176.067
176.071
176.074
176.077
176.081
176.084
176.087
176.091
176.094
176.098
176.101
176.104
176.108
176.111
176.114
176.118
176.121
176.124
176.128
176.131
176.134
176.138
176.141
176.144
176.148
176.151
176.154
176.158
176.161
176.164
176.168
176.171
176.174
176.178
176.181
176.184
176.188
176.191
176.195
176.198
176.201
176.205
176.208
176.211
176.215
176.218
176.221
176.225
176.228
176.231
176.235
176.238
176.241
176.245
176.248
176.251
176.255
176.258
176.262
176.265
176.268
176.271
176.275
176.278
176.282
176.285
176.288
176.292
176.295
176.298
176.302
176.305
176.308
176.312
176.315
176.318
176.322
176.325
176.329
176.332
176.335
176.338
176.342
176.345
176.349
176.352
176.355
176.359
176.362
176.365
176.369
176.372
176.376
176.379
176.382
176.385
176.389
176.392
176.396
176.399
176.402
176.405
176.409
176.412
176.416
176.419
176.423
176.426
176.429
176.432
176.436
176.439
176.443
176.446
176.449
176.452
176.456
176.459
176.463
176.466
176.47
176.472
176.476
176.479
176.483
176.486
176.49
176.493
176.496
176.499
176.503
176.506
176.51
176.513
176.517
176.519
176.523
176.526
176.53
176.533
176.537
176.54
176.543
176.546
176.55
176.553
176.557
176.56
176.564
176.566
176.57
176.573
176.577
176.58
176.584
176.586
176.591
176.593
176.597
176.6
176.604
176.607
176.611
176.613
176.617
176.62
176.624
176.627
176.631
176.633
176.638
176.64
176.644
176.647
176.651
176.654
176.658
176.66
176.665
176.667
176.671
176.674
176.678
176.68
176.685
176.687
176.691
176.694
176.698
176.701
176.705
176.707
176.712
176.714
176.718
176.721
176.725
176.727
176.732
176.734
176.739
176.741
176.745
176.748
176.752
176.754
176.759
176.761
176.766
176.768
176.772
176.775
176.779
176.781
176.786
176.788
176.792
176.795
176.799
176.801
176.806
176.808
176.813
176.815
176.819
176.822
176.826
176.828
176.833
176.835
176.84
176.842
176.846
176.849
176.853
176.855
176.86
176.862
176.866
176.869
176.873
176.876
176.88
176.882
176.886
176.889
176.893
176.896
176.9
176.903
176.907
176.91
176.913
176.916
176.92
176.923
176.927
176.93
176.933
176.937
176.94
176.943
176.947
176.95
176.954
176.957
176.96
176.964
176.967
176.97
176.974
176.977
176.98
176.984
176.987
176.991
176.994
176.997
177.001
177.004
177.007
177.011
177.014
177.018
177.021
177.024
177.028
177.031
177.034
177.038
177.041
177.045
177.048
177.051
177.055
177.058
177.061
177.065
177.068
177.071
177.075
177.078
177.082
177.085
177.088
177.092
177.095
177.098
177.102
177.105
177.109
177.112
177.115
177.119
177.122
177.125
177.129
177.132
177.136
177.139
177.142
177.146
177.149
177.152
177.156
177.159
177.163
177.166
177.169
177.173
177.176
177.179
177.183
177.186
177.19
177.193
177.196
177.2
177.203
177.206
177.21
177.213
177.217
177.22
177.223
177.227
177.23
177.233
177.237
177.24
177.244
177.247
177.25
177.254
177.257
177.261
177.264
177.267
177.271
177.274
177.277
177.281
177.284
177.288
177.291
177.294
177.298
177.301
177.304
177.308
177.311
177.315
177.318
177.321
177.325
177.328
177.331
177.335
177.338
177.342
177.345
177.348
177.352
177.355
177.359
177.362
177.365
177.369
177.372
177.375
177.379
177.382
177.386
177.389
177.392
177.396
177.399
177.402
177.406
177.409
177.413
177.416
177.419
177.423
177.426
177.43
177.433
177.436
177.44
177.443
177.446
177.45
177.453
177.457
177.46
177.463
177.467
177.47
177.474
177.477
177.48
177.484
177.487
177.49
177.494
177.497
177.501
177.504
177.507
177.511
177.514
177.518
177.521
177.524
177.528
177.531
177.534
177.538
177.541
177.545
177.548
177.551
177.555
177.558
177.562
177.565
177.568
177.572
177.575
177.578
177.582
177.585
177.589
177.592
177.595
177.599
177.602
177.606
177.609
177.612
177.616
177.619
177.623
177.626
177.629
177.633
177.636
177.639
177.643
177.646
177.65
177.653
177.656
177.66
177.663
177.667
177.67
177.673
177.677
177.68
177.684
177.687
177.69
177.694
177.697
177.7
177.704
177.707
177.711
177.714
177.717
177.721
177.724
177.728
177.731
177.734
177.738
177.741
177.745
177.748
177.751
177.755
177.758
177.762
177.765
177.768
177.772
177.775
177.778
177.782
177.785
177.789
177.792
177.795
177.799
177.802
177.806
177.809
177.812
177.816
177.819
177.823
177.826
177.829
177.833
177.836
177.84
177.843
177.846
177.85
177.853
177.857
177.86
177.863
177.867
177.87
177.874
177.877
177.88
177.884
177.887
177.89
177.894
177.897
177.901
177.904
177.907
177.911
177.914
177.918
177.921
177.924
177.928
177.931
177.935
177.938
177.941
177.945
177.948
177.952
177.955
177.958
177.962
177.965
177.969
177.972
177.975
177.979
177.982
177.986
177.989
177.992
177.996
177.999
178.003
178.006
178.009
178.013
178.016
178.02
178.023
178.026
178.03
178.033
178.037
178.04
178.043
178.047
178.05
178.054
178.057
178.06
178.064
178.067
178.071
178.074
178.077
178.081
178.084
178.088
178.091
178.094
178.098
178.101
178.105
178.108
178.111
178.115
178.118
178.122
178.125
178.128
178.132
178.135
178.139
178.142
178.145
178.149
178.152
178.156
178.159
178.162
178.166
178.169
178.173
178.176
178.179
178.183
178.186
178.19
178.193
178.197
178.2
178.203
178.207
178.21
178.214
178.217
178.22
178.224
178.227
178.231
178.234
178.237
178.241
178.244
178.248
178.251
178.254
178.258
178.261
178.265
178.268
178.271
178.275
178.278
178.282
178.285
178.288
178.292
178.295
178.299
178.302
178.306
178.309
178.312
178.316
178.319
178.323
178.326
178.329
178.333
178.336
178.34
178.343
178.346
178.35
178.353
178.357
178.36
178.363
178.367
178.37
178.374
178.377
178.381
178.384
178.387
178.391
178.394
178.398
178.401
178.404
178.408
178.411
178.415
178.418
178.421
178.425
178.428
178.432
178.435
178.438
178.442
178.445
178.449
178.452
178.456
178.459
178.462
178.466
178.469
178.473
178.476
178.479
178.483
178.486
178.49
178.493
178.497
178.5
178.503
178.507
178.51
178.514
178.517
178.52
178.524
178.527
178.531
178.534
178.537
178.541
178.544
178.548
178.551
178.555
178.558
178.561
178.565
178.568
178.572
178.575
178.578
178.582
178.585
178.589
178.592
178.596
178.599
178.602
178.606
178.609
178.613
178.616
178.619
178.623
178.626
178.63
178.633
178.637
178.64
178.643
178.647
178.65
178.654
178.657
178.66
178.664
178.667
178.671
178.674
178.678
178.681
178.684
178.688
178.691
178.695
178.698
178.701
178.705
178.708
178.712
178.715
178.719
178.722
178.725
178.729
178.732
178.736
178.739
178.742
178.746
178.749
178.753
178.756
178.76
178.763
178.766
178.77
178.773
178.777
178.78
178.784
178.787
178.79
178.794
178.797
178.801
178.804
178.807
178.811
178.814
178.818
178.821
178.825
178.828
178.831
178.835
178.838
178.842
178.845
178.849
178.852
178.855
178.859
178.862
178.866
178.869
178.873
178.876
178.879
178.883
178.886
178.89
178.893
178.896
178.9
178.903
178.907
178.91
178.914
178.917
178.92
178.924
178.927
178.931
178.934
178.938
178.941
178.944
178.948
178.951
178.955
178.958
178.962
178.965
178.968
178.972
178.975
178.979
178.982
178.986
178.989
178.992
178.996
178.999
179.003
179.006
179.01
179.013
179.016
179.02
179.023
179.027
179.03
179.034
179.037
179.04
179.044
179.047
179.051
179.054
179.058
179.061
179.064
179.068
179.071
179.075
179.078
179.082
179.085
179.088
179.092
179.095
179.099
179.102
179.106
179.109
179.112
179.116
179.119
179.123
179.126
179.13
179.133
179.136
179.14
179.143
179.147
179.15
179.154
179.157
179.161
179.164
179.167
179.171
179.174
179.177
179.181
179.184
179.188
179.191
179.195
179.198
179.202
179.205
179.209
179.212
179.216
179.218
179.223
179.225
179.23
179.232
179.236
179.239
179.243
179.246
179.25
179.253
179.257
179.259
179.264
179.266
179.271
179.273
179.278
179.28
179.285
179.287
179.291
179.294
179.298
179.301
179.305
179.308
179.312
179.314
179.319
179.321
179.326
179.328
179.333
179.335
179.34
179.342
179.346
179.349
179.353
179.356
179.36
179.363
179.367
179.369
179.374
179.376
179.381
179.383
179.388
179.39
179.395
179.397
179.401
179.404
179.408
179.411
179.415
179.418
179.422
179.424
179.429
179.431
179.436
179.438
179.443
179.445
179.45
179.452
179.457
179.459
179.463
179.466
179.47
179.473
179.477
179.479
179.484
179.486
179.491
179.493
179.498
179.5
179.505
179.507
179.512
179.514
179.518
179.521
179.525
179.528
179.532
179.535
179.539
179.541
179.546
179.548
179.553
179.555
179.56
179.562
179.567
179.569
179.574
179.576
179.58
179.583
179.587
179.59
179.594
179.597
179.601
179.603
179.608
179.61
179.615
179.617
179.622
179.624
179.629
179.631
179.636
179.638
179.642
179.645
179.649
179.652
179.656
179.659
179.663
179.665
179.67
179.672
179.677
179.679
179.684
179.686
179.691
179.693
179.698
179.7
179.704
179.707
179.711
179.714
179.718
179.721
179.725
179.727
179.732
179.734
179.739
179.741
179.746
179.748
179.753
179.755
179.76
179.762
179.767
179.769
179.773
179.776
179.78
179.783
179.787
179.79
179.794
179.796
179.801
179.803
179.808
179.81
179.815
179.817
179.822
179.824
179.829
179.831
179.836
179.838
179.842
179.845
179.849
179.852
179.856
179.859
179.863
179.865
179.87
179.872
179.877
179.879
179.884
179.886
179.891
179.893
179.898
179.9
179.905
179.907
179.911
179.914
179.918
179.921
179.925
179.928
179.932
179.934
179.939
179.941
179.946
179.948
179.953
179.955
179.96
179.962
179.967
179.969
179.974
179.976
179.981
179.983
179.987
179.99
179.994
179.997
180.001
180.004
180.008
180.01
180.015
180.017
180.022
180.024
180.029
180.031
180.036
180.038
180.043
180.045
180.05
180.052
180.057
180.059
180.063
180.066
180.07
180.073
180.077
180.08
180.084
180.086
180.091
180.093
180.098
180.1
180.105
180.107
180.112
180.114
180.119
180.121
180.126
180.128
180.133
180.135
180.14
180.142
180.146
180.149
180.153
180.156
180.16
180.163
180.167
180.169
180.174
180.176
180.181
180.183
180.188
180.19
180.195
180.197
180.202
180.204
180.209
180.211
180.216
180.218
180.223
180.225
180.229
180.232
180.236
180.239
180.243
180.246
180.25
180.253
180.257
180.259
180.264
180.266
180.271
180.273
180.278
180.28
180.285
180.287
180.292
180.294
180.299
180.301
180.306
180.308
180.313
180.315
180.319
180.322
180.326
180.329
180.333
180.336
180.34
180.343
180.347
180.349
180.354
180.356
180.361
180.363
180.368
180.37
180.375
180.377
180.382
180.384
180.389
180.391
180.396
180.398
180.403
180.405
180.41
180.412
180.416
180.419
180.423
180.426
180.43
180.433
180.437
180.44
180.444
180.447
180.451
180.453
180.458
180.46
180.465
180.467
180.472
180.474
180.479
180.481
180.486
180.488
180.493
180.495
180.5
180.502
180.507
180.509
180.514
180.516
180.521
180.523
180.527
180.53
180.534
180.537
180.541
180.544
180.548
180.551
180.555
180.558
180.562
180.564
180.569
180.571
180.576
180.578
180.583
180.585
180.59
180.592
180.597
180.599
180.604
180.606
180.611
180.613
180.618
180.62
180.625
180.627
180.632
180.634
180.638
180.641
180.645
180.648
180.652
180.655
180.659
180.662
180.666
180.669
180.673
180.676
180.68
180.682
180.687
180.689
180.694
180.696
180.701
180.703
180.708
180.71
180.715
180.717
180.722
180.724
180.729
180.731
180.736
180.738
180.743
180.745
180.75
180.752
180.757
180.759
180.764
180.766
180.77
180.773
180.777
180.78
180.784
180.787
180.791
180.794
180.798
180.801
180.805
180.808
180.812
180.815
180.819
180.821
180.826
180.828
180.833
180.835
180.84
180.842
180.847
180.849
180.854
180.856
180.861
180.863
180.868
180.87
180.875
180.877
180.882
180.884
180.889
180.891
180.896
180.898
180.903
180.905
180.91
180.912
180.917
180.919
180.923
180.926
180.93
180.933
180.937
180.94
180.944
180.947
180.951
180.954
180.958
180.961
180.965
180.968
180.972
180.975
180.979
180.982
180.986
180.988
180.993
180.995
181
181.002
181.007
181.009
181.014
181.016
181.021
181.023
181.028
181.03
181.035
181.037
181.042
181.044
181.049
181.051
181.056
181.058
181.063
181.065
181.07
181.072
181.077
181.079
181.084
181.086
181.091
181.093
181.098
181.1
181.105
181.107
181.112
181.114
181.119
181.121
181.125
181.128
181.132
181.135
181.139
181.142
181.146
181.149
181.153
181.156
181.16
181.163
181.167
181.17
181.174
181.177
181.181
181.184
181.188
181.191
181.195
181.198
181.202
181.205
181.209
181.211
181.216
181.218
181.223
181.225
181.23
181.232
181.237
181.239
181.244
181.246
181.251
181.253
181.258
181.26
181.265
181.267
181.272
181.274
181.279
181.281
181.286
181.288
181.293
181.295
181.3
181.302
181.307
181.309
181.314
181.316
181.321
181.323
181.328
181.33
181.335
181.337
181.342
181.344
181.349
181.351
181.356
181.358
181.363
181.365
181.37