/*--------------------------------*- C++ -*----------------------------------*\
  =========                 |
  \\      /  F ield         | OpenFOAM: The Open Source CFD Toolbox
   \\    /   O peration     | Website:  https://openfoam.org
    \\  /    A nd           | Version:  9
     \\/     M anipulation  |
\*---------------------------------------------------------------------------*/
FoamFile
{
    format      ascii;
    class       volScalarField;
    location    "0.03";
    object      T;
}
// * * * * * * * * * * * * * * * * * * * * * * * * * * * * * * * * * * * * * //

dimensions      [0 0 0 1 0 0 0];

internalField   nonuniform List<scalar> 
1000
(
218.967
218.983
219.014
219.045
219.077
219.111
219.146
219.179
219.208
219.234
219.262
219.293
219.329
219.367
219.404
219.438
219.465
219.485
219.498
219.504
219.506
219.507
219.507
219.506
219.503
219.496
219.485
219.474
219.463
219.452
219.441
219.43
219.419
219.408
219.397
219.386
219.376
219.365
219.354
219.343
219.333
219.322
219.311
219.3
219.289
219.279
219.268
219.257
219.246
219.236
219.225
219.214
219.203
219.192
219.181
219.171
219.16
219.149
219.138
219.127
219.116
219.106
219.095
219.084
219.073
219.062
219.051
219.04
219.03
219.019
219.008
218.997
218.986
218.975
218.964
218.953
218.943
218.931
218.921
218.909
218.9
218.887
218.878
218.864
218.857
218.842
218.835
218.82
218.813
218.798
218.791
218.777
218.769
218.755
218.747
218.733
218.724
218.713
218.701
218.691
218.678
218.669
218.657
218.646
218.636
218.624
218.614
218.603
218.591
218.581
218.569
218.558
218.547
218.536
218.525
218.514
218.503
218.492
218.481
218.47
218.459
218.448
218.436
218.425
218.414
218.403
218.392
218.381
218.37
218.359
218.348
218.336
218.325
218.314
218.303
218.292
218.281
218.27
218.258
218.247
218.236
218.225
218.214
218.203
218.192
218.18
218.169
218.158
218.147
218.136
218.125
218.113
218.102
218.091
218.08
218.069
218.057
218.046
218.035
218.024
218.013
218.001
217.99
217.979
217.968
217.957
217.945
217.934
217.923
217.912
217.9
217.889
217.878
217.867
217.856
217.844
217.833
217.822
217.811
217.799
217.788
217.777
217.766
217.754
217.743
217.732
217.721
217.709
217.698
217.687
217.676
217.664
217.653
217.642
217.631
217.619
217.608
217.597
217.586
217.575
217.563
217.552
217.541
217.53
217.518
217.507
217.496
217.485
217.473
217.462
217.451
217.44
217.429
217.417
217.406
217.395
217.384
217.373
217.361
217.35
217.339
217.328
217.317
217.306
217.294
217.283
217.272
217.261
217.25
217.239
217.228
217.216
217.205
217.194
217.183
217.172
217.161
217.15
217.139
217.128
217.117
217.106
217.095
217.084
217.073
217.062
217.051
217.04
217.029
217.018
217.007
216.996
216.985
216.974
216.963
216.953
216.942
216.931
216.92
216.909
216.899
216.888
216.877
216.866
216.856
216.845
216.834
216.824
216.813
216.803
216.792
216.781
216.771
216.76
216.75
216.739
216.729
216.719
216.708
216.698
216.688
216.677
216.667
216.657
216.647
216.637
216.627
216.616
216.606
216.596
216.587
216.577
216.567
216.557
216.547
216.537
216.528
216.518
216.508
216.499
216.489
216.48
216.47
216.461
216.452
216.443
216.433
216.424
216.415
216.406
216.397
216.389
216.38
216.371
216.362
216.354
216.345
216.337
216.329
216.32
216.312
216.304
216.296
216.288
216.28
216.273
216.265
216.257
216.25
216.243
216.236
216.228
216.222
216.215
216.208
216.201
216.195
216.189
216.182
216.176
216.17
216.165
216.159
216.154
216.148
216.143
216.138
216.133
216.129
216.124
216.12
216.116
216.112
216.108
216.105
216.102
216.099
216.096
216.093
216.091
216.089
216.087
216.086
216.085
216.084
216.083
216.082
216.082
216.082
216.083
216.083
216.084
216.085
216.087
216.089
216.091
216.094
216.097
216.101
216.105
216.109
216.114
216.119
216.125
216.131
216.138
216.145
216.152
216.161
216.169
216.178
216.188
216.198
216.209
216.22
216.232
216.244
216.257
216.271
216.285
216.3
216.315
216.332
216.348
216.366
216.384
216.403
216.423
216.443
216.464
216.486
216.509
216.532
216.556
216.581
216.607
216.633
216.66
216.689
216.717
216.747
216.777
216.809
216.841
216.874
216.907
216.942
216.977
217.013
217.05
217.088
217.126
217.166
217.206
217.246
217.288
217.33
217.373
217.417
217.461
217.506
217.552
217.598
217.645
217.693
217.741
217.79
217.839
217.889
217.94
217.99
218.042
218.094
218.146
218.199
218.252
218.306
218.36
218.414
218.469
218.523
218.579
218.634
218.69
218.746
218.803
218.859
218.916
218.973
219.03
219.087
219.145
219.203
219.26
219.318
219.376
219.435
219.493
219.551
219.61
219.668
219.727
219.786
219.845
219.903
219.963
220.021
220.081
220.139
220.199
220.258
220.317
220.376
220.436
220.495
220.555
220.614
220.674
220.733
220.793
220.852
220.912
220.972
221.032
221.091
221.151
221.211
221.271
221.33
221.39
221.45
221.51
221.57
221.63
221.69
221.75
221.81
221.87
221.93
221.99
222.051
222.111
222.171
222.231
222.291
222.352
222.412
222.472
222.533
222.593
222.653
222.714
222.774
222.835
222.895
222.956
223.016
223.077
223.138
223.198
223.259
223.32
223.38
223.441
223.502
223.562
223.623
223.684
223.745
223.806
223.866
223.928
223.988
224.049
224.11
224.171
224.232
224.293
224.354
224.416
224.476
224.538
224.599
224.66
224.721
224.783
224.843
224.905
224.966
225.028
225.089
225.15
225.211
225.273
225.334
225.396
225.457
225.519
225.58
225.642
225.703
225.765
225.826
225.888
225.95
226.012
226.073
226.135
226.196
226.259
226.32
226.382
226.443
226.506
226.567
226.629
226.691
226.753
226.815
226.877
226.939
227.001
227.063
227.125
227.187
227.249
227.311
227.374
227.435
227.498
227.56
227.622
227.684
227.747
227.808
227.871
227.933
227.996
228.058
228.121
228.182
228.245
228.307
228.37
228.432
228.495
228.557
228.62
228.682
228.745
228.807
228.87
228.932
228.996
229.058
229.121
229.183
229.246
229.308
229.372
229.434
229.497
229.559
229.623
229.685
229.748
229.811
229.874
229.936
230
230.062
230.126
230.188
230.251
230.314
230.377
230.44
230.503
230.566
230.629
230.692
230.755
230.818
230.881
230.944
231.008
231.07
231.134
231.196
231.26
231.322
231.386
231.449
231.513
231.575
231.639
231.702
231.765
231.828
231.892
231.954
232.018
232.081
232.145
232.208
232.271
232.334
232.398
232.461
232.525
232.587
232.651
232.714
232.778
232.841
232.905
232.968
233.032
233.095
233.159
233.221
233.286
233.348
233.413
233.475
233.54
233.602
233.667
233.729
233.794
233.856
233.921
233.984
234.048
234.111
234.175
234.238
234.302
234.365
234.429
234.492
234.557
234.62
234.684
234.747
234.811
234.874
234.939
235.002
235.066
235.129
235.194
235.257
235.321
235.384
235.449
235.511
235.576
235.639
235.704
235.767
235.831
235.894
235.959
236.022
236.086
236.149
236.214
236.277
236.341
236.404
236.469
236.532
236.596
236.659
236.724
236.787
236.852
236.915
236.979
237.042
237.107
237.17
237.234
237.297
237.362
237.425
237.489
237.552
237.617
237.68
237.745
237.807
237.872
237.934
238
238.062
238.127
238.189
238.255
238.316
238.382
238.443
238.51
238.57
238.637
238.696
238.765
238.823
238.893
238.949
239.021
239.075
239.149
239.2
239.277
239.326
239.405
239.451
239.533
239.577
239.66
239.703
239.787
239.829
239.913
239.955
240.039
240.081
240.166
240.206
240.293
240.331
240.42
240.455
240.548
240.579
240.676
240.703
240.803
240.826
240.929
240.95
241.055
241.073
241.181
241.197
241.306
241.321
241.43
241.444
241.554
241.568
241.678
241.691
241.801
241.814
241.924
241.936
242.046
242.059
242.169
242.181
242.291
242.302
242.413
242.424
242.534
242.545
242.655
242.666
242.776
242.786
242.897
242.907
243.017
243.027
243.137
243.147
243.258
243.267
243.378
243.387
243.498
243.507
243.618
243.627
243.739
243.747
243.859
243.868
243.981
243.989
244.102
244.111
244.224
244.233
244.347
244.355
244.471
244.478
244.594
244.602
244.719
244.727
244.844
244.852
244.97
244.977
245.096
245.103
245.222
245.229
245.349
245.355
245.474
245.48
245.599
245.605
245.723
245.729
245.846
245.851
245.967
245.971
246.085
246.089
246.201
246.205
246.314
246.317
246.424
246.427
246.531
246.533
246.634
246.636
246.733
246.735
246.83
246.831
246.923
246.924
247.011
247.012
247.094
247.095
247.176
247.177
247.254
247.255
247.327
247.331
247.397
247.399
247.465
247.467
247.532
247.532
247.59
247.595
247.647
247.655
247.701
247.713
247.752
247.769
247.8
247.82
247.848
247.868
247.893
247.913
247.936
247.955
247.977
247.995
248.015
248.032
248.051
248.067
248.085
248.099
248.116
248.13
248.145
248.158
248.172
248.184
248.198
248.208
248.221
248.23
248.242
248.25
248.262
248.269
248.28
248.286
248.296
248.302
248.311
248.316
248.325
248.329
248.337
248.34
248.349
248.351
248.359
248.36
248.368
248.369
248.377
248.377
248.385
248.385
248.392
248.393
248.401
)
;

boundaryField
{
    sides
    {
        type            zeroGradient;
    }
    empty
    {
        type            empty;
    }
}


// ************************************************************************* //
