/*--------------------------------*- C++ -*----------------------------------*\
  =========                 |
  \\      /  F ield         | OpenFOAM: The Open Source CFD Toolbox
   \\    /   O peration     | Website:  https://openfoam.org
    \\  /    A nd           | Version:  9
     \\/     M anipulation  |
\*---------------------------------------------------------------------------*/
FoamFile
{
    format      ascii;
    class       volScalarField;
    location    "0.001";
    object      ddt0(rho,e);
}
// * * * * * * * * * * * * * * * * * * * * * * * * * * * * * * * * * * * * * //

dimensions      [1 -1 -3 0 0 0 0];

internalField   nonuniform List<scalar> 
100
(
-5.96185e-11
-5.43296e-11
1.45252e-06
5.59661e-12
1.27641e-06
2.51925e-06
-5.43296e-11
1.45208e-06
5.59661e-12
-2.16153e-07
5.59661e-12
-3.33505e-11
4.55072e-11
-3.33505e-11
2.36992e-11
5.59661e-12
-3.33505e-11
4.55072e-11
-3.33505e-11
-3.33505e-11
5.59661e-12
-3.33505e-11
4.55072e-11
-3.33505e-11
-3.33505e-11
5.59661e-12
3.22276e-11
2.44811e-11
-3.33505e-11
-3.33505e-11
-5.52319e-06
-6.63962e-05
-0.00089312
-0.00874039
-0.10024
-0.864261
-8.43377
-63.0616
-508.899
-3217.8
-20620.4
-105777
-504140
-1.93269e+06
-4.94521e+06
-7.94788e+06
-8.2133e+06
-6.38225e+06
3.23472e+06
7.28905e+06
-1.29897e+07
-3.22228e+07
-6.41347e+07
-3.19535e+07
-138470
5.64303e+07
2.46665e+06
-281707
-49366.1
-6514.3
-816.742
-97.3286
-10.8193
-1.13359
-0.109434
-0.0100526
-0.000847009
-6.87598e-05
-5.37178e-06
-3.13594e-07
5.6025e-12
5.6025e-12
-4.35292e-12
-7.75141e-12
5.9648e-12
5.6025e-12
5.6025e-12
2.48155e-12
5.6025e-12
5.9648e-12
5.6025e-12
5.6025e-12
2.48155e-12
5.6025e-12
5.9648e-12
5.6025e-12
5.6025e-12
2.48155e-12
5.6025e-12
5.9648e-12
-4.35292e-12
-1.36054e-11
8.48319e-13
2.76184e-12
-4.35292e-12
-4.35292e-12
-1.36054e-11
8.48319e-13
2.76184e-12
-7.49669e-12
)
;

boundaryField
{
    sides
    {
        type            calculated;
        value           nonuniform List<scalar> 2(-7.49669e-12 -5.96185e-11);
    }
    empty
    {
        type            empty;
    }
}


// ************************************************************************* //
