/*--------------------------------*- C++ -*----------------------------------*\
  =========                 |
  \\      /  F ield         | OpenFOAM: The Open Source CFD Toolbox
   \\    /   O peration     | Website:  https://openfoam.org
    \\  /    A nd           | Version:  9
     \\/     M anipulation  |
\*---------------------------------------------------------------------------*/
FoamFile
{
    format      ascii;
    class       volVectorField;
    location    "0.001";
    object      ddtCorrDdt0(rho,U);
}
// * * * * * * * * * * * * * * * * * * * * * * * * * * * * * * * * * * * * * //

dimensions      [1 -2 -2 0 0 0 0];

internalField   nonuniform List<vector> 
100
(
(-1.75318e-30 0 0)
(1.16415e-09 0 0)
(-1.45519e-10 0 0)
(-2.91038e-10 0 0)
(1.01863e-09 0 0)
(-8.73115e-10 0 0)
(2.91038e-10 0 0)
(-1.45519e-10 0 0)
(1.16415e-09 0 0)
(0 0 0)
(-2.03727e-09 0 0)
(1.59249e-26 0 0)
(0 0 0)
(5.82077e-10 0 0)
(-5.82077e-10 0 0)
(2.85909e-31 0 0)
(2.59123e-28 0 0)
(0 0 0)
(5.82077e-10 0 0)
(-5.82077e-10 0 0)
(0 0 0)
(2.37891e-30 0 0)
(0 0 0)
(5.82077e-10 0 0)
(-5.82077e-10 0 0)
(-4.36557e-10 0 0)
(-1.45519e-10 0 0)
(5.82077e-10 0 0)
(5.82077e-10 0 0)
(4.94765e-09 0 0)
(4.62751e-08 0 0)
(6.43631e-07 0 0)
(6.56873e-06 0 0)
(8.12674e-05 0 0)
(0.00073747 0 0)
(0.00784486 0 0)
(0.0623086 0 0)
(0.556069 0 0)
(3.78591 0 0)
(27.3874 0 0)
(154.871 0 0)
(863.064 0 0)
(3818.25 0 0)
(14388.3 0 0)
(36407 0 0)
(68402.6 0 0)
(91892.7 0 0)
(72982.8 0 0)
(33303 0 0)
(32556.1 0 0)
(26044.3 0 0)
(-15845.6 0 0)
(-2164.23 0 0)
(14023.9 0 0)
(145508 0 0)
(297381 0 0)
(70784.1 0 0)
(7666.63 0 0)
(966.134 0 0)
(122.587 0 0)
(15.3342 0 0)
(1.82476 0 0)
(0.205221 0 0)
(0.0213557 0 0)
(0.00210389 0 0)
(0.000190285 0 0)
(1.65129e-05 0 0)
(1.30938e-06 0 0)
(1.01081e-07 0 0)
(7.05768e-09 0 0)
(4.91127e-10 0 0)
(1.81899e-11 0 0)
(1.81899e-11 0 0)
(-1.81899e-11 0 0)
(-1.81899e-11 0 0)
(-7.45571e-31 0 0)
(4.41692e-31 0 0)
(-1.61952e-30 0 0)
(-5.1012e-32 0 0)
(-3.71128e-31 0 0)
(-7.45571e-31 0 0)
(3.70587e-26 0 0)
(4.9208e-31 0 0)
(-5.1012e-32 0 0)
(-3.71128e-31 0 0)
(-7.45571e-31 0 0)
(3.70587e-26 0 0)
(2.73491e-30 0 0)
(-3.03879e-31 0 0)
(1.81899e-11 0 0)
(-3.03978e-25 0 0)
(-9.09495e-11 0 0)
(-3.63798e-11 0 0)
(7.27596e-11 0 0)
(7.27596e-11 0 0)
(-3.63798e-11 0 0)
(-7.27596e-11 0 0)
(-3.63798e-11 0 0)
(5.45697e-11 0 0)
(5.45697e-11 0 0)
)
;

boundaryField
{
    sides
    {
        type            calculated;
        value           nonuniform List<vector> 2((5.45697e-11 0 0) (-1.75318e-30 0 0));
    }
    empty
    {
        type            empty;
    }
}


// ************************************************************************* //
