/*--------------------------------*- C++ -*----------------------------------*\
  =========                 |
  \\      /  F ield         | OpenFOAM: The Open Source CFD Toolbox
   \\    /   O peration     | Website:  https://openfoam.org
    \\  /    A nd           | Version:  9
     \\/     M anipulation  |
\*---------------------------------------------------------------------------*/
FoamFile
{
    format      ascii;
    class       surfaceScalarField;
    location    "0.001";
    object      phi_0;
}
// * * * * * * * * * * * * * * * * * * * * * * * * * * * * * * * * * * * * * //

dimensions      [1 0 -1 0 0 0 0];

internalField   nonuniform List<scalar> 
99
(
2.1565e-12
2.13518e-12
-3.40705e-12
-2.1636e-12
2.70006e-13
2.63611e-12
2.57927e-12
-2.58993e-12
-1.34648e-12
7.4607e-14
2.8777e-13
-3.55271e-14
1.27542e-12
-3.55271e-15
-1.26477e-12
3.55271e-14
-2.4869e-14
1.27187e-12
1.42109e-14
-1.27542e-12
1.42109e-14
-3.55271e-14
1.27187e-12
0
-2.13873e-12
-1.03739e-12
7.67386e-13
2.4194e-12
2.00018e-12
3.99325e-12
5.25375e-11
5.89594e-10
7.67316e-09
7.68705e-08
8.70467e-07
7.71308e-06
7.44808e-05
0.000573721
0.00460233
0.0300754
0.193326
1.03112
5.03827
20.6151
63.5768
145.365
265.264
385.909
472.818
493.489
474.586
460.368
411.921
390.595
323.422
58.4986
9.49123
1.20196
0.153179
0.0190013
0.00224353
0.000247568
2.57124e-05
2.46877e-06
2.25003e-07
1.88868e-08
1.52538e-09
1.13025e-10
8.09308e-12
5.31575e-13
8.26006e-14
7.14984e-14
-3.55271e-15
-6.52811e-14
-2.84217e-14
0
-2.66454e-15
-4.44089e-16
0
2.66454e-15
-8.88178e-16
-2.66454e-15
4.44089e-16
0
2.66454e-15
-8.88178e-16
-1.77636e-15
8.88178e-16
2.88658e-14
3.68594e-14
-1.80744e-13
-2.57128e-13
6.30607e-14
3.04645e-13
6.4837e-14
-2.07834e-13
-2.22489e-13
3.06422e-14
2.26485e-13
)
;

boundaryField
{
    sides
    {
        type            calculated;
        value           nonuniform List<scalar> 2(2.0882e-13 5.82077e-15);
    }
    empty
    {
        type            empty;
        value           nonuniform List<scalar> 0();
    }
}


// ************************************************************************* //
