/*--------------------------------*- C++ -*----------------------------------*\
  =========                 |
  \\      /  F ield         | OpenFOAM: The Open Source CFD Toolbox
   \\    /   O peration     | Website:  https://openfoam.org
    \\  /    A nd           | Version:  9
     \\/     M anipulation  |
\*---------------------------------------------------------------------------*/
FoamFile
{
    format      ascii;
    class       volScalarField;
    location    "0.009";
    object      mag(U);
}
// * * * * * * * * * * * * * * * * * * * * * * * * * * * * * * * * * * * * * //

dimensions      [0 1 -1 0 0 0 0];

internalField   nonuniform List<scalar> 
100
(
1.27472e-08
6.81342e-08
2.75154e-07
1.10225e-06
4.28268e-06
1.61584e-05
5.91422e-05
0.000209802
0.000720553
0.00239286
0.00767228
0.0237095
0.0704704
0.200962
0.54839
1.42898
3.56002
8.51689
18.3188
30.769
42.2076
52.3441
61.761
70.8369
79.75
88.5769
97.3519
106.093
114.81
123.511
132.204
140.892
149.581
158.273
166.971
175.678
184.396
193.124
201.864
210.614
219.372
228.134
236.893
245.636
254.344
262.988
271.427
279.461
286.442
291.208
293.18
293.259
292.66
293.215
293.489
293.622
293.728
293.78
293.745
293.636
293.634
293.609
293.571
293.585
293.643
293.699
293.571
293.428
293.395
293.384
293.405
293.45
293.536
293.643
293.687
293.846
293.159
295.707
296.357
291.055
289.476
289.838
290.283
291.23
294.393
297
297.298
296.773
294.103
289.992
289.102
288.904
289.138
290.758
295.547
297.713
297.937
297.606
295.725
225.671
)
;

boundaryField
{
    sides
    {
        type            calculated;
        value           nonuniform List<scalar> 2(225.671 1.27472e-08);
    }
    empty
    {
        type            empty;
    }
}


// ************************************************************************* //
