/*--------------------------------*- C++ -*----------------------------------*\
  =========                 |
  \\      /  F ield         | OpenFOAM: The Open Source CFD Toolbox
   \\    /   O peration     | Website:  https://openfoam.org
    \\  /    A nd           | Version:  9
     \\/     M anipulation  |
\*---------------------------------------------------------------------------*/
FoamFile
{
    format      ascii;
    class       volScalarField;
    location    "0.009";
    object      T;
}
// * * * * * * * * * * * * * * * * * * * * * * * * * * * * * * * * * * * * * //

dimensions      [0 0 0 1 0 0 0];

internalField   nonuniform List<scalar> 
100
(
348.432
348.432
348.432
348.432
348.432
348.432
348.432
348.432
348.432
348.431
348.429
348.423
348.406
348.357
348.228
347.9
347.106
345.261
341.621
337.026
332.833
329.137
325.722
322.449
319.251
316.099
312.983
309.894
306.829
303.784
300.758
297.749
294.756
291.776
288.809
285.855
282.913
279.982
277.063
274.156
271.262
268.382
265.519
262.676
259.859
257.086
254.373
251.824
249.656
248.117
247.44
247.446
247.658
247.49
247.417
247.356
247.259
247.221
247.25
247.293
247.328
247.349
247.365
247.349
247.281
247.147
247.055
247.041
247.078
247.243
247.721
248.879
251.398
256.543
266.628
285.459
317.044
357.953
384.769
393.535
397.086
398.856
399.63
400.141
401.008
401.592
401.324
400.559
398.989
397.121
396.525
396.203
395.985
396.211
397.752
398.36
398.273
398.035
395.477
380.473
)
;

boundaryField
{
    sides
    {
        type            zeroGradient;
    }
    empty
    {
        type            empty;
    }
}


// ************************************************************************* //
