/*--------------------------------*- C++ -*----------------------------------*\
  =========                 |
  \\      /  F ield         | OpenFOAM: The Open Source CFD Toolbox
   \\    /   O peration     | Website:  https://openfoam.org
    \\  /    A nd           | Version:  9
     \\/     M anipulation  |
\*---------------------------------------------------------------------------*/
FoamFile
{
    format      ascii;
    class       volScalarField;
    location    "0.015";
    object      ddt0(rho);
}
// * * * * * * * * * * * * * * * * * * * * * * * * * * * * * * * * * * * * * //

dimensions      [1 -3 -1 0 0 0 0];

internalField   nonuniform List<scalar> 
100
(
-65.5367
-64.3837
-63.2717
-61.3183
-59.0049
-56.0663
-52.5413
-48.5278
-44.2878
-40.1356
-36.3368
-33.0489
-30.3158
-28.0955
-26.2971
-24.8157
-23.5573
-22.4446
-21.4375
-20.4629
-19.6132
-18.5859
-18.019
-16.6967
-16.4564
-15.2727
-14.1637
-14.6143
-12.2657
-12.223
-12.5734
-9.97033
-9.59123
-10.777
-8.82008
-6.67048
-7.80874
-8.53111
-6.00336
-3.94116
-5.22229
-6.64568
-4.73292
-1.70746
-1.72276
-4.0907
-4.58105
-1.89524
0.627311
0.536964
-2.15278
-3.18766
-1.23947
0.946524
1.87586
1.7042
-1.71127
-1.72677
-0.152214
0.614837
1.32863
1.13019
0.693711
0.0313704
-0.374262
0.155495
0.469989
0.0122417
1.09594
1.18472
2.3124
-3.25969
-0.454252
1.48048
2.42924
4.29501
-6.58085
-1.46912
0.455359
12.8821
1.15923
-12.3022
-1.79492
12.7046
12.894
-21.6482
-5.41078
0.650498
23.7871
13.3001
22.5973
103.179
109.313
59.5952
47.9039
58.1905
9.10857
-11.8611
13.9282
19.7447
)
;

boundaryField
{
    sides
    {
        type            calculated;
        value           nonuniform List<scalar> 2(19.7447 -65.5367);
    }
    empty
    {
        type            empty;
    }
}


// ************************************************************************* //
