/*--------------------------------*- C++ -*----------------------------------*\
  =========                 |
  \\      /  F ield         | OpenFOAM: The Open Source CFD Toolbox
   \\    /   O peration     | Website:  https://openfoam.org
    \\  /    A nd           | Version:  9
     \\/     M anipulation  |
\*---------------------------------------------------------------------------*/
FoamFile
{
    format      ascii;
    class       volScalarField;
    location    "0.015";
    object      p_0;
}
// * * * * * * * * * * * * * * * * * * * * * * * * * * * * * * * * * * * * * //

dimensions      [1 -1 -2 0 0 0 0];

internalField   nonuniform List<scalar> 
100
(
76963.7
76318.8
75854.9
75278.5
74654.6
73950.1
73160.9
72276.5
71294.3
70220.7
69069.8
67860.3
66611.9
65342.6
64066.8
62795.4
61535.7
60292.5
59068.6
57865.4
56684.6
55524.7
54390.2
53272.8
52186.8
51112
50072.2
49045.6
48044.2
47069.5
46112
45178.9
44271.5
43385
42521.6
41683.4
40869.3
40079.7
39314.9
38575.3
37862.1
37177
36519.7
35889.3
35287.8
34718.6
34182.6
33677.1
33205.4
32762.8
32366.2
32002.4
31677.7
31381.2
31138.4
30907.9
30742.4
30605.2
30486.6
30408.4
30345.9
30313.4
30292.5
30288.6
30289.1
30291.9
30293.1
30301.2
30308
30315.5
30320.4
30329.4
30345.5
30355.8
30359.7
30350.6
30370.1
30402.3
30429.3
30409.4
30367.6
30445.7
30497.4
30510
30418.8
30448.4
30593.2
30643.1
30609.2
30520.1
30568
30622.2
30579.9
30580.6
30723.2
30637.5
30540.5
30836.2
30980.5
30531.4
)
;

boundaryField
{
    sides
    {
        type            zeroGradient;
    }
    empty
    {
        type            empty;
    }
}


// ************************************************************************* //
