/*--------------------------------*- C++ -*----------------------------------*\
  =========                 |
  \\      /  F ield         | OpenFOAM: The Open Source CFD Toolbox
   \\    /   O peration     | Website:  https://openfoam.org
    \\  /    A nd           | Version:  9
     \\/     M anipulation  |
\*---------------------------------------------------------------------------*/
FoamFile
{
    format      ascii;
    class       surfaceScalarField;
    location    "0.015";
    object      phi_0;
}
// * * * * * * * * * * * * * * * * * * * * * * * * * * * * * * * * * * * * * //

dimensions      [1 0 -1 0 0 0 0];

internalField   nonuniform List<scalar> 
99
(
84.2717
110.025
135.334
159.861
183.463
205.89
226.906
246.317
264.032
280.087
294.621
307.841
319.967
331.206
341.724
351.651
361.074
370.051
378.626
386.812
394.657
402.091
409.299
415.977
422.56
428.669
434.335
440.18
445.087
449.976
455.005
458.993
462.83
467.141
470.669
473.337
476.46
479.873
482.274
483.851
485.939
488.598
490.491
491.174
491.863
493.499
495.332
496.09
495.839
495.624
496.485
497.76
498.256
497.877
497.127
496.445
497.13
497.821
497.881
497.636
497.104
496.652
496.375
496.362
496.512
496.45
496.262
496.257
495.818
495.344
494.419
495.723
495.905
495.313
494.341
492.623
495.255
495.843
495.661
490.508
490.044
494.965
495.683
490.601
485.444
494.103
496.267
496.007
486.492
481.172
472.133
430.862
387.137
363.299
344.137
320.861
317.218
321.962
316.391
)
;

boundaryField
{
    sides
    {
        type            calculated;
        value           nonuniform List<scalar> 2(308.493 -58.057);
    }
    empty
    {
        type            empty;
        value           nonuniform List<scalar> 0();
    }
}


// ************************************************************************* //
