/*--------------------------------*- C++ -*----------------------------------*\
  =========                 |
  \\      /  F ield         | OpenFOAM: The Open Source CFD Toolbox
   \\    /   O peration     | Website:  https://openfoam.org
    \\  /    A nd           | Version:  9
     \\/     M anipulation  |
\*---------------------------------------------------------------------------*/
FoamFile
{
    format      ascii;
    class       volScalarField;
    location    "0.015";
    object      T;
}
// * * * * * * * * * * * * * * * * * * * * * * * * * * * * * * * * * * * * * //

dimensions      [0 0 0 1 0 0 0];

internalField   nonuniform List<scalar> 
100
(
322.992
322.533
321.863
321.152
320.388
319.532
318.564
317.47
316.241
314.881
313.405
311.833
310.188
308.491
306.761
305.012
303.254
301.494
299.737
297.977
296.248
294.461
292.841
290.892
289.577
287.317
286.222
284.172
282.433
281.261
279.192
277.488
276.393
274.586
272.626
271.461
270.261
268.347
266.587
265.58
264.555
262.835
261.034
259.973
259.337
258.204
256.514
255.103
254.449
254.083
253.355
252.064
250.925
250.376
250.295
250.208
249.908
249.165
248.685
248.622
248.68
248.89
248.971
248.952
248.852
248.815
248.823
248.926
249.144
249.266
249.316
249.331
249.37
249.419
249.526
249.709
249.885
250.064
250.18
250.217
250.211
250.597
251.088
251.412
251.367
251.417
251.855
252.091
252.422
253.392
257.769
272.427
301.434
329.076
352.922
370.702
382.859
391.949
397.285
398.586
)
;

boundaryField
{
    sides
    {
        type            zeroGradient;
    }
    empty
    {
        type            empty;
    }
}


// ************************************************************************* //
