/*--------------------------------*- C++ -*----------------------------------*\
  =========                 |
  \\      /  F ield         | OpenFOAM: The Open Source CFD Toolbox
   \\    /   O peration     | Website:  https://openfoam.org
    \\  /    A nd           | Version:  9
     \\/     M anipulation  |
\*---------------------------------------------------------------------------*/
FoamFile
{
    format      ascii;
    class       volVectorField;
    location    "0.035";
    object      U;
}
// * * * * * * * * * * * * * * * * * * * * * * * * * * * * * * * * * * * * * //

dimensions      [0 1 -1 0 0 0 0];

internalField   nonuniform List<vector> 
10000
(
(5.10793 0 0)
(5.15127 0 0)
(5.19872 0 0)
(5.23776 0 0)
(5.27318 0 0)
(5.30885 0 0)
(5.34532 0 0)
(5.38204 0 0)
(5.41872 0 0)
(5.45532 0 0)
(5.49191 0 0)
(5.5285 0 0)
(5.5651 0 0)
(5.6017 0 0)
(5.6383 0 0)
(5.67489 0 0)
(5.71149 0 0)
(5.74809 0 0)
(5.78469 0 0)
(5.82129 0 0)
(5.85789 0 0)
(5.89449 0 0)
(5.93109 0 0)
(5.96769 0 0)
(6.00429 0 0)
(6.04089 0 0)
(6.07749 0 0)
(6.11409 0 0)
(6.15069 0 0)
(6.1873 0 0)
(6.2239 0 0)
(6.2605 0 0)
(6.2971 0 0)
(6.3337 0 0)
(6.3703 0 0)
(6.40691 0 0)
(6.44351 0 0)
(6.48011 0 0)
(6.51672 0 0)
(6.55332 0 0)
(6.58992 0 0)
(6.62652 0 0)
(6.66313 0 0)
(6.69973 0 0)
(6.73634 0 0)
(6.77294 0 0)
(6.80955 0 0)
(6.84615 0 0)
(6.88275 0 0)
(6.91936 0 0)
(6.95596 0 0)
(6.99257 0 0)
(7.02917 0 0)
(7.06578 0 0)
(7.10239 0 0)
(7.13899 0 0)
(7.1756 0 0)
(7.21221 0 0)
(7.24881 0 0)
(7.28542 0 0)
(7.32202 0 0)
(7.35863 0 0)
(7.39524 0 0)
(7.43184 0 0)
(7.46845 0 0)
(7.50506 0 0)
(7.54167 0 0)
(7.57828 0 0)
(7.61489 0 0)
(7.6515 0 0)
(7.68811 0 0)
(7.72471 0 0)
(7.76132 0 0)
(7.79793 0 0)
(7.83454 0 0)
(7.87115 0 0)
(7.90776 0 0)
(7.94437 0 0)
(7.98098 0 0)
(8.01758 0 0)
(8.0542 0 0)
(8.09081 0 0)
(8.12742 0 0)
(8.16403 0 0)
(8.20064 0 0)
(8.23725 0 0)
(8.27387 0 0)
(8.31048 0 0)
(8.34709 0 0)
(8.38371 0 0)
(8.42032 0 0)
(8.45693 0 0)
(8.49355 0 0)
(8.53016 0 0)
(8.56677 0 0)
(8.60339 0 0)
(8.64 0 0)
(8.67662 0 0)
(8.71323 0 0)
(8.74984 0 0)
(8.78646 0 0)
(8.82307 0 0)
(8.85969 0 0)
(8.8963 0 0)
(8.93291 0 0)
(8.96953 0 0)
(9.00615 0 0)
(9.04276 0 0)
(9.07938 0 0)
(9.11599 0 0)
(9.15261 0 0)
(9.18922 0 0)
(9.22584 0 0)
(9.26245 0 0)
(9.29907 0 0)
(9.33569 0 0)
(9.3723 0 0)
(9.40892 0 0)
(9.44554 0 0)
(9.48216 0 0)
(9.51877 0 0)
(9.55539 0 0)
(9.59201 0 0)
(9.62863 0 0)
(9.66524 0 0)
(9.70186 0 0)
(9.73848 0 0)
(9.7751 0 0)
(9.81172 0 0)
(9.84834 0 0)
(9.88496 0 0)
(9.92158 0 0)
(9.9582 0 0)
(9.99482 0 0)
(10.0314 0 0)
(10.0681 0 0)
(10.1047 0 0)
(10.1413 0 0)
(10.1779 0 0)
(10.2145 0 0)
(10.2512 0 0)
(10.2878 0 0)
(10.3244 0 0)
(10.361 0 0)
(10.3976 0 0)
(10.4343 0 0)
(10.4709 0 0)
(10.5075 0 0)
(10.5441 0 0)
(10.5808 0 0)
(10.6174 0 0)
(10.654 0 0)
(10.6906 0 0)
(10.7272 0 0)
(10.7639 0 0)
(10.8005 0 0)
(10.8371 0 0)
(10.8737 0 0)
(10.9104 0 0)
(10.947 0 0)
(10.9836 0 0)
(11.0202 0 0)
(11.0569 0 0)
(11.0935 0 0)
(11.1301 0 0)
(11.1667 0 0)
(11.2034 0 0)
(11.24 0 0)
(11.2766 0 0)
(11.3132 0 0)
(11.3499 0 0)
(11.3865 0 0)
(11.4231 0 0)
(11.4597 0 0)
(11.4964 0 0)
(11.533 0 0)
(11.5696 0 0)
(11.6063 0 0)
(11.6429 0 0)
(11.6795 0 0)
(11.7161 0 0)
(11.7528 0 0)
(11.7894 0 0)
(11.826 0 0)
(11.8627 0 0)
(11.8993 0 0)
(11.9359 0 0)
(11.9725 0 0)
(12.0092 0 0)
(12.0458 0 0)
(12.0824 0 0)
(12.1191 0 0)
(12.1557 0 0)
(12.1923 0 0)
(12.2289 0 0)
(12.2656 0 0)
(12.3022 0 0)
(12.3388 0 0)
(12.3755 0 0)
(12.4121 0 0)
(12.4487 0 0)
(12.4854 0 0)
(12.522 0 0)
(12.5586 0 0)
(12.5953 0 0)
(12.6319 0 0)
(12.6685 0 0)
(12.7052 0 0)
(12.7418 0 0)
(12.7784 0 0)
(12.8151 0 0)
(12.8517 0 0)
(12.8883 0 0)
(12.925 0 0)
(12.9616 0 0)
(12.9982 0 0)
(13.0349 0 0)
(13.0715 0 0)
(13.1081 0 0)
(13.1448 0 0)
(13.1814 0 0)
(13.218 0 0)
(13.2547 0 0)
(13.2913 0 0)
(13.3279 0 0)
(13.3646 0 0)
(13.4012 0 0)
(13.4379 0 0)
(13.4745 0 0)
(13.5111 0 0)
(13.5478 0 0)
(13.5844 0 0)
(13.621 0 0)
(13.6577 0 0)
(13.6943 0 0)
(13.7309 0 0)
(13.7676 0 0)
(13.8042 0 0)
(13.8409 0 0)
(13.8775 0 0)
(13.9141 0 0)
(13.9508 0 0)
(13.9874 0 0)
(14.0241 0 0)
(14.0607 0 0)
(14.0973 0 0)
(14.134 0 0)
(14.1706 0 0)
(14.2073 0 0)
(14.2439 0 0)
(14.2805 0 0)
(14.3172 0 0)
(14.3538 0 0)
(14.3905 0 0)
(14.4271 0 0)
(14.4637 0 0)
(14.5004 0 0)
(14.537 0 0)
(14.5737 0 0)
(14.6103 0 0)
(14.6469 0 0)
(14.6836 0 0)
(14.7202 0 0)
(14.7569 0 0)
(14.7935 0 0)
(14.8302 0 0)
(14.8668 0 0)
(14.9034 0 0)
(14.9401 0 0)
(14.9767 0 0)
(15.0134 0 0)
(15.05 0 0)
(15.0867 0 0)
(15.1233 0 0)
(15.1599 0 0)
(15.1966 0 0)
(15.2332 0 0)
(15.2699 0 0)
(15.3065 0 0)
(15.3432 0 0)
(15.3798 0 0)
(15.4165 0 0)
(15.4531 0 0)
(15.4898 0 0)
(15.5264 0 0)
(15.563 0 0)
(15.5997 0 0)
(15.6363 0 0)
(15.673 0 0)
(15.7096 0 0)
(15.7463 0 0)
(15.7829 0 0)
(15.8196 0 0)
(15.8562 0 0)
(15.8929 0 0)
(15.9295 0 0)
(15.9662 0 0)
(16.0028 0 0)
(16.0395 0 0)
(16.0761 0 0)
(16.1128 0 0)
(16.1494 0 0)
(16.1861 0 0)
(16.2227 0 0)
(16.2594 0 0)
(16.296 0 0)
(16.3327 0 0)
(16.3693 0 0)
(16.406 0 0)
(16.4426 0 0)
(16.4793 0 0)
(16.5159 0 0)
(16.5526 0 0)
(16.5892 0 0)
(16.6259 0 0)
(16.6625 0 0)
(16.6992 0 0)
(16.7358 0 0)
(16.7725 0 0)
(16.8091 0 0)
(16.8458 0 0)
(16.8824 0 0)
(16.9191 0 0)
(16.9557 0 0)
(16.9924 0 0)
(17.029 0 0)
(17.0657 0 0)
(17.1023 0 0)
(17.139 0 0)
(17.1756 0 0)
(17.2123 0 0)
(17.2489 0 0)
(17.2856 0 0)
(17.3223 0 0)
(17.3589 0 0)
(17.3956 0 0)
(17.4322 0 0)
(17.4689 0 0)
(17.5055 0 0)
(17.5422 0 0)
(17.5788 0 0)
(17.6155 0 0)
(17.6522 0 0)
(17.6888 0 0)
(17.7255 0 0)
(17.7621 0 0)
(17.7988 0 0)
(17.8354 0 0)
(17.8721 0 0)
(17.9087 0 0)
(17.9454 0 0)
(17.9821 0 0)
(18.0187 0 0)
(18.0554 0 0)
(18.092 0 0)
(18.1287 0 0)
(18.1654 0 0)
(18.202 0 0)
(18.2387 0 0)
(18.2753 0 0)
(18.312 0 0)
(18.3486 0 0)
(18.3853 0 0)
(18.422 0 0)
(18.4586 0 0)
(18.4953 0 0)
(18.5319 0 0)
(18.5686 0 0)
(18.6053 0 0)
(18.6419 0 0)
(18.6786 0 0)
(18.7152 0 0)
(18.7519 0 0)
(18.7886 0 0)
(18.8252 0 0)
(18.8619 0 0)
(18.8985 0 0)
(18.9352 0 0)
(18.9719 0 0)
(19.0085 0 0)
(19.0452 0 0)
(19.0819 0 0)
(19.1185 0 0)
(19.1552 0 0)
(19.1918 0 0)
(19.2285 0 0)
(19.2652 0 0)
(19.3018 0 0)
(19.3385 0 0)
(19.3752 0 0)
(19.4118 0 0)
(19.4485 0 0)
(19.4852 0 0)
(19.5218 0 0)
(19.5585 0 0)
(19.5951 0 0)
(19.6318 0 0)
(19.6685 0 0)
(19.7051 0 0)
(19.7418 0 0)
(19.7785 0 0)
(19.8151 0 0)
(19.8518 0 0)
(19.8885 0 0)
(19.9251 0 0)
(19.9618 0 0)
(19.9985 0 0)
(20.0351 0 0)
(20.0718 0 0)
(20.1085 0 0)
(20.1451 0 0)
(20.1818 0 0)
(20.2185 0 0)
(20.2551 0 0)
(20.2918 0 0)
(20.3285 0 0)
(20.3651 0 0)
(20.4018 0 0)
(20.4385 0 0)
(20.4751 0 0)
(20.5118 0 0)
(20.5485 0 0)
(20.5852 0 0)
(20.6218 0 0)
(20.6585 0 0)
(20.6952 0 0)
(20.7318 0 0)
(20.7685 0 0)
(20.8052 0 0)
(20.8418 0 0)
(20.8785 0 0)
(20.9152 0 0)
(20.9519 0 0)
(20.9885 0 0)
(21.0252 0 0)
(21.0619 0 0)
(21.0985 0 0)
(21.1352 0 0)
(21.1719 0 0)
(21.2086 0 0)
(21.2452 0 0)
(21.2819 0 0)
(21.3186 0 0)
(21.3552 0 0)
(21.3919 0 0)
(21.4286 0 0)
(21.4653 0 0)
(21.5019 0 0)
(21.5386 0 0)
(21.5753 0 0)
(21.612 0 0)
(21.6486 0 0)
(21.6853 0 0)
(21.722 0 0)
(21.7587 0 0)
(21.7953 0 0)
(21.832 0 0)
(21.8687 0 0)
(21.9054 0 0)
(21.942 0 0)
(21.9787 0 0)
(22.0154 0 0)
(22.0521 0 0)
(22.0887 0 0)
(22.1254 0 0)
(22.1621 0 0)
(22.1988 0 0)
(22.2354 0 0)
(22.2721 0 0)
(22.3088 0 0)
(22.3455 0 0)
(22.3821 0 0)
(22.4188 0 0)
(22.4555 0 0)
(22.4922 0 0)
(22.5289 0 0)
(22.5655 0 0)
(22.6022 0 0)
(22.6389 0 0)
(22.6756 0 0)
(22.7122 0 0)
(22.7489 0 0)
(22.7856 0 0)
(22.8223 0 0)
(22.859 0 0)
(22.8956 0 0)
(22.9323 0 0)
(22.969 0 0)
(23.0057 0 0)
(23.0424 0 0)
(23.079 0 0)
(23.1157 0 0)
(23.1524 0 0)
(23.1891 0 0)
(23.2258 0 0)
(23.2624 0 0)
(23.2991 0 0)
(23.3358 0 0)
(23.3725 0 0)
(23.4092 0 0)
(23.4459 0 0)
(23.4825 0 0)
(23.5192 0 0)
(23.5559 0 0)
(23.5926 0 0)
(23.6293 0 0)
(23.6659 0 0)
(23.7026 0 0)
(23.7393 0 0)
(23.776 0 0)
(23.8127 0 0)
(23.8494 0 0)
(23.886 0 0)
(23.9227 0 0)
(23.9594 0 0)
(23.9961 0 0)
(24.0328 0 0)
(24.0695 0 0)
(24.1062 0 0)
(24.1428 0 0)
(24.1795 0 0)
(24.2162 0 0)
(24.2529 0 0)
(24.2896 0 0)
(24.3263 0 0)
(24.363 0 0)
(24.3996 0 0)
(24.4363 0 0)
(24.473 0 0)
(24.5097 0 0)
(24.5464 0 0)
(24.5831 0 0)
(24.6198 0 0)
(24.6564 0 0)
(24.6931 0 0)
(24.7298 0 0)
(24.7665 0 0)
(24.8032 0 0)
(24.8399 0 0)
(24.8766 0 0)
(24.9133 0 0)
(24.9499 0 0)
(24.9866 0 0)
(25.0233 0 0)
(25.06 0 0)
(25.0967 0 0)
(25.1334 0 0)
(25.1701 0 0)
(25.2068 0 0)
(25.2435 0 0)
(25.2801 0 0)
(25.3168 0 0)
(25.3535 0 0)
(25.3902 0 0)
(25.4269 0 0)
(25.4636 0 0)
(25.5003 0 0)
(25.537 0 0)
(25.5737 0 0)
(25.6104 0 0)
(25.6471 0 0)
(25.6837 0 0)
(25.7204 0 0)
(25.7571 0 0)
(25.7938 0 0)
(25.8305 0 0)
(25.8672 0 0)
(25.9039 0 0)
(25.9406 0 0)
(25.9773 0 0)
(26.014 0 0)
(26.0507 0 0)
(26.0874 0 0)
(26.1241 0 0)
(26.1608 0 0)
(26.1974 0 0)
(26.2341 0 0)
(26.2708 0 0)
(26.3075 0 0)
(26.3442 0 0)
(26.3809 0 0)
(26.4176 0 0)
(26.4543 0 0)
(26.491 0 0)
(26.5277 0 0)
(26.5644 0 0)
(26.6011 0 0)
(26.6378 0 0)
(26.6745 0 0)
(26.7112 0 0)
(26.7479 0 0)
(26.7846 0 0)
(26.8213 0 0)
(26.858 0 0)
(26.8947 0 0)
(26.9314 0 0)
(26.9681 0 0)
(27.0048 0 0)
(27.0415 0 0)
(27.0781 0 0)
(27.1148 0 0)
(27.1515 0 0)
(27.1882 0 0)
(27.2249 0 0)
(27.2616 0 0)
(27.2983 0 0)
(27.335 0 0)
(27.3717 0 0)
(27.4084 0 0)
(27.4451 0 0)
(27.4818 0 0)
(27.5185 0 0)
(27.5552 0 0)
(27.5919 0 0)
(27.6286 0 0)
(27.6653 0 0)
(27.702 0 0)
(27.7387 0 0)
(27.7754 0 0)
(27.8121 0 0)
(27.8488 0 0)
(27.8855 0 0)
(27.9222 0 0)
(27.9589 0 0)
(27.9956 0 0)
(28.0323 0 0)
(28.069 0 0)
(28.1057 0 0)
(28.1424 0 0)
(28.1792 0 0)
(28.2159 0 0)
(28.2526 0 0)
(28.2893 0 0)
(28.326 0 0)
(28.3627 0 0)
(28.3994 0 0)
(28.4361 0 0)
(28.4728 0 0)
(28.5095 0 0)
(28.5462 0 0)
(28.5829 0 0)
(28.6196 0 0)
(28.6563 0 0)
(28.693 0 0)
(28.7297 0 0)
(28.7664 0 0)
(28.8031 0 0)
(28.8398 0 0)
(28.8765 0 0)
(28.9132 0 0)
(28.9499 0 0)
(28.9866 0 0)
(29.0233 0 0)
(29.0601 0 0)
(29.0968 0 0)
(29.1335 0 0)
(29.1702 0 0)
(29.2069 0 0)
(29.2436 0 0)
(29.2803 0 0)
(29.317 0 0)
(29.3537 0 0)
(29.3904 0 0)
(29.4271 0 0)
(29.4638 0 0)
(29.5005 0 0)
(29.5372 0 0)
(29.574 0 0)
(29.6107 0 0)
(29.6474 0 0)
(29.6841 0 0)
(29.7208 0 0)
(29.7575 0 0)
(29.7942 0 0)
(29.8309 0 0)
(29.8676 0 0)
(29.9043 0 0)
(29.941 0 0)
(29.9778 0 0)
(30.0145 0 0)
(30.0512 0 0)
(30.0879 0 0)
(30.1246 0 0)
(30.1613 0 0)
(30.198 0 0)
(30.2347 0 0)
(30.2714 0 0)
(30.3082 0 0)
(30.3449 0 0)
(30.3816 0 0)
(30.4183 0 0)
(30.455 0 0)
(30.4917 0 0)
(30.5284 0 0)
(30.5651 0 0)
(30.6018 0 0)
(30.6386 0 0)
(30.6753 0 0)
(30.712 0 0)
(30.7487 0 0)
(30.7854 0 0)
(30.8221 0 0)
(30.8588 0 0)
(30.8956 0 0)
(30.9323 0 0)
(30.969 0 0)
(31.0057 0 0)
(31.0424 0 0)
(31.0791 0 0)
(31.1158 0 0)
(31.1526 0 0)
(31.1893 0 0)
(31.226 0 0)
(31.2627 0 0)
(31.2994 0 0)
(31.3361 0 0)
(31.3728 0 0)
(31.4096 0 0)
(31.4463 0 0)
(31.483 0 0)
(31.5197 0 0)
(31.5564 0 0)
(31.5931 0 0)
(31.6299 0 0)
(31.6666 0 0)
(31.7033 0 0)
(31.74 0 0)
(31.7767 0 0)
(31.8134 0 0)
(31.8502 0 0)
(31.8869 0 0)
(31.9236 0 0)
(31.9603 0 0)
(31.997 0 0)
(32.0338 0 0)
(32.0705 0 0)
(32.1072 0 0)
(32.1439 0 0)
(32.1806 0 0)
(32.2173 0 0)
(32.2541 0 0)
(32.2908 0 0)
(32.3275 0 0)
(32.3642 0 0)
(32.4009 0 0)
(32.4377 0 0)
(32.4744 0 0)
(32.5111 0 0)
(32.5478 0 0)
(32.5845 0 0)
(32.6213 0 0)
(32.658 0 0)
(32.6947 0 0)
(32.7314 0 0)
(32.7682 0 0)
(32.8049 0 0)
(32.8416 0 0)
(32.8783 0 0)
(32.915 0 0)
(32.9518 0 0)
(32.9885 0 0)
(33.0252 0 0)
(33.0619 0 0)
(33.0987 0 0)
(33.1354 0 0)
(33.1721 0 0)
(33.2088 0 0)
(33.2455 0 0)
(33.2823 0 0)
(33.319 0 0)
(33.3557 0 0)
(33.3924 0 0)
(33.4292 0 0)
(33.4659 0 0)
(33.5026 0 0)
(33.5393 0 0)
(33.5761 0 0)
(33.6128 0 0)
(33.6495 0 0)
(33.6862 0 0)
(33.723 0 0)
(33.7597 0 0)
(33.7964 0 0)
(33.8331 0 0)
(33.8699 0 0)
(33.9066 0 0)
(33.9433 0 0)
(33.98 0 0)
(34.0168 0 0)
(34.0535 0 0)
(34.0902 0 0)
(34.127 0 0)
(34.1637 0 0)
(34.2004 0 0)
(34.2371 0 0)
(34.2739 0 0)
(34.3106 0 0)
(34.3473 0 0)
(34.384 0 0)
(34.4208 0 0)
(34.4575 0 0)
(34.4942 0 0)
(34.531 0 0)
(34.5677 0 0)
(34.6044 0 0)
(34.6411 0 0)
(34.6779 0 0)
(34.7146 0 0)
(34.7513 0 0)
(34.7881 0 0)
(34.8248 0 0)
(34.8615 0 0)
(34.8983 0 0)
(34.935 0 0)
(34.9717 0 0)
(35.0084 0 0)
(35.0452 0 0)
(35.0819 0 0)
(35.1186 0 0)
(35.1554 0 0)
(35.1921 0 0)
(35.2288 0 0)
(35.2656 0 0)
(35.3023 0 0)
(35.339 0 0)
(35.3758 0 0)
(35.4125 0 0)
(35.4492 0 0)
(35.486 0 0)
(35.5227 0 0)
(35.5594 0 0)
(35.5962 0 0)
(35.6329 0 0)
(35.6696 0 0)
(35.7064 0 0)
(35.7431 0 0)
(35.7798 0 0)
(35.8166 0 0)
(35.8533 0 0)
(35.89 0 0)
(35.9268 0 0)
(35.9635 0 0)
(36.0002 0 0)
(36.037 0 0)
(36.0737 0 0)
(36.1104 0 0)
(36.1472 0 0)
(36.1839 0 0)
(36.2206 0 0)
(36.2574 0 0)
(36.2941 0 0)
(36.3308 0 0)
(36.3676 0 0)
(36.4043 0 0)
(36.441 0 0)
(36.4778 0 0)
(36.5145 0 0)
(36.5513 0 0)
(36.588 0 0)
(36.6247 0 0)
(36.6615 0 0)
(36.6982 0 0)
(36.7349 0 0)
(36.7717 0 0)
(36.8084 0 0)
(36.8452 0 0)
(36.8819 0 0)
(36.9186 0 0)
(36.9554 0 0)
(36.9921 0 0)
(37.0288 0 0)
(37.0656 0 0)
(37.1023 0 0)
(37.1391 0 0)
(37.1758 0 0)
(37.2125 0 0)
(37.2493 0 0)
(37.286 0 0)
(37.3228 0 0)
(37.3595 0 0)
(37.3962 0 0)
(37.433 0 0)
(37.4697 0 0)
(37.5065 0 0)
(37.5432 0 0)
(37.5799 0 0)
(37.6167 0 0)
(37.6534 0 0)
(37.6902 0 0)
(37.7269 0 0)
(37.7636 0 0)
(37.8004 0 0)
(37.8371 0 0)
(37.8739 0 0)
(37.9106 0 0)
(37.9474 0 0)
(37.9841 0 0)
(38.0208 0 0)
(38.0576 0 0)
(38.0943 0 0)
(38.1311 0 0)
(38.1678 0 0)
(38.2046 0 0)
(38.2413 0 0)
(38.278 0 0)
(38.3148 0 0)
(38.3515 0 0)
(38.3883 0 0)
(38.425 0 0)
(38.4618 0 0)
(38.4985 0 0)
(38.5352 0 0)
(38.572 0 0)
(38.6087 0 0)
(38.6455 0 0)
(38.6822 0 0)
(38.719 0 0)
(38.7557 0 0)
(38.7925 0 0)
(38.8292 0 0)
(38.866 0 0)
(38.9027 0 0)
(38.9394 0 0)
(38.9762 0 0)
(39.0129 0 0)
(39.0497 0 0)
(39.0864 0 0)
(39.1232 0 0)
(39.1599 0 0)
(39.1967 0 0)
(39.2334 0 0)
(39.2702 0 0)
(39.3069 0 0)
(39.3437 0 0)
(39.3804 0 0)
(39.4172 0 0)
(39.4539 0 0)
(39.4907 0 0)
(39.5274 0 0)
(39.5641 0 0)
(39.6009 0 0)
(39.6376 0 0)
(39.6744 0 0)
(39.7111 0 0)
(39.7479 0 0)
(39.7846 0 0)
(39.8214 0 0)
(39.8581 0 0)
(39.8949 0 0)
(39.9316 0 0)
(39.9684 0 0)
(40.0051 0 0)
(40.0419 0 0)
(40.0786 0 0)
(40.1154 0 0)
(40.1521 0 0)
(40.1889 0 0)
(40.2256 0 0)
(40.2624 0 0)
(40.2991 0 0)
(40.3359 0 0)
(40.3726 0 0)
(40.4094 0 0)
(40.4461 0 0)
(40.4829 0 0)
(40.5197 0 0)
(40.5564 0 0)
(40.5932 0 0)
(40.6299 0 0)
(40.6667 0 0)
(40.7034 0 0)
(40.7402 0 0)
(40.7769 0 0)
(40.8137 0 0)
(40.8504 0 0)
(40.8872 0 0)
(40.9239 0 0)
(40.9607 0 0)
(40.9974 0 0)
(41.0342 0 0)
(41.0709 0 0)
(41.1077 0 0)
(41.1445 0 0)
(41.1812 0 0)
(41.218 0 0)
(41.2547 0 0)
(41.2915 0 0)
(41.3282 0 0)
(41.365 0 0)
(41.4017 0 0)
(41.4385 0 0)
(41.4753 0 0)
(41.512 0 0)
(41.5488 0 0)
(41.5855 0 0)
(41.6223 0 0)
(41.659 0 0)
(41.6958 0 0)
(41.7325 0 0)
(41.7693 0 0)
(41.8061 0 0)
(41.8428 0 0)
(41.8796 0 0)
(41.9163 0 0)
(41.9531 0 0)
(41.9898 0 0)
(42.0266 0 0)
(42.0634 0 0)
(42.1001 0 0)
(42.1369 0 0)
(42.1736 0 0)
(42.2104 0 0)
(42.2471 0 0)
(42.2839 0 0)
(42.3207 0 0)
(42.3574 0 0)
(42.3942 0 0)
(42.4309 0 0)
(42.4677 0 0)
(42.5045 0 0)
(42.5412 0 0)
(42.578 0 0)
(42.6147 0 0)
(42.6515 0 0)
(42.6883 0 0)
(42.725 0 0)
(42.7618 0 0)
(42.7985 0 0)
(42.8353 0 0)
(42.8721 0 0)
(42.9088 0 0)
(42.9456 0 0)
(42.9823 0 0)
(43.0191 0 0)
(43.0559 0 0)
(43.0926 0 0)
(43.1294 0 0)
(43.1662 0 0)
(43.2029 0 0)
(43.2397 0 0)
(43.2764 0 0)
(43.3132 0 0)
(43.35 0 0)
(43.3867 0 0)
(43.4235 0 0)
(43.4602 0 0)
(43.497 0 0)
(43.5338 0 0)
(43.5705 0 0)
(43.6073 0 0)
(43.6441 0 0)
(43.6808 0 0)
(43.7176 0 0)
(43.7544 0 0)
(43.7911 0 0)
(43.8279 0 0)
(43.8646 0 0)
(43.9014 0 0)
(43.9382 0 0)
(43.9749 0 0)
(44.0117 0 0)
(44.0485 0 0)
(44.0852 0 0)
(44.122 0 0)
(44.1588 0 0)
(44.1955 0 0)
(44.2323 0 0)
(44.2691 0 0)
(44.3058 0 0)
(44.3426 0 0)
(44.3794 0 0)
(44.4161 0 0)
(44.4529 0 0)
(44.4897 0 0)
(44.5264 0 0)
(44.5632 0 0)
(44.6 0 0)
(44.6367 0 0)
(44.6735 0 0)
(44.7103 0 0)
(44.747 0 0)
(44.7838 0 0)
(44.8206 0 0)
(44.8573 0 0)
(44.8941 0 0)
(44.9309 0 0)
(44.9676 0 0)
(45.0044 0 0)
(45.0412 0 0)
(45.0779 0 0)
(45.1147 0 0)
(45.1515 0 0)
(45.1883 0 0)
(45.225 0 0)
(45.2618 0 0)
(45.2986 0 0)
(45.3353 0 0)
(45.3721 0 0)
(45.4089 0 0)
(45.4456 0 0)
(45.4824 0 0)
(45.5192 0 0)
(45.5559 0 0)
(45.5927 0 0)
(45.6295 0 0)
(45.6663 0 0)
(45.703 0 0)
(45.7398 0 0)
(45.7766 0 0)
(45.8133 0 0)
(45.8501 0 0)
(45.8869 0 0)
(45.9237 0 0)
(45.9604 0 0)
(45.9972 0 0)
(46.034 0 0)
(46.0707 0 0)
(46.1075 0 0)
(46.1443 0 0)
(46.1811 0 0)
(46.2178 0 0)
(46.2546 0 0)
(46.2914 0 0)
(46.3282 0 0)
(46.3649 0 0)
(46.4017 0 0)
(46.4385 0 0)
(46.4752 0 0)
(46.512 0 0)
(46.5488 0 0)
(46.5856 0 0)
(46.6223 0 0)
(46.6591 0 0)
(46.6959 0 0)
(46.7327 0 0)
(46.7694 0 0)
(46.8062 0 0)
(46.843 0 0)
(46.8798 0 0)
(46.9165 0 0)
(46.9533 0 0)
(46.9901 0 0)
(47.0269 0 0)
(47.0636 0 0)
(47.1004 0 0)
(47.1372 0 0)
(47.174 0 0)
(47.2107 0 0)
(47.2475 0 0)
(47.2843 0 0)
(47.3211 0 0)
(47.3579 0 0)
(47.3946 0 0)
(47.4314 0 0)
(47.4682 0 0)
(47.505 0 0)
(47.5417 0 0)
(47.5785 0 0)
(47.6153 0 0)
(47.6521 0 0)
(47.6888 0 0)
(47.7256 0 0)
(47.7624 0 0)
(47.7992 0 0)
(47.836 0 0)
(47.8727 0 0)
(47.9095 0 0)
(47.9463 0 0)
(47.9831 0 0)
(48.0199 0 0)
(48.0566 0 0)
(48.0934 0 0)
(48.1302 0 0)
(48.167 0 0)
(48.2037 0 0)
(48.2405 0 0)
(48.2773 0 0)
(48.3141 0 0)
(48.3509 0 0)
(48.3876 0 0)
(48.4244 0 0)
(48.4612 0 0)
(48.498 0 0)
(48.5348 0 0)
(48.5715 0 0)
(48.6083 0 0)
(48.6451 0 0)
(48.6819 0 0)
(48.7187 0 0)
(48.7555 0 0)
(48.7922 0 0)
(48.829 0 0)
(48.8658 0 0)
(48.9026 0 0)
(48.9394 0 0)
(48.9761 0 0)
(49.0129 0 0)
(49.0497 0 0)
(49.0865 0 0)
(49.1233 0 0)
(49.1601 0 0)
(49.1968 0 0)
(49.2336 0 0)
(49.2704 0 0)
(49.3072 0 0)
(49.344 0 0)
(49.3808 0 0)
(49.4175 0 0)
(49.4543 0 0)
(49.4911 0 0)
(49.5279 0 0)
(49.5647 0 0)
(49.6015 0 0)
(49.6382 0 0)
(49.675 0 0)
(49.7118 0 0)
(49.7486 0 0)
(49.7854 0 0)
(49.8222 0 0)
(49.8589 0 0)
(49.8957 0 0)
(49.9325 0 0)
(49.9693 0 0)
(50.0061 0 0)
(50.0429 0 0)
(50.0797 0 0)
(50.1164 0 0)
(50.1532 0 0)
(50.19 0 0)
(50.2268 0 0)
(50.2636 0 0)
(50.3004 0 0)
(50.3372 0 0)
(50.374 0 0)
(50.4107 0 0)
(50.4475 0 0)
(50.4843 0 0)
(50.5211 0 0)
(50.5579 0 0)
(50.5947 0 0)
(50.6315 0 0)
(50.6682 0 0)
(50.705 0 0)
(50.7418 0 0)
(50.7786 0 0)
(50.8154 0 0)
(50.8522 0 0)
(50.889 0 0)
(50.9258 0 0)
(50.9626 0 0)
(50.9993 0 0)
(51.0361 0 0)
(51.0729 0 0)
(51.1097 0 0)
(51.1465 0 0)
(51.1833 0 0)
(51.2201 0 0)
(51.2569 0 0)
(51.2937 0 0)
(51.3304 0 0)
(51.3672 0 0)
(51.404 0 0)
(51.4408 0 0)
(51.4776 0 0)
(51.5144 0 0)
(51.5512 0 0)
(51.588 0 0)
(51.6248 0 0)
(51.6616 0 0)
(51.6984 0 0)
(51.7351 0 0)
(51.7719 0 0)
(51.8087 0 0)
(51.8455 0 0)
(51.8823 0 0)
(51.9191 0 0)
(51.9559 0 0)
(51.9927 0 0)
(52.0295 0 0)
(52.0663 0 0)
(52.1031 0 0)
(52.1399 0 0)
(52.1766 0 0)
(52.2134 0 0)
(52.2502 0 0)
(52.287 0 0)
(52.3238 0 0)
(52.3606 0 0)
(52.3974 0 0)
(52.4342 0 0)
(52.471 0 0)
(52.5078 0 0)
(52.5446 0 0)
(52.5814 0 0)
(52.6182 0 0)
(52.655 0 0)
(52.6917 0 0)
(52.7285 0 0)
(52.7653 0 0)
(52.8021 0 0)
(52.8389 0 0)
(52.8757 0 0)
(52.9125 0 0)
(52.9493 0 0)
(52.9861 0 0)
(53.0229 0 0)
(53.0597 0 0)
(53.0965 0 0)
(53.1333 0 0)
(53.1701 0 0)
(53.2069 0 0)
(53.2437 0 0)
(53.2805 0 0)
(53.3173 0 0)
(53.3541 0 0)
(53.3909 0 0)
(53.4277 0 0)
(53.4645 0 0)
(53.5012 0 0)
(53.538 0 0)
(53.5748 0 0)
(53.6116 0 0)
(53.6484 0 0)
(53.6852 0 0)
(53.722 0 0)
(53.7588 0 0)
(53.7956 0 0)
(53.8324 0 0)
(53.8692 0 0)
(53.906 0 0)
(53.9428 0 0)
(53.9796 0 0)
(54.0164 0 0)
(54.0532 0 0)
(54.09 0 0)
(54.1268 0 0)
(54.1636 0 0)
(54.2004 0 0)
(54.2372 0 0)
(54.274 0 0)
(54.3108 0 0)
(54.3476 0 0)
(54.3844 0 0)
(54.4212 0 0)
(54.458 0 0)
(54.4948 0 0)
(54.5316 0 0)
(54.5684 0 0)
(54.6052 0 0)
(54.642 0 0)
(54.6788 0 0)
(54.7156 0 0)
(54.7524 0 0)
(54.7892 0 0)
(54.826 0 0)
(54.8628 0 0)
(54.8996 0 0)
(54.9364 0 0)
(54.9732 0 0)
(55.01 0 0)
(55.0468 0 0)
(55.0836 0 0)
(55.1204 0 0)
(55.1572 0 0)
(55.194 0 0)
(55.2308 0 0)
(55.2676 0 0)
(55.3044 0 0)
(55.3412 0 0)
(55.378 0 0)
(55.4148 0 0)
(55.4516 0 0)
(55.4884 0 0)
(55.5252 0 0)
(55.562 0 0)
(55.5988 0 0)
(55.6356 0 0)
(55.6724 0 0)
(55.7092 0 0)
(55.746 0 0)
(55.7828 0 0)
(55.8196 0 0)
(55.8565 0 0)
(55.8933 0 0)
(55.9301 0 0)
(55.9669 0 0)
(56.0037 0 0)
(56.0405 0 0)
(56.0773 0 0)
(56.1141 0 0)
(56.1509 0 0)
(56.1877 0 0)
(56.2245 0 0)
(56.2613 0 0)
(56.2981 0 0)
(56.3349 0 0)
(56.3717 0 0)
(56.4085 0 0)
(56.4453 0 0)
(56.4821 0 0)
(56.5189 0 0)
(56.5557 0 0)
(56.5925 0 0)
(56.6294 0 0)
(56.6662 0 0)
(56.703 0 0)
(56.7398 0 0)
(56.7766 0 0)
(56.8134 0 0)
(56.8502 0 0)
(56.887 0 0)
(56.9238 0 0)
(56.9606 0 0)
(56.9974 0 0)
(57.0342 0 0)
(57.071 0 0)
(57.1078 0 0)
(57.1446 0 0)
(57.1814 0 0)
(57.2183 0 0)
(57.2551 0 0)
(57.2919 0 0)
(57.3287 0 0)
(57.3655 0 0)
(57.4023 0 0)
(57.4391 0 0)
(57.4759 0 0)
(57.5127 0 0)
(57.5495 0 0)
(57.5863 0 0)
(57.6231 0 0)
(57.66 0 0)
(57.6968 0 0)
(57.7336 0 0)
(57.7704 0 0)
(57.8072 0 0)
(57.844 0 0)
(57.8808 0 0)
(57.9176 0 0)
(57.9544 0 0)
(57.9912 0 0)
(58.028 0 0)
(58.0649 0 0)
(58.1017 0 0)
(58.1385 0 0)
(58.1753 0 0)
(58.2121 0 0)
(58.2489 0 0)
(58.2857 0 0)
(58.3225 0 0)
(58.3593 0 0)
(58.3961 0 0)
(58.433 0 0)
(58.4698 0 0)
(58.5066 0 0)
(58.5434 0 0)
(58.5802 0 0)
(58.617 0 0)
(58.6538 0 0)
(58.6906 0 0)
(58.7274 0 0)
(58.7643 0 0)
(58.8011 0 0)
(58.8379 0 0)
(58.8747 0 0)
(58.9115 0 0)
(58.9483 0 0)
(58.9851 0 0)
(59.0219 0 0)
(59.0588 0 0)
(59.0956 0 0)
(59.1324 0 0)
(59.1692 0 0)
(59.206 0 0)
(59.2428 0 0)
(59.2796 0 0)
(59.3164 0 0)
(59.3533 0 0)
(59.3901 0 0)
(59.4269 0 0)
(59.4637 0 0)
(59.5005 0 0)
(59.5373 0 0)
(59.5741 0 0)
(59.6109 0 0)
(59.6478 0 0)
(59.6846 0 0)
(59.7214 0 0)
(59.7582 0 0)
(59.795 0 0)
(59.8318 0 0)
(59.8686 0 0)
(59.9055 0 0)
(59.9423 0 0)
(59.9791 0 0)
(60.0159 0 0)
(60.0527 0 0)
(60.0895 0 0)
(60.1263 0 0)
(60.1632 0 0)
(60.2 0 0)
(60.2368 0 0)
(60.2736 0 0)
(60.3104 0 0)
(60.3472 0 0)
(60.3841 0 0)
(60.4209 0 0)
(60.4577 0 0)
(60.4945 0 0)
(60.5313 0 0)
(60.5681 0 0)
(60.605 0 0)
(60.6418 0 0)
(60.6786 0 0)
(60.7154 0 0)
(60.7522 0 0)
(60.789 0 0)
(60.8258 0 0)
(60.8627 0 0)
(60.8995 0 0)
(60.9363 0 0)
(60.9731 0 0)
(61.0099 0 0)
(61.0468 0 0)
(61.0836 0 0)
(61.1204 0 0)
(61.1572 0 0)
(61.194 0 0)
(61.2308 0 0)
(61.2677 0 0)
(61.3045 0 0)
(61.3413 0 0)
(61.3781 0 0)
(61.4149 0 0)
(61.4517 0 0)
(61.4886 0 0)
(61.5254 0 0)
(61.5622 0 0)
(61.599 0 0)
(61.6358 0 0)
(61.6727 0 0)
(61.7095 0 0)
(61.7463 0 0)
(61.7831 0 0)
(61.8199 0 0)
(61.8568 0 0)
(61.8936 0 0)
(61.9304 0 0)
(61.9672 0 0)
(62.004 0 0)
(62.0409 0 0)
(62.0777 0 0)
(62.1145 0 0)
(62.1513 0 0)
(62.1881 0 0)
(62.225 0 0)
(62.2618 0 0)
(62.2986 0 0)
(62.3354 0 0)
(62.3722 0 0)
(62.4091 0 0)
(62.4459 0 0)
(62.4827 0 0)
(62.5195 0 0)
(62.5563 0 0)
(62.5932 0 0)
(62.63 0 0)
(62.6668 0 0)
(62.7036 0 0)
(62.7404 0 0)
(62.7773 0 0)
(62.8141 0 0)
(62.8509 0 0)
(62.8877 0 0)
(62.9245 0 0)
(62.9614 0 0)
(62.9982 0 0)
(63.035 0 0)
(63.0718 0 0)
(63.1087 0 0)
(63.1455 0 0)
(63.1823 0 0)
(63.2191 0 0)
(63.2559 0 0)
(63.2928 0 0)
(63.3296 0 0)
(63.3664 0 0)
(63.4032 0 0)
(63.4401 0 0)
(63.4769 0 0)
(63.5137 0 0)
(63.5505 0 0)
(63.5874 0 0)
(63.6242 0 0)
(63.661 0 0)
(63.6978 0 0)
(63.7346 0 0)
(63.7715 0 0)
(63.8083 0 0)
(63.8451 0 0)
(63.8819 0 0)
(63.9188 0 0)
(63.9556 0 0)
(63.9924 0 0)
(64.0292 0 0)
(64.0661 0 0)
(64.1029 0 0)
(64.1397 0 0)
(64.1765 0 0)
(64.2134 0 0)
(64.2502 0 0)
(64.287 0 0)
(64.3238 0 0)
(64.3607 0 0)
(64.3975 0 0)
(64.4343 0 0)
(64.4711 0 0)
(64.508 0 0)
(64.5448 0 0)
(64.5816 0 0)
(64.6184 0 0)
(64.6553 0 0)
(64.6921 0 0)
(64.7289 0 0)
(64.7657 0 0)
(64.8026 0 0)
(64.8394 0 0)
(64.8762 0 0)
(64.913 0 0)
(64.9499 0 0)
(64.9867 0 0)
(65.0235 0 0)
(65.0603 0 0)
(65.0972 0 0)
(65.134 0 0)
(65.1708 0 0)
(65.2076 0 0)
(65.2445 0 0)
(65.2813 0 0)
(65.3181 0 0)
(65.3549 0 0)
(65.3918 0 0)
(65.4286 0 0)
(65.4654 0 0)
(65.5023 0 0)
(65.5391 0 0)
(65.5759 0 0)
(65.6127 0 0)
(65.6496 0 0)
(65.6864 0 0)
(65.7232 0 0)
(65.76 0 0)
(65.7969 0 0)
(65.8337 0 0)
(65.8705 0 0)
(65.9074 0 0)
(65.9442 0 0)
(65.981 0 0)
(66.0178 0 0)
(66.0547 0 0)
(66.0915 0 0)
(66.1283 0 0)
(66.1652 0 0)
(66.202 0 0)
(66.2388 0 0)
(66.2756 0 0)
(66.3125 0 0)
(66.3493 0 0)
(66.3861 0 0)
(66.4229 0 0)
(66.4598 0 0)
(66.4966 0 0)
(66.5334 0 0)
(66.5703 0 0)
(66.6071 0 0)
(66.6439 0 0)
(66.6808 0 0)
(66.7176 0 0)
(66.7544 0 0)
(66.7912 0 0)
(66.8281 0 0)
(66.8649 0 0)
(66.9017 0 0)
(66.9386 0 0)
(66.9754 0 0)
(67.0122 0 0)
(67.049 0 0)
(67.0859 0 0)
(67.1227 0 0)
(67.1595 0 0)
(67.1964 0 0)
(67.2332 0 0)
(67.27 0 0)
(67.3069 0 0)
(67.3437 0 0)
(67.3805 0 0)
(67.4173 0 0)
(67.4542 0 0)
(67.491 0 0)
(67.5278 0 0)
(67.5647 0 0)
(67.6015 0 0)
(67.6383 0 0)
(67.6752 0 0)
(67.712 0 0)
(67.7488 0 0)
(67.7857 0 0)
(67.8225 0 0)
(67.8593 0 0)
(67.8961 0 0)
(67.933 0 0)
(67.9698 0 0)
(68.0066 0 0)
(68.0435 0 0)
(68.0803 0 0)
(68.1171 0 0)
(68.154 0 0)
(68.1908 0 0)
(68.2276 0 0)
(68.2645 0 0)
(68.3013 0 0)
(68.3381 0 0)
(68.375 0 0)
(68.4118 0 0)
(68.4486 0 0)
(68.4855 0 0)
(68.5223 0 0)
(68.5591 0 0)
(68.5959 0 0)
(68.6328 0 0)
(68.6696 0 0)
(68.7064 0 0)
(68.7433 0 0)
(68.7801 0 0)
(68.8169 0 0)
(68.8538 0 0)
(68.8906 0 0)
(68.9274 0 0)
(68.9643 0 0)
(69.0011 0 0)
(69.0379 0 0)
(69.0748 0 0)
(69.1116 0 0)
(69.1484 0 0)
(69.1853 0 0)
(69.2221 0 0)
(69.2589 0 0)
(69.2958 0 0)
(69.3326 0 0)
(69.3694 0 0)
(69.4063 0 0)
(69.4431 0 0)
(69.4799 0 0)
(69.5168 0 0)
(69.5536 0 0)
(69.5904 0 0)
(69.6273 0 0)
(69.6641 0 0)
(69.7009 0 0)
(69.7378 0 0)
(69.7746 0 0)
(69.8114 0 0)
(69.8483 0 0)
(69.8851 0 0)
(69.9219 0 0)
(69.9588 0 0)
(69.9956 0 0)
(70.0324 0 0)
(70.0693 0 0)
(70.1061 0 0)
(70.1429 0 0)
(70.1798 0 0)
(70.2166 0 0)
(70.2534 0 0)
(70.2903 0 0)
(70.3271 0 0)
(70.364 0 0)
(70.4008 0 0)
(70.4376 0 0)
(70.4745 0 0)
(70.5113 0 0)
(70.5481 0 0)
(70.585 0 0)
(70.6218 0 0)
(70.6586 0 0)
(70.6955 0 0)
(70.7323 0 0)
(70.7691 0 0)
(70.806 0 0)
(70.8428 0 0)
(70.8796 0 0)
(70.9165 0 0)
(70.9533 0 0)
(70.9901 0 0)
(71.027 0 0)
(71.0638 0 0)
(71.1006 0 0)
(71.1375 0 0)
(71.1743 0 0)
(71.2112 0 0)
(71.248 0 0)
(71.2848 0 0)
(71.3217 0 0)
(71.3585 0 0)
(71.3953 0 0)
(71.4322 0 0)
(71.469 0 0)
(71.5058 0 0)
(71.5427 0 0)
(71.5795 0 0)
(71.6163 0 0)
(71.6532 0 0)
(71.69 0 0)
(71.7269 0 0)
(71.7637 0 0)
(71.8005 0 0)
(71.8374 0 0)
(71.8742 0 0)
(71.911 0 0)
(71.9479 0 0)
(71.9847 0 0)
(72.0215 0 0)
(72.0584 0 0)
(72.0952 0 0)
(72.1321 0 0)
(72.1689 0 0)
(72.2057 0 0)
(72.2426 0 0)
(72.2794 0 0)
(72.3162 0 0)
(72.3531 0 0)
(72.3899 0 0)
(72.4267 0 0)
(72.4636 0 0)
(72.5004 0 0)
(72.5373 0 0)
(72.5741 0 0)
(72.6109 0 0)
(72.6478 0 0)
(72.6846 0 0)
(72.7214 0 0)
(72.7583 0 0)
(72.7951 0 0)
(72.8319 0 0)
(72.8688 0 0)
(72.9056 0 0)
(72.9425 0 0)
(72.9793 0 0)
(73.0161 0 0)
(73.053 0 0)
(73.0898 0 0)
(73.1266 0 0)
(73.1635 0 0)
(73.2003 0 0)
(73.2372 0 0)
(73.274 0 0)
(73.3108 0 0)
(73.3477 0 0)
(73.3845 0 0)
(73.4213 0 0)
(73.4582 0 0)
(73.495 0 0)
(73.5318 0 0)
(73.5687 0 0)
(73.6055 0 0)
(73.6424 0 0)
(73.6792 0 0)
(73.716 0 0)
(73.7529 0 0)
(73.7897 0 0)
(73.8265 0 0)
(73.8634 0 0)
(73.9002 0 0)
(73.9371 0 0)
(73.9739 0 0)
(74.0107 0 0)
(74.0476 0 0)
(74.0844 0 0)
(74.1212 0 0)
(74.1581 0 0)
(74.1949 0 0)
(74.2318 0 0)
(74.2686 0 0)
(74.3054 0 0)
(74.3423 0 0)
(74.3791 0 0)
(74.4159 0 0)
(74.4528 0 0)
(74.4896 0 0)
(74.5265 0 0)
(74.5633 0 0)
(74.6001 0 0)
(74.637 0 0)
(74.6738 0 0)
(74.7106 0 0)
(74.7475 0 0)
(74.7843 0 0)
(74.8212 0 0)
(74.858 0 0)
(74.8948 0 0)
(74.9317 0 0)
(74.9685 0 0)
(75.0054 0 0)
(75.0422 0 0)
(75.079 0 0)
(75.1159 0 0)
(75.1527 0 0)
(75.1895 0 0)
(75.2264 0 0)
(75.2632 0 0)
(75.3001 0 0)
(75.3369 0 0)
(75.3737 0 0)
(75.4106 0 0)
(75.4474 0 0)
(75.4842 0 0)
(75.5211 0 0)
(75.5579 0 0)
(75.5948 0 0)
(75.6316 0 0)
(75.6684 0 0)
(75.7053 0 0)
(75.7421 0 0)
(75.7789 0 0)
(75.8158 0 0)
(75.8526 0 0)
(75.8895 0 0)
(75.9263 0 0)
(75.9631 0 0)
(76 0 0)
(76.0368 0 0)
(76.0736 0 0)
(76.1105 0 0)
(76.1473 0 0)
(76.1842 0 0)
(76.221 0 0)
(76.2578 0 0)
(76.2947 0 0)
(76.3315 0 0)
(76.3684 0 0)
(76.4052 0 0)
(76.442 0 0)
(76.4789 0 0)
(76.5157 0 0)
(76.5525 0 0)
(76.5894 0 0)
(76.6262 0 0)
(76.6631 0 0)
(76.6999 0 0)
(76.7367 0 0)
(76.7736 0 0)
(76.8104 0 0)
(76.8472 0 0)
(76.8841 0 0)
(76.9209 0 0)
(76.9578 0 0)
(76.9946 0 0)
(77.0314 0 0)
(77.0683 0 0)
(77.1051 0 0)
(77.1419 0 0)
(77.1788 0 0)
(77.2156 0 0)
(77.2525 0 0)
(77.2893 0 0)
(77.3261 0 0)
(77.363 0 0)
(77.3998 0 0)
(77.4366 0 0)
(77.4735 0 0)
(77.5103 0 0)
(77.5472 0 0)
(77.584 0 0)
(77.6208 0 0)
(77.6577 0 0)
(77.6945 0 0)
(77.7313 0 0)
(77.7682 0 0)
(77.805 0 0)
(77.8419 0 0)
(77.8787 0 0)
(77.9155 0 0)
(77.9524 0 0)
(77.9892 0 0)
(78.026 0 0)
(78.0629 0 0)
(78.0997 0 0)
(78.1366 0 0)
(78.1734 0 0)
(78.2102 0 0)
(78.2471 0 0)
(78.2839 0 0)
(78.3207 0 0)
(78.3576 0 0)
(78.3944 0 0)
(78.4312 0 0)
(78.4681 0 0)
(78.5049 0 0)
(78.5418 0 0)
(78.5786 0 0)
(78.6154 0 0)
(78.6523 0 0)
(78.6891 0 0)
(78.7259 0 0)
(78.7628 0 0)
(78.7996 0 0)
(78.8365 0 0)
(78.8733 0 0)
(78.9101 0 0)
(78.947 0 0)
(78.9838 0 0)
(79.0206 0 0)
(79.0575 0 0)
(79.0943 0 0)
(79.1311 0 0)
(79.168 0 0)
(79.2048 0 0)
(79.2417 0 0)
(79.2785 0 0)
(79.3153 0 0)
(79.3522 0 0)
(79.389 0 0)
(79.4258 0 0)
(79.4627 0 0)
(79.4995 0 0)
(79.5363 0 0)
(79.5732 0 0)
(79.61 0 0)
(79.6468 0 0)
(79.6837 0 0)
(79.7205 0 0)
(79.7574 0 0)
(79.7942 0 0)
(79.831 0 0)
(79.8679 0 0)
(79.9047 0 0)
(79.9415 0 0)
(79.9784 0 0)
(80.0152 0 0)
(80.052 0 0)
(80.0889 0 0)
(80.1257 0 0)
(80.1625 0 0)
(80.1994 0 0)
(80.2362 0 0)
(80.2731 0 0)
(80.3099 0 0)
(80.3467 0 0)
(80.3836 0 0)
(80.4204 0 0)
(80.4572 0 0)
(80.4941 0 0)
(80.5309 0 0)
(80.5677 0 0)
(80.6046 0 0)
(80.6414 0 0)
(80.6782 0 0)
(80.7151 0 0)
(80.7519 0 0)
(80.7887 0 0)
(80.8256 0 0)
(80.8624 0 0)
(80.8992 0 0)
(80.9361 0 0)
(80.9729 0 0)
(81.0097 0 0)
(81.0466 0 0)
(81.0834 0 0)
(81.1202 0 0)
(81.1571 0 0)
(81.1939 0 0)
(81.2307 0 0)
(81.2676 0 0)
(81.3044 0 0)
(81.3412 0 0)
(81.3781 0 0)
(81.4149 0 0)
(81.4517 0 0)
(81.4886 0 0)
(81.5254 0 0)
(81.5622 0 0)
(81.5991 0 0)
(81.6359 0 0)
(81.6727 0 0)
(81.7096 0 0)
(81.7464 0 0)
(81.7832 0 0)
(81.8201 0 0)
(81.8569 0 0)
(81.8937 0 0)
(81.9306 0 0)
(81.9674 0 0)
(82.0042 0 0)
(82.0411 0 0)
(82.0779 0 0)
(82.1147 0 0)
(82.1516 0 0)
(82.1884 0 0)
(82.2252 0 0)
(82.2621 0 0)
(82.2989 0 0)
(82.3357 0 0)
(82.3725 0 0)
(82.4094 0 0)
(82.4462 0 0)
(82.483 0 0)
(82.5199 0 0)
(82.5567 0 0)
(82.5935 0 0)
(82.6304 0 0)
(82.6672 0 0)