/*--------------------------------*- C++ -*----------------------------------*\
  =========                 |
  \\      /  F ield         | OpenFOAM: The Open Source CFD Toolbox
   \\    /   O peration     | Website:  https://openfoam.org
    \\  /    A nd           | Version:  9
     \\/     M anipulation  |
\*---------------------------------------------------------------------------*/
FoamFile
{
    format      ascii;
    class       volScalarField;
    location    "0.037";
    object      rho;
}
// * * * * * * * * * * * * * * * * * * * * * * * * * * * * * * * * * * * * * //

dimensions      [1 -3 0 0 0 0 0];

internalField   nonuniform List<scalar> 
1000
(
0.245064
0.245031
0.244977
0.244942
0.244912
0.244881
0.244847
0.244813
0.244779
0.244746
0.244713
0.244679
0.244646
0.244612
0.244579
0.244545
0.244511
0.244477
0.244444
0.24441
0.244376
0.244342
0.244309
0.244276
0.244243
0.244211
0.244178
0.244145
0.244112
0.244079
0.244046
0.244013
0.243981
0.243949
0.243917
0.243887
0.243858
0.243829
0.243801
0.243773
0.243746
0.243719
0.243692
0.243666
0.24364
0.243614
0.243588
0.243562
0.243536
0.24351
0.243484
0.243459
0.243432
0.243408
0.243379
0.243357
0.243327
0.243305
0.243276
0.243253
0.243224
0.243201
0.243172
0.243148
0.243122
0.243095
0.243072
0.243043
0.243019
0.242993
0.242965
0.242942
0.242914
0.242889
0.242864
0.242836
0.242812
0.242786
0.242758
0.242735
0.242708
0.242681
0.242658
0.242631
0.242604
0.242581
0.242554
0.242526
0.242504
0.242477
0.242449
0.242426
0.2424
0.242372
0.242349
0.242324
0.242295
0.242271
0.242248
0.242219
0.242193
0.242171
0.242144
0.242115
0.242093
0.242069
0.242039
0.242014
0.241992
0.241965
0.241937
0.241914
0.241891
0.241862
0.241836
0.241814
0.241788
0.241759
0.241736
0.241714
0.241686
0.241658
0.241636
0.241613
0.241584
0.241557
0.241536
0.241512
0.241483
0.241458
0.241437
0.241411
0.241382
0.241358
0.241337
0.241311
0.241283
0.241259
0.241238
0.241212
0.241184
0.24116
0.241139
0.241113
0.241085
0.241062
0.24104
0.241015
0.240987
0.240964
0.240943
0.240918
0.24089
0.240866
0.240845
0.240821
0.240793
0.240769
0.240749
0.240727
0.2407
0.240674
0.240653
0.240632
0.240605
0.240577
0.240554
0.240535
0.240513
0.240486
0.240462
0.240443
0.240424
0.240399
0.240371
0.240348
0.240327
0.240303
0.240276
0.240251
0.240232
0.240215
0.240193
0.240168
0.240148
0.240132
0.240114
0.240089
0.240062
0.240039
0.240017
0.239991
0.239962
0.239938
0.239919
0.239903
0.239882
0.239861
0.239844
0.239832
0.239818
0.2398
0.23978
0.239762
0.239745
0.239721
0.239704
0.239701
0.2397
0.239703
0.239705
0.239706
0.239704
0.239702
0.239703
0.239708
0.239709
0.239707
0.239704
0.239707
0.239711
0.23971
0.239706
0.239708
0.239713
0.239714
0.239706
0.239705
0.239715
0.239719
0.239709
0.239702
0.239714
0.239724
0.239719
0.2397
0.239706
0.239736
0.23975
0.239726
0.239684
0.239712
0.239777
0.239772
0.239677
0.239669
0.239804
0.239854
0.239701
0.239574
0.239745
0.240052
0.240125
0.239643
0.239448
0.239982
0.240234
0.239736
0.239511
0.239983
0.240184
0.239794
0.239655
0.239983
0.240079
0.239839
0.239789
0.239989
0.240016
0.239875
0.239889
0.240025
0.239999
0.239908
0.239998
0.240073
0.239985
0.239971
0.240119
0.2401
0.239984
0.24011
0.240214
0.240075
0.240054
0.240284
0.24025
0.240056
0.240246
0.24043
0.240194
0.240124
0.240521
0.240489
0.240124
0.240385
0.240755
0.240386
0.240174
0.240768
0.240845
0.240271
0.24045
0.241087
0.240739
0.240279
0.240892
0.241237
0.240569
0.240467
0.241306
0.241221
0.240484
0.240859
0.241586
0.241059
0.240553
0.24133
0.241719
0.240913
0.240765
0.241748
0.24173
0.240857
0.241129
0.242044
0.241638
0.240931
0.241585
0.242243
0.24155
0.241107
0.242026
0.242387
0.24153
0.24137
0.242421
0.24249
0.241582
0.241715
0.242761
0.242566
0.241711
0.242127
0.243059
0.242646
0.241917
0.242565
0.243341
0.242761
0.242174
0.243005
0.243633
0.242935
0.242467
0.24344
0.243942
0.243169
0.242795
0.243861
0.244284
0.243474
0.243145
0.244256
0.244659
0.243849
0.243525
0.244646
0.245066
0.244274
0.243921
0.245047
0.24552
0.244743
0.244326
0.245433
0.246019
0.245296
0.244757
0.245752
0.246521
0.245944
0.245244
0.245977
0.246989
0.246663
0.245796
0.246175
0.247433
0.24738
0.246409
0.246409
0.247814
0.248084
0.247136
0.246746
0.247994
0.248702
0.248055
0.247299
0.247944
0.249152
0.249025
0.247996
0.247986
0.249455
0.249801
0.248861
0.248349
0.249472
0.250401
0.249955
0.248999
0.2492
0.250759
0.251022
0.249994
0.249485
0.25059
0.251589
0.251256
0.25025
0.250371
0.251943
0.252264
0.25129
0.250704
0.251688
0.252915
0.252788
0.251654
0.251297
0.252628
0.253692
0.253453
0.252327
0.251985
0.253323
0.254441
0.25427
0.253095
0.25276
0.25412
0.255143
0.254881
0.253768
0.253663
0.255292
0.255871
0.255133
0.254369
0.254938
0.256271
0.25629
0.255423
0.255042
0.255212
0.257209
0.257765
0.257064
0.256152
0.255879
0.257394
0.258434
0.258289
0.257226
0.257024
0.258339
0.258931
0.258619
0.258002
0.258389
0.259289
0.259382
0.259
0.258938
0.25954
0.259697
0.259635
0.259494
0.259824
0.260059
0.260123
0.260052
0.260013
0.260576
0.26079
0.260845
0.260485
0.260684
0.261791
0.26193
0.261134
0.260916
0.262355
0.262821
0.26193
0.261439
0.262376
0.263003
0.262749
0.262494
0.26254
0.26293
0.263048
0.26309
0.262992
0.263357
0.263727
0.263803
0.263701
0.26389
0.26447
0.264589
0.264363
0.264409
0.265643
0.265941
0.265248
0.264754
0.266031
0.266861
0.2662
0.265439
0.265568
0.26665
0.266808
0.266514
0.266212
0.26646
0.266798
0.266905
0.266989
0.266856
0.266629
0.267057
0.267399
0.267488
0.267635
0.267763
0.267831
0.267907
0.267981
0.268048
0.268094
0.26807
0.268054
0.268428
0.268535
0.268452
0.268693
0.269083
0.26915
0.26905
0.269272
0.269796
0.269908
0.26992
0.269755
0.270395
0.270921
0.271013
0.27116
0.271439
0.271818
0.272163
0.272298
0.272306
0.272306
0.272324
0.272377
0.272268
0.272442
0.272771
0.272817
0.272691
0.272816
0.273224
0.273308
0.273253
0.273136
0.273567
0.273796
0.27387
0.273788
0.273683
0.274281
0.274587
0.274708
0.274791
0.274716
0.274665
0.275502
0.275725
0.27581
0.27592
0.275939
0.275529
0.275757
0.276658
0.276887
0.277046
0.277222
0.277401
0.277582
0.277771
0.277941
0.278119
0.278275
0.278413
0.278544
0.278664
0.278793
0.278942
0.279109
0.279304
0.279506
0.279715
0.279935
0.280152
0.280378
0.280595
0.280815
0.281014
0.281188
0.281331
0.281456
0.28157
0.281704
0.281854
0.282028
0.282213
0.282415
0.282626
0.282838
0.283063
0.28329
0.283511
0.2837
0.283886
0.284033
0.284161
0.284286
0.284423
0.28458
0.284751
0.284929
0.285126
0.285343
0.285588
0.285846
0.286104
0.286354
0.28659
0.286818
0.287024
0.287198
0.287362
0.287493
0.287593
0.287663
0.287739
0.287826
0.287943
0.288089
0.288268
0.288478
0.28871
0.288955
0.289218
0.289497
0.289787
0.290093
0.29039
0.290698
0.290984
0.291266
0.291544
0.291818
0.292078
0.292362
0.292638
0.2929
0.293154
0.29339
0.293591
0.293767
0.293915
0.294006
0.294091
0.294172
0.294286
0.294417
0.294601
0.294801
0.295037
0.295312
0.295589
0.295925
0.296231
0.296567
0.296896
0.297223
0.297531
0.297888
0.298205
0.298584
0.298928
0.299304
0.299683
0.300065
0.300454
0.300843
0.301247
0.301632
0.302015
0.30237
0.302738
0.303066
0.303414
0.303761
0.304125
0.30448
0.304867
0.305205
0.30558
0.30592
0.306282
0.306634
0.306986
0.307371
0.307746
0.308115
0.308525
0.308898
0.309321
0.309698
0.310109
0.310523
0.310955
0.311383
0.311816
0.312262
0.312704
0.313163
0.31357
0.314
0.314373
0.31475
0.315118
0.315471
0.315844
0.316254
0.316686
0.317148
0.317619
0.318076
0.318564
0.319048
0.31958
0.320111
0.320659
0.321222
0.321754
0.32229
0.322747
0.323131
0.323511
0.323871
0.324265
0.324621
0.324983
0.325373
0.325748
0.326083
0.326438
0.32681
0.32719
0.327647
0.328062
0.328469
0.328937
0.329412
0.329925
0.330425
0.330839
0.33128
0.331688
0.332088
0.33256
0.333086
0.33359
0.334126
0.334653
0.335183
0.335634
0.335996
0.336345
0.336689
0.336952
0.337189
0.337475
0.337779
0.338095
0.338438
0.338791
0.33917
0.339555
0.339936
0.340325
0.340737
0.341128
0.341519
0.341959
0.342394
0.342869
0.343327
0.343767
0.344186
0.344611
0.34502
0.345389
0.34573
0.346051
0.346406
0.346783
0.347165
0.347553
0.347937
0.348332
0.348728
0.349137
0.34957
0.349985
0.350392
0.350796
0.351192
0.351586
0.351987
0.352346
0.3527
0.35305
0.35337
0.353669
0.353938
0.354254
0.354602
0.354936
0.355201
0.355434
0.35572
0.356014
0.356295
0.35658
0.356929
0.357336
0.357762
0.358182
0.3586
0.359012
0.359415
0.359805
0.360187
0.360544
0.360879
0.361216
0.361532
0.361796
0.362026
0.362285
0.362586
0.36287
0.363132
0.363381
0.363659
0.363953
0.364251
0.364523
0.3648
0.36509
0.365356
0.365618
0.365858
0.366083
0.366297
0.366542
0.366793
0.367051
0.367326
0.367592
0.36786
0.368124
0.368381
0.368639
0.368897
0.369144
0.369383
0.36964
0.369848
0.370039
0.370269
0.370512
0.370738
0.370966
0.37119
0.371419
0.371655
0.371849
0.372051
0.372262
0.372408
0.372541
0.372671
0.3728
0.37295
0.373112
0.373259
0.373409
0.373573
0.373752
0.373938
0.374093
0.374218
0.374308
0.374385
0.374475
0.374562
0.374637
0.3747
0.37476
0.374811
0.374882
0.374969
0.375087
0.375224
0.375365
0.375504
0.37565
0.375805
0.375938
0.376032
0.3761
0.37614
0.376167
0.376207
0.376251
0.376307
0.376385
0.376465
0.376531
0.376561
0.376577
0.376594
0.376623
0.376663
0.376724
0.376804
0.376876
0.376922
0.376979
0.37703
0.377057
0.377057
0.377049
0.377047
0.377057
0.377083
0.377129
0.377223
0.377424
0.377636
0.377761
0.377837
0.377908
0.377987
0.378054
0.378092
0.378102
0.378108
0.37814
0.378219
0.378351
0.378452
0.378552
0.378634
0.378671
0.378704
0.378787
0.378889
0.378956
0.378996
0.379028
0.379055
0.37907
0.379026
0.378991
0.378986
0.378999
0.379108
0.379146
)
;

boundaryField
{
    sides
    {
        type            calculated;
        value           nonuniform List<scalar> 2(0.379146 0.245064);
    }
    empty
    {
        type            empty;
    }
}


// ************************************************************************* //
