/*--------------------------------*- C++ -*----------------------------------*\
  =========                 |
  \\      /  F ield         | OpenFOAM: The Open Source CFD Toolbox
   \\    /   O peration     | Website:  https://openfoam.org
    \\  /    A nd           | Version:  9
     \\/     M anipulation  |
\*---------------------------------------------------------------------------*/
FoamFile
{
    format      ascii;
    class       volScalarField;
    location    "0.041";
    object      ddt0(rho,e);
}
// * * * * * * * * * * * * * * * * * * * * * * * * * * * * * * * * * * * * * //

dimensions      [1 -1 -3 0 0 0 0];

internalField   nonuniform List<scalar> 
1000
(
665258
664849
664220
663673
663066
662371
661785
661361
660865
660111
659261
658652
658374
658131
657544
656552
655489
654793
654618
654702
654563
653849
652587
651161
650076
649659
649885
650400
650706
650390
649300
647600
645689
644042
643051
642900
643524
644625
645786
646585
646695
645952
644360
642093
639442
636750
634371
632615
631700
631734
632703
634507
636988
639907
642945
645790
648229
650116
651401
652185
652531
652566
652507
652369
652636
654297
659820
660892
664123
662379
661241
664162
662209
660573
663610
662121
659750
662756
662271
659005
661434
662606
658739
659572
662557
659303
657650
661538
660643
656611
659139
661660
657355
656210
660715
659584
654878
657318
660830
656656
653854
658498
659607
654024
653801
659065
657685
652123
653935
658954
655707
650675
653887
658297
653911
649518
653520
657228
652526
648419
652624
656213
651455
647271
651302
655015
650759
646159
649444
653689
650304
645163
647246
651992
649986
644410
644843
649762
649625
644074
642463
646974
648879
644181
640480
643584
647369
644575
639301
639880
644617
644761
639291
636579
640404
643766
640296
634864
635348
640417
641003
635399
631716
634035
639741
636880
631040
629161
632734
637208
632786
627399
626528
630381
633997
628961
624111
623442
627054
630584
625263
620917
620209
622781
626900
621664
617799
616845
617635
622766
618280
614575
612995
612581
617571
614691
611413
608757
609376
610925
611417
609062
606265
603268
603399
602578
600640
597911
596498
596184
596160
594931
592293
590173
589805
589912
588905
586333
583531
582276
582315
581926
579703
576596
574362
573812
573862
572413
569359
566158
564468
564310
563863
561451
558050
555097
554226
553983
552629
549544
545843
543823
542990
542390
540046
536606
533443
531780
531196
529724
526885
523257
520392
519192
518527
516513
513300
509554
506956
506074
505330
503392
499901
495948
493381
492594
492137
490394
486762
482789
480298
479560
479331
477694
474390
470534
468288
467755
467331
465836
462835
459586
457593
457195
457022
455639
452862
450001
448417
448173
448434
447666
445152
442255
440631
440706
441588
441703
439989
436998
434764
434808
436359
437212
436258
433905
431784
431387
432620
433830
433538
432058
430525
430016
430918
432217
432480
431324
429760
429202
430159
432007
433174
432399
430309
428929
429660
431805
433687
434077
432689
430821
430345
431835
433909
435009
434820
433623
432530
432952
434815
436396
436435
435390
434366
434421
436081
438328
439107
437991
436492
435828
436505
438641
441004
441545
440074
438343
437867
438987
441229
443128
443170
441739
440721
441045
442354
444068
445150
444599
443002
442380
443650
445778
447427
447783
446642
444821
444072
445570
448140
449951
450130
448993
447519
446884
448030
450207
451761
451709
450566
449664
449944
451432
453370
454489
453919
452226
451044
451594
453691
456050
457342
456910
455225
453682
453685
455458
457769
458962
458473
457283
456601
457110
458624
460273
461074
460381
458904
457952
458701
460906
463186
464250
463558
461924
460667
460988
462621
464491
465473
465295
464453
463667
463863
465360
467389
468357
467474
465686
464667
465356
467305
469458
470870
470802
469526
468092
467784
469033
470947
472306
472351
471436
470435
470422
471731
473726
475193
475290
474068
472527
471884
472732
474730
476640
477544
477093
476075
475396
475705
477085
478704
479638
479199
477871
476856
477100
478719
480798
482287
482468
481464
480095
479496
480378
482167
483709
484100
483373
482398
482024
482822
484410
486133
487112
486812
485691
484481
484317
485303
487052
488596
489049
488435
487306
486819
487544
489381
491224
491959
491236
489754
488767
489135
490735
492577
493760
493765
493003
492147
491941
492706
494205
495670
496318
495876
494680
493856
494110
495521
497315
498513
498578
497804
496943
496781
497560
499112
500435
501131
500733
499653
498943
498870
500223
501723
503191
503428
502808
501880
501379
502124
503588
505251
506147
505836
504857
503925
503785
505015
506311
508017
508061
507926
506933
506331
507049
507649
509862
510307
511072
510168
509130
509211
508967
511595
511831
513815
512439
511965
511387
510790
513680
513049
516639
514523
515650
514345
513324
516043
513792
519230
516017
519523
517097
516198
517987
514149
521032
515971
523356
517845
520879
518334
516944
521459
516956
526332
518875
526155
519426
521270
521933
519438
527515
521454
529385
522167
525185
523084
522362
527899
524140
531450
525085
528877
524533
526074
527644
527813
532238
528514
532312
525826
530669
526397
531939
531689
532059
534790
528259
534449
526684
535490
530441
536789
533920
534041
534673
530737
536408
532117
539407
534295
539580
534147
535644
537547
532408
543526
534543
542068
539004
535207
541507
533972
543363
538195
543344
541044
538710
542568
535585
544946
539723
544586
545005
539609
545578
536853
545446
540770
546347
546045
542959
547749
537964
547497
540817
546420
549002
542817
550862
540869
545081
545642
542755
550248
546189
548480
546650
545016
544926
546139
545482
548816
548469
545003
549289
543207
544985
547080
546463
546220
548856
546881
542369
547977
542954
543650
547870
544435
544933
544883
543806
540756
543527
543644
540282
544923
542995
537682
542673
540063
534083
543033
539150
533070
542893
535766
530398
539117
533255
529435
536689
533484
527744
532561
531223
523990
528214
529572
522615
525133
527626
520572
519967
523755
518543
515922
521212
517961
513495
516681
516281
509627
511783
513224
509491
506255
512917
506180
504421
506096
507346
497501
507720
501014
502432
499203
505481
494158
503374
495448
500881
494555
501389
494506
499998
494237
499501
494353
497045
496962
497383
495671
499322
498852
495592
501018
499195
498022
500868
503412
499592
503158
506144
503220
505113
508122
507603
508313
510342
512509
512463
514642
515311
517706
519094
518524
521604
524790
522734
525487
529534
529457
528665
533765
535753
534115
535984
541681
540262
540412
544357
547499
545426
547983
551283
552772
551028
555282
557161
557281
557772
561789
562221
562666
564146
567171
567122
568035
569545
571926
571833
573046
574369
576482
576587
577784
578702
580559
580971
582176
582376
584118
584679
586123
586130
587533
588007
589455
589726
590934
591023
592283
592631
593833
593985
595072
595252
596348
596582
597554
597617
598483
598567
599365
599430
600072
600028
600502
600418
600691
600515
600511
600195
599875
599446
598758
598186
597057
596309
594690
593770
591614
590476
587742
586377
583080
581536
577722
576041
571787
570008
565421
563569
558793
556930
552149
550330
545735
544010
539817
538292
534712
533445
530649
529433
528419
525997
526613
525909
526232
525056
526701
526965
528849
528677
530540
532027
534926
535082
537704
539380
542404
543717
546367
547204
550700
552669
554961
555466
558834
560675
563033
563630
566485
567460
569987
571459
573652
573601
576568
578101
579827
580325
582922
583284
585473
586589
588598
588764
590772
591293
593834
594379
595925
595813
598253
598896
600835
601150
602716
602666
604767
605621
607501
607422
608667
608822
611117
612016
613314
612959
614602
614782
616953
616791
)
;

boundaryField
{
    sides
    {
        type            calculated;
        value           nonuniform List<scalar> 2(616791 665258);
    }
    empty
    {
        type            empty;
    }
}


// ************************************************************************* //
