/*--------------------------------*- C++ -*----------------------------------*\
  =========                 |
  \\      /  F ield         | OpenFOAM: The Open Source CFD Toolbox
   \\    /   O peration     | Website:  https://openfoam.org
    \\  /    A nd           | Version:  9
     \\/     M anipulation  |
\*---------------------------------------------------------------------------*/
FoamFile
{
    format      ascii;
    class       volScalarField;
    location    "0.041";
    object      ddt0(p);
}
// * * * * * * * * * * * * * * * * * * * * * * * * * * * * * * * * * * * * * //

dimensions      [1 -1 -3 0 0 0 0];

internalField   nonuniform List<scalar> 
1000
(
-471166
-471061
-470923
-470806
-470701
-470594
-470483
-470371
-470258
-470145
-470031
-469916
-469802
-469687
-469573
-469459
-469344
-469229
-469111
-468991
-468868
-468742
-468616
-468493
-468373
-468255
-468135
-468015
-467894
-467775
-467655
-467533
-467407
-467276
-467140
-467007
-466880
-466756
-466629
-466498
-466365
-466234
-466102
-465971
-465840
-465705
-465569
-465436
-465307
-465178
-465034
-464876
-464726
-464593
-464462
-464318
-464178
-464044
-463906
-463783
-463632
-463434
-463266
-463146
-462986
-462856
-462694
-462576
-462385
-462252
-462122
-461944
-461765
-461592
-461435
-461291
-461136
-460967
-460804
-460650
-460491
-460320
-460140
-459957
-459777
-459603
-459430
-459258
-459087
-458913
-458733
-458553
-458374
-458192
-458007
-457822
-457633
-457438
-457241
-457049
-456855
-456656
-456457
-456258
-456060
-455860
-455658
-455464
-455247
-455044
-454815
-454596
-454420
-454137
-453929
-453712
-453484
-453269
-453034
-452809
-452552
-452351
-452103
-451845
-451611
-451370
-451119
-450863
-450607
-450352
-450094
-449830
-449559
-449285
-449011
-448734
-448452
-448167
-447881
-447593
-447300
-447002
-446703
-446402
-446095
-445782
-445465
-445147
-444823
-444492
-444156
-443819
-443478
-443126
-442764
-442409
-442063
-441696
-441257
-440928
-440541
-440138
-439808
-439355
-438980
-438355
-438033
-437744
-437394
-436722
-436199
-435839
-435480
-435124
-434420
-433916
-433503
-433041
-432725
-431993
-431413
-431012
-430575
-430071
-429453
-428758
-428435
-427950
-427141
-426769
-426094
-425635
-424943
-424242
-423813
-423361
-422543
-421830
-421476
-421325
-420880
-420033
-419346
-417674
-416376
-415279
-414320
-413374
-412736
-411781
-410933
-410220
-409386
-408543
-407757
-406823
-405906
-405016
-404038
-403037
-402064
-401072
-400070
-399066
-398027
-396950
-395856
-394740
-393598
-392444
-391277
-390098
-388913
-387720
-386513
-385289
-384046
-382782
-381496
-380193
-378873
-377537
-376189
-374832
-373470
-372102
-370725
-369335
-367930
-366512
-365082
-363642
-362194
-360739
-359281
-357824
-356367
-354912
-353456
-352000
-350544
-349089
-347636
-346186
-344742
-343306
-341883
-340474
-339082
-337706
-336345
-335000
-333673
-332364
-331076
-329810
-328567
-327352
-326167
-325012
-323889
-322798
-321738
-320709
-319714
-318753
-317828
-316939
-316088
-315275
-314500
-313765
-313069
-312411
-311792
-311212
-310670
-310166
-309701
-309272
-308881
-308526
-308207
-307925
-307679
-307468
-307289
-307143
-307027
-306941
-306883
-306852
-306847
-306868
-306915
-306986
-307082
-307201
-307340
-307497
-307671
-307859
-308063
-308280
-308511
-308756
-309015
-309290
-309578
-309878
-310190
-310509
-310834
-311165
-311501
-311842
-312187
-312539
-312896
-313259
-313628
-314004
-314385
-314770
-315157
-315546
-315936
-316327
-316720
-317115
-317511
-317910
-318311
-318715
-319122
-319532
-319944
-320355
-320766
-321178
-321589
-322001
-322413
-322827
-323242
-323657
-324075
-324494
-324914
-325334
-325756
-326177
-326598
-327020
-327443
-327867
-328292
-328718
-329144
-329571
-329999
-330428
-330857
-331287
-331716
-332145
-332573
-333002
-333431
-333862
-334293
-334725
-335158
-335591
-336025
-336460
-336894
-337328
-337761
-338194
-338626
-339060
-339495
-339931
-340369
-340807
-341246
-341685
-342125
-342566
-343006
-343446
-343885
-344323
-344762
-345202
-345643
-346085
-346527
-346970
-347413
-347856
-348301
-348745
-349190
-349635
-350081
-350526
-350971
-351418
-351866
-352314
-352762
-353210
-353658
-354106
-354555
-355004
-355454
-355903
-356353
-356803
-357254
-357706
-358159
-358613
-359068
-359523
-359978
-360433
-360889
-361345
-361802
-362259
-362716
-363173
-363631
-364089
-364548
-365008
-365468
-365928
-366388
-366848
-367309
-367770
-368232
-368694
-369157
-369620
-370084
-370548
-371013
-371480
-371947
-372414
-372881
-373349
-373817
-374286
-374756
-375227
-375698
-376170
-376641
-377114
-377587
-378060
-378535
-379009
-379484
-379959
-380434
-380909
-381385
-381861
-382339
-382817
-383296
-383775
-384255
-384736
-385218
-385701
-386185
-386668
-387152
-387635
-388119
-388604
-389089
-389575
-390062
-390548
-391035
-391522
-392011
-392501
-392991
-393482
-393974
-394466
-394959
-395452
-395947
-396442
-396938
-397434
-397931
-398427
-398924
-399422
-399920
-400418
-400917
-401417
-401916
-402416
-402917
-403419
-403921
-404424
-404928
-405432
-405936
-406441
-406946
-407452
-407959
-408466
-408974
-409482
-409990
-410499
-411009
-411520
-412032
-412545
-413058
-413571
-414085
-414599
-415114
-415630
-416147
-416663
-417180
-417698
-418216
-418735
-419255
-419776
-420298
-420820
-421343
-421867
-422391
-422917
-423443
-423971
-424499
-425027
-425557
-426086
-426618
-427149
-427683
-428216
-428750
-429284
-429818
-430354
-430889
-431427
-431963
-432502
-433040
-433579
-434120
-434658
-435201
-435740
-436285
-436826
-437370
-437913
-438456
-439002
-439544
-440093
-440636
-441185
-441731
-442278
-442827
-443373
-443926
-444473
-445026
-445575
-446127
-446679
-447230
-447785
-448336
-448894
-449447
-450004
-450559
-451116
-451674
-452231
-452792
-453349
-453911
-454469
-455031
-455590
-456152
-456714
-457275
-457840
-458399
-458964
-459523
-460089
-460649
-461214
-461777
-462339
-462903
-463464
-464029
-464590
-465155
-465716
-466281
-466842
-467404
-467967
-468525
-469089
-469646
-470206
-470765
-471318
-471877
-472427
-472983
-473532
-474083
-474631
-475175
-475722
-476261
-476804
-477340
-477875
-478410
-478936
-479466
-479985
-480507
-481021
-481534
-482043
-482545
-483047
-483537
-484028
-484509
-484987
-485461
-485922
-486384
-486832
-487276
-487713
-488138
-488561
-488970
-489373
-489765
-490147
-490519
-490881
-491231
-491572
-491901
-492214
-492520
-492809
-493085
-493349
-493599
-493832
-494053
-494259
-494445
-494620
-494776
-494914
-495039
-495143
-495230
-495300
-495351
-495381
-495395
-495390
-495362
-495317
-495254
-495165
-495062
-494938
-494788
-494625
-494441
-494231
-494010
-493766
-493498
-493219
-492918
-492596
-492261
-491909
-491536
-491152
-490753
-490336
-489907
-489470
-489016
-488554
-488086
-487606
-487120
-486632
-486139
-485641
-485148
-484655
-484162
-483677
-483201
-482730
-482272
-481829
-481401
-480987
-480599
-480230
-479885
-479568
-479285
-479024
-478807
-478622
-478477
-478371
-478314
-478295
-478331
-478411
-478548
-478733
-478979
-479276
-479637
-480052
-480533
-481073
-481676
-482343
-483074
-483858
-484717
-485644
-486669
-487702
-488815
-489992
-491233
-492537
-493897
-495317
-496795
-498326
-499911
-501548
-503234
-504966
-506743
-508564
-510423
-512321
-514252
-516216
-518209
-520228
-522272
-524338
-526420
-528519
-530631
-532753
-534880
-537014
-539160
-541347
-543375
-545594
-547735
-549760
-552064
-553946
-556040
-558199
-560253
-562260
-564361
-566338
-568286
-570239
-572187
-574046
-575994
-577913
-579629
-581550
-583309
-585057
-586813
-588540
-590170
-591868
-593543
-595132
-596666
-598275
-599810
-601319
-602760
-604264
-605695
-607104
-608506
-609851
-611194
-612542
-613842
-615112
-616380
-617623
-618837
-620040
-621217
-622368
-623505
-624621
-625706
-626768
-627802
-628800
-629764
-630695
-631579
-632418
-633205
-633932
-634592
-635179
-635681
-636093
-636402
-636601
-636678
-636624
-636424
-636072
-635555
-634865
-633992
-632932
-631678
-630227
-628578
-626733
-624695
-622475
-620080
-617528
-614837
-612029
-609130
-606168
-603176
-600186
-597236
-594360
-591599
-588986
-586564
-584360
-582411
-580739
-579378
-578294
-577590
-577220
-577231
-577582
-578264
-579273
-580594
-582205
-584076
-586188
-588514
-591026
-593692
-596486
-599381
-602356
-605385
-608452
-611537
-614629
-617711
-620775
-623810
-626809
-629764
-632676
-635539
-638355
-641121
-643841
-646514
-649141
-651723
-654262
-656756
-659211
-661626
-664005
-666347
-668657
-670934
-673182
-675400
-677591
-679752
-681888
-683996
-686082
-688107
-690208
-692214
-694191
-696173
-698143
-700051
-702007
-703885
-705777
-707670
-709487
-711326
-713168
-714972
-716767
-718511
-720309
-722075
-723800
-725516
-727165
)
;

boundaryField
{
    sides
    {
        type            calculated;
        value           nonuniform List<scalar> 2(-727165 -471166);
    }
    empty
    {
        type            empty;
    }
}


// ************************************************************************* //
