/*--------------------------------*- C++ -*----------------------------------*\
  =========                 |
  \\      /  F ield         | OpenFOAM: The Open Source CFD Toolbox
   \\    /   O peration     | Website:  https://openfoam.org
    \\  /    A nd           | Version:  9
     \\/     M anipulation  |
\*---------------------------------------------------------------------------*/
FoamFile
{
    format      ascii;
    class       volVectorField;
    location    "0.041";
    object      ddt0(rho,U);
}
// * * * * * * * * * * * * * * * * * * * * * * * * * * * * * * * * * * * * * //

dimensions      [1 -2 -2 0 0 0 0];

internalField   nonuniform List<vector> 
1000
(
(-53.0199 0 0)
(-57.398 0 0)
(-62.326 0 0)
(-66.2523 0 0)
(-69.8074 0 0)
(-73.4115 0 0)
(-77.1117 0 0)
(-80.8433 0 0)
(-84.5572 0 0)
(-88.2453 0 0)
(-91.9297 0 0)
(-95.6341 0 0)
(-99.3584 0 0)
(-103.077 0 0)
(-106.766 0 0)
(-110.423 0 0)
(-114.079 0 0)
(-117.768 0 0)
(-121.499 0 0)
(-125.252 0 0)
(-128.988 0 0)
(-132.681 0 0)
(-136.328 0 0)
(-139.957 0 0)
(-143.605 0 0)
(-147.305 0 0)
(-151.056 0 0)
(-154.829 0 0)
(-158.574 0 0)
(-162.253 0 0)
(-165.86 0 0)
(-169.418 0 0)
(-172.968 0 0)
(-176.56 0 0)
(-180.226 0 0)
(-183.966 0 0)
(-187.76 0 0)
(-191.587 0 0)
(-195.423 0 0)
(-199.23 0 0)
(-202.964 0 0)
(-206.603 0 0)
(-210.148 0 0)
(-213.615 0 0)
(-217.038 0 0)
(-220.464 0 0)
(-223.928 0 0)
(-227.454 0 0)
(-231.067 0 0)
(-234.797 0 0)
(-238.676 0 0)
(-242.685 0 0)
(-246.75 0 0)
(-250.818 0 0)
(-254.894 0 0)
(-258.967 0 0)
(-262.983 0 0)
(-266.919 0 0)
(-270.772 0 0)
(-274.553 0 0)
(-278.362 0 0)
(-282.236 0 0)
(-286.023 0 0)
(-289.712 0 0)
(-293.5 0 0)
(-297.415 0 0)
(-301.906 0 0)
(-305.933 0 0)
(-310.055 0 0)
(-313.62 0 0)
(-317.355 0 0)
(-321.477 0 0)
(-324.888 0 0)
(-328.412 0 0)
(-332.628 0 0)
(-336.245 0 0)
(-339.748 0 0)
(-343.959 0 0)
(-347.666 0 0)
(-351.045 0 0)
(-355.237 0 0)
(-359.174 0 0)
(-362.372 0 0)
(-366.274 0 0)
(-370.473 0 0)
(-373.777 0 0)
(-377.373 0 0)
(-381.786 0 0)
(-385.462 0 0)
(-388.699 0 0)
(-392.931 0 0)
(-397.121 0 0)
(-400.285 0 0)
(-403.977 0 0)
(-408.517 0 0)
(-412.15 0 0)
(-415.257 0 0)
(-419.496 0 0)
(-423.863 0 0)
(-427.019 0 0)
(-430.451 0 0)
(-435.075 0 0)
(-439.091 0 0)
(-442.044 0 0)
(-445.906 0 0)
(-450.65 0 0)
(-454.283 0 0)
(-457.248 0 0)
(-461.514 0 0)
(-466.259 0 0)
(-469.524 0 0)
(-472.564 0 0)
(-477.046 0 0)
(-481.668 0 0)
(-484.781 0 0)
(-487.988 0 0)
(-492.603 0 0)
(-497.161 0 0)
(-500.293 0 0)
(-503.496 0 0)
(-508.2 0 0)
(-512.848 0 0)
(-515.922 0 0)
(-519.095 0 0)
(-523.852 0 0)
(-528.518 0 0)
(-531.689 0 0)
(-534.836 0 0)
(-539.471 0 0)
(-544.265 0 0)
(-547.626 0 0)
(-550.687 0 0)
(-555.125 0 0)
(-560.043 0 0)
(-563.667 0 0)
(-566.645 0 0)
(-570.81 0 0)
(-575.831 0 0)
(-579.858 0 0)
(-582.854 0 0)
(-586.659 0 0)
(-591.669 0 0)
(-596.146 0 0)
(-599.326 0 0)
(-602.74 0 0)
(-607.533 0 0)
(-612.445 0 0)
(-616.024 0 0)
(-619.129 0 0)
(-623.456 0 0)
(-628.63 0 0)
(-632.845 0 0)
(-635.921 0 0)
(-639.621 0 0)
(-644.702 0 0)
(-649.651 0 0)
(-653.141 0 0)
(-656.337 0 0)
(-660.717 0 0)
(-666.263 0 0)
(-670.767 0 0)
(-673.73 0 0)
(-677.183 0 0)
(-682.249 0 0)
(-688.208 0 0)
(-691.741 0 0)
(-694.822 0 0)
(-698.769 0 0)
(-704.221 0 0)
(-709.657 0 0)
(-713.205 0 0)
(-716.841 0 0)
(-720.719 0 0)
(-726 0 0)
(-731.566 0 0)
(-735.295 0 0)
(-738.997 0 0)
(-742.672 0 0)
(-748.208 0 0)
(-754.1 0 0)
(-757.586 0 0)
(-761.239 0 0)
(-765.046 0 0)
(-770.71 0 0)
(-777.071 0 0)
(-780.119 0 0)
(-783.741 0 0)
(-788.124 0 0)
(-793.362 0 0)
(-800.025 0 0)
(-803.144 0 0)
(-806.801 0 0)
(-811.76 0 0)
(-816.444 0 0)
(-822.527 0 0)
(-826.758 0 0)
(-830.889 0 0)
(-835.248 0 0)
(-839.365 0 0)
(-843.58 0 0)
(-847.922 0 0)
(-852.31 0 0)
(-859.308 0 0)
(-865.726 0 0)
(-872.124 0 0)
(-878.41 0 0)
(-883.705 0 0)
(-888.685 0 0)
(-894.247 0 0)
(-899.377 0 0)
(-904.509 0 0)
(-909.895 0 0)
(-914.702 0 0)
(-919.693 0 0)
(-925.403 0 0)
(-930.979 0 0)
(-936.352 0 0)
(-941.537 0 0)
(-946.547 0 0)
(-951.978 0 0)
(-957.963 0 0)
(-963.923 0 0)
(-969.465 0 0)
(-974.866 0 0)
(-980.502 0 0)
(-986.561 0 0)
(-992.809 0 0)
(-998.668 0 0)
(-1004.1 0 0)
(-1009.55 0 0)
(-1015.48 0 0)
(-1021.89 0 0)
(-1028.3 0 0)
(-1034.25 0 0)
(-1039.97 0 0)
(-1045.85 0 0)
(-1052.35 0 0)
(-1059.04 0 0)
(-1065.42 0 0)
(-1071.34 0 0)
(-1077.11 0 0)
(-1083.39 0 0)
(-1090.05 0 0)
(-1096.82 0 0)
(-1103.15 0 0)
(-1109.23 0 0)
(-1115.43 0 0)
(-1122.08 0 0)
(-1129.05 0 0)
(-1135.77 0 0)
(-1142.09 0 0)
(-1148.2 0 0)
(-1154.53 0 0)
(-1161.37 0 0)
(-1168.38 0 0)
(-1175.01 0 0)
(-1181.32 0 0)
(-1187.48 0 0)
(-1193.98 0 0)
(-1200.99 0 0)
(-1208.01 0 0)
(-1214.66 0 0)
(-1220.82 0 0)
(-1226.81 0 0)
(-1233.19 0 0)
(-1240.07 0 0)
(-1247.03 0 0)
(-1253.58 0 0)
(-1259.53 0 0)
(-1265.34 0 0)
(-1271.55 0 0)
(-1278.24 0 0)
(-1285.03 0 0)
(-1291.31 0 0)
(-1297.02 0 0)
(-1302.48 0 0)
(-1308.36 0 0)
(-1314.7 0 0)
(-1321 0 0)
(-1326.9 0 0)
(-1332.25 0 0)
(-1337.44 0 0)
(-1342.93 0 0)
(-1348.81 0 0)
(-1354.67 0 0)
(-1360.04 0 0)
(-1364.88 0 0)
(-1369.58 0 0)
(-1374.58 0 0)
(-1379.91 0 0)
(-1385.28 0 0)
(-1390.23 0 0)
(-1394.52 0 0)
(-1398.58 0 0)
(-1402.93 0 0)
(-1407.72 0 0)
(-1412.65 0 0)
(-1417.24 0 0)
(-1421.13 0 0)
(-1424.51 0 0)
(-1428.02 0 0)
(-1432.17 0 0)
(-1436.7 0 0)
(-1440.92 0 0)
(-1444.47 0 0)
(-1447.47 0 0)
(-1450.47 0 0)
(-1453.93 0 0)
(-1457.84 0 0)
(-1461.65 0 0)
(-1464.9 0 0)
(-1467.69 0 0)
(-1470.38 0 0)
(-1473.34 0 0)
(-1476.7 0 0)
(-1480.13 0 0)
(-1483.17 0 0)
(-1485.7 0 0)
(-1488.04 0 0)
(-1490.65 0 0)
(-1493.71 0 0)
(-1497.02 0 0)
(-1500.04 0 0)
(-1502.38 0 0)
(-1504.25 0 0)
(-1506.32 0 0)
(-1509.07 0 0)
(-1512.27 0 0)
(-1515.37 0 0)
(-1517.96 0 0)
(-1519.94 0 0)
(-1521.74 0 0)
(-1523.97 0 0)
(-1526.84 0 0)
(-1529.87 0 0)
(-1532.56 0 0)
(-1534.8 0 0)
(-1536.69 0 0)
(-1538.6 0 0)
(-1541.03 0 0)
(-1543.94 0 0)
(-1546.76 0 0)
(-1549.06 0 0)
(-1550.98 0 0)
(-1552.91 0 0)
(-1555.19 0 0)
(-1558.01 0 0)
(-1561.03 0 0)
(-1563.53 0 0)
(-1565.39 0 0)
(-1567.11 0 0)
(-1569.12 0 0)
(-1571.59 0 0)
(-1574.57 0 0)
(-1577.64 0 0)
(-1580.08 0 0)
(-1581.84 0 0)
(-1583.5 0 0)
(-1585.59 0 0)
(-1588.22 0 0)
(-1591.25 0 0)
(-1594.15 0 0)
(-1596.41 0 0)
(-1598.16 0 0)
(-1600.06 0 0)
(-1602.43 0 0)
(-1605.15 0 0)
(-1608.02 0 0)
(-1610.67 0 0)
(-1612.75 0 0)
(-1614.46 0 0)
(-1616.52 0 0)
(-1619.24 0 0)
(-1622.27 0 0)
(-1625.14 0 0)
(-1627.55 0 0)
(-1629.44 0 0)
(-1631.09 0 0)
(-1633.12 0 0)
(-1635.96 0 0)
(-1639.18 0 0)
(-1642.14 0 0)
(-1644.52 0 0)
(-1646.43 0 0)
(-1648.22 0 0)
(-1650.31 0 0)
(-1653.04 0 0)
(-1656.14 0 0)
(-1659.02 0 0)
(-1661.33 0 0)
(-1663.25 0 0)
(-1665.26 0 0)
(-1667.7 0 0)
(-1670.59 0 0)
(-1673.64 0 0)
(-1676.4 0 0)
(-1678.55 0 0)
(-1680.29 0 0)
(-1682.21 0 0)
(-1684.76 0 0)
(-1687.88 0 0)
(-1691.1 0 0)
(-1693.94 0 0)
(-1696.16 0 0)
(-1697.93 0 0)
(-1699.75 0 0)
(-1702.14 0 0)
(-1705.19 0 0)
(-1708.44 0 0)
(-1711.28 0 0)
(-1713.51 0 0)
(-1715.47 0 0)
(-1717.63 0 0)
(-1720.22 0 0)
(-1723.19 0 0)
(-1726.22 0 0)
(-1728.94 0 0)
(-1731.1 0 0)
(-1732.98 0 0)
(-1735.06 0 0)
(-1737.78 0 0)
(-1741.04 0 0)
(-1744.35 0 0)
(-1747.2 0 0)
(-1749.39 0 0)
(-1751.23 0 0)
(-1753.22 0 0)
(-1755.8 0 0)
(-1758.88 0 0)
(-1762.06 0 0)
(-1764.91 0 0)
(-1767.32 0 0)
(-1769.49 0 0)
(-1771.68 0 0)
(-1774.24 0 0)
(-1777.3 0 0)
(-1780.57 0 0)
(-1783.43 0 0)
(-1785.59 0 0)
(-1787.41 0 0)
(-1789.53 0 0)
(-1792.3 0 0)
(-1795.56 0 0)
(-1798.91 0 0)
(-1801.98 0 0)
(-1804.49 0 0)
(-1806.53 0 0)
(-1808.52 0 0)
(-1810.94 0 0)
(-1813.97 0 0)
(-1817.26 0 0)
(-1820.34 0 0)
(-1822.91 0 0)
(-1825.12 0 0)
(-1827.29 0 0)
(-1829.85 0 0)
(-1832.93 0 0)
(-1836.28 0 0)
(-1839.43 0 0)
(-1842.05 0 0)
(-1844.15 0 0)
(-1846.13 0 0)
(-1848.47 0 0)
(-1851.39 0 0)
(-1854.77 0 0)
(-1858.12 0 0)
(-1861.07 0 0)
(-1863.5 0 0)
(-1865.71 0 0)
(-1868.05 0 0)
(-1870.79 0 0)
(-1873.96 0 0)
(-1877.22 0 0)
(-1880.23 0 0)
(-1882.69 0 0)
(-1884.79 0 0)
(-1887.03 0 0)
(-1889.77 0 0)
(-1893.06 0 0)
(-1896.55 0 0)
(-1899.8 0 0)
(-1902.54 0 0)
(-1904.8 0 0)
(-1906.92 0 0)
(-1909.34 0 0)
(-1912.37 0 0)
(-1915.77 0 0)
(-1919.08 0 0)
(-1921.93 0 0)
(-1924.32 0 0)
(-1926.61 0 0)
(-1929.15 0 0)
(-1932.17 0 0)
(-1935.51 0 0)
(-1938.92 0 0)
(-1942.02 0 0)
(-1944.61 0 0)
(-1946.87 0 0)
(-1949.09 0 0)
(-1951.74 0 0)
(-1954.87 0 0)
(-1958.32 0 0)
(-1961.7 0 0)
(-1964.63 0 0)
(-1967.12 0 0)
(-1969.4 0 0)
(-1971.95 0 0)
(-1975 0 0)
(-1978.51 0 0)
(-1982.03 0 0)
(-1985.1 0 0)
(-1987.57 0 0)
(-1989.72 0 0)
(-1992.08 0 0)
(-1995 0 0)
(-1998.45 0 0)
(-2002 0 0)
(-2005.29 0 0)
(-2008.08 0 0)
(-2010.56 0 0)
(-2013 0 0)
(-2015.72 0 0)
(-2018.85 0 0)
(-2022.3 0 0)
(-2025.74 0 0)
(-2028.84 0 0)
(-2031.48 0 0)
(-2033.8 0 0)
(-2036.29 0 0)
(-2039.23 0 0)
(-2042.67 0 0)
(-2046.27 0 0)
(-2049.62 0 0)
(-2052.5 0 0)
(-2055.02 0 0)
(-2057.51 0 0)
(-2060.3 0 0)
(-2063.49 0 0)
(-2067.02 0 0)
(-2070.46 0 0)
(-2073.63 0 0)
(-2076.34 0 0)
(-2078.76 0 0)
(-2081.34 0 0)
(-2084.19 0 0)
(-2087.67 0 0)
(-2091.21 0 0)
(-2094.74 0 0)
(-2097.75 0 0)
(-2100.39 0 0)
(-2102.89 0 0)
(-2105.59 0 0)
(-2108.83 0 0)
(-2112.38 0 0)
(-2116.04 0 0)
(-2119.36 0 0)
(-2122.16 0 0)
(-2124.67 0 0)
(-2127.2 0 0)
(-2130.09 0 0)
(-2133.57 0 0)
(-2137.1 0 0)
(-2140.8 0 0)
(-2143.78 0 0)
(-2146.69 0 0)
(-2149.22 0 0)
(-2151.92 0 0)
(-2155.21 0 0)
(-2158.45 0 0)
(-2162.41 0 0)
(-2165.6 0 0)
(-2168.93 0 0)
(-2171.53 0 0)
(-2174.06 0 0)
(-2177.11 0 0)
(-2180 0 0)
(-2184.19 0 0)
(-2187.32 0 0)
(-2191.23 0 0)
(-2193.65 0 0)
(-2196.46 0 0)
(-2199.25 0 0)
(-2202.02 0 0)
(-2206.37 0 0)
(-2209.14 0 0)
(-2213.81 0 0)
(-2215.92 0 0)
(-2219.49 0 0)
(-2221.98 0 0)
(-2224.58 0 0)
(-2228.9 0 0)
(-2230.95 0 0)
(-2236.5 0 0)
(-2238.14 0 0)
(-2242.82 0 0)
(-2244.83 0 0)
(-2247.5 0 0)
(-2251.44 0 0)
(-2252.78 0 0)
(-2259.04 0 0)
(-2259.84 0 0)
(-2266.34 0 0)
(-2266.95 0 0)
(-2271.45 0 0)
(-2273.44 0 0)
(-2275.9 0 0)
(-2281.15 0 0)
(-2282.19 0 0)
(-2289.67 0 0)
(-2289.37 0 0)
(-2295.88 0 0)
(-2295.94 0 0)
(-2299.93 0 0)
(-2303.43 0 0)
(-2305.41 0 0)
(-2312.35 0 0)
(-2312.7 0 0)
(-2319.57 0 0)
(-2319.4 0 0)
(-2323.98 0 0)
(-2326.21 0 0)
(-2329.04 0 0)
(-2334.86 0 0)
(-2336.28 0 0)
(-2342.93 0 0)
(-2343.16 0 0)
(-2348.15 0 0)
(-2349.34 0 0)
(-2353.28 0 0)
(-2357.27 0 0)
(-2360.57 0 0)
(-2365.92 0 0)
(-2367.4 0 0)
(-2372.46 0 0)
(-2372.65 0 0)
(-2378.2 0 0)
(-2379.45 0 0)
(-2385.34 0 0)
(-2388.52 0 0)
(-2391.96 0 0)
(-2396.57 0 0)
(-2396.73 0 0)
(-2403 0 0)
(-2402.58 0 0)
(-2410.1 0 0)
(-2411 0 0)
(-2417.34 0 0)
(-2419.32 0 0)
(-2422.67 0 0)
(-2426.35 0 0)
(-2427.76 0 0)
(-2433.86 0 0)
(-2435.12 0 0)
(-2442.02 0 0)
(-2442.91 0 0)
(-2448.84 0 0)
(-2449.6 0 0)
(-2453.7 0 0)
(-2458.03 0 0)
(-2458.93 0 0)
(-2467.75 0 0)
(-2466.8 0 0)
(-2473.88 0 0)
(-2475.84 0 0)
(-2477.4 0 0)
(-2483.95 0 0)
(-2483.7 0 0)
(-2491.78 0 0)
(-2492.72 0 0)
(-2498.72 0 0)
(-2501.1 0 0)
(-2503.44 0 0)
(-2508.86 0 0)
(-2508.94 0 0)
(-2517.08 0 0)
(-2518.06 0 0)
(-2524.01 0 0)
(-2527.81 0 0)
(-2528.7 0 0)
(-2535.27 0 0)
(-2534.55 0 0)
(-2542.43 0 0)
(-2543.76 0 0)
(-2550.17 0 0)
(-2553.71 0 0)
(-2555.84 0 0)
(-2561.95 0 0)
(-2560.77 0 0)
(-2569.28 0 0)
(-2569.7 0 0)
(-2576.26 0 0)
(-2581.37 0 0)
(-2582.06 0 0)
(-2589.95 0 0)
(-2588.78 0 0)
(-2594.77 0 0)
(-2598.96 0 0)
(-2601.41 0 0)
(-2609.15 0 0)
(-2611.06 0 0)
(-2616.22 0 0)
(-2619.32 0 0)
(-2622.54 0 0)
(-2626.58 0 0)
(-2631.29 0 0)
(-2635.11 0 0)
(-2640.96 0 0)
(-2645 0 0)
(-2647.46 0 0)
(-2653.92 0 0)
(-2655.11 0 0)
(-2660.36 0 0)
(-2665.8 0 0)
(-2669.89 0 0)
(-2674.22 0 0)
(-2680.06 0 0)
(-2683.58 0 0)
(-2685.84 0 0)
(-2693.33 0 0)
(-2695.4 0 0)
(-2700.46 0 0)
(-2707.38 0 0)
(-2710.4 0 0)
(-2715.5 0 0)
(-2720.35 0 0)
(-2724.73 0 0)
(-2728.13 0 0)
(-2734.59 0 0)
(-2739.74 0 0)
(-2743.12 0 0)
(-2750.71 0 0)
(-2754.94 0 0)
(-2757.47 0 0)
(-2765.4 0 0)
(-2769.42 0 0)
(-2771.74 0 0)
(-2781.9 0 0)
(-2785.42 0 0)
(-2787.83 0 0)
(-2798.62 0 0)
(-2800.59 0 0)
(-2803.52 0 0)
(-2813.89 0 0)
(-2816.67 0 0)
(-2820.56 0 0)
(-2830.32 0 0)
(-2834.63 0 0)
(-2837.65 0 0)
(-2846.27 0 0)
(-2851.7 0 0)
(-2854.06 0 0)
(-2862.5 0 0)
(-2869.47 0 0)
(-2872.08 0 0)
(-2879.73 0 0)
(-2887.41 0 0)
(-2890.06 0 0)
(-2896.15 0 0)
(-2904.59 0 0)
(-2908.28 0 0)
(-2913.36 0 0)
(-2922.66 0 0)
(-2927.44 0 0)
(-2931.57 0 0)
(-2939.78 0 0)
(-2946.08 0 0)
(-2949.05 0 0)
(-2956.7 0 0)
(-2963.96 0 0)
(-2968.44 0 0)
(-2973.17 0 0)
(-2983.15 0 0)
(-2985.96 0 0)
(-2991.36 0 0)
(-2998.61 0 0)
(-3005.52 0 0)
(-3006.51 0 0)
(-3018.12 0 0)
(-3020.68 0 0)
(-3027.43 0 0)
(-3031.75 0 0)
(-3040.94 0 0)
(-3040.77 0 0)
(-3051.36 0 0)
(-3052.86 0 0)
(-3061.21 0 0)
(-3063.4 0 0)
(-3072.29 0 0)
(-3073.99 0 0)
(-3081.92 0 0)
(-3084.03 0 0)
(-3091.6 0 0)
(-3093.81 0 0)
(-3099.74 0 0)
(-3104.47 0 0)
(-3108.92 0 0)
(-3112.52 0 0)
(-3118.53 0 0)
(-3122.44 0 0)
(-3124.32 0 0)
(-3131.48 0 0)
(-3133.95 0 0)
(-3137.06 0 0)
(-3141.83 0 0)
(-3146.74 0 0)
(-3147.67 0 0)
(-3152.9 0 0)
(-3157.3 0 0)
(-3158.78 0 0)
(-3162.36 0 0)
(-3166.87 0 0)
(-3168.93 0 0)
(-3171.99 0 0)
(-3175.27 0 0)
(-3178.94 0 0)
(-3180.92 0 0)
(-3184.45 0 0)
(-3186.67 0 0)
(-3190.18 0 0)
(-3192.68 0 0)
(-3194.45 0 0)
(-3197.76 0 0)
(-3201.5 0 0)
(-3201.93 0 0)
(-3205.36 0 0)
(-3209.07 0 0)
(-3210.9 0 0)
(-3211.93 0 0)
(-3216.58 0 0)
(-3219.12 0 0)
(-3219.99 0 0)
(-3222.58 0 0)
(-3227.39 0 0)
(-3228.26 0 0)
(-3230.39 0 0)
(-3233.62 0 0)
(-3237.64 0 0)
(-3237.86 0 0)
(-3240.99 0 0)
(-3244.81 0 0)
(-3247.67 0 0)
(-3248.21 0 0)
(-3253.01 0 0)
(-3255.87 0 0)
(-3257.9 0 0)
(-3260.09 0 0)
(-3264.68 0 0)
(-3266.77 0 0)
(-3269.54 0 0)
(-3272.57 0 0)
(-3276.54 0 0)
(-3278.98 0 0)
(-3282.11 0 0)
(-3285.02 0 0)
(-3289.18 0 0)
(-3291.78 0 0)
(-3295.07 0 0)
(-3298.3 0 0)
(-3302.67 0 0)
(-3305.5 0 0)
(-3308.98 0 0)
(-3312.3 0 0)
(-3316.68 0 0)
(-3319.92 0 0)
(-3323.68 0 0)
(-3326.8 0 0)
(-3331.3 0 0)
(-3334.76 0 0)
(-3339.06 0 0)
(-3342.24 0 0)
(-3346.6 0 0)
(-3350.25 0 0)
(-3354.82 0 0)
(-3358.4 0 0)
(-3362.85 0 0)
(-3366.42 0 0)
(-3371.03 0 0)
(-3374.85 0 0)
(-3379.53 0 0)
(-3383.33 0 0)
(-3388.02 0 0)
(-3391.94 0 0)
(-3396.78 0 0)
(-3400.86 0 0)
(-3405.74 0 0)
(-3409.84 0 0)
(-3414.78 0 0)
(-3419.06 0 0)
(-3424.15 0 0)
(-3428.62 0 0)
(-3433.84 0 0)
(-3438.49 0 0)
(-3443.87 0 0)
(-3448.79 0 0)
(-3454.39 0 0)
(-3459.61 0 0)
(-3465.44 0 0)
(-3471.02 0 0)
(-3477.15 0 0)
(-3483.18 0 0)
(-3489.67 0 0)
(-3496.22 0 0)
(-3503.09 0 0)
(-3510.21 0 0)
(-3517.51 0 0)
(-3525.26 0 0)
(-3533.02 0 0)
(-3541.43 0 0)
(-3549.65 0 0)
(-3558.7 0 0)
(-3567.37 0 0)
(-3577.06 0 0)
(-3586.14 0 0)
(-3596.4 0 0)
(-3605.81 0 0)
(-3616.53 0 0)
(-3626.19 0 0)
(-3637.17 0 0)
(-3646.93 0 0)
(-3657.98 0 0)
(-3667.69 0 0)
(-3678.56 0 0)
(-3688.06 0 0)
(-3698.5 0 0)
(-3707.63 0 0)
(-3717.43 0 0)
(-3726.08 0 0)
(-3735.04 0 0)
(-3743.12 0 0)
(-3750.96 0 0)
(-3758.86 0 0)
(-3764.68 0 0)
(-3772.31 0 0)
(-3777.92 0 0)
(-3784.01 0 0)
(-3788.07 0 0)
(-3793.81 0 0)
(-3797.67 0 0)
(-3802.54 0 0)
(-3805.21 0 0)
(-3809.27 0 0)
(-3812.25 0 0)
(-3816.32 0 0)
(-3817.98 0 0)
(-3821.46 0 0)
(-3823.7 0 0)
(-3827.17 0 0)
(-3829.04 0 0)
(-3832.19 0 0)
(-3833.76 0 0)
(-3837.45 0 0)
(-3839.77 0 0)
(-3842.84 0 0)
(-3844.41 0 0)
(-3848.26 0 0)
(-3850.79 0 0)
(-3854.2 0 0)
(-3856.16 0 0)
(-3860.05 0 0)
(-3862.43 0 0)
(-3866.31 0 0)
(-3869.18 0 0)
(-3873.04 0 0)
(-3875.16 0 0)
(-3879.64 0 0)
(-3882.87 0 0)
(-3886.75 0 0)
(-3889.49 0 0)
(-3894.03 0 0)
(-3896.84 0 0)
(-3901.26 0 0)
(-3904.65 0 0)
(-3909.09 0 0)
(-3912.03 0 0)
(-3916.57 0 0)
(-3919.83 0 0)
(-3924.79 0 0)
(-3928.19 0 0)
(-3932.53 0 0)
(-3935.67 0 0)
(-3940.81 0 0)
(-3944.37 0 0)
(-3949.24 0 0)
(-3952.78 0 0)
(-3957.44 0 0)
(-3960.84 0 0)
(-3965.95 0 0)
(-3969.92 0 0)
(-3975.03 0 0)
(-3978.45 0 0)
(-3983.14 0 0)
(-3986.9 0 0)
(-3992.35 0 0)
(-3996.59 0 0)
(-4001.37 0 0)
(-4004.91 0 0)
(-4010.17 0 0)
(-4014 0 0)
(-4019.75 0 0)
(-4025.84 0 0)
)
;

boundaryField
{
    sides
    {
        type            calculated;
        value           nonuniform List<vector> 2((-4025.84 0 0) (-53.0199 0 0));
    }
    empty
    {
        type            empty;
    }
}


// ************************************************************************* //
