/*--------------------------------*- C++ -*----------------------------------*\
  =========                 |
  \\      /  F ield         | OpenFOAM: The Open Source CFD Toolbox
   \\    /   O peration     | Website:  https://openfoam.org
    \\  /    A nd           | Version:  9
     \\/     M anipulation  |
\*---------------------------------------------------------------------------*/
FoamFile
{
    format      ascii;
    class       volScalarField;
    location    "0.041";
    object      ddt0(rho);
}
// * * * * * * * * * * * * * * * * * * * * * * * * * * * * * * * * * * * * * //

dimensions      [1 -3 -1 0 0 0 0];

internalField   nonuniform List<scalar> 
1000
(
-6.14066
-6.13842
-6.13517
-6.13237
-6.12947
-6.12626
-6.12338
-6.12103
-6.11844
-6.11499
-6.1112
-6.10821
-6.10633
-6.10456
-6.10166
-6.09739
-6.0929
-6.08961
-6.08805
-6.08733
-6.08584
-6.08241
-6.07715
-6.07137
-6.06675
-6.06438
-6.06414
-6.06485
-6.06487
-6.06282
-6.05819
-6.0515
-6.04407
-6.03748
-6.03304
-6.03143
-6.03246
-6.0351
-6.03793
-6.0395
-6.03876
-6.03519
-6.02878
-6.02012
-6.01019
-6.00008
-5.99101
-5.98404
-5.97991
-5.97895
-5.98099
-5.9857
-5.99273
-6.00136
-6.01041
-6.0187
-6.02568
-6.03086
-6.03401
-6.03559
-6.03549
-6.03397
-6.03237
-6.03091
-6.03047
-6.03494
-6.05202
-6.05462
-6.06381
-6.05688
-6.052
-6.06027
-6.05226
-6.04535
-6.05419
-6.04802
-6.03882
-6.04745
-6.04447
-6.03229
-6.03907
-6.04156
-6.02715
-6.02841
-6.03688
-6.02457
-6.01762
-6.02916
-6.02475
-6.00985
-6.01678
-6.0237
-6.00784
-6.00251
-6.016
-6.01069
-5.99341
-5.99993
-6.01002
-5.99448
-5.98352
-5.99737
-5.99941
-5.97912
-5.97673
-5.99263
-5.98634
-5.96616
-5.97041
-5.98547
-5.97273
-5.95412
-5.96337
-5.97573
-5.95937
-5.9429
-5.95435
-5.96494
-5.9473
-5.93172
-5.94361
-5.95392
-5.93597
-5.91986
-5.93137
-5.94176
-5.92546
-5.90798
-5.91682
-5.92886
-5.91542
-5.89607
-5.90076
-5.91432
-5.90534
-5.88443
-5.88353
-5.89757
-5.89474
-5.87382
-5.866
-5.87858
-5.88245
-5.86426
-5.84936
-5.85711
-5.86711
-5.85513
-5.83484
-5.83401
-5.84702
-5.8447
-5.82362
-5.81164
-5.82138
-5.82965
-5.8152
-5.79401
-5.79197
-5.80615
-5.80489
-5.78283
-5.76779
-5.77176
-5.78769
-5.77294
-5.75077
-5.74209
-5.7511
-5.76044
-5.74133
-5.72036
-5.71447
-5.72437
-5.73058
-5.70957
-5.68995
-5.68387
-5.6933
-5.69898
-5.6764
-5.65857
-5.65257
-5.65696
-5.66556
-5.6423
-5.62671
-5.6195
-5.6154
-5.62943
-5.60884
-5.59266
-5.58162
-5.57441
-5.5875
-5.57412
-5.55637
-5.54158
-5.5407
-5.54462
-5.54255
-5.52765
-5.51259
-5.48868
-5.47831
-5.46645
-5.452
-5.43502
-5.425
-5.416
-5.40887
-5.39884
-5.38309
-5.369
-5.36123
-5.35382
-5.34283
-5.32684
-5.30935
-5.29683
-5.28886
-5.27932
-5.26356
-5.24484
-5.22873
-5.21794
-5.209
-5.19487
-5.17519
-5.1549
-5.13955
-5.12921
-5.11786
-5.09988
-5.07849
-5.05845
-5.0452
-5.03387
-5.01865
-4.99751
-4.97418
-4.95632
-4.94233
-4.92904
-4.90987
-4.88701
-4.865
-4.84788
-4.83425
-4.81754
-4.79616
-4.77207
-4.75046
-4.73435
-4.72
-4.70115
-4.67831
-4.65369
-4.63291
-4.61785
-4.60325
-4.58468
-4.56094
-4.53569
-4.5151
-4.50053
-4.48716
-4.46962
-4.44592
-4.4212
-4.40157
-4.38791
-4.37611
-4.35975
-4.33801
-4.3146
-4.29677
-4.28488
-4.2736
-4.25901
-4.23965
-4.21972
-4.20425
-4.19437
-4.18551
-4.1729
-4.15593
-4.13899
-4.12661
-4.11903
-4.11346
-4.10478
-4.0906
-4.07546
-4.06489
-4.06031
-4.05874
-4.05494
-4.04534
-4.0318
-4.02108
-4.01827
-4.0208
-4.0213
-4.01607
-4.00646
-3.9979
-3.99535
-3.9985
-4.00182
-4.00037
-3.99517
-3.99002
-3.98849
-3.99189
-3.99682
-3.9985
-3.99563
-3.99156
-3.99101
-3.99565
-4.00338
-4.00897
-4.00819
-4.00314
-4.00057
-4.00517
-4.01461
-4.02329
-4.02709
-4.02505
-4.02147
-4.02259
-4.03031
-4.04003
-4.04654
-4.04878
-4.04771
-4.04703
-4.05146
-4.06076
-4.06916
-4.07246
-4.07217
-4.07198
-4.0754
-4.08418
-4.09494
-4.10081
-4.10036
-4.09866
-4.09976
-4.10536
-4.11585
-4.12713
-4.13234
-4.13086
-4.1285
-4.13034
-4.1375
-4.1484
-4.15816
-4.16174
-4.1604
-4.16046
-4.165
-4.17284
-4.18204
-4.18915
-4.19081
-4.18899
-4.19041
-4.19816
-4.20877
-4.21779
-4.22251
-4.22224
-4.21971
-4.22075
-4.2293
-4.24144
-4.25106
-4.25523
-4.25501
-4.25366
-4.25511
-4.26249
-4.27333
-4.28209
-4.2855
-4.28527
-4.28586
-4.29039
-4.29896
-4.30904
-4.31639
-4.3181
-4.31606
-4.31572
-4.32115
-4.33176
-4.34324
-4.35117
-4.35335
-4.35137
-4.34987
-4.35353
-4.36311
-4.37448
-4.38213
-4.38415
-4.38384
-4.38522
-4.39057
-4.39928
-4.40844
-4.41478
-4.41614
-4.41489
-4.4154
-4.42158
-4.43264
-4.44394
-4.45119
-4.45258
-4.45084
-4.45034
-4.45512
-4.46428
-4.47423
-4.48123
-4.48437
-4.48529
-4.4864
-4.49078
-4.4995
-4.51001
-4.51698
-4.51777
-4.51554
-4.51588
-4.52193
-4.53219
-4.54313
-4.55162
-4.55517
-4.55469
-4.55369
-4.55645
-4.56441
-4.57458
-4.58292
-4.58687
-4.58761
-4.58808
-4.59184
-4.60002
-4.61049
-4.6192
-4.62336
-4.6231
-4.62179
-4.62347
-4.63013
-4.64063
-4.65084
-4.6577
-4.66004
-4.66049
-4.66208
-4.66697
-4.67544
-4.68472
-4.69171
-4.69413
-4.69359
-4.69409
-4.6988
-4.7081
-4.71894
-4.72782
-4.73234
-4.73291
-4.73226
-4.73419
-4.74106
-4.75097
-4.76006
-4.76531
-4.76683
-4.76753
-4.77023
-4.77684
-4.7861
-4.79581
-4.80304
-4.80601
-4.80625
-4.80619
-4.80964
-4.81692
-4.82676
-4.83593
-4.84146
-4.84343
-4.84369
-4.84608
-4.85253
-4.86268
-4.87287
-4.87936
-4.88099
-4.88009
-4.88084
-4.88612
-4.89552
-4.90573
-4.91376
-4.91785
-4.9194
-4.92063
-4.92404
-4.93069
-4.9398
-4.94881
-4.95509
-4.95774
-4.95788
-4.95926
-4.96424
-4.97308
-4.98321
-4.99135
-4.99572
-4.99729
-4.99857
-5.00218
-5.00894
-5.01829
-5.02688
-5.03338
-5.03624
-5.03683
-5.03865
-5.0426
-5.05132
-5.06053
-5.06964
-5.07465
-5.0768
-5.07792
-5.08047
-5.08719
-5.09631
-5.10611
-5.11335
-5.11658
-5.11757
-5.11873
-5.12253
-5.13091
-5.13952
-5.1495
-5.15394
-5.15778
-5.15877
-5.16106
-5.16776
-5.17408
-5.18578
-5.1916
-5.19848
-5.19981
-5.20069
-5.20531
-5.20885
-5.22198
-5.22715
-5.23815
-5.23795
-5.24076
-5.24323
-5.24564
-5.2597
-5.26202
-5.27841
-5.27579
-5.28399
-5.28407
-5.28511
-5.29863
-5.29558
-5.31818
-5.31193
-5.32809
-5.32448
-5.32596
-5.33641
-5.3281
-5.35555
-5.34318
-5.37232
-5.35846
-5.37308
-5.36911
-5.369
-5.38858
-5.3781
-5.41389
-5.39358
-5.42239
-5.4045
-5.4152
-5.42196
-5.41821
-5.4497
-5.43407
-5.4651
-5.44561
-5.46025
-5.45783
-5.46002
-5.48308
-5.47515
-5.50414
-5.48753
-5.50479
-5.49493
-5.50469
-5.51456
-5.51977
-5.53917
-5.53141
-5.54872
-5.53175
-5.55256
-5.54298
-5.56613
-5.56997
-5.57588
-5.58966
-5.57256
-5.59787
-5.57666
-5.61071
-5.59856
-5.62441
-5.61953
-5.62462
-5.6314
-5.62296
-5.64656
-5.63694
-5.66593
-5.65358
-5.67588
-5.66245
-5.67212
-5.68314
-5.67068
-5.71242
-5.68714
-5.71688
-5.71132
-5.70329
-5.72893
-5.70843
-5.74435
-5.73172
-5.75348
-5.75038
-5.74716
-5.76456
-5.74581
-5.78153
-5.76862
-5.7893
-5.79516
-5.7816
-5.8059
-5.78119
-5.81419
-5.80293
-5.82582
-5.82908
-5.82302
-5.84317
-5.81469
-5.85058
-5.83238
-5.85508
-5.86767
-5.85098
-5.88166
-5.85216
-5.86994
-5.87551
-5.86951
-5.89806
-5.88802
-5.89908
-5.89632
-5.89413
-5.89701
-5.90415
-5.90497
-5.91901
-5.92069
-5.91186
-5.92877
-5.91101
-5.91935
-5.92864
-5.92878
-5.93004
-5.94079
-5.93604
-5.92269
-5.94295
-5.92765
-5.93127
-5.9465
-5.93607
-5.93861
-5.93916
-5.93614
-5.92639
-5.93589
-5.93639
-5.92513
-5.94039
-5.93358
-5.91532
-5.93125
-5.92167
-5.90068
-5.92931
-5.91499
-5.89317
-5.92421
-5.89858
-5.87864
-5.9055
-5.88362
-5.86837
-5.88989
-5.87641
-5.85433
-5.8673
-5.85964
-5.83218
-5.8428
-5.84377
-5.81691
-5.82154
-5.82602
-5.79858
-5.79257
-5.80116
-5.77971
-5.76686
-5.78037
-5.76542
-5.74641
-5.75295
-5.74758
-5.72141
-5.72468
-5.72568
-5.70954
-5.69517
-5.71396
-5.68825
-5.67931
-5.68203
-5.68357
-5.64835
-5.68029
-5.6561
-5.65929
-5.64731
-5.66738
-5.62912
-5.65972
-5.63356
-5.65237
-5.63239
-5.65673
-5.63581
-5.65661
-5.64039
-5.66142
-5.64823
-5.66171
-5.66645
-5.67341
-5.67378
-5.69248
-5.69806
-5.69489
-5.72153
-5.72404
-5.72939
-5.74868
-5.76749
-5.7656
-5.78882
-5.8106
-5.81314
-5.8322
-5.85542
-5.86732
-5.88371
-5.9049
-5.92692
-5.94191
-5.96465
-5.98268
-6.00673
-6.02771
-6.0424
-6.06948
-6.09711
-6.10744
-6.13396
-6.16492
-6.18224
-6.19726
-6.23197
-6.25637
-6.26875
-6.29319
-6.32907
-6.3428
-6.36112
-6.39114
-6.42079
-6.42953
-6.45549
-6.48447
-6.50653
-6.51741
-6.54909
-6.5718
-6.58842
-6.60631
-6.63592
-6.65283
-6.67052
-6.69143
-6.71581
-6.73163
-6.74931
-6.7689
-6.79145
-6.80551
-6.82312
-6.84166
-6.86266
-6.87623
-6.89298
-6.90944
-6.92841
-6.94234
-6.95835
-6.97154
-6.98925
-7.00285
-7.01934
-7.03055
-7.04641
-7.05921
-7.07486
-7.08633
-7.10091
-7.11155
-7.12585
-7.13703
-7.15084
-7.16092
-7.17401
-7.18389
-7.19658
-7.2062
-7.21804
-7.22655
-7.23747
-7.24549
-7.25552
-7.26271
-7.2714
-7.2773
-7.28438
-7.28898
-7.29407
-7.29691
-7.29947
-7.30007
-7.29964
-7.29776
-7.29381
-7.28897
-7.28089
-7.27265
-7.25999
-7.2481
-7.23047
-7.2146
-7.19175
-7.17184
-7.14389
-7.12026
-7.08761
-7.06076
-7.02417
-6.99487
-6.95544
-6.92461
-6.88378
-6.85268
-6.81218
-6.78217
-6.74387
-6.71637
-6.68223
-6.6588
-6.63063
-6.61249
-6.59183
-6.57876
-6.56951
-6.55835
-6.5605
-6.56107
-6.56782
-6.57229
-6.58877
-6.60306
-6.62492
-6.64192
-6.66749
-6.69335
-6.72521
-6.74898
-6.78182
-6.81216
-6.84746
-6.87736
-6.91188
-6.9404
-6.97771
-7.00978
-7.04268
-7.06932
-7.10515
-7.13552
-7.16721
-7.19264
-7.22518
-7.25107
-7.28174
-7.30851
-7.33731
-7.35827
-7.38893
-7.41447
-7.44033
-7.46178
-7.48993
-7.51036
-7.53662
-7.55905
-7.58421
-7.60299
-7.62768
-7.64718
-7.67321
-7.69238
-7.71439
-7.7315
-7.75634
-7.77493
-7.79789
-7.81534
-7.83644
-7.85255
-7.87519
-7.89378
-7.9158
-7.93066
-7.95012
-7.96596
-7.98863
-8.00656
-8.02541
-8.03918
-8.05937
-8.07432
-8.09584
-8.10902
)
;

boundaryField
{
    sides
    {
        type            calculated;
        value           nonuniform List<scalar> 2(-8.10902 -6.14066);
    }
    empty
    {
        type            empty;
    }
}


// ************************************************************************* //
