/*--------------------------------*- C++ -*----------------------------------*\
  =========                 |
  \\      /  F ield         | OpenFOAM: The Open Source CFD Toolbox
   \\    /   O peration     | Website:  https://openfoam.org
    \\  /    A nd           | Version:  9
     \\/     M anipulation  |
\*---------------------------------------------------------------------------*/
FoamFile
{
    format      ascii;
    class       surfaceScalarField;
    location    "0.041";
    object      ddtCorrDdt0(phi);
}
// * * * * * * * * * * * * * * * * * * * * * * * * * * * * * * * * * * * * * //

dimensions      [1 0 -2 0 0 0 0];

internalField   nonuniform List<scalar> 
999
(
-226.947
-241.893
-256.787
-271.635
-286.439
-301.244
-316.089
-330.94
-345.735
-360.476
-375.242
-390.091
-404.986
-419.819
-434.519
-449.128
-463.786
-478.603
-493.574
-508.577
-523.47
-538.173
-552.718
-567.237
-581.885
-596.758
-611.816
-626.886
-641.77
-656.369
-670.707
-684.904
-699.152
-713.642
-728.436
-743.474
-758.688
-774.014
-789.338
-804.48
-819.269
-833.671
-847.72
-861.484
-875.16
-888.927
-902.869
-917.094
-931.697
-946.834
-962.637
-978.842
-995.078
-1011.29
-1027.62
-1043.88
-1059.76
-1075.4
-1090.66
-1105.67
-1121.18
-1136.79
-1151.47
-1166.27
-1181.91
-1198.24
-1215.77
-1232.03
-1247.2
-1262.14
-1277.74
-1292.77
-1306.6
-1322.02
-1337.8
-1352.08
-1367.42
-1383.26
-1397.46
-1412.58
-1428.89
-1443.18
-1457.29
-1473.49
-1488.56
-1502.32
-1518.29
-1534.55
-1548.4
-1563.25
-1580.12
-1594.9
-1608.54
-1624.96
-1641.41
-1654.9
-1669.49
-1686.72
-1701.86
-1714.98
-1731
-1748.38
-1762.39
-1775.91
-1793.05
-1809.94
-1823.2
-1837.34
-1855.75
-1871.55
-1884.31
-1899.14
-1917.41
-1933.07
-1945.46
-1961.39
-1979.22
-1995.22
-2007.62
-2023.28
-2042.05
-2057.83
-2069.99
-2085.8
-2104.78
-2120.55
-2133.1
-2148.55
-2167.46
-2183.9
-2196.71
-2211.59
-2230.32
-2247.51
-2260.72
-2274.89
-2293.24
-2311.45
-2325.53
-2339.04
-2356.61
-2375.67
-2391.06
-2404.18
-2420.51
-2439.96
-2457.04
-2470.39
-2485.15
-2504.15
-2523.03
-2537.64
-2551.09
-2568.62
-2588.78
-2605.71
-2618.82
-2634.44
-2653.37
-2674.82
-2688.85
-2702.14
-2717.78
-2741.86
-2759.85
-2773.41
-2787.32
-2804.93
-2828.88
-2844.81
-2860.96
-2876.08
-2891.5
-2916.08
-2933.03
-2949.8
-2964.26
-2979
-3006.34
-3022.76
-3038.82
-3053.01
-3068.51
-3098.18
-3114.08
-3128
-3143.36
-3161.77
-3188.45
-3206.94
-3218.5
-3236.93
-3257.83
-3277.28
-3299.15
-3313.83
-3333.96
-3350.62
-3367.51
-3385.54
-3397.17
-3419.03
-3452.57
-3473.89
-3502
-3524.06
-3544.33
-3565.48
-3587.76
-3606.79
-3628.54
-3649.54
-3668.25
-3690.35
-3712.92
-3734.44
-3755.89
-3776.44
-3796.97
-3819.86
-3843.85
-3866.8
-3888.73
-3910.87
-3934.2
-3958.8
-3983.07
-4005.65
-4027.37
-4050.11
-4074.77
-4100.42
-4125.17
-4148.51
-4171.71
-4196.47
-4222.85
-4249
-4273.62
-4296.99
-4321.06
-4346.92
-4373.78
-4400.01
-4424.84
-4449.39
-4475.08
-4502.33
-4529.72
-4555.81
-4580.66
-4605.52
-4631.85
-4659.53
-4686.84
-4712.73
-4737.66
-4762.97
-4789.97
-4818.05
-4845.42
-4871.05
-4895.34
-4920.05
-4946.55
-4974.23
-5001.27
-5026.28
-5049.8
-5073.82
-5099.62
-5126.57
-5152.72
-5176.71
-5199.03
-5221.69
-5246.12
-5271.4
-5295.82
-5318.33
-5339.41
-5360.75
-5383.49
-5406.97
-5429.44
-5449.86
-5468.93
-5488.33
-5508.96
-5530.37
-5551.03
-5569.52
-5586.21
-5603.02
-5621.29
-5640.73
-5659.78
-5676.74
-5691.29
-5705.06
-5720.36
-5737.71
-5755.22
-5770.77
-5783.88
-5795.87
-5808.76
-5823.5
-5838.96
-5853.11
-5865.19
-5876.14
-5887.43
-5900.05
-5913.63
-5926.58
-5937.73
-5947.46
-5957.36
-5968.71
-5981.43
-5994.11
-6004.86
-6013.27
-6021.13
-6030.75
-6042.64
-6055.26
-6066.66
-6075.82
-6083.37
-6091.41
-6101.6
-6113.4
-6124.87
-6134.74
-6142.99
-6150.59
-6159.25
-6169.91
-6181.38
-6191.63
-6200.08
-6207.78
-6216.19
-6226.39
-6238.06
-6249.12
-6257.86
-6265.01
-6272.45
-6281.4
-6292.3
-6304.41
-6315.45
-6323.86
-6330.68
-6338.16
-6347.6
-6358.92
-6370.79
-6381.14
-6389.17
-6396.46
-6404.98
-6415.15
-6426.32
-6437.37
-6446.84
-6454.43
-6461.96
-6471.5
-6483.01
-6494.81
-6505.39
-6514
-6521.07
-6528.42
-6538.15
-6550.26
-6562.64
-6573.33
-6581.93
-6589.32
-6597.06
-6606.68
-6618.33
-6630.31
-6640.7
-6649.16
-6657.02
-6665.91
-6676.56
-6688.44
-6700.08
-6709.91
-6717.69
-6725
-6733.93
-6745.27
-6757.96
-6770.09
-6780.22
-6788.19
-6795.35
-6803.76
-6814.63
-6827.24
-6839.45
-6849.6
-6857.98
-6866.2
-6875.68
-6886.81
-6898.81
-6910.31
-6920.09
-6928.18
-6936.08
-6945.66
-6957.62
-6970.77
-6983.09
-6993.19
-7001.27
-7008.91
-7018.03
-7029.35
-7041.87
-7053.94
-7064.47
-7073.63
-7082.33
-7091.82
-7103.06
-7115.71
-7127.99
-7138.06
-7146.02
-7153.88
-7163.63
-7175.69
-7188.92
-7201.77
-7212.94
-7222.06
-7230.11
-7238.92
-7249.81
-7262.45
-7275.2
-7286.51
-7296.07
-7304.81
-7314.26
-7325.53
-7338.39
-7351.41
-7362.96
-7372.42
-7380.58
-7389.2
-7399.7
-7412.29
-7425.76
-7438.38
-7449.16
-7458.43
-7467.51
-7477.66
-7489.47
-7502.35
-7514.9
-7525.84
-7534.98
-7543.65
-7553.59
-7565.65
-7579.21
-7592.7
-7604.69
-7614.69
-7623.44
-7632.52
-7643.42
-7656.28
-7669.7
-7682.02
-7692.5
-7701.87
-7711.53
-7722.64
-7735.35
-7748.85
-7761.88
-7773.28
-7782.97
-7791.92
-7801.66
-7813.22
-7826.38
-7840.03
-7852.65
-7863.5
-7873.04
-7882.69
-7893.88
-7907
-7921.08
-7934.28
-7945.35
-7954.58
-7963.59
-7974.15
-7986.88
-8000.88
-8014.57
-8026.74
-8037.3
-8047.14
-8057.45
-8069.14
-8082.29
-8096.07
-8109.15
-8120.63
-8130.57
-8140.18
-8151.02
-8163.77
-8177.86
-8191.78
-8204.26
-8215.06
-8225.08
-8235.62
-8247.57
-8261.01
-8274.95
-8288.18
-8299.96
-8310.21
-8320.2
-8331.06
-8343.71
-8357.74
-8371.9
-8384.99
-8396.29
-8406.57
-8416.96
-8428.82
-8442.41
-8456.83
-8470.78
-8483.04
-8493.66
-8503.75
-8514.58
-8527.31
-8541.33
-8555.79
-8569.17
-8580.94
-8591.81
-8602.27
-8614.25
-8627.31
-8641.72
-8656.02
-8669.06
-8680.92
-8691.19
-8702.34
-8714.21
-8728.38
-8743.01
-8757.09
-8769.76
-8780.23
-8791.43
-8802.53
-8816.76
-8831
-8845.89
-8859.47
-8870.84
-8882.95
-8893.13
-8906.95
-8919.69
-8934.9
-8949.29
-8961.91
-8975.29
-8984.66
-8997.87
-9008.43
-9023.62
-9037.77
-9052.36
-9066.59
-9076.82
-9089.79
-9098.69
-9114.08
-9126.65
-9143.69
-9158.09
-9170.51
-9183.66
-9191.74
-9206.7
-9217.66
-9235.5
-9250.1
-9264.53
-9277.96
-9286.77
-9300.38
-9310.5
-9327.78
-9342.27
-9358.41
-9372.18
-9382.62
-9395
-9405.24
-9421.09
-9435.67
-9452.97
-9466.65
-9479.73
-9490.23
-9501.69
-9515.3
-9529.57
-9547.72
-9560.96
-9577.07
-9586.63
-9599.46
-9611.16
-9625.34
-9642.19
-9656.68
-9673.33
-9683.99
-9698.04
-9708.21
-9723.23
-9737.97
-9754.27
-9769.86
-9783.5
-9796.89
-9806.6
-9823.46
-9833.92
-9853.33
-9869.1
-9881.35
-9899.45
-9906.5
-9922.7
-9935.31
-9950.94
-9968.98
-9982.86
-9999.63
-10009.1
-10024.6
-10035.6
-10052
-10070.3
-10084.1
-10103.6
-10113
-10127.9
-10139.6
-10153.9
-10172.4
-10187.8
-10207.8
-10219.1
-10235.6
-10245.5
-10260.1
-10277.9
-10291.9
-10315.2
-10326.9
-10344
-10357.5
-10367.1
-10387.4
-10400.7
-10421.1
-10440.4
-10454.6
-10471.1
-10483.7
-10498.2
-10515.7
-10532.8
-10552.1
-10571.9
-10584.9
-10602.7
-10618.1
-10630.9
-10652.3
-10671.4
-10688.2
-10708.6
-10727.3
-10738.8
-10758.3
-10777.5
-10791.7
-10815.6
-10835.5
-10851.8
-10871.7
-10890.2
-10905.7
-10925.4
-10948.6
-10965.7
-10987.6
-11011.3
-11024.8
-11045.7
-11069.6
-11082.3
-11107.2
-11134.6
-11146.5
-11172.9
-11198.4
-11208.2
-11234.8
-11261.1
-11274.4
-11301.7
-11329.9
-11344.6
-11367.8
-11395.9
-11411.5
-11433.1
-11463.9
-11483.1
-11503.6
-11534.3
-11554.9
-11572.4
-11601.4
-11625.7
-11643.3
-11672
-11700.2
-11718
-11742.7
-11771.7
-11790.2
-11811.5
-11841.3
-11864.8
-11883.2
-11912.6
-11938.2
-11954.6
-11979.9
-12008.2
-12024.1
-12049.2
-12077.6
-12096.2
-12118.3
-12145.4
-12163.4
-12184.2
-12208.4
-12228.1
-12249.2
-12271.4
-12292.5
-12311.8
-12331.9
-12351.2
-12370.8
-12387.1
-12408.4
-12426.8
-12442.9
-12462
-12482.5
-12492.8
-12512
-12530.9
-12542
-12557.8
-12577.2
-12588.8
-12601.1
-12620.4
-12632.2
-12642.3
-12658.5
-12671.6
-12681.9
-12694.5
-12708.4
-12719.8
-12730.8
-12742.3
-12753.7
-12765.7
-12774.3
-12784.4
-12798.6
-12806.9
-12814.6
-12828.9
-12840
-12845.7
-12857
-12871.4
-12878.4
-12884.7
-12900.5
-12910.8
-12917.7
-12928.4
-12941.2
-12952.4
-12957
-12971.5
-12985.8
-12991
-13002.6
-13018.1
-13027.5
-13035.6
-13050.1
-13062.7
-13072.7
-13084.2
-13098.2
-13111
-13122.5
-13134.3
-13147.7
-13162.6
-13173.6
-13186.7
-13201.5
-13217
-13228.9
-13242.3
-13257.9
-13273.5
-13287.4
-13300.4
-13316.4
-13332.3
-13347.5
-13362.6
-13377.8
-13393.6
-13410.1
-13426.6
-13442.5
-13458.5
-13475
-13491.8
-13508.7
-13525.7
-13542.7
-13559.9
-13577.5
-13595.3
-13613.2
-13631.1
-13649.2
-13667.6
-13686.4
-13705.5
-13724.9
-13744.6
-13764.7
-13785.3
-13806.3
-13827.9
-13850
-13872.8
-13896.3
-13920.6
-13945.6
-13971.7
-13998.5
-14026.5
-14055.4
-14085.5
-14116.5
-14148.8
-14182.1
-14216.6
-14252.1
-14288.8
-14326.4
-14365.1
-14404.5
-14444.7
-14485.5
-14526.8
-14568.3
-14609.9
-14651.4
-14692.6
-14733.3
-14773.2
-14812.3
-14850.2
-14887
-14922.3
-14956.2
-14988.2
-15019.8
-15047
-15073.9
-15100.4
-15123.8
-15144.1
-15163.7
-15182.9
-15200.3
-15215.4
-15228.9
-15242.9
-15257.1
-15268.5
-15278.8
-15290.3
-15301.7
-15312.4
-15322.5
-15331.9
-15342.4
-15354.5
-15365.3
-15374.5
-15385.4
-15398.2
-15410
-15420.8
-15432.5
-15445
-15457.5
-15471
-15484.5
-15496.5
-15509.7
-15525.1
-15539.3
-15552.5
-15567.1
-15581.8
-15596.2
-15611.9
-15627.5
-15642.3
-15657.2
-15672.8
-15689.3
-15705.9
-15721.7
-15736.1
-15753.2
-15770.4
-15787.2
-15804
-15820.5
-15836.5
-15853.6
-15871.8
-15889.7
-15907.2
-15923
-15940.2
-15958.5
-15977.9
-15996.1
-16012.3
-16030.3
-16048.4
-16067.2
-16086.3
)
;

boundaryField
{
    sides
    {
        type            calculated;
        value           nonuniform List<scalar> 2(-16104.9 211.968);
    }
    empty
    {
        type            empty;
        value           nonuniform List<scalar> 0();
    }
}


// ************************************************************************* //
