/*--------------------------------*- C++ -*----------------------------------*\
  =========                 |
  \\      /  F ield         | OpenFOAM: The Open Source CFD Toolbox
   \\    /   O peration     | Website:  https://openfoam.org
    \\  /    A nd           | Version:  9
     \\/     M anipulation  |
\*---------------------------------------------------------------------------*/
FoamFile
{
    format      ascii;
    class       volScalarField;
    location    "0.041";
    object      p_0;
}
// * * * * * * * * * * * * * * * * * * * * * * * * * * * * * * * * * * * * * //

dimensions      [1 -1 -2 0 0 0 0];

internalField   nonuniform List<scalar> 
1000
(
12008.3
12006.8
12004.1
12001.7
11999.7
11997.8
11995.8
11993.8
11991.8
11989.8
11987.8
11985.8
11983.8
11981.8
11979.8
11977.8
11975.8
11973.9
11971.9
11969.9
11967.9
11966
11964
11962.1
11960.1
11958.1
11956.2
11954.3
11952.3
11950.4
11948.4
11946.5
11944.6
11942.7
11940.7
11938.8
11936.9
11935
11933.1
11931.2
11929.3
11927.4
11925.5
11923.6
11921.7
11919.8
11918
11916.1
11914.2
11912.3
11910.5
11908.6
11906.8
11904.9
11903.1
11901.2
11899.4
11897.6
11895.7
11893.9
11892.1
11890.3
11888.4
11886.6
11884.8
11883
11881.2
11879.4
11877.6
11875.9
11874.1
11872.3
11870.5
11868.8
11867
11865.2
11863.5
11861.7
11860
11858.3
11856.5
11854.8
11853.1
11851.4
11849.6
11847.9
11846.2
11844.5
11842.8
11841.2
11839.5
11837.8
11836.1
11834.5
11832.8
11831.2
11829.5
11827.9
11826.2
11824.6
11823
11821.4
11819.8
11818.2
11816.6
11815
11813.4
11811.8
11810.3
11808.7
11807.2
11805.6
11804.1
11802.5
11801
11799.5
11798
11796.5
11795
11793.5
11792.1
11790.6
11789.2
11787.7
11786.3
11784.8
11783.4
11782
11780.6
11779.2
11777.9
11776.5
11775.1
11773.8
11772.5
11771.1
11769.8
11768.5
11767.2
11766
11764.7
11763.4
11762.2
11761
11759.8
11758.6
11757.4
11756.2
11755
11753.9
11752.8
11751.6
11750.5
11749.4
11748.4
11747.3
11746.3
11745.3
11744.3
11743.3
11742.3
11741.3
11740.4
11739.5
11738.6
11737.7
11736.9
11736
11735.2
11734.4
11733.6
11732.9
11732.2
11731.4
11730.8
11730.1
11729.5
11728.9
11728.3
11727.7
11727.2
11726.7
11726.2
11725.7
11725.3
11724.9
11724.5
11724.1
11723.8
11723.5
11723.3
11723
11722.8
11722.7
11722.5
11722.4
11722.3
11722.3
11722.3
11722.3
11722.3
11722.4
11722.4
11722.6
11722.9
11723.2
11723.5
11723.9
11724.4
11724.9
11725.5
11726.1
11726.7
11727.4
11728.1
11728.9
11729.7
11730.6
11731.6
11732.6
11733.6
11734.7
11735.9
11737.1
11738.4
11739.8
11741.2
11742.7
11744.2
11745.8
11747.5
11749.2
11751.1
11753
11754.9
11757
11759.1
11761.3
11763.5
11765.9
11768.3
11770.8
11773.4
11776
11778.8
11781.6
11784.5
11787.6
11790.6
11793.8
11797.1
11800.5
11803.9
11807.5
11811.1
11814.8
11818.7
11822.6
11826.6
11830.7
11834.9
11839.2
11843.6
11848.1
11852.7
11857.3
11862.1
11867
11871.9
11877
11882.2
11887.4
11892.8
11898.2
11903.7
11909.3
11915
11920.8
11926.7
11932.7
11938.7
11944.9
11951.1
11957.4
11963.8
11970.2
11976.7
11983.3
11990
11996.8
12003.6
12010.5
12017.4
12024.4
12031.5
12038.6
12045.8
12053.1
12060.4
12067.7
12075.1
12082.5
12090
12097.6
12105.1
12112.8
12120.4
12128.1
12135.8
12143.6
12151.4
12159.2
12167.1
12174.9
12182.8
12190.8
12198.7
12206.7
12214.7
12222.7
12230.7
12238.8
12246.9
12255
12263.1
12271.2
12279.3
12287.5
12295.6
12303.8
12312
12320.2
12328.4
12336.6
12344.9
12353.1
12361.4
12369.6
12377.9
12386.2
12394.5
12402.8
12411.1
12419.4
12427.7
12436.1
12444.4
12452.8
12461.1
12469.5
12477.8
12486.2
12494.6
12503
12511.4
12519.8
12528.2
12536.7
12545.1
12553.5
12562
12570.4
12578.9
12587.3
12595.8
12604.3
12612.8
12621.3
12629.8
12638.3
12646.8
12655.3
12663.8
12672.4
12680.9
12689.4
12698
12706.6
12715.1
12723.7
12732.3
12740.9
12749.5
12758.1
12766.7
12775.3
12783.9
12792.5
12801.2
12809.8
12818.5
12827.1
12835.8
12844.4
12853.1
12861.8
12870.5
12879.2
12887.9
12896.6
12905.3
12914.1
12922.8
12931.5
12940.3
12949
12957.8
12966.6
12975.3
12984.1
12992.9
13001.7
13010.5
13019.3
13028.1
13037
13045.8
13054.6
13063.5
13072.3
13081.2
13090
13098.9
13107.8
13116.7
13125.6
13134.5
13143.4
13152.3
13161.2
13170.2
13179.1
13188.1
13197
13206
13215
13223.9
13232.9
13241.9
13250.9
13259.9
13268.9
13277.9
13287
13296
13305.1
13314.1
13323.2
13332.2
13341.3
13350.4
13359.5
13368.6
13377.7
13386.8
13395.9
13405
13414.2
13423.3
13432.5
13441.6
13450.8
13460
13469.1
13478.3
13487.5
13496.7
13505.9
13515.2
13524.4
13533.6
13542.9
13552.1
13561.4
13570.6
13579.9
13589.2
13598.5
13607.8
13617.1
13626.4
13635.7
13645.1
13654.4
13663.7
13673.1
13682.4
13691.8
13701.2
13710.6
13720
13729.4
13738.8
13748.2
13757.6
13767
13776.5
13785.9
13795.4
13804.9
13814.3
13823.8
13833.3
13842.8
13852.3
13861.8
13871.3
13880.8
13890.4
13899.9
13909.5
13919
13928.6
13938.2
13947.8
13957.4
13967
13976.6
13986.2
13995.8
14005.4
14015.1
14024.7
14034.4
14044.1
14053.7
14063.4
14073.1
14082.8
14092.5
14102.2
14111.9
14121.7
14131.4
14141.2
14150.9
14160.7
14170.4
14180.2
14190
14199.8
14209.6
14219.4
14229.2
14239.1
14248.9
14258.8
14268.6
14278.5
14288.3
14298.2
14308.1
14318
14327.9
14337.8
14347.7
14357.7
14367.6
14377.6
14387.5
14397.5
14407.4
14417.4
14427.4
14437.4
14447.4
14457.4
14467.4
14477.5
14487.5
14497.6
14507.6
14517.7
14527.7
14537.8
14547.9
14558
14568.1
14578.2
14588.4
14598.5
14608.6
14618.8
14628.9
14639.1
14649.3
14659.5
14669.6
14679.8
14690
14700.3
14710.5
14720.7
14731
14741.2
14751.5
14761.7
14772
14782.3
14792.6
14802.9
14813.2
14823.5
14833.9
14844.2
14854.5
14864.9
14875.3
14885.6
14896
14906.4
14916.8
14927.2
14937.6
14948
14958.5
14968.9
14979.4
14989.8
15000.3
15010.8
15021.2
15031.7
15042.2
15052.8
15063.3
15073.8
15084.3
15094.9
15105.4
15116
15126.6
15137.2
15147.7
15158.3
15169
15179.6
15190.2
15200.8
15211.5
15222.1
15232.8
15243.5
15254.1
15264.8
15275.5
15286.2
15297
15307.7
15318.4
15329.2
15339.9
15350.7
15361.5
15372.2
15383
15393.8
15404.7
15415.5
15426.3
15437.2
15448
15458.9
15469.8
15480.6
15491.5
15502.5
15513.4
15524.3
15535.2
15546.2
15557.2
15568.1
15579.1
15590.1
15601.1
15612.2
15623.2
15634.3
15645.3
15656.4
15667.5
15678.6
15689.7
15700.9
15712
15723.2
15734.4
15745.6
15756.8
15768.1
15779.3
15790.6
15801.9
15813.2
15824.6
15835.9
15847.3
15858.7
15870.1
15881.6
15893
15904.5
15916.1
15927.6
15939.2
15950.8
15962.4
15974.1
15985.8
15997.5
16009.3
16021.1
16032.9
16044.8
16056.7
16068.7
16080.7
16092.7
16104.8
16116.9
16129.1
16141.3
16153.6
16165.9
16178.3
16190.7
16203.2
16215.7
16228.4
16241
16253.7
16266.5
16279.4
16292.3
16305.3
16318.4
16331.5
16344.7
16358
16371.4
16384.9
16398.4
16412
16425.7
16439.5
16453.4
16467.4
16481.4
16495.6
16509.9
16524.2
16538.7
16553.2
16567.9
16582.7
16597.5
16612.5
16627.6
16642.8
16658.1
16673.5
16689
16704.6
16720.3
16736.2
16752.1
16768.2
16784.3
16800.6
16817
16833.5
16850.1
16866.8
16883.6
16900.5
16917.5
16934.6
16951.8
16969.2
16986.5
17004
17021.6
17039.2
17057
17074.8
17092.7
17110.6
17128.6
17146.7
17164.8
17183
17201.2
17219.5
17237.8
17256.2
17274.5
17293
17311.4
17329.8
17348.3
17366.7
17385.2
17403.6
17422
17440.5
17458.9
17477.2
17495.6
17513.9
17532.2
17550.4
17568.6
17586.8
17604.9
17622.9
17640.9
17658.8
17676.7
17694.4
17712.1
17729.8
17747.3
17764.8
17782.2
17799.6
17816.8
17834
17851
17868
17884.9
17901.7
17918.5
17935.1
17951.7
17968.1
17984.5
18000.8
18017
18033.1
18049.2
18065.1
18081
18096.8
18112.5
18128.2
18143.7
18159.2
18174.6
18190
18205.2
18220.4
18235.6
18250.7
18265.7
18280.6
18295.5
18310.3
18325.1
18339.8
18354.5
18369.1
18383.7
18398.2
18412.7
18427.2
18441.6
18455.9
18470.3
18484.5
18498.8
18513
18527.2
18541.4
18555.5
18569.6
18583.7
18597.8
18611.8
18625.8
18639.8
18653.8
18667.8
18681.8
18695.7
18709.6
18723.6
18737.5
18751.5
18765.4
18779.3
18793.3
18807.3
18821.3
18835.3
18849.4
18863.5
18877.7
18891.9
18906.2
18920.6
18935
18949.6
18964.4
18979.2
18994.2
19009.4
19024.8
19040.3
19056.1
19072.2
19088.5
19105
19121.9
19139.1
19156.5
19174.3
19192.5
19211
19229.8
19249
19268.5
19288.4
19308.6
19329.1
19350
19371.1
19392.5
19414.1
19436
19458
19480.2
19502.6
19525
19547.6
19570.2
19592.8
19615.4
19638
19660.5
19682.9
19705.3
19727.6
19749.7
19771.8
19793.6
19815.4
19837
19858.4
19879.7
19900.8
19921.8
19942.6
19963.3
19983.8
20004.2
20024.5
20044.6
20064.5
20084.4
20104.1
20123.6
20143.1
20162.4
20181.7
20200.8
20219.8
20238.7
20257.5
20276.2
20294.9
20313.4
20331.8
20350.2
20368.4
20386.6
20404.7
20422.7
20440.6
20458.4
20476.2
20493.9
20511.5
20529.1
20546.6
20564
20581.3
20598.6
20615.8
20632.9
20650
20667.1
20684
20700.9
20717.8
20734.5
20751.3
20767.9
20784.5
20800.6
)
;

boundaryField
{
    sides
    {
        type            zeroGradient;
    }
    empty
    {
        type            empty;
    }
}


// ************************************************************************* //
