/*--------------------------------*- C++ -*----------------------------------*\
  =========                 |
  \\      /  F ield         | OpenFOAM: The Open Source CFD Toolbox
   \\    /   O peration     | Website:  https://openfoam.org
    \\  /    A nd           | Version:  9
     \\/     M anipulation  |
\*---------------------------------------------------------------------------*/
FoamFile
{
    format      ascii;
    class       volScalarField;
    location    "0.023";
    object      p;
}
// * * * * * * * * * * * * * * * * * * * * * * * * * * * * * * * * * * * * * //

dimensions      [1 -1 -2 0 0 0 0];

internalField   nonuniform List<scalar> 
100
(
60841.9
59479.4
58666.7
57804.6
56968.5
56139.4
55321.3
54513.1
53714.9
52926.5
52147.9
51379
50619.6
49869.7
49129.3
48398.3
47676.6
46964.1
46260.8
45566.7
44881.6
44205.4
43537.8
42878.6
42228
41586.3
40954
40330.7
39715.8
39108.9
38510
37919.6
37338.1
36765.5
36201.1
35644.6
35095.7
34554.6
34021.6
33497.6
32983.6
32481.3
31994.1
31530
31107.7
30758.9
30512.8
30381.4
30333.4
30333.2
30337.3
30307.3
30273.7
30260
30250.5
30251.8
30261.2
30267.5
30270.2
30269.2
30266.6
30264.6
30265.7
30275.7
30289.3
30294.6
30295.2
30293.8
30291.4
30290.2
30291.5
30297.5
30307.8
30312.7
30314.6
30315.1
30315.2
30314.5
30313.4
30315.3
30324.8
30334.2
30340.3
30345.7
30347.8
30347
30337.5
30313.3
30300
30321.4
30558.4
30998.8
31209.7
31257.7
31256.6
31258.7
31404.1
31776.8
31988.8
32033.5
)
;

boundaryField
{
    sides
    {
        type            zeroGradient;
    }
    empty
    {
        type            empty;
    }
}


// ************************************************************************* //
