/*--------------------------------*- C++ -*----------------------------------*\
  =========                 |
  \\      /  F ield         | OpenFOAM: The Open Source CFD Toolbox
   \\    /   O peration     | Website:  https://openfoam.org
    \\  /    A nd           | Version:  9
     \\/     M anipulation  |
\*---------------------------------------------------------------------------*/
FoamFile
{
    format      ascii;
    class       volScalarField;
    location    "0.023";
    object      T;
}
// * * * * * * * * * * * * * * * * * * * * * * * * * * * * * * * * * * * * * //

dimensions      [0 0 0 1 0 0 0];

internalField   nonuniform List<scalar> 
100
(
302.789
300.822
299.612
298.314
297.037
295.751
294.462
293.168
291.872
290.577
289.288
288.01
286.747
285.5
284.268
283.049
281.839
280.633
279.43
278.227
277.025
275.825
274.625
273.428
272.234
271.043
269.858
268.676
267.498
266.322
265.148
263.978
262.814
261.654
260.498
259.346
258.197
257.051
255.91
254.776
253.651
252.539
251.45
250.4
249.436
248.634
248.057
247.754
247.643
247.64
247.646
247.572
247.487
247.466
247.441
247.441
247.46
247.467
247.471
247.469
247.464
247.458
247.46
247.48
247.507
247.514
247.513
247.508
247.502
247.499
247.5
247.51
247.53
247.535
247.536
247.535
247.534
247.532
247.524
247.526
247.543
247.559
247.566
247.578
247.578
247.574
247.548
247.485
247.439
247.485
248.031
249.018
249.567
249.652
249.636
249.614
249.931
250.748
251.262
251.383
)
;

boundaryField
{
    sides
    {
        type            zeroGradient;
    }
    empty
    {
        type            empty;
    }
}


// ************************************************************************* //
