/*--------------------------------*- C++ -*----------------------------------*\
  =========                 |
  \\      /  F ield         | OpenFOAM: The Open Source CFD Toolbox
   \\    /   O peration     | Website:  https://openfoam.org
    \\  /    A nd           | Version:  9
     \\/     M anipulation  |
\*---------------------------------------------------------------------------*/
FoamFile
{
    format      ascii;
    class       volScalarField;
    location    "0.026";
    object      rho;
}
// * * * * * * * * * * * * * * * * * * * * * * * * * * * * * * * * * * * * * //

dimensions      [1 -3 0 0 0 0 0];

internalField   nonuniform List<scalar> 
1000
(
0.380761
0.380658
0.38051
0.380376
0.380253
0.380126
0.379988
0.379842
0.3797
0.379571
0.379461
0.37937
0.379295
0.379227
0.379163
0.3791
0.379041
0.378991
0.378947
0.378902
0.378857
0.378812
0.378766
0.37872
0.378674
0.378628
0.378581
0.378535
0.378489
0.378442
0.378396
0.378349
0.378303
0.378256
0.378209
0.378163
0.378116
0.378069
0.378022
0.377975
0.377929
0.377882
0.377835
0.377788
0.37774
0.377693
0.377646
0.377599
0.377552
0.377504
0.377457
0.377409
0.377362
0.377315
0.377267
0.377219
0.377172
0.377124
0.377076
0.377029
0.376981
0.376933
0.376885
0.376837
0.376789
0.376741
0.376693
0.376644
0.376596
0.376548
0.3765
0.376451
0.376403
0.376354
0.376306
0.376257
0.376209
0.37616
0.376111
0.376063
0.376014
0.375965
0.375916
0.375867
0.375818
0.375769
0.37572
0.375671
0.375622
0.375572
0.375523
0.375474
0.375424
0.375375
0.375325
0.375276
0.375226
0.375177
0.375127
0.375078
0.375027
0.374979
0.374926
0.37488
0.374825
0.374781
0.374724
0.374681
0.374624
0.37458
0.374523
0.37448
0.374422
0.374379
0.374321
0.374278
0.37422
0.374176
0.37412
0.374074
0.37402
0.37397
0.37392
0.373866
0.373819
0.373765
0.373715
0.373664
0.373611
0.373562
0.373509
0.373458
0.373408
0.373355
0.373304
0.373252
0.3732
0.373149
0.373097
0.373045
0.372994
0.372941
0.372889
0.372838
0.372785
0.372733
0.372681
0.372629
0.372576
0.372524
0.372472
0.372419
0.372367
0.372315
0.372262
0.372209
0.372157
0.372104
0.372051
0.371998
0.371945
0.371892
0.371839
0.371786
0.371733
0.37168
0.371627
0.371574
0.37152
0.371467
0.371414
0.37136
0.371307
0.371253
0.371199
0.371146
0.371092
0.371038
0.370984
0.370931
0.370877
0.370823
0.370769
0.370715
0.37066
0.370606
0.370552
0.370498
0.370444
0.370389
0.370335
0.37028
0.370226
0.370171
0.370117
0.370062
0.370007
0.369953
0.369898
0.369843
0.369788
0.369733
0.369678
0.369623
0.369568
0.369513
0.369458
0.369402
0.369347
0.369292
0.369236
0.369181
0.369126
0.36907
0.369014
0.368959
0.368903
0.368848
0.368792
0.368736
0.36868
0.368624
0.368568
0.368513
0.368456
0.3684
0.368344
0.368288
0.368232
0.368176
0.36812
0.368063
0.368007
0.367951
0.367894
0.367838
0.367781
0.367725
0.367668
0.367612
0.367555
0.367498
0.367442
0.367385
0.367328
0.367271
0.367215
0.367158
0.367101
0.367044
0.366987
0.36693
0.366873
0.366816
0.366759
0.366702
0.366644
0.366587
0.36653
0.366473
0.366416
0.366358
0.366301
0.366244
0.366186
0.366129
0.366072
0.366014
0.365957
0.365899
0.365842
0.365785
0.365727
0.36567
0.365612
0.365555
0.365497
0.36544
0.365382
0.365324
0.365267
0.365209
0.365152
0.365094
0.365037
0.364979
0.364922
0.364864
0.364807
0.364749
0.364692
0.364634
0.364577
0.364519
0.364462
0.364404
0.364347
0.36429
0.364232
0.364175
0.364118
0.36406
0.364003
0.363946
0.363889
0.363832
0.363775
0.363718
0.363661
0.363604
0.363547
0.36349
0.363433
0.363377
0.36332
0.363264
0.363207
0.363151
0.363094
0.363038
0.362982
0.362926
0.36287
0.362814
0.362758
0.362703
0.362647
0.362592
0.362536
0.362481
0.362426
0.362371
0.362316
0.362262
0.362207
0.362153
0.362098
0.362044
0.361991
0.361937
0.361883
0.36183
0.361777
0.361724
0.361671
0.361619
0.361566
0.361514
0.361463
0.361411
0.36136
0.361309
0.361258
0.361208
0.361157
0.361108
0.361058
0.361009
0.36096
0.360911
0.360863
0.360815
0.360768
0.360721
0.360674
0.360628
0.360582
0.360537
0.360492
0.360448
0.360404
0.360361
0.360318
0.360276
0.360234
0.360193
0.360152
0.360112
0.360073
0.360034
0.359996
0.359959
0.359923
0.359887
0.359852
0.359818
0.359784
0.359752
0.35972
0.35969
0.35966
0.359631
0.359603
0.359576
0.359551
0.359526
0.359503
0.35948
0.359459
0.359439
0.359421
0.359403
0.359388
0.359373
0.35936
0.359349
0.359339
0.359331
0.359325
0.35932
0.359317
0.359317
0.359317
0.359318
0.35932
0.359325
0.359333
0.359344
0.359356
0.359371
0.359389
0.359408
0.359431
0.359455
0.359483
0.359513
0.359545
0.359581
0.359619
0.359661
0.359705
0.359753
0.359803
0.359857
0.359915
0.359975
0.36004
0.360107
0.360179
0.360254
0.360332
0.360415
0.360501
0.360592
0.360686
0.360785
0.360887
0.360994
0.361105
0.36122
0.361339
0.361463
0.361591
0.361724
0.361861
0.362002
0.362148
0.362298
0.362453
0.362612
0.362775
0.362943
0.363115
0.363291
0.363472
0.363657
0.363846
0.364039
0.364236
0.364437
0.364642
0.36485
0.365063
0.365279
0.365498
0.365721
0.365947
0.366176
0.366408
0.366643
0.366881
0.367122
0.367365
0.367611
0.367859
0.36811
0.368362
0.368617
0.368873
0.369132
0.369392
0.369654
0.369917
0.370181
0.370447
0.370715
0.370983
0.371252
0.371523
0.371794
0.372066
0.372339
0.372613
0.372888
0.373163
0.373439
0.373715
0.373992
0.374269
0.374547
0.374825
0.375104
0.375383
0.375662
0.375942
0.376222
0.376502
0.376782
0.377063
0.377344
0.377625
0.377906
0.378188
0.378469
0.378751
0.379033
0.379315
0.379598
0.37988
0.380163
0.380446
0.380729
0.381012
0.381295
0.381578
0.381862
0.382145
0.382429
0.382713
0.382997
0.383281
0.383565
0.383849
0.384134
0.384418
0.384703
0.384987
0.385272
0.385557
0.385842
0.386127
0.386412
0.386697
0.386982
0.387267
0.387552
0.387838
0.388123
0.388409
0.388694
0.38898
0.389265
0.389551
0.389836
0.390122
0.390408
0.390693
0.390979
0.391265
0.39155
0.391836
0.392122
0.392407
0.392693
0.392979
0.393264
0.39355
0.393835
0.39412
0.394405
0.394691
0.394976
0.395261
0.395546
0.395831
0.396115
0.3964
0.396684
0.396969
0.397253
0.397537
0.39782
0.398105
0.398388
0.398671
0.398954
0.399237
0.399519
0.399802
0.400084
0.400366
0.400647
0.400928
0.401209
0.40149
0.40177
0.40205
0.402329
0.402608
0.402887
0.403165
0.403443
0.40372
0.403997
0.404274
0.40455
0.404825
0.4051
0.405374
0.405648
0.405921
0.406193
0.406465
0.406736
0.407007
0.407276
0.407545
0.407813
0.408081
0.408347
0.408613
0.408878
0.409142
0.409404
0.409667
0.409927
0.410187
0.410446
0.410704
0.410961
0.411216
0.411471
0.411724
0.411976
0.412226
0.412475
0.412723
0.41297
0.413215
0.413458
0.4137
0.413941
0.41418
0.414417
0.414652
0.414886
0.415118
0.415348
0.415577
0.415803
0.416028
0.41625
0.416471
0.416689
0.416906
0.417119
0.417332
0.417541
0.417749
0.417954
0.418157
0.418357
0.418556
0.41875
0.418944
0.419134
0.419322
0.419506
0.41969
0.419869
0.420046
0.42022
0.420392
0.42056
0.420726
0.420888
0.421049
0.421205
0.42136
0.42151
0.421658
0.421802
0.421945
0.422083
0.42222
0.422352
0.422482
0.422608
0.422732
0.422851
0.42297
0.423083
0.423195
0.423302
0.423408
0.42351
0.42361
0.423705
0.423799
0.423888
0.423977
0.42406
0.424143
0.424221
0.424298
0.424371
0.424443
0.42451
0.424576
0.424639
0.4247
0.424758
0.424814
0.424867
0.424919
0.424967
0.425015
0.425059
0.425103
0.425143
0.425182
0.425219
0.425255
0.425287
0.42532
0.425349
0.425379
0.425405
0.425431
0.425455
0.425478
0.425499
0.42552
0.425539
0.425558
0.425574
0.42559
0.425605
0.425619
0.425632
0.425645
0.425655
0.425667
0.425676
0.425686
0.425694
0.425703
0.425709
0.425717
0.425723
0.42573
0.425734
0.42574
0.425744
0.425749
0.425752
0.425757
0.425759
0.425763
0.425765
0.425768
0.42577
0.425773
0.425774
0.425776
0.425777
0.425779
0.42578
0.425781
0.425782
0.425783
0.425784
0.425785
0.425785
0.425786
0.425786
0.425787
0.425787
0.425787
0.425787
0.425788
0.425787
0.425788
0.425788
0.425788
0.425787
0.425787
0.425787
0.425787
0.425787
0.425787
0.425786
0.425786
0.425786
0.425786
0.425785
0.425785
0.425785
0.425785
0.425784
0.425784
0.425784
0.425784
0.425783
0.425783
0.425782
0.425782
0.425782
0.425782
0.425781
0.425781
0.425781
0.425781
0.42578
0.42578
0.425779
0.425779
0.425779
0.425779
0.425778
0.425778
0.425777
0.425777
0.425777
0.425777
0.425776
0.425776
0.425775
0.425775
0.425775
0.425775
0.425774
0.425774
0.425773
0.425773
0.425773
0.425773
0.425772
0.425772
0.425771
0.425772
0.425771
0.425771
0.42577
0.42577
0.42577
0.42577
0.425769
0.425769
0.425769
0.425769
0.425769
0.42577
0.42577
0.425771
0.425772
0.425774
0.425774
0.425777
0.425778
0.425783
0.425784
0.42579
0.425792
0.4258
0.425803
0.425813
0.425817
0.425829
0.425835
0.42585
0.425857
0.425876
0.425886
0.425908
0.42592
0.425947
0.425961
0.425994
0.42601
0.426049
0.426068
0.426112
0.426134
0.426185
0.42621
0.426267
0.426295
0.426359
0.426389
0.426459
0.426491
0.426567
0.426602
0.426682
0.426719
0.426803
0.426841
0.426927
0.426966
0.427054
0.427093
0.427181
0.427219
0.427307
0.427344
0.427429
0.427465
0.427545
0.42758
0.427655
0.427688
0.427758
0.427788
0.427851
0.427878
0.427935
0.42796
0.42801
0.428032
0.428077
0.428095
0.428133
0.428149
0.428182
0.428196
0.428223
0.428234
0.428258
0.428267
0.428287
0.428295
0.428312
0.428318
0.428333
0.428338
0.42835
0.428355
0.428366
0.42837
0.42838
0.428383
0.428393
0.428396
0.428405
0.428408
0.428416
0.428419
0.428427
0.428429
0.428437
0.428439
0.428447
0.428449
0.428456
0.428457
0.428463
0.428465
0.42847
0.428471
0.428476
0.428477
0.428481
0.428481
0.428484
0.428484
0.428487
0.428486
0.428488
0.428487
0.428488
0.428487
0.428488
0.428487
0.428487
0.428486
0.428486
0.428484
0.428484
0.428482
0.428482
0.428481
0.428481
0.428479
0.428479
0.428477
0.428477
0.428475
0.428475
0.428473
)
;

boundaryField
{
    sides
    {
        type            calculated;
        value           nonuniform List<scalar> 2(0.428473 0.380761);
    }
    empty
    {
        type            empty;
    }
}


// ************************************************************************* //
