/*--------------------------------*- C++ -*----------------------------------*\
  =========                 |
  \\      /  F ield         | OpenFOAM: The Open Source CFD Toolbox
   \\    /   O peration     | Website:  https://openfoam.org
    \\  /    A nd           | Version:  9
     \\/     M anipulation  |
\*---------------------------------------------------------------------------*/
FoamFile
{
    format      ascii;
    class       volScalarField;
    location    "0.034";
    object      T;
}
// * * * * * * * * * * * * * * * * * * * * * * * * * * * * * * * * * * * * * //

dimensions      [0 0 0 1 0 0 0];

internalField   nonuniform List<scalar> 
100
(
217.454
217.295
217.19
217.062
216.995
216.903
216.837
216.783
216.65
216.551
216.411
216.177
216.02
215.889
215.664
215.463
215.368
215.256
215.048
214.86
214.773
214.722
214.61
214.427
214.307
214.277
214.271
214.249
214.148
214.067
214.061
214.076
214.112
214.113
214.089
214.066
214.066
214.085
214.115
214.12
214.119
214.121
214.132
214.166
214.25
214.355
214.559
214.816
215.264
215.67
216.002
216.287
216.832
217.364
217.674
218.148
218.993
219.385
219.59
220.048
220.748
221.07
221.327
221.906
222.674
223.097
223.376
223.627
224.272
225.297
225.585
225.927
226.161
226.627
227.198
227.835
228.659
229.154
229.545
229.707
230.032
230.788
232.498
235.608
241.911
254.022
272.439
269.394
265.958
262.266
260.093
258.715
257.844
257.582
257.411
257.375
257.476
258.015
258.366
259.207
)
;

boundaryField
{
    sides
    {
        type            zeroGradient;
    }
    empty
    {
        type            empty;
    }
}


// ************************************************************************* //
