/*--------------------------------*- C++ -*----------------------------------*\
  =========                 |
  \\      /  F ield         | OpenFOAM: The Open Source CFD Toolbox
   \\    /   O peration     | Website:  https://openfoam.org
    \\  /    A nd           | Version:  9
     \\/     M anipulation  |
\*---------------------------------------------------------------------------*/
FoamFile
{
    format      ascii;
    class       volVectorField;
    location    "0.034";
    object      U;
}
// * * * * * * * * * * * * * * * * * * * * * * * * * * * * * * * * * * * * * //

dimensions      [0 1 -1 0 0 0 0];

internalField   nonuniform List<vector> 
100
(
(39.7517 0 0)
(43.0918 0 0)
(48.0807 0 0)
(50.9991 0 0)
(54.2761 0 0)
(57.6442 0 0)
(60.9109 0 0)
(64.2233 0 0)
(67.5473 0 0)
(70.8258 0 0)
(74.1594 0 0)
(77.4604 0 0)
(80.7063 0 0)
(83.998 0 0)
(87.3175 0 0)
(90.5381 0 0)
(93.7658 0 0)
(97.0472 0 0)
(100.326 0 0)
(103.497 0 0)
(106.659 0 0)
(109.839 0 0)
(113.056 0 0)
(116.173 0 0)
(119.198 0 0)
(122.204 0 0)
(125.211 0 0)
(128.255 0 0)
(131.21 0 0)
(134.05 0 0)
(136.887 0 0)
(139.73 0 0)
(142.606 0 0)
(145.484 0 0)
(148.28 0 0)
(151.064 0 0)
(153.862 0 0)
(156.689 0 0)
(159.55 0 0)
(162.425 0 0)
(165.27 0 0)
(168.091 0 0)
(170.882 0 0)
(173.621 0 0)
(176.373 0 0)
(178.837 0 0)
(181.111 0 0)
(183.289 0 0)
(184.639 0 0)
(186.032 0 0)
(187.511 0 0)
(189.013 0 0)
(190.508 0 0)
(191.913 0 0)
(192.933 0 0)
(194.001 0 0)
(195.452 0 0)
(197.263 0 0)
(198.706 0 0)
(200.124 0 0)
(201.781 0 0)
(203.39 0 0)
(204.626 0 0)
(205.922 0 0)
(207.463 0 0)
(209.054 0 0)
(210.236 0 0)
(211.285 0 0)
(212.512 0 0)
(214.264 0 0)
(216.14 0 0)
(217.717 0 0)
(219.304 0 0)
(220.722 0 0)
(222.146 0 0)
(223.389 0 0)
(224.759 0 0)
(226.301 0 0)
(227.988 0 0)
(229.853 0 0)
(231.376 0 0)
(232.037 0 0)
(229.852 0 0)
(222.989 0 0)
(205.454 0 0)
(164.423 0 0)
(120.334 0 0)
(108.703 0 0)
(127.173 0 0)
(157.402 0 0)
(172.981 0 0)
(177.608 0 0)
(180.93 0 0)
(185.491 0 0)
(189.966 0 0)
(193.08 0 0)
(195.912 0 0)
(199.026 0 0)
(201.704 0 0)
(206.017 0 0)
)
;

boundaryField
{
    sides
    {
        type            zeroGradient;
    }
    empty
    {
        type            empty;
    }
}


// ************************************************************************* //
