/*--------------------------------*- C++ -*----------------------------------*\
  =========                 |
  \\      /  F ield         | OpenFOAM: The Open Source CFD Toolbox
   \\    /   O peration     | Website:  https://openfoam.org
    \\  /    A nd           | Version:  9
     \\/     M anipulation  |
\*---------------------------------------------------------------------------*/
FoamFile
{
    format      ascii;
    class       volScalarField;
    location    "0.047";
    object      p;
}
// * * * * * * * * * * * * * * * * * * * * * * * * * * * * * * * * * * * * * //

dimensions      [1 -1 -2 0 0 0 0];

internalField   nonuniform List<scalar> 
1000
(
43455.5
43403.9
43372.6
43338.8
43305.7
43272.4
43239.2
43206
43172.9
43139.7
43106.6
43073.5
43040.4
43007.3
42974.3
42941.3
42908.3
42875.3
42842.3
42809.4
42776.5
42743.6
42710.8
42677.9
42645.1
42612.3
42579.5
42546.7
42514
42481.3
42448.6
42415.9
42383.3
42350.6
42318
42285.4
42252.9
42220.3
42187.8
42155.4
42122.9
42090.4
42057.9
42025.5
41993.1
41960.7
41928.4
41896
41863.7
41831.4
41799.1
41766.9
41734.7
41702.5
41670.3
41638.1
41606
41573.9
41541.8
41509.7
41477.6
41445.6
41413.6
41381.6
41349.6
41317.6
41285.7
41253.7
41221.9
41190
41158.1
41126.3
41094.5
41062.7
41030.9
40999.2
40967.5
40935.8
40904.1
40872.4
40840.7
40809.1
40777.5
40745.9
40714.4
40682.8
40651.3
40619.8
40588.3
40556.8
40525.4
40494
40462.6
40431.2
40399.8
40368.5
40337.2
40305.9
40274.6
40243.4
40212.1
40180.9
40149.7
40118.5
40087.4
40056.3
40025.1
39994
39963
39931.9
39900.9
39869.9
39838.9
39807.9
39777
39746.1
39715.1
39684.3
39653.4
39622.5
39591.7
39560.9
39530.1
39499.4
39468.6
39437.9
39407.2
39376.5
39345.8
39315.2
39284.6
39254
39223.4
39192.8
39162.3
39131.8
39101.3
39070.8
39040.3
39009.9
38979.5
38949.1
38918.7
38888.4
38858
38827.7
38797.4
38767.1
38736.8
38706.5
38676.3
38646
38615.8
38585.6
38555.4
38525.3
38495.1
38465
38434.9
38404.9
38374.9
38344.9
38314.9
38284.9
38255
38225.1
38195.2
38165.4
38135.5
38105.7
38075.9
38046.1
38016.3
37986.6
37956.9
37927.1
37897.4
37867.8
37838.1
37808.5
37778.8
37749.2
37719.7
37690.1
37660.6
37631
37601.5
37572
37542.5
37513.1
37483.6
37454.2
37424.8
37395.4
37366.1
37336.7
37307.4
37278.2
37248.9
37219.6
37190.4
37161.2
37132
37102.8
37073.7
37044.5
37015.4
36986.3
36957.3
36928.2
36899.2
36870.1
36841.1
36812.2
36783.2
36754.3
36725.3
36696.4
36667.5
36638.7
36609.8
36581
36552.2
36523.4
36494.6
36465.9
36437.1
36408.4
36379.7
36351.1
36322.4
36293.8
36265.1
36236.5
36208
36179.4
36150.9
36122.3
36093.8
36065.3
36036.9
36008.4
35980
35951.6
35923.2
35894.8
35866.4
35838.1
35809.8
35781.5
35753.2
35724.9
35696.7
35668.5
35640.3
35612.1
35583.9
35555.7
35527.6
35499.5
35471.5
35443.4
35415.3
35387.2
35359.2
35331.3
35303.4
35275.4
35247.4
35219.4
35191.5
35163.8
35136
35108.2
35080.3
35052.4
35024.6
34997
34969.4
34941.7
34913.8
34886
34858.3
34830.9
34803.5
34775.8
34748
34720.2
34692.7
34665.5
34638.3
34610.7
34582.9
34555.2
34527.8
34500.7
34473.6
34446.1
34418.5
34391.1
34364
34336.6
34309.1
34281.7
34255
34228.5
34201
34173.2
34145.5
34118.1
34092.1
34065.9
34038.4
34010.6
33982.8
33955.4
33929.2
33903.7
33876.4
33848.7
33821
33793.5
33766.8
33741.7
33715
33687.5
33660
33632.5
33605.4
33580
33554.1
33526.9
33499.5
33472.2
33445.1
33419
33393.7
33366.9
33339.7
33312.5
33285.4
33258.9
33233.8
33207.4
33180.4
33153.4
33126.4
33099.8
33074.5
33048.6
33021.8
32994.9
32968.1
32941.5
32915.9
32890.4
32863.8
32837.1
32810.5
32784
32758.2
32732.9
32706.6
32680.1
32653.6
32627.2
32601.3
32576.1
32550
32523.7
32497.3
32470.9
32444.7
32418.6
32393.1
32369.3
32344.1
32318.2
32292.2
32266.2
32240.4
32214.7
32189.5
32164.6
32139.2
32113.8
32088.5
32063.3
32038.4
32014
31989.6
31965.1
31940.7
31916.5
31892.6
31869.1
31846.1
31823.1
31800.3
31777.7
31755.7
31734.1
31713.2
31692.7
31672.9
31653.8
31635.5
31618.5
31602.9
31588.7
31576.1
31565
31555.3
31547.1
31540.7
31536
31532.8
31530.9
31529.7
31528.8
31528.4
31528.8
31530
31532.5
31536.2
31539.7
31542.9
31546.3
31549.7
31553
31556
31558.6
31560.4
31563.3
31567
31571.4
31575.9
31580.1
31582.8
31584.5
31586.5
31588.1
31589.2
31589.6
31589.1
31585.9
31580.8
31574.1
31567.4
31561.6
31556.7
31551.9
31547.4
31544.7
31542.8
31541.4
31540.3
31539.2
31537.5
31536.5
31536.4
31536.8
31537.3
31537.9
31538.1
31537.9
31538.9
31540.5
31542.4
31544.5
31546.2
31547
31549.2
31551.8
31554.2
31556.3
31557.8
31558.4
31557.6
31557.5
31557.3
31556.2
31553.2
31549.1
31544.6
31539.2
31535.4
31532.8
31530.6
31528.7
31527
31524.5
31522.2
31521.3
31520.9
31520.8
31520.8
31521
31521.1
31521
31519.5
31518.7
31519.4
31520.5
31521.8
31523.2
31524.7
31525.6
31525.8
31527.2
31529
31530.7
31532.1
31532.6
31532.3
31532.5
31532.7
31532.3
31530.6
31526.6
31522.6
31519
31516
31513.3
31510.2
31507.6
31506
31504.7
31503.6
31502.5
31501.1
31499.3
31498.6
31498.3
31497.9
31496.9
31496.1
31496.4
31496.9
31497.7
31498.6
31499.6
31500.6
31501.1
31499.9
31499.1
31500.2
31501.8
31503.5
31505.1
31506.5
31507.7
31508.6
31509.2
31509
31507.4
31501.9
31497.8
31494.5
31491.7
31489.4
31487.7
31486.5
31485.5
31484.6
31483.7
31482.9
31482
31480.2
31475.6
31473.4
31473
31473.1
31473.4
31473.8
31474.4
31475.5
31476.6
31477.5
31478.5
31479.7
31480.9
31482.2
31483.4
31484.3
31483.5
31479
31477.9
31478.6
31479.4
31480.1
31480.4
31480.5
31479.8
31478.1
31475.6
31473
31470.4
31466.2
31458
31454.4
31453.1
31452.3
31451.7
31451.2
31450.7
31450.4
31450.7
31452.4
31454.4
31454.9
31455.2
31455.6
31456
31456.2
31455.1
31451.2
31450.1
31450.5
31451.3
31452.1
31452.6
31451.4
31450.2
31450.9
31451.7
31452.5
31453.1
31453.3
31453.2
31451.9
31447.9
31444.6
31442.5
31440.7
31439.2
31437.8
31436.4
31434
31431.2
31430.3
31429.7
31429.3
31428.9
31428.6
31428.2
31427
31425
31424.4
31424.3
31424.2
31423.1
31421.6
31421.8
31422.4
31423.2
31424
31425
31426
31427
31427.9
31428.6
31428.4
31425.5
31423.7
31423.6
31423.6
31423.3
31422.3
31420.8
31419.3
31418
31416.8
31415.6
31414
31410.2
31405.9
31404.7
31404.2
31403.9
31403.6
31403.5
31403.4
31403.3
31403.3
31403.4
31403.7
31403.9
31404
31403.8
31401.6
31396.5
31395.3
31395.6
31396.3
31397.1
31397.9
31398.7
31399.5
31400.2
31400.9
31401.5
31401.7
31401.8
31401.5
31400.6
31399.1
31397
31392.5
31387.2
31385.4
31384.6
31383.9
31383.3
31382.8
31382.4
31382.1
31381.9
31381.7
31381.4
31380.6
31377.3
31373.7
31373.3
31373.4
31373.5
31373.7
31374.4
31375.3
31375.7
31376.1
31376.5
31376.7
31376
31372.5
31370.3
31370.1
31370.2
31370.1
31369.9
31370.2
31370.4
31370.2
31370
31369.1
31368.3
31367.6
31366.9
31365.9
31363.6
31356.6
31351.8
31350.7
31350.3
31350.1
31350
31350
31350.4
31351.3
31353.1
31353.5
31353.6
31353.7
31353.8
31353.7
31352.8
31348.7
31344.1
31343.5
31344.1
31344.9
31345.8
31346.8
31347.6
31348
31348.3
31348.3
31347.4
31344.3
31341.8
31340.4
31339.2
31337.8
31335.5
31333.4
31332.5
31332.1
31331.7
31331.3
31330.5
31328.2
31326.4
31325.9
31325.7
31325.6
31325.6
31325.5
31325
31323.2
31322
31321.6
31321.2
31319.9
31318.6
31318.6
31318.9
31319.4
31319.8
31320.3
31320.7
31321.1
31321
31319.2
31313.8
31311.5
31310.8
31310.1
31309.5
31309
31308.7
31308.5
31308
31307.5
31307.1
31306.8
31306.4
31304.9
31301
31299.4
31299
31298.8
31298.7
31298.6
31298.5
31297.5
31295.2
31294.5
31294.3
31294.2
31293.9
31292.5
31290.9
31290.9
31291.3
31291.7
31292.1
31292.3
31292.5
31292.8
31293.6
31296.2
31315.1
31415.1
31750.9
32093.6
32241.5
32290.3
32305.9
32314.1
32316.3
32316.2
32314.2
32311.1
32308.4
32305.4
32303.1
32303.2
32303.2
32303.1
32303.1
32304.2
32304.3
32304.5
32304.7
32303.4
32299
32293.1
32291.3
32291
32290.9
32291.2
32291.4
32291.2
32291
32291
32290.3
32289.6
32287.9
32282.4
32278.3
32277.2
32276.3
32276
32277.1
32277.6
32279.2
32284.2
32300.9
32361.3
32555.9
32824
32990.3
33067.4
33099.8
33114.2
33115
33115.9
33116.2
33117.2
33118.1
33118
33116
33108
33103.7
33102.9
33102.9
33105.1
33106.5
33106.9
33106.9
33106.7
33106.7
33107
33108.8
33110.2
33110.3
33109.8
33106.5
33096
33090.6
33089.8
33089.8
33090.2
33092.5
33095
33095.6
33095.8
33095.8
33095.6
33094.8
33091.4
33083.5
33081.2
33081
33081
33081.2
33082
33084.3
33086.3
33087.1
33087.5
33087.7
33087.8
33087.2
33082.8
33072.1
33068.9
33068.9
33069.3
33070.1
33072.2
33075.9
33077.1
33077.7
33078.2
33078.6
33078.9
33078.5
33075.6
33067.4
33064.6
33064.6
33065
33065.7
33067.5
33071.2
33072.5
33073
33073.5
33073.6
33072.6
33066.8
33060.5
33059.7
33060
33060.5
33061.1
33062.4
33066
33068.5
33069.1
33069.5
33069.9
33070.3
33070.6
33070.7
33069.6
33063.9
33053.2
33050.5
)
;

boundaryField
{
    sides
    {
        type            zeroGradient;
    }
    empty
    {
        type            empty;
    }
}


// ************************************************************************* //
