/*--------------------------------*- C++ -*----------------------------------*\
  =========                 |
  \\      /  F ield         | OpenFOAM: The Open Source CFD Toolbox
   \\    /   O peration     | Website:  https://openfoam.org
    \\  /    A nd           | Version:  9
     \\/     M anipulation  |
\*---------------------------------------------------------------------------*/
FoamFile
{
    format      ascii;
    class       volScalarField;
    location    "0.047";
    object      rho;
}
// * * * * * * * * * * * * * * * * * * * * * * * * * * * * * * * * * * * * * //

dimensions      [1 -3 0 0 0 0 0];

internalField   nonuniform List<scalar> 
1000
(
0.551067
0.550599
0.550316
0.550009
0.549709
0.549407
0.549106
0.548805
0.548504
0.548204
0.547903
0.547602
0.547302
0.547002
0.546702
0.546402
0.546102
0.545802
0.545503
0.545203
0.544904
0.544605
0.544305
0.544007
0.543708
0.543409
0.54311
0.542812
0.542514
0.542215
0.541917
0.541619
0.541322
0.541024
0.540727
0.540429
0.540132
0.539835
0.539538
0.539242
0.538945
0.538648
0.538351
0.538055
0.537759
0.537463
0.537167
0.536871
0.536575
0.536279
0.535984
0.535688
0.535393
0.535098
0.534803
0.534509
0.534214
0.533919
0.533625
0.533331
0.533036
0.532742
0.532448
0.532154
0.531861
0.531567
0.531274
0.53098
0.530687
0.530394
0.530101
0.529808
0.529516
0.529223
0.528931
0.528639
0.528346
0.528054
0.527762
0.527471
0.527179
0.526887
0.526596
0.526305
0.526013
0.525722
0.525431
0.525141
0.52485
0.524559
0.524269
0.523979
0.523688
0.523398
0.523108
0.522819
0.522529
0.522239
0.52195
0.521661
0.521372
0.521083
0.520794
0.520505
0.520216
0.519928
0.519639
0.519351
0.519063
0.518775
0.518487
0.518199
0.517911
0.517624
0.517337
0.517049
0.516762
0.516475
0.516188
0.515901
0.515615
0.515328
0.515042
0.514756
0.514469
0.514183
0.513898
0.513612
0.513326
0.513041
0.512755
0.51247
0.512185
0.5119
0.511615
0.51133
0.511046
0.510761
0.510477
0.510193
0.509909
0.509625
0.509341
0.509057
0.508773
0.50849
0.508206
0.507923
0.507639
0.507356
0.507073
0.50679
0.506507
0.506224
0.505941
0.505658
0.505376
0.505094
0.504812
0.50453
0.504248
0.503966
0.503685
0.503404
0.503123
0.502842
0.502561
0.502281
0.502
0.50172
0.50144
0.501159
0.500879
0.500599
0.50032
0.50004
0.49976
0.499481
0.499201
0.498922
0.498643
0.498364
0.498085
0.497806
0.497528
0.497249
0.496971
0.496692
0.496414
0.496136
0.495857
0.495579
0.495302
0.495024
0.494747
0.494469
0.494192
0.493915
0.493638
0.493361
0.493085
0.492808
0.492532
0.492255
0.491979
0.491703
0.491427
0.491151
0.490875
0.4906
0.490324
0.490049
0.489773
0.489498
0.489223
0.488948
0.488674
0.488399
0.488124
0.48785
0.487576
0.487301
0.487027
0.486753
0.48648
0.486206
0.485932
0.485659
0.485385
0.485112
0.484839
0.484566
0.484293
0.48402
0.483748
0.483475
0.483203
0.482931
0.482658
0.482386
0.482114
0.481843
0.481571
0.481299
0.481028
0.480756
0.480485
0.480214
0.479943
0.479672
0.479401
0.479131
0.47886
0.47859
0.47832
0.47805
0.477779
0.477509
0.47724
0.476971
0.476701
0.476432
0.476162
0.475892
0.475623
0.475355
0.475087
0.474818
0.474549
0.47428
0.474012
0.473745
0.473478
0.47321
0.472941
0.472673
0.472405
0.472139
0.471874
0.471606
0.471338
0.471069
0.470802
0.470538
0.470274
0.470007
0.469739
0.46947
0.469204
0.468942
0.468679
0.468412
0.468144
0.467876
0.467611
0.467349
0.467086
0.46682
0.466554
0.466289
0.466025
0.465761
0.465494
0.465229
0.46497
0.464713
0.464446
0.464177
0.463908
0.463642
0.46339
0.463136
0.462868
0.462598
0.462329
0.462062
0.461807
0.46156
0.461294
0.461025
0.460756
0.460489
0.460228
0.459984
0.459724
0.459457
0.459188
0.458921
0.458657
0.458409
0.458157
0.457891
0.457624
0.457358
0.457093
0.456838
0.456592
0.45633
0.456064
0.455799
0.455534
0.455275
0.45503
0.454772
0.454508
0.454243
0.453979
0.453719
0.453471
0.453217
0.452955
0.452692
0.452429
0.452169
0.451918
0.451668
0.451407
0.451145
0.450884
0.450624
0.450371
0.450122
0.449864
0.449603
0.449343
0.449084
0.448829
0.448581
0.448325
0.448066
0.447807
0.447547
0.447289
0.447032
0.446781
0.446546
0.446298
0.446043
0.445787
0.445531
0.445276
0.445023
0.444774
0.444528
0.444278
0.444027
0.443777
0.443528
0.443282
0.443041
0.4428
0.442558
0.442317
0.442077
0.441841
0.441609
0.441381
0.441153
0.440928
0.440705
0.440486
0.440273
0.440065
0.439863
0.439666
0.439477
0.439295
0.439127
0.438972
0.438832
0.438707
0.438596
0.4385
0.438419
0.438356
0.438309
0.438278
0.438258
0.438247
0.438238
0.438234
0.438238
0.43825
0.438275
0.438311
0.438347
0.438378
0.438412
0.438446
0.438479
0.438509
0.438534
0.438553
0.438581
0.438619
0.438662
0.438707
0.438748
0.438776
0.438792
0.438812
0.438828
0.438839
0.438844
0.438838
0.438806
0.438756
0.43869
0.438623
0.438566
0.438517
0.43847
0.438426
0.438399
0.43838
0.438366
0.438355
0.438345
0.438327
0.438317
0.438317
0.438321
0.438326
0.438332
0.438335
0.438332
0.438342
0.438358
0.438377
0.438398
0.438415
0.438424
0.438445
0.438471
0.438495
0.438516
0.438531
0.438537
0.438529
0.438528
0.438527
0.438515
0.438486
0.438446
0.438401
0.438347
0.43831
0.438283
0.438262
0.438244
0.438227
0.438202
0.438179
0.43817
0.438166
0.438165
0.438166
0.438167
0.438169
0.438168
0.438153
0.438146
0.438153
0.438164
0.438177
0.438191
0.438205
0.438215
0.438217
0.438231
0.438249
0.438266
0.43828
0.438285
0.438282
0.438284
0.438286
0.438283
0.438266
0.438226
0.438186
0.438151
0.438122
0.438095
0.438064
0.438038
0.438023
0.43801
0.437999
0.437989
0.437974
0.437957
0.43795
0.437947
0.437943
0.437933
0.437926
0.437928
0.437934
0.437942
0.437951
0.437961
0.437971
0.437976
0.437964
0.437956
0.437968
0.437984
0.438001
0.438017
0.438031
0.438043
0.438052
0.438058
0.438057
0.43804
0.437987
0.437945
0.437913
0.437885
0.437863
0.437846
0.437834
0.437824
0.437815
0.437807
0.437799
0.43779
0.437772
0.437727
0.437705
0.437702
0.437703
0.437706
0.43771
0.437716
0.437727
0.437738
0.437748
0.437758
0.43777
0.437782
0.437795
0.437808
0.437817
0.437809
0.437764
0.437754
0.437761
0.437769
0.437776
0.437779
0.43778
0.437773
0.437756
0.437732
0.437707
0.437681
0.437639
0.437559
0.437523
0.43751
0.437503
0.437497
0.437492
0.437487
0.437485
0.437488
0.437505
0.437525
0.43753
0.437533
0.437537
0.437542
0.437544
0.437534
0.437495
0.437484
0.437489
0.437497
0.437505
0.43751
0.437499
0.437487
0.437494
0.437503
0.437511
0.437517
0.437519
0.437518
0.437505
0.437466
0.437434
0.437413
0.437396
0.437381
0.437367
0.437354
0.43733
0.437303
0.437294
0.437289
0.437285
0.437281
0.437279
0.437275
0.437264
0.437244
0.437239
0.437238
0.437237
0.437226
0.437212
0.437214
0.437221
0.437229
0.437238
0.437247
0.437257
0.437268
0.437277
0.437285
0.437283
0.437255
0.437237
0.437237
0.437237
0.437235
0.437225
0.437211
0.437197
0.437184
0.437173
0.437162
0.437146
0.437108
0.437066
0.437055
0.43705
0.437048
0.437046
0.437045
0.437044
0.437045
0.437045
0.437047
0.43705
0.437053
0.437055
0.437053
0.437033
0.436982
0.43697
0.436974
0.436982
0.436991
0.437
0.437009
0.437017
0.437025
0.437033
0.437039
0.437043
0.437044
0.437042
0.437033
0.43702
0.437
0.436957
0.436906
0.436889
0.436882
0.436876
0.43687
0.436866
0.436863
0.436861
0.43686
0.436861
0.436862
0.436859
0.436829
0.436797
0.436796
0.436802
0.436813
0.43683
0.436853
0.436873
0.436883
0.43689
0.436897
0.436901
0.436897
0.436864
0.436842
0.43684
0.436837
0.436829
0.436817
0.436811
0.436805
0.4368
0.436797
0.436787
0.436775
0.436766
0.436756
0.436745
0.436721
0.436651
0.436603
0.436592
0.436589
0.436587
0.436588
0.436591
0.436599
0.436615
0.43664
0.436649
0.436653
0.436654
0.436654
0.43665
0.436638
0.436593
0.436545
0.436537
0.43654
0.436546
0.436554
0.436564
0.436571
0.436575
0.436579
0.436579
0.436572
0.436543
0.436519
0.436507
0.436496
0.436482
0.436459
0.436438
0.436429
0.436424
0.436421
0.436416
0.436407
0.436384
0.436366
0.43636
0.436358
0.436357
0.436357
0.436356
0.436352
0.436335
0.436323
0.436319
0.436315
0.436302
0.436289
0.436289
0.436293
0.436297
0.436301
0.436306
0.43631
0.436313
0.436312
0.436295
0.436241
0.436218
0.436211
0.436204
0.436199
0.436194
0.436191
0.436189
0.436184
0.436179
0.436175
0.436172
0.436168
0.436153
0.436114
0.436098
0.436094
0.436092
0.436091
0.436091
0.436089
0.436079
0.436057
0.436049
0.436048
0.436047
0.436044
0.43603
0.436014
0.436014
0.436018
0.436022
0.436025
0.436028
0.43603
0.436033
0.436041
0.436067
0.436254
0.43725
0.440588
0.443888
0.445483
0.446015
0.446082
0.446096
0.446111
0.446124
0.446151
0.446163
0.446138
0.446085
0.446021
0.446008
0.446011
0.44603
0.446062
0.446079
0.446075
0.44606
0.446041
0.446021
0.445984
0.445948
0.445938
0.445934
0.445929
0.445919
0.445914
0.445912
0.445916
0.445927
0.445928
0.445919
0.445894
0.445829
0.445788
0.445779
0.445775
0.445779
0.445792
0.445794
0.445805
0.445849
0.446012
0.446609
0.448531
0.45118
0.452775
0.453573
0.453905
0.453998
0.453989
0.454004
0.454026
0.454051
0.454064
0.454058
0.454025
0.453932
0.453895
0.453899
0.453908
0.453935
0.453945
0.453941
0.453931
0.453928
0.45393
0.453938
0.453962
0.453977
0.453976
0.453966
0.453928
0.453827
0.453781
0.453777
0.453777
0.453781
0.453797
0.453818
0.453823
0.453826
0.453828
0.453829
0.453824
0.453788
0.453707
0.453684
0.453683
0.453686
0.453691
0.453701
0.453722
0.453736
0.453741
0.453744
0.453747
0.453749
0.453745
0.453704
0.453598
0.453566
0.453565
0.453569
0.453578
0.453601
0.453638
0.453649
0.453653
0.453657
0.453661
0.453663
0.45366
0.453632
0.453553
0.453525
0.453524
0.453528
0.453534
0.453552
0.453589
0.453603
0.453608
0.453612
0.453613
0.453602
0.453544
0.453482
0.453475
0.453478
0.453482
0.453489
0.453503
0.45354
0.453565
0.453572
0.453576
0.453578
0.453581
0.453583
0.453582
0.453571
0.453515
0.453411
0.453386
)
;

boundaryField
{
    sides
    {
        type            calculated;
        value           nonuniform List<scalar> 2(0.453386 0.551067);
    }
    empty
    {
        type            empty;
    }
}


// ************************************************************************* //
