/*--------------------------------*- C++ -*----------------------------------*\
  =========                 |
  \\      /  F ield         | OpenFOAM: The Open Source CFD Toolbox
   \\    /   O peration     | Website:  https://openfoam.org
    \\  /    A nd           | Version:  9
     \\/     M anipulation  |
\*---------------------------------------------------------------------------*/
FoamFile
{
    format      ascii;
    class       volScalarField;
    location    "0.012";
    object      mag(U);
}
// * * * * * * * * * * * * * * * * * * * * * * * * * * * * * * * * * * * * * //

dimensions      [0 1 -1 0 0 0 0];

internalField   nonuniform List<scalar> 
10000
(
2.76262e-12
2.61229e-12
2.68375e-12
2.70107e-12
2.63081e-12
2.68243e-12
2.66589e-12
2.71796e-12
2.82448e-12
2.69468e-12
2.60149e-12
2.65643e-12
2.60671e-12
2.62205e-12
2.69119e-12
2.73764e-12
2.71149e-12
2.74526e-12
2.73735e-12
2.65933e-12
2.55614e-12
2.46875e-12
2.36472e-12
2.31071e-12
2.37611e-12
2.40069e-12
2.36665e-12
2.34802e-12
2.27544e-12
2.17367e-12
2.06173e-12
2.12943e-12
2.07548e-12
2.01963e-12
2.10916e-12
2.17115e-12
2.18806e-12
2.23256e-12
2.0582e-12
1.96001e-12
2.09801e-12
2.12886e-12
2.07788e-12
2.13231e-12
2.13386e-12
2.22998e-12
2.33145e-12
2.30506e-12
2.30469e-12
2.22137e-12
2.12702e-12
2.23914e-12
2.28541e-12
2.23462e-12
2.15461e-12
2.27068e-12
2.21677e-12
2.28414e-12
2.30338e-12
2.22844e-12
2.22811e-12
2.16636e-12
2.15451e-12
2.15721e-12
2.12431e-12
2.08276e-12
2.09997e-12
2.08044e-12
2.0986e-12
2.20334e-12
2.17276e-12
2.14581e-12
2.12163e-12
2.09191e-12
2.04673e-12
1.8997e-12
1.79019e-12
1.80297e-12
1.8567e-12
1.88247e-12
2.00398e-12
2.08488e-12
2.015e-12
1.93602e-12
2.04543e-12
1.8958e-12
1.78343e-12
1.75949e-12
1.72297e-12
1.76895e-12
1.80367e-12
1.76636e-12
1.88423e-12
1.80631e-12
1.64573e-12
1.71241e-12
1.808e-12
1.88141e-12
1.99923e-12
2.05778e-12
1.98605e-12
1.8787e-12
1.76658e-12
1.68333e-12
1.58223e-12
1.38543e-12
1.43766e-12
1.44749e-12
1.44656e-12
1.5948e-12
1.75266e-12
1.8456e-12
2.04359e-12
2.25074e-12
2.33567e-12
2.44659e-12
2.49649e-12
2.46384e-12
2.48269e-12
2.51274e-12
2.58015e-12
2.5213e-12
2.41942e-12
2.36923e-12
2.33515e-12
2.45522e-12
2.39821e-12
2.33571e-12
2.33523e-12
2.26519e-12
2.25536e-12
2.27116e-12
2.24797e-12
2.2478e-12
2.14079e-12
2.01284e-12
1.89208e-12
1.79061e-12
1.78458e-12
1.76213e-12
1.8472e-12
1.91784e-12
1.9459e-12
1.91433e-12
1.95549e-12
2.03431e-12
2.07251e-12
2.09542e-12
2.19511e-12
2.32159e-12
2.41475e-12
2.47063e-12
2.53567e-12
2.41679e-12
2.36393e-12
2.23137e-12
2.17833e-12
2.08033e-12
1.98674e-12
1.80504e-12
1.65282e-12
1.54921e-12
1.62575e-12
1.71531e-12
1.72288e-12
1.80995e-12
1.74334e-12
1.6446e-12
1.61553e-12
1.6292e-12
1.68996e-12
1.73141e-12
1.80609e-12
1.89038e-12
1.92357e-12
1.99555e-12
2.04745e-12
2.08228e-12
2.22371e-12
2.28464e-12
2.2281e-12
2.26989e-12
2.28037e-12
2.18832e-12
2.12287e-12
2.2143e-12
2.2782e-12
2.33672e-12
2.2168e-12
2.21649e-12
2.21999e-12
2.19122e-12
2.14672e-12
2.09525e-12
2.01027e-12
1.81547e-12
1.68086e-12
1.71529e-12
1.67762e-12
1.60763e-12
1.61387e-12
1.66851e-12
1.68054e-12
1.66071e-12
1.63901e-12
1.59483e-12
1.70067e-12
1.80444e-12
1.77136e-12
1.76341e-12
1.74278e-12
1.69795e-12
1.71364e-12
1.75015e-12
1.772e-12
1.76744e-12
1.68186e-12
1.71129e-12
1.75886e-12
1.67882e-12
1.62159e-12
1.60873e-12
1.51324e-12
1.51111e-12
1.49525e-12
1.41166e-12
1.44248e-12
1.37713e-12
1.29547e-12
1.35929e-12
1.31238e-12
1.18327e-12
1.24863e-12
1.24934e-12
1.26807e-12
1.33391e-12
1.33889e-12
1.37048e-12
1.43976e-12
1.5288e-12
1.46511e-12
1.39058e-12
1.42232e-12
1.40779e-12
1.47954e-12
1.55381e-12
1.5158e-12
1.35879e-12
1.20314e-12
1.23197e-12
1.16649e-12
1.02658e-12
1.04675e-12
9.48224e-13
7.97678e-13
7.99205e-13
7.40223e-13
6.42633e-13
6.64694e-13
6.39179e-13
6.63622e-13
7.73546e-13
7.89439e-13
7.26546e-13
8.04643e-13
8.29324e-13
9.0228e-13
1.04532e-12
1.16927e-12
1.13042e-12
1.06346e-12
1.06339e-12
9.96595e-13
9.78489e-13
9.8114e-13
9.48518e-13
9.28666e-13
1.07002e-12
1.05813e-12
1.13931e-12
1.11752e-12
1.09442e-12
1.15589e-12
1.25829e-12
1.32368e-12
1.41771e-12
1.51179e-12
1.66467e-12
1.67324e-12
1.7165e-12
1.74447e-12
1.68414e-12
1.63608e-12
1.659e-12
1.57466e-12
1.53727e-12
1.45378e-12
1.43383e-12
1.42555e-12
1.50383e-12
1.58712e-12
1.52184e-12
1.45921e-12
1.49842e-12
1.49863e-12
1.50604e-12
1.55135e-12
1.53198e-12
1.52807e-12
1.49917e-12
1.52053e-12
1.55736e-12
1.43984e-12
1.48362e-12
1.55933e-12
1.47903e-12
1.45381e-12
1.34867e-12
1.28825e-12
1.32376e-12
1.3341e-12
1.32218e-12
1.40183e-12
1.3571e-12
1.34366e-12
1.36741e-12
1.34142e-12
1.32532e-12
1.40132e-12
1.47862e-12
1.47739e-12
1.40657e-12
1.41068e-12
1.37832e-12
1.34079e-12
1.3248e-12
1.42609e-12
1.48222e-12
1.56925e-12
1.6464e-12
1.67587e-12
1.7604e-12
1.76858e-12
1.85154e-12
1.93998e-12
1.9948e-12
2.04707e-12
2.06259e-12
1.98132e-12
2.01549e-12
2.08377e-12
2.07154e-12
2.05265e-12
2.03741e-12
2.16233e-12
2.21196e-12
2.28518e-12
2.22736e-12
2.14555e-12
2.12605e-12
2.15634e-12
2.12265e-12
2.21357e-12
2.22514e-12
2.21041e-12
2.27072e-12
2.32384e-12
2.28774e-12
2.25347e-12
2.32651e-12
2.3946e-12
2.43177e-12
2.48982e-12
2.48679e-12
2.49204e-12
2.41234e-12
2.37195e-12
2.32634e-12
2.40761e-12
2.46869e-12
2.48971e-12
2.50967e-12
2.49271e-12
2.51366e-12
2.48608e-12
2.4101e-12
2.36643e-12
2.28403e-12
2.32186e-12
2.3568e-12
2.2898e-12
2.31881e-12
2.33957e-12
2.30712e-12
2.31806e-12
2.16532e-12
2.1102e-12
2.1897e-12
2.19302e-12
2.17834e-12
2.14375e-12
1.9983e-12
1.89e-12
1.76969e-12
1.79068e-12
1.89289e-12
1.84849e-12
1.90124e-12
1.90541e-12
1.90898e-12
1.84553e-12
1.70792e-12
1.61249e-12
1.56225e-12
1.64537e-12
1.73896e-12
1.71711e-12
1.71176e-12
1.79865e-12
1.81762e-12
1.80816e-12
2.05535e-12
2.25269e-12
2.43155e-12
2.59454e-12
2.54059e-12
2.36033e-12
2.23892e-12
2.08922e-12
2.07377e-12
2.06796e-12
1.80163e-12
1.77473e-12
1.70818e-12
1.72698e-12
1.75466e-12
1.8448e-12
1.91369e-12
1.91914e-12
1.82358e-12
1.73272e-12
1.73389e-12
1.81461e-12
2.01705e-12
2.09446e-12
1.92144e-12
1.77274e-12
1.74286e-12
1.58604e-12
1.62605e-12
1.57592e-12
1.48254e-12
1.49165e-12
1.59468e-12
1.50552e-12
1.5344e-12
1.68674e-12
1.78047e-12
1.76913e-12
1.64491e-12
1.61631e-12
1.54417e-12
1.41578e-12
1.35532e-12
1.30996e-12
1.35978e-12
1.38495e-12
1.48048e-12
1.56701e-12
1.63318e-12
1.71283e-12
1.79393e-12
1.64495e-12
1.67894e-12
1.64902e-12
1.57378e-12
1.61725e-12
1.65479e-12
1.49834e-12
1.59623e-12
1.63593e-12
1.73132e-12
1.77995e-12
1.70479e-12
1.66931e-12
1.63724e-12
1.67974e-12
1.80443e-12
1.89636e-12
1.93744e-12
2.01512e-12
1.97988e-12
1.86015e-12
1.8195e-12
1.8588e-12
2.0329e-12
2.12819e-12
2.21724e-12
2.2317e-12
2.21939e-12
2.15344e-12
2.01131e-12
1.9844e-12
1.81723e-12
1.70255e-12
1.76386e-12
1.68585e-12
1.51826e-12
1.47217e-12
1.59469e-12
1.61321e-12
1.59726e-12
1.562e-12
1.47269e-12
1.49371e-12
1.48648e-12
1.53816e-12
1.64098e-12
1.59094e-12
1.53412e-12
1.62828e-12
1.68436e-12
1.67598e-12
1.64259e-12
1.67155e-12
1.54003e-12
1.59145e-12
1.63158e-12
1.55816e-12
1.50458e-12
1.59226e-12
1.54815e-12
1.62318e-12
1.67412e-12
1.76731e-12
1.88497e-12
1.95662e-12
1.99262e-12
1.84043e-12
1.84983e-12
1.92079e-12
1.88459e-12
1.95467e-12
2.09726e-12
2.21753e-12
2.29308e-12
2.46883e-12
2.49809e-12
2.52771e-12
2.5471e-12
2.45699e-12
2.35222e-12
2.33872e-12
2.3706e-12
2.33276e-12
2.27847e-12
2.31258e-12
2.42966e-12
2.45463e-12
2.39563e-12
2.32275e-12
2.35044e-12
2.36065e-12
2.38055e-12
2.48848e-12
2.44158e-12
2.46357e-12
2.45226e-12
2.40078e-12
2.41596e-12
2.36638e-12
2.4447e-12
2.51007e-12
2.5857e-12
2.75595e-12
2.87633e-12
2.94375e-12
2.97298e-12
2.94928e-12
2.53095e-12
1.37171e-12
2.53291e-12
1.62421e-11
5.99273e-11
2.04202e-10
6.76711e-10
2.22746e-09
7.31547e-09
2.40027e-08
7.87207e-08
2.58136e-07
8.46361e-07
2.77464e-06
9.09466e-06
2.98042e-05
9.76466e-05
0.000319817
0.00104708
0.00342662
0.0112083
0.0366432
0.119765
0.391074
1.29638
3.42882
5.23311
6.20603
6.61611
6.95404
7.07759
7.11145
7.20148
7.27388
7.2958
7.29874
7.36013
7.42748
7.46132
7.45713
7.49936
7.56155
7.60114
7.59607
7.61972
7.6723
7.7114
7.70941
7.7185
7.75862
7.79188
7.79379
7.79354
7.82041
7.8446
7.84839
7.84397
7.85852
7.87318
7.87524
7.8704
7.87535
7.8815
7.88203
7.88065
7.88495
7.89976
7.94009
8.06021
8.4414
9.67485
11.8991
13.4505
14.2891
14.6572
14.9541
15.0753
15.1061
15.181
15.2467
15.2767
15.2769
15.3183
15.3807
15.4238
15.4234
15.4426
15.4978
15.5441
15.5506
15.5523
15.5952
15.6376
15.6534
15.6475
15.6726
15.708
15.7284
15.7229
15.7333
15.7597
15.7791
15.7774
15.7785
15.7957
15.8107
15.8125
15.8096
15.8189
15.8288
15.8319
15.8288
15.8326
15.8384
15.841
15.8391
15.84
15.8429
15.8446
15.8437
15.8435
15.8447
15.8455
15.8452
15.8449
15.8452
15.8456
15.8455
15.8453
15.8454
15.8455
15.8455
15.8454
15.8454
15.8455
15.8455
15.8455
15.8455
15.8455
15.8455
15.8455
15.8455
15.8455
15.8455
15.8455
15.8455
15.8455
15.8455
15.8455
15.8455
15.8454
15.8455
15.8455
15.8454
15.8454
15.8455
15.8455
15.8455
15.8455
15.8455
15.8455
15.8455
15.8454
15.8454
15.8454
15.8454
15.8454
15.8454
15.8453
15.8453
15.8453
15.8453
15.8454
15.8454
15.8454
15.8454
15.8455
15.8458
15.847
15.8506
15.8623
15.9006
16.0246
16.4327
17.5406
18.693
19.2973
19.6685
19.7871
19.8862
19.9736
20.0147
20.0139
20.0466
20.1079
20.1559
20.1625
20.1737
20.2294
20.2843
20.3063
20.306
20.3442
20.3999
20.4377
20.4384
20.4551
20.5068
20.553
20.5644
20.5658
20.6057
20.6522
20.6773
20.6746
20.6959
20.7393
20.7729
20.7755
20.7805
20.816
20.8506
20.8622
20.8592
20.8815
20.9126
20.9313
20.9281
20.937
20.962
20.9818
20.9827
20.9824
20.9991
21.0152
21.0197
21.0159
21.0238
21.0344
21.0387
21.0348
21.0367
21.0412
21.043
21.0429
21.0458
21.0586
21.0976
21.2169
21.5937
22.2124
22.6191
22.839
22.9302
23.0044
23.0446
23.059
23.0767
23.0988
23.116
23.1247
23.1356
23.152
23.1665
23.1746
23.182
23.1933
23.204
23.2107
23.2156
23.2228
23.2299
23.2342
23.2365
23.2402
23.2436
23.2451
23.245
23.2465
23.2481
23.2487
23.249
23.2511
23.258
23.2783
23.3419
23.5471
24.1865
25.1257
25.7026
26.0307
26.1516
26.2577
26.3253
26.3464
26.3531
26.3895
26.4306
26.4537
26.4536
26.4719
26.5107
26.5415
26.5445
26.5459
26.5747
26.6036
26.6141
26.6088
26.6222
26.6442
26.6571
26.6523
26.654
26.6654
26.6733
26.67
26.6675
26.6726
26.6855
26.7135
26.793
27.0491
27.5151
27.8546
28.0006
28.1127
28.1609
28.1711
28.1934
28.2203
28.2375
28.2375
28.2434
28.2646
28.2827
28.2846
28.2812
28.292
28.3035
28.3063
28.3008
28.3015
28.3067
28.3117
28.3165
28.3313
28.3823
28.5489
28.9952
29.4643
29.6981
29.866
29.9217
29.9379
29.9797
30.0153
30.0261
30.0209
30.0398
30.0656
30.0777
30.0691
30.0715
30.0831
30.0909
30.0952
30.1105
30.1717
30.3725
30.7293
30.9704
31.068
31.1609
31.1992
31.1977
31.2102
31.2387
31.2583
31.2545
31.2524
31.2644
31.2755
31.2752
31.2723
31.2803
31.3074
31.3797
31.596
32.0141
32.3223
32.5191
32.586
32.6271
32.6756
32.7046
32.7051
32.7094
32.7361
32.7603
32.7646
32.7585
32.7694
32.784
32.7889
32.7828
32.7835
32.7915
32.8062
32.8359
32.9242
33.1997
33.6139
33.8914
34.0061
34.0929
34.1475
34.1669
34.1759
34.2012
34.2256
34.2371
34.2353
34.2436
34.2623
34.2762
34.2754
34.2731
34.2807
34.2891
34.2887
34.2856
34.2886
34.2994
34.3266
34.4031
34.6465
35.2004
35.6824
35.944
36.0869
36.1384
36.1865
36.2243
36.2415
36.2425
36.254
36.2816
36.3051
36.3094
36.3075
36.3233
36.3458
36.3596
36.3576
36.3584
36.3734
36.3878
36.3917
36.3869
36.3907
36.3991
36.4037
36.4008
36.3986
36.4019
36.4076
36.4164
36.4372
36.5027
36.7151
37.2756
37.8695
38.1871
38.3872
38.4704
38.5078
38.5549
38.5844
38.5916
38.5934
38.6153
38.6416
38.6549
38.6511
38.6568
38.6741
38.6868
38.6844
38.6807
38.6861
38.6939
38.7014
38.7162
38.7668
38.9367
39.328
39.6731
39.8295
39.9512
40.0082
40.0198
40.0374
40.0708
40.0978
40.1022
40.1009
40.1211
40.1443
40.1532
40.1465
40.1505
40.163
40.1703
40.1656
40.1621
40.1674
40.1809
40.209
40.2844
40.5227
41.04
41.4637
41.7117
41.7906
41.8601
41.9156
41.9385
41.933
41.9456
41.9761
41.9976
41.9953
41.9905
42.0028
42.0173
42.0192
42.0142
42.0175
42.0304
42.0595
42.1296
42.338
42.7498
43.0733
43.2708
43.3448
43.3948
43.4477
43.4773
43.4808
43.4871
43.5152
43.5415
43.5475
43.5419
43.5523
43.5673
43.5729
43.5674
43.5672
43.5741
43.5868
43.6099
43.6751
43.8823
44.3186
44.683
44.8533
44.9753
45.0305
45.0456
45.0701
45.1015
45.1233
45.1252
45.1276
45.1495
45.1704
45.1749
45.167
45.1719
45.1829
45.1882
45.1907
45.2005
45.2406
45.367
45.7072
46.0981
46.3003
46.4469
46.514
46.5266
46.545
46.5793
46.6042
46.6022
46.597
46.6069
46.6212
46.6313
46.6437
46.6873
46.8333
47.1176
47.3406
47.4245
47.4946
47.5472
47.5674
47.5635
47.5767
47.6037
47.6197
47.6122
47.608
47.6202
47.65
47.7102
47.8731
48.1913
48.4409
48.6154
48.6781
48.6948
48.7369
48.7772
48.7933
48.7861
48.7944
48.8179
48.8333
48.8275
48.8216
48.8314
48.8564
48.9069
49.0385
49.3521
49.6634
49.874
49.968
50.0016
50.0496
50.0878
50.1029
50.1004
50.1119
50.1377
50.1555
50.1521
50.1471
50.156
50.1703
50.1877
50.2218
50.3315
50.6309
50.9723
51.1835
51.2621
51.3227
51.3781
51.4049
51.4064
51.4124
51.4395
51.4644
51.4686
51.4587
51.4619
51.475
51.4901
51.5074
51.5573
51.7209
52.0583
52.3438
52.512
52.5632
52.5913
52.643
52.686
52.6943
52.6831
52.688
52.712
52.7323
52.7333
52.7283
52.742
52.7964
52.955
53.2586
53.4881
53.5851
53.6796
53.7321
53.7431
53.7412
53.7661
53.7967
53.8086
53.799
53.7994
53.8171
53.8532
53.924
54.1168
54.4211
54.6359
54.7816
54.8302
54.8424
54.8818
54.9232
54.9413
54.9363
54.9434
54.969
54.9889
54.9864
54.9783
54.986
55.003
55.0313
55.09
55.2649
55.6353
55.9554
56.1537
56.223
56.2644
56.319
56.3569
56.3628
56.361
56.3854
56.4165
56.4307
56.4231
56.4232
56.4355
56.4457
56.4504
56.4566
56.4844
56.574
56.8301
57.2211
57.4772
57.6123
57.7155
57.7574
57.7654
57.7864
57.8209
57.8467
57.849
57.8469
57.8649
57.886
57.8926
57.884
57.8836
57.8948
57.916
57.9505
58.0376
58.2886
58.6701
58.9397
59.0868
59.1378
59.1812
59.229
59.2597
59.2635
59.2624
59.285
59.3133
59.3262
59.3187
59.3164
59.3265
59.3401
59.3508
59.3631
59.4038
59.5393
59.8751
60.2168
60.4029
60.4858
60.5662
60.618
60.6342
60.6337
60.6526
60.6849
60.7056
60.7035
60.7
60.7115
60.7257
60.7299
60.7296
60.7391
60.7739
60.8685
61.1245
61.4988
61.7382
61.9033
61.9737
61.9957
62.0331
62.0727
62.0953
62.0965
62.1012
62.129
62.1565
62.1635
62.1546
62.1581
62.1728
62.1831
62.1848
62.1841
62.1981
62.248
62.3888
62.7489
63.1717
63.4123
63.582
63.6694
63.6917
63.7041
63.7455
63.7866
63.8008
63.796
63.8032
63.8311
63.8556
63.8588
63.8484
63.853
63.8655
63.8718
63.8752
63.8818
63.9112
64.0027
64.2628
64.6822
64.9777
65.1253
65.2427
65.3015
65.3144
65.3196
65.3512
65.3867
65.4023
65.3993
65.4032
65.4261
65.448
65.4521
65.4422
65.4429
65.4541
65.467
65.4807
65.5117
65.6149
65.9109
66.3101
66.5806
66.6992
66.7687
66.8397
66.8786
66.8828
66.8819
66.906
66.9366
66.9507
66.9458
66.9467
66.9602
66.972
66.975
66.9779
66.9957
67.0537
67.2185
67.5563
67.8483
68.0297
68.1329
68.1693
68.1972
68.2353
68.2643
68.2684
68.2646
68.2797
68.3035
68.3155
68.3125
68.3107
68.3258
68.3728
68.49
68.7588
69.0355
69.2006
69.3223
69.3766
69.3968
69.4288
69.4613
69.4791
69.4822
69.4908
69.5138
69.5327
69.532
69.5295
69.5379
69.5498
69.5609
69.5784
69.6331
69.8045
70.1992
70.5823
70.7917
70.8909
70.9822
71.0361
71.0529
71.0592
71.0901
71.1302
71.1526
71.1509
71.1469
71.1657
71.1919
71.2037
71.1962
71.1925
71.2023
71.222
71.252
71.3216
71.5273
71.9034
72.2064
72.3914
72.4638
72.5031
72.5583
72.5992
72.6117
72.6127
72.6312
72.6648
72.6881
72.6876
72.6824
72.6945
72.7107
72.7151
72.7122
72.7169
72.7355
72.7826
72.9017
73.2024
73.5864
73.8373
73.9987
74.065
74.0962
74.1435
74.183
74.1988
74.1993
74.2102
74.2374
74.2581
74.2558
74.2491
74.2572
74.2745
74.297
74.3325
74.4398
74.673
74.8809
75.0219
75.0697
75.0804
75.1134
75.1517
75.1864
75.2409
75.3837
75.6006
75.7937
75.9064
75.9421
75.9603
76.0118
76.0649
76.0853
76.0811
76.0888
76.12
76.146
76.1478
76.1407
76.1557
76.2097
76.352
76.6352
76.8708
76.9874
77.0968
77.1531
77.1585
77.1584
77.1892
77.2559
77.3682
77.507
77.5917
77.6729
77.748
77.7861
77.7868
77.7907
77.8226
77.8568
77.8808
77.914
78.0228
78.2246
78.4174
78.5229
78.5525
78.5695
78.6213
78.6704
78.6796
78.6714
78.6864
78.7395
78.868
79.0937
79.2739
79.3558
79.4469
79.5271
79.5652
79.566
79.5694
79.6064
79.649
79.6679
79.6764
79.7241
79.8761
80.0807
80.2268
80.2741
80.2829
80.3274
80.3833
80.4115
80.4199
80.458
80.5653
80.7302
80.8741
80.9488
80.9911
81.0503
81.1409
81.2251
81.2738
81.31
81.3658
81.4582
81.5521
81.6118
81.6532
81.7082
81.7987
81.8932
81.9577
82.0015
82.0558
82.1359
82.2192
82.2824
82.3343
82.3993
82.4835
82.5642
82.6242
82.6776
82.748
82.833
82.9066
82.9563
82.9993
83.081
83.1976
83.2926
83.3216
83.3407
83.3865
83.5097
83.6391
83.6943
83.7111
83.7385
83.8481
83.9834
84.064
84.0776
84.089
84.1416
84.2764
84.4133
84.4862
84.5037
84.5252
84.5848
84.675
84.7485
84.7918
84.8728
85.003
85.1164
85.1473
85.1534
85.1714
85.2559
85.3918
85.4993
85.5285
85.5435
85.6078
85.7362
85.8513
85.8839
85.897
85.9314
86.0498
86.1832
86.2538
86.2704
86.2881
86.3728
86.5074
86.61
86.6343
86.6472
86.699
86.8268
86.9549
87.0039
87.0176
87.0397
87.1394
87.2752
87.367
87.3867
87.3998
87.4595
87.5895
87.7125
87.7521
87.7622
87.7832
87.8773
88.0278
88.1534
88.1955
88.2077
88.2292
88.2953
88.3959
88.4749
88.5118
88.5804
88.7068
88.8214
88.8562
88.8712
88.9129
89.0283
89.1503
89.1944
89.2092
89.2338
89.3374
89.4841
89.5969
89.6252
89.6352
89.6621
89.7662
89.8932
89.9626
89.9831
90.0112
90.1194
90.2546
90.3354
90.3507
90.3633
90.4169
90.5498
90.6849
90.745
90.7578
90.7734
90.8471
90.986
91.1093
91.1472
91.1563
91.177
91.2702
91.4159
91.5336
91.5623
91.5566
91.5655
91.6368
91.7928
91.9632
92.0687
92.0874
92.0664
92.067
92.1071
92.236
92.4024
92.5272
92.5625
92.5546
92.5575
92.599
92.7296
92.8943
93.0164
93.0499
93.0476
93.0583
93.1108
93.246
93.3863
93.4595
93.4698
93.4781
93.5217
93.6542
93.8127
93.9231
93.9468
93.9361
93.9447
93.9869
94.1139
94.266
94.3743
94.4071
94.4299
94.5055
94.6089
94.671
94.691
94.7088
94.7711
94.9167
95.0803
95.1877
95.2152
95.2197
95.2352
95.2642
95.2984
95.3724
95.5172
95.6806
95.795
95.8244
95.8059
95.7885
95.8078
95.9048
96.0864
96.3096
96.442
96.4853
96.4675
96.4065
96.4004
96.4265
96.5315
96.7158
96.9183
97.0394
97.0747
97.0694
97.0641
97.0877
97.1227
97.1732
97.2431
97.352
97.499
97.6435
97.7435
97.7668
97.755
97.7562
97.7888
97.9052
98.0947
98.2543
98.3374
98.3468
98.3169
98.3043
98.3276
98.3747
98.5053
98.6991
98.8482
98.9185
98.9267
98.9256
98.9474
99.0299
99.1684
99.2826
99.3153
99.3305
99.3611
99.4675
99.6026
99.6848
99.7099
99.7429
99.8497
99.9742
100.031
100.047
100.066
100.135
100.262
100.371
100.407
100.434
100.534
100.678
100.785
100.811
100.806
100.812
100.839
100.887
101.018
101.207
101.354
101.422
101.43
101.424
101.443
101.501
101.638
101.782
101.863
101.885
101.905
101.964
102.072
102.164
102.199
102.224
102.3
102.436
102.551
102.586
102.604
102.647
102.759
102.88
102.926
102.946
102.974
103.077
103.217
103.314
103.343
103.364
103.427
103.539
103.632
103.664
103.687
103.749
103.881
104.008
104.054
104.072
104.097
104.191
104.323
104.409
104.433
104.454
104.521
104.649
104.76
104.792
104.811
104.847
104.961
105.096
105.169
105.193
105.217
105.307
105.442
105.537
105.563
105.581
105.638
105.761
105.877
105.912
105.918
105.936
106.015
106.178
106.348
106.447
106.466
106.441
106.429
106.453
106.515
106.653
106.804
106.903
106.946
107.031
107.161
107.26
107.277
107.235
107.203
107.222
107.318
107.504
107.771
107.925
107.989
107.983
107.898
107.835
107.848
107.911
108.061
108.31
108.493
108.582
108.592
108.53
108.451
108.457
108.507
108.646
108.896
109.152
109.28
109.319
109.292
109.173
109.105
109.119
109.181
109.33
109.598
109.838
109.958
109.991
109.959
109.852
109.814
109.835
109.916
110.083
110.345
110.514
110.593
110.599
110.54
110.492
110.508
110.574
110.725
110.959
111.116
111.187
111.19
111.139
111.119
111.144
111.231
111.401
111.589
111.701
111.73
111.715
111.704
111.729
111.807
111.966
112.129
112.225
112.25
112.265
112.296
112.39
112.51
112.576
112.6
112.624
112.684
112.803
112.911
112.95
112.975
113.046
113.2
113.361
113.45
113.46
113.408
113.373
113.393
113.481
113.657
113.912
114.064
114.125
114.119
114.024
113.936
113.944
113.992
114.128
114.377
114.727
114.899
114.978
114.986
114.909
114.74
114.684
114.704
114.756
114.895
115.141
115.406
115.539
115.584
115.569
115.485
115.451
115.473
115.554
115.721
115.986
116.155
116.232
116.238
116.167
116.079
116.084
116.124
116.251
116.477
116.788
116.947
117.017
117.023
116.949
116.817
116.789
116.816
116.851
116.956
117.146
117.45
117.636
117.724
117.739
117.683
117.567
117.547
117.573
117.658
117.83
118.111
118.296
118.383
118.399
118.351
118.285
118.295
118.335
118.454
118.655
118.83
118.92
118.938
118.913
118.906
118.935
119.027
119.2
119.372
119.468
119.49
119.481
119.491
119.527
119.632
119.781
119.891
119.924
119.943
119.976
120.085
120.246
120.372
120.411
120.389
120.325
120.329
120.373
120.503
120.736
120.972
121.092
121.128
121.106
121.03
121.02
121.05
121.149
121.335
121.548
121.668
121.704
121.68
121.6
121.59
121.62
121.722
121.914
122.173
122.32
122.377
122.377
122.315
122.287
122.311
122.382
122.535
122.741
122.877
122.925
122.922
122.894
122.91
122.962
123.096
123.295
123.441
123.5
123.501
123.452
123.442
123.47
123.553
123.719
123.935
124.069
124.117
124.118
124.094
124.112
124.151
124.261
124.422
124.551
124.599
124.622
124.652
124.719
124.825
124.905
124.94
124.971
125.026
125.154
125.291
125.354
125.38
125.407
125.48
125.625
125.765
125.827
125.84
125.825
125.836
125.871
125.909
126.007
126.186
126.406
126.536
126.585
126.594
126.584
126.605
126.641
126.679
126.719
126.759
126.797
126.89
127.066
127.316
127.468
127.53
127.533
127.461
127.402
127.419
127.473
127.61
127.85
128.055
128.156
128.182
128.144
128.054
128.046
128.077
128.172
128.355
128.616
128.769
128.83
128.836
128.779
128.745
128.77
128.83
128.971
129.173
129.313
129.366
129.37
129.348
129.366
129.423
129.561
129.761
129.9
129.951
129.946
129.884
129.875
129.906
130.007
130.198
130.438
130.572
130.618
130.607
130.514
130.466
130.488
130.554
130.706
130.988
131.246
131.368
131.407
131.389
131.271
131.181
131.195
131.234
131.348
131.557
131.837
131.987
132.047
132.052
131.987
131.929
131.948
131.992
132.111
132.316
132.502
132.596
132.622
132.602
132.585
132.611
132.673
132.814
132.994
133.113
133.151
133.15
133.145
133.173
133.241
133.386
133.55
133.646
133.674
133.679
133.703
133.751
133.876
134.027
134.122
134.15
134.16
134.187
134.249
134.391
134.557
134.657
134.687
134.681
134.674
134.702
134.739
134.807
134.954
135.165
135.31
135.367
135.373
135.321
135.301
135.329
135.402
135.558
135.811
135.98
136.058
136.075
136.032
135.974
135.989
136.025
136.111
136.276
136.455
136.558
136.592
136.61
136.64
136.715
136.841
136.941
136.973
136.984
137.009
137.075
137.225
137.423
137.549
137.592
137.579
137.507
137.495
137.526
137.613
137.785
138.028
138.174
138.232
138.239
138.194
138.186
138.217
138.299
138.464
138.66
138.774
138.81
138.791
138.731
138.738
138.779
138.896
139.115
139.43
139.593
139.663
139.675
139.601
139.41
139.333
139.353
139.39
139.48
139.657
139.984
140.238
140.353
140.392
140.38
140.279
140.213
140.235
140.278
140.397
140.613
140.868
140.999
141.046
141.042
140.955
140.897
140.919
140.968
141.096
141.331
141.578
141.7
141.743
141.732
141.638
141.585
141.609
141.66
141.791
142.032
142.294
142.423
142.469
142.466
142.376
142.3
142.317
142.355
142.453
142.638
142.884
143.024
143.08
143.091
143.064
143.073
143.109
143.181
143.328
143.478
143.555
143.579
143.585
143.613
143.668
143.797
143.95
144.04
144.067
144.069
144.093
144.144
144.274
144.466
144.606
144.661
144.667
144.629
144.634
144.67
144.76
144.933
145.111
145.205
145.233
145.21
145.175
145.199
145.251
145.381
145.61
145.808
145.905
145.936
145.918
145.864
145.873
145.91
145.973
146.111
146.286
146.4
146.443
146.473
146.511
146.61
146.754
146.853
146.883
146.863
146.836
146.862
146.92
147.056
147.285
147.458
147.539
147.566
147.565
147.585
147.625
147.722
147.858
147.941
147.964
147.922
147.867
147.888
147.941
148.074
148.326
148.621
148.76
148.814
148.82
148.737
148.629
148.632
148.668
148.749
148.914
149.19
149.372
149.455
149.479
149.443
149.367
149.373
149.41
149.497
149.67
149.914
150.057
150.113
150.122
150.059
150.013
150.04
150.09
150.217
150.447
150.678
150.791
150.83
150.819
150.731
150.695
150.725
150.779
150.91
151.146
151.362
151.467
151.503
151.487
151.407
151.391
151.425
151.492
151.638
151.895
152.089
152.178
152.208
152.182
152.091
152.074
152.109
152.157
152.275
152.478
152.658
152.747
152.78
152.791
152.818
152.862
152.969
153.121
153.229
153.266
153.268
153.271
153.306
153.381
153.535
153.708
153.803
153.833
153.807
153.751
153.768
153.812
153.925
154.139
154.421
154.565
154.622
154.634
154.56
154.458
154.463
154.5
154.581
154.746
155.028
155.217
155.303
155.331
155.298
155.193
155.172
155.206
155.265
155.401
155.654
155.896
156.01
156.053
156.051
155.975
155.937
155.967
156.011
156.116
156.303
156.474
156.559
156.587
156.567
156.546
156.577
156.636
156.771
157.01
157.204
157.294
157.325
157.298
157.205
157.19
157.225
157.286
157.423
157.669
157.875
157.973
158.009
157.998
157.939
157.941
157.979
158.04
158.176
158.377
158.518
158.576
158.596
158.587
158.609
158.651
158.736
158.885
159.019
159.075
159.095
159.102
159.136
159.201
159.343
159.536
159.659
159.706
159.707
159.652
159.648
159.685
159.755
159.905
160.143
160.305
160.375
160.399
160.374
160.353
160.386
160.432
160.537
160.705
160.844
160.901
160.919
160.904
160.927
160.973
161.083
161.285
161.483
161.581
161.616
161.596
161.504
161.484
161.52
161.583
161.724
161.991
162.239
162.353
162.397
162.394
162.296
162.202
162.217
162.257
162.338
162.5
162.785
162.982
163.071
163.104
163.084
162.993
162.972
163.008
163.059
163.181
163.401
163.619
163.725
163.766
163.764
163.7
163.689
163.726
163.78
163.905
164.13
164.34
164.443
164.485
164.498
164.493
164.522
164.566
164.611
164.653
164.686
164.704
164.735
164.778
164.849
164.998
165.272
165.49
165.59
165.63
165.622
165.533
165.488
165.518
165.562
165.652
165.826
166.047
166.171
166.221
166.235
166.219
166.241
166.284
166.371
166.536
166.704
166.791
166.822
166.804
166.768
166.794
166.841
166.949
167.153
167.382
167.498
167.543
167.545
167.466
167.413
167.441
167.485
167.584
167.772
168.072
168.245
168.321
168.352
168.329
168.216
168.167
168.195
168.24
168.285
168.361
168.511
168.79
169.024
169.131
169.174
169.177
169.097
169.031
169.055
169.097
169.176
169.333
169.595
169.768
169.846
169.876
169.852
169.775
169.775
169.816
169.871
169.996
170.217
170.412
170.505
170.544
170.545
170.52
170.545
170.588
170.654
170.785
170.928
170.997
171.03
171.053
171.092
171.166
171.318
171.544
171.684
171.742
171.759
171.693
171.572
171.565
171.605
171.653
171.76
171.964
172.306
172.502
172.588
172.623
172.605
172.465
172.339
172.348
172.39
172.454
172.593
172.865
173.181
173.323
173.382
173.404
173.347
173.199
173.166
173.201
173.25
173.36
173.572
173.926
174.124
174.209
174.245
174.226
174.078
173.937
173.942
173.984
174.045
174.178
174.44
174.784
174.943
175.011
175.039
175.001
174.849
174.78
174.808
174.852
174.933
175.095
175.404
175.65
175.757
175.803
175.809
175.722
175.611
175.617
175.66
175.712
175.826
176.039
176.303
176.436
176.492
176.517
176.49
176.471
176.505
176.551
176.621
176.753
176.886
176.946
176.977
176.993
177.032
177.092
177.223
177.441
177.603
177.674
177.702
177.665
177.57
177.569
177.61
177.673
177.809
178.075
178.35
178.474
178.526
178.542
178.474
178.343
178.333
178.374
178.423
178.529
178.729
179.004
179.149
179.21
179.238
179.204
179.137
179.152
179.197
179.254
179.378
179.593
179.768
179.85
179.887
179.883
179.856
179.883
179.929
179.998
180.14
180.319
180.425
180.471
180.484
180.478
180.512
180.559
180.652
180.825
181.002
181.091
181.13
181.128
181.093
181.114
181.159
181.223
181.355
181.546
181.676
181.731
181.757
181.757
181.787
181.832
181.911
182.065
182.253
182.357
182.404
182.417
182.375
182.365
182.403
182.451
182.5
182.555
182.667
182.875
183.154
183.296
183.357
183.385
183.344
183.203
183.158
183.193
183.24
183.327
183.497
183.819
184.05
184.151
184.196
184.203
184.117
184.014
184.026
184.071
184.125
184.242
184.461
184.725
184.853
184.909
184.934
184.892
184.824
184.841
184.887
184.942
185.056
185.26
185.453
185.545
185.588
185.596
185.569
185.589
185.636
185.691
185.804
185.974
186.101
186.157
186.186
186.193
186.228
186.276
186.357
186.506
186.655
186.726
186.762
186.767
186.789
186.834
186.903
187.044
187.239
187.357
187.409
187.424
187.362
187.293
187.317
187.364
187.426
187.557
187.815
188.162
188.321
188.391
188.428
188.413
188.278
188.147
188.154
188.197
188.246
188.297
188.35
188.452
188.642
189.003
189.251
189.357
189.406
189.423
189.354
189.158
189.09
189.12
189.168
189.22
189.324
189.521
189.871
190.085
190.177
190.222
190.233
190.159
190.071
190.087
190.134
190.184
190.272
190.442
190.678
190.812
190.872
190.904
190.897
190.902
190.944
190.994
191.074
191.214
191.345
191.406
191.438
191.444
191.475
191.523
191.6
191.753
191.952
192.066
192.117
192.137
192.104
192.1
192.142
192.193
192.284
192.457
192.65
192.749
192.796
192.813
192.793
192.813
192.86
192.914
193.02
193.182
193.305
193.36
193.388
193.393
193.427
193.476
193.558
193.718
193.919
194.028
194.079
194.095
194.039
193.997
194.031
194.079
194.153
194.298
194.546
194.717
194.793
194.834
194.831
194.773
194.778
194.823
194.874
194.965
195.14
195.375
195.504
195.563
195.597
195.587
195.567
195.601
195.65
195.702
195.753
195.805
195.857
195.913
196.014
196.201
196.472
196.62
196.687
196.726
196.719
196.601
196.484
196.497
196.544
196.595
196.683
196.852
197.186
197.446
197.555
197.607
197.633
197.587
197.471
197.462
197.505
197.556
197.62
197.747
197.972
198.153
198.238
198.283
198.297
198.274
198.296
198.345
198.398
198.493
198.655
198.798
198.865
198.903
198.91
198.927
198.975
199.028
199.129
199.299
199.444
199.511
199.549
199.547
199.544
199.586
199.637
199.716
199.866
200.052
200.155
200.205
200.231
200.236
200.273
200.323
200.393
200.526
200.68
200.761
200.803
200.801
200.73
200.724
200.768
200.822
200.922
201.118
201.425
201.592
201.665
201.707
201.706