/*--------------------------------*- C++ -*----------------------------------*\
  =========                 |
  \\      /  F ield         | OpenFOAM: The Open Source CFD Toolbox
   \\    /   O peration     | Website:  https://openfoam.org
    \\  /    A nd           | Version:  9
     \\/     M anipulation  |
\*---------------------------------------------------------------------------*/
FoamFile
{
    format      ascii;
    class       volScalarField;
    location    "0.012";
    object      rho;
}
// * * * * * * * * * * * * * * * * * * * * * * * * * * * * * * * * * * * * * //

dimensions      [1 -3 0 0 0 0 0];

internalField   nonuniform List<scalar> 
10000
(
0.999645
0.999645
0.999645
0.999645
0.999645
0.999645
0.999645
0.999645
0.999645
0.999645
0.999645
0.999645
0.999645
0.999645
0.999645
0.999645
0.999645
0.999645
0.999645
0.999645
0.999645
0.999645
0.999645
0.999645
0.999645
0.999645
0.999645
0.999645
0.999645
0.999645
0.999645
0.999645
0.999645
0.999645
0.999645
0.999645
0.999645
0.999645
0.999645
0.999645
0.999645
0.999645
0.999645
0.999645
0.999645
0.999645
0.999645
0.999645
0.999645
0.999645
0.999645
0.999645
0.999645
0.999645
0.999645
0.999645
0.999645
0.999645
0.999645
0.999645
0.999645
0.999645
0.999645
0.999645
0.999645
0.999645
0.999645
0.999645
0.999645
0.999645
0.999645
0.999645
0.999645
0.999645
0.999645
0.999645
0.999645
0.999645
0.999645
0.999645
0.999645
0.999645
0.999645
0.999645
0.999645
0.999645
0.999645
0.999645
0.999645
0.999645
0.999645
0.999645
0.999645
0.999645
0.999645
0.999645
0.999645
0.999645
0.999645
0.999645
0.999645
0.999645
0.999645
0.999645
0.999645
0.999645
0.999645
0.999645
0.999645
0.999645
0.999645
0.999645
0.999645
0.999645
0.999645
0.999645
0.999645
0.999645
0.999645
0.999645
0.999645
0.999645
0.999645
0.999645
0.999645
0.999645
0.999645
0.999645
0.999645
0.999645
0.999645
0.999645
0.999645
0.999645
0.999645
0.999645
0.999645
0.999645
0.999645
0.999645
0.999645
0.999645
0.999645
0.999645
0.999645
0.999645
0.999645
0.999645
0.999645
0.999645
0.999645
0.999645
0.999645
0.999645
0.999645
0.999645
0.999645
0.999645
0.999645
0.999645
0.999645
0.999645
0.999645
0.999645
0.999645
0.999645
0.999645
0.999645
0.999645
0.999645
0.999645
0.999645
0.999645
0.999645
0.999645
0.999645
0.999645
0.999645
0.999645
0.999645
0.999645
0.999645
0.999645
0.999645
0.999645
0.999645
0.999645
0.999645
0.999645
0.999645
0.999645
0.999645
0.999645
0.999645
0.999645
0.999645
0.999645
0.999645
0.999645
0.999645
0.999645
0.999645
0.999645
0.999645
0.999645
0.999645
0.999645
0.999645
0.999645
0.999645
0.999645
0.999645
0.999645
0.999645
0.999645
0.999645
0.999645
0.999645
0.999645
0.999645
0.999645
0.999645
0.999645
0.999645
0.999645
0.999645
0.999645
0.999645
0.999645
0.999645
0.999645
0.999645
0.999645
0.999645
0.999645
0.999645
0.999645
0.999645
0.999645
0.999645
0.999645
0.999645
0.999645
0.999645
0.999645
0.999645
0.999645
0.999645
0.999645
0.999645
0.999645
0.999645
0.999645
0.999645
0.999645
0.999645
0.999645
0.999645
0.999645
0.999645
0.999645
0.999645
0.999645
0.999645
0.999645
0.999645
0.999645
0.999645
0.999645
0.999645
0.999645
0.999645
0.999645
0.999645
0.999645
0.999645
0.999645
0.999645
0.999645
0.999645
0.999645
0.999645
0.999645
0.999645
0.999645
0.999645
0.999645
0.999645
0.999645
0.999645
0.999645
0.999645
0.999645
0.999645
0.999645
0.999645
0.999645
0.999645
0.999645
0.999645
0.999645
0.999645
0.999645
0.999645
0.999645
0.999645
0.999645
0.999645
0.999645
0.999645
0.999645
0.999645
0.999645
0.999645
0.999645
0.999645
0.999645
0.999645
0.999645
0.999645
0.999645
0.999645
0.999645
0.999645
0.999645
0.999645
0.999645
0.999645
0.999645
0.999645
0.999645
0.999645
0.999645
0.999645
0.999645
0.999645
0.999645
0.999645
0.999645
0.999645
0.999645
0.999645
0.999645
0.999645
0.999645
0.999645
0.999645
0.999645
0.999645
0.999645
0.999645
0.999645
0.999645
0.999645
0.999645
0.999645
0.999645
0.999645
0.999645
0.999645
0.999645
0.999645
0.999645
0.999645
0.999645
0.999645
0.999645
0.999645
0.999645
0.999645
0.999645
0.999645
0.999645
0.999645
0.999645
0.999645
0.999645
0.999645
0.999645
0.999645
0.999645
0.999645
0.999645
0.999645
0.999645
0.999645
0.999645
0.999645
0.999645
0.999645
0.999645
0.999645
0.999645
0.999645
0.999645
0.999645
0.999645
0.999645
0.999645
0.999645
0.999645
0.999645
0.999645
0.999645
0.999645
0.999645
0.999645
0.999645
0.999645
0.999645
0.999645
0.999645
0.999645
0.999645
0.999645
0.999645
0.999645
0.999645
0.999645
0.999645
0.999645
0.999645
0.999645
0.999645
0.999645
0.999645
0.999645
0.999645
0.999645
0.999645
0.999645
0.999645
0.999645
0.999645
0.999645
0.999645
0.999645
0.999645
0.999645
0.999645
0.999645
0.999645
0.999645
0.999645
0.999645
0.999645
0.999645
0.999645
0.999645
0.999645
0.999645
0.999645
0.999645
0.999645
0.999645
0.999645
0.999645
0.999645
0.999645
0.999645
0.999645
0.999645
0.999645
0.999645
0.999645
0.999645
0.999645
0.999645
0.999645
0.999645
0.999645
0.999645
0.999645
0.999645
0.999645
0.999645
0.999645
0.999645
0.999645
0.999645
0.999645
0.999645
0.999645
0.999645
0.999645
0.999645
0.999645
0.999645
0.999645
0.999645
0.999645
0.999645
0.999645
0.999645
0.999645
0.999645
0.999645
0.999645
0.999645
0.999645
0.999645
0.999645
0.999645
0.999645
0.999645
0.999645
0.999645
0.999645
0.999645
0.999645
0.999645
0.999645
0.999645
0.999645
0.999645
0.999645
0.999645
0.999645
0.999645
0.999645
0.999645
0.999645
0.999645
0.999645
0.999645
0.999645
0.999645
0.999645
0.999645
0.999645
0.999645
0.999645
0.999645
0.999645
0.999645
0.999645
0.999645
0.999645
0.999645
0.999645
0.999645
0.999645
0.999645
0.999645
0.999645
0.999645
0.999645
0.999645
0.999645
0.999645
0.999645
0.999645
0.999645
0.999645
0.999645
0.999645
0.999645
0.999645
0.999645
0.999645
0.999645
0.999645
0.999645
0.999645
0.999645
0.999645
0.999645
0.999645
0.999645
0.999645
0.999645
0.999645
0.999645
0.999645
0.999645
0.999645
0.999645
0.999645
0.999645
0.999645
0.999645
0.999645
0.999645
0.999645
0.999645
0.999645
0.999645
0.999645
0.999645
0.999645
0.999645
0.999645
0.999645
0.999645
0.999645
0.999645
0.999644
0.999643
0.999636
0.999615
0.999547
0.999325
0.998601
0.996186
0.990518
0.985718
0.983303
0.981862
0.981395
0.980927
0.98063
0.980548
0.980522
0.98034
0.980162
0.980086
0.980089
0.979951
0.979782
0.979681
0.979697
0.97961
0.979459
0.979352
0.979364
0.979321
0.979199
0.979103
0.979103
0.979092
0.979004
0.978929
0.97892
0.978928
0.978873
0.978823
0.978814
0.978827
0.978802
0.978777
0.978775
0.978786
0.978778
0.978766
0.978753
0.978724
0.978626
0.978307
0.977295
0.974059
0.968267
0.964212
0.962164
0.960915
0.960467
0.960089
0.959814
0.959712
0.9597
0.959564
0.959405
0.959305
0.959312
0.959231
0.959076
0.958957
0.958955
0.958928
0.958799
0.958686
0.958654
0.958662
0.958573
0.958475
0.958424
0.958442
0.958396
0.958317
0.958263
0.958274
0.95826
0.958204
0.95816
0.958159
0.958162
0.958129
0.958098
0.95809
0.958098
0.958082
0.958063
0.958054
0.958061
0.958056
0.958045
0.958039
0.958043
0.958042
0.958038
0.958035
0.958036
0.958037
0.958035
0.958034
0.958034
0.958035
0.958034
0.958034
0.958034
0.958034
0.958034
0.958034
0.958034
0.958034
0.958034
0.958034
0.958034
0.958034
0.958034
0.958034
0.958034
0.958034
0.958034
0.958034
0.958034
0.958034
0.958034
0.958034
0.958034
0.958034
0.958034
0.958034
0.958034
0.958034
0.958034
0.958034
0.958034
0.958034
0.958034
0.958034
0.958034
0.958034
0.958034
0.958034
0.958034
0.958034
0.958034
0.958034
0.958034
0.958034
0.958034
0.958034
0.958034
0.958034
0.958034
0.958034
0.958033
0.95803
0.958021
0.95799
0.957892
0.957571
0.956518
0.953664
0.950724
0.949059
0.948383
0.947801
0.94756
0.947528
0.947399
0.947242
0.947134
0.947134
0.947075
0.946922
0.946791
0.946755
0.946744
0.946619
0.946481
0.946398
0.946406
0.946332
0.946194
0.946085
0.946073
0.946051
0.945929
0.945814
0.945763
0.94577
0.945689
0.945575
0.945496
0.945502
0.945466
0.945363
0.945277
0.945258
0.945258
0.945181
0.9451
0.945057
0.945069
0.945028
0.944957
0.944905
0.94491
0.944899
0.944845
0.9448
0.944792
0.944798
0.944766
0.944733
0.94472
0.944731
0.944719
0.9447
0.944692
0.944701
0.9447
0.944691
0.944676
0.944646
0.944555
0.944254
0.943287
0.941701
0.940662
0.940157
0.939833
0.939705
0.939623
0.93954
0.939486
0.939465
0.939431
0.939383
0.939342
0.93932
0.939297
0.939262
0.93923
0.939211
0.939196
0.939172
0.93915
0.939136
0.939126
0.939113
0.939099
0.939092
0.93909
0.939084
0.939079
0.939077
0.939078
0.939075
0.93907
0.939064
0.93905
0.939001
0.938838
0.938314
0.936689
0.934319
0.932817
0.932126
0.931627
0.931437
0.93137
0.931238
0.931135
0.931089
0.931086
0.931013
0.930912
0.930839
0.930842
0.930815
0.930727
0.930653
0.930634
0.930642
0.930587
0.930524
0.93049
0.930506
0.930487
0.930445
0.930417
0.930427
0.93043
0.930416
0.930404
0.930397
0.93038
0.930317
0.930106
0.929446
0.928267
0.927478
0.926993
0.926818
0.926697
0.926593
0.926542
0.926543
0.92651
0.926449
0.926402
0.926401
0.926398
0.926357
0.926321
0.926312
0.926325
0.926311
0.926293
0.92629
0.926296
0.926292
0.926272
0.926223
0.926092
0.925684
0.924574
0.92341
0.922714
0.922477
0.92225
0.922119
0.922087
0.922083
0.922008
0.921935
0.921899
0.921922
0.921896
0.921851
0.921828
0.921843
0.921844
0.921816
0.921752
0.921593
0.921112
0.920246
0.919643
0.919285
0.919191
0.919107
0.919014
0.918955
0.918969
0.918956
0.918905
0.918869
0.918873
0.918886
0.918871
0.918848
0.918825
0.918776
0.918614
0.91807
0.917004
0.916191
0.915848
0.915557
0.915418
0.915401
0.915359
0.915277
0.915214
0.915209
0.915213
0.915165
0.915118
0.915102
0.915121
0.91511
0.915086
0.915075
0.915074
0.915056
0.91498
0.914741
0.914043
0.913019
0.912403
0.911998
0.911834
0.911762
0.911661
0.911588
0.911559
0.911557
0.911514
0.911462
0.911427
0.911434
0.911426
0.911391
0.911365
0.911364
0.911377
0.911372
0.911356
0.911342
0.911325
0.911272
0.911085
0.910469
0.909082
0.907899
0.907261
0.906951
0.906725
0.906636
0.906616
0.906557
0.906487
0.906436
0.906437
0.906425
0.906367
0.906313
0.906285
0.906297
0.906275
0.906227
0.906191
0.906187
0.906196
0.906172
0.906144
0.906131
0.906142
0.906142
0.906131
0.906121
0.906119
0.906118
0.906102
0.906043
0.90587
0.905344
0.903971
0.902537
0.901673
0.901296
0.90103
0.900879
0.900837
0.900808
0.900737
0.900675
0.900646
0.900655
0.900618
0.900564
0.900527
0.900538
0.900537
0.90051
0.900488
0.900489
0.900495
0.900478
0.900425
0.900285
0.899872
0.898931
0.898125
0.897614
0.897429
0.897314
0.897196
0.897124
0.897122
0.897103
0.897033
0.896974
0.896953
0.896969
0.896938
0.896895
0.896871
0.896886
0.896889
0.896876
0.896863
0.896855
0.896839
0.896782
0.896589
0.895988
0.894716
0.893678
0.893192
0.892818
0.892678
0.892672
0.892596
0.892506
0.892448
0.892467
0.892459
0.892406
0.892362
0.892358
0.892378
0.892366
0.89234
0.892321
0.892308
0.892261
0.892092
0.891563
0.890537
0.889747
0.889374
0.889077
0.888931
0.888901
0.888849
0.888766
0.888702
0.888691
0.888693
0.888643
0.888596
0.888576
0.888594
0.888586
0.888563
0.888551
0.88855
0.888537
0.888481
0.888308
0.887792
0.886735
0.885904
0.88539
0.885188
0.885056
0.884945
0.884885
0.884881
0.884848
0.88478
0.884728
0.88472
0.884731
0.884698
0.88466
0.884646
0.884664
0.884664
0.88464
0.884592
0.88449
0.884203
0.883404
0.882474
0.881864
0.881633
0.881498
0.881364
0.881288
0.881295
0.881281
0.881224
0.881181
0.881184
0.881202
0.881178
0.881118
0.880984
0.880636
0.879986
0.87951
0.879163
0.879031
0.879011
0.878935
0.878855
0.878804
0.878828
0.878821
0.878784
0.878755
0.878739
0.878706
0.878581
0.878168
0.877361
0.876723
0.876464
0.876236
0.876095
0.876045
0.876054
0.875993
0.875919
0.875872
0.875894
0.875897
0.875869
0.87584
0.875823
0.875796
0.875699
0.87537
0.874581
0.873796
0.87341
0.873146
0.872971
0.872907
0.872899
0.872836
0.872765
0.872718
0.872733
0.872726
0.872685
0.872653
0.872648
0.872655
0.872624
0.87252
0.872227
0.871505
0.87072
0.870289
0.869968
0.869825
0.8698
0.86974
0.869658
0.869598
0.869591
0.869598
0.869561
0.86952
0.869508
0.869518
0.869511
0.86946
0.869308
0.868892
0.868095
0.867454
0.86714
0.866873
0.866745
0.86673
0.866732
0.866665
0.866582
0.866535
0.866555
0.866579
0.866558
0.866507
0.866447
0.866334
0.866002
0.865314
0.864747
0.864384
0.86427
0.864224
0.864123
0.864043
0.86401
0.864036
0.864007
0.863957
0.863928
0.863918
0.863878
0.86372
0.863228
0.862455
0.861943
0.861743
0.861539
0.861414
0.861371
0.861383
0.861324
0.861245
0.861192
0.861204
0.86121
0.861178
0.86114
0.861126
0.861125
0.861084
0.860934
0.860484
0.859585
0.858848
0.858492
0.858194
0.858047
0.85803
0.857998
0.857911
0.857837
0.857804
0.857826
0.857794
0.857741
0.857708
0.857722
0.857734
0.857712
0.857668
0.857586
0.857389
0.856815
0.85591
0.855254
0.854894
0.854767
0.854647
0.854546
0.854485
0.854489
0.854464
0.854397
0.854344
0.854326
0.854346
0.854328
0.854295
0.854279
0.854275
0.854257
0.854182
0.853953
0.853334
0.85243
0.85185
0.851544
0.851305
0.851197
0.85119
0.851151
0.851068
0.851003
0.850976
0.850999
0.850973
0.850924
0.850894
0.850901
0.850917
0.850893
0.850836
0.85071
0.850389
0.849633
0.84888
0.848409
0.848117
0.848011
0.847971
0.84788
0.8478
0.847751
0.847767
0.847746
0.847691
0.84765
0.847648
0.847666
0.847652
0.847624
0.847585
0.847512
0.847315
0.846727
0.845837
0.84521
0.844943
0.844746
0.844608
0.844545
0.844544
0.844493
0.844414
0.844354
0.844346
0.844358
0.844319
0.844268
0.844242
0.844258
0.844266
0.844246
0.844212
0.844167
0.844069
0.843773
0.842946
0.841943
0.841281
0.841006
0.840859
0.840695
0.840593
0.840573
0.840581
0.840519
0.84044
0.840386
0.840393
0.840401
0.840364
0.840318
0.840302
0.840322
0.840328
0.840303
0.840259
0.840178
0.839981
0.839408
0.838451
0.837739
0.837314
0.837158
0.837063
0.836942
0.836858
0.83683
0.836842
0.836796
0.836729
0.836682
0.836683
0.836698
0.836672
0.836633
0.836617
0.836622
0.836623
0.836589
0.83649
0.836226
0.835544
0.83465
0.834097
0.833707
0.83351
0.833469
0.833416
0.833325
0.833254
0.833225
0.833245
0.833214
0.833163
0.833129
0.833135
0.833145
0.833126
0.833094
0.83304
0.832918
0.83256
0.83179
0.831076
0.830688
0.830492
0.830323
0.830235
0.830227
0.830201
0.830135
0.830078
0.830051
0.830078
0.830073
0.830038
0.830002
0.829965
0.829889
0.82965
0.829026
0.828335
0.827917
0.827752
0.827607
0.827499
0.827447
0.827433
0.827383
0.827319
0.82727
0.82727
0.827261
0.827224
0.827196
0.827195
0.827205
0.827181
0.827118
0.826968
0.826576
0.825703
0.824874
0.824342
0.82402
0.823904
0.823842
0.823742
0.823661
0.823618
0.823633
0.823589
0.823511
0.823449
0.823427
0.823455
0.823443
0.82341
0.823387
0.823379
0.823367
0.82331
0.823131
0.82263
0.821758
0.821107
0.820769
0.820492
0.820341
0.820303
0.820282
0.820205
0.820131
0.82008
0.820093
0.820071
0.820013
0.819966
0.819951
0.819971
0.819963
0.81994
0.819916
0.819888
0.81981
0.819552
0.818848
0.817934
0.81735
0.817077
0.816855
0.816726
0.816686
0.816675
0.81661
0.816537
0.816484
0.816491
0.816483
0.816443
0.816407
0.816401
0.816411
0.816385
0.816288
0.816005
0.815445
0.81498
0.814782
0.814597
0.81449
0.814459
0.814466
0.814396
0.814214
0.813821
0.8133
0.812986
0.812801
0.812595
0.812466
0.812427
0.812431
0.812355
0.812261
0.812197
0.812209
0.812224
0.812191
0.812133
0.812078
0.811983
0.811713
0.811097
0.810509
0.810147
0.810037
0.809968
0.809865
0.809789
0.809746
0.809683
0.809474
0.80911
0.80879
0.808635
0.808617
0.808535
0.808422
0.808341
0.808342
0.808367
0.808303
0.808158
0.807844
0.807379
0.807082
0.806896
0.806695
0.806568
0.806546
0.806562
0.806506
0.806418
0.80634
0.806258
0.806059
0.805607
0.805133
0.804793
0.804646
0.804634
0.804539
0.804411
0.804319
0.80431
0.804349
0.804303
0.8042
0.804021
0.803671
0.803305
0.803102
0.802868
0.802718
0.802655
0.80269
0.802643
0.802535
0.802369
0.802117
0.801855
0.801654
0.801402
0.801172
0.801001
0.800927
0.800841
0.800666
0.800473
0.800303
0.80021
0.800118
0.799933
0.79972
0.799534
0.799423
0.799335
0.799167
0.798968
0.798789
0.798666
0.798555
0.798392
0.79821
0.798049
0.797934
0.797809
0.797635
0.797452
0.797297
0.797184
0.797037
0.796837
0.796644
0.796499
0.796478
0.796357
0.796107
0.795856
0.795652
0.795608
0.795594
0.795379
0.795109
0.794888
0.794787
0.794815
0.794646
0.794369
0.794111
0.793917
0.793896
0.793928
0.793752
0.793487
0.793248
0.793061
0.792968
0.792818
0.792636
0.792492
0.792505
0.792431
0.792188
0.791896
0.791669
0.791519
0.791549
0.791455
0.791206
0.790964
0.79078
0.790782
0.79071
0.790468
0.790199
0.789989
0.789918
0.789935
0.789752
0.78948
0.78925
0.789097
0.789124
0.789012
0.788756
0.788502
0.788306
0.788286
0.78827
0.788053
0.787782
0.787561
0.787441
0.787477
0.787339
0.787078
0.786833
0.786647
0.786645
0.786604
0.786373
0.786092
0.785869
0.785737
0.78579
0.785757
0.785527
0.785251
0.785016
0.784838
0.784771
0.784625
0.784423
0.784253
0.784248
0.784177
0.783939
0.783681
0.783475
0.783426
0.783386
0.783162
0.782893
0.782675
0.78256
0.782618
0.782533
0.782288
0.782009
0.781795
0.781692
0.781691
0.781511
0.781256
0.781042
0.780944
0.780972
0.780808
0.780538
0.780284
0.780093
0.780074
0.780084
0.779883
0.779606
0.779369
0.779201
0.779223
0.779175
0.778942
0.778658
0.778435
0.778299
0.77835
0.778277
0.778031
0.777711
0.777464
0.77729
0.777316
0.777431
0.77732
0.777057
0.776708
0.776422
0.77622
0.776165
0.776263
0.776215
0.775976
0.775657
0.775377
0.775176
0.775125
0.775222
0.775164
0.774924
0.774616
0.774359
0.774169
0.774144
0.77418
0.773998
0.773721
0.773452
0.773253
0.773207
0.773294
0.773197
0.772942
0.772616
0.772347
0.772149
0.772091
0.77216
0.772068
0.771828
0.771601
0.771441
0.771383
0.771195
0.770938
0.770703
0.770521
0.77052
0.770616
0.770516
0.770271
0.769978
0.769715
0.769481
0.769276
0.769119
0.769121
0.769214
0.769134
0.768888
0.768552
0.768213
0.767996
0.767861
0.767958
0.768167
0.768148
0.767917
0.767586
0.767152
0.766845
0.766637
0.766521
0.766621
0.766795
0.766736
0.766501
0.76619
0.765878
0.765636
0.765414
0.765223
0.765085
0.765008
0.765022
0.765074
0.764955
0.764703
0.764379
0.76409
0.763886
0.763806
0.763912
0.763998
0.763835
0.763561
0.763193
0.762873
0.762641
0.76245
0.762409
0.762531
0.762584
0.762399
0.762124
0.761822
0.761605
0.761455
0.761484
0.761406
0.761173
0.760911
0.760705
0.760608
0.76063
0.760479
0.760239
0.760034
0.759951
0.759928
0.759728
0.759465
0.759238
0.759066
0.759063
0.758981
0.758755
0.758546
0.758426
0.758475
0.758372
0.758127
0.757815
0.757536
0.757312
0.757124
0.757081
0.757196
0.757239
0.757052
0.756776
0.756465
0.756232
0.756052
0.756033
0.756078
0.755921
0.755669
0.755437
0.755251
0.755202
0.755087
0.754859
0.754645
0.754485
0.754505
0.754431
0.754203
0.753958
0.75376
0.753703
0.753659
0.753447
0.753198
0.752992
0.752881
0.752919
0.752799
0.752559
0.752332
0.752153
0.752117
0.751997
0.751766
0.751543
0.751368
0.751365
0.751333
0.751119
0.750862
0.750652
0.750527
0.750543
0.750399
0.750154
0.74993
0.749758
0.749758
0.749673
0.749444
0.749195
0.748998
0.748922
0.748937
0.74877
0.748525
0.748316
0.74818
0.748203
0.748077
0.747836
0.747603
0.74742
0.747403
0.747333
0.747106
0.746823
0.746603
0.746447
0.746488
0.746597
0.746474
0.746221
0.745871
0.745556
0.745338
0.745167
0.745151
0.745205
0.745093
0.744917
0.744781
0.744796
0.744672
0.744415
0.744036
0.743674
0.743462
0.743329
0.743436
0.743713
0.743767
0.743572
0.743274
0.742799
0.742375
0.74214
0.741965
0.741982
0.742208
0.742343
0.742196
0.741927
0.741505
0.741049
0.74079
0.740605
0.740583
0.740817
0.741099
0.741058
0.740829
0.740489
0.739943
0.739512
0.739279
0.739104
0.739114
0.73938
0.739635
0.739569
0.739334
0.738983
0.738464
0.738098
0.737887
0.737732
0.737797
0.738051
0.738152
0.737985
0.737713
0.737299
0.736909
0.736682
0.736512
0.736533
0.736732
0.736801
0.736622
0.736345
0.735946
0.735618
0.735413
0.735272
0.735333
0.735477
0.73539
0.735157
0.734836
0.734525
0.734317
0.734166
0.734199
0.734291
0.734166
0.73393
0.733674
0.733474
0.733361
0.733336
0.733162
0.732924
0.732705
0.73253
0.732505
0.732423
0.732208
0.731998
0.731837
0.731859
0.731944
0.731799
0.731536
0.731138
0.730775
0.730566
0.730422
0.730504
0.730756
0.730799
0.730603
0.730309
0.72982
0.729351
0.729098
0.728916
0.728879
0.729123
0.729554
0.72966
0.729494
0.729222
0.728781
0.728135
0.727738
0.72751
0.727333
0.727307
0.727533
0.727824
0.727799
0.727584
0.727275
0.726809
0.726454
0.726247
0.726094
0.726157
0.726414
0.726511
0.726344
0.726073
0.725638
0.725169
0.724906
0.724722
0.724658
0.724851
0.72521
0.725276
0.725098
0.724825
0.724391
0.723825
0.723487
0.723262
0.723077
0.722966
0.723085
0.723417
0.723554
0.72341
0.723154
0.722757
0.722228
0.721905
0.721706
0.721562
0.721635
0.72192
0.722054
0.72191
0.721657
0.721275
0.720853
0.7206
0.720415
0.720346
0.720472
0.720586
0.720448
0.720203
0.719864
0.719569
0.719373
0.719247
0.719312
0.71942
0.719295
0.719059
0.718753
0.718497
0.71831
0.71821
0.718265
0.718178
0.717961
0.717717
0.717528
0.717431
0.71751
0.717465
0.717247
0.716923
0.716506
0.716244
0.716063
0.716017
0.716209
0.716446
0.716383
0.716162
0.715839
0.715396
0.715098
0.714907
0.71479
0.714886
0.715074
0.715011
0.714789
0.714462
0.714013
0.713714
0.713525
0.71341
0.713523
0.713786
0.713808
0.713614
0.713339
0.712925
0.712588
0.712382
0.712224
0.712243
0.712408
0.712391
0.712188
0.711906
0.711565
0.711332
0.711157
0.711126
0.711266
0.711288
0.711097
0.710825
0.710439
0.71014
0.709945
0.709801
0.709853
0.710037
0.710016
0.709813
0.709537
0.709206
0.70897
0.708789
0.708698
0.70877
0.70874
0.708543
0.708308
0.708105
0.707945
0.707893
0.707757
0.707546
0.707342
0.707173
0.707147
0.707151
0.706978
0.706747
0.706546
0.706394
0.706414
0.706424
0.706242
0.705991
0.705676
0.705424
0.705217
0.705038
0.704923
0.705003
0.705193
0.705165
0.704966
0.704707
0.704404
0.704167
0.703961
0.703758
0.703559
0.703359
0.703182
0.703058
0.703135
0.703373
0.703408
0.703223
0.702955
0.702528
0.702131
0.701906
0.701734
0.701712
0.701911
0.702084
0.701974
0.701742
0.701392
0.700927
0.700638
0.70045
0.700328
0.700422
0.700681
0.700717
0.700535
0.700273
0.699876
0.699534
0.699325
0.699161
0.69915
0.699299
0.699299
0.699107
0.698841
0.698518
0.698298
0.69813
0.698111
0.698257
0.698252
0.698056
0.697775
0.697371
0.69708
0.696895
0.696784
0.69689
0.697123
0.697099
0.696896
0.696603
0.696137
0.695766
0.695559
0.6954
0.695415
0.695698
0.695974
0.695917
0.695706
0.695399
0.694883
0.694429
0.694188
0.694012
0.693928
0.694075
0.694374
0.6944
0.694218
0.693958
0.693547
0.693159
0.692931
0.692759
0.692693
0.692824
0.692953
0.692832
0.692607
0.69229
0.691981
0.691779
0.691618
0.691605
0.691722
0.691657
0.691452
0.691173
0.690888
0.690691
0.690538
0.69054
0.690622
0.690504
0.690286
0.690019
0.689802
0.689634
0.689583
0.689639
0.689521
0.689303
0.689045
0.688843
0.688686
0.688677
0.688763
0.688655
0.688439
0.688152
0.687861
0.687647
0.687464
0.687312
0.687316
0.687479
0.687492
0.687307
0.687051
0.686669
0.686357
0.686164
0.686014
0.686044
0.686269
0.686356
0.686202
0.685965
0.685606
0.685216
0.684978
0.684799
0.68467
0.684716
0.684829
0.684728
0.684522
0.684283
0.684093
0.683947
0.683945
0.683841
0.683632
0.683378
0.683175
0.683021
0.683028
0.683178
0.683132
0.68293
0.682638
0.682219
0.681927
0.681743
0.681612
0.681676
0.681901
0.681916
0.681733
0.681481
0.681116
0.680831
0.680647
0.680511
0.680556
0.680703
0.680626
0.680417
0.680112
0.67972
0.679471
0.679298
0.679222
0.679387
0.679741
0.679803
0.679639
0.67939
0.678978
0.678326
0.677907
0.677681
0.677506
0.677382
0.67746
0.677819
0.67808
0.678009
0.677805
0.677514
0.677042
0.676645
0.676424
0.676257
0.676186
0.676339
0.676595
0.676563
0.676369
0.676096
0.675652
0.675269
0.675054
0.674891
0.674844
0.67503
0.675275
0.67522
0.675021
0.674736
0.674277
0.673906
0.673696
0.673533
0.673493
0.673692
0.673963
0.673925
0.673731
0.673459
0.673011
0.672594
0.672363
0.672192
0.672082
0.672172
0.672403
0.672401
0.67222
0.671978
0.671652
0.671404
0.671223
0.671083
0.671095
0.671136
0.670988
0.670769
0.67051
0.67031
0.67015
0.670116
0.67017
0.670044
0.669831
0.669564
0.669353
0.669191
0.66915
0.669277
0.669274
0.669092
0.668841
0.668494
0.66824
0.668064
0.667947
0.668009
0.668115
0.667998
0.667784
0.66747
0.667134
0.666925
0.666765
0.666727
0.666898
0.667046
0.666935
0.666725
0.666425
0.666048
0.665802
0.665621
0.66547
0.665452
0.665552
0.665483
0.665295
0.665086
0.664915
0.664814
0.664849
0.664743
0.664533
0.664226
0.663907
0.663707
0.66355
0.66353
0.663704
0.663795
0.663656
0.663443
0.663172
0.662948
0.662778
0.66268
0.662694
0.662558
0.662335
0.661988
0.661618
0.661405
0.661245
0.66121
0.661429
0.661753
0.661745
0.661565
0.661313
0.660888
0.660411
0.660157
0.659983
0.65985
0.6599
0.660163
0.660271
0.660134
0.659915
0.659583
0.659168
0.658919
0.658746
0.658623
0.658687
0.658908
0.658911
0.658735
0.658491
0.658103
0.657752
0.657548
0.65739
0.657343
0.657517
0.657726
0.657651
0.657454
0.657174
0.656735
0.656405
0.656211
0.656055
0.65602
0.656204
0.656385
0.656291
0.65609
0.6558
0.655378
0.65509
0.654908
0.654762
0.654768
0.654991
0.655124
0.655002
0.654792
0.654484
0.654041
0.65375
0.65356
0.653403
0.65334
0.653463
0.653568
0.653448
0.653248
0.653004
0.652799
0.652637
0.652552
0.652605
0.652521
0.652328
0.652067
0.651812
0.651637
0.6515
0.651524
0.651616
0.651503
0.651297
0.650987
0.650618
0.650395
0.650234
0.650157
0.650302
0.650594
0.650599
0.650426
0.650188
0.649788
0.649329
0.649081
0.648911
0.648781
0.64883
0.6491
0.649221
0.649092
0.648882
0.648563
0.648097
0.6478
0.647617
0.647466
0.647446
0.647659
0.647885
0.647816
0.647627
0.647366
0.646957
0.646626
0.646427
0.646268
0.646181
0.646273
0.646358
0.646229
0.646023
0.645723
0.645424
0.645236
0.645085
0.645063
0.645253
0.645383
0.645264
0.645059
0.644752
0.64431
0.644027
0.643847
0.643698
0.643682
0.643881
0.644038
0.643934
0.643737
0.64346
0.643083
0.642831
0.642656
0.642509
0.642487
0.642625
0.642625
0.642458
0.642239
0.64196
0.641746
0.641582
0.641463
0.641498
0.641481
0.641313
0.641093
0.640846
0.640666
0.640522
0.640515
0.640645
0.640595
0.640413
0.640161
0.639796
0.639532
0.639359
0.63922
0.639231
0.639429
0.639479
0.63933
0.639119
0.638811
0.638515
0.638322
0.638166
0.638079
0.638154
0.638146
0.63798
0.637757
0.63747
0.637261
0.637103
0.637026
0.637144
0.637282
0.637179
0.636982
0.636691
0.636255
0.635966
0.635788
0.635644
0.635634
0.63587
0.636103
0.636034
0.635849
0.63559
0.635147
0.634714
0.634489
0.634326
0.634198
0.63424
0.634511
0.634642
0.634524
0.634325
0.634035
0.633603
0.633311
0.633127
0.632978
0.632923
0.633073
0.633249
0.633164
0.632978
0.63272
0.63234
0.632066
0.631887
0.631739
0.631694
0.63185
0.632011
0.631921
0.631739
0.631507
0.63124
0.631039
0.630863
0.630689
0.63051
0.630316
0.630091
0.629896
0.629732
0.629597
0.62961
0.629854
0.63003
0.629934
0.629745
0.62948
0.629055
0.628718
0.628523
0.628366
0.628256
0.628317
0.628494
0.628449
0.628277
0.628051
0.627763
0.627554
0.627395
0.627282
0.627329
0.627405
0.627283
0.627087
0.626798
0.626476
0.626277
0.626124
0.626043
0.626162
0.626356
0.626292
0.626114
0.625867
0.625463
0.625112
0.624915
0.624761
0.624661
0.624756
0.625058
0.625133
0.624997
0.624797
0.624504
0.624038
0.623696
0.623498
0.623328
0.623171
0.623044
0.623061
0.623313
0.623516
0.623434
0.623254
0.62301
0.622607
0.622233
0.622027
0.621869
0.621742
0.621774
0.622004
0.622082
0.621948
0.62175
0.621456
0.621057
0.620809
0.620639
0.620496
0.620451
0.620603
0.620729
0.620623
0.620438
0.620189
0.619889
0.619685
0.619524
0.619389
0.619376
0.619386
0.619244
0.619053
0.618842
0.618679
0.618547
0.618564
0.618744
0.618738
0.618576
0.618356
0.617987
0.61751
0.61725
0.617076
0.616928
0.616845
0.616969
0.617338
0.617462
0.617343
0.617152
0.616872
0.616363
0.615883
0.615653
0.61549
0.615352
0.615337
0.615579
0.615921
0.615919
0.615762
0.615549
0.615199
0.614676
0.614368
0.614187
0.61404
0.613963
0.614101
0.614492
0.614617
0.614498
0.614308
0.614027
0.613506
0.613
0.612764
0.6126
0.61246
0.612433
0.612658
0.613044
0.613081
0.612937
0.612736
0.612421
0.611892
0.61152
0.611324
0.611171
0.61105
0.61109
0.611393
0.611612
0.611535
0.611361
0.611124
0.610718
0.610265
0.610032
0.609865
0.609721
0.609655
0.609789
0.610038
0.610014
0.609856
0.609653
0.609353
0.60907
0.608887
0.608732
0.608603
0.608598
0.608582
0.60843
0.608237
0.608017
0.607849
0.60771
0.60768
0.607835
0.607882
0.607742
0.607545
0.607231
0.606808
0.606562
0.606399
0.606264
0.606245
0.60647
0.60674
0.606697
0.606534
0.606315
0.605946
0.605461
0.605199
0.605029
0.604884
0.604802
0.604912
0.605175
0.60518
0.605028
0.604831
0.604524
0.604154
0.603937
0.603777
0.603639
0.603596
0.603735
0.603817
0.603695
0.603513
0.60326
0.602962
0.602768
0.602613
0.602486
0.60248
0.602576
0.602497
0.602328
0.602106
0.601848
0.601665
0.601518
0.601419
0.601482
0.601567
0.601457
0.601279
0.601031
0.600719
0.600515
0.600359
0.600225
0.600198
0.600315
0.600285
0.600129
0.599931
0.599682
0.599492
0.599342
0.599223
0.599245
0.599354
0.599274
0.599106
0.598886
0.598562
0.5983
0.598124
0.597965
0.59781
0.597673
0.597605
0.597728
0.597995
0.597995
0.597845
0.597649
0.597335
0.596834
0.596513
0.596333
0.596186
0.596078
0.596134
0.596454
0.596642
0.596554
0.596384
0.596154
0.595756
0.595328
0.595109
0.594948
0.594811
0.594751
0.594893
0.595137
0.595105
0.59495
0.59475
0.594433
0.594066
0.593856
0.593698
0.593561
0.593499
0.593618
0.59373
0.593628
0.593458
0.593231
0.592936
0.592732
0.592575
0.592437
0.592373
0.59245
0.592417
0.592264
0.592072
0.59184
0.591662
0.591516
0.591403
0.591427
0.591447
0.591314
0.591135
0.590899
0.590697
0.590544
0.590418
0.590412
0.590532
0.59048
0.59032
0.590107
0.589753
0.589389
0.589192
0.589039
0.588908
0.588878
0.589089
0.589466
0.589503
0.589369
0.589188
0.588923
0.588442
0.587969
0.587741
0.587577
0.587422
0.587269
0.587134
0.587048
0.587143
0.587526
0.587741
0.587664
0.587503
0.58729
0.58693
0.586342
0.585985
0.585798
0.585644
0.585507
0.585425
0.585529
0.585898
0.586047
0.585948
0.585782
0.585561
0.585188
0.584792
0.584583
0.584426
0.584285
0.584183
0.584233
0.584421
0.584403
0.584256
0.584073
0.583818
0.583586
0.583423
0.58328
0.583168
0.583182
0.58316
0.583015
0.582833
0.582601
0.582417
0.582272
0.582156
0.582173
0.5823
0.582239
0.582082
0.581879
0.581578
0.581333
0.58117
0.581031
0.580934
0.580992
0.581103
0.581017
0.580856
0.580647
0.580369
0.580167
0.580014
0.579878