/*--------------------------------*- C++ -*----------------------------------*\
  =========                 |
  \\      /  F ield         | OpenFOAM: The Open Source CFD Toolbox
   \\    /   O peration     | Website:  https://openfoam.org
    \\  /    A nd           | Version:  9
     \\/     M anipulation  |
\*---------------------------------------------------------------------------*/
FoamFile
{
    format      ascii;
    class       volScalarField;
    location    "0.012";
    object      T;
}
// * * * * * * * * * * * * * * * * * * * * * * * * * * * * * * * * * * * * * //

dimensions      [0 0 0 1 0 0 0];

internalField   nonuniform List<scalar> 
10000
(
348.432
348.432
348.432
348.432
348.432
348.432
348.432
348.432
348.432
348.432
348.432
348.432
348.432
348.432
348.432
348.432
348.432
348.432
348.432
348.432
348.432
348.432
348.432
348.432
348.432
348.432
348.432
348.432
348.432
348.432
348.432
348.432
348.432
348.432
348.432
348.432
348.432
348.432
348.432
348.432
348.432
348.432
348.432
348.432
348.432
348.432
348.432
348.432
348.432
348.432
348.432
348.432
348.432
348.432
348.432
348.432
348.432
348.432
348.432
348.432
348.432
348.432
348.432
348.432
348.432
348.432
348.432
348.432
348.432
348.432
348.432
348.432
348.432
348.432
348.432
348.432
348.432
348.432
348.432
348.432
348.432
348.432
348.432
348.432
348.432
348.432
348.432
348.432
348.432
348.432
348.432
348.432
348.432
348.432
348.432
348.432
348.432
348.432
348.432
348.432
348.432
348.432
348.432
348.432
348.432
348.432
348.432
348.432
348.432
348.432
348.432
348.432
348.432
348.432
348.432
348.432
348.432
348.432
348.432
348.432
348.432
348.432
348.432
348.432
348.432
348.432
348.432
348.432
348.432
348.432
348.432
348.432
348.432
348.432
348.432
348.432
348.432
348.432
348.432
348.432
348.432
348.432
348.432
348.432
348.432
348.432
348.432
348.432
348.432
348.432
348.432
348.432
348.432
348.432
348.432
348.432
348.432
348.432
348.432
348.432
348.432
348.432
348.432
348.432
348.432
348.432
348.432
348.432
348.432
348.432
348.432
348.432
348.432
348.432
348.432
348.432
348.432
348.432
348.432
348.432
348.432
348.432
348.432
348.432
348.432
348.432
348.432
348.432
348.432
348.432
348.432
348.432
348.432
348.432
348.432
348.432
348.432
348.432
348.432
348.432
348.432
348.432
348.432
348.432
348.432
348.432
348.432
348.432
348.432
348.432
348.432
348.432
348.432
348.432
348.432
348.432
348.432
348.432
348.432
348.432
348.432
348.432
348.432
348.432
348.432
348.432
348.432
348.432
348.432
348.432
348.432
348.432
348.432
348.432
348.432
348.432
348.432
348.432
348.432
348.432
348.432
348.432
348.432
348.432
348.432
348.432
348.432
348.432
348.432
348.432
348.432
348.432
348.432
348.432
348.432
348.432
348.432
348.432
348.432
348.432
348.432
348.432
348.432
348.432
348.432
348.432
348.432
348.432
348.432
348.432
348.432
348.432
348.432
348.432
348.432
348.432
348.432
348.432
348.432
348.432
348.432
348.432
348.432
348.432
348.432
348.432
348.432
348.432
348.432
348.432
348.432
348.432
348.432
348.432
348.432
348.432
348.432
348.432
348.432
348.432
348.432
348.432
348.432
348.432
348.432
348.432
348.432
348.432
348.432
348.432
348.432
348.432
348.432
348.432
348.432
348.432
348.432
348.432
348.432
348.432
348.432
348.432
348.432
348.432
348.432
348.432
348.432
348.432
348.432
348.432
348.432
348.432
348.432
348.432
348.432
348.432
348.432
348.432
348.432
348.432
348.432
348.432
348.432
348.432
348.432
348.432
348.432
348.432
348.432
348.432
348.432
348.432
348.432
348.432
348.432
348.432
348.432
348.432
348.432
348.432
348.432
348.432
348.432
348.432
348.432
348.432
348.432
348.432
348.432
348.432
348.432
348.432
348.432
348.432
348.432
348.432
348.432
348.432
348.432
348.432
348.432
348.432
348.432
348.432
348.432
348.432
348.432
348.432
348.432
348.432
348.432
348.432
348.432
348.432
348.432
348.432
348.432
348.432
348.432
348.432
348.432
348.432
348.432
348.432
348.432
348.432
348.432
348.432
348.432
348.432
348.432
348.432
348.432
348.432
348.432
348.432
348.432
348.432
348.432
348.432
348.432
348.432
348.432
348.432
348.432
348.432
348.432
348.432
348.432
348.432
348.432
348.432
348.432
348.432
348.432
348.432
348.432
348.432
348.432
348.432
348.432
348.432
348.432
348.432
348.432
348.432
348.432
348.432
348.432
348.432
348.432
348.432
348.432
348.432
348.432
348.432
348.432
348.432
348.432
348.432
348.432
348.432
348.432
348.432
348.432
348.432
348.432
348.432
348.432
348.432
348.432
348.432
348.432
348.432
348.432
348.432
348.432
348.432
348.432
348.432
348.432
348.432
348.432
348.432
348.432
348.432
348.432
348.432
348.432
348.432
348.432
348.432
348.432
348.432
348.432
348.432
348.432
348.432
348.432
348.432
348.432
348.432
348.432
348.432
348.432
348.432
348.432
348.432
348.432
348.432
348.432
348.432
348.432
348.432
348.432
348.432
348.432
348.432
348.432
348.432
348.432
348.432
348.432
348.432
348.432
348.432
348.432
348.432
348.432
348.432
348.432
348.432
348.432
348.432
348.432
348.432
348.432
348.432
348.432
348.432
348.432
348.432
348.432
348.432
348.432
348.432
348.432
348.432
348.432
348.432
348.432
348.432
348.432
348.432
348.432
348.432
348.432
348.432
348.432
348.432
348.432
348.432
348.432
348.432
348.432
348.432
348.432
348.432
348.432
348.432
348.432
348.432
348.432
348.432
348.432
348.432
348.432
348.432
348.432
348.432
348.432
348.432
348.432
348.432
348.432
348.432
348.432
348.432
348.432
348.432
348.432
348.432
348.432
348.432
348.432
348.432
348.432
348.432
348.431
348.428
348.418
348.387
348.286
347.949
347.156
346.481
346.141
345.938
345.872
345.806
345.764
345.753
345.749
345.723
345.698
345.687
345.688
345.668
345.644
345.63
345.632
345.62
345.599
345.584
345.585
345.579
345.562
345.548
345.548
345.547
345.534
345.524
345.523
345.524
345.516
345.509
345.508
345.51
345.506
345.502
345.502
345.504
345.503
345.501
345.499
345.495
345.481
345.436
345.293
344.835
344.013
343.436
343.143
342.965
342.901
342.847
342.808
342.793
342.791
342.772
342.749
342.735
342.736
342.724
342.702
342.685
342.685
342.681
342.662
342.646
342.642
342.643
342.63
342.616
342.609
342.611
342.605
342.593
342.586
342.587
342.585
342.577
342.571
342.571
342.571
342.567
342.562
342.561
342.562
342.56
342.557
342.556
342.557
342.556
342.555
342.554
342.554
342.554
342.553
342.553
342.553
342.553
342.553
342.553
342.553
342.553
342.553
342.553
342.553
342.553
342.553
342.553
342.553
342.553
342.553
342.553
342.553
342.553
342.553
342.553
342.553
342.553
342.553
342.553
342.553
342.553
342.553
342.553
342.553
342.553
342.553
342.553
342.553
342.553
342.553
342.553
342.553
342.553
342.553
342.553
342.553
342.553
342.553
342.553
342.553
342.553
342.553
342.553
342.553
342.553
342.553
342.553
342.553
342.553
342.553
342.553
342.553
342.552
342.551
342.547
342.533
342.487
342.336
341.927
341.505
341.265
341.168
341.084
341.049
341.045
341.026
341.003
340.988
340.988
340.979
340.957
340.938
340.933
340.932
340.914
340.894
340.882
340.883
340.872
340.852
340.837
340.835
340.832
340.814
340.798
340.79
340.791
340.78
340.763
340.752
340.753
340.747
340.733
340.72
340.717
340.717
340.706
340.695
340.688
340.69
340.684
340.674
340.667
340.667
340.666
340.658
340.651
340.65
340.651
340.646
340.642
340.64
340.641
340.64
340.637
340.636
340.637
340.637
340.636
340.633
340.629
340.616
340.573
340.433
340.204
340.054
339.98
339.934
339.915
339.903
339.891
339.883
339.88
339.875
339.868
339.862
339.859
339.856
339.851
339.846
339.843
339.841
339.838
339.835
339.833
339.831
339.829
339.827
339.826
339.826
339.825
339.824
339.824
339.824
339.824
339.823
339.822
339.82
339.813
339.789
339.714
339.478
339.134
338.916
338.815
338.743
338.715
338.705
338.686
338.671
338.664
338.664
338.653
338.638
338.628
338.628
338.624
338.612
338.601
338.598
338.599
338.591
338.582
338.577
338.579
338.577
338.57
338.566
338.568
338.568
338.566
338.564
338.563
338.561
338.552
338.521
338.425
338.253
338.138
338.067
338.042
338.024
338.009
338.001
338.002
337.997
337.988
337.981
337.981
337.98
337.974
337.969
337.968
337.97
337.968
337.965
337.965
337.966
337.965
337.962
337.955
337.936
337.876
337.714
337.544
337.442
337.407
337.374
337.355
337.35
337.349
337.339
337.328
337.322
337.326
337.322
337.315
337.312
337.314
337.315
337.31
337.301
337.278
337.207
337.08
336.992
336.939
336.926
336.913
336.9
336.891
336.893
336.891
336.884
336.878
336.879
336.881
336.879
336.875
336.872
336.865
336.841
336.761
336.605
336.485
336.435
336.392
336.371
336.369
336.363
336.351
336.341
336.341
336.341
336.334
336.327
336.325
336.328
336.326
336.323
336.321
336.321
336.318
336.307
336.272
336.169
336.018
335.928
335.868
335.844
335.833
335.818
335.808
335.803
335.803
335.797
335.789
335.784
335.785
335.784
335.779
335.775
335.774
335.776
335.776
335.773
335.771
335.769
335.761
335.733
335.643
335.438
335.263
335.169
335.123
335.089
335.076
335.073
335.065
335.054
335.047
335.047
335.045
335.036
335.028
335.024
335.026
335.023
335.016
335.01
335.01
335.011
335.008
335.003
335.002
335.003
335.003
335.001
335
335
335
334.997
334.989
334.963
334.885
334.682
334.469
334.341
334.285
334.246
334.223
334.217
334.213
334.202
334.193
334.189
334.19
334.184
334.176
334.171
334.172
334.172
334.168
334.165
334.165
334.166
334.164
334.156
334.135
334.074
333.934
333.814
333.738
333.71
333.693
333.676
333.665
333.665
333.662
333.651
333.643
333.639
333.642
333.637
333.631
333.627
333.63
333.63
333.628
333.626
333.625
333.623
333.614
333.585
333.496
333.306
333.151
333.079
333.023
333.002
333.001
332.99
332.977
332.968
332.971
332.969
332.962
332.955
332.954
332.957
332.956
332.952
332.949
332.947
332.94
332.915
332.836
332.682
332.564
332.508
332.464
332.442
332.438
332.43
332.417
332.408
332.406
332.406
332.399
332.392
332.389
332.392
332.39
332.387
332.385
332.385
332.383
332.375
332.349
332.272
332.113
331.989
331.912
331.881
331.861
331.845
331.836
331.835
331.83
331.82
331.812
331.811
331.813
331.808
331.802
331.8
331.803
331.803
331.799
331.792
331.776
331.733
331.613
331.474
331.382
331.347
331.327
331.307
331.295
331.296
331.294
331.286
331.279
331.28
331.282
331.279
331.27
331.249
331.197
331.099
331.028
330.975
330.955
330.952
330.941
330.929
330.921
330.925
330.924
330.918
330.914
330.911
330.906
330.888
330.825
330.704
330.607
330.568
330.534
330.513
330.505
330.506
330.497
330.486
330.479
330.482
330.483
330.478
330.474
330.471
330.467
330.453
330.403
330.284
330.165
330.107
330.067
330.04
330.031
330.029
330.02
330.009
330.002
330.004
330.003
329.997
329.992
329.992
329.993
329.988
329.972
329.928
329.818
329.7
329.634
329.586
329.564
329.56
329.551
329.539
329.529
329.528
329.53
329.524
329.518
329.516
329.517
329.516
329.509
329.486
329.422
329.301
329.204
329.156
329.116
329.096
329.094
329.094
329.084
329.072
329.065
329.067
329.071
329.068
329.06
329.051
329.034
328.983
328.879
328.793
328.737
328.72
328.713
328.698
328.686
328.68
328.684
328.68
328.672
328.668
328.666
328.66
328.636
328.561
328.444
328.366
328.335
328.304
328.285
328.278
328.28
328.271
328.259
328.251
328.253
328.254
328.249
328.243
328.241
328.241
328.235
328.212
328.143
328.006
327.893
327.839
327.793
327.771
327.768
327.763
327.75
327.739
327.734
327.737
327.732
327.724
327.719
327.721
327.723
327.719
327.713
327.7
327.67
327.582
327.444
327.343
327.288
327.269
327.25
327.235
327.225
327.226
327.222
327.212
327.204
327.201
327.204
327.201
327.196
327.194
327.193
327.191
327.179
327.144
327.049
326.91
326.821
326.774
326.738
326.721
326.72
326.714
326.701
326.691
326.687
326.69
326.687
326.679
326.674
326.675
326.678
326.674
326.665
326.646
326.597
326.481
326.365
326.292
326.247
326.231
326.225
326.211
326.198
326.191
326.193
326.19
326.182
326.175
326.175
326.178
326.176
326.171
326.165
326.154
326.124
326.033
325.896
325.799
325.758
325.728
325.706
325.697
325.697
325.689
325.677
325.667
325.666
325.668
325.662
325.654
325.65
325.652
325.654
325.651
325.645
325.638
325.623
325.578
325.45
325.295
325.192
325.15
325.127
325.102
325.086
325.083
325.084
325.074
325.062
325.054
325.055
325.056
325.051
325.043
325.041
325.044
325.045
325.041
325.034
325.022
324.991
324.903
324.754
324.644
324.578
324.554
324.539
324.52
324.507
324.503
324.505
324.498
324.487
324.48
324.48
324.482
324.478
324.472
324.47
324.471
324.471
324.465
324.45
324.409
324.303
324.164
324.078
324.018
323.987
323.981
323.972
323.958
323.947
323.943
323.946
323.941
323.933
323.928
323.929
323.93
323.927
323.922
323.914
323.895
323.839
323.719
323.608
323.548
323.517
323.491
323.477
323.476
323.472
323.461
323.453
323.448
323.452
323.452
323.446
323.441
323.435
323.423
323.386
323.288
323.181
323.115
323.089
323.067
323.05
323.042
323.04
323.032
323.022
323.014
323.014
323.013
323.007
323.003
323.002
323.004
323
322.99
322.967
322.906
322.769
322.639
322.556
322.506
322.487
322.478
322.462
322.449
322.443
322.445
322.438
322.426
322.416
322.413
322.417
322.415
322.41
322.407
322.405
322.403
322.394
322.366
322.288
322.151
322.049
321.996
321.952
321.929
321.923
321.919
321.907
321.896
321.888
321.89
321.886
321.877
321.87
321.867
321.87
321.869
321.866
321.862
321.857
321.845
321.805
321.694
321.55
321.458
321.415
321.38
321.36
321.354
321.352
321.342
321.33
321.322
321.323
321.322
321.315
321.31
321.309
321.31
321.306
321.291
321.247
321.158
321.085
321.054
321.025
321.008
321.003
321.004
320.993
320.964
320.902
320.82
320.77
320.741
320.709
320.688
320.682
320.683
320.671
320.656
320.646
320.648
320.65
320.645
320.636
320.627
320.612
320.569
320.472
320.379
320.322
320.304
320.293
320.277
320.265
320.258
320.248
320.215
320.157
320.107
320.082
320.079
320.066
320.048
320.036
320.036
320.04
320.03
320.007
319.957
319.883
319.836
319.807
319.775
319.754
319.751
319.753
319.745
319.731
319.718
319.705
319.674
319.602
319.527
319.473
319.449
319.447
319.432
319.412
319.397
319.396
319.402
319.395
319.378
319.35
319.294
319.236
319.204
319.167
319.143
319.133
319.138
319.131
319.114
319.087
319.047
319.005
318.973
318.933
318.897
318.869
318.858
318.844
318.816
318.785
318.758
318.743
318.729
318.699
318.665
318.635
318.618
318.604
318.577
318.545
318.517
318.497
318.479
318.453
318.424
318.398
318.38
318.36
318.332
318.303
318.278
318.26
318.237
318.205
318.174
318.151
318.147
318.128
318.088
318.048
318.015
318.008
318.006
317.972
317.929
317.893
317.877
317.881
317.854
317.81
317.769
317.738
317.734
317.739
317.711
317.669
317.63
317.601
317.586
317.562
317.532
317.509
317.511
317.5
317.461
317.414
317.377
317.353
317.358
317.343
317.303
317.264
317.235
317.235
317.223
317.184
317.141
317.108
317.096
317.099
317.07
317.026
316.989
316.964
316.969
316.951
316.909
316.869
316.837
316.834
316.831
316.796
316.753
316.717
316.698
316.704
316.682
316.64
316.6
316.57
316.57
316.563
316.526
316.481
316.445
316.423
316.432
316.427
316.39
316.345
316.307
316.278
316.268
316.244
316.212
316.184
316.183
316.172
316.133
316.092
316.059
316.051
316.044
316.008
315.965
315.929
315.911
315.92
315.906
315.867
315.822
315.787
315.771
315.77
315.741
315.7
315.665
315.65
315.654
315.627
315.584
315.543
315.512
315.509
315.51
315.478
315.433
315.395
315.367
315.371
315.363
315.325
315.279
315.243
315.221
315.229
315.218
315.178
315.126
315.086
315.058
315.062
315.081
315.062
315.02
314.963
314.917
314.884
314.875
314.891
314.883
314.844
314.793
314.747
314.714
314.706
314.722
314.712
314.673
314.623
314.582
314.551
314.547
314.553
314.523
314.478
314.434
314.402
314.394
314.408
314.393
314.351
314.298
314.254
314.222
314.213
314.224
314.209
314.17
314.133
314.107
314.097
314.066
314.025
313.986
313.957
313.957
313.972
313.956
313.916
313.868
313.825
313.787
313.754
313.728
313.728
313.743
313.73
313.69
313.635
313.58
313.544
313.522
313.538
313.572
313.569
313.532
313.477
313.407
313.356
313.322
313.303
313.32
313.348
313.339
313.3
313.249
313.198
313.158
313.122
313.091
313.068
313.056
313.058
313.066
313.047
313.006
312.953
312.905
312.872
312.859
312.876
312.89
312.863
312.819
312.758
312.706
312.668
312.636
312.63
312.65
312.658
312.628
312.583
312.533
312.498
312.473
312.478
312.465
312.427
312.384
312.35
312.334
312.337
312.313
312.273
312.239
312.226
312.222
312.189
312.146
312.108
312.08
312.08
312.066
312.029
311.995
311.975
311.983
311.966
311.926
311.874
311.828
311.791
311.76
311.753
311.772
311.779
311.749
311.703
311.652
311.613
311.584
311.581
311.588
311.562
311.521
311.482
311.452
311.443
311.424
311.387
311.352
311.325
311.328
311.316
311.279
311.238
311.205
311.196
311.189
311.154
311.112
311.078
311.06
311.066
311.047
311.007
310.969
310.94
310.934
310.914
310.876
310.839
310.81
310.809
310.804
310.769
310.726
310.691
310.67
310.673
310.649
310.609
310.572
310.543
310.543
310.529
310.491
310.45
310.417
310.404
310.407
310.379
310.338
310.304
310.281
310.285
310.264
310.224
310.186
310.155
310.152
310.141
310.103
310.056
310.019
309.993
310
310.018
309.998
309.956
309.898
309.845
309.809
309.781
309.778
309.787
309.768
309.739
309.716
309.719
309.698
309.655
309.592
309.532
309.497
309.474
309.492
309.539
309.548
309.515
309.465
309.386
309.316
309.276
309.247
309.25
309.288
309.31
309.286
309.241
309.17
309.094
309.051
309.02
309.016
309.055
309.103
309.096
309.058
309.001
308.909
308.838
308.799
308.769
308.771
308.815
308.858
308.847
308.808
308.749
308.662
308.601
308.566
308.54
308.551
308.593
308.61
308.582
308.537
308.467
308.402
308.364
308.335
308.339
308.372
308.384
308.354
308.307
308.241
308.186
308.151
308.128
308.138
308.162
308.147
308.108
308.054
308.002
307.967
307.942
307.948
307.963
307.942
307.902
307.859
307.826
307.807
307.803
307.773
307.733
307.697
307.667
307.663
307.649
307.613
307.578
307.551
307.554
307.569
307.544
307.5
307.433
307.372
307.337
307.313
307.326
307.369
307.376
307.343
307.293
307.211
307.132
307.089
307.059
307.053
307.094
307.166
307.184
307.156
307.11
307.036
306.927
306.86
306.822
306.792
306.787
306.825
306.875
306.87
306.834
306.782
306.703
306.643
306.608
306.582
306.593
306.636
306.653
306.625
306.579
306.505
306.426
306.382
306.35
306.34
306.372
306.433
306.444
306.414
306.368
306.294
306.199
306.142
306.103
306.072
306.053
306.073
306.13
306.153
306.128
306.085
306.018
305.928
305.873
305.84
305.815
305.828
305.876
305.899
305.874
305.831
305.766
305.695
305.652
305.621
305.609
305.63
305.65
305.626
305.584
305.527
305.477
305.444
305.422
305.433
305.452
305.43
305.39
305.338
305.295
305.263
305.246
305.255
305.24
305.203
305.162
305.13
305.113
305.127
305.119
305.082
305.027
304.956
304.911
304.88
304.872
304.905
304.946
304.935
304.897
304.842
304.767
304.716
304.683
304.663
304.68
304.712
304.701
304.663
304.607
304.531
304.48
304.447
304.428
304.447
304.492
304.496
304.463
304.415
304.345
304.287
304.252
304.225
304.228
304.256
304.253
304.219
304.17
304.112
304.072
304.043
304.037
304.061
304.065
304.032
303.986
303.919
303.868
303.835
303.81
303.819
303.851
303.847
303.812
303.765
303.708
303.668
303.637
303.621
303.634
303.628
303.595
303.554
303.519
303.492
303.483
303.46
303.424
303.389
303.359
303.355
303.356
303.326
303.286
303.252
303.226
303.229
303.231
303.2
303.157
303.102
303.059
303.023
302.993
302.973
302.987
303.019
303.014
302.98
302.936
302.883
302.843
302.807
302.772
302.738
302.704
302.673
302.652
302.665
302.706
302.712
302.68
302.634
302.56
302.492
302.453
302.424
302.42
302.454
302.484
302.465
302.425
302.365
302.284
302.234
302.202
302.181
302.197
302.242
302.248
302.217
302.171
302.103
302.044
302.008
301.979
301.977
302.003
302.003
301.97
301.924
301.868
301.83
301.801
301.798
301.823
301.822
301.788
301.74
301.67
301.619
301.587
301.568
301.586
301.627
301.622
301.587
301.537
301.456
301.392
301.356
301.328
301.331
301.38
301.428
301.418
301.381
301.328
301.238
301.16
301.118
301.087
301.073
301.098
301.15
301.155
301.123
301.078
301.007
300.939
300.899
300.869
300.858
300.881
300.903
300.882
300.843
300.788
300.734
300.699
300.671
300.669
300.689
300.678
300.642
300.594
300.544
300.51
300.483
300.483
300.498
300.477
300.439
300.393
300.355
300.326
300.317
300.326
300.306
300.268
300.223
300.188
300.16
300.159
300.174
300.155
300.117
300.067
300.016
299.979
299.947
299.92
299.921
299.95
299.952
299.92
299.875
299.808
299.754
299.72
299.694
299.699
299.738
299.753
299.727
299.685
299.622
299.554
299.512
299.481
299.459
299.467
299.486
299.469
299.433
299.391
299.357
299.332
299.332
299.313
299.277
299.232
299.197
299.17
299.171
299.197
299.189
299.154
299.103
299.029
298.978
298.946
298.922
298.934
298.973
298.976
298.944
298.9
298.835
298.785
298.753
298.729
298.737
298.763
298.749
298.713
298.659
298.59
298.546
298.516
298.503
298.532
298.594
298.605
298.576
298.532
298.46
298.345
298.271
298.231
298.201
298.179
298.192
298.256
298.302
298.289
298.253
298.202
298.119
298.049
298.01
297.98
297.968
297.995
298.04
298.034
298
297.952
297.874
297.806
297.768
297.739
297.731
297.764
297.807
297.798
297.762
297.712
297.631
297.565
297.528
297.5
297.492
297.528
297.576
297.569
297.535
297.486
297.407
297.333
297.293
297.262
297.243
297.259
297.3
297.299
297.267
297.224
297.167
297.123
297.091
297.066
297.068
297.075
297.049
297.01
296.964
296.929
296.901
296.894
296.904
296.882
296.844
296.797
296.759
296.731
296.723
296.746
296.745
296.713
296.668
296.607
296.562
296.53
296.51
296.521
296.539
296.519
296.481
296.425
296.365
296.328
296.299
296.293
296.323
296.349
296.33
296.292
296.239
296.172
296.128
296.096
296.069
296.066
296.084
296.071
296.038
296.001
295.97
295.952
295.958
295.939
295.902
295.847
295.79
295.755
295.727
295.723
295.754
295.77
295.746
295.708
295.66
295.619
295.589
295.572
295.574
295.55
295.51
295.448
295.382
295.344
295.315
295.309
295.348
295.406
295.405
295.373
295.328
295.252
295.166
295.121
295.09
295.066
295.075
295.122
295.141
295.117
295.077
295.018
294.944
294.899
294.868
294.846
294.858
294.897
294.898
294.866
294.823
294.753
294.69
294.653
294.625
294.617
294.648
294.685
294.672
294.637
294.586
294.508
294.448
294.413
294.386
294.379
294.412
294.445
294.428
294.392
294.34
294.264
294.212
294.179
294.153
294.154
294.194
294.218
294.196
294.159
294.103
294.023
293.971
293.937
293.909
293.897
293.92
293.938
293.917
293.881
293.837
293.8
293.771
293.755
293.765
293.75
293.715
293.668
293.622
293.59
293.566
293.57
293.587
293.566
293.529
293.473
293.407
293.366
293.337
293.323
293.35
293.402
293.403
293.372
293.329
293.257
293.174
293.129
293.098
293.075
293.084
293.133
293.154
293.131
293.093
293.035
292.951
292.897
292.864
292.837
292.833
292.872
292.913
292.9
292.866
292.819
292.745
292.685
292.649
292.62
292.604
292.621
292.636
292.613
292.575
292.521
292.467
292.433
292.405
292.401
292.436
292.46
292.438
292.401
292.345
292.265
292.213
292.181
292.154
292.151
292.187
292.215
292.197
292.161
292.11
292.042
291.996
291.964
291.938
291.934
291.959
291.959
291.928
291.889
291.838
291.799
291.769
291.747
291.754
291.751
291.72
291.68
291.635
291.602
291.576
291.575
291.598
291.589
291.556
291.51
291.444
291.395
291.364
291.339
291.341
291.377
291.386
291.359
291.32
291.264
291.21
291.175
291.146
291.13
291.144
291.143
291.112
291.072
291.019
290.981
290.952
290.938
290.96
290.985
290.966
290.93
290.877
290.797
290.744
290.712
290.685
290.683
290.727
290.769
290.757
290.723
290.675
290.594
290.515
290.474
290.444
290.42
290.428
290.478
290.502
290.48
290.444
290.391
290.311
290.258
290.224
290.197
290.187
290.214
290.246
290.231
290.197
290.149
290.08
290.029
289.996
289.969
289.961
289.99
290.019
290.003
289.969
289.927
289.878
289.841
289.808
289.776
289.743
289.708
289.666
289.63
289.6
289.575
289.578
289.623
289.655
289.637
289.603
289.554
289.476
289.413
289.378
289.349
289.328
289.34
289.372
289.364
289.332
289.29
289.238
289.199
289.17
289.149
289.157
289.171
289.149
289.113
289.06
289
288.963
288.935
288.92
288.942
288.978
288.966
288.933
288.887
288.813
288.748
288.711
288.683
288.665
288.682
288.738
288.752
288.727
288.69
288.636
288.549
288.486
288.449
288.418
288.389
288.365
288.368
288.415
288.453
288.438
288.404
288.359
288.284
288.215
288.177
288.148
288.124
288.13
288.173
288.187
288.162
288.126
288.071
287.997
287.951
287.919
287.893
287.885
287.913
287.936
287.916
287.882
287.836
287.78
287.742
287.712
287.687
287.685
287.687
287.66
287.625
287.585
287.555
287.531
287.534
287.567
287.566
287.536
287.495
287.426
287.338
287.289
287.257
287.229
287.214
287.237
287.306
287.329
287.306
287.271
287.219
287.124
287.034
286.991
286.961
286.935
286.932
286.978
287.041
287.041
287.012
286.972
286.907
286.809
286.751
286.718
286.69
286.676
286.702
286.775
286.798
286.776
286.74
286.688
286.59
286.496
286.452
286.421
286.395
286.39
286.432
286.504
286.511
286.484
286.446
286.387
286.288
286.219
286.182
286.153
286.131
286.138
286.195
286.236
286.221
286.189
286.145
286.068
285.984
285.94
285.908
285.882
285.869
285.894
285.941
285.937
285.907
285.869
285.813
285.759
285.725
285.696
285.672
285.671
285.668
285.639
285.603
285.561
285.53
285.504
285.498
285.527
285.536
285.51
285.473
285.414
285.334
285.288
285.257
285.232
285.228
285.271
285.321
285.313
285.282
285.241
285.172
285.08
285.031
284.999
284.972
284.956
284.977
285.027
285.027
284.999
284.962
284.904
284.834
284.793
284.763
284.737
284.729
284.755
284.77
284.747
284.713
284.665
284.609
284.572
284.543
284.519
284.518
284.536
284.521
284.489
284.447
284.398
284.364
284.336
284.317
284.329
284.345
284.324
284.291
284.244
284.185
284.146
284.117
284.091
284.086
284.108
284.103
284.073
284.036
283.988
283.952
283.924
283.901
283.906
283.926
283.911
283.879
283.837
283.776
283.726
283.693
283.663
283.633
283.607
283.594
283.618
283.668
283.668
283.64
283.603
283.543
283.448
283.387
283.353
283.325
283.304
283.315
283.376
283.411
283.395
283.362
283.318
283.243
283.161
283.12
283.089
283.063
283.051
283.079
283.125
283.119
283.089
283.051
282.991
282.921
282.881
282.851
282.825
282.813
282.836
282.857
282.838
282.805
282.762
282.706
282.667
282.637
282.61
282.598
282.613
282.606
282.577
282.54
282.496
282.462
282.434
282.413
282.417
282.421
282.396
282.361
282.316
282.278
282.248
282.224
282.223
282.246
282.236
282.205
282.165
282.097
282.027
281.99
281.96
281.935
281.929
281.97
282.042
282.049
282.023
281.989
281.938
281.846
281.755
281.712
281.68
281.65
281.621
281.595
281.579
281.597
281.67
281.711
281.697
281.666
281.625
281.556
281.443
281.374
281.338
281.309
281.282
281.267
281.287
281.358
281.386
281.367
281.335
281.293
281.221
281.145
281.105
281.074
281.047
281.028
281.037
281.074
281.07
281.042
281.007
280.957
280.913
280.881
280.854
280.832
280.835
280.831
280.803
280.768
280.723
280.687
280.659
280.637
280.64
280.665
280.653
280.623
280.584
280.526
280.478
280.447
280.42
280.401
280.412
280.434
280.417
280.386
280.346
280.292
280.253
280.223
280.197
280.183
280.194
280.186
280.157
280.121
280.076
280.041
280.014
279.992
279.999
280.023
280.01
279.98
279.939
279.874
279.814
279.779
279.751
279.728
279.729
279.767
279.779
279.755
279.722
279.676
279.609
279.565
279.535
279.508
279.489
279.5
279.536
279.531
279.503
279.468
279.418
279.365
279.331
279.301
279.272
279.243
279.214
279.185
279.16
279.144
279.16
279.207
279.209
279.183
279.15
279.102
279.016
278.93
278.889
278.859
278.832
278.812
278.823
278.887
278.931
278.918
278.888
278.851
278.79
278.704
278.655
278.624
278.596
278.572
278.565
278.595
278.612
278.59
278.559
278.518
278.463
278.425
278.396
278.369
278.352
278.362
278.363
278.337
278.304
278.259
278.219
278.189
278.163
278.148
278.161
278.162
278.136
278.103
278.056
278.009
277.977
277.95
277.928
277.931
277.951
277.935
277.905
277.868
277.823
277.79
277.762
277.739
277.736
277.743
277.721
277.689
277.642
277.572
277.524
277.494
277.468
277.451
277.47
277.529
277.538
277.514
277.482
277.436
277.359
277.298
277.264
277.236
277.211
277.199
277.222
277.246
277.229
277.198
277.159
277.102
277.056
277.026
276.999
276.977
276.981
277.012
277.006
276.978
276.944
276.894
276.839
276.804
276.775
276.75
276.731
276.739
276.737
276.711
276.679
276.642
276.611
276.584
276.562
276.561
276.55
276.521
276.485
276.433
276.391
276.361
276.336
276.324
276.351
276.396
276.389
276.361
276.325
276.269
276.183
276.129
276.098
276.07
276.047
276.041
276.074
276.102
276.085
276.056
276.018
275.962
275.915
275.884
275.857
275.835
275.835
275.865
275.865
275.838
275.805
275.755
275.674
275.617
275.585
275.556
275.531
275.513
275.527
275.584
275.599
275.577
275.546
275.506
275.437
275.369
275.332
275.303
275.277
275.256
275.259
275.3
275.313
275.29
275.26
275.22
275.162
275.114
275.082
275.054
275.026
274.998
274.97
274.945
274.927
274.936
274.953
274.935
274.905
274.868
274.822
274.787
274.759
274.735
274.724
274.744
274.748
274.723
274.691
274.644
274.574
274.527
274.497
274.471
274.451
274.458
274.503
274.512
274.489
274.457
274.414
274.342
274.282
274.249
274.221
274.197
274.184
274.208
274.241
274.228
274.2
274.165
274.112
274.056
274.022
273.994
273.969
273.954
273.968
273.978
273.955
273.925
273.884
273.83
273.793
273.764
273.74
273.727
273.749
273.784
273.773
273.745
273.709
273.651
273.553
273.491
273.458
273.43
273.405
273.392
273.415
273.485
273.503
273.482
273.452
273.413
273.346
273.257
273.211
273.181
273.154
273.13
273.12
273.147
273.19
273.181
273.154
273.121
273.075
273.01
272.969
272.94
272.913
272.888
272.875
272.89
272.89
272.865
272.835
272.796
272.759
272.731
272.704
272.682
272.68
272.676
272.65
272.62
272.585
272.554
272.528
272.504
272.497
272.501
272.48
272.45
272.41
272.354
272.313
272.284
272.259
272.24
272.248
272.289
272.29
272.266
272.235
272.195
272.14
272.101
272.072
272.044
272.017
271.992
271.97
271.945
271.918
271.891
271.866
271.848
271.852
271.857
271.834
271.806
271.776
271.748
271.722
271.701
271.682
271.656
271.628
271.596
271.561
271.532
271.507
271.486
271.49
271.515
271.504
271.476
271.443
271.393
271.324
271.282
271.253
271.226
271.202
271.188
271.207
271.232
271.216
271.188
271.155
271.107
271.059
271.028
271.001
270.977
270.961
270.975
270.984
270.962
270.933
270.896
270.846
270.809
270.781
270.756
270.735
270.736
270.744
270.724
270.695
270.658
270.605