/*--------------------------------*- C++ -*----------------------------------*\
  =========                 |
  \\      /  F ield         | OpenFOAM: The Open Source CFD Toolbox
   \\    /   O peration     | Website:  https://openfoam.org
    \\  /    A nd           | Version:  9
     \\/     M anipulation  |
\*---------------------------------------------------------------------------*/
FoamFile
{
    format      ascii;
    class       volScalarField;
    location    "0.047";
    object      T;
}
// * * * * * * * * * * * * * * * * * * * * * * * * * * * * * * * * * * * * * //

dimensions      [0 0 0 1 0 0 0];

internalField   nonuniform List<scalar> 
1000
(
176.208
176.213
176.223
176.235
176.248
176.262
176.275
176.289
176.302
176.316
176.33
176.344
176.358
176.372
176.387
176.401
176.416
176.431
176.445
176.46
176.474
176.489
176.505
176.52
176.536
176.551
176.565
176.58
176.595
176.611
176.627
176.644
176.66
176.676
176.691
176.706
176.721
176.736
176.752
176.768
176.785
176.803
176.821
176.838
176.855
176.871
176.886
176.9
176.914
176.929
176.943
176.959
176.975
176.993
177.012
177.032
177.052
177.073
177.093
177.113
177.132
177.149
177.164
177.178
177.19
177.2
177.209
177.216
177.223
177.23
177.235
177.241
177.247
177.252
177.257
177.261
177.264
177.267
177.268
177.269
177.269
177.27
177.27
177.271
177.271
177.272
177.273
177.274
177.275
177.277
177.279
177.28
177.282
177.285
177.287
177.29
177.292
177.295
177.299
177.302
177.306
177.309
177.313
177.318
177.322
177.327
177.332
177.337
177.342
177.348
177.353
177.359
177.366
177.372
177.379
177.386
177.393
177.401
177.409
177.417
177.425
177.434
177.442
177.451
177.461
177.471
177.481
177.491
177.501
177.512
177.523
177.535
177.546
177.558
177.571
177.583
177.596
177.609
177.623
177.637
177.651
177.665
177.68
177.695
177.711
177.726
177.742
177.759
177.776
177.792
177.81
177.827
177.845
177.864
177.882
177.901
177.92
177.94
177.959
177.979
178
178.02
178.041
178.062
178.084
178.106
178.128
178.15
178.173
178.196
178.219
178.242
178.266
178.289
178.314
178.338
178.362
178.387
178.412
178.437
178.463
178.488
178.514
178.54
178.566
178.592
178.619
178.646
178.672
178.699
178.727
178.754
178.781
178.809
178.836
178.864
178.892
178.92
178.948
178.976
179.005
179.033
179.062
179.09
179.119
179.148
179.176
179.205
179.234
179.263
179.292
179.321
179.351
179.38
179.409
179.438
179.468
179.497
179.527
179.556
179.586
179.615
179.645
179.675
179.704
179.734
179.764
179.794
179.823
179.853
179.883
179.913
179.943
179.973
180.003
180.033
180.063
180.093
180.123
180.153
180.183
180.213
180.243
180.273
180.303
180.333
180.364
180.394
180.424
180.454
180.484
180.515
180.545
180.575
180.605
180.636
180.666
180.696
180.727
180.757
180.787
180.818
180.848
180.879
180.909
180.939
180.97
181
181.031
181.061
181.092
181.122
181.153
181.183
181.214
181.245
181.275
181.306
181.336
181.367
181.397
181.428
181.459
181.49
181.52
181.551
181.582
181.613
181.643
181.674
181.705
181.736
181.766
181.797
181.828
181.859
181.889
181.92
181.951
181.982
182.013
182.044
182.075
182.106
182.137
182.168
182.199
182.23
182.261
182.292
182.323
182.354
182.385
182.416
182.447
182.478
182.509
182.54
182.571
182.602
182.633
182.665
182.696
182.727
182.758
182.789
182.821
182.852
182.883
182.914
182.945
182.977
183.008
183.04
183.071
183.102
183.133
183.165
183.196
183.228
183.259
183.29
183.321
183.353
183.384
183.416
183.447
183.479
183.51
183.542
183.573
183.605
183.636
183.668
183.699
183.731
183.762
183.794
183.825
183.858
183.889
183.921
183.952
183.984
184.015
184.048
184.079
184.111
184.142
184.175
184.206
184.238
184.269
184.302
184.333
184.365
184.396
184.429
184.46
184.493
184.524
184.556
184.588
184.62
184.651
184.684
184.715
184.748
184.779
184.812
184.843
184.876
184.907
184.94
184.971
185.004
185.035
185.068
185.099
185.132
185.164
185.196
185.228
185.261
185.292
185.325
185.356
185.389
185.421
185.454
185.485
185.518
185.55
185.583
185.614
185.647
185.679
185.712
185.744
185.777
185.808
185.841
185.873
185.906
185.938
185.971
186.003
186.036
186.067
186.101
186.132
186.166
186.197
186.231
186.262
186.296
186.327
186.361
186.392
186.426
186.458
186.491
186.523
186.556
186.588
186.621
186.653
186.687
186.719
186.752
186.784
186.818
186.849
186.883
186.915
186.949
186.98
187.014
187.046
187.08
187.112
187.145
187.177
187.211
187.243
187.277
187.309
187.343
187.375
187.408
187.44
187.474
187.506
187.54
187.572
187.606
187.638
187.672
187.704
187.738
187.77
187.804
187.837
187.871
187.903
187.937
187.969
188.003
188.035
188.069
188.102
188.136
188.168
188.202
188.234
188.269
188.301
188.335
188.367
188.402
188.433
188.469
188.499
188.536
188.566
188.603
188.632
188.67
188.698
188.738
188.764
188.805
188.83
188.873
188.896
188.941
188.963
189.008
189.03
189.075
189.097
189.142
189.164
189.209
189.231
189.276
189.298
189.343
189.365
189.41
189.433
189.478
189.5
189.545
189.567
189.612
189.635
189.68
189.702
189.747
189.77
189.815
189.837
189.882
189.905
189.95
189.972
190.018
190.04
190.085
190.108
190.153
190.176
190.221
190.243
190.289
190.311
190.356
190.379
190.424
190.447
190.492
190.515
190.56
190.583
190.628
190.651
190.697
190.719
190.765
190.787
190.833
190.856
190.901
190.924
190.97
190.992
191.038
191.061
191.106
191.129
191.175
191.198
191.243
191.266
191.312
191.335
191.38
191.403
191.449
191.472
191.518
191.541
191.586
191.609
191.655
191.678
191.724
191.747
191.793
191.816
191.862
191.885
191.931
191.954
192
192.023
192.069
192.092
192.138
192.161
192.207
192.23
192.276
192.299
192.346
192.369
192.415
192.438
192.484
192.507
192.554
192.577
192.623
192.646
192.693
192.716
192.762
192.785
192.832
192.855
192.901
192.925
192.971
192.994
193.041
193.064
193.111
193.134
193.18
193.204
193.25
193.274
193.32
193.344
193.391
193.414
193.461
193.485
193.53
193.556
193.599
193.628
193.669
193.7
193.738
193.771
193.809
193.842
193.88
193.912
193.952
193.983
194.025
194.054
194.097
194.125
194.17
194.196
194.243
194.268
194.316
194.34
194.389
194.413
194.462
194.487
194.536
194.561
194.61
194.635
194.685
194.71
194.76
194.785
194.836
194.861
194.912
194.938
194.989
195.015
195.067
195.093
195.145
195.171
195.224
195.251
195.304
195.331
195.384
195.412
195.466
195.493
195.548
195.575
195.63
195.658
195.714
195.742
195.798
195.826
195.883
195.911
195.968
195.997
196.054
196.083
196.141
196.17
196.228
196.257
196.315
196.344
196.403
196.432
196.49
196.52
196.578
196.608
196.666
196.696
196.754
196.783
196.842
196.871
196.929
196.959
197.017
197.046
197.104
197.133
197.19
197.219
197.276
197.305
197.362
197.39
197.447
197.475
197.531
197.559
197.615
197.643
197.698
197.726
197.781
197.808
197.863
197.89
197.944
197.971
198.025
198.052
198.105
198.132
198.185
198.212
198.264
198.291
198.343
198.369
198.422
198.448
198.5
198.525
198.577
198.603
198.655
198.68
198.731
198.757
198.808
198.834
198.885
198.91
198.961
198.986
199.037
199.062
199.113
199.138
199.188
199.214
199.264
199.289
199.339
199.365
199.415
199.44
199.49
199.515
199.565
199.59
199.641
199.666
199.716
199.741
199.791
199.816
199.867
199.892
199.942
199.968
200.018
200.044
200.095
200.12
200.172
200.197
200.249
200.275
200.327
200.354
200.406
200.433
200.486
200.514
200.568
200.596
200.651
200.679
200.735
200.764
200.822
200.852
200.911
200.941
201.002
201.033
201.095
201.127
201.191
201.224
201.29
201.324
201.391
201.426
201.495
201.531
201.602
201.638
201.711
201.748
201.822
201.86
201.936
201.974
202.05
202.089
202.166
202.205
202.283
202.322
202.4
202.439
202.516
202.555
202.633
202.671
202.749
202.787
202.863
202.901
202.977
203.014
203.089
203.125
203.199
203.235
203.308
203.344
203.415
203.45
203.52
203.555
203.624
203.658
203.727
203.76
203.828
203.861
203.927
203.96
204.025
204.057
204.121
204.153
204.217
204.248
204.311
204.342
204.404
204.435
204.496
204.527
204.587
204.617
204.677
204.707
204.767
204.796
204.855
204.884
204.942
204.971
205.029
205.057
205.115
205.143
205.2
205.228
205.284
205.312
205.368
205.395
205.45
205.478
205.533
205.56
205.614
205.641
205.695
205.722
205.776
205.802
205.855
205.882
205.935
205.961
206.013
206.039
206.091
206.117
206.169
206.195
206.246
206.271
206.322
206.348
206.399
206.424
206.474
206.499
206.549
206.574
206.624
206.649
206.698
206.723
206.772
206.796
206.845
206.869
206.918
206.942
206.991
207.015
207.063
207.087
207.134
207.158
207.206
207.229
207.277
207.3
207.347
207.37
207.417
207.441
207.487
207.51
207.557
207.58
207.626
207.649
207.694
207.717
207.763
207.786
207.831
207.854
207.899
207.921
207.966
207.989
208.033
208.056
208.103
208.119
208.19
)
;

boundaryField
{
    sides
    {
        type            zeroGradient;
    }
    empty
    {
        type            empty;
    }
}


// ************************************************************************* //
