/*--------------------------------*- C++ -*----------------------------------*\
  =========                 |
  \\      /  F ield         | OpenFOAM: The Open Source CFD Toolbox
   \\    /   O peration     | Website:  https://openfoam.org
    \\  /    A nd           | Version:  9
     \\/     M anipulation  |
\*---------------------------------------------------------------------------*/
FoamFile
{
    format      ascii;
    class       volScalarField;
    location    "0.032";
    object      ddt0(rho,e);
}
// * * * * * * * * * * * * * * * * * * * * * * * * * * * * * * * * * * * * * //

dimensions      [1 -1 -3 0 0 0 0];

internalField   nonuniform List<scalar> 
1000
(
948128
947240
945884
945064
943856
941802
940122
939750
939906
939003
936431
933181
930914
930615
931971
933658
934145
932512
928814
923931
919171
915789
914594
915844
919301
924299
929939
935325
939680
942542
943901
944066
944152
944938
947447
955067
957359
957815
957856
957785
957678
957534
957369
957223
957115
957027
956939
956858
956795
956743
956685
956620
956557
956501
956448
956394
956340
956293
956249
956199
956144
956075
956020
955935
955914
955783
955860
955586
955899
955302
956023
954919
956096
954746
955729
955223
954946
955195
955168
955005
954574
955758
953399
956520
952967
955749
954461
953308
956543
952036
955687
954514
952079
956881
952093
953573
956449
950610
955103
955311
949940
956128
954239
949551
956672
953592
949021
956859
953536
948190
956678
954141
947206
955884
955426
946440
954137
957097
946544
951265
958439
948193
947744
958300
951540
944964
955651
955574
944681
950789
958001
947780
945858
956693
952910
943876
951682
956717
946487
945827
955986
952207
943353
950329
956435
946933
943759
954305
953943
943049
946251
956357
950338
941041
949078
956793
946825
940376
951354
956247
944106
940187
952834
955411
942245
940067
953340
954815
941117
939740
953125
954314
940769
939182
952192
953972
940993
938443
950805
953793
941514
937461
949141
953889
942378
936098
946876
954345
944164
934506
943189
954543
947577
934053
937867
952471
951974
936768
932847
946712
954418
942713
931329
939070
952302
948556
934367
933368
946537
951337
939616
930908
939557
950989
945810
931884
931661
945837
951741
939163
927055
934278
949944
949782
933473
925375
937317
951000
945787
929653
926422
940149
949608
940574
926736
928690
943065
947915
935345
923347
929639
945497
947791
932181
919882
928049
945531
948028
931733
918575
925949
943027
946149
931246
918896
925598
941308
943692
928986
917088
924340
941070
944369
928732
913952
919060
937546
945443
932494
914773
914161
930386
942173
934662
917636
912784
925335
938550
934703
918205
909552
919532
935956
937913
922338
906998
909720
926851
937681
929553
911888
905114
916011
930562
930891
916502
904229
908401
923788
931671
922010
904717
898761
910562
926555
928680
914409
898897
898385
912061
923587
919847
904831
894878
900775
915306
921360
911353
894856
888584
898115
914936
918175
906310
890461
885774
893822
910053
909797
897749
885492
883725
891887
906819
902933
891259
881534
879379
877680
892613
902418
888125
882165
875838
877392
880453
886343
884413
880419
873118
870773
873760
875838
875476
870115
863756
860018
860966
864782
866323
862473
856590
853223
853169
855442
856165
852319
845524
840829
840947
843707
845888
843833
837365
831077
829223
830588
831990
830523
824720
818554
816132
817335
819129
819263
814783
807057
802267
802167
803529
803734
801148
794861
789049
787915
789194
789444
788191
783791
776425
771552
772306
774820
774495
770795
765231
760352
758795
760096
761426
759859
754908
748931
745285
745830
748505
749374
746103
740508
736372
735848
737915
739747
739220
735565
730365
727283
728242
731364
732801
730968
727288
723698
722433
724602
728406
729815
726812
722087
719703
721071
724490
727318
727065
723496
719809
719388
722513
726226
727652
726225
723389
721346
721813
724763
728005
729237
727622
724289
722018
723213
727120
730438
730641
727993
725006
724221
726637
730738
733481
732910
730187
728242
728714
731309
734607
736642
735905
732952
730724
731840
735744
739350
739858
737635
734946
734240
736402
739876
742496
742566
740338
737826
737233
739577
743367
745904
745311
742419
740026
740320
743438
747180
749051
747814
744898
742971
743930
747253
750584
751757
750357
748043
746782
747734
750483
753422
754730
753548
750767
749025
750275
754153
757932
758462
755467
751807
751018
754242
759137
761868
760434
756604
753822
754745
758857
763024
764204
761724
758138
756677
759057
763590
766744
766192
762764
759780
760033
763752
767858
769430
767471
764162
762658
764556
768487
771232
771007
768122
765586
765838
769036
772810
774397
772871
769803
768143
769572
773215
776338
776544
773995
770974
770424
773262
777593
780277
779173
775546
772534
772989
776925
781406
783075
780821
776796
774673
776546
781288
785324
785635
782363
778431
777463
780277
784993
787813
786865
783283
780275
780696
784302
788555
790259
788583
785191
783379
784699
788245
791447
791823
789606
786807
785918
787817
791204
793668
793623
791736
789686
789554
791499
794144
795875
795425
793754
792203
792160
793851
796065
797625
797566
796439
795232
795307
796632
798504
799866
799865
798992
797910
797820
798864
800537
801808
802185
801534
800653
800444
801132
802566
803889
804567
804309
803646
803115
803308
804214
805445
806410
806803
806498
806021
805941
806394
807482
808396
809140
809215
808964
808750
808678
809273
810014
810901
811422
811593
811653
811496
811778
812066
812695
813247
813681
814168
814093
814602
814484
815090
815354
815767
816391
816440
817240
817143
817744
817830
818111
818609
818713
819400
819575
820026
820637
820630
821524
821291
822104
821993
822567
822906
823030
824127
823613
824995
824297
825581
825035
826025
825898
826338
827183
826429
828667
826588
829640
827277
829499
829181
828326
831600
827694
832825
828478
832701
830175
831724
832486
830169
834995
829482
836187
830414
835759
832174
834750
834530
832389
838414
829588
840845
830362
839333
833780
837283
836755
834670
841452
830101
845859
828680
845011
832789
840181
839295
834888
844382
832802
845425
833572
845760
833775
844558
839034
837256
846115
834830
844706
838657
843119
838280
844896
838802
843093
841534
841903
843406
838137
850215
833061
849799
839781
841408
845133
841185
843383
841714
845910
837921
848727
837737
847134
839682
845758
839708
845818
841851
839608
850080
832793
852033
834134
849307
835731
846989
838267
841368
847103
827601
857800
827351
841399
849315
828649
840369
848756
828266
834751
857921
813316
847051
847471
816156
846893
838674
828743
828081
852846
815505
833922
849738
806797
846948
830021
821475
834729
829843
825002
827066
833268
813968
837716
822354
818629
826142
827792
822390
811060
833972
819018
811719
829071
818043
809554
828916
817572
806976
823796
817751
814382
810234
820258
816584
806299
819661
813426
812922
807719
819036
813484
805454
816930
813979
805587
812791
821939
804726
803842
816619
825380
802348
798741
826611
814163
805662
817964
809098
806190
825629
814306
803983
820722
810787
810961
826449
817877
804243
806947
827731
835400
809567
792525
816644
845975
834199
796248
790160
831998
858969
822073
781730
809094
853112
838675
802758
807711
830493
831200
823326
822985
821640
819345
823870
829920
827766
821020
820939
826914
828754
825711
825585
825075
819891
820669
832979
839503
826871
810726
811159
827526
841687
839885
820465
805227
811032
833426
842037
834046
814027
812876
814263
832232
835889
841558
816589
808641
797167
829016
836926
851539
815434
806902
792266
817959
831887
851668
825164
817726
788333
806608
806361
829328
819247
816887
811113
814846
814370
809795
797672
792296
791556
800024
795545
796983
783660
772962
756394
749126
742056
742612
)
;

boundaryField
{
    sides
    {
        type            calculated;
        value           nonuniform List<scalar> 2(742612 948128);
    }
    empty
    {
        type            empty;
    }
}


// ************************************************************************* //
