/*--------------------------------*- C++ -*----------------------------------*\
  =========                 |
  \\      /  F ield         | OpenFOAM: The Open Source CFD Toolbox
   \\    /   O peration     | Website:  https://openfoam.org
    \\  /    A nd           | Version:  9
     \\/     M anipulation  |
\*---------------------------------------------------------------------------*/
FoamFile
{
    format      ascii;
    class       volVectorField;
    location    "0.032";
    object      ddtCorrDdt0(rho,U);
}
// * * * * * * * * * * * * * * * * * * * * * * * * * * * * * * * * * * * * * //

dimensions      [1 -2 -2 0 0 0 0];

internalField   nonuniform List<vector> 
1000
(
(-41.9142 0 0)
(-53.3252 0 0)
(-63.9214 0 0)
(-72.5622 0 0)
(-80.8243 0 0)
(-89.2862 0 0)
(-97.9454 0 0)
(-106.701 0 0)
(-115.439 0 0)
(-124.073 0 0)
(-132.596 0 0)
(-141.083 0 0)
(-149.65 0 0)
(-158.369 0 0)
(-167.179 0 0)
(-175.951 0 0)
(-184.605 0 0)
(-193.119 0 0)
(-201.512 0 0)
(-209.849 0 0)
(-218.183 0 0)
(-226.577 0 0)
(-235.143 0 0)
(-243.938 0 0)
(-252.901 0 0)
(-261.974 0 0)
(-271.105 0 0)
(-280.221 0 0)
(-289.31 0 0)
(-298.306 0 0)
(-307.09 0 0)
(-315.714 0 0)
(-324.388 0 0)
(-333.144 0 0)
(-341.997 0 0)
(-351.401 0 0)
(-360.299 0 0)
(-369.024 0 0)
(-377.677 0 0)
(-386.351 0 0)
(-395.075 0 0)
(-403.728 0 0)
(-412.297 0 0)
(-420.88 0 0)
(-429.534 0 0)
(-438.21 0 0)
(-446.854 0 0)
(-455.486 0 0)
(-464.142 0 0)
(-472.809 0 0)
(-481.447 0 0)
(-490.051 0 0)
(-498.659 0 0)
(-507.294 0 0)
(-515.942 0 0)
(-524.582 0 0)
(-533.217 0 0)
(-541.862 0 0)
(-550.516 0 0)
(-559.153 0 0)
(-567.763 0 0)
(-576.358 0 0)
(-584.96 0 0)
(-593.565 0 0)
(-602.175 0 0)
(-610.771 0 0)
(-619.408 0 0)
(-628.009 0 0)
(-636.691 0 0)
(-645.238 0 0)
(-653.977 0 0)
(-662.448 0 0)
(-671.225 0 0)
(-679.612 0 0)
(-688.351 0 0)
(-696.863 0 0)
(-705.396 0 0)
(-714.038 0 0)
(-722.655 0 0)
(-731.261 0 0)
(-739.804 0 0)
(-748.593 0 0)
(-756.833 0 0)
(-765.944 0 0)
(-773.929 0 0)
(-782.971 0 0)
(-791.333 0 0)
(-799.734 0 0)
(-808.863 0 0)
(-816.684 0 0)
(-825.91 0 0)
(-834.276 0 0)
(-842.453 0 0)
(-851.873 0 0)
(-859.585 0 0)
(-868.443 0 0)
(-877.516 0 0)
(-885.039 0 0)
(-894.453 0 0)
(-903.038 0 0)
(-910.638 0 0)
(-920.375 0 0)
(-928.562 0 0)
(-936.271 0 0)
(-946.187 0 0)
(-954.118 0 0)
(-961.822 0 0)
(-971.892 0 0)
(-979.751 0 0)
(-987.286 0 0)
(-997.522 0 0)
(-1005.53 0 0)
(-1012.74 0 0)
(-1023.07 0 0)
(-1031.48 0 0)
(-1038.23 0 0)
(-1048.4 0 0)
(-1057.5 0 0)
(-1063.85 0 0)
(-1073.42 0 0)
(-1083.41 0 0)
(-1089.75 0 0)
(-1098.24 0 0)
(-1109.01 0 0)
(-1116.04 0 0)
(-1123.2 0 0)
(-1134.08 0 0)
(-1142.54 0 0)
(-1148.7 0 0)
(-1158.63 0 0)
(-1168.72 0 0)
(-1174.93 0 0)
(-1183.08 0 0)
(-1194.04 0 0)
(-1201.64 0 0)
(-1208.12 0 0)
(-1218.46 0 0)
(-1228.09 0 0)
(-1234.2 0 0)
(-1242.61 0 0)
(-1253.5 0 0)
(-1261.07 0 0)
(-1267.5 0 0)
(-1277.71 0 0)
(-1287.64 0 0)
(-1293.83 0 0)
(-1301.61 0 0)
(-1312.69 0 0)
(-1321.05 0 0)
(-1326.87 0 0)
(-1336.21 0 0)
(-1347.2 0 0)
(-1354.14 0 0)
(-1360.33 0 0)
(-1370.89 0 0)
(-1381.3 0 0)
(-1387.2 0 0)
(-1394.08 0 0)
(-1405.42 0 0)
(-1415.12 0 0)
(-1420.41 0 0)
(-1427.92 0 0)
(-1439.75 0 0)
(-1448.85 0 0)
(-1453.83 0 0)
(-1461.79 0 0)
(-1473.83 0 0)
(-1482.65 0 0)
(-1487.41 0 0)
(-1495.57 0 0)
(-1507.7 0 0)
(-1516.44 0 0)
(-1521.16 0 0)
(-1529.23 0 0)
(-1541.33 0 0)
(-1550.23 0 0)
(-1555.02 0 0)
(-1562.81 0 0)
(-1574.79 0 0)
(-1584.05 0 0)
(-1588.97 0 0)
(-1596.31 0 0)
(-1608.16 0 0)
(-1617.94 0 0)
(-1623.01 0 0)
(-1629.66 0 0)
(-1641.3 0 0)
(-1651.91 0 0)
(-1657.29 0 0)
(-1662.88 0 0)
(-1673.96 0 0)
(-1685.78 0 0)
(-1692.07 0 0)
(-1696.42 0 0)
(-1706.06 0 0)
(-1718.96 0 0)
(-1727.19 0 0)
(-1730.93 0 0)
(-1738.19 0 0)
(-1750.96 0 0)
(-1761.77 0 0)
(-1766.5 0 0)
(-1771.38 0 0)
(-1782.3 0 0)
(-1794.93 0 0)
(-1802.13 0 0)
(-1806.03 0 0)
(-1814.19 0 0)
(-1826.9 0 0)
(-1836.86 0 0)
(-1841.47 0 0)
(-1847.1 0 0)
(-1858.42 0 0)
(-1870.61 0 0)
(-1877.31 0 0)
(-1881.14 0 0)
(-1889.55 0 0)
(-1902.75 0 0)
(-1913.14 0 0)
(-1917.32 0 0)
(-1921.69 0 0)
(-1932.62 0 0)
(-1946.4 0 0)
(-1954.75 0 0)
(-1957.58 0 0)
(-1963.26 0 0)
(-1975.87 0 0)
(-1989.05 0 0)
(-1995.64 0 0)
(-1998.44 0 0)
(-2005.78 0 0)
(-2019.07 0 0)
(-2030.84 0 0)
(-2036.04 0 0)
(-2039.55 0 0)
(-2048.72 0 0)
(-2062.32 0 0)
(-2072.48 0 0)
(-2076.35 0 0)
(-2080.44 0 0)
(-2091.21 0 0)
(-2105.45 0 0)
(-2114.7 0 0)
(-2117.38 0 0)
(-2121.3 0 0)
(-2132.8 0 0)
(-2147.76 0 0)
(-2157.12 0 0)
(-2159.45 0 0)
(-2162.98 0 0)
(-2174.25 0 0)
(-2189.17 0 0)
(-2198.8 0 0)
(-2201.56 0 0)
(-2205.32 0 0)
(-2216.39 0 0)
(-2230.91 0 0)
(-2240.28 0 0)
(-2243.04 0 0)
(-2246.9 0 0)
(-2258.24 0 0)
(-2273.29 0 0)
(-2283.05 0 0)
(-2285.36 0 0)
(-2288.02 0 0)
(-2298.58 0 0)
(-2314.45 0 0)
(-2326.1 0 0)
(-2329.41 0 0)
(-2330.81 0 0)
(-2339.11 0 0)
(-2354.21 0 0)
(-2367.52 0 0)
(-2372.98 0 0)
(-2374.57 0 0)
(-2381.15 0 0)
(-2394.88 0 0)
(-2408.88 0 0)
(-2415.84 0 0)
(-2417.56 0 0)
(-2422.55 0 0)
(-2435.31 0 0)
(-2450.79 0 0)
(-2460.19 0 0)
(-2462.22 0 0)
(-2464.35 0 0)
(-2474.14 0 0)
(-2490.06 0 0)
(-2503.31 0 0)
(-2508.47 0 0)
(-2509.54 0 0)
(-2515.3 0 0)
(-2528.69 0 0)
(-2543.67 0 0)
(-2552.5 0 0)
(-2554.92 0 0)
(-2558.28 0 0)
(-2568.85 0 0)
(-2584.35 0 0)
(-2596.56 0 0)
(-2601.04 0 0)
(-2602.14 0 0)
(-2608.29 0 0)
(-2622.36 0 0)
(-2638.32 0 0)
(-2648.09 0 0)
(-2650.51 0 0)
(-2652.37 0 0)
(-2661.02 0 0)
(-2676.11 0 0)
(-2690.25 0 0)
(-2697.46 0 0)
(-2699.53 0 0)
(-2703.93 0 0)
(-2715.63 0 0)
(-2731.32 0 0)
(-2743.13 0 0)
(-2747.52 0 0)
(-2748.93 0 0)
(-2754.97 0 0)
(-2768.84 0 0)
(-2785.63 0 0)
(-2796.19 0 0)
(-2799.88 0 0)
(-2801.62 0 0)
(-2808.41 0 0)
(-2821.68 0 0)
(-2839.06 0 0)
(-2847.73 0 0)
(-2851.36 0 0)
(-2855.13 0 0)
(-2862.83 0 0)
(-2876.9 0 0)
(-2894.44 0 0)
(-2901.02 0 0)
(-2905.11 0 0)
(-2909.5 0 0)
(-2918.77 0 0)
(-2924.41 0 0)
(-2945.01 0 0)
(-2960.16 0 0)
(-2960.32 0 0)
(-2967.69 0 0)
(-2972.77 0 0)
(-2983.7 0 0)
(-2991.07 0 0)
(-3003.36 0 0)
(-3013.49 0 0)
(-3021.29 0 0)
(-3030.26 0 0)
(-3037.84 0 0)
(-3052.8 0 0)
(-3065.47 0 0)
(-3073.47 0 0)
(-3080.47 0 0)
(-3088.34 0 0)
(-3096.39 0 0)
(-3106.86 0 0)
(-3119.87 0 0)
(-3131.49 0 0)
(-3139.76 0 0)
(-3147.14 0 0)
(-3156.03 0 0)
(-3166.58 0 0)
(-3178.29 0 0)
(-3189.15 0 0)
(-3197.61 0 0)
(-3204.65 0 0)
(-3212.97 0 0)
(-3223.98 0 0)
(-3236.5 0 0)
(-3248.83 0 0)
(-3258.97 0 0)
(-3266.78 0 0)
(-3274.69 0 0)
(-3284.97 0 0)
(-3296.96 0 0)
(-3308.95 0 0)
(-3319.4 0 0)
(-3327.51 0 0)
(-3335.43 0 0)
(-3345.42 0 0)
(-3357.46 0 0)
(-3369.94 0 0)
(-3381.65 0 0)
(-3390.94 0 0)
(-3398.51 0 0)
(-3407.66 0 0)
(-3419.33 0 0)
(-3431.73 0 0)
(-3443.44 0 0)
(-3453.58 0 0)
(-3461.64 0 0)
(-3469.94 0 0)
(-3480.82 0 0)
(-3493.08 0 0)
(-3504.85 0 0)
(-3515.87 0 0)
(-3525.18 0 0)
(-3532.85 0 0)
(-3541.85 0 0)
(-3553.88 0 0)
(-3566.77 0 0)
(-3577.95 0 0)
(-3587.13 0 0)
(-3595.16 0 0)
(-3603.48 0 0)
(-3613.62 0 0)
(-3625.34 0 0)
(-3637.06 0 0)
(-3647.15 0 0)
(-3655.29 0 0)
(-3662.79 0 0)
(-3671.51 0 0)
(-3682.48 0 0)
(-3694.52 0 0)
(-3705.36 0 0)
(-3713.68 0 0)
(-3720.51 0 0)
(-3728.03 0 0)
(-3737.48 0 0)
(-3748.34 0 0)
(-3758.99 0 0)
(-3768.24 0 0)
(-3775.62 0 0)
(-3782.02 0 0)
(-3789.52 0 0)
(-3799.21 0 0)
(-3810 0 0)
(-3819.66 0 0)
(-3827.28 0 0)
(-3833.67 0 0)
(-3839.96 0 0)
(-3847.48 0 0)
(-3856.89 0 0)
(-3867.19 0 0)
(-3876.04 0 0)
(-3882.27 0 0)
(-3887.45 0 0)
(-3893.91 0 0)
(-3902.49 0 0)
(-3912.18 0 0)
(-3921.43 0 0)
(-3928.77 0 0)
(-3934.07 0 0)
(-3939.2 0 0)
(-3946.17 0 0)
(-3955.17 0 0)
(-3964.48 0 0)
(-3972.43 0 0)
(-3978.68 0 0)
(-3984.1 0 0)
(-3989.96 0 0)
(-3997.3 0 0)
(-4006.09 0 0)
(-4015.01 0 0)
(-4022.7 0 0)
(-4028.65 0 0)
(-4033.53 0 0)
(-4039 0 0)
(-4046.5 0 0)
(-4055.6 0 0)
(-4064.36 0 0)
(-4071.28 0 0)
(-4076.51 0 0)
(-4081.56 0 0)
(-4087.95 0 0)
(-4096.27 0 0)
(-4105.62 0 0)
(-4114.14 0 0)
(-4120.67 0 0)
(-4125.87 0 0)
(-4131.53 0 0)
(-4138.62 0 0)
(-4147 0 0)
(-4155.8 0 0)
(-4163.86 0 0)
(-4170.26 0 0)
(-4175.34 0 0)
(-4180.88 0 0)
(-4188.48 0 0)
(-4197.8 0 0)
(-4206.95 0 0)
(-4214.22 0 0)
(-4219.82 0 0)
(-4225.12 0 0)
(-4231.62 0 0)
(-4239.87 0 0)
(-4248.92 0 0)
(-4257.45 0 0)
(-4264.44 0 0)
(-4270.04 0 0)
(-4275.48 0 0)
(-4282.14 0 0)
(-4290.64 0 0)
(-4300.07 0 0)
(-4308.74 0 0)
(-4315.49 0 0)
(-4320.81 0 0)
(-4326.43 0 0)
(-4333.71 0 0)
(-4342.74 0 0)
(-4352.16 0 0)
(-4360.43 0 0)
(-4366.78 0 0)
(-4372.1 0 0)
(-4378.05 0 0)
(-4385.83 0 0)
(-4395.12 0 0)
(-4404.43 0 0)
(-4412.41 0 0)
(-4418.79 0 0)
(-4424.59 0 0)
(-4431.05 0 0)
(-4438.89 0 0)
(-4447.87 0 0)
(-4456.96 0 0)
(-4465.04 0 0)
(-4471.57 0 0)
(-4477.1 0 0)
(-4483.31 0 0)
(-4491.44 0 0)
(-4501.26 0 0)
(-4511.04 0 0)
(-4518.79 0 0)
(-4524.3 0 0)
(-4529.39 0 0)
(-4536.31 0 0)
(-4545.78 0 0)
(-4556.32 0 0)
(-4565.49 0 0)
(-4572.01 0 0)
(-4577 0 0)
(-4582.67 0 0)
(-4590.73 0 0)
(-4600.87 0 0)
(-4611.07 0 0)
(-4619.38 0 0)
(-4625.35 0 0)
(-4630.62 0 0)
(-4637.26 0 0)
(-4646.39 0 0)
(-4656.91 0 0)
(-4666.55 0 0)
(-4673.8 0 0)
(-4679.19 0 0)
(-4684.87 0 0)
(-4692.66 0 0)
(-4702.72 0 0)
(-4713.05 0 0)
(-4721.76 0 0)
(-4728.19 0 0)
(-4733.75 0 0)
(-4740.5 0 0)
(-4749.48 0 0)
(-4759.8 0 0)
(-4769.36 0 0)
(-4776.99 0 0)
(-4782.87 0 0)
(-4789 0 0)
(-4796.96 0 0)
(-4806.88 0 0)
(-4817.19 0 0)
(-4826.09 0 0)
(-4832.96 0 0)
(-4838.82 0 0)
(-4845.63 0 0)
(-4854.48 0 0)
(-4864.81 0 0)
(-4874.81 0 0)
(-4882.88 0 0)
(-4889.12 0 0)
(-4895.06 0 0)
(-4902.63 0 0)
(-4912.47 0 0)
(-4923.33 0 0)
(-4933.11 0 0)
(-4940.38 0 0)
(-4945.98 0 0)
(-4952.01 0 0)
(-4960.37 0 0)
(-4971.09 0 0)
(-4982.2 0 0)
(-4991.44 0 0)
(-4998.06 0 0)
(-5003.48 0 0)
(-5010.19 0 0)
(-5019.6 0 0)
(-5030.96 0 0)
(-5041.85 0 0)
(-5050.24 0 0)
(-5056.22 0 0)
(-5061.76 0 0)
(-5069.32 0 0)
(-5079.46 0 0)
(-5090.91 0 0)
(-5101.09 0 0)
(-5108.72 0 0)
(-5114.57 0 0)
(-5120.82 0 0)
(-5129.41 0 0)
(-5140.19 0 0)
(-5151.43 0 0)
(-5160.94 0 0)
(-5168.16 0 0)
(-5174.22 0 0)
(-5181.37 0 0)
(-5190.68 0 0)
(-5201.54 0 0)
(-5212.19 0 0)
(-5220.9 0 0)
(-5227.83 0 0)
(-5234.37 0 0)
(-5242.23 0 0)
(-5252.01 0 0)
(-5262.84 0 0)
(-5273.04 0 0)
(-5281.52 0 0)
(-5288.73 0 0)
(-5295.84 0 0)
(-5304.3 0 0)
(-5314.22 0 0)
(-5324.65 0 0)
(-5334.46 0 0)
(-5342.78 0 0)
(-5350.26 0 0)
(-5357.83 0 0)
(-5366.47 0 0)
(-5376.33 0 0)
(-5386.57 0 0)
(-5396.37 0 0)
(-5405.04 0 0)
(-5412.98 0 0)
(-5420.86 0 0)
(-5429.66 0 0)
(-5439.35 0 0)
(-5449.45 0 0)
(-5459.2 0 0)
(-5468.01 0 0)
(-5476.22 0 0)
(-5484.29 0 0)
(-5493.08 0 0)
(-5502.68 0 0)
(-5512.74 0 0)
(-5522.53 0 0)
(-5531.7 0 0)
(-5540.14 0 0)
(-5548.43 0 0)
(-5557.21 0 0)
(-5566.64 0 0)
(-5576.62 0 0)
(-5586.53 0 0)
(-5596 0 0)
(-5604.81 0 0)
(-5613.35 0 0)
(-5622 0 0)
(-5631.18 0 0)
(-5640.89 0 0)
(-5650.84 0 0)
(-5660.62 0 0)
(-5670 0 0)
(-5678.89 0 0)
(-5687.67 0 0)
(-5696.75 0 0)
(-5706.22 0 0)
(-5716.16 0 0)
(-5726 0 0)
(-5735.73 0 0)
(-5744.99 0 0)
(-5754.02 0 0)
(-5763.1 0 0)
(-5772.29 0 0)
(-5781.98 0 0)
(-5791.79 0 0)
(-5801.72 0 0)
(-5811.4 0 0)
(-5820.84 0 0)
(-5830.21 0 0)
(-5839.43 0 0)
(-5848.98 0 0)
(-5858.55 0 0)
(-5868.39 0 0)
(-5878.18 0 0)
(-5887.9 0 0)
(-5897.68 0 0)
(-5907.06 0 0)
(-5916.88 0 0)
(-5926.26 0 0)
(-5936.18 0 0)
(-5945.86 0 0)
(-5955.66 0 0)
(-5965.64 0 0)
(-5975.21 0 0)
(-5985.34 0 0)
(-5994.82 0 0)
(-6004.83 0 0)
(-6014.48 0 0)
(-6024.28 0 0)
(-6034.26 0 0)
(-6043.95 0 0)
(-6054.1 0 0)
(-6063.87 0 0)
(-6073.87 0 0)
(-6084 0 0)
(-6093.69 0 0)
(-6104.06 0 0)
(-6113.6 0 0)
(-6123.94 0 0)
(-6133.61 0 0)
(-6143.79 0 0)
(-6153.83 0 0)
(-6163.71 0 0)
(-6174.34 0 0)
(-6183.77 0 0)
(-6194.65 0 0)
(-6203.97 0 0)
(-6214.79 0 0)
(-6224.25 0 0)
(-6234.88 0 0)
(-6244.69 0 0)
(-6254.93 0 0)
(-6265.5 0 0)
(-6274.86 0 0)
(-6286.51 0 0)
(-6294.9 0 0)
(-6307.2 0 0)
(-6315.4 0 0)
(-6327.1 0 0)
(-6336.9 0 0)
(-6346.27 0 0)
(-6358.84 0 0)
(-6365.91 0 0)
(-6379.92 0 0)
(-6386.69 0 0)
(-6400.02 0 0)
(-6408.21 0 0)
(-6419.5 0 0)
(-6430.25 0 0)
(-6438.59 0 0)
(-6452.49 0 0)
(-6458.4 0 0)
(-6473.77 0 0)
(-6479.51 0 0)
(-6493.85 0 0)
(-6501.33 0 0)
(-6513.55 0 0)
(-6523.68 0 0)
(-6532.27 0 0)
(-6547.27 0 0)
(-6550.71 0 0)
(-6569.81 0 0)
(-6572 0 0)
(-6589.33 0 0)
(-6595.41 0 0)
(-6608.49 0 0)
(-6618.53 0 0)
(-6627.27 0 0)
(-6643.06 0 0)
(-6644.58 0 0)
(-6667.41 0 0)
(-6664.4 0 0)
(-6687.69 0 0)
(-6688.63 0 0)
(-6704.9 0 0)
(-6714.8 0 0)
(-6721.8 0 0)
(-6739.91 0 0)
(-6741.29 0 0)
(-6761.89 0 0)
(-6763.1 0 0)
(-6783.37 0 0)
(-6784.53 0 0)
(-6803.69 0 0)
(-6810.02 0 0)
(-6819.25 0 0)
(-6837.04 0 0)
(-6838.76 0 0)
(-6857.38 0 0)
(-6863.31 0 0)
(-6877.65 0 0)
(-6884.6 0 0)
(-6900.68 0 0)
(-6906.68 0 0)
(-6920.94 0 0)
(-6930.61 0 0)
(-6941.77 0 0)
(-6953.95 0 0)
(-6960.64 0 0)
(-6981.34 0 0)
(-6978.55 0 0)
(-7003.02 0 0)
(-7006.03 0 0)
(-7018.38 0 0)
(-7032.52 0 0)
(-7040.41 0 0)
(-7053.37 0 0)
(-7063.15 0 0)
(-7077.76 0 0)
(-7082.49 0 0)
(-7102.5 0 0)
(-7104.86 0 0)
(-7123.76 0 0)
(-7129.05 0 0)
(-7145.3 0 0)
(-7151.81 0 0)
(-7168.12 0 0)
(-7176.39 0 0)
(-7185.97 0 0)
(-7206.07 0 0)
(-7203.44 0 0)
(-7230.76 0 0)
(-7227.72 0 0)
(-7251.75 0 0)
(-7252.36 0 0)
(-7273.23 0 0)
(-7277.91 0 0)
(-7292.15 0 0)
(-7308.77 0 0)
(-7304.53 0 0)
(-7341.32 0 0)
(-7328.18 0 0)
(-7351.72 0 0)
(-7370.27 0 0)
(-7365.26 0 0)
(-7387.04 0 0)
(-7406.08 0 0)
(-7401.33 0 0)
(-7418.88 0 0)
(-7450.29 0 0)
(-7425.66 0 0)
(-7465.88 0 0)
(-7478.65 0 0)
(-7464.98 0 0)
(-7503 0 0)
(-7508.57 0 0)
(-7512.85 0 0)
(-7524.82 0 0)
(-7557.99 0 0)
(-7539.51 0 0)
(-7567.45 0 0)
(-7593.36 0 0)
(-7570.16 0 0)
(-7616.44 0 0)
(-7615.04 0 0)
(-7620.62 0 0)
(-7644.56 0 0)
(-7653.21 0 0)
(-7662.04 0 0)
(-7676.57 0 0)
(-7694.67 0 0)
(-7691.32 0 0)
(-7724.15 0 0)
(-7724.15 0 0)
(-7733.89 0 0)
(-7753.17 0 0)
(-7767.42 0 0)
(-7775.84 0 0)
(-7779.19 0 0)
(-7811.44 0 0)
(-7811.75 0 0)
(-7818.51 0 0)
(-7846.08 0 0)
(-7849.67 0 0)
(-7855.4 0 0)
(-7884.67 0 0)
(-7887.94 0 0)
(-7891.83 0 0)
(-7918.93 0 0)
(-7926.61 0 0)
(-7936.56 0 0)
(-7945.83 0 0)
(-7967.05 0 0)
(-7976.67 0 0)
(-7980.59 0 0)
(-8004.61 0 0)
(-8011.9 0 0)
(-8024.05 0 0)
(-8032.16 0 0)
(-8054.27 0 0)
(-8062.01 0 0)
(-8067.55 0 0)
(-8089.72 0 0)
(-8099.49 0 0)
(-8104.63 0 0)
(-8122.99 0 0)
(-8142.99 0 0)
(-8140.4 0 0)
(-8151.74 0 0)
(-8174.71 0 0)
(-8194.18 0 0)
(-8186.43 0 0)
(-8195.24 0 0)
(-8231 0 0)
(-8232.14 0 0)
(-8236.64 0 0)
(-8258.95 0 0)
(-8263.04 0 0)
(-8272.22 0 0)
(-8300.58 0 0)
(-8302.45 0 0)
(-8305.15 0 0)
(-8331.12 0 0)
(-8334.07 0 0)
(-8345.71 0 0)
(-8370.54 0 0)
(-8374.56 0 0)
(-8374.21 0 0)
(-8387.94 0 0)
(-8417.25 0 0)
(-8435.22 0 0)
(-8424.2 0 0)
(-8420.77 0 0)
(-8452.96 0 0)
(-8489.64 0 0)
(-8490.71 0 0)
(-8469.08 0 0)
(-8475.08 0 0)
(-8522.68 0 0)
(-8557.37 0 0)
(-8536.57 0 0)
(-8512.77 0 0)
(-8547.88 0 0)
(-8597.48 0 0)
(-8596.18 0 0)
(-8576.17 0 0)
(-8591.8 0 0)
(-8622.97 0 0)
(-8634.88 0 0)
(-8639.31 0 0)
(-8650.32 0 0)
(-8660.43 0 0)
(-8669.72 0 0)
(-8685 0 0)
(-8701.61 0 0)
(-8711.03 0 0)
(-8716.42 0 0)
(-8727.66 0 0)
(-8744.23 0 0)
(-8757.16 0 0)
(-8765.8 0 0)
(-8777.01 0 0)
(-8787.87 0 0)
(-8794.6 0 0)
(-8806.61 0 0)
(-8828.79 0 0)
(-8845.85 0 0)
(-8845.93 0 0)
(-8842.88 0 0)
(-8854.48 0 0)
(-8880.2 0 0)
(-8903.95 0 0)
(-8913.49 0 0)
(-8907.32 0 0)
(-8904.81 0 0)
(-8920.98 0 0)
(-8951.89 0 0)
(-8970.49 0 0)
(-8974.22 0 0)
(-8967.14 0 0)
(-8976.81 0 0)
(-8988.71 0 0)
(-9015.33 0 0)
(-9029.14 0 0)
(-9044.57 0 0)
(-9032.5 0 0)
(-9035.46 0 0)
(-9035.27 0 0)
(-9073.73 0 0)
(-9090.77 0 0)
(-9113.47 0 0)
(-9090.59 0 0)
(-9092.06 0 0)
(-9088.18 0 0)
(-9120.13 0 0)
(-9141.72 0 0)
(-9167.94 0 0)
(-9152.53 0 0)
(-9153.56 0 0)
(-9134.94 0 0)
(-9158.62 0 0)
(-9165.85 0 0)
(-9193.15 0 0)
(-9190.85 0 0)
(-9194.48 0 0)
(-9195.6 0 0)
(-9203.96 0 0)
(-9210.25 0 0)
(-9211.21 0 0)
(-9202.97 0 0)
(-9207.97 0 0)
(-9213.57 0 0)
(-9227.17 0 0)
(-9231.68 0 0)
(-9240.21 0 0)
(-9236.29 0 0)
(-9231.08 0 0)
(-9219.71 0 0)
(-9213.99 0 0)
(-9206.4 0 0)
(-9192.49 0 0)
)
;

boundaryField
{
    sides
    {
        type            calculated;
        value           nonuniform List<vector> 2((-9192.49 0 0) (-41.9142 0 0));
    }
    empty
    {
        type            empty;
    }
}


// ************************************************************************* //
