/*--------------------------------*- C++ -*----------------------------------*\
  =========                 |
  \\      /  F ield         | OpenFOAM: The Open Source CFD Toolbox
   \\    /   O peration     | Website:  https://openfoam.org
    \\  /    A nd           | Version:  9
     \\/     M anipulation  |
\*---------------------------------------------------------------------------*/
FoamFile
{
    format      ascii;
    class       surfaceScalarField;
    location    "0.032";
    object      ddtCorrDdt0(phi);
}
// * * * * * * * * * * * * * * * * * * * * * * * * * * * * * * * * * * * * * //

dimensions      [1 0 -2 0 0 0 0];

internalField   nonuniform List<scalar> 
999
(
-202.119
-236.826
-271.568
-306.321
-340.78
-375.069
-409.665
-444.632
-479.518
-513.946
-547.913
-581.791
-616.168
-651.222
-686.474
-721.441
-755.953
-789.888
-823.357
-856.66
-889.906
-923.477
-958.016
-993.456
-1029.39
-1065.81
-1102.37
-1138.78
-1175.24
-1211.01
-1245.66
-1280.12
-1315.05
-1350.03
-1386.47
-1423.35
-1458.74
-1493.58
-1528.04
-1562.95
-1597.79
-1632.18
-1666.38
-1700.86
-1735.59
-1770.24
-1804.74
-1839.3
-1873.98
-1908.62
-1943.08
-1977.47
-2011.95
-2046.54
-2081.13
-2115.66
-2150.21
-2184.82
-2219.42
-2253.92
-2288.3
-2322.69
-2357.12
-2391.55
-2425.94
-2460.4
-2494.89
-2529.46
-2563.91
-2598.47
-2632.92
-2667.45
-2701.72
-2735.97
-2770.49
-2804.6
-2838.84
-2873.46
-2907.88
-2942.21
-2976.83
-3010.89
-3045.63
-3079.82
-3113.82
-3148.66
-3182.19
-3217.22
-3251.16
-3285.22
-3320.42
-3353.51
-3388.68
-3422.99
-3456.08
-3491.95
-3525.19
-3558.99
-3595.03
-3627.43
-3662.02
-3697.94
-3729.74
-3764.9
-3800.69
-3831.95
-3867.4
-3903.37
-3934.14
-3969.57
-4006.18
-4036.63
-4071.57
-4109.17
-4139.55
-4173.21
-4211.83
-4242.84
-4274.5
-4313.64
-4346.47
-4375.99
-4414.43
-4450.22
-4478.55
-4514.47
-4553.31
-4582.62
-4614.6
-4654.69
-4687.48
-4716.05
-4754.16
-4791.48
-4819.63
-4853.07
-4893.11
-4924.75
-4953.63
-4992.16
-5029.26
-5057.25
-5090.34
-5130.71
-5163.11
-5190.89
-5228.5
-5267.56
-5295.98
-5326.09
-5366.76
-5402.84
-5429.05
-5462.33
-5504.37
-5537.2
-5562.62
-5598.87
-5641.12
-5671.27
-5696.68
-5735.2
-5777.29
-5805.58
-5831.2
-5871.09
-5913.07
-5940.34
-5965.92
-6006.4
-6048.39
-6075.41
-6100.75
-6140.97
-6183.2
-6210.72
-6235.66
-6275.06
-6317.75
-6346.25
-6370.56
-6408.78
-6452.24
-6482.11
-6505.37
-6541.77
-6586.43
-6618.62
-6640.44
-6673.53
-6719.42
-6755.9
-6777.12
-6804.83
-6849.9
-6892.44
-6916.46
-6938.21
-6978.13
-7025.49
-7056.78
-7075.86
-7107.21
-7154.37
-7194.29
-7216.51
-7240.38
-7282.02
-7327.57
-7356.88
-7377.2
-7410.88
-7458
-7496.02
-7517.06
-7541.29
-7584.43
-7631.84
-7661.17
-7678.1
-7708.45
-7757.92
-7802.47
-7824.92
-7841.7
-7878.06
-7929.78
-7969.6
-7988.37
-8008.37
-8049.52
-8099.83
-8133.98
-8151.33
-8176.43
-8221.94
-8269.69
-8297.89
-8313.66
-8343.14
-8393.17
-8440.43
-8464.42
-8477.41
-8508.01
-8560.99
-8609.91
-8633.42
-8644.93
-8674.26
-8726.69
-8776.07
-8800.97
-8813.84
-8843.25
-8894.46
-8942.5
-8966.88
-8979.94
-9010.12
-9062.93
-9112.8
-9137.09
-9146.86
-9173.03
-9225.88
-9281.19
-9311.3
-9320.6
-9339.72
-9386.44
-9443.47
-9481.23
-9495.31
-9511.4
-9551.88
-9607.48
-9649.63
-9667.01
-9680.21
-9715.54
-9772.1
-9822.1
-9845.09
-9853.25
-9876.85
-9928.23
-9986.78
-10023.8
-10036.2
-10049.7
-10087.8
-10144.6
-10192.5
-10215.1
-10226.5
-10254.1
-10306.3
-10361.9
-10395.4
-10406.6
-10420.8
-10461.1
-10521.3
-10573
-10597.4
-10605.9
-10626.7
-10674.1
-10732.7
-10775.6
-10794.2
-10807
-10839
-10893.8
-10949
-10981.5
-10993
-11008.4
-11046.3
-11110.1
-11163.4
-11192.2
-11202.8
-11222.1
-11256.5
-11324.4
-11372.6
-11399
-11410.6
-11441.5
-11471.7
-11548.4
-11590.4
-11609.4
-11633.5
-11652.2
-11693
-11727.6
-11821.6
-11835.9
-11857.5
-11879.2
-11917.4
-11949
-11993
-12049.5
-12056.8
-12094.4
-12133.1
-12177.4
-12239.1
-12277.2
-12306
-12337.9
-12370.1
-12405.7
-12453.1
-12503.3
-12542.6
-12573.7
-12606.4
-12645.3
-12689.8
-12735
-12773.7
-12804.6
-12835.3
-12873.9
-12920.9
-12970.7
-13015.7
-13051.6
-13083
-13119.4
-13163.9
-13211.9
-13256.8
-13293.9
-13326
-13361.7
-13405.7
-13454.8
-13503.2
-13545.2
-13579
-13612.4
-13654
-13702.2
-13750.4
-13794.1
-13830.5
-13863.2
-13901.5
-13947.8
-13995.9
-14041.5
-14082.1
-14116.1
-14149.4
-14191.4
-14241.3
-14289.5
-14330.2
-14364.7
-14397.3
-14434.2
-14477.9
-14524.8
-14568.4
-14604.9
-14636.2
-14668.6
-14708
-14754
-14799.8
-14838.1
-14868.4
-14897.1
-14931
-14971.6
-15014.6
-15054.5
-15087.7
-15115.3
-15143.1
-15177.4
-15218.4
-15259.3
-15293.9
-15321.9
-15347.3
-15374.8
-15408.7
-15448.1
-15486.4
-15516.6
-15539.4
-15562.7
-15592.7
-15629.3
-15667.2
-15700.4
-15725.7
-15746.5
-15770.7
-15802.6
-15839.2
-15873.8
-15902.2
-15925.5
-15948.1
-15974.5
-16006.7
-16042.2
-16075.4
-16102.7
-16124.4
-16145.1
-16171
-16204.2
-16239.9
-16271.3
-16295.6
-16316.2
-16339
-16368.4
-16403.7
-16439.5
-16469.6
-16493.1
-16514.8
-16540.3
-16571.2
-16605.6
-16639.3
-16668.3
-16691.2
-16712.4
-16738.7
-16772.5
-16809.5
-16842.3
-16868.1
-16889.9
-16913.5
-16942.9
-16977.5
-17012.7
-17043.8
-17069
-17091
-17115.2
-17145.5
-17181.4
-17217.6
-17248.5
-17272.6
-17294.5
-17320.3
-17352.9
-17389.8
-17425.2
-17454.4
-17477.8
-17500.3
-17527.7
-17561.8
-17599.1
-17633.7
-17662.4
-17686.8
-17711.3
-17739.9
-17773.5
-17809.6
-17844
-17873.2
-17897.4
-17920.8
-17949.5
-17985.3
-18024.6
-18059.7
-18086.2
-18107.4
-18131.4
-18164.1
-18204.2
-18243.6
-18275
-18298
-18319.3
-18346.8
-18383.2
-18423.8
-18460.9
-18489.5
-18511.9
-18535.7
-18567.3
-18606.6
-18646.9
-18680.7
-18706
-18728.1
-18755
-18790.7
-18831.5
-18869.6
-18899.9
-18923.9
-18948.5
-18979.9
-19018.5
-19058.3
-19092.7
-19119.7
-19143.7
-19171.9
-19207.6
-19248.1
-19286.6
-19318.1
-19343.6
-19368.9
-19400.2
-19438.5
-19479.2
-19515.4
-19544
-19568.4
-19595.4
-19630.2
-19671.6
-19712.9
-19747
-19772.7
-19796
-19824.7
-19862.9
-19906.6
-19947.3
-19979
-20003.1
-20027.3
-20059.6
-20101.1
-20145.6
-20184.2
-20213
-20236
-20262.2
-20297.5
-20340.7
-20384
-20419.6
-20446.6
-20470.8
-20500.4
-20539.1
-20583.2
-20624.7
-20658.2
-20684.8
-20711.2
-20744.1
-20784.4
-20827.4
-20866.2
-20897.5
-20924.4
-20953.2
-20988.5
-21029.7
-21071.8
-21109.1
-21140.5
-21169.2
-21200.3
-21237
-21277.7
-21318.2
-21354.5
-21386.1
-21416.2
-21448.6
-21485.6
-21525.8
-21565.9
-21602.8
-21636.1
-21667.7
-21701
-21738
-21777.6
-21817.3
-21854.4
-21888.5
-21921
-21954.7
-21991.5
-22030.8
-22070.5
-22108.5
-22143.7
-22177.2
-22211.3
-22247.7
-22286.5
-22326.3
-22365.1
-22401.6
-22436.3
-22470.7
-22506.3
-22544.1
-22583.4
-22622.9
-22661.2
-22697.8
-22733.1
-22768.8
-22805.9
-22844.8
-22884.3
-22923.5
-22961.4
-22998
-23034.2
-23070.8
-23108.5
-23147.5
-23187
-23226.2
-23264.5
-23302.1
-23339.3
-23376.8
-23415.1
-23453.9
-23493.1
-23532.2
-23571.2
-23609.5
-23647.9
-23686.3
-23724.9
-23764.1
-23803
-23842.6
-23881.7
-23921.1
-23960.3
-23999.3
-24038.6
-24077.5
-24117.1
-24156.4
-24196.1
-24235.9
-24275.5
-24315.7
-24355.4
-24395.5
-24435.3
-24475.1
-24515.1
-24554.8
-24595.2
-24635.1
-24676.1
-24716.2
-24756.8
-24797.2
-24837.5
-24878.1
-24918.3
-24959.1
-24999.2
-25040.8
-25080.7
-25122.7
-25162.8
-25204.2
-25245.2
-25285
-25328
-25366.3
-25410.2
-25449.5
-25491.7
-25533.2
-25573.4
-25616.5
-25655.4
-25699.5
-25737.7
-25782.1
-25821.8
-25864.3
-25906.6
-25946.7
-25990.4
-26029.8
-26074.5
-26111.9
-26159.1
-26196
-26241
-26283.6
-26322.6
-26369.5
-26407.8
-26454
-26491.6
-26540.6
-26575.3
-26623.9
-26663.6
-26704.2
-26752.7
-26787
-26839.4
-26873.2
-26923.4
-26962.4
-27006.3
-27050
-27092.9
-27135.8
-27176.4
-27227.4
-27258.6
-27312.6
-27351.6
-27392.2
-27441.4
-27481.9
-27524.5
-27570.5
-27614.7
-27655.2
-27703.1
-27744.8
-27791.4
-27829.2
-27883.9
-27919.8
-27963.1
-28018.1
-28048.8
-28101.8
-28145.8
-28187.5
-28233
-28281.8
-28320.5
-28370
-28414.7
-28457.2
-28505.6
-28548.7
-28594.2
-28639.8
-28689
-28724.7
-28784
-28819
-28868.4
-28917
-28958.9
-29008.2
-29051.1
-29102.3
-29140.1
-29201.8
-29226.6
-29291.6
-29339
-29359.7
-29443.9
-29471.1
-29504.6
-29586.2
-29614.8
-29640.4
-29738.3
-29752
-29783
-29889.1
-29887.3
-29935.9
-30023.1
-30042.9
-30075.3
-30165.6
-30195.1
-30213.9
-30321.6
-30327.1
-30373.1
-30463
-30471.3
-30530.3
-30595.5
-30630.5
-30677.2
-30742.4
-30772
-30830.9
-30896.6
-30916.1
-30974.1
-31041.2
-31086.5
-31110
-31181.2
-31246.4
-31260.5
-31329.1
-31391.5
-31410.1
-31480.1
-31545.2
-31559.6
-31621.5
-31691.1
-31726.4
-31764.8
-31825.7
-31887.5
-31914.5
-31970.4
-32033
-32071.9
-32112.4
-32172.8
-32232.6
-32259.1
-32314.5
-32378.5
-32408.3
-32455.2
-32532
-32566.8
-32584.3
-32652.9
-32737.8
-32761.3
-32763.3
-32852.4
-32926.3
-32937.6
-32991.2
-33044
-33070.5
-33145.6
-33206.1
-33215.3
-33272.5
-33330.4
-33359.6
-33432.5
-33490.3
-33497.6
-33524.2
-33610.3
-33705
-33719
-33689.9
-33747.3
-33885.1
-33960.9
-33919.8
-33888.2
-33995.3
-34160.1
-34188.2
-34098.8
-34121.1
-34290.6
-34387.5
-34344.9
-34335.9
-34429.4
-34515.7
-34548.5
-34579.3
-34621.5
-34660.3
-34709.4
-34773.2
-34825.3
-34854.9
-34888.1
-34943.7
-35002.8
-35046
-35085.7
-35129.8
-35165
-35202.4
-35270.7
-35349.3
-35383.7
-35377.7
-35394.7
-35469.2
-35568.3
-35635
-35641.8
-35624.3
-35651.5
-35745.6
-35844.8
-35889.5
-35882.8
-35887.9
-35930.9
-36008
-36088.9
-36147.5
-36154.3
-36136
-36141.4
-36217.8
-36328.9
-36408.6
-36408.3
-36365.4
-36360.4
-36416.4
-36523.6
-36619.3
-36641.1
-36612.3
-36577
-36587
-36648.8
-36717.8
-36767.9
-36770.5
-36779.7
-36799.1
-36826.5
-36843.2
-36829.1
-36816.5
-36846.1
-36880.4
-36915
-36948.7
-36952.7
-36936.9
-36907.6
-36869
-36843.2
-36814.4
)
;

boundaryField
{
    sides
    {
        type            calculated;
        value           nonuniform List<scalar> 2(-36765.9 167.388);
    }
    empty
    {
        type            empty;
        value           nonuniform List<scalar> 0();
    }
}


// ************************************************************************* //
