/*--------------------------------*- C++ -*----------------------------------*\
  =========                 |
  \\      /  F ield         | OpenFOAM: The Open Source CFD Toolbox
   \\    /   O peration     | Website:  https://openfoam.org
    \\  /    A nd           | Version:  9
     \\/     M anipulation  |
\*---------------------------------------------------------------------------*/
FoamFile
{
    format      ascii;
    class       surfaceScalarField;
    location    "0.032";
    object      phi_0;
}
// * * * * * * * * * * * * * * * * * * * * * * * * * * * * * * * * * * * * * //

dimensions      [1 0 -1 0 0 0 0];

internalField   nonuniform List<scalar> 
999
(
20.634
21.0846
21.5348
21.9849
22.4348
22.8843
23.3335
23.7826
24.2316
24.6804
25.1288
25.5767
26.0242
26.4717
26.9192
27.3669
27.8145
28.2619
28.7087
29.1548
29.6001
30.0449
30.4895
30.9342
31.3793
31.825
32.2713
32.7183
33.1658
33.6136
34.0615
34.5094
34.9572
35.405
35.853
36.3021
36.7513
37.2005
37.6497
38.0987
38.5477
38.9966
39.4454
39.8941
40.3427
40.7912
41.2396
41.6879
42.1361
42.5843
43.0323
43.4803
43.9282
44.376
44.8237
45.2713
45.7189
46.1663
46.6137
47.061
47.5082
47.9553
48.4023
48.8492
49.2961
49.7428
50.1895
50.6361
51.0826
51.529
51.9753
52.4215
52.8677
53.3137
53.7597
54.2056
54.6513
55.097
55.5426
55.9881
56.4335
56.8789
57.324
57.7694
58.2142
58.6593
59.1041
59.5488
59.9937
60.438
60.8827
61.3272
61.7712
62.2158
62.6597
63.1037
63.5479
63.9914
64.4353
64.8792
65.3223
65.7661
66.2096
66.6523
67.096
67.5391
67.9816
68.425
68.8679
69.3099
69.7531
70.1957
70.6374
71.0802
71.5228
71.9641
72.4064
72.849
73.2901
73.7317
74.1742
74.6152
75.0561
75.4983
75.9395
76.3797
76.8213
77.2628
77.7028
78.1434
78.585
79.0251
79.4648
79.9059
80.3464
80.7857
81.2258
81.6666
82.1059
82.545
82.9853
83.4251
83.8636
84.303
84.743
85.1817
85.6199
86.0594
86.4988
86.9366
87.3748
87.8142
88.2527
88.6899
89.1281
89.5672
90.0048
90.4416
90.8796
91.3183
91.7552
92.1915
92.6294
93.0676
93.5039
93.9398
94.3774
94.8151
95.2509
95.6864
96.1235
96.5608
96.9961
97.4311
97.8678
98.3046
98.7396
99.1741
99.6102
100.047
100.481
100.915
101.351
101.787
102.221
102.654
103.089
103.525
103.959
104.392
104.826
105.261
105.695
106.127
106.56
106.995
107.429
107.861
108.293
108.726
109.161
109.593
110.024
110.456
110.89
111.323
111.754
112.185
112.617
113.05
113.481
113.911
114.342
114.775
115.206
115.636
116.066
116.497
116.929
117.359
117.788
118.217
118.648
119.08
119.508
119.936
120.365
120.796
121.226
121.654
122.081
122.51
122.94
123.369
123.796
124.223
124.652
125.081
125.509
125.934
126.361
126.789
127.218
127.644
128.069
128.495
128.923
129.351
129.776
130.2
130.625
131.052
131.479
131.904
132.327
132.751
133.177
133.603
134.027
134.45
134.873
135.298
135.724
136.147
136.568
136.99
137.414
137.839
138.262
138.683
139.103
139.526
139.949
140.372
140.792
141.212
141.633
142.055
142.477
142.897
143.315
143.734
144.156
144.577
144.996
145.414
145.831
146.25
146.671
147.09
147.507
147.923
148.34
148.759
149.177
149.594
150.009
150.424
150.841
151.258
151.675
152.089
152.501
152.916
153.332
153.748
154.162
154.574
154.985
155.399
155.813
156.227
156.638
157.048
157.459
157.871
158.284
158.695
159.104
159.511
159.92
160.331
160.741
161.15
161.557
161.963
162.369
162.777
163.185
163.592
163.996
164.399
164.804
165.21
165.615
166.019
166.421
166.822
167.222
167.625
168.028
168.429
168.829
169.227
169.626
170.025
170.425
170.824
171.222
171.619
172.014
172.41
172.805
173.199
173.593
173.985
174.376
174.767
175.158
175.549
175.938
176.327
176.714
177.101
177.488
177.875
178.26
178.644
179.027
179.409
179.791
180.173
180.554
180.933
181.312
181.689
182.066
182.442
182.818
183.192
183.565
183.937
184.309
184.68
185.05
185.419
185.787
186.153
186.519
186.884
187.248
187.612
187.974
188.335
188.695
189.054
189.413
189.771
190.127
190.482
190.836
191.19
191.543
191.895
192.247
192.597
192.946
193.294
193.642
193.99
194.336
194.682
195.026
195.37
195.713
196.056
196.399
196.741
197.082
197.423
197.762
198.102
198.442
198.781
199.12
199.458
199.795
200.133
200.471
200.808
201.146
201.483
201.819
202.156
202.492
202.829
203.167
203.504
203.841
204.177
204.514
204.851
205.189
205.527
205.865
206.202
206.54
206.878
207.217
207.556
207.896
208.235
208.575
208.915
209.255
209.596
209.938
210.28
210.622
210.963
211.306
211.649
211.993
212.337
212.681
213.025
213.37
213.715
214.061
214.408
214.755
215.102
215.449
215.797
216.145
216.494
216.844
217.194
217.544
217.895
218.245
218.597
218.949
219.302
219.655
220.008
220.362
220.716
221.071
221.426
221.782
222.138
222.494
222.851
223.208
223.566
223.925
224.284
224.643
225.002
225.362
225.722
226.083
226.445
226.807
227.17
227.532
227.895
228.258
228.623
228.988
229.353
229.719
230.085
230.451
230.818
231.185
231.554
231.922
232.291
232.66
233.029
233.399
233.77
234.142
234.514
234.885
235.257
235.63
236.004
236.378
236.753
237.128
237.502
237.878
238.254
238.631
239.009
239.386
239.764
240.142
240.521
240.901
241.281
241.662
242.043
242.424
242.805
243.188
243.571
243.955
244.339
244.723
245.107
245.492
245.878
246.264
246.651
247.038
247.425
247.813
248.202
248.591
248.981
249.371
249.761
250.152
250.543
250.935
251.328
251.721
252.115
252.508
252.902
253.296
253.692
254.088
254.485
254.882
255.278
255.676
256.074
256.473
256.873
257.273
257.673
258.073
258.473
258.875
259.278
259.681
260.084
260.488
260.891
261.295
261.701
262.107
262.513
262.92
263.326
263.733
264.141
264.55
264.96
265.37
265.78
266.19
266.601
267.012
267.425
267.838
268.251
268.664
269.078
269.492
269.907
270.323
270.74
271.156
271.573
271.99
272.408
272.827
273.247
273.667
274.087
274.507
274.928
275.349
275.772
276.195
276.618
277.042
277.466
277.89
278.316
278.741
279.168
279.595
280.022
280.45
280.878
281.307
281.736
282.167
282.597
283.028
283.46
283.891
284.324
284.757
285.19
285.625
286.059
286.495
286.93
287.366
287.803
288.24
288.678
289.116
289.555
289.994
290.434
290.874
291.315
291.757
292.199
292.642
293.085
293.528
293.972
294.417
294.862
295.308
295.754
296.201
296.648
297.096
297.544
297.993
298.443
298.893
299.343
299.795
300.246
300.698
301.151
301.604
302.058
302.513
302.967
303.423
303.879
304.336
304.793
305.25
305.709
306.167
306.627
307.087
307.547
308.008
308.47
308.932
309.394
309.858
310.321
310.786
311.251
311.716
312.182
312.649
313.116
313.584
314.052
314.521
314.99
315.46
315.931
316.402
316.873
317.345
317.818
318.292
318.766
319.24
319.715
320.191
320.667
321.144
321.621
322.099
322.577
323.057
323.536
324.016
324.497
324.978
325.46
325.942
326.426
326.909
327.393
327.878
328.363
328.849
329.335
329.823
330.309
330.798
331.286
331.776
332.265
332.756
333.247
333.738
334.231
334.722
335.217
335.709
336.205
336.699
337.194
337.691
338.187
338.684
339.181
339.68
340.178
340.679
341.178
341.679
342.18
342.681
343.184
343.686
344.19
344.693
345.198
345.702
346.208
346.714
347.221
347.728
348.235
348.744
349.252
349.762
350.271
350.782
351.293
351.804
352.316
352.828
353.341
353.854
354.369
354.882
355.398
355.913
356.429
356.945
357.462
357.979
358.498
359.016
359.534
360.054
360.572
361.094
361.613
362.135
362.655
363.178
363.699
364.222
364.746
365.267
365.793
366.315
366.84
367.366
367.89
368.415
368.943
369.467
369.993
370.523
371.047
371.576
372.105
372.63
373.16
373.689
374.217
374.746
375.278
375.805
376.335
376.868
377.395
377.928
378.459
378.989
379.522
380.054
380.586
381.118
381.652
382.183
382.718
383.251
383.784
384.319
384.854
385.389
385.922
386.459
386.995
387.53
388.068
388.604
389.141
389.68
390.218
390.755
391.295
391.834
392.374
392.914
393.455
393.997
394.538
395.081
395.625
396.168
396.712
397.258
397.804
398.349
398.897
399.445
399.993
400.542
401.094
401.644
402.194
402.748
403.303
403.856
404.409
404.968
405.525
406.082
406.642
407.201
407.761
408.325
408.888
409.45
410.016
410.582
411.148
411.718
412.288
412.856
413.426
414
414.576
415.15
415.722
416.298
416.88
417.461
418.038
418.614
419.198
419.786
420.37
420.95
421.535
422.126
422.716
423.302
423.89
424.482
425.075
425.668
426.261
426.856
427.451
428.047
428.645
429.244
429.842
430.442
431.042
431.645
432.247
432.85
433.454
434.058
434.663
435.27
435.879
436.486
437.093
437.7
438.31
438.922
439.535
440.146
440.756
441.367
441.981
442.598
443.214
443.828
444.442
445.057
445.675
446.294
446.915
447.533
448.15
448.766
449.387
450.01
450.635
451.255
451.875
452.494
453.116
453.741
454.368
454.993
455.616
456.237
456.86
457.483
458.109
458.734
459.359
459.983
460.608
461.232
461.855
462.476
463.095
463.711
464.327
464.94
465.549
466.153
466.752
467.345
467.934
468.519
)
;

boundaryField
{
    sides
    {
        type            calculated;
        value           nonuniform List<scalar> 2(469.104 -20.1833);
    }
    empty
    {
        type            empty;
        value           nonuniform List<scalar> 0();
    }
}


// ************************************************************************* //
