/*--------------------------------*- C++ -*----------------------------------*\
  =========                 |
  \\      /  F ield         | OpenFOAM: The Open Source CFD Toolbox
   \\    /   O peration     | Website:  https://openfoam.org
    \\  /    A nd           | Version:  9
     \\/     M anipulation  |
\*---------------------------------------------------------------------------*/
FoamFile
{
    format      ascii;
    class       volScalarField;
    location    "0.032";
    object      rho_0;
}
// * * * * * * * * * * * * * * * * * * * * * * * * * * * * * * * * * * * * * //

dimensions      [1 -3 0 0 0 0 0];

internalField   nonuniform List<scalar> 
1000
(
0.296568
0.296502
0.296396
0.296297
0.296205
0.296113
0.296018
0.295923
0.29583
0.29574
0.295649
0.295555
0.295457
0.29536
0.295266
0.295177
0.295091
0.295006
0.294919
0.294827
0.29473
0.29463
0.294527
0.294427
0.294332
0.294244
0.294164
0.294092
0.294028
0.293968
0.293911
0.293856
0.293801
0.293746
0.293694
0.293647
0.293607
0.293569
0.29353
0.293491
0.293452
0.293414
0.293375
0.293335
0.293296
0.293257
0.293218
0.293178
0.293139
0.2931
0.29306
0.293021
0.292982
0.292942
0.292903
0.292863
0.292824
0.292785
0.292745
0.292706
0.292667
0.292627
0.292588
0.292548
0.292509
0.29247
0.29243
0.292391
0.292351
0.292312
0.292272
0.292234
0.292192
0.292156
0.292112
0.292078
0.292033
0.291999
0.291955
0.291921
0.291876
0.291841
0.291798
0.29176
0.291722
0.291679
0.291644
0.2916
0.291564
0.291524
0.291482
0.291447
0.291404
0.291366
0.291329
0.291285
0.291249
0.291209
0.291167
0.291132
0.29109
0.291049
0.291014
0.290971
0.290931
0.290896
0.290853
0.290813
0.290778
0.290735
0.290694
0.29066
0.290617
0.290575
0.290542
0.2905
0.290457
0.290423
0.290383
0.290338
0.290303
0.290266
0.290221
0.290183
0.290149
0.290105
0.290063
0.29003
0.289989
0.289945
0.28991
0.289873
0.289828
0.289789
0.289755
0.289713
0.28967
0.289635
0.289597
0.289553
0.289515
0.28948
0.289438
0.289395
0.28936
0.289323
0.289279
0.289239
0.289205
0.289165
0.289121
0.289084
0.289049
0.289007
0.288964
0.288929
0.288893
0.288849
0.288808
0.288774
0.288737
0.288692
0.288652
0.288618
0.28858
0.288536
0.288496
0.288463
0.288424
0.28838
0.28834
0.288307
0.288269
0.288224
0.288185
0.288151
0.288113
0.28807
0.28803
0.287996
0.287958
0.287915
0.287875
0.287841
0.287804
0.287761
0.28772
0.287685
0.28765
0.287608
0.287566
0.28753
0.287496
0.287456
0.287412
0.287375
0.287342
0.287304
0.287261
0.28722
0.287187
0.287152
0.28711
0.287068
0.287032
0.286999
0.28696
0.286918
0.286879
0.286845
0.28681
0.286768
0.286727
0.286692
0.286658
0.28662
0.286578
0.286539
0.286506
0.286472
0.286431
0.286389
0.286353
0.286321
0.286286
0.286244
0.286203
0.286169
0.286137
0.2861
0.286058
0.286019
0.285986
0.285954
0.285915
0.285874
0.285838
0.285806
0.285772
0.285733
0.285692
0.285657
0.285627
0.285593
0.285553
0.285513
0.285478
0.285448
0.285416
0.285377
0.285336
0.285302
0.285272
0.28524
0.285202
0.285163
0.285129
0.285099
0.285067
0.285029
0.284991
0.284958
0.284929
0.284898
0.284861
0.284823
0.284789
0.284761
0.284732
0.284697
0.284659
0.284625
0.284596
0.284568
0.284536
0.2845
0.284465
0.284436
0.28441
0.284379
0.284344
0.28431
0.284281
0.284255
0.284228
0.284195
0.28416
0.28413
0.284104
0.28408
0.284051
0.284018
0.283987
0.283961
0.283937
0.283912
0.283882
0.283851
0.283824
0.283802
0.28378
0.283753
0.283724
0.283695
0.283672
0.283653
0.283632
0.283606
0.283579
0.283554
0.283534
0.283517
0.283496
0.283472
0.283448
0.283428
0.283412
0.283396
0.283377
0.283354
0.283333
0.283317
0.283305
0.283292
0.283276
0.283257
0.28324
0.283227
0.283218
0.283208
0.283195
0.283181
0.283168
0.283161
0.283156
0.283149
0.283141
0.283132
0.283124
0.283119
0.283118
0.283117
0.283115
0.283112
0.28311
0.28311
0.283111
0.283112
0.283114
0.283117
0.28312
0.283126
0.283135
0.283145
0.283157
0.283169
0.28318
0.283194
0.283209
0.283227
0.283247
0.283267
0.283287
0.283309
0.283333
0.28336
0.283388
0.283417
0.283447
0.283478
0.283511
0.283548
0.283587
0.283627
0.283668
0.28371
0.283754
0.283802
0.283852
0.283903
0.283956
0.28401
0.284067
0.284126
0.284189
0.284254
0.284321
0.284388
0.284458
0.284531
0.284607
0.284686
0.284767
0.284849
0.284933
0.28502
0.28511
0.285204
0.285299
0.285397
0.285495
0.285597
0.285702
0.28581
0.28592
0.286032
0.286146
0.286262
0.286381
0.286503
0.286628
0.286755
0.286883
0.287013
0.287145
0.28728
0.287418
0.287558
0.2877
0.287842
0.287986
0.288133
0.288282
0.288434
0.288587
0.288741
0.288895
0.289051
0.28921
0.28937
0.289532
0.289695
0.289858
0.290022
0.290188
0.290355
0.290524
0.290694
0.290864
0.291034
0.291205
0.291377
0.291551
0.291726
0.291901
0.292076
0.29225
0.292426
0.292603
0.292781
0.29296
0.293138
0.293316
0.293494
0.293673
0.293853
0.294034
0.294215
0.294395
0.294575
0.294755
0.294936
0.295118
0.295301
0.295483
0.295664
0.295846
0.296028
0.29621
0.296393
0.296577
0.296761
0.296944
0.297126
0.29731
0.297494
0.297678
0.297863
0.298048
0.298231
0.298415
0.2986
0.298785
0.298971
0.299157
0.299342
0.299527
0.299712
0.299898
0.300084
0.300271
0.300458
0.300644
0.30083
0.301016
0.301202
0.30139
0.301578
0.301765
0.301952
0.302139
0.302326
0.302514
0.302702
0.302891
0.303079
0.303267
0.303455
0.303643
0.303832
0.304022
0.304211
0.3044
0.304589
0.304778
0.304967
0.305157
0.305348
0.305538
0.305728
0.305918
0.306108
0.306298
0.306489
0.306681
0.306872
0.307063
0.307254
0.307444
0.307636
0.307828
0.308021
0.308213
0.308405
0.308596
0.308788
0.308981
0.309174
0.309368
0.30956
0.309753
0.309945
0.310138
0.310333
0.310527
0.310721
0.310915
0.311108
0.311302
0.311496
0.311692
0.311887
0.312082
0.312276
0.31247
0.312666
0.312861
0.313058
0.313254
0.313449
0.313644
0.31384
0.314037
0.314234
0.314431
0.314628
0.314824
0.31502
0.315217
0.315415
0.315613
0.315811
0.316009
0.316206
0.316404
0.316602
0.316801
0.317
0.317199
0.317398
0.317596
0.317794
0.317994
0.318194
0.318395
0.318594
0.318793
0.318993
0.319193
0.319394
0.319595
0.319796
0.319997
0.320197
0.320397
0.320599
0.320801
0.321003
0.321205
0.321407
0.321608
0.32181
0.322012
0.322216
0.322419
0.322622
0.322824
0.323027
0.32323
0.323434
0.323638
0.323842
0.324046
0.324249
0.324453
0.324657
0.324862
0.325068
0.325273
0.325478
0.325682
0.325887
0.326093
0.326299
0.326505
0.326711
0.326917
0.327123
0.327329
0.327536
0.327743
0.32795
0.328157
0.328364
0.328571
0.328779
0.328987
0.329195
0.329403
0.329611
0.32982
0.330028
0.330236
0.330445
0.330654
0.330863
0.331073
0.331282
0.331492
0.331701
0.331911
0.332121
0.332332
0.332542
0.332753
0.332964
0.333174
0.333385
0.333596
0.333808
0.33402
0.334231
0.334443
0.334655
0.334867
0.33508
0.335292
0.335505
0.335718
0.335931
0.336144
0.336357
0.336571
0.336784
0.336998
0.337212
0.337426
0.337641
0.337855
0.33807
0.338284
0.338499
0.338715
0.33893
0.339145
0.339361
0.339577
0.339793
0.340009
0.340225
0.340441
0.340658
0.340875
0.341092
0.341309
0.341526
0.341744
0.341961
0.342179
0.342397
0.342615
0.342834
0.343052
0.343271
0.34349
0.343709
0.343928
0.344147
0.344367
0.344586
0.344806
0.345026
0.345247
0.345467
0.345688
0.345908
0.346129
0.346351
0.346571
0.346793
0.347014
0.347237
0.347458
0.347681
0.347903
0.348125
0.348348
0.34857
0.348794
0.349016
0.349241
0.349464
0.349687
0.349912
0.350134
0.350361
0.350583
0.35081
0.351032
0.351259
0.351483
0.351708
0.351934
0.352158
0.352386
0.352609
0.352838
0.353061
0.35329
0.353516
0.353742
0.353971
0.354195
0.354426
0.354649
0.354882
0.355104
0.355337
0.355562
0.355791
0.356021
0.356246
0.356481
0.356703
0.35694
0.357162
0.357398
0.357623
0.357856
0.358085
0.358316
0.358548
0.358776
0.359012
0.359238
0.359474
0.359703
0.359937
0.360169
0.360401
0.360636
0.360867
0.361103
0.361334
0.361572
0.361802
0.362041
0.362272
0.36251
0.362746
0.36298
0.363221
0.363453
0.363695
0.363929
0.36417
0.364406
0.364648
0.364886
0.365127
0.365368
0.365607
0.365853
0.366091
0.366339
0.366577
0.366828
0.367066
0.367318
0.367561
0.36781
0.368059
0.368305
0.36856
0.368804
0.369064
0.369308
0.369571
0.369818
0.370078
0.370335
0.370589
0.370853
0.371112
0.371372
0.371637
0.371903
0.372165
0.372435
0.372706
0.372967
0.37325
0.373515
0.373793
0.374069
0.374348
0.374625
0.374908
0.375195
0.375472
0.375767
0.376052
0.37634
0.376639
0.376927
0.377227
0.377522
0.377826
0.378124
0.378432
0.378735
0.379042
0.379356
0.379663
0.37998
0.380293
0.380614
0.38093
0.381252
0.381578
0.3819
0.382227
0.382558
0.382886
0.383218
0.383555
0.383887
0.384224
0.384564
0.384903
0.385244
0.385585
0.385932
0.386273
0.38662
0.386967
0.387314
0.387663
0.38801
0.388363
0.38871
0.389062
0.389413
0.389765
0.390114
0.390469
0.39082
0.39117
0.391521
0.391874
0.392226
0.392572
0.392923
0.393275
0.393621
0.393969
0.394317
0.39466
0.395005
0.395352
0.395692
0.396034
0.396375
0.396712
0.39705
0.397388
0.397721
0.398052
0.398383
0.398716
0.399046
0.399369
0.399691
0.400017
0.400343
0.400662
0.400975
0.401289
0.401609
0.401926
0.402233
0.402537
0.402848
0.40316
0.403464
0.403764
0.404066
0.404368
0.404667
0.404965
0.405261
0.405556
0.405848
0.406141
0.406433
0.406723
0.40701
0.407297
0.407584
0.407869
0.408153
0.408436
0.408718
0.408998
0.409278
0.409559
0.409839
0.410116
0.41039
0.410666
0.410943
0.411221
0.411497
0.411769
0.41204
0.412312
0.412588
0.412861
0.413134
0.413402
0.413674
0.413941
0.414217
0.414484
0.414761
0.415021
0.415295
0.415552
0.415833
0.416092
0.416376
0.416625
0.416907
0.417152
0.417439
0.417688
0.41798
0.418222
0.418512
0.418746
0.419041
0.419276
0.419577
0.419809
0.42011
0.420343
0.420647
0.420882
0.421189
0.421427
0.421745
0.421996
0.422335
0.422608
0.42298
0.423283
0.423701
0.424027
0.424516
0.424825
)
;

boundaryField
{
    sides
    {
        type            calculated;
        value           nonuniform List<scalar> 2(0.424825 0.296568);
    }
    empty
    {
        type            empty;
    }
}


// ************************************************************************* //
