/*--------------------------------*- C++ -*----------------------------------*\
  =========                 |
  \\      /  F ield         | OpenFOAM: The Open Source CFD Toolbox
   \\    /   O peration     | Website:  https://openfoam.org
    \\  /    A nd           | Version:  9
     \\/     M anipulation  |
\*---------------------------------------------------------------------------*/
FoamFile
{
    format      ascii;
    class       volVectorField;
    location    "0.032";
    object      U_0;
}
// * * * * * * * * * * * * * * * * * * * * * * * * * * * * * * * * * * * * * //

dimensions      [0 1 -1 0 0 0 0];

internalField   nonuniform List<vector> 
1000
(
(17.0167 0 0)
(17.4547 0 0)
(17.9664 0 0)
(18.3798 0 0)
(18.7518 0 0)
(19.127 0 0)
(19.5112 0 0)
(19.8985 0 0)
(20.2851 0 0)
(20.6709 0 0)
(21.0565 0 0)
(21.4422 0 0)
(21.8282 0 0)
(22.2142 0 0)
(22.6003 0 0)
(22.9863 0 0)
(23.3724 0 0)
(23.7583 0 0)
(24.1443 0 0)
(24.5303 0 0)
(24.9164 0 0)
(25.3026 0 0)
(25.6889 0 0)
(26.0753 0 0)
(26.4618 0 0)
(26.8483 0 0)
(27.2348 0 0)
(27.6214 0 0)
(28.0079 0 0)
(28.3944 0 0)
(28.7809 0 0)
(29.1674 0 0)
(29.554 0 0)
(29.9406 0 0)
(30.3273 0 0)
(30.714 0 0)
(31.1008 0 0)
(31.4875 0 0)
(31.8743 0 0)
(32.261 0 0)
(32.6478 0 0)
(33.0347 0 0)
(33.4215 0 0)
(33.8084 0 0)
(34.1954 0 0)
(34.5823 0 0)
(34.9693 0 0)
(35.3564 0 0)
(35.7434 0 0)
(36.1305 0 0)
(36.5176 0 0)
(36.9048 0 0)
(37.292 0 0)
(37.6792 0 0)
(38.0664 0 0)
(38.4537 0 0)
(38.841 0 0)
(39.2283 0 0)
(39.6157 0 0)
(40.0031 0 0)
(40.3906 0 0)
(40.778 0 0)
(41.1655 0 0)
(41.553 0 0)
(41.9406 0 0)
(42.3281 0 0)
(42.7157 0 0)
(43.1034 0 0)
(43.491 0 0)
(43.8787 0 0)
(44.2665 0 0)
(44.6542 0 0)
(45.042 0 0)
(45.4298 0 0)
(45.8176 0 0)
(46.2055 0 0)
(46.5934 0 0)
(46.9813 0 0)
(47.3692 0 0)
(47.7572 0 0)
(48.1452 0 0)
(48.5332 0 0)
(48.9213 0 0)
(49.3094 0 0)
(49.6975 0 0)
(50.0856 0 0)
(50.4738 0 0)
(50.862 0 0)
(51.2502 0 0)
(51.6384 0 0)
(52.0267 0 0)
(52.415 0 0)
(52.8033 0 0)
(53.1916 0 0)
(53.58 0 0)
(53.9684 0 0)
(54.3568 0 0)
(54.7452 0 0)
(55.1337 0 0)
(55.5222 0 0)
(55.9107 0 0)
(56.2992 0 0)
(56.6878 0 0)
(57.0764 0 0)
(57.465 0 0)
(57.8536 0 0)
(58.2422 0 0)
(58.6309 0 0)
(59.0196 0 0)
(59.4083 0 0)
(59.7971 0 0)
(60.1858 0 0)
(60.5746 0 0)
(60.9634 0 0)
(61.3522 0 0)
(61.7411 0 0)
(62.13 0 0)
(62.5188 0 0)
(62.9077 0 0)
(63.2967 0 0)
(63.6856 0 0)
(64.0746 0 0)
(64.4635 0 0)
(64.8526 0 0)
(65.2416 0 0)
(65.6306 0 0)
(66.0197 0 0)
(66.4088 0 0)
(66.7978 0 0)
(67.187 0 0)
(67.5761 0 0)
(67.9652 0 0)
(68.3544 0 0)
(68.7436 0 0)
(69.1328 0 0)
(69.522 0 0)
(69.9112 0 0)
(70.3005 0 0)
(70.6897 0 0)
(71.079 0 0)
(71.4683 0 0)
(71.8576 0 0)
(72.2468 0 0)
(72.6362 0 0)
(73.0256 0 0)
(73.4149 0 0)
(73.8042 0 0)
(74.1937 0 0)
(74.583 0 0)
(74.9724 0 0)
(75.3618 0 0)
(75.7513 0 0)
(76.1407 0 0)
(76.5301 0 0)
(76.9196 0 0)
(77.3091 0 0)
(77.6985 0 0)
(78.088 0 0)
(78.4775 0 0)
(78.867 0 0)
(79.2564 0 0)
(79.646 0 0)
(80.0355 0 0)
(80.425 0 0)
(80.8145 0 0)
(81.2041 0 0)
(81.5936 0 0)
(81.9832 0 0)
(82.3727 0 0)
(82.7622 0 0)
(83.1518 0 0)
(83.5414 0 0)
(83.9309 0 0)
(84.3205 0 0)
(84.71 0 0)
(85.0996 0 0)
(85.4891 0 0)
(85.8787 0 0)
(86.2683 0 0)
(86.6578 0 0)
(87.0473 0 0)
(87.4369 0 0)
(87.8265 0 0)
(88.216 0 0)
(88.6055 0 0)
(88.995 0 0)
(89.3846 0 0)
(89.7741 0 0)
(90.1636 0 0)
(90.553 0 0)
(90.9426 0 0)
(91.3321 0 0)
(91.7215 0 0)
(92.1109 0 0)
(92.5004 0 0)
(92.8899 0 0)
(93.2793 0 0)
(93.6686 0 0)
(94.058 0 0)
(94.4474 0 0)
(94.8368 0 0)
(95.2261 0 0)
(95.6154 0 0)
(96.0047 0 0)
(96.394 0 0)
(96.7833 0 0)
(97.1725 0 0)
(97.5617 0 0)
(97.9509 0 0)
(98.3401 0 0)
(98.7292 0 0)
(99.1184 0 0)
(99.5075 0 0)
(99.8966 0 0)
(100.286 0 0)
(100.675 0 0)
(101.064 0 0)
(101.453 0 0)
(101.841 0 0)
(102.23 0 0)
(102.619 0 0)
(103.008 0 0)
(103.397 0 0)
(103.786 0 0)
(104.174 0 0)
(104.563 0 0)
(104.952 0 0)
(105.34 0 0)
(105.729 0 0)
(106.117 0 0)
(106.506 0 0)
(106.894 0 0)
(107.282 0 0)
(107.671 0 0)
(108.059 0 0)
(108.447 0 0)
(108.835 0 0)
(109.223 0 0)
(109.611 0 0)
(109.999 0 0)
(110.387 0 0)
(110.775 0 0)
(111.162 0 0)
(111.55 0 0)
(111.938 0 0)
(112.325 0 0)
(112.713 0 0)
(113.1 0 0)
(113.487 0 0)
(113.874 0 0)
(114.261 0 0)
(114.648 0 0)
(115.035 0 0)
(115.422 0 0)
(115.809 0 0)
(116.195 0 0)
(116.582 0 0)
(116.968 0 0)
(117.355 0 0)
(117.741 0 0)
(118.127 0 0)
(118.513 0 0)
(118.899 0 0)
(119.285 0 0)
(119.67 0 0)
(120.056 0 0)
(120.441 0 0)
(120.826 0 0)
(121.211 0 0)
(121.596 0 0)
(121.981 0 0)
(122.366 0 0)
(122.75 0 0)
(123.135 0 0)
(123.519 0 0)
(123.903 0 0)
(124.287 0 0)
(124.671 0 0)
(125.054 0 0)
(125.438 0 0)
(125.821 0 0)
(126.204 0 0)
(126.587 0 0)
(126.969 0 0)
(127.351 0 0)
(127.734 0 0)
(128.116 0 0)
(128.497 0 0)
(128.879 0 0)
(129.26 0 0)
(129.641 0 0)
(130.022 0 0)
(130.403 0 0)
(130.783 0 0)
(131.163 0 0)
(131.543 0 0)
(131.922 0 0)
(132.301 0 0)
(132.68 0 0)
(133.059 0 0)
(133.437 0 0)
(133.815 0 0)
(134.193 0 0)
(134.57 0 0)
(134.947 0 0)
(135.324 0 0)
(135.7 0 0)
(136.076 0 0)
(136.452 0 0)
(136.827 0 0)
(137.202 0 0)
(137.576 0 0)
(137.95 0 0)
(138.323 0 0)
(138.696 0 0)
(139.069 0 0)
(139.441 0 0)
(139.813 0 0)
(140.184 0 0)
(140.555 0 0)
(140.925 0 0)
(141.295 0 0)
(141.664 0 0)
(142.032 0 0)
(142.4 0 0)
(142.767 0 0)
(143.134 0 0)
(143.5 0 0)
(143.866 0 0)
(144.231 0 0)
(144.595 0 0)
(144.958 0 0)
(145.321 0 0)
(145.683 0 0)
(146.044 0 0)
(146.405 0 0)
(146.764 0 0)
(147.123 0 0)
(147.481 0 0)
(147.838 0 0)
(148.195 0 0)
(148.551 0 0)
(148.905 0 0)
(149.259 0 0)
(149.612 0 0)
(149.965 0 0)
(150.317 0 0)
(150.669 0 0)
(151.02 0 0)
(151.37 0 0)
(151.717 0 0)
(152.063 0 0)
(152.407 0 0)
(152.75 0 0)
(153.092 0 0)
(153.433 0 0)
(153.772 0 0)
(154.11 0 0)
(154.446 0 0)
(154.782 0 0)
(155.115 0 0)
(155.448 0 0)
(155.779 0 0)
(156.109 0 0)
(156.437 0 0)
(156.763 0 0)
(157.088 0 0)
(157.412 0 0)
(157.733 0 0)
(158.053 0 0)
(158.371 0 0)
(158.688 0 0)
(159.002 0 0)
(159.315 0 0)
(159.626 0 0)
(159.935 0 0)
(160.242 0 0)
(160.547 0 0)
(160.851 0 0)
(161.152 0 0)
(161.451 0 0)
(161.747 0 0)
(162.042 0 0)
(162.335 0 0)
(162.625 0 0)
(162.913 0 0)
(163.199 0 0)
(163.483 0 0)
(163.764 0 0)
(164.043 0 0)
(164.32 0 0)
(164.594 0 0)
(164.866 0 0)
(165.136 0 0)
(165.403 0 0)
(165.668 0 0)
(165.93 0 0)
(166.19 0 0)
(166.448 0 0)
(166.703 0 0)
(166.955 0 0)
(167.206 0 0)
(167.453 0 0)
(167.699 0 0)
(167.942 0 0)
(168.183 0 0)
(168.421 0 0)
(168.657 0 0)
(168.891 0 0)
(169.122 0 0)
(169.351 0 0)
(169.578 0 0)
(169.803 0 0)
(170.026 0 0)
(170.247 0 0)
(170.465 0 0)
(170.682 0 0)
(170.897 0 0)
(171.109 0 0)
(171.32 0 0)
(171.53 0 0)
(171.737 0 0)
(171.943 0 0)
(172.147 0 0)
(172.35 0 0)
(172.551 0 0)
(172.751 0 0)
(172.949 0 0)
(173.146 0 0)
(173.342 0 0)
(173.537 0 0)
(173.73 0 0)
(173.923 0 0)
(174.114 0 0)
(174.305 0 0)
(174.494 0 0)
(174.683 0 0)
(174.871 0 0)
(175.058 0 0)
(175.245 0 0)
(175.431 0 0)
(175.616 0 0)
(175.801 0 0)
(175.986 0 0)
(176.169 0 0)
(176.353 0 0)
(176.536 0 0)
(176.719 0 0)
(176.901 0 0)
(177.083 0 0)
(177.265 0 0)
(177.447 0 0)
(177.629 0 0)
(177.81 0 0)
(177.991 0 0)
(178.172 0 0)
(178.353 0 0)
(178.534 0 0)
(178.715 0 0)
(178.895 0 0)
(179.076 0 0)
(179.257 0 0)
(179.437 0 0)
(179.618 0 0)
(179.798 0 0)
(179.979 0 0)
(180.159 0 0)
(180.34 0 0)
(180.521 0 0)
(180.701 0 0)
(180.882 0 0)
(181.062 0 0)
(181.243 0 0)
(181.424 0 0)
(181.605 0 0)
(181.785 0 0)
(181.966 0 0)
(182.147 0 0)
(182.328 0 0)
(182.509 0 0)
(182.69 0 0)
(182.871 0 0)
(183.052 0 0)
(183.233 0 0)
(183.415 0 0)
(183.596 0 0)
(183.777 0 0)
(183.959 0 0)
(184.14 0 0)
(184.322 0 0)
(184.504 0 0)
(184.685 0 0)
(184.867 0 0)
(185.049 0 0)
(185.231 0 0)
(185.413 0 0)
(185.595 0 0)
(185.777 0 0)
(185.959 0 0)
(186.141 0 0)
(186.323 0 0)
(186.506 0 0)
(186.688 0 0)
(186.87 0 0)
(187.053 0 0)
(187.235 0 0)
(187.418 0 0)
(187.601 0 0)
(187.784 0 0)
(187.966 0 0)
(188.149 0 0)
(188.332 0 0)
(188.515 0 0)
(188.698 0 0)
(188.881 0 0)
(189.065 0 0)
(189.248 0 0)
(189.431 0 0)
(189.615 0 0)
(189.798 0 0)
(189.982 0 0)
(190.165 0 0)
(190.349 0 0)
(190.533 0 0)
(190.716 0 0)
(190.9 0 0)
(191.084 0 0)
(191.268 0 0)
(191.452 0 0)
(191.636 0 0)
(191.82 0 0)
(192.005 0 0)
(192.189 0 0)
(192.373 0 0)
(192.558 0 0)
(192.742 0 0)
(192.927 0 0)
(193.111 0 0)
(193.296 0 0)
(193.48 0 0)
(193.665 0 0)
(193.85 0 0)
(194.035 0 0)
(194.22 0 0)
(194.405 0 0)
(194.59 0 0)
(194.775 0 0)
(194.96 0 0)
(195.145 0 0)
(195.331 0 0)
(195.516 0 0)
(195.701 0 0)
(195.887 0 0)
(196.072 0 0)
(196.258 0 0)
(196.444 0 0)
(196.629 0 0)
(196.815 0 0)
(197.001 0 0)
(197.187 0 0)
(197.373 0 0)
(197.559 0 0)
(197.745 0 0)
(197.931 0 0)
(198.117 0 0)
(198.303 0 0)
(198.489 0 0)
(198.676 0 0)
(198.862 0 0)
(199.048 0 0)
(199.235 0 0)
(199.421 0 0)
(199.608 0 0)
(199.795 0 0)
(199.981 0 0)
(200.168 0 0)
(200.355 0 0)
(200.542 0 0)
(200.729 0 0)
(200.915 0 0)
(201.102 0 0)
(201.29 0 0)
(201.477 0 0)
(201.664 0 0)
(201.851 0 0)
(202.038 0 0)
(202.226 0 0)
(202.413 0 0)
(202.6 0 0)
(202.788 0 0)
(202.975 0 0)
(203.163 0 0)
(203.351 0 0)
(203.538 0 0)
(203.726 0 0)
(203.914 0 0)
(204.102 0 0)
(204.289 0 0)
(204.477 0 0)
(204.665 0 0)
(204.853 0 0)
(205.042 0 0)
(205.23 0 0)
(205.418 0 0)
(205.606 0 0)
(205.794 0 0)
(205.983 0 0)
(206.171 0 0)
(206.36 0 0)
(206.548 0 0)
(206.737 0 0)
(206.925 0 0)
(207.114 0 0)
(207.303 0 0)
(207.491 0 0)
(207.68 0 0)
(207.869 0 0)
(208.058 0 0)
(208.247 0 0)
(208.436 0 0)
(208.625 0 0)
(208.814 0 0)
(209.003 0 0)
(209.192 0 0)
(209.382 0 0)
(209.571 0 0)
(209.76 0 0)
(209.95 0 0)
(210.139 0 0)
(210.329 0 0)
(210.518 0 0)
(210.708 0 0)
(210.897 0 0)
(211.087 0 0)
(211.277 0 0)
(211.467 0 0)
(211.657 0 0)
(211.846 0 0)
(212.036 0 0)
(212.226 0 0)
(212.416 0 0)
(212.607 0 0)
(212.797 0 0)
(212.987 0 0)
(213.177 0 0)
(213.367 0 0)
(213.558 0 0)
(213.748 0 0)
(213.939 0 0)
(214.129 0 0)
(214.32 0 0)
(214.51 0 0)
(214.701 0 0)
(214.892 0 0)
(215.082 0 0)
(215.273 0 0)
(215.464 0 0)
(215.655 0 0)
(215.846 0 0)
(216.037 0 0)
(216.228 0 0)
(216.419 0 0)
(216.61 0 0)
(216.801 0 0)
(216.992 0 0)
(217.183 0 0)
(217.375 0 0)
(217.566 0 0)
(217.758 0 0)
(217.949 0 0)
(218.14 0 0)
(218.332 0 0)
(218.524 0 0)
(218.715 0 0)
(218.907 0 0)
(219.099 0 0)
(219.29 0 0)
(219.482 0 0)
(219.674 0 0)
(219.866 0 0)
(220.058 0 0)
(220.25 0 0)
(220.442 0 0)
(220.634 0 0)
(220.826 0 0)
(221.019 0 0)
(221.211 0 0)
(221.403 0 0)
(221.596 0 0)
(221.788 0 0)
(221.98 0 0)
(222.173 0 0)
(222.366 0 0)
(222.558 0 0)
(222.751 0 0)
(222.943 0 0)
(223.136 0 0)
(223.329 0 0)
(223.522 0 0)
(223.715 0 0)
(223.908 0 0)
(224.101 0 0)
(224.294 0 0)
(224.487 0 0)
(224.68 0 0)
(224.873 0 0)
(225.066 0 0)
(225.259 0 0)
(225.453 0 0)
(225.646 0 0)
(225.839 0 0)
(226.033 0 0)
(226.226 0 0)
(226.42 0 0)
(226.613 0 0)
(226.807 0 0)
(227.001 0 0)
(227.194 0 0)
(227.388 0 0)
(227.582 0 0)
(227.776 0 0)
(227.97 0 0)
(228.164 0 0)
(228.358 0 0)
(228.552 0 0)
(228.746 0 0)
(228.94 0 0)
(229.134 0 0)
(229.328 0 0)
(229.523 0 0)
(229.717 0 0)
(229.911 0 0)
(230.106 0 0)
(230.3 0 0)
(230.495 0 0)
(230.689 0 0)
(230.884 0 0)
(231.078 0 0)
(231.273 0 0)
(231.468 0 0)
(231.662 0 0)
(231.857 0 0)
(232.052 0 0)
(232.247 0 0)
(232.442 0 0)
(232.637 0 0)
(232.832 0 0)
(233.027 0 0)
(233.222 0 0)
(233.417 0 0)
(233.612 0 0)
(233.807 0 0)
(234.002 0 0)
(234.197 0 0)
(234.393 0 0)
(234.588 0 0)
(234.783 0 0)
(234.979 0 0)
(235.174 0 0)
(235.369 0 0)
(235.565 0 0)
(235.76 0 0)
(235.956 0 0)
(236.151 0 0)
(236.347 0 0)
(236.542 0 0)
(236.738 0 0)
(236.933 0 0)
(237.129 0 0)
(237.324 0 0)
(237.52 0 0)
(237.715 0 0)
(237.911 0 0)
(238.106 0 0)
(238.302 0 0)
(238.497 0 0)
(238.692 0 0)
(238.888 0 0)
(239.083 0 0)
(239.278 0 0)
(239.474 0 0)
(239.669 0 0)
(239.864 0 0)
(240.059 0 0)
(240.254 0 0)
(240.449 0 0)
(240.644 0 0)
(240.838 0 0)
(241.033 0 0)
(241.227 0 0)
(241.422 0 0)
(241.616 0 0)
(241.81 0 0)
(242.004 0 0)
(242.197 0 0)
(242.391 0 0)
(242.584 0 0)
(242.777 0 0)
(242.97 0 0)
(243.162 0 0)
(243.355 0 0)
(243.547 0 0)
(243.738 0 0)
(243.93 0 0)
(244.121 0 0)
(244.311 0 0)
(244.501 0 0)
(244.691 0 0)
(244.881 0 0)
(245.07 0 0)
(245.258 0 0)
(245.446 0 0)
(245.633 0 0)
(245.82 0 0)
(246.007 0 0)
(246.192 0 0)
(246.377 0 0)
(246.562 0 0)
(246.746 0 0)
(246.929 0 0)
(247.111 0 0)
(247.292 0 0)
(247.473 0 0)
(247.653 0 0)
(247.832 0 0)
(248.01 0 0)
(248.187 0 0)
(248.364 0 0)
(248.539 0 0)
(248.713 0 0)
(248.887 0 0)
(249.059 0 0)
(249.23 0 0)
(249.4 0 0)
(249.569 0 0)
(249.737 0 0)
(249.903 0 0)
(250.069 0 0)
(250.233 0 0)
(250.396 0 0)
(250.557 0 0)
(250.718 0 0)
(250.877 0 0)
(251.034 0 0)
(251.191 0 0)
(251.346 0 0)
(251.499 0 0)
(251.652 0 0)
(251.803 0 0)
(251.952 0 0)
(252.1 0 0)
(252.247 0 0)
(252.393 0 0)
(252.537 0 0)
(252.68 0 0)
(252.821 0 0)
(252.962 0 0)
(253.101 0 0)
(253.238 0 0)
(253.375 0 0)
(253.51 0 0)
(253.644 0 0)
(253.777 0 0)
(253.908 0 0)
(254.039 0 0)
(254.168 0 0)
(254.297 0 0)
(254.425 0 0)
(254.551 0 0)
(254.677 0 0)
(254.802 0 0)
(254.927 0 0)
(255.05 0 0)
(255.173 0 0)
(255.296 0 0)
(255.418 0 0)
(255.539 0 0)
(255.661 0 0)
(255.782 0 0)
(255.902 0 0)
(256.023 0 0)
(256.144 0 0)
(256.264 0 0)
(256.385 0 0)
(256.506 0 0)
(256.627 0 0)
(256.748 0 0)
(256.869 0 0)
(256.992 0 0)
(257.114 0 0)
(257.237 0 0)
(257.361 0 0)
(257.486 0 0)
(257.611 0 0)
(257.737 0 0)
(257.864 0 0)
(257.992 0 0)
(258.121 0 0)
(258.251 0 0)
(258.382 0 0)
(258.514 0 0)
(258.648 0 0)
(258.783 0 0)
(258.919 0 0)
(259.056 0 0)
(259.195 0 0)
(259.335 0 0)
(259.476 0 0)
(259.619 0 0)
(259.764 0 0)
(259.91 0 0)
(260.057 0 0)
(260.206 0 0)
(260.357 0 0)
(260.509 0 0)
(260.663 0 0)
(260.818 0 0)
(260.974 0 0)
(261.132 0 0)
(261.292 0 0)
(261.453 0 0)
(261.615 0 0)
(261.779 0 0)
(261.945 0 0)
(262.111 0 0)
(262.279 0 0)
(262.448 0 0)
(262.619 0 0)
(262.791 0 0)
(262.964 0 0)
(263.138 0 0)
(263.314 0 0)
(263.49 0 0)
(263.668 0 0)
(263.847 0 0)
(264.027 0 0)
(264.208 0 0)
(264.39 0 0)
(264.573 0 0)
(264.758 0 0)
(264.943 0 0)
(265.128 0 0)
(265.315 0 0)
(265.503 0 0)
(265.691 0 0)
(265.88 0 0)
(266.07 0 0)
(266.26 0 0)
(266.451 0 0)
(266.643 0 0)
(266.835 0 0)
(267.027 0 0)
(267.22 0 0)
(267.414 0 0)
(267.608 0 0)
(267.803 0 0)
(267.997 0 0)
(268.193 0 0)
(268.389 0 0)
(268.585 0 0)
(268.781 0 0)
(268.978 0 0)
(269.175 0 0)
(269.372 0 0)
(269.57 0 0)
(269.768 0 0)
(269.966 0 0)
(270.165 0 0)
(270.363 0 0)
(270.562 0 0)
(270.762 0 0)
(270.961 0 0)
(271.16 0 0)
(271.36 0 0)
(271.56 0 0)
(271.76 0 0)
(271.959 0 0)
(272.159 0 0)
(272.359 0 0)
(272.559 0 0)
(272.758 0 0)
(272.958 0 0)
(273.157 0 0)
(273.355 0 0)
(273.553 0 0)
(273.751 0 0)
(273.947 0 0)
(274.142 0 0)
(274.334 0 0)
(274.522 0 0)
(274.706 0 0)
(274.883 0 0)
(275.051 0 0)
(275.209 0 0)
(275.353 0 0)
(275.482 0 0)
(275.595 0 0)
(275.691 0 0)
(275.774 0 0)
(276.034 0 0)
)
;

boundaryField
{
    sides
    {
        type            zeroGradient;
    }
    empty
    {
        type            empty;
    }
}


// ************************************************************************* //
