/*--------------------------------*- C++ -*----------------------------------*\
  =========                 |
  \\      /  F ield         | OpenFOAM: The Open Source CFD Toolbox
   \\    /   O peration     | Website:  https://openfoam.org
    \\  /    A nd           | Version:  9
     \\/     M anipulation  |
\*---------------------------------------------------------------------------*/
FoamFile
{
    format      ascii;
    class       volScalarField;
    location    "0.025";
    object      rho;
}
// * * * * * * * * * * * * * * * * * * * * * * * * * * * * * * * * * * * * * //

dimensions      [1 -3 0 0 0 0 0];

internalField   nonuniform List<scalar> 
1000
(
0.675814
0.674777
0.674151
0.673474
0.672812
0.672149
0.671487
0.670826
0.670166
0.669506
0.668846
0.668185
0.667525
0.666866
0.666206
0.665546
0.664888
0.664229
0.663571
0.662913
0.662256
0.661599
0.660943
0.660286
0.659631
0.658975
0.658321
0.657667
0.657014
0.656362
0.65571
0.655059
0.654408
0.653758
0.653108
0.652458
0.651808
0.651159
0.65051
0.649862
0.649215
0.648568
0.647923
0.647279
0.646636
0.645993
0.645351
0.64471
0.644068
0.643426
0.642785
0.642144
0.641503
0.640863
0.640223
0.639585
0.638947
0.638311
0.637675
0.63704
0.636405
0.635771
0.635137
0.634503
0.633869
0.633235
0.632601
0.631968
0.631335
0.630703
0.630072
0.629441
0.62881
0.62818
0.627551
0.626922
0.626293
0.625664
0.625036
0.624409
0.623782
0.623156
0.62253
0.621905
0.621281
0.620657
0.620033
0.61941
0.618788
0.618166
0.617545
0.616926
0.616307
0.615689
0.615071
0.614455
0.613838
0.613223
0.612607
0.611992
0.611377
0.610762
0.610148
0.609533
0.608918
0.608304
0.60769
0.607077
0.606465
0.605854
0.605245
0.604636
0.604029
0.603422
0.602817
0.602211
0.601607
0.601003
0.600399
0.599797
0.599195
0.598594
0.597994
0.597395
0.596796
0.596198
0.595601
0.595003
0.594405
0.593807
0.593209
0.59261
0.592011
0.591412
0.590812
0.590212
0.589613
0.589014
0.588415
0.587816
0.587219
0.586621
0.586025
0.585429
0.584834
0.58424
0.583646
0.583054
0.582462
0.58187
0.581279
0.580688
0.580099
0.579511
0.578923
0.578336
0.57775
0.577163
0.576576
0.575989
0.575403
0.574817
0.574232
0.573648
0.573064
0.572481
0.571897
0.571313
0.57073
0.570147
0.569565
0.568984
0.568403
0.567823
0.567243
0.566663
0.566083
0.565503
0.564925
0.564347
0.563771
0.563195
0.562619
0.562043
0.561467
0.560891
0.560317
0.559743
0.559169
0.558596
0.558024
0.557451
0.556879
0.556308
0.555738
0.555168
0.554598
0.554028
0.553459
0.552891
0.552323
0.551755
0.551189
0.550622
0.550056
0.54949
0.548925
0.54836
0.547796
0.547232
0.546669
0.546106
0.545544
0.544982
0.544421
0.54386
0.5433
0.54274
0.54218
0.541621
0.541063
0.540505
0.539947
0.53939
0.538833
0.538277
0.537721
0.537166
0.536611
0.536057
0.535503
0.534949
0.534396
0.533844
0.533292
0.53274
0.532189
0.531639
0.531089
0.530539
0.52999
0.529441
0.528893
0.528345
0.527798
0.527251
0.526704
0.526158
0.525613
0.525068
0.524524
0.52398
0.523436
0.522893
0.52235
0.521807
0.521265
0.520724
0.520183
0.519643
0.519103
0.518564
0.518025
0.517486
0.516948
0.51641
0.515873
0.515336
0.5148
0.514264
0.513729
0.513194
0.512659
0.512125
0.511592
0.511059
0.510526
0.509994
0.509462
0.508931
0.5084
0.50787
0.50734
0.506811
0.506282
0.505753
0.505225
0.504697
0.504171
0.503647
0.503123
0.502592
0.502058
0.501532
0.501026
0.500525
0.499991
0.499441
0.498897
0.498395
0.497948
0.497424
0.496864
0.496304
0.495762
0.49531
0.494864
0.494314
0.493747
0.493186
0.492651
0.49223
0.49177
0.491213
0.490647
0.490088
0.489557
0.489151
0.488695
0.488142
0.487579
0.487021
0.486481
0.486047
0.48563
0.48509
0.484531
0.483975
0.483429
0.482941
0.482559
0.482054
0.481503
0.48095
0.480402
0.479875
0.479456
0.479029
0.478494
0.477946
0.477399
0.47686
0.476355
0.475967
0.475499
0.474961
0.474417
0.473876
0.473343
0.47285
0.472466
0.471988
0.471454
0.470912
0.470371
0.469841
0.469337
0.468952
0.468516
0.46799
0.467449
0.466873
0.466331
0.465811
0.465348
0.46505
0.464612
0.464088
0.463527
0.462875
0.462308
0.461793
0.461328
0.461092
0.460747
0.460237
0.459691
0.459023
0.458411
0.457893
0.457404
0.457071
0.4568
0.45632
0.455802
0.455237
0.454664
0.45415
0.453653
0.453226
0.452867
0.45239
0.451886
0.451381
0.450878
0.450381
0.449919
0.449461
0.448965
0.448465
0.447966
0.44747
0.44699
0.446584
0.446162
0.445673
0.445174
0.44464
0.444115
0.443623
0.443147
0.442765
0.442416
0.441944
0.441452
0.440917
0.440354
0.439859
0.439382
0.438957
0.438613
0.438162
0.437681
0.437178
0.436659
0.436179
0.435712
0.435314
0.434964
0.434511
0.434037
0.433518
0.43291
0.432415
0.431963
0.431549
0.431299
0.431009
0.430594
0.430169
0.429675
0.429125
0.428726
0.428377
0.428087
0.427966
0.427773
0.427524
0.427285
0.426973
0.426612
0.426454
0.426365
0.426338
0.426518
0.426731
0.426743
0.426729
0.426671
0.4264
0.426197
0.426193
0.42623
0.426306
0.426538
0.426795
0.426858
0.426886
0.426875
0.426682
0.426487
0.426491
0.426526
0.426583
0.426776
0.42703
0.427099
0.427142
0.427158
0.427009
0.42681
0.426802
0.426819
0.42685
0.426985
0.427102
0.427081
0.427019
0.426911
0.426679
0.426532
0.426481
0.426455
0.426476
0.426575
0.426596
0.426591
0.426578
0.426517
0.426439
0.426426
0.426426
0.426436
0.426477
0.426523
0.426544
0.426562
0.426578
0.426592
0.426599
0.426576
0.426492
0.426486
0.426514
0.426547
0.426578
0.426616
0.426704
0.426785
0.426799
0.426797
0.42677
0.42664
0.426431
0.426359
0.42632
0.426301
0.42636
0.426608
0.426694
0.426688
0.426671
0.42662
0.426401
0.426185
0.426153
0.426151
0.426164
0.42625
0.426441
0.426489
0.426498
0.426502
0.426464
0.426263
0.426148
0.426145
0.426157
0.426186
0.426298
0.426607
0.426741
0.426778
0.426797
0.426789
0.426671
0.426427
0.426372
0.426365
0.42636
0.426375
0.426487
0.426524
0.426497
0.426469
0.426417
0.426235
0.426083
0.426056
0.426048
0.42606
0.426171
0.42637
0.426408
0.42641
0.426404
0.426358
0.426208
0.426155
0.426153
0.426161
0.426183
0.426253
0.426311
0.426333
0.426347
0.426359
0.426375
0.426404
0.426447
0.426474
0.426494
0.426501
0.426465
0.42627
0.426091
0.426065
0.426056
0.426053
0.42612
0.426414
0.426531
0.426524
0.426506
0.426462
0.426264
0.425956
0.425894
0.425884
0.425886
0.425943
0.426167
0.426273
0.426284
0.426284
0.426266
0.426151
0.426043
0.426033
0.426039
0.426059
0.426132
0.426222
0.426247
0.426258
0.426263
0.426238
0.426211
0.426224
0.426242
0.426259
0.426292
0.426314
0.426316
0.426313
0.426299
0.426265
0.426238
0.426216
0.426196
0.426188
0.42619
0.426183
0.426177
0.42617
0.426158
0.426146
0.426141
0.426138
0.426139
0.426141
0.426141
0.42614
0.426141
0.42614
0.426141
0.426147
0.426152
0.426158
0.426166
0.426175
0.426184
0.426195
0.426207
0.426219
0.426233
0.426247
0.42626
0.426267
0.426271
0.426274
0.426275
0.426273
0.426265
0.426246
0.426228
0.426213
0.4262
0.426188
0.426178
0.426175
0.426169
0.426163
0.426158
0.426155
0.426154
0.426154
0.426157
0.426159
0.426158
0.426157
0.426157
0.426163
0.426171
0.42618
0.426189
0.426195
0.4262
0.426206
0.426215
0.426228
0.426241
0.426256
0.426267
0.426277
0.426286
0.42629
0.426291
0.426293
0.426294
0.426293
0.426285
0.426269
0.426254
0.426243
0.426235
0.426228
0.426221
0.426215
0.42621
0.426206
0.426203
0.426202
0.426203
0.426205
0.426206
0.426206
0.426205
0.426204
0.426205
0.42621
0.426219
0.426227
0.426233
0.426237
0.426238
0.42624
0.426245
0.426257
0.426272
0.426285
0.426294
0.426299
0.4263
0.4263
0.426301
0.426302
0.426302
0.426298
0.426288
0.426271
0.426254
0.426244
0.426238
0.426238
0.426236
0.426232
0.426226
0.426219
0.426213
0.426209
0.426209
0.426212
0.426216
0.426219
0.426219
0.426218
0.426216
0.426217
0.426222
0.426232
0.426241
0.426247
0.426251
0.426253
0.426255
0.426259
0.426271
0.426284
0.426294
0.426299
0.4263
0.426297
0.426292
0.426288
0.426286
0.426283
0.42628
0.426272
0.426258
0.426247
0.426238
0.426232
0.426231
0.42623
0.426229
0.426226
0.426223
0.426219
0.426217
0.426218
0.426223
0.426228
0.426231
0.426232
0.426231
0.426229
0.42623
0.426236
0.426245
0.426251
0.426256
0.42626
0.426263
0.426268
0.426276
0.426287
0.426297
0.4263
0.426298
0.426292
0.426284
0.426276
0.426272
0.42627
0.42627
0.42627
0.426264
0.426254
0.426245
0.426239
0.426235
0.426232
0.426233
0.426234
0.426232
0.426228
0.426226
0.426226
0.426229
0.426235
0.426241
0.426244
0.426244
0.426243
0.426242
0.426244
0.426251
0.426261
0.426266
0.426269
0.426271
0.426273
0.426275
0.426281
0.426291
0.426297
0.4263
0.426298
0.426288
0.426274
0.426265
0.426262
0.426262
0.426261
0.426262
0.426261
0.426252
0.426244
0.426241
0.426241
0.426243
0.426242
0.426241
0.426239
0.426235
0.426231
0.426232
0.426239
0.426251
0.426257
0.42626
0.426259
0.426257
0.426257
0.426257
0.426262
0.426271
0.426275
0.426277
0.426277
0.426277
0.426279
0.426285
0.426295
0.426303
0.426303
0.426296
0.426281
0.426268
0.42626
0.426255
0.426255
0.42627
0.426333
0.426586
0.427608
0.430759
0.433956
0.435462
0.436127
0.43635
0.43637
0.436304
0.436281
0.436286
0.436318
0.436364
0.436377
0.436366
0.436338
0.43631
0.43631
0.436322
0.436349
0.436361
0.436357
0.436342
0.436319
0.436304
0.436307
0.436321
0.436335
0.436346
0.436343
0.436333
0.436325
0.436324
0.436328
0.436335
0.436334
0.436326
0.436308
0.436293
0.436285
0.436285
0.436294
0.436314
0.436322
0.436318
0.436307
0.436295
0.436286
0.43628
0.436273
0.436269
0.436264
0.436254
0.436239
0.43623
0.436233
0.436247
0.43626
0.436269
0.436272
0.436273
0.436275
0.436283
0.436325
0.436511
0.437217
0.439298
0.441866
0.443289
0.44401
0.444357
0.444483
0.444484
0.444475
0.44448
0.444495
0.444519
0.444522
0.444517
0.444499
0.44448
0.444477
0.444482
0.444492
0.444502
0.444508
0.444505
0.444504
0.444504
0.444506
0.444511
0.444511
0.44451
0.444505
0.444498
)
;

boundaryField
{
    sides
    {
        type            calculated;
        value           nonuniform List<scalar> 2(0.444498 0.675814);
    }
    empty
    {
        type            empty;
    }
}


// ************************************************************************* //
