/*--------------------------------*- C++ -*----------------------------------*\
  =========                 |
  \\      /  F ield         | OpenFOAM: The Open Source CFD Toolbox
   \\    /   O peration     | Website:  https://openfoam.org
    \\  /    A nd           | Version:  9
     \\/     M anipulation  |
\*---------------------------------------------------------------------------*/
FoamFile
{
    format      ascii;
    class       volVectorField;
    location    "0.025";
    object      U;
}
// * * * * * * * * * * * * * * * * * * * * * * * * * * * * * * * * * * * * * //

dimensions      [0 1 -1 0 0 0 0];

internalField   nonuniform List<vector> 
1000
(
(149.17 0 0)
(149.694 0 0)
(149.997 0 0)
(150.328 0 0)
(150.65 0 0)
(150.974 0 0)
(151.298 0 0)
(151.621 0 0)
(151.944 0 0)
(152.267 0 0)
(152.591 0 0)
(152.915 0 0)
(153.239 0 0)
(153.563 0 0)
(153.888 0 0)
(154.213 0 0)
(154.537 0 0)
(154.862 0 0)
(155.187 0 0)
(155.512 0 0)
(155.836 0 0)
(156.161 0 0)
(156.486 0 0)
(156.812 0 0)
(157.137 0 0)
(157.462 0 0)
(157.787 0 0)
(158.112 0 0)
(158.437 0 0)
(158.761 0 0)
(159.086 0 0)
(159.411 0 0)
(159.735 0 0)
(160.06 0 0)
(160.385 0 0)
(160.71 0 0)
(161.035 0 0)
(161.361 0 0)
(161.686 0 0)
(162.011 0 0)
(162.336 0 0)
(162.661 0 0)
(162.986 0 0)
(163.31 0 0)
(163.634 0 0)
(163.958 0 0)
(164.282 0 0)
(164.606 0 0)
(164.931 0 0)
(165.255 0 0)
(165.58 0 0)
(165.905 0 0)
(166.23 0 0)
(166.555 0 0)
(166.88 0 0)
(167.204 0 0)
(167.529 0 0)
(167.853 0 0)
(168.176 0 0)
(168.5 0 0)
(168.824 0 0)
(169.148 0 0)
(169.472 0 0)
(169.796 0 0)
(170.121 0 0)
(170.445 0 0)
(170.77 0 0)
(171.095 0 0)
(171.42 0 0)
(171.745 0 0)
(172.07 0 0)
(172.394 0 0)
(172.719 0 0)
(173.044 0 0)
(173.369 0 0)
(173.694 0 0)
(174.019 0 0)
(174.344 0 0)
(174.67 0 0)
(174.995 0 0)
(175.32 0 0)
(175.645 0 0)
(175.97 0 0)
(176.295 0 0)
(176.621 0 0)
(176.946 0 0)
(177.271 0 0)
(177.596 0 0)
(177.921 0 0)
(178.246 0 0)
(178.57 0 0)
(178.895 0 0)
(179.219 0 0)
(179.543 0 0)
(179.867 0 0)
(180.191 0 0)
(180.515 0 0)
(180.838 0 0)
(181.163 0 0)
(181.487 0 0)
(181.811 0 0)
(182.136 0 0)
(182.461 0 0)
(182.786 0 0)
(183.111 0 0)
(183.437 0 0)
(183.762 0 0)
(184.088 0 0)
(184.413 0 0)
(184.738 0 0)
(185.063 0 0)
(185.387 0 0)
(185.711 0 0)
(186.035 0 0)
(186.36 0 0)
(186.684 0 0)
(187.009 0 0)
(187.333 0 0)
(187.658 0 0)
(187.983 0 0)
(188.308 0 0)
(188.633 0 0)
(188.958 0 0)
(189.283 0 0)
(189.608 0 0)
(189.932 0 0)
(190.257 0 0)
(190.581 0 0)
(190.905 0 0)
(191.23 0 0)
(191.554 0 0)
(191.878 0 0)
(192.203 0 0)
(192.527 0 0)
(192.852 0 0)
(193.176 0 0)
(193.5 0 0)
(193.825 0 0)
(194.149 0 0)
(194.473 0 0)
(194.798 0 0)
(195.122 0 0)
(195.446 0 0)
(195.771 0 0)
(196.095 0 0)
(196.419 0 0)
(196.743 0 0)
(197.067 0 0)
(197.392 0 0)
(197.716 0 0)
(198.04 0 0)
(198.364 0 0)
(198.687 0 0)
(199.011 0 0)
(199.334 0 0)
(199.656 0 0)
(199.979 0 0)
(200.303 0 0)
(200.626 0 0)
(200.95 0 0)
(201.274 0 0)
(201.598 0 0)
(201.922 0 0)
(202.246 0 0)
(202.569 0 0)
(202.893 0 0)
(203.217 0 0)
(203.541 0 0)
(203.866 0 0)
(204.19 0 0)
(204.515 0 0)
(204.839 0 0)
(205.162 0 0)
(205.486 0 0)
(205.811 0 0)
(206.135 0 0)
(206.46 0 0)
(206.785 0 0)
(207.109 0 0)
(207.433 0 0)
(207.757 0 0)
(208.081 0 0)
(208.405 0 0)
(208.73 0 0)
(209.054 0 0)
(209.379 0 0)
(209.703 0 0)
(210.028 0 0)
(210.352 0 0)
(210.676 0 0)
(211.001 0 0)
(211.325 0 0)
(211.65 0 0)
(211.974 0 0)
(212.298 0 0)
(212.623 0 0)
(212.947 0 0)
(213.272 0 0)
(213.596 0 0)
(213.921 0 0)
(214.245 0 0)
(214.57 0 0)
(214.894 0 0)
(215.218 0 0)
(215.543 0 0)
(215.867 0 0)
(216.192 0 0)
(216.516 0 0)
(216.841 0 0)
(217.165 0 0)
(217.49 0 0)
(217.814 0 0)
(218.139 0 0)
(218.463 0 0)
(218.788 0 0)
(219.112 0 0)
(219.437 0 0)
(219.761 0 0)
(220.086 0 0)
(220.41 0 0)
(220.735 0 0)
(221.059 0 0)
(221.384 0 0)
(221.708 0 0)
(222.033 0 0)
(222.357 0 0)
(222.682 0 0)
(223.006 0 0)
(223.331 0 0)
(223.655 0 0)
(223.98 0 0)
(224.304 0 0)
(224.629 0 0)
(224.954 0 0)
(225.278 0 0)
(225.603 0 0)
(225.927 0 0)
(226.252 0 0)
(226.576 0 0)
(226.901 0 0)
(227.225 0 0)
(227.55 0 0)
(227.874 0 0)
(228.199 0 0)
(228.523 0 0)
(228.848 0 0)
(229.173 0 0)
(229.497 0 0)
(229.822 0 0)
(230.146 0 0)
(230.471 0 0)
(230.795 0 0)
(231.12 0 0)
(231.445 0 0)
(231.769 0 0)
(232.094 0 0)
(232.419 0 0)
(232.743 0 0)
(233.068 0 0)
(233.392 0 0)
(233.717 0 0)
(234.041 0 0)
(234.366 0 0)
(234.69 0 0)
(235.015 0 0)
(235.34 0 0)
(235.664 0 0)
(235.989 0 0)
(236.314 0 0)
(236.638 0 0)
(236.963 0 0)
(237.287 0 0)
(237.612 0 0)
(237.937 0 0)
(238.261 0 0)
(238.586 0 0)
(238.911 0 0)
(239.235 0 0)
(239.56 0 0)
(239.885 0 0)
(240.209 0 0)
(240.534 0 0)
(240.859 0 0)
(241.184 0 0)
(241.508 0 0)
(241.833 0 0)
(242.157 0 0)
(242.481 0 0)
(242.807 0 0)
(243.133 0 0)
(243.459 0 0)
(243.781 0 0)
(244.1 0 0)
(244.423 0 0)
(244.76 0 0)
(245.099 0 0)
(245.417 0 0)
(245.724 0 0)
(246.033 0 0)
(246.371 0 0)
(246.744 0 0)
(247.069 0 0)
(247.368 0 0)
(247.665 0 0)
(247.975 0 0)
(248.343 0 0)
(248.717 0 0)
(249.023 0 0)
(249.317 0 0)
(249.611 0 0)
(249.927 0 0)
(250.313 0 0)
(250.68 0 0)
(250.98 0 0)
(251.271 0 0)
(251.564 0 0)
(251.879 0 0)
(252.271 0 0)
(252.637 0 0)
(252.935 0 0)
(253.226 0 0)
(253.517 0 0)
(253.823 0 0)
(254.198 0 0)
(254.588 0 0)
(254.894 0 0)
(255.187 0 0)
(255.479 0 0)
(255.777 0 0)
(256.118 0 0)
(256.526 0 0)
(256.856 0 0)
(257.151 0 0)
(257.445 0 0)
(257.74 0 0)
(258.051 0 0)
(258.432 0 0)
(258.812 0 0)
(259.118 0 0)
(259.413 0 0)
(259.709 0 0)
(260.006 0 0)
(260.332 0 0)
(260.732 0 0)
(261.083 0 0)
(261.384 0 0)
(261.68 0 0)
(261.976 0 0)
(262.276 0 0)
(262.608 0 0)
(263.01 0 0)
(263.352 0 0)
(263.653 0 0)
(263.948 0 0)
(264.242 0 0)
(264.542 0 0)
(264.864 0 0)
(265.263 0 0)
(265.631 0 0)
(265.937 0 0)
(266.229 0 0)
(266.498 0 0)
(266.789 0 0)
(267.092 0 0)
(267.441 0 0)
(267.897 0 0)
(268.264 0 0)
(268.568 0 0)
(268.844 0 0)
(269.059 0 0)
(269.329 0 0)
(269.631 0 0)
(269.976 0 0)
(270.471 0 0)
(270.904 0 0)
(271.216 0 0)
(271.5 0 0)
(271.701 0 0)
(271.936 0 0)
(272.236 0 0)
(272.557 0 0)
(272.988 0 0)
(273.466 0 0)
(273.797 0 0)
(274.099 0 0)
(274.367 0 0)
(274.629 0 0)
(274.931 0 0)
(275.244 0 0)
(275.608 0 0)
(276.02 0 0)
(276.35 0 0)
(276.658 0 0)
(276.965 0 0)
(277.274 0 0)
(277.587 0 0)
(277.923 0 0)
(278.263 0 0)
(278.576 0 0)
(278.885 0 0)
(279.194 0 0)
(279.504 0 0)
(279.826 0 0)
(280.2 0 0)
(280.564 0 0)
(280.88 0 0)
(281.187 0 0)
(281.469 0 0)
(281.756 0 0)
(282.066 0 0)
(282.388 0 0)
(282.777 0 0)
(283.191 0 0)
(283.517 0 0)
(283.826 0 0)
(284.104 0 0)
(284.361 0 0)
(284.665 0 0)
(284.982 0 0)
(285.338 0 0)
(285.751 0 0)
(286.088 0 0)
(286.401 0 0)
(286.697 0 0)
(286.981 0 0)
(287.291 0 0)
(287.61 0 0)
(287.978 0 0)
(288.38 0 0)
(288.705 0 0)
(289.013 0 0)
(289.283 0 0)
(289.486 0 0)
(289.764 0 0)
(290.067 0 0)
(290.393 0 0)
(290.829 0 0)
(291.229 0 0)
(291.524 0 0)
(291.796 0 0)
(291.998 0 0)
(292.139 0 0)
(292.369 0 0)
(292.608 0 0)
(292.865 0 0)
(293.212 0 0)
(293.472 0 0)
(293.648 0 0)
(293.784 0 0)
(293.818 0 0)
(293.768 0 0)
(293.821 0 0)
(293.882 0 0)
(293.954 0 0)
(294.148 0 0)
(294.345 0 0)
(294.378 0 0)
(294.382 0 0)
(294.345 0 0)
(294.143 0 0)
(293.979 0 0)
(293.944 0 0)
(293.92 0 0)
(293.911 0 0)
(294.016 0 0)
(294.146 0 0)
(294.144 0 0)
(294.122 0 0)
(294.071 0 0)
(293.882 0 0)
(293.688 0 0)
(293.638 0 0)
(293.615 0 0)
(293.613 0 0)
(293.715 0 0)
(293.859 0 0)
(293.859 0 0)
(293.827 0 0)
(293.768 0 0)
(293.591 0 0)
(293.389 0 0)
(293.345 0 0)
(293.334 0 0)
(293.347 0 0)
(293.452 0 0)
(293.562 0 0)
(293.602 0 0)
(293.642 0 0)
(293.664 0 0)
(293.591 0 0)
(293.562 0 0)
(293.585 0 0)
(293.608 0 0)
(293.653 0 0)
(293.746 0 0)
(293.775 0 0)
(293.781 0 0)
(293.777 0 0)
(293.738 0 0)
(293.684 0 0)
(293.676 0 0)
(293.675 0 0)
(293.676 0 0)
(293.692 0 0)
(293.705 0 0)
(293.696 0 0)
(293.684 0 0)
(293.673 0 0)
(293.66 0 0)
(293.64 0 0)
(293.59 0 0)
(293.49 0 0)
(293.441 0 0)
(293.415 0 0)
(293.392 0 0)
(293.373 0 0)
(293.368 0 0)
(293.409 0 0)
(293.454 0 0)
(293.457 0 0)
(293.456 0 0)
(293.45 0 0)
(293.385 0 0)
(293.278 0 0)
(293.283 0 0)
(293.308 0 0)
(293.34 0 0)
(293.419 0 0)
(293.632 0 0)
(293.721 0 0)
(293.74 0 0)
(293.745 0 0)
(293.721 0 0)
(293.567 0 0)
(293.412 0 0)
(293.391 0 0)
(293.39 0 0)
(293.399 0 0)
(293.462 0 0)
(293.601 0 0)
(293.632 0 0)
(293.63 0 0)
(293.617 0 0)
(293.567 0 0)
(293.395 0 0)
(293.289 0 0)
(293.268 0 0)
(293.26 0 0)
(293.262 0 0)
(293.319 0 0)
(293.512 0 0)
(293.572 0 0)
(293.563 0 0)
(293.548 0 0)
(293.523 0 0)
(293.425 0 0)
(293.239 0 0)
(293.197 0 0)
(293.195 0 0)
(293.205 0 0)
(293.249 0 0)
(293.38 0 0)
(293.463 0 0)
(293.491 0 0)
(293.505 0 0)
(293.491 0 0)
(293.374 0 0)
(293.275 0 0)
(293.268 0 0)
(293.275 0 0)
(293.295 0 0)
(293.386 0 0)
(293.539 0 0)
(293.57 0 0)
(293.573 0 0)
(293.568 0 0)
(293.531 0 0)
(293.416 0 0)
(293.371 0 0)
(293.363 0 0)
(293.359 0 0)
(293.36 0 0)
(293.39 0 0)
(293.411 0 0)
(293.406 0 0)
(293.399 0 0)
(293.392 0 0)
(293.386 0 0)
(293.382 0 0)
(293.382 0 0)
(293.369 0 0)
(293.355 0 0)
(293.339 0 0)
(293.302 0 0)
(293.153 0 0)
(293.019 0 0)
(293.003 0 0)
(293.009 0 0)
(293.033 0 0)
(293.125 0 0)
(293.39 0 0)
(293.517 0 0)
(293.544 0 0)
(293.553 0 0)
(293.535 0 0)
(293.4 0 0)
(293.181 0 0)
(293.143 0 0)
(293.144 0 0)
(293.153 0 0)
(293.202 0 0)
(293.371 0 0)
(293.452 0 0)
(293.46 0 0)
(293.457 0 0)
(293.438 0 0)
(293.347 0 0)
(293.26 0 0)
(293.246 0 0)
(293.241 0 0)
(293.241 0 0)
(293.275 0 0)
(293.321 0 0)
(293.32 0 0)
(293.313 0 0)
(293.301 0 0)
(293.265 0 0)
(293.223 0 0)
(293.205 0 0)
(293.193 0 0)
(293.188 0 0)
(293.203 0 0)
(293.216 0 0)
(293.217 0 0)
(293.219 0 0)
(293.221 0 0)
(293.222 0 0)
(293.235 0 0)
(293.25 0 0)
(293.266 0 0)
(293.287 0 0)
(293.311 0 0)
(293.32 0 0)
(293.324 0 0)
(293.326 0 0)
(293.323 0 0)
(293.32 0 0)
(293.322 0 0)
(293.325 0 0)
(293.328 0 0)
(293.332 0 0)
(293.333 0 0)
(293.332 0 0)
(293.328 0 0)
(293.319 0 0)
(293.31 0 0)
(293.306 0 0)
(293.302 0 0)
(293.297 0 0)
(293.291 0 0)
(293.282 0 0)
(293.271 0 0)
(293.263 0 0)
(293.256 0 0)
(293.25 0 0)
(293.242 0 0)
(293.232 0 0)
(293.222 0 0)
(293.215 0 0)
(293.211 0 0)
(293.209 0 0)
(293.21 0 0)
(293.215 0 0)
(293.227 0 0)
(293.241 0 0)
(293.253 0 0)
(293.263 0 0)
(293.272 0 0)
(293.282 0 0)
(293.292 0 0)
(293.302 0 0)
(293.308 0 0)
(293.312 0 0)
(293.313 0 0)
(293.315 0 0)
(293.316 0 0)
(293.317 0 0)
(293.321 0 0)
(293.325 0 0)
(293.327 0 0)
(293.327 0 0)
(293.324 0 0)
(293.32 0 0)
(293.315 0 0)
(293.311 0 0)
(293.31 0 0)
(293.308 0 0)
(293.305 0 0)
(293.3 0 0)
(293.292 0 0)
(293.284 0 0)
(293.276 0 0)
(293.272 0 0)
(293.266 0 0)
(293.259 0 0)
(293.253 0 0)
(293.247 0 0)
(293.244 0 0)
(293.244 0 0)
(293.245 0 0)
(293.25 0 0)
(293.264 0 0)
(293.279 0 0)
(293.29 0 0)
(293.298 0 0)
(293.305 0 0)
(293.31 0 0)
(293.317 0 0)
(293.323 0 0)
(293.329 0 0)
(293.333 0 0)
(293.336 0 0)
(293.338 0 0)
(293.341 0 0)
(293.343 0 0)
(293.344 0 0)
(293.345 0 0)
(293.345 0 0)
(293.345 0 0)
(293.344 0 0)
(293.341 0 0)
(293.335 0 0)
(293.33 0 0)
(293.326 0 0)
(293.323 0 0)
(293.32 0 0)
(293.317 0 0)
(293.312 0 0)
(293.304 0 0)
(293.295 0 0)
(293.287 0 0)
(293.282 0 0)
(293.278 0 0)
(293.276 0 0)
(293.273 0 0)
(293.271 0 0)
(293.27 0 0)
(293.271 0 0)
(293.274 0 0)
(293.284 0 0)
(293.298 0 0)
(293.309 0 0)
(293.317 0 0)
(293.321 0 0)
(293.323 0 0)
(293.324 0 0)
(293.326 0 0)
(293.33 0 0)
(293.335 0 0)
(293.338 0 0)
(293.34 0 0)
(293.341 0 0)
(293.339 0 0)
(293.338 0 0)
(293.337 0 0)
(293.338 0 0)
(293.338 0 0)
(293.338 0 0)
(293.337 0 0)
(293.332 0 0)
(293.325 0 0)
(293.319 0 0)
(293.315 0 0)
(293.313 0 0)
(293.312 0 0)
(293.31 0 0)
(293.305 0 0)
(293.297 0 0)
(293.289 0 0)
(293.283 0 0)
(293.279 0 0)
(293.278 0 0)
(293.278 0 0)
(293.279 0 0)
(293.282 0 0)
(293.284 0 0)
(293.288 0 0)
(293.295 0 0)
(293.305 0 0)
(293.315 0 0)
(293.322 0 0)
(293.324 0 0)
(293.324 0 0)
(293.324 0 0)
(293.324 0 0)
(293.325 0 0)
(293.329 0 0)
(293.336 0 0)
(293.34 0 0)
(293.342 0 0)
(293.341 0 0)
(293.338 0 0)
(293.333 0 0)
(293.331 0 0)
(293.33 0 0)
(293.33 0 0)
(293.33 0 0)
(293.329 0 0)
(293.325 0 0)
(293.318 0 0)
(293.312 0 0)
(293.308 0 0)
(293.306 0 0)
(293.305 0 0)
(293.305 0 0)
(293.301 0 0)
(293.292 0 0)
(293.286 0 0)
(293.282 0 0)
(293.281 0 0)
(293.28 0 0)
(293.286 0 0)
(293.291 0 0)
(293.295 0 0)
(293.298 0 0)
(293.301 0 0)
(293.306 0 0)
(293.315 0 0)
(293.322 0 0)
(293.327 0 0)
(293.329 0 0)
(293.329 0 0)
(293.325 0 0)
(293.324 0 0)
(293.324 0 0)
(293.326 0 0)
(293.33 0 0)
(293.334 0 0)
(293.336 0 0)
(293.335 0 0)
(293.331 0 0)
(293.327 0 0)
(293.326 0 0)
(293.325 0 0)
(293.326 0 0)
(293.326 0 0)
(293.324 0 0)
(293.318 0 0)
(293.311 0 0)
(293.305 0 0)
(293.301 0 0)
(293.3 0 0)
(293.299 0 0)
(293.298 0 0)
(293.294 0 0)
(293.29 0 0)
(293.287 0 0)
(293.287 0 0)
(293.289 0 0)
(293.295 0 0)
(293.301 0 0)
(293.304 0 0)
(293.304 0 0)
(293.304 0 0)
(293.305 0 0)
(293.308 0 0)
(293.318 0 0)
(293.326 0 0)
(293.332 0 0)
(293.334 0 0)
(293.333 0 0)
(293.329 0 0)
(293.322 0 0)
(293.321 0 0)
(293.322 0 0)
(293.326 0 0)
(293.328 0 0)
(293.328 0 0)
(293.327 0 0)
(293.324 0 0)
(293.322 0 0)
(293.322 0 0)
(293.323 0 0)
(293.325 0 0)
(293.324 0 0)
(293.321 0 0)
(293.312 0 0)
(293.302 0 0)
(293.296 0 0)
(293.294 0 0)
(293.294 0 0)
(293.295 0 0)
(293.295 0 0)
(293.292 0 0)
(293.29 0 0)
(293.291 0 0)
(293.293 0 0)
(293.298 0 0)
(293.308 0 0)
(293.316 0 0)
(293.319 0 0)
(293.316 0 0)
(293.312 0 0)
(293.299 0 0)
(293.252 0 0)
(293.067 0 0)
(292.314 0 0)
(290.004 0 0)
(287.613 0 0)
(286.547 0 0)
(286.128 0 0)
(285.982 0 0)
(285.94 0 0)
(285.924 0 0)
(285.925 0 0)
(285.925 0 0)
(285.921 0 0)
(285.917 0 0)
(285.921 0 0)
(285.927 0 0)
(285.933 0 0)
(285.939 0 0)
(285.939 0 0)
(285.934 0 0)
(285.93 0 0)
(285.926 0 0)
(285.927 0 0)
(285.932 0 0)
(285.936 0 0)
(285.934 0 0)
(285.932 0 0)
(285.926 0 0)
(285.922 0 0)
(285.927 0 0)
(285.935 0 0)
(285.943 0 0)
(285.951 0 0)
(285.952 0 0)
(285.95 0 0)
(285.943 0 0)
(285.936 0 0)
(285.933 0 0)
(285.934 0 0)
(285.939 0 0)
(285.945 0 0)
(285.948 0 0)
(285.95 0 0)
(285.957 0 0)
(285.963 0 0)
(285.967 0 0)
(285.974 0 0)
(285.981 0 0)
(285.984 0 0)
(285.98 0 0)
(285.972 0 0)
(285.969 0 0)
(285.971 0 0)
(285.978 0 0)
(285.988 0 0)
(285.996 0 0)
(286.002 0 0)
(286.007 0 0)
(286.003 0 0)
(285.997 0 0)
(285.995 0 0)
(285.994 0 0)
(285.992 0 0)
(285.983 0 0)
(285.945 0 0)
(285.801 0 0)
(285.286 0 0)
(283.779 0 0)
(281.94 0 0)
(280.854 0 0)
(280.392 0 0)
(280.183 0 0)
(280.099 0 0)
(280.07 0 0)
(280.063 0 0)
(280.061 0 0)
(280.063 0 0)
(280.061 0 0)
(280.057 0 0)
(280.056 0 0)
(280.055 0 0)
(280.052 0 0)
(280.051 0 0)
(280.051 0 0)
(280.049 0 0)
(280.052 0 0)
(280.057 0 0)
(280.06 0 0)
(280.063 0 0)
(280.063 0 0)
(280.062 0 0)
(280.061 0 0)
(280.06 0 0)
(280.06 0 0)
(280.06 0 0)
(280.057 0 0)
)
;

boundaryField
{
    sides
    {
        type            zeroGradient;
    }
    empty
    {
        type            empty;
    }
}


// ************************************************************************* //
