/*--------------------------------*- C++ -*----------------------------------*\
  =========                 |
  \\      /  F ield         | OpenFOAM: The Open Source CFD Toolbox
   \\    /   O peration     | Website:  https://openfoam.org
    \\  /    A nd           | Version:  9
     \\/     M anipulation  |
\*---------------------------------------------------------------------------*/
FoamFile
{
    format      ascii;
    class       volScalarField;
    location    "0.006";
    object      ddt0(rho);
}
// * * * * * * * * * * * * * * * * * * * * * * * * * * * * * * * * * * * * * //

dimensions      [1 -3 -1 0 0 0 0];

internalField   nonuniform List<scalar> 
1000
(
3.76011e-12
3.22989e-11
3.87556e-11
-2.28359e-11
-4.86006e-11
-2.63504e-11
2.32776e-11
-5.05426e-11
-1.27767e-11
-1.27463e-11
1.6448e-11
-2.27513e-11
1.11049e-13
4.57684e-11
4.88545e-11
2.26041e-11
-2.26063e-11
1.82203e-11
2.69774e-11
-3.6847e-11
-3.01535e-11
-2.74449e-11
-3.88903e-11
-6.33459e-11
2.04499e-11
-4.26107e-11
2.09269e-12
2.14103e-11
-2.72907e-11
1.11084e-11
2.83805e-11
-2.11552e-11
5.97955e-11
1.73331e-11
1.70612e-11
-9.67299e-12
-8.92164e-11
1.6801e-11
-1.87566e-11
-3.06641e-11
1.75804e-11
-5.83114e-12
2.79039e-11
4.25117e-11
7.37061e-11
2.60025e-11
-6.04348e-11
2.19325e-11
-2.06713e-11
2.03038e-11
-3.08462e-12
2.91251e-11
-2.55022e-11
4.73937e-11
7.00287e-11
-7.85368e-12
-4.9563e-12
4.68404e-11
2.19449e-11
2.29981e-11
2.52879e-12
5.0803e-13
-8.76466e-11
-5.17753e-11
1.19956e-12
-4.26803e-11
1.63943e-11
2.21157e-11
-8.49983e-12
2.41367e-11
1.10128e-10
7.05947e-11
-1.51797e-11
-5.98208e-11
-8.37071e-11
-6.68388e-11
-6.56505e-11
-1.84751e-11
2.22929e-11
-2.25619e-11
5.26302e-11
-5.21148e-11
-2.15701e-11
2.46228e-11
2.96415e-11
3.78089e-11
2.52387e-11
1.52221e-12
-4.75909e-11
-4.48569e-11
-6.17376e-11
-8.80253e-11
6.33726e-11
-1.16463e-12
7.50187e-12
6.97837e-11
-4.67004e-12
3.90689e-11
1.15982e-11
-4.5983e-11
4.09438e-12
5.20315e-12
5.58981e-11
3.43225e-12
-1.5324e-11
4.24555e-11
-1.13671e-11
-2.02066e-11
2.34819e-11
3.54919e-12
1.54429e-11
-6.58522e-11
1.09847e-11
-6.38956e-11
-6.94455e-11
-4.56713e-12
-2.32552e-13
-2.82525e-11
1.52399e-11
8.63138e-12
5.05911e-11
2.04781e-11
-1.3407e-11
-4.44531e-11
-4.61946e-11
1.18719e-12
1.88334e-11
-2.60386e-11
-4.55946e-11
-8.54256e-11
-5.204e-11
-3.23402e-12
-2.44113e-12
-4.73211e-11
-5.05588e-11
-2.17549e-11
-8.12722e-12
-4.91885e-13
2.83379e-12
4.71498e-14
2.22701e-11
-4.21708e-11
-2.7442e-11
-9.36616e-11
2.29328e-11
6.3122e-11
-5.53519e-12
5.90801e-11
3.92567e-11
1.91386e-11
6.66805e-11
2.29729e-11
1.77861e-11
1.11524e-10
1.9145e-11
4.47423e-11
-4.52449e-11
-5.11421e-11
-3.25672e-11
2.5174e-12
4.77382e-11
5.23687e-12
2.03864e-11
4.83356e-11
1.5872e-11
-3.93869e-11
5.92812e-12
6.13353e-12
-6.66614e-11
-8.69685e-11
-6.25206e-12
4.53658e-12
-3.86046e-11
4.97995e-11
1.96802e-11
2.0559e-11
-3.02224e-12
1.32347e-12
-2.63012e-11
-7.04984e-11
-4.47815e-11
-4.78971e-11
-5.10262e-13
2.01917e-11
-5.60463e-12
-5.3195e-12
-2.13742e-12
-7.42648e-12
-2.58045e-11
1.85175e-11
-7.74317e-12
-6.12251e-11
-8.94164e-11
-5.61343e-11
-2.95401e-12
-3.97319e-11
4.07403e-11
-3.01915e-11
9.80458e-12
-1.82635e-11
5.81264e-11
4.35425e-11
-3.50153e-11
-1.60089e-11
2.33557e-11
-5.33577e-13
5.30982e-11
7.12522e-11
3.85341e-11
-4.24157e-11
-6.94137e-11
-6.33297e-11
-4.24881e-11
-5.4492e-11
-1.87429e-11
-3.68478e-12
2.61242e-11
-4.10258e-11
-4.16339e-12
3.77465e-11
1.78589e-11
-4.54634e-11
-1.12595e-10
-1.35939e-10
-4.02592e-10
-1.02156e-09
-2.18626e-09
-4.77757e-09
-1.01952e-08
-2.16338e-08
-4.55462e-08
-9.50365e-08
-1.96674e-07
-4.03902e-07
-8.22431e-07
-1.6607e-06
-3.32474e-06
-6.59866e-06
-1.29813e-05
-2.53082e-05
-4.88899e-05
-9.35647e-05
-0.00017736
-0.00033294
-0.000618796
-0.00113842
-0.00207266
-0.00373345
-0.00665168
-0.0117182
-0.0204064
-0.0351149
-0.0596866
-0.100172
-0.165924
-0.271113
-0.43676
-0.693314
-1.08376
-1.66704
-2.52135
-3.74654
-5.46443
-7.81559
-10.9508
-15.0164
-20.1322
-26.3653
-33.7021
-42.0268
-51.1122
-60.6304
-70.1843
-79.355
-87.7548
-95.0714
-101.101
-105.804
-109.29
-111.752
-113.401
-114.434
-115.009
-115.251
-115.252
-115.078
-114.779
-114.387
-113.929
-113.421
-112.878
-112.308
-111.719
-111.116
-110.502
-109.88
-109.252
-108.619
-107.983
-107.343
-106.7
-106.054
-105.405
-104.753
-104.099
-103.441
-102.78
-102.116
-101.449
-100.778
-100.104
-99.4264
-98.7455
-98.0612
-97.3736
-96.683
-95.9893
-95.2928
-94.5937
-93.8921
-93.1883
-92.4824
-91.7747
-91.0654
-90.3548
-89.643
-88.9303
-88.217
-87.5032
-86.7892
-86.0751
-85.3611
-84.6476
-83.9345
-83.2221
-82.5106
-81.8001
-81.0907
-80.3826
-79.676
-78.9708
-78.2673
-77.5655
-76.8655
-76.1674
-75.4714
-74.7774
-74.0855
-73.3959
-72.7085
-72.0234
-71.3408
-70.6605
-69.9827
-69.3074
-68.6346
-67.9645
-67.2969
-66.632
-65.9697
-65.3102
-64.6533
-63.9992
-63.3479
-62.6993
-62.0535
-61.4105
-60.7704
-60.1331
-59.4986
-58.8669
-58.2382
-57.6123
-56.9893
-56.3691
-55.7519
-55.1375
-54.5261
-53.9175
-53.3119
-52.7091
-52.1093
-51.5123
-50.9183
-50.3273
-49.7386
-49.1545
-48.5693
-47.9962
-47.4053
-46.8617
-46.2308
-45.7767
-45.0082
-44.7867
-43.6968
-43.8992
-42.3674
-42.9113
-41.3846
-41.3341
-41.1518
-39.1812
-41.0722
-37.6337
-39.5054
-38.1733
-36.297
-38.7842
-35.2064
-35.8564
-36.9684
-33.0908
-35.1261
-35.0542
-31.4382
-33.9058
-33.4871
-29.8743
-32.2755
-32.3176
-28.4526
-30.1946
-31.3992
-27.4395
-27.6793
-30.2306
-27.1799
-25.1741
-28.1051
-27.4895
-23.7045
-24.8295
-27.0537
-24.0654
-21.7709
-24.3884
-24.9695
-21.2532
-20.4404
-23.3126
-22.7956
-19.0672
-19.0077
-21.8087
-20.9333
-17.3177
-17.2593
-19.9897
-19.4875
-15.9607
-15.1987
-17.8176
-18.3139
-15.0833
-13.1568
-15.1652
-16.9186
-14.7775
-11.7178
-12.1396
-14.6666
-14.5901
-11.4421
-9.60122
-11.304
-13.3125
-12.0156
-8.83308
-7.9218
-10.0473
-11.5821
-9.79939
-6.73953
-6.19924
-8.3909
-9.77218
-8.01156
-5.12243
-4.39588
-6.18079
-7.88502
-7.01334
-3.92765
-2.1129
-3.87312
-6.40257
-5.78691
-2.83287
-1.02392
-1.69117
-3.63054
-4.59917
-3.12748
-0.490427
0.568628
-0.866754
-3.11856
-3.48405
-1.00214
1.73188
1.56536
-1.22325
-3.0942
-1.61321
0.630823
1.7564
1.93513
-0.990222
-2.13419
-0.67456
0.303282
0.776867
1.15649
0.593177
-0.644575
-0.354228
-0.236539
0.131839
0.554267
0.453636
0.0395281
-0.291356
-0.251494
0.163743
0.631164
-0.0047279
0.0648573
0.637393
-0.680145
0.0638904
0.785803
0.0422669
-0.812653
0.338476
1.15563
-0.373622
-0.647645
0.416633
0.565122
-0.796877
-0.108961
1.16323
0.47976
-0.935216
-0.120427
0.841068
0.295906
-0.679557
0.119548
0.715612
0.0415823
-0.534263
0.169306
0.737067
-0.0992534
-0.514198
0.366325
0.725978
-0.00362723
-0.372971
0.207808
0.620521
-0.000787216
-0.315044
0.189774
0.504846
-0.00312976
-0.237049
0.255152
0.476989
-0.011128
-0.181324
0.215974
0.522513
0.101429
-0.130285
0.298509
0.461601
0.0187429
-0.0640453
0.313058
0.396785
-0.0888489
-0.0536976
0.545538
0.244654
-0.145133
0.309432
0.443766
0.285763
-0.166981
0.0139358
0.72576
0.437415
-0.355905
0.320999
0.642664
0.127376
-0.110611
0.625689
0.366984
-0.0387476
0.380448
0.484109
0.634922
-0.261339
0.262484
1.0034
0.152065
-0.0924885
0.703303
0.550097
0.176232
0.115921
0.631677
0.667414
0.0254879
0.740712
1.03639
0.0705969
0.252466
0.436637
0.361195
0.651331
0.861953
1.29879
0.913292
0.45504
0.363723
0.300528
0.318584
0.88734
1.39004
1.53528
1.42641
0.913317
0.532629
0.505057
0.336095
0.44452
1.37008
2.46382
2.70852
2.61654
2.1134
1.93104
1.28521
0.635816
0.520591
0.490292
0.923112
2.06274
5.44797
5.99448
6.38612
6.26759
5.56425
4.69192
3.79719
2.67721
1.15222
1.26517
0.649278
0.790347
0.900708
6.8213
15.3771
77.0268
226.84
666.918
641.976
568.112
490.36
408.523
331.5
265.568
210.106
162.592
123.39
92.4839
69.2197
50.7125
35.8107
25.2995
18.1805
11.8192
7.5502
5.91421
3.34595
1.26258
1.03531
1.39553
0.216357
-0.30606
-0.0276878
-0.252988
-0.220273
-0.206854
-0.616598
-0.519456
-0.0938232
0.0784492
-0.145567
-0.374587
-0.23109
0.0837323
0.288046
0.176897
0.103174
-0.0710985
-0.267507
-0.232277
-0.17937
-0.32482
-0.402433
-0.220457
-0.0377914
-0.279137
-0.223209
-0.0318692
0.0272319
-0.0938004
-0.0299226
0.0174977
0.0201246
0.106829
0.165081
0.0649058
0.131774
0.142719
0.0563252
-0.0175961
0.0334876
0.027342
-0.02524
-0.0145479
-0.169394
-0.278524
-0.0120424
-0.153036
-0.242554
0.0807906
-0.0575693
-0.108925
0.100427
0.0275172
0.00361996
0.0626194
0.227757
0.14773
0.044697
0.043475
0.118781
0.131042
-0.0646446
-0.0169424
-0.116811
-0.0923798
0.0358601
-0.111337
-0.182056
-0.0324118
0.0637356
0.0257106
-0.00551776
0.0335311
0.0703929
0.167439
0.167976
-0.00424327
0.157941
0.204638
0.113728
0.00183976
0.124811
0.0613581
-0.080525
-0.175236
-0.204024
0.0726402
-0.178501
-0.127682
0.201076
0.0082918
-0.00472484
0.136339
-0.0700123
0.0378369
0.12584
-0.304552
0.237542
-0.0310935
0.448261
0.906259
-0.511878
1.5862
-0.225687
-0.260179
1.07165
-1.58549
-0.505788
1.69581
-2.62444
5.80642
3.08307
-3.1211
13.3113
-4.33939
4.2117
11.5736
-12.7346
11.6722
17.2434
-34.2021
62.3128
6.85666
-14.8225
147.421
-67.426
77.5517
207.535
-413.69
838.205
-652.324
1044.06
4526.31
1633.61
385.765
59.647
8.04351
1.07093
0.142506
0.0189497
0.00251898
0.000334922
4.45535e-05
5.92966e-06
7.89417e-07
1.05107e-07
1.3988e-08
1.85885e-09
2.48718e-10
2.76428e-11
2.46188e-13
5.17903e-12
-7.93147e-13
-1.27177e-12
1.07603e-12
1.84247e-12
9.15777e-13
-6.99957e-12
9.17142e-14
7.95045e-13
-3.1976e-12
-3.91663e-14
-2.11469e-13
5.0355e-13
-5.04599e-13
-1.73024e-14
-4.16335e-13
1.02161e-11
6.07526e-12
2.68189e-12
-5.52366e-12
3.96091e-14
2.20426e-12
-1.99854e-13
-3.04115e-12
-4.83113e-12
-3.14529e-12
-5.63364e-12
-9.78346e-14
2.30168e-12
4.89533e-13
2.53386e-12
1.91303e-13
2.15881e-12
-2.52674e-12
-4.01766e-12
4.78426e-13
-2.9977e-12
2.43795e-12
2.28605e-12
-1.65136e-12
-2.96056e-12
-3.52967e-12
-8.63468e-12
1.79933e-12
-2.1404e-12
5.53374e-12
5.53607e-12
-2.52768e-12
8.87551e-13
-4.38659e-13
-2.00868e-12
-2.34819e-12
-3.34051e-14
3.88855e-12
2.51456e-12
-1.16456e-12
-2.64919e-12
-5.2289e-12
-2.65188e-12
-3.55581e-12
5.49803e-12
2.1749e-12
-3.2212e-13
-2.70706e-12
1.04123e-12
9.03901e-13
-5.45068e-13
9.23063e-13
5.21576e-12
2.05977e-12
8.85921e-12
2.51992e-12
-5.84179e-12
-5.01169e-12
3.33909e-12
3.06957e-12
-2.71014e-12
3.31124e-12
-2.84982e-12
-3.97164e-12
2.39488e-12
9.17545e-12
-2.53248e-13
-9.23094e-12
-5.23406e-12
2.04452e-13
2.48837e-12
-1.14575e-11
-3.21122e-13
-4.35563e-12
-3.36373e-12
5.49967e-12
8.13169e-12
4.40633e-12
4.96169e-12
3.4719e-12
2.2202e-12
-2.36036e-13
1.17916e-11
3.08477e-12
2.0506e-12
-8.50693e-12
-4.83892e-12
-4.73742e-12
-8.18486e-12
-2.48529e-12
9.22193e-13
-2.95405e-12
2.26264e-12
-4.21646e-12
2.67587e-12
6.62423e-12
-2.24895e-12
-2.94079e-12
2.88133e-12
3.8159e-12
-2.89551e-13
-3.82206e-12
-3.84086e-12
-7.13023e-13
7.83793e-14
-7.92072e-12
-5.11555e-12
5.81717e-12
2.22685e-12
3.21446e-12
2.26161e-13
3.16086e-12
1.86654e-12
3.0746e-12
-4.78464e-12
5.28399e-12
-2.86594e-12
-5.99535e-13
2.13281e-12
-8.46641e-12
-3.48726e-12
-3.02104e-12
7.19156e-12
4.72954e-12
7.90433e-12
-4.15373e-12
5.19687e-13
1.15029e-11
1.90389e-12
5.47227e-12
1.49965e-14
3.30247e-12
-2.53202e-12
2.62849e-12
-1.02311e-13
3.15503e-12
-8.62046e-12
-2.61131e-12
-6.08209e-12
)
;

boundaryField
{
    sides
    {
        type            calculated;
        value           nonuniform List<scalar> 2(-6.08209e-12 3.76011e-12);
    }
    empty
    {
        type            empty;
    }
}


// ************************************************************************* //
