/*--------------------------------*- C++ -*----------------------------------*\
  =========                 |
  \\      /  F ield         | OpenFOAM: The Open Source CFD Toolbox
   \\    /   O peration     | Website:  https://openfoam.org
    \\  /    A nd           | Version:  9
     \\/     M anipulation  |
\*---------------------------------------------------------------------------*/
FoamFile
{
    format      ascii;
    class       surfaceScalarField;
    location    "0.006";
    object      ddtCorrDdt0(phi);
}
// * * * * * * * * * * * * * * * * * * * * * * * * * * * * * * * * * * * * * //

dimensions      [1 0 -2 0 0 0 0];

internalField   nonuniform List<scalar> 
999
(
2.79004e-08
7.82533e-09
2.22026e-08
3.89685e-08
3.98946e-08
2.14053e-08
4.56265e-08
-2.9682e-08
2.45012e-08
4.84558e-08
5.75352e-08
2.00895e-08
-2.46204e-08
-6.16122e-09
9.6335e-09
-6.9605e-08
-3.82798e-08
-4.44513e-08
-1.92886e-08
2.36085e-08
3.87962e-08
5.02269e-08
7.39803e-08
1.40265e-08
9.50139e-08
4.01301e-08
4.20664e-08
3.11886e-08
1.92665e-08
4.24535e-08
-1.58556e-08
-3.78583e-08
-4.23543e-08
-4.56696e-08
-4.73505e-08
-2.87245e-08
-6.14259e-08
-1.75547e-08
-4.25924e-08
-1.72924e-08
-3.93876e-08
-8.00992e-09
4.54214e-09
6.87212e-09
1.58022e-08
5.2931e-08
-1.29839e-08
-7.67227e-09
9.54481e-09
2.02382e-08
4.7865e-08
8.04404e-08
2.24505e-08
-1.85078e-09
4.51923e-08
1.38993e-08
-6.22653e-08
-6.18178e-08
-3.6703e-08
-6.41882e-08
-1.19312e-08
3.80775e-08
7.81998e-08
5.29729e-08
3.11651e-08
-9.63529e-09
-8.72539e-09
-1.91193e-08
-6.80522e-08
-2.14998e-08
-1.08034e-07
-4.84904e-09
1.27603e-08
-4.16253e-09
3.93919e-09
4.71067e-08
2.60905e-08
1.43146e-08
1.56884e-08
-4.20627e-08
-2.79706e-08
-4.64419e-08
-6.88519e-09
-1.00271e-08
-1.13987e-08
-4.66719e-08
-4.47242e-08
5.25466e-09
2.6594e-08
1.71258e-08
1.72412e-09
1.34135e-08
-2.28976e-08
1.40345e-08
-1.51637e-08
6.65184e-08
6.44863e-08
2.81658e-08
2.12034e-08
-1.42661e-08
1.7889e-08
-1.28183e-09
1.22595e-08
9.9618e-09
9.94168e-09
-3.79733e-09
-1.17965e-07
4.07301e-09
1.77948e-08
-3.55043e-08
1.57454e-08
4.0222e-08
-7.33887e-09
3.69956e-08
-1.29491e-08
2.94985e-08
2.48553e-08
4.6392e-08
2.59546e-08
1.1372e-08
8.55229e-09
3.30405e-08
3.66673e-10
-8.39672e-08
-5.4399e-08
-1.03152e-08
-9.90305e-08
-4.45771e-11
-6.7703e-08
-1.7191e-08
8.31815e-10
2.94985e-08
-3.57213e-08
8.88222e-08
3.62121e-08
7.03567e-08
6.95522e-08
1.38562e-08
4.49224e-08
5.62341e-08
-1.05447e-08
-5.28678e-08
4.44533e-09
1.0586e-08
-3.64002e-08
-3.19865e-08
4.16536e-08
-5.18197e-08
-7.85373e-08
-1.29264e-07
-3.98169e-08
4.7225e-09
1.21761e-08
3.14145e-08
-1.29045e-08
4.90401e-08
9.47758e-08
4.56567e-08
1.43039e-08
-4.59787e-08
-1.43981e-08
-2.95611e-08
3.49295e-08
-2.82971e-08
-2.85994e-08
-7.50942e-09
4.1275e-08
1.66344e-08
1.29937e-08
-1.45033e-08
-1.10682e-08
3.05825e-08
-4.56262e-08
1.17011e-08
3.21407e-08
7.81578e-09
-1.18626e-08
8.42474e-09
4.08699e-08
3.29599e-08
4.60702e-08
-2.46671e-08
-5.74874e-10
5.93037e-08
-5.90352e-09
1.70536e-08
2.9682e-08
-8.14983e-09
-1.19392e-08
4.46123e-08
6.78983e-08
5.74359e-08
-3.31731e-09
5.02839e-08
-1.26573e-08
5.9604e-09
-5.26317e-08
-6.04349e-08
-1.07385e-07
-4.46851e-08
-1.17038e-08
-3.86968e-09
1.43774e-08
-8.41372e-09
-1.37065e-08
-2.76184e-08
-3.82727e-08
1.33379e-08
7.49245e-08
1.0784e-07
7.23286e-08
1.97653e-08
-4.21512e-09
-1.38184e-08
-4.67115e-08
-3.23546e-08
-4.31552e-08
-8.03597e-08
2.97004e-08
5.30507e-08
6.67083e-08
1.10859e-07
1.94068e-07
5.18702e-07
1.05757e-06
2.2568e-06
4.95681e-06
1.06935e-05
2.27864e-05
4.82039e-05
0.000101001
0.000209791
0.000432287
0.000883306
0.00179022
0.00359736
0.00716674
0.0141532
0.0277016
0.0537291
0.103249
0.196543
0.370542
0.691727
1.27837
2.3383
4.23212
7.57731
13.4167
23.4866
40.6343
69.4558
117.246
195.378
321.25
520.927
832.597
1310.84
2031.56
3097.06
4640.45
6827.77
9855.91
13943.9
19315.2
26169.5
34646.2
44781.7
56471.2
69444.8
83269
97380.1
111147
123953
135268
144706
152084
157488
161176
163476
164708
165145
165004
164447
163593
162526
161309
159983
158582
157128
155637
154121
152589
151049
149503
147955
146409
144864
143323
141786
140253
138724
137200
135680
134164
132653
131146
129643
128143
126648
125157
123669
122186
120707
119233
117763
116298
114838
113384
111935
110492
109056
107626
106204
104789
103381
101981
100589
99206.2
97831.8
96466.4
95110.2
93763.5
92426.4
91099.2
89782
88474.9
87178.2
85892
84616.4
83351.4
82097.2
80853.9
79621.6
78400.2
77189.9
75990.8
74802.7
73625.9
72460.3
71305.8
70162.6
69030.7
67910
66800.5
65702.3
64615.3
63539.5
62474.8
61421.4
60379
59347.8
58327.7
57318.6
56320.5
55333.4
54357.3
53392
52437.6
51494
50561.2
49639.1
48727.7
47826.8
46936.6
46056.9
45187.7
44328.9
43480.5
42642.4
41814.5
40996.9
40189.4
39392
38604.7
37827.2
37060.2
36301.5
35556.3
34813.2
34094.6
33358.4
32678.9
31933.5
31307.5
30548.4
29953.6
29247.9
28559.4
28075.9
27123.5
26923.9
25903.4
25508.5
25084.4
23899.1
24111.1
22922.9
22386.2
22531.1
20944.4
21068.6
20836.5
19181.8
19700.5
19239.9
17566.2
18275.6
17873.1
16045.9
16723.4
16716.4
14684.4
14983.3
15676.8
13705.2
13111.3
14419.5
13224
11458.4
12555.7
12912.2
10699.1
10277.6
11829.6
10931.9
8779.57
9444.62
10738.1
9086.39
7311.46
8541.73
9570.14
7610.43
6034.46
7447.56
8488.34
6559.36
4845.8
6111.96
7512.85
5973
3830.34
4532.04
6428.11
5766.04
3295.96
2884.29
4881.29
5607.65
3531.59
1708.04
2774.27
4755.79
4260.44
1785.02
862.817
2651.95
4254.42
3079.46
615.52
222.937
2288.16
3704.87
2312.38
-115.183
-402.622
1643.43
3141.84
2091.28
-293.354
-1210.69
537.648
2828.8
2430.6
-391.258
-1876.64
-262.001
2046.5
2322.93
482.964
-1520.39
-1563.88
476.991
2303.49
1809.53
-577.894
-2326.94
-1336.34
1498.29
2804.2
900.633
-1922
-2415.49
7.77582
1308.74
2646.3
996.228
-2270.58
-1655.59
-166.12
483.005
941.034
1478.03
-67.2071
-668.69
-361.377
-251.666
479.392
490.762
663.856
-665.988
-464.129
-2.91943
972.863
1210.42
-1964.46
1102.14
-173.944
-407.922
1046.56
2880.11
-3351.77
-834.453
2473.65
1985.35
-4136.78
-95.516
1736.64
-491.734
-855.882
876.668
3168.58
-1867.73
-1045.22
502.601
2933.03
-1772.33
-727.315
896.134
2068.87
-2399.41
-523.374
1245.63
1270.61
-2470.99
-508.6
1883.09
1263.3
-1887.54
-401.553
1090.92
1058.89
-1718.32
-334.041
815.169
888.11
-1367.64
-273.272
1347.58
678.793
-1245.42
-233.215
924.734
802.552
-782.554
-145.703
1214.61
618.028
-1141.2
4.74513
1582.64
259.27
-766.546
487.692
732.614
-264.47
-231.666
843.628
689.509
-162.565
-627.329
798.34
1079.21
-108.703
-534.833
1427.73
869.064
-1497.41
325.964
859.75
-53.6933
-89.5316
835.657
1373.04
-133.933
-434.261
1329.39
1321.65
-1858.27
176.698
1371.54
533.331
-761.161
494.245
1383.93
243.758
-23.0164
2468.06
625.243
-50.1442
619.461
688.25
647.466
181.539
1378.59
1482.11
534.588
396.634
441.974
531.193
484.447
1423.48
1507.34
2158.1
1391.99
584.514
796.527
508.994
478.005
588.788
2473.33
3073.72
3167.79
2491.65
2416.46
1949.25
1194.18
387.547
621.567
952.566
967.603
5037.51
6813.54
7136.99
7531.26
6761.25
6001.33
4959.35
4588.02
2497.52
224.935
2196.42
-894.14
1337.16
7783.59
1414.02
75796
56885.1
617209
796962
680213
620587
525585
430936
345048
278428
218082
167070
123388
94008.7
71740.8
50732.7
34878.6
25583.7
17955.7
9518.76
8053.6
6077.72
1581.57
553.764
2649.7
1812.63
-1043.93
-559.456
-100.125
-220.348
336.192
-536.741
-1238.67
-643.525
682.341
298.487
-794.671
-733.574
-364.675
1020.14
634.408
448.635
252.349
-98.7216
-343.234
106.833
-133.518
-906.837
-491.103
130.829
-134.863
-749.513
-259.9
184.921
-78.5973
-130.535
-25.4298
71.9371
89.126
249.587
120.389
28.8863
384.95
165.818
-21.9499
2.09009
168.162
23.4051
-55.3727
-38.5947
-357.098
-26.4031
-28.335
-539.267
-5.20808
81.7954
-356.951
-26.7895
130.726
7.12799
-87.9505
206.799
310.535
38.4535
5.25241
91.7401
426.82
74.1324
-71.3645
-61.0955
-265.583
476.991
129.671
-603.912
-253.17
123.021
119.711
14.7306
-13.5043
115.543
184.782
375.73
-79.0579
-67.4098
445.362
312.472
-184.683
89.9014
342.13
-187.719
-138.666
-298.609
246.153
194.373
-766.557
-10.4959
363.373
-508.182
173.29
108.355
-58.9217
1006.48
-34.1586
-556.671
2337.2
-750.245
1799.51
-1855.79
325.681
1984.24
-2408.55
2598.14
2141.92
-4423.83
11779.8
-3276.06
680.251
5795.13
-15791.3
5790.66
17651.5
-21242.2
40456.8
10989.4
-52999.2
162943
-60547.8
40087.9
58440.1
-169630
95376.9
164896
-418410
990975
-296665
-404749
2.98749e+06
-6.33195e+06
1.33335e+07
5.80929e+06
1.60432e+06
265549
36070.4
4808.07
640.504
85.2277
11.3301
1.50597
0.200255
0.0266442
0.00354666
0.000472205
6.28735e-05
8.38394e-06
1.11956e-06
1.39283e-07
8.62438e-09
-6.51348e-09
-6.01932e-09
-4.86481e-09
-2.02049e-09
-2.65827e-09
-3.69203e-09
7.34897e-09
1.08577e-09
2.09612e-09
4.52965e-09
-1.21327e-09
-3.59623e-09
-1.41989e-09
-1.14059e-09
1.43245e-09
5.01282e-09
3.81235e-09
3.73744e-09
3.16618e-09
8.88899e-09
-7.70138e-10
2.24216e-09
1.73426e-09
-5.67251e-09
-5.43964e-09
-3.41062e-09
2.40531e-09
-6.59907e-09
-5.07444e-09
-4.10936e-09
-6.54947e-09
-4.65063e-09
2.0236e-09
7.99028e-10
4.2969e-09
-1.53886e-09
4.19686e-09
-3.7592e-10
-1.17012e-08
-7.02738e-09
-2.74466e-09
8.72466e-11
-1.33584e-09
-1.73557e-09
2.33828e-09
4.42569e-09
-6.28325e-10
2.86809e-10
1.70179e-10
9.53243e-10
3.13853e-09
1.69263e-09
4.05537e-09
7.21424e-09
5.68979e-09
6.88712e-09
-8.56711e-10
-7.10655e-10
-3.00475e-09
-3.38442e-09
-6.53045e-09
-2.55469e-09
-7.60921e-10
2.06096e-09
-7.53703e-10
9.63707e-10
-1.26448e-09
-3.04988e-09
4.04266e-09
9.93687e-11
-2.03568e-09
-6.6274e-10
2.98022e-10
1.17081e-09
8.6571e-10
-4.98618e-09
1.50693e-09
2.22688e-09
2.72217e-09
2.44828e-10
6.19245e-09
-6.82357e-10
8.98979e-09
-4.40647e-09
2.60243e-09
1.53485e-09
2.09063e-09
7.04435e-10
-8.23385e-09
1.98342e-09
1.65161e-10
-1.87498e-09
-2.89652e-09
-6.62037e-09
-1.57382e-09
-3.62041e-09
-4.92244e-09
-3.3477e-09
9.02632e-10
1.69295e-09
4.17535e-09
7.44405e-09
1.07401e-09
3.55032e-10
1.65579e-09
-3.11472e-09
-3.44134e-09
-3.61056e-09
2.2278e-09
3.11407e-09
3.24239e-09
1.73978e-09
-5.60137e-10
7.06636e-09
-2.09634e-09
-6.23404e-10
-8.56522e-09
2.28691e-09
-6.33421e-09
-3.12857e-09
-8.97783e-09
-6.39854e-09
-1.92956e-09
2.61021e-09
-1.14066e-09
2.90814e-09
7.36579e-09
1.0032e-08
6.61397e-09
1.63509e-09
-2.57791e-09
-5.28471e-09
-7.41156e-09
-8.65661e-09
-5.70198e-10
-5.33063e-09
-3.50767e-09
-3.11494e-09
-4.1691e-09
-8.90659e-10
-1.99251e-09
4.85856e-09
2.77993e-09
3.68507e-09
1.21876e-08
4.09252e-09
6.64098e-09
5.15304e-09
2.00941e-09
-2.57e-11
1.75404e-09
-6.83542e-09
-3.86562e-09
-7.81972e-09
-4.3048e-09
)
;

boundaryField
{
    sides
    {
        type            calculated;
        value           nonuniform List<scalar> 2(-6.36464e-09 -4.78574e-09);
    }
    empty
    {
        type            empty;
        value           nonuniform List<scalar> 0();
    }
}


// ************************************************************************* //
