/*--------------------------------*- C++ -*----------------------------------*\
  =========                 |
  \\      /  F ield         | OpenFOAM: The Open Source CFD Toolbox
   \\    /   O peration     | Website:  https://openfoam.org
    \\  /    A nd           | Version:  9
     \\/     M anipulation  |
\*---------------------------------------------------------------------------*/
FoamFile
{
    format      ascii;
    class       volScalarField;
    location    "0.006";
    object      p_0;
}
// * * * * * * * * * * * * * * * * * * * * * * * * * * * * * * * * * * * * * //

dimensions      [1 -1 -2 0 0 0 0];

internalField   nonuniform List<scalar> 
1000
(
100000
100000
100000
100000
100000
100000
100000
100000
100000
100000
100000
100000
100000
100000
100000
100000
100000
100000
100000
100000
100000
100000
100000
100000
100000
100000
100000
100000
100000
100000
100000
100000
100000
100000
100000
100000
100000
100000
100000
100000
100000
100000
100000
100000
100000
100000
100000
100000
100000
100000
100000
100000
100000
100000
100000
100000
100000
100000
100000
100000
100000
100000
100000
100000
100000
100000
100000
100000
100000
100000
100000
100000
100000
100000
100000
100000
100000
100000
100000
100000
100000
100000
100000
100000
100000
100000
100000
100000
100000
100000
100000
100000
100000
100000
100000
100000
100000
100000
100000
100000
100000
100000
100000
100000
100000
100000
100000
100000
100000
100000
100000
100000
100000
100000
100000
100000
100000
100000
100000
100000
100000
100000
100000
100000
100000
100000
100000
100000
100000
100000
100000
100000
100000
100000
100000
100000
100000
100000
100000
100000
100000
100000
100000
100000
100000
100000
100000
100000
100000
100000
100000
100000
100000
100000
100000
100000
100000
100000
100000
100000
100000
100000
100000
100000
100000
100000
100000
100000
100000
100000
100000
100000
100000
100000
100000
100000
100000
100000
100000
100000
100000
100000
100000
100000
100000
100000
100000
100000
100000
100000
100000
100000
100000
100000
100000
100000
100000
100000
100000
100000
100000
100000
100000
100000
100000
100000
100000
100000
100000
100000
100000
100000
100000
100000
100000
100000
100000
100000
100000
100000
100000
100000
100000
100000
100000
100000
100000
100000
100000
100000
100000
100000
100000
100000
100000
100000
100000
100000
100000
100000
100000
100000
100000
100000
100000
100000
100000
100000
100000
99999.9
99999.9
99999.8
99999.6
99999.3
99998.8
99998
99996.8
99994.7
99991.5
99986.5
99978.8
99967.3
99950.4
99925.9
99891.3
99843.2
99778
99691.5
99579.4
99437.8
99263.3
99053.4
98807.2
98525.2
98209.3
97863.1
97490.8
97097.4
96687.4
96265.2
95834
95396.6
94954.8
94510.3
94063.9
93616.6
93168.9
92721.1
92273.6
91826.6
91380.3
90934.8
90490.1
90046.4
89603.6
89161.9
88721.3
88281.7
87843.2
87405.9
86969.6
86534.6
86100.7
85668
85236.5
84806.2
84377.2
83949.4
83522.8
83097.6
82673.6
82251
81829.7
81409.8
80991.3
80574.1
80158.4
79744.1
79331.3
78919.9
78510
78101.6
77694.6
77289.3
76885.4
76483.1
76082.3
75683.2
75285.5
74889.5
74495.1
74102.2
73711
73321.3
72933.3
72546.9
72162.1
71778.9
71397.4
71017.4
70639.1
70262.5
69887.4
69514
69142.2
68772.1
68403.6
68036.7
67671.4
67307.7
66945.7
66585.3
66226.5
65869.3
65513.8
65159.8
64807.5
64456.8
64107.6
63760.1
63414.2
63069.8
62727.1
62385.9
62046.3
61708.3
61371.9
61037
60703.7
60372
60041.8
59713.2
59386.2
59060.6
58736.7
58414.2
58093.3
57774
57456.1
57139.8
56825
56511.7
56199.9
55889.6
55580.9
55273.6
54967.8
54663.5
54360.7
54059.4
53759.5
53461.1
53164.2
52868.8
52574.8
52282.3
51991.2
51701.6
51413.4
51126.7
50841.4
50557.6
50275.2
49994.2
49714.6
49436.5
49159.7
48884.4
48610.5
48338
48066.9
47797.2
47528.9
47262
46996.5
46732.4
46469.7
46208.3
45948.4
45689.8
45432.7
45176.9
44922.4
44669.4
44417.8
44167.5
43918.6
43671.1
43425
43180.2
42936.9
42694.9
42454.3
42215.1
41977.3
41740.8
41505.8
41272.2
41040
40809.2
40579.8
40351.8
40125.3
39900.2
39676.6
39454.4
39233.7
39014.4
38796.7
38580.5
38365.8
38152.6
37941
37731
37522.6
37315.7
37110.6
36907.2
36705.4
36505.3
36307
36110.6
35916.1
35723.3
35532.5
35343.8
35157.1
34972.5
34790.1
34609.8
34432
34256.6
34083.6
33913.1
33745.3
33580.4
33418.3
33259.2
33103.3
32950.5
32801.3
32655.5
32513.5
32375.2
32241
32111
31985.3
31864.2
31747.7
31636
31529.3
31427.8
31331.6
31240.7
31155.3
31075.4
31001.2
30932.6
30869.5
30812
30759.8
30713
30671.4
30634.6
30602.7
30574.4
30551.6
30530.5
30514.2
30502
30490.4
30481.5
30474.9
30469.8
30465.1
30463.3
30461.6
30460.5
30460.5
30460.4
30460.6
30460.7
30461.2
30462.2
30462.8
30462.9
30463
30464.3
30464.2
30464.9
30466.4
30466.7
30466.1
30467.9
30469.7
30469.2
30469.3
30471.4
30472.3
30472.1
30472.9
30474.5
30474.4
30473.7
30475
30476.6
30476.7
30476.1
30477.2
30478.5
30478.4
30477.9
30479.1
30480.1
30479.8
30479.5
30480.7
30481.4
30480.9
30480.5
30481.5
30482.1
30481.9
30481.5
30482.3
30482.8
30482.7
30482.3
30483
30483.4
30483
30482.9
30483.4
30483.7
30483.5
30483.2
30483.6
30483.8
30483.5
30483.3
30483.9
30484
30483.5
30483.6
30484.1
30483.9
30483.5
30483.8
30484.1
30483.9
30483.6
30483.8
30484.2
30483.9
30483.4
30483.6
30484.2
30483.8
30483.3
30484.1
30483.9
30483.5
30483.7
30484.1
30483.9
30483.4
30483.7
30484.3
30483.9
30483.2
30484.1
30484.1
30483.6
30483.7
30484.2
30484.1
30483.7
30483.9
30484.5
30483.8
30483.9
30484.3
30484.2
30484
30484
30484.4
30484.3
30484.1
30484.3
30484.3
30484.3
30484.2
30484.3
30484.3
30484.4
30484.2
30484.2
30484.3
30484.1
30484.1
30484
30484.1
30483.9
30483.8
30483.7
30483.8
30483.7
30483.5
30483.4
30483.5
30483.5
30483.3
30483.7
30483.1
30483.1
30483.2
30483.2
30483.3
30483.4
30483.6
30483.3
30483
30483.3
30482.9
30483.9
30486.8
30486
30493.2
30478.9
30530.9
30449.1
30451.3
30477.7
30486
30485.3
30485.3
30486.5
30485.2
30483.2
30483
30484.5
30484.4
30483.1
30483.1
30483.8
30483.5
30483
30484.1
30483.7
30482.5
30483.4
30484.4
30483.3
30482.2
30482.9
30483.4
30483.3
30483.1
30482.6
30482.7
30483.4
30483.5
30483
30482.7
30483.1
30483.7
30483.8
30483.3
30482.7
30482.4
30482.1
30482.1
30482.1
30481.9
30481.8
30482.2
30482.4
30482.3
30482.3
30482.8
30482.9
30482.8
30482.9
30483.1
30483.1
30483.1
30483.1
30483
30483.1
30483.2
30483
30482.9
30482.9
30482.9
30482.7
30482.6
30482.5
30482.3
30482.3
30482.1
30481.7
30481.9
30481.7
30481.3
30481.5
30481.4
30481.1
30481.1
30481.1
30481.1
30481
30481
30481.2
30481.2
30481.1
30481.1
30481.3
30481.4
30481.5
30481.2
30481.1
30481.4
30481.6
30481.5
30481.4
30481.5
30481.5
30481.5
30481.4
30481.2
30481.4
30481.6
30481.5
30481.4
30481.7
30481.9
30481.9
30482.1
30482.5
30482.7
30482.5
30482.2
30482.6
30482.6
30482.4
30482.8
30482.8
30482.9
30482.9
30482.2
30481.4
30480.6
30477.7
30476.9
30475.1
30476.4
30476
30474.8
30476.4
30474.7
30470.3
30470.9
30461.2
30461.1
30457.3
30451.1
30461.7
30458.7
30446.6
30458.7
30436.4
30408.7
30428.2
30317.2
30337.3
30273.7
30164
30244
30179.2
29992.2
30203.8
29604.8
29780.9
29694.9
27924.3
29702.7
20410.3
12555.9
10468.9
10067.8
10009.2
10001.2
10000.2
10000
10000
10000
10000
10000
10000
10000
10000
10000
10000
10000
10000
10000
10000
10000
10000
10000
10000
10000
10000
10000
10000
10000
10000
10000
10000
10000
10000
10000
10000
10000
10000
10000
10000
10000
10000
10000
10000
10000
10000
10000
10000
10000
10000
10000
10000
10000
10000
10000
10000
10000
10000
10000
10000
10000
10000
10000
10000
10000
10000
10000
10000
10000
10000
10000
10000
10000
10000
10000
10000
10000
10000
10000
10000
10000
10000
10000
10000
10000
10000
10000
10000
10000
10000
10000
10000
10000
10000
10000
10000
10000
10000
10000
10000
10000
10000
10000
10000
10000
10000
10000
10000
10000
10000
10000
10000
10000
10000
10000
10000
10000
10000
10000
10000
10000
10000
10000
10000
10000
10000
10000
10000
10000
10000
10000
10000
10000
10000
10000
10000
10000
10000
10000
10000
10000
10000
10000
10000
10000
10000
10000
10000
10000
10000
10000
10000
10000
10000
10000
10000
10000
10000
10000
10000
10000
10000
10000
10000
10000
10000
10000
10000
10000
10000
10000
10000
10000
)
;

boundaryField
{
    sides
    {
        type            zeroGradient;
    }
    empty
    {
        type            empty;
    }
}


// ************************************************************************* //
