/*--------------------------------*- C++ -*----------------------------------*\
  =========                 |
  \\      /  F ield         | OpenFOAM: The Open Source CFD Toolbox
   \\    /   O peration     | Website:  https://openfoam.org
    \\  /    A nd           | Version:  9
     \\/     M anipulation  |
\*---------------------------------------------------------------------------*/
FoamFile
{
    format      ascii;
    class       surfaceScalarField;
    location    "0.006";
    object      phi;
}
// * * * * * * * * * * * * * * * * * * * * * * * * * * * * * * * * * * * * * //

dimensions      [1 0 -1 0 0 0 0];

internalField   nonuniform List<scalar> 
999
(
5.68434e-14
-7.95808e-13
-1.59162e-12
-9.9476e-13
3.69482e-13
2.13163e-12
2.98428e-12
3.15481e-12
5.14433e-12
5.11591e-12
5.88329e-12
4.34852e-12
4.0643e-12
3.80851e-12
2.6148e-12
1.62004e-12
0
-8.81073e-13
-1.22213e-12
4.54747e-13
2.64322e-12
4.23483e-12
5.96856e-12
6.6791e-12
6.99174e-12
6.99174e-12
7.87281e-12
8.18545e-12
6.65068e-12
6.05382e-12
3.60956e-12
4.40536e-12
4.37694e-12
3.80851e-12
2.84217e-12
2.72848e-12
3.6664e-12
2.87059e-12
3.46745e-12
5.14433e-12
4.12115e-12
3.52429e-12
4.12115e-12
2.84217e-12
1.9611e-12
2.16005e-12
2.84217e-12
2.64322e-12
2.98428e-12
3.06954e-12
4.60432e-12
4.91696e-12
3.6664e-12
3.29692e-12
3.21165e-12
3.9222e-12
2.33058e-12
1.90425e-12
1.42109e-12
8.2423e-13
4.26326e-13
1.16529e-12
2.38742e-12
3.78009e-12
4.37694e-12
4.9738e-12
4.09273e-12
3.12639e-12
2.50111e-12
1.08002e-12
-1.79057e-12
-1.53477e-12
-1.47793e-12
5.11591e-13
2.52953e-12
4.83169e-12
6.05382e-12
6.79279e-12
7.90124e-12
7.07701e-12
5.82645e-12
6.33804e-12
6.56541e-12
4.60432e-12
2.67164e-12
1.16529e-12
-5.68434e-14
-8.52651e-14
1.3074e-12
2.75691e-12
4.20641e-12
6.16751e-12
6.11067e-12
7.21911e-12
7.16227e-12
6.62226e-12
6.9349e-12
7.41807e-12
8.12861e-12
9.06653e-12
9.57812e-12
8.58336e-12
7.47491e-12
7.07701e-12
6.6791e-12
5.3717e-12
2.84217e-12
3.15481e-12
2.6148e-12
2.41585e-12
3.18323e-12
4.37694e-12
4.77485e-12
6.33804e-12
7.70228e-12
7.41807e-12
6.84963e-12
8.46967e-12
7.95808e-12
8.46967e-12
7.3328e-12
6.59384e-12
6.56541e-12
4.5759e-12
5.05906e-12
5.6275e-12
4.94538e-12
6.0254e-12
5.71276e-12
7.19069e-12
7.3328e-12
7.30438e-12
8.41283e-12
1.08855e-11
1.11413e-11
1.19087e-11
1.09992e-11
1.02602e-11
1.11129e-11
1.22213e-11
1.15108e-11
1.17097e-11
1.3614e-11
1.4353e-11
1.20792e-11
1.19655e-11
1.26761e-11
1.06297e-11
8.896e-12
8.18545e-12
6.0254e-12
5.91172e-12
4.9738e-12
3.04112e-12
1.10845e-12
1.42109e-12
3.04112e-12
4.00746e-12
4.46221e-12
4.74643e-12
5.05906e-12
3.72324e-12
2.33058e-12
3.12639e-13
1.7053e-13
1.13687e-13
1.98952e-13
1.0516e-12
2.64322e-12
4.14957e-12
4.43379e-12
4.29168e-12
2.38742e-12
2.24532e-12
1.87583e-12
9.66338e-13
5.68434e-14
8.52651e-14
1.56319e-12
3.63798e-12
5.45697e-12
4.91696e-12
4.88853e-12
5.65592e-12
5.40012e-12
5.91172e-12
6.6791e-12
7.24754e-12
7.38964e-12
8.896e-12
8.81073e-12
1.15108e-11
1.20224e-11
1.42677e-11
1.20508e-11
1.31308e-11
1.10276e-11
1.07718e-11
9.49285e-12
9.0381e-12
8.44125e-12
6.13909e-12
5.22959e-12
4.23483e-12
2.95586e-12
1.42109e-12
-5.96856e-13
-2.13163e-12
-1.64846e-12
1.7053e-13
1.81899e-12
3.04112e-12
4.03588e-12
5.57066e-12
6.90648e-12
6.50857e-12
6.13909e-12
6.87805e-12
6.84963e-12
6.87805e-12
7.30438e-12
8.07177e-12
1.14539e-11
2.16858e-11
4.65832e-11
1.02062e-10
2.21803e-10
4.80497e-10
1.03162e-09
2.19535e-09
4.63734e-09
9.71357e-09
2.0185e-08
4.16065e-08
8.50686e-08
1.725e-07
3.46883e-07
6.91659e-07
1.36728e-06
2.67928e-06
5.20364e-06
1.00151e-05
1.90978e-05
3.60763e-05
6.74969e-05
0.00012505
0.000229368
0.000416419
0.000748128
0.00132972
0.00233758
0.0040632
0.00698124
0.0118526
0.0198775
0.0329157
0.053797
0.0867427
0.137916
0.216113
0.333567
0.506838
0.75765
1.11354
1.60809
2.28039
3.17367
4.33272
5.80034
7.61299
9.7965
12.3624
15.3057
18.6052
22.2249
26.118
30.2317
34.5143
38.9198
43.4106
47.9573
52.5378
57.1358
61.7397
66.3408
70.9329
75.5117
80.0738
84.6168
89.1391
93.6392
98.1164
102.57
106.999
111.404
115.783
120.138
124.467
128.771
133.05
137.302
141.529
145.73
149.905
154.054
158.177
162.273
166.342
170.385
174.402
178.391
182.353
186.288
190.196
194.076
197.929
201.754
205.551
209.32
213.061
216.774
220.459
224.116
227.745
231.345
234.916
238.46
241.974
245.461
248.919
252.348
255.749
259.121
262.465
265.781
269.068
272.327
275.558
278.76
281.935
285.081
288.199
291.289
294.352
297.386
300.393
303.372
306.324
309.248
312.145
315.014
317.856
320.671
323.459
326.221
328.955
331.663
334.344
336.999
339.627
342.229
344.805
347.355
349.879
352.377
354.849
357.296
359.717
362.113
364.483
366.828
369.149
371.444
373.715
375.961
378.182
380.379
382.551
384.7
386.824
388.924
391
393.052
395.081
397.086
399.068
401.027
402.962
404.874
406.763
408.631
410.472
412.297
414.09
415.875
417.615
419.365
421.053
422.762
424.413
426.057
427.701
429.258
430.897
432.398
433.966
435.495
436.936
438.481
439.891
441.31
442.789
444.111
445.5
446.906
448.16
449.499
450.845
452.037
453.31
454.608
455.748
456.935
458.193
459.298
460.387
461.588
462.689
463.685
464.791
465.9
466.854
467.825
468.901
469.879
470.743
471.697
472.7
473.564
474.367
475.281
476.203
476.978
477.72
478.575
479.425
480.13
480.803
481.583
482.373
483.027
483.622
484.312
485.049
485.672
486.195
486.777
487.447
488.057
488.535
489.002
489.568
490.16
490.638
491.02
491.448
491.969
492.466
492.837
493.145
493.522
493.978
494.389
494.675
494.912
495.223
495.608
495.947
496.169
496.337
496.561
496.864
497.16
497.341
497.425
497.553
497.791
498.036
498.173
498.22
498.271
498.395
498.576
498.72
498.759
498.734
498.747
498.852
498.997
499.065
499.012
498.934
498.954
499.069
499.156
499.145
499.088
499.001
499.006
499.092
499.135
499.13
499.103
499.063
499.027
499.043
499.061
499.071
499.072
499.052
499.035
499.024
499.03
499.046
499.049
499.031
499.007
499.021
498.998
499
499.019
499.008
498.969
498.986
499.011
498.979
498.947
498.988
498.989
498.964
498.966
498.993
498.973
498.927
498.939
498.967
498.958
498.921
498.929
498.948
498.936
498.906
498.921
498.934
498.917
498.893
498.911
498.919
498.899
498.874
498.885
498.892
498.878
498.856
498.867
498.871
498.859
498.843
498.849
498.853
498.838
498.823
498.83
498.831
498.817
498.8
498.801
498.802
498.785
498.77
498.776
498.776
498.755
498.747
498.756
498.743
498.725
498.723
498.721
498.708
498.69
498.687
498.696
498.679
498.652
498.65
498.655
498.637
498.612
498.622
498.608
498.586
498.579
498.574
498.562
498.529
498.525
498.53
498.506
498.471
498.481
498.466
498.439
498.421
498.422
498.408
498.375
498.36
498.352
498.307
498.29
498.286
498.274
498.258
498.23
498.202
498.155
498.111
498.087
498.073
498.063
498.049
498.023
497.968
497.912
497.85
497.806
497.783
497.763
497.748
497.731
497.693
497.602
497.496
497.387
497.297
497.219
497.16
497.125
497.106
497.088
497.055
497.003
496.809
496.574
496.323
496.067
495.835
495.637
495.481
495.358
495.284
495.249
495.199
495.185
495.196
494.927
494.766
491.926
487.092
463.239
436.764
413.347
392.797
375.512
361.377
350.048
341.049
334.016
328.636
324.614
321.609
319.374
317.774
316.657
315.861
315.305
314.968
314.723
314.549
314.47
314.442
314.399
314.364
314.367
314.374
314.382
314.399
314.402
314.417
314.441
314.455
314.455
314.453
314.461
314.475
314.481
314.473
314.463
314.457
314.457
314.464
314.476
314.484
314.491
314.507
314.521
314.524
314.528
314.54
314.545
314.544
314.545
314.548
314.548
314.548
314.545
314.538
314.533
314.531
314.525
314.521
314.521
314.521
314.519
314.519
314.52
314.524
314.535
314.541
314.541
314.551
314.554
314.552
314.556
314.556
314.553
314.552
314.551
314.544
314.536
314.533
314.532
314.53
314.524
314.523
314.524
314.527
314.535
314.534
314.533
314.54
314.544
314.544
314.542
314.541
314.541
314.539
314.534
314.525
314.521
314.52
314.513
314.505
314.504
314.502
314.498
314.499
314.505
314.515
314.518
314.515
314.524
314.522
314.515
314.518
314.514
314.514
314.519
314.513
314.514
314.528
314.507
314.502
314.455
314.466
314.442
314.415
314.441
314.441
314.424
314.522
314.41
314.458
314.356
314.111
314.206
314.026
313.791
313.967
313.676
313.41
314.306
312.524
313.573
312.721
310.583
311.323
309.236
305.981
310.834
299.292
304.911
306.491
273.516
328.341
171.921
44.1989
7.94188
1.10644
0.147759
0.0196862
0.00262142
0.000348766
4.63796e-05
6.16793e-06
8.20537e-07
1.092e-07
1.45369e-08
1.9361e-09
2.58559e-10
3.50617e-11
5.18341e-12
1.07292e-12
5.22249e-13
3.23297e-13
2.66454e-13
3.6593e-13
3.2685e-13
2.59348e-13
3.69482e-13
1.74083e-13
2.16716e-13
3.90799e-13
2.91323e-13
2.84217e-13
2.70006e-13
2.16716e-13
3.8014e-13
2.80664e-13
1.3145e-13
-1.20792e-13
-4.86722e-13
-4.29878e-13
-5.71987e-13
-4.86722e-13
-4.583e-13
-5.15143e-13
-3.12639e-13
-1.66978e-13
-8.88178e-14
2.84217e-14
2.02505e-13
3.05533e-13
2.30926e-13
1.81188e-13
1.27898e-13
1.06581e-13
1.56319e-13
9.9476e-14
-4.26326e-14
-7.4607e-14
-2.30926e-13
-8.17124e-14
4.61853e-14
9.59233e-14
3.19744e-14
2.20268e-13
2.27374e-13
2.41585e-13
1.52767e-13
6.03961e-14
2.84217e-14
-7.10543e-15
-1.77636e-14
-6.75016e-14
2.4869e-14
2.0961e-13
2.62901e-13
3.30402e-13
3.05533e-13
3.73035e-13
3.90799e-13
4.01457e-13
4.79616e-13
3.62377e-13
9.59233e-14
1.13687e-13
1.66978e-13
2.73559e-13
1.56319e-13
8.52651e-14
1.77636e-13
1.27898e-13
-4.61853e-14
-3.12639e-13
-4.29878e-13
-4.26326e-13
-5.15143e-13
-7.31859e-13
-7.03437e-13
-6.92779e-13
-8.02913e-13
-6.82121e-13
-6.99885e-13
-8.49099e-13
-9.13047e-13
-1.03739e-12
-7.24754e-13
-4.40536e-13
-5.29354e-13
-4.583e-13
-2.8777e-13
-3.19744e-14
2.84217e-14
2.38032e-13
1.91847e-13
-6.75016e-14
-2.59348e-13
-3.12639e-13
-3.41061e-13
-4.05009e-13
-4.47642e-13
-7.63833e-13
-9.02389e-13
-8.17124e-13
-8.49099e-13
-6.2883e-13
-6.2883e-13
-4.93827e-13
-5.00933e-13
-5.8975e-13
-6.07514e-13
-5.43565e-13
-4.40536e-13
-5.82645e-13
-8.10019e-13
-8.02913e-13
-9.62785e-13
-1.11555e-12
-1.22569e-12
-1.02318e-12
-9.73444e-13
-7.4607e-13
-6.18172e-13
-3.76588e-13
-1.77636e-14
3.33955e-13
2.45137e-13
5.68434e-14
-1.3145e-13
-2.41585e-13
-3.62377e-13
-3.69482e-13
-5.7554e-13
-7.28306e-13
-6.50147e-13
-6.03961e-13
-3.09086e-13
-2.16716e-13
-9.23706e-14
8.88178e-14
1.56319e-13
2.84217e-14
-1.56319e-13
-9.9476e-14
3.90799e-14
2.13163e-14
-1.59872e-13
-2.06057e-13
-1.10134e-13
-2.27374e-13
-2.66454e-13
-3.55271e-13
-6.00409e-13
-7.35412e-13
-7.49623e-13
-6.6791e-13
-3.6593e-13
)
;

boundaryField
{
    sides
    {
        type            calculated;
        value           nonuniform List<scalar> 2(-1.01863e-13 2.34088e-25);
    }
    empty
    {
        type            empty;
        value           nonuniform List<scalar> 0();
    }
}


// ************************************************************************* //
