/*--------------------------------*- C++ -*----------------------------------*\
  =========                 |
  \\      /  F ield         | OpenFOAM: The Open Source CFD Toolbox
   \\    /   O peration     | Website:  https://openfoam.org
    \\  /    A nd           | Version:  9
     \\/     M anipulation  |
\*---------------------------------------------------------------------------*/
FoamFile
{
    format      ascii;
    class       volScalarField;
    location    "0.006";
    object      rho_0;
}
// * * * * * * * * * * * * * * * * * * * * * * * * * * * * * * * * * * * * * //

dimensions      [1 -3 0 0 0 0 0];

internalField   nonuniform List<scalar> 
1000
(
0.997574
0.997574
0.997574
0.997574
0.997574
0.997574
0.997574
0.997574
0.997574
0.997574
0.997574
0.997574
0.997574
0.997574
0.997574
0.997574
0.997574
0.997574
0.997574
0.997574
0.997574
0.997574
0.997574
0.997574
0.997574
0.997574
0.997574
0.997574
0.997574
0.997574
0.997574
0.997574
0.997574
0.997574
0.997574
0.997574
0.997574
0.997574
0.997574
0.997574
0.997574
0.997574
0.997574
0.997574
0.997574
0.997574
0.997574
0.997574
0.997574
0.997574
0.997574
0.997574
0.997574
0.997574
0.997574
0.997574
0.997574
0.997574
0.997574
0.997574
0.997574
0.997574
0.997574
0.997574
0.997574
0.997574
0.997574
0.997574
0.997574
0.997574
0.997574
0.997574
0.997574
0.997574
0.997574
0.997574
0.997574
0.997574
0.997574
0.997574
0.997574
0.997574
0.997574
0.997574
0.997574
0.997574
0.997574
0.997574
0.997574
0.997574
0.997574
0.997574
0.997574
0.997574
0.997574
0.997574
0.997574
0.997574
0.997574
0.997574
0.997574
0.997574
0.997574
0.997574
0.997574
0.997574
0.997574
0.997574
0.997574
0.997574
0.997574
0.997574
0.997574
0.997574
0.997574
0.997574
0.997574
0.997574
0.997574
0.997574
0.997574
0.997574
0.997574
0.997574
0.997574
0.997574
0.997574
0.997574
0.997574
0.997574
0.997574
0.997574
0.997574
0.997574
0.997574
0.997574
0.997574
0.997574
0.997574
0.997574
0.997574
0.997574
0.997574
0.997574
0.997574
0.997574
0.997574
0.997574
0.997574
0.997574
0.997574
0.997574
0.997574
0.997574
0.997574
0.997574
0.997574
0.997574
0.997574
0.997574
0.997574
0.997574
0.997574
0.997574
0.997574
0.997574
0.997574
0.997574
0.997574
0.997574
0.997574
0.997574
0.997574
0.997574
0.997574
0.997574
0.997574
0.997574
0.997574
0.997574
0.997574
0.997574
0.997574
0.997574
0.997574
0.997574
0.997574
0.997574
0.997574
0.997574
0.997574
0.997574
0.997574
0.997574
0.997574
0.997574
0.997574
0.997574
0.997574
0.997574
0.997574
0.997574
0.997574
0.997574
0.997574
0.997574
0.997574
0.997574
0.997574
0.997574
0.997574
0.997574
0.997574
0.997574
0.997574
0.997574
0.997574
0.997574
0.997574
0.997574
0.997574
0.997574
0.997574
0.997574
0.997574
0.997574
0.997574
0.997574
0.997574
0.997574
0.997574
0.997574
0.997574
0.997574
0.997574
0.997574
0.997574
0.997574
0.997574
0.997574
0.997574
0.997574
0.997574
0.997574
0.997574
0.997574
0.997574
0.997574
0.997574
0.997574
0.997573
0.997573
0.997571
0.997569
0.997566
0.99756
0.997551
0.997537
0.997514
0.997478
0.997423
0.997342
0.997221
0.997047
0.9968
0.996458
0.995993
0.995376
0.994578
0.993568
0.992323
0.990825
0.989067
0.987051
0.984792
0.982312
0.979644
0.97682
0.973875
0.970837
0.967731
0.964576
0.961386
0.958171
0.954939
0.951696
0.948445
0.945189
0.941931
0.938672
0.935413
0.932155
0.928899
0.925646
0.922395
0.919147
0.915902
0.912661
0.909423
0.906189
0.902959
0.899733
0.89651
0.893292
0.890078
0.886869
0.883664
0.880464
0.877269
0.874079
0.870894
0.867714
0.864539
0.861371
0.858208
0.85505
0.851899
0.848755
0.845616
0.842484
0.839359
0.83624
0.833128
0.830023
0.826926
0.823835
0.820752
0.817676
0.814608
0.811547
0.808494
0.805449
0.802412
0.799382
0.796361
0.793347
0.790342
0.787345
0.784355
0.781374
0.778402
0.775437
0.772481
0.769533
0.766594
0.763662
0.76074
0.757825
0.75492
0.752022
0.749133
0.746253
0.743381
0.740518
0.737663
0.734817
0.731979
0.72915
0.726329
0.723517
0.720713
0.717918
0.715132
0.712354
0.709584
0.706824
0.704071
0.701328
0.698593
0.695866
0.693148
0.690439
0.687738
0.685046
0.682362
0.679687
0.67702
0.674362
0.671712
0.669071
0.666438
0.663814
0.661199
0.658592
0.655993
0.653403
0.650821
0.648248
0.645683
0.643128
0.640578
0.638044
0.635503
0.633
0.630452
0.628006
0.625411
0.623073
0.62038
0.618187
0.615397
0.613279
0.610547
0.608281
0.605841
0.603267
0.601111
0.598465
0.596176
0.593876
0.591273
0.589116
0.586703
0.584206
0.582078
0.579643
0.577209
0.575097
0.572689
0.570277
0.568178
0.565836
0.563418
0.561314
0.559079
0.556653
0.554505
0.552388
0.55001
0.547764
0.545726
0.543484
0.541152
0.539076
0.53701
0.534719
0.532504
0.53051
0.528405
0.526136
0.524019
0.522063
0.519956
0.517731
0.515678
0.513753
0.511681
0.509504
0.507484
0.505595
0.503589
0.501462
0.49945
0.497597
0.495682
0.493621
0.491608
0.489768
0.487953
0.485999
0.483999
0.482138
0.480399
0.478591
0.476665
0.474777
0.473046
0.471376
0.46961
0.467762
0.465994
0.464375
0.462792
0.46111
0.459371
0.457725
0.456225
0.454759
0.45321
0.451615
0.4501
0.448724
0.447422
0.446077
0.44465
0.443275
0.442078
0.440988
0.439856
0.438669
0.437524
0.436501
0.435612
0.434779
0.43391
0.433018
0.432201
0.431533
0.430996
0.430477
0.429888
0.429297
0.428837
0.428546
0.428312
0.428026
0.427724
0.427435
0.427243
0.427176
0.427115
0.427021
0.426926
0.426836
0.426765
0.42675
0.426755
0.426754
0.426753
0.426741
0.426725
0.42672
0.426726
0.426742
0.426752
0.426751
0.426746
0.426749
0.426744
0.426752
0.426768
0.42677
0.426762
0.426775
0.426787
0.42678
0.42678
0.426799
0.426806
0.426802
0.426807
0.42682
0.426815
0.426807
0.426816
0.426829
0.426826
0.426819
0.426826
0.426835
0.426831
0.426824
0.426833
0.426838
0.426833
0.426827
0.426834
0.426837
0.426829
0.426822
0.426827
0.426829
0.426823
0.426815
0.42682
0.42682
0.426815
0.426808
0.42681
0.426809
0.426801
0.426796
0.426796
0.426795
0.426788
0.426779
0.426777
0.426774
0.426765
0.426758
0.426758
0.426754
0.426743
0.426738
0.426737
0.426729
0.426719
0.426715
0.426711
0.426702
0.426692
0.426686
0.426684
0.426673
0.426662
0.426656
0.426654
0.426641
0.426628
0.426626
0.426615
0.426604
0.426597
0.426589
0.426577
0.426562
0.426553
0.426547
0.426532
0.426513
0.426511
0.426497
0.42648
0.426469
0.426462
0.426451
0.426434
0.426419
0.426403
0.426374
0.426357
0.426349
0.426341
0.426332
0.426315
0.426286
0.426247
0.426209
0.426185
0.426171
0.426164
0.426155
0.426137
0.426094
0.426042
0.42599
0.425949
0.425922
0.425906
0.425896
0.425883
0.425856
0.425786
0.425695
0.425601
0.425517
0.425446
0.425393
0.425361
0.425342
0.425327
0.425306
0.425267
0.42513
0.424933
0.424717
0.424496
0.424292
0.424116
0.423972
0.423862
0.423785
0.423746
0.423717
0.423712
0.423729
0.423568
0.423323
0.42151
0.417753
0.401334
0.378312
0.357541
0.33935
0.323973
0.311332
0.301149
0.29307
0.286763
0.281925
0.27828
0.275555
0.273547
0.2721
0.271074
0.270356
0.269857
0.26953
0.26931
0.269164
0.269084
0.269041
0.269007
0.268987
0.268988
0.26899
0.268994
0.269005
0.269016
0.269028
0.269043
0.269052
0.269057
0.269061
0.269067
0.269074
0.269076
0.269074
0.269071
0.269069
0.269071
0.269079
0.269089
0.269098
0.269108
0.269119
0.269129
0.269135
0.269141
0.269147
0.269151
0.269152
0.269153
0.269154
0.269155
0.269154
0.269153
0.269148
0.269144
0.26914
0.269136
0.269133
0.269132
0.269131
0.269129
0.269128
0.269128
0.269129
0.269136
0.269141
0.269143
0.269148
0.26915
0.26915
0.269152
0.269151
0.269149
0.269149
0.269147
0.269142
0.269137
0.269134
0.269133
0.269132
0.26913
0.26913
0.269132
0.269134
0.26914
0.269143
0.269146
0.26915
0.269153
0.269152
0.269152
0.269152
0.269152
0.269151
0.269149
0.269144
0.26914
0.269137
0.269133
0.269131
0.269131
0.269132
0.269132
0.269134
0.269139
0.269145
0.26915
0.269153
0.269158
0.26916
0.269159
0.269162
0.269161
0.269161
0.26916
0.269153
0.269146
0.269137
0.269115
0.269104
0.269088
0.269095
0.269087
0.269084
0.269094
0.269087
0.269075
0.269083
0.269027
0.269032
0.269
0.268954
0.269027
0.268987
0.268931
0.269002
0.268873
0.268718
0.268846
0.268115
0.268338
0.267866
0.267194
0.267627
0.267181
0.266224
0.267423
0.263281
0.265827
0.263161
0.254242
0.265198
0.202351
0.146429
0.128936
0.125314
0.124779
0.124708
0.124698
0.124697
0.124697
0.124697
0.124697
0.124697
0.124697
0.124697
0.124697
0.124697
0.124697
0.124697
0.124697
0.124697
0.124697
0.124697
0.124697
0.124697
0.124697
0.124697
0.124697
0.124697
0.124697
0.124697
0.124697
0.124697
0.124697
0.124697
0.124697
0.124697
0.124697
0.124697
0.124697
0.124697
0.124697
0.124697
0.124697
0.124697
0.124697
0.124697
0.124697
0.124697
0.124697
0.124697
0.124697
0.124697
0.124697
0.124697
0.124697
0.124697
0.124697
0.124697
0.124697
0.124697
0.124697
0.124697
0.124697
0.124697
0.124697
0.124697
0.124697
0.124697
0.124697
0.124697
0.124697
0.124697
0.124697
0.124697
0.124697
0.124697
0.124697
0.124697
0.124697
0.124697
0.124697
0.124697
0.124697
0.124697
0.124697
0.124697
0.124697
0.124697
0.124697
0.124697
0.124697
0.124697
0.124697
0.124697
0.124697
0.124697
0.124697
0.124697
0.124697
0.124697
0.124697
0.124697
0.124697
0.124697
0.124697
0.124697
0.124697
0.124697
0.124697
0.124697
0.124697
0.124697
0.124697
0.124697
0.124697
0.124697
0.124697
0.124697
0.124697
0.124697
0.124697
0.124697
0.124697
0.124697
0.124697
0.124697
0.124697
0.124697
0.124697
0.124697
0.124697
0.124697
0.124697
0.124697
0.124697
0.124697
0.124697
0.124697
0.124697
0.124697
0.124697
0.124697
0.124697
0.124697
0.124697
0.124697
0.124697
0.124697
0.124697
0.124697
0.124697
0.124697
0.124697
0.124697
0.124697
0.124697
0.124697
0.124697
0.124697
0.124697
0.124697
0.124697
0.124697
0.124697
0.124697
0.124697
0.124697
0.124697
0.124697
0.124697
0.124697
0.124697
0.124697
0.124697
)
;

boundaryField
{
    sides
    {
        type            calculated;
        value           nonuniform List<scalar> 2(0.124697 0.997574);
    }
    empty
    {
        type            empty;
    }
}


// ************************************************************************* //
