/*--------------------------------*- C++ -*----------------------------------*\
  =========                 |
  \\      /  F ield         | OpenFOAM: The Open Source CFD Toolbox
   \\    /   O peration     | Website:  https://openfoam.org
    \\  /    A nd           | Version:  9
     \\/     M anipulation  |
\*---------------------------------------------------------------------------*/
FoamFile
{
    format      ascii;
    class       volScalarField;
    location    "0.006";
    object      T;
}
// * * * * * * * * * * * * * * * * * * * * * * * * * * * * * * * * * * * * * //

dimensions      [0 0 0 1 0 0 0];

internalField   nonuniform List<scalar> 
1000
(
348.432
348.432
348.432
348.432
348.432
348.432
348.432
348.432
348.432
348.432
348.432
348.432
348.432
348.432
348.432
348.432
348.432
348.432
348.432
348.432
348.432
348.432
348.432
348.432
348.432
348.432
348.432
348.432
348.432
348.432
348.432
348.432
348.432
348.432
348.432
348.432
348.432
348.432
348.432
348.432
348.432
348.432
348.432
348.432
348.432
348.432
348.432
348.432
348.432
348.432
348.432
348.432
348.432
348.432
348.432
348.432
348.432
348.432
348.432
348.432
348.432
348.432
348.432
348.432
348.432
348.432
348.432
348.432
348.432
348.432
348.432
348.432
348.432
348.432
348.432
348.432
348.432
348.432
348.432
348.432
348.432
348.432
348.432
348.432
348.432
348.432
348.432
348.432
348.432
348.432
348.432
348.432
348.432
348.432
348.432
348.432
348.432
348.432
348.432
348.432
348.432
348.432
348.432
348.432
348.432
348.432
348.432
348.432
348.432
348.432
348.432
348.432
348.432
348.432
348.432
348.432
348.432
348.432
348.432
348.432
348.432
348.432
348.432
348.432
348.432
348.432
348.432
348.432
348.432
348.432
348.432
348.432
348.432
348.432
348.432
348.432
348.432
348.432
348.432
348.432
348.432
348.432
348.432
348.432
348.432
348.432
348.432
348.432
348.432
348.432
348.432
348.432
348.432
348.432
348.432
348.432
348.432
348.432
348.432
348.432
348.432
348.432
348.432
348.432
348.432
348.432
348.432
348.432
348.432
348.432
348.432
348.432
348.432
348.432
348.432
348.432
348.432
348.432
348.432
348.432
348.432
348.432
348.432
348.432
348.432
348.432
348.432
348.432
348.432
348.432
348.432
348.432
348.432
348.432
348.432
348.432
348.432
348.432
348.432
348.432
348.432
348.432
348.432
348.432
348.432
348.432
348.432
348.432
348.432
348.432
348.432
348.432
348.432
348.432
348.432
348.432
348.432
348.432
348.432
348.432
348.432
348.432
348.432
348.432
348.432
348.432
348.432
348.432
348.432
348.432
348.432
348.432
348.432
348.432
348.432
348.432
348.432
348.432
348.432
348.432
348.432
348.432
348.432
348.432
348.432
348.432
348.432
348.432
348.432
348.432
348.432
348.432
348.432
348.431
348.431
348.43
348.428
348.426
348.422
348.416
348.407
348.394
348.374
348.346
348.307
348.253
348.181
348.085
347.962
347.809
347.621
347.397
347.136
346.839
346.509
346.148
345.762
345.355
344.932
344.497
344.052
343.6
343.142
342.681
342.216
341.749
341.281
340.81
340.339
339.866
339.393
338.919
338.444
337.968
337.492
337.015
336.538
336.06
335.582
335.103
334.624
334.145
333.665
333.184
332.703
332.222
331.741
331.259
330.776
330.294
329.811
329.328
328.845
328.361
327.878
327.394
326.91
326.426
325.942
325.457
324.973
324.489
324.004
323.52
323.036
322.552
322.067
321.583
321.099
320.615
320.132
319.648
319.164
318.681
318.198
317.715
317.232
316.75
316.267
315.785
315.303
314.822
314.34
313.859
313.378
312.897
312.417
311.937
311.457
310.978
310.499
310.02
309.541
309.063
308.585
308.107
307.63
307.153
306.676
306.2
305.724
305.248
304.773
304.298
303.824
303.349
302.876
302.402
301.929
301.456
300.984
300.512
300.04
299.569
299.098
298.628
298.158
297.688
297.219
296.75
296.282
295.814
295.346
294.879
294.412
293.946
293.48
293.014
292.55
292.084
291.621
291.155
290.697
290.224
289.78
289.287
288.875
288.34
287.984
287.389
287.084
286.471
286.138
285.612
285.145
284.771
284.191
283.842
283.351
282.84
282.497
281.95
281.505
281.133
280.579
280.16
279.774
279.224
278.806
278.424
277.884
277.447
277.079
276.561
276.087
275.73
275.255
274.742
274.366
273.955
273.43
272.995
272.633
272.156
271.653
271.271
270.881
270.376
269.91
269.547
269.132
268.626
268.183
267.825
267.402
266.902
266.467
266.111
265.696
265.205
264.764
264.407
264.016
263.54
263.083
262.717
262.354
261.91
261.44
261.046
260.704
260.311
259.85
259.419
259.067
258.726
258.316
257.868
257.473
257.147
256.809
256.404
255.976
255.611
255.307
254.987
254.602
254.202
253.861
253.579
253.291
252.952
252.584
252.255
252.005
251.778
251.49
251.157
250.869
250.654
250.467
250.258
250.01
249.758
249.56
249.428
249.311
249.158
248.966
248.791
248.694
248.657
248.602
248.486
248.358
248.281
248.263
248.262
248.25
248.202
248.138
248.112
248.112
248.12
248.127
248.124
248.11
248.099
248.098
248.103
248.113
248.119
248.119
248.119
248.118
248.119
248.122
248.129
248.135
248.134
248.137
248.139
248.14
248.142
248.152
248.156
248.155
248.157
248.164
248.166
248.166
248.172
248.177
248.177
248.177
248.183
248.188
248.189
248.19
248.196
248.199
248.2
248.201
248.207
248.21
248.211
248.212
248.219
248.221
248.221
248.223
248.229
248.232
248.233
248.235
248.24
248.243
248.244
248.246
248.252
248.254
248.255
248.258
248.262
248.265
248.267
248.27
248.275
248.278
248.28
248.284
248.288
248.291
248.294
248.298
248.303
248.305
248.308
248.313
248.317
248.321
248.325
248.33
248.335
248.337
248.341
248.347
248.352
248.356
248.361
248.368
248.371
248.376
248.384
248.39
248.395
248.401
248.409
248.417
248.422
248.429
248.437
248.444
248.451
248.458
248.465
248.471
248.479
248.493
248.506
248.517
248.525
248.53
248.534
248.541
248.558
248.581
248.602
248.618
248.629
248.634
248.638
248.647
248.667
248.698
248.728
248.754
248.772
248.783
248.788
248.794
248.806
248.839
248.89
248.944
248.995
249.039
249.072
249.093
249.106
249.114
249.125
249.143
249.202
249.311
249.436
249.566
249.69
249.8
249.893
249.961
250.009
250.039
250.056
250.069
250.077
250.138
250.272
250.979
252.8
259.876
275.022
291.505
307.704
322.89
336.64
348.683
358.902
367.327
374.111
379.437
383.526
386.593
388.852
390.49
391.645
392.446
392.995
393.36
393.589
393.732
393.822
393.872
393.889
393.898
393.902
393.9
393.886
393.862
393.844
393.829
393.818
393.805
393.794
393.788
393.785
393.784
393.782
393.779
393.776
393.772
393.761
393.747
393.731
393.715
393.702
393.69
393.681
393.672
393.667
393.664
393.661
393.659
393.659
393.659
393.659
393.66
393.665
393.672
393.679
393.685
393.688
393.69
393.692
393.692
393.691
393.69
393.688
393.679
393.669
393.66
393.654
393.649
393.644
393.642
393.642
393.642
393.642
393.644
393.65
393.656
393.661
393.665
393.668
393.669
393.669
393.67
393.669
393.663
393.655
393.648
393.645
393.643
393.643
393.642
393.642
393.642
393.643
393.645
393.649
393.656
393.664
393.669
393.673
393.675
393.678
393.678
393.677
393.675
393.67
393.662
393.652
393.648
393.647
393.645
393.645
393.646
393.646
393.648
393.65
393.648
393.65
393.648
393.651
393.658
393.657
393.668
393.662
393.657
393.654
393.618
393.597
393.583
393.548
393.569
393.572
393.558
393.614
393.554
393.552
393.527
393.364
393.31
393.236
392.851
393.036
392.679
392.651
393.042
392.083
391.936
392.183
389.135
391.196
388.203
383.78
380.944
321.838
288.012
280.202
278.953
278.774
278.75
278.747
278.746
278.746
278.746
278.746
278.746
278.746
278.746
278.746
278.746
278.746
278.746
278.746
278.746
278.746
278.746
278.746
278.746
278.746
278.746
278.746
278.746
278.746
278.746
278.746
278.746
278.746
278.746
278.746
278.746
278.746
278.746
278.746
278.746
278.746
278.746
278.746
278.746
278.746
278.746
278.746
278.746
278.746
278.746
278.746
278.746
278.746
278.746
278.746
278.746
278.746
278.746
278.746
278.746
278.746
278.746
278.746
278.746
278.746
278.746
278.746
278.746
278.746
278.746
278.746
278.746
278.746
278.746
278.746
278.746
278.746
278.746
278.746
278.746
278.746
278.746
278.746
278.746
278.746
278.746
278.746
278.746
278.746
278.746
278.746
278.746
278.746
278.746
278.746
278.746
278.746
278.746
278.746
278.746
278.746
278.746
278.746
278.746
278.746
278.746
278.746
278.746
278.746
278.746
278.746
278.746
278.746
278.746
278.746
278.746
278.746
278.746
278.746
278.746
278.746
278.746
278.746
278.746
278.746
278.746
278.746
278.746
278.746
278.746
278.746
278.746
278.746
278.746
278.746
278.746
278.746
278.746
278.746
278.746
278.746
278.746
278.746
278.746
278.746
278.746
278.746
278.746
278.746
278.746
278.746
278.746
278.746
278.746
278.746
278.746
278.746
278.746
278.746
278.746
278.746
278.746
278.746
278.746
278.746
278.746
278.746
278.746
278.746
278.746
278.746
278.746
278.746
)
;

boundaryField
{
    sides
    {
        type            zeroGradient;
    }
    empty
    {
        type            empty;
    }
}


// ************************************************************************* //
