/*--------------------------------*- C++ -*----------------------------------*\
  =========                 |
  \\      /  F ield         | OpenFOAM: The Open Source CFD Toolbox
   \\    /   O peration     | Website:  https://openfoam.org
    \\  /    A nd           | Version:  9
     \\/     M anipulation  |
\*---------------------------------------------------------------------------*/
FoamFile
{
    format      ascii;
    class       volVectorField;
    location    "0.006";
    object      U_0;
}
// * * * * * * * * * * * * * * * * * * * * * * * * * * * * * * * * * * * * * //

dimensions      [0 1 -1 0 0 0 0];

internalField   nonuniform List<vector> 
1000
(
(-5.86642e-26 0 0)
(-1.45873e-14 0 0)
(-2.98656e-13 0 0)
(-6.54125e-13 0 0)
(-1.15163e-13 0 0)
(2.56429e-13 0 0)
(5.57388e-13 0 0)
(5.48175e-13 0 0)
(1.26833e-12 0 0)
(1.0165e-12 0 0)
(1.37504e-12 0 0)
(1.06718e-12 0 0)
(1.15931e-12 0 0)
(9.54317e-13 0 0)
(9.18232e-13 0 0)
(6.24183e-13 0 0)
(3.75431e-13 0 0)
(-3.22456e-14 0 0)
(-2.57965e-13 0 0)
(-2.54894e-13 0 0)
(3.37043e-13 0 0)
(8.11515e-13 0 0)
(1.13551e-12 0 0)
(1.35278e-12 0 0)
(1.74664e-12 0 0)
(1.39731e-12 0 0)
(1.88406e-12 0 0)
(1.81036e-12 0 0)
(1.95623e-12 0 0)
(1.41727e-12 0 0)
(1.21766e-12 0 0)
(1.08407e-12 0 0)
(1.16468e-12 0 0)
(1.25067e-12 0 0)
(8.21495e-13 0 0)
(8.20728e-13 0 0)
(8.4376e-13 0 0)
(9.24374e-13 0 0)
(8.94432e-13 0 0)
(1.1071e-12 0 0)
(1.30364e-12 0 0)
(9.46639e-13 0 0)
(1.00576e-12 0 0)
(8.97503e-13 0 0)
(4.01535e-13 0 0)
(5.40498e-13 0 0)
(3.80038e-13 0 0)
(8.46831e-13 0 0)
(6.41841e-13 0 0)
(9.19768e-13 0 0)
(6.44912e-13 0 0)
(1.16391e-12 0 0)
(8.56044e-13 0 0)
(9.27445e-13 0 0)
(6.71784e-13 0 0)
(8.99038e-13 0 0)
(7.2092e-13 0 0)
(8.20728e-13 0 0)
(4.69865e-13 0 0)
(5.65834e-13 0 0)
(4.83684e-14 0 0)
(2.91746e-13 0 0)
(1.42034e-13 0 0)
(6.02686e-13 0 0)
(7.98463e-13 0 0)
(1.32821e-12 0 0)
(1.1524e-12 0 0)
(1.03416e-12 0 0)
(8.5067e-13 0 0)
(5.01342e-13 0 0)
(6.2188e-14 0 0)
(-5.36659e-13 0 0)
(-3.99999e-13 0 0)
(-3.57005e-13 0 0)
(6.12667e-13 0 0)
(6.51054e-13 0 0)
(1.39577e-12 0 0)
(1.37965e-12 0 0)
(2.01458e-12 0 0)
(1.74971e-12 0 0)
(1.82725e-12 0 0)
(1.53627e-12 0 0)
(1.72053e-12 0 0)
(1.47255e-12 0 0)
(9.91169e-13 0 0)
(4.13819e-13 0 0)
(3.69289e-13 0 0)
(-2.19577e-13 0 0)
(1.02879e-13 0 0)
(2.94049e-13 0 0)
(9.0518e-13 0 0)
(1.30595e-12 0 0)
(1.64069e-12 0 0)
(1.6476e-12 0 0)
(1.86794e-12 0 0)
(1.64299e-12 0 0)
(1.47716e-12 0 0)
(1.71746e-12 0 0)
(1.78119e-12 0 0)
(2.18119e-12 0 0)
(2.23953e-12 0 0)
(2.30633e-12 0 0)
(1.94011e-12 0 0)
(1.77274e-12 0 0)
(1.66372e-12 0 0)
(1.46641e-12 0 0)
(1.15547e-12 0 0)
(1.01727e-12 0 0)
(4.68329e-13 0 0)
(5.98079e-13 0 0)
(7.72359e-13 0 0)
(7.66985e-13 0 0)
(1.16084e-12 0 0)
(1.29213e-12 0 0)
(1.75892e-12 0 0)
(1.88944e-12 0 0)
(1.78195e-12 0 0)
(1.78272e-12 0 0)
(2.02226e-12 0 0)
(1.86871e-12 0 0)
(2.03608e-12 0 0)
(1.58387e-12 0 0)
(1.62764e-12 0 0)
(1.49942e-12 0 0)
(1.44721e-12 0 0)
(1.39808e-12 0 0)
(1.41881e-12 0 0)
(1.58618e-12 0 0)
(1.42648e-12 0 0)
(1.77735e-12 0 0)
(1.86026e-12 0 0)
(1.67754e-12 0 0)
(1.9762e-12 0 0)
(2.38694e-12 0 0)
(2.52821e-12 0 0)
(2.8261e-12 0 0)
(2.55047e-12 0 0)
(2.65796e-12 0 0)
(2.40153e-12 0 0)
(2.86295e-12 0 0)
(2.86756e-12 0 0)
(3.03262e-12 0 0)
(3.19308e-12 0 0)
(3.60306e-12 0 0)
(3.28828e-12 0 0)
(3.19923e-12 0 0)
(2.98272e-12 0 0)
(3.01266e-12 0 0)
(2.52591e-12 0 0)
(2.56813e-12 0 0)
(1.89788e-12 0 0)
(1.52322e-12 0 0)
(1.37121e-12 0 0)
(9.5662e-13 0 0)
(4.16122e-13 0 0)
(2.41842e-13 0 0)
(2.595e-13 0 0)
(6.18809e-13 0 0)
(9.28981e-13 0 0)
(1.34126e-12 0 0)
(1.33973e-12 0 0)
(1.16545e-12 0 0)
(7.5163e-13 0 0)
(1.6737e-13 0 0)
(1.35892e-13 0 0)
(6.37235e-14 0 0)
(8.13818e-14 0 0)
(-1.14395e-13 0 0)
(3.86947e-13 0 0)
(8.89825e-13 0 0)
(1.16698e-12 0 0)
(1.05105e-12 0 0)
(8.68328e-13 0 0)
(6.54893e-13 0 0)
(3.88483e-13 0 0)
(3.6545e-13 0 0)
(4.30292e-26 0 0)
(7.29365e-14 0 0)
(-1.00576e-13 0 0)
(6.1497e-13 0 0)
(8.92896e-13 0 0)
(1.36506e-12 0 0)
(1.29673e-12 0 0)
(1.24913e-12 0 0)
(1.20537e-12 0 0)
(1.4879e-12 0 0)
(1.48176e-12 0 0)
(1.74433e-12 0 0)
(1.83723e-12 0 0)
(1.99232e-12 0 0)
(2.08905e-12 0 0)
(2.35163e-12 0 0)
(2.96276e-12 0 0)
(3.18924e-12 0 0)
(3.29059e-12 0 0)
(3.02648e-12 0 0)
(3.33205e-12 0 0)
(2.63646e-12 0 0)
(3.01343e-12 0 0)
(2.43147e-12 0 0)
(2.35393e-12 0 0)
(1.84414e-12 0 0)
(1.30595e-12 0 0)
(1.28368e-12 0 0)
(8.09211e-13 0 0)
(7.1401e-13 0 0)
(9.28981e-14 0 0)
(-2.119e-13 0 0)
(-9.32052e-13 0 0)
(-2.71017e-13 0 0)
(-1.18234e-13 0 0)
(6.15738e-13 0 0)
(8.09979e-13 0 0)
(1.30518e-12 0 0)
(1.66833e-12 0 0)
(1.82111e-12 0 0)
(1.7405e-12 0 0)
(1.87716e-12 0 0)
(1.86487e-12 0 0)
(1.56314e-12 0 0)
(1.60844e-12 0 0)
(1.62533e-12 0 0)
(1.86948e-12 0 0)
(2.85143e-12 0 0)
(5.84029e-12 0 0)
(1.28606e-11 0 0)
(2.83938e-11 0 0)
(6.1348e-11 0 0)
(1.32986e-10 0 0)
(2.84634e-10 0 0)
(6.05787e-10 0 0)
(1.27807e-09 0 0)
(2.67596e-09 0 0)
(5.55676e-09 0 0)
(1.14467e-08 0 0)
(2.33867e-08 0 0)
(4.73884e-08 0 0)
(9.52207e-08 0 0)
(1.89712e-07 0 0)
(3.74717e-07 0 0)
(7.33653e-07 0 0)
(1.42361e-06 0 0)
(2.73739e-06 0 0)
(5.21492e-06 0 0)
(9.84124e-06 0 0)
(1.83933e-05 0 0)
(3.40399e-05 0 0)
(6.23655e-05 0 0)
(0.000113092 0 0)
(0.000202929 0 0)
(0.000360223 0 0)
(0.000632406 0 0)
(0.00109772 0 0)
(0.00188331 0 0)
(0.00319256 0 0)
(0.00534552 0 0)
(0.00883696 0 0)
(0.0144177 0 0)
(0.0232044 0 0)
(0.0368226 0 0)
(0.0575841 0 0)
(0.0886937 0 0)
(0.134471 0 0)
(0.200563 0 0)
(0.294095 0 0)
(0.423717 0 0)
(0.599465 0 0)
(0.832389 0 0)
(1.13391 0 0)
(1.51493 0 0)
(1.98478 0 0)
(2.55014 0 0)
(3.21423 0 0)
(3.97623 0 0)
(4.83133 0 0)
(5.7712 0 0)
(6.78483 0 0)
(7.85987 0 0)
(8.98415 0 0)
(10.1468 0 0)
(11.339 0 0)
(12.5535 0 0)
(13.785 0 0)
(15.0297 0 0)
(16.2845 0 0)
(17.5475 0 0)
(18.817 0 0)
(20.0921 0 0)
(21.3717 0 0)
(22.6554 0 0)
(23.9427 0 0)
(25.2333 0 0)
(26.5269 0 0)
(27.8233 0 0)
(29.1224 0 0)
(30.4241 0 0)
(31.7283 0 0)
(33.0349 0 0)
(34.3439 0 0)
(35.6552 0 0)
(36.9688 0 0)
(38.2846 0 0)
(39.6025 0 0)
(40.9226 0 0)
(42.2447 0 0)
(43.5689 0 0)
(44.8951 0 0)
(46.2231 0 0)
(47.5531 0 0)
(48.8848 0 0)
(50.2183 0 0)
(51.5534 0 0)
(52.8902 0 0)
(54.2285 0 0)
(55.5684 0 0)
(56.9097 0 0)
(58.2523 0 0)
(59.5963 0 0)
(60.9415 0 0)
(62.2879 0 0)
(63.6354 0 0)
(64.984 0 0)
(66.3337 0 0)
(67.6843 0 0)
(69.0358 0 0)
(70.3883 0 0)
(71.7415 0 0)
(73.0955 0 0)
(74.4503 0 0)
(75.8058 0 0)
(77.1619 0 0)
(78.5187 0 0)
(79.8761 0 0)
(81.234 0 0)
(82.5925 0 0)
(83.9514 0 0)
(85.3108 0 0)
(86.6707 0 0)
(88.031 0 0)
(89.3917 0 0)
(90.7527 0 0)
(92.1141 0 0)
(93.4759 0 0)
(94.8379 0 0)
(96.2002 0 0)
(97.5628 0 0)
(98.9257 0 0)
(100.289 0 0)
(101.652 0 0)
(103.016 0 0)
(104.379 0 0)
(105.743 0 0)
(107.107 0 0)
(108.471 0 0)
(109.836 0 0)
(111.2 0 0)
(112.565 0 0)
(113.93 0 0)
(115.294 0 0)
(116.659 0 0)
(118.024 0 0)
(119.389 0 0)
(120.754 0 0)
(122.119 0 0)
(123.484 0 0)
(124.849 0 0)
(126.215 0 0)
(127.58 0 0)
(128.945 0 0)
(130.31 0 0)
(131.675 0 0)
(133.04 0 0)
(134.405 0 0)
(135.77 0 0)
(137.135 0 0)
(138.5 0 0)
(139.865 0 0)
(141.229 0 0)
(142.594 0 0)
(143.958 0 0)
(145.323 0 0)
(146.687 0 0)
(148.051 0 0)
(149.415 0 0)
(150.779 0 0)
(152.142 0 0)
(153.506 0 0)
(154.869 0 0)
(156.232 0 0)
(157.595 0 0)
(158.958 0 0)
(160.32 0 0)
(161.683 0 0)
(163.045 0 0)
(164.406 0 0)
(165.768 0 0)
(167.129 0 0)
(168.49 0 0)
(169.851 0 0)
(171.211 0 0)
(172.571 0 0)
(173.93 0 0)
(175.289 0 0)
(176.648 0 0)
(178.006 0 0)
(179.365 0 0)
(180.722 0 0)
(182.08 0 0)
(183.437 0 0)
(184.793 0 0)
(186.149 0 0)
(187.504 0 0)
(188.859 0 0)
(190.214 0 0)
(191.567 0 0)
(192.92 0 0)
(194.273 0 0)
(195.625 0 0)
(196.976 0 0)
(198.327 0 0)
(199.676 0 0)
(201.025 0 0)
(202.374 0 0)
(203.721 0 0)
(205.067 0 0)
(206.414 0 0)
(207.758 0 0)
(209.102 0 0)
(210.445 0 0)
(211.787 0 0)
(213.127 0 0)
(214.466 0 0)
(215.805 0 0)
(217.142 0 0)
(218.477 0 0)
(219.811 0 0)
(221.144 0 0)
(222.475 0 0)
(223.804 0 0)
(225.133 0 0)
(226.459 0 0)
(227.783 0 0)
(229.105 0 0)
(230.425 0 0)
(231.743 0 0)
(233.059 0 0)
(234.372 0 0)
(235.683 0 0)
(236.991 0 0)
(238.296 0 0)
(239.598 0 0)
(240.897 0 0)
(242.193 0 0)
(243.485 0 0)
(244.773 0 0)
(246.057 0 0)
(247.338 0 0)
(248.613 0 0)
(249.884 0 0)
(251.149 0 0)
(252.41 0 0)
(253.664 0 0)
(254.913 0 0)
(256.155 0 0)
(257.39 0 0)
(258.618 0 0)
(259.837 0 0)
(261.049 0 0)
(262.251 0 0)
(263.444 0 0)
(264.627 0 0)
(265.798 0 0)
(266.958 0 0)
(268.106 0 0)
(269.241 0 0)
(270.361 0 0)
(271.466 0 0)
(272.555 0 0)
(273.626 0 0)
(274.68 0 0)
(275.713 0 0)
(276.726 0 0)
(277.716 0 0)
(278.683 0 0)
(279.625 0 0)
(280.541 0 0)
(281.429 0 0)
(282.287 0 0)
(283.115 0 0)
(283.91 0 0)
(284.672 0 0)
(285.398 0 0)
(286.088 0 0)
(286.741 0 0)
(287.356 0 0)
(287.931 0 0)
(288.467 0 0)
(288.963 0 0)
(289.418 0 0)
(289.835 0 0)
(290.212 0 0)
(290.551 0 0)
(290.852 0 0)
(291.118 0 0)
(291.351 0 0)
(291.55 0 0)
(291.723 0 0)
(291.863 0 0)
(291.976 0 0)
(292.077 0 0)
(292.16 0 0)
(292.222 0 0)
(292.272 0 0)
(292.31 0 0)
(292.33 0 0)
(292.345 0 0)
(292.358 0 0)
(292.365 0 0)
(292.369 0 0)
(292.37 0 0)
(292.369 0 0)
(292.366 0 0)
(292.363 0 0)
(292.361 0 0)
(292.36 0 0)
(292.356 0 0)
(292.352 0 0)
(292.349 0 0)
(292.343 0 0)
(292.336 0 0)
(292.332 0 0)
(292.325 0 0)
(292.318 0 0)
(292.314 0 0)
(292.312 0 0)
(292.305 0 0)
(292.296 0 0)
(292.293 0 0)
(292.291 0 0)
(292.284 0 0)
(292.278 0 0)
(292.276 0 0)
(292.27 0 0)
(292.261 0 0)
(292.256 0 0)
(292.256 0 0)
(292.252 0 0)
(292.245 0 0)
(292.242 0 0)
(292.241 0 0)
(292.237 0 0)
(292.232 0 0)
(292.23 0 0)
(292.229 0 0)
(292.225 0 0)
(292.22 0 0)
(292.219 0 0)
(292.219 0 0)
(292.215 0 0)
(292.211 0 0)
(292.209 0 0)
(292.209 0 0)
(292.207 0 0)
(292.204 0 0)
(292.203 0 0)
(292.203 0 0)
(292.201 0 0)
(292.199 0 0)
(292.199 0 0)
(292.199 0 0)
(292.197 0 0)
(292.195 0 0)
(292.195 0 0)
(292.196 0 0)
(292.194 0 0)
(292.192 0 0)
(292.192 0 0)
(292.192 0 0)
(292.191 0 0)
(292.19 0 0)
(292.19 0 0)
(292.191 0 0)
(292.189 0 0)
(292.189 0 0)
(292.19 0 0)
(292.19 0 0)
(292.189 0 0)
(292.189 0 0)
(292.189 0 0)
(292.189 0 0)
(292.188 0 0)
(292.188 0 0)
(292.19 0 0)
(292.189 0 0)
(292.187 0 0)
(292.187 0 0)
(292.189 0 0)
(292.188 0 0)
(292.187 0 0)
(292.188 0 0)
(292.188 0 0)
(292.187 0 0)
(292.187 0 0)
(292.188 0 0)
(292.187 0 0)
(292.186 0 0)
(292.185 0 0)
(292.187 0 0)
(292.186 0 0)
(292.184 0 0)
(292.185 0 0)
(292.186 0 0)
(292.184 0 0)
(292.183 0 0)
(292.184 0 0)
(292.184 0 0)
(292.182 0 0)
(292.182 0 0)
(292.183 0 0)
(292.182 0 0)
(292.181 0 0)
(292.182 0 0)
(292.181 0 0)
(292.18 0 0)
(292.18 0 0)
(292.181 0 0)
(292.18 0 0)
(292.179 0 0)
(292.179 0 0)
(292.179 0 0)
(292.179 0 0)
(292.179 0 0)
(292.179 0 0)
(292.179 0 0)
(292.179 0 0)
(292.179 0 0)
(292.178 0 0)
(292.179 0 0)
(292.179 0 0)
(292.179 0 0)
(292.179 0 0)
(292.18 0 0)
(292.181 0 0)
(292.18 0 0)
(292.18 0 0)
(292.18 0 0)
(292.181 0 0)
(292.18 0 0)
(292.18 0 0)
(292.181 0 0)
(292.181 0 0)
(292.181 0 0)
(292.183 0 0)
(292.184 0 0)
(292.182 0 0)
(292.181 0 0)
(292.181 0 0)
(292.18 0 0)
(292.18 0 0)
(292.18 0 0)
(292.181 0 0)
(292.183 0 0)
(292.188 0 0)
(292.194 0 0)
(292.205 0 0)
(292.23 0 0)
(292.273 0 0)
(292.373 0 0)
(292.52 0 0)
(292.826 0 0)
(292.797 0 0)
(292.292 0 0)
(292.011 0 0)
(291.975 0 0)
(292.013 0 0)
(292.06 0 0)
(292.103 0 0)
(292.129 0 0)
(292.138 0 0)
(292.147 0 0)
(292.16 0 0)
(292.169 0 0)
(292.168 0 0)
(292.169 0 0)
(292.174 0 0)
(292.175 0 0)
(292.174 0 0)
(292.178 0 0)
(292.179 0 0)
(292.175 0 0)
(292.178 0 0)
(292.184 0 0)
(292.182 0 0)
(292.176 0 0)
(292.177 0 0)
(292.181 0 0)
(292.181 0 0)
(292.18 0 0)
(292.178 0 0)
(292.178 0 0)
(292.182 0 0)
(292.183 0 0)
(292.181 0 0)
(292.178 0 0)
(292.178 0 0)
(292.181 0 0)
(292.181 0 0)
(292.178 0 0)
(292.173 0 0)
(292.169 0 0)
(292.166 0 0)
(292.164 0 0)
(292.164 0 0)
(292.163 0 0)
(292.162 0 0)
(292.163 0 0)
(292.164 0 0)
(292.163 0 0)
(292.163 0 0)
(292.164 0 0)
(292.165 0 0)
(292.164 0 0)
(292.163 0 0)
(292.163 0 0)
(292.163 0 0)
(292.163 0 0)
(292.163 0 0)
(292.162 0 0)
(292.162 0 0)
(292.162 0 0)
(292.161 0 0)
(292.161 0 0)
(292.161 0 0)
(292.162 0 0)
(292.163 0 0)
(292.163 0 0)
(292.164 0 0)
(292.164 0 0)
(292.165 0 0)
(292.166 0 0)
(292.166 0 0)
(292.168 0 0)
(292.169 0 0)
(292.17 0 0)
(292.171 0 0)
(292.172 0 0)
(292.173 0 0)
(292.173 0 0)
(292.174 0 0)
(292.173 0 0)
(292.172 0 0)
(292.172 0 0)
(292.172 0 0)
(292.171 0 0)
(292.169 0 0)
(292.167 0 0)
(292.166 0 0)
(292.165 0 0)
(292.164 0 0)
(292.162 0 0)
(292.16 0 0)
(292.16 0 0)
(292.161 0 0)
(292.161 0 0)
(292.159 0 0)
(292.159 0 0)
(292.159 0 0)
(292.158 0 0)
(292.157 0 0)
(292.156 0 0)
(292.156 0 0)
(292.156 0 0)
(292.155 0 0)
(292.152 0 0)
(292.151 0 0)
(292.148 0 0)
(292.145 0 0)
(292.141 0 0)
(292.14 0 0)
(292.139 0 0)
(292.137 0 0)
(292.135 0 0)
(292.135 0 0)
(292.133 0 0)
(292.13 0 0)
(292.128 0 0)
(292.126 0 0)
(292.124 0 0)
(292.123 0 0)
(292.123 0 0)
(292.125 0 0)
(292.132 0 0)
(292.14 0 0)
(292.144 0 0)
(292.139 0 0)
(292.137 0 0)
(292.131 0 0)
(292.118 0 0)
(292.108 0 0)
(292.092 0 0)
(292.081 0 0)
(292.083 0 0)
(292.065 0 0)
(292.057 0 0)
(292.035 0 0)
(291.954 0 0)
(291.896 0 0)
(291.78 0 0)
(291.628 0 0)
(291.511 0 0)
(291.293 0 0)
(291.084 0 0)
(290.961 0 0)
(290.636 0 0)
(290.471 0 0)
(290.191 0 0)
(289.46 0 0)
(288.855 0 0)
(287.496 0 0)
(286.053 0 0)
(285.125 0 0)
(282.304 0 0)
(280.706 0 0)
(276.233 0 0)
(270.833 0 0)
(258.727 0 0)
(186.638 0 0)
(67.3354 0 0)
(12.8621 0 0)
(1.99619 0 0)
(0.276661 0 0)
(0.0370787 0 0)
(0.00493839 0 0)
(0.000656808 0 0)
(8.73371e-05 0 0)
(1.16166e-05 0 0)
(1.54574e-06 0 0)
(2.05751e-07 0 0)
(2.73933e-08 0 0)
(3.64883e-09 0 0)
(4.87736e-10 0 0)
(6.68721e-11 0 0)
(1.04614e-11 0 0)
(2.6595e-12 0 0)
(1.29136e-12 0 0)
(9.3666e-13 0 0)
(8.06141e-13 0 0)
(5.88867e-13 0 0)
(8.66794e-13 0 0)
(5.6737e-13 0 0)
(6.357e-13 0 0)
(4.25336e-13 0 0)
(2.77159e-13 0 0)
(7.09404e-13 0 0)
(4.7524e-13 0 0)
(7.13243e-13 0 0)
(6.70249e-13 0 0)
(5.38195e-13 0 0)
(5.90403e-13 0 0)
(7.38579e-13 0 0)
(3.30134e-13 0 0)
(7.52399e-14 0 0)
(-7.8618e-13 0 0)
(-1.02495e-12 0 0)
(-1.15777e-12 0 0)
(-1.04261e-12 0 0)
(-1.12169e-12 0 0)
(-8.39923e-13 0 0)
(-7.69289e-13 0 0)
(-1.91171e-13 0 0)
(-3.94625e-13 0 0)
(4.9904e-14 0 0)
(2.08829e-13 0 0)
(8.29174e-13 0 0)
(4.85988e-13 0 0)
(8.27639e-13 0 0)
(1.02111e-13 0 0)
(2.34165e-13 0 0)
(1.91171e-13 0 0)
(2.88675e-13 0 0)
(-2.58733e-13 0 0)
(2.30326e-14 0 0)
(-3.2476e-13 0 0)
(3.07101e-14 0 0)
(-1.47409e-13 0 0)
(4.66794e-13 0 0)
(-2.61804e-13 0 0)
(3.64683e-13 0 0)
(4.1689e-13 0 0)
(4.82917e-13 0 0)
(2.48752e-13 0 0)
(3.71593e-13 0 0)
(-1.16699e-13 0 0)
(2.47984e-13 0 0)
(-3.19386e-13 0 0)
(1.38963e-13 0 0)
(-3.63148e-13 0 0)
(2.86372e-13 0 0)
(2.80998e-13 0 0)
(5.65067e-13 0 0)
(3.43954e-13 0 0)
(9.12091e-13 0 0)
(6.47984e-13 0 0)
(1.01804e-12 0 0)
(1.00422e-12 0 0)
(1.0119e-12 0 0)
(3.99232e-13 0 0)
(1.53551e-13 0 0)
(2.119e-13 0 0)
(4.74472e-13 0 0)
(4.3071e-13 0 0)
(3.12476e-13 0 0)
(2.33397e-13 0 0)
(2.34933e-13 0 0)
(2.04222e-13 0 0)
(-2.4952e-13 0 0)
(-8.83685e-13 0 0)
(-7.07101e-13 0 0)
(-1.00653e-12 0 0)
(-1.19079e-12 0 0)
(-1.40115e-12 0 0)
(-1.5309e-12 0 0)
(-1.42802e-12 0 0)
(-1.65528e-12 0 0)
(-1.25297e-12 0 0)
(-1.88791e-12 0 0)
(-1.70441e-12 0 0)
(-2.11439e-12 0 0)
(-1.73589e-12 0 0)
(-1.17927e-12 0 0)
(-1.04798e-12 0 0)
(-1.00576e-12 0 0)
(-7.38579e-13 0 0)
(-3.07101e-14 0 0)
(-1.68138e-13 0 0)
(3.21689e-13 0 0)
(5.10556e-13 0 0)
(3.18618e-13 0 0)
(-4.17658e-13 0 0)
(-5.55854e-13 0 0)
(-6.44145e-13 0 0)
(-4.76775e-13 0 0)
(-9.40498e-13 0 0)
(-9.9117e-13 0 0)
(-2.01919e-12 0 0)
(-1.76276e-12 0 0)
(-1.8357e-12 0 0)
(-1.5309e-12 0 0)
(-1.23992e-12 0 0)
(-1.08714e-12 0 0)
(-9.35124e-13 0 0)
(-9.93473e-13 0 0)
(-1.19693e-12 0 0)
(-1.23839e-12 0 0)
(-1.06334e-12 0 0)
(-1.05566e-12 0 0)
(-1.40729e-12 0 0)
(-1.75585e-12 0 0)
(-1.74894e-12 0 0)
(-2.17428e-12 0 0)
(-2.29942e-12 0 0)
(-2.16814e-12 0 0)
(-1.99232e-12 0 0)
(-1.67985e-12 0 0)
(-1.27217e-12 0 0)
(-7.70057e-13 0 0)
(-3.53167e-13 0 0)
(3.66219e-13 0 0)
(6.79462e-13 0 0)
(3.8618e-13 0 0)
(-1.80422e-13 0 0)
(-6.08061e-13 0 0)
(-8.19193e-13 0 0)
(-8.29174e-13 0 0)
(-9.04414e-13 0 0)
(-1.27908e-12 0 0)
(-1.25067e-12 0 0)
(-1.02572e-12 0 0)
(-9.71976e-13 0 0)
(-3.95393e-13 0 0)
(-2.87908e-13 0 0)
(1.58157e-13 0 0)
(4.13819e-13 0 0)
(3.42418e-13 0 0)
(-2.99424e-13 0 0)
(-1.88867e-13 0 0)
(-2.74856e-13 0 0)
(1.93474e-13 0 0)
(-3.60077e-13 0 0)
(-5.57389e-13 0 0)
(-3.90787e-13 0 0)
(-4.49136e-13 0 0)
(-6.18042e-13 0 0)
(-5.38963e-13 0 0)
(-1.07178e-12 0 0)
(-1.1977e-12 0 0)
(-1.5048e-12 0 0)
(-1.34434e-12 0 0)
(-9.44337e-13 0 0)
(-1.69674e-13 0 0)
)
;

boundaryField
{
    sides
    {
        type            zeroGradient;
    }
    empty
    {
        type            empty;
    }
}


// ************************************************************************* //
