/*--------------------------------*- C++ -*----------------------------------*\
  =========                 |
  \\      /  F ield         | OpenFOAM: The Open Source CFD Toolbox
   \\    /   O peration     | Website:  https://openfoam.org
    \\  /    A nd           | Version:  9
     \\/     M anipulation  |
\*---------------------------------------------------------------------------*/
FoamFile
{
    format      ascii;
    class       volScalarField;
    location    "0.044";
    object      mag(U);
}
// * * * * * * * * * * * * * * * * * * * * * * * * * * * * * * * * * * * * * //

dimensions      [0 1 -1 0 0 0 0];

internalField   nonuniform List<scalar> 
1000
(
18.6636
18.9375
19.2853
19.5716
19.8224
20.0712
20.3261
20.584
20.8417
21.0989
21.3558
21.6127
21.8697
22.1267
22.3837
22.6406
22.8976
23.1545
23.4114
23.6683
23.9252
24.182
24.4388
24.6956
24.9524
25.2092
25.4659
25.7226
25.9792
26.2359
26.4924
26.749
27.0055
27.262
27.5184
27.7749
28.0312
28.2875
28.5438
28.8
29.0562
29.3123
29.5683
29.8243
30.0803
30.3362
30.592
30.8478
31.1035
31.3591
31.6147
31.8702
32.1257
32.3811
32.6364
32.8916
33.1468
33.4018
33.6568
33.9116
34.1664
34.4211
34.6757
34.9302
35.1846
35.4389
35.6931
35.9473
36.2013
36.4552
36.7089
36.9626
37.2161
37.4695
37.7228
37.9759
38.2289
38.4818
38.7346
38.9872
39.2397
39.492
39.7441
39.9961
40.248
40.4997
40.7512
41.0026
41.2538
41.5048
41.7556
42.0063
42.2567
42.507
42.7571
43.007
43.2566
43.5061
43.7554
44.0044
44.2532
44.5018
44.7502
44.9983
45.2462
45.4938
45.7412
45.9884
46.2352
46.4819
46.7282
46.9743
47.2201
47.4656
47.7108
47.9557
48.2003
48.4446
48.6886
48.9323
49.1756
49.4187
49.6613
49.9036
50.1456
50.3872
50.6284
50.8692
51.1096
51.3497
51.5893
51.8285
52.0673
52.3056
52.5435
52.7809
53.0179
53.2546
53.491
53.7267
53.9617
54.196
54.4298
54.6629
54.8956
55.1277
55.3592
55.5902
55.8206
56.0504
56.2796
56.5083
56.7362
56.9636
57.1903
57.4163
57.6417
57.8663
58.0903
58.3135
58.536
58.7578
58.9788
59.199
59.4184
59.637
59.8548
60.0718
60.288
60.5032
60.7176
60.9312
61.1438
61.3555
61.5663
61.7761
61.985
62.1929
62.3998
62.6058
62.8107
63.0146
63.2174
63.4192
63.62
63.8196
64.0182
64.2157
64.412
64.6072
64.8013
64.9942
65.186
65.3766
65.566
65.7543
65.9413
66.1272
66.3118
66.4952
66.6774
66.8583
67.038
67.2165
67.3937
67.5697
67.7444
67.9179
68.0901
68.2611
68.4308
68.5993
68.7666
68.9326
69.0974
69.261
69.4233
69.5845
69.7444
69.9032
70.0608
70.2172
70.3725
70.5266
70.6796
70.8316
70.9824
71.1322
71.2809
71.4286
71.5753
71.7209
71.8657
72.0094
72.1523
72.2942
72.4353
72.5755
72.7149
72.8535
72.9913
73.1283
73.2646
73.4003
73.5352
73.6695
73.8031
73.9361
74.0686
74.2005
74.3319
74.4627
74.5931
74.723
74.8525
74.9815
75.1102
75.2384
75.3663
75.4939
75.6212
75.7482
75.8749
76.0013
76.1275
76.2534
76.3791
76.5047
76.63
76.7552
76.8802
77.0051
77.1298
77.2545
77.379
77.5034
77.6277
77.7519
77.8761
78.0001
78.1242
78.2481
78.3721
78.4959
78.6198
78.7436
78.8674
78.9912
79.1149
79.2387
79.3624
79.4862
79.6099
79.7337
79.8574
79.9812
80.1049
80.2287
80.3525
80.4763
80.6002
80.724
80.8479
80.9718
81.0957
81.2196
81.3436
81.4676
81.5916
81.7157
81.8397
81.9638
82.088
82.2121
82.3363
82.4606
82.5848
82.7091
82.8334
82.9578
83.0822
83.2066
83.331
83.4555
83.58
83.7046
83.8291
83.9538
84.0784
84.2031
84.3278
84.4526
84.5773
84.7022
84.827
84.9519
85.0768
85.2018
85.3268
85.4518
85.5769
85.702
85.8271
85.9523
86.0775
86.2027
86.328
86.4533
86.5786
86.704
86.8294
86.9549
87.0804
87.2059
87.3314
87.457
87.5827
87.7083
87.834
87.9598
88.0855
88.2113
88.3372
88.4631
88.589
88.7149
88.8409
88.9669
89.093
89.2191
89.3452
89.4714
89.5976
89.7238
89.8501
89.9764
90.1028
90.2291
90.3556
90.482
90.6085
90.735
90.8616
90.9882
91.1148
91.2415
91.3682
91.4949
91.6217
91.7485
91.8753
92.0022
92.1291
92.2561
92.383
92.5101
92.6371
92.7642
92.8913
93.0185
93.1457
93.2729
93.4001
93.5274
93.6548
93.7821
93.9095
94.037
94.1644
94.2919
94.4195
94.547
94.6746
94.8023
94.93
95.0577
95.1854
95.3132
95.441
95.5688
95.6967
95.8246
95.9526
96.0806
96.2086
96.3366
96.4647
96.5928
96.721
96.8492
96.9774
97.1056
97.2339
97.3623
97.4906
97.619
97.7474
97.8759
98.0044
98.1329
98.2614
98.39
98.5187
98.6473
98.776
98.9047
99.0335
99.1623
99.2911
99.42
99.5489
99.6778
99.8067
99.9357
100.065
100.194
100.323
100.452
100.581
100.71
100.84
100.969
101.098
101.227
101.357
101.486
101.616
101.745
101.875
102.004
102.134
102.263
102.393
102.523
102.652
102.782
102.912
103.042
103.171
103.301
103.431
103.561
103.691
103.821
103.951
104.081
104.211
104.341
104.471
104.602
104.732
104.862
104.992
105.123
105.253
105.383
105.514
105.644
105.775
105.905
106.036
106.166
106.297
106.428
106.558
106.689
106.82
106.95
107.081
107.212
107.343
107.474
107.605
107.736
107.867
107.998
108.129
108.26
108.391
108.522
108.653
108.785
108.916
109.047
109.179
109.31
109.441
109.573
109.704
109.836
109.967
110.099
110.23
110.362
110.494
110.625
110.757
110.889
111.02
111.152
111.284
111.416
111.548
111.68
111.812
111.944
112.076
112.208
112.34
112.472
112.604
112.736
112.869
113.001
113.133
113.265
113.398
113.53
113.663
113.795
113.928
114.06
114.193
114.325
114.458
114.59
114.723
114.856
114.988
115.121
115.254
115.387
115.52
115.652
115.785
115.918
116.051
116.184
116.317
116.45
116.584
116.717
116.85
116.983
117.116
117.25
117.383
117.516
117.649
117.783
117.916
118.05
118.183
118.317
118.45
118.584
118.717
118.851
118.985
119.118
119.252
119.386
119.52
119.653
119.787
119.921
120.055
120.189
120.323
120.457
120.591
120.725
120.859
120.993
121.128
121.262
121.396
121.53
121.664
121.799
121.933
122.067
122.202
122.336
122.471
122.605
122.74
122.874
123.009
123.143
123.278
123.413
123.547
123.682
123.817
123.952
124.087
124.221
124.356
124.491
124.626
124.761
124.896
125.031
125.166
125.301
125.436
125.571
125.706
125.841
125.977
126.112
126.247
126.382
126.518
126.653
126.788
126.924
127.059
127.195
127.33
127.466
127.601
127.737
127.872
128.008
128.144
128.279
128.415
128.551
128.687
128.822
128.958
129.094
129.23
129.366
129.502
129.638
129.774
129.91
130.046
130.182
130.318
130.455
130.591
130.727
130.863
130.999
131.135
131.272
131.408
131.544
131.68
131.817
131.953
132.089
132.225
132.361
132.497
132.633
132.769
132.905
133.041
133.177
133.313
133.449
133.584
133.72
133.855
133.99
134.126
134.261
134.395
134.53
134.665
134.799
134.933
135.067
135.201
135.334
135.468
135.6
135.733
135.865
135.997
136.129
136.26
136.391
136.522
136.652
136.781
136.911
137.039
137.168
137.295
137.423
137.549
137.675
137.801
137.926
138.05
138.174
138.297
138.42
138.542
138.663
138.784
138.904
139.023
139.142
139.26
139.377
139.494
139.61
139.726
139.841
139.956
140.069
140.183
140.296
140.408
140.52
140.631
140.742
140.853
140.964
141.074
141.183
141.293
141.403
141.512
141.621
141.73
141.84
141.949
142.058
142.168
142.278
142.387
142.498
142.608
142.719
142.83
142.942
143.054
143.166
143.279
143.393
143.507
143.622
143.737
143.853
143.969
144.086
144.204
144.323
144.442
144.562
144.682
144.803
144.925
145.047
145.171
145.294
145.419
145.544
145.67
145.796
145.923
146.05
146.178
146.307
146.436
146.566
146.696
146.826
146.958
147.089
147.221
147.354
147.486
147.62
147.753
147.887
148.021
148.156
148.291
148.426
148.562
148.697
148.833
148.97
149.106
149.243
149.38
149.517
149.655
149.792
149.93
150.068
150.206
150.344
150.483
150.621
150.76
150.899
151.038
151.177
151.316
151.455
151.594
151.733
151.872
152.011
152.15
152.289
152.428
152.567
152.705
152.843
152.981
153.119
153.256
153.392
153.528
153.664
153.798
153.932
154.065
154.197
154.327
154.457
154.585
154.712
154.837
154.96
155.082
155.202
155.32
155.436
155.549
155.66
155.769
155.875
155.979
156.081
156.179
156.275
156.369
156.46
156.548
156.634
156.718
156.799
156.878
156.955
157.03
157.104
157.175
157.246
157.315
157.384
157.452
157.519
157.586
157.653
157.72
157.787
157.855
157.923
157.993
158.063
158.135
158.207
158.281
158.357
158.434
158.512
158.593
158.674
158.758
158.843
158.93
159.018
159.108
159.2
159.293
159.388
159.485
159.583
159.682
159.783
159.885
159.989
160.094
160.2
160.308
160.417
160.527
160.638
160.75
160.864
160.978
161.094
161.211
161.328
161.447
161.567
161.687
161.809
161.931
162.055
162.179
162.304
162.43
162.557
162.684
162.813
162.942
163.072
163.203
163.334
163.466
163.599
163.733
163.867
164.002
164.138
164.275
164.412
164.55
164.688
164.827
164.967
165.107
165.248
165.39
165.532
165.675
165.818
165.962
166.106
166.252
166.397
166.543
166.69
166.837
166.985
167.133
167.282
167.431
167.581
167.731
167.882
168.034
168.185
168.338
168.491
168.648
168.926
)
;

boundaryField
{
    sides
    {
        type            calculated;
        value           nonuniform List<scalar> 2(168.926 18.6636);
    }
    empty
    {
        type            empty;
    }
}


// ************************************************************************* //
