/*--------------------------------*- C++ -*----------------------------------*\
  =========                 |
  \\      /  F ield         | OpenFOAM: The Open Source CFD Toolbox
   \\    /   O peration     | Website:  https://openfoam.org
    \\  /    A nd           | Version:  9
     \\/     M anipulation  |
\*---------------------------------------------------------------------------*/
FoamFile
{
    format      ascii;
    class       volScalarField;
    location    "0.044";
    object      rho;
}
// * * * * * * * * * * * * * * * * * * * * * * * * * * * * * * * * * * * * * //

dimensions      [1 -3 0 0 0 0 0];

internalField   nonuniform List<scalar> 
1000
(
0.201083
0.201052
0.201
0.200949
0.200903
0.200857
0.200811
0.200765
0.200719
0.200673
0.200627
0.200581
0.200535
0.200489
0.200444
0.200398
0.200352
0.200306
0.20026
0.200216
0.200171
0.200127
0.200081
0.200035
0.19999
0.199944
0.1999
0.199857
0.199814
0.199771
0.199727
0.199683
0.199638
0.199592
0.199547
0.199502
0.199459
0.199417
0.199376
0.199336
0.199297
0.199257
0.199216
0.199175
0.199131
0.199087
0.199042
0.198996
0.198951
0.198906
0.198862
0.198821
0.198782
0.198745
0.198712
0.19868
0.198651
0.198624
0.198598
0.198573
0.198549
0.198525
0.198502
0.198479
0.198457
0.198436
0.198416
0.1984
0.198385
0.19837
0.198354
0.19834
0.198325
0.198311
0.198297
0.198283
0.198269
0.198255
0.198241
0.198228
0.198214
0.198201
0.198188
0.198175
0.198162
0.19815
0.198137
0.198125
0.198113
0.1981
0.198089
0.198077
0.198065
0.198054
0.198043
0.198032
0.198021
0.198011
0.198
0.19799
0.19798
0.19797
0.197961
0.197951
0.197942
0.197933
0.197925
0.197916
0.197908
0.1979
0.197892
0.197884
0.197877
0.19787
0.197863
0.197857
0.19785
0.197844
0.197838
0.197833
0.197828
0.197823
0.197818
0.197814
0.19781
0.197806
0.197802
0.197799
0.197796
0.197794
0.197792
0.19779
0.197788
0.197787
0.197787
0.197786
0.197786
0.197786
0.197787
0.197788
0.197789
0.197791
0.197794
0.197797
0.1978
0.197804
0.197809
0.197813
0.197818
0.197824
0.19783
0.197837
0.197844
0.197852
0.19786
0.197868
0.197877
0.197887
0.197897
0.197908
0.19792
0.197932
0.197944
0.197957
0.197971
0.197985
0.198
0.198016
0.198033
0.198049
0.198067
0.198086
0.198105
0.198124
0.198145
0.198166
0.198188
0.198211
0.198234
0.198258
0.198283
0.198309
0.198336
0.198363
0.198391
0.19842
0.19845
0.198481
0.198513
0.198545
0.198578
0.198613
0.198648
0.198684
0.198721
0.198759
0.198797
0.198837
0.198878
0.198919
0.198962
0.199005
0.19905
0.199095
0.199142
0.199189
0.199237
0.199287
0.199337
0.199388
0.19944
0.199494
0.199548
0.199603
0.199659
0.199716
0.199774
0.199833
0.199893
0.199954
0.200015
0.200078
0.200142
0.200206
0.200271
0.200338
0.200405
0.200473
0.200542
0.200611
0.200682
0.200753
0.200825
0.200898
0.200972
0.201046
0.201121
0.201197
0.201273
0.20135
0.201428
0.201506
0.201586
0.201665
0.201745
0.201826
0.201908
0.201989
0.202072
0.202155
0.202238
0.202322
0.202406
0.202491
0.202576
0.202662
0.202747
0.202834
0.20292
0.203007
0.203095
0.203182
0.20327
0.203358
0.203447
0.203535
0.203624
0.203713
0.203803
0.203892
0.203982
0.204072
0.204162
0.204253
0.204343
0.204434
0.204525
0.204616
0.204707
0.204798
0.20489
0.204982
0.205073
0.205165
0.205257
0.205349
0.205441
0.205533
0.205626
0.205718
0.205811
0.205903
0.205996
0.206089
0.206182
0.206275
0.206368
0.206461
0.206554
0.206648
0.206741
0.206834
0.206928
0.207022
0.207115
0.207209
0.207303
0.207397
0.207491
0.207585
0.207679
0.207773
0.207867
0.207961
0.208056
0.20815
0.208245
0.208339
0.208434
0.208529
0.208624
0.208718
0.208813
0.208908
0.209003
0.209098
0.209193
0.209289
0.209384
0.209479
0.209575
0.20967
0.209766
0.209861
0.209957
0.210052
0.210148
0.210244
0.21034
0.210436
0.210532
0.210628
0.210724
0.21082
0.210917
0.211013
0.21111
0.211206
0.211303
0.211399
0.211496
0.211592
0.211689
0.211786
0.211883
0.21198
0.212077
0.212174
0.212271
0.212368
0.212466
0.212563
0.212661
0.212758
0.212856
0.212953
0.213051
0.213148
0.213247
0.213344
0.213442
0.21354
0.213638
0.213736
0.213835
0.213932
0.214031
0.214129
0.214228
0.214326
0.214425
0.214523
0.214622
0.21472
0.21482
0.214918
0.215018
0.215116
0.215216
0.215314
0.215414
0.215512
0.215612
0.215711
0.215811
0.21591
0.21601
0.216109
0.216209
0.216308
0.216409
0.216508
0.216609
0.216708
0.216809
0.216908
0.217009
0.217109
0.21721
0.217309
0.21741
0.21751
0.217611
0.217711
0.217813
0.217913
0.218014
0.218115
0.218216
0.218316
0.218418
0.218519
0.218621
0.218721
0.218823
0.218924
0.219026
0.219127
0.219229
0.21933
0.219432
0.219534
0.219636
0.219737
0.21984
0.219941
0.220044
0.220146
0.220249
0.22035
0.220453
0.220555
0.220658
0.22076
0.220863
0.220965
0.221069
0.221171
0.221274
0.221377
0.22148
0.221583
0.221687
0.221789
0.221893
0.221996
0.2221
0.222202
0.222307
0.22241
0.222514
0.222617
0.222721
0.222825
0.222929
0.223032
0.223137
0.223241
0.223346
0.223449
0.223554
0.223658
0.223763
0.223867
0.223972
0.224076
0.224181
0.224285
0.224391
0.224495
0.224601
0.224705
0.224811
0.224915
0.225021
0.225126
0.225232
0.225336
0.225443
0.225547
0.225654
0.225759
0.225866
0.22597
0.226077
0.226182
0.226289
0.226394
0.226501
0.226607
0.226714
0.226819
0.226927
0.227032
0.22714
0.227245
0.227353
0.227459
0.227566
0.227672
0.22778
0.227886
0.227994
0.2281
0.228209
0.228315
0.228423
0.22853
0.228638
0.228745
0.228853
0.22896
0.229069
0.229175
0.229285
0.229391
0.229501
0.229607
0.229717
0.229823
0.229934
0.230039
0.230151
0.230256
0.230368
0.230472
0.230586
0.230689
0.230804
0.230906
0.231023
0.231123
0.231242
0.231341
0.231461
0.231558
0.231681
0.231776
0.2319
0.231995
0.232119
0.232214
0.232339
0.232434
0.232558
0.232654
0.232778
0.232874
0.232999
0.233094
0.233219
0.233315
0.23344
0.233536
0.233661
0.233757
0.233882
0.233978
0.234104
0.2342
0.234326
0.234422
0.234548
0.234644
0.23477
0.234867
0.234993
0.235089
0.235216
0.235312
0.235439
0.235536
0.235663
0.235759
0.235886
0.235983
0.23611
0.236207
0.236335
0.236432
0.236559
0.236657
0.236784
0.236881
0.237009
0.237107
0.237235
0.237332
0.23746
0.237558
0.237686
0.237784
0.237912
0.23801
0.238139
0.238237
0.238366
0.238464
0.238593
0.238691
0.23882
0.238919
0.239048
0.239146
0.239276
0.239374
0.239504
0.239603
0.239732
0.239831
0.239961
0.24006
0.24019
0.240289
0.240419
0.240518
0.240649
0.240748
0.240878
0.240978
0.241109
0.241208
0.241339
0.241439
0.24157
0.24167
0.241801
0.241901
0.242032
0.242132
0.242263
0.242364
0.242495
0.242596
0.242727
0.242828
0.24296
0.24306
0.243192
0.243293
0.243425
0.243526
0.243659
0.24376
0.243892
0.243993
0.244126
0.244227
0.24436
0.244462
0.244595
0.244696
0.244829
0.244931
0.245064
0.245166
0.245299
0.245401
0.245535
0.245637
0.245771
0.245873
0.246007
0.246109
0.246243
0.246346
0.24648
0.246582
0.246717
0.246819
0.246954
0.247057
0.247191
0.247295
0.247428
0.247535
0.247664
0.247775
0.247901
0.248015
0.248139
0.248255
0.248378
0.248495
0.248617
0.248734
0.248858
0.248974
0.2491
0.249214
0.249342
0.249454
0.249584
0.249695
0.249828
0.249937
0.250072
0.250179
0.250316
0.250423
0.250561
0.250667
0.250807
0.250913
0.251053
0.25116
0.2513
0.251408
0.251549
0.251657
0.251799
0.251908
0.25205
0.25216
0.252303
0.252413
0.252558
0.252668
0.252814
0.252925
0.253072
0.253184
0.253332
0.253445
0.253594
0.253708
0.253859
0.253974
0.254126
0.254242
0.254395
0.254513
0.254667
0.254786
0.254942
0.255062
0.255219
0.25534
0.255499
0.255622
0.255782
0.255906
0.256068
0.256193
0.256357
0.256482
0.256648
0.256775
0.256941
0.257069
0.257237
0.257366
0.257535
0.257665
0.257836
0.257966
0.258137
0.258268
0.258441
0.258572
0.258745
0.258877
0.25905
0.259182
0.259356
0.259488
0.259662
0.259794
0.259968
0.2601
0.260273
0.260405
0.260578
0.260709
0.260882
0.261013
0.261184
0.261315
0.261485
0.261615
0.261785
0.261914
0.262083
0.262211
0.262379
0.262506
0.262673
0.2628
0.262965
0.263091
0.263255
0.26338
0.263544
0.263668
0.26383
0.263953
0.264115
0.264237
0.264397
0.264519
0.264678
0.264799
0.264958
0.265078
0.265236
0.265355
0.265512
0.265632
0.265788
0.265906
0.266062
0.26618
0.266335
0.266453
0.266608
0.266725
0.266879
0.266997
0.26715
0.267267
0.267421
0.267537
0.26769
0.267807
0.26796
0.268076
0.268229
0.268345
0.268498
0.268614
0.268766
0.268882
0.269034
0.269151
0.269303
0.269419
0.269571
0.269687
0.269839
0.269955
0.270108
0.270224
0.270377
0.270493
0.270646
0.270763
0.270916
0.271034
0.271188
0.271306
0.27146
0.271579
0.271735
0.271854
0.272012
0.272132
0.272291
0.272413
0.272574
0.272698
0.272862
0.272988
0.273154
0.273283
0.273453
0.273584
0.273758
0.273892
0.274071
0.274209
0.274392
0.274534
0.274722
0.274869
0.275063
0.275213
0.275413
0.275569
0.275774
0.275934
0.276146
0.27631
0.276528
0.276696
0.276919
0.277091
0.277319
0.277495
0.277726
0.277905
0.27814
0.27832
0.278557
0.278739
0.278978
0.279161
0.279399
0.279583
0.279821
0.280004
0.28024
0.280422
0.280657
0.280837
0.28107
0.281248
0.281478
0.281654
0.281881
0.282055
0.282279
0.28245
0.282671
0.282839
0.283057
0.283222
0.283437
0.2836
0.283812
0.283973
0.284182
0.28434
0.284547
0.284703
0.284907
0.285061
0.285262
0.285415
0.285614
0.285764
0.285961
0.28611
0.286304
0.286452
0.286644
0.28679
0.286981
0.287125
0.287314
0.287457
0.287644
0.287786
0.287972
0.288112
0.288296
0.288435
0.288617
0.288756
0.288936
0.289073
0.289252
0.289389
0.289566
0.289701
0.289878
0.290012
0.290187
0.29032
0.290494
0.290626
0.290799
0.29093
0.291101
0.291231
0.291402
0.291531
0.2917
0.291829
0.291997
0.292125
0.292292
0.292419
0.292585
0.292711
0.292876
0.293002
0.293166
0.29329
0.293454
0.293578
0.29374
0.293863
0.294024
0.294147
0.294307
0.294429
0.294589
0.294704
0.294874
0.294948
)
;

boundaryField
{
    sides
    {
        type            calculated;
        value           nonuniform List<scalar> 2(0.294948 0.201083);
    }
    empty
    {
        type            empty;
    }
}


// ************************************************************************* //
