/*--------------------------------*- C++ -*----------------------------------*\
  =========                 |
  \\      /  F ield         | OpenFOAM: The Open Source CFD Toolbox
   \\    /   O peration     | Website:  https://openfoam.org
    \\  /    A nd           | Version:  9
     \\/     M anipulation  |
\*---------------------------------------------------------------------------*/
FoamFile
{
    format      ascii;
    class       volScalarField;
    location    "0.009";
    object      T;
}
// * * * * * * * * * * * * * * * * * * * * * * * * * * * * * * * * * * * * * //

dimensions      [0 0 0 1 0 0 0];

internalField   nonuniform List<scalar> 
1000
(
348.432
348.432
348.432
348.432
348.432
348.432
348.432
348.432
348.432
348.432
348.432
348.432
348.432
348.432
348.432
348.432
348.432
348.432
348.432
348.432
348.432
348.432
348.432
348.432
348.432
348.432
348.432
348.432
348.432
348.432
348.432
348.432
348.432
348.432
348.432
348.432
348.432
348.432
348.432
348.432
348.432
348.432
348.432
348.432
348.432
348.432
348.432
348.432
348.432
348.432
348.432
348.432
348.432
348.432
348.432
348.432
348.432
348.432
348.432
348.432
348.432
348.432
348.432
348.432
348.432
348.432
348.432
348.432
348.432
348.432
348.432
348.432
348.432
348.432
348.432
348.432
348.432
348.432
348.432
348.432
348.432
348.432
348.432
348.432
348.432
348.432
348.432
348.432
348.432
348.432
348.432
348.432
348.432
348.432
348.432
348.432
348.432
348.432
348.432
348.432
348.432
348.432
348.432
348.432
348.432
348.432
348.432
348.432
348.432
348.432
348.432
348.432
348.432
348.432
348.431
348.431
348.431
348.431
348.43
348.43
348.429
348.428
348.427
348.425
348.423
348.42
348.417
348.413
348.409
348.403
348.396
348.387
348.376
348.364
348.349
348.331
348.31
348.286
348.258
348.225
348.188
348.146
348.098
348.043
347.983
347.916
347.841
347.759
347.669
347.571
347.465
347.351
347.228
347.097
346.958
346.81
346.654
346.49
346.319
346.139
345.952
345.758
345.557
345.349
345.135
344.915
344.689
344.457
344.22
343.978
343.732
343.481
343.226
342.967
342.704
342.438
342.168
341.895
341.62
341.341
341.06
340.776
340.491
340.203
339.912
339.62
339.327
339.031
338.734
338.435
338.135
337.833
337.531
337.227
336.921
336.615
336.308
335.999
335.69
335.38
335.069
334.757
334.445
334.131
333.818
333.503
333.188
332.872
332.556
332.239
331.922
331.604
331.286
330.967
330.648
330.328
330.009
329.689
329.368
329.047
328.726
328.405
328.084
327.762
327.44
327.118
326.796
326.473
326.151
325.828
325.505
325.182
324.859
324.535
324.212
323.889
323.565
323.241
322.918
322.594
322.27
321.947
321.623
321.299
320.975
320.651
320.327
320.003
319.679
319.356
319.032
318.708
318.384
318.06
317.737
317.413
317.089
316.766
316.442
316.119
315.795
315.472
315.149
314.825
314.502
314.179
313.856
313.533
313.21
312.887
312.565
312.242
311.92
311.597
311.275
310.953
310.631
310.309
309.987
309.665
309.343
309.022
308.7
308.379
308.058
307.737
307.416
307.095
306.774
306.454
306.133
305.813
305.493
305.173
304.853
304.533
304.213
303.894
303.574
303.255
302.936
302.617
302.298
301.98
301.661
301.343
301.025
300.706
300.389
300.071
299.753
299.436
299.118
298.801
298.484
298.167
297.851
297.534
297.218
296.902
296.586
296.27
295.954
295.639
295.323
295.008
294.693
294.378
294.064
293.749
293.435
293.121
292.807
292.493
292.179
291.865
291.553
291.238
290.928
290.611
290.306
289.981
289.688
289.349
289.074
288.714
288.464
288.079
287.852
287.451
287.23
286.837
286.595
286.238
285.952
285.639
285.318
285.027
284.7
284.402
284.092
283.778
283.478
283.164
282.858
282.552
282.241
281.936
281.63
281.321
281.016
280.709
280.403
280.098
279.792
279.486
279.181
278.876
278.571
278.267
277.963
277.658
277.355
277.051
276.748
276.445
276.142
275.84
275.538
275.235
274.934
274.632
274.331
274.03
273.729
273.429
273.129
272.829
272.53
272.23
271.932
271.633
271.335
271.037
270.739
270.442
270.145
269.848
269.552
269.256
268.96
268.665
268.37
268.076
267.781
267.488
267.194
266.902
266.609
266.317
266.026
265.734
265.444
265.154
264.864
264.575
264.286
263.998
263.711
263.423
263.137
262.851
262.566
262.282
261.998
261.715
261.432
261.151
260.87
260.59
260.311
260.032
259.755
259.478
259.203
258.928
258.655
258.382
258.111
257.841
257.573
257.305
257.04
256.775
256.512
256.251
255.991
255.733
255.477
255.223
254.971
254.721
254.473
254.228
253.985
253.745
253.507
253.272
253.041
252.812
252.587
252.366
252.148
251.934
251.724
251.518
251.316
251.12
250.927
250.74
250.559
250.382
250.211
250.046
249.887
249.734
249.587
249.447
249.313
249.185
249.065
248.951
248.844
248.743
248.65
248.563
248.482
248.408
248.34
248.278
248.222
248.171
248.125
248.085
248.049
248.017
247.989
247.965
247.944
247.926
247.911
247.898
247.888
247.879
247.871
247.866
247.861
247.857
247.854
247.852
247.85
247.849
247.848
247.847
247.847
247.847
247.847
247.847
247.847
247.847
247.848
247.848
247.849
247.849
247.85
247.851
247.851
247.852
247.853
247.853
247.854
247.855
247.856
247.856
247.857
247.858
247.858
247.859
247.86
247.861
247.862
247.862
247.863
247.864
247.865
247.865
247.866
247.867
247.868
247.869
247.87
247.87
247.871
247.872
247.873
247.874
247.875
247.876
247.877
247.878
247.879
247.88
247.881
247.882
247.883
247.884
247.885
247.886
247.887
247.888
247.889
247.89
247.891
247.892
247.893
247.894
247.896
247.897
247.898
247.899
247.901
247.902
247.903
247.904
247.906
247.907
247.908
247.91
247.911
247.913
247.914
247.916
247.917
247.919
247.92
247.922
247.923
247.925
247.927
247.928
247.93
247.931
247.933
247.935
247.937
247.938
247.94
247.942
247.944
247.945
247.947
247.949
247.951
247.953
247.955
247.957
247.959
247.961
247.963
247.965
247.967
247.969
247.971
247.973
247.975
247.978
247.98
247.982
247.985
247.987
247.99
247.992
247.995
247.997
248
248.002
248.005
248.008
248.011
248.013
248.016
248.019
248.022
248.025
248.029
248.032
248.035
248.038
248.042
248.045
248.048
248.052
248.056
248.059
248.063
248.067
248.071
248.075
248.079
248.083
248.087
248.092
248.096
248.1
248.105
248.11
248.115
248.12
248.125
248.13
248.135
248.141
248.146
248.152
248.158
248.164
248.17
248.177
248.183
248.19
248.197
248.204
248.211
248.218
248.226
248.234
248.242
248.251
248.259
248.268
248.278
248.287
248.297
248.307
248.318
248.329
248.34
248.352
248.364
248.377
248.39
248.404
248.418
248.433
248.449
248.465
248.482
248.5
248.518
248.538
248.559
248.58
248.603
248.627
248.652
248.679
248.707
248.738
248.772
248.808
248.847
248.889
248.933
248.978
249.024
249.069
249.114
249.16
249.212
249.274
249.358
249.479
249.654
249.91
250.273
250.778
251.461
252.359
253.515
254.966
256.751
258.905
261.458
264.435
267.851
271.716
276.027
280.773
285.929
291.461
297.323
303.457
309.797
316.271
322.799
329.303
335.702
341.921
347.892
353.556
358.864
363.781
368.285
372.362
376.015
379.251
382.09
384.556
386.677
388.485
390.011
391.29
392.351
393.226
393.94
394.52
394.987
395.36
395.656
395.89
396.073
396.216
396.327
396.413
396.479
396.529
396.568
396.598
396.62
396.638
396.651
396.662
396.67
396.677
396.682
396.687
396.69
396.693
396.696
396.698
396.7
396.702
396.703
396.705
396.706
396.707
396.708
396.709
396.709
396.71
396.71
396.711
396.711
396.711
396.712
396.712
396.712
396.712
396.713
396.713
396.713
396.713
396.713
396.713
396.713
396.713
396.714
396.714
396.714
396.714
396.714
396.714
396.714
396.714
396.714
396.714
396.714
396.714
396.715
396.715
396.715
396.715
396.715
396.715
396.715
396.715
396.716
396.716
396.716
396.716
396.716
396.716
396.716
396.716
396.716
396.716
396.717
396.717
396.717
396.717
396.717
396.717
396.717
396.717
396.717
396.718
396.718
396.718
396.718
396.718
396.718
396.718
396.718
396.718
396.718
396.718
396.718
396.718
396.718
396.718
396.718
396.718
396.718
396.719
396.719
396.719
396.719
396.719
396.719
396.719
396.719
396.719
396.719
396.719
396.719
396.719
396.719
396.719
396.719
396.719
396.719
396.719
396.719
396.719
396.719
396.719
396.719
396.719
396.719
396.72
396.72
396.72
396.72
396.72
396.72
396.72
396.719
396.719
396.719
396.719
396.719
396.719
396.719
396.719
396.719
396.719
396.719
396.719
396.719
396.719
396.719
396.719
396.719
396.719
396.719
396.719
396.719
396.719
396.719
396.719
396.719
396.718
396.718
396.718
396.718
396.718
396.718
396.718
396.718
396.718
396.718
396.718
396.718
396.718
396.718
396.719
396.718
396.718
396.718
396.718
396.718
396.717
396.717
396.717
396.717
396.717
396.717
396.717
396.716
396.716
396.716
396.716
396.716
396.715
396.713
396.708
396.698
396.676
396.639
396.551
396.38
396.039
395.268
393.623
389.601
380.965
361.541
332.922
306.457
289.146
)
;

boundaryField
{
    sides
    {
        type            zeroGradient;
    }
    empty
    {
        type            empty;
    }
}


// ************************************************************************* //
