/*--------------------------------*- C++ -*----------------------------------*\
  =========                 |
  \\      /  F ield         | OpenFOAM: The Open Source CFD Toolbox
   \\    /   O peration     | Website:  https://openfoam.org
    \\  /    A nd           | Version:  9
     \\/     M anipulation  |
\*---------------------------------------------------------------------------*/
FoamFile
{
    format      ascii;
    class       surfaceScalarField;
    location    "0.002";
    object      ddtCorrDdt0(phi);
}
// * * * * * * * * * * * * * * * * * * * * * * * * * * * * * * * * * * * * * //

dimensions      [1 0 -2 0 0 0 0];

internalField   nonuniform List<scalar> 
9999
(
3.90597e-07
-4.38571e-07
2.93587e-08
-2.87385e-07
-8.88279e-08
-4.05707e-08
7.82089e-07
1.41178e-06
1.05007e-06
-2.31351e-07
1.13838e-07
1.21043e-08
6.79695e-07
8.85866e-07
2.33437e-07
9.46468e-07
1.38752e-06
1.27401e-07
9.14184e-07
3.19236e-07
-1.82979e-08
3.45898e-07
2.29879e-07
1.13885e-06
9.99919e-07
3.98556e-07
1.38069e-07
5.14566e-07
6.27674e-07
3.04485e-07
5.69593e-08
-1.74879e-07
-4.94519e-07
-2.9722e-07
-2.04474e-07
-1.31495e-07
-8.82102e-07
-8.38145e-07
-8.74531e-07
-5.89397e-07
-6.40082e-07
5.71329e-09
-7.83248e-09
5.35217e-07
2.43515e-07
-5.70676e-07
-4.44504e-07
-7.08715e-07
-3.87892e-07
-1.46199e-07
-9.13645e-08
6.46068e-07
1.13197e-06
5.80027e-07
2.17892e-07
1.60598e-06
6.04307e-07
9.92035e-07
-2.47314e-08
-8.57812e-09
-6.46288e-07
-3.76309e-07
-6.54798e-07
-6.16887e-07
-5.74462e-07
-2.07722e-07
-5.26558e-07
-7.9412e-07
-4.17736e-07
-1.09768e-06
-1.06041e-06
-5.90606e-07
-6.06234e-07
-8.61335e-07
-1.2323e-06
-5.34955e-07
2.80334e-07
6.27994e-07
-7.49326e-08
3.63606e-07
1.19996e-06
1.23404e-06
1.84232e-06
1.47909e-06
1.1383e-06
6.97653e-07
7.91477e-07
4.34377e-07
1.81754e-07
1.68558e-07
-2.82789e-07
-1.3723e-07
2.12872e-08
-8.10878e-07
-3.94626e-07
-3.87941e-07
-1.30451e-06
-6.20431e-07
2.63821e-07
-4.54209e-07
-3.96576e-07
-1.70338e-07
-5.0006e-08
-4.23328e-07
6.75615e-07
1.75544e-07
7.30773e-08
3.09272e-07
-1.43852e-07
-3.88079e-07
-6.94195e-07
-2.60137e-07
-5.81151e-07
-1.25101e-06
-1.26594e-06
-3.53995e-07
-5.00484e-07
-2.86251e-07
-1.69693e-07
-2.59802e-07
-3.66407e-07
-5.98207e-07
-1.50944e-07
-9.27408e-07
-5.01896e-07
-1.02174e-06
-6.16406e-07
6.09023e-07
1.36337e-07
-5.66266e-08
1.13025e-07
6.10164e-07
4.17001e-07
7.9583e-07
9.88896e-07
9.19132e-07
9.09421e-07
7.30535e-07
2.35614e-07
2.31629e-07
-2.33559e-07
-1.11907e-07
4.25758e-07
3.13475e-08
6.70273e-07
3.30578e-08
8.10088e-07
1.75376e-06
1.66365e-06
5.09619e-07
9.67026e-07
8.43267e-07
3.69677e-07
-3.05141e-07
-6.11665e-07
1.37361e-06
4.38138e-07
-3.16424e-07
-1.31825e-07
1.57211e-07
-6.36139e-08
-7.7542e-08
-2.86581e-07
-3.62514e-07
-1.193e-06
-9.17533e-07
-5.63986e-07
-3.05784e-07
-2.27823e-08
4.8089e-07
-9.29785e-08
4.88732e-08
2.38252e-08
1.22218e-06
7.29771e-07
6.89241e-07
1.94548e-07
2.84291e-07
-1.18639e-07
-6.37593e-07
-6.61791e-08
2.18877e-07
3.53414e-07
4.05023e-07
-6.87662e-07
-3.40839e-07
-4.723e-07
-8.10051e-07
-4.8831e-08
-8.90898e-07
-1.37861e-06
-5.48982e-07
4.34758e-07
-2.54333e-07
-7.6151e-07
-1.04528e-06
-3.14059e-07
-4.44945e-07
-3.38891e-07
-8.58251e-07
2.94322e-08
3.28499e-07
-2.7278e-07
1.23765e-07
7.18491e-08
3.18906e-07
8.6222e-07
6.66113e-07
1.10332e-06
1.53158e-06
1.28662e-06
1.96306e-06
1.54353e-06
1.39813e-06
1.25099e-06
4.27818e-07
-3.51451e-07
-8.50895e-07
-1.10167e-06
-7.55399e-07
-9.78876e-07
-6.34415e-07
-9.29985e-07
-1.13833e-06
-5.26321e-07
-2.90974e-07
-7.41969e-07
4.66309e-08
-2.90501e-07
7.56403e-08
1.87582e-07
3.7798e-07
1.3868e-06
7.68252e-07
-3.27122e-07
8.19918e-09
-5.39425e-07
-2.39398e-07
2.32794e-07
6.78721e-09
-7.1232e-07
1.58341e-07
-5.87611e-07
-7.1646e-07
-9.42111e-07
-1.45363e-06
-5.45113e-07
-9.14303e-07
-9.62873e-07
-2.62747e-07
-5.94702e-07
-3.00289e-07
-5.04797e-07
-3.88106e-07
5.34869e-07
7.1735e-07
3.33589e-07
3.6571e-07
4.98239e-07
1.69749e-06
9.19867e-07
2.07109e-06
9.00915e-07
1.38471e-06
1.93928e-06
1.16488e-06
1.06105e-06
1.17193e-06
3.55326e-07
6.07137e-07
9.12704e-08
-3.30698e-07
-5.95818e-07
-5.91429e-07
-3.76252e-07
-7.93213e-07
-7.18203e-07
-1.00652e-06
-7.44104e-07
-1.14305e-07
-2.95223e-07
-4.33486e-07
-4.29193e-07
-7.59202e-07
-3.27173e-07
-3.62189e-07
-1.13544e-06
-7.33666e-07
-1.25136e-06
-3.39307e-07
-5.7199e-07
-1.69171e-07
-8.99944e-07
6.53225e-08
-7.80442e-07
-1.64889e-07
8.54117e-08
5.15651e-07
-2.58958e-08
7.4373e-08
7.43998e-07
6.16523e-07
1.05347e-06
1.99517e-07
3.62701e-07
-3.15955e-07
4.22982e-07
2.64633e-07
-1.11574e-06
-1.71424e-07
-5.28096e-07
-5.75118e-07
-4.41794e-07
-3.25102e-07
3.99241e-07
-6.79793e-09
2.04057e-08
1.43313e-06
1.01096e-06
-3.41658e-08
3.10423e-07
-1.10377e-07
-5.89704e-07
-1.54037e-07
-1.22854e-06
-5.01916e-07
-9.13196e-07
-9.27286e-07
-1.44479e-06
-1.4323e-06
-9.36046e-07
-2.63035e-07
-7.29106e-07
-3.81108e-07
5.44423e-07
1.35493e-06
6.01585e-07
1.05388e-06
-2.81107e-08
3.22676e-07
3.4459e-07
-2.43939e-07
-4.72723e-07
3.8687e-07
7.69991e-07
-7.25127e-08
2.78532e-08
8.60377e-08
9.28373e-07
-9.48311e-08
2.11658e-07
4.4161e-07
5.27947e-07
7.48889e-07
2.7546e-07
7.75093e-07
2.22884e-07
-1.33273e-08
-7.84224e-07
-4.18615e-08
-1.56129e-06
-1.27416e-06
-2.57499e-07
-1.10203e-06
-9.10403e-07
-4.98189e-07
3.45546e-08
-3.47283e-07
1.18895e-06
1.56342e-07
-4.86246e-08
1.7235e-07
-2.89974e-07
1.48747e-07
1.0496e-06
6.41948e-07
1.03466e-06
3.85539e-07
-1.99182e-07
7.49481e-07
6.85732e-07
5.55674e-07
-7.92242e-07
-7.07599e-07
7.29517e-07
4.00864e-07
-1.97272e-07
-6.58001e-07
4.27392e-07
1.25628e-06
1.6248e-07
-2.73055e-07
5.6615e-08
3.7653e-07
1.67504e-07
2.22432e-07
-2.24303e-07
2.21433e-07
-1.92515e-07
4.5038e-07
-1.80867e-07
7.01947e-07
-3.86114e-07
-2.22174e-07
-4.80769e-07
-5.11e-07
-4.71617e-07
-3.44154e-08
-2.02455e-07
-6.47807e-07
-3.84743e-08
8.44303e-08
4.80988e-07
-4.5289e-08
4.29964e-07
7.04513e-07
1.07815e-06
-3.68384e-08
2.73985e-07
-5.10203e-07
1.71506e-08
9.01076e-08
7.95639e-07
2.8938e-07
-1.74526e-07
-3.29272e-07
-6.44288e-07
1.76163e-08
-4.61972e-07
1.04606e-06
1.93406e-07
-7.15939e-07
7.07759e-07
-6.81886e-07
-5.22169e-07
8.2061e-07
-1.84831e-07
-4.40029e-08
3.07759e-07
-6.55422e-08
-3.58796e-07
-6.34923e-08
-6.78293e-07
-5.76477e-08
-4.36313e-07
-1.28896e-07
5.8474e-07
1.0474e-06
-8.81899e-07
-1.09467e-08
-1.9842e-07
-4.30192e-07
-5.42882e-07
-1.47993e-06
2.29304e-08
4.02601e-07
5.38205e-07
-4.89339e-07
-4.07604e-08
-4.83728e-07
8.24769e-08
-1.12671e-06
-4.28674e-07
2.7601e-07
-1.24357e-06
-4.34884e-07
-4.67044e-08
-7.77507e-07
6.52173e-08
-1.08711e-06
-2.28222e-07
-1.34787e-06
-3.05005e-07
2.88596e-07
-9.17205e-08
5.29119e-07
7.2928e-07
4.93944e-08
2.27663e-07
-1.92287e-07
1.00966e-07
1.26623e-07
-1.80657e-07
1.56713e-07
2.14768e-07
3.75346e-07
-3.1726e-07
-3.05992e-07
-1.42913e-07
3.44637e-07
-7.85463e-08
5.06717e-07
1.23333e-07
-2.98818e-07
-2.97188e-07
-1.03193e-07
-1.03554e-06
-1.23839e-06
6.3554e-07
-1.61184e-07
-7.48776e-07
-1.38157e-07
4.99287e-08
9.19924e-07
8.32364e-07
8.7551e-08
1.87634e-07
1.16101e-06
7.66333e-07
1.02924e-06
2.4723e-07
1.00222e-07
8.12873e-07
4.40102e-07
3.35228e-07
-4.00417e-09
1.22335e-06
3.95301e-07
1.13199e-06
6.86758e-07
6.06324e-07
6.24532e-07
-1.33601e-08
-4.15683e-09
-4.84865e-07
-5.87633e-07
-1.0743e-06
-7.67456e-07
-1.38801e-06
-1.48686e-07
-1.12139e-06
-5.16451e-07
1.66771e-08
-7.13193e-08
5.6345e-08
7.01225e-07
1.38959e-06
7.26412e-07
-8.25836e-08
-3.55125e-07
-8.02677e-07
3.01608e-07
1.29165e-07
2.96157e-07
7.3946e-07
-4.32011e-07
-6.10954e-07
3.62236e-07
7.52623e-07
-7.27935e-07
-1.13505e-06
-4.51419e-08
-8.3701e-07
-2.82792e-07
9.69973e-07
-1.47864e-07
1.72746e-06
-6.51523e-07
2.84785e-07
7.36587e-07
-1.28847e-09
-5.00019e-07
8.59937e-09
-7.93299e-07
-1.36936e-07
-6.75773e-07
-1.48333e-06
-4.48435e-07
-5.26942e-07
3.71976e-07
-1.50793e-07
6.8186e-07
-8.89741e-09
1.10864e-06
-9.93688e-08
1.52699e-06
-8.5585e-07
-7.52231e-07
-7.69981e-07
-1.1512e-07
9.25553e-07
3.26559e-07
8.48559e-07
-8.98018e-08
2.29622e-07
-1.08232e-06
-5.49372e-07
-1.17628e-06
-3.64986e-07
-7.70341e-07
6.13822e-07
5.82317e-07
-8.92864e-08
3.66547e-07
-1.54789e-08
-5.00383e-07
1.60364e-07
6.58124e-07
1.56862e-07
5.81025e-09
3.89402e-07
-8.26571e-07
2.27566e-07
6.46597e-07
-7.05738e-07
5.1505e-07
-5.73592e-07
-1.12191e-06
-2.32028e-07
-1.59677e-07
2.22449e-07
-8.87629e-07
-2.219e-07
-1.0243e-07
2.49049e-07
8.86796e-07
6.37535e-07
2.19732e-08
-2.64685e-07
9.68175e-07
7.41456e-07
3.29558e-07
2.30109e-07
-6.24301e-08
-1.91749e-07
-2.40641e-07
-4.41686e-09
-5.18945e-07
-4.67217e-07
-1.04682e-06
-9.4191e-07
-1.07155e-06
-4.10655e-07
-9.99966e-08
9.5784e-07
8.39138e-07
-2.91946e-07
8.37098e-07
-4.78357e-08
4.66021e-07
5.05063e-07
-6.96973e-08
-2.80787e-07
2.86448e-08
3.49861e-07
-3.59232e-07
-5.62448e-07
4.72088e-07
5.5896e-07
-9.63705e-07
-9.2066e-08
-9.88171e-07
-1.83677e-06
-1.58404e-06
-8.97013e-08
-3.47228e-07
-2.9158e-07
-4.34531e-07
-2.45569e-07
-4.70714e-07
4.95846e-07
5.30902e-08
6.33839e-08
5.92908e-07
1.39379e-06
-4.90731e-07
9.58864e-07
5.96877e-07
2.01055e-07
3.67096e-07
1.87501e-08
1.00092e-06
8.75147e-07
1.37062e-06
6.71186e-07
8.70662e-07
-3.80864e-07
-1.96755e-08
-5.05681e-07
3.4016e-07
-4.12401e-07
-8.35762e-07
-1.05865e-06
-6.1129e-07
-9.53893e-07
-1.9206e-07
-2.36316e-07
-8.68338e-07
-8.20761e-07
-4.61429e-08
-3.47191e-07
7.52039e-07
3.54429e-07
4.00435e-07
5.39376e-07
-2.61126e-07
1.33138e-06
3.16731e-07
3.40573e-07
1.56032e-07
-1.28569e-07
-2.30669e-07
-9.5659e-08
1.25864e-07
-3.13084e-07
-4.12717e-07
-6.06728e-07
-1.33144e-06
-1.05615e-06
-1.35318e-06
-6.37278e-07
-1.14947e-06
-5.92296e-07
-1.14768e-06
-3.10333e-07
3.34237e-07
-2.31445e-08
-8.23089e-08
2.03669e-07
5.40725e-08
-6.89723e-07
5.35129e-07
3.37672e-08
2.83974e-07
1.03399e-06
5.21359e-07
2.93419e-07
1.19365e-06
1.12889e-06
6.12309e-07
6.2751e-07
3.12872e-07
2.10495e-07
3.79921e-07
-1.30318e-07
4.82392e-07
1.00008e-06
9.59906e-07
9.4054e-08
4.05788e-07
1.84107e-07
-2.81287e-07
2.47951e-09
1.70113e-07
4.66114e-07
-6.98425e-07
8.92603e-07
-2.26589e-07
1.09954e-06
1.93564e-07
-4.49174e-07
2.01478e-07
-5.10281e-07
2.03998e-07
-1.26527e-06
1.92725e-07
-5.50193e-07
7.67751e-07
2.61178e-07
-4.34481e-09
-9.07482e-07
-5.20252e-08
-6.44786e-07
1.93043e-07
-3.35871e-07
-4.71312e-07
-4.72881e-08
-9.42504e-07
-2.69581e-07
-2.86268e-07
-1.07288e-06
-1.0303e-06
3.17753e-08
2.02952e-07
6.37412e-07
-3.7141e-07
1.50331e-07
3.55035e-07
-1.29872e-07
-2.07919e-07
1.11753e-06
1.60945e-07
2.22707e-07
-2.06114e-07
3.45754e-07
1.60074e-07
3.93838e-08
-2.84573e-07
5.92713e-07
-1.86911e-07
6.05653e-08
2.42164e-07
-8.27346e-08
-4.64102e-07
-2.5458e-07
-2.4491e-07
3.49097e-07
2.29066e-07
-3.19333e-08
-3.24299e-07
3.41209e-07
5.93244e-07
-1.71543e-07
-8.21e-07
-1.81945e-06
-5.76095e-07
-8.40973e-07
-1.59209e-07
-3.41723e-07
3.71439e-07
-6.94112e-07
5.45895e-08
8.9406e-07
1.83628e-07
1.86133e-07
1.01837e-07
-2.69064e-07
-3.57059e-07
-4.10988e-07
1.67259e-07
-3.77137e-07
-1.59192e-07
6.44534e-07
5.91612e-07
2.69981e-07
-2.41423e-07
7.0902e-07
5.64254e-07
1.24692e-06
9.22968e-07
8.82774e-07
3.96536e-07
1.03534e-06
1.1788e-06
-8.801e-07
-4.88983e-07
5.48548e-07
8.21906e-07
2.84014e-08
5.43482e-08
-4.46309e-07
-9.54195e-08
4.21822e-07
-5.06455e-07
-3.20344e-07
-4.42975e-07
2.98319e-07
-2.46976e-07
2.02042e-07
9.66827e-07
2.81727e-07
-4.0087e-07
-5.96294e-07
-7.98021e-07
-8.50519e-07
-1.27009e-07
1.44616e-07
1.57122e-07
-2.56832e-07
-7.04617e-08
1.93954e-07
4.83673e-07
8.73248e-07
1.11836e-06
-4.08967e-10
6.09822e-07
1.1914e-06
1.38971e-06
3.53686e-07
4.26107e-07
-5.4432e-08
-1.31642e-07
-3.70368e-07
-1.68224e-07
2.90701e-07
1.26164e-09
-9.66794e-08
-6.84526e-07
-5.73718e-07
-7.49724e-07
-6.48954e-07
-2.0861e-07
8.63445e-07
1.15832e-07
9.16148e-07
1.22049e-06
-6.36469e-07
3.71952e-07
-2.41733e-08
-6.31992e-07
2.75944e-07
-6.52114e-08
-2.20681e-07
-3.63323e-07
3.08761e-08
-1.24771e-07
-6.04877e-07
3.9586e-07
-4.70905e-07
-1.0592e-06
-1.26169e-06
-1.27951e-06
-1.28871e-06
-9.7882e-08
-6.83585e-07
-3.43345e-07
-3.61791e-07
2.39326e-07
-1.70655e-07
-9.89937e-08
8.00038e-07
3.47852e-08
1.02004e-07
-4.96968e-07
-3.54668e-07
-7.53808e-07
-5.33034e-07
-3.0047e-07
-1.48894e-07
-2.41306e-07
3.68794e-07
2.61416e-07
1.18947e-06
1.90526e-06
1.2271e-06
8.66157e-07
6.52902e-07
9.01011e-07
7.7678e-07
6.79066e-07
-1.14077e-06
-1.49422e-06
-1.33697e-06
1.25581e-07
-5.86445e-07
-1.88872e-07
-1.97253e-07
-4.91047e-08
-7.33217e-07
-7.97764e-07
-3.98941e-07
-5.54767e-07
-5.50991e-07
-7.6202e-07
-5.09624e-07
-5.63e-07
-2.68044e-07
-1.23263e-06
-1.20954e-06
1.28599e-09
-2.04328e-07
-2.43565e-07
-1.363e-07
1.95779e-07
-6.8936e-07
-1.73648e-10
-3.06995e-07
5.70177e-08
2.20135e-07
-9.90365e-08
2.30298e-07
5.88951e-07
1.58704e-06
1.56943e-06
9.88095e-07
1.25975e-06
1.37021e-06
2.35194e-06
1.67528e-07
5.69468e-07
5.6126e-07
1.07686e-07
2.76969e-07
1.73508e-07
6.38157e-07
-2.14607e-07
-3.74833e-07
-9.31874e-07
-1.00221e-06
-7.99172e-07
-4.32511e-07
-4.33427e-07
-1.31006e-07
3.11782e-07
-2.13045e-07
6.71477e-08
4.17002e-08
2.28907e-07
-8.5801e-08
-8.08805e-07
-3.11513e-07
5.45035e-07
-5.90793e-07
-4.70263e-07
1.99382e-07
6.28738e-07
1.8886e-07
2.10277e-07
-4.34456e-07
1.11378e-06
1.50678e-06
3.65363e-07
2.42002e-08
-5.92922e-07
2.25085e-08
-1.06502e-06
-5.86946e-08
-5.58989e-07
7.12053e-07
3.35905e-07
-4.05858e-07
-3.86073e-07
2.66186e-07
-2.58209e-07
8.39709e-07
8.26933e-07
7.22376e-08
-1.92156e-07
-2.33599e-07
7.99589e-07
5.54309e-07
-5.01777e-07
-8.76385e-07
-5.8541e-07
3.5864e-07
4.11597e-07
-8.51286e-08
-6.74204e-07
6.04674e-09
-2.64436e-07
-3.89638e-07
-2.49996e-07
-8.23591e-07
-8.58185e-07
-9.92637e-07
4.04507e-07
-2.27972e-07
-1.0109e-06
-4.22963e-07
-7.09908e-07
-7.96174e-07
-2.63787e-07
-3.36269e-08
4.97869e-07
8.05893e-08
3.98303e-07
1.63485e-06
5.18213e-07
1.76897e-06
7.82592e-07
3.70905e-07
1.63871e-07
4.41583e-07
-1.40547e-06
-5.04251e-07
-3.8618e-07
-1.01676e-06
-1.3309e-06
-1.58948e-06
-5.80614e-07
-5.44661e-07
-7.51066e-07
-6.0774e-07
-9.78056e-08
-3.03436e-07
6.43761e-08
2.35922e-07
-6.46353e-07
-8.11582e-08
-4.6042e-07
2.19232e-07
1.2157e-06
7.45362e-07
9.73961e-07
6.86334e-07
6.62673e-07
-1.94447e-07
1.60481e-07
3.92822e-07
-2.89989e-07
5.48346e-07
6.28318e-07
1.61722e-07
1.8747e-07
3.80245e-07
1.11639e-06
2.43204e-07
7.99844e-08
6.03219e-07
2.625e-07
-1.96888e-08
-6.31626e-07
-2.88006e-08
-3.86002e-07
-9.65507e-09
2.57902e-07
-8.57002e-07
-3.00818e-07
6.63885e-08
-2.35567e-07
1.57718e-07
1.73006e-08
-1.61568e-07
3.07714e-07
6.5255e-07
7.62916e-07
1.05934e-06
3.57201e-07
3.39052e-07
1.15604e-06
2.2766e-07
-6.20836e-07
-3.12577e-07
-8.60958e-07
-5.16498e-07
-1.1973e-06
-8.64731e-07
-4.54141e-07
-3.61729e-07
5.51608e-08
-3.43465e-07
3.12721e-07
3.00989e-07
3.24879e-07
-4.3355e-07
1.85868e-07
4.3979e-07
-1.05356e-07
2.01587e-07
-2.26442e-07
2.07812e-07
-5.91945e-07
-4.45418e-08
7.98352e-07
2.15516e-07
9.82474e-08
2.81574e-07
3.0013e-07
6.89464e-07
1.50686e-07
2.33518e-07
-1.63076e-07
-4.81722e-07
-1.41646e-07
2.52849e-09
-5.31212e-08
3.52808e-08
5.14069e-08
4.53422e-07
6.03128e-07
3.41068e-07
1.77468e-07
-4.28652e-07
-2.57658e-07
-3.09648e-07
-1.088e-06
-1.26114e-06
-1.05269e-06
-1.3606e-06
-1.04696e-06
-8.77812e-07
-8.97971e-07
-4.77888e-07
-6.58794e-08
-1.31823e-07
6.28436e-07
3.05519e-07
-3.05746e-07
3.5033e-07
3.10912e-07
-6.45277e-07
5.96199e-07
-3.47851e-07
-3.39237e-07
-5.06233e-07
9.60944e-07
1.06072e-06
8.15055e-07
-7.07562e-07
2.66107e-07
-2.02978e-07
2.28407e-07
1.84495e-07
8.73764e-07
-1.05741e-06
7.86672e-07
2.35876e-07
3.11108e-07
2.79501e-07
3.43932e-07
-3.48838e-07
-6.23422e-07
-1.05073e-06
-7.17606e-07
-1.67345e-07
-2.31643e-07
-5.16385e-07
-6.58447e-07
-4.92614e-07
-3.16734e-07
2.12409e-07
2.72192e-07
5.51746e-07
9.13454e-07
9.72653e-07
3.8881e-07
3.51824e-07
2.07865e-07
2.33635e-07
7.83913e-07
-1.59371e-07
4.8827e-07
7.81501e-07
-2.48472e-07
-9.57955e-08
-2.69126e-07
-1.55187e-08
-7.82855e-07
-1.34088e-06
-1.27753e-06
-6.7979e-07
-5.28663e-07
-3.64551e-07
1.50275e-08
2.04918e-07
8.95197e-07
9.0885e-07
2.94543e-07
-2.55679e-07
5.60296e-07
7.74236e-07
2.735e-07
5.83326e-07
2.19126e-07
-1.90745e-07
4.63485e-08
9.94212e-07
5.14128e-07
-2.59522e-08
-2.29135e-07
6.71173e-07
3.73567e-07
5.49803e-07
6.44422e-07
1.07384e-06
6.87631e-07
3.31775e-07
-1.81289e-07
-1.593e-07
-8.53998e-07
-6.37144e-07
-3.08811e-07
-1.07704e-06
-1.97369e-06
-3.58847e-07
4.15479e-07
-5.45582e-07
-1.16891e-07
8.0052e-07
8.59647e-08
6.35701e-07
-4.24296e-08
1.01169e-06
5.57037e-07
-1.12793e-07
9.11816e-08
-2.20992e-08
1.21195e-07
4.22428e-07
1.24762e-07
-6.71236e-08
-4.64211e-07
4.37392e-07
-4.57263e-07
-4.79482e-07
-3.73355e-07
-1.15024e-06
-3.13652e-07
7.52584e-08
-2.55208e-07
-3.60497e-07
-7.91946e-07
-1.09345e-06
-4.98653e-07
3.27013e-07
9.64288e-08
-4.37298e-07
-6.39067e-07
-1.37776e-07
6.14133e-09
-3.7827e-07
3.4705e-07
-1.55077e-08
-7.84433e-07
-4.15455e-07
5.24081e-07
2.00826e-07
6.55706e-07
8.45733e-07
6.16548e-07
1.00718e-06
1.38738e-06
7.98976e-07
1.67037e-07
6.13599e-07
3.95041e-07
2.17964e-07
1.07888e-06
9.8595e-07
8.17314e-07
1.83525e-07
2.56797e-08
-1.00589e-07
-5.15009e-07
-7.2794e-07
-7.62621e-07
-7.85846e-07
-1.14098e-06
-1.23453e-06
-7.17703e-07
-3.07887e-07
2.7974e-08
2.97411e-07
2.50676e-08
-1.7592e-07
4.31578e-08
1.16246e-07
-9.98398e-07
-4.3102e-07
-5.75032e-07
3.81106e-07
-3.28797e-07
4.69541e-07
-4.84427e-08
1.19225e-06
9.67218e-07
9.78373e-07
5.07639e-07
8.82018e-07
7.94258e-07
7.04857e-07
-1.25977e-07
5.14742e-07
-1.58217e-07
-6.05028e-07
5.47703e-08
2.13795e-07
-1.79342e-07
-2.54718e-07
-1.35888e-07
-2.34817e-07
4.0895e-07
5.216e-07
4.42082e-07
1.83342e-07
6.41853e-07
1.65629e-07
-1.72999e-08
1.47487e-07
3.03568e-07
-3.6217e-07
-7.93248e-07
-3.81548e-07
-1.17961e-06
-6.74821e-07
-5.76309e-07
-3.03446e-07
-4.57982e-07
-1.18639e-07
-2.5715e-07
3.32348e-08
1.42199e-07
-4.2667e-07
1.54309e-07
-4.74473e-07
5.41527e-07
1.14241e-07
2.87152e-07
-5.3036e-07
1.10614e-07
1.02777e-06
2.09374e-07
3.90269e-07
6.57726e-07
-2.15435e-07
-4.3029e-07
-6.29243e-08
-3.19072e-07
-7.19339e-08
-1.51553e-08
-1.25579e-07
-2.54004e-07
3.74399e-07
-4.4632e-07
1.59119e-07
1.27658e-07
1.65935e-07
1.62431e-07
1.00103e-07
-1.17022e-08
9.27557e-07
5.63037e-07
4.01718e-07
9.67473e-07
9.10958e-08
-4.66128e-07
-1.51901e-07
9.47455e-08
-6.3358e-07
-3.69139e-07
-2.82691e-08
-2.89047e-07
-5.27672e-08
1.27313e-07
1.23996e-07
-1.6455e-07
-1.40928e-07
-5.2532e-07
-5.79148e-07
-4.43798e-07
-5.62414e-07
-5.86436e-07
-2.55747e-07
-9.80763e-07
-1.35078e-06
2.97953e-07
-2.65757e-08
-1.8459e-07
9.63055e-07
7.15224e-07
8.198e-07
5.01172e-07
2.41386e-07
5.63393e-07
1.06635e-06
1.0305e-06
1.0481e-06
8.79463e-07
4.59714e-07
-2.93826e-07
-5.26332e-07
-3.03999e-07
-3.1529e-07
-1.75762e-06
-4.41876e-07
-9.68756e-07
-8.76658e-07
-1.07521e-06
-6.72099e-07
1.40795e-07
-2.39457e-07
-8.86315e-07
-3.08576e-07
4.40788e-07
-3.82266e-07
3.28456e-07
1.36088e-06
1.36503e-06
7.50126e-07
5.71489e-07
1.7504e-07
1.06706e-07
6.99982e-07
1.58734e-06
1.29032e-06
6.37137e-07
-3.90724e-07
1.28792e-07
5.16571e-08
-6.35943e-07
-8.24076e-07
-3.02015e-07
4.64258e-07
2.8413e-07
4.89084e-07
-2.16302e-08
-4.28723e-07
-5.48389e-07
-4.82853e-07
2.07776e-08
1.5391e-07
-2.02096e-07
1.1244e-09
-1.03714e-07
1.18435e-07
-1.12113e-07
-2.49918e-07
-7.78695e-08
5.0251e-07
4.60333e-08
-5.892e-07
-1.3056e-07
1.90368e-08
-1.73424e-08
3.74194e-07
7.98823e-07
-7.72464e-09
-7.07809e-07
-6.64118e-08
-6.63583e-07
-5.45085e-07
-6.98711e-08
-1.74115e-07
6.04264e-07
3.45054e-07
8.13748e-07
3.73063e-07
6.51232e-07
9.89461e-08
1.14873e-07
-3.77359e-07
-1.61586e-07
-9.90505e-08
-2.28645e-07
-1.91516e-07
-7.55949e-07
-6.14549e-07
-5.29048e-07
-7.93782e-07
-7.68015e-07
4.12116e-07
6.30087e-08
2.11267e-07
1.70888e-07
1.26405e-07
1.31303e-07
5.09805e-07
1.45803e-07
3.22599e-07
6.2263e-08
5.75204e-07
-1.38724e-07
1.92937e-07
-6.07481e-07
-1.17242e-07
5.52768e-07
4.61608e-07
4.388e-07
-1.63958e-07
-1.17823e-06
-1.53307e-06
-1.06233e-06
-5.82264e-07
-2.72194e-08
1.385e-07
-1.62796e-07
-2.32262e-07
3.15226e-08
1.07956e-07
8.7216e-08
-4.48361e-07
-5.99121e-07
-9.83119e-08
5.18757e-07
5.20458e-07
4.10013e-08
-1.22752e-07
1.42237e-06
1.76309e-07
1.20192e-06
3.06325e-07
2.78764e-07
1.53779e-07
1.77353e-08
1.66312e-07
-6.62966e-07
-3.76046e-07
-2.04439e-07
-8.36584e-07
-5.03021e-08
-6.27115e-08
-5.96099e-07
-1.13368e-07
-3.18237e-07
2.95289e-07
5.08563e-07
-6.17843e-07
1.85501e-07
-2.14526e-07
-4.70336e-08
5.64927e-07
8.38383e-07
5.13228e-07
1.09338e-06
7.47194e-08
4.14097e-07
5.4871e-08
3.59846e-07
1.57041e-07
3.70681e-07
7.88807e-08
-5.29102e-07
-1.01084e-06
-2.90145e-07
-2.32437e-07
9.57743e-08
2.23193e-07
1.44882e-07
7.18532e-08
-3.20679e-07
-5.33612e-08
2.32822e-07
-7.77299e-08
5.70435e-07
-1.94039e-07
-1.85311e-07
-6.54768e-07
-5.8085e-07
-2.34727e-08
-1.15755e-06
-1.07975e-07
-2.60571e-07
-3.83006e-07
-1.03548e-07
-4.17505e-07
7.55345e-08
-1.72432e-07
1.42753e-07
2.49008e-07
6.09766e-07
2.61468e-07
5.08027e-07
7.03784e-07
4.5957e-07
1.64522e-07
1.81107e-07
-4.74071e-08
-3.48077e-07
-8.23684e-07
-3.36266e-07
-5.61096e-07
6.84863e-07
-2.41874e-07
-1.06968e-07
3.04192e-07
-1.77349e-07
-1.47009e-07
-7.87107e-07
-9.19568e-08
2.85499e-07
1.94599e-07
3.14274e-07
2.02721e-07
-3.67538e-07
-1.8182e-07
-4.1075e-07
-2.92635e-07
4.30862e-08
2.44708e-07
3.63086e-08
3.99571e-07
3.11951e-07
3.65064e-07
3.08136e-07
-3.11794e-07
-1.6622e-07
-3.49108e-07
-2.69603e-07
-3.51406e-07
-2.97353e-07
2.64484e-07
2.51598e-07
3.79018e-07
-3.77384e-08
5.46783e-07
1.35113e-08
2.19224e-07
1.23809e-07
-2.56888e-07
-5.18818e-08
-3.73884e-07
3.32123e-07
2.28219e-07
2.74485e-07
5.32543e-07
9.87611e-08
-2.51935e-08
-1.72722e-07
-1.84123e-07
-2.15786e-07
6.01602e-07
4.70821e-07
5.68339e-07
4.76002e-07
3.6931e-07
7.67559e-08
6.10053e-07
-1.08241e-07
-1.07621e-06
-7.41793e-07
-5.72619e-07
-4.52777e-07
-5.64922e-07
-2.39477e-08
-1.50706e-07
-4.84439e-08
-3.16726e-07
-2.11087e-07
1.6349e-07
6.6972e-07
5.22133e-07
2.21661e-07
-3.46901e-07
4.36926e-08
1.07933e-07
-2.23889e-07
4.35382e-07
-4.06516e-07
-1.00518e-06
-3.83908e-07
2.45726e-08
2.07509e-07
-1.27842e-07
2.32459e-08
4.4036e-07
6.99462e-07
4.50863e-07
1.91624e-07
4.82642e-07
1.69167e-07
-7.38689e-07
-5.54483e-07
-1.63747e-07
-7.13168e-07
-4.05172e-07
-1.27563e-06
-6.15331e-07
-4.03795e-07
-9.22503e-09
-4.23223e-07
6.89481e-08
-1.54596e-07
-1.59657e-07
1.0435e-07
2.18568e-07
2.84029e-09
3.30645e-07
4.60453e-07
3.07996e-07
9.00966e-07
6.61344e-07
-6.94783e-07
-2.84918e-07
-9.12455e-08
-1.94625e-07
-4.74417e-07
-3.13613e-07
-1.60325e-07
-2.27445e-07
-2.56196e-07
-4.41275e-07
-9.32915e-08
-2.70118e-09
1.11342e-06
3.87876e-07
3.81046e-07
2.81962e-07
2.54388e-07
3.43201e-07
4.96496e-07
-3.48903e-07
-9.31927e-08
2.88055e-07
5.07069e-07
-3.21603e-07
1.16278e-07
-1.3963e-07
2.17698e-07
1.02341e-07
-4.09149e-07
-4.7364e-07
1.47328e-07
-7.1852e-07
1.28407e-07
-2.29925e-07
5.98983e-07
-7.95372e-08
5.48266e-07
-3.67731e-08
3.85934e-07
-7.76961e-07
3.33026e-07
4.68021e-07
3.40775e-07
6.09004e-07
2.68809e-07
-1.377e-07
-7.12735e-07
-7.24624e-07
-8.13849e-07
-5.42726e-07
-7.15396e-07
-7.18965e-07
-1.08187e-06
3.47386e-07
-1.88288e-07
4.35423e-08
4.27197e-07
1.37986e-06
1.23618e-06
4.35734e-07
3.90034e-07
9.32057e-07
2.32426e-07
-3.02203e-07
-3.60209e-07
-5.6071e-07
-4.26296e-07
-6.11134e-07
-7.19544e-07
-3.07417e-07
-2.73939e-07
-4.92798e-07
-3.02106e-07
1.35871e-07
5.67083e-07
1.14164e-06
4.99879e-07
6.71702e-08
3.49337e-07
3.07802e-07
3.97207e-07
6.00762e-07
1.27622e-07
1.6574e-07
-6.89843e-08
1.61251e-07
2.94863e-07
1.06106e-07
7.22827e-07
2.48846e-07
-2.80824e-07
1.42462e-07
-3.68208e-07
-7.75946e-07
-4.7356e-08
-8.69306e-07
-2.40378e-08
-8.2615e-07
-4.14424e-07
-7.45164e-07
4.07429e-08
2.65194e-07
8.96873e-07
9.42493e-07
5.19395e-07
3.29149e-08
9.60473e-09
2.01671e-07
-6.00287e-08
2.7568e-08
-7.02905e-07
-4.85963e-07
-5.17056e-07
-6.15381e-07
-7.61683e-07
-1.1454e-06
-1.41183e-06
-9.17701e-07
-1.27401e-06
-2.63852e-07
2.91964e-07
4.07213e-07
-2.31427e-07
8.61615e-07
3.48087e-07
2.53344e-07
-1.48031e-08
-2.51729e-07
-1.00628e-07
-6.43361e-07
-9.4686e-07
-2.32386e-07
-3.88207e-07
-5.56627e-08
-5.8954e-08
3.22208e-07
-2.88741e-08
7.78045e-07
1.16091e-06
5.10989e-07
7.02716e-07
9.39566e-08
3.01672e-07
3.48069e-07
1.10265e-06
1.89231e-07
9.3261e-07
6.70132e-07
-2.8664e-07
-4.73322e-07
5.94709e-07
-6.23353e-07
-3.98102e-07
-9.41116e-08
-5.89389e-07
-4.37863e-07
-3.7411e-07
1.20702e-07
-6.6944e-08
-9.77864e-08
5.43726e-07
4.91923e-08
1.41216e-06
1.35245e-06
9.71593e-07
1.21569e-06
6.96692e-07
3.93886e-07
1.57022e-07
-1.88195e-07
-6.35459e-07
-7.31164e-07
-1.59239e-06
-1.85864e-06
-1.88232e-06
-1.02537e-06
-1.43116e-06
-7.07977e-07
-3.65522e-07
3.39222e-07
2.62288e-08
6.40728e-07
6.24845e-08
1.07408e-06
8.22508e-07
-2.34277e-07
8.46403e-07
-5.10735e-08
1.51098e-06
7.78635e-07
1.04411e-06
3.05177e-07
2.74758e-07
9.2474e-07
2.93839e-07
6.74943e-07
-1.66164e-07
4.6987e-07
-2.85248e-07
2.31368e-07
-6.48886e-07
-1.60746e-06
-1.09375e-06
-9.4027e-07
-8.44395e-07
-7.453e-07
-5.9707e-07
-1.26995e-06
-7.74141e-07
-2.38781e-07
-3.58793e-07
1.98489e-07
6.49596e-07
3.16444e-07
5.55282e-07
2.68249e-07
4.10536e-07
1.34383e-06
5.54903e-07
8.81903e-07
1.3895e-07
3.35317e-07
5.75258e-07
-2.11179e-07
-6.97967e-07
3.07924e-07
3.97144e-07
5.65947e-07
3.99139e-07
2.78102e-07
2.16375e-07
4.90494e-09
-2.67308e-07
-4.3829e-07
-7.88184e-08
8.14945e-08
-2.13352e-07
-1.31635e-07
-3.13073e-07
5.38391e-07
1.73555e-07
1.63853e-07
-6.44394e-08
-5.3796e-07
-3.29171e-07
-1.52305e-07
-4.08466e-08
-5.18473e-07
-7.5589e-07
-1.39243e-06
-1.06614e-06
-6.38766e-07
-6.10123e-07
-1.48752e-06
-1.23045e-06
-6.69148e-07
-4.3159e-07
3.95197e-08
4.91644e-07
7.7101e-07
8.39945e-07
8.5443e-07
8.20732e-07
4.83529e-07
8.0103e-07
2.56042e-07
8.34221e-07
1.06572e-06
1.51274e-06
9.24365e-07
1.20303e-06
5.25766e-07
-4.95424e-07
-1.78602e-07
-6.19135e-07
-2.58704e-07
-6.76379e-07
-1.63668e-07
-1.04851e-07
-6.5754e-08
-2.07669e-07
-1.78187e-07
2.49023e-07
2.88953e-08
-2.76147e-07
4.14781e-07
1.03852e-07
-4.69221e-08
2.09598e-07
1.98816e-07
-5.46277e-09
-3.73125e-07
1.08247e-07
-2.84157e-07
-6.4109e-07
-1.12141e-06
-6.93669e-07
-1.61423e-06
-1.49082e-06
-7.6383e-07
-3.06594e-07
-1.54438e-06
-1.07174e-06
1.86318e-08
-3.99043e-07
2.76603e-07
6.63487e-07
1.64307e-06
1.24533e-06
1.65835e-06
1.67018e-06
1.33844e-06
5.8139e-07
8.74822e-07
8.80584e-07
5.67408e-07
1.43469e-07
-9.02028e-07
-9.77289e-07
-7.39066e-07
-1.14167e-06
-7.34504e-07
-9.24499e-07
-4.60771e-07
-4.29418e-07
-3.46183e-07
-4.21889e-07
8.28564e-08
6.55117e-07
1.809e-07
5.86091e-07
1.33193e-06
3.6051e-07
7.29364e-07
2.38331e-07
9.99596e-07
6.83363e-07
4.54746e-07
2.32214e-07
9.34929e-07
2.42775e-07
2.53345e-07
2.45772e-07
-1.29427e-07
-6.25954e-07
-5.70158e-08
-7.92619e-07
-7.22903e-07
-5.93581e-07
-5.3643e-07
-9.36555e-07
-3.96904e-07
6.41636e-08
-5.66635e-08
1.81965e-07
7.21253e-07
1.98943e-09
-1.58459e-08
1.0882e-06
5.54818e-07
-4.82803e-09
-1.71428e-07
2.79125e-07
-1.79721e-07
-9.36965e-08
9.08656e-08
-3.95992e-08
5.6495e-07
-1.11836e-07
-7.92982e-08
-1.47419e-07
-5.19998e-07
-1.08116e-06
-8.50621e-07
-1.34449e-06
-8.12448e-07
-1.26199e-06
-3.15318e-07
-1.13622e-06
5.05461e-07
-5.04395e-07
8.88671e-08
6.25684e-07
7.80636e-07
9.5199e-07
6.33948e-07
8.35926e-07
9.8705e-07
9.34161e-07
2.50174e-07
3.03793e-07
1.14682e-06
6.11421e-07
4.86676e-07
4.91412e-07
2.85884e-07
3.21111e-07
-1.09423e-06
-2.01909e-07
-1.70763e-06
-1.54623e-06
-1.31669e-06
-7.65212e-07
-5.71413e-07
-1.11824e-07
-7.39984e-08
-8.83713e-07
-3.00666e-07
6.10917e-08
3.5871e-07
8.73351e-07
1.63821e-07
9.06408e-07
-2.43847e-07
2.24053e-07
7.71373e-07
6.23753e-07
8.53546e-07
6.68936e-07
1.67055e-07
-2.12337e-08
-3.17946e-07
-5.03032e-07
-1.08499e-06
-7.73222e-07
-6.9852e-07
-6.10575e-07
-1.12164e-06
1.57348e-07
-1.02866e-06
8.08298e-07
4.14807e-07
5.9538e-07
3.08511e-07
4.58372e-07
7.03604e-07
3.38689e-07
9.96707e-07
6.34757e-07
8.40965e-07
5.4235e-07
3.84461e-08
1.26229e-07
-4.2463e-07
3.14485e-07
2.27874e-07
-1.12872e-07
-3.87904e-07
-4.29749e-07
-6.53267e-07
-6.81446e-07
-1.01454e-06
3.13863e-08
-5.34463e-07
-8.30601e-08
-6.20465e-08
-4.39148e-07
1.5025e-07
-1.5533e-07
2.2114e-07
9.37195e-07
4.91442e-07
3.22718e-07
4.82723e-07
8.20133e-07
9.77325e-07
4.69398e-07
7.24016e-08
-9.08164e-08
3.19567e-07
1.06126e-07
-2.021e-07
-5.45951e-07
-6.90369e-07
-1.58708e-06
-1.25289e-06
-7.30582e-07
-2.14989e-07
-1.11068e-06
-1.85881e-07
2.00857e-07
1.05595e-06
4.74096e-07
1.58637e-06
5.8856e-07
8.04009e-07
3.14218e-07
8.36151e-07
5.29086e-07
-9.71577e-09
-2.01712e-07
2.43516e-07
-4.95029e-07
-6.51139e-07
-4.63988e-07
-1.01081e-06
-6.79946e-07
-1.38126e-06
-8.74531e-07
-7.47842e-07
-1.64908e-06
-3.36524e-07
-2.24485e-07
-5.62459e-07
-4.56233e-08
5.70032e-07
4.30805e-07
4.5049e-07
8.18231e-07
8.22984e-07
-2.08319e-07
-3.88353e-07
-1.23172e-08
-6.01215e-07
-1.913e-07
9.37311e-07
3.49317e-07
-1.61325e-08
8.71382e-07
9.45669e-07
9.65244e-07
1.0733e-06
6.49146e-07
2.3458e-07
3.62079e-07
-8.04815e-08
1.73531e-07
-1.92632e-07
-7.79057e-09
-3.58439e-07
-6.80134e-07
-3.2869e-08
-3.00203e-07
-8.13412e-08
-6.86285e-07
-1.9265e-07
-4.77432e-07
-3.82407e-07
1.8533e-07
-7.53145e-07
-1.76497e-07
6.38895e-08
8.88289e-09
-8.73382e-07
-3.03279e-07
4.40889e-07
1.43292e-07
-5.20372e-07
4.4413e-07
3.45199e-07
2.76295e-07
-1.60709e-07
7.61262e-07
6.85205e-07
8.23877e-07
3.75674e-07
5.69531e-09
8.83338e-08
-6.35393e-08
-3.87973e-07
-5.17008e-07
1.2179e-07
1.69197e-07
5.05157e-08
-3.85553e-07
-8.55785e-07
-1.09759e-06
-1.17624e-06
-7.8664e-07
-1.25318e-06
-4.4178e-07
-5.06701e-07
7.24165e-08
8.0581e-08
1.20828e-07
9.33395e-07
5.91656e-07
2.52789e-07
-2.07022e-07
1.51282e-07
2.42008e-08
1.56819e-07
-7.09414e-07
-4.142e-07
7.72717e-07
-7.52333e-09
1.0283e-06
1.11905e-06
7.27799e-08
2.58008e-07
9.17858e-07
6.022e-07
4.41255e-07
4.26233e-07
8.44988e-08
-7.99588e-07
-6.90409e-07
-4.76445e-07
-8.17994e-08
-5.47842e-07
-7.24996e-07
-6.56628e-07
-1.87965e-07
-3.18147e-08
7.07863e-07
-9.04039e-10
1.88351e-08
6.53789e-07
9.73934e-07
1.07893e-06
-4.69446e-07
-7.89748e-07
-7.69708e-07
5.61213e-07
3.49709e-07
5.92402e-07
-4.71115e-07
-1.21151e-07
-1.39527e-07
-2.14694e-07
2.88013e-07
5.42384e-07