/*--------------------------------*- C++ -*----------------------------------*\
  =========                 |
  \\      /  F ield         | OpenFOAM: The Open Source CFD Toolbox
   \\    /   O peration     | Website:  https://openfoam.org
    \\  /    A nd           | Version:  9
     \\/     M anipulation  |
\*---------------------------------------------------------------------------*/
FoamFile
{
    format      ascii;
    class       volScalarField;
    location    "0.044";
    object      rho;
}
// * * * * * * * * * * * * * * * * * * * * * * * * * * * * * * * * * * * * * //

dimensions      [1 -3 0 0 0 0 0];

internalField   nonuniform List<scalar> 
10000
(
0.183745
0.183743
0.18374
0.183737
0.183735
0.183732
0.18373
0.183727
0.183725
0.183722
0.18372
0.183717
0.183715
0.183712
0.18371
0.183707
0.183705
0.183702
0.1837
0.183698
0.183695
0.183693
0.183691
0.183688
0.183686
0.183684
0.183682
0.183679
0.183677
0.183675
0.183672
0.18367
0.183668
0.183666
0.183664
0.183662
0.183659
0.183657
0.183655
0.183653
0.18365
0.183648
0.183646
0.183644
0.183642
0.18364
0.183637
0.183635
0.183633
0.183631
0.183628
0.183626
0.183624
0.183622
0.18362
0.183618
0.183616
0.183613
0.183611
0.183608
0.183606
0.183603
0.183601
0.183599
0.183597
0.183595
0.183593
0.18359
0.183588
0.183586
0.183584
0.183582
0.183579
0.183576
0.183574
0.183571
0.183568
0.183565
0.183563
0.18356
0.183557
0.183555
0.183552
0.18355
0.183548
0.183546
0.183544
0.183542
0.183541
0.183539
0.183538
0.183536
0.183535
0.183534
0.183533
0.183532
0.183531
0.18353
0.183529
0.183528
0.183527
0.183527
0.183526
0.183525
0.183524
0.183523
0.183523
0.183522
0.183521
0.18352
0.183519
0.183519
0.183518
0.183517
0.183516
0.183515
0.183515
0.183514
0.183513
0.183512
0.183512
0.183511
0.18351
0.183509
0.183508
0.183508
0.183507
0.183506
0.183505
0.183505
0.183504
0.183503
0.183502
0.183502
0.183501
0.1835
0.183499
0.183499
0.183498
0.183497
0.183497
0.183496
0.183495
0.183494
0.183494
0.183493
0.183492
0.183492
0.183491
0.18349
0.18349
0.183489
0.183488
0.183488
0.183487
0.183486
0.183486
0.183485
0.183485
0.183484
0.183483
0.183483
0.183482
0.183482
0.183481
0.18348
0.18348
0.183479
0.183479
0.183478
0.183478
0.183477
0.183477
0.183476
0.183476
0.183475
0.183475
0.183474
0.183474
0.183473
0.183473
0.183472
0.183472
0.183472
0.183471
0.183471
0.18347
0.18347
0.18347
0.183469
0.183469
0.183469
0.183468
0.183468
0.183468
0.183467
0.183467
0.183467
0.183467
0.183466
0.183466
0.183466
0.183466
0.183465
0.183465
0.183465
0.183465
0.183464
0.183464
0.183464
0.183464
0.183464
0.183464
0.183463
0.183463
0.183463
0.183463
0.183463
0.183463
0.183462
0.183462
0.183462
0.183462
0.183462
0.183461
0.183461
0.183461
0.183461
0.183461
0.18346
0.18346
0.18346
0.18346
0.18346
0.183459
0.183459
0.183459
0.183459
0.183458
0.183458
0.183458
0.183457
0.183457
0.183457
0.183456
0.183456
0.183456
0.183455
0.183455
0.183454
0.183454
0.183454
0.183453
0.183453
0.183452
0.183452
0.183451
0.183451
0.18345
0.183449
0.183449
0.183448
0.183448
0.183447
0.183447
0.183446
0.183445
0.183445
0.183444
0.183443
0.183443
0.183442
0.183441
0.183441
0.18344
0.183439
0.183438
0.183438
0.183437
0.183436
0.183435
0.183435
0.183434
0.183433
0.183432
0.183432
0.183431
0.18343
0.183429
0.183429
0.183428
0.183427
0.183427
0.183426
0.183425
0.183424
0.183424
0.183423
0.183422
0.183422
0.183421
0.18342
0.18342
0.183419
0.183418
0.183418
0.183417
0.183417
0.183416
0.183416
0.183415
0.183414
0.183414
0.183413
0.183413
0.183412
0.183412
0.183412
0.183411
0.183411
0.18341
0.18341
0.183409
0.183409
0.183409
0.183408
0.183408
0.183408
0.183407
0.183407
0.183407
0.183406
0.183406
0.183406
0.183405
0.183405
0.183405
0.183405
0.183404
0.183404
0.183404
0.183404
0.183403
0.183403
0.183403
0.183402
0.183402
0.183402
0.183402
0.183401
0.183401
0.183401
0.1834
0.1834
0.1834
0.183399
0.183399
0.183399
0.183398
0.183398
0.183397
0.183397
0.183397
0.183396
0.183396
0.183395
0.183395
0.183394
0.183394
0.183393
0.183393
0.183392
0.183392
0.183391
0.18339
0.18339
0.183389
0.183389
0.183388
0.183387
0.183387
0.183386
0.183385
0.183385
0.183384
0.183383
0.183383
0.183382
0.183381
0.183381
0.18338
0.183379
0.183378
0.183378
0.183377
0.183376
0.183375
0.183375
0.183374
0.183373
0.183373
0.183372
0.183371
0.18337
0.18337
0.183369
0.183368
0.183368
0.183367
0.183366
0.183366
0.183365
0.183364
0.183364
0.183363
0.183362
0.183362
0.183361
0.183361
0.18336
0.183359
0.183359
0.183358
0.183358
0.183357
0.183357
0.183356
0.183355
0.183355
0.183354
0.183354
0.183353
0.183353
0.183352
0.183352
0.183351
0.183351
0.183351
0.18335
0.18335
0.183349
0.183349
0.183348
0.183348
0.183347
0.183347
0.183347
0.183346
0.183346
0.183345
0.183345
0.183344
0.183344
0.183344
0.183343
0.183343
0.183342
0.183342
0.183342
0.183341
0.183341
0.18334
0.18334
0.18334
0.183339
0.183339
0.183338
0.183338
0.183337
0.183337
0.183337
0.183336
0.183336
0.183335
0.183335
0.183335
0.183334
0.183334
0.183333
0.183333
0.183332
0.183332
0.183332
0.183331
0.183331
0.18333
0.18333
0.183329
0.183329
0.183329
0.183328
0.183328
0.183327
0.183327
0.183326
0.183326
0.183325
0.183325
0.183324
0.183324
0.183323
0.183323
0.183322
0.183322
0.183321
0.183321
0.18332
0.18332
0.183319
0.183319
0.183318
0.183318
0.183317
0.183317
0.183316
0.183316
0.183315
0.183314
0.183314
0.183313
0.183313
0.183312
0.183311
0.183311
0.18331
0.183309
0.183309
0.183308
0.183308
0.183307
0.183306
0.183306
0.183305
0.183304
0.183303
0.183303
0.183302
0.183301
0.183301
0.1833
0.183299
0.183298
0.183298
0.183297
0.183296
0.183295
0.183295
0.183294
0.183293
0.183292
0.183292
0.183291
0.18329
0.183289
0.183289
0.183288
0.183287
0.183286
0.183285
0.183285
0.183284
0.183283
0.183282
0.183282
0.183281
0.18328
0.183279
0.183278
0.183278
0.183277
0.183276
0.183275
0.183275
0.183274
0.183273
0.183272
0.183272
0.183271
0.18327
0.183269
0.183269
0.183268
0.183267
0.183266
0.183266
0.183265
0.183264
0.183264
0.183263
0.183262
0.183261
0.183261
0.18326
0.183259
0.183258
0.183258
0.183257
0.183256
0.183255
0.183255
0.183254
0.183253
0.183252
0.183252
0.183251
0.18325
0.18325
0.183249
0.183248
0.183247
0.183247
0.183246
0.183245
0.183244
0.183243
0.183243
0.183242
0.183241
0.18324
0.18324
0.183239
0.183238
0.183237
0.183237
0.183236
0.183235
0.183234
0.183233
0.183233
0.183232
0.183231
0.18323
0.18323
0.183229
0.183228
0.183227
0.183226
0.183226
0.183225
0.183224
0.183223
0.183223
0.183222
0.183221
0.18322
0.18322
0.183219
0.183218
0.183218
0.183217
0.183216
0.183216
0.183215
0.183214
0.183214
0.183213
0.183212
0.183212
0.183211
0.183211
0.18321
0.18321
0.183209
0.183208
0.183208
0.183207
0.183207
0.183206
0.183206
0.183206
0.183205
0.183205
0.183204
0.183204
0.183204
0.183203
0.183203
0.183203
0.183202
0.183202
0.183202
0.183201
0.183201
0.183201
0.183201
0.183201
0.1832
0.1832
0.1832
0.1832
0.1832
0.1832
0.1832
0.1832
0.183199
0.183199
0.183199
0.183199
0.183199
0.183199
0.183199
0.183199
0.183199
0.183199
0.183199
0.183199
0.183199
0.183199
0.183199
0.183199
0.1832
0.1832
0.1832
0.1832
0.1832
0.1832
0.1832
0.1832
0.1832
0.1832
0.1832
0.1832
0.183201
0.183201
0.183201
0.183201
0.183201
0.183201
0.183201
0.183201
0.183201
0.183201
0.183201
0.183201
0.183202
0.183202
0.183202
0.183202
0.183202
0.183202
0.183202
0.183202
0.183202
0.183202
0.183202
0.183202
0.183202
0.183201
0.183201
0.183201
0.183201
0.183201
0.183201
0.183201
0.183201
0.1832
0.1832
0.1832
0.1832
0.183199
0.183199
0.183199
0.183198
0.183198
0.183198
0.183197
0.183197
0.183197
0.183196
0.183196
0.183195
0.183195
0.183194
0.183194
0.183193
0.183193
0.183192
0.183191
0.183191
0.18319
0.18319
0.183189
0.183188
0.183188
0.183187
0.183186
0.183185
0.183185
0.183184
0.183183
0.183183
0.183182
0.183181
0.18318
0.183179
0.183179
0.183178
0.183177
0.183176
0.183175
0.183175
0.183174
0.183173
0.183172
0.183171
0.183171
0.18317
0.183169
0.183168
0.183167
0.183167
0.183166
0.183165
0.183164
0.183164
0.183163
0.183162
0.183161
0.183161
0.18316
0.183159
0.183158
0.183158
0.183157
0.183156
0.183155
0.183155
0.183154
0.183153
0.183153
0.183152
0.183151
0.183151
0.18315
0.183149
0.183149
0.183148
0.183147
0.183147
0.183146
0.183145
0.183145
0.183144
0.183144
0.183143
0.183142
0.183142
0.183141
0.18314
0.18314
0.183139
0.183139
0.183138
0.183137
0.183137
0.183136
0.183136
0.183135
0.183135
0.183134
0.183133
0.183133
0.183132
0.183132
0.183131
0.183131
0.18313
0.18313
0.183129
0.183129
0.183128
0.183128
0.183127
0.183127
0.183126
0.183126
0.183126
0.183125
0.183125
0.183124
0.183124
0.183124
0.183123
0.183123
0.183123
0.183123
0.183122
0.183122
0.183122
0.183122
0.183122
0.183121
0.183121
0.183121
0.183121
0.183121
0.183121
0.183121
0.183121
0.183121
0.183121
0.183121
0.183121
0.183121
0.183121
0.183121
0.183121
0.183121
0.183121
0.183122
0.183122
0.183122
0.183122
0.183122
0.183123
0.183123
0.183123
0.183123
0.183124
0.183124
0.183124
0.183124
0.183125
0.183125
0.183125
0.183126
0.183126
0.183126
0.183127
0.183127
0.183128
0.183128
0.183128
0.183129
0.183129
0.183129
0.18313
0.18313
0.183131
0.183131
0.183131
0.183132
0.183132
0.183132
0.183133
0.183133
0.183134
0.183134
0.183134
0.183135
0.183135
0.183135
0.183136
0.183136
0.183136
0.183137
0.183137
0.183137
0.183138
0.183138
0.183138
0.183138
0.183139
0.183139
0.183139
0.183139
0.18314
0.18314
0.18314
0.18314
0.18314
0.183141
0.183141
0.183141
0.183141
0.183141
0.183141
0.183141
0.183141
0.183141
0.183142
0.183142
0.183142
0.183142
0.183142
0.183142
0.183142
0.183142
0.183141
0.183141
0.183141
0.183141
0.183141
0.183141
0.183141
0.183141
0.183141
0.18314
0.18314
0.18314
0.18314
0.18314
0.183139
0.183139
0.183139
0.183139
0.183138
0.183138
0.183138
0.183137
0.183137
0.183137
0.183136
0.183136
0.183136
0.183135
0.183135
0.183135
0.183134
0.183134
0.183133
0.183133
0.183132
0.183132
0.183131
0.183131
0.183131
0.18313
0.18313
0.183129
0.183129
0.183128
0.183128
0.183127
0.183126
0.183126
0.183125
0.183125
0.183124
0.183124
0.183123
0.183123
0.183122
0.183122
0.183121
0.18312
0.18312
0.183119
0.183119
0.183118
0.183118
0.183117
0.183116
0.183116
0.183115
0.183115
0.183114
0.183114
0.183113
0.183113
0.183112
0.183112
0.183111
0.183111
0.18311
0.18311
0.183109
0.183109
0.183108
0.183108
0.183107
0.183107
0.183106
0.183106
0.183105
0.183105
0.183104
0.183104
0.183104
0.183103
0.183103
0.183102
0.183102
0.183102
0.183101
0.183101
0.183101
0.183101
0.1831
0.1831
0.1831
0.183099
0.183099
0.183099
0.183099
0.183099
0.183098
0.183098
0.183098
0.183098
0.183098
0.183098
0.183098
0.183098
0.183098
0.183098
0.183098
0.183098
0.183098
0.183098
0.183098
0.183098
0.183098
0.183098
0.183098
0.183098
0.183099
0.183099
0.183099
0.183099
0.183099
0.1831
0.1831
0.1831
0.183101
0.183101
0.183101
0.183102
0.183102
0.183102
0.183103
0.183103
0.183104
0.183104
0.183105
0.183105
0.183106
0.183106
0.183107
0.183107
0.183108
0.183108
0.183109
0.183109
0.18311
0.18311
0.183111
0.183112
0.183112
0.183113
0.183113
0.183114
0.183115
0.183115
0.183116
0.183116
0.183117
0.183118
0.183118
0.183119
0.18312
0.18312
0.183121
0.183121
0.183122
0.183123
0.183123
0.183124
0.183124
0.183125
0.183125
0.183126
0.183127
0.183127
0.183128
0.183128
0.183129
0.183129
0.18313
0.18313
0.183131
0.183131
0.183132
0.183132
0.183132
0.183133
0.183133
0.183134
0.183134
0.183135
0.183135
0.183135
0.183136
0.183136
0.183136
0.183137
0.183137
0.183137
0.183138
0.183138
0.183138
0.183139
0.183139
0.183139
0.183139
0.18314
0.18314
0.18314
0.18314
0.183141
0.183141
0.183141
0.183141
0.183142
0.183142
0.183142
0.183142
0.183142
0.183142
0.183143
0.183143
0.183143
0.183143
0.183143
0.183143
0.183144
0.183144
0.183144
0.183144
0.183144
0.183144
0.183144
0.183144
0.183144
0.183144
0.183144
0.183145
0.183145
0.183145
0.183145
0.183145
0.183145
0.183145
0.183145
0.183145
0.183145
0.183145
0.183144
0.183144
0.183144
0.183144
0.183144
0.183144
0.183144
0.183144
0.183144
0.183144
0.183144
0.183143
0.183143
0.183143
0.183143
0.183143
0.183143
0.183143
0.183142
0.183142
0.183142
0.183142
0.183142
0.183141
0.183141
0.183141
0.183141
0.183141
0.18314
0.18314
0.18314
0.18314
0.18314
0.18314
0.183139
0.183139
0.183139
0.183139
0.183139
0.183138
0.183138
0.183138
0.183138
0.183138
0.183138
0.183138
0.183138
0.183138
0.183137
0.183137
0.183137
0.183137
0.183137
0.183137
0.183137
0.183137
0.183137
0.183137
0.183138
0.183138
0.183138
0.183138
0.183138
0.183138
0.183138
0.183139
0.183139
0.183139
0.18314
0.18314
0.18314
0.183141
0.183141
0.183141
0.183142
0.183142
0.183143
0.183143
0.183144
0.183144
0.183145
0.183145
0.183146
0.183146
0.183147
0.183148
0.183148
0.183149
0.18315
0.183151
0.183151
0.183152
0.183153
0.183154
0.183155
0.183155
0.183156
0.183157
0.183158
0.183159
0.18316
0.183161
0.183162
0.183163
0.183164
0.183165
0.183166
0.183167
0.183168
0.183169
0.18317
0.183171
0.183172
0.183173
0.183174
0.183175
0.183177
0.183178
0.183179
0.18318
0.183181
0.183182
0.183184
0.183185
0.183186
0.183187
0.183189
0.18319
0.183191
0.183192
0.183194
0.183195
0.183196
0.183198
0.183199
0.183201
0.183202
0.183203
0.183205
0.183206
0.183208
0.183209
0.18321
0.183212
0.183213
0.183215
0.183216
0.183218
0.183219
0.183221
0.183222
0.183224
0.183225
0.183227
0.183228
0.18323
0.183231
0.183233
0.183234
0.183236
0.183237
0.183239
0.18324
0.183242
0.183243
0.183245
0.183246
0.183248
0.183249
0.18325
0.183252
0.183253
0.183255
0.183256
0.183258
0.183259
0.18326
0.183262
0.183263
0.183265
0.183266
0.183267
0.183269
0.18327
0.183271
0.183273
0.183274
0.183275
0.183277
0.183278
0.183279
0.18328
0.183282
0.183283
0.183284
0.183285
0.183287
0.183288
0.183289
0.18329
0.183292
0.183293
0.183294
0.183295
0.183296
0.183298
0.183299
0.1833
0.183301
0.183302
0.183303
0.183305
0.183306
0.183307
0.183308
0.183309
0.18331
0.183311
0.183312
0.183314
0.183315
0.183316
0.183317
0.183318
0.183319
0.18332
0.183321
0.183322
0.183323
0.183325
0.183326
0.183327
0.183328
0.183329
0.18333
0.183331
0.183332
0.183333
0.183335
0.183336
0.183337
0.183338
0.183339
0.183341
0.183342
0.183343
0.183344
0.183346
0.183347
0.183348
0.183349
0.183351
0.183352
0.183353
0.183355
0.183356
0.183358
0.183359
0.183361
0.183362
0.183364
0.183365
0.183367
0.183368
0.18337
0.183372
0.183373
0.183375
0.183377
0.183378
0.18338
0.183382
0.183384
0.183385
0.183387
0.183389
0.183391
0.183393
0.183395
0.183397
0.183399
0.183401
0.183403
0.183405
0.183407
0.183409
0.183411
0.183414
0.183416
0.183418
0.18342
0.183423
0.183425
0.183427
0.18343
0.183432
0.183435
0.183437
0.18344
0.183442
0.183445
0.183447
0.18345
0.183453
0.183455
0.183458
0.183461
0.183464
0.183467
0.18347
0.183473
0.183476
0.183479
0.183482
0.183485
0.183488
0.183491
0.183494
0.183497
0.183501
0.183504
0.183507
0.183511
0.183514
0.183518
0.183521
0.183525
0.183528
0.183532
0.183536
0.183539
0.183543
0.183547
0.183551
0.183555
0.183559
0.183563
0.183567
0.183571
0.183575
0.183579
0.183584
0.183588
0.183592
0.183597
0.183601
0.183606
0.18361
0.183615
0.18362
0.183625
0.18363
0.183635
0.18364
0.183645
0.18365
0.183655
0.18366
0.183666
0.183671
0.183677
0.183682
0.183688
0.183693
0.183699
0.183705
0.183711
0.183716
0.183722
0.183728
0.183734
0.18374
0.183746
0.183752
0.183759
0.183765
0.183771
0.183777
0.183783
0.18379
0.183796
0.183803
0.183809
0.183815
0.183822
0.183828
0.183835
0.183842
0.183848
0.183855
0.183861
0.183868
0.183875
0.183882
0.183889
0.183895
0.183902
0.183909
0.183916
0.183923
0.18393
0.183937
0.183944
0.183951
0.183958
0.183965
0.183973
0.18398
0.183987
0.183994
0.184002
0.184009
0.184016
0.184023
0.184031
0.184038
0.184046
0.184053
0.18406
0.184068
0.184075
0.184083
0.18409
0.184098
0.184105
0.184113
0.18412
0.184128
0.184135
0.184143
0.184151
0.184158
0.184166
0.184173
0.184181
0.184188
0.184196
0.184204
0.184211
0.184219
0.184226
0.184234
0.184242
0.184249
0.184257
0.184264
0.184272
0.18428
0.184287
0.184295
0.184303
0.18431
0.184318
0.184326
0.184333
0.184341
0.184349
0.184357
0.184364
0.184372
0.18438
0.184388
0.184396
0.184404
0.184412
0.18442
0.184427
0.184435
0.184443
0.184451
0.18446
0.184468
0.184476
0.184484
0.184492
0.1845
0.184508
0.184517
0.184525
0.184533
0.184541
0.18455
0.184558
0.184566
0.184575
0.184583
0.184592
0.1846
0.184609
0.184617
0.184626
0.184634
0.184643
0.184652
0.18466
0.184669
0.184678
0.184686
0.184695
0.184704
0.184713
0.184721
0.18473
0.184739
0.184748
0.184757
0.184766
0.184775
0.184784
0.184793
0.184802
0.184811
0.18482
0.184829
0.184838
0.184847
0.184856
0.184865
0.184874
0.184883
0.184892
0.184902
0.184911
0.18492
0.184929
0.184938
0.184948
0.184957
0.184966
0.184975
0.184985
0.184994
0.185003
0.185013
0.185022
0.185031
0.185041
0.18505
0.185059
0.185069
0.185078
0.185087
0.185097
0.185106
0.185115
0.185125
0.185134
0.185144
0.185153
0.185162
0.185172
0.185181
0.185191
0.1852
0.185209
0.185219
0.185228
0.185238
0.185247
0.185256
0.185266
0.185275
0.185285
0.185294
0.185303
0.185313
0.185322
0.185332
0.185341
0.18535
0.18536
0.185369
0.185378
0.185388
0.185397
0.185406
0.185416
0.185425
0.185434
0.185444
0.185453
0.185462
0.185472
0.185481
0.18549
0.1855
0.185509
0.185518
0.185527
0.185537
0.185546
0.185555
0.185564
0.185574
0.185583
0.185592
0.185601
0.185611
0.18562
0.185629
0.185638
0.185647
0.185657
0.185666
0.185675
0.185684
0.185693
0.185702
0.185712
0.185721
0.18573
0.185739
0.185748
0.185757
0.185766
0.185776
0.185785
0.185794
0.185803
0.185812
0.185821
0.18583
0.185839
0.185849
0.185858
0.185867
0.185876
0.185885
0.185894
0.185903
0.185912
0.185921
0.185931
0.18594
0.185949
0.185958
0.185967
0.185976
0.185985
0.185994
0.186003
0.186013
0.186022
0.186031
0.18604
0.186049
0.186058
0.186067
0.186077
0.186086
0.186095
0.186104
0.186113
0.186122
0.186132
0.186141
0.18615
0.186159
0.186168
0.186178
0.186187
0.186196
0.186205
0.186215
0.186224
0.186233
0.186243
0.186252
0.186261
0.186271
0.18628
0.186289
0.186299
0.186308
0.186317
0.186327
0.186336
0.186345
0.186355
0.186364
0.186374
0.186383
0.186393
0.186402
0.186412
0.186421
0.186431
0.18644
0.18645
0.186459
0.186469
0.186478
0.186488
0.186498
0.186507
0.186517
0.186527
0.186536
0.186546
0.186556
0.186565
0.186575
0.186585
0.186594
0.186604
0.186614
0.186624
0.186633
0.186643
0.186653
0.186663
0.186673
0.186683
0.186692
0.186702
0.186712
0.186722
0.186732
0.186742
0.186752
0.186762
0.186772
0.186782
0.186792
0.186801
0.186811
0.186821
0.186831
0.186841
0.186851
0.186861
0.186871
0.186881
0.186892
0.186902
0.186912
0.186922
0.186932
0.186942
0.186952
0.186962
0.186972
0.186982
0.186992
0.187002
0.187012
0.187023
0.187033
0.187043
0.187053
0.187063
0.187073
0.187083
0.187093
0.187103
0.187113
0.187124
0.187134
0.187144
0.187154
0.187164
0.187174
0.187184
0.187194
0.187204
0.187215
0.187225
0.187235
0.187245
0.187255
0.187265
0.187275
0.187285
0.187295
0.187305
0.187315
0.187325
0.187335
0.187345
0.187355
0.187365
0.187375
0.187385
0.187395
0.187405
0.187415
0.187425
0.187435
0.187445
0.187455
0.187465
0.187475
0.187485
0.187495
0.187505
0.187515
0.187525
0.187534
0.187544
0.187554
0.187564
0.187574
0.187584
0.187593
0.187603
0.187613
0.187623
0.187632
0.187642
0.187652
0.187662
0.187671
0.187681
0.187691
0.1877
0.18771
0.18772
0.187729
0.187739
0.187748
0.187758
0.187768
0.187777
0.187787
0.187796
0.187806
0.187815
0.187825
0.187834
0.187844
0.187853
0.187863
0.187872
0.187882
0.187891
0.187901
0.18791
0.18792
0.187929
0.187939
0.187948
0.187957
0.187967
0.187976
0.187986
0.187995
0.188004
0.188014
0.188023
0.188032
0.188042
0.188051
0.188061
0.18807
0.188079
0.188089
0.188098
0.188107
0.188117
0.188126
0.188135
0.188144
0.188154
0.188163
0.188172
0.188182
0.188191
0.1882
0.18821
0.188219
0.188228
0.188238
0.188247
0.188256
0.188266
0.188275
0.188284
0.188294
0.188303
0.188312
0.188322
0.188331
0.18834
0.18835
0.188359
0.188369
0.188378
0.188387
0.188397
0.188406
0.188415
0.188425
0.188434
0.188444
0.188453
0.188463
0.188472
0.188482
0.188491
0.1885
0.18851
0.188519
0.188529
0.188538
0.188548
0.188558
0.188567
0.188577
0.188586
0.188596
0.188605
0.188615
0.188625
0.188634
0.188644
0.188653
0.188663
0.188673
0.188682
0.188692
0.188702
0.188711
0.188721
0.188731
0.188741
0.18875
0.18876
0.18877
0.18878
0.18879
0.188799
0.188809
0.188819
0.188829
0.188839
0.188849
0.188858
0.188868
0.188878
0.188888
0.188898
0.188908
0.188918
0.188928
0.188938
0.188948
0.188958
0.188968
0.188978
0.188988
0.188998
0.189008
0.189018
0.189028
0.189038
0.189048
0.189058
0.189068
0.189078
0.189088
0.189098
0.189108
0.189118
0.189129
0.189139
0.189149
0.189159
0.189169
0.189179
0.189189
0.189199
0.18921
0.18922
0.18923
0.18924
0.18925
0.18926
0.189271
0.189281
0.189291
0.189301
0.189311
0.189321
0.189332
0.189342
0.189352
0.189362
0.189372
0.189382
0.189393
0.189403
0.189413
0.189423
0.189433
0.189443
0.189454
0.189464
0.189474
0.189484
0.189494
0.189504
0.189514
0.189524
0.189535
0.189545
0.189555
0.189565
0.189575
0.189585
0.189595
0.189605
0.189615
0.189625
0.189635
0.189645
0.189656
0.189666
0.189676
0.189686
0.189696
0.189706
0.189716
0.189726
0.189736
0.189745
0.189755
0.189765
0.189775
0.189785
0.189795
0.189805
0.189815
0.189825
0.189835
0.189845
0.189854
0.189864
0.189874
0.189884
0.189894
0.189904
0.189913
0.189923
0.189933
0.189943
0.189953
0.189962
0.189972
0.189982
0.189991
0.190001
0.190011
0.190021
0.19003
0.19004
0.19005
0.190059
0.190069
0.190079
0.190088
0.190098
0.190108
0.190117
0.190127
0.190136
0.190146
0.190156
0.190165
0.190175
0.190184
0.190194
0.190204
0.190213
0.190223
0.190232
0.190242
0.190251
0.190261
0.19027
0.19028
0.19029
0.190299
0.190309
0.190318
0.190328
0.190337
0.190347
0.190356
0.190366
0.190375
0.190385
0.190394
0.190404
0.190413
0.190423
0.190432
0.190442
0.190452
0.190461
0.190471
0.19048
0.19049
0.190499
0.190509
0.190518
0.190528
0.190538
0.190547
0.190557
0.190566
0.190576
0.190586
0.190595
0.190605
0.190614
0.190624
0.190634
0.190643
0.190653
0.190663
0.190672
0.190682
0.190692
0.190701
0.190711
0.190721
0.19073
0.19074
0.19075
0.19076
0.190769
0.190779
0.190789
0.190799
0.190808
0.190818
0.190828
0.190838
0.190848
0.190857
0.190867
0.190877
0.190887
0.190897
0.190907
0.190917
0.190927
0.190936
0.190946
0.190956
0.190966
0.190976
0.190986
0.190996
0.191006
0.191016
0.191026
0.191036
0.191046
0.191056
0.191066
0.191076
0.191086
0.191096
0.191106
0.191116
0.191127
0.191137
0.191147
0.191157
0.191167
0.191177
0.191187
0.191197
0.191207
0.191218
0.191228
0.191238
0.191248
0.191258
0.191268
0.191279
0.191289
0.191299
0.191309
0.191319
0.19133
0.19134
0.19135
0.19136
0.19137
0.191381
0.191391
0.191401
0.191411
0.191422
0.191432
0.191442
0.191452
0.191462
0.191473
0.191483
0.191493
0.191503
0.191514
0.191524
0.191534
0.191544
0.191554
0.191565
0.191575
0.191585
0.191595
0.191605
0.191616
0.191626
0.191636
0.191646
0.191656
0.191667
0.191677
0.191687
0.191697
0.191707
0.191717
0.191728
0.191738
0.191748
0.191758
0.191768
0.191778
0.191788
0.191798
0.191808
0.191819
0.191829
0.191839
0.191849
0.191859
0.191869
0.191879
0.191889
0.191899
0.191909
0.191919
0.191929
0.191939
0.191949
0.191959
0.191969
0.191979
0.191989
0.191999
0.192009
0.192019
0.192029
0.192039
0.192049
0.192058
0.192068
0.192078
0.192088
0.192098
0.192108
0.192118
0.192128
0.192137
0.192147
0.192157
0.192167
0.192177
0.192187
0.192196
0.192206
0.192216
0.192226
0.192235
0.192245
0.192255
0.192265
0.192275
0.192284
0.192294
0.192304
0.192314
0.192323
0.192333
0.192343
0.192352
0.192362
0.192372
0.192382
0.192391
0.192401
0.192411
0.192421
0.19243
0.19244
0.19245
0.192459
0.192469
0.192479
0.192489
0.192498
0.192508
0.192518
0.192527
0.192537
0.192547
0.192557
0.192566
0.192576
0.192586
0.192595
0.192605
0.192615
0.192625
0.192634
0.192644
0.192654
0.192664
0.192673
0.192683
0.192693
0.192703
0.192713
0.192722
0.192732
0.192742
0.192752
0.192762
0.192771
0.192781
0.192791
0.192801
0.192811
0.192821
0.19283
0.19284
0.19285
0.19286
0.19287
0.19288
0.19289
0.1929
0.19291
0.192919
0.192929
0.192939
0.192949
0.192959
0.192969
0.192979
0.192989
0.192999
0.193009
0.193019
0.193029
0.193039
0.193049
0.193059
0.193069
0.193079
0.193089
0.193099
0.19311
0.19312
0.19313
0.19314
0.19315
0.19316
0.19317
0.19318
0.19319
0.193201
0.193211
0.193221
0.193231
0.193241
0.193251
0.193262
0.193272
0.193282
0.193292
0.193302
0.193313
0.193323
0.193333
0.193343
0.193353
0.193364
0.193374
0.193384
0.193394
0.193405
0.193415
0.193425
0.193435
0.193446
0.193456
0.193466
0.193476
0.193487
0.193497
0.193507
0.193517
0.193528
0.193538
0.193548
0.193559
0.193569
0.193579
0.193589
0.1936
0.19361
0.19362
0.193631
0.193641
0.193651
0.193661
0.193672
0.193682
0.193692
0.193702
0.193713
0.193723
0.193733
0.193743
0.193754
0.193764
0.193774
0.193784
0.193795
0.193805
0.193815
0.193825
0.193835
0.193846
0.193856
0.193866
0.193876
0.193886
0.193897
0.193907
0.193917
0.193927
0.193937
0.193947
0.193957
0.193968
0.193978
0.193988
0.193998
0.194008
0.194018
0.194028
0.194038
0.194049
0.194059
0.194069
0.194079
0.194089
0.194099
0.194109
0.194119
0.194129
0.194139
0.194149
0.194159
0.194169
0.194179
0.194189
0.194199
0.194209
0.194219
0.194229
0.194239
0.194249
0.194259
0.194269
0.194279
0.194289
0.194299
0.194309
0.194319
0.194329
0.194339
0.194349
0.194358
0.194368
0.194378
0.194388
0.194398
0.194408
0.194418
0.194428
0.194438
0.194448
0.194458
0.194467
0.194477
0.194487
0.194497
0.194507
0.194517
0.194527
0.194537
0.194547
0.194557
0.194566
0.194576
0.194586
0.194596
0.194606
0.194616
0.194626
0.194636
0.194646
0.194656
0.194666
0.194675
0.194685
0.194695
0.194705
0.194715
0.194725
0.194735
0.194745
0.194755
0.194765
0.194775
0.194785
0.194795
0.194805
0.194815
0.194825
0.194835
0.194845
0.194855
0.194865
0.194875
0.194885
0.194895
0.194905
0.194915
0.194925
0.194935
0.194945
0.194955
0.194965
0.194975
0.194985
0.194996
0.195005
0.195016
0.195026
0.195036
0.195046
0.195056
0.195066
0.195077
0.195086
0.195097
0.195107
0.195117
0.195127
0.195138
0.195147
0.195158
0.195168
0.195179
0.195188
0.195199
0.195209
0.19522
0.195229
0.19524
0.195249
0.195261
0.19527
0.195281
0.19529
0.195302
0.195311
0.195323
0.195332
0.195343
0.195352
0.195364
0.195373
0.195384
0.195393
0.195405
0.195414
0.195426
0.195435
0.195446
0.195455
0.195467
0.195476
0.195488
0.195497
0.195508
0.195517
0.195529
0.195538
0.19555
0.195559
0.19557
0.195579
0.195591
0.1956
0.195612
0.195621
0.195632
0.195641
0.195653
0.195662
0.195674
0.195683
0.195694
0.195703
0.195715
0.195724
0.195736
0.195745
0.195756
0.195765
0.195777
0.195786
0.195798
0.195807
0.195818
0.195827
0.195839
0.195848
0.195859
0.195868
0.19588
0.195889
0.1959
0.195909
0.195921
0.19593
0.195941
0.19595
0.195962
0.195971
0.195982
0.195991
0.196003
0.196012
0.196023
0.196032
0.196043
0.196052
0.196064
0.196073
0.196084
0.196093
0.196104
0.196113
0.196125
0.196134
0.196145
0.196154
0.196165
0.196174
0.196185
0.196194
0.196206
0.196215
0.196226
0.196235
0.196246
0.196255
0.196266
0.196275
0.196286
0.196296
0.196306
0.196316
0.196326
0.196336
0.196346
0.196356
0.196366
0.196376
0.196386
0.196396
0.196407
0.196416
0.196427
0.196437
0.196447
0.196457
0.196467
0.196477
0.196487
0.196497
0.196507
0.196517
0.196527
0.196537
0.196547
0.196557
0.196567
0.196577
0.196587
0.196597
0.196607
0.196617
0.196627
0.196637
0.196648
0.196658
0.196668
0.196678
0.196688
0.196698
0.196708
0.196718
0.196728
0.196738
0.196748
0.196758
0.196768
0.196779
0.196789
0.196799
0.196809
0.196819
0.196829
0.196839
0.196849
0.19686
0.19687
0.19688
0.19689
0.1969
0.19691
0.196921
0.196931
0.196941
0.196951
0.196961
0.196972
0.196982
0.196992
0.197002
0.197012
0.197023
0.197033
0.197043
0.197053
0.197064
0.197074
0.197084
0.197095
0.197105
0.197115
0.197125
0.197136
0.197146
0.197156
0.197167
0.197177
0.197187
0.197198
0.197208
0.197218
0.197229
0.197239
0.197249
0.19726
0.19727
0.197281
0.197291
0.197301
0.197312
0.197322
0.197333
0.197343
0.197353
0.197364
0.197374
0.197385
0.197395
0.197405
0.197416
0.197426
0.197437
0.197447
0.197458
0.197468
0.197478
0.197489
0.197499
0.19751
0.19752
0.197531
0.197541
0.197551
0.197562
0.197572
0.197583
0.197593
0.197604
0.197614
0.197625
0.197635
0.197645
0.197656
0.197666
0.197677
0.197687
0.197698
0.197708
0.197718
0.197729
0.197739
0.19775
0.19776
0.19777
0.197781
0.197791
0.197802
0.197812
0.197822
0.197833
0.197843
0.197853
0.197864
0.197874
0.197885
0.197895
0.197905
0.197916
0.197926
0.197936
0.197947
0.197957
0.197967
0.197978
0.197988
0.197998
0.198009
0.198019
0.198029
0.198039
0.19805
0.19806
0.19807
0.198081
0.198091
0.198101
0.198111
0.198122
0.198132
0.198142
0.198152
0.198163
0.198173
0.198183
0.198193
0.198203
0.198214
0.198224
0.198234
0.198244
0.198254
0.198265
0.198275
0.198285
0.198295
0.198305
0.198316
0.198326
0.198336
0.198346
0.198356
0.198366
0.198377
0.198387
0.198397
0.198407
0.198417
0.198427
0.198438
0.198448
0.198458
0.198468
0.198478
0.198488
0.198499
0.198509
0.198519
0.198529
0.198539
0.198549
0.198559
0.19857
0.19858
0.19859
0.1986
0.19861
0.19862
0.198631
0.198641
0.198651
0.198661
0.198671
0.198682
0.198692
0.198702
0.198712
0.198722
0.198733
0.198743
0.198753
0.198763
0.198773
0.198784
0.198794
0.198804
0.198814
0.198825
0.198835
0.198845
0.198855
0.198866
0.198876
0.198886
0.198897
0.198907
0.198917
0.198927
0.198938
0.198948
0.198958
0.198969
0.198979
0.198989
0.199
0.19901
0.19902
0.199031
0.199041
0.199052
0.199062
0.199072
0.199083
0.199093
0.199104
0.199114
0.199124
0.199135
0.199145
0.199156
0.199166
0.199176
0.199187
0.199197
0.199208
0.199218
0.199229
0.199239
0.19925
0.19926
0.199271
0.199281
0.199292
0.199302
0.199313
0.199323
0.199334
0.199344
0.199355
0.199365
0.199376
0.199386
0.199397
0.199407
0.199418
0.199428
0.199439
0.199449
0.19946
0.19947
0.199481
0.199491
0.199502
0.199512
0.199523
0.199533
0.199544
0.199555
0.199565
0.199576
0.199586
0.199597
0.199607
0.199618
0.199628
0.199639
0.199649
0.19966
0.19967
0.199681
0.199691
0.199702
0.199712
0.199723
0.199733
0.199744
0.199754
0.199765
0.199775
0.199786
0.199796
0.199807
0.199817
0.199828
0.199838
0.199849
0.199859
0.199869
0.19988
0.19989
0.199901
0.199911
0.199922
0.199932
0.199943
0.199953
0.199963
0.199974
0.199984
0.199995
0.200005
0.200015
0.200026
0.200036
0.200047
0.200057
0.200067
0.200078
0.200088
0.200099
0.200109
0.200119
0.20013
0.20014