/*--------------------------------*- C++ -*----------------------------------*\
  =========                 |
  \\      /  F ield         | OpenFOAM: The Open Source CFD Toolbox
   \\    /   O peration     | Website:  https://openfoam.org
    \\  /    A nd           | Version:  9
     \\/     M anipulation  |
\*---------------------------------------------------------------------------*/
FoamFile
{
    format      ascii;
    class       volScalarField;
    location    "0.039";
    object      mag(U);
}
// * * * * * * * * * * * * * * * * * * * * * * * * * * * * * * * * * * * * * //

dimensions      [0 1 -1 0 0 0 0];

internalField   nonuniform List<scalar> 
1000
(
16.9713
17.3048
17.7112
18.045
18.3406
18.6355
18.9376
19.2426
19.5475
19.8517
20.1557
20.4597
20.7639
21.068
21.3722
21.6764
21.9807
22.2849
22.5891
22.8934
23.1977
23.502
23.8063
24.1107
24.415
24.7194
25.0238
25.3281
25.6325
25.9369
26.2413
26.5457
26.8502
27.1547
27.4592
27.7637
28.0683
28.3728
28.6774
28.982
29.2865
29.5911
29.8957
30.2002
30.5048
30.8094
31.114
31.4186
31.7231
32.0278
32.3325
32.6371
32.9417
33.2463
33.551
33.8556
34.1602
34.4649
34.7695
35.0741
35.3788
35.6834
35.988
36.2927
36.5973
36.9019
37.2066
37.5112
37.8158
38.1205
38.4251
38.7297
39.0343
39.3389
39.6435
39.948
40.2526
40.5572
40.8617
41.1663
41.4708
41.7753
42.0798
42.3843
42.6888
42.9933
43.2978
43.6022
43.9066
44.211
44.5154
44.8198
45.1241
45.4285
45.7328
46.0371
46.3413
46.6456
46.9498
47.254
47.5582
47.8623
48.1664
48.4705
48.7745
49.0786
49.3826
49.6865
49.9905
50.2943
50.5982
50.902
51.2058
51.5095
51.8132
52.1169
52.4205
52.7241
53.0276
53.3311
53.6346
53.938
54.2413
54.5446
54.8478
55.151
55.4541
55.7572
56.0602
56.3632
56.6661
56.9689
57.2717
57.5744
57.877
58.1796
58.4821
58.7845
59.0869
59.3892
59.6914
59.9935
60.2956
60.5975
60.8994
61.2012
61.5029
61.8045
62.106
62.4074
62.7088
63.01
63.3111
63.6122
63.9131
64.2139
64.5146
64.8152
65.1156
65.416
65.7162
66.0163
66.3163
66.6162
66.9159
67.2155
67.5149
67.8142
68.1134
68.4124
68.7113
69.01
69.3085
69.6069
69.9051
70.2032
70.5011
70.7988
71.0963
71.3937
71.6908
71.9878
72.2846
72.5811
72.8775
73.1736
73.4696
73.7653
74.0608
74.3561
74.6511
74.9459
75.2404
75.5347
75.8288
76.1226
76.4161
76.7093
77.0023
77.2949
77.5873
77.8794
78.1712
78.4627
78.7538
79.0446
79.3351
79.6253
79.9151
80.2046
80.4937
80.7824
81.0708
81.3588
81.6464
81.9336
82.2204
82.5068
82.7927
83.0783
83.3634
83.648
83.9322
84.216
84.4993
84.782
85.0643
85.3461
85.6274
85.9081
86.1885
86.4686
86.7482
87.027
87.3049
87.5821
87.8585
88.1343
88.4093
88.6837
88.9574
89.2304
89.5027
89.7743
90.0451
90.3152
90.5846
90.8532
91.1209
91.3879
91.654
91.9193
92.1837
92.4472
92.7098
92.9715
93.2323
93.4921
93.7509
94.0087
94.2655
94.5213
94.776
95.0297
95.2823
95.5337
95.784
96.0332
96.2812
96.5281
96.7737
97.0181
97.2613
97.5032
97.7438
97.9832
98.2212
98.4579
98.6933
98.9272
99.1598
99.391
99.6208
99.8492
100.076
100.302
100.525
100.748
100.969
101.188
101.406
101.623
101.838
102.051
102.263
102.473
102.682
102.889
103.094
103.298
103.501
103.702
103.901
104.099
104.295
104.489
104.682
104.874
105.064
105.252
105.439
105.625
105.809
105.992
106.173
106.353
106.531
106.708
106.884
107.058
107.231
107.403
107.574
107.743
107.911
108.078
108.244
108.409
108.573
108.736
108.898
109.059
109.219
109.378
109.536
109.693
109.85
110.006
110.161
110.316
110.47
110.623
110.775
110.927
111.079
111.23
111.381
111.531
111.68
111.83
111.979
112.127
112.275
112.423
112.571
112.718
112.865
113.012
113.159
113.306
113.452
113.598
113.744
113.89
114.036
114.181
114.327
114.472
114.618
114.763
114.908
115.054
115.199
115.344
115.489
115.634
115.779
115.924
116.069
116.214
116.359
116.505
116.65
116.795
116.94
117.085
117.23
117.375
117.52
117.665
117.81
117.956
118.101
118.246
118.391
118.537
118.682
118.827
118.973
119.118
119.264
119.409
119.555
119.7
119.846
119.992
120.137
120.283
120.429
120.574
120.72
120.866
121.012
121.158
121.304
121.45
121.596
121.742
121.888
122.034
122.18
122.327
122.473
122.619
122.766
122.912
123.058
123.205
123.351
123.498
123.644
123.791
123.938
124.084
124.231
124.378
124.525
124.671
124.818
124.965
125.112
125.259
125.406
125.553
125.7
125.848
125.995
126.142
126.289
126.437
126.584
126.731
126.879
127.026
127.174
127.321
127.469
127.616
127.764
127.912
128.06
128.207
128.355
128.503
128.651
128.799
128.947
129.095
129.243
129.391
129.539
129.687
129.836
129.984
130.132
130.28
130.429
130.577
130.726
130.874
131.023
131.171
131.32
131.469
131.617
131.766
131.915
132.063
132.212
132.361
132.51
132.659
132.808
132.957
133.106
133.255
133.404
133.554
133.703
133.852
134.001
134.151
134.3
134.449
134.599
134.748
134.898
135.047
135.197
135.347
135.496
135.646
135.796
135.946
136.095
136.245
136.395
136.545
136.695
136.845
136.995
137.145
137.295
137.445
137.596
137.746
137.896
138.047
138.197
138.347
138.498
138.648
138.799
138.949
139.1
139.25
139.401
139.552
139.702
139.853
140.004
140.155
140.306
140.457
140.608
140.759
140.91
141.061
141.212
141.363
141.514
141.665
141.816
141.968
142.119
142.27
142.422
142.573
142.725
142.876
143.028
143.179
143.331
143.483
143.634
143.786
143.938
144.09
144.241
144.393
144.545
144.697
144.849
145.001
145.153
145.305
145.457
145.61
145.762
145.914
146.066
146.219
146.371
146.523
146.676
146.828
146.981
147.133
147.286
147.439
147.591
147.744
147.897
148.049
148.202
148.355
148.508
148.661
148.814
148.967
149.12
149.273
149.426
149.579
149.732
149.885
150.038
150.192
150.345
150.498
150.652
150.805
150.959
151.112
151.266
151.419
151.573
151.726
151.88
152.034
152.187
152.341
152.495
152.649
152.803
152.957
153.111
153.265
153.419
153.573
153.727
153.881
154.035
154.189
154.343
154.498
154.652
154.806
154.961
155.115
155.27
155.424
155.579
155.733
155.888
156.042
156.197
156.352
156.507
156.661
156.816
156.971
157.126
157.281
157.436
157.591
157.746
157.901
158.056
158.211
158.366
158.521
158.677
158.832
158.987
159.142
159.298
159.453
159.609
159.764
159.92
160.075
160.231
160.386
160.542
160.698
160.854
161.009
161.165
161.321
161.477
161.633
161.789
161.945
162.101
162.257
162.413
162.569
162.725
162.881
163.037
163.194
163.35
163.506
163.663
163.819
163.975
164.132
164.288
164.445
164.601
164.758
164.915
165.071
165.228
165.385
165.542
165.698
165.855
166.012
166.169
166.326
166.483
166.64
166.797
166.954
167.111
167.268
167.425
167.582
167.739
167.897
168.054
168.211
168.368
168.526
168.683
168.841
168.998
169.155
169.313
169.47
169.628
169.786
169.943
170.101
170.259
170.417
170.574
170.732
170.89
171.048
171.206
171.364
171.522
171.68
171.838
171.996
172.155
172.313
172.471
172.629
172.788
172.946
173.104
173.263
173.421
173.579
173.738
173.896
174.055
174.213
174.372
174.53
174.688
174.847
175.005
175.163
175.322
175.48
175.638
175.796
175.954
176.112
176.27
176.428
176.586
176.743
176.901
177.058
177.215
177.372
177.528
177.685
177.841
177.997
178.153
178.308
178.463
178.618
178.773
178.927
179.08
179.234
179.386
179.539
179.691
179.842
179.993
180.143
180.293
180.442
180.59
180.738
180.885
181.032
181.177
181.322
181.467
181.61
181.753
181.895
182.036
182.177
182.317
182.456
182.594
182.731
182.868
183.004
183.139
183.274
183.408
183.541
183.674
183.806
183.937
184.068
184.199
184.329
184.459
184.589
184.718
184.847
184.976
185.105
185.234
185.362
185.491
185.62
185.75
185.879
186.009
186.139
186.269
186.4
186.532
186.664
186.796
186.93
187.063
187.198
187.333
187.469
187.606
187.743
187.881
188.021
188.16
188.301
188.442
188.585
188.728
188.872
189.016
189.161
189.308
189.454
189.602
189.75
189.899
190.049
190.199
190.35
190.502
190.654
190.806
190.96
191.113
191.268
191.422
191.577
191.733
191.889
192.045
192.202
192.359
192.516
192.674
192.831
192.99
193.148
193.307
193.466
193.625
193.785
193.944
194.104
194.265
194.425
194.585
194.746
194.907
195.068
195.229
195.391
195.552
195.714
195.876
196.038
196.2
196.362
196.524
196.686
196.849
197.011
197.173
197.335
197.497
197.659
197.821
197.983
198.144
198.305
198.465
198.625
198.784
198.942
199.1
199.256
199.411
199.565
199.717
199.867
200.016
200.162
200.307
200.448
200.588
200.724
200.857
200.988
201.115
201.239
201.359
201.476
201.589
201.699
201.805
201.908
202.008
202.104
202.198
202.289
202.378
202.464
202.549
202.632
202.714
202.795
202.876
202.956
203.037
203.118
203.2
203.283
203.367
203.452
203.539
203.628
203.718
203.81
203.904
204.001
204.099
204.199
204.301
204.406
204.512
204.62
204.73
204.841
204.955
205.07
205.187
205.306
205.426
205.547
205.67
205.795
205.921
206.048
206.177
206.307
206.438
206.57
206.705
206.84
206.98
207.265
)
;

boundaryField
{
    sides
    {
        type            calculated;
        value           nonuniform List<scalar> 2(207.265 16.9713);
    }
    empty
    {
        type            empty;
    }
}


// ************************************************************************* //
