/*--------------------------------*- C++ -*----------------------------------*\
  =========                 |
  \\      /  F ield         | OpenFOAM: The Open Source CFD Toolbox
   \\    /   O peration     | Website:  https://openfoam.org
    \\  /    A nd           | Version:  9
     \\/     M anipulation  |
\*---------------------------------------------------------------------------*/
FoamFile
{
    format      ascii;
    class       volScalarField;
    location    "0.001";
    object      mag(U);
}
// * * * * * * * * * * * * * * * * * * * * * * * * * * * * * * * * * * * * * //

dimensions      [0 1 -1 0 0 0 0];

internalField   nonuniform List<scalar> 
1000
(
4.36888e-13
3.69925e-13
3.10025e-13
3.74274e-13
4.2435e-13
3.6047e-13
3.39451e-13
2.71305e-13
2.29355e-13
2.50676e-13
2.59322e-13
2.51799e-13
2.5586e-13
2.4782e-13
2.00748e-13
2.49128e-13
3.1584e-13
3.53285e-13
3.92353e-13
4.05319e-13
4.33189e-13
5.07783e-13
5.00282e-13
4.83733e-13
3.35293e-13
2.42672e-13
2.34451e-13
2.29815e-13
2.47113e-13
2.13878e-13
1.41862e-13
6.0781e-14
4.09889e-14
3.9735e-14
1.96229e-14
2.03929e-14
3.61841e-14
4.00793e-14
9.83288e-15
1.20564e-14
1.07792e-14
2.86198e-14
8.94853e-14
1.32603e-13
7.86346e-14
5.88799e-14
8.26995e-14
4.91951e-14
2.47384e-14
4.82526e-14
9.50518e-14
6.22271e-14
9.85964e-14
9.94919e-14
8.26592e-14
5.16494e-14
3.37293e-15
8.18432e-15
2.33327e-14
2.78241e-14
2.03929e-14
2.79829e-14
4.00793e-14
9.83288e-15
1.20564e-14
1.07792e-14
2.86198e-14
8.94853e-14
1.32603e-13
6.22323e-14
2.60753e-14
2.52915e-14
8.21291e-15
8.33606e-15
3.18503e-14
3.76438e-14
3.76236e-14
8.38377e-15
8.30897e-14
9.08603e-14
1.8573e-14
2.86626e-14
2.44188e-14
7.52398e-14
8.77751e-14
2.11458e-14
1.09188e-14
8.69733e-15
4.94583e-14
1.28243e-14
1.95108e-14
4.57261e-14
1.38189e-14
9.23564e-14
1.26824e-13
1.3997e-13
1.91406e-13
2.10127e-13
1.75824e-13
1.90118e-13
1.7732e-13
1.45342e-13
1.61099e-13
8.42146e-14
4.63693e-14
1.0839e-13
3.85744e-14
3.26463e-16
8.45643e-14
1.03078e-13
1.21761e-13
1.64781e-13
1.5207e-13
1.21584e-13
9.51148e-14
6.42702e-14
3.55451e-14
1.69242e-15
1.04901e-14
1.18857e-14
1.5077e-14
8.28776e-14
1.2323e-13
1.82299e-13
2.21337e-13
2.18535e-13
1.78198e-13
2.41053e-13
3.28415e-13
3.51781e-13
2.92401e-13
1.80371e-13
6.11954e-14
9.32484e-14
1.49406e-13
1.48691e-13
7.36614e-14
5.26532e-14
1.34268e-13
1.44073e-13
5.88757e-14
1.37284e-14
6.38952e-14
2.19778e-14
2.00014e-14
5.87333e-14
1.55362e-14
1.61896e-14
1.82764e-14
2.45098e-14
7.67062e-14
1.00641e-13
1.44401e-13
1.63654e-13
1.40288e-13
1.58662e-13
1.23071e-13
4.54195e-14
6.04438e-14
5.91931e-14
1.74728e-14
4.11547e-14
7.0364e-14
1.28169e-13
1.34766e-13
9.7117e-14
6.88803e-14
2.26324e-14
1.32006e-14
5.28922e-14
3.05599e-14
1.8583e-14
5.05289e-14
2.26741e-14
5.68089e-14
1.84826e-14
9.0247e-15
7.8311e-14
1.18164e-13
6.53921e-14
5.08224e-14
1.54098e-14
2.21918e-14
5.95717e-14
4.27646e-14
6.62779e-14
2.40928e-14
2.23422e-14
9.37037e-14
1.17024e-13
7.20303e-14
4.22705e-14
7.89384e-14
7.71828e-14
2.66416e-14
3.56725e-14
6.13945e-14
4.06541e-14
1.14308e-13
1.83516e-13
1.40658e-13
7.90833e-14
3.00279e-14
1.33524e-13
1.72061e-13
1.8006e-13
8.49095e-14
6.64488e-14
5.22677e-14
2.3214e-15
3.66882e-14
1.30089e-13
1.04457e-13
1.08356e-13
8.27479e-14
1.18704e-13
1.39384e-13
1.20187e-13
8.67811e-14
1.26531e-13
1.704e-13
1.5969e-13
6.60084e-14
6.30999e-15
8.63909e-14
8.88908e-14
1.26617e-13
1.52996e-13
2.0797e-13
1.97358e-13
1.50393e-13
5.36105e-14
4.37669e-14
1.53548e-13
1.76665e-13
2.1642e-13
2.92046e-13
2.67704e-13
2.73017e-13
2.93482e-13
3.89219e-13
4.18474e-13
4.16339e-13
3.98169e-13
2.94486e-13
2.20407e-13
1.56644e-13
1.40158e-13
1.35921e-13
1.56931e-13
1.26857e-13
1.19583e-13
7.06278e-14
1.41898e-14
2.15547e-15
8.79262e-15
6.07406e-14
2.39663e-14
3.50529e-14
2.86331e-14
2.71007e-15
2.27223e-14
6.23264e-15
3.43095e-14
1.06954e-14
3.03803e-16
1.80138e-14
1.46401e-15
6.80858e-15
2.5562e-14
3.03982e-15
7.81549e-15
6.51735e-14
4.46748e-14
7.50991e-15
2.04434e-14
8.51146e-14
1.59186e-13
2.64294e-13
2.93426e-13
2.96568e-13
2.64859e-13
1.96161e-13
2.14891e-13
2.25097e-13
9.42602e-14
5.97516e-14
6.7848e-14
3.02206e-14
1.36908e-14
5.66921e-15
9.10899e-14
1.0733e-13
1.15683e-13
7.9022e-14
9.68079e-14
4.62288e-14
6.85485e-14
5.17407e-14
1.11162e-13
1.4687e-13
1.6251e-13
1.28117e-13
1.66321e-13
2.23124e-13
2.30941e-13
2.14805e-13
2.04613e-13
2.28206e-13
2.1574e-13
2.09117e-13
1.49033e-13
1.69307e-13
1.72703e-13
8.6468e-14
8.23488e-14
8.81549e-14
1.4345e-13
5.22775e-14
1.14609e-13
1.27123e-13
1.32994e-13
2.86514e-13
3.43907e-13
3.51602e-13
3.92942e-13
3.55786e-13
2.55848e-13
2.32497e-13
1.72933e-13
4.92085e-14
4.85639e-14
6.52128e-14
2.4905e-14
6.10825e-15
1.22779e-14
2.43051e-14
1.17203e-14
1.56508e-14
3.69172e-14
1.00385e-13
5.41347e-14
3.97263e-14
3.81206e-14
7.76009e-15
4.66029e-14
3.845e-14
2.7498e-14
1.09364e-13
7.78416e-14
8.36801e-14
1.18972e-13
7.06928e-14
7.31883e-14
3.17579e-14
6.64385e-14
2.58284e-14
5.25577e-15
4.77703e-15
6.33444e-14
5.46144e-14
2.51526e-14
4.44263e-14
1.1886e-17
4.58975e-14
5.69717e-14
1.82059e-14
5.0997e-15
9.09911e-15
2.27389e-14
4.84299e-14
7.51874e-14
3.15364e-14
9.11151e-15
6.8246e-14
4.73829e-14
1.0691e-13
1.22994e-13
1.07525e-13
6.30667e-14
5.61221e-14
1.8562e-14
6.76907e-14
1.01817e-13
9.21983e-14
6.91723e-14
3.31235e-14
3.24109e-14
6.19336e-14
9.02267e-14
8.92165e-14
7.02656e-14
1.93305e-14
4.18602e-14
6.75439e-14
7.31824e-14
7.95067e-16
5.76951e-14
1.2446e-13
9.51745e-14
1.2514e-14
1.35739e-15
2.00284e-15
3.30828e-14
5.94575e-14
2.72844e-14
8.17716e-14
9.7955e-14
9.35596e-14
1.41083e-13
1.27812e-13
1.8287e-13
1.67167e-13
3.90984e-14
7.91045e-15
5.11792e-14
4.81576e-14
6.02162e-14
1.19306e-13
1.49107e-13
1.39126e-13
1.471e-13
1.64336e-13
1.51864e-13
1.69107e-13
1.12149e-13
1.83706e-14
3.50911e-15
4.11394e-14
1.5481e-14
1.03267e-13
8.14802e-14
5.72163e-14
2.64676e-14
1.81794e-14
9.47619e-15
2.67197e-14
1.0154e-13
1.96678e-13
3.91462e-13
1.38111e-12
6.26848e-12
2.89459e-11
1.31119e-10
5.80427e-10
2.51871e-09
1.0658e-08
4.39658e-08
1.76768e-07
6.92209e-07
2.63863e-06
9.78464e-06
3.52709e-05
0.000123491
0.000419551
0.00138163
0.00440462
0.0135731
0.0403596
0.115562
0.3179
0.838432
2.11941
5.16228
11.9964
23.2036
34.7422
44.7487
53.7061
62.1412
70.33
78.3955
86.3902
94.3388
102.255
110.148
118.024
125.889
133.747
141.602
149.456
157.312
165.173
173.039
180.913
188.793
196.682
204.579
212.483
220.391
228.301
236.208
244.105
251.98
259.813
267.571
275.108
282.192
288.159
291.939
293.34
293.319
292.86
293.384
293.626
293.704
293.702
293.638
293.648
293.694
293.676
293.621
293.598
293.676
293.753
293.714
293.539
293.439
293.405
293.386
293.427
293.455
293.502
293.497
293.368
293.293
293.302
293.397
293.871
294.214
287.95
291.451
296.697
298.913
297.747
292.292
290.125
289.803
289.649
289.659
290.564
293.979
296.76
297.159
296.845
294.911
290.516
289.287
289.15
289.381
290.952
295.868
297.55
296.856
284.839
184.232
22.4983
1.54616
0.101393
0.00666315
0.000439826
2.92274e-05
1.95841e-06
1.32481e-07
9.05118e-09
6.24047e-10
4.32782e-11
3.01555e-12
2.53926e-13
4.26903e-14
6.81538e-14
3.0353e-14
1.0436e-13
1.23107e-13
4.23979e-15
1.01577e-13
1.1944e-13
8.6294e-14
1.26182e-13
1.10392e-13
5.16112e-14
5.95408e-14
6.42825e-14
6.06957e-14
4.45405e-14
3.75233e-14
8.18833e-15
8.76913e-14
4.64137e-14
8.39813e-14
4.67354e-14
2.97293e-14
2.00724e-14
5.99317e-14
1.51915e-13
7.97669e-14
1.21189e-13
1.3313e-13
1.79104e-13
1.00722e-13
3.1211e-14
7.68789e-14
5.87256e-14
1.5037e-14
3.93266e-14
2.47238e-15
7.78059e-15
4.58598e-14
2.89457e-14
3.09907e-14
2.89457e-14
4.86815e-14
1.56968e-14
1.07902e-14
2.82547e-14
1.07167e-13
2.10672e-13
2.28256e-13
2.5851e-13
3.18865e-13
3.13903e-13
2.89829e-13
2.13214e-13
1.5288e-13
1.32325e-13
1.59795e-13
2.61726e-13
3.52958e-13
2.47179e-13
1.48397e-13
1.84947e-13
2.1165e-13
1.39645e-13
4.23995e-14
9.62943e-14
1.61696e-13
1.72625e-13
2.48783e-14
5.67335e-14
2.51125e-14
1.44771e-13
1.39462e-13
1.29593e-13
1.13069e-13
4.58953e-14
8.43041e-14
1.29946e-13
4.13095e-14
3.72638e-15
8.99793e-14
1.23645e-13
2.09777e-13
1.60615e-13
7.2439e-14
4.01153e-14
1.42367e-13
1.0402e-13
1.69822e-14
2.27954e-14
1.11998e-13
1.25928e-13
2.90103e-14
8.12902e-14
1.63953e-13
1.72088e-13
6.67099e-14
9.03286e-14
1.31195e-13
2.49462e-13
1.89118e-13
1.20122e-13
3.14641e-14
9.72247e-14
9.18886e-14
2.4566e-14
3.22782e-14
1.87093e-14
1.28785e-14
2.56476e-14
6.45417e-15
7.34576e-14
1.12432e-13
1.43303e-16
1.00573e-13
3.47371e-14
5.24915e-14
3.42882e-15
7.28571e-14
7.86905e-16
1.7844e-14
8.9293e-14
8.10376e-14
1.38188e-16
8.43402e-14
3.2809e-14
4.67061e-14
1.83364e-13
1.16954e-13
1.19554e-13
6.52369e-15
1.07219e-13
1.70005e-13
9.93198e-14
1.6186e-13
2.67418e-13
3.77396e-13
3.32725e-13
1.87372e-13
8.17306e-14
1.1087e-13
9.21952e-15
1.81654e-14
1.40757e-13
2.20224e-13
1.99328e-13
1.48026e-13
1.29063e-13
7.60966e-14
9.60621e-14
1.24562e-13
4.28669e-14
9.09212e-14
1.27932e-13
5.69852e-14
6.29884e-15
5.68922e-14
8.68046e-14
1.34012e-13
2.04134e-13
1.77042e-13
4.12571e-14
6.98557e-14
1.81243e-13
1.29708e-13
1.67576e-13
1.05464e-13
1.00853e-13
1.91784e-14
7.45385e-14
1.37329e-14
1.69048e-14
7.09982e-14
1.05374e-14
5.7928e-15
5.75109e-15
7.97497e-14
9.14433e-14
5.37493e-14
1.72297e-13
1.05182e-13
3.22549e-14
1.97367e-14
1.10063e-13
5.75177e-14
5.86192e-15
9.58358e-14
2.57517e-13
3.96494e-13
3.95851e-13
3.34439e-13
2.1355e-13
1.57119e-13
1.02398e-13
9.57682e-14
2.55642e-13
2.04798e-13
1.2963e-13
2.48014e-13
1.61167e-13
8.86445e-14
2.96087e-14
9.16956e-14
1.61248e-13
1.31045e-13
8.66587e-15
9.11485e-15
7.0462e-14
1.26615e-13
1.50421e-13
1.47468e-13
1.08383e-13
1.70239e-13
1.2915e-13
1.04526e-13
1.76022e-13
1.9101e-13
9.69392e-14
8.12928e-14
9.05694e-14
3.59312e-14
9.24047e-14
1.66384e-13
2.02801e-13
1.57319e-13
1.46441e-13
7.55312e-14
3.46788e-14
1.43135e-13
1.05595e-13
1.71887e-13
2.04195e-13
1.18489e-13
1.26657e-14
5.24009e-14
7.41822e-14
2.28859e-14
1.16995e-13
1.08542e-13
5.74371e-14
3.79841e-14
1.50586e-14
3.15246e-14
1.81027e-16
7.32331e-14
8.21142e-14
1.75759e-14
1.08152e-13
3.09019e-14
4.7672e-14
1.18579e-13
1.15807e-13
6.774e-14
3.29232e-14
7.39385e-14
8.77728e-14
5.00357e-14
1.12615e-13
1.25355e-13
1.60388e-13
1.18861e-13
1.45721e-13
8.47401e-14
4.89484e-14
4.08082e-14
1.90396e-14
5.56683e-14
9.15744e-14
5.1613e-14
1.75481e-14
8.61296e-15
6.34517e-14
1.60848e-13
8.38075e-14
4.85767e-14
1.23048e-14
2.31475e-14
2.58637e-14
3.24505e-14
1.6453e-14
1.37053e-14
6.4866e-14
2.67193e-14
4.68693e-14
3.73708e-14
8.60565e-14
5.5508e-14
7.6539e-14
1.14558e-13
8.22092e-14
1.44984e-13
1.57562e-13
7.24488e-14
1.0082e-13
8.31574e-14
3.32164e-14
1.66181e-13
2.00003e-13
7.20146e-14
5.67778e-14
1.27121e-13
1.32675e-13
1.07875e-13
3.31587e-14
1.31269e-13
1.28522e-13
5.81514e-14
6.08538e-15
8.43492e-14
4.65162e-15
9.44487e-14
1.08436e-13
2.99899e-14
5.71416e-14
9.89615e-14
1.78287e-13
1.24902e-13
1.54408e-13
1.8659e-13
2.37869e-13
1.48705e-13
5.94253e-14
1.07813e-13
2.9471e-14
1.10861e-15
6.9524e-14
8.05559e-14
1.36904e-13
1.80899e-13
2.22036e-13
1.453e-13
9.69979e-14
9.07216e-14
1.27312e-13
7.45052e-14
1.11378e-13
9.47555e-14
3.70629e-14
3.89975e-14
1.33123e-13
1.78423e-13
1.38252e-13
9.79275e-14
8.4718e-14
4.03827e-14
9.67156e-15
4.65804e-14
4.13009e-14
1.89991e-14
4.12204e-14
9.17434e-14
1.24239e-13
2.24234e-13
2.64494e-13
2.42202e-13
2.80331e-13
2.37704e-13
1.61473e-13
7.02595e-14
1.75463e-13
1.14344e-13
1.02715e-13
8.60452e-14
2.79229e-14
1.33089e-13
1.62981e-13
3.99092e-14
7.23497e-15
5.1446e-14
7.15441e-15
1.01002e-13
1.75131e-13
1.544e-13
1.81941e-13
2.13654e-13
7.29581e-14
6.65725e-14
1.50423e-13
1.41562e-13
1.76593e-13
1.24509e-13
1.14686e-13
1.36869e-13
1.76875e-13
1.59061e-13
6.5137e-14
2.85036e-14
7.79779e-14
1.09934e-13
5.10778e-14
2.35611e-14
1.74989e-14
1.54361e-14
6.78483e-14
3.9959e-14
1.17404e-13
1.75131e-13
1.544e-13
1.81941e-13
2.13654e-13
7.29581e-14
6.65725e-14
1.50423e-13
1.41562e-13
1.76593e-13
2.55728e-13
1.96698e-13
1.20467e-13
2.92538e-14
1.14401e-14
1.07087e-13
2.1713e-13
3.0761e-13
3.88774e-13
4.03728e-13
4.25418e-13
3.76157e-13
2.86074e-13
2.81078e-13
2.12183e-13
1.5841e-13
1.0132e-13
1.21595e-13
9.18046e-14
6.5872e-14
4.89469e-14
5.03655e-14
7.69536e-14
1.17047e-13
5.24892e-14
5.77796e-16
)
;

boundaryField
{
    sides
    {
        type            calculated;
        value           nonuniform List<scalar> 2(5.77796e-16 4.36888e-13);
    }
    empty
    {
        type            empty;
    }
}


// ************************************************************************* //
