/*--------------------------------*- C++ -*----------------------------------*\
  =========                 |
  \\      /  F ield         | OpenFOAM: The Open Source CFD Toolbox
   \\    /   O peration     | Website:  https://openfoam.org
    \\  /    A nd           | Version:  9
     \\/     M anipulation  |
\*---------------------------------------------------------------------------*/
FoamFile
{
    format      ascii;
    class       volVectorField;
    location    "0.022";
    object      ddt0(rho,U);
}
// * * * * * * * * * * * * * * * * * * * * * * * * * * * * * * * * * * * * * //

dimensions      [1 -2 -2 0 0 0 0];

internalField   nonuniform List<vector> 
1000
(
(116.728 0 0)
(56.4232 0 0)
(24.4834 0 0)
(-4.80726 0 0)
(-39.6984 0 0)
(-77.016 0 0)
(-113.568 0 0)
(-149.142 0 0)
(-184.491 0 0)
(-219.96 0 0)
(-255.545 0 0)
(-291.279 0 0)
(-327 0 0)
(-362.193 0 0)
(-397.613 0 0)
(-432.994 0 0)
(-468.395 0 0)
(-503.814 0 0)
(-539.14 0 0)
(-574.437 0 0)
(-609.804 0 0)
(-645.206 0 0)
(-680.612 0 0)
(-716.023 0 0)
(-751.41 0 0)
(-786.791 0 0)
(-822.19 0 0)
(-857.578 0 0)
(-892.946 0 0)
(-928.326 0 0)
(-963.727 0 0)
(-999.118 0 0)
(-1034.48 0 0)
(-1069.83 0 0)
(-1105.21 0 0)
(-1140.61 0 0)
(-1176 0 0)
(-1211.39 0 0)
(-1246.76 0 0)
(-1282.11 0 0)
(-1317.47 0 0)
(-1352.83 0 0)
(-1388.18 0 0)
(-1423.54 0 0)
(-1458.89 0 0)
(-1494.23 0 0)
(-1529.58 0 0)
(-1564.91 0 0)
(-1600.24 0 0)
(-1635.56 0 0)
(-1670.89 0 0)
(-1706.21 0 0)
(-1741.51 0 0)
(-1776.81 0 0)
(-1812.11 0 0)
(-1847.41 0 0)
(-1882.71 0 0)
(-1918 0 0)
(-1953.27 0 0)
(-1988.53 0 0)
(-2023.78 0 0)
(-2059.03 0 0)
(-2094.28 0 0)
(-2129.53 0 0)
(-2164.77 0 0)
(-2200.01 0 0)
(-2235.25 0 0)
(-2270.47 0 0)
(-2305.69 0 0)
(-2340.9 0 0)
(-2376.09 0 0)
(-2411.28 0 0)
(-2446.46 0 0)
(-2481.64 0 0)
(-2516.8 0 0)
(-2551.96 0 0)
(-2587.11 0 0)
(-2622.26 0 0)
(-2657.4 0 0)
(-2692.53 0 0)
(-2727.65 0 0)
(-2762.77 0 0)
(-2797.88 0 0)
(-2832.98 0 0)
(-2868.06 0 0)
(-2903.13 0 0)
(-2938.19 0 0)
(-2973.24 0 0)
(-3008.28 0 0)
(-3043.31 0 0)
(-3078.33 0 0)
(-3113.34 0 0)
(-3148.34 0 0)
(-3183.34 0 0)
(-3218.32 0 0)
(-3253.3 0 0)
(-3288.27 0 0)
(-3323.23 0 0)
(-3358.18 0 0)
(-3393.13 0 0)
(-3428.08 0 0)
(-3463.03 0 0)
(-3497.98 0 0)
(-3532.94 0 0)
(-3567.9 0 0)
(-3602.86 0 0)
(-3637.82 0 0)
(-3672.76 0 0)
(-3707.7 0 0)
(-3742.62 0 0)
(-3777.51 0 0)
(-3812.38 0 0)
(-3847.22 0 0)
(-3882.03 0 0)
(-3916.81 0 0)
(-3951.57 0 0)
(-3986.31 0 0)
(-4021.03 0 0)
(-4055.73 0 0)
(-4090.42 0 0)
(-4125.1 0 0)
(-4159.77 0 0)
(-4194.43 0 0)
(-4229.09 0 0)
(-4263.75 0 0)
(-4298.39 0 0)
(-4333.04 0 0)
(-4367.66 0 0)
(-4402.32 0 0)
(-4436.88 0 0)
(-4471.58 0 0)
(-4506.02 0 0)
(-4540.87 0 0)
(-4575.02 0 0)
(-4610.22 0 0)
(-4643.83 0 0)
(-4679.62 0 0)
(-4712.55 0 0)
(-4748.8 0 0)
(-4781.73 0 0)
(-4817.25 0 0)
(-4851.48 0 0)
(-4885.49 0 0)
(-4919.98 0 0)
(-4954.64 0 0)
(-4988.98 0 0)
(-5023.18 0 0)
(-5057.96 0 0)
(-5091.62 0 0)
(-5127.51 0 0)
(-5158.67 0 0)
(-5197.72 0 0)
(-5226.22 0 0)
(-5265.56 0 0)
(-5297.25 0 0)
(-5329.86 0 0)
(-5370.23 0 0)
(-5395.96 0 0)
(-5437.35 0 0)
(-5469.5 0 0)
(-5498.71 0 0)
(-5542.75 0 0)
(-5567.03 0 0)
(-5604.5 0 0)
(-5644.5 0 0)
(-5666.99 0 0)
(-5710.7 0 0)
(-5742.68 0 0)
(-5770.33 0 0)
(-5815.25 0 0)
(-5840.48 0 0)
(-5875.01 0 0)
(-5917.03 0 0)
(-5939.69 0 0)
(-5980.4 0 0)
(-6016.75 0 0)
(-6039.65 0 0)
(-6085.49 0 0)
(-6116.15 0 0)
(-6139.96 0 0)
(-6189.42 0 0)
(-6216.08 0 0)
(-6240.62 0 0)
(-6291.61 0 0)
(-6316.9 0 0)
(-6341.77 0 0)
(-6392.08 0 0)
(-6417.53 0 0)
(-6444.04 0 0)
(-6492.34 0 0)
(-6516.38 0 0)
(-6545.51 0 0)
(-6595.26 0 0)
(-6615.82 0 0)
(-6642.32 0 0)
(-6697.87 0 0)
(-6720.43 0 0)
(-6739.3 0 0)
(-6793.49 0 0)
(-6824.43 0 0)
(-6841.64 0 0)
(-6891.05 0 0)
(-6924.13 0 0)
(-6940 0 0)
(-6990.81 0 0)
(-7029.49 0 0)
(-7036.74 0 0)
(-7081.75 0 0)
(-7135.02 0 0)
(-7144.37 0 0)
(-7173.28 0 0)
(-7229.19 0 0)
(-7249.01 0 0)
(-7270.64 0 0)
(-7328.29 0 0)
(-7355.17 0 0)
(-7362.02 0 0)
(-7416.43 0 0)
(-7466.5 0 0)
(-7469.82 0 0)
(-7501.11 0 0)
(-7560.67 0 0)
(-7577.36 0 0)
(-7594 0 0)
(-7656.01 0 0)
(-7690.76 0 0)
(-7687.87 0 0)
(-7732.4 0 0)
(-7795.37 0 0)
(-7804.71 0 0)
(-7820.51 0 0)
(-7883.18 0 0)
(-7915.63 0 0)
(-7912.93 0 0)
(-7960.39 0 0)
(-8027.27 0 0)
(-8033.22 0 0)
(-8039.66 0 0)
(-8104.38 0 0)
(-8146.85 0 0)
(-8141.73 0 0)
(-8179.36 0 0)
(-8251.42 0 0)
(-8265.65 0 0)
(-8259.97 0 0)
(-8317.97 0 0)
(-8378.4 0 0)
(-8375.87 0 0)
(-8391.1 0 0)
(-8465.12 0 0)
(-8502.99 0 0)
(-8487.51 0 0)
(-8521.78 0 0)
(-8599.82 0 0)
(-8618.8 0 0)
(-8607.64 0 0)
(-8662.68 0 0)
(-8733.56 0 0)
(-8731.97 0 0)
(-8727.2 0 0)
(-8796.29 0 0)
(-8857.37 0 0)
(-8846.52 0 0)
(-8855.03 0 0)
(-8932.81 0 0)
(-8981.27 0 0)
(-8962.33 0 0)
(-8978.87 0 0)
(-9060.22 0 0)
(-9101.79 0 0)
(-9080.99 0 0)
(-9103.85 0 0)
(-9187.02 0 0)
(-9224.22 0 0)
(-9201.8 0 0)
(-9225.52 0 0)
(-9307.87 0 0)
(-9344.34 0 0)
(-9322.55 0 0)
(-9345.06 0 0)
(-9426.57 0 0)
(-9466.1 0 0)
(-9446.14 0 0)
(-9465.18 0 0)
(-9545.14 0 0)
(-9589.34 0 0)
(-9570.42 0 0)
(-9582.02 0 0)
(-9658.64 0 0)
(-9710.58 0 0)
(-9695.48 0 0)
(-9697.8 0 0)
(-9768.17 0 0)
(-9829.32 0 0)
(-9821.8 0 0)
(-9814.34 0 0)
(-9874.96 0 0)
(-9945.36 0 0)
(-9949.35 0 0)
(-9933.09 0 0)
(-9978.75 0 0)
(-10055.2 0 0)
(-10075.7 0 0)
(-10055 0 0)
(-10081.9 0 0)
(-10159.1 0 0)
(-10199.2 0 0)
(-10181.8 0 0)
(-10188.1 0 0)
(-10256.7 0 0)
(-10316 0 0)
(-10311.3 0 0)
(-10300 0 0)
(-10350 0 0)
(-10422.5 0 0)
(-10440 0 0)
(-10420.1 0 0)
(-10444.3 0 0)
(-10517.9 0 0)
(-10561.8 0 0)
(-10548.1 0 0)
(-10546 0 0)
(-10604.8 0 0)
(-10670.7 0 0)
(-10678.5 0 0)
(-10660.1 0 0)
(-10690.8 0 0)
(-10763.4 0 0)
(-10801.8 0 0)
(-10786.5 0 0)
(-10786.1 0 0)
(-10844.1 0 0)
(-10908.4 0 0)
(-10917.1 0 0)
(-10898.5 0 0)
(-10924.5 0 0)
(-10994.6 0 0)
(-11037.7 0 0)
(-11026 0 0)
(-11019.1 0 0)
(-11068.4 0 0)
(-11135.6 0 0)
(-11154.5 0 0)
(-11135.5 0 0)
(-11147.5 0 0)
(-11210.2 0 0)
(-11264.7 0 0)
(-11265 0 0)
(-11248.7 0 0)
(-11278.6 0 0)
(-11346.3 0 0)
(-11385.1 0 0)
(-11372.7 0 0)
(-11365 0 0)
(-11409.9 0 0)
(-11475 0 0)
(-11498.1 0 0)
(-11480.1 0 0)
(-11483.1 0 0)
(-11537.1 0 0)
(-11596 0 0)
(-11606.6 0 0)
(-11587.2 0 0)
(-11599.7 0 0)
(-11658.7 0 0)
(-11710.2 0 0)
(-11711.4 0 0)
(-11692.8 0 0)
(-11713 0 0)
(-11773.5 0 0)
(-11817.6 0 0)
(-11812.7 0 0)
(-11795.6 0 0)
(-11819.6 0 0)
(-11879.8 0 0)
(-11919 0 0)
(-11908.9 0 0)
(-11891.4 0 0)
(-11918.5 0 0)
(-11977.4 0 0)
(-12010.4 0 0)
(-11997.2 0 0)
(-11980.4 0 0)
(-12005.7 0 0)
(-12060.6 0 0)
(-12091.2 0 0)
(-12075.7 0 0)
(-12055 0 0)
(-12076.1 0 0)
(-12127 0 0)
(-12154.5 0 0)
(-12136.4 0 0)
(-12109.7 0 0)
(-12122.3 0 0)
(-12167.3 0 0)
(-12191.2 0 0)
(-12167.7 0 0)
(-12132.5 0 0)
(-12132.9 0 0)
(-12165.4 0 0)
(-12182.2 0 0)
(-12153.2 0 0)
(-12103.9 0 0)
(-12082.1 0 0)
(-12095.8 0 0)
(-12101.5 0 0)
(-12059.5 0 0)
(-11986.9 0 0)
(-11935.5 0 0)
(-11920.7 0 0)
(-11900.9 0 0)
(-11836.4 0 0)
(-11736.9 0 0)
(-11642.3 0 0)
(-11576.8 0 0)
(-11521.8 0 0)
(-11430.4 0 0)
(-11285.3 0 0)
(-11130.1 0 0)
(-11009.7 0 0)
(-10904 0 0)
(-10760.9 0 0)
(-10566.9 0 0)
(-10353.8 0 0)
(-10157.3 0 0)
(-9980.9 0 0)
(-9789.39 0 0)
(-9547.41 0 0)
(-9267.9 0 0)
(-8996.85 0 0)
(-8752.64 0 0)
(-8508.7 0 0)
(-8228.28 0 0)
(-7903.12 0 0)
(-7568.71 0 0)
(-7267.84 0 0)
(-6991.28 0 0)
(-6690.2 0 0)
(-6346.26 0 0)
(-5989.76 0 0)
(-5659.4 0 0)
(-5365.6 0 0)
(-5078.31 0 0)
(-4759.73 0 0)
(-4417.52 0 0)
(-4095.26 0 0)
(-3815.87 0 0)
(-3563.75 0 0)
(-3305.88 0 0)
(-3023.14 0 0)
(-2738.44 0 0)
(-2494.63 0 0)
(-2297.61 0 0)
(-2113.21 0 0)
(-1911.52 0 0)
(-1694.23 0 0)
(-1495.26 0 0)
(-1348.06 0 0)
(-1237.77 0 0)
(-1117.01 0 0)
(-970.585 0 0)
(-827.312 0 0)
(-719.32 0 0)
(-652.104 0 0)
(-598.524 0 0)
(-524.779 0 0)
(-430.636 0 0)
(-347.429 0 0)
(-301.137 0 0)
(-287.155 0 0)
(-270.314 0 0)
(-220.273 0 0)
(-155.286 0 0)
(-117.535 0 0)
(-115.077 0 0)
(-123.518 0 0)
(-116.267 0 0)
(-80.1914 0 0)
(-35.8319 0 0)
(-22.3742 0 0)
(-43.7805 0 0)
(-63.8749 0 0)
(-52.3988 0 0)
(-14.2243 0 0)
(13.5125 0 0)
(2.06807 0 0)
(-28.8261 0 0)
(-38.8759 0 0)
(-18.1401 0 0)
(12.1542 0 0)
(22.9709 0 0)
(3.12135 0 0)
(-24.0151 0 0)
(-27.3794 0 0)
(-4.40048 0 0)
(22.4215 0 0)
(25.4456 0 0)
(-1.75096 0 0)
(-29.3484 0 0)
(-20.4423 0 0)
(8.76165 0 0)
(25.9367 0 0)
(23.211 0 0)
(-12.7825 0 0)
(-27.2518 0 0)
(-7.54368 0 0)
(6.18434 0 0)
(11.5062 0 0)
(24.0628 0 0)
(2.33672 0 0)
(-17.4352 0 0)
(-7.33705 0 0)
(-2.58498 0 0)
(4.96443 0 0)
(6.88782 0 0)
(3.5597 0 0)
(2.20477 0 0)
(0.0134188 0 0)
(-2.9014 0 0)
(-5.93801 0 0)
(5.77612 0 0)
(10.8 0 0)
(-0.304537 0 0)
(0.241419 0 0)
(-0.510548 0 0)
(-2.6966 0 0)
(-1.4617 0 0)
(5.23898 0 0)
(0.567984 0 0)
(-10.3687 0 0)
(-21.7222 0 0)
(-23.0988 0 0)
(3.99108 0 0)
(45.5662 0 0)
(16.1529 0 0)
(-26.1321 0 0)
(16.5875 0 0)
(56.483 0 0)
(-10.2081 0 0)
(-36.0789 0 0)
(0.933032 0 0)
(66.8631 0 0)
(38.1466 0 0)
(-60.1706 0 0)
(-46.5184 0 0)
(-27.1849 0 0)
(-6.44117 0 0)
(19.4988 0 0)
(64.6628 0 0)
(48.9619 0 0)
(-17.3276 0 0)
(-26.2526 0 0)
(-22.4706 0 0)
(-22.0397 0 0)
(-21.4443 0 0)
(-18.3085 0 0)
(-15.5029 0 0)
(-11.5384 0 0)
(-8.10645 0 0)
(17.9501 0 0)
(76.1883 0 0)
(53.4343 0 0)
(-44.4987 0 0)
(-43.9294 0 0)
(32.9493 0 0)
(98.7633 0 0)
(18.1369 0 0)
(-79.2816 0 0)
(-60.804 0 0)
(-43.4468 0 0)
(-23.7738 0 0)
(1.07527 0 0)
(40.5154 0 0)
(17.4024 0 0)
(-17.3491 0 0)
(13.3121 0 0)
(57.1219 0 0)
(16.027 0 0)
(-32.2092 0 0)
(7.6715 0 0)
(61.57 0 0)
(31.8085 0 0)
(-40.0439 0 0)
(-40.1264 0 0)
(8.39014 0 0)
(62.4214 0 0)
(27.8757 0 0)
(-45.3827 0 0)
(-39.0364 0 0)
(-18.0674 0 0)
(27.3162 0 0)
(44.6691 0 0)
(6.48122 0 0)
(-28.2189 0 0)
(-15.9837 0 0)
(12.9367 0 0)
(33.3373 0 0)
(18.2136 0 0)
(-12.9386 0 0)
(-15.3303 0 0)
(-9.91179 0 0)
(-6.09388 0 0)
(-2.28526 0 0)
(-2.16659 0 0)
(-2.87317 0 0)
(-0.0440845 0 0)
(1.14439 0 0)
(-13.2309 0 0)
(-6.57486 0 0)
(11.0785 0 0)
(19.0364 0 0)
(-24.6145 0 0)
(-55.0561 0 0)
(-43.7857 0 0)
(-7.65755 0 0)
(50.343 0 0)
(45.4458 0 0)
(32.5896 0 0)
(12.086 0 0)
(-13.7147 0 0)
(1.01334 0 0)
(22.8575 0 0)
(18.4391 0 0)
(8.33942 0 0)
(-10.3071 0 0)
(-4.35416 0 0)
(14.6886 0 0)
(14.1662 0 0)
(8.69994 0 0)
(-5.982 0 0)
(-10.4307 0 0)
(-7.59539 0 0)
(-6.81364 0 0)
(-9.90717 0 0)
(-10.4 0 0)
(2.8206 0 0)
(14.1174 0 0)
(5.56906 0 0)
(-18.6392 0 0)
(-5.10231 0 0)
(19.2954 0 0)
(8.69255 0 0)
(-23.9771 0 0)
(-13.1021 0 0)
(25.1294 0 0)
(27.7729 0 0)
(-1.67602 0 0)
(-27.8488 0 0)
(-15.757 0 0)
(11.3332 0 0)
(20.2323 0 0)
(9.84086 0 0)
(-13.8198 0 0)
(-13.998 0 0)
(6.33665 0 0)
(15.8652 0 0)
(13.6731 0 0)
(3.79439 0 0)
(-10.5786 0 0)
(-5.13959 0 0)
(11.0403 0 0)
(17.534 0 0)
(20.904 0 0)
(25.5855 0 0)
(0.969142 0 0)
(-38.6639 0 0)
(-31.9524 0 0)
(-17.8341 0 0)
(-1.77264 0 0)
(11.9853 0 0)
(7.98241 0 0)
(-11.2617 0 0)
(-10.696 0 0)
(7.26185 0 0)
(14.6245 0 0)
(-0.771793 0 0)
(-8.93788 0 0)
(6.9587 0 0)
(18.5961 0 0)
(15.5126 0 0)
(-1.19323 0 0)
(-11.4125 0 0)
(10.6513 0 0)
(23.0101 0 0)
(22.2059 0 0)
(17.2835 0 0)
(-5.19773 0 0)
(-18.58 0 0)
(-1.82994 0 0)
(33.8813 0 0)
(27.9931 0 0)
(-3.70388 0 0)
(-26.1488 0 0)
(-10.1617 0 0)
(26.335 0 0)
(38.1465 0 0)
(3.28376 0 0)
(-47.4383 0 0)
(-30.5753 0 0)
(15.8826 0 0)
(39.0018 0 0)
(26.3747 0 0)
(-17.8896 0 0)
(-41.5369 0 0)
(-20.4501 0 0)
(16.3429 0 0)
(31.296 0 0)
(17.8572 0 0)
(-20.3989 0 0)
(-32.2027 0 0)
(-23.5833 0 0)
(-11.8527 0 0)
(6.49681 0 0)
(20.0616 0 0)
(22.8934 0 0)
(23.7248 0 0)
(1.29322 0 0)
(-33.7892 0 0)
(-14.5208 0 0)
(36.3174 0 0)
(36.8464 0 0)
(12.9646 0 0)
(-19.3066 0 0)
(-10.9909 0 0)
(13.3201 0 0)
(21.9953 0 0)
(12.0931 0 0)
(-9.99481 0 0)
(-12.3252 0 0)
(-1.48788 0 0)
(11.3823 0 0)
(7.41562 0 0)
(-5.74331 0 0)
(-0.471628 0 0)
(6.88946 0 0)
(-2.18813 0 0)
(-7.23404 0 0)
(0.943553 0 0)
(7.25422 0 0)
(-5.05827 0 0)
(-1.26311 0 0)
(3.59793 0 0)
(-1.8954 0 0)
(-0.547796 0 0)
(4.51031 0 0)
(0.310941 0 0)
(1.91882 0 0)
(3.41438 0 0)
(2.56945 0 0)
(1.33449 0 0)
(1.8536 0 0)
(2.38324 0 0)
(1.90184 0 0)
(4.57004 0 0)
(3.22611 0 0)
(5.05168 0 0)
(6.10879 0 0)
(2.57083 0 0)
(4.69352 0 0)
(7.49042 0 0)
(0.736617 0 0)
(4.199 0 0)
(5.92573 0 0)
(3.29918 0 0)
(-0.364274 0 0)
(9.77191 0 0)
(5.58709 0 0)
(-3.13425 0 0)
(0.517274 0 0)
(12.1309 0 0)
(8.34367 0 0)
(-2.37725 0 0)
(-4.36535 0 0)
(11.0542 0 0)
(8.96176 0 0)
(-1.5833 0 0)
(-4.2383 0 0)
(10.9252 0 0)
(11.6208 0 0)
(-1.6067 0 0)
(-7.73614 0 0)
(5.18333 0 0)
(11.3154 0 0)
(0.279157 0 0)
(-6.27599 0 0)
(4.13837 0 0)
(15.7366 0 0)
(8.42937 0 0)
(-7.54701 0 0)
(-4.30454 0 0)
(18.067 0 0)
(16.3092 0 0)
(-4.62006 0 0)
(-12.4075 0 0)
(10.8593 0 0)
(18.3885 0 0)
(-0.330455 0 0)
(-13.7223 0 0)
(2.05003 0 0)
(9.7768 0 0)
(11.9886 0 0)
(-0.114344 0 0)
(-9.21123 0 0)
(11.1135 0 0)
(21.3087 0 0)
(-1.48638 0 0)
(-9.72958 0 0)
(-0.474394 0 0)
(11.0788 0 0)
(18.7295 0 0)
(-5.20377 0 0)
(-9.08697 0 0)
(13.9011 0 0)
(23.3652 0 0)
(-4.62216 0 0)
(-17.4732 0 0)
(0.981998 0 0)
(17.1809 0 0)
(22.28 0 0)
(-8.38375 0 0)
(-15.9291 0 0)
(1.15465 0 0)
(31.84 0 0)
(23.9182 0 0)
(-30.7929 0 0)
(-19.2744 0 0)
(17.2994 0 0)
(52.8222 0 0)
(-0.686865 0 0)
(-49.2891 0 0)
(-13.4921 0 0)
(54.2201 0 0)
(78.0602 0 0)
(-70.533 0 0)
(-65.4644 0 0)
(26.783 0 0)
(121.653 0 0)
(2.42568 0 0)
(-126.451 0 0)
(-41.9177 0 0)
(107.227 0 0)
(204.589 0 0)
(-146.624 0 0)
(-176.078 0 0)
(-37.4206 0 0)
(172.586 0 0)
(303.669 0 0)
(-204.133 0 0)
(-300.165 0 0)
(3.68816 0 0)
(439.032 0 0)
(117.546 0 0)
(-498.523 0 0)
(-181.557 0 0)
(277.685 0 0)
(696.796 0 0)
(-448.008 0 0)
(-657.877 0 0)
(-5.52908 0 0)
(905.319 0 0)
(363.023 0 0)
(-1250.87 0 0)
(-268.669 0 0)
(948.427 0 0)
(143.321 0 0)
(-1083.69 0 0)
(520.999 0 0)
(988.772 0 0)
(-1294.2 0 0)
(-79.6784 0 0)
(1561.79 0 0)
(-521.823 0 0)
(-1477.3 0 0)
(1644.78 0 0)
(899.568 0 0)
(-2413.81 0 0)
(87.2774 0 0)
(2510.8 0 0)
(-832.551 0 0)
(-2494.34 0 0)
(1548.08 0 0)
(2453.06 0 0)
(-3419.65 0 0)
(-562.372 0 0)
(2836.52 0 0)
(-263.71 0 0)
(-3221.59 0 0)
(2233.04 0 0)
(2556.66 0 0)
(-4134.89 0 0)
(-171.82 0 0)
(4290.8 0 0)
(-1666.46 0 0)
(-3679.32 0 0)
(3922.37 0 0)
(1848.58 0 0)
(-5014.05 0 0)
(142.181 0 0)
(5608.38 0 0)
(-2737.33 0 0)
(-4389.11 0 0)
(4861.78 0 0)
(2264.09 0 0)
(-6130.64 0 0)
(54.9528 0 0)
(6274.95 0 0)
(-2311.96 0 0)
(-5476.52 0 0)
(4856.2 0 0)
(3811.62 0 0)
(-7313.26 0 0)
(-203.449 0 0)
(6687.06 0 0)
(-1693.9 0 0)
(-6421 0 0)
(3077.62 0 0)
(5807.12 0 0)
(-7004 0 0)
(-1440.59 0 0)
(5401.27 0 0)
(-1567.28 0 0)
(-4659.76 0 0)
(4449.08 0 0)
(1822.04 0 0)
(-5332.69 0 0)
(1563.86 0 0)
(5373.55 0 0)
(-5410.72 0 0)
(-1118.67 0 0)
(4911.39 0 0)
(-1233.86 0 0)
(-4111.44 0 0)
(3944.29 0 0)
(1825.03 0 0)
(-4444.94 0 0)
(448.457 0 0)
(5095.78 0 0)
(-3230.89 0 0)
(-2054.53 0 0)
(3868.58 0 0)
(540.229 0 0)
(-3599.22 0 0)
(536.35 0 0)
(3734.77 0 0)
(-2437.3 0 0)
(-1259.51 0 0)
(3248.38 0 0)
(222.901 0 0)
(-2810.77 0 0)
(438.173 0 0)
(3020.57 0 0)
(-2024.47 0 0)
(-1661.1 0 0)
(2033.28 0 0)
(727.329 0 0)
(-2163.97 0 0)
(-64.6858 0 0)
(1906.15 0 0)
(-551.779 0 0)
(-1628.33 0 0)
(767.259 0 0)
(1164.78 0 0)
(-1525.99 0 0)
(-398.552 0 0)
(838.683 0 0)
(-207.563 0 0)
(-843.928 0 0)
(489.48 0 0)
(227.724 0 0)
(-740.713 0 0)
(13.9307 0 0)
(361.466 0 0)
(-462.993 0 0)
(15.4134 0 0)
(132.388 0 0)
(-374.109 0 0)
(-26.148 0 0)
(205.591 0 0)
(-268.19 0 0)
(-84.5708 0 0)
(149.457 0 0)
(-91.7278 0 0)
(-133.72 0 0)
(66.8682 0 0)
(56.3862 0 0)
(-87.9098 0 0)
(-5.15219 0 0)
(100.45 0 0)
(31.7666 0 0)
(-18.5663 0 0)
(55.4013 0 0)
(94.8523 0 0)
(-6.39548 0 0)
(28.3704 0 0)
(122.096 0 0)
(47.6056 0 0)
(8.61901 0 0)
(117.857 0 0)
(85.9379 0 0)
(34.6111 0 0)
)
;

boundaryField
{
    sides
    {
        type            calculated;
        value           nonuniform List<vector> 2((34.6111 0 0) (116.728 0 0));
    }
    empty
    {
        type            empty;
    }
}


// ************************************************************************* //
