/*--------------------------------*- C++ -*----------------------------------*\
  =========                 |
  \\      /  F ield         | OpenFOAM: The Open Source CFD Toolbox
   \\    /   O peration     | Website:  https://openfoam.org
    \\  /    A nd           | Version:  9
     \\/     M anipulation  |
\*---------------------------------------------------------------------------*/
FoamFile
{
    format      ascii;
    class       surfaceScalarField;
    location    "0.022";
    object      phi_0;
}
// * * * * * * * * * * * * * * * * * * * * * * * * * * * * * * * * * * * * * //

dimensions      [1 0 -1 0 0 0 0];

internalField   nonuniform List<scalar> 
999
(
20.8871
22.0576
23.2273
24.3954
25.5626
26.7302
27.8993
29.0698
30.2411
31.4126
32.584
33.7561
34.9291
36.1019
37.2744
38.4467
39.6189
40.7909
41.9627
43.1343
44.3058
45.4771
46.6482
47.8192
48.9901
50.1607
51.3312
52.5016
53.6718
54.8418
56.0116
57.1813
58.3508
59.5202
60.6893
61.8584
63.0272
64.1959
65.3644
66.5327
67.7008
68.8688
70.0366
71.2042
72.3716
73.5389
74.706
75.8729
77.0396
78.2061
79.3724
80.5386
81.7046
82.8703
84.0359
85.2013
86.3665
87.5315
88.6963
89.8609
91.0254
92.1896
93.3536
94.5174
95.681
96.8444
98.0076
99.1706
100.333
101.496
102.658
103.821
104.982
106.144
107.306
108.467
109.628
110.789
111.95
113.11
114.27
115.43
116.59
117.749
118.909
120.068
121.227
122.385
123.544
124.702
125.86
127.017
128.175
129.332
130.489
131.646
132.802
133.958
135.114
136.27
137.426
138.581
139.736
140.891
142.045
143.199
144.353
145.507
146.66
147.813
148.966
150.119
151.271
152.423
153.575
154.727
155.878
157.029
158.18
159.33
160.48
161.63
162.78
163.929
165.078
166.227
167.375
168.524
169.672
170.819
171.967
173.114
174.261
175.407
176.553
177.699
178.845
179.99
181.135
182.28
183.424
184.568
185.712
186.855
187.999
189.141
190.284
191.426
192.568
193.71
194.85
195.992
197.132
198.273
199.413
200.551
201.692
202.83
203.969
205.108
206.244
207.384
208.52
209.656
210.795
211.929
213.066
214.202
215.335
216.472
217.606
218.739
219.875
221.006
222.14
223.274
224.404
225.537
226.67
227.798
228.931
230.062
231.189
232.322
233.451
234.577
235.709
236.837
237.962
239.092
240.219
241.343
242.473
243.598
244.72
245.849
246.974
248.094
249.22
250.345
251.465
252.589
253.713
254.831
255.954
257.079
258.195
259.314
260.439
261.556
262.672
263.794
264.911
266.026
267.146
268.265
269.375
270.492
271.612
272.724
273.836
274.954
276.067
277.176
278.291
279.408
280.514
281.623
282.739
283.849
284.954
286.067
287.179
288.281
289.387
290.501
291.609
292.709
293.817
294.927
296.027
297.128
298.238
299.344
300.44
301.541
302.65
303.749
304.844
305.948
307.054
308.148
309.241
310.345
311.446
312.536
313.632
314.735
315.831
316.918
318.013
319.114
320.205
321.29
322.386
323.485
324.572
325.655
326.749
327.845
328.928
330.01
331.102
332.195
333.276
334.355
335.445
336.535
337.614
338.69
339.776
340.864
341.941
343.015
344.099
345.185
346.26
347.331
348.411
349.494
350.568
351.636
352.712
353.793
354.866
355.931
357.002
358.08
359.153
360.215
361.281
362.355
363.427
364.488
365.549
366.618
367.689
368.75
369.806
370.869
371.938
372.999
374.053
375.109
376.174
377.235
378.287
379.338
380.396
381.457
382.509
383.555
384.606
385.664
386.717
387.761
388.805
389.856
390.909
391.953
392.992
394.035
395.085
396.13
397.167
398.203
399.245
400.29
401.328
402.359
403.393
404.433
405.472
406.502
407.528
408.561
409.597
410.629
411.652
412.675
413.705
414.736
415.76
416.778
417.798
418.825
419.85
420.867
421.88
422.896
423.918
424.937
425.947
426.955
427.968
428.985
429.997
431.001
432.004
433.012
434.022
435.028
436.026
437.023
438.026
439.03
440.029
441.02
442.011
443.008
444.005
444.996
445.981
446.965
447.954
448.944
449.928
450.905
451.881
452.862
453.843
454.818
455.786
456.752
457.722
458.693
459.658
460.614
461.568
462.525
463.482
464.434
465.376
466.313
467.252
468.191
469.124
470.046
470.96
471.874
472.787
473.692
474.585
475.468
476.345
477.219
478.085
478.936
479.772
480.598
481.418
482.227
483.019
483.791
484.548
485.293
486.025
486.738
487.428
488.096
488.747
489.382
489.997
490.586
491.148
491.689
492.213
492.716
493.193
493.642
494.066
494.472
494.859
495.223
495.561
495.874
496.168
496.446
496.707
496.946
497.162
497.361
497.547
497.722
497.883
498.025
498.151
498.267
498.378
498.48
498.57
498.647
498.716
498.78
498.843
498.899
498.946
498.985
499.02
499.056
499.091
499.121
499.143
499.161
499.18
499.2
499.22
499.235
499.244
499.252
499.262
499.275
499.287
499.293
499.295
499.298
499.305
499.314
499.319
499.32
499.319
499.321
499.326
499.331
499.333
499.331
499.329
499.33
499.335
499.339
499.338
499.335
499.332
499.334
499.338
499.339
499.338
499.336
499.334
499.334
499.336
499.337
499.337
499.336
499.335
499.334
499.334
499.334
499.334
499.335
499.334
499.332
499.333
499.333
499.333
499.333
499.333
499.332
499.332
499.332
499.333
499.335
499.334
499.329
499.328
499.331
499.329
499.324
499.326
499.329
499.328
499.322
499.319
499.325
499.328
499.33
499.33
499.328
499.323
499.319
499.321
499.323
499.325
499.326
499.327
499.328
499.329
499.33
499.33
499.329
499.322
499.318
499.323
499.326
499.323
499.314
499.313
499.321
499.324
499.327
499.328
499.328
499.324
499.323
499.325
499.324
499.319
499.318
499.322
499.321
499.315
499.312
499.317
499.32
499.319
499.313
499.311
499.315
499.318
499.319
499.316
499.313
499.313
499.315
499.316
499.315
499.312
499.31
499.312
499.313
499.313
499.314
499.314
499.314
499.314
499.313
499.313
499.314
499.314
499.313
499.311
499.314
499.318
499.321
499.322
499.317
499.314
499.311
499.311
499.312
499.312
499.31
499.308
499.308
499.309
499.309
499.307
499.306
499.306
499.306
499.307
499.307
499.308
499.308
499.309
499.308
499.307
499.306
499.308
499.308
499.306
499.306
499.308
499.309
499.306
499.304
499.304
499.307
499.308
499.306
499.305
499.304
499.305
499.306
499.305
499.304
499.303
499.302
499.303
499.304
499.302
499.301
499.299
499.297
499.297
499.3
499.302
499.303
499.303
499.302
499.301
499.302
499.303
499.302
499.301
499.301
499.302
499.301
499.299
499.298
499.298
499.3
499.298
499.296
499.295
499.293
499.294
499.295
499.296
499.292
499.29
499.291
499.293
499.293
499.291
499.287
499.287
499.292
499.294
499.292
499.288
499.286
499.288
499.291
499.292
499.29
499.288
499.286
499.288
499.29
499.292
499.292
499.291
499.29
499.288
499.286
499.286
499.289
499.29
499.286
499.284
499.283
499.285
499.285
499.284
499.282
499.281
499.282
499.282
499.282
499.281
499.28
499.281
499.28
499.28
499.28
499.28
499.28
499.279
499.279
499.279
499.279
499.279
499.279
499.278
499.278
499.278
499.277
499.277
499.277
499.276
499.276
499.276
499.275
499.275
499.274
499.274
499.273
499.273
499.272
499.272
499.271
499.271
499.27
499.27
499.269
499.269
499.269
499.269
499.267
499.267
499.267
499.267
499.266
499.265
499.265
499.265
499.264
499.263
499.263
499.264
499.263
499.262
499.262
499.262
499.262
499.26
499.259
499.26
499.26
499.258
499.256
499.257
499.258
499.256
499.255
499.255
499.256
499.255
499.254
499.253
499.253
499.254
499.252
499.25
499.25
499.251
499.251
499.25
499.248
499.248
499.248
499.247
499.244
499.245
499.246
499.246
499.244
499.242
499.242
499.243
499.243
499.239
499.237
499.24
499.241
499.238
499.233
499.234
499.238
499.238
499.232
499.224
499.232
499.236
499.231
499.219
499.221
499.231
499.232
499.221
499.2
499.218
499.229
499.227
499.211
499.182
499.204
499.226
499.22
499.177
499.171
499.216
499.219
499.192
499.121
499.173
499.223
499.21
499.119
499.087
499.21
499.205
499.104
499.095
499.199
499.127
499.025
499.167
499.152
498.989
499.051
499.184
498.991
498.919
499.164
499.109
498.854
498.948
499.166
498.97
498.721
499.098
499.072
498.783
498.832
499.131
498.846
498.602
499.055
498.999
498.549
498.753
499.076
498.617
498.491
498.995
498.9
498.315
498.649
499.026
498.46
498.304
498.923
498.816
498.173
498.459
498.96
498.381
498.053
498.838
498.704
498.031
498.258
498.832
498.428
497.839
498.633
498.639
498.075
498.297
498.715
498.193
498.06
498.617
498.395
497.837
498.476
498.495
497.99
498.167
498.543
498.087
497.972
498.433
498.328
497.791
498.21
498.353
497.944
497.946
498.29
498.2
497.81
498.122
498.208
497.875
497.902
498.163
498.094
497.781
498.034
498.161
497.931
497.894
498.111
498.083
497.892
497.963
498.111
498.01
497.895
498.068
498.076
497.989
498.021
498.098
498.035
498.019
498.095
498.08
498.039
498.094
498.083
498.069
498.112
498.11
498.088
498.119
498.123
498.106
498.118
498.129
498.12
498.116
498.125
498.123
498.113
498.11
498.111
498.105
498.095
498.097
498.093
498.081
498.077
498.076
498.064
498.057
)
;

boundaryField
{
    sides
    {
        type            calculated;
        value           nonuniform List<scalar> 2(498.055 -19.7161);
    }
    empty
    {
        type            empty;
        value           nonuniform List<scalar> 0();
    }
}


// ************************************************************************* //
