/*--------------------------------*- C++ -*----------------------------------*\
  =========                 |
  \\      /  F ield         | OpenFOAM: The Open Source CFD Toolbox
   \\    /   O peration     | Website:  https://openfoam.org
    \\  /    A nd           | Version:  9
     \\/     M anipulation  |
\*---------------------------------------------------------------------------*/
FoamFile
{
    format      ascii;
    class       volScalarField;
    location    "0.022";
    object      rho_0;
}
// * * * * * * * * * * * * * * * * * * * * * * * * * * * * * * * * * * * * * //

dimensions      [1 -3 0 0 0 0 0];

internalField   nonuniform List<scalar> 
1000
(
0.478604
0.478437
0.478236
0.478026
0.477803
0.477593
0.477418
0.477281
0.477172
0.477074
0.476979
0.476892
0.476821
0.476756
0.476689
0.476621
0.476552
0.476483
0.476414
0.476345
0.476275
0.476206
0.476136
0.476066
0.475996
0.475926
0.475856
0.475786
0.475716
0.475646
0.475575
0.475505
0.475434
0.475364
0.475293
0.475222
0.475151
0.47508
0.475009
0.474938
0.474867
0.474795
0.474724
0.474652
0.474581
0.474509
0.474437
0.474365
0.474293
0.474221
0.474149
0.474077
0.474004
0.473932
0.473859
0.473787
0.473714
0.473641
0.473568
0.473495
0.473422
0.473349
0.473275
0.473202
0.473128
0.473055
0.472981
0.472907
0.472833
0.472759
0.472685
0.472611
0.472537
0.472462
0.472388
0.472313
0.472238
0.472163
0.472088
0.472013
0.471938
0.471863
0.471787
0.471712
0.471636
0.471561
0.471485
0.471409
0.471333
0.471257
0.471181
0.471104
0.471028
0.470951
0.470875
0.470798
0.470721
0.470644
0.470567
0.47049
0.470412
0.470335
0.470257
0.470179
0.470102
0.470024
0.469946
0.469868
0.46979
0.469711
0.469633
0.469554
0.469476
0.469397
0.469318
0.469239
0.46916
0.469081
0.469002
0.468922
0.468843
0.468763
0.468683
0.468603
0.468523
0.468443
0.468363
0.468282
0.468202
0.468121
0.46804
0.46796
0.467878
0.467798
0.467715
0.467636
0.467551
0.467474
0.467385
0.467313
0.46722
0.467149
0.467056
0.466984
0.466891
0.466819
0.466726
0.466654
0.46656
0.466487
0.466396
0.466316
0.466234
0.466144
0.466071
0.465976
0.465899
0.465814
0.465723
0.46565
0.465556
0.465474
0.465395
0.465299
0.465224
0.465136
0.465044
0.464971
0.464875
0.464792
0.464713
0.464616
0.464537
0.464452
0.464357
0.464281
0.46419
0.464098
0.464023
0.463927
0.463838
0.463762
0.463664
0.463576
0.4635
0.463401
0.463313
0.463235
0.463137
0.46305
0.462969
0.46287
0.462784
0.462705
0.462603
0.462515
0.462438
0.462338
0.462244
0.462168
0.462071
0.461976
0.461897
0.461801
0.461703
0.461626
0.461534
0.461429
0.461348
0.461264
0.46116
0.461071
0.460989
0.460887
0.460794
0.460715
0.460616
0.460512
0.460433
0.460346
0.460239
0.460149
0.460067
0.459963
0.459866
0.459787
0.459692
0.459583
0.459497
0.459413
0.459308
0.45921
0.459129
0.459031
0.458922
0.458836
0.458754
0.458647
0.458544
0.458462
0.458367
0.458257
0.458166
0.458085
0.457981
0.457871
0.457786
0.457698
0.457587
0.457486
0.457406
0.457309
0.457195
0.4571
0.457018
0.456914
0.456802
0.456714
0.456629
0.456518
0.456409
0.456323
0.456233
0.45612
0.456014
0.455931
0.455837
0.455721
0.455618
0.455533
0.455436
0.45532
0.455218
0.455133
0.455035
0.454918
0.454815
0.454729
0.454629
0.454513
0.454408
0.454321
0.454222
0.454105
0.454
0.453911
0.453813
0.453698
0.453589
0.453499
0.453403
0.453288
0.453177
0.453084
0.452989
0.452877
0.452763
0.452666
0.452573
0.452463
0.452347
0.452245
0.452153
0.452047
0.45193
0.451823
0.451729
0.451628
0.451511
0.451399
0.451302
0.451205
0.451092
0.450976
0.450873
0.450777
0.45067
0.450552
0.450443
0.450346
0.450244
0.450128
0.450013
0.449911
0.449812
0.449702
0.449584
0.449475
0.449376
0.449272
0.449156
0.44904
0.448937
0.448837
0.448726
0.448608
0.448497
0.448396
0.448292
0.448176
0.448059
0.447953
0.447852
0.447743
0.447625
0.447511
0.447408
0.447305
0.447192
0.447074
0.446963
0.446861
0.446756
0.44664
0.446523
0.446415
0.446313
0.446205
0.446088
0.445972
0.445866
0.445764
0.445654
0.445536
0.445423
0.445318
0.445215
0.445104
0.444987
0.444875
0.444772
0.444668
0.444556
0.44444
0.44433
0.444227
0.444123
0.444012
0.443896
0.443788
0.443686
0.443582
0.443471
0.443357
0.443249
0.443148
0.443046
0.442936
0.442823
0.442716
0.442616
0.442515
0.442406
0.442295
0.442189
0.442089
0.441989
0.441882
0.441772
0.441666
0.441566
0.441467
0.441361
0.441251
0.441144
0.441044
0.440945
0.440839
0.440728
0.440619
0.440515
0.440413
0.440306
0.440192
0.440077
0.439966
0.439858
0.439746
0.439625
0.4395
0.439378
0.439258
0.439134
0.439002
0.438863
0.438723
0.438584
0.438444
0.438294
0.438135
0.437973
0.43781
0.437646
0.437476
0.437294
0.437105
0.436915
0.436726
0.43653
0.436325
0.436112
0.435896
0.435681
0.435464
0.43524
0.435008
0.434772
0.434538
0.434306
0.434072
0.433832
0.433587
0.433345
0.433108
0.432874
0.432638
0.4324
0.432162
0.431932
0.431709
0.431489
0.431269
0.43105
0.430838
0.430635
0.43044
0.430249
0.430059
0.429874
0.429698
0.429533
0.429375
0.42922
0.429068
0.428924
0.42879
0.428666
0.428548
0.428432
0.42832
0.428216
0.428123
0.428039
0.427957
0.427876
0.4278
0.427734
0.427677
0.427624
0.427571
0.427521
0.427475
0.427437
0.427406
0.427376
0.427346
0.427317
0.427292
0.427275
0.427261
0.427247
0.427231
0.427215
0.427205
0.4272
0.427195
0.427189
0.427183
0.427176
0.427172
0.427171
0.42717
0.427169
0.427168
0.427166
0.427166
0.427166
0.427166
0.427166
0.427167
0.427167
0.427167
0.427167
0.427168
0.427169
0.42717
0.427171
0.427171
0.427172
0.427173
0.427174
0.427176
0.427177
0.427177
0.427177
0.427178
0.42718
0.427179
0.427179
0.427182
0.427183
0.427183
0.427182
0.427183
0.427186
0.427188
0.42719
0.42719
0.42719
0.427189
0.427189
0.427191
0.427192
0.427194
0.427195
0.427196
0.427198
0.427199
0.4272
0.4272
0.427199
0.427198
0.427199
0.427201
0.427202
0.4272
0.427198
0.427201
0.427203
0.427205
0.427207
0.427207
0.427207
0.427206
0.427207
0.427207
0.427206
0.427205
0.427206
0.427207
0.427206
0.427205
0.427205
0.427207
0.427208
0.427206
0.427205
0.427206
0.427207
0.427208
0.427208
0.427207
0.427206
0.427207
0.427208
0.427208
0.427207
0.427206
0.427206
0.427207
0.427207
0.427208
0.427208
0.427208
0.427208
0.427208
0.427207
0.427207
0.427208
0.427208
0.427207
0.427207
0.427208
0.42721
0.42721
0.427209
0.427208
0.427206
0.427206
0.427206
0.427206
0.427205
0.427204
0.427204
0.427204
0.427204
0.427204
0.427203
0.427203
0.427203
0.427203
0.427203
0.427203
0.427203
0.427203
0.427203
0.427202
0.427202
0.427202
0.427202
0.427202
0.427201
0.427201
0.427202
0.427201
0.4272
0.4272
0.4272
0.427201
0.427201
0.4272
0.427199
0.427199
0.4272
0.427199
0.427199
0.427198
0.427198
0.427198
0.427198
0.427198
0.427197
0.427196
0.427195
0.427195
0.427195
0.427196
0.427197
0.427197
0.427196
0.427196
0.427196
0.427196
0.427196
0.427195
0.427195
0.427195
0.427195
0.427194
0.427194
0.427193
0.427193
0.427193
0.427192
0.427191
0.427191
0.42719
0.427191
0.427191
0.42719
0.427189
0.427189
0.427189
0.42719
0.427189
0.427188
0.427187
0.427188
0.427189
0.427189
0.427188
0.427186
0.427186
0.427187
0.427188
0.427187
0.427186
0.427185
0.427185
0.427186
0.427187
0.427187
0.427187
0.427186
0.427185
0.427185
0.427184
0.427185
0.427185
0.427185
0.427183
0.427183
0.427183
0.427183
0.427183
0.427182
0.427181
0.427181
0.427181
0.427181
0.427181
0.42718
0.42718
0.42718
0.42718
0.42718
0.42718
0.42718
0.427179
0.427179
0.427179
0.427179
0.427178
0.427178
0.427178
0.427178
0.427177
0.427177
0.427177
0.427176
0.427176
0.427176
0.427176
0.427176
0.427175
0.427175
0.427174
0.427174
0.427174
0.427173
0.427173
0.427172
0.427172
0.427172
0.427171
0.427171
0.42717
0.42717
0.42717
0.42717
0.427169
0.427168
0.427168
0.427168
0.427167
0.427167
0.427167
0.427166
0.427166
0.427165
0.427165
0.427165
0.427165
0.427164
0.427164
0.427164
0.427163
0.427162
0.427162
0.427162
0.427161
0.42716
0.427159
0.427159
0.427159
0.427158
0.427158
0.427158
0.427158
0.427157
0.427157
0.427156
0.427156
0.427156
0.427155
0.427154
0.427154
0.427154
0.427154
0.427153
0.427152
0.427152
0.427152
0.427151
0.427151
0.427151
0.427152
0.427151
0.427151
0.42715
0.427151
0.427151
0.427151
0.427151
0.427151
0.427153
0.427153
0.427153
0.427152
0.427154
0.427157
0.427157
0.427156
0.427158
0.427162
0.427165
0.427165
0.427164
0.42717
0.427177
0.427179
0.427176
0.42718
0.42719
0.4272
0.427204
0.427199
0.427205
0.427224
0.427236
0.427238
0.427232
0.427253
0.42728
0.42729
0.427282
0.427294
0.427334
0.427359
0.427361
0.427352
0.427396
0.427444
0.427455
0.427445
0.427513
0.427542
0.427542
0.427577
0.427662
0.427649
0.427665
0.427765
0.427804
0.42778
0.427866
0.427985
0.427958
0.427979
0.428143
0.428197
0.428184
0.428264
0.428445
0.428447
0.428436
0.428656
0.42874
0.428707
0.428821
0.429062
0.429014
0.429063
0.429312
0.429415
0.429351
0.429547
0.429813
0.42974
0.429814
0.430117
0.430226
0.430149
0.430387
0.430697
0.430612
0.43068
0.431039
0.431147
0.431079
0.431288
0.431633
0.431582
0.431582
0.431988
0.432115
0.432059
0.432228
0.432611
0.432568
0.432604
0.432933
0.433074
0.433003
0.433308
0.433467
0.433415
0.433554
0.43388
0.43383
0.433862
0.43414
0.434253
0.434175
0.434375
0.434566
0.434508
0.434589
0.434803
0.434839
0.434769
0.434987
0.435099
0.43506
0.435118
0.435275
0.435289
0.435231
0.435399
0.435486
0.435434
0.435482
0.435606
0.435634
0.435592
0.435675
0.435763
0.435729
0.435734
0.435824
0.435846
0.435824
0.435855
0.435926
0.435917
0.435915
0.435966
0.435985
0.435972
0.436003
0.436025
0.436018
0.43603
0.436051
0.436049
0.436061
0.436075
0.436073
0.436079
0.436093
0.43609
0.436092
0.436099
0.4361
0.436098
0.436099
0.4361
0.436098
0.436093
0.436093
0.436091
0.436085
0.436082
0.436081
0.436076
0.436071
0.43607
0.436066
0.436061
0.436059
)
;

boundaryField
{
    sides
    {
        type            calculated;
        value           nonuniform List<scalar> 2(0.436059 0.478604);
    }
    empty
    {
        type            empty;
    }
}


// ************************************************************************* //
