/*--------------------------------*- C++ -*----------------------------------*\
  =========                 |
  \\      /  F ield         | OpenFOAM: The Open Source CFD Toolbox
   \\    /   O peration     | Website:  https://openfoam.org
    \\  /    A nd           | Version:  9
     \\/     M anipulation  |
\*---------------------------------------------------------------------------*/
FoamFile
{
    format      ascii;
    class       volScalarField;
    location    "0.036";
    object      mag(U);
}
// * * * * * * * * * * * * * * * * * * * * * * * * * * * * * * * * * * * * * //

dimensions      [0 1 -1 0 0 0 0];

internalField   nonuniform List<scalar> 
1000
(
15.8075
16.185
16.6306
16.9961
17.3228
17.6499
17.9847
18.3224
18.6599
18.9968
19.3334
19.6701
20.0068
20.3436
20.6805
21.0173
21.3543
21.6912
22.0282
22.3652
22.7021
23.0391
23.3761
23.7132
24.0503
24.3874
24.7246
25.0618
25.3991
25.7364
26.0737
26.411
26.7484
27.0857
27.4231
27.7604
28.0978
28.4352
28.7727
29.1101
29.4477
29.7852
30.1228
30.4603
30.7979
31.1355
31.4731
31.8107
32.1484
32.486
32.8237
33.1614
33.4992
33.8369
34.1747
34.5125
34.8503
35.1881
35.526
35.8638
36.2017
36.5396
36.8775
37.2155
37.5534
37.8914
38.2294
38.5674
38.9054
39.2434
39.5815
39.9195
40.2576
40.5957
40.9338
41.2719
41.6101
41.9482
42.2864
42.6245
42.9627
43.3009
43.6391
43.9773
44.3156
44.6538
44.9921
45.3303
45.6686
46.0069
46.3452
46.6834
47.0217
47.3601
47.6984
48.0367
48.375
48.7134
49.0517
49.3901
49.7284
50.0668
50.4051
50.7435
51.0819
51.4202
51.7586
52.097
52.4353
52.7737
53.1121
53.4505
53.7889
54.1272
54.4656
54.804
55.1423
55.4807
55.8191
56.1574
56.4958
56.8341
57.1725
57.5108
57.8491
58.1875
58.5258
58.8641
59.2024
59.5407
59.8789
60.2172
60.5554
60.8937
61.2319
61.5701
61.9083
62.2465
62.5847
62.9228
63.2609
63.5991
63.9372
64.2752
64.6133
64.9513
65.2893
65.6273
65.9653
66.3032
66.6411
66.979
67.3169
67.6547
67.9925
68.3303
68.668
69.0057
69.3434
69.681
70.0186
70.3562
70.6937
71.0312
71.3686
71.706
72.0434
72.3807
72.718
73.0552
73.3924
73.7295
74.0666
74.4036
74.7406
75.0775
75.4144
75.7512
76.088
76.4247
76.7613
77.0979
77.4344
77.7708
78.1072
78.4435
78.7797
79.1158
79.4519
79.7879
80.1238
80.4597
80.7954
81.1311
81.4667
81.8022
82.1376
82.4729
82.8081
83.1433
83.4783
83.8132
84.148
84.4827
84.8173
85.1518
85.4862
85.8204
86.1545
86.4885
86.8224
87.1562
87.4898
87.8233
88.1566
88.4898
88.8229
89.1558
89.4885
89.8211
90.1536
90.4858
90.818
91.1499
91.4817
91.8133
92.1447
92.4759
92.8069
93.1378
93.4684
93.7988
94.129
94.459
94.7888
95.1184
95.4477
95.7768
96.1057
96.4343
96.7627
97.0908
97.4186
97.7462
98.0735
98.4005
98.7272
99.0537
99.3798
99.7056
100.031
100.356
100.681
101.006
101.33
101.654
101.977
102.3
102.623
102.945
103.267
103.588
103.909
104.23
104.55
104.87
105.189
105.508
105.826
106.144
106.462
106.779
107.095
107.411
107.726
108.041
108.355
108.668
108.982
109.294
109.606
109.917
110.228
110.539
110.849
111.157
111.465
111.772
112.078
112.384
112.688
112.992
113.295
113.597
113.898
114.199
114.498
114.797
115.094
115.391
115.687
115.981
116.275
116.568
116.86
117.15
117.44
117.728
118.015
118.301
118.586
118.87
119.152
119.433
119.713
119.992
120.269
120.545
120.819
121.092
121.364
121.634
121.903
122.17
122.436
122.7
122.963
123.224
123.483
123.741
123.997
124.252
124.505
124.756
125.005
125.253
125.499
125.743
125.986
126.226
126.465
126.702
126.938
127.171
127.403
127.632
127.86
128.086
128.311
128.533
128.754
128.972
129.189
129.404
129.618
129.829
130.039
130.247
130.454
130.658
130.861
131.062
131.262
131.46
131.656
131.851
132.044
132.236
132.426
132.615
132.803
132.989
133.173
133.357
133.539
133.72
133.9
134.079
134.257
134.433
134.609
134.783
134.957
135.13
135.302
135.473
135.643
135.813
135.982
136.15
136.318
136.485
136.652
136.818
136.984
137.149
137.313
137.478
137.642
137.805
137.968
138.131
138.294
138.456
138.619
138.781
138.942
139.104
139.266
139.427
139.588
139.749
139.91
140.071
140.232
140.393
140.553
140.714
140.874
141.035
141.195
141.356
141.516
141.677
141.837
141.998
142.158
142.319
142.479
142.64
142.8
142.961
143.121
143.282
143.443
143.603
143.764
143.925
144.085
144.246
144.407
144.568
144.728
144.889
145.05
145.211
145.372
145.533
145.694
145.855
146.016
146.178
146.339
146.5
146.661
146.823
146.984
147.146
147.307
147.468
147.63
147.792
147.953
148.115
148.277
148.438
148.6
148.762
148.924
149.086
149.248
149.41
149.572
149.734
149.896
150.058
150.22
150.382
150.545
150.707
150.869
151.032
151.194
151.357
151.519
151.682
151.844
152.007
152.17
152.333
152.495
152.658
152.821
152.984
153.147
153.31
153.473
153.636
153.799
153.963
154.126
154.289
154.452
154.616
154.779
154.943
155.106
155.27
155.433
155.597
155.761
155.924
156.088
156.252
156.416
156.58
156.744
156.907
157.071
157.236
157.4
157.564
157.728
157.892
158.056
158.221
158.385
158.55
158.714
158.878
159.043
159.208
159.372
159.537
159.701
159.866
160.031
160.196
160.361
160.526
160.69
160.855
161.02
161.186
161.351
161.516
161.681
161.846
162.012
162.177
162.342
162.508
162.673
162.839
163.004
163.17
163.335
163.501
163.667
163.832
163.998
164.164
164.33
164.496
164.662
164.828
164.994
165.16
165.326
165.492
165.658
165.824
165.991
166.157
166.323
166.49
166.656
166.823
166.989
167.156
167.322
167.489
167.656
167.822
167.989
168.156
168.323
168.49
168.657
168.823
168.99
169.158
169.325
169.492
169.659
169.826
169.993
170.161
170.328
170.495
170.663
170.83
170.998
171.165
171.333
171.501
171.668
171.836
172.004
172.171
172.339
172.507
172.675
172.843
173.011
173.179
173.347
173.515
173.683
173.851
174.02
174.188
174.356
174.525
174.693
174.861
175.03
175.198
175.367
175.536
175.704
175.873
176.042
176.21
176.379
176.548
176.717
176.886
177.055
177.224
177.393
177.562
177.731
177.9
178.069
178.239
178.408
178.577
178.746
178.916
179.085
179.255
179.424
179.594
179.763
179.933
180.103
180.272
180.442
180.612
180.782
180.952
181.122
181.291
181.461
181.631
181.802
181.972
182.142
182.312
182.482
182.652
182.823
182.993
183.163
183.334
183.504
183.675
183.845
184.016
184.186
184.357
184.528
184.698
184.869
185.04
185.211
185.382
185.553
185.724
185.895
186.066
186.237
186.408
186.579
186.75
186.921
187.092
187.264
187.435
187.606
187.778
187.949
188.121
188.292
188.464
188.635
188.807
188.979
189.15
189.322
189.494
189.666
189.838
190.01
190.181
190.353
190.525
190.698
190.87
191.042
191.214
191.386
191.558
191.731
191.903
192.075
192.248
192.42
192.592
192.765
192.937
193.11
193.283
193.455
193.628
193.801
193.973
194.146
194.319
194.492
194.665
194.838
195.01
195.183
195.356
195.529
195.703
195.876
196.049
196.222
196.395
196.568
196.742
196.915
197.088
197.261
197.435
197.608
197.782
197.955
198.129
198.302
198.476
198.649
198.823
198.997
199.17
199.344
199.518
199.692
199.866
200.04
200.213
200.387
200.562
200.736
200.91
201.084
201.258
201.432
201.607
201.781
201.955
202.13
202.304
202.479
202.653
202.828
203.002
203.177
203.351
203.526
203.7
203.875
204.05
204.224
204.399
204.573
204.748
204.922
205.097
205.271
205.445
205.62
205.794
205.968
206.142
206.316
206.489
206.663
206.836
207.009
207.182
207.355
207.528
207.7
207.872
208.044
208.215
208.386
208.557
208.727
208.897
209.067
209.236
209.404
209.572
209.739
209.906
210.072
210.237
210.402
210.566
210.73
210.892
211.054
211.215
211.375
211.535
211.693
211.851
212.008
212.163
212.318
212.473
212.626
212.778
212.93
213.08
213.23
213.379
213.527
213.675
213.821
213.968
214.113
214.258
214.402
214.546
214.69
214.833
214.976
215.119
215.261
215.404
215.546
215.689
215.832
215.975
216.118
216.261
216.405
216.55
216.694
216.84
216.986
217.133
217.28
217.428
217.578
217.727
217.878
218.03
218.182
218.336
218.49
218.645
218.801
218.958
219.116
219.275
219.435
219.595
219.757
219.919
220.082
220.246
220.41
220.576
220.742
220.909
221.076
221.244
221.412
221.582
221.751
221.921
222.092
222.263
222.435
222.607
222.779
222.952
223.125
223.298
223.471
223.645
223.82
223.994
224.169
224.344
224.519
224.694
224.87
225.045
225.221
225.398
225.574
225.75
225.927
226.104
226.281
226.459
226.636
226.814
226.991
227.169
227.347
227.525
227.704
227.882
228.06
228.239
228.417
228.596
228.774
228.953
229.131
229.309
229.487
229.665
229.842
230.018
230.194
230.37
230.544
230.717
230.889
231.059
231.227
231.393
231.557
231.718
231.876
232.031
232.182
232.329
232.472
232.611
232.746
232.875
233
233.12
233.236
233.347
233.453
233.556
233.655
233.75
233.843
233.933
234.022
234.109
234.196
234.282
234.369
234.456
234.545
234.635
234.727
234.821
234.917
235.015
235.116
235.219
235.325
235.434
235.549
235.829
)
;

boundaryField
{
    sides
    {
        type            calculated;
        value           nonuniform List<scalar> 2(235.829 15.8075);
    }
    empty
    {
        type            empty;
    }
}


// ************************************************************************* //
