/*--------------------------------*- C++ -*----------------------------------*\
  =========                 |
  \\      /  F ield         | OpenFOAM: The Open Source CFD Toolbox
   \\    /   O peration     | Website:  https://openfoam.org
    \\  /    A nd           | Version:  9
     \\/     M anipulation  |
\*---------------------------------------------------------------------------*/
FoamFile
{
    format      ascii;
    class       volScalarField;
    location    "0.036";
    object      T;
}
// * * * * * * * * * * * * * * * * * * * * * * * * * * * * * * * * * * * * * //

dimensions      [0 0 0 1 0 0 0];

internalField   nonuniform List<scalar> 
1000
(
199.78
199.79
199.81
199.833
199.856
199.878
199.9
199.922
199.946
199.969
199.991
200.012
200.033
200.055
200.078
200.102
200.127
200.149
200.17
200.188
200.206
200.224
200.244
200.267
200.291
200.318
200.344
200.37
200.393
200.413
200.429
200.44
200.447
200.451
200.453
200.454
200.454
200.453
200.453
200.451
200.446
200.438
200.429
200.42
200.411
200.401
200.392
200.382
200.373
200.364
200.354
200.345
200.336
200.326
200.318
200.307
200.3
200.289
200.282
200.27
200.264
200.252
200.245
200.233
200.227
200.215
200.209
200.197
200.19
200.179
200.171
200.162
200.152
200.144
200.134
200.126
200.117
200.107
200.099
200.089
200.08
200.071
200.061
200.053
200.044
200.034
200.026
200.017
200.007
199.999
199.99
199.98
199.972
199.963
199.954
199.945
199.936
199.927
199.918
199.909
199.9
199.891
199.882
199.873
199.864
199.856
199.847
199.838
199.829
199.82
199.811
199.802
199.793
199.784
199.776
199.767
199.758
199.749
199.74
199.732
199.723
199.714
199.705
199.697
199.688
199.679
199.67
199.662
199.653
199.644
199.636
199.627
199.618
199.61
199.601
199.592
199.584
199.575
199.567
199.558
199.55
199.541
199.533
199.524
199.515
199.507
199.498
199.49
199.482
199.473
199.465
199.456
199.448
199.44
199.431
199.423
199.414
199.406
199.398
199.39
199.381
199.373
199.365
199.357
199.348
199.34
199.332
199.324
199.316
199.308
199.3
199.292
199.283
199.275
199.267
199.259
199.252
199.244
199.236
199.228
199.22
199.212
199.204
199.196
199.189
199.181
199.173
199.166
199.158
199.15
199.143
199.135
199.128
199.12
199.113
199.105
199.098
199.09
199.083
199.076
199.068
199.061
199.054
199.047
199.04
199.033
199.026
199.019
199.012
199.005
198.998
198.991
198.984
198.977
198.971
198.964
198.957
198.951
198.944
198.938
198.931
198.925
198.919
198.912
198.906
198.9
198.894
198.888
198.882
198.876
198.87
198.864
198.858
198.853
198.847
198.842
198.836
198.831
198.826
198.82
198.815
198.81
198.805
198.8
198.795
198.791
198.786
198.781
198.777
198.772
198.768
198.764
198.76
198.756
198.752
198.748
198.745
198.741
198.738
198.734
198.731
198.728
198.725
198.722
198.719
198.717
198.714
198.712
198.71
198.708
198.706
198.704
198.703
198.701
198.7
198.699
198.698
198.697
198.697
198.696
198.696
198.696
198.696
198.696
198.697
198.697
198.698
198.699
198.701
198.703
198.704
198.707
198.709
198.712
198.714
198.718
198.721
198.725
198.728
198.733
198.737
198.742
198.747
198.752
198.758
198.764
198.77
198.777
198.784
198.791
198.799
198.807
198.815
198.824
198.833
198.842
198.852
198.862
198.873
198.884
198.896
198.907
198.92
198.932
198.946
198.959
198.973
198.988
199.003
199.018
199.034
199.051
199.068
199.085
199.103
199.122
199.14
199.16
199.18
199.2
199.221
199.243
199.265
199.288
199.311
199.334
199.359
199.383
199.409
199.434
199.461
199.488
199.515
199.543
199.571
199.6
199.63
199.66
199.691
199.722
199.753
199.785
199.818
199.851
199.884
199.918
199.953
199.987
200.023
200.059
200.095
200.131
200.168
200.206
200.243
200.281
200.32
200.359
200.398
200.437
200.477
200.517
200.557
200.598
200.639
200.68
200.722
200.763
200.805
200.847
200.889
200.932
200.975
201.018
201.06
201.104
201.147
201.191
201.234
201.278
201.322
201.366
201.41
201.454
201.498
201.543
201.587
201.632
201.676
201.721
201.766
201.81
201.855
201.9
201.945
201.99
202.035
202.08
202.125
202.171
202.216
202.261
202.306
202.352
202.397
202.443
202.488
202.534
202.579
202.625
202.67
202.716
202.761
202.807
202.852
202.898
202.944
202.99
203.035
203.081
203.127
203.173
203.218
203.264
203.31
203.356
203.402
203.448
203.494
203.54
203.585
203.632
203.677
203.724
203.77
203.816
203.862
203.908
203.954
204
204.046
204.093
204.139
204.185
204.231
204.278
204.324
204.37
204.416
204.463
204.509
204.556
204.602
204.649
204.694
204.741
204.787
204.834
204.88
204.927
204.973
205.021
205.067
205.114
205.16
205.207
205.253
205.3
205.346
205.394
205.44
205.487
205.533
205.581
205.627
205.674
205.72
205.768
205.814
205.862
205.908
205.955
206.002
206.049
206.096
206.143
206.19
206.237
206.284
206.332
206.378
206.426
206.472
206.52
206.567
206.614
206.661
206.709
206.755
206.803
206.85
206.898
206.944
206.992
207.039
207.087
207.134
207.182
207.229
207.277
207.324
207.372
207.418
207.467
207.513
207.562
207.609
207.657
207.704
207.752
207.799
207.847
207.894
207.943
207.99
208.038
208.085
208.134
208.181
208.229
208.276
208.325
208.372
208.42
208.468
208.516
208.564
208.612
208.659
208.708
208.755
208.804
208.851
208.9
208.948
208.996
209.044
209.092
209.14
209.189
209.236
209.285
209.333
209.382
209.429
209.478
209.526
209.575
209.622
209.671
209.719
209.768
209.816
209.865
209.913
209.962
210.01
210.059
210.107
210.156
210.204
210.253
210.301
210.35
210.398
210.447
210.495
210.545
210.593
210.642
210.69
210.74
210.788
210.837
210.885
210.935
210.983
211.032
211.081
211.13
211.178
211.228
211.276
211.326
211.374
211.424
211.472
211.522
211.57
211.62
211.668
211.718
211.767
211.817
211.865
211.915
211.963
212.013
212.062
212.112
212.16
212.211
212.259
212.309
212.358
212.408
212.456
212.507
212.555
212.606
212.654
212.705
212.753
212.804
212.852
212.903
212.951
213.003
213.049
213.102
213.148
213.202
213.247
213.302
213.346
213.402
213.445
213.502
213.543
213.603
213.642
213.704
213.741
213.804
213.84
213.905
213.939
214.005
214.039
214.105
214.139
214.205
214.239
214.305
214.339
214.406
214.439
214.506
214.539
214.606
214.64
214.707
214.74
214.807
214.841
214.908
214.941
215.008
215.042
215.109
215.142
215.21
215.243
215.311
215.344
215.411
215.445
215.512
215.546
215.613
215.647
215.715
215.748
215.816
215.849
215.917
215.951
216.018
216.052
216.12
216.154
216.221
216.255
216.323
216.357
216.424
216.458
216.526
216.56
216.628
216.662
216.73
216.764
216.832
216.865
216.933
216.967
217.035
217.07
217.138
217.172
217.24
217.274
217.342
217.376
217.444
217.478
217.547
217.581
217.649
217.683
217.752
217.786
217.854
217.888
217.957
217.991
218.06
218.094
218.162
218.197
218.265
218.3
218.368
218.402
218.471
218.506
218.574
218.609
218.677
218.712
218.781
218.815
218.884
218.918
218.987
219.022
219.091
219.125
219.194
219.229
219.298
219.332
219.401
219.436
219.505
219.539
219.608
219.643
219.712
219.747
219.816
219.85
219.92
219.954
220.023
220.058
220.127
220.162
220.231
220.266
220.335
220.37
220.44
220.474
220.544
220.579
220.648
220.683
220.753
220.787
220.857
220.892
220.962
220.997
221.067
221.102
221.172
221.207
221.277
221.313
221.383
221.419
221.488
221.526
221.593
221.635
221.697
221.744
221.802
221.854
221.908
221.962
222.016
222.07
222.126
222.178
222.236
222.288
222.346
222.399
222.458
222.51
222.57
222.622
222.684
222.735
222.799
222.849
222.915
222.964
223.032
223.08
223.151
223.197
223.27
223.315
223.391
223.435
223.513
223.556
223.636
223.678
223.759
223.801
223.884
223.925
224.009
224.051
224.135
224.177
224.261
224.303
224.388
224.43
224.515
224.557
224.642
224.684
224.769
224.812
224.896
224.938
225.022
225.065
225.148
225.19
225.274
225.316
225.398
225.44
225.522
225.563
225.645
225.686
225.767
225.807
225.888
225.928
226.008
226.048
226.127
226.167
226.246
226.285
226.363
226.402
226.48
226.518
226.595
226.633
226.71
226.748
226.824
226.862
226.937
226.975
227.05
227.087
227.162
227.2
227.274
227.311
227.386
227.423
227.497
227.534
227.608
227.645
227.719
227.756
227.83
227.866
227.94
227.977
228.05
228.087
228.161
228.197
228.271
228.307
228.38
228.417
228.49
228.527
228.6
228.636
228.709
228.746
228.819
228.855
228.928
228.965
229.038
229.074
229.148
229.184
229.257
229.294
229.367
229.404
229.477
229.514
229.588
229.626
229.7
229.738
229.814
229.852
229.929
229.968
230.046
230.086
230.167
230.208
230.291
230.334
230.42
230.464
230.555
230.6
230.695
230.742
230.841
230.89
230.993
231.043
231.15
231.201
231.312
231.363
231.478
231.529
231.645
231.696
231.814
231.863
231.981
232.03
232.148
232.195
232.312
232.358
232.473
232.518
232.631
232.675
232.791
232.825
232.963
)
;

boundaryField
{
    sides
    {
        type            zeroGradient;
    }
    empty
    {
        type            empty;
    }
}


// ************************************************************************* //
