/*--------------------------------*- C++ -*----------------------------------*\
  =========                 |
  \\      /  F ield         | OpenFOAM: The Open Source CFD Toolbox
   \\    /   O peration     | Website:  https://openfoam.org
    \\  /    A nd           | Version:  9
     \\/     M anipulation  |
\*---------------------------------------------------------------------------*/
FoamFile
{
    format      ascii;
    class       volVectorField;
    location    "0.036";
    object      U;
}
// * * * * * * * * * * * * * * * * * * * * * * * * * * * * * * * * * * * * * //

dimensions      [0 1 -1 0 0 0 0];

internalField   nonuniform List<vector> 
1000
(
(15.8075 0 0)
(16.185 0 0)
(16.6306 0 0)
(16.9961 0 0)
(17.3228 0 0)
(17.6499 0 0)
(17.9847 0 0)
(18.3224 0 0)
(18.6599 0 0)
(18.9968 0 0)
(19.3334 0 0)
(19.6701 0 0)
(20.0068 0 0)
(20.3436 0 0)
(20.6805 0 0)
(21.0173 0 0)
(21.3543 0 0)
(21.6912 0 0)
(22.0282 0 0)
(22.3652 0 0)
(22.7021 0 0)
(23.0391 0 0)
(23.3761 0 0)
(23.7132 0 0)
(24.0503 0 0)
(24.3874 0 0)
(24.7246 0 0)
(25.0618 0 0)
(25.3991 0 0)
(25.7364 0 0)
(26.0737 0 0)
(26.411 0 0)
(26.7484 0 0)
(27.0857 0 0)
(27.4231 0 0)
(27.7604 0 0)
(28.0978 0 0)
(28.4352 0 0)
(28.7727 0 0)
(29.1101 0 0)
(29.4477 0 0)
(29.7852 0 0)
(30.1228 0 0)
(30.4603 0 0)
(30.7979 0 0)
(31.1355 0 0)
(31.4731 0 0)
(31.8107 0 0)
(32.1484 0 0)
(32.486 0 0)
(32.8237 0 0)
(33.1614 0 0)
(33.4992 0 0)
(33.8369 0 0)
(34.1747 0 0)
(34.5125 0 0)
(34.8503 0 0)
(35.1881 0 0)
(35.526 0 0)
(35.8638 0 0)
(36.2017 0 0)
(36.5396 0 0)
(36.8775 0 0)
(37.2155 0 0)
(37.5534 0 0)
(37.8914 0 0)
(38.2294 0 0)
(38.5674 0 0)
(38.9054 0 0)
(39.2434 0 0)
(39.5815 0 0)
(39.9195 0 0)
(40.2576 0 0)
(40.5957 0 0)
(40.9338 0 0)
(41.2719 0 0)
(41.6101 0 0)
(41.9482 0 0)
(42.2864 0 0)
(42.6245 0 0)
(42.9627 0 0)
(43.3009 0 0)
(43.6391 0 0)
(43.9773 0 0)
(44.3156 0 0)
(44.6538 0 0)
(44.9921 0 0)
(45.3303 0 0)
(45.6686 0 0)
(46.0069 0 0)
(46.3452 0 0)
(46.6834 0 0)
(47.0217 0 0)
(47.3601 0 0)
(47.6984 0 0)
(48.0367 0 0)
(48.375 0 0)
(48.7134 0 0)
(49.0517 0 0)
(49.3901 0 0)
(49.7284 0 0)
(50.0668 0 0)
(50.4051 0 0)
(50.7435 0 0)
(51.0819 0 0)
(51.4202 0 0)
(51.7586 0 0)
(52.097 0 0)
(52.4353 0 0)
(52.7737 0 0)
(53.1121 0 0)
(53.4505 0 0)
(53.7889 0 0)
(54.1272 0 0)
(54.4656 0 0)
(54.804 0 0)
(55.1423 0 0)
(55.4807 0 0)
(55.8191 0 0)
(56.1574 0 0)
(56.4958 0 0)
(56.8341 0 0)
(57.1725 0 0)
(57.5108 0 0)
(57.8491 0 0)
(58.1875 0 0)
(58.5258 0 0)
(58.8641 0 0)
(59.2024 0 0)
(59.5407 0 0)
(59.8789 0 0)
(60.2172 0 0)
(60.5554 0 0)
(60.8937 0 0)
(61.2319 0 0)
(61.5701 0 0)
(61.9083 0 0)
(62.2465 0 0)
(62.5847 0 0)
(62.9228 0 0)
(63.2609 0 0)
(63.5991 0 0)
(63.9372 0 0)
(64.2752 0 0)
(64.6133 0 0)
(64.9513 0 0)
(65.2893 0 0)
(65.6273 0 0)
(65.9653 0 0)
(66.3032 0 0)
(66.6411 0 0)
(66.979 0 0)
(67.3169 0 0)
(67.6547 0 0)
(67.9925 0 0)
(68.3303 0 0)
(68.668 0 0)
(69.0057 0 0)
(69.3434 0 0)
(69.681 0 0)
(70.0186 0 0)
(70.3562 0 0)
(70.6937 0 0)
(71.0312 0 0)
(71.3686 0 0)
(71.706 0 0)
(72.0434 0 0)
(72.3807 0 0)
(72.718 0 0)
(73.0552 0 0)
(73.3924 0 0)
(73.7295 0 0)
(74.0666 0 0)
(74.4036 0 0)
(74.7406 0 0)
(75.0775 0 0)
(75.4144 0 0)
(75.7512 0 0)
(76.088 0 0)
(76.4247 0 0)
(76.7613 0 0)
(77.0979 0 0)
(77.4344 0 0)
(77.7708 0 0)
(78.1072 0 0)
(78.4435 0 0)
(78.7797 0 0)
(79.1158 0 0)
(79.4519 0 0)
(79.7879 0 0)
(80.1238 0 0)
(80.4597 0 0)
(80.7954 0 0)
(81.1311 0 0)
(81.4667 0 0)
(81.8022 0 0)
(82.1376 0 0)
(82.4729 0 0)
(82.8081 0 0)
(83.1433 0 0)
(83.4783 0 0)
(83.8132 0 0)
(84.148 0 0)
(84.4827 0 0)
(84.8173 0 0)
(85.1518 0 0)
(85.4862 0 0)
(85.8204 0 0)
(86.1545 0 0)
(86.4885 0 0)
(86.8224 0 0)
(87.1562 0 0)
(87.4898 0 0)
(87.8233 0 0)
(88.1566 0 0)
(88.4898 0 0)
(88.8229 0 0)
(89.1558 0 0)
(89.4885 0 0)
(89.8211 0 0)
(90.1536 0 0)
(90.4858 0 0)
(90.818 0 0)
(91.1499 0 0)
(91.4817 0 0)
(91.8133 0 0)
(92.1447 0 0)
(92.4759 0 0)
(92.8069 0 0)
(93.1378 0 0)
(93.4684 0 0)
(93.7988 0 0)
(94.129 0 0)
(94.459 0 0)
(94.7888 0 0)
(95.1184 0 0)
(95.4477 0 0)
(95.7768 0 0)
(96.1057 0 0)
(96.4343 0 0)
(96.7627 0 0)
(97.0908 0 0)
(97.4186 0 0)
(97.7462 0 0)
(98.0735 0 0)
(98.4005 0 0)
(98.7272 0 0)
(99.0537 0 0)
(99.3798 0 0)
(99.7056 0 0)
(100.031 0 0)
(100.356 0 0)
(100.681 0 0)
(101.006 0 0)
(101.33 0 0)
(101.654 0 0)
(101.977 0 0)
(102.3 0 0)
(102.623 0 0)
(102.945 0 0)
(103.267 0 0)
(103.588 0 0)
(103.909 0 0)
(104.23 0 0)
(104.55 0 0)
(104.87 0 0)
(105.189 0 0)
(105.508 0 0)
(105.826 0 0)
(106.144 0 0)
(106.462 0 0)
(106.779 0 0)
(107.095 0 0)
(107.411 0 0)
(107.726 0 0)
(108.041 0 0)
(108.355 0 0)
(108.668 0 0)
(108.982 0 0)
(109.294 0 0)
(109.606 0 0)
(109.917 0 0)
(110.228 0 0)
(110.539 0 0)
(110.849 0 0)
(111.157 0 0)
(111.465 0 0)
(111.772 0 0)
(112.078 0 0)
(112.384 0 0)
(112.688 0 0)
(112.992 0 0)
(113.295 0 0)
(113.597 0 0)
(113.898 0 0)
(114.199 0 0)
(114.498 0 0)
(114.797 0 0)
(115.094 0 0)
(115.391 0 0)
(115.687 0 0)
(115.981 0 0)
(116.275 0 0)
(116.568 0 0)
(116.86 0 0)
(117.15 0 0)
(117.44 0 0)
(117.728 0 0)
(118.015 0 0)
(118.301 0 0)
(118.586 0 0)
(118.87 0 0)
(119.152 0 0)
(119.433 0 0)
(119.713 0 0)
(119.992 0 0)
(120.269 0 0)
(120.545 0 0)
(120.819 0 0)
(121.092 0 0)
(121.364 0 0)
(121.634 0 0)
(121.903 0 0)
(122.17 0 0)
(122.436 0 0)
(122.7 0 0)
(122.963 0 0)
(123.224 0 0)
(123.483 0 0)
(123.741 0 0)
(123.997 0 0)
(124.252 0 0)
(124.505 0 0)
(124.756 0 0)
(125.005 0 0)
(125.253 0 0)
(125.499 0 0)
(125.743 0 0)
(125.986 0 0)
(126.226 0 0)
(126.465 0 0)
(126.702 0 0)
(126.938 0 0)
(127.171 0 0)
(127.403 0 0)
(127.632 0 0)
(127.86 0 0)
(128.086 0 0)
(128.311 0 0)
(128.533 0 0)
(128.754 0 0)
(128.972 0 0)
(129.189 0 0)
(129.404 0 0)
(129.618 0 0)
(129.829 0 0)
(130.039 0 0)
(130.247 0 0)
(130.454 0 0)
(130.658 0 0)
(130.861 0 0)
(131.062 0 0)
(131.262 0 0)
(131.46 0 0)
(131.656 0 0)
(131.851 0 0)
(132.044 0 0)
(132.236 0 0)
(132.426 0 0)
(132.615 0 0)
(132.803 0 0)
(132.989 0 0)
(133.173 0 0)
(133.357 0 0)
(133.539 0 0)
(133.72 0 0)
(133.9 0 0)
(134.079 0 0)
(134.257 0 0)
(134.433 0 0)
(134.609 0 0)
(134.783 0 0)
(134.957 0 0)
(135.13 0 0)
(135.302 0 0)
(135.473 0 0)
(135.643 0 0)
(135.813 0 0)
(135.982 0 0)
(136.15 0 0)
(136.318 0 0)
(136.485 0 0)
(136.652 0 0)
(136.818 0 0)
(136.984 0 0)
(137.149 0 0)
(137.313 0 0)
(137.478 0 0)
(137.642 0 0)
(137.805 0 0)
(137.968 0 0)
(138.131 0 0)
(138.294 0 0)
(138.456 0 0)
(138.619 0 0)
(138.781 0 0)
(138.942 0 0)
(139.104 0 0)
(139.266 0 0)
(139.427 0 0)
(139.588 0 0)
(139.749 0 0)
(139.91 0 0)
(140.071 0 0)
(140.232 0 0)
(140.393 0 0)
(140.553 0 0)
(140.714 0 0)
(140.874 0 0)
(141.035 0 0)
(141.195 0 0)
(141.356 0 0)
(141.516 0 0)
(141.677 0 0)
(141.837 0 0)
(141.998 0 0)
(142.158 0 0)
(142.319 0 0)
(142.479 0 0)
(142.64 0 0)
(142.8 0 0)
(142.961 0 0)
(143.121 0 0)
(143.282 0 0)
(143.443 0 0)
(143.603 0 0)
(143.764 0 0)
(143.925 0 0)
(144.085 0 0)
(144.246 0 0)
(144.407 0 0)
(144.568 0 0)
(144.728 0 0)
(144.889 0 0)
(145.05 0 0)
(145.211 0 0)
(145.372 0 0)
(145.533 0 0)
(145.694 0 0)
(145.855 0 0)
(146.016 0 0)
(146.178 0 0)
(146.339 0 0)
(146.5 0 0)
(146.661 0 0)
(146.823 0 0)
(146.984 0 0)
(147.146 0 0)
(147.307 0 0)
(147.468 0 0)
(147.63 0 0)
(147.792 0 0)
(147.953 0 0)
(148.115 0 0)
(148.277 0 0)
(148.438 0 0)
(148.6 0 0)
(148.762 0 0)
(148.924 0 0)
(149.086 0 0)
(149.248 0 0)
(149.41 0 0)
(149.572 0 0)
(149.734 0 0)
(149.896 0 0)
(150.058 0 0)
(150.22 0 0)
(150.382 0 0)
(150.545 0 0)
(150.707 0 0)
(150.869 0 0)
(151.032 0 0)
(151.194 0 0)
(151.357 0 0)
(151.519 0 0)
(151.682 0 0)
(151.844 0 0)
(152.007 0 0)
(152.17 0 0)
(152.333 0 0)
(152.495 0 0)
(152.658 0 0)
(152.821 0 0)
(152.984 0 0)
(153.147 0 0)
(153.31 0 0)
(153.473 0 0)
(153.636 0 0)
(153.799 0 0)
(153.963 0 0)
(154.126 0 0)
(154.289 0 0)
(154.452 0 0)
(154.616 0 0)
(154.779 0 0)
(154.943 0 0)
(155.106 0 0)
(155.27 0 0)
(155.433 0 0)
(155.597 0 0)
(155.761 0 0)
(155.924 0 0)
(156.088 0 0)
(156.252 0 0)
(156.416 0 0)
(156.58 0 0)
(156.744 0 0)
(156.907 0 0)
(157.071 0 0)
(157.236 0 0)
(157.4 0 0)
(157.564 0 0)
(157.728 0 0)
(157.892 0 0)
(158.056 0 0)
(158.221 0 0)
(158.385 0 0)
(158.55 0 0)
(158.714 0 0)
(158.878 0 0)
(159.043 0 0)
(159.208 0 0)
(159.372 0 0)
(159.537 0 0)
(159.701 0 0)
(159.866 0 0)
(160.031 0 0)
(160.196 0 0)
(160.361 0 0)
(160.526 0 0)
(160.69 0 0)
(160.855 0 0)
(161.02 0 0)
(161.186 0 0)
(161.351 0 0)
(161.516 0 0)
(161.681 0 0)
(161.846 0 0)
(162.012 0 0)
(162.177 0 0)
(162.342 0 0)
(162.508 0 0)
(162.673 0 0)
(162.839 0 0)
(163.004 0 0)
(163.17 0 0)
(163.335 0 0)
(163.501 0 0)
(163.667 0 0)
(163.832 0 0)
(163.998 0 0)
(164.164 0 0)
(164.33 0 0)
(164.496 0 0)
(164.662 0 0)
(164.828 0 0)
(164.994 0 0)
(165.16 0 0)
(165.326 0 0)
(165.492 0 0)
(165.658 0 0)
(165.824 0 0)
(165.991 0 0)
(166.157 0 0)
(166.323 0 0)
(166.49 0 0)
(166.656 0 0)
(166.823 0 0)
(166.989 0 0)
(167.156 0 0)
(167.322 0 0)
(167.489 0 0)
(167.656 0 0)
(167.822 0 0)
(167.989 0 0)
(168.156 0 0)
(168.323 0 0)
(168.49 0 0)
(168.657 0 0)
(168.823 0 0)
(168.99 0 0)
(169.158 0 0)
(169.325 0 0)
(169.492 0 0)
(169.659 0 0)
(169.826 0 0)
(169.993 0 0)
(170.161 0 0)
(170.328 0 0)
(170.495 0 0)
(170.663 0 0)
(170.83 0 0)
(170.998 0 0)
(171.165 0 0)
(171.333 0 0)
(171.501 0 0)
(171.668 0 0)
(171.836 0 0)
(172.004 0 0)
(172.171 0 0)
(172.339 0 0)
(172.507 0 0)
(172.675 0 0)
(172.843 0 0)
(173.011 0 0)
(173.179 0 0)
(173.347 0 0)
(173.515 0 0)
(173.683 0 0)
(173.851 0 0)
(174.02 0 0)
(174.188 0 0)
(174.356 0 0)
(174.525 0 0)
(174.693 0 0)
(174.861 0 0)
(175.03 0 0)
(175.198 0 0)
(175.367 0 0)
(175.536 0 0)
(175.704 0 0)
(175.873 0 0)
(176.042 0 0)
(176.21 0 0)
(176.379 0 0)
(176.548 0 0)
(176.717 0 0)
(176.886 0 0)
(177.055 0 0)
(177.224 0 0)
(177.393 0 0)
(177.562 0 0)
(177.731 0 0)
(177.9 0 0)
(178.069 0 0)
(178.239 0 0)
(178.408 0 0)
(178.577 0 0)
(178.746 0 0)
(178.916 0 0)
(179.085 0 0)
(179.255 0 0)
(179.424 0 0)
(179.594 0 0)
(179.763 0 0)
(179.933 0 0)
(180.103 0 0)
(180.272 0 0)
(180.442 0 0)
(180.612 0 0)
(180.782 0 0)
(180.952 0 0)
(181.122 0 0)
(181.291 0 0)
(181.461 0 0)
(181.631 0 0)
(181.802 0 0)
(181.972 0 0)
(182.142 0 0)
(182.312 0 0)
(182.482 0 0)
(182.652 0 0)
(182.823 0 0)
(182.993 0 0)
(183.163 0 0)
(183.334 0 0)
(183.504 0 0)
(183.675 0 0)
(183.845 0 0)
(184.016 0 0)
(184.186 0 0)
(184.357 0 0)
(184.528 0 0)
(184.698 0 0)
(184.869 0 0)
(185.04 0 0)
(185.211 0 0)
(185.382 0 0)
(185.553 0 0)
(185.724 0 0)
(185.895 0 0)
(186.066 0 0)
(186.237 0 0)
(186.408 0 0)
(186.579 0 0)
(186.75 0 0)
(186.921 0 0)
(187.092 0 0)
(187.264 0 0)
(187.435 0 0)
(187.606 0 0)
(187.778 0 0)
(187.949 0 0)
(188.121 0 0)
(188.292 0 0)
(188.464 0 0)
(188.635 0 0)
(188.807 0 0)
(188.979 0 0)
(189.15 0 0)
(189.322 0 0)
(189.494 0 0)
(189.666 0 0)
(189.838 0 0)
(190.01 0 0)
(190.181 0 0)
(190.353 0 0)
(190.525 0 0)
(190.698 0 0)
(190.87 0 0)
(191.042 0 0)
(191.214 0 0)
(191.386 0 0)
(191.558 0 0)
(191.731 0 0)
(191.903 0 0)
(192.075 0 0)
(192.248 0 0)
(192.42 0 0)
(192.592 0 0)
(192.765 0 0)
(192.937 0 0)
(193.11 0 0)
(193.283 0 0)
(193.455 0 0)
(193.628 0 0)
(193.801 0 0)
(193.973 0 0)
(194.146 0 0)
(194.319 0 0)
(194.492 0 0)
(194.665 0 0)
(194.838 0 0)
(195.01 0 0)
(195.183 0 0)
(195.356 0 0)
(195.529 0 0)
(195.703 0 0)
(195.876 0 0)
(196.049 0 0)
(196.222 0 0)
(196.395 0 0)
(196.568 0 0)
(196.742 0 0)
(196.915 0 0)
(197.088 0 0)
(197.261 0 0)
(197.435 0 0)
(197.608 0 0)
(197.782 0 0)
(197.955 0 0)
(198.129 0 0)
(198.302 0 0)
(198.476 0 0)
(198.649 0 0)
(198.823 0 0)
(198.997 0 0)
(199.17 0 0)
(199.344 0 0)
(199.518 0 0)
(199.692 0 0)
(199.866 0 0)
(200.04 0 0)
(200.213 0 0)
(200.387 0 0)
(200.562 0 0)
(200.736 0 0)
(200.91 0 0)
(201.084 0 0)
(201.258 0 0)
(201.432 0 0)
(201.607 0 0)
(201.781 0 0)
(201.955 0 0)
(202.13 0 0)
(202.304 0 0)
(202.479 0 0)
(202.653 0 0)
(202.828 0 0)
(203.002 0 0)
(203.177 0 0)
(203.351 0 0)
(203.526 0 0)
(203.7 0 0)
(203.875 0 0)
(204.05 0 0)
(204.224 0 0)
(204.399 0 0)
(204.573 0 0)
(204.748 0 0)
(204.922 0 0)
(205.097 0 0)
(205.271 0 0)
(205.445 0 0)
(205.62 0 0)
(205.794 0 0)
(205.968 0 0)
(206.142 0 0)
(206.316 0 0)
(206.489 0 0)
(206.663 0 0)
(206.836 0 0)
(207.009 0 0)
(207.182 0 0)
(207.355 0 0)
(207.528 0 0)
(207.7 0 0)
(207.872 0 0)
(208.044 0 0)
(208.215 0 0)
(208.386 0 0)
(208.557 0 0)
(208.727 0 0)
(208.897 0 0)
(209.067 0 0)
(209.236 0 0)
(209.404 0 0)
(209.572 0 0)
(209.739 0 0)
(209.906 0 0)
(210.072 0 0)
(210.237 0 0)
(210.402 0 0)
(210.566 0 0)
(210.73 0 0)
(210.892 0 0)
(211.054 0 0)
(211.215 0 0)
(211.375 0 0)
(211.535 0 0)
(211.693 0 0)
(211.851 0 0)
(212.008 0 0)
(212.163 0 0)
(212.318 0 0)
(212.473 0 0)
(212.626 0 0)
(212.778 0 0)
(212.93 0 0)
(213.08 0 0)
(213.23 0 0)
(213.379 0 0)
(213.527 0 0)
(213.675 0 0)
(213.821 0 0)
(213.968 0 0)
(214.113 0 0)
(214.258 0 0)
(214.402 0 0)
(214.546 0 0)
(214.69 0 0)
(214.833 0 0)
(214.976 0 0)
(215.119 0 0)
(215.261 0 0)
(215.404 0 0)
(215.546 0 0)
(215.689 0 0)
(215.832 0 0)
(215.975 0 0)
(216.118 0 0)
(216.261 0 0)
(216.405 0 0)
(216.55 0 0)
(216.694 0 0)
(216.84 0 0)
(216.986 0 0)
(217.133 0 0)
(217.28 0 0)
(217.428 0 0)
(217.578 0 0)
(217.727 0 0)
(217.878 0 0)
(218.03 0 0)
(218.182 0 0)
(218.336 0 0)
(218.49 0 0)
(218.645 0 0)
(218.801 0 0)
(218.958 0 0)
(219.116 0 0)
(219.275 0 0)
(219.435 0 0)
(219.595 0 0)
(219.757 0 0)
(219.919 0 0)
(220.082 0 0)
(220.246 0 0)
(220.41 0 0)
(220.576 0 0)
(220.742 0 0)
(220.909 0 0)
(221.076 0 0)
(221.244 0 0)
(221.412 0 0)
(221.582 0 0)
(221.751 0 0)
(221.921 0 0)
(222.092 0 0)
(222.263 0 0)
(222.435 0 0)
(222.607 0 0)
(222.779 0 0)
(222.952 0 0)
(223.125 0 0)
(223.298 0 0)
(223.471 0 0)
(223.645 0 0)
(223.82 0 0)
(223.994 0 0)
(224.169 0 0)
(224.344 0 0)
(224.519 0 0)
(224.694 0 0)
(224.87 0 0)
(225.045 0 0)
(225.221 0 0)
(225.398 0 0)
(225.574 0 0)
(225.75 0 0)
(225.927 0 0)
(226.104 0 0)
(226.281 0 0)
(226.459 0 0)
(226.636 0 0)
(226.814 0 0)
(226.991 0 0)
(227.169 0 0)
(227.347 0 0)
(227.525 0 0)
(227.704 0 0)
(227.882 0 0)
(228.06 0 0)
(228.239 0 0)
(228.417 0 0)
(228.596 0 0)
(228.774 0 0)
(228.953 0 0)
(229.131 0 0)
(229.309 0 0)
(229.487 0 0)
(229.665 0 0)
(229.842 0 0)
(230.018 0 0)
(230.194 0 0)
(230.37 0 0)
(230.544 0 0)
(230.717 0 0)
(230.889 0 0)
(231.059 0 0)
(231.227 0 0)
(231.393 0 0)
(231.557 0 0)
(231.718 0 0)
(231.876 0 0)
(232.031 0 0)
(232.182 0 0)
(232.329 0 0)
(232.472 0 0)
(232.611 0 0)
(232.746 0 0)
(232.875 0 0)
(233 0 0)
(233.12 0 0)
(233.236 0 0)
(233.347 0 0)
(233.453 0 0)
(233.556 0 0)
(233.655 0 0)
(233.75 0 0)
(233.843 0 0)
(233.933 0 0)
(234.022 0 0)
(234.109 0 0)
(234.196 0 0)
(234.282 0 0)
(234.369 0 0)
(234.456 0 0)
(234.545 0 0)
(234.635 0 0)
(234.727 0 0)
(234.821 0 0)
(234.917 0 0)
(235.015 0 0)
(235.116 0 0)
(235.219 0 0)
(235.325 0 0)
(235.434 0 0)
(235.549 0 0)
(235.829 0 0)
)
;

boundaryField
{
    sides
    {
        type            zeroGradient;
    }
    empty
    {
        type            empty;
    }
}


// ************************************************************************* //
