/*--------------------------------*- C++ -*----------------------------------*\
  =========                 |
  \\      /  F ield         | OpenFOAM: The Open Source CFD Toolbox
   \\    /   O peration     | Website:  https://openfoam.org
    \\  /    A nd           | Version:  9
     \\/     M anipulation  |
\*---------------------------------------------------------------------------*/
FoamFile
{
    format      ascii;
    class       volVectorField;
    location    "0.022";
    object      U;
}
// * * * * * * * * * * * * * * * * * * * * * * * * * * * * * * * * * * * * * //

dimensions      [0 1 -1 0 0 0 0];

internalField   nonuniform List<vector> 
10000
(
(2.39048 0 0)
(2.48426 0 0)
(2.55643 0 0)
(2.61811 0 0)
(2.68075 0 0)
(2.74534 0 0)
(2.8104 0 0)
(2.87522 0 0)
(2.93989 0 0)
(3.00455 0 0)
(3.06925 0 0)
(3.13397 0 0)
(3.1987 0 0)
(3.26343 0 0)
(3.32815 0 0)
(3.39286 0 0)
(3.45757 0 0)
(3.52228 0 0)
(3.58698 0 0)
(3.65168 0 0)
(3.71638 0 0)
(3.78108 0 0)
(3.84578 0 0)
(3.91048 0 0)
(3.97518 0 0)
(4.03988 0 0)
(4.10458 0 0)
(4.16929 0 0)
(4.23399 0 0)
(4.29869 0 0)
(4.36339 0 0)
(4.42809 0 0)
(4.4928 0 0)
(4.5575 0 0)
(4.6222 0 0)
(4.68691 0 0)
(4.75161 0 0)
(4.81632 0 0)
(4.88102 0 0)
(4.94573 0 0)
(5.01044 0 0)
(5.07514 0 0)
(5.13985 0 0)
(5.20456 0 0)
(5.26926 0 0)
(5.33397 0 0)
(5.39868 0 0)
(5.46339 0 0)
(5.5281 0 0)
(5.59281 0 0)
(5.65752 0 0)
(5.72223 0 0)
(5.78694 0 0)
(5.85165 0 0)
(5.91636 0 0)
(5.98107 0 0)
(6.04579 0 0)
(6.1105 0 0)
(6.17521 0 0)
(6.23992 0 0)
(6.30464 0 0)
(6.36935 0 0)
(6.43407 0 0)
(6.49878 0 0)
(6.5635 0 0)
(6.62821 0 0)
(6.69293 0 0)
(6.75765 0 0)
(6.82236 0 0)
(6.88708 0 0)
(6.9518 0 0)
(7.01652 0 0)
(7.08123 0 0)
(7.14595 0 0)
(7.21067 0 0)
(7.27539 0 0)
(7.34011 0 0)
(7.40483 0 0)
(7.46955 0 0)
(7.53427 0 0)
(7.599 0 0)
(7.66372 0 0)
(7.72844 0 0)
(7.79316 0 0)
(7.85789 0 0)
(7.92261 0 0)
(7.98733 0 0)
(8.05206 0 0)
(8.11678 0 0)
(8.18151 0 0)
(8.24623 0 0)
(8.31096 0 0)
(8.37568 0 0)
(8.44041 0 0)
(8.50514 0 0)
(8.56986 0 0)
(8.63459 0 0)
(8.69932 0 0)
(8.76405 0 0)
(8.82878 0 0)
(8.89351 0 0)
(8.95824 0 0)
(9.02297 0 0)
(9.0877 0 0)
(9.15243 0 0)
(9.21716 0 0)
(9.28189 0 0)
(9.34662 0 0)
(9.41135 0 0)
(9.47609 0 0)
(9.54082 0 0)
(9.60555 0 0)
(9.67029 0 0)
(9.73502 0 0)
(9.79976 0 0)
(9.86449 0 0)
(9.92923 0 0)
(9.99396 0 0)
(10.0587 0 0)
(10.1234 0 0)
(10.1882 0 0)
(10.2529 0 0)
(10.3176 0 0)
(10.3824 0 0)
(10.4471 0 0)
(10.5119 0 0)
(10.5766 0 0)
(10.6413 0 0)
(10.7061 0 0)
(10.7708 0 0)
(10.8356 0 0)
(10.9003 0 0)
(10.965 0 0)
(11.0298 0 0)
(11.0945 0 0)
(11.1593 0 0)
(11.224 0 0)
(11.2888 0 0)
(11.3535 0 0)
(11.4182 0 0)
(11.483 0 0)
(11.5477 0 0)
(11.6125 0 0)
(11.6772 0 0)
(11.742 0 0)
(11.8067 0 0)
(11.8715 0 0)
(11.9362 0 0)
(12.001 0 0)
(12.0657 0 0)
(12.1305 0 0)
(12.1952 0 0)
(12.26 0 0)
(12.3247 0 0)
(12.3895 0 0)
(12.4542 0 0)
(12.519 0 0)
(12.5837 0 0)
(12.6485 0 0)
(12.7132 0 0)
(12.778 0 0)
(12.8427 0 0)
(12.9075 0 0)
(12.9722 0 0)
(13.037 0 0)
(13.1017 0 0)
(13.1665 0 0)
(13.2312 0 0)
(13.296 0 0)
(13.3607 0 0)
(13.4255 0 0)
(13.4903 0 0)
(13.555 0 0)
(13.6198 0 0)
(13.6845 0 0)
(13.7493 0 0)
(13.814 0 0)
(13.8788 0 0)
(13.9436 0 0)
(14.0083 0 0)
(14.0731 0 0)
(14.1378 0 0)
(14.2026 0 0)
(14.2674 0 0)
(14.3321 0 0)
(14.3969 0 0)
(14.4617 0 0)
(14.5264 0 0)
(14.5912 0 0)
(14.6559 0 0)
(14.7207 0 0)
(14.7855 0 0)
(14.8502 0 0)
(14.915 0 0)
(14.9798 0 0)
(15.0445 0 0)
(15.1093 0 0)
(15.1741 0 0)
(15.2388 0 0)
(15.3036 0 0)
(15.3684 0 0)
(15.4331 0 0)
(15.4979 0 0)
(15.5627 0 0)
(15.6274 0 0)
(15.6922 0 0)
(15.757 0 0)
(15.8217 0 0)
(15.8865 0 0)
(15.9513 0 0)
(16.0161 0 0)
(16.0808 0 0)
(16.1456 0 0)
(16.2104 0 0)
(16.2751 0 0)
(16.3399 0 0)
(16.4047 0 0)
(16.4695 0 0)
(16.5342 0 0)
(16.599 0 0)
(16.6638 0 0)
(16.7286 0 0)
(16.7933 0 0)
(16.8581 0 0)
(16.9229 0 0)
(16.9877 0 0)
(17.0524 0 0)
(17.1172 0 0)
(17.182 0 0)
(17.2468 0 0)
(17.3116 0 0)
(17.3763 0 0)
(17.4411 0 0)
(17.5059 0 0)
(17.5707 0 0)
(17.6355 0 0)
(17.7002 0 0)
(17.765 0 0)
(17.8298 0 0)
(17.8946 0 0)
(17.9594 0 0)
(18.0242 0 0)
(18.0889 0 0)
(18.1537 0 0)
(18.2185 0 0)
(18.2833 0 0)
(18.3481 0 0)
(18.4129 0 0)
(18.4776 0 0)
(18.5424 0 0)
(18.6072 0 0)
(18.672 0 0)
(18.7368 0 0)
(18.8016 0 0)
(18.8664 0 0)
(18.9312 0 0)
(18.9959 0 0)
(19.0607 0 0)
(19.1255 0 0)
(19.1903 0 0)
(19.2551 0 0)
(19.3199 0 0)
(19.3847 0 0)
(19.4495 0 0)
(19.5143 0 0)
(19.5791 0 0)
(19.6439 0 0)
(19.7086 0 0)
(19.7734 0 0)
(19.8382 0 0)
(19.903 0 0)
(19.9678 0 0)
(20.0326 0 0)
(20.0974 0 0)
(20.1622 0 0)
(20.227 0 0)
(20.2918 0 0)
(20.3566 0 0)
(20.4214 0 0)
(20.4862 0 0)
(20.551 0 0)
(20.6158 0 0)
(20.6806 0 0)
(20.7454 0 0)
(20.8102 0 0)
(20.875 0 0)
(20.9398 0 0)
(21.0046 0 0)
(21.0694 0 0)
(21.1342 0 0)
(21.199 0 0)
(21.2638 0 0)
(21.3286 0 0)
(21.3934 0 0)
(21.4582 0 0)
(21.523 0 0)
(21.5878 0 0)
(21.6526 0 0)
(21.7174 0 0)
(21.7822 0 0)
(21.847 0 0)
(21.9118 0 0)
(21.9766 0 0)
(22.0414 0 0)
(22.1062 0 0)
(22.1711 0 0)
(22.2359 0 0)
(22.3007 0 0)
(22.3655 0 0)
(22.4303 0 0)
(22.4951 0 0)
(22.5599 0 0)
(22.6247 0 0)
(22.6895 0 0)
(22.7543 0 0)
(22.8192 0 0)
(22.884 0 0)
(22.9488 0 0)
(23.0136 0 0)
(23.0784 0 0)
(23.1432 0 0)
(23.208 0 0)
(23.2728 0 0)
(23.3377 0 0)
(23.4025 0 0)
(23.4673 0 0)
(23.5321 0 0)
(23.5969 0 0)
(23.6617 0 0)
(23.7265 0 0)
(23.7914 0 0)
(23.8562 0 0)
(23.921 0 0)
(23.9858 0 0)
(24.0506 0 0)
(24.1155 0 0)
(24.1803 0 0)
(24.2451 0 0)
(24.3099 0 0)
(24.3747 0 0)
(24.4395 0 0)
(24.5044 0 0)
(24.5692 0 0)
(24.634 0 0)
(24.6988 0 0)
(24.7637 0 0)
(24.8285 0 0)
(24.8933 0 0)
(24.9581 0 0)
(25.023 0 0)
(25.0878 0 0)
(25.1526 0 0)
(25.2174 0 0)
(25.2823 0 0)
(25.3471 0 0)
(25.4119 0 0)
(25.4767 0 0)
(25.5416 0 0)
(25.6064 0 0)
(25.6712 0 0)
(25.736 0 0)
(25.8009 0 0)
(25.8657 0 0)
(25.9305 0 0)
(25.9954 0 0)
(26.0602 0 0)
(26.125 0 0)
(26.1898 0 0)
(26.2547 0 0)
(26.3195 0 0)
(26.3843 0 0)
(26.4492 0 0)
(26.514 0 0)
(26.5788 0 0)
(26.6437 0 0)
(26.7085 0 0)
(26.7733 0 0)
(26.8382 0 0)
(26.903 0 0)
(26.9678 0 0)
(27.0327 0 0)
(27.0975 0 0)
(27.1624 0 0)
(27.2272 0 0)
(27.292 0 0)
(27.3569 0 0)
(27.4217 0 0)
(27.4865 0 0)
(27.5514 0 0)
(27.6162 0 0)
(27.6811 0 0)
(27.7459 0 0)
(27.8107 0 0)
(27.8756 0 0)
(27.9404 0 0)
(28.0053 0 0)
(28.0701 0 0)
(28.1349 0 0)
(28.1998 0 0)
(28.2646 0 0)
(28.3295 0 0)
(28.3943 0 0)
(28.4592 0 0)
(28.524 0 0)
(28.5888 0 0)
(28.6537 0 0)
(28.7185 0 0)
(28.7834 0 0)
(28.8482 0 0)
(28.9131 0 0)
(28.9779 0 0)
(29.0428 0 0)
(29.1076 0 0)
(29.1725 0 0)
(29.2373 0 0)
(29.3022 0 0)
(29.367 0 0)
(29.4319 0 0)
(29.4967 0 0)
(29.5616 0 0)
(29.6264 0 0)
(29.6913 0 0)
(29.7561 0 0)
(29.821 0 0)
(29.8858 0 0)
(29.9507 0 0)
(30.0155 0 0)
(30.0804 0 0)
(30.1452 0 0)
(30.2101 0 0)
(30.2749 0 0)
(30.3398 0 0)
(30.4046 0 0)
(30.4695 0 0)
(30.5344 0 0)
(30.5992 0 0)
(30.6641 0 0)
(30.7289 0 0)
(30.7938 0 0)
(30.8586 0 0)
(30.9235 0 0)
(30.9884 0 0)
(31.0532 0 0)
(31.1181 0 0)
(31.1829 0 0)
(31.2478 0 0)
(31.3127 0 0)
(31.3775 0 0)
(31.4424 0 0)
(31.5072 0 0)
(31.5721 0 0)
(31.637 0 0)
(31.7018 0 0)
(31.7667 0 0)
(31.8316 0 0)
(31.8964 0 0)
(31.9613 0 0)
(32.0261 0 0)
(32.091 0 0)
(32.1559 0 0)
(32.2207 0 0)
(32.2856 0 0)
(32.3505 0 0)
(32.4153 0 0)
(32.4802 0 0)
(32.5451 0 0)
(32.6099 0 0)
(32.6748 0 0)
(32.7397 0 0)
(32.8045 0 0)
(32.8694 0 0)
(32.9343 0 0)
(32.9992 0 0)
(33.064 0 0)
(33.1289 0 0)
(33.1938 0 0)
(33.2586 0 0)
(33.3235 0 0)
(33.3884 0 0)
(33.4533 0 0)
(33.5181 0 0)
(33.583 0 0)
(33.6479 0 0)
(33.7127 0 0)
(33.7776 0 0)
(33.8425 0 0)
(33.9074 0 0)
(33.9722 0 0)
(34.0371 0 0)
(34.102 0 0)
(34.1669 0 0)
(34.2318 0 0)
(34.2966 0 0)
(34.3615 0 0)
(34.4264 0 0)
(34.4913 0 0)
(34.5561 0 0)
(34.621 0 0)
(34.6859 0 0)
(34.7508 0 0)
(34.8157 0 0)
(34.8805 0 0)
(34.9454 0 0)
(35.0103 0 0)
(35.0752 0 0)
(35.1401 0 0)
(35.205 0 0)
(35.2698 0 0)
(35.3347 0 0)
(35.3996 0 0)
(35.4645 0 0)
(35.5294 0 0)
(35.5943 0 0)
(35.6591 0 0)
(35.724 0 0)
(35.7889 0 0)
(35.8538 0 0)
(35.9187 0 0)
(35.9836 0 0)
(36.0485 0 0)
(36.1134 0 0)
(36.1782 0 0)
(36.2431 0 0)
(36.308 0 0)
(36.3729 0 0)
(36.4378 0 0)
(36.5027 0 0)
(36.5676 0 0)
(36.6325 0 0)
(36.6974 0 0)
(36.7623 0 0)
(36.8271 0 0)
(36.892 0 0)
(36.9569 0 0)
(37.0218 0 0)
(37.0867 0 0)
(37.1516 0 0)
(37.2165 0 0)
(37.2814 0 0)
(37.3463 0 0)
(37.4112 0 0)
(37.4761 0 0)
(37.541 0 0)
(37.6059 0 0)
(37.6708 0 0)
(37.7357 0 0)
(37.8006 0 0)
(37.8655 0 0)
(37.9304 0 0)
(37.9953 0 0)
(38.0602 0 0)
(38.1251 0 0)
(38.19 0 0)
(38.2549 0 0)
(38.3198 0 0)
(38.3847 0 0)
(38.4496 0 0)
(38.5145 0 0)
(38.5794 0 0)
(38.6443 0 0)
(38.7092 0 0)
(38.7741 0 0)
(38.839 0 0)
(38.9039 0 0)
(38.9688 0 0)
(39.0337 0 0)
(39.0986 0 0)
(39.1635 0 0)
(39.2284 0 0)
(39.2933 0 0)
(39.3582 0 0)
(39.4231 0 0)
(39.488 0 0)
(39.5529 0 0)
(39.6179 0 0)
(39.6828 0 0)
(39.7477 0 0)
(39.8126 0 0)
(39.8775 0 0)
(39.9424 0 0)
(40.0073 0 0)
(40.0722 0 0)
(40.1371 0 0)
(40.202 0 0)
(40.267 0 0)
(40.3319 0 0)
(40.3968 0 0)
(40.4617 0 0)
(40.5266 0 0)
(40.5915 0 0)
(40.6564 0 0)
(40.7214 0 0)
(40.7863 0 0)
(40.8512 0 0)
(40.9161 0 0)
(40.981 0 0)
(41.0459 0 0)
(41.1108 0 0)
(41.1758 0 0)
(41.2407 0 0)
(41.3056 0 0)
(41.3705 0 0)
(41.4354 0 0)
(41.5004 0 0)
(41.5653 0 0)
(41.6302 0 0)
(41.6951 0 0)
(41.76 0 0)
(41.825 0 0)
(41.8899 0 0)
(41.9548 0 0)
(42.0197 0 0)
(42.0846 0 0)
(42.1496 0 0)
(42.2145 0 0)
(42.2794 0 0)
(42.3443 0 0)
(42.4093 0 0)
(42.4742 0 0)
(42.5391 0 0)
(42.604 0 0)
(42.669 0 0)
(42.7339 0 0)
(42.7988 0 0)
(42.8637 0 0)
(42.9287 0 0)
(42.9936 0 0)
(43.0585 0 0)
(43.1234 0 0)
(43.1884 0 0)
(43.2533 0 0)
(43.3182 0 0)
(43.3832 0 0)
(43.4481 0 0)
(43.513 0 0)
(43.578 0 0)
(43.6429 0 0)
(43.7078 0 0)
(43.7727 0 0)
(43.8377 0 0)
(43.9026 0 0)
(43.9675 0 0)
(44.0325 0 0)
(44.0974 0 0)
(44.1623 0 0)
(44.2273 0 0)
(44.2922 0 0)
(44.3571 0 0)
(44.4221 0 0)
(44.487 0 0)
(44.552 0 0)
(44.6169 0 0)
(44.6818 0 0)
(44.7468 0 0)
(44.8117 0 0)
(44.8766 0 0)
(44.9416 0 0)
(45.0065 0 0)
(45.0715 0 0)
(45.1364 0 0)
(45.2013 0 0)
(45.2663 0 0)
(45.3312 0 0)
(45.3962 0 0)
(45.4611 0 0)
(45.526 0 0)
(45.591 0 0)
(45.6559 0 0)
(45.7209 0 0)
(45.7858 0 0)
(45.8508 0 0)
(45.9157 0 0)
(45.9806 0 0)
(46.0456 0 0)
(46.1105 0 0)
(46.1755 0 0)
(46.2404 0 0)
(46.3054 0 0)
(46.3703 0 0)
(46.4353 0 0)
(46.5002 0 0)
(46.5652 0 0)
(46.6301 0 0)
(46.6951 0 0)
(46.76 0 0)
(46.825 0 0)
(46.8899 0 0)
(46.9549 0 0)
(47.0198 0 0)
(47.0848 0 0)
(47.1497 0 0)
(47.2147 0 0)
(47.2796 0 0)
(47.3446 0 0)
(47.4095 0 0)
(47.4745 0 0)
(47.5394 0 0)
(47.6044 0 0)
(47.6693 0 0)
(47.7343 0 0)
(47.7992 0 0)
(47.8642 0 0)
(47.9291 0 0)
(47.9941 0 0)
(48.0591 0 0)
(48.124 0 0)
(48.189 0 0)
(48.2539 0 0)
(48.3189 0 0)
(48.3838 0 0)
(48.4488 0 0)
(48.5138 0 0)
(48.5787 0 0)
(48.6437 0 0)
(48.7086 0 0)
(48.7736 0 0)
(48.8386 0 0)
(48.9035 0 0)
(48.9685 0 0)
(49.0334 0 0)
(49.0984 0 0)
(49.1634 0 0)
(49.2283 0 0)
(49.2933 0 0)
(49.3583 0 0)
(49.4232 0 0)
(49.4882 0 0)
(49.5532 0 0)
(49.6181 0 0)
(49.6831 0 0)
(49.7481 0 0)
(49.813 0 0)
(49.878 0 0)
(49.943 0 0)
(50.0079 0 0)
(50.0729 0 0)
(50.1379 0 0)
(50.2028 0 0)
(50.2678 0 0)
(50.3328 0 0)
(50.3977 0 0)
(50.4627 0 0)
(50.5277 0 0)
(50.5926 0 0)
(50.6576 0 0)
(50.7226 0 0)
(50.7876 0 0)
(50.8525 0 0)
(50.9175 0 0)
(50.9825 0 0)
(51.0474 0 0)
(51.1124 0 0)
(51.1774 0 0)
(51.2424 0 0)
(51.3073 0 0)
(51.3723 0 0)
(51.4373 0 0)
(51.5023 0 0)
(51.5672 0 0)
(51.6322 0 0)
(51.6972 0 0)
(51.7622 0 0)
(51.8272 0 0)
(51.8921 0 0)
(51.9571 0 0)
(52.0221 0 0)
(52.0871 0 0)
(52.152 0 0)
(52.217 0 0)
(52.282 0 0)
(52.347 0 0)
(52.412 0 0)
(52.4769 0 0)
(52.5419 0 0)
(52.6069 0 0)
(52.6719 0 0)
(52.7369 0 0)
(52.8019 0 0)
(52.8668 0 0)
(52.9318 0 0)
(52.9968 0 0)
(53.0618 0 0)
(53.1268 0 0)
(53.1918 0 0)
(53.2568 0 0)
(53.3217 0 0)
(53.3867 0 0)
(53.4517 0 0)
(53.5167 0 0)
(53.5817 0 0)
(53.6467 0 0)
(53.7117 0 0)
(53.7767 0 0)
(53.8416 0 0)
(53.9066 0 0)
(53.9716 0 0)
(54.0366 0 0)
(54.1016 0 0)
(54.1666 0 0)
(54.2316 0 0)
(54.2966 0 0)
(54.3616 0 0)
(54.4266 0 0)
(54.4916 0 0)
(54.5565 0 0)
(54.6215 0 0)
(54.6865 0 0)
(54.7515 0 0)
(54.8165 0 0)
(54.8815 0 0)
(54.9465 0 0)
(55.0115 0 0)
(55.0765 0 0)
(55.1415 0 0)
(55.2065 0 0)
(55.2715 0 0)
(55.3365 0 0)
(55.4015 0 0)
(55.4665 0 0)
(55.5315 0 0)
(55.5965 0 0)
(55.6615 0 0)
(55.7265 0 0)
(55.7915 0 0)
(55.8565 0 0)
(55.9215 0 0)
(55.9865 0 0)
(56.0515 0 0)
(56.1165 0 0)
(56.1815 0 0)
(56.2465 0 0)
(56.3115 0 0)
(56.3765 0 0)
(56.4415 0 0)
(56.5065 0 0)
(56.5715 0 0)
(56.6365 0 0)
(56.7015 0 0)
(56.7665 0 0)
(56.8315 0 0)
(56.8965 0 0)
(56.9615 0 0)
(57.0266 0 0)
(57.0916 0 0)
(57.1566 0 0)
(57.2216 0 0)
(57.2866 0 0)
(57.3516 0 0)
(57.4166 0 0)
(57.4816 0 0)
(57.5466 0 0)
(57.6116 0 0)
(57.6766 0 0)
(57.7417 0 0)
(57.8067 0 0)
(57.8717 0 0)
(57.9367 0 0)
(58.0017 0 0)
(58.0667 0 0)
(58.1317 0 0)
(58.1967 0 0)
(58.2618 0 0)
(58.3268 0 0)
(58.3918 0 0)
(58.4568 0 0)
(58.5218 0 0)
(58.5868 0 0)
(58.6519 0 0)
(58.7169 0 0)
(58.7819 0 0)
(58.8469 0 0)
(58.9119 0 0)
(58.9769 0 0)
(59.042 0 0)
(59.107 0 0)
(59.172 0 0)
(59.237 0 0)
(59.302 0 0)
(59.3671 0 0)
(59.4321 0 0)
(59.4971 0 0)
(59.5621 0 0)
(59.6271 0 0)
(59.6922 0 0)
(59.7572 0 0)
(59.8222 0 0)
(59.8872 0 0)
(59.9523 0 0)
(60.0173 0 0)
(60.0823 0 0)
(60.1473 0 0)
(60.2124 0 0)
(60.2774 0 0)
(60.3424 0 0)
(60.4074 0 0)
(60.4725 0 0)
(60.5375 0 0)
(60.6025 0 0)
(60.6675 0 0)
(60.7326 0 0)
(60.7976 0 0)
(60.8626 0 0)
(60.9277 0 0)
(60.9927 0 0)
(61.0577 0 0)
(61.1227 0 0)
(61.1878 0 0)
(61.2528 0 0)
(61.3178 0 0)
(61.3829 0 0)
(61.4479 0 0)
(61.5129 0 0)
(61.578 0 0)
(61.643 0 0)
(61.708 0 0)
(61.7731 0 0)
(61.8381 0 0)
(61.9031 0 0)
(61.9682 0 0)
(62.0332 0 0)
(62.0982 0 0)
(62.1633 0 0)
(62.2283 0 0)
(62.2934 0 0)
(62.3584 0 0)
(62.4234 0 0)
(62.4885 0 0)
(62.5535 0 0)
(62.6185 0 0)
(62.6836 0 0)
(62.7486 0 0)
(62.8137 0 0)
(62.8787 0 0)
(62.9437 0 0)
(63.0088 0 0)
(63.0738 0 0)
(63.1389 0 0)
(63.2039 0 0)
(63.2689 0 0)
(63.334 0 0)
(63.399 0 0)
(63.4641 0 0)
(63.5291 0 0)
(63.5942 0 0)
(63.6592 0 0)
(63.7243 0 0)
(63.7893 0 0)
(63.8543 0 0)
(63.9194 0 0)
(63.9844 0 0)
(64.0495 0 0)
(64.1145 0 0)
(64.1796 0 0)
(64.2446 0 0)
(64.3097 0 0)
(64.3747 0 0)
(64.4398 0 0)
(64.5048 0 0)
(64.5699 0 0)
(64.6349 0 0)
(64.7 0 0)
(64.765 0 0)
(64.8301 0 0)
(64.8951 0 0)
(64.9602 0 0)
(65.0252 0 0)
(65.0903 0 0)
(65.1553 0 0)
(65.2204 0 0)
(65.2854 0 0)
(65.3505 0 0)
(65.4156 0 0)
(65.4806 0 0)
(65.5457 0 0)
(65.6107 0 0)
(65.6758 0 0)
(65.7408 0 0)
(65.8059 0 0)
(65.8709 0 0)
(65.936 0 0)
(66.0011 0 0)
(66.0661 0 0)
(66.1312 0 0)
(66.1962 0 0)
(66.2613 0 0)
(66.3264 0 0)
(66.3914 0 0)
(66.4565 0 0)
(66.5215 0 0)
(66.5866 0 0)
(66.6517 0 0)
(66.7167 0 0)
(66.7818 0 0)
(66.8468 0 0)
(66.9119 0 0)
(66.977 0 0)
(67.042 0 0)
(67.1071 0 0)
(67.1722 0 0)
(67.2372 0 0)
(67.3023 0 0)
(67.3674 0 0)
(67.4324 0 0)
(67.4975 0 0)
(67.5626 0 0)
(67.6276 0 0)
(67.6927 0 0)
(67.7578 0 0)
(67.8228 0 0)
(67.8879 0 0)
(67.953 0 0)
(68.018 0 0)
(68.0831 0 0)
(68.1482 0 0)
(68.2132 0 0)
(68.2783 0 0)
(68.3434 0 0)
(68.4085 0 0)
(68.4735 0 0)
(68.5386 0 0)
(68.6037 0 0)
(68.6687 0 0)
(68.7338 0 0)
(68.7989 0 0)
(68.864 0 0)
(68.929 0 0)
(68.9941 0 0)
(69.0592 0 0)
(69.1243 0 0)
(69.1893 0 0)
(69.2544 0 0)
(69.3195 0 0)
(69.3846 0 0)
(69.4497 0 0)
(69.5147 0 0)
(69.5798 0 0)
(69.6449 0 0)
(69.71 0 0)
(69.775 0 0)
(69.8401 0 0)
(69.9052 0 0)
(69.9703 0 0)
(70.0354 0 0)
(70.1004 0 0)
(70.1655 0 0)
(70.2306 0 0)
(70.2957 0 0)
(70.3608 0 0)
(70.4259 0 0)
(70.4909 0 0)
(70.556 0 0)
(70.6211 0 0)
(70.6862 0 0)
(70.7513 0 0)
(70.8164 0 0)
(70.8815 0 0)
(70.9465 0 0)
(71.0116 0 0)
(71.0767 0 0)
(71.1418 0 0)
(71.2069 0 0)
(71.272 0 0)
(71.3371 0 0)
(71.4021 0 0)
(71.4672 0 0)
(71.5323 0 0)
(71.5974 0 0)
(71.6625 0 0)
(71.7276 0 0)
(71.7927 0 0)
(71.8578 0 0)
(71.9229 0 0)
(71.988 0 0)
(72.053 0 0)
(72.1181 0 0)
(72.1832 0 0)
(72.2483 0 0)
(72.3134 0 0)
(72.3785 0 0)
(72.4436 0 0)
(72.5087 0 0)
(72.5738 0 0)
(72.6389 0 0)
(72.704 0 0)
(72.7691 0 0)
(72.8342 0 0)
(72.8993 0 0)
(72.9644 0 0)
(73.0295 0 0)
(73.0946 0 0)
(73.1597 0 0)
(73.2248 0 0)
(73.2899 0 0)
(73.355 0 0)
(73.4201 0 0)
(73.4852 0 0)
(73.5503 0 0)
(73.6154 0 0)
(73.6805 0 0)
(73.7456 0 0)
(73.8107 0 0)
(73.8758 0 0)
(73.9409 0 0)
(74.006 0 0)
(74.0711 0 0)
(74.1362 0 0)
(74.2013 0 0)
(74.2664 0 0)
(74.3315 0 0)
(74.3966 0 0)
(74.4617 0 0)
(74.5268 0 0)
(74.5919 0 0)
(74.657 0 0)
(74.7221 0 0)
(74.7872 0 0)
(74.8523 0 0)
(74.9174 0 0)
(74.9826 0 0)
(75.0477 0 0)
(75.1128 0 0)
(75.1779 0 0)
(75.243 0 0)
(75.3081 0 0)
(75.3732 0 0)
(75.4383 0 0)
(75.5034 0 0)
(75.5685 0 0)
(75.6337 0 0)
(75.6988 0 0)
(75.7639 0 0)
(75.829 0 0)
(75.8941 0 0)
(75.9592 0 0)
(76.0243 0 0)
(76.0895 0 0)
(76.1546 0 0)
(76.2197 0 0)
(76.2848 0 0)
(76.3499 0 0)
(76.415 0 0)
(76.4802 0 0)
(76.5453 0 0)
(76.6104 0 0)
(76.6755 0 0)
(76.7406 0 0)
(76.8057 0 0)
(76.8709 0 0)
(76.936 0 0)
(77.0011 0 0)
(77.0662 0 0)
(77.1313 0 0)
(77.1965 0 0)
(77.2616 0 0)
(77.3267 0 0)
(77.3918 0 0)
(77.457 0 0)
(77.5221 0 0)
(77.5872 0 0)
(77.6523 0 0)
(77.7175 0 0)
(77.7826 0 0)
(77.8477 0 0)
(77.9128 0 0)
(77.978 0 0)
(78.0431 0 0)
(78.1082 0 0)
(78.1733 0 0)
(78.2385 0 0)
(78.3036 0 0)
(78.3687 0 0)
(78.4338 0 0)
(78.499 0 0)
(78.5641 0 0)
(78.6292 0 0)
(78.6944 0 0)
(78.7595 0 0)
(78.8246 0 0)
(78.8897 0 0)
(78.9549 0 0)
(79.02 0 0)
(79.0851 0 0)
(79.1503 0 0)
(79.2154 0 0)
(79.2805 0 0)
(79.3457 0 0)
(79.4108 0 0)
(79.4759 0 0)
(79.5411 0 0)
(79.6062 0 0)
(79.6713 0 0)
(79.7365 0 0)
(79.8016 0 0)
(79.8668 0 0)
(79.9319 0 0)
(79.997 0 0)
(80.0622 0 0)
(80.1273 0 0)
(80.1924 0 0)
(80.2576 0 0)
(80.3227 0 0)
(80.3879 0 0)
(80.453 0 0)
(80.5181 0 0)
(80.5833 0 0)
(80.6484 0 0)
(80.7136 0 0)
(80.7787 0 0)
(80.8438 0 0)
(80.909 0 0)
(80.9741 0 0)
(81.0393 0 0)
(81.1044 0 0)
(81.1696 0 0)
(81.2347 0 0)
(81.2998 0 0)
(81.365 0 0)
(81.4301 0 0)
(81.4953 0 0)
(81.5604 0 0)
(81.6256 0 0)
(81.6907 0 0)
(81.7559 0 0)
(81.821 0 0)
(81.8862 0 0)
(81.9513 0 0)
(82.0165 0 0)
(82.0816 0 0)
(82.1468 0 0)
(82.2119 0 0)
(82.2771 0 0)
(82.3422 0 0)
(82.4074 0 0)
(82.4725 0 0)
(82.5377 0 0)
(82.6028 0 0)
(82.668 0 0)
(82.7331 0 0)
(82.7983 0 0)
(82.8634 0 0)
(82.9286 0 0)
(82.9937 0 0)
(83.0589 0 0)
(83.124 0 0)
(83.1892 0 0)
(83.2543 0 0)
(83.3195 0 0)
(83.3847 0 0)
(83.4498 0 0)
(83.515 0 0)
(83.5801 0 0)
(83.6453 0 0)
(83.7104 0 0)
(83.7756 0 0)
(83.8408 0 0)
(83.9059 0 0)
(83.9711 0 0)
(84.0362 0 0)
(84.1014 0 0)
(84.1666 0 0)
(84.2317 0 0)
(84.2969 0 0)
(84.362 0 0)
(84.4272 0 0)
(84.4924 0 0)
(84.5575 0 0)
(84.6227 0 0)
(84.6879 0 0)
(84.753 0 0)
(84.8182 0 0)
(84.8833 0 0)
(84.9485 0 0)
(85.0137 0 0)
(85.0788 0 0)
(85.144 0 0)
(85.2092 0 0)
(85.2743 0 0)
(85.3395 0 0)
(85.4047 0 0)
(85.4698 0 0)
(85.535 0 0)
(85.6002 0 0)
(85.6654 0 0)
(85.7305 0 0)
(85.7957 0 0)
(85.8609 0 0)
(85.926 0 0)
(85.9912 0 0)
(86.0564 0 0)
(86.1215 0 0)
(86.1867 0 0)
(86.2519 0 0)
(86.3171 0 0)
(86.3822 0 0)
(86.4474 0 0)
(86.5126 0 0)
(86.5778 0 0)
(86.6429 0 0)
(86.7081 0 0)
(86.7733 0 0)
(86.8385 0 0)
(86.9036 0 0)
(86.9688 0 0)
(87.034 0 0)
(87.0992 0 0)
(87.1643 0 0)
(87.2295 0 0)
(87.2947 0 0)
(87.3599 0 0)
(87.4251 0 0)
(87.4902 0 0)
(87.5554 0 0)
(87.6206 0 0)
(87.6858 0 0)
(87.751 0 0)
(87.8161 0 0)
(87.8813 0 0)
(87.9465 0 0)
(88.0117 0 0)
(88.0769 0 0)
(88.142 0 0)
(88.2072 0 0)
(88.2724 0 0)
(88.3376 0 0)
(88.4028 0 0)
(88.468 0 0)
(88.5332 0 0)
(88.5983 0 0)
(88.6635 0 0)
(88.7287 0 0)
(88.7939 0 0)
(88.8591 0 0)
(88.9243 0 0)
(88.9895 0 0)
(89.0547 0 0)
(89.1198 0 0)
(89.185 0 0)
(89.2502 0 0)
(89.3154 0 0)
(89.3806 0 0)
(89.4458 0 0)
(89.511 0 0)
(89.5762 0 0)
(89.6414 0 0)
(89.7066 0 0)
(89.7717 0 0)
(89.8369 0 0)
(89.9021 0 0)
(89.9673 0 0)
(90.0325 0 0)
(90.0977 0 0)
(90.1629 0 0)
(90.2281 0 0)
(90.2933 0 0)
(90.3585 0 0)
(90.4237 0 0)
(90.4889 0 0)
(90.5541 0 0)
(90.6193 0 0)
(90.6845 0 0)
(90.7497 0 0)
(90.8149 0 0)
(90.8801 0 0)
(90.9453 0 0)
(91.0105 0 0)
(91.0757 0 0)
(91.1409 0 0)
(91.2061 0 0)
(91.2713 0 0)
(91.3365 0 0)
(91.4017 0 0)
(91.4669 0 0)
(91.5321 0 0)
(91.5973 0 0)
(91.6625 0 0)
(91.7277 0 0)
(91.7929 0 0)
(91.8581 0 0)
(91.9233 0 0)
(91.9885 0 0)
(92.0537 0 0)
(92.1189 0 0)
(92.1841 0 0)
(92.2493 0 0)
(92.3145 0 0)
(92.3797 0 0)
(92.445 0 0)
(92.5102 0 0)
(92.5754 0 0)
(92.6406 0 0)
(92.7058 0 0)
(92.771 0 0)
(92.8362 0 0)
(92.9014 0 0)
(92.9666 0 0)
(93.0318 0 0)
(93.0971 0 0)
(93.1623 0 0)
(93.2275 0 0)
(93.2927 0 0)
(93.3579 0 0)
(93.4231 0 0)
(93.4883 0 0)
(93.5535 0 0)
(93.6188 0 0)
(93.684 0 0)
(93.7492 0 0)
(93.8144 0 0)
(93.8796 0 0)
(93.9448 0 0)
(94.0101 0 0)
(94.0753 0 0)
(94.1405 0 0)
(94.2057 0 0)
(94.2709 0 0)
(94.3361 0 0)
(94.4014 0 0)
(94.4666 0 0)
(94.5318 0 0)
(94.597 0 0)
(94.6622 0 0)
(94.7275 0 0)
(94.7927 0 0)
(94.8579 0 0)
(94.9231 0 0)
(94.9883 0 0)
(95.0536 0 0)
(95.1188 0 0)
(95.184 0 0)
(95.2492 0 0)
(95.3145 0 0)
(95.3797 0 0)
(95.4449 0 0)
(95.5101 0 0)
(95.5754 0 0)
(95.6406 0 0)
(95.7058 0 0)
(95.771 0 0)
(95.8363 0 0)
(95.9015 0 0)
(95.9667 0 0)
(96.032 0 0)
(96.0972 0 0)
(96.1624 0 0)
(96.2276 0 0)
(96.2929 0 0)
(96.3581 0 0)
(96.4233 0 0)
(96.4886 0 0)
(96.5538 0 0)
(96.619 0 0)
(96.6843 0 0)
(96.7495 0 0)
(96.8147 0 0)
(96.88 0 0)
(96.9452 0 0)
(97.0104 0 0)
(97.0757 0 0)
(97.1409 0 0)
(97.2061 0 0)
(97.2714 0 0)
(97.3366 0 0)
(97.4018 0 0)
(97.4671 0 0)
(97.5323 0 0)
(97.5975 0 0)
(97.6628 0 0)
(97.728 0 0)
(97.7933 0 0)
(97.8585 0 0)
(97.9237 0 0)
(97.989 0 0)
(98.0542 0 0)
(98.1194 0 0)
(98.1847 0 0)
(98.2499 0 0)
(98.3152 0 0)
(98.3804 0 0)
(98.4457 0 0)
(98.5109 0 0)
(98.5761 0 0)
(98.6414 0 0)
(98.7066 0 0)
(98.7719 0 0)
(98.8371 0 0)
(98.9024 0 0)
(98.9676 0 0)
(99.0329 0 0)
(99.0981 0 0)
(99.1633 0 0)
(99.2286 0 0)
(99.2938 0 0)
(99.3591 0 0)
(99.4243 0 0)
(99.4896 0 0)
(99.5548 0 0)
(99.6201 0 0)
(99.6853 0 0)
(99.7506 0 0)
(99.8158 0 0)
(99.8811 0 0)
(99.9463 0 0)
(100.012 0 0)
(100.077 0 0)
(100.142 0 0)
(100.207 0 0)
(100.273 0 0)
(100.338 0 0)
(100.403 0 0)
(100.468 0 0)
(100.534 0 0)
(100.599 0 0)
(100.664 0 0)
(100.729 0 0)
(100.795 0 0)
(100.86 0 0)
(100.925 0 0)
(100.99 0 0)
(101.056 0 0)
(101.121 0 0)
(101.186 0 0)
(101.251 0 0)
(101.317 0 0)
(101.382 0 0)
(101.447 0 0)
(101.512 0 0)
(101.578 0 0)
(101.643 0 0)
(101.708 0 0)
(101.773 0 0)
(101.839 0 0)
(101.904 0 0)
(101.969 0 0)
(102.035 0 0)
(102.1 0 0)
(102.165 0 0)
(102.23 0 0)
(102.296 0 0)
(102.361 0 0)
(102.426 0 0)
(102.491 0 0)
(102.557 0 0)
(102.622 0 0)
(102.687 0 0)
(102.752 0 0)
(102.818 0 0)
(102.883 0 0)
(102.948 0 0)
(103.014 0 0)
(103.079 0 0)
(103.144 0 0)
(103.209 0 0)
(103.275 0 0)
(103.34 0 0)
(103.405 0 0)
(103.47 0 0)
(103.536 0 0)
(103.601 0 0)
(103.666 0 0)
(103.731 0 0)
(103.797 0 0)
(103.862 0 0)
(103.927 0 0)
(103.993 0 0)
(104.058 0 0)
(104.123 0 0)
(104.188 0 0)
(104.254 0 0)
(104.319 0 0)
(104.384 0 0)
(104.45 0 0)
(104.515 0 0)
(104.58 0 0)
(104.645 0 0)
(104.711 0 0)
(104.776 0 0)
(104.841 0 0)
(104.906 0 0)
(104.972 0 0)
(105.037 0 0)
(105.102 0 0)
(105.168 0 0)
(105.233 0 0)
(105.298 0 0)
(105.363 0 0)
(105.429 0 0)
(105.494 0 0)
(105.559 0 0)
(105.625 0 0)
(105.69 0 0)
(105.755 0 0)
(105.82 0 0)
(105.886 0 0)
(105.951 0 0)
(106.016 0 0)
(106.082 0 0)
(106.147 0 0)
(106.212 0 0)
(106.277 0 0)
(106.343 0 0)
(106.408 0 0)
(106.473 0 0)
(106.539 0 0)
(106.604 0 0)
(106.669 0 0)
(106.734 0 0)
(106.8 0 0)
(106.865 0 0)
(106.93 0 0)
(106.996 0 0)
(107.061 0 0)
(107.126 0 0)
(107.191 0 0)
(107.257 0 0)
(107.322 0 0)
(107.387 0 0)
(107.453 0 0)
(107.518 0 0)
(107.583 0 0)
(107.649 0 0)
(107.714 0 0)
(107.779 0 0)
(107.844 0 0)
(107.91 0 0)
(107.975 0 0)
(108.04 0 0)
(108.106 0 0)
(108.171 0 0)
(108.236 0 0)
(108.301 0 0)
(108.367 0 0)
(108.432 0 0)
(108.497 0 0)
(108.563 0 0)
(108.628 0 0)
(108.693 0 0)
(108.759 0 0)
(108.824 0 0)
(108.889 0 0)
(108.954 0 0)
(109.02 0 0)
(109.085 0 0)
(109.15 0 0)
(109.216 0 0)
(109.281 0 0)
(109.346 0 0)
(109.412 0 0)
(109.477 0 0)
(109.542 0 0)
(109.608 0 0)
(109.673 0 0)
(109.738 0 0)
(109.803 0 0)
(109.869 0 0)
(109.934 0 0)
(109.999 0 0)
(110.065 0 0)
(110.13 0 0)
(110.195 0 0)
(110.261 0 0)
(110.326 0 0)
(110.391 0 0)
(110.457 0 0)
(110.522 0 0)
(110.587 0 0)
(110.652 0 0)
(110.718 0 0)
(110.783 0 0)
(110.848 0 0)
(110.914 0 0)
(110.979 0 0)
(111.044 0 0)
(111.11 0 0)
(111.175 0 0)
(111.24 0 0)
(111.306 0 0)
(111.371 0 0)
(111.436 0 0)
(111.502 0 0)
(111.567 0 0)
(111.632 0 0)
(111.698 0 0)
(111.763 0 0)
(111.828 0 0)
(111.893 0 0)
(111.959 0 0)
(112.024 0 0)
(112.089 0 0)
(112.155 0 0)
(112.22 0 0)
(112.285 0 0)
(112.351 0 0)
(112.416 0 0)
(112.481 0 0)
(112.547 0 0)
(112.612 0 0)
(112.677 0 0)
(112.743 0 0)
(112.808 0 0)
(112.873 0 0)
(112.939 0 0)
(113.004 0 0)
(113.069 0 0)
(113.135 0 0)
(113.2 0 0)
(113.265 0 0)
(113.331 0 0)
(113.396 0 0)
(113.461 0 0)
(113.527 0 0)
(113.592 0 0)
(113.657 0 0)
(113.723 0 0)
(113.788 0 0)
(113.853 0 0)
(113.919 0 0)
(113.984 0 0)
(114.049 0 0)
(114.115 0 0)
(114.18 0 0)
(114.245 0 0)
(114.311 0 0)
(114.376 0 0)
(114.441 0 0)
(114.507 0 0)
(114.572 0 0)
(114.637 0 0)
(114.703 0 0)
(114.768 0 0)
(114.833 0 0)
(114.899 0 0)
(114.964 0 0)
(115.029 0 0)
(115.095 0 0)
(115.16 0 0)
(115.225 0 0)
(115.291 0 0)
(115.356 0 0)
(115.421 0 0)
(115.487 0 0)
(115.552 0 0)
(115.617 0 0)
(115.683 0 0)
(115.748 0 0)
(115.813 0 0)
(115.879 0 0)
(115.944 0 0)
(116.009 0 0)
(116.075 0 0)
(116.14 0 0)
(116.205 0 0)
(116.271 0 0)
(116.336 0 0)
(116.401 0 0)
(116.467 0 0)
(116.532 0 0)
(116.597 0 0)
(116.663 0 0)
(116.728 0 0)
(116.793 0 0)
(116.859 0 0)
(116.924 0 0)
(116.99 0 0)
(117.055 0 0)
(117.12 0 0)
(117.186 0 0)
(117.251 0 0)
(117.316 0 0)
(117.382 0 0)
(117.447 0 0)
(117.512 0 0)
(117.578 0 0)
(117.643 0 0)
(117.708 0 0)
(117.774 0 0)
(117.839 0 0)
(117.904 0 0)
(117.97 0 0)
(118.035 0 0)
(118.1 0 0)
(118.166 0 0)
(118.231 0 0)
(118.297 0 0)
(118.362 0 0)
(118.427 0 0)
(118.493 0 0)
(118.558 0 0)
(118.623 0 0)
(118.689 0 0)
(118.754 0 0)
(118.819 0 0)
(118.885 0 0)
(118.95 0 0)
(119.015 0 0)
(119.081 0 0)
(119.146 0 0)
(119.212 0 0)
(119.277 0 0)
(119.342 0 0)
(119.408 0 0)
(119.473 0 0)
(119.538 0 0)
(119.604 0 0)
(119.669 0 0)
(119.734 0 0)
(119.8 0 0)
(119.865 0 0)
(119.931 0 0)
(119.996 0 0)
(120.061 0 0)
(120.127 0 0)
(120.192 0 0)
(120.257 0 0)
(120.323 0 0)
(120.388 0 0)
(120.454 0 0)
(120.519 0 0)
(120.584 0 0)
(120.65 0 0)
(120.715 0 0)
(120.78 0 0)
(120.846 0 0)
(120.911 0 0)
(120.976 0 0)
(121.042 0 0)
(121.107 0 0)
(121.173 0 0)
(121.238 0 0)
(121.303 0 0)
(121.369 0 0)
(121.434 0 0)
(121.499 0 0)
(121.565 0 0)
(121.63 0 0)
(121.696 0 0)
(121.761 0 0)
(121.826 0 0)
(121.892 0 0)
(121.957 0 0)
(122.022 0 0)
(122.088 0 0)
(122.153 0 0)
(122.219 0 0)
(122.284 0 0)
(122.349 0 0)
(122.415 0 0)
(122.48 0 0)
(122.545 0 0)
(122.611 0 0)
(122.676 0 0)
(122.742 0 0)
(122.807 0 0)
(122.872 0 0)
(122.938 0 0)
(123.003 0 0)
(123.069 0 0)
(123.134 0 0)
(123.199 0 0)
(123.265 0 0)
(123.33 0 0)
(123.395 0 0)
(123.461 0 0)
(123.526 0 0)
(123.592 0 0)
(123.657 0 0)
(123.722 0 0)
(123.788 0 0)
(123.853 0 0)
(123.919 0 0)
(123.984 0 0)
(124.049 0 0)
(124.115 0 0)
(124.18 0 0)
(124.245 0 0)
(124.311 0 0)
(124.376 0 0)
(124.442 0 0)
(124.507 0 0)
(124.572 0 0)
(124.638 0 0)
(124.703 0 0)
(124.769 0 0)
(124.834 0 0)
(124.899 0 0)
(124.965 0 0)
(125.03 0 0)
(125.096 0 0)
(125.161 0 0)
(125.226 0 0)
(125.292 0 0)
(125.357 0 0)
(125.423 0 0)
(125.488 0 0)
(125.553 0 0)
(125.619 0 0)
(125.684 0 0)
(125.75 0 0)
(125.815 0 0)
(125.88 0 0)
(125.946 0 0)
(126.011 0 0)
(126.077 0 0)
(126.142 0 0)
(126.207 0 0)
(126.273 0 0)
(126.338 0 0)
(126.404 0 0)
(126.469 0 0)
(126.534 0 0)
(126.6 0 0)
(126.665 0 0)
(126.731 0 0)
(126.796 0 0)
(126.861 0 0)
(126.927 0 0)
(126.992 0 0)
(127.058 0 0)
(127.123 0 0)
(127.188 0 0)
(127.254 0 0)
(127.319 0 0)
(127.385 0 0)
(127.45 0 0)
(127.515 0 0)
(127.581 0 0)
(127.646 0 0)
(127.712 0 0)
(127.777 0 0)
(127.843 0 0)
(127.908 0 0)
(127.973 0 0)
(128.039 0 0)
(128.104 0 0)
(128.17 0 0)
(128.235 0 0)
(128.3 0 0)
(128.366 0 0)
(128.431 0 0)
(128.497 0 0)
(128.562 0 0)
(128.627 0 0)
(128.693 0 0)
(128.758 0 0)
(128.824 0 0)
(128.889 0 0)
(128.955 0 0)
(129.02 0 0)
(129.085 0 0)
(129.151 0 0)
(129.216 0 0)
(129.282 0 0)
(129.347 0 0)
(129.412 0 0)
(129.478 0 0)
(129.543 0 0)
(129.609 0 0)
(129.674 0 0)
(129.74 0 0)
(129.805 0 0)
(129.87 0 0)
(129.936 0 0)
(130.001 0 0)
(130.067 0 0)
(130.132 0 0)
(130.198 0 0)
(130.263 0 0)
(130.328 0 0)
(130.394 0 0)
(130.459 0 0)
(130.525 0 0)
(130.59 0 0)
(130.656 0 0)
(130.721 0 0)
(130.786 0 0)
(130.852 0 0)
(130.917 0 0)
(130.983 0 0)
(131.048 0 0)
(131.113 0 0)
(131.179 0 0)
(131.244 0 0)
(131.31 0 0)
(131.375 0 0)
(131.441 0 0)
(131.506 0 0)
(131.572 0 0)
(131.637 0 0)
(131.702 0 0)
(131.768 0 0)
(131.833 0 0)
(131.899 0 0)
(131.964 0 0)
(132.03 0 0)
(132.095 0 0)
(132.16 0 0)
(132.226 0 0)
(132.291 0 0)
(132.357 0 0)
(132.422 0 0)
(132.488 0 0)
(132.553 0 0)
(132.618 0 0)
(132.684 0 0)
(132.749 0 0)
(132.815 0 0)
(132.88 0 0)
(132.946 0 0)
(133.011 0 0)
(133.077 0 0)
(133.142 0 0)
(133.207 0 0)
(133.273 0 0)
(133.338 0 0)
(133.404 0 0)
(133.469 0 0)
(133.535 0 0)
(133.6 0 0)
(133.666 0 0)
(133.731 0 0)
(133.796 0 0)
(133.862 0 0)
(133.927 0 0)
(133.993 0 0)
(134.058 0 0)
(134.124 0 0)
(134.189 0 0)
(134.255 0 0)
(134.32 0 0)
(134.385 0 0)
(134.451 0 0)
(134.516 0 0)
(134.582 0 0)
(134.647 0 0)
(134.713 0 0)
(134.778 0 0)
(134.844 0 0)
(134.909 0 0)
(134.974 0 0)
(135.04 0 0)
(135.105 0 0)
(135.171 0 0)
(135.236 0 0)
(135.302 0 0)
(135.367 0 0)
(135.433 0 0)
(135.498 0 0)
(135.564 0 0)
(135.629 0 0)
(135.694 0 0)
(135.76 0 0)
(135.825 0 0)
(135.891 0 0)
(135.956 0 0)
(136.022 0 0)
(136.087 0 0)
(136.153 0 0)
(136.218 0 0)
(136.284 0 0)
(136.349 0 0)
(136.414 0 0)
(136.48 0 0)
(136.545 0 0)
(136.611 0 0)
(136.676 0 0)
(136.742 0 0)
(136.807 0 0)
(136.873 0 0)
(136.938 0 0)
(137.004 0 0)
(137.069 0 0)
(137.135 0 0)
(137.2 0 0)
(137.265 0 0)
(137.331 0 0)
(137.396 0 0)
(137.462 0 0)
(137.527 0 0)
(137.593 0 0)
(137.658 0 0)
(137.724 0 0)
(137.789 0 0)
(137.855 0 0)
(137.92 0 0)
(137.986 0 0)
(138.051 0 0)
(138.117 0 0)
(138.182 0 0)
(138.247 0 0)
(138.313 0 0)
(138.378 0 0)
(138.444 0 0)
(138.509 0 0)
(138.575 0 0)
(138.64 0 0)
(138.706 0 0)
(138.771 0 0)
(138.837 0 0)
(138.902 0 0)
(138.968 0 0)
(139.033 0 0)
(139.099 0 0)
(139.164 0 0)
(139.23 0 0)
(139.295 0 0)
(139.361 0 0)
(139.426 0 0)
(139.491 0 0)
(139.557 0 0)
(139.622 0 0)
(139.688 0 0)
(139.753 0 0)