/*--------------------------------*- C++ -*----------------------------------*\
  =========                 |
  \\      /  F ield         | OpenFOAM: The Open Source CFD Toolbox
   \\    /   O peration     | Website:  https://openfoam.org
    \\  /    A nd           | Version:  9
     \\/     M anipulation  |
\*---------------------------------------------------------------------------*/
FoamFile
{
    format      ascii;
    class       volScalarField;
    location    "0.026";
    object      ddt0(rho);
}
// * * * * * * * * * * * * * * * * * * * * * * * * * * * * * * * * * * * * * //

dimensions      [1 -3 -1 0 0 0 0];

internalField   nonuniform List<scalar> 
10000
(
-19.238
-19.2374
-19.2366
-19.2353
-19.2343
-19.234
-19.2335
-19.2319
-19.23
-19.2291
-19.2295
-19.2298
-19.2287
-19.2261
-19.2235
-19.2226
-19.2236
-19.2251
-19.2255
-19.2237
-19.2203
-19.2166
-19.2144
-19.2145
-19.2166
-19.2194
-19.2215
-19.2217
-19.2196
-19.2155
-19.2105
-19.2056
-19.2019
-19.2002
-19.2008
-19.2035
-19.2079
-19.2135
-19.2198
-19.2262
-19.2321
-19.2374
-19.2418
-19.2451
-19.2474
-19.2487
-19.2491
-19.2492
-19.2495
-19.2509
-19.2546
-19.255
-19.2548
-19.2545
-19.2543
-19.2541
-19.254
-19.2538
-19.2537
-19.2536
-19.2535
-19.2534
-19.2533
-19.2532
-19.2531
-19.253
-19.2529
-19.2528
-19.2527
-19.2525
-19.2525
-19.2524
-19.2523
-19.2522
-19.2521
-19.252
-19.2518
-19.2517
-19.2516
-19.2515
-19.2514
-19.2513
-19.2512
-19.2511
-19.251
-19.2509
-19.2508
-19.2507
-19.2506
-19.2505
-19.2504
-19.2503
-19.2502
-19.2501
-19.25
-19.2499
-19.2498
-19.2497
-19.2496
-19.2494
-19.2493
-19.2492
-19.2491
-19.249
-19.2489
-19.2488
-19.2487
-19.2486
-19.2485
-19.2484
-19.2483
-19.2482
-19.2481
-19.2479
-19.2478
-19.2477
-19.2476
-19.2475
-19.2474
-19.2473
-19.2472
-19.2471
-19.247
-19.2469
-19.2468
-19.2466
-19.2465
-19.2464
-19.2463
-19.2462
-19.2461
-19.246
-19.2459
-19.2458
-19.2457
-19.2455
-19.2454
-19.2453
-19.2452
-19.2451
-19.245
-19.2449
-19.2448
-19.2446
-19.2445
-19.2444
-19.2443
-19.2442
-19.2441
-19.244
-19.2439
-19.2437
-19.2436
-19.2435
-19.2434
-19.2433
-19.2432
-19.2431
-19.2429
-19.2428
-19.2427
-19.2426
-19.2425
-19.2424
-19.2423
-19.2421
-19.242
-19.2419
-19.2418
-19.2417
-19.2416
-19.2414
-19.2413
-19.2412
-19.2411
-19.241
-19.2409
-19.2407
-19.2406
-19.2405
-19.2404
-19.2403
-19.2402
-19.24
-19.2399
-19.2398
-19.2397
-19.2396
-19.2394
-19.2393
-19.2392
-19.2391
-19.239
-19.2388
-19.2387
-19.2386
-19.2385
-19.2384
-19.2382
-19.2381
-19.238
-19.2379
-19.2378
-19.2376
-19.2375
-19.2374
-19.2373
-19.2371
-19.237
-19.2369
-19.2368
-19.2367
-19.2365
-19.2364
-19.2363
-19.2362
-19.236
-19.2359
-19.2358
-19.2357
-19.2355
-19.2354
-19.2353
-19.2352
-19.235
-19.2349
-19.2348
-19.2347
-19.2345
-19.2344
-19.2343
-19.2342
-19.234
-19.2339
-19.2338
-19.2337
-19.2335
-19.2334
-19.2333
-19.2331
-19.233
-19.2329
-19.2328
-19.2326
-19.2325
-19.2324
-19.2322
-19.2321
-19.232
-19.2319
-19.2317
-19.2316
-19.2315
-19.2313
-19.2312
-19.2311
-19.2309
-19.2308
-19.2307
-19.2306
-19.2304
-19.2303
-19.2302
-19.23
-19.2299
-19.2298
-19.2296
-19.2295
-19.2294
-19.2292
-19.2291
-19.229
-19.2288
-19.2287
-19.2286
-19.2284
-19.2283
-19.2282
-19.228
-19.2279
-19.2278
-19.2276
-19.2275
-19.2274
-19.2272
-19.2271
-19.227
-19.2268
-19.2267
-19.2266
-19.2264
-19.2263
-19.2261
-19.226
-19.2259
-19.2257
-19.2256
-19.2255
-19.2253
-19.2252
-19.2251
-19.2249
-19.2248
-19.2246
-19.2245
-19.2244
-19.2242
-19.2241
-19.2239
-19.2238
-19.2237
-19.2235
-19.2234
-19.2232
-19.2231
-19.223
-19.2228
-19.2227
-19.2225
-19.2224
-19.2223
-19.2221
-19.222
-19.2218
-19.2217
-19.2216
-19.2214
-19.2213
-19.2211
-19.221
-19.2209
-19.2207
-19.2206
-19.2204
-19.2203
-19.2201
-19.22
-19.2199
-19.2197
-19.2196
-19.2194
-19.2193
-19.2191
-19.219
-19.2188
-19.2187
-19.2186
-19.2184
-19.2183
-19.2181
-19.218
-19.2178
-19.2177
-19.2175
-19.2174
-19.2172
-19.2171
-19.2169
-19.2168
-19.2167
-19.2165
-19.2164
-19.2162
-19.2161
-19.2159
-19.2158
-19.2156
-19.2155
-19.2153
-19.2152
-19.215
-19.2149
-19.2147
-19.2146
-19.2144
-19.2143
-19.2141
-19.214
-19.2138
-19.2137
-19.2135
-19.2134
-19.2132
-19.2131
-19.2129
-19.2128
-19.2126
-19.2125
-19.2123
-19.2122
-19.212
-19.2119
-19.2117
-19.2116
-19.2114
-19.2112
-19.2111
-19.2109
-19.2108
-19.2106
-19.2105
-19.2103
-19.2102
-19.21
-19.2099
-19.2097
-19.2096
-19.2094
-19.2092
-19.2091
-19.2089
-19.2088
-19.2086
-19.2085
-19.2083
-19.2081
-19.208
-19.2078
-19.2077
-19.2075
-19.2074
-19.2072
-19.207
-19.2069
-19.2067
-19.2066
-19.2064
-19.2063
-19.2061
-19.2059
-19.2058
-19.2056
-19.2055
-19.2053
-19.2051
-19.205
-19.2048
-19.2047
-19.2045
-19.2044
-19.2042
-19.204
-19.2039
-19.2037
-19.2035
-19.2034
-19.2032
-19.2031
-19.2029
-19.2027
-19.2026
-19.2024
-19.2023
-19.2021
-19.2019
-19.2018
-19.2016
-19.2014
-19.2013
-19.2011
-19.2009
-19.2008
-19.2006
-19.2005
-19.2003
-19.2001
-19.2
-19.1998
-19.1996
-19.1995
-19.1993
-19.1991
-19.199
-19.1988
-19.1986
-19.1985
-19.1983
-19.1981
-19.198
-19.1978
-19.1976
-19.1975
-19.1973
-19.1971
-19.197
-19.1968
-19.1966
-19.1965
-19.1963
-19.1961
-19.196
-19.1958
-19.1956
-19.1954
-19.1953
-19.1951
-19.1949
-19.1948
-19.1946
-19.1944
-19.1943
-19.1941
-19.1939
-19.1937
-19.1936
-19.1934
-19.1932
-19.1931
-19.1929
-19.1927
-19.1925
-19.1924
-19.1922
-19.192
-19.1919
-19.1917
-19.1915
-19.1913
-19.1912
-19.191
-19.1908
-19.1906
-19.1905
-19.1903
-19.1901
-19.1899
-19.1898
-19.1896
-19.1894
-19.1892
-19.1891
-19.1889
-19.1887
-19.1885
-19.1884
-19.1882
-19.188
-19.1878
-19.1877
-19.1875
-19.1873
-19.1871
-19.187
-19.1868
-19.1866
-19.1864
-19.1862
-19.1861
-19.1859
-19.1857
-19.1855
-19.1854
-19.1852
-19.185
-19.1848
-19.1846
-19.1845
-19.1843
-19.1841
-19.1839
-19.1837
-19.1836
-19.1834
-19.1832
-19.183
-19.1828
-19.1827
-19.1825
-19.1823
-19.1821
-19.1819
-19.1817
-19.1816
-19.1814
-19.1812
-19.181
-19.1808
-19.1806
-19.1805
-19.1803
-19.1801
-19.1799
-19.1797
-19.1795
-19.1794
-19.1792
-19.179
-19.1788
-19.1786
-19.1784
-19.1783
-19.1781
-19.1779
-19.1777
-19.1775
-19.1773
-19.1771
-19.177
-19.1768
-19.1766
-19.1764
-19.1762
-19.176
-19.1758
-19.1756
-19.1755
-19.1753
-19.1751
-19.1749
-19.1747
-19.1745
-19.1743
-19.1741
-19.174
-19.1738
-19.1736
-19.1734
-19.1732
-19.173
-19.1728
-19.1726
-19.1724
-19.1722
-19.1721
-19.1719
-19.1717
-19.1715
-19.1713
-19.1711
-19.1709
-19.1707
-19.1705
-19.1703
-19.1701
-19.1699
-19.1698
-19.1696
-19.1694
-19.1692
-19.169
-19.1688
-19.1686
-19.1684
-19.1682
-19.168
-19.1678
-19.1676
-19.1674
-19.1672
-19.167
-19.1668
-19.1666
-19.1665
-19.1663
-19.1661
-19.1659
-19.1657
-19.1655
-19.1653
-19.1651
-19.1649
-19.1647
-19.1645
-19.1643
-19.1641
-19.1639
-19.1637
-19.1635
-19.1633
-19.1631
-19.1629
-19.1627
-19.1625
-19.1623
-19.1621
-19.1619
-19.1617
-19.1615
-19.1613
-19.1611
-19.1609
-19.1607
-19.1605
-19.1603
-19.1601
-19.1599
-19.1597
-19.1595
-19.1593
-19.1591
-19.1589
-19.1587
-19.1585
-19.1583
-19.1581
-19.1579
-19.1577
-19.1575
-19.1573
-19.1571
-19.1569
-19.1567
-19.1565
-19.1563
-19.1561
-19.1559
-19.1557
-19.1555
-19.1552
-19.155
-19.1548
-19.1546
-19.1544
-19.1542
-19.154
-19.1538
-19.1536
-19.1534
-19.1532
-19.153
-19.1528
-19.1526
-19.1524
-19.1522
-19.152
-19.1517
-19.1515
-19.1513
-19.1511
-19.1509
-19.1507
-19.1505
-19.1503
-19.1501
-19.1499
-19.1497
-19.1495
-19.1492
-19.149
-19.1488
-19.1486
-19.1484
-19.1482
-19.148
-19.1478
-19.1476
-19.1474
-19.1471
-19.1469
-19.1467
-19.1465
-19.1463
-19.1461
-19.1459
-19.1457
-19.1454
-19.1452
-19.145
-19.1448
-19.1446
-19.1444
-19.1442
-19.144
-19.1437
-19.1435
-19.1433
-19.1431
-19.1429
-19.1427
-19.1425
-19.1422
-19.142
-19.1418
-19.1416
-19.1414
-19.1412
-19.1409
-19.1407
-19.1405
-19.1403
-19.1401
-19.1399
-19.1397
-19.1394
-19.1392
-19.139
-19.1388
-19.1386
-19.1383
-19.1381
-19.1379
-19.1377
-19.1375
-19.1373
-19.137
-19.1368
-19.1366
-19.1364
-19.1362
-19.1359
-19.1357
-19.1355
-19.1353
-19.1351
-19.1348
-19.1346
-19.1344
-19.1342
-19.134
-19.1337
-19.1335
-19.1333
-19.1331
-19.1329
-19.1326
-19.1324
-19.1322
-19.132
-19.1317
-19.1315
-19.1313
-19.1311
-19.1308
-19.1306
-19.1304
-19.1302
-19.1299
-19.1297
-19.1295
-19.1293
-19.1291
-19.1288
-19.1286
-19.1284
-19.1282
-19.1279
-19.1277
-19.1275
-19.1272
-19.127
-19.1268
-19.1266
-19.1263
-19.1261
-19.1259
-19.1257
-19.1254
-19.1252
-19.125
-19.1248
-19.1245
-19.1243
-19.1241
-19.1238
-19.1236
-19.1234
-19.1232
-19.1229
-19.1227
-19.1225
-19.1222
-19.122
-19.1218
-19.1215
-19.1213
-19.1211
-19.1209
-19.1206
-19.1204
-19.1202
-19.1199
-19.1197
-19.1195
-19.1192
-19.119
-19.1188
-19.1185
-19.1183
-19.1181
-19.1178
-19.1176
-19.1174
-19.1171
-19.1169
-19.1167
-19.1164
-19.1162
-19.116
-19.1157
-19.1155
-19.1153
-19.115
-19.1148
-19.1146
-19.1143
-19.1141
-19.1139
-19.1136
-19.1134
-19.1132
-19.1129
-19.1127
-19.1124
-19.1122
-19.112
-19.1117
-19.1115
-19.1113
-19.111
-19.1108
-19.1105
-19.1103
-19.1101
-19.1098
-19.1096
-19.1094
-19.1091
-19.1089
-19.1086
-19.1084
-19.1082
-19.1079
-19.1077
-19.1074
-19.1072
-19.107
-19.1067
-19.1065
-19.1062
-19.106
-19.1058
-19.1055
-19.1053
-19.105
-19.1048
-19.1045
-19.1043
-19.1041
-19.1038
-19.1036
-19.1033
-19.1031
-19.1028
-19.1026
-19.1024
-19.1021
-19.1019
-19.1016
-19.1014
-19.1011
-19.1009
-19.1006
-19.1004
-19.1002
-19.0999
-19.0997
-19.0994
-19.0992
-19.0989
-19.0987
-19.0984
-19.0982
-19.0979
-19.0977
-19.0975
-19.0972
-19.097
-19.0967
-19.0965
-19.0962
-19.096
-19.0957
-19.0955
-19.0952
-19.095
-19.0947
-19.0945
-19.0942
-19.094
-19.0937
-19.0935
-19.0932
-19.093
-19.0927
-19.0925
-19.0922
-19.092
-19.0917
-19.0915
-19.0912
-19.091
-19.0907
-19.0905
-19.0902
-19.09
-19.0897
-19.0895
-19.0892
-19.089
-19.0887
-19.0885
-19.0882
-19.088
-19.0877
-19.0874
-19.0872
-19.0869
-19.0867
-19.0864
-19.0862
-19.0859
-19.0857
-19.0854
-19.0852
-19.0849
-19.0846
-19.0844
-19.0841
-19.0839
-19.0836
-19.0834
-19.0831
-19.0829
-19.0826
-19.0823
-19.0821
-19.0818
-19.0816
-19.0813
-19.0811
-19.0808
-19.0805
-19.0803
-19.08
-19.0798
-19.0795
-19.0793
-19.079
-19.0787
-19.0785
-19.0782
-19.078
-19.0777
-19.0774
-19.0772
-19.0769
-19.0767
-19.0764
-19.0761
-19.0759
-19.0756
-19.0754
-19.0751
-19.0748
-19.0746
-19.0743
-19.074
-19.0738
-19.0735
-19.0733
-19.073
-19.0727
-19.0725
-19.0722
-19.0719
-19.0717
-19.0714
-19.0711
-19.0709
-19.0706
-19.0704
-19.0701
-19.0698
-19.0696
-19.0693
-19.069
-19.0688
-19.0685
-19.0682
-19.068
-19.0677
-19.0674
-19.0672
-19.0669
-19.0666
-19.0664
-19.0661
-19.0658
-19.0656
-19.0653
-19.0651
-19.0647
-19.0645
-19.0642
-19.064
-19.0636
-19.0635
-19.063
-19.0631
-19.0624
-19.0626
-19.0617
-19.0622
-19.0611
-19.0619
-19.0603
-19.0615
-19.0596
-19.0612
-19.0589
-19.0608
-19.0582
-19.0602
-19.0578
-19.0593
-19.0579
-19.058
-19.0581
-19.0574
-19.0571
-19.057
-19.0566
-19.0563
-19.0561
-19.0559
-19.0556
-19.0553
-19.0551
-19.0548
-19.0545
-19.0542
-19.0539
-19.0536
-19.0535
-19.0527
-19.0536
-19.0513
-19.054
-19.0497
-19.0545
-19.0483
-19.0546
-19.0475
-19.0537
-19.0479
-19.0517
-19.0493
-19.0488
-19.0512
-19.0459
-19.0527
-19.0439
-19.0526
-19.0438
-19.0506
-19.0458
-19.0467
-19.0489
-19.0428
-19.0509
-19.0406
-19.0507
-19.0412
-19.0474
-19.0446
-19.0425
-19.0481
-19.0386
-19.0496
-19.038
-19.0471
-19.0411
-19.0415
-19.0457
-19.0367
-19.0479
-19.0354
-19.0458
-19.0386
-19.0398
-19.0437
-19.0346
-19.0461
-19.0333
-19.0439
-19.0367
-19.0376
-19.0421
-19.0324
-19.0442
-19.0312
-19.0417
-19.035
-19.0354
-19.0405
-19.0297
-19.0427
-19.0294
-19.0388
-19.0347
-19.0312
-19.0406
-19.0264
-19.0406
-19.0292
-19.0335
-19.0367
-19.0257
-19.0404
-19.0251
-19.0353
-19.0324
-19.0259
-19.039
-19.0222
-19.0362
-19.0284
-19.0263
-19.0367
-19.0204
-19.0362
-19.0252
-19.0263
-19.0344
-19.019
-19.0357
-19.0219
-19.027
-19.0314
-19.0177
-19.035
-19.0193
-19.0267
-19.0294
-19.0163
-19.034
-19.0173
-19.0257
-19.0277
-19.0149
-19.0326
-19.0156
-19.0245
-19.0259
-19.0136
-19.031
-19.0142
-19.0228
-19.0249
-19.0118
-19.0297
-19.0131
-19.0204
-19.0245
-19.0095
-19.0281
-19.0128
-19.017
-19.0249
-19.0071
-19.026
-19.0135
-19.0128
-19.0256
-19.0053
-19.0226
-19.0154
-19.0079
-19.0257
-19.0049
-19.0177
-19.0182
-19.0034
-19.0244
-19.0064
-19.0113
-19.0211
-19.0003
-19.0206
-19.01
-19.0043
-19.0225
-19
-19.0142
-19.0147
-18.9988
-19.0208
-19.0029
-19.0065
-19.0179
-18.9963
-19.0159
-19.0074
-18.9994
-19.0187
-18.9972
-19.0085
-19.0123
-18.9943
-19.0159
-19.0013
-18.9999
-19.0156
-18.993
-19.009
-19.0075
-18.9924
-19.0149
-18.9966
-18.999
-19.0131
-18.9893
-19.008
-19.0044
-18.9895
-19.0134
-18.9935
-18.9963
-19.0115
-18.9863
-19.0053
-19.0031
-18.9861
-19.0108
-18.9924
-18.9922
-19.0098
-18.9847
-19.0007
-19.0027
-18.983
-19.0069
-18.9927
-18.9873
-19.0078
-18.9841
-18.9949
-19.0029
-18.9801
-19.0019
-18.9943
-18.9817
-19.0053
-18.9851
-18.9875
-19.0035
-18.9787
-18.9946
-18.9972
-18.9769
-19.0002
-18.9886
-18.9796
-19.0021
-18.9803
-18.9855
-18.9995
-18.9748
-18.9921
-18.9932
-18.9733
-18.9973
-18.985
-18.9757
-18.9992
-18.977
-18.9809
-18.9972
-18.9713
-18.9871
-18.9919
-18.9688
-18.9924
-18.9846
-18.9697
-18.9953
-18.9769
-18.9735
-18.995
-18.9704
-18.9787
-18.9918
-18.9662
-18.984
-18.9863
-18.9648
-18.9882
-18.9795
-18.966
-18.9903
-18.9727
-18.9692
-18.9901
-18.9668
-18.9735
-18.9875
-18.9626
-18.9779
-18.9832
-18.9603
-18.9818
-18.9778
-18.96
-18.9844
-18.972
-18.9612
-18.9855
-18.9664
-18.9637
-18.9849
-18.9616
-18.9668
-18.9829
-18.958
-18.9699
-18.9797
-18.9556
-18.9727
-18.9757
-18.9545
-18.9749
-18.9712
-18.9544
-18.9764
-18.9665
-18.9552
-18.9769
-18.9621
-18.9567
-18.9767
-18.9579
-18.9584
-18.9758
-18.9543
-18.9601
-18.9744
-18.9513
-18.9617
-18.9724
-18.949
-18.9631
-18.97
-18.9474
-18.9641
-18.9674
-18.9464
-18.9647
-18.9646
-18.9458
-18.9651
-18.9617
-18.9455
-18.9653
-18.9587
-18.9454
-18.9651
-18.9559
-18.9455
-18.9648
-18.9533
-18.9455
-18.9644
-18.9508
-18.9454
-18.9638
-18.9485
-18.9452
-18.9631
-18.9466
-18.9449
-18.9622
-18.9449
-18.9444
-18.9612
-18.9436
-18.9438
-18.96
-18.9424
-18.9432
-18.9586
-18.9413
-18.9427
-18.9572
-18.9403
-18.9421
-18.9557
-18.9393
-18.9414
-18.9544
-18.9383
-18.9408
-18.9531
-18.9372
-18.94
-18.9518
-18.9363
-18.939
-18.9508
-18.9353
-18.9378
-18.9499
-18.9344
-18.9365
-18.9489
-18.9338
-18.935
-18.9478
-18.9335
-18.9333
-18.9466
-18.9334
-18.9317
-18.9451
-18.9332
-18.9305
-18.9434
-18.9329
-18.9295
-18.9418
-18.9324
-18.9284
-18.9404
-18.9318
-18.9271
-18.9392
-18.9313
-18.9256
-18.938
-18.931
-18.9241
-18.9365
-18.9311
-18.9225
-18.9346
-18.9313
-18.9212
-18.9326
-18.9313
-18.9203
-18.9304
-18.9311
-18.9197
-18.9281
-18.9308
-18.9192
-18.9259
-18.9303
-18.9188
-18.9238
-18.9296
-18.9185
-18.9217
-18.9288
-18.9183
-18.9194
-18.928
-18.9183
-18.9172
-18.9269
-18.9185
-18.9151
-18.9253
-18.9191
-18.9132
-18.9233
-18.9197
-18.9116
-18.921
-18.9201
-18.9107
-18.9184
-18.9201
-18.9103
-18.9156
-18.9198
-18.9102
-18.9131
-18.919
-18.9102
-18.911
-18.9178
-18.9103
-18.9089
-18.9165
-18.9105
-18.9068
-18.9151
-18.9109
-18.9049
-18.913
-18.9116
-18.9036
-18.9102
-18.9121
-18.9031
-18.9071
-18.9118
-18.9033
-18.9044
-18.9106
-18.9039
-18.9023
-18.9089
-18.9042
-18.9005
-18.9072
-18.9042
-18.899
-18.9053
-18.9045
-18.8977
-18.9029
-18.9049
-18.8969
-18.8999
-18.9049
-18.8972
-18.8968
-18.9036
-18.8983
-18.8944
-18.9013
-18.8992
-18.8932
-18.8985
-18.8992
-18.8929
-18.896
-18.8986
-18.8926
-18.8937
-18.8978
-18.8923
-18.8916
-18.8968
-18.8925
-18.8892
-18.8951
-18.8933
-18.8874
-18.8924
-18.894
-18.887
-18.889
-18.8935
-18.8877
-18.8862
-18.8917
-18.8885
-18.8846
-18.8893
-18.8885
-18.8838
-18.887
-18.8882
-18.8831
-18.8848
-18.8877
-18.8826
-18.8824
-18.8868
-18.883
-18.8798
-18.8849
-18.884
-18.8783
-18.8819
-18.8842
-18.8785
-18.8787
-18.8831
-18.8793
-18.8765
-18.8809
-18.8796
-18.8756
-18.8784
-18.8792
-18.875
-18.8763
-18.8786
-18.8744
-18.8741
-18.8776
-18.8745
-18.8718
-18.8759
-18.8752
-18.8703
-18.8729
-18.8754
-18.8704
-18.8698
-18.8739
-18.8713
-18.868
-18.8714
-18.8714
-18.8674
-18.869
-18.8706
-18.867
-18.8669
-18.8697
-18.8668
-18.8649
-18.8681
-18.8671
-18.8633
-18.8656
-18.8673
-18.8629
-18.8627
-18.8661
-18.8635
-18.8608
-18.8636
-18.8638
-18.86
-18.8612
-18.863
-18.8598
-18.8591
-18.8616
-18.8597
-18.8573
-18.8599
-18.8597
-18.8561
-18.8573
-18.8593
-18.8561
-18.8548
-18.8578
-18.8565
-18.8533
-18.8552
-18.8563
-18.853
-18.8527
-18.8551
-18.853
-18.851
-18.8531
-18.8528
-18.85
-18.851
-18.8523
-18.8494
-18.8488
-18.8511
-18.8495
-18.8469
-18.8489
-18.8496
-18.8462
-18.8463
-18.8485
-18.8465
-18.8444
-18.8463
-18.8464
-18.8435
-18.8441
-18.8455
-18.8433
-18.8421
-18.844
-18.843
-18.8407
-18.842
-18.8426
-18.84
-18.8396
-18.8416
-18.84
-18.8378
-18.8395
-18.8399
-18.8371
-18.837
-18.8388
-18.8371
-18.8352
-18.8368
-18.8368
-18.8344
-18.8345
-18.8359
-18.834
-18.8327
-18.8342
-18.8337
-18.8315
-18.8321
-18.8331
-18.8309
-18.83
-18.8316
-18.8309
-18.8286
-18.8293
-18.8304
-18.8282
-18.8272
-18.8287
-18.8281
-18.826
-18.8265
-18.8273
-18.8255
-18.8247
-18.8258
-18.825
-18.8233
-18.824
-18.8244
-18.8224
-18.8219
-18.8232
-18.8223
-18.8203
-18.8211
-18.8218
-18.8198
-18.8189
-18.8202
-18.8197
-18.8177
-18.818
-18.8187
-18.8172
-18.8163
-18.8172
-18.8166
-18.815
-18.8155
-18.8158
-18.8141
-18.8134
-18.8146
-18.8139
-18.8119
-18.8124
-18.8132
-18.8116
-18.8103
-18.8114
-18.8113
-18.8095
-18.8093
-18.8099
-18.809
-18.8079
-18.8084
-18.8081
-18.8066
-18.8067
-18.8073
-18.8059
-18.8047
-18.8056
-18.8057
-18.8038
-18.8032
-18.8043
-18.8037
-18.8019
-18.8021
-18.8026
-18.8015
-18.8006
-18.801
-18.8006
-18.7993
-18.7995
-18.7997
-18.7983
-18.7975
-18.7984
-18.798
-18.7962
-18.7961
-18.797
-18.7961
-18.7945
-18.7948
-18.7952
-18.794
-18.7932
-18.7935
-18.7931
-18.792
-18.7921
-18.7921
-18.7909
-18.7902
-18.7909
-18.7904
-18.7888
-18.7887
-18.7894
-18.7885
-18.787
-18.7873
-18.7876
-18.7865
-18.7857
-18.7859
-18.7856
-18.7846
-18.7844
-18.7844
-18.7835
-18.7827
-18.7832
-18.7829
-18.7814
-18.7811
-18.7817
-18.7811
-18.7796
-18.7796
-18.78
-18.7791
-18.7781
-18.7782
-18.7781
-18.7771
-18.7767
-18.7768
-18.7761
-18.7751
-18.7753
-18.7753
-18.7741
-18.7734
-18.7738
-18.7736
-18.7723
-18.7718
-18.7722
-18.7717
-18.7706
-18.7704
-18.7704
-18.7696
-18.769
-18.769
-18.7686
-18.7676
-18.7674
-18.7676
-18.7668
-18.7657
-18.7657
-18.7659
-18.765
-18.7641
-18.7642
-18.764
-18.7631
-18.7625
-18.7626
-18.7621
-18.7612
-18.7611
-18.7611
-18.7602
-18.7594
-18.7595
-18.7593
-18.7583
-18.7577
-18.7579
-18.7575
-18.7565
-18.7562
-18.7562
-18.7556
-18.7547
-18.7547
-18.7545
-18.7536
-18.753
-18.7531
-18.7528
-18.7518
-18.7513
-18.7514
-18.7509
-18.75
-18.7497
-18.7497
-18.749
-18.7482
-18.7482
-18.748
-18.7471
-18.7465
-18.7465
-18.7462
-18.7453
-18.7448
-18.7448
-18.7444
-18.7435
-18.7432
-18.7431
-18.7424
-18.7418
-18.7416
-18.7414
-18.7405
-18.7399
-18.74
-18.7397
-18.7387
-18.7381
-18.7382
-18.7378
-18.737
-18.7365
-18.7364
-18.7358
-18.7352
-18.735
-18.7347
-18.7339
-18.7333
-18.7333
-18.733
-18.7321
-18.7315
-18.7315
-18.7312
-18.7304
-18.7299
-18.7297
-18.7293
-18.7286
-18.7283
-18.728
-18.7273
-18.7267
-18.7266
-18.7264
-18.7255
-18.7248
-18.7248
-18.7246
-18.7238
-18.7231
-18.7229
-18.7226
-18.722
-18.7215
-18.7212
-18.7206
-18.7201
-18.7198
-18.7196
-18.7188
-18.7181
-18.718
-18.7178
-18.7172
-18.7163
-18.7161
-18.7159
-18.7154
-18.7147
-18.7144
-18.714
-18.7134
-18.713
-18.7127
-18.7122
-18.7114
-18.7111
-18.711
-18.7105
-18.7096
-18.7092
-18.7091
-18.7087
-18.708
-18.7075
-18.7072
-18.7067
-18.7062
-18.7059
-18.7054
-18.7047
-18.7042
-18.7041
-18.7037
-18.703
-18.7023
-18.7021
-18.7019
-18.7012
-18.7006
-18.7003
-18.6999
-18.6993
-18.6989
-18.6986
-18.698
-18.6974
-18.697
-18.6969
-18.6963
-18.6955
-18.6951
-18.695
-18.6945
-18.6938
-18.6933
-18.693
-18.6925
-18.692
-18.6916
-18.6912
-18.6906
-18.6901
-18.6898
-18.6894
-18.6888
-18.6882
-18.6879
-18.6876
-18.6869
-18.6863
-18.686
-18.6857
-18.6851
-18.6846
-18.6842
-18.6838
-18.6832
-18.6827
-18.6824
-18.6819
-18.6813
-18.6808
-18.6806
-18.6801
-18.6794
-18.6789
-18.6786
-18.6783
-18.6777
-18.6771
-18.6767
-18.6763
-18.6757
-18.6753
-18.675
-18.6744
-18.6738
-18.6734
-18.6731
-18.6726
-18.6719
-18.6714
-18.6712
-18.6707
-18.6701
-18.6697
-18.6692
-18.6687
-18.6682
-18.6679
-18.6675
-18.6669
-18.6662
-18.6659
-18.6656
-18.6651
-18.6644
-18.6639
-18.6636
-18.6631
-18.6626
-18.6621
-18.6617
-18.6612
-18.6606
-18.6603
-18.6599
-18.6593
-18.6587
-18.6583
-18.658
-18.6575
-18.6568
-18.6564
-18.656
-18.6555
-18.655
-18.6545
-18.6541
-18.6536
-18.653
-18.6527
-18.6523
-18.6517
-18.6511
-18.6507
-18.6503
-18.6498
-18.6492
-18.6488
-18.6484
-18.6479
-18.6473
-18.6469
-18.6465
-18.6459
-18.6454
-18.6449
-18.6446
-18.6441
-18.6435
-18.643
-18.6426
-18.6421
-18.6415
-18.6411
-18.6407
-18.6402
-18.6396
-18.6391
-18.6387
-18.6383
-18.6377
-18.6373
-18.6368
-18.6363
-18.6357
-18.6353
-18.635
-18.6344
-18.6338
-18.6333
-18.6329
-18.6325
-18.632
-18.6314
-18.6309
-18.6305
-18.63
-18.6295
-18.6291
-18.6286
-18.6279
-18.6275
-18.6271
-18.6267
-18.6261
-18.6255
-18.6251
-18.6246
-18.6242
-18.6237
-18.6232
-18.6226
-18.6221
-18.6216
-18.6213
-18.6208
-18.6202
-18.6196
-18.6192
-18.6188
-18.6184
-18.6178
-18.6172
-18.6167
-18.6162
-18.6158
-18.6154
-18.6149
-18.6143
-18.6137
-18.6133
-18.6129
-18.6125
-18.6118
-18.6113
-18.6108
-18.6104
-18.6099
-18.6094
-18.6089
-18.6083
-18.6078
-18.6074
-18.607
-18.6065
-18.6059
-18.6053
-18.6049
-18.6045
-18.604
-18.6035
-18.6029
-18.6024
-18.6019
-18.6015
-18.601
-18.6005
-18.5999
-18.5993
-18.5989
-18.5985
-18.5981
-18.5975
-18.5969
-18.5964
-18.5959
-18.5955
-18.595
-18.5945
-18.5939
-18.5933
-18.5929
-18.5925
-18.5921
-18.5915
-18.5908
-18.5903
-18.5899
-18.5895
-18.589
-18.5884
-18.5879
-18.5873
-18.5869
-18.5865
-18.586
-18.5854
-18.5848
-18.5843
-18.5839
-18.5835
-18.5829
-18.5824
-18.5818
-18.5813
-18.5808
-18.5804
-18.5799
-18.5794
-18.5788
-18.5782
-18.5778
-18.5774
-18.5769
-18.5763
-18.5757
-18.5752
-18.5747
-18.5743
-18.5738
-18.5733
-18.5727
-18.5722
-18.5717
-18.5713
-18.5707
-18.5702
-18.5696
-18.5691
-18.5687
-18.5681
-18.5676
-18.5671
-18.5666
-18.566
-18.5655
-18.5651
-18.5646
-18.5641
-18.5635
-18.563
-18.5625
-18.562
-18.5615
-18.561
-18.5604
-18.5599
-18.5594
-18.5589
-18.5584
-18.5579
-18.5574
-18.5568
-18.5563
-18.5558
-18.5553
-18.5548
-18.5543
-18.5537
-18.5532
-18.5527
-18.5522
-18.5517
-18.5512
-18.5506
-18.5501
-18.5496
-18.5491
-18.5486
-18.548
-18.5475
-18.547
-18.5465
-18.5459
-18.5454
-18.5449
-18.5444
-18.5439
-18.5434
-18.5429
-18.5423
-18.5418
-18.5413
-18.5408
-18.5403
-18.5397
-18.5392
-18.5386
-18.5381
-18.5376
-18.5371
-18.5366
-18.5361
-18.5355
-18.5349
-18.5345
-18.534
-18.5335
-18.5329
-18.5323
-18.5318
-18.5313
-18.5308
-18.5304
-18.5298
-18.5292
-18.5286
-18.5281
-18.5276
-18.5272
-18.5267
-18.5261
-18.5255
-18.5249
-18.5244
-18.524
-18.5235
-18.523
-18.5224
-18.5218
-18.5212
-18.5207
-18.5203
-18.5198
-18.5193
-18.5187
-18.5181
-18.5175
-18.517
-18.5166
-18.5161
-18.5156
-18.5149
-18.5143
-18.5138
-18.5134
-18.5129
-18.5124
-18.5118
-18.5112
-18.5106
-18.5101
-18.5096
-18.5092
-18.5086
-18.508
-18.5074
-18.5069
-18.5064
-18.5059
-18.5054
-18.5049
-18.5043
-18.5037
-18.5031
-18.5027
-18.5022
-18.5017
-18.5011
-18.5005
-18.4999
-18.4994
-18.4989
-18.4984
-18.4979
-18.4973
-18.4967
-18.4962
-18.4956
-18.4952
-18.4947
-18.4941
-18.4935
-18.4929
-18.4924
-18.4919
-18.4914
-18.4909
-18.4903
-18.4897
-18.4892
-18.4886
-18.4881
-18.4876
-18.4871
-18.4865
-18.4859
-18.4854
-18.4848
-18.4843
-18.4838
-18.4833
-18.4827
-18.4821
-18.4815
-18.481
-18.4805
-18.48
-18.4795
-18.4789
-18.4783
-18.4778
-18.4772
-18.4767
-18.4762
-18.4757
-18.4751
-18.4745
-18.4739
-18.4734
-18.4728
-18.4723
-18.4718
-18.4713
-18.4707
-18.4701
-18.4696
-18.469
-18.4685
-18.468
-18.4674
-18.4668
-18.4663
-18.4657
-18.4652
-18.4646
-18.4641
-18.4636
-18.463
-18.4624
-18.4619
-18.4613
-18.4608
-18.4602
-18.4597
-18.4591
-18.4586
-18.458
-18.4574
-18.4569
-18.4563
-18.4558
-18.4553
-18.4547
-18.4542
-18.4536
-18.453
-18.4524
-18.4519
-18.4514
-18.4509
-18.4503
-18.4497
-18.4491
-18.4486
-18.448
-18.4475
-18.447
-18.4464
-18.4458
-18.4452
-18.4446
-18.4441
-18.4436
-18.443
-18.4425
-18.4419
-18.4413
-18.4408
-18.4402
-18.4396
-18.4391
-18.4386
-18.438
-18.4374
-18.4368
-18.4363
-18.4357
-18.4352
-18.4346
-18.4341
-18.4335
-18.4329
-18.4323
-18.4318
-18.4312
-18.4307
-18.4301
-18.4296
-18.429
-18.4284
-18.4278
-18.4273
-18.4267
-18.4262
-18.4256
-18.4251
-18.4245
-18.4239
-18.4233
-18.4228
-18.4222
-18.4217
-18.4211
-18.4205
-18.42
-18.4194
-18.4188
-18.4182
-18.4177
-18.4171
-18.4165
-18.416
-18.4154
-18.4148
-18.4143
-18.4137
-18.4131
-18.4126
-18.412
-18.4114
-18.4108
-18.4103
-18.4097
-18.4092
-18.4086
-18.408
-18.4074
-18.4068
-18.4063
-18.4057
-18.4052
-18.4046
-18.404
-18.4034
-18.4028
-18.4023
-18.4017
-18.4011
-18.4006
-18.4
-18.3994
-18.3988
-18.3982
-18.3977
-18.3971
-18.3966
-18.396
-18.3954
-18.3948
-18.3942
-18.3936
-18.3931
-18.3925
-18.392
-18.3914
-18.3908
-18.3902
-18.3896
-18.389
-18.3884
-18.3879
-18.3873
-18.3868
-18.3862
-18.3856
-18.385
-18.3844
-18.3838
-18.3832
-18.3827
-18.3821
-18.3815
-18.381
-18.3803
-18.3797
-18.3792
-18.3786
-18.378
-18.3775
-18.3769
-18.3763
-18.3757
-18.3751
-18.3745
-18.3739
-18.3734
-18.3728
-18.3722
-18.3716
-18.371
-18.3704
-18.3698
-18.3692
-18.3687
-18.3681
-18.3676
-18.367
-18.3664
-18.3658
-18.3652
-18.3646
-18.364
-18.3634
-18.3628
-18.3623
-18.3617
-18.3611
-18.3605
-18.3599
-18.3593
-18.3587
-18.3581
-18.3575
-18.357
-18.3564
-18.3558
-18.3552
-18.3546
-18.354
-18.3534
-18.3528
-18.3522
-18.3516
-18.351
-18.3505
-18.3499
-18.3493
-18.3487
-18.3481
-18.3475
-18.3469
-18.3463
-18.3457
-18.3451
-18.3445
-18.3439
-18.3433
-18.3427
-18.3421
-18.3416
-18.341
-18.3404
-18.3398
-18.3392
-18.3386
-18.338
-18.3374
-18.3368
-18.3362
-18.3356
-18.335
-18.3344
-18.3338
-18.3332
-18.3326
-18.332
-18.3314
-18.3308
-18.3302
-18.3296
-18.329
-18.3284
-18.3278
-18.3272
-18.3266
-18.326
-18.3254
-18.3248
-18.3242
-18.3236
-18.323
-18.3224
-18.3218
-18.3212
-18.3206
-18.32
-18.3194
-18.3188
-18.3182
-18.3176
-18.317
-18.3164
-18.3158
-18.3152
-18.3146
-18.314
-18.3134
-18.3128
-18.3121
-18.3115
-18.3109
-18.3103
-18.3097
-18.3091
-18.3085
-18.3079
-18.3073
-18.3067
-18.3061
-18.3055
-18.3049
-18.3043
-18.3037
-18.3031
-18.3025
-18.3019
-18.3012
-18.3006
-18.3
-18.2994
-18.2988
-18.2982
-18.2976
-18.297
-18.2964
-18.2957
-18.2951
-18.2945
-18.2939
-18.2933
-18.2927
-18.2921
-18.2915
-18.2908
-18.2902
-18.2896
-18.289
-18.2884
-18.2878
-18.2872
-18.2865
-18.2859
-18.2853
-18.2847
-18.2841
-18.2835
-18.2829
-18.2823
-18.2816
-18.281
-18.2804
-18.2798
-18.2792
-18.2786
-18.278
-18.2773
-18.2767
-18.2761
-18.2755
-18.2748
-18.2742
-18.2736
-18.273
-18.2724
-18.2718
-18.2712
-18.2705
-18.2699
-18.2693
-18.2687
-18.268
-18.2674
-18.2668
-18.2662
-18.2656
-18.265
-18.2643
-18.2637
-18.2631
-18.2624
-18.2618
-18.2612
-18.2606
-18.26
-18.2594
-18.2587
-18.2581
-18.2575
-18.2568
-18.2562
-18.2556
-18.255
-18.2544
-18.2537
-18.2531
-18.2525
-18.2518
-18.2512
-18.2506
-18.2499
-18.2493
-18.2487
-18.2481
-18.2475
-18.2469
-18.2462
-18.2456
-18.2449
-18.2443
-18.2437
-18.243
-18.2424
-18.2418
-18.2412
-18.2406
-18.2399
-18.2393
-18.2386
-18.238
-18.2374
-18.2367
-18.2361
-18.2355
-18.2349
-18.2343
-18.2337
-18.233
-18.2324
-18.2317
-18.2311
-18.2304
-18.2298
-18.2292
-18.2285
-18.2279
-18.2273
-18.2266
-18.226
-18.2254
-18.2247
-18.2241
-18.2235
-18.2228
-18.2222
-18.2216
-18.2209
-18.2203
-18.2196
-18.219
-18.2184
-18.2177
-18.2171
-18.2164
-18.2158
-18.2152
-18.2145
-18.2139
-18.2133
-18.2126
-18.212
-18.2114
-18.2107
-18.2101
-18.2094
-18.2088
-18.2082
-18.2075
-18.2069
-18.2062
-18.2056
-18.2049
-18.2043
-18.2036
-18.203
-18.2024
-18.2017
-18.2011
-18.2004
-18.1998
-18.1991
-18.1985
-18.1979
-18.1972
-18.1966
-18.1959
-18.1953
-18.1947
-18.194
-18.1934
-18.1927
-18.192
-18.1914
-18.1907
-18.1901
-18.1895
-18.1888
-18.1882
-18.1875
-18.1869
-18.1862
-18.1856
-18.1849
-18.1842
-18.1836
-18.1829
-18.1823
-18.1817
-18.181
-18.1804
-18.1797
-18.1791
-18.1785
-18.1778
-18.1771
-18.1765
-18.1758
-18.1751
-18.1745
-18.1739
-18.1732
-18.1726
-18.172
-18.1713
-18.1707
-18.17
-18.1693
-18.1686
-18.168
-18.1673
-18.1666
-18.166
-18.1654
-18.1647
-18.1641
-18.1634
-18.1628
-18.1621
-18.1614
-18.1607
-18.16
-18.1594
-18.1587
-18.1581
-18.1574
-18.1568
-18.1562
-18.1556
-18.1549
-18.1542
-18.1536
-18.1529
-18.1522
-18.1515
-18.1508
-18.1502
-18.1495
-18.1489
-18.1483
-18.1476
-18.147
-18.1463
-18.1456
-18.1449
-18.1442
-18.1436
-18.1429
-18.1422
-18.1416
-18.1409
-18.1403
-18.1397
-18.139
-18.1383
-18.1376
-18.1369
-18.1362
-18.1356
-18.1349
-18.1342
-18.1336
-18.133
-18.1323
-18.1317
-18.131
-18.1304
-18.1297
-18.129
-18.1283
-18.1275
-18.1269
-18.1262
-18.1255
-18.1249
-18.1243
-18.1236
-18.123
-18.1224
-18.1217
-18.121
-18.1203
-18.1196
-18.1189
-18.1182
-18.1175
-18.1168
-18.1162
-18.1156
-18.1149
-18.1143
-18.1136
-18.113
-18.1123
-18.1116
-18.1108
-18.1101
-18.1094
-18.1087
-18.108
-18.1074
-18.1067
-18.1061
-18.1055
-18.1048
-18.1041
-18.1035
-18.1028
-18.1021
-18.1013
-18.1006
-18.0999
-18.0993
-18.0986
-18.0979
-18.0973
-18.0966
-18.096
-18.0953
-18.0946
-18.0939
-18.0932
-18.0925
-18.0918
-18.0911
-18.0904
-18.0898
-18.0891
-18.0884
-18.0878
-18.0871
-18.0865
-18.0858
-18.0851
-18.0844
-18.0837
-18.0829
-18.0822
-18.0815
-18.0808
-18.0802
-18.0795
-18.0788
-18.0782
-18.0775
-18.0768
-18.0762
-18.0755
-18.0748
-18.0741
-18.0734
-18.0726
-18.0719
-18.0712
-18.0705
-18.0699
-18.0692
-18.0685
-18.0679
-18.0672
-18.0665
-18.0659
-18.0652
-18.0645
-18.0638
-18.063
-18.0623
-18.0616
-18.0609
-18.0602
-18.0595
-18.0588
-18.0581
-18.0574
-18.0568
-18.0561
-18.0554
-18.0547
-18.054
-18.0533
-18.0526
-18.0519
-18.0512
-18.0505
-18.0498
-18.0491
-18.0484
-18.0477
-18.047
-18.0464
-18.0457
-18.045
-18.0443
-18.0436
-18.0429
-18.0422
-18.0415
-18.0407
-18.04
-18.0393
-18.0386
-18.0379
-18.0372
-18.0365
-18.0358
-18.0351
-18.0344
-18.0337
-18.033
-18.0323
-18.0316
-18.0309
-18.0302
-18.0295
-18.0288
-18.0281
-18.0274
-18.0266
-18.0259
-18.0252
-18.0245
-18.0238
-18.0232
-18.0225
-18.0218
-18.0211
-18.0204
-18.0197
-18.019
-18.0182
-18.0175
-18.0168
-18.0161
-18.0153
-18.0146
-18.0139
-18.0132
-18.0125
-18.0118
-18.0111
-18.0104
-18.0097
-18.009