/*--------------------------------*- C++ -*----------------------------------*\
  =========                 |
  \\      /  F ield         | OpenFOAM: The Open Source CFD Toolbox
   \\    /   O peration     | Website:  https://openfoam.org
    \\  /    A nd           | Version:  9
     \\/     M anipulation  |
\*---------------------------------------------------------------------------*/
FoamFile
{
    format      ascii;
    class       volScalarField;
    location    "0.026";
    object      ddt0(rho,e);
}
// * * * * * * * * * * * * * * * * * * * * * * * * * * * * * * * * * * * * * //

dimensions      [1 -1 -3 0 0 0 0];

internalField   nonuniform List<scalar> 
10000
(
1.23816e+06
1.23803e+06
1.2378e+06
1.23744e+06
1.23717e+06
1.23711e+06
1.23699e+06
1.23656e+06
1.23601e+06
1.23577e+06
1.23591e+06
1.23604e+06
1.23573e+06
1.23499e+06
1.23426e+06
1.23401e+06
1.23432e+06
1.23482e+06
1.23496e+06
1.23447e+06
1.23346e+06
1.2324e+06
1.23177e+06
1.23183e+06
1.23248e+06
1.23336e+06
1.23402e+06
1.23411e+06
1.23351e+06
1.23232e+06
1.23083e+06
1.2294e+06
1.22833e+06
1.22786e+06
1.22805e+06
1.22889e+06
1.23025e+06
1.23197e+06
1.23388e+06
1.23581e+06
1.23764e+06
1.23925e+06
1.24059e+06
1.24162e+06
1.24233e+06
1.24274e+06
1.24292e+06
1.24296e+06
1.2431e+06
1.24355e+06
1.24469e+06
1.24483e+06
1.2448e+06
1.24476e+06
1.24473e+06
1.24471e+06
1.24469e+06
1.24468e+06
1.24467e+06
1.24467e+06
1.24467e+06
1.24467e+06
1.24467e+06
1.24468e+06
1.24468e+06
1.24468e+06
1.24469e+06
1.24469e+06
1.24469e+06
1.2447e+06
1.2447e+06
1.24471e+06
1.24471e+06
1.24471e+06
1.24472e+06
1.24472e+06
1.24472e+06
1.24473e+06
1.24473e+06
1.24474e+06
1.24474e+06
1.24474e+06
1.24475e+06
1.24475e+06
1.24475e+06
1.24476e+06
1.24476e+06
1.24476e+06
1.24477e+06
1.24477e+06
1.24478e+06
1.24478e+06
1.24478e+06
1.24479e+06
1.24479e+06
1.24479e+06
1.2448e+06
1.2448e+06
1.2448e+06
1.24481e+06
1.24481e+06
1.24481e+06
1.24482e+06
1.24482e+06
1.24482e+06
1.24483e+06
1.24483e+06
1.24483e+06
1.24484e+06
1.24484e+06
1.24485e+06
1.24485e+06
1.24485e+06
1.24486e+06
1.24486e+06
1.24486e+06
1.24487e+06
1.24487e+06
1.24487e+06
1.24488e+06
1.24488e+06
1.24488e+06
1.24489e+06
1.24489e+06
1.24489e+06
1.2449e+06
1.2449e+06
1.2449e+06
1.24491e+06
1.24491e+06
1.24491e+06
1.24492e+06
1.24492e+06
1.24492e+06
1.24493e+06
1.24493e+06
1.24493e+06
1.24494e+06
1.24494e+06
1.24494e+06
1.24495e+06
1.24495e+06
1.24495e+06
1.24496e+06
1.24496e+06
1.24496e+06
1.24497e+06
1.24497e+06
1.24497e+06
1.24498e+06
1.24498e+06
1.24498e+06
1.24499e+06
1.24499e+06
1.24499e+06
1.245e+06
1.245e+06
1.245e+06
1.24501e+06
1.24501e+06
1.24501e+06
1.24502e+06
1.24502e+06
1.24502e+06
1.24502e+06
1.24503e+06
1.24503e+06
1.24503e+06
1.24504e+06
1.24504e+06
1.24504e+06
1.24505e+06
1.24505e+06
1.24505e+06
1.24506e+06
1.24506e+06
1.24506e+06
1.24507e+06
1.24507e+06
1.24507e+06
1.24508e+06
1.24508e+06
1.24508e+06
1.24508e+06
1.24509e+06
1.24509e+06
1.24509e+06
1.2451e+06
1.2451e+06
1.2451e+06
1.24511e+06
1.24511e+06
1.24511e+06
1.24512e+06
1.24512e+06
1.24512e+06
1.24512e+06
1.24513e+06
1.24513e+06
1.24513e+06
1.24514e+06
1.24514e+06
1.24514e+06
1.24515e+06
1.24515e+06
1.24515e+06
1.24515e+06
1.24516e+06
1.24516e+06
1.24516e+06
1.24517e+06
1.24517e+06
1.24517e+06
1.24517e+06
1.24518e+06
1.24518e+06
1.24518e+06
1.24519e+06
1.24519e+06
1.24519e+06
1.24519e+06
1.2452e+06
1.2452e+06
1.2452e+06
1.24521e+06
1.24521e+06
1.24521e+06
1.24521e+06
1.24522e+06
1.24522e+06
1.24522e+06
1.24523e+06
1.24523e+06
1.24523e+06
1.24523e+06
1.24524e+06
1.24524e+06
1.24524e+06
1.24525e+06
1.24525e+06
1.24525e+06
1.24525e+06
1.24526e+06
1.24526e+06
1.24526e+06
1.24526e+06
1.24527e+06
1.24527e+06
1.24527e+06
1.24528e+06
1.24528e+06
1.24528e+06
1.24528e+06
1.24529e+06
1.24529e+06
1.24529e+06
1.24529e+06
1.2453e+06
1.2453e+06
1.2453e+06
1.24531e+06
1.24531e+06
1.24531e+06
1.24531e+06
1.24532e+06
1.24532e+06
1.24532e+06
1.24532e+06
1.24533e+06
1.24533e+06
1.24533e+06
1.24533e+06
1.24534e+06
1.24534e+06
1.24534e+06
1.24534e+06
1.24535e+06
1.24535e+06
1.24535e+06
1.24535e+06
1.24536e+06
1.24536e+06
1.24536e+06
1.24536e+06
1.24537e+06
1.24537e+06
1.24537e+06
1.24537e+06
1.24538e+06
1.24538e+06
1.24538e+06
1.24538e+06
1.24539e+06
1.24539e+06
1.24539e+06
1.24539e+06
1.2454e+06
1.2454e+06
1.2454e+06
1.2454e+06
1.24541e+06
1.24541e+06
1.24541e+06
1.24541e+06
1.24542e+06
1.24542e+06
1.24542e+06
1.24542e+06
1.24542e+06
1.24543e+06
1.24543e+06
1.24543e+06
1.24543e+06
1.24544e+06
1.24544e+06
1.24544e+06
1.24544e+06
1.24545e+06
1.24545e+06
1.24545e+06
1.24545e+06
1.24545e+06
1.24546e+06
1.24546e+06
1.24546e+06
1.24546e+06
1.24547e+06
1.24547e+06
1.24547e+06
1.24547e+06
1.24547e+06
1.24548e+06
1.24548e+06
1.24548e+06
1.24548e+06
1.24549e+06
1.24549e+06
1.24549e+06
1.24549e+06
1.24549e+06
1.2455e+06
1.2455e+06
1.2455e+06
1.2455e+06
1.24551e+06
1.24551e+06
1.24551e+06
1.24551e+06
1.24551e+06
1.24552e+06
1.24552e+06
1.24552e+06
1.24552e+06
1.24552e+06
1.24553e+06
1.24553e+06
1.24553e+06
1.24553e+06
1.24553e+06
1.24554e+06
1.24554e+06
1.24554e+06
1.24554e+06
1.24554e+06
1.24555e+06
1.24555e+06
1.24555e+06
1.24555e+06
1.24555e+06
1.24556e+06
1.24556e+06
1.24556e+06
1.24556e+06
1.24556e+06
1.24557e+06
1.24557e+06
1.24557e+06
1.24557e+06
1.24557e+06
1.24558e+06
1.24558e+06
1.24558e+06
1.24558e+06
1.24558e+06
1.24559e+06
1.24559e+06
1.24559e+06
1.24559e+06
1.24559e+06
1.2456e+06
1.2456e+06
1.2456e+06
1.2456e+06
1.2456e+06
1.2456e+06
1.24561e+06
1.24561e+06
1.24561e+06
1.24561e+06
1.24561e+06
1.24562e+06
1.24562e+06
1.24562e+06
1.24562e+06
1.24562e+06
1.24562e+06
1.24563e+06
1.24563e+06
1.24563e+06
1.24563e+06
1.24563e+06
1.24564e+06
1.24564e+06
1.24564e+06
1.24564e+06
1.24564e+06
1.24564e+06
1.24565e+06
1.24565e+06
1.24565e+06
1.24565e+06
1.24565e+06
1.24565e+06
1.24566e+06
1.24566e+06
1.24566e+06
1.24566e+06
1.24566e+06
1.24566e+06
1.24567e+06
1.24567e+06
1.24567e+06
1.24567e+06
1.24567e+06
1.24567e+06
1.24568e+06
1.24568e+06
1.24568e+06
1.24568e+06
1.24568e+06
1.24568e+06
1.24568e+06
1.24569e+06
1.24569e+06
1.24569e+06
1.24569e+06
1.24569e+06
1.24569e+06
1.2457e+06
1.2457e+06
1.2457e+06
1.2457e+06
1.2457e+06
1.2457e+06
1.2457e+06
1.24571e+06
1.24571e+06
1.24571e+06
1.24571e+06
1.24571e+06
1.24571e+06
1.24571e+06
1.24572e+06
1.24572e+06
1.24572e+06
1.24572e+06
1.24572e+06
1.24572e+06
1.24572e+06
1.24573e+06
1.24573e+06
1.24573e+06
1.24573e+06
1.24573e+06
1.24573e+06
1.24573e+06
1.24574e+06
1.24574e+06
1.24574e+06
1.24574e+06
1.24574e+06
1.24574e+06
1.24574e+06
1.24574e+06
1.24575e+06
1.24575e+06
1.24575e+06
1.24575e+06
1.24575e+06
1.24575e+06
1.24575e+06
1.24575e+06
1.24576e+06
1.24576e+06
1.24576e+06
1.24576e+06
1.24576e+06
1.24576e+06
1.24576e+06
1.24576e+06
1.24577e+06
1.24577e+06
1.24577e+06
1.24577e+06
1.24577e+06
1.24577e+06
1.24577e+06
1.24577e+06
1.24578e+06
1.24578e+06
1.24578e+06
1.24578e+06
1.24578e+06
1.24578e+06
1.24578e+06
1.24578e+06
1.24578e+06
1.24579e+06
1.24579e+06
1.24579e+06
1.24579e+06
1.24579e+06
1.24579e+06
1.24579e+06
1.24579e+06
1.24579e+06
1.24579e+06
1.2458e+06
1.2458e+06
1.2458e+06
1.2458e+06
1.2458e+06
1.2458e+06
1.2458e+06
1.2458e+06
1.2458e+06
1.2458e+06
1.24581e+06
1.24581e+06
1.24581e+06
1.24581e+06
1.24581e+06
1.24581e+06
1.24581e+06
1.24581e+06
1.24581e+06
1.24581e+06
1.24582e+06
1.24582e+06
1.24582e+06
1.24582e+06
1.24582e+06
1.24582e+06
1.24582e+06
1.24582e+06
1.24582e+06
1.24582e+06
1.24582e+06
1.24583e+06
1.24583e+06
1.24583e+06
1.24583e+06
1.24583e+06
1.24583e+06
1.24583e+06
1.24583e+06
1.24583e+06
1.24583e+06
1.24583e+06
1.24583e+06
1.24584e+06
1.24584e+06
1.24584e+06
1.24584e+06
1.24584e+06
1.24584e+06
1.24584e+06
1.24584e+06
1.24584e+06
1.24584e+06
1.24584e+06
1.24584e+06
1.24584e+06
1.24584e+06
1.24585e+06
1.24585e+06
1.24585e+06
1.24585e+06
1.24585e+06
1.24585e+06
1.24585e+06
1.24585e+06
1.24585e+06
1.24585e+06
1.24585e+06
1.24585e+06
1.24585e+06
1.24585e+06
1.24585e+06
1.24585e+06
1.24586e+06
1.24586e+06
1.24586e+06
1.24586e+06
1.24586e+06
1.24586e+06
1.24586e+06
1.24586e+06
1.24586e+06
1.24586e+06
1.24586e+06
1.24586e+06
1.24586e+06
1.24586e+06
1.24586e+06
1.24586e+06
1.24586e+06
1.24586e+06
1.24587e+06
1.24587e+06
1.24587e+06
1.24587e+06
1.24587e+06
1.24587e+06
1.24587e+06
1.24587e+06
1.24587e+06
1.24587e+06
1.24587e+06
1.24587e+06
1.24587e+06
1.24587e+06
1.24587e+06
1.24587e+06
1.24587e+06
1.24587e+06
1.24587e+06
1.24587e+06
1.24587e+06
1.24587e+06
1.24587e+06
1.24587e+06
1.24588e+06
1.24588e+06
1.24588e+06
1.24588e+06
1.24588e+06
1.24588e+06
1.24588e+06
1.24588e+06
1.24588e+06
1.24588e+06
1.24588e+06
1.24588e+06
1.24588e+06
1.24588e+06
1.24588e+06
1.24588e+06
1.24588e+06
1.24588e+06
1.24588e+06
1.24588e+06
1.24588e+06
1.24588e+06
1.24588e+06
1.24588e+06
1.24588e+06
1.24588e+06
1.24588e+06
1.24588e+06
1.24588e+06
1.24588e+06
1.24588e+06
1.24588e+06
1.24588e+06
1.24588e+06
1.24588e+06
1.24588e+06
1.24588e+06
1.24588e+06
1.24588e+06
1.24588e+06
1.24588e+06
1.24588e+06
1.24588e+06
1.24588e+06
1.24588e+06
1.24588e+06
1.24588e+06
1.24588e+06
1.24588e+06
1.24588e+06
1.24589e+06
1.24589e+06
1.24589e+06
1.24589e+06
1.24589e+06
1.24589e+06
1.24589e+06
1.24589e+06
1.24589e+06
1.24589e+06
1.24589e+06
1.24589e+06
1.24588e+06
1.24588e+06
1.24588e+06
1.24588e+06
1.24588e+06
1.24588e+06
1.24588e+06
1.24588e+06
1.24588e+06
1.24588e+06
1.24588e+06
1.24588e+06
1.24588e+06
1.24588e+06
1.24588e+06
1.24588e+06
1.24588e+06
1.24588e+06
1.24588e+06
1.24588e+06
1.24588e+06
1.24588e+06
1.24588e+06
1.24588e+06
1.24588e+06
1.24588e+06
1.24588e+06
1.24588e+06
1.24588e+06
1.24588e+06
1.24588e+06
1.24588e+06
1.24588e+06
1.24588e+06
1.24588e+06
1.24588e+06
1.24588e+06
1.24588e+06
1.24588e+06
1.24588e+06
1.24588e+06
1.24588e+06
1.24588e+06
1.24588e+06
1.24588e+06
1.24588e+06
1.24588e+06
1.24588e+06
1.24588e+06
1.24588e+06
1.24588e+06
1.24588e+06
1.24588e+06
1.24588e+06
1.24587e+06
1.24587e+06
1.24587e+06
1.24587e+06
1.24587e+06
1.24587e+06
1.24587e+06
1.24587e+06
1.24587e+06
1.24587e+06
1.24587e+06
1.24587e+06
1.24587e+06
1.24587e+06
1.24587e+06
1.24587e+06
1.24587e+06
1.24587e+06
1.24587e+06
1.24587e+06
1.24587e+06
1.24587e+06
1.24587e+06
1.24586e+06
1.24586e+06
1.24586e+06
1.24586e+06
1.24586e+06
1.24586e+06
1.24586e+06
1.24586e+06
1.24586e+06
1.24586e+06
1.24586e+06
1.24586e+06
1.24586e+06
1.24586e+06
1.24586e+06
1.24586e+06
1.24586e+06
1.24586e+06
1.24586e+06
1.24585e+06
1.24585e+06
1.24585e+06
1.24585e+06
1.24585e+06
1.24585e+06
1.24585e+06
1.24585e+06
1.24585e+06
1.24585e+06
1.24585e+06
1.24585e+06
1.24585e+06
1.24585e+06
1.24585e+06
1.24584e+06
1.24584e+06
1.24584e+06
1.24584e+06
1.24584e+06
1.24584e+06
1.24584e+06
1.24584e+06
1.24584e+06
1.24584e+06
1.24584e+06
1.24584e+06
1.24584e+06
1.24583e+06
1.24583e+06
1.24583e+06
1.24583e+06
1.24583e+06
1.24583e+06
1.24583e+06
1.24583e+06
1.24583e+06
1.24583e+06
1.24583e+06
1.24583e+06
1.24583e+06
1.24582e+06
1.24582e+06
1.24582e+06
1.24582e+06
1.24582e+06
1.24582e+06
1.24582e+06
1.24582e+06
1.24582e+06
1.24582e+06
1.24582e+06
1.24581e+06
1.24581e+06
1.24581e+06
1.24581e+06
1.24581e+06
1.24581e+06
1.24581e+06
1.24581e+06
1.24581e+06
1.24581e+06
1.24581e+06
1.2458e+06
1.2458e+06
1.2458e+06
1.2458e+06
1.2458e+06
1.2458e+06
1.2458e+06
1.2458e+06
1.2458e+06
1.2458e+06
1.24579e+06
1.24579e+06
1.24579e+06
1.24579e+06
1.24579e+06
1.24579e+06
1.24579e+06
1.24579e+06
1.24579e+06
1.24578e+06
1.24578e+06
1.24578e+06
1.24578e+06
1.24578e+06
1.24578e+06
1.24578e+06
1.24578e+06
1.24578e+06
1.24577e+06
1.24577e+06
1.24577e+06
1.24577e+06
1.24577e+06
1.24577e+06
1.24577e+06
1.24577e+06
1.24576e+06
1.24576e+06
1.24576e+06
1.24576e+06
1.24576e+06
1.24576e+06
1.24576e+06
1.24576e+06
1.24575e+06
1.24575e+06
1.24575e+06
1.24575e+06
1.24575e+06
1.24575e+06
1.24575e+06
1.24575e+06
1.24574e+06
1.24574e+06
1.24574e+06
1.24574e+06
1.24574e+06
1.24574e+06
1.24574e+06
1.24574e+06
1.24573e+06
1.24573e+06
1.24573e+06
1.24573e+06
1.24573e+06
1.24573e+06
1.24573e+06
1.24572e+06
1.24572e+06
1.24572e+06
1.24572e+06
1.24572e+06
1.24572e+06
1.24572e+06
1.24571e+06
1.24571e+06
1.24571e+06
1.24571e+06
1.24571e+06
1.24571e+06
1.24571e+06
1.2457e+06
1.2457e+06
1.2457e+06
1.2457e+06
1.2457e+06
1.2457e+06
1.24569e+06
1.24569e+06
1.24569e+06
1.24569e+06
1.24569e+06
1.24569e+06
1.24569e+06
1.24568e+06
1.24568e+06
1.24568e+06
1.24568e+06
1.24568e+06
1.24568e+06
1.24567e+06
1.24567e+06
1.24567e+06
1.24567e+06
1.24567e+06
1.24567e+06
1.24566e+06
1.24566e+06
1.24566e+06
1.24566e+06
1.24566e+06
1.24566e+06
1.24565e+06
1.24565e+06
1.24565e+06
1.24565e+06
1.24565e+06
1.24565e+06
1.24564e+06
1.24564e+06
1.24564e+06
1.24564e+06
1.24564e+06
1.24564e+06
1.24563e+06
1.24563e+06
1.24563e+06
1.24563e+06
1.24563e+06
1.24563e+06
1.24562e+06
1.24562e+06
1.24562e+06
1.24562e+06
1.24562e+06
1.24561e+06
1.24561e+06
1.24561e+06
1.24561e+06
1.24561e+06
1.24561e+06
1.2456e+06
1.2456e+06
1.2456e+06
1.2456e+06
1.2456e+06
1.24559e+06
1.24559e+06
1.24559e+06
1.24559e+06
1.24559e+06
1.24559e+06
1.24558e+06
1.24558e+06
1.24558e+06
1.24558e+06
1.24558e+06
1.24557e+06
1.24557e+06
1.24557e+06
1.24557e+06
1.24557e+06
1.24556e+06
1.24556e+06
1.24556e+06
1.24556e+06
1.24556e+06
1.24555e+06
1.24555e+06
1.24555e+06
1.24555e+06
1.24555e+06
1.24554e+06
1.24554e+06
1.24554e+06
1.24554e+06
1.24554e+06
1.24553e+06
1.24553e+06
1.24553e+06
1.24553e+06
1.24552e+06
1.24552e+06
1.24552e+06
1.24552e+06
1.24552e+06
1.24551e+06
1.24551e+06
1.24551e+06
1.24551e+06
1.24551e+06
1.2455e+06
1.2455e+06
1.2455e+06
1.2455e+06
1.24549e+06
1.24549e+06
1.24549e+06
1.24549e+06
1.24549e+06
1.24548e+06
1.24548e+06
1.24548e+06
1.24548e+06
1.24548e+06
1.24547e+06
1.24547e+06
1.24547e+06
1.24547e+06
1.24546e+06
1.24546e+06
1.24546e+06
1.24546e+06
1.24545e+06
1.24545e+06
1.24545e+06
1.24545e+06
1.24545e+06
1.24544e+06
1.24544e+06
1.24544e+06
1.24544e+06
1.24543e+06
1.24543e+06
1.24543e+06
1.24543e+06
1.24542e+06
1.24543e+06
1.24541e+06
1.24543e+06
1.2454e+06
1.24543e+06
1.24539e+06
1.24544e+06
1.24537e+06
1.24545e+06
1.24534e+06
1.24548e+06
1.2453e+06
1.24551e+06
1.24524e+06
1.24556e+06
1.24518e+06
1.24562e+06
1.24511e+06
1.24568e+06
1.24505e+06
1.24571e+06
1.24503e+06
1.2457e+06
1.24507e+06
1.24559e+06
1.24523e+06
1.24534e+06
1.24545e+06
1.24532e+06
1.24533e+06
1.24538e+06
1.24534e+06
1.24532e+06
1.24535e+06
1.24535e+06
1.24534e+06
1.24532e+06
1.24534e+06
1.24533e+06
1.24533e+06
1.24531e+06
1.24532e+06
1.24531e+06
1.24536e+06
1.24518e+06
1.24555e+06
1.24493e+06
1.24584e+06
1.24461e+06
1.24614e+06
1.24434e+06
1.24631e+06
1.24428e+06
1.24621e+06
1.24454e+06
1.24576e+06
1.24514e+06
1.24504e+06
1.24587e+06
1.24434e+06
1.24647e+06
1.24391e+06
1.24662e+06
1.24405e+06
1.24616e+06
1.2448e+06
1.24515e+06
1.24589e+06
1.24416e+06
1.24667e+06
1.24366e+06
1.24676e+06
1.24401e+06
1.24595e+06
1.24515e+06
1.24464e+06
1.2464e+06
1.24362e+06
1.24698e+06
1.2436e+06
1.24641e+06
1.24469e+06
1.24493e+06
1.24622e+06
1.24363e+06
1.24705e+06
1.24339e+06
1.24659e+06
1.2445e+06
1.24497e+06
1.24622e+06
1.24357e+06
1.2471e+06
1.24331e+06
1.24659e+06
1.2445e+06
1.24489e+06
1.24627e+06
1.24349e+06
1.24711e+06
1.2433e+06
1.24651e+06
1.24458e+06
1.24477e+06
1.2464e+06
1.24325e+06
1.24723e+06
1.24331e+06
1.24622e+06
1.24507e+06
1.2441e+06
1.247e+06
1.24285e+06
1.24717e+06
1.24384e+06
1.2452e+06
1.24625e+06
1.24302e+06
1.24753e+06
1.24302e+06
1.24616e+06
1.24538e+06
1.2435e+06
1.2475e+06
1.24258e+06
1.24685e+06
1.24462e+06
1.24403e+06
1.24727e+06
1.24242e+06
1.24727e+06
1.24403e+06
1.24454e+06
1.24692e+06
1.24245e+06
1.24753e+06
1.2435e+06
1.2451e+06
1.24651e+06
1.2425e+06
1.24774e+06
1.24311e+06
1.24543e+06
1.24631e+06
1.24248e+06
1.24786e+06
1.24292e+06
1.24555e+06
1.24622e+06
1.24249e+06
1.24784e+06
1.24286e+06
1.24561e+06
1.24612e+06
1.24251e+06
1.24783e+06
1.24285e+06
1.24553e+06
1.24622e+06
1.24239e+06
1.24783e+06
1.24296e+06
1.24523e+06
1.24655e+06
1.24213e+06
1.2478e+06
1.24329e+06
1.24464e+06
1.24708e+06
1.24185e+06
1.24758e+06
1.24392e+06
1.24379e+06
1.24771e+06
1.24172e+06
1.24701e+06
1.24491e+06
1.24276e+06
1.24819e+06
1.24202e+06
1.24595e+06
1.24619e+06
1.24183e+06
1.24822e+06
1.24291e+06
1.24446e+06
1.24749e+06
1.24134e+06
1.24752e+06
1.24444e+06
1.2428e+06
1.24835e+06
1.24169e+06
1.24603e+06
1.24626e+06
1.24156e+06
1.24827e+06
1.24299e+06
1.24415e+06
1.24767e+06
1.24128e+06
1.24723e+06
1.24477e+06
1.24246e+06
1.24832e+06
1.24196e+06
1.24545e+06
1.24668e+06
1.24136e+06
1.24793e+06
1.24363e+06
1.2433e+06
1.2481e+06
1.24141e+06
1.24631e+06
1.24594e+06
1.24148e+06
1.24831e+06
1.24294e+06
1.24374e+06
1.24805e+06
1.24102e+06
1.24671e+06
1.24571e+06
1.24132e+06
1.24858e+06
1.24271e+06
1.24364e+06
1.24828e+06
1.2408e+06
1.24658e+06
1.24601e+06
1.241e+06
1.24852e+06
1.24309e+06
1.24309e+06
1.24848e+06
1.24103e+06
1.24591e+06
1.2466e+06
1.24079e+06
1.24805e+06
1.24388e+06
1.24234e+06
1.24859e+06
1.24157e+06
1.24489e+06
1.24739e+06
1.24065e+06
1.24727e+06
1.24506e+06
1.24139e+06
1.24854e+06
1.24259e+06
1.24338e+06
1.24827e+06
1.24094e+06
1.2458e+06
1.24666e+06
1.24065e+06
1.24775e+06
1.24433e+06
1.24173e+06
1.24858e+06
1.24212e+06
1.24376e+06
1.24807e+06
1.24074e+06
1.24603e+06
1.24645e+06
1.24056e+06
1.24784e+06
1.24425e+06
1.24156e+06
1.24868e+06
1.24214e+06
1.24339e+06
1.24837e+06
1.24068e+06
1.24552e+06
1.24706e+06
1.2402e+06
1.24738e+06
1.24514e+06
1.24077e+06
1.24851e+06
1.24311e+06
1.24217e+06
1.24871e+06
1.24143e+06
1.24401e+06
1.24802e+06
1.24044e+06
1.24587e+06
1.24665e+06
1.24028e+06
1.24739e+06
1.24489e+06
1.24091e+06
1.2483e+06
1.2431e+06
1.24215e+06
1.2485e+06
1.24162e+06
1.24371e+06
1.24801e+06
1.24064e+06
1.24533e+06
1.24699e+06
1.24024e+06
1.24675e+06
1.24565e+06
1.2404e+06
1.24782e+06
1.24418e+06
1.24106e+06
1.24842e+06
1.24279e+06
1.24208e+06
1.24852e+06
1.24163e+06
1.24328e+06
1.2482e+06
1.24082e+06
1.24449e+06
1.24752e+06
1.24039e+06
1.24561e+06
1.2466e+06
1.24033e+06
1.24656e+06
1.24553e+06
1.24059e+06
1.24727e+06
1.24441e+06
1.24112e+06
1.24771e+06
1.24335e+06
1.24183e+06
1.24791e+06
1.24239e+06
1.24263e+06
1.24793e+06
1.24158e+06
1.24343e+06
1.24779e+06
1.24096e+06
1.24418e+06
1.24748e+06
1.24057e+06
1.24486e+06
1.24704e+06
1.24037e+06
1.24544e+06
1.24653e+06
1.24034e+06
1.24593e+06
1.24598e+06
1.24043e+06
1.24633e+06
1.24539e+06
1.24063e+06
1.24666e+06
1.2448e+06
1.2409e+06
1.24691e+06
1.24423e+06
1.2412e+06
1.24709e+06
1.24373e+06
1.24149e+06
1.24724e+06
1.24327e+06
1.24175e+06
1.24736e+06
1.24287e+06
1.24198e+06
1.24744e+06
1.24257e+06
1.24217e+06
1.24745e+06
1.24237e+06
1.2423e+06
1.24743e+06
1.24225e+06
1.24241e+06
1.24736e+06
1.24217e+06
1.24253e+06
1.24724e+06
1.24214e+06
1.24265e+06
1.24709e+06
1.24214e+06
1.24275e+06
1.24695e+06
1.24213e+06
1.24285e+06
1.24683e+06
1.2421e+06
1.24294e+06
1.24672e+06
1.24208e+06
1.243e+06
1.24665e+06
1.24208e+06
1.243e+06
1.24662e+06
1.24208e+06
1.24293e+06
1.24664e+06
1.24211e+06
1.24282e+06
1.24665e+06
1.24222e+06
1.24265e+06
1.24661e+06
1.24242e+06
1.24245e+06
1.24652e+06
1.24267e+06
1.24227e+06
1.24637e+06
1.24291e+06
1.24219e+06
1.24617e+06
1.2431e+06
1.24218e+06
1.24597e+06
1.24326e+06
1.24214e+06
1.24584e+06
1.24338e+06
1.24204e+06
1.24579e+06
1.2435e+06
1.24191e+06
1.24572e+06
1.24371e+06
1.24174e+06
1.24555e+06
1.24403e+06
1.24157e+06
1.2453e+06
1.24439e+06
1.24147e+06
1.24499e+06
1.24468e+06
1.2415e+06
1.24462e+06
1.24492e+06
1.24162e+06
1.24421e+06
1.24513e+06
1.24176e+06
1.24385e+06
1.24528e+06
1.24192e+06
1.24353e+06
1.24535e+06
1.24213e+06
1.24319e+06
1.24541e+06
1.24238e+06
1.24281e+06
1.24547e+06
1.24267e+06
1.24244e+06
1.24545e+06
1.24304e+06
1.24211e+06
1.24527e+06
1.2435e+06
1.24184e+06
1.24497e+06
1.24399e+06
1.24168e+06
1.24458e+06
1.2444e+06
1.2417e+06
1.24409e+06
1.24472e+06
1.24189e+06
1.24357e+06
1.24492e+06
1.24216e+06
1.24312e+06
1.24498e+06
1.24246e+06
1.24279e+06
1.24492e+06
1.24279e+06
1.24247e+06
1.24485e+06
1.24315e+06
1.24213e+06
1.24473e+06
1.24357e+06
1.24187e+06
1.24441e+06
1.24408e+06
1.24179e+06
1.24386e+06
1.24454e+06
1.24194e+06
1.24325e+06
1.24476e+06
1.24232e+06
1.24275e+06
1.2447e+06
1.24279e+06
1.24241e+06
1.2445e+06
1.24319e+06
1.24219e+06
1.2443e+06
1.2435e+06
1.24205e+06
1.24404e+06
1.24388e+06
1.24195e+06
1.2436e+06
1.24433e+06
1.24202e+06
1.24301e+06
1.24461e+06
1.24242e+06
1.2424e+06
1.24453e+06
1.24306e+06
1.24199e+06
1.24415e+06
1.24362e+06
1.24194e+06
1.24364e+06
1.24393e+06
1.24215e+06
1.24318e+06
1.24406e+06
1.24237e+06
1.24282e+06
1.24414e+06
1.24258e+06
1.24248e+06
1.24414e+06
1.24295e+06
1.24209e+06
1.24395e+06
1.24352e+06
1.24185e+06
1.24344e+06
1.24403e+06
1.24203e+06
1.24276e+06
1.24419e+06
1.24257e+06
1.24222e+06
1.24397e+06
1.24311e+06
1.24206e+06
1.24357e+06
1.24344e+06
1.24214e+06
1.24318e+06
1.24364e+06
1.24223e+06
1.24284e+06
1.24381e+06
1.2424e+06
1.24243e+06
1.24387e+06
1.24283e+06
1.24199e+06
1.24362e+06
1.24343e+06
1.24184e+06
1.24303e+06
1.24383e+06
1.2422e+06
1.24237e+06
1.2438e+06
1.24276e+06
1.24205e+06
1.24345e+06
1.24317e+06
1.24208e+06
1.24304e+06
1.24337e+06
1.24221e+06
1.24271e+06
1.24349e+06
1.24235e+06
1.24238e+06
1.24354e+06
1.24269e+06
1.242e+06
1.24333e+06
1.24323e+06
1.24185e+06
1.24276e+06
1.2436e+06
1.24223e+06
1.24215e+06
1.24348e+06
1.24281e+06
1.24193e+06
1.24305e+06
1.24314e+06
1.24207e+06
1.24265e+06
1.24324e+06
1.24227e+06
1.24234e+06
1.24327e+06
1.24251e+06
1.24204e+06
1.24314e+06
1.24292e+06
1.24189e+06
1.24268e+06
1.2433e+06
1.24211e+06
1.24214e+06
1.24327e+06
1.24262e+06
1.24189e+06
1.24286e+06
1.24301e+06
1.24198e+06
1.24245e+06
1.24309e+06
1.24224e+06
1.24215e+06
1.24301e+06
1.24254e+06
1.24192e+06
1.2428e+06
1.24287e+06
1.2419e+06
1.24237e+06
1.24308e+06
1.24221e+06
1.24192e+06
1.24295e+06
1.24266e+06
1.2418e+06
1.2425e+06
1.24294e+06
1.24204e+06
1.24207e+06
1.24289e+06
1.24238e+06
1.2419e+06
1.24263e+06
1.24264e+06
1.2419e+06
1.24232e+06
1.24281e+06
1.24205e+06
1.24198e+06
1.24278e+06
1.2424e+06
1.24175e+06
1.24246e+06
1.24276e+06
1.24186e+06
1.242e+06
1.24277e+06
1.24227e+06
1.24175e+06
1.24245e+06
1.24259e+06
1.24183e+06
1.2421e+06
1.24263e+06
1.24208e+06
1.24185e+06
1.24251e+06
1.24234e+06
1.24174e+06
1.24225e+06
1.24255e+06
1.24186e+06
1.24186e+06
1.24256e+06
1.2422e+06
1.24164e+06
1.24226e+06
1.24249e+06
1.24178e+06
1.24185e+06
1.2425e+06
1.2421e+06
1.24165e+06
1.24223e+06
1.24235e+06
1.24174e+06
1.24189e+06
1.2424e+06
1.24196e+06
1.24168e+06
1.24224e+06
1.2422e+06
1.24165e+06
1.24194e+06
1.24236e+06
1.24181e+06
1.24164e+06
1.24225e+06
1.24214e+06
1.24155e+06
1.24188e+06
1.24232e+06
1.24178e+06
1.24158e+06
1.24215e+06
1.24209e+06
1.24156e+06
1.24183e+06
1.24219e+06
1.24174e+06
1.24162e+06
1.24207e+06
1.24195e+06
1.24153e+06
1.24186e+06
1.24211e+06
1.24161e+06
1.24158e+06
1.24208e+06
1.2419e+06
1.24141e+06
1.24178e+06
1.24211e+06
1.2416e+06
1.24145e+06
1.24196e+06
1.24192e+06
1.24143e+06
1.24165e+06
1.24197e+06
1.24162e+06
1.24148e+06
1.24184e+06
1.24178e+06
1.24142e+06
1.24168e+06
1.24189e+06
1.2415e+06
1.24141e+06
1.24186e+06
1.24177e+06
1.24129e+06
1.24155e+06
1.24192e+06
1.24154e+06
1.24126e+06
1.24169e+06
1.2418e+06
1.24136e+06
1.24141e+06
1.24173e+06
1.24156e+06
1.24133e+06
1.2416e+06
1.24163e+06
1.2413e+06
1.24144e+06
1.24172e+06
1.24144e+06
1.24117e+06
1.24157e+06
1.24171e+06
1.24125e+06
1.24121e+06
1.24164e+06
1.24156e+06
1.24116e+06
1.24134e+06
1.24159e+06
1.24136e+06
1.24121e+06
1.24146e+06
1.24144e+06
1.24119e+06
1.24135e+06
1.24151e+06
1.24123e+06
1.24111e+06
1.24148e+06
1.24147e+06
1.24106e+06
1.24114e+06
1.24151e+06
1.24136e+06
1.24101e+06
1.24122e+06
1.24144e+06
1.2412e+06
1.24107e+06
1.24129e+06
1.24127e+06
1.24106e+06
1.2412e+06
1.24132e+06
1.24108e+06
1.241e+06
1.24131e+06
1.24129e+06
1.24093e+06
1.24101e+06
1.24134e+06
1.24119e+06
1.24087e+06
1.24106e+06
1.24128e+06
1.24106e+06
1.24092e+06
1.24111e+06
1.24114e+06
1.24094e+06
1.24102e+06
1.24114e+06
1.24096e+06
1.24086e+06
1.24111e+06
1.24113e+06
1.24082e+06
1.24084e+06
1.24114e+06
1.24107e+06
1.24075e+06
1.24086e+06
1.2411e+06
1.24095e+06
1.24077e+06
1.24091e+06
1.24099e+06
1.24082e+06
1.24083e+06
1.24097e+06
1.24086e+06
1.24071e+06
1.24088e+06
1.24099e+06
1.24074e+06
1.24065e+06
1.2409e+06
1.24095e+06
1.24067e+06
1.24065e+06
1.24089e+06
1.24085e+06
1.24064e+06
1.2407e+06
1.24084e+06
1.24071e+06
1.24064e+06
1.24077e+06
1.24077e+06
1.24058e+06
1.24063e+06
1.24082e+06
1.2407e+06
1.2405e+06
1.24062e+06
1.2408e+06
1.24063e+06
1.24048e+06
1.24062e+06
1.24071e+06
1.24055e+06
1.2405e+06
1.24065e+06
1.2406e+06
1.24046e+06
1.24053e+06
1.24065e+06
1.24051e+06
1.24039e+06
1.24055e+06
1.24062e+06
1.24044e+06
1.24037e+06
1.24054e+06
1.24054e+06
1.24038e+06
1.24039e+06
1.24052e+06
1.24045e+06
1.24032e+06
1.24042e+06
1.2405e+06
1.24036e+06
1.24027e+06
1.24042e+06
1.24046e+06
1.24029e+06
1.24026e+06
1.2404e+06
1.24039e+06
1.24024e+06
1.24028e+06
1.24037e+06
1.24029e+06
1.24019e+06
1.2403e+06
1.24035e+06
1.2402e+06
1.24015e+06
1.24029e+06
1.24032e+06
1.24015e+06
1.24012e+06
1.24025e+06
1.24025e+06
1.24012e+06
1.24013e+06
1.24022e+06
1.24014e+06
1.24008e+06
1.24016e+06
1.2402e+06
1.24005e+06
1.24001e+06
1.24016e+06
1.24018e+06
1.24001e+06
1.23996e+06
1.24011e+06
1.24011e+06
1.24e+06
1.23998e+06
1.24005e+06
1.24001e+06
1.23995e+06
1.24001e+06
1.24004e+06
1.23992e+06
1.23987e+06
1.24001e+06
1.24003e+06
1.23988e+06
1.23982e+06
1.23994e+06
1.23999e+06
1.23986e+06
1.23982e+06
1.23989e+06
1.23989e+06
1.23982e+06
1.23984e+06
1.23988e+06
1.23979e+06
1.23974e+06
1.23984e+06
1.23989e+06
1.23974e+06
1.23967e+06
1.23978e+06
1.23985e+06
1.23973e+06
1.23965e+06
1.23973e+06
1.23976e+06
1.2397e+06
1.23967e+06
1.23971e+06
1.23967e+06
1.23962e+06
1.23967e+06
1.23972e+06
1.23963e+06
1.23952e+06
1.23961e+06
1.2397e+06
1.23962e+06
1.2395e+06
1.23955e+06
1.23962e+06
1.23958e+06
1.23951e+06
1.23953e+06
1.23954e+06
1.23949e+06
1.2395e+06
1.23955e+06
1.2395e+06
1.2394e+06
1.23943e+06
1.23953e+06
1.23949e+06
1.23937e+06
1.23936e+06
1.23947e+06
1.23946e+06
1.23937e+06
1.23935e+06
1.23939e+06
1.23937e+06
1.23934e+06
1.23937e+06
1.23936e+06
1.23929e+06
1.23926e+06
1.23935e+06
1.23937e+06
1.23926e+06
1.23919e+06
1.23927e+06
1.23932e+06
1.23925e+06
1.23919e+06
1.23921e+06
1.23923e+06
1.23919e+06
1.23919e+06
1.23921e+06
1.23917e+06
1.23911e+06
1.23914e+06
1.23921e+06
1.23915e+06
1.23906e+06
1.23907e+06
1.23915e+06
1.23912e+06
1.23905e+06
1.23904e+06
1.23908e+06
1.23906e+06
1.23901e+06
1.23903e+06
1.23904e+06
1.23899e+06
1.23895e+06
1.239e+06
1.23902e+06
1.23895e+06
1.2389e+06
1.23895e+06
1.23898e+06
1.23891e+06
1.23887e+06
1.23889e+06
1.23893e+06
1.23888e+06
1.23884e+06
1.23886e+06
1.23886e+06
1.23882e+06
1.23881e+06
1.23885e+06
1.23882e+06
1.23876e+06
1.23875e+06
1.23881e+06
1.23881e+06
1.23872e+06
1.23869e+06
1.23874e+06
1.23876e+06
1.23871e+06
1.23868e+06
1.23869e+06
1.23868e+06
1.23865e+06
1.23866e+06
1.23868e+06
1.23864e+06
1.23858e+06
1.23859e+06
1.23865e+06
1.23862e+06
1.23855e+06
1.23853e+06
1.23858e+06
1.23857e+06
1.23853e+06
1.23852e+06
1.23852e+06
1.2385e+06
1.23847e+06
1.2385e+06
1.23851e+06
1.23846e+06
1.2384e+06
1.23843e+06
1.23847e+06
1.23844e+06
1.23838e+06
1.23837e+06
1.2384e+06
1.23839e+06
1.23836e+06
1.23835e+06
1.23835e+06
1.23832e+06
1.23829e+06
1.23832e+06
1.23833e+06
1.23829e+06
1.23823e+06
1.23825e+06
1.23828e+06
1.23826e+06
1.23821e+06
1.2382e+06
1.23822e+06
1.23821e+06
1.23818e+06
1.23817e+06
1.23818e+06
1.23814e+06
1.23812e+06
1.23814e+06
1.23815e+06
1.23811e+06
1.23806e+06
1.23807e+06
1.2381e+06
1.23809e+06
1.23804e+06
1.23803e+06
1.23803e+06
1.23802e+06
1.23799e+06
1.238e+06
1.23801e+06
1.23798e+06
1.23793e+06
1.23794e+06
1.23796e+06
1.23794e+06
1.23791e+06
1.2379e+06
1.23791e+06
1.23788e+06
1.23785e+06
1.23786e+06
1.23788e+06
1.23785e+06
1.2378e+06
1.2378e+06
1.23781e+06
1.23781e+06
1.23778e+06
1.23777e+06
1.23777e+06
1.23774e+06
1.23772e+06
1.23772e+06
1.23775e+06
1.23772e+06
1.23767e+06
1.23765e+06
1.23768e+06
1.23768e+06
1.23765e+06
1.23762e+06
1.23761e+06
1.23761e+06
1.23759e+06
1.2376e+06
1.2376e+06
1.23757e+06
1.23752e+06
1.23752e+06
1.23755e+06
1.23756e+06
1.23751e+06
1.23746e+06
1.23746e+06
1.23747e+06
1.23748e+06
1.23746e+06
1.23745e+06
1.23741e+06
1.23738e+06
1.23739e+06
1.23742e+06
1.23742e+06
1.23736e+06
1.23731e+06
1.23732e+06
1.23735e+06
1.23735e+06
1.23732e+06
1.23728e+06
1.23726e+06
1.23726e+06
1.23726e+06
1.23728e+06
1.23726e+06
1.23721e+06
1.23717e+06
1.23718e+06
1.23722e+06
1.23722e+06
1.23716e+06
1.23712e+06
1.23712e+06
1.23713e+06
1.23713e+06
1.23712e+06
1.2371e+06
1.23706e+06
1.23704e+06
1.23705e+06
1.23708e+06
1.23707e+06
1.23701e+06
1.23697e+06
1.23698e+06
1.23701e+06
1.237e+06
1.23697e+06
1.23694e+06
1.23692e+06
1.23691e+06
1.23692e+06
1.23693e+06
1.23691e+06
1.23686e+06
1.23682e+06
1.23684e+06
1.23687e+06
1.23687e+06
1.23682e+06
1.23678e+06
1.23677e+06
1.23677e+06
1.23678e+06
1.23678e+06
1.23676e+06
1.23671e+06
1.23668e+06
1.23669e+06
1.23672e+06
1.23672e+06
1.23667e+06
1.23663e+06
1.23662e+06
1.23663e+06
1.23664e+06
1.23663e+06
1.2366e+06
1.23657e+06
1.23654e+06
1.23655e+06
1.23657e+06
1.23657e+06
1.23653e+06
1.23648e+06
1.23647e+06
1.23648e+06
1.2365e+06
1.23648e+06
1.23645e+06
1.23642e+06
1.23641e+06
1.2364e+06
1.23641e+06
1.23641e+06
1.23639e+06
1.23634e+06
1.23632e+06
1.23633e+06
1.23634e+06
1.23633e+06
1.2363e+06
1.23628e+06
1.23626e+06
1.23626e+06
1.23625e+06
1.23625e+06
1.23624e+06
1.2362e+06
1.23618e+06
1.23617e+06
1.23619e+06
1.23618e+06
1.23615e+06
1.23612e+06
1.23611e+06
1.23611e+06
1.2361e+06
1.23609e+06
1.23608e+06
1.23606e+06
1.23603e+06
1.23603e+06
1.23603e+06
1.23603e+06
1.236e+06
1.23597e+06
1.23596e+06
1.23596e+06
1.23595e+06
1.23594e+06
1.23592e+06
1.23591e+06
1.23589e+06
1.23587e+06
1.23587e+06
1.23587e+06
1.23585e+06
1.23583e+06
1.2358e+06
1.2358e+06
1.23579e+06
1.23578e+06
1.23576e+06
1.23575e+06
1.23574e+06
1.23573e+06
1.23571e+06
1.2357e+06
1.23569e+06
1.23568e+06
1.23566e+06
1.23564e+06
1.23564e+06
1.23562e+06
1.23561e+06
1.23559e+06
1.23559e+06
1.23558e+06
1.23556e+06
1.23554e+06
1.23552e+06
1.23552e+06
1.23551e+06
1.23549e+06
1.23548e+06
1.23547e+06
1.23545e+06
1.23543e+06
1.23542e+06
1.23542e+06
1.23542e+06
1.23539e+06
1.23536e+06
1.23535e+06
1.23535e+06
1.23534e+06
1.23533e+06
1.23532e+06
1.2353e+06
1.23527e+06
1.23525e+06
1.23525e+06
1.23526e+06
1.23525e+06
1.23522e+06
1.23519e+06
1.23516e+06
1.23517e+06
1.23517e+06
1.23517e+06
1.23516e+06
1.23513e+06
1.23509e+06
1.23506e+06
1.23507e+06
1.23509e+06
1.23509e+06
1.23506e+06
1.23502e+06
1.23498e+06
1.23498e+06
1.23499e+06