/*--------------------------------*- C++ -*----------------------------------*\
  =========                 |
  \\      /  F ield         | OpenFOAM: The Open Source CFD Toolbox
   \\    /   O peration     | Website:  https://openfoam.org
    \\  /    A nd           | Version:  9
     \\/     M anipulation  |
\*---------------------------------------------------------------------------*/
FoamFile
{
    format      ascii;
    class       surfaceScalarField;
    location    "0.026";
    object      phi_0;
}
// * * * * * * * * * * * * * * * * * * * * * * * * * * * * * * * * * * * * * //

dimensions      [1 0 -1 0 0 0 0];

internalField   nonuniform List<scalar> 
9999
(
6.52873
6.60568
6.68263
6.75957
6.83651
6.91344
6.99038
7.06731
7.14423
7.22114
7.29806
7.37498
7.45189
7.5288
7.60569
7.68258
7.75948
7.83638
7.91328
7.99017
8.06706
8.14392
8.22078
8.29764
8.3745
8.45138
8.52827
8.60515
8.68203
8.75889
8.83574
8.91256
8.98937
9.06617
9.14297
9.21978
9.29662
9.37347
9.45035
9.52725
9.60418
9.68113
9.7581
9.83508
9.91207
9.98906
10.0661
10.1431
10.2201
10.2971
10.3741
10.4511
10.5281
10.6051
10.6822
10.7592
10.8362
10.9132
10.9902
11.0672
11.1442
11.2213
11.2983
11.3753
11.4523
11.5293
11.6063
11.6833
11.7603
11.8373
11.9144
11.9914
12.0684
12.1454
12.2224
12.2994
12.3764
12.4534
12.5304
12.6074
12.6844
12.7614
12.8384
12.9154
12.9925
13.0695
13.1465
13.2235
13.3005
13.3775
13.4545
13.5315
13.6085
13.6855
13.7625
13.8395
13.9165
13.9935
14.0705
14.1475
14.2245
14.3015
14.3785
14.4555
14.5324
14.6094
14.6864
14.7634
14.8404
14.9174
14.9944
15.0714
15.1484
15.2254
15.3024
15.3794
15.4564
15.5334
15.6103
15.6873
15.7643
15.8413
15.9183
15.9953
16.0723
16.1493
16.2262
16.3032
16.3802
16.4572
16.5342
16.6112
16.6882
16.7651
16.8421
16.9191
16.9961
17.0731
17.15
17.227
17.304
17.381
17.458
17.5349
17.6119
17.6889
17.7659
17.8428
17.9198
17.9968
18.0738
18.1508
18.2277
18.3047
18.3817
18.4586
18.5356
18.6126
18.6896
18.7665
18.8435
18.9205
18.9974
19.0744
19.1514
19.2284
19.3053
19.3823
19.4593
19.5362
19.6132
19.6902
19.7671
19.8441
19.921
19.998
20.075
20.1519
20.2289
20.3059
20.3828
20.4598
20.5367
20.6137
20.6907
20.7676
20.8446
20.9215
20.9985
21.0755
21.1524
21.2294
21.3063
21.3833
21.4602
21.5372
21.6141
21.6911
21.7681
21.845
21.922
21.9989
22.0759
22.1528
22.2298
22.3067
22.3837
22.4606
22.5376
22.6145
22.6914
22.7684
22.8453
22.9223
22.9992
23.0762
23.1531
23.2301
23.307
23.384
23.4609
23.5378
23.6148
23.6917
23.7687
23.8456
23.9225
23.9995
24.0764
24.1534
24.2303
24.3072
24.3842
24.4611
24.538
24.615
24.6919
24.7688
24.8458
24.9227
24.9996
25.0766
25.1535
25.2304
25.3074
25.3843
25.4612
25.5381
25.6151
25.692
25.7689
25.8458
25.9228
25.9997
26.0766
26.1536
26.2305
26.3074
26.3843
26.4612
26.5382
26.6151
26.692
26.7689
26.8458
26.9228
26.9997
27.0766
27.1535
27.2304
27.3074
27.3843
27.4612
27.5381
27.615
27.6919
27.7688
27.8458
27.9227
27.9996
28.0765
28.1534
28.2303
28.3072
28.3841
28.461
28.5379
28.6148
28.6918
28.7687
28.8456
28.9225
28.9994
29.0763
29.1532
29.2301
29.307
29.3839
29.4608
29.5377
29.6146
29.6915
29.7684
29.8453
29.9222
29.9991
30.076
30.1529
30.2298
30.3067
30.3836
30.4605
30.5374
30.6142
30.6911
30.768
30.8449
30.9218
30.9987
31.0756
31.1525
31.2294
31.3063
31.3831
31.46
31.5369
31.6138
31.6907
31.7676
31.8445
31.9213
31.9982
32.0751
32.152
32.2289
32.3058
32.3826
32.4595
32.5364
32.6133
32.6901
32.767
32.8439
32.9208
32.9976
33.0745
33.1514
33.2283
33.3051
33.382
33.4589
33.5358
33.6126
33.6895
33.7664
33.8432
33.9201
33.997
34.0738
34.1507
34.2276
34.3044
34.3813
34.4582
34.535
34.6119
34.6888
34.7656
34.8425
34.9193
34.9962
35.0731
35.1499
35.2268
35.3036
35.3805
35.4574
35.5342
35.6111
35.6879
35.7648
35.8416
35.9185
35.9953
36.0722
36.149
36.2259
36.3027
36.3796
36.4564
36.5333
36.6101
36.687
36.7638
36.8407
36.9175
36.9944
37.0712
37.148
37.2249
37.3017
37.3786
37.4554
37.5322
37.6091
37.6859
37.7628
37.8396
37.9164
37.9933
38.0701
38.1469
38.2238
38.3006
38.3774
38.4543
38.5311
38.6079
38.6848
38.7616
38.8384
38.9153
38.9921
39.0689
39.1457
39.2226
39.2994
39.3762
39.453
39.5299
39.6067
39.6835
39.7603
39.8372
39.914
39.9908
40.0676
40.1444
40.2213
40.2981
40.3749
40.4517
40.5285
40.6053
40.6822
40.759
40.8358
40.9126
40.9894
41.0662
41.143
41.2198
41.2966
41.3734
41.4503
41.5271
41.6039
41.6807
41.7575
41.8343
41.9111
41.9879
42.0647
42.1415
42.2183
42.2951
42.3719
42.4487
42.5255
42.6023
42.6791
42.7559
42.8327
42.9095
42.9863
43.0631
43.1399
43.2167
43.2934
43.3702
43.447
43.5238
43.6006
43.6774
43.7542
43.831
43.9078
43.9845
44.0613
44.1381
44.2149
44.2917
44.3685
44.4452
44.522
44.5988
44.6756
44.7524
44.8291
44.9059
44.9827
45.0595
45.1362
45.213
45.2898
45.3666
45.4433
45.5201
45.5969
45.6737
45.7504
45.8272
45.904
45.9807
46.0575
46.1343
46.211
46.2878
46.3646
46.4413
46.5181
46.5949
46.6716
46.7484
46.8251
46.9019
46.9787
47.0554
47.1322
47.2089
47.2857
47.3624
47.4392
47.516
47.5927
47.6695
47.7462
47.823
47.8997
47.9765
48.0532
48.13
48.2067
48.2835
48.3602
48.4369
48.5137
48.5904
48.6672
48.7439
48.8207
48.8974
48.9741
49.0509
49.1276
49.2044
49.2811
49.3578
49.4346
49.5113
49.588
49.6648
49.7415
49.8182
49.895
49.9717
50.0484
50.1252
50.2019
50.2786
50.3554
50.4321
50.5088
50.5855
50.6623
50.739
50.8157
50.8924
50.9692
51.0459
51.1226
51.1993
51.276
51.3527
51.4295
51.5062
51.5829
51.6596
51.7363
51.813
51.8898
51.9665
52.0432
52.1199
52.1966
52.2733
52.35
52.4267
52.5034
52.5801
52.6568
52.7336
52.8103
52.887
52.9637
53.0404
53.1171
53.1938
53.2705
53.3472
53.4239
53.5006
53.5773
53.6539
53.7306
53.8073
53.884
53.9607
54.0374
54.1141
54.1908
54.2675
54.3442
54.4209
54.4976
54.5742
54.6509
54.7276
54.8043
54.881
54.9577
55.0343
55.111
55.1877
55.2644
55.3411
55.4177
55.4944
55.5711
55.6478
55.7244
55.8011
55.8778
55.9545
56.0311
56.1078
56.1845
56.2612
56.3378
56.4145
56.4912
56.5678
56.6445
56.7212
56.7978
56.8745
56.9511
57.0278
57.1045
57.1811
57.2578
57.3344
57.4111
57.4878
57.5644
57.6411
57.7177
57.7944
57.871
57.9477
58.0243
58.101
58.1776
58.2543
58.3309
58.4076
58.4842
58.5609
58.6375
58.7142
58.7908
58.8675
58.9441
59.0207
59.0974
59.174
59.2507
59.3273
59.4039
59.4806
59.5572
59.6338
59.7105
59.7871
59.8637
59.9404
60.017
60.0936
60.1703
60.2469
60.3235
60.4001
60.4768
60.5534
60.63
60.7066
60.7833
60.8599
60.9365
61.0131
61.0897
61.1664
61.243
61.3196
61.3962
61.4728
61.5494
61.6261
61.7027
61.7793
61.8559
61.9325
62.0091
62.0857
62.1623
62.2389
62.3155
62.3921
62.4688
62.5454
62.622
62.6986
62.7752
62.8518
62.9284
63.005
63.0816
63.1582
63.2348
63.3113
63.3879
63.4645
63.5411
63.6177
63.6943
63.7709
63.8475
63.9241
64.0007
64.0773
64.1538
64.2304
64.307
64.3836
64.4602
64.5368
64.6133
64.6899
64.7665
64.8431
64.9197
64.9962
65.0728
65.1494
65.226
65.3025
65.3791
65.4557
65.5322
65.6088
65.6854
65.762
65.8385
65.9151
65.9917
66.0682
66.1448
66.2213
66.2979
66.3745
66.451
66.5276
66.6041
66.6807
66.7573
66.8338
66.9104
66.9869
67.0635
67.14
67.2166
67.2931
67.3697
67.4462
67.5228
67.5993
67.6759
67.7524
67.829
67.9055
67.982
68.0586
68.1351
68.2117
68.2882
68.3648
68.4413
68.5178
68.5944
68.6709
68.7474
68.824
68.9005
68.977
69.0536
69.1301
69.2066
69.2831
69.3597
69.4362
69.5127
69.5892
69.6658
69.7423
69.8188
69.8953
69.9719
70.0484
70.1249
70.2014
70.2779
70.3544
70.431
70.5075
70.584
70.6605
70.737
70.8135
70.89
70.9665
71.043
71.1195
71.196
71.2726
71.3491
71.4256
71.5021
71.5786
71.6551
71.7316
71.8081
71.8846
71.9611
72.0375
72.114
72.1905
72.267
72.3435
72.42
72.4965
72.573
72.6495
72.726
72.8025
72.8789
72.9554
73.0319
73.1084
73.1849
73.2613
73.3378
73.4143
73.4908
73.5673
73.6437
73.7202
73.7967
73.8732
73.9496
74.0261
74.1026
74.179
74.2555
74.332
74.4084
74.4849
74.5614
74.6378
74.7143
74.7908
74.8672
74.9437
75.0201
75.0966
75.1731
75.2495
75.326
75.4024
75.4789
75.5553
75.6318
75.7082
75.7847
75.8611
75.9376
76.014
76.0905
76.1669
76.2434
76.3198
76.3963
76.4727
76.5491
76.6256
76.702
76.7784
76.8549
76.9313
77.0078
77.0842
77.1606
77.2371
77.3135
77.3899
77.4663
77.5428
77.6192
77.6956
77.772
77.8485
77.9249
78.0013
78.0777
78.1542
78.2306
78.307
78.3834
78.4598
78.5362
78.6127
78.6891
78.7655
78.8419
78.9183
78.9947
79.0711
79.1475
79.2239
79.3003
79.3767
79.4532
79.5296
79.606
79.6824
79.7588
79.8352
79.9116
79.9879
80.0643
80.1407
80.2171
80.2935
80.3699
80.4463
80.5227
80.5991
80.6755
80.7519
80.8282
80.9046
80.981
81.0574
81.1338
81.2102
81.2865
81.3629
81.4393
81.5157
81.5921
81.6684
81.7448
81.8212
81.8975
81.9739
82.0503
82.1267
82.203
82.2794
82.3558
82.4321
82.5085
82.5848
82.6612
82.7376
82.8139
82.8903
82.9666
83.043
83.1194
83.1957
83.2721
83.3484
83.4248
83.5011
83.5775
83.6538
83.7302
83.8065
83.8829
83.9592
84.0356
84.1119
84.1882
84.2646
84.3409
84.4173
84.4936
84.5699
84.6463
84.7226
84.7989
84.8753
84.9516
85.0279
85.1043
85.1806
85.2569
85.3332
85.4096
85.4859
85.5622
85.6385
85.7149
85.7912
85.8675
85.9438
86.0201
86.0964
86.1728
86.2491
86.3254
86.4017
86.478
86.5543
86.6306
86.7069
86.7832
86.8595
86.9358
87.0122
87.0885
87.1648
87.2411
87.3174
87.3937
87.47
87.5462
87.6225
87.6988
87.7751
87.8514
87.9277
88.004
88.0803
88.1566
88.2329
88.3092
88.3854
88.4617
88.538
88.6143
88.6906
88.7668
88.8431
88.9194
88.9957
89.072
89.1482
89.2245
89.3008
89.377
89.4533
89.5296
89.6058
89.6821
89.7584
89.8346
89.9109
89.9872
90.0634
90.1397
90.2159
90.2922
90.3685
90.4447
90.521
90.5972
90.6735
90.7497
90.826
90.9022
90.9785
91.0547
91.131
91.2072
91.2835
91.3597
91.4359
91.5122
91.5884
91.6647
91.7409
91.8171
91.8934
91.9696
92.0458
92.1221
92.1983
92.2745
92.3508
92.427
92.5032
92.5794
92.6557
92.7319
92.8081
92.8843
92.9606
93.0368
93.113
93.1892
93.2654
93.3416
93.4179
93.4941
93.5703
93.6465
93.7227
93.7989
93.8751
93.9513
94.0275
94.1037
94.1799
94.2561
94.3323
94.4085
94.4847
94.5609
94.6371
94.7133
94.7895
94.8657
94.9419
95.0181
95.0943
95.1705
95.2467
95.3228
95.399
95.4752
95.5514
95.6276
95.7037
95.7799
95.8561
95.9323
96.0084
96.0846
96.1608
96.237
96.3131
96.3893
96.4655
96.5416
96.6178
96.694
96.7702
96.8463
96.9225
96.9986
97.0748
97.151
97.2271
97.3033
97.3794
97.4556
97.5317
97.6079
97.6841
97.7602
97.8363
97.9125
97.9886
98.0648
98.1409
98.2171
98.2932
98.3693
98.4455
98.5216
98.5978
98.6739
98.75
98.8262
98.9023
98.9784
99.0545
99.1307
99.2068
99.2829
99.3591
99.4352
99.5113
99.5874
99.6636
99.7397
99.8158
99.8919
99.968
100.044
100.12
100.196
100.273
100.349
100.425
100.501
100.577
100.653
100.729
100.805
100.881
100.957
101.034
101.11
101.186
101.262
101.338
101.414
101.49
101.566
101.642
101.718
101.794
101.871
101.947
102.023
102.099
102.175
102.251
102.327
102.403
102.479
102.555
102.631
102.707
102.784
102.86
102.936
103.012
103.088
103.164
103.24
103.316
103.392
103.468
103.544
103.62
103.696
103.772
103.848
103.924
104.001
104.077
104.153
104.229
104.305
104.381
104.457
104.533
104.609
104.685
104.761
104.837
104.913
104.989
105.065
105.141
105.217
105.293
105.369
105.445
105.521
105.597
105.673
105.749
105.825
105.902
105.977
106.054
106.13
106.206
106.282
106.358
106.434
106.51
106.586
106.662
106.738
106.814
106.89
106.966
107.042
107.118
107.194
107.27
107.346
107.422
107.498
107.574
107.65
107.726
107.802
107.878
107.954
108.03
108.106
108.182
108.258
108.334
108.41
108.486
108.562
108.638
108.714
108.789
108.865
108.941
109.017
109.093
109.169
109.245
109.321
109.397
109.473
109.549
109.625
109.701
109.777
109.853
109.929
110.005
110.081
110.157
110.233
110.309
110.385
110.461
110.537
110.613
110.689
110.765
110.84
110.916
110.992
111.068
111.144
111.22
111.296
111.372
111.448
111.524
111.6
111.676
111.752
111.828
111.904
111.979
112.055
112.131
112.207
112.283
112.359
112.435
112.511
112.587
112.663
112.739
112.814
112.89
112.966
113.042
113.118
113.194
113.27
113.346
113.422
113.498
113.574
113.649
113.725
113.801
113.877
113.953
114.029
114.105
114.181
114.257
114.332
114.408
114.484
114.56
114.636
114.712
114.788
114.864
114.939
115.015
115.091
115.167
115.243
115.319
115.395
115.471
115.546
115.622
115.698
115.774
115.85
115.926
116.002
116.077
116.153
116.229
116.305
116.381
116.457
116.533
116.608
116.684
116.76
116.836
116.912
116.988
117.063
117.139
117.215
117.291
117.367
117.443
117.518
117.594
117.67
117.746
117.822
117.898
117.973
118.049
118.125
118.201
118.277
118.353
118.428
118.504
118.58
118.656
118.732
118.807
118.883
118.959
119.035
119.111
119.186
119.262
119.338
119.414
119.49
119.565
119.641
119.717
119.793
119.869
119.944
120.02
120.096
120.172
120.247
120.323
120.399
120.475
120.551
120.626
120.702
120.778
120.854
120.929
121.005
121.081
121.157
121.232
121.308
121.384
121.46
121.536
121.611
121.687
121.763
121.839
121.914
121.99
122.066
122.142
122.217
122.293
122.369
122.445
122.52
122.596
122.672
122.747
122.823
122.899
122.975
123.05
123.126
123.202
123.278
123.353
123.429
123.505
123.58
123.656
123.732
123.808
123.883
123.959
124.035
124.111
124.186
124.262
124.338
124.413
124.489
124.565
124.64
124.716
124.792
124.868
124.943
125.019
125.095
125.17
125.246
125.322
125.397
125.473
125.549
125.624
125.7
125.776
125.851
125.927
126.003
126.078
126.154
126.23
126.306
126.381
126.457
126.533
126.608
126.684
126.76
126.835
126.911
126.986
127.062
127.138
127.213
127.289
127.365
127.44
127.516
127.592
127.667
127.743
127.819
127.894
127.97
128.046
128.121
128.197
128.272
128.348
128.424
128.499
128.575
128.651
128.726
128.802
128.877
128.953
129.029
129.104
129.18
129.256
129.331
129.407
129.482
129.558
129.634
129.709
129.785
129.86
129.936
130.012
130.087
130.163
130.238
130.314
130.39
130.465
130.541
130.616
130.692
130.768
130.843
130.919
130.994
131.07
131.145
131.221
131.297
131.372
131.448
131.523
131.599
131.675
131.75
131.826
131.901
131.977
132.052
132.128
132.203
132.279
132.355
132.43
132.506
132.581
132.657
132.732
132.808
132.883
132.959
133.034
133.11
133.186
133.261
133.337
133.412
133.488
133.563
133.639
133.714
133.79
133.865
133.941
134.016
134.092
134.167
134.243
134.318
134.394
134.47
134.545
134.621
134.696
134.772
134.847
134.923
134.998
135.074
135.149
135.225
135.3
135.376
135.451
135.527
135.602
135.678
135.753
135.829
135.904
135.979
136.055
136.13
136.206
136.281
136.357
136.432
136.508
136.583
136.659
136.734
136.81
136.885
136.961
137.036
137.112
137.187
137.262
137.338
137.413
137.489
137.564
137.64
137.715
137.791
137.866
137.942
138.017
138.092
138.168
138.243
138.319
138.394
138.47
138.545
138.62
138.696
138.771
138.847
138.922
138.998
139.073
139.148
139.224
139.299
139.375
139.45
139.526
139.601
139.676
139.752
139.827
139.903
139.978
140.053
140.129
140.204
140.28
140.355
140.43
140.506
140.581
140.656
140.732
140.807
140.883
140.958
141.033
141.109
141.184
141.26
141.335
141.41
141.486
141.561
141.636
141.712
141.787
141.863
141.938
142.013
142.089
142.164
142.239
142.315
142.39
142.465
142.541
142.616
142.691
142.767
142.842
142.917
142.993
143.068
143.143
143.219
143.294
143.369
143.445
143.52
143.595
143.671
143.746
143.821
143.897
143.972
144.047
144.123
144.198
144.273
144.349
144.424
144.499
144.575
144.65
144.725
144.8
144.876
144.951
145.026
145.102
145.177
145.252
145.328
145.403
145.478
145.553
145.629
145.704
145.779
145.855
145.93
146.005
146.08
146.156
146.231
146.306
146.381
146.457
146.532
146.607
146.682
146.758
146.833
146.908
146.984
147.059
147.134
147.209
147.285
147.36
147.435
147.51
147.585
147.661
147.736
147.811
147.886
147.962
148.037
148.112
148.187
148.263
148.338
148.413
148.488
148.563
148.639
148.714
148.789
148.864
148.94
149.015
149.09
149.165
149.24
149.316
149.391
149.466
149.541
149.616
149.692
149.767
149.842
149.917
149.992
150.068
150.143
150.218
150.293
150.368
150.443
150.519
150.594
150.669
150.744
150.819
150.895
150.97
151.045
151.12
151.195
151.27
151.346
151.421
151.496
151.571
151.646
151.721
151.796
151.872
151.947
152.022
152.097
152.172
152.247
152.322
152.398
152.473
152.548
152.623
152.698
152.773
152.848
152.923
152.999
153.074
153.149
153.224
153.299
153.374
153.449
153.524
153.6
153.675
153.75
153.825
153.9
153.975
154.05
154.125
154.2
154.275
154.351
154.426
154.501
154.576
154.651
154.726
154.801
154.876
154.951
155.026
155.101
155.176
155.251
155.327
155.402
155.477
155.552
155.627
155.702
155.777
155.852
155.927
156.002
156.077
156.152
156.227
156.302
156.377
156.452
156.527
156.602
156.678
156.753
156.828
156.903
156.978
157.053
157.128
157.203
157.278
157.353
157.428
157.503
157.578
157.653
157.728
157.803
157.878
157.953
158.028
158.103
158.178
158.253
158.328
158.403
158.478
158.553
158.628
158.703
158.778
158.853
158.928
159.003
159.078
159.153
159.228
159.303
159.378
159.453
159.528
159.603
159.678
159.753
159.828
159.903
159.978
160.052
160.127
160.202
160.277
160.352
160.427
160.502
160.577
160.652
160.727
160.802
160.877
160.952
161.027
161.102
161.177
161.252
161.327
161.401
161.476
161.551
161.626
161.701
161.776
161.851
161.926
162.001
162.076
162.151
162.226
162.3
162.375
162.45
162.525
162.6
162.675
162.75
162.825
162.9
162.975
163.049
163.124
163.199
163.274
163.349
163.424
163.499
163.574
163.649
163.723
163.798
163.873
163.948
164.023
164.098
164.173
164.247
164.322
164.397
164.472
164.547
164.622
164.697
164.771
164.846
164.921
164.996
165.071
165.146
165.221
165.295
165.37
165.445
165.52
165.595
165.669
165.744
165.819
165.894
165.969
166.044
166.118
166.193
166.268
166.343
166.418
166.492
166.567
166.642
166.717
166.792
166.866
166.941
167.016
167.091
167.166
167.24
167.315
167.39
167.465
167.54
167.614
167.689
167.764
167.839
167.913
167.988
168.063
168.138
168.213
168.287
168.362
168.437
168.512
168.586
168.661
168.736
168.811
168.885
168.96
169.035
169.11
169.184
169.259
169.334
169.408
169.483
169.558
169.633
169.707
169.782
169.857
169.932
170.006
170.081
170.156
170.23
170.305
170.38
170.455
170.529
170.604
170.679
170.753
170.828
170.903
170.977
171.052
171.127
171.202
171.276
171.351
171.426
171.5
171.575
171.65
171.724
171.799
171.874
171.948
172.023
172.098
172.172
172.247
172.322
172.396
172.471
172.546
172.62
172.695
172.77
172.844
172.919
172.994
173.068
173.143
173.217
173.292
173.367
173.441
173.516
173.591
173.665
173.74
173.815
173.889
173.964
174.038
174.113
174.188
174.262
174.337
174.411
174.486
174.561
174.635
174.71
174.784
174.859
174.934
175.008
175.083
175.157
175.232
175.307
175.381
175.456
175.53
175.605
175.68
175.754
175.829
175.903
175.978
176.052
176.127
176.201
176.276
176.351
176.425
176.5
176.574
176.649
176.723
176.798
176.872
176.947
177.022
177.096
177.171
177.245
177.32
177.394
177.469
177.543
177.618
177.692
177.767
177.841
177.916
177.99
178.065
178.139
178.214
178.288
178.363
178.437
178.512
178.586
178.661
178.735
178.81
178.884
178.959
179.033
179.108
179.182
179.257
179.331
179.406
179.48
179.555
179.629
179.704
179.778
179.853
179.927
180.002
180.076
180.151
180.225
180.299
180.374
180.448
180.523
180.597
180.672
180.746
180.821
180.895
180.969
181.044
181.118
181.193
181.267
181.342
181.416
181.49
181.565
181.639
181.714
181.788
181.863
181.937
182.011
182.086
182.16
182.235
182.309
182.383
182.458
182.532
182.607
182.681
182.755
182.83
182.904
182.979
183.053
183.127
183.202
183.276
183.35
183.425
183.499
183.574
183.648
183.722
183.797
183.871
183.945
184.02
184.094
184.168
184.243
184.317
184.391
184.466
184.54
184.614
184.689
184.763
184.837
184.912
184.986
185.06
185.135
185.209
185.283
185.358
185.432
185.506
185.581
185.655
185.729
185.804
185.878
185.952
186.027
186.101
186.175
186.249
186.324
186.398
186.472
186.547
186.621
186.695
186.769
186.844
186.918
186.992
187.067
187.141
187.215
187.289
187.364
187.438
187.512
187.586
187.661
187.735
187.809
187.883
187.958
188.032
188.106
188.18
188.255
188.329
188.403
188.477
188.552
188.626
188.7
188.774
188.848
188.923
188.997
189.071
189.145
189.22
189.294
189.368
189.442
189.516
189.591
189.665
189.739
189.813
189.887
189.962
190.036
190.11
190.184
190.258
190.332
190.407
190.481
190.555
190.629
190.703
190.778
190.852
190.926
191
191.074
191.148
191.222
191.297
191.371
191.445
191.519
191.593
191.667
191.742
191.816
191.89
191.964
192.038
192.112
192.186
192.26
192.335
192.409
192.483
192.557
192.631
192.705
192.779
192.853
192.928
193.002
193.076
193.15
193.224
193.298
193.372
193.446
193.52
193.594
193.668
193.743
193.817
193.891
193.965
194.039
194.113
194.187
194.261
194.335
194.409
194.483
194.557
194.631
194.705
194.78
194.854
194.928
195.002
195.076
195.15
195.224
195.298
195.372
195.446
195.52
195.594
195.668
195.742
195.816
195.89
195.964
196.038
196.112
196.186
196.26
196.334
196.408
196.482
196.556
196.63
196.704
196.778
196.852
196.926
197
197.074
197.148
197.222
197.296
197.37
197.444
197.518
197.592
197.666
197.74
197.814
197.888
197.962
198.036
198.11
198.184
198.258
198.332
198.406
198.48
198.554
198.627
198.701
198.775
198.849
198.923
198.997
199.071
199.145
199.219
199.293
199.367
199.441
199.515
199.589
199.662
199.736
199.81
199.884
199.958
200.032
200.106
200.18
200.254
200.328
200.401
200.475
200.549
200.623
200.697
200.771
200.845
200.919
200.993
201.066
201.14
201.214
201.288
201.362
201.436
201.51
201.583
201.657
201.731
201.805
201.879
201.953
202.027
202.1
202.174
202.248
202.322
202.396
202.47
202.543
202.617
202.691
202.765
202.839
202.912
202.986
203.06
203.134
203.208
203.282
203.355
203.429
203.503
203.577
203.651
203.724
203.798
203.872
203.946
204.019
204.093
204.167
204.241
204.315
204.388
204.462
204.536
204.61
204.683
204.757
204.831
204.905
204.978
205.052
205.126
205.2
205.273
205.347
205.421
205.495
205.568
205.642
205.716
205.79
205.863
205.937
206.011
206.084
206.158
206.232
206.306
206.379
206.453
206.527
206.6
206.674
206.748
206.822
206.895
206.969
207.043
207.116
207.19
207.264
207.337
207.411
207.485
207.558
207.632
207.706
207.779
207.853
207.927
208
208.074
208.148
208.221
208.295
208.369
208.442
208.516
208.59
208.663
208.737
208.811
208.884
208.958
209.031
209.105
209.179
209.252
209.326
209.4
209.473
209.547
209.62
209.694
209.768
209.841
209.915
209.988
210.062
210.136
210.209
210.283
210.356
210.43
210.504
210.577
210.651
210.724
210.798
210.871
210.945
211.019
211.092
211.166
211.239
211.313
211.386
211.46
211.533
211.607
211.681
211.754
211.828
211.901
211.975
212.048
212.122
212.195
212.269
212.342
212.416
212.489
212.563
212.636
212.71
212.784
212.857
212.931
213.004
213.078
213.151
213.225
213.298
213.372
213.445
213.519
213.592
213.665
213.739
213.812
213.886
213.959
214.033
214.106
214.18
214.253
214.327
214.4
214.474
214.547
214.621
214.694
214.767
214.841
214.914
214.988
215.061
215.135
215.208
215.282
215.355
215.428
215.502
215.575
215.649
215.722
215.795
215.869
215.942
216.016
216.089
216.163
216.236
216.309
216.383
216.456
216.53
216.603
216.676
216.75
216.823
216.896
216.97
217.043
217.117
217.19
217.263
217.337
217.41
217.483
217.557
217.63
217.703
217.777
217.85
217.924
217.997
218.07
218.144
218.217
218.29
218.364
218.437
218.51
218.584
218.657
218.73
218.804
218.877
218.95
219.023
219.097
219.17
219.243
219.317
219.39
219.463
219.537
219.61
219.683
219.756
219.83
219.903
219.976
220.05
220.123
220.196
220.269
220.343
220.416
220.489
220.562
220.636
220.709
220.782
220.855
220.929
221.002
221.075
221.148
221.222
221.295
221.368
221.441
221.515
221.588
221.661
221.734
221.807
221.881
221.954
222.027
222.1
222.174
222.247
222.32
222.393
222.466
222.54
222.613
222.686
222.759
222.832
222.905
222.979
223.052
223.125
223.198
223.271
223.345
223.418
223.491
223.564
223.637
223.71
223.783
223.857
223.93
224.003
224.076
224.149
224.222
224.296
224.369
224.442
224.515
224.588
224.661
224.734
224.807
224.881
224.954
225.027
225.1
225.173
225.246
225.319
225.392
225.465
225.538
225.612
225.685
225.758
225.831
225.904
225.977
226.05
226.123
226.196
226.269
226.342
226.415
226.488
226.562
226.635
226.708
226.781
226.854
226.927
227
227.073
227.146
227.219
227.292
227.365
227.438
227.511
227.584
227.657
227.73
227.803
227.876
227.949
228.022
228.095
228.168
228.241
228.314
228.387
228.46
228.533
228.606
228.679
228.752
228.825
228.898
228.971
229.044
229.117
229.19
229.263
229.336
229.409
229.482
229.555
229.628
229.701
229.774
229.847
229.92
229.992
230.065
230.138
230.211
230.284
230.357
230.43
230.503
230.576
230.649
230.722
230.795
230.868
230.941
231.013
231.086
231.159
231.232
231.305
231.378
231.451
231.524
231.597
231.669
231.742
231.815
231.888
231.961
232.034
232.107
232.18
232.252
232.325
232.398
232.471
232.544
232.617
232.69
232.762
232.835
232.908
232.981
233.054
233.127
233.199
233.272
233.345
233.418
233.491
233.564
233.636
233.709
233.782
233.855
233.928
234
234.073
234.146
234.219
234.292
234.364
234.437
234.51
234.583
234.655
234.728
234.801
234.874
234.947
235.019
235.092
235.165
235.238
235.31
235.383
235.456
235.529
235.601
235.674
235.747
235.82
235.892
235.965
236.038
236.111
236.183
236.256
236.329
236.401
236.474
236.547
236.62
236.692
236.765
236.838
236.91
236.983
237.056
237.128
237.201
237.274
237.346
237.419
237.492
237.565
237.637
237.71
237.783
237.855
237.928
238
238.073
238.146
238.218
238.291
238.364
238.436
238.509
238.582
238.654
238.727
238.8
238.872
238.945
239.017
239.09
239.163
239.235
239.308
239.381
239.453
239.526
239.598
239.671
239.744
239.816
239.889
239.961
240.034
240.106
240.179
240.252
240.324
240.397
240.469
240.542
240.614
240.687
240.76
240.832
240.905
240.977
241.05
241.122
241.195
241.267
241.34
241.412
241.485
241.558
241.63
241.703
241.775
241.848
241.92
241.993
242.065
242.138
242.21
242.283
242.355
242.428
242.5
242.573
242.645
242.718
242.79
242.863
242.935
243.008
243.08
243.153
243.225
243.297
243.37
243.442
243.515
243.587
243.66
243.732
243.805
243.877
243.95
244.022
244.094
244.167
244.239
244.312
244.384
244.457
244.529
244.601
244.674
244.746
244.819
244.891
244.963
245.036
245.108
245.181
245.253
245.325
245.398
245.47
245.543
245.615
245.687
245.76
245.832
245.904
245.977
246.049
246.121
246.194
246.266
246.339
246.411
246.483
246.556
246.628
246.7
246.773
246.845
246.917
246.99
247.062
247.134
247.207
247.279
247.351
247.423
247.496
247.568
247.64
247.713
247.785
247.857
247.93
248.002
248.074
248.146
248.219
248.291
248.363
248.436
248.508
248.58
248.652
248.725
248.797
248.869
248.941
249.014
249.086
249.158
249.23
249.303
249.375
249.447
249.519
249.591
249.664
249.736
249.808
249.88
249.953
250.025
250.097
250.169
250.241
250.314
250.386
250.458
250.53
250.602
250.675
250.747
250.819
250.891
250.963
251.035
251.108
251.18
251.252
251.324
251.396
251.468
251.541
251.613
251.685
251.757
251.829
251.901
251.973
252.046
252.118
252.19
252.262
252.334
252.406
252.478
252.55
252.623
252.695
252.767
252.839
252.911
252.983
253.055
253.127
253.199
253.271
253.343
253.416
253.488
253.56
253.632
253.704
253.776
253.848
253.92
253.992
254.064
254.136
254.208
254.28
254.352
254.424
254.496
254.568
254.64
254.712
254.784
254.856
254.929
255.001
255.073
255.145
255.217
255.289
255.361
255.433
255.505
255.577
255.649
255.721
255.793
255.864
255.936
256.008
256.08
256.152
256.224
256.296
256.368
256.44
256.512
256.584
256.656
256.728
256.8
256.872
256.944
257.016
257.088
257.16
257.232
257.304
257.375
257.447
257.519
257.591
257.663
257.735
257.807
257.879
257.951
258.023
258.094
258.166
258.238
258.31
258.382
258.454
258.526
258.598
258.67
258.741
258.813
258.885
258.957
259.029
259.101
259.173
259.244
259.316
259.388
259.46
259.532
259.604
259.675
259.747
259.819
259.891
259.963
260.034
260.106
260.178
260.25
260.322
260.393
260.465
260.537
260.609
260.681
260.752
260.824
260.896
260.968
261.04
261.111
261.183
261.255
261.327
261.398
261.47
261.542
261.614
261.685
261.757
261.829
261.901
261.972
262.044
262.116
262.187
262.259
262.331
262.403
262.474
262.546
262.618
262.689
262.761
262.833
262.905
262.976
263.048
263.12
263.191
263.263
263.335
263.406
263.478
263.55
263.621
263.693
263.765
263.836
263.908
263.98
264.051
264.123
264.195
264.266
264.338
264.409
264.481
264.553
264.624
264.696
264.768
264.839
264.911
264.982
265.054
265.126
265.197
265.269
265.34
265.412
265.484
265.555
265.627
265.698
265.77
265.841
265.913
265.985
266.056
266.128
266.199
266.271
266.342
266.414
266.485
266.557
266.629
266.7
266.772
266.843
266.915
266.986
267.058
267.129
267.201
267.272
267.344
267.415
267.487
267.558
267.63
267.701
267.773
267.844
267.916
267.987
268.059
268.13
268.202
268.273
268.344
268.416
268.487
268.559
268.63
268.702
268.773
268.845
268.916
268.988
269.059
269.13
269.202
269.273
269.345
269.416
269.487
269.559
269.63
269.702
269.773
269.845
269.916
269.987
270.059
270.13
270.201
270.273
270.344
270.416
270.487
270.558
270.63
270.701
270.772
270.844
270.915
270.986
271.058
271.129
271.2
271.272
271.343
271.414
271.486
271.557
271.628
271.7
271.771
271.842
271.914
271.985
272.056
272.128
272.199
272.27
272.341
272.413
272.484
272.555
272.627
272.698
272.769
272.84
272.912
272.983
273.054
273.125
273.197
273.268
273.339
273.41
273.482
273.553
273.624
273.695
273.767
273.838
273.909
273.98
274.051
274.123
274.194
274.265
274.336
274.407
274.479
274.55
274.621
274.692
274.763
274.835
274.906
274.977
275.048
275.119
275.19
275.262
275.333
275.404
275.475
275.546
275.617
275.688
275.76
275.831
275.902
275.973
276.044
276.115
276.186
276.257
276.328
276.4
276.471
276.542
276.613
276.684
276.755
276.826
276.897
276.968
277.039
277.11
277.181
277.253
277.324
277.395
277.466
277.537
277.608
277.679
277.75
277.821
277.892
277.963
278.034
278.105
278.176
278.247
278.318
278.389
278.46
278.531
278.602
278.673
278.744
278.815
278.886
278.957
279.028
279.099
279.17
279.241
279.312
279.383
279.454
279.525
279.596
279.667
279.738
279.809
279.88
279.95
280.021
280.092
280.163
280.234
280.305
280.376
280.447
280.518
280.589
280.66
280.731
280.801
280.872
280.943
281.014
281.085
281.156
281.227
281.298
281.368
281.439
281.51
281.581
281.652
281.723
281.794
281.864
281.935
282.006
282.077
282.148
282.219
282.289
282.36
282.431
282.502
282.573
282.644
282.714
282.785
282.856
282.927
282.997
283.068
283.139
283.21
283.281
283.351
283.422
283.493
283.564
283.634
283.705
283.776
283.847
283.917
283.988
284.059
284.13
284.2
284.271
284.342
284.412
284.483
284.554
284.625