/*--------------------------------*- C++ -*----------------------------------*\
  =========                 |
  \\      /  F ield         | OpenFOAM: The Open Source CFD Toolbox
   \\    /   O peration     | Website:  https://openfoam.org
    \\  /    A nd           | Version:  9
     \\/     M anipulation  |
\*---------------------------------------------------------------------------*/
FoamFile
{
    format      ascii;
    class       volVectorField;
    location    "0.045";
    object      ddtCorrDdt0(rho,U);
}
// * * * * * * * * * * * * * * * * * * * * * * * * * * * * * * * * * * * * * //

dimensions      [1 -2 -2 0 0 0 0];

internalField   nonuniform List<vector> 
1000
(
(-49.9499 0 0)
(-53.3329 0 0)
(-57.365 0 0)
(-60.5715 0 0)
(-63.436 0 0)
(-66.3271 0 0)
(-69.29 0 0)
(-72.2805 0 0)
(-75.2799 0 0)
(-78.2869 0 0)
(-81.2917 0 0)
(-84.2829 0 0)
(-87.2632 0 0)
(-90.2482 0 0)
(-93.2478 0 0)
(-96.2546 0 0)
(-99.2513 0 0)
(-102.23 0 0)
(-105.202 0 0)
(-108.188 0 0)
(-111.201 0 0)
(-114.235 0 0)
(-117.268 0 0)
(-120.278 0 0)
(-123.258 0 0)
(-126.22 0 0)
(-129.191 0 0)
(-132.194 0 0)
(-135.235 0 0)
(-138.3 0 0)
(-141.36 0 0)
(-144.388 0 0)
(-147.37 0 0)
(-150.318 0 0)
(-153.259 0 0)
(-156.231 0 0)
(-159.26 0 0)
(-162.35 0 0)
(-165.481 0 0)
(-168.618 0 0)
(-171.722 0 0)
(-174.762 0 0)
(-177.731 0 0)
(-180.656 0 0)
(-183.58 0 0)
(-186.539 0 0)
(-189.561 0 0)
(-192.661 0 0)
(-195.828 0 0)
(-199.032 0 0)
(-202.248 0 0)
(-205.46 0 0)
(-208.653 0 0)
(-211.805 0 0)
(-214.9 0 0)
(-217.936 0 0)
(-220.913 0 0)
(-223.842 0 0)
(-226.76 0 0)
(-229.704 0 0)
(-232.697 0 0)
(-235.748 0 0)
(-238.853 0 0)
(-242.015 0 0)
(-245.268 0 0)
(-248.636 0 0)
(-252.117 0 0)
(-255.693 0 0)
(-259.294 0 0)
(-262.839 0 0)
(-266.335 0 0)
(-269.799 0 0)
(-273.231 0 0)
(-276.707 0 0)
(-280.247 0 0)
(-283.709 0 0)
(-287.041 0 0)
(-290.389 0 0)
(-293.745 0 0)
(-297.09 0 0)
(-300.589 0 0)
(-304.287 0 0)
(-307.781 0 0)
(-311.289 0 0)
(-315.42 0 0)
(-318.918 0 0)
(-322.772 0 0)
(-326.084 0 0)
(-329.032 0 0)
(-332.356 0 0)
(-336.31 0 0)
(-339.98 0 0)
(-343.179 0 0)
(-346.692 0 0)
(-350.619 0 0)
(-353.981 0 0)
(-357.145 0 0)
(-360.748 0 0)
(-364.851 0 0)
(-368.307 0 0)
(-371.551 0 0)
(-375.096 0 0)
(-379.19 0 0)
(-382.712 0 0)
(-386.156 0 0)
(-389.774 0 0)
(-393.866 0 0)
(-397.499 0 0)
(-400.966 0 0)
(-404.531 0 0)
(-408.647 0 0)
(-412.465 0 0)
(-415.836 0 0)
(-419.669 0 0)
(-423.792 0 0)
(-428.294 0 0)
(-431.781 0 0)
(-435.422 0 0)
(-439.357 0 0)
(-443.907 0 0)
(-447.957 0 0)
(-451.315 0 0)
(-454.495 0 0)
(-457.833 0 0)
(-463.032 0 0)
(-468.864 0 0)
(-474.458 0 0)
(-480.093 0 0)
(-484.735 0 0)
(-489.074 0 0)
(-492.729 0 0)
(-496.903 0 0)
(-501.541 0 0)
(-505.694 0 0)
(-509.856 0 0)
(-514.209 0 0)
(-518.672 0 0)
(-523.158 0 0)
(-527.549 0 0)
(-532.159 0 0)
(-536.899 0 0)
(-541.605 0 0)
(-546.248 0 0)
(-550.787 0 0)
(-555.479 0 0)
(-560.436 0 0)
(-565.531 0 0)
(-570.423 0 0)
(-575.151 0 0)
(-580.086 0 0)
(-585.241 0 0)
(-590.288 0 0)
(-595.218 0 0)
(-600.247 0 0)
(-605.488 0 0)
(-610.8 0 0)
(-616.003 0 0)
(-621.124 0 0)
(-626.372 0 0)
(-631.797 0 0)
(-637.268 0 0)
(-642.591 0 0)
(-647.816 0 0)
(-653.181 0 0)
(-658.788 0 0)
(-664.439 0 0)
(-669.884 0 0)
(-675.242 0 0)
(-680.759 0 0)
(-686.511 0 0)
(-692.256 0 0)
(-697.82 0 0)
(-703.29 0 0)
(-708.917 0 0)
(-714.762 0 0)
(-720.632 0 0)
(-726.316 0 0)
(-731.872 0 0)
(-737.523 0 0)
(-743.397 0 0)
(-749.277 0 0)
(-754.969 0 0)
(-760.489 0 0)
(-766.131 0 0)
(-772.026 0 0)
(-777.966 0 0)
(-783.674 0 0)
(-789.125 0 0)
(-794.603 0 0)
(-800.331 0 0)
(-806.184 0 0)
(-811.864 0 0)
(-817.246 0 0)
(-822.557 0 0)
(-828.048 0 0)
(-833.729 0 0)
(-839.315 0 0)
(-844.594 0 0)
(-849.692 0 0)
(-854.84 0 0)
(-860.184 0 0)
(-865.505 0 0)
(-870.587 0 0)
(-875.403 0 0)
(-880.214 0 0)
(-885.182 0 0)
(-890.238 0 0)
(-895.039 0 0)
(-899.552 0 0)
(-903.918 0 0)
(-908.381 0 0)
(-913.017 0 0)
(-917.464 0 0)
(-921.678 0 0)
(-925.614 0 0)
(-929.606 0 0)
(-933.746 0 0)
(-937.876 0 0)
(-941.771 0 0)
(-945.317 0 0)
(-948.793 0 0)
(-952.368 0 0)
(-956.068 0 0)
(-959.635 0 0)
(-962.883 0 0)
(-965.889 0 0)
(-968.928 0 0)
(-972.126 0 0)
(-975.382 0 0)
(-978.389 0 0)
(-981.067 0 0)
(-983.62 0 0)
(-986.251 0 0)
(-989.097 0 0)
(-991.922 0 0)
(-994.44 0 0)
(-996.695 0 0)
(-998.875 0 0)
(-1001.21 0 0)
(-1003.76 0 0)
(-1006.25 0 0)
(-1008.39 0 0)
(-1010.29 0 0)
(-1012.13 0 0)
(-1014.23 0 0)
(-1016.53 0 0)
(-1018.73 0 0)
(-1020.61 0 0)
(-1022.22 0 0)
(-1023.91 0 0)
(-1025.85 0 0)
(-1027.97 0 0)
(-1029.96 0 0)
(-1031.62 0 0)
(-1033.1 0 0)
(-1034.67 0 0)
(-1036.51 0 0)
(-1038.5 0 0)
(-1040.34 0 0)
(-1041.89 0 0)
(-1043.3 0 0)
(-1044.8 0 0)
(-1046.55 0 0)
(-1048.44 0 0)
(-1050.16 0 0)
(-1051.62 0 0)
(-1052.99 0 0)
(-1054.47 0 0)
(-1056.19 0 0)
(-1058.03 0 0)
(-1059.74 0 0)
(-1061.19 0 0)
(-1062.51 0 0)
(-1063.94 0 0)
(-1065.63 0 0)
(-1067.46 0 0)
(-1069.16 0 0)
(-1070.62 0 0)
(-1071.89 0 0)
(-1073.24 0 0)
(-1074.89 0 0)
(-1076.78 0 0)
(-1078.6 0 0)
(-1080.1 0 0)
(-1081.35 0 0)
(-1082.64 0 0)
(-1084.19 0 0)
(-1086.04 0 0)
(-1087.92 0 0)
(-1089.53 0 0)
(-1090.81 0 0)
(-1092.04 0 0)
(-1093.54 0 0)
(-1095.33 0 0)
(-1097.21 0 0)
(-1098.93 0 0)
(-1100.34 0 0)
(-1101.6 0 0)
(-1102.99 0 0)
(-1104.71 0 0)
(-1106.58 0 0)
(-1108.31 0 0)
(-1109.81 0 0)
(-1111.15 0 0)
(-1112.53 0 0)
(-1114.16 0 0)
(-1115.99 0 0)
(-1117.83 0 0)
(-1119.42 0 0)
(-1120.78 0 0)
(-1122.11 0 0)
(-1123.63 0 0)
(-1125.44 0 0)
(-1127.38 0 0)
(-1129.15 0 0)
(-1130.55 0 0)
(-1131.76 0 0)
(-1133.16 0 0)
(-1134.91 0 0)
(-1136.89 0 0)
(-1138.82 0 0)
(-1140.42 0 0)
(-1141.69 0 0)
(-1142.91 0 0)
(-1144.48 0 0)
(-1146.39 0 0)
(-1148.37 0 0)
(-1150.16 0 0)
(-1151.69 0 0)
(-1153.02 0 0)
(-1154.37 0 0)
(-1156.02 0 0)
(-1157.97 0 0)
(-1159.89 0 0)
(-1161.57 0 0)
(-1163.03 0 0)
(-1164.41 0 0)
(-1165.91 0 0)
(-1167.72 0 0)
(-1169.74 0 0)
(-1171.57 0 0)
(-1173.06 0 0)
(-1174.4 0 0)
(-1175.87 0 0)
(-1177.59 0 0)
(-1179.58 0 0)
(-1181.62 0 0)
(-1183.36 0 0)
(-1184.72 0 0)
(-1186.01 0 0)
(-1187.55 0 0)
(-1189.37 0 0)
(-1191.4 0 0)
(-1193.46 0 0)
(-1195.22 0 0)
(-1196.57 0 0)
(-1197.83 0 0)
(-1199.37 0 0)
(-1201.26 0 0)
(-1203.3 0 0)
(-1205.29 0 0)
(-1207 0 0)
(-1208.41 0 0)
(-1209.8 0 0)
(-1211.49 0 0)
(-1213.45 0 0)
(-1215.44 0 0)
(-1217.27 0 0)
(-1218.9 0 0)
(-1220.35 0 0)
(-1221.8 0 0)
(-1223.57 0 0)
(-1225.67 0 0)
(-1227.78 0 0)
(-1229.55 0 0)
(-1231.02 0 0)
(-1232.39 0 0)
(-1233.9 0 0)
(-1235.73 0 0)
(-1237.86 0 0)
(-1240.05 0 0)
(-1241.93 0 0)
(-1243.41 0 0)
(-1244.73 0 0)
(-1246.21 0 0)
(-1248.05 0 0)
(-1250.13 0 0)
(-1252.28 0 0)
(-1254.22 0 0)
(-1255.82 0 0)
(-1257.21 0 0)
(-1258.72 0 0)
(-1260.58 0 0)
(-1262.67 0 0)
(-1264.74 0 0)
(-1266.58 0 0)
(-1268.16 0 0)
(-1269.62 0 0)
(-1271.23 0 0)
(-1273.15 0 0)
(-1275.33 0 0)
(-1277.5 0 0)
(-1279.35 0 0)
(-1280.85 0 0)
(-1282.23 0 0)
(-1283.78 0 0)
(-1285.68 0 0)
(-1287.87 0 0)
(-1290.13 0 0)
(-1292.16 0 0)
(-1293.8 0 0)
(-1295.19 0 0)
(-1296.64 0 0)
(-1298.45 0 0)
(-1300.57 0 0)
(-1302.78 0 0)
(-1304.82 0 0)
(-1306.57 0 0)
(-1308.12 0 0)
(-1309.67 0 0)
(-1311.44 0 0)
(-1313.51 0 0)
(-1315.75 0 0)
(-1317.82 0 0)
(-1319.54 0 0)
(-1320.98 0 0)
(-1322.47 0 0)
(-1324.27 0 0)
(-1326.44 0 0)
(-1328.78 0 0)
(-1330.99 0 0)
(-1332.86 0 0)
(-1334.36 0 0)
(-1335.77 0 0)
(-1337.4 0 0)
(-1339.38 0 0)
(-1341.62 0 0)
(-1343.89 0 0)
(-1345.99 0 0)
(-1347.75 0 0)
(-1349.27 0 0)
(-1350.84 0 0)
(-1352.73 0 0)
(-1354.96 0 0)
(-1357.22 0 0)
(-1359.21 0 0)
(-1360.89 0 0)
(-1362.46 0 0)
(-1364.13 0 0)
(-1366.04 0 0)
(-1368.21 0 0)
(-1370.54 0 0)
(-1372.78 0 0)
(-1374.69 0 0)
(-1376.23 0 0)
(-1377.68 0 0)
(-1379.34 0 0)
(-1381.4 0 0)
(-1383.73 0 0)
(-1386.08 0 0)
(-1388.18 0 0)
(-1389.95 0 0)
(-1391.57 0 0)
(-1393.24 0 0)
(-1395.21 0 0)
(-1397.42 0 0)
(-1399.7 0 0)
(-1401.82 0 0)
(-1403.62 0 0)
(-1405.22 0 0)
(-1406.83 0 0)
(-1408.73 0 0)
(-1410.96 0 0)
(-1413.4 0 0)
(-1415.73 0 0)
(-1417.75 0 0)
(-1419.43 0 0)
(-1420.96 0 0)
(-1422.59 0 0)
(-1424.53 0 0)
(-1426.82 0 0)
(-1429.23 0 0)
(-1431.5 0 0)
(-1433.42 0 0)
(-1435.12 0 0)
(-1436.82 0 0)
(-1438.74 0 0)
(-1440.91 0 0)
(-1443.25 0 0)
(-1445.52 0 0)
(-1447.57 0 0)
(-1449.33 0 0)
(-1450.94 0 0)
(-1452.65 0 0)
(-1454.7 0 0)
(-1457.06 0 0)
(-1459.54 0 0)
(-1461.87 0 0)
(-1463.87 0 0)
(-1465.65 0 0)
(-1467.25 0 0)
(-1469.07 0 0)
(-1471.09 0 0)
(-1473.46 0 0)
(-1475.83 0 0)
(-1478.04 0 0)
(-1479.97 0 0)
(-1481.64 0 0)
(-1483.44 0 0)
(-1485.45 0 0)
(-1487.82 0 0)
(-1490.31 0 0)
(-1492.68 0 0)
(-1494.74 0 0)
(-1496.53 0 0)
(-1498.13 0 0)
(-1499.97 0 0)
(-1501.96 0 0)
(-1504.37 0 0)
(-1506.79 0 0)
(-1509.12 0 0)
(-1511.27 0 0)
(-1513.01 0 0)
(-1514.96 0 0)
(-1516.74 0 0)
(-1519.03 0 0)
(-1521.36 0 0)
(-1523.72 0 0)
(-1526.16 0 0)
(-1527.89 0 0)
(-1529.95 0 0)
(-1531.36 0 0)
(-1533.53 0 0)
(-1535.7 0 0)
(-1538.23 0 0)
(-1541.02 0 0)
(-1542.94 0 0)
(-1545.37 0 0)
(-1546.57 0 0)
(-1548.87 0 0)
(-1550.63 0 0)
(-1553.1 0 0)
(-1555.82 0 0)
(-1557.63 0 0)
(-1560.58 0 0)
(-1561.49 0 0)
(-1564.22 0 0)
(-1565.46 0 0)
(-1567.88 0 0)
(-1570.66 0 0)
(-1572.3 0 0)
(-1576.21 0 0)
(-1576.62 0 0)
(-1580.32 0 0)
(-1580.55 0 0)
(-1583.5 0 0)
(-1585.4 0 0)
(-1587.36 0 0)
(-1591.15 0 0)
(-1591.68 0 0)
(-1595.99 0 0)
(-1595.69 0 0)
(-1599.47 0 0)
(-1600.22 0 0)
(-1603.01 0 0)
(-1605.97 0 0)
(-1607.22 0 0)
(-1611.6 0 0)
(-1611.41 0 0)
(-1615.55 0 0)
(-1615.72 0 0)
(-1618.63 0 0)
(-1621.06 0 0)
(-1622.49 0 0)
(-1626.85 0 0)
(-1627.09 0 0)
(-1631.34 0 0)
(-1631.6 0 0)
(-1634.56 0 0)
(-1636.39 0 0)
(-1638.31 0 0)
(-1642.01 0 0)
(-1643.14 0 0)
(-1647.28 0 0)
(-1647.75 0 0)
(-1651.14 0 0)
(-1651.95 0 0)
(-1654.77 0 0)
(-1656.97 0 0)
(-1659.28 0 0)
(-1662.73 0 0)
(-1663.73 0 0)
(-1667.8 0 0)
(-1667.54 0 0)
(-1671.9 0 0)
(-1672.01 0 0)
(-1675.98 0 0)
(-1677.91 0 0)
(-1680.38 0 0)
(-1683.93 0 0)
(-1684.55 0 0)
(-1688.6 0 0)
(-1688.59 0 0)
(-1692.58 0 0)
(-1693.63 0 0)
(-1697.19 0 0)
(-1699.68 0 0)
(-1701.8 0 0)
(-1705.13 0 0)
(-1705.59 0 0)
(-1709.55 0 0)
(-1710.02 0 0)
(-1713.99 0 0)
(-1716.2 0 0)
(-1718.47 0 0)
(-1722.61 0 0)
(-1722.46 0 0)
(-1727.48 0 0)
(-1727.22 0 0)
(-1731.03 0 0)
(-1733.86 0 0)
(-1734.86 0 0)
(-1740.44 0 0)
(-1740.19 0 0)
(-1744.65 0 0)
(-1746.34 0 0)
(-1747.86 0 0)
(-1752.04 0 0)
(-1752.51 0 0)
(-1757.63 0 0)
(-1758.44 0 0)
(-1763.02 0 0)
(-1764.74 0 0)
(-1766.84 0 0)
(-1770.96 0 0)
(-1770.66 0 0)
(-1776.42 0 0)
(-1777.09 0 0)
(-1781.4 0 0)
(-1784.61 0 0)
(-1786.3 0 0)
(-1790.67 0 0)
(-1791.04 0 0)
(-1795.62 0 0)
(-1797.07 0 0)
(-1800.65 0 0)
(-1804.94 0 0)
(-1806.12 0 0)
(-1811.75 0 0)
(-1812.17 0 0)
(-1815.93 0 0)
(-1818.95 0 0)
(-1820.61 0 0)
(-1825.91 0 0)
(-1828.07 0 0)
(-1832.17 0 0)
(-1835.61 0 0)
(-1838.08 0 0)
(-1841.03 0 0)
(-1844.61 0 0)
(-1847.07 0 0)
(-1851.67 0 0)
(-1855.49 0 0)
(-1858.43 0 0)
(-1863.35 0 0)
(-1865.13 0 0)
(-1869.07 0 0)
(-1872.59 0 0)
(-1875.67 0 0)
(-1880.61 0 0)
(-1884.27 0 0)
(-1888.52 0 0)
(-1892.08 0 0)
(-1895.88 0 0)
(-1899.02 0 0)
(-1903.05 0 0)
(-1907.48 0 0)
(-1911.17 0 0)
(-1916.68 0 0)
(-1920.35 0 0)
(-1924.25 0 0)
(-1929.05 0 0)
(-1931.98 0 0)
(-1936.43 0 0)
(-1941.66 0 0)
(-1945.48 0 0)
(-1950.53 0 0)
(-1955.88 0 0)
(-1959.29 0 0)
(-1963.77 0 0)
(-1968.69 0 0)
(-1972.6 0 0)
(-1977.51 0 0)
(-1982.92 0 0)
(-1988.09 0 0)
(-1992.2 0 0)
(-1997.25 0 0)
(-2002.56 0 0)
(-2005.46 0 0)
(-2011.34 0 0)
(-2017.43 0 0)
(-2020.53 0 0)
(-2027.26 0 0)
(-2032.96 0 0)
(-2035.35 0 0)
(-2041.77 0 0)
(-2046.85 0 0)
(-2049.97 0 0)
(-2056.68 0 0)
(-2062.81 0 0)
(-2065.69 0 0)
(-2072.44 0 0)
(-2077.24 0 0)
(-2080.36 0 0)
(-2085.51 0 0)
(-2092.39 0 0)
(-2094.5 0 0)
(-2101.77 0 0)
(-2106.65 0 0)
(-2110.92 0 0)
(-2113.66 0 0)
(-2121.43 0 0)
(-2122.23 0 0)
(-2128.62 0 0)
(-2132.97 0 0)
(-2139.28 0 0)
(-2140.06 0 0)
(-2148.33 0 0)
(-2149.42 0 0)
(-2153.53 0 0)
(-2156.89 0 0)
(-2162.9 0 0)
(-2164.16 0 0)
(-2169.33 0 0)
(-2173.82 0 0)
(-2176.86 0 0)
(-2178.71 0 0)
(-2181.75 0 0)
(-2184.85 0 0)
(-2187.55 0 0)
(-2191.47 0 0)
(-2194.86 0 0)
(-2197.13 0 0)
(-2198.73 0 0)
(-2201.68 0 0)
(-2203.55 0 0)
(-2205.29 0 0)
(-2207.15 0 0)
(-2209.74 0 0)
(-2211.46 0 0)
(-2213.67 0 0)
(-2214.86 0 0)
(-2216.61 0 0)
(-2217.34 0 0)
(-2218.62 0 0)
(-2219.6 0 0)
(-2221.48 0 0)
(-2222.41 0 0)
(-2223.89 0 0)
(-2224.3 0 0)
(-2225.45 0 0)
(-2225.42 0 0)
(-2226.48 0 0)
(-2226.52 0 0)
(-2227.91 0 0)
(-2228.27 0 0)
(-2229.36 0 0)
(-2229.47 0 0)
(-2230.42 0 0)
(-2230.19 0 0)
(-2230.99 0 0)
(-2230.69 0 0)
(-2231.64 0 0)
(-2231.73 0 0)
(-2232.85 0 0)
(-2232.95 0 0)
(-2233.89 0 0)
(-2233.67 0 0)
(-2234.49 0 0)
(-2234.23 0 0)
(-2235.2 0 0)
(-2235.25 0 0)
(-2236.42 0 0)
(-2236.7 0 0)
(-2237.88 0 0)
(-2238.05 0 0)
(-2239.14 0 0)
(-2239.19 0 0)
(-2240.33 0 0)
(-2240.58 0 0)
(-2241.93 0 0)
(-2242.49 0 0)
(-2243.98 0 0)
(-2244.6 0 0)
(-2246.06 0 0)
(-2246.58 0 0)
(-2248.05 0 0)
(-2248.68 0 0)
(-2250.32 0 0)
(-2251.25 0 0)
(-2253.06 0 0)
(-2254.14 0 0)
(-2255.99 0 0)
(-2257.04 0 0)
(-2258.9 0 0)
(-2259.99 0 0)
(-2261.95 0 0)
(-2263.24 0 0)
(-2265.35 0 0)
(-2266.82 0 0)
(-2269.02 0 0)
(-2270.52 0 0)
(-2272.73 0 0)
(-2274.23 0 0)
(-2276.5 0 0)
(-2278.14 0 0)
(-2280.54 0 0)
(-2282.4 0 0)
(-2284.92 0 0)
(-2286.89 0 0)
(-2289.46 0 0)
(-2291.44 0 0)
(-2294.05 0 0)
(-2296.1 0 0)
(-2298.8 0 0)
(-2301.02 0 0)
(-2303.86 0 0)
(-2306.24 0 0)
(-2309.18 0 0)
(-2311.64 0 0)
(-2314.66 0 0)
(-2317.23 0 0)
(-2320.39 0 0)
(-2323.18 0 0)
(-2326.54 0 0)
(-2329.64 0 0)
(-2333.24 0 0)
(-2336.61 0 0)
(-2340.42 0 0)
(-2344.05 0 0)
(-2348.1 0 0)
(-2352.06 0 0)
(-2356.43 0 0)
(-2360.85 0 0)
(-2365.62 0 0)
(-2370.56 0 0)
(-2375.72 0 0)
(-2381.17 0 0)
(-2386.75 0 0)
(-2392.73 0 0)
(-2398.78 0 0)
(-2405.38 0 0)
(-2411.95 0 0)
(-2419.24 0 0)
(-2426.33 0 0)
(-2434.27 0 0)
(-2441.83 0 0)
(-2450.34 0 0)
(-2458.33 0 0)
(-2467.33 0 0)
(-2475.67 0 0)
(-2485.11 0 0)
(-2493.73 0 0)
(-2503.48 0 0)
(-2512.26 0 0)
(-2522.14 0 0)
(-2530.93 0 0)
(-2540.71 0 0)
(-2549.34 0 0)
(-2558.82 0 0)
(-2567.13 0 0)
(-2576.12 0 0)
(-2583.98 0 0)
(-2592.32 0 0)
(-2599.59 0 0)
(-2607.07 0 0)
(-2613.62 0 0)
(-2620.09 0 0)
(-2625.82 0 0)
(-2631.18 0 0)
(-2636.06 0 0)
(-2640.3 0 0)
(-2644.35 0 0)
(-2647.52 0 0)
(-2650.8 0 0)
(-2652.99 0 0)
(-2655.57 0 0)
(-2656.89 0 0)
(-2658.87 0 0)
(-2659.45 0 0)
(-2660.94 0 0)
(-2660.96 0 0)
(-2662.12 0 0)
(-2661.69 0 0)
(-2662.53 0 0)
(-2661.88 0 0)
(-2662.76 0 0)
(-2661.99 0 0)
(-2662.63 0 0)
(-2661.72 0 0)
(-2662.52 0 0)
(-2661.84 0 0)
(-2662.62 0 0)
(-2661.85 0 0)
(-2662.77 0 0)
(-2662.31 0 0)
(-2663.32 0 0)
(-2662.87 0 0)
(-2664.01 0 0)
(-2663.91 0 0)
(-2665.25 0 0)
(-2665.21 0 0)
(-2666.58 0 0)
(-2666.75 0 0)
(-2668.32 0 0)
(-2668.65 0 0)
(-2670.28 0 0)
(-2670.73 0 0)
(-2672.5 0 0)
(-2673.14 0 0)
(-2674.99 0 0)
(-2675.72 0 0)
(-2677.67 0 0)
(-2678.58 0 0)
(-2680.63 0 0)
(-2681.62 0 0)
(-2683.73 0 0)
(-2684.81 0 0)
(-2687 0 0)
(-2688.18 0 0)
(-2690.43 0 0)
(-2691.7 0 0)
(-2694.03 0 0)
(-2695.41 0 0)
(-2697.8 0 0)
(-2699.25 0 0)
(-2701.69 0 0)
(-2703.22 0 0)
(-2705.72 0 0)
(-2707.31 0 0)
(-2709.86 0 0)
(-2711.52 0 0)
(-2714.13 0 0)
(-2715.86 0 0)
(-2718.51 0 0)
(-2720.3 0 0)
(-2723.01 0 0)
(-2724.87 0 0)
(-2727.62 0 0)
(-2729.52 0 0)
(-2732.3 0 0)
(-2734.26 0 0)
(-2737.08 0 0)
(-2739.09 0 0)
(-2741.96 0 0)
(-2744.03 0 0)
(-2746.94 0 0)
(-2749.06 0 0)
(-2752 0 0)
(-2754.16 0 0)
(-2757.14 0 0)
(-2759.34 0 0)
(-2762.35 0 0)
(-2764.6 0 0)
(-2767.64 0 0)
(-2769.94 0 0)
(-2773.02 0 0)
(-2775.35 0 0)
(-2778.46 0 0)
(-2780.83 0 0)
(-2783.97 0 0)
(-2786.37 0 0)
(-2789.54 0 0)
(-2791.98 0 0)
(-2795.17 0 0)
(-2797.63 0 0)
(-2800.85 0 0)
(-2803.35 0 0)
(-2806.6 0 0)
(-2809.14 0 0)
(-2812.42 0 0)
(-2815 0 0)
(-2818.31 0 0)
(-2820.92 0 0)
(-2824.25 0 0)
(-2826.89 0 0)
(-2830.24 0 0)
(-2832.9 0 0)
(-2836.27 0 0)
(-2838.95 0 0)
(-2842.35 0 0)
(-2845.06 0 0)
(-2848.48 0 0)
(-2851.23 0 0)
(-2854.67 0 0)
(-2857.45 0 0)
(-2860.95 0 0)
(-2863.66 0 0)
(-2867.42 0 0)
(-2871.59 0 0)
)
;

boundaryField
{
    sides
    {
        type            calculated;
        value           nonuniform List<vector> 2((-2871.59 0 0) (-49.9499 0 0));
    }
    empty
    {
        type            empty;
    }
}


// ************************************************************************* //
