/*--------------------------------*- C++ -*----------------------------------*\
  =========                 |
  \\      /  F ield         | OpenFOAM: The Open Source CFD Toolbox
   \\    /   O peration     | Website:  https://openfoam.org
    \\  /    A nd           | Version:  9
     \\/     M anipulation  |
\*---------------------------------------------------------------------------*/
FoamFile
{
    format      ascii;
    class       volScalarField;
    location    "0.045";
    object      rho_0;
}
// * * * * * * * * * * * * * * * * * * * * * * * * * * * * * * * * * * * * * //

dimensions      [1 -3 0 0 0 0 0];

internalField   nonuniform List<scalar> 
1000
(
0.199658
0.199631
0.199577
0.199527
0.199481
0.199436
0.199391
0.199346
0.1993
0.199254
0.199209
0.199164
0.199118
0.199073
0.199027
0.198982
0.198938
0.198893
0.198848
0.198803
0.198758
0.198713
0.198669
0.198625
0.198582
0.198537
0.198493
0.198448
0.198403
0.19836
0.198317
0.198275
0.198232
0.198189
0.198145
0.198101
0.198057
0.198013
0.197971
0.197929
0.197889
0.197848
0.197808
0.197766
0.197724
0.197681
0.197637
0.197593
0.19755
0.197508
0.197468
0.197429
0.197391
0.197355
0.197318
0.197282
0.197245
0.197206
0.197166
0.197125
0.197082
0.197039
0.196995
0.196952
0.196909
0.196868
0.196829
0.196792
0.196758
0.196726
0.196697
0.19667
0.196644
0.196621
0.196598
0.196576
0.196554
0.196534
0.196513
0.196494
0.196475
0.196457
0.19644
0.196425
0.196413
0.196401
0.196391
0.196383
0.196374
0.196362
0.196352
0.196345
0.196336
0.196325
0.196317
0.196311
0.196302
0.196293
0.196286
0.19628
0.196273
0.196264
0.196258
0.196254
0.196247
0.19624
0.196235
0.196232
0.196227
0.196221
0.196217
0.196214
0.196211
0.196207
0.196204
0.196202
0.196201
0.196198
0.196197
0.196196
0.196196
0.196196
0.196196
0.196196
0.196197
0.196199
0.196201
0.196204
0.196208
0.196212
0.196217
0.196222
0.196227
0.196234
0.19624
0.196247
0.196254
0.196263
0.196272
0.196281
0.19629
0.1963
0.196312
0.196323
0.196335
0.196347
0.196361
0.196376
0.19639
0.196405
0.196421
0.196438
0.196456
0.196474
0.196492
0.196512
0.196533
0.196555
0.196576
0.196599
0.196622
0.196647
0.196672
0.196698
0.196725
0.196753
0.196782
0.196811
0.196841
0.196872
0.196904
0.196938
0.196972
0.197006
0.197042
0.197079
0.197117
0.197156
0.197195
0.197235
0.197277
0.19732
0.197364
0.197408
0.197453
0.197499
0.197547
0.197596
0.197645
0.197695
0.197746
0.197799
0.197853
0.197907
0.197962
0.198018
0.198075
0.198134
0.198193
0.198252
0.198313
0.198375
0.198438
0.198502
0.198566
0.198631
0.198697
0.198765
0.198833
0.198902
0.19897
0.19904
0.199112
0.199184
0.199256
0.199329
0.199402
0.199476
0.199552
0.199628
0.199704
0.19978
0.199857
0.199935
0.200014
0.200093
0.200172
0.200251
0.200332
0.200413
0.200494
0.200576
0.200657
0.200739
0.200821
0.200905
0.200988
0.201071
0.201154
0.201238
0.201323
0.201408
0.201493
0.201577
0.201661
0.201747
0.201832
0.201919
0.202005
0.20209
0.202176
0.202262
0.202349
0.202436
0.202522
0.202609
0.202695
0.202782
0.202869
0.202957
0.203044
0.203131
0.203218
0.203305
0.203394
0.203482
0.203569
0.203657
0.203744
0.203832
0.203921
0.204009
0.204097
0.204185
0.204273
0.204361
0.20445
0.204539
0.204628
0.204716
0.204804
0.204892
0.204981
0.205071
0.20516
0.205249
0.205337
0.205425
0.205515
0.205605
0.205694
0.205783
0.205872
0.205961
0.20605
0.20614
0.20623
0.20632
0.206409
0.206498
0.206588
0.206678
0.206769
0.206859
0.206948
0.207038
0.207127
0.207218
0.207308
0.207399
0.207489
0.207579
0.207669
0.207759
0.20785
0.207941
0.208032
0.208122
0.208212
0.208302
0.208394
0.208485
0.208576
0.208667
0.208757
0.208848
0.208939
0.209031
0.209122
0.209214
0.209305
0.209395
0.209487
0.209578
0.20967
0.209762
0.209854
0.209945
0.210036
0.210128
0.21022
0.210313
0.210405
0.210496
0.210588
0.210679
0.210772
0.210865
0.210958
0.21105
0.211142
0.211233
0.211326
0.211418
0.211512
0.211605
0.211698
0.21179
0.211882
0.211975
0.212068
0.212161
0.212255
0.212348
0.21244
0.212533
0.212626
0.21272
0.212814
0.212907
0.213
0.213093
0.213187
0.213281
0.213375
0.213469
0.213563
0.213656
0.21375
0.213843
0.213938
0.214033
0.214127
0.214222
0.214315
0.214409
0.214503
0.214598
0.214693
0.214788
0.214882
0.214977
0.215071
0.215165
0.215261
0.215356
0.215451
0.215546
0.215641
0.215735
0.21583
0.215926
0.216022
0.216118
0.216213
0.216308
0.216403
0.216498
0.216594
0.21669
0.216787
0.216883
0.216978
0.217074
0.217169
0.217265
0.217362
0.217459
0.217555
0.217651
0.217747
0.217843
0.21794
0.218037
0.218134
0.218231
0.218327
0.218423
0.218519
0.218616
0.218714
0.218812
0.218909
0.219006
0.219103
0.219199
0.219296
0.219394
0.219492
0.21959
0.219688
0.219785
0.219882
0.21998
0.220078
0.220176
0.220274
0.220372
0.22047
0.220567
0.220665
0.220763
0.220862
0.220961
0.22106
0.221158
0.221256
0.221354
0.221452
0.221551
0.221651
0.22175
0.221849
0.221947
0.222046
0.222145
0.222244
0.222344
0.222443
0.222543
0.222642
0.222741
0.22284
0.222939
0.223039
0.22314
0.22324
0.22334
0.223439
0.223538
0.223638
0.223738
0.223838
0.223939
0.224039
0.224139
0.224239
0.224339
0.22444
0.224541
0.224642
0.224743
0.224843
0.224944
0.225044
0.225144
0.225245
0.225347
0.225448
0.22555
0.225651
0.225752
0.225853
0.225954
0.226055
0.226157
0.226259
0.226361
0.226462
0.226563
0.226665
0.226767
0.226869
0.226972
0.227074
0.227176
0.227278
0.22738
0.227481
0.227584
0.227686
0.227789
0.227892
0.227995
0.228097
0.228199
0.228302
0.228405
0.228508
0.228612
0.228715
0.228818
0.22892
0.229023
0.229125
0.22923
0.229333
0.229437
0.229541
0.229644
0.229748
0.22985
0.229955
0.230058
0.230163
0.230268
0.23037
0.230476
0.230577
0.230683
0.230786
0.230891
0.230997
0.231099
0.231207
0.231307
0.231416
0.231516
0.231625
0.231727
0.231833
0.231939
0.232042
0.23215
0.23225
0.23236
0.232461
0.232569
0.232675
0.232779
0.232887
0.232989
0.233098
0.2332
0.233308
0.233413
0.233519
0.233627
0.23373
0.233839
0.233941
0.23405
0.234155
0.234262
0.23437
0.234475
0.234584
0.234687
0.234797
0.234899
0.23501
0.235114
0.235223
0.23533
0.235435
0.235546
0.235648
0.235761
0.235862
0.235976
0.236079
0.23619
0.236296
0.236404
0.236512
0.236618
0.236729
0.236835
0.236945
0.237053
0.23716
0.237271
0.237375
0.237488
0.237593
0.237706
0.237813
0.237922
0.238033
0.238139
0.238252
0.238358
0.23847
0.238581
0.238688
0.238802
0.238909
0.239021
0.23913
0.23924
0.239353
0.239461
0.239577
0.239684
0.239799
0.239908
0.24002
0.240133
0.240243
0.240359
0.240469
0.240584
0.240697
0.240809
0.240924
0.241035
0.241152
0.241265
0.24138
0.241497
0.241609
0.241727
0.24184
0.241957
0.242074
0.24219
0.242308
0.242426
0.242544
0.242662
0.242781
0.242898
0.24302
0.243139
0.24326
0.243382
0.243502
0.243625
0.243746
0.24387
0.243994
0.244118
0.244244
0.244369
0.244496
0.244622
0.24475
0.244877
0.245006
0.245137
0.245267
0.245399
0.245531
0.245662
0.245796
0.24593
0.246065
0.246202
0.246339
0.246477
0.246616
0.246755
0.246895
0.247037
0.24718
0.247324
0.247468
0.247614
0.247761
0.247907
0.248056
0.248206
0.248355
0.248509
0.248662
0.248815
0.248971
0.249126
0.249283
0.249442
0.249602
0.24976
0.249925
0.250085
0.25025
0.250413
0.250581
0.250743
0.250917
0.25108
0.251255
0.251419
0.251599
0.25176
0.251945
0.252107
0.252296
0.252455
0.25265
0.252807
0.253004
0.253161
0.253362
0.253518
0.253722
0.253879
0.254083
0.25424
0.254444
0.254601
0.254806
0.254964
0.255171
0.255328
0.255534
0.255692
0.255897
0.256054
0.256259
0.256416
0.256621
0.256777
0.256981
0.257136
0.257339
0.257493
0.257694
0.257848
0.258048
0.258201
0.258399
0.25855
0.258747
0.258897
0.259092
0.25924
0.259433
0.25958
0.259771
0.259917
0.260106
0.260249
0.260437
0.260578
0.260764
0.260904
0.261087
0.261226
0.261407
0.261544
0.261722
0.261858
0.262034
0.262168
0.262343
0.262476
0.262648
0.262779
0.26295
0.263079
0.263248
0.263376
0.263543
0.26367
0.263836
0.263961
0.264125
0.264249
0.264411
0.264534
0.264695
0.264817
0.264976
0.265097
0.265255
0.265375
0.265532
0.265651
0.265807
0.265925
0.26608
0.266197
0.266351
0.266467
0.26662
0.266736
0.266888
0.267003
0.267154
0.267269
0.26742
0.267534
0.267684
0.267798
0.267948
0.268061
0.26821
0.268323
0.268472
0.268585
0.268734
0.268847
0.268995
0.269108
0.269256
0.269369
0.269518
0.269631
0.26978
0.269894
0.270044
0.270159
0.27031
0.270426
0.270578
0.270695
0.270849
0.270968
0.271125
0.271246
0.271405
0.271528
0.271691
0.271817
0.271984
0.272114
0.272286
0.272419
0.272596
0.272734
0.272917
0.273059
0.273248
0.273396
0.273591
0.273744
0.273946
0.274103
0.274312
0.274475
0.27469
0.274858
0.275079
0.275251
0.275478
0.275653
0.275885
0.276064
0.276299
0.276481
0.276719
0.276902
0.277142
0.277325
0.277566
0.277749
0.27799
0.278173
0.278412
0.278593
0.278831
0.279011
0.279245
0.279423
0.279655
0.279831
0.280059
0.280232
0.280457
0.280628
0.28085
0.281017
0.281236
0.281401
0.281616
0.281778
0.28199
0.28215
0.282359
0.282517
0.282723
0.282878
0.283081
0.283235
0.283435
0.283587
0.283785
0.283935
0.28413
0.284278
0.284472
0.284618
0.284809
0.284954
0.285143
0.285287
0.285474
0.285616
0.285801
0.285942
0.286125
0.286265
0.286447
0.286584
0.286765
0.286901
0.28708
0.287216
0.287393
0.287527
0.287703
0.287837
0.288011
0.288143
0.288316
0.288448
0.288619
0.28875
0.28892
0.289049
0.289219
0.289347
0.289515
0.289643
0.28981
0.289936
0.290102
0.290228
0.290393
0.290518
0.290681
0.290806
0.290968
0.291092
0.291253
0.291376
0.291537
0.291659
0.291818
0.29194
0.292098
0.292219
0.292377
0.292497
0.292654
0.292773
0.292929
0.293048
0.293203
0.293321
0.293475
0.293593
0.293746
0.293863
0.294016
0.294132
0.294284
0.2944
0.294551
0.294666
0.294817
0.294931
0.295081
0.295195
0.295344
0.295458
0.295606
0.295714
0.295871
0.295941
)
;

boundaryField
{
    sides
    {
        type            calculated;
        value           nonuniform List<scalar> 2(0.295941 0.199658);
    }
    empty
    {
        type            empty;
    }
}


// ************************************************************************* //
