/*--------------------------------*- C++ -*----------------------------------*\
  =========                 |
  \\      /  F ield         | OpenFOAM: The Open Source CFD Toolbox
   \\    /   O peration     | Website:  https://openfoam.org
    \\  /    A nd           | Version:  9
     \\/     M anipulation  |
\*---------------------------------------------------------------------------*/
FoamFile
{
    format      ascii;
    class       volScalarField;
    location    "0.021";
    object      ddt0(p);
}
// * * * * * * * * * * * * * * * * * * * * * * * * * * * * * * * * * * * * * //

dimensions      [1 -1 -3 0 0 0 0];

internalField   nonuniform List<scalar> 
10000
(
-3.60248e+06
-3.60245e+06
-3.60244e+06
-3.60242e+06
-3.60241e+06
-3.60239e+06
-3.60237e+06
-3.60236e+06
-3.60234e+06
-3.60233e+06
-3.60231e+06
-3.60229e+06
-3.60228e+06
-3.60226e+06
-3.60224e+06
-3.60223e+06
-3.60221e+06
-3.60219e+06
-3.60218e+06
-3.60216e+06
-3.60214e+06
-3.60213e+06
-3.60211e+06
-3.60209e+06
-3.60207e+06
-3.60206e+06
-3.60204e+06
-3.60202e+06
-3.602e+06
-3.60199e+06
-3.60197e+06
-3.60195e+06
-3.60193e+06
-3.60192e+06
-3.6019e+06
-3.60188e+06
-3.60186e+06
-3.60184e+06
-3.60183e+06
-3.60181e+06
-3.60179e+06
-3.60177e+06
-3.60175e+06
-3.60173e+06
-3.60172e+06
-3.6017e+06
-3.60168e+06
-3.60166e+06
-3.60164e+06
-3.60162e+06
-3.6016e+06
-3.60158e+06
-3.60157e+06
-3.60155e+06
-3.60153e+06
-3.60151e+06
-3.60149e+06
-3.60147e+06
-3.60145e+06
-3.60143e+06
-3.60141e+06
-3.60139e+06
-3.60137e+06
-3.60135e+06
-3.60133e+06
-3.60131e+06
-3.60129e+06
-3.60127e+06
-3.60125e+06
-3.60123e+06
-3.60121e+06
-3.60119e+06
-3.60117e+06
-3.60115e+06
-3.60113e+06
-3.60111e+06
-3.60109e+06
-3.60107e+06
-3.60105e+06
-3.60103e+06
-3.60101e+06
-3.60099e+06
-3.60097e+06
-3.60094e+06
-3.60092e+06
-3.6009e+06
-3.60088e+06
-3.60086e+06
-3.60084e+06
-3.60082e+06
-3.6008e+06
-3.60077e+06
-3.60075e+06
-3.60073e+06
-3.60071e+06
-3.60069e+06
-3.60067e+06
-3.60064e+06
-3.60062e+06
-3.6006e+06
-3.60058e+06
-3.60056e+06
-3.60053e+06
-3.60051e+06
-3.60049e+06
-3.60047e+06
-3.60044e+06
-3.60042e+06
-3.6004e+06
-3.60038e+06
-3.60035e+06
-3.60033e+06
-3.60031e+06
-3.60028e+06
-3.60026e+06
-3.60024e+06
-3.60022e+06
-3.60019e+06
-3.60017e+06
-3.60015e+06
-3.60012e+06
-3.6001e+06
-3.60008e+06
-3.60005e+06
-3.60003e+06
-3.6e+06
-3.59998e+06
-3.59996e+06
-3.59993e+06
-3.59991e+06
-3.59988e+06
-3.59986e+06
-3.59984e+06
-3.59981e+06
-3.59979e+06
-3.59976e+06
-3.59974e+06
-3.59971e+06
-3.59969e+06
-3.59967e+06
-3.59964e+06
-3.59962e+06
-3.59959e+06
-3.59957e+06
-3.59954e+06
-3.59952e+06
-3.59949e+06
-3.59947e+06
-3.59944e+06
-3.59942e+06
-3.59939e+06
-3.59937e+06
-3.59934e+06
-3.59931e+06
-3.59929e+06
-3.59926e+06
-3.59924e+06
-3.59921e+06
-3.59919e+06
-3.59916e+06
-3.59913e+06
-3.59911e+06
-3.59908e+06
-3.59906e+06
-3.59903e+06
-3.599e+06
-3.59898e+06
-3.59895e+06
-3.59892e+06
-3.5989e+06
-3.59887e+06
-3.59884e+06
-3.59882e+06
-3.59879e+06
-3.59876e+06
-3.59874e+06
-3.59871e+06
-3.59868e+06
-3.59866e+06
-3.59863e+06
-3.5986e+06
-3.59857e+06
-3.59855e+06
-3.59852e+06
-3.59849e+06
-3.59846e+06
-3.59844e+06
-3.59841e+06
-3.59838e+06
-3.59835e+06
-3.59832e+06
-3.5983e+06
-3.59827e+06
-3.59824e+06
-3.59821e+06
-3.59818e+06
-3.59816e+06
-3.59813e+06
-3.5981e+06
-3.59807e+06
-3.59804e+06
-3.59801e+06
-3.59799e+06
-3.59796e+06
-3.59793e+06
-3.5979e+06
-3.59787e+06
-3.59784e+06
-3.59781e+06
-3.59778e+06
-3.59775e+06
-3.59772e+06
-3.59769e+06
-3.59767e+06
-3.59764e+06
-3.59761e+06
-3.59758e+06
-3.59755e+06
-3.59752e+06
-3.59749e+06
-3.59746e+06
-3.59743e+06
-3.5974e+06
-3.59737e+06
-3.59734e+06
-3.59731e+06
-3.59728e+06
-3.59725e+06
-3.59722e+06
-3.59719e+06
-3.59716e+06
-3.59713e+06
-3.59709e+06
-3.59706e+06
-3.59703e+06
-3.597e+06
-3.59697e+06
-3.59694e+06
-3.59691e+06
-3.59688e+06
-3.59685e+06
-3.59682e+06
-3.59678e+06
-3.59675e+06
-3.59672e+06
-3.59669e+06
-3.59666e+06
-3.59663e+06
-3.5966e+06
-3.59656e+06
-3.59653e+06
-3.5965e+06
-3.59647e+06
-3.59644e+06
-3.5964e+06
-3.59637e+06
-3.59634e+06
-3.59631e+06
-3.59628e+06
-3.59624e+06
-3.59621e+06
-3.59618e+06
-3.59615e+06
-3.59611e+06
-3.59608e+06
-3.59605e+06
-3.59602e+06
-3.59598e+06
-3.59595e+06
-3.59592e+06
-3.59588e+06
-3.59585e+06
-3.59582e+06
-3.59578e+06
-3.59575e+06
-3.59572e+06
-3.59568e+06
-3.59565e+06
-3.59562e+06
-3.59558e+06
-3.59555e+06
-3.59552e+06
-3.59548e+06
-3.59545e+06
-3.59541e+06
-3.59538e+06
-3.59535e+06
-3.59531e+06
-3.59528e+06
-3.59524e+06
-3.59521e+06
-3.59517e+06
-3.59514e+06
-3.5951e+06
-3.59507e+06
-3.59504e+06
-3.595e+06
-3.59497e+06
-3.59493e+06
-3.5949e+06
-3.59486e+06
-3.59483e+06
-3.59479e+06
-3.59476e+06
-3.59472e+06
-3.59468e+06
-3.59465e+06
-3.59461e+06
-3.59458e+06
-3.59454e+06
-3.59451e+06
-3.59447e+06
-3.59444e+06
-3.5944e+06
-3.59436e+06
-3.59433e+06
-3.59429e+06
-3.59426e+06
-3.59422e+06
-3.59418e+06
-3.59415e+06
-3.59411e+06
-3.59407e+06
-3.59404e+06
-3.594e+06
-3.59396e+06
-3.59393e+06
-3.59389e+06
-3.59385e+06
-3.59382e+06
-3.59378e+06
-3.59374e+06
-3.59371e+06
-3.59367e+06
-3.59363e+06
-3.59359e+06
-3.59356e+06
-3.59352e+06
-3.59348e+06
-3.59344e+06
-3.59341e+06
-3.59337e+06
-3.59333e+06
-3.59329e+06
-3.59326e+06
-3.59322e+06
-3.59318e+06
-3.59314e+06
-3.5931e+06
-3.59306e+06
-3.59303e+06
-3.59299e+06
-3.59295e+06
-3.59291e+06
-3.59287e+06
-3.59283e+06
-3.5928e+06
-3.59276e+06
-3.59272e+06
-3.59268e+06
-3.59264e+06
-3.5926e+06
-3.59256e+06
-3.59252e+06
-3.59248e+06
-3.59244e+06
-3.59241e+06
-3.59237e+06
-3.59233e+06
-3.59229e+06
-3.59225e+06
-3.59221e+06
-3.59217e+06
-3.59213e+06
-3.59209e+06
-3.59205e+06
-3.59201e+06
-3.59197e+06
-3.59193e+06
-3.59189e+06
-3.59185e+06
-3.59181e+06
-3.59177e+06
-3.59173e+06
-3.59169e+06
-3.59165e+06
-3.59161e+06
-3.59156e+06
-3.59152e+06
-3.59148e+06
-3.59144e+06
-3.5914e+06
-3.59136e+06
-3.59132e+06
-3.59128e+06
-3.59124e+06
-3.5912e+06
-3.59115e+06
-3.59111e+06
-3.59107e+06
-3.59103e+06
-3.59099e+06
-3.59095e+06
-3.5909e+06
-3.59086e+06
-3.59082e+06
-3.59078e+06
-3.59074e+06
-3.59069e+06
-3.59065e+06
-3.59061e+06
-3.59057e+06
-3.59053e+06
-3.59048e+06
-3.59044e+06
-3.5904e+06
-3.59036e+06
-3.59031e+06
-3.59027e+06
-3.59023e+06
-3.59018e+06
-3.59014e+06
-3.5901e+06
-3.59006e+06
-3.59001e+06
-3.58997e+06
-3.58993e+06
-3.58988e+06
-3.58984e+06
-3.5898e+06
-3.58975e+06
-3.58971e+06
-3.58967e+06
-3.58962e+06
-3.58958e+06
-3.58953e+06
-3.58949e+06
-3.58945e+06
-3.5894e+06
-3.58936e+06
-3.58931e+06
-3.58927e+06
-3.58923e+06
-3.58918e+06
-3.58914e+06
-3.58909e+06
-3.58905e+06
-3.589e+06
-3.58896e+06
-3.58891e+06
-3.58887e+06
-3.58882e+06
-3.58878e+06
-3.58873e+06
-3.58869e+06
-3.58864e+06
-3.5886e+06
-3.58855e+06
-3.58851e+06
-3.58846e+06
-3.58842e+06
-3.58837e+06
-3.58833e+06
-3.58828e+06
-3.58823e+06
-3.58819e+06
-3.58814e+06
-3.5881e+06
-3.58805e+06
-3.58801e+06
-3.58796e+06
-3.58791e+06
-3.58787e+06
-3.58782e+06
-3.58777e+06
-3.58773e+06
-3.58768e+06
-3.58763e+06
-3.58759e+06
-3.58754e+06
-3.58749e+06
-3.58745e+06
-3.5874e+06
-3.58735e+06
-3.58731e+06
-3.58726e+06
-3.58721e+06
-3.58716e+06
-3.58712e+06
-3.58707e+06
-3.58702e+06
-3.58698e+06
-3.58693e+06
-3.58688e+06
-3.58683e+06
-3.58678e+06
-3.58674e+06
-3.58669e+06
-3.58664e+06
-3.58659e+06
-3.58654e+06
-3.5865e+06
-3.58645e+06
-3.5864e+06
-3.58635e+06
-3.5863e+06
-3.58625e+06
-3.58621e+06
-3.58616e+06
-3.58611e+06
-3.58606e+06
-3.58601e+06
-3.58596e+06
-3.58591e+06
-3.58586e+06
-3.58582e+06
-3.58577e+06
-3.58572e+06
-3.58567e+06
-3.58562e+06
-3.58557e+06
-3.58552e+06
-3.58547e+06
-3.58542e+06
-3.58537e+06
-3.58532e+06
-3.58527e+06
-3.58522e+06
-3.58517e+06
-3.58512e+06
-3.58507e+06
-3.58502e+06
-3.58497e+06
-3.58492e+06
-3.58487e+06
-3.58482e+06
-3.58477e+06
-3.58472e+06
-3.58467e+06
-3.58462e+06
-3.58457e+06
-3.58452e+06
-3.58447e+06
-3.58441e+06
-3.58436e+06
-3.58431e+06
-3.58426e+06
-3.58421e+06
-3.58416e+06
-3.58411e+06
-3.58406e+06
-3.584e+06
-3.58395e+06
-3.5839e+06
-3.58385e+06
-3.5838e+06
-3.58375e+06
-3.58369e+06
-3.58364e+06
-3.58359e+06
-3.58354e+06
-3.58349e+06
-3.58343e+06
-3.58338e+06
-3.58333e+06
-3.58328e+06
-3.58323e+06
-3.58317e+06
-3.58312e+06
-3.58307e+06
-3.58301e+06
-3.58296e+06
-3.58291e+06
-3.58286e+06
-3.5828e+06
-3.58275e+06
-3.5827e+06
-3.58264e+06
-3.58259e+06
-3.58254e+06
-3.58248e+06
-3.58243e+06
-3.58238e+06
-3.58232e+06
-3.58227e+06
-3.58222e+06
-3.58216e+06
-3.58211e+06
-3.58206e+06
-3.582e+06
-3.58195e+06
-3.58189e+06
-3.58184e+06
-3.58178e+06
-3.58173e+06
-3.58168e+06
-3.58162e+06
-3.58157e+06
-3.58151e+06
-3.58146e+06
-3.5814e+06
-3.58135e+06
-3.58129e+06
-3.58124e+06
-3.58118e+06
-3.58113e+06
-3.58107e+06
-3.58102e+06
-3.58096e+06
-3.58091e+06
-3.58085e+06
-3.5808e+06
-3.58074e+06
-3.58069e+06
-3.58063e+06
-3.58058e+06
-3.58052e+06
-3.58046e+06
-3.58041e+06
-3.58035e+06
-3.5803e+06
-3.58024e+06
-3.58018e+06
-3.58013e+06
-3.58007e+06
-3.58002e+06
-3.57996e+06
-3.5799e+06
-3.57985e+06
-3.57979e+06
-3.57973e+06
-3.57968e+06
-3.57962e+06
-3.57956e+06
-3.57951e+06
-3.57945e+06
-3.57939e+06
-3.57933e+06
-3.57928e+06
-3.57922e+06
-3.57916e+06
-3.5791e+06
-3.57905e+06
-3.57899e+06
-3.57893e+06
-3.57887e+06
-3.57882e+06
-3.57876e+06
-3.5787e+06
-3.57864e+06
-3.57859e+06
-3.57853e+06
-3.57847e+06
-3.57841e+06
-3.57835e+06
-3.57829e+06
-3.57824e+06
-3.57818e+06
-3.57812e+06
-3.57806e+06
-3.578e+06
-3.57794e+06
-3.57788e+06
-3.57783e+06
-3.57777e+06
-3.57771e+06
-3.57765e+06
-3.57759e+06
-3.57753e+06
-3.57747e+06
-3.57741e+06
-3.57735e+06
-3.57729e+06
-3.57723e+06
-3.57717e+06
-3.57711e+06
-3.57706e+06
-3.577e+06
-3.57694e+06
-3.57688e+06
-3.57682e+06
-3.57676e+06
-3.5767e+06
-3.57664e+06
-3.57658e+06
-3.57652e+06
-3.57645e+06
-3.57639e+06
-3.57633e+06
-3.57627e+06
-3.57621e+06
-3.57615e+06
-3.57609e+06
-3.57603e+06
-3.57597e+06
-3.57591e+06
-3.57585e+06
-3.57579e+06
-3.57573e+06
-3.57566e+06
-3.5756e+06
-3.57554e+06
-3.57548e+06
-3.57542e+06
-3.57536e+06
-3.5753e+06
-3.57523e+06
-3.57517e+06
-3.57511e+06
-3.57505e+06
-3.57499e+06
-3.57492e+06
-3.57486e+06
-3.5748e+06
-3.57474e+06
-3.57468e+06
-3.57461e+06
-3.57455e+06
-3.57449e+06
-3.57443e+06
-3.57436e+06
-3.5743e+06
-3.57424e+06
-3.57418e+06
-3.57411e+06
-3.57405e+06
-3.57399e+06
-3.57392e+06
-3.57386e+06
-3.5738e+06
-3.57373e+06
-3.57367e+06
-3.57361e+06
-3.57354e+06
-3.57348e+06
-3.57342e+06
-3.57335e+06
-3.57329e+06
-3.57323e+06
-3.57316e+06
-3.5731e+06
-3.57303e+06
-3.57297e+06
-3.57291e+06
-3.57284e+06
-3.57278e+06
-3.57271e+06
-3.57265e+06
-3.57258e+06
-3.57252e+06
-3.57246e+06
-3.57239e+06
-3.57233e+06
-3.57226e+06
-3.5722e+06
-3.57213e+06
-3.57207e+06
-3.572e+06
-3.57194e+06
-3.57187e+06
-3.57181e+06
-3.57174e+06
-3.57168e+06
-3.57161e+06
-3.57154e+06
-3.57148e+06
-3.57141e+06
-3.57135e+06
-3.57128e+06
-3.57122e+06
-3.57115e+06
-3.57108e+06
-3.57102e+06
-3.57095e+06
-3.57089e+06
-3.57082e+06
-3.57075e+06
-3.57069e+06
-3.57062e+06
-3.57055e+06
-3.57049e+06
-3.57042e+06
-3.57035e+06
-3.57029e+06
-3.57022e+06
-3.57015e+06
-3.57009e+06
-3.57002e+06
-3.56995e+06
-3.56989e+06
-3.56982e+06
-3.56975e+06
-3.56968e+06
-3.56962e+06
-3.56955e+06
-3.56948e+06
-3.56941e+06
-3.56935e+06
-3.56928e+06
-3.56921e+06
-3.56914e+06
-3.56908e+06
-3.56901e+06
-3.56894e+06
-3.56887e+06
-3.5688e+06
-3.56873e+06
-3.56867e+06
-3.5686e+06
-3.56853e+06
-3.56846e+06
-3.56839e+06
-3.56832e+06
-3.56826e+06
-3.56819e+06
-3.56812e+06
-3.56805e+06
-3.56798e+06
-3.56791e+06
-3.56784e+06
-3.56777e+06
-3.5677e+06
-3.56763e+06
-3.56756e+06
-3.5675e+06
-3.56743e+06
-3.56736e+06
-3.56729e+06
-3.56722e+06
-3.56715e+06
-3.56708e+06
-3.56701e+06
-3.56694e+06
-3.56687e+06
-3.5668e+06
-3.56673e+06
-3.56666e+06
-3.56659e+06
-3.56652e+06
-3.56645e+06
-3.56638e+06
-3.56631e+06
-3.56623e+06
-3.56616e+06
-3.56609e+06
-3.56602e+06
-3.56595e+06
-3.56588e+06
-3.56581e+06
-3.56574e+06
-3.56567e+06
-3.5656e+06
-3.56552e+06
-3.56545e+06
-3.56538e+06
-3.56531e+06
-3.56524e+06
-3.56517e+06
-3.5651e+06
-3.56502e+06
-3.56495e+06
-3.56488e+06
-3.56481e+06
-3.56474e+06
-3.56466e+06
-3.56459e+06
-3.56452e+06
-3.56445e+06
-3.56438e+06
-3.5643e+06
-3.56423e+06
-3.56416e+06
-3.56409e+06
-3.56401e+06
-3.56394e+06
-3.56387e+06
-3.56379e+06
-3.56372e+06
-3.56365e+06
-3.56358e+06
-3.5635e+06
-3.56343e+06
-3.56336e+06
-3.56328e+06
-3.56321e+06
-3.56314e+06
-3.56306e+06
-3.56299e+06
-3.56292e+06
-3.56284e+06
-3.56277e+06
-3.56269e+06
-3.56262e+06
-3.56255e+06
-3.56247e+06
-3.5624e+06
-3.56232e+06
-3.56225e+06
-3.56218e+06
-3.5621e+06
-3.56203e+06
-3.56195e+06
-3.56188e+06
-3.5618e+06
-3.56173e+06
-3.56165e+06
-3.56158e+06
-3.5615e+06
-3.56143e+06
-3.56135e+06
-3.56128e+06
-3.5612e+06
-3.56113e+06
-3.56105e+06
-3.56098e+06
-3.5609e+06
-3.56083e+06
-3.56075e+06
-3.56068e+06
-3.5606e+06
-3.56053e+06
-3.56045e+06
-3.56037e+06
-3.5603e+06
-3.56022e+06
-3.56015e+06
-3.56007e+06
-3.55999e+06
-3.55992e+06
-3.55984e+06
-3.55976e+06
-3.55969e+06
-3.55961e+06
-3.55953e+06
-3.55946e+06
-3.55938e+06
-3.5593e+06
-3.55923e+06
-3.55915e+06
-3.55907e+06
-3.559e+06
-3.55892e+06
-3.55884e+06
-3.55877e+06
-3.55869e+06
-3.55861e+06
-3.55853e+06
-3.55846e+06
-3.55838e+06
-3.5583e+06
-3.55822e+06
-3.55815e+06
-3.55807e+06
-3.55799e+06
-3.55791e+06
-3.55783e+06
-3.55776e+06
-3.55768e+06
-3.5576e+06
-3.55752e+06
-3.55744e+06
-3.55736e+06
-3.55729e+06
-3.55721e+06
-3.55713e+06
-3.55705e+06
-3.55697e+06
-3.55689e+06
-3.55681e+06
-3.55673e+06
-3.55666e+06
-3.55658e+06
-3.5565e+06
-3.55642e+06
-3.55634e+06
-3.55626e+06
-3.55618e+06
-3.5561e+06
-3.55602e+06
-3.55594e+06
-3.55586e+06
-3.55578e+06
-3.5557e+06
-3.55562e+06
-3.55554e+06
-3.55546e+06
-3.55538e+06
-3.5553e+06
-3.55522e+06
-3.55514e+06
-3.55506e+06
-3.55498e+06
-3.5549e+06
-3.55482e+06
-3.55474e+06
-3.55466e+06
-3.55458e+06
-3.5545e+06
-3.55442e+06
-3.55433e+06
-3.55425e+06
-3.55417e+06
-3.55409e+06
-3.55401e+06
-3.55393e+06
-3.55385e+06
-3.55377e+06
-3.55368e+06
-3.5536e+06
-3.55352e+06
-3.55344e+06
-3.55336e+06
-3.55328e+06
-3.55319e+06
-3.55311e+06
-3.55303e+06
-3.55295e+06
-3.55287e+06
-3.55278e+06
-3.5527e+06
-3.55262e+06
-3.55254e+06
-3.55245e+06
-3.55237e+06
-3.55229e+06
-3.55221e+06
-3.55212e+06
-3.55204e+06
-3.55196e+06
-3.55187e+06
-3.55179e+06
-3.55171e+06
-3.55163e+06
-3.55154e+06
-3.55146e+06
-3.55138e+06
-3.55129e+06
-3.55121e+06
-3.55112e+06
-3.55104e+06
-3.55096e+06
-3.55087e+06
-3.55079e+06
-3.55071e+06
-3.55062e+06
-3.55054e+06
-3.55045e+06
-3.55037e+06
-3.55029e+06
-3.5502e+06
-3.55012e+06
-3.55003e+06
-3.54995e+06
-3.54986e+06
-3.54978e+06
-3.54969e+06
-3.54961e+06
-3.54952e+06
-3.54944e+06
-3.54935e+06
-3.54927e+06
-3.54918e+06
-3.5491e+06
-3.54901e+06
-3.54893e+06
-3.54884e+06
-3.54876e+06
-3.54867e+06
-3.54859e+06
-3.5485e+06
-3.54841e+06
-3.54833e+06
-3.54824e+06
-3.54816e+06
-3.54807e+06
-3.54798e+06
-3.5479e+06
-3.54781e+06
-3.54772e+06
-3.54764e+06
-3.54755e+06
-3.54747e+06
-3.54738e+06
-3.54729e+06
-3.54721e+06
-3.54712e+06
-3.54703e+06
-3.54694e+06
-3.54686e+06
-3.54677e+06
-3.54668e+06
-3.5466e+06
-3.54651e+06
-3.54642e+06
-3.54633e+06
-3.54625e+06
-3.54616e+06
-3.54607e+06
-3.54598e+06
-3.5459e+06
-3.54581e+06
-3.54572e+06
-3.54563e+06
-3.54554e+06
-3.54546e+06
-3.54537e+06
-3.54528e+06
-3.54519e+06
-3.5451e+06
-3.54501e+06
-3.54493e+06
-3.54484e+06
-3.54475e+06
-3.54466e+06
-3.54457e+06
-3.54448e+06
-3.54439e+06
-3.5443e+06
-3.54421e+06
-3.54413e+06
-3.54404e+06
-3.54395e+06
-3.54386e+06
-3.54377e+06
-3.54368e+06
-3.54359e+06
-3.5435e+06
-3.54341e+06
-3.54332e+06
-3.54323e+06
-3.54314e+06
-3.54305e+06
-3.54296e+06
-3.54287e+06
-3.54278e+06
-3.54269e+06
-3.5426e+06
-3.54251e+06
-3.54242e+06
-3.54233e+06
-3.54224e+06
-3.54215e+06
-3.54205e+06
-3.54196e+06
-3.54187e+06
-3.54178e+06
-3.54169e+06
-3.5416e+06
-3.54151e+06
-3.54142e+06
-3.54133e+06
-3.54123e+06
-3.54114e+06
-3.54105e+06
-3.54096e+06
-3.54087e+06
-3.54078e+06
-3.54068e+06
-3.54059e+06
-3.5405e+06
-3.54041e+06
-3.54032e+06
-3.54022e+06
-3.54013e+06
-3.54004e+06
-3.53995e+06
-3.53985e+06
-3.53976e+06
-3.53967e+06
-3.53958e+06
-3.53948e+06
-3.53939e+06
-3.5393e+06
-3.53921e+06
-3.53911e+06
-3.53902e+06
-3.53893e+06
-3.53883e+06
-3.53874e+06
-3.53865e+06
-3.53855e+06
-3.53846e+06
-3.53837e+06
-3.53827e+06
-3.53818e+06
-3.53808e+06
-3.53799e+06
-3.5379e+06
-3.5378e+06
-3.53771e+06
-3.53761e+06
-3.53752e+06
-3.53743e+06
-3.53733e+06
-3.53724e+06
-3.53714e+06
-3.53705e+06
-3.53695e+06
-3.53686e+06
-3.53676e+06
-3.53667e+06
-3.53657e+06
-3.53648e+06
-3.53638e+06
-3.53629e+06
-3.53619e+06
-3.5361e+06
-3.536e+06
-3.53591e+06
-3.53581e+06
-3.53572e+06
-3.53562e+06
-3.53553e+06
-3.53543e+06
-3.53533e+06
-3.53524e+06
-3.53514e+06
-3.53505e+06
-3.53495e+06
-3.53485e+06
-3.53476e+06
-3.53466e+06
-3.53457e+06
-3.53447e+06
-3.53437e+06
-3.53428e+06
-3.53418e+06
-3.53408e+06
-3.53399e+06
-3.53389e+06
-3.53379e+06
-3.5337e+06
-3.5336e+06
-3.5335e+06
-3.5334e+06
-3.53331e+06
-3.53321e+06
-3.53311e+06
-3.53301e+06
-3.53292e+06
-3.53282e+06
-3.53272e+06
-3.53262e+06
-3.53253e+06
-3.53243e+06
-3.53233e+06
-3.53223e+06
-3.53213e+06
-3.53204e+06
-3.53194e+06
-3.53184e+06
-3.53174e+06
-3.53164e+06
-3.53154e+06
-3.53145e+06
-3.53135e+06
-3.53125e+06
-3.53115e+06
-3.53105e+06
-3.53095e+06
-3.53085e+06
-3.53076e+06
-3.53066e+06
-3.53056e+06
-3.53046e+06
-3.53036e+06
-3.53026e+06
-3.53016e+06
-3.53006e+06
-3.52996e+06
-3.52986e+06
-3.52976e+06
-3.52966e+06
-3.52956e+06
-3.52946e+06
-3.52937e+06
-3.52927e+06
-3.52917e+06
-3.52907e+06
-3.52897e+06
-3.52887e+06
-3.52877e+06
-3.52867e+06
-3.52857e+06
-3.52847e+06
-3.52837e+06
-3.52827e+06
-3.52816e+06
-3.52806e+06
-3.52796e+06
-3.52786e+06
-3.52776e+06
-3.52766e+06
-3.52756e+06
-3.52746e+06
-3.52736e+06
-3.52725e+06
-3.52715e+06
-3.52705e+06
-3.52695e+06
-3.52685e+06
-3.52674e+06
-3.52664e+06
-3.52654e+06
-3.52643e+06
-3.52633e+06
-3.52623e+06
-3.52612e+06
-3.52602e+06
-3.52592e+06
-3.52581e+06
-3.52571e+06
-3.5256e+06
-3.5255e+06
-3.5254e+06
-3.52529e+06
-3.52519e+06
-3.52508e+06
-3.52498e+06
-3.52487e+06
-3.52477e+06
-3.52466e+06
-3.52456e+06
-3.52446e+06
-3.52435e+06
-3.52425e+06
-3.52414e+06
-3.52404e+06
-3.52393e+06
-3.52383e+06
-3.52373e+06
-3.52362e+06
-3.52352e+06
-3.52342e+06
-3.52331e+06
-3.52321e+06
-3.5231e+06
-3.523e+06
-3.5229e+06
-3.52279e+06
-3.52269e+06
-3.52259e+06
-3.52248e+06
-3.52238e+06
-3.52228e+06
-3.52217e+06
-3.52207e+06
-3.52196e+06
-3.52186e+06
-3.52176e+06
-3.52165e+06
-3.52155e+06
-3.52144e+06
-3.52134e+06
-3.52123e+06
-3.52113e+06
-3.52102e+06
-3.52092e+06
-3.52081e+06
-3.52071e+06
-3.5206e+06
-3.5205e+06
-3.52039e+06
-3.52028e+06
-3.52018e+06
-3.52007e+06
-3.51996e+06
-3.51986e+06
-3.51975e+06
-3.51965e+06
-3.51954e+06
-3.51943e+06
-3.51932e+06
-3.51922e+06
-3.51911e+06
-3.519e+06
-3.5189e+06
-3.51879e+06
-3.51868e+06
-3.51857e+06
-3.51847e+06
-3.51836e+06
-3.51825e+06
-3.51814e+06
-3.51804e+06
-3.51793e+06
-3.51782e+06
-3.51771e+06
-3.5176e+06
-3.5175e+06
-3.51739e+06
-3.51728e+06
-3.51717e+06
-3.51706e+06
-3.51696e+06
-3.51685e+06
-3.51674e+06
-3.51663e+06
-3.51652e+06
-3.51641e+06
-3.5163e+06
-3.51619e+06
-3.51609e+06
-3.51598e+06
-3.51587e+06
-3.51576e+06
-3.51565e+06
-3.51554e+06
-3.51543e+06
-3.51532e+06
-3.51521e+06
-3.5151e+06
-3.51499e+06
-3.51488e+06
-3.51477e+06
-3.51466e+06
-3.51455e+06
-3.51444e+06
-3.51433e+06
-3.51422e+06
-3.51411e+06
-3.514e+06
-3.51389e+06
-3.51378e+06
-3.51367e+06
-3.51356e+06
-3.51345e+06
-3.51334e+06
-3.51323e+06
-3.51312e+06
-3.51301e+06
-3.5129e+06
-3.51279e+06
-3.51267e+06
-3.51256e+06
-3.51245e+06
-3.51234e+06
-3.51223e+06
-3.51212e+06
-3.51201e+06
-3.51189e+06
-3.51178e+06
-3.51167e+06
-3.51156e+06
-3.51145e+06
-3.51134e+06
-3.51122e+06
-3.51111e+06
-3.511e+06
-3.51089e+06
-3.51077e+06
-3.51066e+06
-3.51055e+06
-3.51044e+06
-3.51032e+06
-3.51021e+06
-3.5101e+06
-3.50999e+06
-3.50987e+06
-3.50976e+06
-3.50965e+06
-3.50953e+06
-3.50942e+06
-3.50931e+06
-3.50919e+06
-3.50908e+06
-3.50897e+06
-3.50885e+06
-3.50874e+06
-3.50863e+06
-3.50851e+06
-3.5084e+06
-3.50829e+06
-3.50817e+06
-3.50806e+06
-3.50794e+06
-3.50783e+06
-3.50772e+06
-3.5076e+06
-3.50749e+06
-3.50737e+06
-3.50726e+06
-3.50714e+06
-3.50703e+06
-3.50691e+06
-3.5068e+06
-3.50669e+06
-3.50657e+06
-3.50646e+06
-3.50634e+06
-3.50623e+06
-3.50611e+06
-3.50599e+06
-3.50588e+06
-3.50576e+06
-3.50565e+06
-3.50553e+06
-3.50542e+06
-3.5053e+06
-3.50519e+06
-3.50507e+06
-3.50495e+06
-3.50484e+06
-3.50472e+06
-3.50461e+06
-3.50449e+06
-3.50437e+06
-3.50426e+06
-3.50414e+06
-3.50403e+06
-3.50391e+06
-3.50379e+06
-3.50368e+06
-3.50356e+06
-3.50344e+06
-3.50333e+06
-3.50321e+06
-3.50309e+06
-3.50297e+06
-3.50286e+06
-3.50274e+06
-3.50262e+06
-3.50251e+06
-3.50239e+06
-3.50227e+06
-3.50215e+06
-3.50203e+06
-3.50192e+06
-3.50181e+06
-3.50169e+06
-3.50155e+06
-3.50145e+06
-3.50133e+06
-3.5012e+06
-3.50109e+06
-3.50098e+06
-3.50087e+06
-3.50074e+06
-3.50062e+06
-3.5005e+06
-3.50038e+06
-3.50026e+06
-3.50014e+06
-3.50002e+06
-3.4999e+06
-3.49979e+06
-3.49968e+06
-3.49955e+06
-3.49943e+06
-3.49931e+06
-3.49919e+06
-3.49907e+06
-3.49895e+06
-3.49883e+06
-3.49872e+06
-3.4986e+06
-3.49848e+06
-3.49836e+06
-3.49824e+06
-3.49811e+06
-3.49801e+06
-3.49783e+06
-3.49779e+06
-3.49763e+06
-3.49751e+06
-3.49739e+06
-3.49728e+06
-3.49716e+06
-3.49702e+06
-3.49691e+06
-3.49678e+06
-3.49667e+06
-3.49657e+06
-3.49642e+06
-3.49629e+06
-3.49619e+06
-3.49608e+06
-3.49595e+06
-3.49581e+06
-3.4957e+06
-3.4956e+06
-3.49542e+06
-3.49536e+06
-3.49522e+06
-3.4951e+06
-3.49497e+06
-3.49485e+06
-3.49473e+06
-3.49461e+06
-3.49448e+06
-3.49436e+06
-3.49424e+06
-3.49412e+06
-3.494e+06
-3.49388e+06
-3.49375e+06
-3.49363e+06
-3.49351e+06
-3.49338e+06
-3.49326e+06
-3.49314e+06
-3.49301e+06
-3.49289e+06
-3.49277e+06
-3.49264e+06
-3.49254e+06
-3.49239e+06
-3.49229e+06
-3.49215e+06
-3.49202e+06
-3.4919e+06
-3.49179e+06
-3.49166e+06
-3.49154e+06
-3.49141e+06
-3.49129e+06
-3.49117e+06
-3.49104e+06
-3.49091e+06
-3.49079e+06
-3.49067e+06
-3.49054e+06
-3.49042e+06
-3.4903e+06
-3.49017e+06
-3.49005e+06
-3.48992e+06
-3.4898e+06
-3.48967e+06
-3.48955e+06
-3.48942e+06
-3.4893e+06
-3.48917e+06
-3.48905e+06
-3.48893e+06
-3.48879e+06
-3.48867e+06
-3.4886e+06
-3.48838e+06
-3.48829e+06
-3.48815e+06
-3.48806e+06
-3.48793e+06
-3.48778e+06
-3.48766e+06
-3.48754e+06
-3.48743e+06
-3.48729e+06
-3.48716e+06
-3.48704e+06
-3.48691e+06
-3.48678e+06
-3.48665e+06
-3.48653e+06
-3.48641e+06
-3.48628e+06
-3.48615e+06
-3.48602e+06
-3.4859e+06
-3.48577e+06
-3.48564e+06
-3.48553e+06
-3.48539e+06
-3.48525e+06
-3.48514e+06
-3.48502e+06
-3.48488e+06
-3.48475e+06
-3.48463e+06
-3.4845e+06
-3.48437e+06
-3.48424e+06
-3.48411e+06
-3.48399e+06
-3.48386e+06
-3.48373e+06
-3.4836e+06
-3.48347e+06
-3.48335e+06
-3.48321e+06
-3.48308e+06
-3.48304e+06
-3.48277e+06
-3.48271e+06
-3.48256e+06
-3.48246e+06
-3.48232e+06
-3.48218e+06
-3.48205e+06
-3.48193e+06
-3.48181e+06
-3.48168e+06
-3.48154e+06
-3.48142e+06
-3.48129e+06
-3.48115e+06
-3.48102e+06
-3.48089e+06
-3.48077e+06
-3.48064e+06
-3.48051e+06
-3.48038e+06
-3.48025e+06
-3.48012e+06
-3.47998e+06
-3.47986e+06
-3.47973e+06
-3.4796e+06
-3.47947e+06
-3.47934e+06
-3.47921e+06
-3.47908e+06
-3.47894e+06
-3.47881e+06
-3.47868e+06
-3.47855e+06
-3.47842e+06
-3.47829e+06
-3.47816e+06
-3.47803e+06
-3.4779e+06
-3.47777e+06
-3.47763e+06
-3.4775e+06
-3.47737e+06
-3.47724e+06
-3.47711e+06
-3.47697e+06
-3.47685e+06
-3.47671e+06
-3.47658e+06
-3.47645e+06
-3.47632e+06
-3.47618e+06
-3.47605e+06
-3.47592e+06
-3.47579e+06
-3.47565e+06
-3.47552e+06
-3.47539e+06
-3.47526e+06
-3.47513e+06
-3.47499e+06
-3.47486e+06
-3.47473e+06
-3.47459e+06
-3.47446e+06
-3.47433e+06
-3.47419e+06
-3.47406e+06
-3.47393e+06
-3.47379e+06
-3.47366e+06
-3.47353e+06
-3.47339e+06
-3.47326e+06
-3.47313e+06
-3.47299e+06
-3.47286e+06
-3.47272e+06
-3.47259e+06
-3.47245e+06
-3.47232e+06
-3.47219e+06
-3.47205e+06
-3.47192e+06
-3.47178e+06
-3.47165e+06
-3.47152e+06
-3.47138e+06
-3.47125e+06
-3.47111e+06
-3.47098e+06
-3.47084e+06
-3.47071e+06
-3.47057e+06
-3.47044e+06
-3.4703e+06
-3.47017e+06
-3.47003e+06
-3.46989e+06
-3.46976e+06
-3.46962e+06
-3.46949e+06
-3.46935e+06
-3.46922e+06
-3.46908e+06
-3.46894e+06
-3.46881e+06
-3.46867e+06
-3.46854e+06
-3.4684e+06
-3.46826e+06
-3.46813e+06
-3.46799e+06
-3.46785e+06
-3.46772e+06
-3.46758e+06
-3.46744e+06
-3.46731e+06
-3.46717e+06
-3.46703e+06
-3.4669e+06
-3.46676e+06
-3.46662e+06
-3.46649e+06
-3.46635e+06
-3.46621e+06
-3.46607e+06
-3.46593e+06
-3.4658e+06
-3.46566e+06
-3.46552e+06
-3.46539e+06
-3.46525e+06
-3.46511e+06
-3.46497e+06
-3.46483e+06
-3.46469e+06
-3.46456e+06
-3.46442e+06
-3.46428e+06
-3.46414e+06
-3.464e+06
-3.46386e+06
-3.46372e+06
-3.46359e+06
-3.46345e+06
-3.46331e+06
-3.46317e+06
-3.46303e+06
-3.46289e+06
-3.46275e+06
-3.46261e+06
-3.46247e+06
-3.46234e+06
-3.46219e+06
-3.46206e+06
-3.46192e+06
-3.46178e+06
-3.46164e+06
-3.4615e+06
-3.46136e+06
-3.46122e+06
-3.46108e+06
-3.46094e+06
-3.4608e+06
-3.46066e+06
-3.46052e+06
-3.46038e+06
-3.46023e+06
-3.46009e+06
-3.45995e+06
-3.45981e+06
-3.45967e+06
-3.45953e+06
-3.45939e+06
-3.45925e+06
-3.45911e+06
-3.45897e+06
-3.45883e+06
-3.45868e+06
-3.45854e+06
-3.4584e+06
-3.45826e+06
-3.45812e+06
-3.45798e+06
-3.45784e+06
-3.45769e+06
-3.45755e+06
-3.45741e+06
-3.45727e+06
-3.45713e+06
-3.45698e+06
-3.45684e+06
-3.4567e+06
-3.45656e+06
-3.45642e+06
-3.45627e+06
-3.45613e+06
-3.45599e+06
-3.45584e+06
-3.4557e+06
-3.45556e+06
-3.45542e+06
-3.45527e+06
-3.45513e+06
-3.45499e+06
-3.45484e+06
-3.4547e+06
-3.45456e+06
-3.45441e+06
-3.45427e+06
-3.45413e+06
-3.45398e+06
-3.45384e+06
-3.4537e+06
-3.45355e+06
-3.45341e+06
-3.45326e+06
-3.45312e+06
-3.45297e+06
-3.45283e+06
-3.45269e+06
-3.45254e+06
-3.4524e+06
-3.45225e+06
-3.45211e+06
-3.45196e+06
-3.45182e+06
-3.45167e+06
-3.45153e+06
-3.45138e+06
-3.45124e+06
-3.4511e+06
-3.45095e+06
-3.4508e+06
-3.45066e+06
-3.45051e+06
-3.45037e+06
-3.45022e+06
-3.45008e+06
-3.44993e+06
-3.44979e+06
-3.44964e+06
-3.44949e+06
-3.44935e+06
-3.4492e+06
-3.44906e+06
-3.44891e+06
-3.44876e+06
-3.44862e+06
-3.44847e+06
-3.44832e+06
-3.44818e+06
-3.44803e+06
-3.44788e+06
-3.44774e+06
-3.44759e+06
-3.44744e+06
-3.4473e+06
-3.44715e+06
-3.447e+06
-3.44686e+06
-3.44671e+06
-3.44656e+06
-3.44641e+06
-3.44627e+06
-3.44612e+06
-3.44597e+06
-3.44582e+06
-3.44568e+06
-3.44553e+06
-3.44538e+06
-3.44523e+06
-3.44508e+06
-3.44494e+06
-3.44479e+06
-3.44464e+06
-3.44449e+06
-3.44434e+06
-3.44419e+06
-3.44405e+06
-3.4439e+06
-3.44375e+06
-3.4436e+06
-3.44345e+06
-3.4433e+06
-3.44315e+06
-3.443e+06
-3.44285e+06
-3.4427e+06
-3.44256e+06
-3.44241e+06
-3.44226e+06
-3.44211e+06
-3.44196e+06
-3.44181e+06
-3.44166e+06
-3.44151e+06
-3.44136e+06
-3.44121e+06
-3.44106e+06
-3.44091e+06
-3.44076e+06
-3.44061e+06
-3.44046e+06
-3.44031e+06
-3.44016e+06
-3.44001e+06
-3.43986e+06
-3.43971e+06
-3.43955e+06
-3.4394e+06
-3.43925e+06
-3.4391e+06
-3.43895e+06
-3.4388e+06
-3.43865e+06
-3.4385e+06
-3.43835e+06
-3.43819e+06
-3.43804e+06
-3.43789e+06
-3.43774e+06
-3.43759e+06
-3.43744e+06
-3.43728e+06
-3.43713e+06
-3.43698e+06
-3.43683e+06
-3.43668e+06
-3.43652e+06
-3.43637e+06
-3.43622e+06
-3.43607e+06
-3.43591e+06
-3.43576e+06
-3.43561e+06
-3.43546e+06
-3.4353e+06
-3.43515e+06
-3.435e+06
-3.43485e+06
-3.43469e+06
-3.43454e+06
-3.43439e+06
-3.43423e+06
-3.43408e+06
-3.43393e+06
-3.43377e+06
-3.43362e+06
-3.43347e+06
-3.43331e+06
-3.43316e+06
-3.433e+06
-3.43285e+06
-3.4327e+06
-3.43254e+06
-3.43239e+06
-3.43223e+06
-3.43208e+06
-3.43192e+06
-3.43177e+06
-3.43162e+06
-3.43146e+06
-3.43131e+06
-3.43115e+06
-3.431e+06
-3.43084e+06
-3.43069e+06
-3.43053e+06
-3.43038e+06
-3.43022e+06
-3.43007e+06
-3.42991e+06
-3.42976e+06
-3.4296e+06
-3.42944e+06
-3.42929e+06
-3.42913e+06
-3.42898e+06
-3.42882e+06
-3.42866e+06
-3.42851e+06
-3.42835e+06
-3.4282e+06
-3.42804e+06
-3.42788e+06
-3.42773e+06
-3.42757e+06
-3.42741e+06
-3.42726e+06
-3.4271e+06
-3.42694e+06
-3.42679e+06
-3.42663e+06
-3.42647e+06
-3.42632e+06
-3.42616e+06
-3.426e+06
-3.42585e+06
-3.42569e+06
-3.42553e+06
-3.42537e+06
-3.42522e+06
-3.42506e+06
-3.4249e+06
-3.42474e+06
-3.42458e+06
-3.42443e+06
-3.42427e+06
-3.42411e+06
-3.42395e+06
-3.42379e+06
-3.42364e+06
-3.42348e+06
-3.42332e+06
-3.42316e+06
-3.423e+06
-3.42284e+06
-3.42268e+06
-3.42253e+06
-3.42237e+06
-3.42221e+06
-3.42205e+06
-3.42189e+06
-3.42173e+06
-3.42157e+06
-3.42141e+06
-3.42125e+06
-3.42109e+06
-3.42093e+06
-3.42077e+06
-3.42061e+06
-3.42046e+06
-3.4203e+06
-3.42014e+06
-3.41998e+06
-3.41982e+06
-3.41965e+06
-3.41949e+06
-3.41933e+06
-3.41917e+06
-3.41901e+06
-3.41885e+06
-3.41869e+06
-3.41853e+06
-3.41837e+06
-3.41821e+06
-3.41805e+06
-3.41789e+06
-3.41773e+06
-3.41757e+06
-3.41741e+06
-3.41724e+06
-3.41708e+06
-3.41692e+06
-3.41676e+06
-3.4166e+06
-3.41644e+06
-3.41628e+06
-3.41611e+06
-3.41595e+06
-3.41579e+06
-3.41563e+06
-3.41547e+06
-3.4153e+06
-3.41514e+06
-3.41498e+06
-3.41482e+06
-3.41465e+06
-3.41449e+06
-3.41433e+06
-3.41417e+06
-3.414e+06
-3.41384e+06
-3.41368e+06
-3.41352e+06
-3.41335e+06
-3.41319e+06
-3.41303e+06
-3.41286e+06
-3.4127e+06
-3.41254e+06
-3.41237e+06
-3.41221e+06
-3.41205e+06
-3.41188e+06
-3.41172e+06
-3.41155e+06
-3.41139e+06
-3.41123e+06
-3.41106e+06
-3.4109e+06
-3.41073e+06
-3.41057e+06
-3.41041e+06
-3.41024e+06
-3.41008e+06
-3.40991e+06
-3.40975e+06
-3.40958e+06
-3.40942e+06
-3.40925e+06
-3.40909e+06
-3.40892e+06
-3.40876e+06
-3.40859e+06
-3.40843e+06
-3.40826e+06
-3.4081e+06
-3.40793e+06
-3.40777e+06
-3.4076e+06
-3.40743e+06
-3.40727e+06
-3.4071e+06
-3.40694e+06
-3.40677e+06
-3.4066e+06
-3.40644e+06
-3.40627e+06
-3.40611e+06
-3.40594e+06
-3.40577e+06
-3.40561e+06
-3.40544e+06
-3.40527e+06
-3.40511e+06
-3.40494e+06
-3.40477e+06
-3.40461e+06
-3.40444e+06
-3.40427e+06
-3.4041e+06
-3.40394e+06
-3.40377e+06
-3.4036e+06
-3.40344e+06
-3.40327e+06
-3.4031e+06
-3.40293e+06
-3.40276e+06
-3.4026e+06
-3.40243e+06
-3.40226e+06
-3.40209e+06
-3.40192e+06
-3.40176e+06
-3.40159e+06
-3.40142e+06
-3.40125e+06
-3.40108e+06
-3.40091e+06
-3.40075e+06
-3.40058e+06
-3.40041e+06
-3.40024e+06
-3.40007e+06
-3.3999e+06
-3.39973e+06
-3.39956e+06
-3.39939e+06
-3.39922e+06
-3.39905e+06
-3.39888e+06
-3.39872e+06
-3.39855e+06
-3.39838e+06
-3.39821e+06
-3.39804e+06
-3.39787e+06
-3.3977e+06
-3.39753e+06
-3.39736e+06
-3.39719e+06
-3.39702e+06
-3.39684e+06
-3.39667e+06
-3.3965e+06
-3.39633e+06
-3.39616e+06
-3.39599e+06
-3.39582e+06
-3.39565e+06
-3.39548e+06
-3.39531e+06
-3.39514e+06
-3.39497e+06
-3.39479e+06
-3.39462e+06
-3.39445e+06
-3.39428e+06