/*--------------------------------*- C++ -*----------------------------------*\
  =========                 |
  \\      /  F ield         | OpenFOAM: The Open Source CFD Toolbox
   \\    /   O peration     | Website:  https://openfoam.org
    \\  /    A nd           | Version:  9
     \\/     M anipulation  |
\*---------------------------------------------------------------------------*/
FoamFile
{
    format      ascii;
    class       volScalarField;
    location    "0.021";
    object      ddt0(rho,K);
}
// * * * * * * * * * * * * * * * * * * * * * * * * * * * * * * * * * * * * * //

dimensions      [1 -1 -3 0 0 0 0];

internalField   nonuniform List<scalar> 
10000
(
332.017
325.778
327.955
326.964
323.624
319.969
316.461
312.653
308.249
303.246
297.737
291.791
285.441
278.696
271.554
264.002
256.028
247.622
238.775
229.472
219.707
209.506
198.89
187.86
176.362
164.419
152.041
139.227
125.975
112.284
98.1513
83.5779
68.5648
53.1133
37.224
20.8972
4.13181
-13.0719
-30.7151
-48.7977
-67.3193
-86.2809
-105.681
-125.52
-145.8
-166.517
-187.674
-209.27
-231.305
-253.779
-276.692
-300.044
-323.835
-348.067
-372.736
-397.844
-423.393
-449.379
-475.805
-502.671
-529.976
-557.718
-585.899
-614.522
-643.585
-673.084
-703.021
-733.399
-764.219
-795.477
-827.172
-859.304
-891.877
-924.893
-958.348
-992.242
-1026.57
-1061.34
-1096.54
-1132.19
-1168.27
-1204.8
-1241.77
-1279.17
-1317.02
-1355.3
-1394.03
-1433.19
-1472.79
-1512.83
-1553.31
-1594.23
-1635.59
-1677.39
-1719.62
-1762.3
-1805.41
-1848.97
-1892.96
-1937.39
-1982.26
-2027.58
-2073.33
-2119.52
-2166.15
-2213.22
-2260.72
-2308.67
-2357.05
-2405.88
-2455.14
-2504.85
-2554.99
-2605.58
-2656.6
-2708.06
-2759.96
-2812.3
-2865.08
-2918.3
-2971.95
-3026.05
-3080.59
-3135.56
-3190.97
-3246.83
-3303.12
-3359.85
-3417.02
-3474.64
-3532.69
-3591.18
-3650.1
-3709.47
-3769.28
-3829.53
-3890.21
-3951.34
-4012.9
-4074.91
-4137.35
-4200.23
-4263.56
-4327.32
-4391.52
-4456.16
-4521.24
-4586.76
-4652.71
-4719.11
-4785.95
-4853.23
-4920.95
-4989.1
-5057.7
-5126.73
-5196.2
-5266.11
-5336.45
-5407.24
-5478.47
-5550.14
-5622.25
-5694.8
-5767.79
-5841.22
-5915.09
-5989.39
-6064.14
-6139.33
-6214.95
-6291.01
-6367.52
-6444.46
-6521.84
-6599.66
-6677.92
-6756.62
-6835.76
-6915.34
-6995.36
-7075.81
-7156.71
-7238.05
-7319.82
-7402.04
-7484.69
-7567.79
-7651.32
-7735.29
-7819.7
-7904.55
-7989.84
-8075.57
-8161.74
-8248.35
-8335.4
-8422.89
-8510.82
-8599.19
-8687.99
-8777.24
-8866.92
-8957.05
-9047.61
-9138.61
-9230.05
-9321.93
-9414.25
-9507.01
-9600.21
-9693.85
-9787.92
-9882.44
-9977.4
-10072.8
-10168.6
-10264.9
-10361.6
-10458.8
-10556.4
-10654.4
-10752.9
-10851.8
-10951.1
-11050.9
-11151.2
-11251.8
-11352.9
-11454.5
-11556.5
-11658.9
-11761.8
-11865.1
-11968.8
-12073
-12177.6
-12282.7
-12388.2
-12494.1
-12600.5
-12707.3
-12814.6
-12922.3
-13030.4
-13139
-13248
-13357.5
-13467.4
-13577.7
-13688.5
-13799.7
-13911.3
-14023.4
-14136
-14248.9
-14362.4
-14476.2
-14590.5
-14705.2
-14820.4
-14936
-15052
-15168.5
-15285.5
-15402.8
-15520.6
-15638.9
-15757.6
-15876.7
-15996.2
-16116.2
-16236.7
-16357.6
-16478.9
-16600.6
-16722.8
-16845.5
-16968.6
-17092.1
-17216
-17340.4
-17465.3
-17590.5
-17716.3
-17842.4
-17969
-18096
-18223.5
-18351.4
-18479.8
-18608.6
-18737.8
-18867.4
-18997.6
-19128.1
-19259.1
-19390.5
-19522.4
-19654.7
-19787.4
-19920.6
-20054.2
-20188.3
-20322.8
-20457.7
-20593.1
-20728.9
-20865.2
-21001.9
-21139
-21276.6
-21414.6
-21553
-21691.9
-21831.3
-21971
-22111.2
-22251.9
-22393
-22534.5
-22676.5
-22818.9
-22961.7
-23105
-23248.7
-23392.9
-23537.5
-23682.5
-23828
-23973.9
-24120.3
-24267.1
-24414.3
-24562
-24710.1
-24858.7
-25007.7
-25157.1
-25307
-25457.3
-25608.1
-25759.3
-25910.9
-26063
-26215.5
-26368.4
-26521.8
-26675.6
-26829.9
-26984.6
-27139.7
-27295.3
-27451.4
-27607.8
-27764.7
-27922.1
-28079.8
-28238.1
-28396.7
-28555.8
-28715.3
-28875.3
-29035.7
-29196.6
-29357.9
-29519.6
-29681.8
-29844.4
-30007.4
-30170.9
-30334.9
-30499.2
-30664
-30829.3
-30995
-31161.1
-31327.6
-31494.6
-31662.1
-31830
-31998.3
-32167.1
-32336.2
-32505.9
-32676
-32846.5
-33017.4
-33188.8
-33360.6
-33532.9
-33705.6
-33878.8
-34052.4
-34226.4
-34400.8
-34575.8
-34751.1
-34926.9
-35103.1
-35279.8
-35456.9
-35634.4
-35812.4
-35990.8
-36169.6
-36348.9
-36528.7
-36708.8
-36889.5
-37070.5
-37252
-37433.9
-37616.3
-37799.1
-37982.3
-38166
-38350.1
-38534.7
-38719.7
-38905.1
-39091
-39277.3
-39464.1
-39651.3
-39838.9
-40027
-40215.5
-40404.5
-40593.8
-40783.7
-40973.9
-41164.6
-41355.8
-41547.4
-41739.4
-41931.9
-42124.8
-42318.1
-42511.9
-42706.1
-42900.8
-43095.9
-43291.4
-43487.4
-43683.8
-43880.6
-44077.9
-44275.6
-44473.8
-44672.4
-44871.4
-45070.9
-45270.9
-45471.2
-45672
-45873.2
-46074.9
-46277
-46479.6
-46682.6
-46886
-47089.9
-47294.2
-47498.9
-47704.1
-47909.8
-48115.8
-48322.3
-48529.3
-48736.6
-48944.5
-49152.7
-49361.4
-49570.5
-49780.1
-49990.1
-50200.6
-50411.5
-50622.8
-50834.6
-51046.8
-51259.4
-51472.5
-51686
-51900
-52114.4
-52329.2
-52544.5
-52760.2
-52976.3
-53192.9
-53410
-53627.4
-53845.3
-54063.7
-54282.5
-54501.7
-54721.3
-54941.4
-55162
-55382.9
-55604.3
-55826.2
-56048.5
-56271.2
-56494.4
-56718
-56942
-57166.5
-57391.4
-57616.8
-57842.6
-58068.8
-58295.5
-58522.6
-58750.2
-58978.2
-59206.6
-59435.4
-59664.7
-59894.5
-60124.7
-60355.3
-60586.3
-60817.8
-61049.8
-61282.1
-61515
-61748.2
-61981.9
-62216
-62450.6
-62685.6
-62921
-63156.9
-63393.2
-63630
-63867.2
-64104.8
-64342.9
-64581.4
-64820.3
-65059.7
-65299.5
-65539.8
-65780.5
-66021.6
-66263.2
-66505.2
-66747.7
-66990.6
-67233.9
-67477.7
-67721.9
-67966.5
-68211.6
-68457.1
-68703.1
-68949.4
-69196.3
-69443.5
-69691.3
-69939.4
-70188
-70437
-70686.5
-70936.4
-71186.7
-71437.5
-71688.7
-71940.3
-72192.4
-72445
-72697.9
-72951.3
-73205.2
-73459.4
-73714.2
-73969.3
-74224.9
-74480.9
-74737.4
-74994.3
-75251.6
-75509.4
-75767.6
-76026.3
-76285.4
-76544.9
-76804.9
-77065.3
-77326.2
-77587.4
-77849.2
-78111.3
-78373.9
-78637
-78900.4
-79164.3
-79428.7
-79693.5
-79958.7
-80224.3
-80490.4
-80757
-81024
-81291.4
-81559.2
-81827.5
-82096.2
-82365.4
-82635
-82905
-83175.5
-83446.4
-83717.8
-83989.5
-84261.8
-84534.4
-84807.5
-85081.1
-85355
-85629.5
-85904.3
-86179.6
-86455.3
-86731.5
-87008.1
-87285.1
-87562.6
-87840.5
-88118.9
-88397.6
-88676.9
-88956.5
-89236.6
-89517.2
-89798.1
-90079.6
-90361.4
-90643.7
-90926.4
-91209.6
-91493.2
-91777.2
-92061.7
-92346.6
-92632
-92917.7
-93204
-93490.6
-93777.7
-94065.3
-94353.2
-94641.6
-94930.5
-95219.8
-95509.5
-95799.6
-96090.2
-96381.3
-96672.7
-96964.7
-97257
-97549.8
-97843
-98136.7
-98430.7
-98725.3
-99020.2
-99315.6
-99611.5
-99907.8
-100204
-100502
-100799
-101097
-101396
-101695
-101994
-102294
-102594
-102895
-103196
-103497
-103799
-104102
-104404
-104708
-105011
-105315
-105620
-105925
-106231
-106536
-106843
-107150
-107457
-107764
-108072
-108381
-108690
-108999
-109309
-109619
-109930
-110241
-110553
-110865
-111177
-111490
-111803
-112117
-112431
-112746
-113061
-113377
-113692
-114009
-114326
-114643
-114961
-115279
-115597
-115916
-116236
-116556
-116876
-117197
-117518
-117839
-118161
-118484
-118807
-119130
-119454
-119778
-120103
-120428
-120754
-121079
-121406
-121733
-122060
-122388
-122716
-123044
-123374
-123703
-124033
-124363
-124694
-125025
-125357
-125689
-126021
-126354
-126688
-127022
-127356
-127691
-128026
-128361
-128697
-129034
-129371
-129708
-130046
-130384
-130723
-131062
-131401
-131741
-132081
-132422
-132763
-133105
-133447
-133790
-134133
-134476
-134820
-135164
-135509
-135854
-136200
-136546
-136892
-137239
-137587
-137934
-138283
-138631
-138980
-139330
-139680
-140030
-140381
-140732
-141084
-141436
-141789
-142142
-142495
-142849
-143203
-143558
-143913
-144269
-144625
-144982
-145338
-145696
-146054
-146412
-146771
-147130
-147489
-147849
-148210
-148570
-148932
-149293
-149656
-150018
-150381
-150745
-151109
-151473
-151838
-152203
-152569
-152935
-153301
-153668
-154035
-154403
-154772
-155140
-155509
-155879
-156249
-156619
-156990
-157362
-157733
-158105
-158478
-158851
-159225
-159598
-159973
-160348
-160723
-161098
-161475
-161851
-162228
-162605
-162983
-163361
-163740
-164119
-164499
-164879
-165259
-165640
-166021
-166403
-166785
-167168
-167551
-167935
-168318
-168703
-169088
-169473
-169858
-170245
-170631
-171018
-171405
-171793
-172181
-172570
-172959
-173349
-173739
-174129
-174520
-174911
-175303
-175695
-176088
-176481
-176875
-177268
-177663
-178058
-178453
-178848
-179245
-179641
-180038
-180435
-180833
-181231
-181630
-182029
-182429
-182829
-183229
-183630
-184031
-184433
-184835
-185238
-185641
-186044
-186448
-186853
-187257
-187663
-188068
-188474
-188881
-189288
-189695
-190103
-190511
-190920
-191329
-191739
-192148
-192559
-192970
-193381
-193793
-194205
-194617
-195030
-195444
-195858
-196272
-196687
-197102
-197518
-197934
-198350
-198767
-199184
-199602
-200020
-200439
-200858
-201278
-201698
-202118
-202539
-202960
-203382
-203804
-204226
-204649
-205073
-205497
-205921
-206346
-206771
-207196
-207623
-208049
-208476
-208903
-209331
-209759
-210188
-210617
-211046
-211476
-211907
-212337
-212769
-213200
-213632
-214065
-214498
-214931
-215365
-215799
-216234
-216669
-217104
-217540
-217977
-218414
-218851
-219289
-219727
-220165
-220604
-221044
-221484
-221924
-222365
-222806
-223248
-223690
-224132
-224575
-225018
-225462
-225906
-226351
-226796
-227241
-227687
-228134
-228580
-229028
-229475
-229923
-230372
-230821
-231270
-231720
-232170
-232621
-233072
-233524
-233976
-234428
-234881
-235334
-235788
-236242
-236696
-237151
-237607
-238063
-238519
-238976
-239433
-239890
-240348
-240807
-241266
-241725
-242185
-242645
-243106
-243567
-244028
-244490
-244952
-245415
-245878
-246342
-246806
-247270
-247735
-248201
-248666
-249133
-249599
-250066
-250534
-251002
-251470
-251939
-252408
-252878
-253348
-253818
-254289
-254761
-255232
-255705
-256177
-256650
-257124
-257598
-258072
-258547
-259022
-259498
-259974
-260451
-260928
-261405
-261883
-262361
-262840
-263319
-263798
-264278
-264759
-265240
-265721
-266203
-266685
-267167
-267650
-268134
-268618
-269102
-269587
-270072
-270557
-271043
-271530
-272017
-272504
-272992
-273480
-273968
-274457
-274947
-275437
-275927
-276418
-276909
-277400
-277892
-278385
-278878
-279371
-279865
-280359
-280853
-281348
-281844
-282340
-282836
-283333
-283830
-284328
-284826
-285324
-285823
-286322
-286822
-287322
-287823
-288324
-288825
-289327
-289829
-290332
-290835
-291339
-291843
-292347
-292852
-293358
-293863
-294370
-294876
-295383
-295891
-296399
-296907
-297416
-297925
-298434
-298944
-299455
-299966
-300477
-300989
-301501
-302014
-302527
-303040
-303554
-304068
-304583
-305098
-305614
-306130
-306646
-307163
-307680
-308198
-308716
-309235
-309754
-310273
-310793
-311314
-311834
-312356
-312877
-313399
-313922
-314444
-314968
-315491
-316016
-316540
-317065
-317591
-318117
-318643
-319170
-319697
-320224
-320752
-321281
-321810
-322339
-322869
-323399
-323929
-324460
-324992
-325524
-326056
-326589
-327122
-327655
-328189
-328724
-329259
-329794
-330329
-330866
-331402
-331939
-332477
-333014
-333553
-334091
-334630
-335170
-335710
-336250
-336791
-337332
-337874
-338416
-338959
-339502
-340045
-340589
-341133
-341678
-342223
-342768
-343314
-343861
-344407
-344955
-345502
-346050
-346599
-347148
-347697
-348247
-348797
-349347
-349899
-350450
-351002
-351554
-352107
-352660
-353213
-353767
-354322
-354877
-355432
-355987
-356544
-357100
-357657
-358214
-358772
-359330
-359889
-360448
-361007
-361567
-362127
-362688
-363249
-363811
-364373
-364936
-365498
-366062
-366626
-367190
-367755
-368320
-368885
-369451
-370018
-370585
-371152
-371720
-372288
-372857
-373426
-373996
-374566
-375136
-375707
-376279
-376851
-377423
-377996
-378569
-379142
-379716
-380291
-380866
-381441
-382016
-382592
-383169
-383746
-384323
-384901
-385479
-386057
-386636
-387215
-387795
-388375
-388955
-389536
-390117
-390698
-391280
-391863
-392445
-393028
-393612
-394196
-394780
-395365
-395950
-396536
-397122
-397708
-398295
-398882
-399470
-400058
-400647
-401236
-401826
-402416
-403006
-403597
-404188
-404780
-405372
-405965
-406558
-407151
-407745
-408339
-408934
-409529
-410125
-410721
-411318
-411915
-412512
-413110
-413708
-414307
-414906
-415505
-416105
-416705
-417306
-417907
-418509
-419111
-419713
-420316
-420919
-421523
-422127
-422732
-423337
-423942
-424548
-425154
-425761
-426368
-426975
-427583
-428191
-428800
-429409
-430019
-430629
-431239
-431850
-432462
-433073
-433685
-434298
-434911
-435524
-436138
-436752
-437367
-437982
-438598
-439214
-439830
-440447
-441064
-441681
-442300
-442918
-443537
-444156
-444776
-445396
-446017
-446638
-447259
-447881
-448503
-449126
-449749
-450372
-450996
-451621
-452245
-452871
-453496
-454122
-454749
-455376
-456003
-456631
-457259
-457887
-458516
-459146
-459776
-460406
-461037
-461668
-462299
-462931
-463564
-464196
-464830
-465463
-466097
-466732
-467367
-468002
-468638
-469274
-469910
-470547
-471185
-471822
-472461
-473099
-473738
-474378
-475018
-475658
-476299
-476940
-477582
-478224
-478866
-479509
-480152
-480796
-481440
-482085
-482730
-483375
-484021
-484667
-485314
-485961
-486608
-487256
-487904
-488553
-489202
-489852
-490502
-491152
-491803
-492454
-493106
-493758
-494411
-495063
-495718
-496370
-497026
-497678
-498337
-498987
-499650
-500297
-500965
-501609
-502282
-502921
-503602
-504235
-504924
-505549
-506248
-506866
-507571
-508188
-508893
-509515
-510212
-510850
-511524
-512198
-512846
-513512
-514183
-514845
-515507
-516178
-516849
-517518
-518180
-518848
-519516
-520185
-520851
-521522
-522193
-522867
-523537
-524212
-524872
-525567
-526198
-526930
-527521
-528300
-528853
-529665
-530198
-531011
-531565
-532334
-532954
-533637
-534366
-534951
-535755
-536275
-537138
-537634
-538477
-539025
-539792
-540452
-541088
-541873
-542401
-543270
-543767
-544634
-545151
-545956
-546584
-547257
-548018
-548575
-549444
-549916
-550822
-551319
-552144
-552769
-553433
-554236
-554741
-555665
-556112
-557021
-557558
-558314
-559047
-559596
-560514
-560940
-561898
-562387
-563188
-563903
-564453
-565392
-565801
-566768
-567262
-568062
-568786
-569341
-570270
-570697
-571663
-572154
-572959
-573688
-574233
-575193
-575593
-576574
-577093
-577841
-578653
-579118
-580140
-580527
-581471
-582090
-582702
-583669
-584021
-585080
-585537
-586319
-587171
-587578
-588643
-589030
-589958
-590624
-591187
-592194
-592559
-593584
-594104
-594831
-595723
-596116
-597201
-597606
-598476
-599251
-599710
-600810
-601138
-602123
-602792
-603318
-604405
-604708
-605748
-606354
-606961
-607977
-608317
-609387
-609904
-610623
-611563
-611918
-613048
-613473
-614275
-615188
-615520
-616704
-617078
-617909
-618837
-619147
-620332
-620730
-621553
-622458
-622805
-623976
-624381
-625213
-626102
-626470
-627642
-628024
-628876
-629780
-630108
-631332
-631702
-632512
-633506
-633759
-634987
-635439
-636136
-637211
-637469
-638630
-639173
-639808
-640911
-641173
-642308
-642913
-643461
-644651
-644885
-645964
-646707
-647107
-648382
-648656
-649587
-650517
-650794
-652071
-652472
-653223
-654306
-654535
-655745
-656300
-656885
-658083
-658301
-659415
-660155
-660543
-661860
-662131
-663024
-664053
-664261
-665537
-666057
-666654
-667860
-668096
-669192
-669950
-670354
-671648
-671957
-672828
-673882
-674085
-675352
-675939
-676438
-677737
-677989
-678950
-679910
-680199
-681453
-681955
-682614
-683799
-684036
-685140
-685965
-686283
-687619
-688045
-688711
-689940
-690180
-691230
-692096
-692467
-693705
-694181
-694909
-696044
-696319
-697420
-698246
-698595
-699887
-700384
-701018
-702229
-702557
-703521
-704444
-704839
-706010
-706591
-707241
-708408
-708758
-709717
-710693
-711019
-712195
-712894
-713400
-714611
-715078
-715869
-716935
-717314
-718370
-719180
-719639
-720837
-721393
-722054
-723228
-723628
-724531
-725532
-725925
-727019
-727778
-728299
-729469
-730012
-730740
-731855
-732276
-733220
-734174
-734599
-735698
-736448
-736992
-738144
-738712
-739442
-740538
-740999
-741923
-742881
-743331
-744408
-745191
-745716
-746865
-747493
-748154
-749276
-749807
-750635
-751645
-752141
-753132
-753989
-754509
-755616
-756327
-756919
-758062
-758670
-759378
-760466
-761019
-761874
-762847
-763377
-764376
-765223
-765760
-766856
-767600
-768189
-769303
-769970
-770664
-771727
-772331
-773166
-774151
-774696
-775660
-776577
-777096
-778130
-778986
-779549
-780593
-781361
-782028
-783074
-783732
-784498
-785555
-786135
-786966
-788003
-788571
-789457
-790418
-791012
-791973
-792837
-793445
-794479
-795277
-795902
-796959
-797710
-798392
-799440
-800134
-800887
-801923
-802571
-803386
-804398
-805020
-805892
-806866
-807478
-808405
-809333
-809944
-810912
-811802
-812430
-813420
-814262
-814926
-815937
-816721
-817421
-818457
-819198
-819915
-820960
-821691
-822436
-823450
-824165
-824975
-825968
-826635
-827486
-828492
-829145
-829998
-830985
-831661
-832544
-833482
-834155
-835089
-836006
-836660
-837612
-838531
-839193
-840139
-841035
-841730
-842694
-843544
-844248
-845244
-846084
-846777
-847773
-848619
-849331
-850314
-851137
-851882
-852875
-853670
-854420
-855429
-856224
-856967
-857971
-858774
-859536
-860523
-861311
-862102
-863095
-863862
-864649
-865661
-866440
-867214
-868207
-869000
-869806
-870781
-871549
-872368
-873369
-874137
-874929
-875928
-876722
-877529
-878501
-879283
-880111
-881100
-881876
-882681
-883676
-884474
-885283
-886260
-887056
-887876
-888859
-889657
-890465
-891451
-892260
-893068
-894050
-894864
-895670
-896650
-897476
-898277
-899254
-900085
-900887
-901867
-902703
-903497
-904472
-905331
-906120
-907082
-907945
-908743
-909714
-910576
-911356
-912322
-913221
-914002
-914939
-915836
-916633
-917587
-918483
-919256
-920198
-921137
-921922
-922827
-923756
-924561
-925489
-926420
-927198
-928101
-929074
-929884
-930752
-931702
-932524
-933416
-934378
-935186
-936044
-937029
-937878
-938713
-939671
-940531
-941386
-942353
-943207
-944028
-945004
-945908
-946722
-947660
-948561
-949398
-950351
-951262
-952065
-952996
-953952
-954779
-955683
-956619
-957453
-958366
-959330
-960161
-961034
-962004
-962866
-963739
-964701
-965568
-966423
-967391
-968284
-969128
-970087
-970993
-971832
-972778
-973711
-974553
-975480
-976420
-977263
-978187
-979147
-979995
-980883
-981850
-982727
-983615
-984576
-985447
-986317
-987293
-988207
-989057
-989998
-990921
-991789
-992744
-993678
-994520
-995440
-996411
-997289
-998194
-999143
-1.00001e+06
-1.00092e+06
-1.0019e+06
-1.0028e+06
-1.00366e+06
-1.00461e+06
-1.00554e+06
-1.00642e+06
-1.00738e+06
-1.0083e+06
-1.00916e+06
-1.0101e+06
-1.01107e+06
-1.01195e+06
-1.01287e+06
-1.01381e+06
-1.0147e+06
-1.01561e+06
-1.01659e+06
-1.01749e+06
-1.01837e+06
-1.01933e+06
-1.02025e+06
-1.02115e+06
-1.02211e+06
-1.02304e+06
-1.02391e+06
-1.02486e+06
-1.02582e+06
-1.0267e+06
-1.02763e+06
-1.02859e+06
-1.02949e+06
-1.0304e+06
-1.03137e+06
-1.03229e+06
-1.03318e+06
-1.03415e+06
-1.03508e+06
-1.03597e+06
-1.03692e+06
-1.03788e+06
-1.03877e+06
-1.03971e+06
-1.04067e+06
-1.04157e+06
-1.04249e+06
-1.04346e+06
-1.04438e+06
-1.04529e+06
-1.04626e+06
-1.04719e+06
-1.04809e+06
-1.04905e+06
-1.05001e+06
-1.0509e+06
-1.05185e+06
-1.05281e+06
-1.05372e+06
-1.05465e+06
-1.05563e+06
-1.05655e+06
-1.05746e+06
-1.05843e+06
-1.05937e+06
-1.06028e+06
-1.06124e+06
-1.06219e+06
-1.0631e+06
-1.06405e+06
-1.06502e+06
-1.06594e+06
-1.06687e+06
-1.06784e+06
-1.06877e+06
-1.0697e+06
-1.07067e+06
-1.07162e+06
-1.07253e+06
-1.07349e+06
-1.07445e+06
-1.07537e+06
-1.07633e+06
-1.0773e+06
-1.07822e+06
-1.07915e+06
-1.08013e+06
-1.08107e+06
-1.082e+06
-1.08297e+06
-1.08393e+06
-1.08484e+06
-1.0858e+06
-1.08678e+06
-1.08771e+06
-1.08866e+06
-1.08963e+06
-1.09056e+06
-1.0915e+06
-1.09248e+06
-1.09344e+06
-1.09437e+06
-1.09533e+06
-1.0963e+06
-1.09723e+06
-1.09819e+06
-1.09917e+06
-1.10011e+06
-1.10105e+06
-1.10203e+06
-1.10298e+06
-1.10392e+06
-1.1049e+06
-1.10587e+06
-1.1068e+06
-1.10776e+06
-1.10874e+06
-1.10968e+06
-1.11063e+06
-1.11162e+06
-1.11258e+06
-1.11352e+06
-1.1145e+06
-1.11547e+06
-1.1164e+06
-1.11737e+06
-1.11836e+06
-1.1193e+06
-1.12026e+06
-1.12125e+06
-1.12221e+06
-1.12315e+06
-1.12413e+06
-1.1251e+06
-1.12605e+06
-1.12702e+06
-1.12801e+06
-1.12896e+06
-1.12992e+06
-1.13091e+06
-1.13187e+06
-1.13282e+06
-1.13381e+06
-1.13478e+06
-1.13573e+06
-1.13671e+06
-1.1377e+06
-1.13865e+06
-1.13961e+06
-1.14061e+06
-1.14158e+06
-1.14253e+06
-1.14351e+06
-1.1445e+06
-1.14546e+06
-1.14643e+06
-1.14742e+06
-1.14839e+06
-1.14935e+06
-1.15034e+06
-1.15132e+06
-1.15228e+06
-1.15327e+06
-1.15426e+06
-1.15522e+06
-1.15619e+06
-1.15719e+06
-1.15816e+06
-1.15913e+06
-1.16012e+06
-1.1611e+06
-1.16207e+06
-1.16305e+06
-1.16405e+06
-1.16502e+06
-1.16599e+06
-1.16699e+06
-1.16797e+06
-1.16893e+06
-1.16993e+06
-1.17092e+06
-1.1719e+06
-1.17288e+06
-1.17388e+06
-1.17486e+06
-1.17583e+06
-1.17683e+06
-1.17782e+06
-1.17879e+06
-1.17978e+06
-1.18079e+06
-1.18176e+06
-1.18274e+06
-1.18374e+06
-1.18473e+06
-1.18571e+06
-1.18671e+06
-1.18771e+06
-1.18868e+06
-1.18967e+06
-1.19068e+06
-1.19166e+06
-1.19264e+06
-1.19365e+06
-1.19465e+06
-1.19562e+06
-1.19662e+06
-1.19763e+06
-1.19861e+06
-1.1996e+06
-1.20061e+06
-1.20161e+06
-1.20259e+06
-1.20359e+06
-1.20459e+06
-1.20558e+06
-1.20657e+06
-1.20758e+06
-1.20858e+06
-1.20957e+06
-1.21058e+06
-1.21158e+06
-1.21257e+06
-1.21356e+06
-1.21458e+06
-1.21557e+06
-1.21657e+06
-1.21758e+06
-1.21859e+06
-1.21958e+06
-1.22058e+06
-1.22159e+06
-1.22259e+06
-1.22358e+06
-1.2246e+06
-1.22561e+06
-1.2266e+06
-1.22761e+06
-1.22862e+06
-1.22962e+06
-1.23062e+06
-1.23164e+06
-1.23264e+06
-1.23364e+06
-1.23466e+06
-1.23568e+06
-1.23668e+06
-1.23768e+06
-1.2387e+06
-1.2397e+06
-1.2407e+06
-1.24172e+06
-1.24274e+06
-1.24374e+06
-1.24475e+06
-1.24578e+06
-1.24679e+06
-1.24779e+06
-1.24881e+06
-1.24982e+06
-1.25082e+06
-1.25184e+06
-1.25286e+06
-1.25388e+06
-1.25489e+06
-1.25592e+06
-1.25694e+06
-1.25794e+06
-1.25895e+06
-1.25998e+06
-1.26099e+06
-1.262e+06
-1.26303e+06
-1.26406e+06
-1.26507e+06
-1.26609e+06
-1.26712e+06
-1.26813e+06
-1.26914e+06
-1.27016e+06
-1.27119e+06
-1.27221e+06
-1.27323e+06
-1.27427e+06
-1.27529e+06
-1.2763e+06
-1.27733e+06
-1.27835e+06
-1.27937e+06
-1.28039e+06
-1.28142e+06
-1.28245e+06
-1.28347e+06
-1.2845e+06
-1.28554e+06
-1.28656e+06
-1.28758e+06
-1.28861e+06
-1.28964e+06
-1.29066e+06
-1.29169e+06
-1.29272e+06
-1.29375e+06
-1.29478e+06
-1.29582e+06
-1.29685e+06
-1.29787e+06
-1.29891e+06
-1.29994e+06
-1.30097e+06
-1.30199e+06
-1.30303e+06
-1.30407e+06
-1.3051e+06
-1.30614e+06
-1.30718e+06
-1.30821e+06
-1.30924e+06
-1.31028e+06
-1.31131e+06
-1.31234e+06
-1.31337e+06
-1.31442e+06
-1.31545e+06
-1.31649e+06
-1.31753e+06
-1.31858e+06
-1.31961e+06
-1.32065e+06
-1.3217e+06
-1.32274e+06
-1.32377e+06
-1.32481e+06
-1.32586e+06
-1.32689e+06
-1.32793e+06
-1.32898e+06
-1.33002e+06
-1.33105e+06
-1.3321e+06
-1.33315e+06
-1.33419e+06
-1.33523e+06
-1.33629e+06
-1.33733e+06
-1.33837e+06
-1.33942e+06
-1.34047e+06
-1.34151e+06
-1.34255e+06
-1.3436e+06
-1.34465e+06
-1.34569e+06
-1.34674e+06
-1.34779e+06
-1.34885e+06
-1.34989e+06
-1.35095e+06
-1.352e+06
-1.35305e+06
-1.3541e+06
-1.35515e+06
-1.3562e+06
-1.35725e+06
-1.3583e+06
-1.35935e+06
-1.36041e+06
-1.36146e+06
-1.36251e+06
-1.36357e+06
-1.36463e+06
-1.36568e+06
-1.36674e+06
-1.3678e+06
-1.36885e+06
-1.36991e+06
-1.37097e+06
-1.37202e+06
-1.37307e+06
-1.37413e+06
-1.37519e+06
-1.37624e+06
-1.3773e+06
-1.37836e+06
-1.37942e+06
-1.38048e+06
-1.38154e+06
-1.38261e+06
-1.38367e+06
-1.38473e+06
-1.38579e+06
-1.38686e+06
-1.38791e+06
-1.38897e+06
-1.39004e+06
-1.3911e+06
-1.39216e+06
-1.39322e+06
-1.39429e+06
-1.39535e+06
-1.39641e+06
-1.39748e+06
-1.39854e+06
-1.39961e+06
-1.40068e+06
-1.40175e+06
-1.40281e+06
-1.40388e+06
-1.40495e+06
-1.40602e+06
-1.40708e+06
-1.40815e+06
-1.40922e+06
-1.41029e+06
-1.41136e+06
-1.41243e+06
-1.41351e+06
-1.41458e+06
-1.41565e+06
-1.41673e+06
-1.4178e+06
-1.41887e+06
-1.41995e+06
-1.42103e+06
-1.4221e+06
-1.42318e+06
-1.42426e+06
-1.42534e+06
-1.42641e+06
-1.42749e+06
-1.42857e+06
-1.42965e+06
-1.43072e+06
-1.4318e+06
-1.43288e+06
-1.43396e+06
-1.43503e+06
-1.43611e+06
-1.43719e+06
-1.43827e+06
-1.43935e+06
-1.44043e+06
-1.44151e+06
-1.44259e+06
-1.44367e+06
-1.44475e+06
-1.44583e+06
-1.44691e+06
-1.44799e+06
-1.44908e+06
-1.45016e+06
-1.45124e+06
-1.45233e+06
-1.45341e+06
-1.45449e+06
-1.45558e+06
-1.45667e+06
-1.45775e+06
-1.45884e+06
-1.45992e+06
-1.46101e+06
-1.4621e+06
-1.46318e+06
-1.46427e+06
-1.46536e+06
-1.46645e+06
-1.46754e+06
-1.46863e+06
-1.46972e+06
-1.47081e+06
-1.4719e+06
-1.47299e+06
-1.47408e+06
-1.47517e+06
-1.47626e+06
-1.47736e+06
-1.47845e+06
-1.47954e+06
-1.48064e+06
-1.48173e+06
-1.48282e+06
-1.48392e+06
-1.48501e+06
-1.48611e+06
-1.4872e+06
-1.4883e+06
-1.4894e+06
-1.49049e+06
-1.49159e+06
-1.49269e+06
-1.49378e+06
-1.49488e+06
-1.49598e+06
-1.49708e+06
-1.49818e+06
-1.49928e+06
-1.50038e+06
-1.50148e+06
-1.50258e+06
-1.50368e+06
-1.50478e+06
-1.50588e+06
-1.50698e+06
-1.50808e+06
-1.50919e+06
-1.51029e+06
-1.51139e+06
-1.51249e+06
-1.5136e+06
-1.51471e+06
-1.51581e+06
-1.51691e+06
-1.51802e+06
-1.51913e+06
-1.52023e+06
-1.52134e+06
-1.52245e+06
-1.52355e+06
-1.52466e+06
-1.52577e+06
-1.52688e+06
-1.52798e+06
-1.52909e+06
-1.5302e+06
-1.53131e+06
-1.53242e+06
-1.53353e+06
-1.53464e+06
-1.53575e+06
-1.53686e+06
-1.53797e+06
-1.53909e+06
-1.5402e+06
-1.54131e+06
-1.54242e+06
-1.54354e+06
-1.54465e+06
-1.54577e+06
-1.54688e+06
-1.548e+06
-1.54911e+06
-1.55023e+06
-1.55134e+06
-1.55246e+06
-1.55357e+06
-1.55469e+06
-1.55581e+06
-1.55693e+06
-1.55804e+06
-1.55916e+06
-1.56028e+06
-1.5614e+06
-1.56252e+06
-1.56364e+06
-1.56476e+06
-1.56588e+06
-1.567e+06
-1.56812e+06
-1.56924e+06
-1.57036e+06
-1.57148e+06
-1.57261e+06
-1.57373e+06
-1.57485e+06
-1.57598e+06
-1.5771e+06
-1.57822e+06
-1.57935e+06
-1.58047e+06
-1.5816e+06
-1.58272e+06
-1.58385e+06
-1.58498e+06
-1.5861e+06
-1.58723e+06
-1.58836e+06
-1.58948e+06
-1.59061e+06
-1.59174e+06
-1.59287e+06
-1.594e+06
-1.59513e+06
-1.59626e+06
-1.59739e+06
-1.59852e+06
-1.59965e+06
-1.60078e+06
-1.60191e+06
-1.60304e+06
-1.60417e+06
-1.6053e+06
-1.60644e+06
-1.60757e+06
-1.6087e+06
-1.60984e+06
-1.61097e+06
-1.61211e+06
-1.61324e+06
-1.61438e+06
-1.61551e+06
-1.61665e+06
-1.61778e+06
-1.61892e+06
-1.62006e+06
-1.62119e+06
-1.62233e+06
-1.62347e+06
-1.62461e+06
-1.62575e+06
-1.62688e+06
-1.62802e+06
-1.62916e+06
-1.6303e+06
-1.63144e+06
-1.63258e+06
-1.63372e+06
-1.63486e+06
-1.636e+06
-1.63715e+06
-1.63829e+06
-1.63943e+06
-1.64057e+06
-1.64172e+06
-1.64286e+06
-1.644e+06
-1.64515e+06
-1.64629e+06
-1.64744e+06
-1.64858e+06
-1.64973e+06
-1.65087e+06
-1.65202e+06
-1.65317e+06
-1.65431e+06
-1.65546e+06
-1.65661e+06
-1.65776e+06
-1.6589e+06
-1.66005e+06
-1.6612e+06
-1.66235e+06
-1.6635e+06
-1.66465e+06
-1.6658e+06
-1.66695e+06
-1.6681e+06
-1.66925e+06
-1.6704e+06
-1.67156e+06
-1.67271e+06
-1.67386e+06
-1.67501e+06
-1.67617e+06
-1.67732e+06
-1.67847e+06
-1.67963e+06
-1.68078e+06
-1.68194e+06
-1.68309e+06
-1.68425e+06
-1.6854e+06
-1.68656e+06
-1.68772e+06
-1.68887e+06
-1.69003e+06
-1.69119e+06
-1.69234e+06
-1.6935e+06
-1.69466e+06
-1.69582e+06
-1.69698e+06
-1.69814e+06
-1.6993e+06
-1.70046e+06
-1.70162e+06
-1.70278e+06
-1.70394e+06
-1.7051e+06
-1.70626e+06
-1.70742e+06
-1.70859e+06
-1.70975e+06
-1.71091e+06
-1.71207e+06
-1.71324e+06
-1.7144e+06
-1.71557e+06
-1.71673e+06
-1.7179e+06
-1.71906e+06
-1.72023e+06
-1.72139e+06
-1.72256e+06
-1.72373e+06
-1.72489e+06
-1.72606e+06
-1.72723e+06
-1.72839e+06
-1.72956e+06
-1.73073e+06
-1.7319e+06
-1.73307e+06
-1.73424e+06
-1.73541e+06
-1.73658e+06
-1.73775e+06
-1.73892e+06
-1.74009e+06
-1.74126e+06
-1.74243e+06
-1.74361e+06
-1.74478e+06
-1.74595e+06
-1.74712e+06
-1.7483e+06
-1.74947e+06
-1.75064e+06
-1.75182e+06
-1.75299e+06
-1.75417e+06
-1.75534e+06
-1.75652e+06
-1.75769e+06
-1.75887e+06
-1.76005e+06
-1.76122e+06
-1.7624e+06
-1.76358e+06
-1.76476e+06
-1.76593e+06
-1.76711e+06
-1.76829e+06
-1.76947e+06
-1.77065e+06
-1.77183e+06
-1.77301e+06
-1.77419e+06
-1.77537e+06
-1.77655e+06
-1.77773e+06
-1.77891e+06
-1.78009e+06
-1.78128e+06
-1.78246e+06
-1.78364e+06
-1.78482e+06
-1.78601e+06
-1.78719e+06
-1.78837e+06
-1.78956e+06
-1.79074e+06
-1.79193e+06
-1.79311e+06
-1.7943e+06
-1.79549e+06
-1.79667e+06
-1.79786e+06
-1.79904e+06
-1.80023e+06
-1.80142e+06
-1.80261e+06
-1.80379e+06
-1.80498e+06
-1.80617e+06
-1.80736e+06
-1.80855e+06
-1.80974e+06
-1.81093e+06
-1.81212e+06
-1.81331e+06
-1.8145e+06
-1.81569e+06
-1.81688e+06
-1.81807e+06
-1.81927e+06
-1.82046e+06
-1.82165e+06
-1.82284e+06
-1.82404e+06
-1.82523e+06
-1.82642e+06
-1.82762e+06
-1.82881e+06
-1.83001e+06
-1.8312e+06
-1.8324e+06
-1.83359e+06
-1.83479e+06
-1.83598e+06
-1.83718e+06
-1.83838e+06
-1.83957e+06
-1.84077e+06
-1.84197e+06
-1.84317e+06
-1.84437e+06
-1.84556e+06
-1.84676e+06
-1.84796e+06
-1.84916e+06
-1.85036e+06
-1.85156e+06
-1.85276e+06
-1.85396e+06
-1.85516e+06
-1.85637e+06
-1.85757e+06
-1.85877e+06
-1.85997e+06
-1.86117e+06
-1.86238e+06
-1.86358e+06
-1.86478e+06
-1.86599e+06
-1.86719e+06
-1.86839e+06
-1.8696e+06
-1.8708e+06
-1.87201e+06
-1.87321e+06
-1.87442e+06
-1.87563e+06
-1.87683e+06
-1.87804e+06
-1.87924e+06
-1.88045e+06
-1.88166e+06
-1.88287e+06
-1.88407e+06
-1.88528e+06
-1.88649e+06
-1.8877e+06
-1.88891e+06
-1.89012e+06
-1.89133e+06
-1.89254e+06
-1.89375e+06
-1.89496e+06
-1.89617e+06
-1.89738e+06
-1.89859e+06
-1.8998e+06
-1.90102e+06
-1.90223e+06
-1.90344e+06
-1.90465e+06
-1.90587e+06
-1.90708e+06
-1.90829e+06
-1.90951e+06
-1.91072e+06
-1.91194e+06
-1.91315e+06
-1.91437e+06
-1.91558e+06
-1.9168e+06
-1.91801e+06
-1.91923e+06
-1.92045e+06
-1.92166e+06
-1.92288e+06
-1.9241e+06
-1.92531e+06
-1.92653e+06
-1.92775e+06
-1.92897e+06
-1.93019e+06
-1.9314e+06
-1.93262e+06
-1.93384e+06
-1.93506e+06
-1.93628e+06
-1.9375e+06
-1.93872e+06
-1.93994e+06
-1.94117e+06
-1.94239e+06
-1.94361e+06
-1.94483e+06
-1.94605e+06
-1.94727e+06
-1.9485e+06
-1.94972e+06
-1.95094e+06
-1.95217e+06
-1.95339e+06
-1.95461e+06
-1.95584e+06
-1.95706e+06
-1.95829e+06
-1.95951e+06
-1.96074e+06
-1.96196e+06
-1.96319e+06
-1.96442e+06
-1.96564e+06
-1.96687e+06
-1.96809e+06
-1.96932e+06
-1.97055e+06
-1.97178e+06
-1.973e+06
-1.97423e+06