/*--------------------------------*- C++ -*----------------------------------*\
  =========                 |
  \\      /  F ield         | OpenFOAM: The Open Source CFD Toolbox
   \\    /   O peration     | Website:  https://openfoam.org
    \\  /    A nd           | Version:  9
     \\/     M anipulation  |
\*---------------------------------------------------------------------------*/
FoamFile
{
    format      ascii;
    class       volScalarField;
    location    "0.021";
    object      ddt0(rho,e);
}
// * * * * * * * * * * * * * * * * * * * * * * * * * * * * * * * * * * * * * //

dimensions      [1 -1 -3 0 0 0 0];

internalField   nonuniform List<scalar> 
10000
(
1.17241e+06
1.17231e+06
1.17174e+06
1.17042e+06
1.16982e+06
1.17044e+06
1.17104e+06
1.17029e+06
1.16821e+06
1.1659e+06
1.16463e+06
1.16498e+06
1.16682e+06
1.16955e+06
1.17251e+06
1.1752e+06
1.17732e+06
1.1788e+06
1.17966e+06
1.18e+06
1.18012e+06
1.18052e+06
1.1815e+06
1.18154e+06
1.18148e+06
1.18144e+06
1.18142e+06
1.18142e+06
1.18143e+06
1.18144e+06
1.18145e+06
1.18147e+06
1.18148e+06
1.18149e+06
1.18151e+06
1.18152e+06
1.18154e+06
1.18155e+06
1.18157e+06
1.18158e+06
1.1816e+06
1.18161e+06
1.18163e+06
1.18164e+06
1.18166e+06
1.18167e+06
1.18169e+06
1.1817e+06
1.18172e+06
1.18173e+06
1.18175e+06
1.18176e+06
1.18178e+06
1.18179e+06
1.18181e+06
1.18182e+06
1.18184e+06
1.18185e+06
1.18187e+06
1.18188e+06
1.1819e+06
1.18191e+06
1.18193e+06
1.18194e+06
1.18196e+06
1.18197e+06
1.18199e+06
1.182e+06
1.18202e+06
1.18203e+06
1.18205e+06
1.18206e+06
1.18208e+06
1.18209e+06
1.1821e+06
1.18212e+06
1.18213e+06
1.18215e+06
1.18216e+06
1.18218e+06
1.18219e+06
1.18221e+06
1.18222e+06
1.18224e+06
1.18225e+06
1.18227e+06
1.18228e+06
1.1823e+06
1.18231e+06
1.18233e+06
1.18234e+06
1.18236e+06
1.18237e+06
1.18239e+06
1.1824e+06
1.18242e+06
1.18243e+06
1.18245e+06
1.18246e+06
1.18248e+06
1.18249e+06
1.18251e+06
1.18252e+06
1.18254e+06
1.18255e+06
1.18257e+06
1.18258e+06
1.18259e+06
1.18261e+06
1.18262e+06
1.18264e+06
1.18265e+06
1.18267e+06
1.18268e+06
1.1827e+06
1.18271e+06
1.18273e+06
1.18274e+06
1.18276e+06
1.18277e+06
1.18279e+06
1.1828e+06
1.18282e+06
1.18283e+06
1.18285e+06
1.18286e+06
1.18288e+06
1.18289e+06
1.18291e+06
1.18292e+06
1.18294e+06
1.18295e+06
1.18297e+06
1.18298e+06
1.18299e+06
1.18301e+06
1.18302e+06
1.18304e+06
1.18305e+06
1.18307e+06
1.18308e+06
1.1831e+06
1.18311e+06
1.18313e+06
1.18314e+06
1.18316e+06
1.18317e+06
1.18319e+06
1.1832e+06
1.18322e+06
1.18323e+06
1.18325e+06
1.18326e+06
1.18328e+06
1.18329e+06
1.18331e+06
1.18332e+06
1.18333e+06
1.18335e+06
1.18336e+06
1.18338e+06
1.18339e+06
1.18341e+06
1.18342e+06
1.18344e+06
1.18345e+06
1.18347e+06
1.18348e+06
1.1835e+06
1.18351e+06
1.18353e+06
1.18354e+06
1.18356e+06
1.18357e+06
1.18359e+06
1.1836e+06
1.18362e+06
1.18363e+06
1.18364e+06
1.18366e+06
1.18367e+06
1.18369e+06
1.1837e+06
1.18372e+06
1.18373e+06
1.18375e+06
1.18376e+06
1.18378e+06
1.18379e+06
1.18381e+06
1.18382e+06
1.18384e+06
1.18385e+06
1.18387e+06
1.18388e+06
1.1839e+06
1.18391e+06
1.18392e+06
1.18394e+06
1.18395e+06
1.18397e+06
1.18398e+06
1.184e+06
1.18401e+06
1.18403e+06
1.18404e+06
1.18406e+06
1.18407e+06
1.18409e+06
1.1841e+06
1.18412e+06
1.18413e+06
1.18415e+06
1.18416e+06
1.18417e+06
1.18419e+06
1.1842e+06
1.18422e+06
1.18423e+06
1.18425e+06
1.18426e+06
1.18428e+06
1.18429e+06
1.18431e+06
1.18432e+06
1.18434e+06
1.18435e+06
1.18437e+06
1.18438e+06
1.1844e+06
1.18441e+06
1.18442e+06
1.18444e+06
1.18445e+06
1.18447e+06
1.18448e+06
1.1845e+06
1.18451e+06
1.18453e+06
1.18454e+06
1.18456e+06
1.18457e+06
1.18459e+06
1.1846e+06
1.18462e+06
1.18463e+06
1.18464e+06
1.18466e+06
1.18467e+06
1.18469e+06
1.1847e+06
1.18472e+06
1.18473e+06
1.18475e+06
1.18476e+06
1.18478e+06
1.18479e+06
1.18481e+06
1.18482e+06
1.18484e+06
1.18485e+06
1.18486e+06
1.18488e+06
1.18489e+06
1.18491e+06
1.18492e+06
1.18494e+06
1.18495e+06
1.18497e+06
1.18498e+06
1.185e+06
1.18501e+06
1.18503e+06
1.18504e+06
1.18505e+06
1.18507e+06
1.18508e+06
1.1851e+06
1.18511e+06
1.18513e+06
1.18514e+06
1.18516e+06
1.18517e+06
1.18519e+06
1.1852e+06
1.18522e+06
1.18523e+06
1.18524e+06
1.18526e+06
1.18527e+06
1.18529e+06
1.1853e+06
1.18532e+06
1.18533e+06
1.18535e+06
1.18536e+06
1.18538e+06
1.18539e+06
1.18541e+06
1.18542e+06
1.18543e+06
1.18545e+06
1.18546e+06
1.18548e+06
1.18549e+06
1.18551e+06
1.18552e+06
1.18554e+06
1.18555e+06
1.18557e+06
1.18558e+06
1.18559e+06
1.18561e+06
1.18562e+06
1.18564e+06
1.18565e+06
1.18567e+06
1.18568e+06
1.1857e+06
1.18571e+06
1.18573e+06
1.18574e+06
1.18576e+06
1.18577e+06
1.18578e+06
1.1858e+06
1.18581e+06
1.18583e+06
1.18584e+06
1.18586e+06
1.18587e+06
1.18589e+06
1.1859e+06
1.18592e+06
1.18593e+06
1.18594e+06
1.18596e+06
1.18597e+06
1.18599e+06
1.186e+06
1.18602e+06
1.18603e+06
1.18605e+06
1.18606e+06
1.18608e+06
1.18609e+06
1.1861e+06
1.18612e+06
1.18613e+06
1.18615e+06
1.18616e+06
1.18618e+06
1.18619e+06
1.18621e+06
1.18622e+06
1.18624e+06
1.18625e+06
1.18626e+06
1.18628e+06
1.18629e+06
1.18631e+06
1.18632e+06
1.18634e+06
1.18635e+06
1.18637e+06
1.18638e+06
1.18639e+06
1.18641e+06
1.18642e+06
1.18644e+06
1.18645e+06
1.18647e+06
1.18648e+06
1.1865e+06
1.18651e+06
1.18653e+06
1.18654e+06
1.18655e+06
1.18657e+06
1.18658e+06
1.1866e+06
1.18661e+06
1.18663e+06
1.18664e+06
1.18666e+06
1.18667e+06
1.18668e+06
1.1867e+06
1.18671e+06
1.18673e+06
1.18674e+06
1.18676e+06
1.18677e+06
1.18679e+06
1.1868e+06
1.18682e+06
1.18683e+06
1.18684e+06
1.18686e+06
1.18687e+06
1.18689e+06
1.1869e+06
1.18692e+06
1.18693e+06
1.18695e+06
1.18696e+06
1.18697e+06
1.18699e+06
1.187e+06
1.18702e+06
1.18703e+06
1.18705e+06
1.18706e+06
1.18708e+06
1.18709e+06
1.1871e+06
1.18712e+06
1.18713e+06
1.18715e+06
1.18716e+06
1.18718e+06
1.18719e+06
1.18721e+06
1.18722e+06
1.18723e+06
1.18725e+06
1.18726e+06
1.18728e+06
1.18729e+06
1.18731e+06
1.18732e+06
1.18734e+06
1.18735e+06
1.18736e+06
1.18738e+06
1.18739e+06
1.18741e+06
1.18742e+06
1.18744e+06
1.18745e+06
1.18747e+06
1.18748e+06
1.18749e+06
1.18751e+06
1.18752e+06
1.18754e+06
1.18755e+06
1.18757e+06
1.18758e+06
1.18759e+06
1.18761e+06
1.18762e+06
1.18764e+06
1.18765e+06
1.18767e+06
1.18768e+06
1.1877e+06
1.18771e+06
1.18772e+06
1.18774e+06
1.18775e+06
1.18777e+06
1.18778e+06
1.1878e+06
1.18781e+06
1.18782e+06
1.18784e+06
1.18785e+06
1.18787e+06
1.18788e+06
1.1879e+06
1.18791e+06
1.18793e+06
1.18794e+06
1.18795e+06
1.18797e+06
1.18798e+06
1.188e+06
1.18801e+06
1.18803e+06
1.18804e+06
1.18805e+06
1.18807e+06
1.18808e+06
1.1881e+06
1.18811e+06
1.18813e+06
1.18814e+06
1.18816e+06
1.18817e+06
1.18818e+06
1.1882e+06
1.18821e+06
1.18823e+06
1.18824e+06
1.18826e+06
1.18827e+06
1.18828e+06
1.1883e+06
1.18831e+06
1.18833e+06
1.18834e+06
1.18836e+06
1.18837e+06
1.18838e+06
1.1884e+06
1.18841e+06
1.18843e+06
1.18844e+06
1.18846e+06
1.18847e+06
1.18848e+06
1.1885e+06
1.18851e+06
1.18853e+06
1.18854e+06
1.18856e+06
1.18857e+06
1.18859e+06
1.1886e+06
1.18861e+06
1.18863e+06
1.18864e+06
1.18866e+06
1.18867e+06
1.18869e+06
1.1887e+06
1.18871e+06
1.18873e+06
1.18874e+06
1.18876e+06
1.18877e+06
1.18879e+06
1.1888e+06
1.18881e+06
1.18883e+06
1.18884e+06
1.18886e+06
1.18887e+06
1.18889e+06
1.1889e+06
1.18891e+06
1.18893e+06
1.18894e+06
1.18896e+06
1.18897e+06
1.18899e+06
1.189e+06
1.18901e+06
1.18903e+06
1.18904e+06
1.18906e+06
1.18907e+06
1.18908e+06
1.1891e+06
1.18911e+06
1.18913e+06
1.18914e+06
1.18916e+06
1.18917e+06
1.18918e+06
1.1892e+06
1.18921e+06
1.18923e+06
1.18924e+06
1.18926e+06
1.18927e+06
1.18928e+06
1.1893e+06
1.18931e+06
1.18933e+06
1.18934e+06
1.18936e+06
1.18937e+06
1.18938e+06
1.1894e+06
1.18941e+06
1.18943e+06
1.18944e+06
1.18946e+06
1.18947e+06
1.18948e+06
1.1895e+06
1.18951e+06
1.18953e+06
1.18954e+06
1.18955e+06
1.18957e+06
1.18958e+06
1.1896e+06
1.18961e+06
1.18963e+06
1.18964e+06
1.18965e+06
1.18967e+06
1.18968e+06
1.1897e+06
1.18971e+06
1.18972e+06
1.18974e+06
1.18975e+06
1.18977e+06
1.18978e+06
1.1898e+06
1.18981e+06
1.18982e+06
1.18984e+06
1.18985e+06
1.18987e+06
1.18988e+06
1.1899e+06
1.18991e+06
1.18992e+06
1.18994e+06
1.18995e+06
1.18997e+06
1.18998e+06
1.18999e+06
1.19001e+06
1.19002e+06
1.19004e+06
1.19005e+06
1.19007e+06
1.19008e+06
1.19009e+06
1.19011e+06
1.19012e+06
1.19014e+06
1.19015e+06
1.19016e+06
1.19018e+06
1.19019e+06
1.19021e+06
1.19022e+06
1.19023e+06
1.19025e+06
1.19026e+06
1.19028e+06
1.19029e+06
1.19031e+06
1.19032e+06
1.19033e+06
1.19035e+06
1.19036e+06
1.19038e+06
1.19039e+06
1.1904e+06
1.19042e+06
1.19043e+06
1.19045e+06
1.19046e+06
1.19047e+06
1.19049e+06
1.1905e+06
1.19052e+06
1.19053e+06
1.19055e+06
1.19056e+06
1.19057e+06
1.19059e+06
1.1906e+06
1.19062e+06
1.19063e+06
1.19064e+06
1.19066e+06
1.19067e+06
1.19069e+06
1.1907e+06
1.19071e+06
1.19073e+06
1.19074e+06
1.19076e+06
1.19077e+06
1.19078e+06
1.1908e+06
1.19081e+06
1.19083e+06
1.19084e+06
1.19086e+06
1.19087e+06
1.19088e+06
1.1909e+06
1.19091e+06
1.19093e+06
1.19094e+06
1.19095e+06
1.19097e+06
1.19098e+06
1.191e+06
1.19101e+06
1.19102e+06
1.19104e+06
1.19105e+06
1.19107e+06
1.19108e+06
1.19109e+06
1.19111e+06
1.19112e+06
1.19114e+06
1.19115e+06
1.19116e+06
1.19118e+06
1.19119e+06
1.19121e+06
1.19122e+06
1.19123e+06
1.19125e+06
1.19126e+06
1.19128e+06
1.19129e+06
1.1913e+06
1.19132e+06
1.19133e+06
1.19135e+06
1.19136e+06
1.19137e+06
1.19139e+06
1.1914e+06
1.19142e+06
1.19143e+06
1.19144e+06
1.19146e+06
1.19147e+06
1.19149e+06
1.1915e+06
1.19152e+06
1.19153e+06
1.19154e+06
1.19156e+06
1.19157e+06
1.19158e+06
1.1916e+06
1.19161e+06
1.19163e+06
1.19164e+06
1.19165e+06
1.19167e+06
1.19168e+06
1.1917e+06
1.19171e+06
1.19172e+06
1.19174e+06
1.19175e+06
1.19177e+06
1.19178e+06
1.19179e+06
1.19181e+06
1.19182e+06
1.19184e+06
1.19185e+06
1.19186e+06
1.19188e+06
1.19189e+06
1.19191e+06
1.19192e+06
1.19193e+06
1.19195e+06
1.19196e+06
1.19198e+06
1.19199e+06
1.192e+06
1.19202e+06
1.19203e+06
1.19205e+06
1.19206e+06
1.19207e+06
1.19209e+06
1.1921e+06
1.19212e+06
1.19213e+06
1.19214e+06
1.19216e+06
1.19217e+06
1.19219e+06
1.1922e+06
1.19221e+06
1.19223e+06
1.19224e+06
1.19225e+06
1.19227e+06
1.19228e+06
1.1923e+06
1.19231e+06
1.19232e+06
1.19234e+06
1.19235e+06
1.19237e+06
1.19238e+06
1.19239e+06
1.19241e+06
1.19242e+06
1.19244e+06
1.19245e+06
1.19246e+06
1.19248e+06
1.19249e+06
1.19251e+06
1.19252e+06
1.19253e+06
1.19255e+06
1.19256e+06
1.19257e+06
1.19259e+06
1.1926e+06
1.19262e+06
1.19263e+06
1.19264e+06
1.19266e+06
1.19267e+06
1.19269e+06
1.1927e+06
1.19271e+06
1.19273e+06
1.19274e+06
1.19275e+06
1.19277e+06
1.19278e+06
1.1928e+06
1.19281e+06
1.19282e+06
1.19284e+06
1.19285e+06
1.19287e+06
1.19288e+06
1.19289e+06
1.19291e+06
1.19292e+06
1.19294e+06
1.19295e+06
1.19296e+06
1.19298e+06
1.19299e+06
1.193e+06
1.19302e+06
1.19303e+06
1.19305e+06
1.19306e+06
1.19307e+06
1.19309e+06
1.1931e+06
1.19312e+06
1.19313e+06
1.19314e+06
1.19316e+06
1.19317e+06
1.19318e+06
1.1932e+06
1.19321e+06
1.19323e+06
1.19324e+06
1.19325e+06
1.19327e+06
1.19328e+06
1.19329e+06
1.19331e+06
1.19332e+06
1.19334e+06
1.19335e+06
1.19336e+06
1.19338e+06
1.19339e+06
1.19341e+06
1.19342e+06
1.19343e+06
1.19345e+06
1.19346e+06
1.19347e+06
1.19349e+06
1.1935e+06
1.19352e+06
1.19353e+06
1.19354e+06
1.19356e+06
1.19357e+06
1.19358e+06
1.1936e+06
1.19361e+06
1.19363e+06
1.19364e+06
1.19365e+06
1.19367e+06
1.19368e+06
1.19369e+06
1.19371e+06
1.19372e+06
1.19374e+06
1.19375e+06
1.19376e+06
1.19378e+06
1.19379e+06
1.1938e+06
1.19382e+06
1.19383e+06
1.19385e+06
1.19386e+06
1.19387e+06
1.19389e+06
1.1939e+06
1.19391e+06
1.19393e+06
1.19394e+06
1.19396e+06
1.19397e+06
1.19398e+06
1.194e+06
1.19401e+06
1.19402e+06
1.19404e+06
1.19405e+06
1.19407e+06
1.19408e+06
1.19409e+06
1.19411e+06
1.19412e+06
1.19413e+06
1.19415e+06
1.19416e+06
1.19418e+06
1.19419e+06
1.1942e+06
1.19422e+06
1.19423e+06
1.19424e+06
1.19426e+06
1.19427e+06
1.19428e+06
1.1943e+06
1.19431e+06
1.19433e+06
1.19434e+06
1.19435e+06
1.19437e+06
1.19438e+06
1.19439e+06
1.19441e+06
1.19442e+06
1.19444e+06
1.19445e+06
1.19446e+06
1.19448e+06
1.19449e+06
1.1945e+06
1.19452e+06
1.19453e+06
1.19454e+06
1.19456e+06
1.19457e+06
1.19459e+06
1.1946e+06
1.19461e+06
1.19463e+06
1.19464e+06
1.19465e+06
1.19467e+06
1.19468e+06
1.19469e+06
1.19471e+06
1.19472e+06
1.19474e+06
1.19475e+06
1.19476e+06
1.19478e+06
1.19479e+06
1.1948e+06
1.19482e+06
1.19483e+06
1.19484e+06
1.19486e+06
1.19487e+06
1.19489e+06
1.1949e+06
1.19491e+06
1.19493e+06
1.19494e+06
1.19495e+06
1.19497e+06
1.19498e+06
1.19499e+06
1.19501e+06
1.19502e+06
1.19504e+06
1.19505e+06
1.19506e+06
1.19508e+06
1.19509e+06
1.1951e+06
1.19512e+06
1.19513e+06
1.19514e+06
1.19516e+06
1.19517e+06
1.19518e+06
1.1952e+06
1.19521e+06
1.19523e+06
1.19524e+06
1.19525e+06
1.19527e+06
1.19528e+06
1.19529e+06
1.19531e+06
1.19532e+06
1.19533e+06
1.19535e+06
1.19536e+06
1.19537e+06
1.19539e+06
1.1954e+06
1.19542e+06
1.19543e+06
1.19544e+06
1.19546e+06
1.19547e+06
1.19548e+06
1.1955e+06
1.19551e+06
1.19552e+06
1.19554e+06
1.19555e+06
1.19556e+06
1.19558e+06
1.19559e+06
1.1956e+06
1.19562e+06
1.19563e+06
1.19564e+06
1.19566e+06
1.19567e+06
1.19569e+06
1.1957e+06
1.19571e+06
1.19573e+06
1.19574e+06
1.19575e+06
1.19577e+06
1.19578e+06
1.19579e+06
1.19581e+06
1.19582e+06
1.19583e+06
1.19585e+06
1.19586e+06
1.19587e+06
1.19589e+06
1.1959e+06
1.19591e+06
1.19593e+06
1.19594e+06
1.19595e+06
1.19597e+06
1.19598e+06
1.19599e+06
1.19601e+06
1.19602e+06
1.19604e+06
1.19605e+06
1.19606e+06
1.19608e+06
1.19609e+06
1.1961e+06
1.19612e+06
1.19613e+06
1.19614e+06
1.19616e+06
1.19617e+06
1.19618e+06
1.1962e+06
1.19621e+06
1.19622e+06
1.19624e+06
1.19625e+06
1.19626e+06
1.19628e+06
1.19629e+06
1.1963e+06
1.19632e+06
1.19633e+06
1.19634e+06
1.19636e+06
1.19637e+06
1.19638e+06
1.1964e+06
1.19641e+06
1.19642e+06
1.19644e+06
1.19645e+06
1.19646e+06
1.19648e+06
1.19649e+06
1.1965e+06
1.19652e+06
1.19653e+06
1.19654e+06
1.19656e+06
1.19657e+06
1.19658e+06
1.1966e+06
1.19661e+06
1.19662e+06
1.19664e+06
1.19665e+06
1.19666e+06
1.19668e+06
1.19669e+06
1.1967e+06
1.19672e+06
1.19673e+06
1.19674e+06
1.19676e+06
1.19677e+06
1.19678e+06
1.1968e+06
1.19681e+06
1.19682e+06
1.19683e+06
1.19685e+06
1.19686e+06
1.19687e+06
1.19689e+06
1.1969e+06
1.19691e+06
1.19693e+06
1.19694e+06
1.19695e+06
1.19697e+06
1.19698e+06
1.19699e+06
1.19701e+06
1.19702e+06
1.19703e+06
1.19705e+06
1.19706e+06
1.19707e+06
1.19709e+06
1.1971e+06
1.19711e+06
1.19713e+06
1.19714e+06
1.19715e+06
1.19716e+06
1.19718e+06
1.19719e+06
1.1972e+06
1.19722e+06
1.19723e+06
1.19724e+06
1.19726e+06
1.19727e+06
1.19728e+06
1.1973e+06
1.19731e+06
1.19732e+06
1.19734e+06
1.19735e+06
1.19736e+06
1.19737e+06
1.19739e+06
1.1974e+06
1.19741e+06
1.19743e+06
1.19744e+06
1.19745e+06
1.19747e+06
1.19748e+06
1.19749e+06
1.19751e+06
1.19752e+06
1.19753e+06
1.19754e+06
1.19756e+06
1.19757e+06
1.19758e+06
1.1976e+06
1.19761e+06
1.19762e+06
1.19764e+06
1.19765e+06
1.19766e+06
1.19768e+06
1.19769e+06
1.1977e+06
1.19771e+06
1.19773e+06
1.19774e+06
1.19775e+06
1.19777e+06
1.19778e+06
1.19779e+06
1.19781e+06
1.19782e+06
1.19783e+06
1.19784e+06
1.19786e+06
1.19787e+06
1.19788e+06
1.1979e+06
1.19791e+06
1.19792e+06
1.19793e+06
1.19795e+06
1.19796e+06
1.19797e+06
1.19799e+06
1.198e+06
1.19801e+06
1.19803e+06
1.19804e+06
1.19805e+06
1.19806e+06
1.19808e+06
1.19809e+06
1.1981e+06
1.19812e+06
1.19813e+06
1.19814e+06
1.19815e+06
1.19817e+06
1.19818e+06
1.19819e+06
1.19821e+06
1.19822e+06
1.19823e+06
1.19825e+06
1.19826e+06
1.19827e+06
1.19828e+06
1.1983e+06
1.19831e+06
1.19832e+06
1.19834e+06
1.19835e+06
1.19836e+06
1.19837e+06
1.19839e+06
1.1984e+06
1.19841e+06
1.19843e+06
1.19844e+06
1.19845e+06
1.19846e+06
1.19848e+06
1.19849e+06
1.1985e+06
1.19851e+06
1.19853e+06
1.19854e+06
1.19855e+06
1.19857e+06
1.19858e+06
1.19859e+06
1.1986e+06
1.19862e+06
1.19863e+06
1.19864e+06
1.19866e+06
1.19867e+06
1.19868e+06
1.19869e+06
1.19871e+06
1.19872e+06
1.19873e+06
1.19875e+06
1.19876e+06
1.19877e+06
1.19878e+06
1.1988e+06
1.19881e+06
1.19882e+06
1.19883e+06
1.19885e+06
1.19886e+06
1.19887e+06
1.19889e+06
1.1989e+06
1.19891e+06
1.19892e+06
1.19894e+06
1.19895e+06
1.19896e+06
1.19898e+06
1.19899e+06
1.199e+06
1.19901e+06
1.19903e+06
1.19904e+06
1.19905e+06
1.19907e+06
1.19908e+06
1.19909e+06
1.1991e+06
1.19912e+06
1.19913e+06
1.19914e+06
1.19916e+06
1.19917e+06
1.19918e+06
1.19919e+06
1.19921e+06
1.19922e+06
1.19923e+06
1.19924e+06
1.19926e+06
1.19927e+06
1.19928e+06
1.19929e+06
1.1993e+06
1.19932e+06
1.19933e+06
1.19934e+06
1.19935e+06
1.19936e+06
1.19938e+06
1.19939e+06
1.1994e+06
1.19941e+06
1.19942e+06
1.19944e+06
1.19945e+06
1.19946e+06
1.19947e+06
1.19949e+06
1.1995e+06
1.19951e+06
1.19952e+06
1.19953e+06
1.19955e+06
1.19956e+06
1.19957e+06
1.19958e+06
1.1996e+06
1.19961e+06
1.19962e+06
1.19963e+06
1.19965e+06
1.19966e+06
1.19967e+06
1.19968e+06
1.1997e+06
1.19971e+06
1.19972e+06
1.19974e+06
1.19975e+06
1.19976e+06
1.19977e+06
1.19979e+06
1.1998e+06
1.19981e+06
1.19982e+06
1.19984e+06
1.19985e+06
1.19986e+06
1.19988e+06
1.19989e+06
1.1999e+06
1.19991e+06
1.19993e+06
1.19994e+06
1.19995e+06
1.19996e+06
1.19998e+06
1.19999e+06
1.2e+06
1.20001e+06
1.20003e+06
1.20004e+06
1.20005e+06
1.20006e+06
1.20008e+06
1.20009e+06
1.2001e+06
1.20011e+06
1.20013e+06
1.20014e+06
1.20015e+06
1.20016e+06
1.20017e+06
1.20019e+06
1.2002e+06
1.20021e+06
1.20022e+06
1.20024e+06
1.20025e+06
1.20026e+06
1.20027e+06
1.20029e+06
1.2003e+06
1.20031e+06
1.20032e+06
1.20033e+06
1.20035e+06
1.20036e+06
1.20037e+06
1.20038e+06
1.2004e+06
1.20041e+06
1.20042e+06
1.20043e+06
1.20045e+06
1.20046e+06
1.20047e+06
1.20048e+06
1.20049e+06
1.20051e+06
1.20052e+06
1.20053e+06
1.20054e+06
1.20056e+06
1.20057e+06
1.20058e+06
1.20059e+06
1.2006e+06
1.20062e+06
1.20063e+06
1.20064e+06
1.20065e+06
1.20066e+06
1.20068e+06
1.20069e+06
1.2007e+06
1.20071e+06
1.20073e+06
1.20074e+06
1.20075e+06
1.20076e+06
1.20077e+06
1.20079e+06
1.2008e+06
1.20081e+06
1.20082e+06
1.20083e+06
1.20085e+06
1.20086e+06
1.20087e+06
1.20088e+06
1.2009e+06
1.20091e+06
1.20092e+06
1.20093e+06
1.20094e+06
1.20096e+06
1.20097e+06
1.20098e+06
1.20099e+06
1.201e+06
1.20102e+06
1.20103e+06
1.20104e+06
1.20105e+06
1.20106e+06
1.20108e+06
1.20109e+06
1.2011e+06
1.20111e+06
1.20112e+06
1.20114e+06
1.20115e+06
1.20116e+06
1.20117e+06
1.20118e+06
1.2012e+06
1.20121e+06
1.20122e+06
1.20123e+06
1.20124e+06
1.20126e+06
1.20127e+06
1.20128e+06
1.20129e+06
1.2013e+06
1.20132e+06
1.20133e+06
1.20134e+06
1.20135e+06
1.20136e+06
1.20138e+06
1.20139e+06
1.2014e+06
1.20141e+06
1.20142e+06
1.20144e+06
1.20145e+06
1.20146e+06
1.20147e+06
1.20148e+06
1.2015e+06
1.20151e+06
1.20152e+06
1.20153e+06
1.20154e+06
1.20155e+06
1.20157e+06
1.20158e+06
1.20159e+06
1.2016e+06
1.20162e+06
1.20162e+06
1.20164e+06
1.20164e+06
1.20167e+06
1.20166e+06
1.2017e+06
1.20168e+06
1.20174e+06
1.20169e+06
1.20178e+06
1.20169e+06
1.20183e+06
1.20167e+06
1.20191e+06
1.20163e+06
1.202e+06
1.20157e+06
1.20214e+06
1.20146e+06
1.20231e+06
1.20132e+06
1.20251e+06
1.20114e+06
1.20275e+06
1.20095e+06
1.20297e+06
1.2008e+06
1.20312e+06
1.20077e+06
1.20309e+06
1.20099e+06
1.20275e+06
1.20159e+06
1.20189e+06
1.20235e+06
1.20196e+06
1.20196e+06
1.20216e+06
1.20207e+06
1.20201e+06
1.20211e+06
1.20214e+06
1.20215e+06
1.20209e+06
1.20215e+06
1.20215e+06
1.2022e+06
1.20215e+06
1.20219e+06
1.20218e+06
1.20225e+06
1.20218e+06
1.20239e+06
1.20185e+06
1.20303e+06
1.20103e+06
1.20406e+06
1.19996e+06
1.20516e+06
1.19904e+06
1.20586e+06
1.19879e+06
1.20567e+06
1.1996e+06
1.20429e+06
1.2016e+06
1.20189e+06
1.20409e+06
1.19972e+06
1.20605e+06
1.19817e+06
1.20703e+06
1.19806e+06
1.20626e+06
1.1998e+06
1.20372e+06
1.20294e+06
1.20063e+06
1.20562e+06
1.19854e+06
1.20714e+06
1.19787e+06
1.20696e+06
1.19904e+06
1.20492e+06
1.20188e+06
1.20168e+06
1.20518e+06
1.19873e+06
1.2076e+06
1.19731e+06
1.20778e+06
1.1986e+06
1.2052e+06
1.20224e+06
1.20106e+06
1.20641e+06
1.1976e+06
1.20866e+06
1.19706e+06
1.20741e+06
1.20008e+06
1.20313e+06
1.20507e+06
1.19833e+06
1.2089e+06
1.1963e+06
1.20871e+06
1.19895e+06
1.20402e+06
1.20491e+06
1.19818e+06
1.20942e+06
1.19604e+06
1.20884e+06
1.19924e+06
1.20385e+06
1.20505e+06
1.19847e+06
1.20912e+06
1.19646e+06
1.2088e+06
1.19922e+06
1.20404e+06
1.20526e+06
1.19804e+06
1.20992e+06
1.19603e+06
1.20874e+06
1.20031e+06
1.2024e+06
1.20734e+06
1.1964e+06
1.2109e+06
1.19638e+06
1.2072e+06
1.20324e+06
1.19892e+06
1.21071e+06
1.19463e+06
1.21046e+06
1.19959e+06
1.20214e+06
1.20855e+06
1.19561e+06
1.21154e+06
1.19675e+06
1.20638e+06
1.20465e+06
1.19807e+06
1.21106e+06
1.19539e+06
1.20945e+06
1.20093e+06
1.20146e+06
1.20935e+06
1.19513e+06
1.21163e+06
1.19786e+06
1.20463e+06
1.2072e+06
1.19584e+06
1.21276e+06
1.1956e+06
1.20729e+06
1.2053e+06
1.19678e+06
1.21288e+06
1.19487e+06
1.20871e+06
1.20357e+06
1.19868e+06
1.21166e+06
1.19503e+06
1.2101e+06
1.20123e+06
1.20113e+06
1.21051e+06
1.19453e+06
1.21207e+06
1.19915e+06
1.20248e+06
1.21055e+06
1.19363e+06
1.21329e+06
1.19851e+06
1.20234e+06
1.2111e+06
1.19361e+06
1.2131e+06
1.1988e+06
1.20275e+06
1.21045e+06
1.19423e+06
1.21277e+06
1.19887e+06
1.20319e+06
1.20997e+06
1.19454e+06
1.21311e+06
1.19839e+06
1.20343e+06
1.21058e+06
1.1935e+06
1.21401e+06
1.19871e+06
1.20188e+06
1.21271e+06
1.19252e+06
1.21311e+06
1.20124e+06
1.19954e+06
1.21357e+06
1.19365e+06
1.21114e+06
1.20304e+06
1.19873e+06
1.21376e+06
1.19404e+06
1.21029e+06
1.20471e+06
1.19678e+06
1.21523e+06
1.19434e+06
1.20811e+06
1.20814e+06
1.19406e+06
1.21581e+06
1.19661e+06
1.20424e+06
1.21181e+06
1.19271e+06
1.21432e+06
1.2003e+06
1.20044e+06
1.21408e+06
1.19311e+06
1.21178e+06
1.204e+06
1.19738e+06
1.21549e+06
1.19412e+06
1.20873e+06
1.20834e+06
1.19376e+06
1.21646e+06
1.19721e+06
1.20287e+06
1.21392e+06
1.19218e+06
1.21301e+06
1.20375e+06
1.19749e+06
1.21543e+06
1.19486e+06
1.20833e+06
1.20845e+06
1.19452e+06
1.21573e+06
1.19809e+06
1.20256e+06
1.21425e+06
1.19244e+06
1.21238e+06
1.20564e+06
1.19544e+06
1.21654e+06
1.1967e+06
1.20453e+06
1.21228e+06
1.19389e+06
1.21304e+06
1.20293e+06
1.19891e+06
1.2153e+06
1.1949e+06
1.20803e+06
1.21041e+06
1.19314e+06
1.21519e+06
1.20211e+06
1.19826e+06
1.21604e+06
1.19583e+06
1.20667e+06
1.21046e+06
1.19527e+06
1.2132e+06
1.20206e+06
1.20047e+06
1.2144e+06
1.19557e+06
1.20814e+06
1.21024e+06
1.19422e+06
1.21393e+06
1.20354e+06
1.19829e+06
1.21488e+06
1.19808e+06
1.20525e+06
1.21086e+06
1.19658e+06
1.21146e+06
1.20417e+06
1.19946e+06
1.21412e+06
1.19816e+06
1.20496e+06
1.21239e+06
1.19556e+06
1.21035e+06
1.20741e+06
1.19724e+06
1.21328e+06
1.2017e+06
1.20209e+06
1.21264e+06
1.19781e+06
1.20792e+06
1.20898e+06
1.19707e+06
1.21238e+06
1.20404e+06
1.19952e+06
1.21383e+06
1.19978e+06
1.20408e+06
1.21199e+06
1.19768e+06
1.20889e+06
1.20791e+06
1.19826e+06
1.21219e+06
1.2033e+06
1.20112e+06
1.21295e+06
1.19966e+06
1.20524e+06
1.21121e+06
1.19805e+06
1.20917e+06
1.20772e+06
1.19882e+06
1.21175e+06
1.20373e+06
1.20149e+06
1.21234e+06
1.20048e+06
1.20513e+06
1.211e+06
1.19871e+06
1.20874e+06
1.20833e+06
1.1987e+06
1.21126e+06
1.20529e+06
1.20046e+06
1.21196e+06
1.20252e+06
1.20359e+06
1.21105e+06
1.2004e+06
1.20713e+06
1.20916e+06
1.19932e+06
1.21006e+06
1.20693e+06
1.1996e+06
1.21156e+06
1.20477e+06
1.20145e+06
1.21141e+06
1.2027e+06
1.20446e+06
1.21034e+06
1.2008e+06
1.20754e+06
1.20901e+06
1.1997e+06
1.20972e+06
1.20755e+06
1.20002e+06
1.2106e+06
1.20578e+06
1.20183e+06
1.21058e+06
1.20356e+06
1.20442e+06
1.21042e+06
1.20135e+06
1.20659e+06
1.21025e+06
1.20023e+06
1.20781e+06
1.20931e+06
1.20082e+06
1.20868e+06
1.20715e+06
1.20216e+06
1.21001e+06
1.20471e+06
1.20306e+06
1.21121e+06
1.20326e+06
1.20377e+06
1.21119e+06
1.2028e+06
1.20509e+06
1.20993e+06
1.20241e+06
1.20717e+06
1.20867e+06
1.2016e+06
1.20876e+06
1.20803e+06
1.2015e+06
1.20936e+06
1.207e+06
1.20235e+06
1.20986e+06
1.2056e+06
1.20328e+06
1.21029e+06
1.20448e+06
1.20417e+06
1.21038e+06
1.20366e+06
1.20519e+06
1.21006e+06
1.20302e+06
1.20632e+06
1.20964e+06
1.20255e+06
1.20713e+06
1.20916e+06
1.2026e+06
1.20782e+06
1.20825e+06
1.20286e+06
1.20871e+06
1.20722e+06
1.20295e+06
1.20957e+06
1.20666e+06
1.20292e+06
1.20975e+06
1.20648e+06
1.20362e+06
1.20942e+06
1.20557e+06
1.20478e+06
1.20984e+06
1.20444e+06
1.20493e+06
1.21037e+06
1.2045e+06
1.20499e+06
1.20977e+06
1.20459e+06
1.20603e+06
1.20919e+06
1.20391e+06
1.20691e+06
1.20934e+06
1.20345e+06
1.20697e+06
1.20942e+06
1.20375e+06
1.20705e+06
1.20873e+06
1.20407e+06
1.20787e+06
1.2081e+06
1.20368e+06
1.20844e+06
1.2083e+06
1.20354e+06
1.20824e+06
1.20825e+06
1.20406e+06
1.20831e+06
1.20756e+06
1.20436e+06
1.20887e+06
1.20721e+06
1.20414e+06
1.20912e+06
1.20742e+06
1.20411e+06
1.20887e+06
1.20739e+06
1.20464e+06
1.20881e+06
1.20684e+06
1.20497e+06
1.20926e+06
1.20664e+06
1.20458e+06
1.20942e+06
1.20711e+06
1.20466e+06
1.20886e+06
1.20695e+06
1.20543e+06
1.20905e+06
1.20637e+06
1.20517e+06
1.20956e+06
1.20683e+06
1.20482e+06
1.20905e+06
1.20708e+06
1.20551e+06
1.20889e+06
1.20654e+06
1.20554e+06
1.2094e+06
1.20681e+06
1.20509e+06
1.2091e+06
1.20716e+06
1.20553e+06
1.20891e+06
1.20689e+06
1.20557e+06
1.20911e+06
1.20711e+06
1.20539e+06
1.20898e+06
1.20728e+06
1.20551e+06
1.20893e+06
1.20734e+06
1.20553e+06
1.20881e+06
1.20757e+06
1.20557e+06
1.20872e+06
1.20758e+06
1.20556e+06
1.20879e+06
1.20777e+06
1.20547e+06
1.20852e+06
1.20814e+06
1.20569e+06
1.20828e+06
1.20798e+06
1.20577e+06
1.20857e+06
1.20822e+06
1.20545e+06
1.20808e+06
1.20875e+06
1.206e+06
1.20775e+06
1.20833e+06
1.20601e+06
1.2082e+06
1.20873e+06
1.20567e+06
1.20748e+06
1.2092e+06
1.20649e+06
1.2072e+06
1.20858e+06
1.20641e+06
1.20773e+06
1.20915e+06
1.20618e+06
1.20675e+06
1.20933e+06
1.20724e+06
1.20681e+06
1.20867e+06
1.20691e+06
1.20711e+06
1.20927e+06
1.20709e+06
1.20629e+06
1.20907e+06
1.20799e+06
1.2065e+06
1.2085e+06
1.2077e+06
1.20678e+06
1.20898e+06
1.20799e+06
1.20605e+06
1.20845e+06
1.20884e+06
1.20668e+06
1.20799e+06
1.20828e+06
1.20672e+06
1.20841e+06
1.20893e+06
1.20641e+06
1.20746e+06
1.20918e+06
1.20731e+06
1.20757e+06
1.2087e+06
1.207e+06
1.20746e+06
1.20934e+06
1.20754e+06
1.20685e+06
1.20886e+06
1.20788e+06
1.20717e+06
1.2089e+06
1.20804e+06
1.20681e+06
1.20867e+06
1.20849e+06
1.20694e+06
1.20851e+06
1.20865e+06
1.20693e+06
1.20812e+06
1.20895e+06
1.20727e+06
1.20794e+06
1.20891e+06
1.20724e+06
1.20777e+06
1.20926e+06
1.20773e+06
1.20724e+06
1.20887e+06
1.20809e+06
1.20756e+06
1.20901e+06
1.20803e+06
1.207e+06
1.20881e+06
1.20896e+06
1.20735e+06
1.20821e+06
1.20855e+06
1.20742e+06
1.2086e+06
1.20921e+06
1.20734e+06
1.20755e+06
1.20911e+06
1.20818e+06
1.20797e+06
1.20892e+06
1.20778e+06
1.20749e+06
1.20926e+06
1.20879e+06
1.20734e+06
1.20839e+06
1.2086e+06
1.2078e+06
1.20887e+06
1.20899e+06
1.20734e+06
1.20794e+06
1.20928e+06
1.20826e+06
1.20815e+06
1.20891e+06
1.20789e+06
1.20776e+06
1.2093e+06
1.20877e+06
1.20764e+06
1.20865e+06
1.20866e+06
1.20786e+06
1.20882e+06
1.20912e+06
1.20776e+06
1.20821e+06
1.20917e+06
1.20818e+06
1.20823e+06
1.20917e+06
1.20837e+06
1.2079e+06
1.20907e+06
1.20873e+06
1.20791e+06
1.20893e+06
1.20901e+06
1.20797e+06
1.20856e+06
1.20915e+06
1.20815e+06
1.20845e+06
1.20928e+06
1.20834e+06
1.20809e+06
1.20914e+06
1.2088e+06
1.20816e+06
1.20905e+06
1.20887e+06
1.20799e+06
1.20878e+06
1.2093e+06
1.20834e+06
1.2085e+06
1.20919e+06
1.20839e+06
1.20839e+06
1.20934e+06
1.20886e+06
1.20819e+06
1.20903e+06
1.20905e+06
1.20829e+06
1.20894e+06
1.20922e+06
1.20835e+06
1.20859e+06
1.2094e+06
1.20869e+06
1.20843e+06
1.2092e+06
1.20883e+06
1.2084e+06
1.20923e+06
1.20929e+06
1.20836e+06
1.20878e+06
1.20923e+06
1.20862e+06
1.20883e+06
1.2095e+06
1.20882e+06
1.20838e+06
1.2092e+06
1.20911e+06
1.20863e+06
1.20919e+06
1.20929e+06
1.20847e+06
1.2088e+06
1.20948e+06
1.20891e+06
1.20879e+06
1.20934e+06
1.20894e+06
1.20849e+06
1.20928e+06
1.20939e+06
1.20873e+06
1.20903e+06
1.20934e+06
1.20874e+06
1.20885e+06
1.2096e+06
1.20916e+06
1.20879e+06
1.20931e+06
1.20923e+06
1.20869e+06
1.2092e+06
1.20955e+06
1.2089e+06
1.20899e+06
1.20947e+06
1.20907e+06
1.20882e+06
1.20947e+06
1.20935e+06
1.20884e+06
1.20928e+06
1.20949e+06
1.20893e+06
1.20902e+06
1.20955e+06
1.20913e+06
1.20898e+06
1.20954e+06
1.20943e+06
1.20893e+06
1.20931e+06
1.20953e+06
1.209e+06
1.20919e+06
1.20965e+06
1.20929e+06
1.20903e+06
1.20954e+06
1.20943e+06
1.20901e+06
1.2094e+06
1.20962e+06
1.20914e+06
1.20918e+06
1.20966e+06
1.20932e+06
1.20912e+06
1.20957e+06
1.20954e+06
1.20908e+06
1.20938e+06
1.20968e+06
1.20925e+06
1.20929e+06
1.2097e+06
1.20946e+06
1.20915e+06
1.2096e+06
1.20965e+06
1.20924e+06
1.20944e+06
1.20973e+06
1.20936e+06
1.20926e+06
1.20975e+06
1.2096e+06
1.20931e+06
1.2096e+06
1.20972e+06
1.2093e+06
1.20942e+06
1.20983e+06
1.20956e+06
1.20941e+06
1.20974e+06
1.20968e+06
1.20926e+06
1.20954e+06
1.20981e+06
1.20952e+06
1.20952e+06
1.20986e+06
1.20964e+06
1.20931e+06
1.20964e+06
1.20976e+06
1.20949e+06
1.20962e+06
1.20994e+06
1.20964e+06
1.20944e+06
1.20977e+06
1.20974e+06
1.20948e+06
1.20972e+06
1.20998e+06
1.20964e+06
1.20959e+06
1.20988e+06
1.20975e+06
1.20951e+06
1.2098e+06
1.20994e+06
1.2096e+06
1.20967e+06
1.20993e+06
1.20977e+06
1.20959e+06
1.20994e+06
1.20996e+06
1.20966e+06
1.20974e+06
1.20994e+06
1.20969e+06
1.20959e+06
1.20996e+06
1.20995e+06
1.20975e+06
1.20991e+06
1.21007e+06
1.20975e+06
1.20968e+06
1.20995e+06
1.20987e+06
1.20971e+06
1.20996e+06
1.21014e+06
1.20985e+06
1.20986e+06
1.21005e+06
1.2099e+06
1.2097e+06
1.20995e+06
1.21006e+06
1.20984e+06
1.20993e+06
1.21013e+06
1.20996e+06
1.20976e+06
1.20999e+06
1.21001e+06
1.20983e+06
1.20997e+06
1.21023e+06
1.21009e+06
1.20996e+06
1.21015e+06
1.21006e+06
1.20981e+06
1.20987e+06
1.21011e+06
1.20999e+06
1.21e+06
1.21028e+06
1.21027e+06
1.21002e+06
1.21004e+06
1.21012e+06
1.20987e+06
1.20983e+06
1.21009e+06
1.21018e+06
1.21007e+06
1.21025e+06
1.21037e+06
1.21014e+06
1.21e+06
1.21013e+06
1.21009e+06
1.20993e+06
1.21014e+06
1.21034e+06
1.21025e+06
1.21019e+06
1.21035e+06
1.21024e+06
1.20998e+06
1.21006e+06
1.21018e+06
1.2101e+06
1.21012e+06
1.21041e+06
1.21042e+06
1.21026e+06
1.21029e+06
1.21033e+06
1.2101e+06
1.21e+06
1.21019e+06
1.21022e+06
1.21016e+06
1.21031e+06
1.21052e+06
1.21038e+06
1.21029e+06
1.21037e+06
1.21031e+06
1.2101e+06
1.21015e+06
1.21032e+06
1.21025e+06
1.21026e+06
1.21045e+06
1.21053e+06
1.21036e+06
1.21039e+06
1.21047e+06
1.21033e+06
1.21022e+06
1.21035e+06
1.21042e+06
1.2103e+06
1.21038e+06
1.21053e+06
1.21048e+06
1.21034e+06
1.21044e+06
1.21044e+06
1.21028e+06