/*--------------------------------*- C++ -*----------------------------------*\
  =========                 |
  \\      /  F ield         | OpenFOAM: The Open Source CFD Toolbox
   \\    /   O peration     | Website:  https://openfoam.org
    \\  /    A nd           | Version:  9
     \\/     M anipulation  |
\*---------------------------------------------------------------------------*/
FoamFile
{
    format      ascii;
    class       volVectorField;
    location    "0.021";
    object      ddtCorrDdt0(rho,U);
}
// * * * * * * * * * * * * * * * * * * * * * * * * * * * * * * * * * * * * * //

dimensions      [1 -2 -2 0 0 0 0];

internalField   nonuniform List<vector> 
10000
(
(70.7023 0 0)
(62.6881 0 0)
(59.4166 0 0)
(55.702 0 0)
(51.2171 0 0)
(46.668 0 0)
(42.2984 0 0)
(37.9934 0 0)
(33.6538 0 0)
(29.2671 0 0)
(24.8547 0 0)
(20.434 0 0)
(16.015 0 0)
(11.6035 0 0)
(7.20191 0 0)
(2.81002 0 0)
(-1.57406 0 0)
(-5.9523 0 0)
(-10.3273 0 0)
(-14.7027 0 0)
(-19.0822 0 0)
(-23.463 0 0)
(-27.8423 0 0)
(-32.2092 0 0)
(-36.5818 0 0)
(-40.956 0 0)
(-45.3294 0 0)
(-49.7023 0 0)
(-54.0751 0 0)
(-58.448 0 0)
(-62.8213 0 0)
(-67.195 0 0)
(-71.5689 0 0)
(-75.9426 0 0)
(-80.316 0 0)
(-84.6892 0 0)
(-89.0622 0 0)
(-93.4351 0 0)
(-97.8082 0 0)
(-102.181 0 0)
(-106.554 0 0)
(-110.927 0 0)
(-115.301 0 0)
(-119.674 0 0)
(-124.047 0 0)
(-128.42 0 0)
(-132.793 0 0)
(-137.167 0 0)
(-141.54 0 0)
(-145.913 0 0)
(-150.286 0 0)
(-154.659 0 0)
(-159.032 0 0)
(-163.405 0 0)
(-167.779 0 0)
(-172.152 0 0)
(-176.525 0 0)
(-180.898 0 0)
(-185.271 0 0)
(-189.644 0 0)
(-194.017 0 0)
(-198.39 0 0)
(-202.763 0 0)
(-207.136 0 0)
(-211.51 0 0)
(-215.883 0 0)
(-220.255 0 0)
(-224.628 0 0)
(-229.002 0 0)
(-233.375 0 0)
(-237.748 0 0)
(-242.121 0 0)
(-246.494 0 0)
(-250.867 0 0)
(-255.24 0 0)
(-259.613 0 0)
(-263.986 0 0)
(-268.359 0 0)
(-272.731 0 0)
(-277.104 0 0)
(-281.476 0 0)
(-285.849 0 0)
(-290.222 0 0)
(-294.595 0 0)
(-298.969 0 0)
(-303.342 0 0)
(-307.715 0 0)
(-312.088 0 0)
(-316.461 0 0)
(-320.833 0 0)
(-325.206 0 0)
(-329.579 0 0)
(-333.952 0 0)
(-338.325 0 0)
(-342.698 0 0)
(-347.07 0 0)
(-351.443 0 0)
(-355.816 0 0)
(-360.189 0 0)
(-364.561 0 0)
(-368.934 0 0)
(-373.307 0 0)
(-377.68 0 0)
(-382.052 0 0)
(-386.425 0 0)
(-390.798 0 0)
(-395.17 0 0)
(-399.543 0 0)
(-403.915 0 0)
(-408.288 0 0)
(-412.661 0 0)
(-417.034 0 0)
(-421.406 0 0)
(-425.779 0 0)
(-430.152 0 0)
(-434.524 0 0)
(-438.897 0 0)
(-443.269 0 0)
(-447.642 0 0)
(-452.014 0 0)
(-456.387 0 0)
(-460.759 0 0)
(-465.131 0 0)
(-469.504 0 0)
(-473.876 0 0)
(-478.249 0 0)
(-482.621 0 0)
(-486.993 0 0)
(-491.366 0 0)
(-495.738 0 0)
(-500.11 0 0)
(-504.483 0 0)
(-508.855 0 0)
(-513.227 0 0)
(-517.599 0 0)
(-521.972 0 0)
(-526.344 0 0)
(-530.716 0 0)
(-535.088 0 0)
(-539.461 0 0)
(-543.833 0 0)
(-548.205 0 0)
(-552.577 0 0)
(-556.949 0 0)
(-561.321 0 0)
(-565.693 0 0)
(-570.065 0 0)
(-574.437 0 0)
(-578.809 0 0)
(-583.181 0 0)
(-587.553 0 0)
(-591.926 0 0)
(-596.298 0 0)
(-600.67 0 0)
(-605.042 0 0)
(-609.413 0 0)
(-613.785 0 0)
(-618.156 0 0)
(-622.528 0 0)
(-626.9 0 0)
(-631.272 0 0)
(-635.643 0 0)
(-640.015 0 0)
(-644.387 0 0)
(-648.759 0 0)
(-653.131 0 0)
(-657.502 0 0)
(-661.874 0 0)
(-666.246 0 0)
(-670.617 0 0)
(-674.989 0 0)
(-679.361 0 0)
(-683.732 0 0)
(-688.104 0 0)
(-692.475 0 0)
(-696.847 0 0)
(-701.218 0 0)
(-705.59 0 0)
(-709.961 0 0)
(-714.333 0 0)
(-718.704 0 0)
(-723.075 0 0)
(-727.447 0 0)
(-731.818 0 0)
(-736.189 0 0)
(-740.561 0 0)
(-744.932 0 0)
(-749.303 0 0)
(-753.674 0 0)
(-758.045 0 0)
(-762.417 0 0)
(-766.788 0 0)
(-771.159 0 0)
(-775.53 0 0)
(-779.901 0 0)
(-784.272 0 0)
(-788.643 0 0)
(-793.015 0 0)
(-797.386 0 0)
(-801.757 0 0)
(-806.128 0 0)
(-810.498 0 0)
(-814.869 0 0)
(-819.24 0 0)
(-823.611 0 0)
(-827.982 0 0)
(-832.352 0 0)
(-836.723 0 0)
(-841.094 0 0)
(-845.464 0 0)
(-849.835 0 0)
(-854.206 0 0)
(-858.576 0 0)
(-862.947 0 0)
(-867.317 0 0)
(-871.688 0 0)
(-876.058 0 0)
(-880.429 0 0)
(-884.799 0 0)
(-889.17 0 0)
(-893.54 0 0)
(-897.91 0 0)
(-902.281 0 0)
(-906.651 0 0)
(-911.021 0 0)
(-915.392 0 0)
(-919.762 0 0)
(-924.132 0 0)
(-928.502 0 0)
(-932.872 0 0)
(-937.242 0 0)
(-941.613 0 0)
(-945.983 0 0)
(-950.353 0 0)
(-954.723 0 0)
(-959.093 0 0)
(-963.463 0 0)
(-967.833 0 0)
(-972.202 0 0)
(-976.572 0 0)
(-980.942 0 0)
(-985.311 0 0)
(-989.681 0 0)
(-994.051 0 0)
(-998.42 0 0)
(-1002.79 0 0)
(-1007.16 0 0)
(-1011.53 0 0)
(-1015.9 0 0)
(-1020.27 0 0)
(-1024.64 0 0)
(-1029.01 0 0)
(-1033.38 0 0)
(-1037.75 0 0)
(-1042.12 0 0)
(-1046.49 0 0)
(-1050.85 0 0)
(-1055.22 0 0)
(-1059.59 0 0)
(-1063.96 0 0)
(-1068.33 0 0)
(-1072.7 0 0)
(-1077.07 0 0)
(-1081.44 0 0)
(-1085.81 0 0)
(-1090.18 0 0)
(-1094.55 0 0)
(-1098.92 0 0)
(-1103.28 0 0)
(-1107.65 0 0)
(-1112.02 0 0)
(-1116.39 0 0)
(-1120.76 0 0)
(-1125.13 0 0)
(-1129.5 0 0)
(-1133.87 0 0)
(-1138.23 0 0)
(-1142.6 0 0)
(-1146.97 0 0)
(-1151.34 0 0)
(-1155.71 0 0)
(-1160.08 0 0)
(-1164.45 0 0)
(-1168.81 0 0)
(-1173.18 0 0)
(-1177.55 0 0)
(-1181.92 0 0)
(-1186.29 0 0)
(-1190.66 0 0)
(-1195.02 0 0)
(-1199.39 0 0)
(-1203.76 0 0)
(-1208.13 0 0)
(-1212.5 0 0)
(-1216.86 0 0)
(-1221.23 0 0)
(-1225.6 0 0)
(-1229.97 0 0)
(-1234.34 0 0)
(-1238.7 0 0)
(-1243.07 0 0)
(-1247.44 0 0)
(-1251.81 0 0)
(-1256.17 0 0)
(-1260.54 0 0)
(-1264.91 0 0)
(-1269.28 0 0)
(-1273.64 0 0)
(-1278.01 0 0)
(-1282.38 0 0)
(-1286.75 0 0)
(-1291.11 0 0)
(-1295.48 0 0)
(-1299.85 0 0)
(-1304.22 0 0)
(-1308.58 0 0)
(-1312.95 0 0)
(-1317.32 0 0)
(-1321.68 0 0)
(-1326.05 0 0)
(-1330.42 0 0)
(-1334.79 0 0)
(-1339.15 0 0)
(-1343.52 0 0)
(-1347.89 0 0)
(-1352.25 0 0)
(-1356.62 0 0)
(-1360.99 0 0)
(-1365.35 0 0)
(-1369.72 0 0)
(-1374.09 0 0)
(-1378.45 0 0)
(-1382.82 0 0)
(-1387.19 0 0)
(-1391.55 0 0)
(-1395.92 0 0)
(-1400.28 0 0)
(-1404.65 0 0)
(-1409.02 0 0)
(-1413.38 0 0)
(-1417.75 0 0)
(-1422.12 0 0)
(-1426.48 0 0)
(-1430.85 0 0)
(-1435.21 0 0)
(-1439.58 0 0)
(-1443.95 0 0)
(-1448.31 0 0)
(-1452.68 0 0)
(-1457.04 0 0)
(-1461.41 0 0)
(-1465.77 0 0)
(-1470.14 0 0)
(-1474.5 0 0)
(-1478.87 0 0)
(-1483.24 0 0)
(-1487.6 0 0)
(-1491.97 0 0)
(-1496.33 0 0)
(-1500.7 0 0)
(-1505.06 0 0)
(-1509.43 0 0)
(-1513.79 0 0)
(-1518.16 0 0)
(-1522.52 0 0)
(-1526.89 0 0)
(-1531.25 0 0)
(-1535.62 0 0)
(-1539.98 0 0)
(-1544.35 0 0)
(-1548.71 0 0)
(-1553.08 0 0)
(-1557.44 0 0)
(-1561.81 0 0)
(-1566.17 0 0)
(-1570.54 0 0)
(-1574.9 0 0)
(-1579.26 0 0)
(-1583.63 0 0)
(-1587.99 0 0)
(-1592.36 0 0)
(-1596.72 0 0)
(-1601.09 0 0)
(-1605.45 0 0)
(-1609.81 0 0)
(-1614.18 0 0)
(-1618.54 0 0)
(-1622.91 0 0)
(-1627.27 0 0)
(-1631.63 0 0)
(-1636 0 0)
(-1640.36 0 0)
(-1644.72 0 0)
(-1649.09 0 0)
(-1653.45 0 0)
(-1657.82 0 0)
(-1662.18 0 0)
(-1666.54 0 0)
(-1670.91 0 0)
(-1675.27 0 0)
(-1679.63 0 0)
(-1684 0 0)
(-1688.36 0 0)
(-1692.72 0 0)
(-1697.08 0 0)
(-1701.45 0 0)
(-1705.81 0 0)
(-1710.17 0 0)
(-1714.54 0 0)
(-1718.9 0 0)
(-1723.26 0 0)
(-1727.62 0 0)
(-1731.99 0 0)
(-1736.35 0 0)
(-1740.71 0 0)
(-1745.07 0 0)
(-1749.44 0 0)
(-1753.8 0 0)
(-1758.16 0 0)
(-1762.52 0 0)
(-1766.89 0 0)
(-1771.25 0 0)
(-1775.61 0 0)
(-1779.97 0 0)
(-1784.33 0 0)
(-1788.7 0 0)
(-1793.06 0 0)
(-1797.42 0 0)
(-1801.78 0 0)
(-1806.14 0 0)
(-1810.5 0 0)
(-1814.87 0 0)
(-1819.23 0 0)
(-1823.59 0 0)
(-1827.95 0 0)
(-1832.31 0 0)
(-1836.67 0 0)
(-1841.04 0 0)
(-1845.4 0 0)
(-1849.76 0 0)
(-1854.12 0 0)
(-1858.48 0 0)
(-1862.84 0 0)
(-1867.2 0 0)
(-1871.56 0 0)
(-1875.92 0 0)
(-1880.28 0 0)
(-1884.64 0 0)
(-1889 0 0)
(-1893.37 0 0)
(-1897.73 0 0)
(-1902.09 0 0)
(-1906.45 0 0)
(-1910.81 0 0)
(-1915.17 0 0)
(-1919.53 0 0)
(-1923.89 0 0)
(-1928.25 0 0)
(-1932.61 0 0)
(-1936.97 0 0)
(-1941.33 0 0)
(-1945.69 0 0)
(-1950.05 0 0)
(-1954.41 0 0)
(-1958.77 0 0)
(-1963.13 0 0)
(-1967.49 0 0)
(-1971.85 0 0)
(-1976.2 0 0)
(-1980.56 0 0)
(-1984.92 0 0)
(-1989.28 0 0)
(-1993.64 0 0)
(-1998 0 0)
(-2002.36 0 0)
(-2006.72 0 0)
(-2011.08 0 0)
(-2015.44 0 0)
(-2019.8 0 0)
(-2024.15 0 0)
(-2028.51 0 0)
(-2032.87 0 0)
(-2037.23 0 0)
(-2041.59 0 0)
(-2045.95 0 0)
(-2050.31 0 0)
(-2054.66 0 0)
(-2059.02 0 0)
(-2063.38 0 0)
(-2067.74 0 0)
(-2072.1 0 0)
(-2076.45 0 0)
(-2080.81 0 0)
(-2085.17 0 0)
(-2089.53 0 0)
(-2093.88 0 0)
(-2098.24 0 0)
(-2102.6 0 0)
(-2106.96 0 0)
(-2111.31 0 0)
(-2115.67 0 0)
(-2120.03 0 0)
(-2124.39 0 0)
(-2128.74 0 0)
(-2133.1 0 0)
(-2137.46 0 0)
(-2141.81 0 0)
(-2146.17 0 0)
(-2150.53 0 0)
(-2154.89 0 0)
(-2159.24 0 0)
(-2163.6 0 0)
(-2167.96 0 0)
(-2172.31 0 0)
(-2176.67 0 0)
(-2181.02 0 0)
(-2185.38 0 0)
(-2189.74 0 0)
(-2194.09 0 0)
(-2198.45 0 0)
(-2202.81 0 0)
(-2207.16 0 0)
(-2211.52 0 0)
(-2215.87 0 0)
(-2220.23 0 0)
(-2224.58 0 0)
(-2228.94 0 0)
(-2233.3 0 0)
(-2237.65 0 0)
(-2242.01 0 0)
(-2246.36 0 0)
(-2250.72 0 0)
(-2255.07 0 0)
(-2259.43 0 0)
(-2263.78 0 0)
(-2268.14 0 0)
(-2272.49 0 0)
(-2276.85 0 0)
(-2281.2 0 0)
(-2285.56 0 0)
(-2289.91 0 0)
(-2294.27 0 0)
(-2298.62 0 0)
(-2302.97 0 0)
(-2307.33 0 0)
(-2311.68 0 0)
(-2316.04 0 0)
(-2320.39 0 0)
(-2324.75 0 0)
(-2329.1 0 0)
(-2333.45 0 0)
(-2337.81 0 0)
(-2342.16 0 0)
(-2346.51 0 0)
(-2350.87 0 0)
(-2355.22 0 0)
(-2359.57 0 0)
(-2363.93 0 0)
(-2368.28 0 0)
(-2372.63 0 0)
(-2376.99 0 0)
(-2381.34 0 0)
(-2385.69 0 0)
(-2390.05 0 0)
(-2394.4 0 0)
(-2398.75 0 0)
(-2403.11 0 0)
(-2407.46 0 0)
(-2411.81 0 0)
(-2416.16 0 0)
(-2420.52 0 0)
(-2424.87 0 0)
(-2429.22 0 0)
(-2433.57 0 0)
(-2437.92 0 0)
(-2442.28 0 0)
(-2446.63 0 0)
(-2450.98 0 0)
(-2455.33 0 0)
(-2459.68 0 0)
(-2464.04 0 0)
(-2468.39 0 0)
(-2472.74 0 0)
(-2477.09 0 0)
(-2481.44 0 0)
(-2485.79 0 0)
(-2490.14 0 0)
(-2494.49 0 0)
(-2498.85 0 0)
(-2503.2 0 0)
(-2507.55 0 0)
(-2511.9 0 0)
(-2516.25 0 0)
(-2520.6 0 0)
(-2524.95 0 0)
(-2529.3 0 0)
(-2533.65 0 0)
(-2538 0 0)
(-2542.35 0 0)
(-2546.7 0 0)
(-2551.05 0 0)
(-2555.4 0 0)
(-2559.75 0 0)
(-2564.1 0 0)
(-2568.45 0 0)
(-2572.8 0 0)
(-2577.15 0 0)
(-2581.5 0 0)
(-2585.85 0 0)
(-2590.2 0 0)
(-2594.55 0 0)
(-2598.9 0 0)
(-2603.25 0 0)
(-2607.6 0 0)
(-2611.94 0 0)
(-2616.29 0 0)
(-2620.64 0 0)
(-2624.99 0 0)
(-2629.34 0 0)
(-2633.69 0 0)
(-2638.04 0 0)
(-2642.38 0 0)
(-2646.73 0 0)
(-2651.08 0 0)
(-2655.43 0 0)
(-2659.78 0 0)
(-2664.13 0 0)
(-2668.47 0 0)
(-2672.82 0 0)
(-2677.17 0 0)
(-2681.52 0 0)
(-2685.86 0 0)
(-2690.21 0 0)
(-2694.56 0 0)
(-2698.91 0 0)
(-2703.25 0 0)
(-2707.6 0 0)
(-2711.95 0 0)
(-2716.29 0 0)
(-2720.64 0 0)
(-2724.99 0 0)
(-2729.33 0 0)
(-2733.68 0 0)
(-2738.03 0 0)
(-2742.37 0 0)
(-2746.72 0 0)
(-2751.07 0 0)
(-2755.41 0 0)
(-2759.76 0 0)
(-2764.11 0 0)
(-2768.45 0 0)
(-2772.8 0 0)
(-2777.14 0 0)
(-2781.49 0 0)
(-2785.83 0 0)
(-2790.18 0 0)
(-2794.52 0 0)
(-2798.87 0 0)
(-2803.22 0 0)
(-2807.56 0 0)
(-2811.91 0 0)
(-2816.25 0 0)
(-2820.6 0 0)
(-2824.94 0 0)
(-2829.28 0 0)
(-2833.63 0 0)
(-2837.97 0 0)
(-2842.32 0 0)
(-2846.66 0 0)
(-2851.01 0 0)
(-2855.35 0 0)
(-2859.7 0 0)
(-2864.04 0 0)
(-2868.38 0 0)
(-2872.73 0 0)
(-2877.07 0 0)
(-2881.41 0 0)
(-2885.76 0 0)
(-2890.1 0 0)
(-2894.44 0 0)
(-2898.79 0 0)
(-2903.13 0 0)
(-2907.47 0 0)
(-2911.82 0 0)
(-2916.16 0 0)
(-2920.5 0 0)
(-2924.85 0 0)
(-2929.19 0 0)
(-2933.53 0 0)
(-2937.87 0 0)
(-2942.22 0 0)
(-2946.56 0 0)
(-2950.9 0 0)
(-2955.24 0 0)
(-2959.58 0 0)
(-2963.93 0 0)
(-2968.27 0 0)
(-2972.61 0 0)
(-2976.95 0 0)
(-2981.29 0 0)
(-2985.63 0 0)
(-2989.98 0 0)
(-2994.32 0 0)
(-2998.66 0 0)
(-3003 0 0)
(-3007.34 0 0)
(-3011.68 0 0)
(-3016.02 0 0)
(-3020.36 0 0)
(-3024.7 0 0)
(-3029.04 0 0)
(-3033.38 0 0)
(-3037.73 0 0)
(-3042.07 0 0)
(-3046.41 0 0)
(-3050.75 0 0)
(-3055.09 0 0)
(-3059.43 0 0)
(-3063.77 0 0)
(-3068.1 0 0)
(-3072.44 0 0)
(-3076.78 0 0)
(-3081.12 0 0)
(-3085.46 0 0)
(-3089.8 0 0)
(-3094.14 0 0)
(-3098.48 0 0)
(-3102.82 0 0)
(-3107.16 0 0)
(-3111.5 0 0)
(-3115.83 0 0)
(-3120.17 0 0)
(-3124.51 0 0)
(-3128.85 0 0)
(-3133.19 0 0)
(-3137.53 0 0)
(-3141.86 0 0)
(-3146.2 0 0)
(-3150.54 0 0)
(-3154.88 0 0)
(-3159.22 0 0)
(-3163.55 0 0)
(-3167.89 0 0)
(-3172.23 0 0)
(-3176.57 0 0)
(-3180.9 0 0)
(-3185.24 0 0)
(-3189.58 0 0)
(-3193.91 0 0)
(-3198.25 0 0)
(-3202.59 0 0)
(-3206.92 0 0)
(-3211.26 0 0)
(-3215.6 0 0)
(-3219.93 0 0)
(-3224.27 0 0)
(-3228.6 0 0)
(-3232.94 0 0)
(-3237.28 0 0)
(-3241.61 0 0)
(-3245.95 0 0)
(-3250.28 0 0)
(-3254.62 0 0)
(-3258.95 0 0)
(-3263.29 0 0)
(-3267.62 0 0)
(-3271.96 0 0)
(-3276.3 0 0)
(-3280.63 0 0)
(-3284.96 0 0)
(-3289.3 0 0)
(-3293.63 0 0)
(-3297.97 0 0)
(-3302.3 0 0)
(-3306.64 0 0)
(-3310.97 0 0)
(-3315.31 0 0)
(-3319.64 0 0)
(-3323.97 0 0)
(-3328.31 0 0)
(-3332.64 0 0)
(-3336.97 0 0)
(-3341.31 0 0)
(-3345.64 0 0)
(-3349.97 0 0)
(-3354.31 0 0)
(-3358.64 0 0)
(-3362.97 0 0)
(-3367.31 0 0)
(-3371.64 0 0)
(-3375.97 0 0)
(-3380.3 0 0)
(-3384.64 0 0)
(-3388.97 0 0)
(-3393.3 0 0)
(-3397.63 0 0)
(-3401.97 0 0)
(-3406.3 0 0)
(-3410.63 0 0)
(-3414.96 0 0)
(-3419.29 0 0)
(-3423.62 0 0)
(-3427.96 0 0)
(-3432.29 0 0)
(-3436.62 0 0)
(-3440.95 0 0)
(-3445.28 0 0)
(-3449.61 0 0)
(-3453.94 0 0)
(-3458.27 0 0)
(-3462.6 0 0)
(-3466.93 0 0)
(-3471.26 0 0)
(-3475.59 0 0)
(-3479.92 0 0)
(-3484.25 0 0)
(-3488.58 0 0)
(-3492.91 0 0)
(-3497.24 0 0)
(-3501.57 0 0)
(-3505.9 0 0)
(-3510.23 0 0)
(-3514.56 0 0)
(-3518.89 0 0)
(-3523.22 0 0)
(-3527.55 0 0)
(-3531.88 0 0)
(-3536.21 0 0)
(-3540.53 0 0)
(-3544.86 0 0)
(-3549.19 0 0)
(-3553.52 0 0)
(-3557.85 0 0)
(-3562.18 0 0)
(-3566.5 0 0)
(-3570.83 0 0)
(-3575.16 0 0)
(-3579.49 0 0)
(-3583.81 0 0)
(-3588.14 0 0)
(-3592.47 0 0)
(-3596.8 0 0)
(-3601.12 0 0)
(-3605.45 0 0)
(-3609.78 0 0)
(-3614.1 0 0)
(-3618.43 0 0)
(-3622.76 0 0)
(-3627.08 0 0)
(-3631.41 0 0)
(-3635.74 0 0)
(-3640.06 0 0)
(-3644.39 0 0)
(-3648.71 0 0)
(-3653.04 0 0)
(-3657.37 0 0)
(-3661.69 0 0)
(-3666.02 0 0)
(-3670.34 0 0)
(-3674.67 0 0)
(-3678.99 0 0)
(-3683.32 0 0)
(-3687.64 0 0)
(-3691.97 0 0)
(-3696.29 0 0)
(-3700.62 0 0)
(-3704.94 0 0)
(-3709.26 0 0)
(-3713.59 0 0)
(-3717.91 0 0)
(-3722.24 0 0)
(-3726.56 0 0)
(-3730.88 0 0)
(-3735.21 0 0)
(-3739.53 0 0)
(-3743.85 0 0)
(-3748.18 0 0)
(-3752.5 0 0)
(-3756.82 0 0)
(-3761.15 0 0)
(-3765.47 0 0)
(-3769.79 0 0)
(-3774.12 0 0)
(-3778.44 0 0)
(-3782.76 0 0)
(-3787.08 0 0)
(-3791.4 0 0)
(-3795.73 0 0)
(-3800.05 0 0)
(-3804.37 0 0)
(-3808.69 0 0)
(-3813.01 0 0)
(-3817.34 0 0)
(-3821.66 0 0)
(-3825.98 0 0)
(-3830.3 0 0)
(-3834.62 0 0)
(-3838.94 0 0)
(-3843.26 0 0)
(-3847.58 0 0)
(-3851.9 0 0)
(-3856.22 0 0)
(-3860.54 0 0)
(-3864.86 0 0)
(-3869.18 0 0)
(-3873.5 0 0)
(-3877.82 0 0)
(-3882.14 0 0)
(-3886.46 0 0)
(-3890.78 0 0)
(-3895.1 0 0)
(-3899.42 0 0)
(-3903.74 0 0)
(-3908.06 0 0)
(-3912.38 0 0)
(-3916.7 0 0)
(-3921.01 0 0)
(-3925.33 0 0)
(-3929.65 0 0)
(-3933.97 0 0)
(-3938.29 0 0)
(-3942.61 0 0)
(-3946.92 0 0)
(-3951.24 0 0)
(-3955.56 0 0)
(-3959.88 0 0)
(-3964.19 0 0)
(-3968.51 0 0)
(-3972.83 0 0)
(-3977.15 0 0)
(-3981.46 0 0)
(-3985.78 0 0)
(-3990.1 0 0)
(-3994.41 0 0)
(-3998.73 0 0)
(-4003.05 0 0)
(-4007.36 0 0)
(-4011.68 0 0)
(-4015.99 0 0)
(-4020.31 0 0)
(-4024.63 0 0)
(-4028.94 0 0)
(-4033.26 0 0)
(-4037.57 0 0)
(-4041.89 0 0)
(-4046.2 0 0)
(-4050.52 0 0)
(-4054.83 0 0)
(-4059.15 0 0)
(-4063.46 0 0)
(-4067.78 0 0)
(-4072.09 0 0)
(-4076.4 0 0)
(-4080.72 0 0)
(-4085.03 0 0)
(-4089.35 0 0)
(-4093.66 0 0)
(-4097.97 0 0)
(-4102.29 0 0)
(-4106.6 0 0)
(-4110.91 0 0)
(-4115.23 0 0)
(-4119.54 0 0)
(-4123.85 0 0)
(-4128.16 0 0)
(-4132.48 0 0)
(-4136.79 0 0)
(-4141.1 0 0)
(-4145.41 0 0)
(-4149.73 0 0)
(-4154.04 0 0)
(-4158.35 0 0)
(-4162.66 0 0)
(-4166.97 0 0)
(-4171.28 0 0)
(-4175.6 0 0)
(-4179.91 0 0)
(-4184.22 0 0)
(-4188.53 0 0)
(-4192.84 0 0)
(-4197.15 0 0)
(-4201.46 0 0)
(-4205.77 0 0)
(-4210.08 0 0)
(-4214.39 0 0)
(-4218.7 0 0)
(-4223.01 0 0)
(-4227.32 0 0)
(-4231.63 0 0)
(-4235.94 0 0)
(-4240.25 0 0)
(-4244.56 0 0)
(-4248.87 0 0)
(-4253.18 0 0)
(-4257.48 0 0)
(-4261.79 0 0)
(-4266.1 0 0)
(-4270.41 0 0)
(-4274.72 0 0)
(-4279.03 0 0)
(-4283.33 0 0)
(-4287.64 0 0)
(-4291.95 0 0)
(-4296.26 0 0)
(-4300.56 0 0)
(-4304.87 0 0)
(-4309.18 0 0)
(-4313.49 0 0)
(-4317.79 0 0)
(-4322.1 0 0)
(-4326.41 0 0)
(-4330.71 0 0)
(-4335.02 0 0)
(-4339.32 0 0)
(-4343.63 0 0)
(-4347.94 0 0)
(-4352.24 0 0)
(-4356.55 0 0)
(-4360.85 0 0)
(-4365.16 0 0)
(-4369.46 0 0)
(-4373.77 0 0)
(-4378.07 0 0)
(-4382.38 0 0)
(-4386.68 0 0)
(-4390.99 0 0)
(-4395.29 0 0)
(-4399.6 0 0)
(-4403.9 0 0)
(-4408.2 0 0)
(-4412.51 0 0)
(-4416.81 0 0)
(-4421.11 0 0)
(-4425.42 0 0)
(-4429.72 0 0)
(-4434.02 0 0)
(-4438.33 0 0)
(-4442.63 0 0)
(-4446.93 0 0)
(-4451.23 0 0)
(-4455.54 0 0)
(-4459.84 0 0)
(-4464.14 0 0)
(-4468.44 0 0)
(-4472.74 0 0)
(-4477.05 0 0)
(-4481.35 0 0)
(-4485.65 0 0)
(-4489.95 0 0)
(-4494.25 0 0)
(-4498.55 0 0)
(-4502.85 0 0)
(-4507.15 0 0)
(-4511.45 0 0)
(-4515.75 0 0)
(-4520.05 0 0)
(-4524.35 0 0)
(-4528.65 0 0)
(-4532.95 0 0)
(-4537.25 0 0)
(-4541.55 0 0)
(-4545.85 0 0)
(-4550.15 0 0)
(-4554.45 0 0)
(-4558.75 0 0)
(-4563.05 0 0)
(-4567.34 0 0)
(-4571.64 0 0)
(-4575.94 0 0)
(-4580.24 0 0)
(-4584.54 0 0)
(-4588.83 0 0)
(-4593.13 0 0)
(-4597.43 0 0)
(-4601.73 0 0)
(-4606.02 0 0)
(-4610.32 0 0)
(-4614.62 0 0)
(-4618.91 0 0)
(-4623.21 0 0)
(-4627.51 0 0)
(-4631.8 0 0)
(-4636.1 0 0)
(-4640.39 0 0)
(-4644.69 0 0)
(-4648.98 0 0)
(-4653.28 0 0)
(-4657.57 0 0)
(-4661.87 0 0)
(-4666.16 0 0)
(-4670.46 0 0)
(-4674.75 0 0)
(-4679.05 0 0)
(-4683.34 0 0)
(-4687.64 0 0)
(-4691.93 0 0)
(-4696.22 0 0)
(-4700.52 0 0)
(-4704.81 0 0)
(-4709.1 0 0)
(-4713.4 0 0)
(-4717.69 0 0)
(-4721.98 0 0)
(-4726.28 0 0)
(-4730.57 0 0)
(-4734.86 0 0)
(-4739.15 0 0)
(-4743.44 0 0)
(-4747.74 0 0)
(-4752.03 0 0)
(-4756.32 0 0)
(-4760.61 0 0)
(-4764.9 0 0)
(-4769.19 0 0)
(-4773.48 0 0)
(-4777.77 0 0)
(-4782.07 0 0)
(-4786.36 0 0)
(-4790.65 0 0)
(-4794.94 0 0)
(-4799.23 0 0)
(-4803.52 0 0)
(-4807.81 0 0)
(-4812.09 0 0)
(-4816.38 0 0)
(-4820.67 0 0)
(-4824.96 0 0)
(-4829.25 0 0)
(-4833.54 0 0)
(-4837.83 0 0)
(-4842.12 0 0)
(-4846.4 0 0)
(-4850.69 0 0)
(-4854.98 0 0)
(-4859.27 0 0)
(-4863.55 0 0)
(-4867.84 0 0)
(-4872.13 0 0)
(-4876.42 0 0)
(-4880.7 0 0)
(-4884.99 0 0)
(-4889.28 0 0)
(-4893.56 0 0)
(-4897.85 0 0)
(-4902.13 0 0)
(-4906.42 0 0)
(-4910.71 0 0)
(-4914.99 0 0)
(-4919.28 0 0)
(-4923.56 0 0)
(-4927.85 0 0)
(-4932.13 0 0)
(-4936.42 0 0)
(-4940.7 0 0)
(-4944.99 0 0)
(-4949.27 0 0)
(-4953.55 0 0)
(-4957.84 0 0)
(-4962.12 0 0)
(-4966.4 0 0)
(-4970.69 0 0)
(-4974.97 0 0)
(-4979.25 0 0)
(-4983.54 0 0)
(-4987.82 0 0)
(-4992.1 0 0)
(-4996.38 0 0)
(-5000.67 0 0)
(-5004.95 0 0)
(-5009.23 0 0)
(-5013.51 0 0)
(-5017.79 0 0)
(-5022.07 0 0)
(-5026.36 0 0)
(-5030.64 0 0)
(-5034.92 0 0)
(-5039.2 0 0)
(-5043.48 0 0)
(-5047.76 0 0)
(-5052.04 0 0)
(-5056.32 0 0)
(-5060.6 0 0)
(-5064.88 0 0)
(-5069.16 0 0)
(-5073.44 0 0)
(-5077.72 0 0)
(-5081.99 0 0)
(-5086.27 0 0)
(-5090.55 0 0)
(-5094.83 0 0)
(-5099.11 0 0)
(-5103.39 0 0)
(-5107.66 0 0)
(-5111.94 0 0)
(-5116.22 0 0)
(-5120.5 0 0)
(-5124.77 0 0)
(-5129.05 0 0)
(-5133.33 0 0)
(-5137.6 0 0)
(-5141.88 0 0)
(-5146.16 0 0)
(-5150.43 0 0)
(-5154.71 0 0)
(-5158.99 0 0)
(-5163.26 0 0)
(-5167.54 0 0)
(-5171.81 0 0)
(-5176.09 0 0)
(-5180.36 0 0)
(-5184.64 0 0)
(-5188.91 0 0)
(-5193.19 0 0)
(-5197.46 0 0)
(-5201.73 0 0)
(-5206.01 0 0)
(-5210.28 0 0)
(-5214.56 0 0)
(-5218.83 0 0)
(-5223.1 0 0)
(-5227.37 0 0)
(-5231.65 0 0)
(-5235.92 0 0)
(-5240.19 0 0)
(-5244.46 0 0)
(-5248.74 0 0)
(-5253.01 0 0)
(-5257.28 0 0)
(-5261.55 0 0)
(-5265.82 0 0)
(-5270.09 0 0)
(-5274.37 0 0)
(-5278.64 0 0)
(-5282.91 0 0)
(-5287.18 0 0)
(-5291.45 0 0)
(-5295.72 0 0)
(-5299.99 0 0)
(-5304.26 0 0)
(-5308.53 0 0)
(-5312.8 0 0)
(-5317.07 0 0)
(-5321.34 0 0)
(-5325.6 0 0)
(-5329.87 0 0)
(-5334.14 0 0)
(-5338.41 0 0)
(-5342.68 0 0)
(-5346.95 0 0)
(-5351.21 0 0)
(-5355.48 0 0)
(-5359.75 0 0)
(-5364.02 0 0)
(-5368.28 0 0)
(-5372.55 0 0)
(-5376.82 0 0)
(-5381.08 0 0)
(-5385.35 0 0)
(-5389.61 0 0)
(-5393.88 0 0)
(-5398.15 0 0)
(-5402.41 0 0)
(-5406.68 0 0)
(-5410.94 0 0)
(-5415.21 0 0)
(-5419.47 0 0)
(-5423.73 0 0)
(-5428 0 0)
(-5432.26 0 0)
(-5436.53 0 0)
(-5440.79 0 0)
(-5445.05 0 0)
(-5449.31 0 0)
(-5453.58 0 0)
(-5457.84 0 0)
(-5462.1 0 0)
(-5466.36 0 0)
(-5470.63 0 0)
(-5474.89 0 0)
(-5479.15 0 0)
(-5483.41 0 0)
(-5487.67 0 0)
(-5491.93 0 0)
(-5496.19 0 0)
(-5500.45 0 0)
(-5504.71 0 0)
(-5508.97 0 0)
(-5513.23 0 0)
(-5517.49 0 0)
(-5521.75 0 0)
(-5526.01 0 0)
(-5530.27 0 0)
(-5534.53 0 0)
(-5538.79 0 0)
(-5543.05 0 0)
(-5547.31 0 0)
(-5551.57 0 0)
(-5555.83 0 0)
(-5560.09 0 0)
(-5564.35 0 0)
(-5568.61 0 0)
(-5572.87 0 0)
(-5577.13 0 0)
(-5581.39 0 0)
(-5585.65 0 0)
(-5589.91 0 0)
(-5594.17 0 0)
(-5598.43 0 0)
(-5602.69 0 0)
(-5606.95 0 0)
(-5611.21 0 0)
(-5615.47 0 0)
(-5619.73 0 0)
(-5623.99 0 0)
(-5628.25 0 0)
(-5632.5 0 0)
(-5636.76 0 0)
(-5641.02 0 0)
(-5645.28 0 0)
(-5649.54 0 0)
(-5653.8 0 0)
(-5658.05 0 0)
(-5662.31 0 0)
(-5666.57 0 0)
(-5670.82 0 0)
(-5675.08 0 0)
(-5679.33 0 0)
(-5683.58 0 0)
(-5687.84 0 0)
(-5692.09 0 0)
(-5696.34 0 0)
(-5700.6 0 0)
(-5704.85 0 0)
(-5709.1 0 0)
(-5713.35 0 0)
(-5717.6 0 0)
(-5721.85 0 0)
(-5726.1 0 0)
(-5730.35 0 0)
(-5734.6 0 0)
(-5738.84 0 0)
(-5743.09 0 0)
(-5747.34 0 0)
(-5751.59 0 0)
(-5755.83 0 0)
(-5760.08 0 0)
(-5764.33 0 0)
(-5768.58 0 0)
(-5772.82 0 0)
(-5777.07 0 0)
(-5781.32 0 0)
(-5785.56 0 0)
(-5789.81 0 0)
(-5794.06 0 0)
(-5798.3 0 0)
(-5802.55 0 0)
(-5806.79 0 0)
(-5811.04 0 0)
(-5815.29 0 0)
(-5819.53 0 0)
(-5823.78 0 0)
(-5828.02 0 0)
(-5832.27 0 0)
(-5836.52 0 0)
(-5840.76 0 0)
(-5845.01 0 0)
(-5849.25 0 0)
(-5853.5 0 0)
(-5857.74 0 0)
(-5861.99 0 0)
(-5866.23 0 0)
(-5870.48 0 0)
(-5874.72 0 0)
(-5878.97 0 0)
(-5883.21 0 0)
(-5887.46 0 0)
(-5891.7 0 0)
(-5895.94 0 0)
(-5900.19 0 0)
(-5904.43 0 0)
(-5908.67 0 0)
(-5912.92 0 0)
(-5917.16 0 0)
(-5921.4 0 0)
(-5925.64 0 0)
(-5929.88 0 0)
(-5934.13 0 0)
(-5938.37 0 0)
(-5942.61 0 0)
(-5946.85 0 0)
(-5951.09 0 0)
(-5955.33 0 0)
(-5959.57 0 0)
(-5963.81 0 0)
(-5968.05 0 0)
(-5972.29 0 0)
(-5976.53 0 0)
(-5980.77 0 0)
(-5985.01 0 0)
(-5989.25 0 0)
(-5993.49 0 0)
(-5997.73 0 0)
(-6001.96 0 0)
(-6006.2 0 0)
(-6010.44 0 0)
(-6014.68 0 0)
(-6018.91 0 0)
(-6023.15 0 0)
(-6027.39 0 0)
(-6031.63 0 0)
(-6035.86 0 0)
(-6040.1 0 0)
(-6044.34 0 0)
(-6048.57 0 0)
(-6052.81 0 0)
(-6057.04 0 0)
(-6061.28 0 0)
(-6065.51 0 0)
(-6069.75 0 0)
(-6073.98 0 0)
(-6078.22 0 0)
(-6082.45 0 0)
(-6086.69 0 0)
(-6090.92 0 0)
(-6095.15 0 0)
(-6099.39 0 0)
(-6103.62 0 0)
(-6107.85 0 0)
(-6112.09 0 0)
(-6116.32 0 0)
(-6120.55 0 0)
(-6124.79 0 0)
(-6129.02 0 0)
(-6133.25 0 0)
(-6137.48 0 0)
(-6141.71 0 0)
(-6145.94 0 0)
(-6150.17 0 0)
(-6154.41 0 0)
(-6158.64 0 0)
(-6162.87 0 0)
(-6167.1 0 0)
(-6171.33 0 0)
(-6175.56 0 0)
(-6179.79 0 0)
(-6184.02 0 0)
(-6188.25 0 0)
(-6192.47 0 0)
(-6196.7 0 0)
(-6200.93 0 0)
(-6205.16 0 0)
(-6209.39 0 0)
(-6213.62 0 0)
(-6217.84 0 0)
(-6222.07 0 0)
(-6226.3 0 0)
(-6230.53 0 0)
(-6234.75 0 0)
(-6238.98 0 0)
(-6243.21 0 0)
(-6247.43 0 0)
(-6251.66 0 0)
(-6255.88 0 0)
(-6260.11 0 0)
(-6264.34 0 0)
(-6268.56 0 0)
(-6272.79 0 0)
(-6277.01 0 0)
(-6281.23 0 0)
(-6285.46 0 0)
(-6289.68 0 0)
(-6293.91 0 0)
(-6298.13 0 0)
(-6302.35 0 0)
(-6306.58 0 0)
(-6310.8 0 0)
(-6315.02 0 0)
(-6319.25 0 0)
(-6323.47 0 0)
(-6327.69 0 0)
(-6331.91 0 0)
(-6336.13 0 0)
(-6340.36 0 0)
(-6344.58 0 0)
(-6348.8 0 0)
(-6353.02 0 0)
(-6357.24 0 0)
(-6361.46 0 0)
(-6365.68 0 0)
(-6369.9 0 0)
(-6374.12 0 0)
(-6378.34 0 0)
(-6382.56 0 0)
(-6386.78 0 0)
(-6391 0 0)
(-6395.21 0 0)
(-6399.43 0 0)
(-6403.65 0 0)
(-6407.87 0 0)
(-6412.08 0 0)
(-6416.31 0 0)
(-6420.52 0 0)
(-6424.75 0 0)
(-6428.94 0 0)
(-6433.19 0 0)
(-6437.37 0 0)
(-6441.63 0 0)
(-6445.79 0 0)
(-6450.08 0 0)
(-6454.2 0 0)
(-6458.54 0 0)
(-6462.6 0 0)
(-6467.01 0 0)
(-6470.98 0 0)
(-6475.49 0 0)
(-6479.35 0 0)
(-6483.98 0 0)
(-6487.71 0 0)
(-6492.49 0 0)
(-6496.06 0 0)
(-6500.99 0 0)
(-6504.42 0 0)
(-6509.46 0 0)
(-6512.83 0 0)
(-6517.86 0 0)
(-6521.32 0 0)
(-6526.16 0 0)
(-6529.93 0 0)
(-6534.3 0 0)
(-6538.69 0 0)
(-6542.66 0 0)
(-6546.89 0 0)
(-6551.18 0 0)
(-6555.35 0 0)
(-6559.51 0 0)
(-6563.78 0 0)
(-6568.04 0 0)
(-6572.26 0 0)
(-6576.41 0 0)
(-6580.62 0 0)
(-6584.82 0 0)
(-6589.04 0 0)
(-6593.21 0 0)
(-6597.43 0 0)
(-6601.65 0 0)
(-6605.89 0 0)
(-6610.08 0 0)
(-6614.36 0 0)
(-6618.35 0 0)
(-6622.98 0 0)
(-6626.44 0 0)
(-6631.74 0 0)
(-6634.44 0 0)
(-6640.55 0 0)
(-6642.53 0 0)
(-6649.23 0 0)
(-6650.85 0 0)
(-6657.57 0 0)
(-6659.55 0 0)
(-6665.45 0 0)
(-6668.65 0 0)
(-6672.93 0 0)
(-6678.04 0 0)
(-6680.58 0 0)
(-6687.08 0 0)
(-6688.39 0 0)
(-6695.89 0 0)
(-6696.77 0 0)
(-6703.95 0 0)
(-6705.77 0 0)
(-6711.47 0 0)
(-6715.33 0 0)
(-6718.7 0 0)
(-6724.74 0 0)
(-6726.23 0 0)
(-6733.71 0 0)
(-6734.52 0 0)
(-6742.04 0 0)
(-6743.25 0 0)
(-6749.63 0 0)
(-6752.76 0 0)
(-6756.78 0 0)
(-6762.33 0 0)
(-6764.16 0 0)
(-6771.64 0 0)
(-6771.99 0 0)
(-6780.1 0 0)
(-6780.87 0 0)
(-6787.51 0 0)
(-6790.59 0 0)
(-6794.34 0 0)
(-6800.54 0 0)
(-6801.44 0 0)
(-6809.78 0 0)
(-6809.63 0 0)
(-6817.7 0 0)
(-6819.15 0 0)
(-6824.47 0 0)
(-6829.39 0 0)
(-6831.05 0 0)
(-6839.21 0 0)
(-6838.66 0 0)
(-6847.53 0 0)
(-6848.06 0 0)
(-6854.14 0 0)
(-6858.69 0 0)
(-6860.3 0 0)
(-6868.77 0 0)
(-6867.89 0 0)
(-6876.88 0 0)
(-6877.46 0 0)
(-6883.42 0 0)
(-6888.06 0 0)
(-6889.74 0 0)
(-6897.97 0 0)
(-6897.36 0 0)
(-6906.23 0 0)
(-6906.76 0 0)
(-6912.77 0 0)
(-6917.44 0 0)
(-6918.88 0 0)
(-6927.59 0 0)
(-6926.48 0 0)
(-6935.52 0 0)
(-6936.49 0 0)
(-6941.47 0 0)
(-6947.53 0 0)
(-6947.54 0 0)
(-6957.27 0 0)
(-6955.89 0 0)
(-6964.22 0 0)
(-6966.89 0 0)
(-6969.43 0 0)
(-6978.13 0 0)
(-6976.14 0 0)
(-6986.4 0 0)
(-6986.33 0 0)
(-6991.66 0 0)
(-6998.27 0 0)
(-6997.36 0 0)
(-7007.67 0 0)
(-7006.22 0 0)
(-7014.14 0 0)
(-7017.59 0 0)
(-7019.21 0 0)
(-7028.46 0 0)
(-7026.61 0 0)
(-7036.21 0 0)
(-7037.07 0 0)
(-7041.47 0 0)
(-7048.71 0 0)
(-7047.36 0 0)
(-7057.93 0 0)
(-7056.77 0 0)
(-7063.59 0 0)
(-7068.77 0 0)
(-7068.53 0 0)
(-7079.29 0 0)
(-7076.79 0 0)
(-7085.53 0 0)
(-7088.9 0 0)
(-7089.77 0 0)
(-7100.23 0 0)
(-7097.32 0 0)
(-7106.95 0 0)
(-7109.15 0 0)
(-7111.39 0 0)
(-7120.63 0 0)
(-7118.29 0 0)
(-7128.38 0 0)
(-7129.07 0 0)
(-7133.19 0 0)
(-7141.05 0 0)
(-7138.96 0 0)
(-7150.03 0 0)
(-7149.12 0 0)
(-7154.6 0 0)
(-7161.95 0 0)
(-7159.46 0 0)
(-7171.38 0 0)
(-7169.66 0 0)
(-7175.51 0 0)
(-7183.04 0 0)
(-7180.26 0 0)
(-7192.13 0 0)
(-7190.69 0 0)
(-7196.44 0 0)
(-7203.61 0 0)
(-7201.34 0 0)
(-7212.9 0 0)
(-7211.58 0 0)
(-7217.45 0 0)
(-7224.29 0 0)
(-7222.34 0 0)
(-7233.89 0 0)
(-7232.19 0 0)
(-7238.36 0 0)
(-7245.38 0 0)
(-7242.75 0 0)
(-7255.1 0 0)
(-7253.16 0 0)
(-7258.6 0 0)
(-7267.08 0 0)
(-7263.18 0 0)
(-7275.57 0 0)
(-7274.99 0 0)
(-7278.47 0 0)
(-7288.26 0 0)
(-7284.44 0 0)
(-7295.62 0 0)
(-7296.54 0 0)
(-7298.97 0 0)
(-7309.17 0 0)
(-7305.41 0 0)
(-7316.11 0 0)
(-7318.02 0 0)
(-7318.99 0 0)
(-7330.58 0 0)
(-7326.33 0 0)
(-7336.05 0 0)
(-7340.22 0 0)
(-7338.7 0 0)
(-7351.64 0 0)
(-7348.04 0 0)
(-7355.29 0 0)
(-7362.51 0 0)
(-7358.94 0 0)
(-7371.85 0 0)
(-7370.33 0 0)
(-7374.55 0 0)
(-7384.24 0 0)
(-7379.89 0 0)
(-7391.63 0 0)
(-7392.62 0 0)
(-7394.09 0 0)
(-7405.62 0 0)
(-7401.07 0 0)
(-7411.18 0 0)
(-7415.18 0 0)
(-7413.39 0 0)
(-7426.81 0 0)
(-7423.11 0 0)
(-7429.58 0 0)
(-7438.25 0 0)
(-7433.51 0 0)
(-7446.19 0 0)
(-7446.55 0 0)
(-7448.15 0 0)
(-7459.65 0 0)
(-7455.37 0 0)
(-7465.05 0 0)
(-7469.25 0 0)
(-7467.69 0 0)
(-7480.56 0 0)
(-7477.45 0 0)
(-7483.45 0 0)
(-7492.41 0 0)
(-7487.58 0 0)
(-7499.95 0 0)
(-7501.32 0 0)
(-7501.27 0 0)
(-7514.13 0 0)
(-7510.08 0 0)
(-7517.47 0 0)
(-7524.82 0 0)
(-7521.36 0 0)
(-7533.44 0 0)
(-7533.4 0 0)
(-7535.89 0 0)
(-7546.83 0 0)
(-7542.52 0 0)
(-7552.12 0 0)
(-7557.25 0 0)
(-7554.23 0 0)
(-7567.54 0 0)
(-7566.24 0 0)
(-7568.79 0 0)
(-7580.34 0 0)
(-7576.06 0 0)
(-7584.74 0 0)
(-7590.46 0 0)
(-7588.26 0 0)
(-7599.9 0 0)
(-7599.39 0 0)
(-7602.87 0 0)
(-7612.84 0 0)
(-7609.11 0 0)
(-7618.52 0 0)
(-7623.54 0 0)
(-7620.97 0 0)
(-7633.38 0 0)
(-7633.16 0 0)
(-7635.1 0 0)
(-7646.21 0 0)
(-7643.29 0 0)
(-7650.45 0 0)
(-7656.95 0 0)
(-7655.08 0 0)
(-7665.49 0 0)
(-7666.56 0 0)
(-7668.71 0 0)
(-7679.04 0 0)
(-7676.44 0 0)
(-7683.46 0 0)
(-7690.73 0 0)
(-7687.75 0 0)
(-7698.15 0 0)
(-7701.05 0 0)
(-7700.88 0 0)
(-7711.82 0 0)
(-7711.04 0 0)
(-7715.35 0 0)
(-7723.96 0 0)
(-7721.8 0 0)
(-7730.24 0 0)
(-7734.82 0 0)
(-7733.89 0 0)
(-7744.54 0 0)
(-7745.12 0 0)
(-7747.34 0 0)
(-7757.57 0 0)
(-7755.71 0 0)
(-7761.68 0 0)
(-7769.2 0 0)
(-7767.22 0 0)
(-7776.15 0 0)
(-7779.86 0 0)
(-7779.86 0 0)
(-7789.96 0 0)
(-7790.28 0 0)
(-7793.48 0 0)
(-7802.69 0 0)
(-7801.12 0 0)
(-7807.65 0 0)
(-7814.34 0 0)
(-7812.81 0 0)
(-7821.73 0 0)
(-7825.23 0 0)
(-7825.53 0 0)
(-7835.24 0 0)
(-7835.9 0 0)
(-7839.07 0 0)
(-7847.88 0 0)
(-7846.89 0 0)
(-7853.03 0 0)
(-7859.69 0 0)
(-7858.51 0 0)
(-7866.98 0 0)
(-7870.92 0 0)
(-7870.88 0 0)
(-7880.45 0 0)
(-7881.99 0 0)
(-7884.02 0 0)
(-7893.14 0 0)
(-7893.16 0 0)
(-7897.76 0 0)
(-7905.12 0 0)
(-7904.62 0 0)
(-7911.67 0 0)
(-7916.68 0 0)
(-7916.52 0 0)
(-7925.33 0 0)
(-7928.08 0 0)
(-7929.01 0 0)
(-7938.35 0 0)
(-7939.51 0 0)
(-7942.18 0 0)
(-7950.66 0 0)
(-7950.96 0 0)
(-7955.86 0 0)
(-7962.56 0 0)
(-7962.5 0 0)
(-7969.57 0 0)
(-7974.34 0 0)
(-7974.37 0 0)
(-7982.89 0 0)
(-7986.06 0 0)
(-7986.87 0 0)
(-7995.64 0 0)
(-7997.64 0 0)
(-8000.02 0 0)
(-8007.99 0 0)
(-8009.02 0 0)
(-8013.51 0 0)
(-8020.28 0 0)
(-8020.39 0 0)
(-8026.83 0 0)
(-8032.55 0 0)
(-8032.24 0 0)
(-8039.71 0 0)
(-8044.49 0 0)
(-8044.84 0 0)
(-8052.45 0 0)
(-8055.88 0 0)
(-8057.78 0 0)
(-8065.38 0 0)
(-8067.14 0 0)
(-8070.53 0 0)
(-8078.26 0 0)
(-8078.84 0 0)
(-8083.18 0 0)
(-8090.59 0 0)
(-8090.97 0 0)
(-8096.1 0 0)
(-8102.37 0 0)
(-8103.13 0 0)
(-8109.36 0 0)
(-8114.14 0 0)
(-8115.09 0 0)
(-8122.41 0 0)
(-8126.19 0 0)
(-8127.38 0 0)
(-8135.01 0 0)
(-8138.06 0 0)
(-8140.09 0 0)
(-8147.56 0 0)
(-8149.76 0 0)
(-8152.82 0 0)
(-8160.08 0 0)
(-8161.57 0 0)
(-8165.55 0 0)
(-8172.44 0 0)
(-8173.52 0 0)
(-8178.32 0 0)
(-8184.62 0 0)
(-8185.55 0 0)
(-8191.15 0 0)
(-8196.75 0 0)
(-8197.66 0 0)
(-8203.83 0 0)
(-8208.85 0 0)
(-8209.99 0 0)
(-8216.45 0 0)
(-8220.75 0 0)
(-8222.41 0 0)
(-8229.17 0 0)
(-8232.59 0 0)
(-8234.76 0 0)
(-8241.87 0 0)
(-8244.64 0 0)
(-8247.05 0 0)
(-8254.25 0 0)
(-8256.87 0 0)
(-8259.66 0 0)
(-8266.41 0 0)
(-8268.75 0 0)
(-8272.49 0 0)
(-8278.9 0 0)
(-8280.53 0 0)
(-8284.86 0 0)
(-8291.44 0 0)
(-8292.86 0 0)
(-8297.18 0 0)
(-8303.46 0 0)
(-8305.19 0 0)
(-8309.95 0 0)
(-8315.49 0 0)
(-8317.16 0 0)
(-8322.64 0 0)
(-8327.85 0 0)
(-8329.24 0 0)
(-8334.95 0 0)
(-8340.17 0 0)
(-8341.66 0 0)
(-8347.27 0 0)
(-8352.14 0 0)
(-8354.08 0 0)
(-8359.93 0 0)