/*--------------------------------*- C++ -*----------------------------------*\
  =========                 |
  \\      /  F ield         | OpenFOAM: The Open Source CFD Toolbox
   \\    /   O peration     | Website:  https://openfoam.org
    \\  /    A nd           | Version:  9
     \\/     M anipulation  |
\*---------------------------------------------------------------------------*/
FoamFile
{
    format      ascii;
    class       surfaceScalarField;
    location    "0.021";
    object      phi_0;
}
// * * * * * * * * * * * * * * * * * * * * * * * * * * * * * * * * * * * * * //

dimensions      [1 0 -1 0 0 0 0];

internalField   nonuniform List<scalar> 
9999
(
5.71951
5.85506
5.9906
6.12613
6.26164
6.39716
6.53269
6.66822
6.80371
6.93917
7.07461
7.21006
7.34553
7.48104
7.61658
7.75217
7.88777
8.0234
8.15904
8.29469
8.43033
8.56598
8.70164
8.8373
8.97296
9.10862
9.24428
9.37994
9.5156
9.65125
9.78691
9.92257
10.0582
10.1939
10.3295
10.4652
10.6008
10.7365
10.8721
11.0078
11.1435
11.2791
11.4148
11.5504
11.6861
11.8217
11.9574
12.093
12.2287
12.3643
12.5
12.6356
12.7712
12.9069
13.0425
13.1782
13.3138
13.4495
13.5851
13.7208
13.8564
13.9921
14.1277
14.2633
14.399
14.5346
14.6703
14.8059
14.9415
15.0772
15.2128
15.3485
15.4841
15.6197
15.7554
15.891
16.0267
16.1623
16.2979
16.4336
16.5692
16.7048
16.8405
16.9761
17.1117
17.2474
17.383
17.5186
17.6542
17.7899
17.9255
18.0611
18.1968
18.3324
18.468
18.6036
18.7393
18.8749
19.0105
19.1461
19.2818
19.4174
19.553
19.6886
19.8243
19.9599
20.0955
20.2311
20.3667
20.5024
20.638
20.7736
20.9092
21.0448
21.1805
21.3161
21.4517
21.5873
21.7229
21.8585
21.9941
22.1297
22.2654
22.401
22.5366
22.6722
22.8078
22.9434
23.079
23.2146
23.3502
23.4858
23.6214
23.757
23.8927
24.0283
24.1639
24.2995
24.4351
24.5707
24.7063
24.8419
24.9775
25.1131
25.2487
25.3843
25.5199
25.6555
25.7911
25.9266
26.0622
26.1978
26.3334
26.469
26.6046
26.7402
26.8758
27.0114
27.147
27.2826
27.4181
27.5537
27.6893
27.8249
27.9605
28.0961
28.2317
28.3672
28.5028
28.6384
28.774
28.9096
29.0451
29.1807
29.3163
29.4519
29.5875
29.723
29.8586
29.9942
30.1298
30.2653
30.4009
30.5365
30.672
30.8076
30.9432
31.0788
31.2143
31.3499
31.4855
31.621
31.7566
31.8922
32.0277
32.1633
32.2988
32.4344
32.57
32.7055
32.8411
32.9766
33.1122
33.2478
33.3833
33.5189
33.6544
33.79
33.9255
34.0611
34.1966
34.3322
34.4677
34.6033
34.7388
34.8744
35.0099
35.1455
35.281
35.4166
35.5521
35.6877
35.8232
35.9587
36.0943
36.2298
36.3654
36.5009
36.6364
36.772
36.9075
37.043
37.1786
37.3141
37.4496
37.5852
37.7207
37.8562
37.9918
38.1273
38.2628
38.3983
38.5339
38.6694
38.8049
38.9404
39.076
39.2115
39.347
39.4825
39.618
39.7536
39.8891
40.0246
40.1601
40.2956
40.4311
40.5667
40.7022
40.8377
40.9732
41.1087
41.2442
41.3797
41.5152
41.6507
41.7862
41.9217
42.0572
42.1927
42.3282
42.4637
42.5992
42.7347
42.8702
43.0057
43.1412
43.2767
43.4122
43.5477
43.6832
43.8187
43.9542
44.0897
44.2252
44.3607
44.4961
44.6316
44.7671
44.9026
45.0381
45.1736
45.309
45.4445
45.58
45.7155
45.8509
45.9864
46.1219
46.2574
46.3928
46.5283
46.6638
46.7993
46.9347
47.0702
47.2057
47.3411
47.4766
47.6121
47.7475
47.883
48.0184
48.1539
48.2894
48.4248
48.5603
48.6957
48.8312
48.9666
49.1021
49.2376
49.373
49.5085
49.6439
49.7794
49.9148
50.0502
50.1857
50.3211
50.4566
50.592
50.7275
50.8629
50.9983
51.1338
51.2692
51.4046
51.5401
51.6755
51.8109
51.9464
52.0818
52.2172
52.3527
52.4881
52.6235
52.7589
52.8944
53.0298
53.1652
53.3006
53.4361
53.5715
53.7069
53.8423
53.9777
54.1131
54.2485
54.384
54.5194
54.6548
54.7902
54.9256
55.061
55.1964
55.3318
55.4672
55.6026
55.738
55.8734
56.0088
56.1442
56.2796
56.415
56.5504
56.6858
56.8212
56.9566
57.092
57.2274
57.3627
57.4981
57.6335
57.7689
57.9043
58.0397
58.175
58.3104
58.4458
58.5812
58.7165
58.8519
58.9873
59.1227
59.258
59.3934
59.5288
59.6641
59.7995
59.9349
60.0702
60.2056
60.341
60.4763
60.6117
60.747
60.8824
61.0178
61.1531
61.2885
61.4238
61.5592
61.6945
61.8299
61.9652
62.1005
62.2359
62.3712
62.5066
62.6419
62.7773
62.9126
63.0479
63.1833
63.3186
63.4539
63.5893
63.7246
63.8599
63.9953
64.1306
64.2659
64.4012
64.5366
64.6719
64.8072
64.9425
65.0778
65.2132
65.3485
65.4838
65.6191
65.7544
65.8897
66.025
66.1603
66.2956
66.4309
66.5663
66.7016
66.8369
66.9722
67.1075
67.2428
67.378
67.5133
67.6486
67.7839
67.9192
68.0545
68.1898
68.3251
68.4604
68.5957
68.7309
68.8662
69.0015
69.1368
69.2721
69.4073
69.5426
69.6779
69.8132
69.9484
70.0837
70.219
70.3542
70.4895
70.6248
70.76
70.8953
71.0305
71.1658
71.3011
71.4363
71.5716
71.7068
71.8421
71.9773
72.1126
72.2478
72.3831
72.5183
72.6536
72.7888
72.924
73.0593
73.1945
73.3297
73.465
73.6002
73.7354
73.8707
74.0059
74.1411
74.2764
74.4116
74.5468
74.682
74.8173
74.9525
75.0877
75.2229
75.3581
75.4933
75.6285
75.7638
75.899
76.0342
76.1694
76.3046
76.4398
76.575
76.7102
76.8454
76.9806
77.1158
77.251
77.3862
77.5214
77.6566
77.7917
77.9269
78.0621
78.1973
78.3325
78.4677
78.6028
78.738
78.8732
79.0084
79.1435
79.2787
79.4139
79.5491
79.6842
79.8194
79.9546
80.0897
80.2249
80.36
80.4952
80.6304
80.7655
80.9007
81.0358
81.171
81.3061
81.4413
81.5764
81.7116
81.8467
81.9818
82.117
82.2521
82.3873
82.5224
82.6575
82.7927
82.9278
83.0629
83.198
83.3332
83.4683
83.6034
83.7385
83.8737
84.0088
84.1439
84.279
84.4141
84.5492
84.6843
84.8195
84.9546
85.0897
85.2248
85.3599
85.495
85.6301
85.7652
85.9003
86.0354
86.1705
86.3055
86.4406
86.5757
86.7108
86.8459
86.981
87.1161
87.2511
87.3862
87.5213
87.6564
87.7914
87.9265
88.0616
88.1966
88.3317
88.4668
88.6018
88.7369
88.872
89.007
89.1421
89.2771
89.4122
89.5472
89.6823
89.8173
89.9524
90.0874
90.2225
90.3575
90.4925
90.6276
90.7626
90.8977
91.0327
91.1677
91.3028
91.4378
91.5728
91.7078
91.8429
91.9779
92.1129
92.2479
92.3829
92.5179
92.653
92.788
92.923
93.058
93.193
93.328
93.463
93.598
93.733
93.868
94.003
94.138
94.273
94.408
94.5429
94.6779
94.8129
94.9479
95.0829
95.2179
95.3528
95.4878
95.6228
95.7578
95.8927
96.0277
96.1627
96.2976
96.4326
96.5675
96.7025
96.8375
96.9724
97.1074
97.2423
97.3773
97.5122
97.6472
97.7821
97.9171
98.052
98.1869
98.3219
98.4568
98.5918
98.7267
98.8616
98.9965
99.1315
99.2664
99.4013
99.5362
99.6712
99.8061
99.941
100.076
100.211
100.346
100.481
100.616
100.75
100.885
101.02
101.155
101.29
101.425
101.56
101.695
101.83
101.965
102.099
102.234
102.369
102.504
102.639
102.774
102.909
103.044
103.178
103.313
103.448
103.583
103.718
103.853
103.988
104.122
104.257
104.392
104.527
104.662
104.797
104.932
105.066
105.201
105.336
105.471
105.606
105.741
105.875
106.01
106.145
106.28
106.415
106.55
106.684
106.819
106.954
107.089
107.224
107.358
107.493
107.628
107.763
107.898
108.032
108.167
108.302
108.437
108.572
108.706
108.841
108.976
109.111
109.246
109.38
109.515
109.65
109.785
109.92
110.054
110.189
110.324
110.459
110.593
110.728
110.863
110.998
111.132
111.267
111.402
111.537
111.671
111.806
111.941
112.076
112.21
112.345
112.48
112.615
112.749
112.884
113.019
113.153
113.288
113.423
113.558
113.692
113.827
113.962
114.096
114.231
114.366
114.501
114.635
114.77
114.905
115.039
115.174
115.309
115.443
115.578
115.713
115.848
115.982
116.117
116.252
116.386
116.521
116.656
116.79
116.925
117.06
117.194
117.329
117.464
117.598
117.733
117.868
118.002
118.137
118.271
118.406
118.541
118.675
118.81
118.945
119.079
119.214
119.349
119.483
119.618
119.752
119.887
120.022
120.156
120.291
120.425
120.56
120.695
120.829
120.964
121.098
121.233
121.368
121.502
121.637
121.771
121.906
122.041
122.175
122.31
122.444
122.579
122.714
122.848
122.983
123.117
123.252
123.386
123.521
123.655
123.79
123.925
124.059
124.194
124.328
124.463
124.597
124.732
124.866
125.001
125.135
125.27
125.404
125.539
125.674
125.808
125.943
126.077
126.212
126.346
126.481
126.615
126.75
126.884
127.019
127.153
127.288
127.422
127.557
127.691
127.826
127.96
128.095
128.229
128.364
128.498
128.632
128.767
128.901
129.036
129.17
129.305
129.439
129.574
129.708
129.843
129.977
130.112
130.246
130.38
130.515
130.649
130.784
130.918
131.053
131.187
131.321
131.456
131.59
131.725
131.859
131.994
132.128
132.262
132.397
132.531
132.666
132.8
132.934
133.069
133.203
133.338
133.472
133.606
133.741
133.875
134.009
134.144
134.278
134.413
134.547
134.681
134.816
134.95
135.084
135.219
135.353
135.487
135.622
135.756
135.891
136.025
136.159
136.294
136.428
136.562
136.697
136.831
136.965
137.1
137.234
137.368
137.502
137.637
137.771
137.905
138.04
138.174
138.308
138.443
138.577
138.711
138.846
138.98
139.114
139.248
139.383
139.517
139.651
139.785
139.92
140.054
140.188
140.323
140.457
140.591
140.725
140.86
140.994
141.128
141.262
141.397
141.531
141.665
141.799
141.933
142.068
142.202
142.336
142.47
142.605
142.739
142.873
143.007
143.141
143.276
143.41
143.544
143.678
143.812
143.947
144.081
144.215
144.349
144.483
144.618
144.752
144.886
145.02
145.154
145.288
145.423
145.557
145.691
145.825
145.959
146.093
146.228
146.362
146.496
146.63
146.764
146.898
147.032
147.167
147.301
147.435
147.569
147.703
147.837
147.971
148.105
148.24
148.374
148.508
148.642
148.776
148.91
149.044
149.178
149.312
149.446
149.581
149.715
149.849
149.983
150.117
150.251
150.385
150.519
150.653
150.787
150.921
151.055
151.189
151.323
151.457
151.591
151.726
151.86
151.994
152.128
152.262
152.396
152.53
152.664
152.798
152.932
153.066
153.2
153.334
153.468
153.602
153.736
153.87
154.004
154.138
154.272
154.406
154.54
154.674
154.808
154.942
155.076
155.21
155.344
155.478
155.612
155.746
155.879
156.013
156.147
156.281
156.415
156.549
156.683
156.817
156.951
157.085
157.219
157.353
157.487
157.621
157.755
157.888
158.022
158.156
158.29
158.424
158.558
158.692
158.826
158.96
159.094
159.227
159.361
159.495
159.629
159.763
159.897
160.031
160.165
160.298
160.432
160.566
160.7
160.834
160.968
161.102
161.235
161.369
161.503
161.637
161.771
161.905
162.038
162.172
162.306
162.44
162.574
162.708
162.841
162.975
163.109
163.243
163.377
163.51
163.644
163.778
163.912
164.045
164.179
164.313
164.447
164.581
164.714
164.848
164.982
165.116
165.249
165.383
165.517
165.651
165.784
165.918
166.052
166.186
166.319
166.453
166.587
166.721
166.854
166.988
167.122
167.255
167.389
167.523
167.657
167.79
167.924
168.058
168.191
168.325
168.459
168.592
168.726
168.86
168.993
169.127
169.261
169.394
169.528
169.662
169.795
169.929
170.063
170.196
170.33
170.464
170.597
170.731
170.865
170.998
171.132
171.265
171.399
171.533
171.666
171.8
171.933
172.067
172.201
172.334
172.468
172.601
172.735
172.869
173.002
173.136
173.269
173.403
173.536
173.67
173.804
173.937
174.071
174.204
174.338
174.471
174.605
174.738
174.872
175.006
175.139
175.273
175.406
175.54
175.673
175.807
175.94
176.074
176.207
176.341
176.474
176.608
176.741
176.875
177.008
177.142
177.275
177.409
177.542
177.676
177.809
177.943
178.076
178.209
178.343
178.476
178.61
178.743
178.877
179.01
179.144
179.277
179.41
179.544
179.677
179.811
179.944
180.078
180.211
180.344
180.478
180.611
180.745
180.878
181.011
181.145
181.278
181.412
181.545
181.678
181.812
181.945
182.078
182.212
182.345
182.479
182.612
182.745
182.879
183.012
183.145
183.279
183.412
183.545
183.679
183.812
183.945
184.079
184.212
184.345
184.478
184.612
184.745
184.878
185.012
185.145
185.278
185.412
185.545
185.678
185.811
185.945
186.078
186.211
186.344
186.478
186.611
186.744
186.877
187.011
187.144
187.277
187.41
187.544
187.677
187.81
187.943
188.077
188.21
188.343
188.476
188.609
188.743
188.876
189.009
189.142
189.275
189.409
189.542
189.675
189.808
189.941
190.074
190.208
190.341
190.474
190.607
190.74
190.873
191.007
191.14
191.273
191.406
191.539
191.672
191.805
191.938
192.072
192.205
192.338
192.471
192.604
192.737
192.87
193.003
193.136
193.269
193.403
193.536
193.669
193.802
193.935
194.068
194.201
194.334
194.467
194.6
194.733
194.866
194.999
195.132
195.265
195.398
195.531
195.664
195.797
195.93
196.064
196.197
196.33
196.463
196.596
196.729
196.862
196.995
197.127
197.26
197.393
197.526
197.659
197.792
197.925
198.058
198.191
198.324
198.457
198.59
198.723
198.856
198.989
199.122
199.255
199.388
199.521
199.654
199.786
199.919
200.052
200.185
200.318
200.451
200.584
200.717
200.85
200.983
201.115
201.248
201.381
201.514
201.647
201.78
201.913
202.045
202.178
202.311
202.444
202.577
202.71
202.843
202.975
203.108
203.241
203.374
203.507
203.639
203.772
203.905
204.038
204.171
204.303
204.436
204.569
204.702
204.835
204.967
205.1
205.233
205.366
205.498
205.631
205.764
205.897
206.029
206.162
206.295
206.428
206.56
206.693
206.826
206.959
207.091
207.224
207.357
207.489
207.622
207.755
207.888
208.02
208.153
208.286
208.418
208.551
208.684
208.816
208.949
209.082
209.214
209.347
209.48
209.612
209.745
209.877
210.01
210.143
210.275
210.408
210.541
210.673
210.806
210.938
211.071
211.204
211.336
211.469
211.601
211.734
211.867
211.999
212.132
212.264
212.397
212.529
212.662
212.795
212.927
213.06
213.192
213.325
213.457
213.59
213.722
213.855
213.987
214.12
214.252
214.385
214.517
214.65
214.782
214.915
215.047
215.18
215.312
215.445
215.577
215.71
215.842
215.975
216.107
216.24
216.372
216.505
216.637
216.769
216.902
217.034
217.167
217.299
217.432
217.564
217.696
217.829
217.961
218.094
218.226
218.358
218.491
218.623
218.756
218.888
219.02
219.153
219.285
219.417
219.55
219.682
219.814
219.947
220.079
220.212
220.344
220.476
220.609
220.741
220.873
221.005
221.138
221.27
221.402
221.535
221.667
221.799
221.932
222.064
222.196
222.328
222.461
222.593
222.725
222.857
222.99
223.122
223.254
223.387
223.519
223.651
223.783
223.915
224.048
224.18
224.312
224.444
224.577
224.709
224.841
224.973
225.105
225.238
225.37
225.502
225.634
225.766
225.898
226.031
226.163
226.295
226.427
226.559
226.691
226.824
226.956
227.088
227.22
227.352
227.484
227.616
227.748
227.88
228.013
228.145
228.277
228.409
228.541
228.673
228.805
228.937
229.069
229.201
229.333
229.465
229.597
229.73
229.862
229.994
230.126
230.258
230.39
230.522
230.654
230.786
230.918
231.05
231.182
231.314
231.446
231.578
231.71
231.842
231.974
232.106
232.238
232.37
232.502
232.634
232.766
232.897
233.03
233.161
233.293
233.425
233.557
233.689
233.821
233.953
234.085
234.217
234.349
234.481
234.613
234.744
234.876
235.008
235.14
235.272
235.404
235.536
235.668
235.799
235.931
236.063
236.195
236.327
236.459
236.59
236.722
236.854
236.986
237.118
237.25
237.381
237.513
237.645
237.777
237.909
238.04
238.172
238.304
238.436
238.567
238.699
238.831
238.963
239.095
239.226
239.358
239.49
239.621
239.753
239.885
240.017
240.148
240.28
240.412
240.543
240.675
240.807
240.939
241.07
241.202
241.334
241.465
241.597
241.729
241.86
241.992
242.124
242.255
242.387
242.519
242.65
242.782
242.914
243.045
243.177
243.308
243.44
243.572
243.703
243.835
243.966
244.098
244.23
244.361
244.493
244.624
244.756
244.887
245.019
245.151
245.282
245.414
245.545
245.677
245.808
245.94
246.071
246.203
246.334
246.466
246.597
246.729
246.86
246.992
247.123
247.255
247.386
247.518
247.649
247.781
247.912
248.044
248.175
248.307
248.438
248.569
248.701
248.832
248.964
249.095
249.227
249.358
249.489
249.621
249.752
249.884
250.015
250.146
250.278
250.409
250.541
250.672
250.803
250.935
251.066
251.197
251.329
251.46
251.591
251.723
251.854
251.985
252.117
252.248
252.379
252.511
252.642
252.773
252.904
253.036
253.167
253.298
253.43
253.561
253.692
253.823
253.955
254.086
254.217
254.348
254.48
254.611
254.742
254.873
255.005
255.136
255.267
255.398
255.529
255.661
255.792
255.923
256.054
256.185
256.316
256.448
256.579
256.71
256.841
256.972
257.103
257.235
257.366
257.497
257.628
257.759
257.89
258.021
258.152
258.284
258.415
258.546
258.677
258.808
258.939
259.07
259.201
259.332
259.463
259.594
259.725
259.856
259.987
260.119
260.25
260.381
260.512
260.643
260.774
260.905
261.036
261.167
261.298
261.429
261.56
261.691
261.822
261.953
262.084
262.215
262.346
262.476
262.607
262.738
262.869
263
263.131
263.262
263.393
263.524
263.655
263.786
263.917
264.048
264.178
264.309
264.44
264.571
264.702
264.833
264.964
265.095
265.225
265.356
265.487
265.618
265.749
265.88
266.01
266.141
266.272
266.403
266.534
266.665
266.795
266.926
267.057
267.188
267.319
267.449
267.58
267.711
267.842
267.972
268.103
268.234
268.365
268.495
268.626
268.757
268.887
269.018
269.149
269.28
269.41
269.541
269.672
269.802
269.933
270.064
270.194
270.325
270.456
270.586
270.717
270.848
270.978
271.109
271.24
271.37
271.501
271.632
271.762
271.893
272.023
272.154
272.285
272.415
272.546
272.676
272.807
272.937
273.068
273.199
273.329
273.46
273.59
273.721
273.851
273.982
274.112
274.243
274.373
274.504
274.634
274.765
274.895
275.026
275.156
275.287
275.417
275.548
275.678
275.809
275.939
276.07
276.2
276.331
276.461
276.591
276.722
276.852
276.983
277.113
277.244
277.374
277.504
277.635
277.765
277.896
278.026
278.156
278.287
278.417
278.547
278.678
278.808
278.938
279.069
279.199
279.329
279.46
279.59
279.72
279.851
279.981
280.111
280.242
280.372
280.502
280.632
280.763
280.893
281.023
281.153
281.284
281.414
281.544
281.674
281.805
281.935
282.065
282.195
282.326
282.456
282.586
282.716
282.846
282.977
283.107
283.237
283.367
283.497
283.627
283.758
283.888
284.018
284.148
284.278
284.408
284.538
284.668
284.799
284.929
285.059
285.189
285.319
285.449
285.579
285.709
285.839
285.969
286.099
286.23
286.36
286.49
286.62
286.75
286.88
287.01
287.14
287.27
287.4
287.53
287.66
287.79
287.92
288.05
288.18
288.31
288.44
288.57
288.7
288.83
288.96
289.089
289.219
289.349
289.479
289.609
289.739
289.869
289.999
290.129
290.259
290.389
290.518
290.648
290.778
290.908
291.038
291.168
291.298
291.428
291.557
291.687
291.817
291.947
292.077
292.207
292.336
292.466
292.596
292.726
292.856
292.985
293.115
293.245
293.375
293.504
293.634
293.764
293.894
294.023
294.153
294.283
294.413
294.542
294.672
294.802
294.931
295.061
295.191
295.321
295.45
295.58
295.71
295.839
295.969
296.099
296.228
296.358
296.488
296.617
296.747
296.876
297.006
297.136
297.265
297.395
297.524
297.654
297.784
297.913
298.043
298.172
298.302
298.432
298.561
298.691
298.82
298.95
299.079
299.209
299.338
299.468
299.597
299.727
299.856
299.986
300.115
300.245
300.374
300.504
300.633
300.763
300.892
301.022
301.151
301.28
301.41
301.539
301.669
301.798
301.928
302.057
302.186
302.316
302.445
302.575
302.704
302.833
302.963
303.092
303.221
303.351
303.48
303.61
303.739
303.868
303.998
304.127
304.256
304.385
304.515
304.644
304.773
304.903
305.032
305.161
305.29
305.42
305.549
305.678
305.807
305.937
306.066
306.195
306.324
306.454
306.583
306.712
306.841
306.97
307.1
307.229
307.358
307.487
307.616
307.746
307.875
308.004
308.133
308.262
308.391
308.52
308.65
308.779
308.908
309.037
309.166
309.295
309.424
309.553
309.682
309.811
309.94
310.07
310.199
310.328
310.457
310.586
310.715
310.844
310.973
311.102
311.231
311.36
311.489
311.618
311.747
311.876
312.005
312.134
312.263
312.392
312.521
312.65
312.779
312.908
313.036
313.165
313.294
313.423
313.552
313.681
313.81
313.939
314.068
314.197
314.325
314.454
314.583
314.712
314.841
314.97
315.099
315.227
315.356
315.485
315.614
315.743
315.872
316
316.129
316.258
316.387
316.516
316.644
316.773
316.902
317.031
317.159
317.288
317.417
317.546
317.674
317.803
317.932
318.06
318.189
318.318
318.447
318.575
318.704
318.833
318.961
319.09
319.219
319.347
319.476
319.604
319.733
319.862
319.99
320.119
320.248
320.376
320.505
320.633
320.762
320.891
321.019
321.148
321.276
321.405
321.533
321.662
321.79
321.919
322.048
322.176
322.305
322.433
322.562
322.69
322.819
322.947
323.076
323.204
323.332
323.461
323.589
323.718
323.846
323.975
324.103
324.232
324.36
324.488
324.617
324.745
324.874
325.002
325.13
325.259
325.387
325.516
325.644
325.772
325.901
326.029
326.157
326.286
326.414
326.542
326.671
326.799
326.927
327.055
327.184
327.312
327.44
327.569
327.697
327.825
327.953
328.082
328.21
328.338
328.466
328.595
328.723
328.851
328.979
329.107
329.236
329.364
329.492
329.62
329.748
329.876
330.005
330.133
330.261
330.389
330.517
330.645
330.773
330.902
331.03
331.158
331.286
331.414
331.542
331.67
331.798
331.926
332.054
332.182
332.31
332.438
332.567
332.695
332.823
332.951
333.079
333.207
333.335
333.463
333.591
333.719
333.847
333.975
334.102
334.23
334.358
334.486
334.614
334.742
334.87
334.998
335.126
335.254
335.382
335.51
335.638
335.765
335.893
336.021
336.149
336.277
336.405
336.533
336.66
336.788
336.916
337.044
337.172
337.3
337.427
337.555
337.683
337.811
337.938
338.066
338.194
338.322
338.45
338.577
338.705
338.833
338.96
339.088
339.216
339.344
339.471
339.599
339.727
339.854
339.982
340.11
340.237
340.365
340.493
340.62
340.748
340.876
341.003
341.131
341.259
341.386
341.514
341.641
341.769
341.896
342.024
342.152
342.279
342.407
342.534
342.662
342.789
342.917
343.044
343.172
343.299
343.427
343.554
343.682
343.809
343.937
344.064
344.192
344.319
344.447
344.574
344.702
344.829
344.957
345.084
345.211
345.339
345.466
345.594
345.721
345.848
345.976
346.103
346.23
346.358
346.485
346.612
346.74
346.867
346.994
347.122
347.249
347.376
347.504
347.631
347.758
347.886
348.013
348.14
348.267
348.395
348.522
348.649
348.776
348.904
349.031
349.158
349.285
349.413
349.54
349.667
349.794
349.921
350.048
350.176
350.303
350.43
350.557
350.684
350.811
350.938
351.066
351.193
351.32
351.447
351.574
351.701
351.828
351.955
352.082
352.209
352.336
352.463
352.591
352.718
352.845
352.972
353.099
353.226
353.353
353.48
353.607
353.734
353.861
353.988
354.115
354.241
354.368
354.495
354.622
354.749
354.876
355.003
355.13
355.257
355.384
355.511
355.638
355.764
355.891
356.018
356.145
356.272
356.399
356.526
356.652
356.779
356.906
357.033
357.16
357.286
357.413
357.54
357.667
357.794
357.92
358.047
358.174
358.301
358.427
358.554
358.681
358.807
358.934
359.061
359.188
359.314
359.441
359.568
359.694
359.821
359.948
360.074
360.201
360.328
360.454
360.581
360.707
360.834
360.961
361.087
361.214
361.34
361.467
361.594
361.72
361.847
361.973
362.1
362.226
362.353
362.479
362.606
362.732
362.859
362.985
363.112
363.238
363.365
363.491
363.618
363.744
363.871
363.997
364.123
364.25
364.376
364.503
364.629
364.756
364.882
365.008
365.135
365.261
365.387
365.514
365.64
365.766
365.893
366.019
366.145
366.272
366.398
366.524
366.651
366.777
366.903
367.029
367.156
367.282
367.408
367.535
367.661
367.787
367.913
368.039
368.166
368.292
368.418
368.544
368.67
368.797
368.923
369.049
369.175
369.301
369.427
369.553
369.68
369.806
369.932
370.058
370.184
370.31
370.436
370.562
370.688
370.814
370.941
371.067
371.193
371.319
371.445
371.571
371.697
371.823
371.949
372.075
372.201
372.327
372.453
372.579
372.705
372.831
372.956
373.082
373.208
373.334
373.46
373.586
373.712
373.838
373.964
374.09
374.216
374.341
374.467
374.593
374.719
374.845
374.971
375.096
375.222
375.348
375.474
375.6
375.725
375.851
375.977
376.103
376.229
376.354
376.48
376.606
376.732
376.857
376.983
377.109
377.234
377.36
377.486
377.611
377.737
377.863
377.988
378.114
378.24
378.365
378.491
378.617
378.742
378.868
378.993
379.119
379.245
379.37
379.496
379.621
379.747
379.872
379.998
380.124
380.249
380.375
380.5
380.626
380.751
380.877
381.002
381.128
381.253
381.379
381.504
381.629
381.755
381.88
382.006
382.131
382.257
382.382
382.507
382.633
382.758
382.884
383.009
383.134
383.26
383.385
383.51
383.636
383.761
383.886
384.012
384.137
384.262
384.387
384.513
384.638
384.763
384.889
385.014
385.139
385.264
385.39
385.515
385.64
385.765
385.89
386.016
386.141
386.266
386.391
386.516
386.641
386.767
386.892
387.017
387.142
387.267
387.392
387.517
387.642
387.767
387.893
388.018
388.143
388.268
388.393
388.518
388.643
388.768
388.893
389.018
389.143
389.268
389.393
389.518
389.643
389.768
389.893
390.018
390.143
390.268
390.393
390.517
390.642
390.767
390.892
391.017
391.142
391.267
391.392
391.517
391.641
391.766
391.891
392.016
392.141
392.266
392.39
392.515
392.64
392.765
392.89
393.014
393.139
393.264
393.389
393.513
393.638
393.763
393.887
394.012
394.137
394.262
394.386
394.511
394.636
394.76
394.885
395.01
395.134
395.259
395.383
395.508
395.633
395.757
395.882
396.006
396.131
396.256
396.38
396.505
396.629
396.754
396.878
397.003
397.127
397.252
397.376
397.501
397.625
397.75
397.874
397.999
398.123
398.248
398.372
398.496
398.621
398.745
398.87
398.994
399.118
399.243
399.367
399.492
399.616
399.74
399.865
399.989
400.113
400.238
400.362
400.486
400.611
400.735
400.859
400.983
401.108
401.232
401.356
401.48
401.605
401.729
401.853
401.977
402.101
402.226
402.35
402.474
402.598
402.722
402.846
402.971
403.095
403.219
403.343
403.467
403.591
403.715
403.839
403.963
404.088
404.212
404.336
404.46
404.584
404.708
404.832
404.956
405.08
405.204
405.328
405.452
405.576
405.7
405.824
405.948
406.072
406.195
406.319
406.443
406.567
406.691
406.815
406.939
407.063
407.187
407.31
407.434
407.558
407.682
407.806
407.93
408.053
408.177
408.301
408.425
408.549
408.672
408.796
408.92
409.044
409.167
409.291
409.415
409.539
409.662
409.786
409.91
410.033
410.157
410.281
410.404
410.528
410.652
410.775
410.899
411.022
411.146
411.27
411.393
411.517
411.64
411.764
411.887
412.011
412.134
412.258
412.382
412.505
412.629
412.752
412.876
412.999
413.122
413.246
413.369
413.493
413.616
413.74
413.863
413.986
414.11
414.233
414.357
414.48
414.603
414.727
414.85
414.973
415.097
415.22
415.343
415.467
415.59
415.713
415.837
415.96
416.083
416.206
416.33
416.453
416.576
416.699
416.822
416.946
417.069
417.192
417.315
417.438
417.562
417.685
417.808
417.931
418.054
418.177
418.3
418.423
418.546
418.67
418.793
418.916
419.039
419.162
419.285
419.408
419.531
419.654
419.777
419.9
420.023
420.146
420.269
420.392
420.515
420.638
420.76
420.883
421.006
421.129
421.252
421.375
421.498
421.621
421.744
421.866
421.989
422.112
422.235
422.358
422.481
422.603
422.726
422.849
422.972
423.094
423.217
423.34
423.463
423.585
423.708
423.831
423.953
424.076
424.199
424.321
424.444
424.567
424.689
424.812
424.935
425.057
425.18
425.302
425.425
425.548
425.67
425.793
425.915
426.038
426.16
426.283
426.405
426.528
426.65
426.773
426.895
427.018
427.14
427.263
427.385
427.507
427.63
427.752
427.875
427.997
428.119
428.242
428.364
428.486
428.609
428.731
428.853
428.976
429.098
429.22
429.343
429.465
429.587
429.709
429.832
429.954
430.076
430.198
430.321
430.443
430.565
430.687
430.809
430.931
431.054
431.176
431.298
431.42
431.542
431.664
431.786
431.908
432.03
432.152
432.274
432.396
432.518
432.641
432.763
432.885
433.006
433.128
433.25
433.372
433.494
433.616
433.738
433.86
433.982
434.104
434.226
434.348
434.47
434.591
434.713
434.835
434.957
435.079
435.2
435.322
435.444
435.566
435.688
435.809
435.931
436.053
436.175
436.296
436.418
436.54
436.661
436.783
436.905
437.026
437.148
437.27
437.391
437.513
437.634
437.756
437.878
437.999
438.121
438.242
438.364
438.485
438.607
438.728
438.85
438.971
439.093
439.214
439.336
439.457
439.578
439.7
439.821
439.943
440.064
440.185
440.307
440.428
440.549
440.671
440.792
440.913
441.035
441.156
441.277
441.398
441.52
441.641
441.762
441.883
442.005
442.126
442.247
442.368
442.489
442.61
442.732
442.853
442.974
443.095
443.216
443.337
443.458
443.579
443.7
443.821
443.942
444.063
444.184
444.305
444.426
444.547
444.668
444.789
444.91
445.031
445.152
445.273
445.394
445.515
445.635
445.756
445.877
445.998
446.119
446.24
446.36
446.481
446.602
446.723
446.843
446.964
447.085
447.206
447.326
447.447
447.568
447.688
447.809
447.929
448.05
448.171
448.291
448.412
448.532
448.653
448.774
448.894
449.015
449.135
449.256
449.376
449.497
449.617
449.737
449.858
449.978
450.099
450.219
450.339
450.46
450.58
450.701
450.821
450.941
451.061
451.182
451.302
451.422
451.543
451.663
451.783
451.903
452.023
452.144
452.264
452.384
452.504
452.624
452.744
452.864
452.985
453.105
453.225
453.345
453.465
453.585
453.705
453.825
453.945
454.065
454.185
454.305
454.425
454.544
454.664
454.784
454.904
455.024
455.144
455.264
455.384
455.503
455.623
455.743
455.863
455.982
456.102
456.222
456.342
456.461
456.581
456.701
456.82
456.94
457.059
457.179
457.299
457.418
457.538
457.657
457.777
457.896
458.016
458.135
458.255
458.374
458.494
458.613
458.733
458.852
458.971
459.091
459.21
459.329
459.449
459.568
459.687
459.807
459.926
460.045
460.164
460.284
460.403
460.522
460.641
460.76
460.879
460.998
461.118
461.237
461.356
461.475
461.594
461.713
461.832
461.951
462.07
462.189
462.308
462.427
462.545
462.664
462.783
462.902
463.021
463.14
463.258
463.377
463.496
463.615
463.734
463.852
463.971
464.09
464.208
464.327
464.446
464.564
464.683
464.801
464.92
465.038
465.157
465.275
465.394
465.512
465.631
465.749
465.868
465.986
466.104
466.223
466.341
466.459
466.578
466.696
466.814
466.932
467.051
467.169
467.287
467.405
467.523
467.641
467.759
467.877
467.995
468.114
468.232
468.349
468.467
468.585
468.703
468.821
468.939
469.057
469.175
469.293
469.41
469.528
469.646
469.764
469.881
469.999
470.117
470.234
470.352
470.469
470.587
470.704
470.822
470.939
471.057
471.174
471.292
471.409
471.526
471.644
471.761
471.878
471.995
472.113
472.23
472.347
472.464
472.581
472.698
472.815
472.932
473.049
473.166
473.283
473.4
473.517
473.634
473.75
473.867
473.984
474.1
474.217
474.334
474.45
474.567
474.683
474.8
474.916
475.033
475.149
475.265
475.382
475.498
475.614
475.73
475.846
475.962
476.078
476.194
476.31
476.426
476.542
476.658
476.774
476.89
477.005
477.121
477.236
477.352
477.467
477.583
477.698
477.814
477.929
478.044
478.159
478.274
478.389
478.504
478.619
478.734
478.849
478.964
479.078
479.193
479.307
479.422
479.536
479.65
479.765
479.879
479.993
480.107
480.221
480.335
480.448
480.562
480.675
480.789
480.902
481.016
481.129
481.242
481.355
481.468
481.58
481.693
481.805
481.918
482.03
482.142
482.254
482.366
482.478
482.589
482.701
482.812
482.923
483.034
483.145
483.256
483.366
483.477
483.587
483.697
483.807
483.916
484.026
484.135
484.244
484.352
484.461
484.569
484.677
484.785
484.893
485
485.107
485.214
485.32
485.426
485.532
485.638
485.743
485.848
485.952
486.056
486.16
486.264
486.367
486.47
486.572
486.674
486.775
486.876
486.977
487.077
487.177