/*--------------------------------*- C++ -*----------------------------------*\
  =========                 |
  \\      /  F ield         | OpenFOAM: The Open Source CFD Toolbox
   \\    /   O peration     | Website:  https://openfoam.org
    \\  /    A nd           | Version:  9
     \\/     M anipulation  |
\*---------------------------------------------------------------------------*/
FoamFile
{
    format      ascii;
    class       volVectorField;
    location    "0.021";
    object      U_0;
}
// * * * * * * * * * * * * * * * * * * * * * * * * * * * * * * * * * * * * * //

dimensions      [0 1 -1 0 0 0 0];

internalField   nonuniform List<vector> 
10000
(
(2.80731 0 0)
(2.90923 0 0)
(2.98272 0 0)
(3.04676 0 0)
(3.11319 0 0)
(3.18167 0 0)
(3.25032 0 0)
(3.31864 0 0)
(3.38682 0 0)
(3.45503 0 0)
(3.5233 0 0)
(3.5916 0 0)
(3.65991 0 0)
(3.72822 0 0)
(3.79652 0 0)
(3.86481 0 0)
(3.93308 0 0)
(4.00135 0 0)
(4.06961 0 0)
(4.13787 0 0)
(4.20613 0 0)
(4.2744 0 0)
(4.34266 0 0)
(4.41092 0 0)
(4.47917 0 0)
(4.54743 0 0)
(4.61569 0 0)
(4.68395 0 0)
(4.75221 0 0)
(4.82047 0 0)
(4.88873 0 0)
(4.95699 0 0)
(5.02525 0 0)
(5.09352 0 0)
(5.16178 0 0)
(5.23004 0 0)
(5.29831 0 0)
(5.36657 0 0)
(5.43484 0 0)
(5.5031 0 0)
(5.57137 0 0)
(5.63964 0 0)
(5.7079 0 0)
(5.77617 0 0)
(5.84444 0 0)
(5.91271 0 0)
(5.98098 0 0)
(6.04925 0 0)
(6.11752 0 0)
(6.18579 0 0)
(6.25406 0 0)
(6.32233 0 0)
(6.3906 0 0)
(6.45888 0 0)
(6.52715 0 0)
(6.59542 0 0)
(6.6637 0 0)
(6.73197 0 0)
(6.80025 0 0)
(6.86852 0 0)
(6.9368 0 0)
(7.00508 0 0)
(7.07336 0 0)
(7.14163 0 0)
(7.20991 0 0)
(7.27819 0 0)
(7.34647 0 0)
(7.41475 0 0)
(7.48303 0 0)
(7.55131 0 0)
(7.61959 0 0)
(7.68788 0 0)
(7.75616 0 0)
(7.82444 0 0)
(7.89273 0 0)
(7.96101 0 0)
(8.02929 0 0)
(8.09758 0 0)
(8.16586 0 0)
(8.23415 0 0)
(8.30244 0 0)
(8.37072 0 0)
(8.43901 0 0)
(8.5073 0 0)
(8.57559 0 0)
(8.64388 0 0)
(8.71217 0 0)
(8.78046 0 0)
(8.84875 0 0)
(8.91704 0 0)
(8.98533 0 0)
(9.05363 0 0)
(9.12192 0 0)
(9.19021 0 0)
(9.25851 0 0)
(9.3268 0 0)
(9.39509 0 0)
(9.46339 0 0)
(9.53169 0 0)
(9.59998 0 0)
(9.66828 0 0)
(9.73658 0 0)
(9.80488 0 0)
(9.87317 0 0)
(9.94147 0 0)
(10.0098 0 0)
(10.0781 0 0)
(10.1464 0 0)
(10.2147 0 0)
(10.283 0 0)
(10.3513 0 0)
(10.4196 0 0)
(10.4879 0 0)
(10.5562 0 0)
(10.6245 0 0)
(10.6928 0 0)
(10.7611 0 0)
(10.8294 0 0)
(10.8977 0 0)
(10.966 0 0)
(11.0343 0 0)
(11.1026 0 0)
(11.1709 0 0)
(11.2393 0 0)
(11.3076 0 0)
(11.3759 0 0)
(11.4442 0 0)
(11.5125 0 0)
(11.5808 0 0)
(11.6491 0 0)
(11.7174 0 0)
(11.7857 0 0)
(11.8541 0 0)
(11.9224 0 0)
(11.9907 0 0)
(12.059 0 0)
(12.1273 0 0)
(12.1956 0 0)
(12.2639 0 0)
(12.3323 0 0)
(12.4006 0 0)
(12.4689 0 0)
(12.5372 0 0)
(12.6055 0 0)
(12.6739 0 0)
(12.7422 0 0)
(12.8105 0 0)
(12.8788 0 0)
(12.9471 0 0)
(13.0155 0 0)
(13.0838 0 0)
(13.1521 0 0)
(13.2204 0 0)
(13.2888 0 0)
(13.3571 0 0)
(13.4254 0 0)
(13.4937 0 0)
(13.5621 0 0)
(13.6304 0 0)
(13.6987 0 0)
(13.767 0 0)
(13.8354 0 0)
(13.9037 0 0)
(13.972 0 0)
(14.0404 0 0)
(14.1087 0 0)
(14.177 0 0)
(14.2453 0 0)
(14.3137 0 0)
(14.382 0 0)
(14.4503 0 0)
(14.5187 0 0)
(14.587 0 0)
(14.6553 0 0)
(14.7237 0 0)
(14.792 0 0)
(14.8604 0 0)
(14.9287 0 0)
(14.997 0 0)
(15.0654 0 0)
(15.1337 0 0)
(15.202 0 0)
(15.2704 0 0)
(15.3387 0 0)
(15.4071 0 0)
(15.4754 0 0)
(15.5437 0 0)
(15.6121 0 0)
(15.6804 0 0)
(15.7488 0 0)
(15.8171 0 0)
(15.8855 0 0)
(15.9538 0 0)
(16.0221 0 0)
(16.0905 0 0)
(16.1588 0 0)
(16.2272 0 0)
(16.2955 0 0)
(16.3639 0 0)
(16.4322 0 0)
(16.5006 0 0)
(16.5689 0 0)
(16.6373 0 0)
(16.7056 0 0)
(16.774 0 0)
(16.8423 0 0)
(16.9107 0 0)
(16.979 0 0)
(17.0474 0 0)
(17.1157 0 0)
(17.1841 0 0)
(17.2524 0 0)
(17.3208 0 0)
(17.3891 0 0)
(17.4575 0 0)
(17.5259 0 0)
(17.5942 0 0)
(17.6626 0 0)
(17.7309 0 0)
(17.7993 0 0)
(17.8676 0 0)
(17.936 0 0)
(18.0044 0 0)
(18.0727 0 0)
(18.1411 0 0)
(18.2094 0 0)
(18.2778 0 0)
(18.3462 0 0)
(18.4145 0 0)
(18.4829 0 0)
(18.5513 0 0)
(18.6196 0 0)
(18.688 0 0)
(18.7563 0 0)
(18.8247 0 0)
(18.8931 0 0)
(18.9614 0 0)
(19.0298 0 0)
(19.0982 0 0)
(19.1665 0 0)
(19.2349 0 0)
(19.3033 0 0)
(19.3717 0 0)
(19.44 0 0)
(19.5084 0 0)
(19.5768 0 0)
(19.6451 0 0)
(19.7135 0 0)
(19.7819 0 0)
(19.8503 0 0)
(19.9186 0 0)
(19.987 0 0)
(20.0554 0 0)
(20.1238 0 0)
(20.1921 0 0)
(20.2605 0 0)
(20.3289 0 0)
(20.3973 0 0)
(20.4656 0 0)
(20.534 0 0)
(20.6024 0 0)
(20.6708 0 0)
(20.7392 0 0)
(20.8075 0 0)
(20.8759 0 0)
(20.9443 0 0)
(21.0127 0 0)
(21.0811 0 0)
(21.1494 0 0)
(21.2178 0 0)
(21.2862 0 0)
(21.3546 0 0)
(21.423 0 0)
(21.4914 0 0)
(21.5598 0 0)
(21.6281 0 0)
(21.6965 0 0)
(21.7649 0 0)
(21.8333 0 0)
(21.9017 0 0)
(21.9701 0 0)
(22.0385 0 0)
(22.1069 0 0)
(22.1752 0 0)
(22.2436 0 0)
(22.312 0 0)
(22.3804 0 0)
(22.4488 0 0)
(22.5172 0 0)
(22.5856 0 0)
(22.654 0 0)
(22.7224 0 0)
(22.7908 0 0)
(22.8592 0 0)
(22.9276 0 0)
(22.996 0 0)
(23.0644 0 0)
(23.1328 0 0)
(23.2012 0 0)
(23.2696 0 0)
(23.338 0 0)
(23.4064 0 0)
(23.4748 0 0)
(23.5432 0 0)
(23.6116 0 0)
(23.68 0 0)
(23.7484 0 0)
(23.8168 0 0)
(23.8852 0 0)
(23.9536 0 0)
(24.022 0 0)
(24.0904 0 0)
(24.1588 0 0)
(24.2272 0 0)
(24.2956 0 0)
(24.364 0 0)
(24.4324 0 0)
(24.5008 0 0)
(24.5692 0 0)
(24.6376 0 0)
(24.7061 0 0)
(24.7745 0 0)
(24.8429 0 0)
(24.9113 0 0)
(24.9797 0 0)
(25.0481 0 0)
(25.1165 0 0)
(25.1849 0 0)
(25.2533 0 0)
(25.3218 0 0)
(25.3902 0 0)
(25.4586 0 0)
(25.527 0 0)
(25.5954 0 0)
(25.6638 0 0)
(25.7322 0 0)
(25.8007 0 0)
(25.8691 0 0)
(25.9375 0 0)
(26.0059 0 0)
(26.0743 0 0)
(26.1428 0 0)
(26.2112 0 0)
(26.2796 0 0)
(26.348 0 0)
(26.4164 0 0)
(26.4849 0 0)
(26.5533 0 0)
(26.6217 0 0)
(26.6901 0 0)
(26.7586 0 0)
(26.827 0 0)
(26.8954 0 0)
(26.9638 0 0)
(27.0323 0 0)
(27.1007 0 0)
(27.1691 0 0)
(27.2375 0 0)
(27.306 0 0)
(27.3744 0 0)
(27.4428 0 0)
(27.5113 0 0)
(27.5797 0 0)
(27.6481 0 0)
(27.7166 0 0)
(27.785 0 0)
(27.8534 0 0)
(27.9219 0 0)
(27.9903 0 0)
(28.0587 0 0)
(28.1272 0 0)
(28.1956 0 0)
(28.264 0 0)
(28.3325 0 0)
(28.4009 0 0)
(28.4693 0 0)
(28.5378 0 0)
(28.6062 0 0)
(28.6746 0 0)
(28.7431 0 0)
(28.8115 0 0)
(28.88 0 0)
(28.9484 0 0)
(29.0168 0 0)
(29.0853 0 0)
(29.1537 0 0)
(29.2222 0 0)
(29.2906 0 0)
(29.3591 0 0)
(29.4275 0 0)
(29.4959 0 0)
(29.5644 0 0)
(29.6328 0 0)
(29.7013 0 0)
(29.7697 0 0)
(29.8382 0 0)
(29.9066 0 0)
(29.9751 0 0)
(30.0435 0 0)
(30.112 0 0)
(30.1804 0 0)
(30.2489 0 0)
(30.3173 0 0)
(30.3858 0 0)
(30.4542 0 0)
(30.5227 0 0)
(30.5911 0 0)
(30.6596 0 0)
(30.728 0 0)
(30.7965 0 0)
(30.8649 0 0)
(30.9334 0 0)
(31.0019 0 0)
(31.0703 0 0)
(31.1388 0 0)
(31.2072 0 0)
(31.2757 0 0)
(31.3441 0 0)
(31.4126 0 0)
(31.4811 0 0)
(31.5495 0 0)
(31.618 0 0)
(31.6864 0 0)
(31.7549 0 0)
(31.8234 0 0)
(31.8918 0 0)
(31.9603 0 0)
(32.0287 0 0)
(32.0972 0 0)
(32.1657 0 0)
(32.2341 0 0)
(32.3026 0 0)
(32.3711 0 0)
(32.4395 0 0)
(32.508 0 0)
(32.5765 0 0)
(32.6449 0 0)
(32.7134 0 0)
(32.7819 0 0)
(32.8503 0 0)
(32.9188 0 0)
(32.9873 0 0)
(33.0558 0 0)
(33.1242 0 0)
(33.1927 0 0)
(33.2612 0 0)
(33.3296 0 0)
(33.3981 0 0)
(33.4666 0 0)
(33.5351 0 0)
(33.6035 0 0)
(33.672 0 0)
(33.7405 0 0)
(33.809 0 0)
(33.8774 0 0)
(33.9459 0 0)
(34.0144 0 0)
(34.0829 0 0)
(34.1514 0 0)
(34.2198 0 0)
(34.2883 0 0)
(34.3568 0 0)
(34.4253 0 0)
(34.4938 0 0)
(34.5622 0 0)
(34.6307 0 0)
(34.6992 0 0)
(34.7677 0 0)
(34.8362 0 0)
(34.9047 0 0)
(34.9731 0 0)
(35.0416 0 0)
(35.1101 0 0)
(35.1786 0 0)
(35.2471 0 0)
(35.3156 0 0)
(35.3841 0 0)
(35.4525 0 0)
(35.521 0 0)
(35.5895 0 0)
(35.658 0 0)
(35.7265 0 0)
(35.795 0 0)
(35.8635 0 0)
(35.932 0 0)
(36.0005 0 0)
(36.069 0 0)
(36.1375 0 0)
(36.2059 0 0)
(36.2744 0 0)
(36.3429 0 0)
(36.4114 0 0)
(36.4799 0 0)
(36.5484 0 0)
(36.6169 0 0)
(36.6854 0 0)
(36.7539 0 0)
(36.8224 0 0)
(36.8909 0 0)
(36.9594 0 0)
(37.0279 0 0)
(37.0964 0 0)
(37.1649 0 0)
(37.2334 0 0)
(37.3019 0 0)
(37.3704 0 0)
(37.4389 0 0)
(37.5074 0 0)
(37.5759 0 0)
(37.6444 0 0)
(37.7129 0 0)
(37.7814 0 0)
(37.8499 0 0)
(37.9185 0 0)
(37.987 0 0)
(38.0555 0 0)
(38.124 0 0)
(38.1925 0 0)
(38.261 0 0)
(38.3295 0 0)
(38.398 0 0)
(38.4665 0 0)
(38.535 0 0)
(38.6035 0 0)
(38.6721 0 0)
(38.7406 0 0)
(38.8091 0 0)
(38.8776 0 0)
(38.9461 0 0)
(39.0146 0 0)
(39.0831 0 0)
(39.1516 0 0)
(39.2202 0 0)
(39.2887 0 0)
(39.3572 0 0)
(39.4257 0 0)
(39.4942 0 0)
(39.5628 0 0)
(39.6313 0 0)
(39.6998 0 0)
(39.7683 0 0)
(39.8368 0 0)
(39.9054 0 0)
(39.9739 0 0)
(40.0424 0 0)
(40.1109 0 0)
(40.1794 0 0)
(40.248 0 0)
(40.3165 0 0)
(40.385 0 0)
(40.4535 0 0)
(40.5221 0 0)
(40.5906 0 0)
(40.6591 0 0)
(40.7276 0 0)
(40.7962 0 0)
(40.8647 0 0)
(40.9332 0 0)
(41.0018 0 0)
(41.0703 0 0)
(41.1388 0 0)
(41.2073 0 0)
(41.2759 0 0)
(41.3444 0 0)
(41.4129 0 0)
(41.4815 0 0)
(41.55 0 0)
(41.6185 0 0)
(41.6871 0 0)
(41.7556 0 0)
(41.8241 0 0)
(41.8927 0 0)
(41.9612 0 0)
(42.0297 0 0)
(42.0983 0 0)
(42.1668 0 0)
(42.2354 0 0)
(42.3039 0 0)
(42.3724 0 0)
(42.441 0 0)
(42.5095 0 0)
(42.578 0 0)
(42.6466 0 0)
(42.7151 0 0)
(42.7837 0 0)
(42.8522 0 0)
(42.9208 0 0)
(42.9893 0 0)
(43.0578 0 0)
(43.1264 0 0)
(43.1949 0 0)
(43.2635 0 0)
(43.332 0 0)
(43.4006 0 0)
(43.4691 0 0)
(43.5377 0 0)
(43.6062 0 0)
(43.6748 0 0)
(43.7433 0 0)
(43.8119 0 0)
(43.8804 0 0)
(43.949 0 0)
(44.0175 0 0)
(44.0861 0 0)
(44.1546 0 0)
(44.2232 0 0)
(44.2917 0 0)
(44.3603 0 0)
(44.4288 0 0)
(44.4974 0 0)
(44.5659 0 0)
(44.6345 0 0)
(44.703 0 0)
(44.7716 0 0)
(44.8402 0 0)
(44.9087 0 0)
(44.9773 0 0)
(45.0458 0 0)
(45.1144 0 0)
(45.1829 0 0)
(45.2515 0 0)
(45.3201 0 0)
(45.3886 0 0)
(45.4572 0 0)
(45.5258 0 0)
(45.5943 0 0)
(45.6629 0 0)
(45.7314 0 0)
(45.8 0 0)
(45.8686 0 0)
(45.9371 0 0)
(46.0057 0 0)
(46.0743 0 0)
(46.1428 0 0)
(46.2114 0 0)
(46.28 0 0)
(46.3485 0 0)
(46.4171 0 0)
(46.4857 0 0)
(46.5542 0 0)
(46.6228 0 0)
(46.6914 0 0)
(46.7599 0 0)
(46.8285 0 0)
(46.8971 0 0)
(46.9657 0 0)
(47.0342 0 0)
(47.1028 0 0)
(47.1714 0 0)
(47.24 0 0)
(47.3085 0 0)
(47.3771 0 0)
(47.4457 0 0)
(47.5143 0 0)
(47.5828 0 0)
(47.6514 0 0)
(47.72 0 0)
(47.7886 0 0)
(47.8571 0 0)
(47.9257 0 0)
(47.9943 0 0)
(48.0629 0 0)
(48.1315 0 0)
(48.2 0 0)
(48.2686 0 0)
(48.3372 0 0)
(48.4058 0 0)
(48.4744 0 0)
(48.543 0 0)
(48.6115 0 0)
(48.6801 0 0)
(48.7487 0 0)
(48.8173 0 0)
(48.8859 0 0)
(48.9545 0 0)
(49.0231 0 0)
(49.0916 0 0)
(49.1602 0 0)
(49.2288 0 0)
(49.2974 0 0)
(49.366 0 0)
(49.4346 0 0)
(49.5032 0 0)
(49.5718 0 0)
(49.6404 0 0)
(49.709 0 0)
(49.7776 0 0)
(49.8461 0 0)
(49.9147 0 0)
(49.9833 0 0)
(50.0519 0 0)
(50.1205 0 0)
(50.1891 0 0)
(50.2577 0 0)
(50.3263 0 0)
(50.3949 0 0)
(50.4635 0 0)
(50.5321 0 0)
(50.6007 0 0)
(50.6693 0 0)
(50.7379 0 0)
(50.8065 0 0)
(50.8751 0 0)
(50.9437 0 0)
(51.0123 0 0)
(51.0809 0 0)
(51.1495 0 0)
(51.2181 0 0)
(51.2867 0 0)
(51.3553 0 0)
(51.4239 0 0)
(51.4925 0 0)
(51.5611 0 0)
(51.6297 0 0)
(51.6983 0 0)
(51.767 0 0)
(51.8356 0 0)
(51.9042 0 0)
(51.9728 0 0)
(52.0414 0 0)
(52.11 0 0)
(52.1786 0 0)
(52.2472 0 0)
(52.3158 0 0)
(52.3844 0 0)
(52.4531 0 0)
(52.5217 0 0)
(52.5903 0 0)
(52.6589 0 0)
(52.7275 0 0)
(52.7961 0 0)
(52.8647 0 0)
(52.9334 0 0)
(53.002 0 0)
(53.0706 0 0)
(53.1392 0 0)
(53.2078 0 0)
(53.2764 0 0)
(53.3451 0 0)
(53.4137 0 0)
(53.4823 0 0)
(53.5509 0 0)
(53.6195 0 0)
(53.6882 0 0)
(53.7568 0 0)
(53.8254 0 0)
(53.894 0 0)
(53.9626 0 0)
(54.0313 0 0)
(54.0999 0 0)
(54.1685 0 0)
(54.2371 0 0)
(54.3058 0 0)
(54.3744 0 0)
(54.443 0 0)
(54.5116 0 0)
(54.5803 0 0)
(54.6489 0 0)
(54.7175 0 0)
(54.7862 0 0)
(54.8548 0 0)
(54.9234 0 0)
(54.9921 0 0)
(55.0607 0 0)
(55.1293 0 0)
(55.1979 0 0)
(55.2666 0 0)
(55.3352 0 0)
(55.4038 0 0)
(55.4725 0 0)
(55.5411 0 0)
(55.6097 0 0)
(55.6784 0 0)
(55.747 0 0)
(55.8157 0 0)
(55.8843 0 0)
(55.9529 0 0)
(56.0216 0 0)
(56.0902 0 0)
(56.1588 0 0)
(56.2275 0 0)
(56.2961 0 0)
(56.3648 0 0)
(56.4334 0 0)
(56.502 0 0)
(56.5707 0 0)
(56.6393 0 0)
(56.708 0 0)
(56.7766 0 0)
(56.8453 0 0)
(56.9139 0 0)
(56.9826 0 0)
(57.0512 0 0)
(57.1198 0 0)
(57.1885 0 0)
(57.2571 0 0)
(57.3258 0 0)
(57.3944 0 0)
(57.4631 0 0)
(57.5317 0 0)
(57.6004 0 0)
(57.669 0 0)
(57.7377 0 0)
(57.8063 0 0)
(57.875 0 0)
(57.9436 0 0)
(58.0123 0 0)
(58.0809 0 0)
(58.1496 0 0)
(58.2183 0 0)
(58.2869 0 0)
(58.3556 0 0)
(58.4242 0 0)
(58.4929 0 0)
(58.5615 0 0)
(58.6302 0 0)
(58.6988 0 0)
(58.7675 0 0)
(58.8362 0 0)
(58.9048 0 0)
(58.9735 0 0)
(59.0421 0 0)
(59.1108 0 0)
(59.1795 0 0)
(59.2481 0 0)
(59.3168 0 0)
(59.3854 0 0)
(59.4541 0 0)
(59.5228 0 0)
(59.5914 0 0)
(59.6601 0 0)
(59.7288 0 0)
(59.7974 0 0)
(59.8661 0 0)
(59.9348 0 0)
(60.0034 0 0)
(60.0721 0 0)
(60.1408 0 0)
(60.2094 0 0)
(60.2781 0 0)
(60.3468 0 0)
(60.4154 0 0)
(60.4841 0 0)
(60.5528 0 0)
(60.6215 0 0)
(60.6901 0 0)
(60.7588 0 0)
(60.8275 0 0)
(60.8961 0 0)
(60.9648 0 0)
(61.0335 0 0)
(61.1022 0 0)
(61.1708 0 0)
(61.2395 0 0)
(61.3082 0 0)
(61.3769 0 0)
(61.4456 0 0)
(61.5142 0 0)
(61.5829 0 0)
(61.6516 0 0)
(61.7203 0 0)
(61.7889 0 0)
(61.8576 0 0)
(61.9263 0 0)
(61.995 0 0)
(62.0637 0 0)
(62.1324 0 0)
(62.201 0 0)
(62.2697 0 0)
(62.3384 0 0)
(62.4071 0 0)
(62.4758 0 0)
(62.5445 0 0)
(62.6131 0 0)
(62.6818 0 0)
(62.7505 0 0)
(62.8192 0 0)
(62.8879 0 0)
(62.9566 0 0)
(63.0253 0 0)
(63.094 0 0)
(63.1627 0 0)
(63.2313 0 0)
(63.3 0 0)
(63.3687 0 0)
(63.4374 0 0)
(63.5061 0 0)
(63.5748 0 0)
(63.6435 0 0)
(63.7122 0 0)
(63.7809 0 0)
(63.8496 0 0)
(63.9183 0 0)
(63.987 0 0)
(64.0557 0 0)
(64.1244 0 0)
(64.1931 0 0)
(64.2618 0 0)
(64.3305 0 0)
(64.3992 0 0)
(64.4679 0 0)
(64.5366 0 0)
(64.6053 0 0)
(64.674 0 0)
(64.7427 0 0)
(64.8114 0 0)
(64.8801 0 0)
(64.9488 0 0)
(65.0175 0 0)
(65.0862 0 0)
(65.1549 0 0)
(65.2236 0 0)
(65.2923 0 0)
(65.361 0 0)
(65.4297 0 0)
(65.4984 0 0)
(65.5671 0 0)
(65.6358 0 0)
(65.7045 0 0)
(65.7733 0 0)
(65.842 0 0)
(65.9107 0 0)
(65.9794 0 0)
(66.0481 0 0)
(66.1168 0 0)
(66.1855 0 0)
(66.2542 0 0)
(66.3229 0 0)
(66.3917 0 0)
(66.4604 0 0)
(66.5291 0 0)
(66.5978 0 0)
(66.6665 0 0)
(66.7352 0 0)
(66.8039 0 0)
(66.8727 0 0)
(66.9414 0 0)
(67.0101 0 0)
(67.0788 0 0)
(67.1475 0 0)
(67.2163 0 0)
(67.285 0 0)
(67.3537 0 0)
(67.4224 0 0)
(67.4911 0 0)
(67.5599 0 0)
(67.6286 0 0)
(67.6973 0 0)
(67.766 0 0)
(67.8348 0 0)
(67.9035 0 0)
(67.9722 0 0)
(68.0409 0 0)
(68.1097 0 0)
(68.1784 0 0)
(68.2471 0 0)
(68.3158 0 0)
(68.3846 0 0)
(68.4533 0 0)
(68.522 0 0)
(68.5908 0 0)
(68.6595 0 0)
(68.7282 0 0)
(68.797 0 0)
(68.8657 0 0)
(68.9344 0 0)
(69.0031 0 0)
(69.0719 0 0)
(69.1406 0 0)
(69.2093 0 0)
(69.2781 0 0)
(69.3468 0 0)
(69.4156 0 0)
(69.4843 0 0)
(69.553 0 0)
(69.6218 0 0)
(69.6905 0 0)
(69.7592 0 0)
(69.828 0 0)
(69.8967 0 0)
(69.9655 0 0)
(70.0342 0 0)
(70.1029 0 0)
(70.1717 0 0)
(70.2404 0 0)
(70.3092 0 0)
(70.3779 0 0)
(70.4467 0 0)
(70.5154 0 0)
(70.5841 0 0)
(70.6529 0 0)
(70.7216 0 0)
(70.7904 0 0)
(70.8591 0 0)
(70.9279 0 0)
(70.9966 0 0)
(71.0654 0 0)
(71.1341 0 0)
(71.2029 0 0)
(71.2716 0 0)
(71.3404 0 0)
(71.4091 0 0)
(71.4779 0 0)
(71.5466 0 0)
(71.6154 0 0)
(71.6841 0 0)
(71.7529 0 0)
(71.8216 0 0)
(71.8904 0 0)
(71.9591 0 0)
(72.0279 0 0)
(72.0966 0 0)
(72.1654 0 0)
(72.2342 0 0)
(72.3029 0 0)
(72.3717 0 0)
(72.4404 0 0)
(72.5092 0 0)
(72.5779 0 0)
(72.6467 0 0)
(72.7155 0 0)
(72.7842 0 0)
(72.853 0 0)
(72.9218 0 0)
(72.9905 0 0)
(73.0593 0 0)
(73.128 0 0)
(73.1968 0 0)
(73.2656 0 0)
(73.3343 0 0)
(73.4031 0 0)
(73.4719 0 0)
(73.5406 0 0)
(73.6094 0 0)
(73.6782 0 0)
(73.7469 0 0)
(73.8157 0 0)
(73.8845 0 0)
(73.9532 0 0)
(74.022 0 0)
(74.0908 0 0)
(74.1595 0 0)
(74.2283 0 0)
(74.2971 0 0)
(74.3659 0 0)
(74.4346 0 0)
(74.5034 0 0)
(74.5722 0 0)
(74.641 0 0)
(74.7097 0 0)
(74.7785 0 0)
(74.8473 0 0)
(74.9161 0 0)
(74.9848 0 0)
(75.0536 0 0)
(75.1224 0 0)
(75.1912 0 0)
(75.2599 0 0)
(75.3287 0 0)
(75.3975 0 0)
(75.4663 0 0)
(75.5351 0 0)
(75.6038 0 0)
(75.6726 0 0)
(75.7414 0 0)
(75.8102 0 0)
(75.879 0 0)
(75.9478 0 0)
(76.0165 0 0)
(76.0853 0 0)
(76.1541 0 0)
(76.2229 0 0)
(76.2917 0 0)
(76.3605 0 0)
(76.4293 0 0)
(76.498 0 0)
(76.5668 0 0)
(76.6356 0 0)
(76.7044 0 0)
(76.7732 0 0)
(76.842 0 0)
(76.9108 0 0)
(76.9796 0 0)
(77.0484 0 0)
(77.1172 0 0)
(77.186 0 0)
(77.2547 0 0)
(77.3235 0 0)
(77.3923 0 0)
(77.4611 0 0)
(77.5299 0 0)
(77.5987 0 0)
(77.6675 0 0)
(77.7363 0 0)
(77.8051 0 0)
(77.8739 0 0)
(77.9427 0 0)
(78.0115 0 0)
(78.0803 0 0)
(78.1491 0 0)
(78.2179 0 0)
(78.2867 0 0)
(78.3555 0 0)
(78.4243 0 0)
(78.4931 0 0)
(78.5619 0 0)
(78.6307 0 0)
(78.6995 0 0)
(78.7683 0 0)
(78.8371 0 0)
(78.9059 0 0)
(78.9747 0 0)
(79.0435 0 0)
(79.1124 0 0)
(79.1812 0 0)
(79.25 0 0)
(79.3188 0 0)
(79.3876 0 0)
(79.4564 0 0)
(79.5252 0 0)
(79.594 0 0)
(79.6628 0 0)
(79.7316 0 0)
(79.8004 0 0)
(79.8693 0 0)
(79.9381 0 0)
(80.0069 0 0)
(80.0757 0 0)
(80.1445 0 0)
(80.2133 0 0)
(80.2821 0 0)
(80.351 0 0)
(80.4198 0 0)
(80.4886 0 0)
(80.5574 0 0)
(80.6262 0 0)
(80.6951 0 0)
(80.7639 0 0)
(80.8327 0 0)
(80.9015 0 0)
(80.9703 0 0)
(81.0392 0 0)
(81.108 0 0)
(81.1768 0 0)
(81.2456 0 0)
(81.3144 0 0)
(81.3833 0 0)
(81.4521 0 0)
(81.5209 0 0)
(81.5897 0 0)
(81.6586 0 0)
(81.7274 0 0)
(81.7962 0 0)
(81.865 0 0)
(81.9339 0 0)
(82.0027 0 0)
(82.0715 0 0)
(82.1404 0 0)
(82.2092 0 0)
(82.278 0 0)
(82.3468 0 0)
(82.4157 0 0)
(82.4845 0 0)
(82.5533 0 0)
(82.6222 0 0)
(82.691 0 0)
(82.7598 0 0)
(82.8287 0 0)
(82.8975 0 0)
(82.9663 0 0)
(83.0352 0 0)
(83.104 0 0)
(83.1729 0 0)
(83.2417 0 0)
(83.3105 0 0)
(83.3794 0 0)
(83.4482 0 0)
(83.517 0 0)
(83.5859 0 0)
(83.6547 0 0)
(83.7236 0 0)
(83.7924 0 0)
(83.8612 0 0)
(83.9301 0 0)
(83.9989 0 0)
(84.0678 0 0)
(84.1366 0 0)
(84.2055 0 0)
(84.2743 0 0)
(84.3431 0 0)
(84.412 0 0)
(84.4808 0 0)
(84.5497 0 0)
(84.6185 0 0)
(84.6874 0 0)
(84.7562 0 0)
(84.8251 0 0)
(84.8939 0 0)
(84.9628 0 0)
(85.0316 0 0)
(85.1005 0 0)
(85.1693 0 0)
(85.2382 0 0)
(85.307 0 0)
(85.3759 0 0)
(85.4447 0 0)
(85.5136 0 0)
(85.5824 0 0)
(85.6513 0 0)
(85.7202 0 0)
(85.789 0 0)
(85.8579 0 0)
(85.9267 0 0)
(85.9956 0 0)
(86.0644 0 0)
(86.1333 0 0)
(86.2022 0 0)
(86.271 0 0)
(86.3399 0 0)
(86.4087 0 0)
(86.4776 0 0)
(86.5465 0 0)
(86.6153 0 0)
(86.6842 0 0)
(86.753 0 0)
(86.8219 0 0)
(86.8908 0 0)
(86.9596 0 0)
(87.0285 0 0)
(87.0974 0 0)
(87.1662 0 0)
(87.2351 0 0)
(87.304 0 0)
(87.3728 0 0)
(87.4417 0 0)
(87.5106 0 0)
(87.5794 0 0)
(87.6483 0 0)
(87.7172 0 0)
(87.786 0 0)
(87.8549 0 0)
(87.9238 0 0)
(87.9927 0 0)
(88.0615 0 0)
(88.1304 0 0)
(88.1993 0 0)
(88.2682 0 0)
(88.337 0 0)
(88.4059 0 0)
(88.4748 0 0)
(88.5437 0 0)
(88.6125 0 0)
(88.6814 0 0)
(88.7503 0 0)
(88.8192 0 0)
(88.888 0 0)
(88.9569 0 0)
(89.0258 0 0)
(89.0947 0 0)
(89.1636 0 0)
(89.2324 0 0)
(89.3013 0 0)
(89.3702 0 0)
(89.4391 0 0)
(89.508 0 0)
(89.5769 0 0)
(89.6457 0 0)
(89.7146 0 0)
(89.7835 0 0)
(89.8524 0 0)
(89.9213 0 0)
(89.9902 0 0)
(90.059 0 0)
(90.1279 0 0)
(90.1968 0 0)
(90.2657 0 0)
(90.3346 0 0)
(90.4035 0 0)
(90.4724 0 0)
(90.5413 0 0)
(90.6102 0 0)
(90.6791 0 0)
(90.7479 0 0)
(90.8168 0 0)
(90.8857 0 0)
(90.9546 0 0)
(91.0235 0 0)
(91.0924 0 0)
(91.1613 0 0)
(91.2302 0 0)
(91.2991 0 0)
(91.368 0 0)
(91.4369 0 0)
(91.5058 0 0)
(91.5747 0 0)
(91.6436 0 0)
(91.7125 0 0)
(91.7814 0 0)
(91.8503 0 0)
(91.9192 0 0)
(91.9881 0 0)
(92.057 0 0)
(92.1259 0 0)
(92.1948 0 0)
(92.2637 0 0)
(92.3326 0 0)
(92.4015 0 0)
(92.4704 0 0)
(92.5393 0 0)
(92.6082 0 0)
(92.6771 0 0)
(92.746 0 0)
(92.8149 0 0)
(92.8838 0 0)
(92.9528 0 0)
(93.0217 0 0)
(93.0906 0 0)
(93.1595 0 0)
(93.2284 0 0)
(93.2973 0 0)
(93.3662 0 0)
(93.4351 0 0)
(93.504 0 0)
(93.5729 0 0)
(93.6419 0 0)
(93.7108 0 0)
(93.7797 0 0)
(93.8486 0 0)
(93.9175 0 0)
(93.9864 0 0)
(94.0553 0 0)
(94.1243 0 0)
(94.1932 0 0)
(94.2621 0 0)
(94.331 0 0)
(94.3999 0 0)
(94.4688 0 0)
(94.5378 0 0)
(94.6067 0 0)
(94.6756 0 0)
(94.7445 0 0)
(94.8134 0 0)
(94.8824 0 0)
(94.9513 0 0)
(95.0202 0 0)
(95.0891 0 0)
(95.1581 0 0)
(95.227 0 0)
(95.2959 0 0)
(95.3648 0 0)
(95.4338 0 0)
(95.5027 0 0)
(95.5716 0 0)
(95.6405 0 0)
(95.7095 0 0)
(95.7784 0 0)
(95.8473 0 0)
(95.9163 0 0)
(95.9852 0 0)
(96.0541 0 0)
(96.123 0 0)
(96.192 0 0)
(96.2609 0 0)
(96.3298 0 0)
(96.3988 0 0)
(96.4677 0 0)
(96.5366 0 0)
(96.6056 0 0)
(96.6745 0 0)
(96.7435 0 0)
(96.8124 0 0)
(96.8813 0 0)
(96.9503 0 0)
(97.0192 0 0)
(97.0881 0 0)
(97.1571 0 0)
(97.226 0 0)
(97.295 0 0)
(97.3639 0 0)
(97.4328 0 0)
(97.5018 0 0)
(97.5707 0 0)
(97.6397 0 0)
(97.7086 0 0)
(97.7775 0 0)
(97.8465 0 0)
(97.9154 0 0)
(97.9844 0 0)
(98.0533 0 0)
(98.1223 0 0)
(98.1912 0 0)
(98.2602 0 0)
(98.3291 0 0)
(98.3981 0 0)
(98.467 0 0)
(98.536 0 0)
(98.6049 0 0)
(98.6739 0 0)
(98.7428 0 0)
(98.8118 0 0)
(98.8807 0 0)
(98.9497 0 0)
(99.0186 0 0)
(99.0876 0 0)
(99.1565 0 0)
(99.2255 0 0)
(99.2944 0 0)
(99.3634 0 0)
(99.4323 0 0)
(99.5013 0 0)
(99.5702 0 0)
(99.6392 0 0)
(99.7082 0 0)
(99.7771 0 0)
(99.8461 0 0)
(99.915 0 0)
(99.984 0 0)
(100.053 0 0)
(100.122 0 0)
(100.191 0 0)
(100.26 0 0)
(100.329 0 0)
(100.398 0 0)
(100.467 0 0)
(100.536 0 0)
(100.605 0 0)
(100.674 0 0)
(100.743 0 0)
(100.812 0 0)
(100.881 0 0)
(100.949 0 0)
(101.018 0 0)
(101.087 0 0)
(101.156 0 0)
(101.225 0 0)
(101.294 0 0)
(101.363 0 0)
(101.432 0 0)
(101.501 0 0)
(101.57 0 0)
(101.639 0 0)
(101.708 0 0)
(101.777 0 0)
(101.846 0 0)
(101.915 0 0)
(101.984 0 0)
(102.053 0 0)
(102.122 0 0)
(102.191 0 0)
(102.26 0 0)
(102.329 0 0)
(102.398 0 0)
(102.467 0 0)
(102.536 0 0)
(102.605 0 0)
(102.674 0 0)
(102.743 0 0)
(102.812 0 0)
(102.881 0 0)
(102.95 0 0)
(103.019 0 0)
(103.088 0 0)
(103.157 0 0)
(103.226 0 0)
(103.295 0 0)
(103.364 0 0)
(103.433 0 0)
(103.502 0 0)
(103.571 0 0)
(103.64 0 0)
(103.709 0 0)
(103.778 0 0)
(103.847 0 0)
(103.915 0 0)
(103.984 0 0)
(104.053 0 0)
(104.122 0 0)
(104.191 0 0)
(104.26 0 0)
(104.329 0 0)
(104.398 0 0)
(104.467 0 0)
(104.536 0 0)
(104.605 0 0)
(104.674 0 0)
(104.743 0 0)
(104.812 0 0)
(104.881 0 0)
(104.95 0 0)
(105.019 0 0)
(105.088 0 0)
(105.157 0 0)
(105.226 0 0)
(105.295 0 0)
(105.364 0 0)
(105.433 0 0)
(105.502 0 0)
(105.571 0 0)
(105.64 0 0)
(105.709 0 0)
(105.778 0 0)
(105.847 0 0)
(105.916 0 0)
(105.985 0 0)
(106.054 0 0)
(106.123 0 0)
(106.192 0 0)
(106.261 0 0)
(106.33 0 0)
(106.399 0 0)
(106.468 0 0)
(106.537 0 0)
(106.606 0 0)
(106.675 0 0)
(106.744 0 0)
(106.813 0 0)
(106.882 0 0)
(106.951 0 0)
(107.02 0 0)
(107.089 0 0)
(107.158 0 0)
(107.228 0 0)
(107.297 0 0)
(107.366 0 0)
(107.435 0 0)
(107.504 0 0)
(107.573 0 0)
(107.642 0 0)
(107.711 0 0)
(107.78 0 0)
(107.849 0 0)
(107.918 0 0)
(107.987 0 0)
(108.056 0 0)
(108.125 0 0)
(108.194 0 0)
(108.263 0 0)
(108.332 0 0)
(108.401 0 0)
(108.47 0 0)
(108.539 0 0)
(108.608 0 0)
(108.677 0 0)
(108.746 0 0)
(108.815 0 0)
(108.884 0 0)
(108.953 0 0)
(109.022 0 0)
(109.091 0 0)
(109.16 0 0)
(109.229 0 0)
(109.298 0 0)
(109.367 0 0)
(109.436 0 0)
(109.505 0 0)
(109.574 0 0)
(109.643 0 0)
(109.712 0 0)
(109.781 0 0)
(109.85 0 0)
(109.919 0 0)
(109.988 0 0)
(110.057 0 0)
(110.126 0 0)
(110.196 0 0)
(110.265 0 0)
(110.334 0 0)
(110.403 0 0)
(110.472 0 0)
(110.541 0 0)
(110.61 0 0)
(110.679 0 0)
(110.748 0 0)
(110.817 0 0)
(110.886 0 0)
(110.955 0 0)
(111.024 0 0)
(111.093 0 0)
(111.162 0 0)
(111.231 0 0)
(111.3 0 0)
(111.369 0 0)
(111.438 0 0)
(111.507 0 0)
(111.576 0 0)
(111.645 0 0)
(111.714 0 0)
(111.783 0 0)
(111.852 0 0)
(111.922 0 0)
(111.991 0 0)
(112.06 0 0)
(112.129 0 0)
(112.198 0 0)
(112.267 0 0)
(112.336 0 0)
(112.405 0 0)
(112.474 0 0)
(112.543 0 0)
(112.612 0 0)
(112.681 0 0)
(112.75 0 0)
(112.819 0 0)
(112.888 0 0)
(112.957 0 0)
(113.026 0 0)
(113.095 0 0)
(113.164 0 0)
(113.233 0 0)
(113.303 0 0)
(113.372 0 0)
(113.441 0 0)
(113.51 0 0)
(113.579 0 0)
(113.648 0 0)
(113.717 0 0)
(113.786 0 0)
(113.855 0 0)
(113.924 0 0)
(113.993 0 0)
(114.062 0 0)
(114.131 0 0)
(114.2 0 0)
(114.269 0 0)
(114.338 0 0)
(114.408 0 0)
(114.477 0 0)
(114.546 0 0)
(114.615 0 0)
(114.684 0 0)
(114.753 0 0)
(114.822 0 0)
(114.891 0 0)
(114.96 0 0)
(115.029 0 0)
(115.098 0 0)
(115.167 0 0)
(115.236 0 0)
(115.305 0 0)
(115.374 0 0)
(115.444 0 0)
(115.513 0 0)
(115.582 0 0)
(115.651 0 0)
(115.72 0 0)
(115.789 0 0)
(115.858 0 0)
(115.927 0 0)
(115.996 0 0)
(116.065 0 0)
(116.134 0 0)
(116.203 0 0)
(116.272 0 0)
(116.342 0 0)
(116.411 0 0)
(116.48 0 0)
(116.549 0 0)
(116.618 0 0)
(116.687 0 0)
(116.756 0 0)
(116.825 0 0)
(116.894 0 0)
(116.963 0 0)
(117.032 0 0)
(117.101 0 0)
(117.171 0 0)
(117.24 0 0)
(117.309 0 0)
(117.378 0 0)
(117.447 0 0)
(117.516 0 0)
(117.585 0 0)
(117.654 0 0)
(117.723 0 0)
(117.792 0 0)
(117.861 0 0)
(117.93 0 0)
(118 0 0)
(118.069 0 0)
(118.138 0 0)
(118.207 0 0)
(118.276 0 0)
(118.345 0 0)
(118.414 0 0)
(118.483 0 0)
(118.552 0 0)
(118.621 0 0)
(118.691 0 0)
(118.76 0 0)
(118.829 0 0)
(118.898 0 0)
(118.967 0 0)
(119.036 0 0)
(119.105 0 0)
(119.174 0 0)
(119.243 0 0)
(119.312 0 0)
(119.381 0 0)
(119.451 0 0)
(119.52 0 0)
(119.589 0 0)
(119.658 0 0)
(119.727 0 0)
(119.796 0 0)
(119.865 0 0)
(119.934 0 0)
(120.003 0 0)
(120.073 0 0)
(120.142 0 0)
(120.211 0 0)
(120.28 0 0)
(120.349 0 0)
(120.418 0 0)
(120.487 0 0)
(120.556 0 0)
(120.625 0 0)
(120.695 0 0)
(120.764 0 0)
(120.833 0 0)
(120.902 0 0)
(120.971 0 0)
(121.04 0 0)
(121.109 0 0)
(121.178 0 0)
(121.247 0 0)
(121.317 0 0)
(121.386 0 0)
(121.455 0 0)
(121.524 0 0)
(121.593 0 0)
(121.662 0 0)
(121.731 0 0)
(121.8 0 0)
(121.869 0 0)
(121.939 0 0)
(122.008 0 0)
(122.077 0 0)
(122.146 0 0)
(122.215 0 0)
(122.284 0 0)
(122.353 0 0)
(122.422 0 0)
(122.492 0 0)
(122.561 0 0)
(122.63 0 0)
(122.699 0 0)
(122.768 0 0)
(122.837 0 0)
(122.906 0 0)
(122.975 0 0)
(123.045 0 0)
(123.114 0 0)
(123.183 0 0)
(123.252 0 0)
(123.321 0 0)
(123.39 0 0)
(123.459 0 0)
(123.528 0 0)
(123.598 0 0)
(123.667 0 0)
(123.736 0 0)
(123.805 0 0)
(123.874 0 0)
(123.943 0 0)
(124.012 0 0)
(124.082 0 0)
(124.151 0 0)
(124.22 0 0)
(124.289 0 0)
(124.358 0 0)
(124.427 0 0)
(124.496 0 0)
(124.566 0 0)
(124.635 0 0)
(124.704 0 0)
(124.773 0 0)
(124.842 0 0)
(124.911 0 0)
(124.98 0 0)
(125.05 0 0)
(125.119 0 0)
(125.188 0 0)
(125.257 0 0)
(125.326 0 0)
(125.395 0 0)
(125.464 0 0)
(125.534 0 0)
(125.603 0 0)
(125.672 0 0)
(125.741 0 0)
(125.81 0 0)
(125.879 0 0)
(125.948 0 0)
(126.018 0 0)
(126.087 0 0)
(126.156 0 0)
(126.225 0 0)
(126.294 0 0)
(126.363 0 0)
(126.432 0 0)
(126.502 0 0)
(126.571 0 0)
(126.64 0 0)
(126.709 0 0)
(126.778 0 0)
(126.847 0 0)
(126.917 0 0)
(126.986 0 0)
(127.055 0 0)
(127.124 0 0)
(127.193 0 0)
(127.262 0 0)
(127.332 0 0)
(127.401 0 0)
(127.47 0 0)
(127.539 0 0)
(127.608 0 0)
(127.677 0 0)
(127.746 0 0)
(127.816 0 0)
(127.885 0 0)
(127.954 0 0)
(128.023 0 0)
(128.092 0 0)
(128.161 0 0)
(128.231 0 0)
(128.3 0 0)
(128.369 0 0)
(128.438 0 0)
(128.507 0 0)
(128.576 0 0)
(128.646 0 0)
(128.715 0 0)
(128.784 0 0)
(128.853 0 0)
(128.922 0 0)
(128.991 0 0)
(129.061 0 0)
(129.13 0 0)
(129.199 0 0)
(129.268 0 0)
(129.337 0 0)
(129.407 0 0)
(129.476 0 0)
(129.545 0 0)
(129.614 0 0)
(129.683 0 0)
(129.752 0 0)
(129.822 0 0)
(129.891 0 0)
(129.96 0 0)
(130.029 0 0)
(130.098 0 0)
(130.167 0 0)
(130.237 0 0)
(130.306 0 0)
(130.375 0 0)
(130.444 0 0)
(130.513 0 0)
(130.583 0 0)
(130.652 0 0)
(130.721 0 0)
(130.79 0 0)
(130.859 0 0)
(130.929 0 0)
(130.998 0 0)
(131.067 0 0)
(131.136 0 0)
(131.205 0 0)
(131.274 0 0)
(131.344 0 0)
(131.413 0 0)
(131.482 0 0)
(131.551 0 0)
(131.62 0 0)
(131.69 0 0)
(131.759 0 0)
(131.828 0 0)
(131.897 0 0)
(131.966 0 0)
(132.036 0 0)
(132.105 0 0)
(132.174 0 0)
(132.243 0 0)
(132.312 0 0)
(132.382 0 0)
(132.451 0 0)
(132.52 0 0)
(132.589 0 0)
(132.658 0 0)
(132.728 0 0)
(132.797 0 0)
(132.866 0 0)
(132.935 0 0)
(133.004 0 0)
(133.074 0 0)
(133.143 0 0)
(133.212 0 0)
(133.281 0 0)
(133.35 0 0)
(133.42 0 0)
(133.489 0 0)
(133.558 0 0)
(133.627 0 0)
(133.696 0 0)
(133.766 0 0)
(133.835 0 0)
(133.904 0 0)
(133.973 0 0)
(134.042 0 0)
(134.112 0 0)
(134.181 0 0)
(134.25 0 0)
(134.319 0 0)
(134.388 0 0)
(134.458 0 0)
(134.527 0 0)
(134.596 0 0)
(134.665 0 0)
(134.735 0 0)
(134.804 0 0)
(134.873 0 0)
(134.942 0 0)
(135.011 0 0)
(135.081 0 0)
(135.15 0 0)
(135.219 0 0)
(135.288 0 0)
(135.357 0 0)
(135.427 0 0)
(135.496 0 0)
(135.565 0 0)
(135.634 0 0)
(135.704 0 0)
(135.773 0 0)
(135.842 0 0)
(135.911 0 0)
(135.98 0 0)
(136.05 0 0)
(136.119 0 0)
(136.188 0 0)
(136.257 0 0)
(136.327 0 0)
(136.396 0 0)
(136.465 0 0)
(136.534 0 0)
(136.603 0 0)
(136.673 0 0)
(136.742 0 0)
(136.811 0 0)
(136.88 0 0)
(136.95 0 0)
(137.019 0 0)
(137.088 0 0)
(137.157 0 0)
(137.227 0 0)
(137.296 0 0)
(137.365 0 0)
(137.434 0 0)
(137.504 0 0)
(137.573 0 0)
(137.642 0 0)
(137.711 0 0)
(137.78 0 0)
(137.85 0 0)
(137.919 0 0)
(137.988 0 0)
(138.057 0 0)
(138.127 0 0)
(138.196 0 0)
(138.265 0 0)
(138.334 0 0)
(138.404 0 0)
(138.473 0 0)
(138.542 0 0)
(138.611 0 0)
(138.681 0 0)
(138.75 0 0)
(138.819 0 0)
(138.888 0 0)
(138.958 0 0)
(139.027 0 0)
(139.096 0 0)
(139.165 0 0)
(139.235 0 0)
(139.304 0 0)
(139.373 0 0)
(139.442 0 0)
(139.512 0 0)
(139.581 0 0)
(139.65 0 0)
(139.719 0 0)
(139.789 0 0)
(139.858 0 0)
(139.927 0 0)
(139.996 0 0)
(140.066 0 0)
(140.135 0 0)
(140.204 0 0)
(140.273 0 0)
(140.343 0 0)
(140.412 0 0)
(140.481 0 0)
(140.55 0 0)
(140.62 0 0)
(140.689 0 0)
(140.758 0 0)
(140.827 0 0)
(140.897 0 0)
(140.966 0 0)
(141.035 0 0)
(141.104 0 0)
(141.174 0 0)
(141.243 0 0)
(141.312 0 0)
(141.381 0 0)
(141.451 0 0)
(141.52 0 0)
(141.589 0 0)
(141.659 0 0)
(141.728 0 0)
(141.797 0 0)
(141.866 0 0)
(141.936 0 0)
(142.005 0 0)
(142.074 0 0)
(142.143 0 0)
(142.213 0 0)
(142.282 0 0)
(142.351 0 0)
(142.42 0 0)
(142.49 0 0)
(142.559 0 0)
(142.628 0 0)
(142.698 0 0)
(142.767 0 0)
(142.836 0 0)
(142.905 0 0)
(142.975 0 0)
(143.044 0 0)
(143.113 0 0)
(143.182 0 0)
(143.252 0 0)
(143.321 0 0)
(143.39 0 0)
(143.46 0 0)
(143.529 0 0)
(143.598 0 0)
(143.667 0 0)
(143.737 0 0)
(143.806 0 0)
(143.875 0 0)
(143.945 0 0)
(144.014 0 0)
(144.083 0 0)
(144.152 0 0)
(144.222 0 0)
(144.291 0 0)
(144.36 0 0)
(144.43 0 0)
(144.499 0 0)
(144.568 0 0)
(144.637 0 0)
(144.707 0 0)
(144.776 0 0)
(144.845 0 0)
(144.915 0 0)
(144.984 0 0)
(145.053 0 0)
(145.122 0 0)
(145.192 0 0)
(145.261 0 0)
(145.33 0 0)
(145.4 0 0)
(145.469 0 0)
(145.538 0 0)
(145.607 0 0)
(145.677 0 0)
(145.746 0 0)
(145.815 0 0)
(145.885 0 0)
(145.954 0 0)
(146.023 0 0)
(146.093 0 0)
(146.162 0 0)
(146.231 0 0)
(146.3 0 0)
(146.37 0 0)
(146.439 0 0)
(146.508 0 0)
(146.578 0 0)
(146.647 0 0)
(146.716 0 0)
(146.786 0 0)
(146.855 0 0)
(146.924 0 0)
(146.993 0 0)
(147.063 0 0)
(147.132 0 0)
(147.201 0 0)
(147.271 0 0)
(147.34 0 0)
(147.409 0 0)
(147.479 0 0)
(147.548 0 0)
(147.617 0 0)
(147.687 0 0)
(147.756 0 0)
(147.825 0 0)
(147.894 0 0)
(147.964 0 0)