/*--------------------------------*- C++ -*----------------------------------*\
  =========                 |
  \\      /  F ield         | OpenFOAM: The Open Source CFD Toolbox
   \\    /   O peration     | Website:  https://openfoam.org
    \\  /    A nd           | Version:  9
     \\/     M anipulation  |
\*---------------------------------------------------------------------------*/
FoamFile
{
    format      ascii;
    class       volScalarField;
    location    "0.014";
    object      T;
}
// * * * * * * * * * * * * * * * * * * * * * * * * * * * * * * * * * * * * * //

dimensions      [0 0 0 1 0 0 0];

internalField   nonuniform List<scalar> 
1000
(
336.144
336.141
336.126
336.107
336.086
336.062
336.036
336.007
335.976
335.942
335.906
335.866
335.824
335.779
335.732
335.681
335.627
335.571
335.511
335.448
335.381
335.311
335.238
335.161
335.081
334.996
334.909
334.817
334.721
334.622
334.518
334.411
334.299
334.183
334.063
333.939
333.811
333.679
333.543
333.402
333.258
333.109
332.957
332.801
332.642
332.478
332.312
332.142
331.969
331.792
331.613
331.432
331.247
331.06
330.871
330.68
330.487
330.292
330.096
329.898
329.698
329.497
329.296
329.093
328.889
328.684
328.479
328.273
328.066
327.859
327.652
327.444
327.236
327.027
326.818
326.609
326.4
326.191
325.982
325.772
325.562
325.353
325.143
324.933
324.723
324.513
324.303
324.093
323.883
323.673
323.463
323.253
323.043
322.833
322.623
322.412
322.202
321.992
321.782
321.572
321.362
321.152
320.942
320.733
320.523
320.313
320.103
319.893
319.683
319.473
319.264
319.054
318.844
318.635
318.425
318.215
318.006
317.796
317.587
317.377
317.168
316.958
316.749
316.54
316.33
316.121
315.912
315.703
315.494
315.285
315.076
314.867
314.658
314.449
314.24
314.031
313.822
313.614
313.405
313.196
312.988
312.779
312.571
312.362
312.154
311.945
311.737
311.529
311.321
311.113
310.905
310.696
310.489
310.281
310.073
309.865
309.657
309.449
309.242
309.034
308.827
308.619
308.412
308.204
307.997
307.79
307.583
307.375
307.168
306.961
306.754
306.547
306.341
306.134
305.927
305.72
305.514
305.307
305.101
304.894
304.688
304.482
304.275
304.069
303.863
303.657
303.451
303.245
303.039
302.833
302.628
302.422
302.216
302.011
301.805
301.6
301.395
301.189
300.984
300.779
300.574
300.369
300.164
299.959
299.754
299.549
299.345
299.14
298.936
298.731
298.527
298.322
298.118
297.914
297.71
297.506
297.302
297.098
296.894
296.69
296.486
296.282
296.079
295.875
295.672
295.468
295.265
295.062
294.859
294.656
294.453
294.25
294.047
293.844
293.641
293.438
293.236
293.033
292.831
292.628
292.426
292.224
292.022
291.82
291.618
291.416
291.214
291.012
290.81
290.608
290.408
290.204
290.006
289.8
289.605
289.394
289.207
288.988
288.81
288.579
288.415
288.171
288.02
287.764
287.622
287.363
287.219
286.969
286.809
286.579
286.397
286.19
285.989
285.796
285.587
285.395
285.191
284.993
284.795
284.592
284.396
284.195
283.996
283.798
283.598
283.4
283.201
283.002
282.804
282.605
282.406
282.208
282.01
281.812
281.614
281.415
281.218
281.02
280.822
280.624
280.426
280.229
280.032
279.834
279.637
279.44
279.243
279.046
278.849
278.652
278.455
278.258
278.062
277.865
277.669
277.473
277.276
277.08
276.884
276.688
276.492
276.297
276.101
275.905
275.71
275.515
275.319
275.124
274.929
274.734
274.539
274.344
274.15
273.955
273.761
273.566
273.372
273.178
272.984
272.79
272.596
272.402
272.209
272.015
271.822
271.628
271.435
271.242
271.049
270.856
270.663
270.471
270.278
270.086
269.893
269.701
269.509
269.317
269.125
268.934
268.742
268.551
268.36
268.168
267.977
267.786
267.596
267.405
267.215
267.024
266.834
266.644
266.454
266.264
266.075
265.885
265.696
265.507
265.318
265.129
264.94
264.752
264.564
264.375
264.187
264
263.812
263.625
263.438
263.251
263.064
262.877
262.691
262.505
262.319
262.133
261.947
261.762
261.577
261.392
261.208
261.023
260.84
260.656
260.472
260.289
260.106
259.924
259.741
259.559
259.378
259.196
259.015
258.835
258.655
258.475
258.295
258.116
257.937
257.759
257.581
257.404
257.227
257.051
256.875
256.699
256.525
256.35
256.176
256.003
255.831
255.659
255.488
255.317
255.147
254.978
254.81
254.643
254.476
254.31
254.145
253.981
253.818
253.656
253.495
253.336
253.177
253.019
252.863
252.708
252.554
252.402
252.251
252.102
251.954
251.808
251.664
251.521
251.38
251.241
251.104
250.969
250.836
250.706
250.577
250.451
250.327
250.206
250.088
249.972
249.859
249.748
249.641
249.536
249.435
249.337
249.242
249.15
249.061
248.975
248.893
248.815
248.74
248.668
248.599
248.534
248.473
248.415
248.36
248.308
248.26
248.215
248.173
248.134
248.097
248.064
248.033
248.005
247.98
247.956
247.935
247.916
247.899
247.884
247.87
247.858
247.847
247.838
247.829
247.822
247.816
247.81
247.806
247.802
247.798
247.795
247.793
247.791
247.789
247.788
247.787
247.786
247.785
247.784
247.784
247.784
247.784
247.783
247.783
247.783
247.783
247.783
247.784
247.784
247.784
247.784
247.784
247.784
247.784
247.785
247.785
247.785
247.785
247.785
247.786
247.786
247.786
247.786
247.787
247.787
247.787
247.787
247.788
247.788
247.788
247.788
247.789
247.789
247.789
247.789
247.79
247.79
247.79
247.79
247.791
247.791
247.791
247.792
247.792
247.792
247.792
247.793
247.793
247.793
247.794
247.794
247.794
247.795
247.795
247.795
247.796
247.796
247.796
247.797
247.797
247.798
247.798
247.798
247.799
247.799
247.8
247.8
247.8
247.801
247.801
247.802
247.802
247.802
247.803
247.803
247.804
247.804
247.805
247.805
247.805
247.806
247.806
247.807
247.807
247.808
247.808
247.808
247.809
247.809
247.81
247.81
247.811
247.811
247.812
247.812
247.812
247.813
247.813
247.814
247.814
247.815
247.815
247.816
247.816
247.817
247.817
247.818
247.818
247.819
247.819
247.82
247.82
247.821
247.821
247.822
247.822
247.823
247.823
247.824
247.824
247.825
247.825
247.826
247.826
247.827
247.828
247.828
247.829
247.829
247.83
247.83
247.831
247.832
247.832
247.833
247.833
247.834
247.835
247.835
247.836
247.837
247.837
247.838
247.839
247.839
247.84
247.84
247.841
247.842
247.843
247.843
247.844
247.845
247.845
247.846
247.847
247.847
247.848
247.849
247.85
247.85
247.851
247.852
247.853
247.854
247.854
247.855
247.856
247.857
247.858
247.858
247.859
247.86
247.861
247.862
247.863
247.863
247.864
247.865
247.866
247.867
247.868
247.869
247.87
247.871
247.872
247.873
247.874
247.875
247.876
247.877
247.878
247.879
247.88
247.881
247.882
247.883
247.884
247.885
247.886
247.887
247.888
247.89
247.891
247.892
247.893
247.894
247.895
247.897
247.898
247.899
247.9
247.902
247.903
247.904
247.906
247.907
247.908
247.91
247.911
247.912
247.914
247.915
247.917
247.918
247.92
247.921
247.923
247.924
247.926
247.927
247.929
247.93
247.932
247.934
247.935
247.937
247.939
247.941
247.942
247.944
247.946
247.948
247.95
247.952
247.954
247.955
247.957
247.959
247.962
247.964
247.966
247.968
247.97
247.972
247.974
247.977
247.979
247.981
247.984
247.986
247.989
247.991
247.994
247.996
247.999
248.001
248.004
248.007
248.01
248.013
248.015
248.018
248.021
248.024
248.028
248.031
248.034
248.037
248.041
248.044
248.048
248.051
248.055
248.058
248.062
248.066
248.07
248.074
248.078
248.082
248.086
248.091
248.095
248.1
248.104
248.109
248.114
248.119
248.124
248.129
248.135
248.14
248.146
248.152
248.158
248.164
248.17
248.176
248.183
248.19
248.196
248.204
248.211
248.219
248.226
248.234
248.243
248.251
248.26
248.269
248.278
248.288
248.298
248.308
248.319
248.33
248.342
248.354
248.366
248.379
248.393
248.407
248.422
248.437
248.453
248.47
248.487
248.506
248.526
248.546
248.568
248.591
248.616
248.642
248.669
248.697
248.726
248.756
248.788
248.821
248.857
248.896
248.941
248.994
249.061
249.146
249.256
249.401
249.59
249.836
250.153
250.556
251.063
251.692
252.461
253.391
254.501
255.81
257.338
259.101
261.115
263.394
265.948
268.784
271.907
275.317
279.009
282.974
287.199
291.664
296.348
301.22
306.249
311.4
316.631
321.904
327.174
332.4
337.539
342.552
347.403
352.059
356.492
360.679
364.603
368.253
371.622
374.709
377.516
380.052
382.327
384.355
386.151
387.732
389.115
390.319
391.362
392.26
393.031
393.691
394.252
394.73
395.135
395.479
395.771
396.018
396.229
396.409
396.564
396.697
396.812
396.913
397.001
397.078
397.147
397.207
397.26
397.308
397.349
397.386
397.418
397.446
397.47
397.491
397.509
397.524
397.536
397.546
397.555
397.561
397.567
397.571
397.575
397.577
397.579
397.581
397.582
397.583
397.584
397.584
397.585
397.585
397.585
397.585
397.586
397.586
397.586
397.586
397.586
397.586
397.586
397.587
397.587
397.587
397.587
397.587
397.587
397.587
397.587
397.588
397.588
397.588
397.588
397.588
)
;

boundaryField
{
    sides
    {
        type            zeroGradient;
    }
    empty
    {
        type            empty;
    }
}


// ************************************************************************* //
