/*--------------------------------*- C++ -*----------------------------------*\
  =========                 |
  \\      /  F ield         | OpenFOAM: The Open Source CFD Toolbox
   \\    /   O peration     | Website:  https://openfoam.org
    \\  /    A nd           | Version:  9
     \\/     M anipulation  |
\*---------------------------------------------------------------------------*/
FoamFile
{
    format      ascii;
    class       volVectorField;
    location    "0.014";
    object      U;
}
// * * * * * * * * * * * * * * * * * * * * * * * * * * * * * * * * * * * * * //

dimensions      [0 1 -1 0 0 0 0];

internalField   nonuniform List<vector> 
1000
(
(1.85968 0 0)
(3.49068 0 0)
(4.22192 0 0)
(5.19749 0 0)
(6.16616 0 0)
(7.12313 0 0)
(8.07826 0 0)
(9.032 0 0)
(9.98364 0 0)
(10.9328 0 0)
(11.8793 0 0)
(12.8228 0 0)
(13.7629 0 0)
(14.6995 0 0)
(15.6321 0 0)
(16.5604 0 0)
(17.4842 0 0)
(18.4031 0 0)
(19.3168 0 0)
(20.225 0 0)
(21.1273 0 0)
(22.0236 0 0)
(22.9133 0 0)
(23.7963 0 0)
(24.6723 0 0)
(25.5408 0 0)
(26.4017 0 0)
(27.2547 0 0)
(28.0995 0 0)
(28.9359 0 0)
(29.7637 0 0)
(30.5825 0 0)
(31.3924 0 0)
(32.1931 0 0)
(32.9844 0 0)
(33.7664 0 0)
(34.5388 0 0)
(35.3018 0 0)
(36.0553 0 0)
(36.7993 0 0)
(37.5339 0 0)
(38.2592 0 0)
(38.9754 0 0)
(39.6826 0 0)
(40.3811 0 0)
(41.0711 0 0)
(41.7528 0 0)
(42.4267 0 0)
(43.0929 0 0)
(43.7519 0 0)
(44.4039 0 0)
(45.0495 0 0)
(45.6889 0 0)
(46.3225 0 0)
(46.9508 0 0)
(47.574 0 0)
(48.1927 0 0)
(48.8072 0 0)
(49.4178 0 0)
(50.0249 0 0)
(50.6289 0 0)
(51.23 0 0)
(51.8286 0 0)
(52.4249 0 0)
(53.0193 0 0)
(53.6118 0 0)
(54.2029 0 0)
(54.7927 0 0)
(55.3813 0 0)
(55.969 0 0)
(56.5559 0 0)
(57.1421 0 0)
(57.7278 0 0)
(58.313 0 0)
(58.8979 0 0)
(59.4825 0 0)
(60.0669 0 0)
(60.6512 0 0)
(61.2354 0 0)
(61.8196 0 0)
(62.4038 0 0)
(62.988 0 0)
(63.5722 0 0)
(64.1566 0 0)
(64.741 0 0)
(65.3256 0 0)
(65.9102 0 0)
(66.495 0 0)
(67.08 0 0)
(67.665 0 0)
(68.2503 0 0)
(68.8356 0 0)
(69.4212 0 0)
(70.0068 0 0)
(70.5927 0 0)
(71.1786 0 0)
(71.7647 0 0)
(72.351 0 0)
(72.9374 0 0)
(73.5239 0 0)
(74.1106 0 0)
(74.6974 0 0)
(75.2844 0 0)
(75.8715 0 0)
(76.4587 0 0)
(77.046 0 0)
(77.6335 0 0)
(78.2211 0 0)
(78.8087 0 0)
(79.3966 0 0)
(79.9845 0 0)
(80.5725 0 0)
(81.1607 0 0)
(81.7489 0 0)
(82.3373 0 0)
(82.9257 0 0)
(83.5143 0 0)
(84.103 0 0)
(84.6917 0 0)
(85.2806 0 0)
(85.8695 0 0)
(86.4585 0 0)
(87.0476 0 0)
(87.6368 0 0)
(88.2261 0 0)
(88.8155 0 0)
(89.4049 0 0)
(89.9945 0 0)
(90.5841 0 0)
(91.1738 0 0)
(91.7635 0 0)
(92.3533 0 0)
(92.9432 0 0)
(93.5332 0 0)
(94.1232 0 0)
(94.7133 0 0)
(95.3035 0 0)
(95.8937 0 0)
(96.484 0 0)
(97.0744 0 0)
(97.6648 0 0)
(98.2553 0 0)
(98.8458 0 0)
(99.4364 0 0)
(100.027 0 0)
(100.618 0 0)
(101.209 0 0)
(101.799 0 0)
(102.39 0 0)
(102.981 0 0)
(103.572 0 0)
(104.163 0 0)
(104.754 0 0)
(105.345 0 0)
(105.936 0 0)
(106.527 0 0)
(107.119 0 0)
(107.71 0 0)
(108.301 0 0)
(108.893 0 0)
(109.484 0 0)
(110.075 0 0)
(110.667 0 0)
(111.258 0 0)
(111.85 0 0)
(112.441 0 0)
(113.033 0 0)
(113.625 0 0)
(114.216 0 0)
(114.808 0 0)
(115.4 0 0)
(115.992 0 0)
(116.583 0 0)
(117.175 0 0)
(117.767 0 0)
(118.359 0 0)
(118.951 0 0)
(119.543 0 0)
(120.135 0 0)
(120.727 0 0)
(121.319 0 0)
(121.911 0 0)
(122.503 0 0)
(123.095 0 0)
(123.687 0 0)
(124.279 0 0)
(124.871 0 0)
(125.463 0 0)
(126.055 0 0)
(126.647 0 0)
(127.24 0 0)
(127.832 0 0)
(128.424 0 0)
(129.016 0 0)
(129.608 0 0)
(130.201 0 0)
(130.793 0 0)
(131.385 0 0)
(131.978 0 0)
(132.57 0 0)
(133.162 0 0)
(133.755 0 0)
(134.347 0 0)
(134.939 0 0)
(135.532 0 0)
(136.124 0 0)
(136.716 0 0)
(137.309 0 0)
(137.901 0 0)
(138.494 0 0)
(139.086 0 0)
(139.678 0 0)
(140.271 0 0)
(140.863 0 0)
(141.456 0 0)
(142.048 0 0)
(142.641 0 0)
(143.233 0 0)
(143.825 0 0)
(144.418 0 0)
(145.01 0 0)
(145.603 0 0)
(146.195 0 0)
(146.788 0 0)
(147.38 0 0)
(147.973 0 0)
(148.565 0 0)
(149.157 0 0)
(149.75 0 0)
(150.342 0 0)
(150.935 0 0)
(151.527 0 0)
(152.12 0 0)
(152.712 0 0)
(153.304 0 0)
(153.897 0 0)
(154.489 0 0)
(155.082 0 0)
(155.674 0 0)
(156.266 0 0)
(156.859 0 0)
(157.451 0 0)
(158.043 0 0)
(158.636 0 0)
(159.228 0 0)
(159.82 0 0)
(160.413 0 0)
(161.005 0 0)
(161.597 0 0)
(162.189 0 0)
(162.782 0 0)
(163.374 0 0)
(163.966 0 0)
(164.558 0 0)
(165.151 0 0)
(165.743 0 0)
(166.335 0 0)
(166.927 0 0)
(167.519 0 0)
(168.111 0 0)
(168.703 0 0)
(169.295 0 0)
(169.888 0 0)
(170.479 0 0)
(171.072 0 0)
(171.663 0 0)
(172.255 0 0)
(172.847 0 0)
(173.439 0 0)
(174.031 0 0)
(174.623 0 0)
(175.215 0 0)
(175.807 0 0)
(176.399 0 0)
(176.99 0 0)
(177.582 0 0)
(178.174 0 0)
(178.765 0 0)
(179.357 0 0)
(179.949 0 0)
(180.54 0 0)
(181.132 0 0)
(181.723 0 0)
(182.315 0 0)
(182.906 0 0)
(183.498 0 0)
(184.089 0 0)
(184.681 0 0)
(185.272 0 0)
(185.863 0 0)
(186.454 0 0)
(187.046 0 0)
(187.637 0 0)
(188.228 0 0)
(188.819 0 0)
(189.41 0 0)
(190.001 0 0)
(190.592 0 0)
(191.183 0 0)
(191.774 0 0)
(192.365 0 0)
(192.955 0 0)
(193.546 0 0)
(194.137 0 0)
(194.727 0 0)
(195.318 0 0)
(195.908 0 0)
(196.499 0 0)
(197.089 0 0)
(197.68 0 0)
(198.27 0 0)
(198.86 0 0)
(199.45 0 0)
(200.04 0 0)
(200.63 0 0)
(201.22 0 0)
(201.81 0 0)
(202.4 0 0)
(202.99 0 0)
(203.58 0 0)
(204.169 0 0)
(204.759 0 0)
(205.348 0 0)
(205.938 0 0)
(206.527 0 0)
(207.116 0 0)
(207.705 0 0)
(208.294 0 0)
(208.883 0 0)
(209.472 0 0)
(210.061 0 0)
(210.65 0 0)
(211.239 0 0)
(211.827 0 0)
(212.416 0 0)
(213.004 0 0)
(213.592 0 0)
(214.18 0 0)
(214.768 0 0)
(215.356 0 0)
(215.944 0 0)
(216.532 0 0)
(217.12 0 0)
(217.707 0 0)
(218.294 0 0)
(218.882 0 0)
(219.469 0 0)
(220.056 0 0)
(220.643 0 0)
(221.229 0 0)
(221.816 0 0)
(222.402 0 0)
(222.989 0 0)
(223.575 0 0)
(224.161 0 0)
(224.747 0 0)
(225.332 0 0)
(225.918 0 0)
(226.503 0 0)
(227.088 0 0)
(227.673 0 0)
(228.258 0 0)
(228.843 0 0)
(229.427 0 0)
(230.011 0 0)
(230.595 0 0)
(231.179 0 0)
(231.763 0 0)
(232.346 0 0)
(232.929 0 0)
(233.512 0 0)
(234.095 0 0)
(234.677 0 0)
(235.26 0 0)
(235.842 0 0)
(236.423 0 0)
(237.005 0 0)
(237.586 0 0)
(238.167 0 0)
(238.747 0 0)
(239.328 0 0)
(239.907 0 0)
(240.487 0 0)
(241.066 0 0)
(241.645 0 0)
(242.224 0 0)
(242.802 0 0)
(243.38 0 0)
(243.957 0 0)
(244.534 0 0)
(245.111 0 0)
(245.687 0 0)
(246.263 0 0)
(246.838 0 0)
(247.413 0 0)
(247.988 0 0)
(248.561 0 0)
(249.135 0 0)
(249.708 0 0)
(250.28 0 0)
(250.852 0 0)
(251.423 0 0)
(251.993 0 0)
(252.563 0 0)
(253.132 0 0)
(253.701 0 0)
(254.269 0 0)
(254.836 0 0)
(255.402 0 0)
(255.968 0 0)
(256.533 0 0)
(257.097 0 0)
(257.66 0 0)
(258.222 0 0)
(258.783 0 0)
(259.344 0 0)
(259.903 0 0)
(260.461 0 0)
(261.019 0 0)
(261.575 0 0)
(262.13 0 0)
(262.683 0 0)
(263.236 0 0)
(263.787 0 0)
(264.337 0 0)
(264.885 0 0)
(265.432 0 0)
(265.977 0 0)
(266.521 0 0)
(267.063 0 0)
(267.604 0 0)
(268.142 0 0)
(268.679 0 0)
(269.214 0 0)
(269.746 0 0)
(270.277 0 0)
(270.805 0 0)
(271.331 0 0)
(271.855 0 0)
(272.376 0 0)
(272.895 0 0)
(273.411 0 0)
(273.924 0 0)
(274.433 0 0)
(274.94 0 0)
(275.444 0 0)
(275.944 0 0)
(276.441 0 0)
(276.934 0 0)
(277.423 0 0)
(277.908 0 0)
(278.389 0 0)
(278.866 0 0)
(279.338 0 0)
(279.806 0 0)
(280.268 0 0)
(280.726 0 0)
(281.178 0 0)
(281.624 0 0)
(282.065 0 0)
(282.499 0 0)
(282.928 0 0)
(283.35 0 0)
(283.765 0 0)
(284.173 0 0)
(284.574 0 0)
(284.968 0 0)
(285.354 0 0)
(285.731 0 0)
(286.101 0 0)
(286.462 0 0)
(286.814 0 0)
(287.157 0 0)
(287.491 0 0)
(287.816 0 0)
(288.131 0 0)
(288.436 0 0)
(288.731 0 0)
(289.015 0 0)
(289.289 0 0)
(289.553 0 0)
(289.806 0 0)
(290.049 0 0)
(290.28 0 0)
(290.501 0 0)
(290.711 0 0)
(290.91 0 0)
(291.098 0 0)
(291.276 0 0)
(291.443 0 0)
(291.601 0 0)
(291.748 0 0)
(291.885 0 0)
(292.012 0 0)
(292.13 0 0)
(292.24 0 0)
(292.34 0 0)
(292.433 0 0)
(292.517 0 0)
(292.594 0 0)
(292.664 0 0)
(292.727 0 0)
(292.784 0 0)
(292.836 0 0)
(292.881 0 0)
(292.922 0 0)
(292.959 0 0)
(292.991 0 0)
(293.019 0 0)
(293.044 0 0)
(293.065 0 0)
(293.084 0 0)
(293.101 0 0)
(293.115 0 0)
(293.127 0 0)
(293.137 0 0)
(293.146 0 0)
(293.154 0 0)
(293.16 0 0)
(293.166 0 0)
(293.171 0 0)
(293.174 0 0)
(293.178 0 0)
(293.18 0 0)
(293.183 0 0)
(293.185 0 0)
(293.186 0 0)
(293.188 0 0)
(293.189 0 0)
(293.19 0 0)
(293.19 0 0)
(293.191 0 0)
(293.192 0 0)
(293.192 0 0)
(293.193 0 0)
(293.193 0 0)
(293.193 0 0)
(293.194 0 0)
(293.194 0 0)
(293.194 0 0)
(293.195 0 0)
(293.195 0 0)
(293.195 0 0)
(293.195 0 0)
(293.196 0 0)
(293.196 0 0)
(293.196 0 0)
(293.196 0 0)
(293.196 0 0)
(293.197 0 0)
(293.197 0 0)
(293.197 0 0)
(293.197 0 0)
(293.197 0 0)
(293.198 0 0)
(293.198 0 0)
(293.198 0 0)
(293.198 0 0)
(293.198 0 0)
(293.199 0 0)
(293.199 0 0)
(293.199 0 0)
(293.199 0 0)
(293.199 0 0)
(293.199 0 0)
(293.2 0 0)
(293.2 0 0)
(293.2 0 0)
(293.2 0 0)
(293.2 0 0)
(293.2 0 0)
(293.2 0 0)
(293.2 0 0)
(293.2 0 0)
(293.201 0 0)
(293.201 0 0)
(293.201 0 0)
(293.201 0 0)
(293.201 0 0)
(293.201 0 0)
(293.201 0 0)
(293.201 0 0)
(293.201 0 0)
(293.201 0 0)
(293.201 0 0)
(293.201 0 0)
(293.201 0 0)
(293.201 0 0)
(293.201 0 0)
(293.2 0 0)
(293.2 0 0)
(293.2 0 0)
(293.2 0 0)
(293.2 0 0)
(293.2 0 0)
(293.2 0 0)
(293.2 0 0)
(293.2 0 0)
(293.2 0 0)
(293.2 0 0)
(293.2 0 0)
(293.2 0 0)
(293.2 0 0)
(293.2 0 0)
(293.199 0 0)
(293.199 0 0)
(293.199 0 0)
(293.199 0 0)
(293.199 0 0)
(293.199 0 0)
(293.199 0 0)
(293.199 0 0)
(293.199 0 0)
(293.199 0 0)
(293.199 0 0)
(293.199 0 0)
(293.199 0 0)
(293.199 0 0)
(293.199 0 0)
(293.199 0 0)
(293.199 0 0)
(293.199 0 0)
(293.199 0 0)
(293.199 0 0)
(293.199 0 0)
(293.2 0 0)
(293.2 0 0)
(293.2 0 0)
(293.2 0 0)
(293.2 0 0)
(293.2 0 0)
(293.2 0 0)
(293.2 0 0)
(293.2 0 0)
(293.2 0 0)
(293.2 0 0)
(293.2 0 0)
(293.2 0 0)
(293.2 0 0)
(293.2 0 0)
(293.2 0 0)
(293.2 0 0)
(293.2 0 0)
(293.2 0 0)
(293.2 0 0)
(293.2 0 0)
(293.2 0 0)
(293.2 0 0)
(293.2 0 0)
(293.2 0 0)
(293.2 0 0)
(293.2 0 0)
(293.2 0 0)
(293.2 0 0)
(293.2 0 0)
(293.2 0 0)
(293.2 0 0)
(293.2 0 0)
(293.2 0 0)
(293.2 0 0)
(293.2 0 0)
(293.2 0 0)
(293.2 0 0)
(293.2 0 0)
(293.2 0 0)
(293.2 0 0)
(293.2 0 0)
(293.201 0 0)
(293.201 0 0)
(293.201 0 0)
(293.201 0 0)
(293.201 0 0)
(293.201 0 0)
(293.201 0 0)
(293.201 0 0)
(293.201 0 0)
(293.201 0 0)
(293.201 0 0)
(293.201 0 0)
(293.201 0 0)
(293.201 0 0)
(293.201 0 0)
(293.201 0 0)
(293.201 0 0)
(293.201 0 0)
(293.201 0 0)
(293.201 0 0)
(293.201 0 0)
(293.201 0 0)
(293.201 0 0)
(293.201 0 0)
(293.201 0 0)
(293.201 0 0)
(293.201 0 0)
(293.201 0 0)
(293.201 0 0)
(293.201 0 0)
(293.201 0 0)
(293.201 0 0)
(293.201 0 0)
(293.201 0 0)
(293.201 0 0)
(293.201 0 0)
(293.201 0 0)
(293.201 0 0)
(293.201 0 0)
(293.201 0 0)
(293.201 0 0)
(293.201 0 0)
(293.201 0 0)
(293.201 0 0)
(293.201 0 0)
(293.201 0 0)
(293.201 0 0)
(293.201 0 0)
(293.201 0 0)
(293.201 0 0)
(293.201 0 0)
(293.201 0 0)
(293.201 0 0)
(293.201 0 0)
(293.201 0 0)
(293.201 0 0)
(293.201 0 0)
(293.201 0 0)
(293.201 0 0)
(293.201 0 0)
(293.201 0 0)
(293.201 0 0)
(293.201 0 0)
(293.201 0 0)
(293.201 0 0)
(293.201 0 0)
(293.201 0 0)
(293.201 0 0)
(293.201 0 0)
(293.201 0 0)
(293.201 0 0)
(293.201 0 0)
(293.201 0 0)
(293.201 0 0)
(293.201 0 0)
(293.201 0 0)
(293.201 0 0)
(293.201 0 0)
(293.201 0 0)
(293.201 0 0)
(293.201 0 0)
(293.201 0 0)
(293.201 0 0)
(293.201 0 0)
(293.201 0 0)
(293.201 0 0)
(293.201 0 0)
(293.201 0 0)
(293.201 0 0)
(293.201 0 0)
(293.201 0 0)
(293.201 0 0)
(293.201 0 0)
(293.201 0 0)
(293.201 0 0)
(293.201 0 0)
(293.201 0 0)
(293.201 0 0)
(293.201 0 0)
(293.201 0 0)
(293.201 0 0)
(293.201 0 0)
(293.201 0 0)
(293.201 0 0)
(293.201 0 0)
(293.201 0 0)
(293.201 0 0)
(293.201 0 0)
(293.201 0 0)
(293.201 0 0)
(293.201 0 0)
(293.201 0 0)
(293.201 0 0)
(293.201 0 0)
(293.201 0 0)
(293.201 0 0)
(293.201 0 0)
(293.201 0 0)
(293.201 0 0)
(293.201 0 0)
(293.201 0 0)
(293.201 0 0)
(293.201 0 0)
(293.201 0 0)
(293.201 0 0)
(293.201 0 0)
(293.201 0 0)
(293.201 0 0)
(293.201 0 0)
(293.201 0 0)
(293.201 0 0)
(293.201 0 0)
(293.201 0 0)
(293.201 0 0)
(293.201 0 0)
(293.201 0 0)
(293.201 0 0)
(293.201 0 0)
(293.201 0 0)
(293.201 0 0)
(293.201 0 0)
(293.201 0 0)
(293.201 0 0)
(293.201 0 0)
(293.201 0 0)
(293.201 0 0)
(293.201 0 0)
(293.201 0 0)
(293.201 0 0)
(293.201 0 0)
(293.201 0 0)
(293.201 0 0)
(293.201 0 0)
(293.201 0 0)
(293.201 0 0)
(293.201 0 0)
(293.201 0 0)
(293.201 0 0)
(293.201 0 0)
(293.201 0 0)
(293.201 0 0)
(293.201 0 0)
(293.201 0 0)
(293.201 0 0)
(293.201 0 0)
(293.201 0 0)
(293.201 0 0)
(293.201 0 0)
(293.201 0 0)
(293.201 0 0)
(293.201 0 0)
(293.201 0 0)
(293.201 0 0)
(293.201 0 0)
(293.201 0 0)
(293.201 0 0)
(293.201 0 0)
(293.201 0 0)
(293.201 0 0)
(293.201 0 0)
(293.201 0 0)
(293.201 0 0)
(293.201 0 0)
(293.201 0 0)
(293.201 0 0)
(293.201 0 0)
(293.201 0 0)
(293.201 0 0)
(293.201 0 0)
(293.201 0 0)
(293.201 0 0)
(293.201 0 0)
(293.201 0 0)
(293.201 0 0)
(293.201 0 0)
(293.201 0 0)
(293.201 0 0)
(293.201 0 0)
(293.201 0 0)
(293.201 0 0)
(293.201 0 0)
(293.201 0 0)
(293.201 0 0)
(293.201 0 0)
(293.201 0 0)
(293.201 0 0)
(293.201 0 0)
(293.201 0 0)
(293.201 0 0)
(293.201 0 0)
(293.201 0 0)
(293.201 0 0)
(293.201 0 0)
(293.201 0 0)
(293.201 0 0)
(293.201 0 0)
(293.201 0 0)
(293.201 0 0)
(293.201 0 0)
(293.201 0 0)
(293.201 0 0)
(293.201 0 0)
(293.201 0 0)
(293.201 0 0)
(293.2 0 0)
(293.2 0 0)
(293.199 0 0)
(293.198 0 0)
(293.198 0 0)
(293.196 0 0)
(293.195 0 0)
(293.194 0 0)
(293.192 0 0)
(293.191 0 0)
(293.189 0 0)
(293.188 0 0)
(293.186 0 0)
(293.184 0 0)
(293.183 0 0)
(293.182 0 0)
(293.181 0 0)
(293.181 0 0)
(293.181 0 0)
(293.181 0 0)
(293.181 0 0)
(293.182 0 0)
(293.183 0 0)
(293.184 0 0)
(293.185 0 0)
(293.186 0 0)
(293.187 0 0)
(293.188 0 0)
(293.189 0 0)
(293.19 0 0)
(293.189 0 0)
(293.187 0 0)
(293.185 0 0)
(293.181 0 0)
(293.176 0 0)
(293.169 0 0)
(293.16 0 0)
(293.149 0 0)
(293.135 0 0)
(293.118 0 0)
(293.097 0 0)
(293.071 0 0)
(293.042 0 0)
(293.007 0 0)
(292.967 0 0)
(292.921 0 0)
(292.869 0 0)
(292.812 0 0)
(292.748 0 0)
(292.679 0 0)
(292.604 0 0)
(292.523 0 0)
(292.439 0 0)
(292.351 0 0)
(292.26 0 0)
(292.167 0 0)
(292.073 0 0)
(291.979 0 0)
(291.887 0 0)
(291.796 0 0)
(291.71 0 0)
(291.627 0 0)
(291.549 0 0)
(291.477 0 0)
(291.41 0 0)
(291.35 0 0)
(291.295 0 0)
(291.247 0 0)
(291.205 0 0)
(291.169 0 0)
(291.138 0 0)
(291.112 0 0)
(291.091 0 0)
(291.073 0 0)
(291.059 0 0)
(291.047 0 0)
(291.038 0 0)
(291.031 0 0)
(291.026 0 0)
(291.022 0 0)
(291.02 0 0)
(291.017 0 0)
(291.016 0 0)
(291.015 0 0)
(291.014 0 0)
(291.014 0 0)
(291.014 0 0)
(291.013 0 0)
(291.013 0 0)
(291.013 0 0)
(291.013 0 0)
(291.013 0 0)
(291.013 0 0)
(291.013 0 0)
(291.013 0 0)
(291.013 0 0)
(291.013 0 0)
(291.013 0 0)
(291.013 0 0)
(291.013 0 0)
(291.013 0 0)
(291.013 0 0)
(291.013 0 0)
(291.013 0 0)
(291.013 0 0)
(291.013 0 0)
(291.013 0 0)
(291.013 0 0)
(291.013 0 0)
)
;

boundaryField
{
    sides
    {
        type            zeroGradient;
    }
    empty
    {
        type            empty;
    }
}


// ************************************************************************* //
