/*--------------------------------*- C++ -*----------------------------------*\
  =========                 |
  \\      /  F ield         | OpenFOAM: The Open Source CFD Toolbox
   \\    /   O peration     | Website:  https://openfoam.org
    \\  /    A nd           | Version:  9
     \\/     M anipulation  |
\*---------------------------------------------------------------------------*/
FoamFile
{
    format      ascii;
    class       volScalarField;
    location    "0.038";
    object      mag(U);
}
// * * * * * * * * * * * * * * * * * * * * * * * * * * * * * * * * * * * * * //

dimensions      [0 1 -1 0 0 0 0];

internalField   nonuniform List<scalar> 
10000
(
208.386
208.42
208.44
208.462
208.484
208.506
208.527
208.549
208.57
208.592
208.614
208.635
208.657
208.679
208.7
208.722
208.744
208.765
208.787
208.809
208.831
208.852
208.874
208.896
208.917
208.939
208.96
208.982
209.004
209.025
209.047
209.068
209.09
209.112
209.133
209.155
209.176
209.198
209.22
209.241
209.263
209.285
209.306
209.328
209.35
209.371
209.393
209.415
209.436
209.458
209.479
209.501
209.523
209.544
209.566
209.588
209.609
209.631
209.653
209.674
209.696
209.718
209.739
209.761
209.782
209.804
209.826
209.847
209.869
209.89
209.912
209.933
209.955
209.976
209.998
210.02
210.041
210.063
210.084
210.106
210.128
210.149
210.171
210.192
210.214
210.236
210.257
210.279
210.3
210.322
210.344
210.365
210.387
210.408
210.43
210.452
210.474
210.495
210.517
210.538
210.559
210.581
210.603
210.625
210.647
210.669
210.69
210.711
210.732
210.754
210.776
210.798
210.82
210.841
210.862
210.884
210.906
210.928
210.95
210.971
210.992
211.014
211.035
211.057
211.08
211.102
211.123
211.143
211.164
211.186
211.208
211.231
211.254
211.275
211.296
211.316
211.337
211.359
211.382
211.405
211.426
211.447
211.468
211.489
211.511
211.533
211.555
211.577
211.598
211.619
211.641
211.664
211.686
211.707
211.728
211.748
211.77
211.794
211.817
211.838
211.858
211.878
211.899
211.923
211.949
211.97
211.989
212.008
212.027
212.047
212.073
212.102
212.124
212.143
212.16
212.179
212.198
212.219
212.247
212.276
212.297
212.315
212.333
212.352
212.371
212.394
212.422
212.449
212.469
212.487
212.505
212.524
212.545
212.573
212.6
212.62
212.638
212.656
212.674
212.696
212.727
212.754
212.773
212.79
212.807
212.825
212.844
212.871
212.903
212.926
212.943
212.96
212.977
212.996
213.022
213.054
213.077
213.095
213.112
213.129
213.147
213.169
213.198
213.226
213.246
213.265
213.283
213.307
213.335
213.358
213.376
213.393
213.411
213.429
213.454
213.488
213.513
213.531
213.547
213.564
213.582
213.601
213.628
213.661
213.684
213.701
213.718
213.735
213.752
213.773
213.804
213.836
213.856
213.873
213.89
213.907
213.929
213.959
213.984
214.003
214.02
214.037
214.058
214.088
214.118
214.137
214.154
214.171
214.188
214.206
214.23
214.263
214.29
214.308
214.325
214.342
214.359
214.38
214.411
214.441
214.46
214.477
214.493
214.51
214.528
214.549
214.581
214.615
214.636
214.652
214.668
214.685
214.702
214.721
214.749
214.79
214.82
214.837
214.852
214.867
214.884
214.901
214.92
214.946
214.98
215.005
215.022
215.039
215.056
215.075
215.099
215.13
215.153
215.171
215.188
215.205
215.225
215.253
215.284
215.305
215.322
215.339
215.357
215.375
215.399
215.432
215.458
215.476
215.493
215.51
215.528
215.549
215.579
215.609
215.628
215.645
215.662
215.68
215.699
215.728
215.759
215.78
215.797
215.814
215.831
215.849
215.874
215.907
215.934
215.952
215.969
215.985
216.003
216.021
216.045
216.079
216.107
216.125
216.142
216.157
216.174
216.191
216.21
216.24
216.287
216.321
216.339
216.353
216.363
216.377
216.394
216.412
216.43
216.452
216.486
216.521
216.542
216.558
216.572
216.588
216.605
216.623
216.647
216.684
216.717
216.736
216.752
216.766
216.782
216.8
216.819
216.848
216.886
216.911
216.928
216.944
216.961
216.979
216.996
217.015
217.038
217.073
217.109
217.131
217.148
217.165
217.182
217.199
217.217
217.235
217.256
217.286
217.319
217.339
217.356
217.372
217.389
217.407
217.427
217.457
217.491
217.512
217.529
217.546
217.564
217.582
217.607
217.639
217.663
217.681
217.698
217.715
217.734
217.758
217.791
217.816
217.834
217.851
217.868
217.886
217.905
217.932
217.965
217.988
218.005
218.022
218.039
218.056
218.074
218.1
218.135
218.161
218.179
218.195
218.209
218.225
218.242
218.261
218.289
218.335
218.374
218.394
218.409
218.421
218.436
218.454
218.472
218.497
218.526
218.547
218.565
218.582
218.6
218.618
218.643
218.676
218.703
218.721
218.738
218.755
218.772
218.791
218.815
218.849
218.876
218.895
218.912
218.929
218.947
218.967
218.995
219.023
219.043
219.06
219.078
219.096
219.121
219.15
219.172
219.19
219.206
219.222
219.239
219.256
219.275
219.303
219.35
219.394
219.416
219.432
219.442
219.45
219.465
219.483
219.501
219.527
219.565
219.594
219.612
219.628
219.643
219.66
219.677
219.697
219.727
219.763
219.786
219.803
219.82
219.837
219.855
219.874
219.902
219.934
219.956
219.974
219.991
220.009
220.028
220.051
220.074
220.093
220.11
220.128
220.146
220.164
220.193
220.241
220.283
220.304
220.319
220.328
220.335
220.351
220.369
220.387
220.413
220.451
220.481
220.499
220.515
220.529
220.546
220.564
220.583
220.61
220.647
220.673
220.69
220.707
220.724
220.741
220.76
220.785
220.816
220.838
220.856
220.873
220.891
220.908
220.928
220.958
220.995
221.02
221.037
221.053
221.069
221.087
221.105
221.129
221.163
221.191
221.209
221.226
221.241
221.258
221.276
221.295
221.324
221.361
221.386
221.403
221.418
221.43
221.446
221.464
221.482
221.51
221.555
221.593
221.612
221.627
221.636
221.648
221.665
221.682
221.704
221.742
221.787
221.811
221.827
221.84
221.851
221.868
221.885
221.905
221.934
221.969
221.992
222.009
222.026
222.044
222.062
222.083
222.11
222.136
222.155
222.173
222.19
222.209
222.234
222.265
222.289
222.307
222.325
222.342
222.36
222.379
222.405
222.439
222.463
222.481
222.498
222.514
222.532
222.55
222.57
222.601
222.636
222.658
222.675
222.692
222.708
222.726
222.744
222.773
222.817
222.851
222.87
222.884
222.892
222.902
222.919
222.936
222.956
222.986
223.03
223.059
223.077
223.091
223.105
223.122
223.14
223.16
223.19
223.224
223.245
223.263
223.278
223.293
223.31
223.328
223.346
223.364
223.39
223.433
223.473
223.494
223.51
223.522
223.535
223.552
223.57
223.588
223.607
223.637
223.678
223.706
223.724
223.739
223.755
223.773
223.791
223.812
223.84
223.866
223.885
223.903
223.921
223.94
223.964
223.995
224.019
224.037
224.055
224.072
224.09
224.111
224.141
224.174
224.195
224.213
224.229
224.245
224.263
224.28
224.299
224.318
224.351
224.395
224.422
224.439
224.455
224.469
224.486
224.504
224.522
224.541
224.568
224.601
224.626
224.644
224.662
224.679
224.697
224.716
224.741
224.771
224.793
224.811
224.828
224.845
224.862
224.88
224.898
224.924
224.969
225.014
225.038
225.054
225.065
225.07
225.084
225.101
225.119
225.139
225.172
225.215
225.24
225.257
225.272
225.287
225.304
225.323
225.343
225.372
225.402
225.422
225.44
225.458
225.476
225.494
225.518
225.545
225.566
225.584
225.601
225.619
225.637
225.655
225.679
225.722
225.771
225.797
225.814
225.826
225.83
225.84
225.857
225.875
225.893
225.921
225.966
226.001
226.021
226.036
226.049
226.064
226.082
226.1
226.12
226.143
226.164
226.182
226.2
226.218
226.237
226.263
226.309
226.359
226.386
226.403
226.416
226.418
226.425
226.441
226.459
226.477
226.495
226.516
226.551
226.601
226.636
226.655
226.67
226.678
226.687
226.703
226.721
226.74
226.762
226.797
226.831
226.851
226.868
226.882
226.896
226.912
226.93
226.949
226.977
227.024
227.072
227.097
227.114
227.125
227.127
227.137
227.154
227.172
227.19
227.216
227.258
227.296
227.316
227.332
227.345
227.361
227.379
227.397
227.419
227.446
227.47
227.488
227.506
227.524
227.542
227.56
227.582
227.62
227.671
227.702
227.721
227.735
227.741
227.748
227.763
227.781
227.799
227.817
227.836
227.857
227.894
227.943
227.973
227.991
228.006
228.014
228.026
228.043
228.061
228.079
228.099
228.133
228.179
228.206
228.224
228.239
228.254
228.271
228.289
228.31
228.338
228.369
228.39
228.407
228.424
228.44
228.456
228.474
228.492
228.51
228.529
228.551
228.589
228.636
228.664
228.681
228.695
228.706
228.722
228.739
228.758
228.776
228.801
228.836
228.865
228.884
228.901
228.918
228.936
228.954
228.973
229.001
229.038
229.065
229.084
229.1
229.117
229.134
229.152
229.171
229.191
229.213
229.233
229.252
229.271
229.291
229.321
229.366
229.401
229.42
229.436
229.446
229.455
229.471
229.489
229.507
229.526
229.546
229.579
229.627
229.659
229.677
229.693
229.704
229.717
229.735
229.753
229.771
229.794
229.829
229.863
229.883
229.9
229.915
229.926
229.941
229.959
229.977
229.996
230.023
230.068
230.114
230.137
230.154
230.166
230.17
230.182
230.199
230.218
230.236
230.26
230.301
230.345
230.369
230.386
230.4
230.413
230.431
230.449
230.468
230.49
230.513
230.532
230.55
230.568
230.586
230.605
230.624
230.652
230.699
230.747
230.771
230.788
230.8
230.804
230.815
230.833
230.851
230.869
230.895
230.935
230.97
230.99
231.006
231.02
231.036
231.054
231.073
231.094
231.125
231.157
231.178
231.196
231.214
231.232
231.25
231.271
231.297
231.32
231.339
231.357
231.374
231.389
231.405
231.423
231.441
231.46
231.481
231.515
231.573
231.624
231.648
231.665
231.678
231.681
231.689
231.705
231.723
231.742
231.761
231.782
231.802
231.821
231.839
231.857
231.876
231.894
231.918
231.96
232.015
232.047
232.066
232.081
232.086
232.087
232.1
232.118
232.137
232.157
232.191
232.247
232.292
232.314
232.33
232.341
232.338
232.343
232.359
232.377
232.395
232.415
232.448
232.499
232.536
232.556
232.572
232.583
232.595
232.612
232.63
232.649
232.673
232.708
232.736
232.755
232.773
232.789
232.803
232.82
232.839
232.857
232.875
232.893
232.912
232.931
232.954
232.995
233.048
233.079
233.097
233.112
233.121
233.132
233.149
233.167
233.186
233.208
233.245
233.288
233.311
233.329
233.343
233.35
233.363
233.38
233.398
233.416
233.435
233.453
233.472
233.492
233.524
233.579
233.632
233.658
233.676
233.69
233.695
233.703
233.72
233.738
233.756
233.777
233.803
233.832
233.853
233.871
233.89
233.908
233.926
233.947
233.978
234.013
234.036
234.054
234.07
234.082
234.095
234.112
234.13
234.148
234.167
234.187
234.218
234.267
234.311
234.333
234.35
234.362
234.371
234.386
234.404
234.423
234.443
234.468
234.496
234.516
234.535
234.553
234.571
234.589
234.608
234.63
234.665
234.704
234.727
234.744
234.759
234.772
234.788
234.806
234.825
234.847
234.885
234.93
234.954
234.971
234.984
234.988
234.998
235.015
235.033
235.052
235.077
235.119
235.167
235.193
235.211
235.225
235.234
235.248
235.266
235.285
235.305
235.339
235.386
235.415
235.434
235.449
235.455
235.46
235.476
235.494
235.512
235.532
235.559
235.605
235.647
235.669
235.686
235.698
235.704
235.718
235.736
235.754
235.773
235.797
235.838
235.88
235.903
235.92
235.935
235.949
235.967
235.985
236.004
236.028
236.057
236.081
236.1
236.118
236.137
236.156
236.178
236.207
236.23
236.249
236.267
236.285
236.301
236.319
236.337
236.355
236.374
236.397
236.435
236.483
236.511
236.529
236.545
236.554
236.564
236.581
236.599
236.617
236.637
236.661
236.702
236.751
236.777
236.795
236.81
236.817
236.826
236.842
236.861
236.879
236.898
236.919
236.952
236.998
237.027
237.046
237.062
237.074
237.088
237.105
237.124
237.143
237.165
237.199
237.232
237.253
237.271
237.288
237.3
237.315
237.333
237.351
237.37
237.388
237.407
237.426
237.453
237.498
237.555
237.587
237.606
237.622
237.632
237.638
237.653
237.671
237.69
237.708
237.727
237.747
237.773
237.811
237.84
237.859
237.878
237.896
237.913
237.929
237.945
237.962
237.981
237.999
238.018
238.036
238.055
238.078
238.117
238.168
238.199
238.218
238.234
238.242
238.248
238.263
238.281
238.3
238.32
238.35
238.4
238.443
238.465
238.483
238.496
238.505
238.521
238.539
238.557
238.577
238.597
238.618
238.637
238.655
238.673
238.691
238.71
238.728
238.747
238.766
238.793
238.837
238.885
238.91
238.928
238.942
238.95
238.963
238.98
238.999
239.018
239.044
239.087
239.134
239.158
239.176
239.191
239.2
239.214
239.232
239.25
239.27
239.291
239.313
239.332
239.35
239.369
239.386
239.404
239.422
239.441
239.46
239.482
239.519
239.57
239.603
239.622
239.639
239.648
239.653
239.667
239.686
239.704
239.723
239.749
239.79
239.831
239.853
239.87
239.884
239.895
239.912
239.93
239.949
239.971
240.003
240.038
240.06
240.078
240.094
240.107
240.124
240.142
240.161
240.182
240.217
240.267
240.301
240.32
240.336
240.345
240.345
240.356
240.374
240.393
240.412
240.437
240.479
240.533
240.563
240.581
240.597
240.607
240.617
240.634
240.653
240.672
240.693
240.721
240.754
240.776
240.794
240.812
240.83
240.848
240.867
240.885
240.904
240.924
240.943
240.963
240.982
241
241.02
241.042
241.078
241.12
241.145
241.163
241.179
241.187
241.196
241.213
241.232
241.251
241.271
241.304
241.358
241.404
241.427
241.445
241.458
241.461
241.464
241.48
241.499
241.518
241.538
241.568
241.618
241.664
241.688
241.706
241.72
241.722
241.723
241.738
241.756
241.775
241.794
241.816
241.853
241.904
241.938
241.957
241.974
241.985
241.991
242.006
242.024
242.043
242.062
242.087
242.124
242.157
242.178
242.196
242.213
242.23
242.249
242.267
242.288
242.314
242.346
242.369
242.388
242.406
242.421
242.43
242.444
242.462
242.481
242.499
242.519
242.542
242.582
242.646
242.694
242.717
242.735
242.75
242.753
242.752
242.765
242.783
242.802
242.821
242.84
242.867
242.907
242.939
242.959
242.977
242.992
243.005
243.022
243.04
243.059
243.078
243.097
243.115
243.134
243.154
243.178
243.219
243.277
243.312
243.332
243.35
243.362
243.366
243.376
243.393
243.412
243.43
243.449
243.468
243.487
243.505
243.524
243.543
243.562
243.582
243.607
243.651
243.708
243.74
243.76
243.777
243.788
243.793
243.807
243.826
243.844
243.864
243.885
243.911
243.937
243.956
243.975
243.994
244.012
244.029
244.047
244.066
244.085
244.104
244.123
244.142
244.166
244.206
244.27
244.315
244.338
244.356
244.371
244.374
244.37
244.382
244.399
244.418
244.437
244.456
244.475
244.494
244.513
244.534
244.565
244.617
244.664
244.687
244.705
244.72
244.725
244.721
244.733
244.751
244.769
244.788
244.807
244.826
244.847
244.88
244.938
244.999
245.029
245.048
245.065
245.075
245.073
245.081
245.099
245.118
245.137
245.156
245.18
245.21
245.235
245.255
245.274
245.292
245.311
245.33
245.349
245.368
245.392
245.431
245.481
245.51
245.529
245.546
245.558
245.561
245.572
245.589
245.608
245.627
245.646
245.665
245.684
245.703
245.722
245.741
245.76
245.784
245.824
245.888
245.932
245.954
245.972
245.987
245.992
245.997
246.013
246.031
246.05
246.07
246.091
246.12
246.147
246.167
246.186
246.205
246.222
246.239
246.258
246.277
246.296
246.315
246.334
246.354
246.381
246.426
246.47
246.494
246.512
246.528
246.538
246.55
246.567
246.586
246.605
246.624
246.644
246.667
246.7
246.733
246.755
246.774
246.792
246.807
246.822
246.839
246.858
246.877
246.896
246.916
246.936
246.962
247.007
247.056
247.082
247.101
247.117
247.124
247.122
247.133
247.151
247.17
247.189
247.21
247.241
247.294
247.34
247.364
247.382
247.397
247.403
247.404
247.418
247.436
247.455
247.474
247.495
247.527
247.578
247.618
247.64
247.658
247.674
247.683
247.697
247.715
247.734
247.753
247.772
247.791
247.81
247.829
247.848
247.867
247.887
247.911
247.952
247.999
248.025
248.044
248.062
248.075
248.088
248.105
248.124
248.143
248.163
248.184
248.207
248.228
248.247
248.266
248.285
248.304
248.324
248.352
248.397
248.443
248.467
248.485
248.502
248.511
248.514
248.529
248.548
248.567
248.586
248.605
248.624
248.643
248.662
248.684
248.719
248.766
248.795
248.814
248.832
248.845
248.856
248.873
248.892
248.911
248.931
248.957
248.998
249.037
249.058
249.077
249.092
249.1
249.106
249.122
249.141
249.16
249.179
249.199
249.218
249.238
249.265
249.312
249.367
249.396
249.415
249.432
249.444
249.449
249.463
249.481
249.5
249.52
249.542
249.574
249.612
249.635
249.654
249.672
249.684
249.692
249.708
249.727
249.746
249.766
249.793
249.839
249.883
249.907
249.926
249.941
249.948
249.949
249.963
249.982
250.001
250.02
250.044
250.084
250.141
250.176
250.197
250.215
250.228
250.231
250.237
250.253
250.272
250.291
250.311
250.333
250.367
250.412
250.441
250.46
250.478
250.491
250.504
250.521
250.54
250.56
250.58
250.603
250.628
250.649
250.668
250.687
250.705
250.723
250.741
250.76
250.779
250.798
250.818
250.844
250.886
250.938
250.967
250.986
251.004
251.018
251.03
251.048
251.067
251.086
251.105
251.124
251.144
251.163
251.181
251.199
251.214
251.232
251.251
251.27
251.29
251.312
251.35
251.407
251.447
251.468
251.486
251.502
251.508
251.515
251.532
251.551
251.57
251.59
251.613
251.648
251.687
251.71
251.729
251.747
251.763
251.781
251.8
251.819
251.839
251.863
251.887
251.908
251.927
251.946
251.963
251.98
251.998
252.017
252.037
252.057
252.085
252.132
252.174
252.197
252.216
252.232
252.242
252.249
252.265
252.284
252.303
252.322
252.342
252.361
252.38
252.4
252.419
252.44
252.47
252.52
252.574
252.602
252.622
252.641
252.657
252.668
252.664
252.665
252.681
252.7
252.719
252.739
252.758
252.777
252.798
252.824
252.868
252.933
252.972
252.993
253.012
253.027
253.035
253.039
253.054
253.073
253.092
253.112
253.131
253.152
253.174
253.195
253.214
253.234
253.253
253.273
253.293
253.32
253.355
253.383
253.403
253.422
253.44
253.454
253.468
253.486
253.505
253.525
253.545
253.57
253.611
253.666
253.698
253.718
253.736
253.751
253.756
253.76
253.776
253.795
253.814
253.833
253.853
253.872
253.891
253.911
253.93
253.95
253.97
253.993
254.032
254.087
254.123
254.143
254.162
254.177
254.183
254.191
254.208
254.227
254.247
254.267
254.29
254.328
254.378
254.407
254.426
254.445
254.458
254.461
254.466
254.482
254.501
254.52
254.54
254.559
254.578
254.598
254.617
254.637
254.659
254.693
254.747
254.79
254.813
254.832
254.848
254.858
254.859
254.871
254.889
254.909
254.928
254.948
254.972
255.01
255.057
255.085
255.105
255.123
255.14
255.158
255.177
255.196
255.216
255.238
255.26
255.281
255.3
255.319
255.339
255.357
255.375
255.394
255.414
255.433
255.452
255.472
255.491
255.511
255.53
255.551
255.581
255.63
255.675
255.699
255.718
255.736
255.75
255.762
255.78
255.799
255.818
255.838
255.86
255.889
255.919
255.94
255.96
255.979
255.996
256.007
256.017
256.034
256.053
256.072
256.092
256.111
256.13
256.15
256.17
256.191
256.221
256.272
256.329
256.358
256.378
256.396
256.411
256.417
256.422
256.437
256.456
256.476
256.495
256.514
256.534
256.553
256.573
256.592
256.612
256.631
256.651
256.675
256.712
256.76
256.789
256.809
256.827
256.842
256.852
256.867
256.886
256.906
256.926
256.947
256.976
257.01
257.034
257.053
257.072
257.09
257.103
257.119
257.138
257.158
257.178
257.2
257.231
257.268
257.291
257.31
257.329
257.345
257.357
257.374
257.393
257.413
257.433
257.456
257.494
257.542
257.571
257.591
257.61
257.625
257.633
257.645
257.663
257.683
257.702
257.722
257.741
257.761
257.782
257.811
257.853
257.884
257.904
257.923
257.941
257.955
257.969
257.987
258.006
258.026
258.045
258.065
258.085
258.106
258.135
258.178
258.21
258.23
258.249
258.267
258.283
258.301
258.32
258.34
258.359
258.38
258.403
258.424
258.444
258.464
258.483
258.503
258.523
258.543
258.565
258.597
258.639
258.666
258.686
258.705
258.722
258.733
258.743
258.76
258.78
258.799
258.819
258.838
258.858
258.878
258.897
258.918
258.947
258.993
259.039
259.063
259.083
259.101
259.116
259.129
259.145
259.165
259.184
259.204
259.223
259.243
259.262
259.281
259.299
259.316
259.335
259.355
259.374
259.394
259.415
259.442
259.487
259.538
259.566
259.586
259.604
259.619
259.623
259.62
259.633
259.652
259.671
259.691
259.711
259.73
259.75
259.77
259.794
259.834
259.9
259.951
259.976
259.995
260.014
260.029
260.032
260.025
260.036
260.054
260.074
260.093
260.113
260.133
260.152
260.172
260.191
260.211
260.232
260.255
260.294
260.348
260.382
260.402
260.421
260.438
260.448
260.45
260.463
260.482
260.501
260.521
260.541
260.565
260.599
260.637
260.66
260.68
260.699
260.715
260.728
260.745
260.764
260.784
260.804
260.826
260.858
260.899
260.925
260.945
260.964
260.981
260.995
261.011
261.031
261.05
261.07
261.092
261.12
261.15
261.172
261.192
261.212
261.231
261.251
261.27
261.29
261.31
261.333
261.364
261.393
261.414
261.434
261.454
261.472
261.489
261.508
261.528
261.548
261.568
261.591
261.62
261.645
261.666
261.686
261.705
261.725
261.744
261.764
261.784
261.805
261.829
261.858
261.881
261.901
261.92
261.94
261.958
261.976
261.996
262.016
262.036
262.057
262.085
262.13
262.168
262.19
262.21
262.228
262.243
262.252
262.266
262.285
262.304
262.324
262.344
262.364
262.383
262.403
262.423
262.443
262.463
262.484
262.514
262.56
262.594
262.615
262.635
262.653
262.669
262.686
262.705
262.725
262.745
262.766
262.793
262.827
262.853
262.873
262.892
262.911
262.927
262.935
262.945
262.963
262.982
263.002
263.022
263.041
263.061
263.081
263.101
263.121
263.142
263.169
263.214
263.265
263.293
263.313
263.333
263.35
263.361
263.368
263.383
263.402
263.422
263.442
263.462
263.481
263.501
263.521
263.541
263.561
263.581
263.603
263.635
263.686
263.726
263.749
263.768
263.787
263.804
263.814
263.817
263.831
263.85
263.87
263.889
263.909
263.929
263.949
263.969
263.99
264.014
264.053
264.108
264.143
264.164
264.183
264.201
264.214
264.213
264.213
264.228
264.247
264.267
264.287
264.307
264.327
264.346
264.366
264.387
264.412
264.451
264.51
264.549
264.571
264.59
264.609
264.624
264.632
264.643
264.661
264.681
264.701
264.721
264.741
264.761
264.781
264.803
264.825
264.846
264.866
264.887
264.908
264.936
264.98
265.022
265.046
265.066
265.085
265.101
265.111
265.123
265.141
265.161
265.181
265.201
265.221
265.243
265.264
265.284
265.304
265.323
265.342
265.359
265.372
265.389
265.408
265.428
265.448
265.468
265.489
265.512
265.548
265.607
265.65
265.673
265.693
265.712
265.727
265.732
265.736
265.752
265.771
265.791
265.811
265.832
265.859
265.901
265.945
265.969
265.989
266.008
266.024
266.031
266.029
266.043
266.062
266.082
266.101
266.121
266.142
266.164
266.195
266.247
266.29
266.314
266.334
266.353
266.369
266.374
266.372
266.386
266.405
266.425
266.445
266.465
266.488
266.52
266.57
266.609
266.631
266.651
266.67
266.685
266.691
266.703
266.722
266.742
266.762
266.782
266.805
266.84
266.888
266.919
266.94
266.959
266.978
266.991
266.994
267.004
267.023
267.042
267.062
267.082
267.103
267.124
267.148
267.182
267.211
267.232
267.252
267.272
267.291
267.309
267.327
267.347
267.367
267.387
267.407
267.427
267.451
267.486
267.534
267.565
267.586
267.606
267.624
267.639
267.646
267.656
267.675
267.695
267.715
267.734
267.754
267.775
267.795
267.816
267.845
267.891
267.929
267.952
267.972
267.991
268.007
268.014
268.013
268.027
268.046
268.066
268.086
268.107
268.128
268.157
268.203
268.25
268.276
268.296
268.315
268.332
268.342
268.337
268.344
268.362
268.381
268.401
268.422
268.442
268.465
268.498
268.557
268.613
268.64
268.661
268.681
268.699
268.714
268.716
268.719
268.735
268.754
268.774
268.794
268.814
268.834
268.854
268.874
268.894
268.914
268.935
268.956
268.985
269.032
269.08
269.105
269.126
269.145
269.164
269.178
269.179
269.185
269.202
269.222
269.242
269.262
269.282
269.302
269.322
269.342
269.362
269.383
269.404
269.429
269.47
269.518
269.545
269.566
269.585
269.604
269.616
269.616
269.624
269.642
269.662
269.682
269.702
269.723
269.75
269.793
269.834
269.857
269.877
269.897
269.915
269.93
269.947
269.967
269.987
270.007
270.029
270.054
270.083
270.106
270.126
270.147
270.166
270.186
270.206
270.226
270.246
270.266
270.288
270.313
270.341
270.363
270.383
270.404
270.423
270.442
270.461
270.481
270.501
270.521
270.542
270.567
270.606
270.646
270.669
270.689
270.709
270.727
270.74
270.745
270.758
270.778
270.798
270.818
270.838
270.858
270.878
270.899
270.924
270.964
271.015
271.045
271.066
271.085
271.105
271.12
271.125
271.126
271.141
271.16
271.18
271.2
271.22
271.241
271.262
271.288
271.33
271.376
271.402
271.423
271.443
271.462
271.477
271.481
271.487
271.504
271.524
271.544
271.564
271.584
271.604
271.625
271.645
271.666
271.69
271.726
271.769
271.794
271.815
271.835
271.854
271.871
271.888
271.908
271.928
271.948
271.969
271.992
272.021
272.05
272.072
272.092
272.112
272.132
272.151
272.17
272.19
272.211
272.231
272.253
272.279
272.314
272.341
272.362
272.383
272.403
272.421
272.437
272.447
272.462
272.482
272.502
272.522
272.542
272.563
272.583
272.604
272.625
272.653
272.696
272.736
272.759
272.779
272.799
272.819
272.837
272.85
272.866
272.885
272.905
272.925
272.945
272.965
272.984
272.999
273.013
273.032
273.052
273.072
273.093
273.113
273.134
273.159
273.198
273.248
273.278
273.298
273.318
273.338
273.354
273.364
273.378
273.397
273.417
273.437
273.458
273.479
273.508
273.552
273.587
273.609
273.629
273.649
273.669
273.688
273.705
273.714
273.712
273.725
273.744
273.764
273.784
273.804
273.824
273.845
273.865
273.885
273.905
273.926
273.947
273.972
274.01
274.07
274.111
274.134
274.154
274.174
274.193
274.21
274.217
274.219
274.234
274.253
274.273
274.293
274.312
274.33
274.348
274.367
274.387
274.408
274.428
274.448
274.469
274.489
274.511
274.537
274.579
274.63
274.66
274.68
274.701
274.72
274.737
274.746
274.753
274.771
274.79
274.811
274.831
274.852
274.876
274.906
274.936
274.958
274.978
274.999
275.019
275.039
275.059
275.08
275.1
275.121
275.144
275.171
275.195
275.216
275.237
275.257
275.277
275.296
275.316
275.336
275.356
275.377
275.398
275.422
275.45
275.475
275.495
275.516
275.536
275.556
275.577
275.597
275.617
275.638
275.659
275.681
275.71
275.742
275.765
275.785
275.805
275.826
275.846
275.867
275.887
275.906
275.924
275.938
275.956
275.976
275.996
276.017
276.037
276.058
276.078
276.098
276.119
276.14
276.162
276.194
276.243
276.28
276.303
276.323
276.343
276.362
276.377
276.38
276.385
276.402
276.422
276.442
276.463
276.483
276.504
276.528
276.562
276.599
276.623
276.644
276.664
276.684
276.703
276.717
276.733
276.753
276.773
276.794
276.815
276.837
276.864
276.893
276.916
276.937
276.957
276.977
276.998
277.018
277.038
277.059
277.079
277.101
277.127
277.164
277.198
277.221
277.241
277.262
277.281
277.299
277.309
277.316
277.333
277.353
277.373
277.393
277.414
277.434
277.455
277.475
277.496
277.518
277.548
277.595
277.636
277.659
277.68
277.7
277.72
277.739
277.751
277.757
277.773
277.792
277.813
277.833
277.854
277.874
277.894
277.915
277.936
277.957
277.979
278.009
278.046
278.071
278.092
278.113
278.133
278.152
278.169
278.179
278.194
278.213
278.234
278.254
278.275
278.297
278.324
278.363
278.395
278.417
278.437
278.457
278.477
278.494
278.507
278.525
278.545
278.566
278.586
278.607
278.631
278.661
278.695
278.718
278.739
278.759
278.78
278.8
278.819
278.838
278.858
278.878
278.899
278.919
278.94
278.961
278.983
279.008
279.031
279.052
279.072
279.093
279.113
279.134
279.154
279.174
279.194
279.215
279.235
279.256
279.277
279.301
279.332
279.367
279.391
279.411
279.432
279.452
279.472
279.489
279.501
279.515
279.534
279.555
279.575
279.596
279.617
279.638
279.662
279.693
279.722
279.744
279.765
279.785
279.806
279.826
279.845
279.866
279.886
279.907
279.928
279.949
279.974
280.007
280.039
280.061
280.082
280.102
280.122
280.142
280.16
280.172
280.185
280.204
280.224
280.244
280.265
280.285
280.306
280.327
280.347
280.368
280.389
280.412
280.44
280.477
280.503
280.525
280.545
280.566
280.586
280.606
280.626
280.647
280.668
280.688
280.71
280.735
280.766
280.792
280.813
280.834
280.854
280.874
280.892
280.903
280.909
280.926
280.946
280.966
280.987
281.007
281.028
281.05
281.075
281.111
281.152
281.177
281.198
281.218
281.239
281.259
281.276
281.293
281.313
281.334
281.355
281.375
281.397
281.42
281.447
281.47
281.491
281.512
281.532
281.553
281.574
281.594
281.615
281.637
281.662
281.69
281.713
281.734
281.754
281.775
281.795
281.815
281.833
281.852
281.873
281.893
281.914
281.935
281.956
281.98
282.003
282.024
282.044
282.065
282.086
282.106
282.127
282.147
282.168
282.189
282.211
282.235
282.27
282.31
282.335
282.356
282.376
282.397
282.416
282.433
282.441
282.444
282.46
282.48
282.501
282.521
282.542
282.563
282.583
282.604
282.625
282.646
282.668
282.694
282.728
282.758
282.78
282.801
282.821
282.842
282.862
282.88
282.9
282.921
282.941
282.962
282.984
283.008
283.04
283.069
283.091
283.112
283.132
283.153
283.172
283.189
283.208
283.228
283.249
283.27
283.291
283.314
283.341
283.365
283.386
283.407
283.427
283.448
283.468
283.487
283.508
283.528
283.549
283.57
283.592
283.619
283.651
283.676
283.697
283.718
283.738
283.759
283.78
283.801
283.822
283.843
283.863
283.884
283.905
283.925
283.946
283.965
283.981
283.995
284.014
284.035
284.055
284.076
284.097
284.119
284.145
284.186
284.23
284.255
284.276
284.297
284.318
284.338
284.355
284.364
284.368
284.384
284.404
284.424
284.445
284.466
284.487
284.507
284.528
284.549
284.571
284.596
284.634
284.674
284.699
284.72
284.741
284.761
284.781
284.797
284.803
284.804
284.82
284.84
284.861
284.881
284.902
284.923
284.946
284.974
285.019
285.068
285.096
285.117
285.138
285.158
285.178
285.194
285.199
285.196
285.21
285.23
285.251
285.271
285.292
285.314
285.338
285.373
285.421
285.453
285.475
285.496
285.517
285.537
285.555
285.567
285.578
285.597
285.617
285.638
285.659
285.681
285.705
285.738
285.774
285.798
285.82
285.84
285.861
285.881
285.899
285.91
285.916
285.932
285.952
285.973
285.994
286.015
286.036
286.056
286.077
286.098
286.12
286.143
286.174
286.217
286.248
286.27
286.291
286.312
286.332
286.353
286.372
286.393
286.413
286.434
286.455
286.477
286.499
286.522
286.543
286.564
286.585
286.605
286.625
286.64
286.645
286.651
286.668
286.688
286.709
286.73
286.751
286.772
286.793
286.815
286.841
286.88
286.93
286.959
286.981
287.002
287.023
287.043
287.062
287.076
287.09
287.109
287.13
287.151
287.172
287.194
287.218
287.248
287.274
287.296
287.317
287.338
287.358
287.377
287.392
287.403
287.422
287.442
287.463
287.484
287.506
287.528
287.558
287.602
287.639
287.662
287.683
287.704
287.724
287.744
287.759
287.763
287.761
287.776
287.796
287.817
287.838
287.859
287.88
287.901
287.922
287.944
287.97
288.007
288.046
288.071
288.092
288.113
288.134
288.154
288.171
288.182
288.197
288.216
288.237
288.258
288.279
288.302
288.33
288.373
288.411
288.434
288.455
288.476
288.497
288.516
288.529
288.526
288.527
288.544
288.564
288.585