/*--------------------------------*- C++ -*----------------------------------*\
  =========                 |
  \\      /  F ield         | OpenFOAM: The Open Source CFD Toolbox
   \\    /   O peration     | Website:  https://openfoam.org
    \\  /    A nd           | Version:  9
     \\/     M anipulation  |
\*---------------------------------------------------------------------------*/
FoamFile
{
    format      ascii;
    class       volScalarField;
    location    "0.038";
    object      p;
}
// * * * * * * * * * * * * * * * * * * * * * * * * * * * * * * * * * * * * * //

dimensions      [1 -1 -2 0 0 0 0];

internalField   nonuniform List<scalar> 
10000
(
46570.3
46563.6
46559.5
46555
46550.7
46546.3
46541.9
46537.6
46533.2
46528.8
46524.5
46520.1
46515.7
46511.4
46507
46502.6
46498.2
46493.8
46489.5
46485.1
46480.7
46476.3
46472
46467.6
46463.3
46458.9
46454.5
46450.2
46445.8
46441.5
46437.1
46432.8
46428.4
46424
46419.7
46415.3
46411
46406.6
46402.2
46397.9
46393.5
46389.1
46384.8
46380.4
46376.1
46371.7
46367.4
46363
46358.6
46354.3
46349.9
46345.6
46341.2
46336.9
46332.5
46328.2
46323.8
46319.4
46315.1
46310.7
46306.4
46302
46297.7
46293.3
46289
46284.6
46280.3
46275.9
46271.6
46267.3
46262.9
46258.6
46254.3
46249.9
46245.6
46241.2
46236.9
46232.5
46228.2
46223.9
46219.5
46215.2
46210.9
46206.5
46202.2
46197.8
46193.5
46189.1
46184.8
46180.5
46176.1
46171.8
46167.4
46163
46158.7
46154.4
46150.1
46145.8
46141.4
46137
46132.6
46128.2
46124
46119.8
46115.5
46111.1
46106.7
46102.3
46097.9
46093.6
46089.4
46085.1
46080.8
46076.4
46072
46067.6
46063.3
46059.1
46054.8
46050.4
46046
46041.6
46037.3
46033.1
46028.9
46024.6
46020.2
46015.6
46011.1
46006.8
46002.6
45998.6
45994.5
45990.1
45985.5
45981
45976.5
45972.3
45968.2
45964.1
45959.8
45955.3
45950.8
45946.4
45942.2
45938
45933.7
45929.4
45924.9
45920.6
45916.3
45912.1
45907.9
45903.5
45898.9
45894.4
45890.2
45886.2
45882.2
45877.8
45873.1
45868.5
45864.1
45860.2
45856.7
45852.4
45847.5
45842.7
45837.8
45833.4
45829.9
45827
45822.7
45817.7
45812.7
45807.7
45802.9
45798.6
45795.5
45792.5
45788.1
45783.1
45778.2
45773.2
45768.6
45764.4
45761.5
45758.2
45753.6
45748.6
45743.7
45738.9
45734.5
45731.4
45728.1
45723.4
45718.4
45713.3
45708.5
45704.3
45701.7
45698.5
45693.5
45688.4
45683.2
45678.2
45673.6
45670.3
45668
45663.7
45658.5
45653.4
45648.4
45643.7
45640.1
45637.9
45633.7
45628.6
45623.5
45618.4
45613.5
45609.1
45606.4
45603.3
45598.6
45593.7
45589
45584.9
45582.1
45578
45572.9
45567.8
45562.7
45557.9
45554.2
45552.3
45548.5
45543.4
45538.2
45533
45528
45523.3
45520
45518.1
45513.9
45508.7
45503.5
45498.3
45493.4
45488.9
45486.4
45484
45479.3
45474.1
45469
45464
45459.7
45457.1
45453.4
45448.4
45443.3
45438.4
45433.9
45431.3
45428.5
45423.6
45418.5
45413.3
45408.2
45403.4
45399.4
45397.5
45394
45389
45383.8
45378.7
45373.7
45369.3
45366.8
45364
45359.2
45354.1
45348.8
45343.7
45338.8
45334.4
45332.3
45330.3
45325.6
45320.4
45315
45309.8
45304.8
45300.2
45296.9
45296.7
45293.5
45288.4
45282.9
45277.3
45272.1
45267.1
45262.4
45258.9
45257.2
45253.2
45248.1
45243
45237.9
45233.1
45229.3
45226.9
45222.8
45217.7
45212.6
45207.6
45203
45199.9
45197.5
45193
45187.9
45182.7
45177.7
45172.9
45169
45167.1
45163.6
45158.6
45153.5
45148.4
45143.5
45139
45136.5
45133.6
45128.8
45123.7
45118.7
45113.7
45109.1
45106.2
45103.8
45099.2
45094.1
45089
45083.9
45079.2
45075.3
45073.5
45070.1
45065.1
45059.9
45054.7
45049.7
45044.9
45041
45039.3
45036.1
45031.1
45025.8
45020.4
45015.2
45010.2
45005.8
45002.9
45003.7
45001.4
44996.4
44990.7
44984.3
44978.7
44973.6
44968.6
44963.8
44959.6
44957.9
44956.1
44951.4
44946.2
44940.6
44935.2
44930.2
44925.4
44921.5
44920.3
44918
44913.1
44907.8
44902.2
44897
44892
44887.5
44884.5
44883.5
44879.6
44874.6
44869.3
44864.2
44859.2
44854.3
44849.6
44845.7
44843.9
44842.4
44838
44832.9
44827.8
44822.7
44817.7
44812.7
44807.8
44803.5
44801
44798.7
44794.1
44789
44783.8
44778.8
44773.9
44769.4
44766.7
44764.8
44760.4
44755.3
44750.2
44745.2
44740.5
44736.7
44734.6
44730.7
44725.7
44720.7
44715.7
44711
44707.2
44705.2
44701.4
44696.5
44691.4
44686.3
44681.4
44676.8
44673.6
44671.6
44667.4
44662.4
44657.2
44652.1
44647.2
44642.5
44638.9
44637.4
44633.8
44628.8
44623.5
44617.8
44612.6
44607.7
44603.2
44599.9
44600.6
44599.4
44594.6
44589.2
44583.2
44577.8
44572.9
44568.2
44564.4
44561.7
44557.3
44552.3
44547.3
44542.4
44537.7
44533.9
44532.2
44528.7
44523.8
44518.7
44513.6
44508.7
44504
44500.1
44498.4
44495.1
44490.2
44485.2
44480.2
44475.3
44470.9
44467.9
44464.9
44460.2
44455.2
44450.3
44445.6
44441.8
44439.1
44434.9
44429.9
44424.8
44419.4
44414.4
44409.5
44404.9
44401.6
44402.5
44402.4
44398.1
44392.8
44386.3
44379.6
44374.3
44369.4
44364.8
44361.3
44360.3
44357.3
44352.3
44347.1
44341.6
44336.6
44331.7
44327.3
44324.6
44323.2
44319
44314
44308.8
44303.8
44298.9
44294.4
44291.3
44289.2
44284.9
44280
44275
44270.1
44265.4
44261.6
44257.7
44252.9
44247.9
44243
44238.1
44233.7
44230.6
44231.7
44231
44226.4
44221.1
44214.5
44207.7
44202.4
44197.5
44193
44189.4
44188.5
44185.6
44180.8
44175.5
44169.9
44164.9
44160
44155.5
44152.3
44151
44147.4
44142.4
44137.3
44132.3
44127.4
44122.8
44119.2
44116.7
44112.6
44107.6
44102.7
44097.7
44092.9
44088.5
44085.7
44084.7
44080.8
44075.8
44070.6
44065.4
44060.5
44055.8
44052
44050.2
44047.1
44042.3
44037.2
44031.9
44026.9
44022.1
44017.7
44014.7
44013.5
44009.6
44004.7
43999.2
43993.4
43988.2
43983.4
43978.9
43975.6
43976.1
43974.5
43969.8
43964.4
43957.9
43951.9
43947
43942.2
43938.2
43937
43937.1
43933.2
43928.1
43922.1
43916.1
43911.1
43906.3
43901.9
43899
43897.4
43893.3
43888.3
43883.3
43878.4
43873.7
43869.3
43866.2
43862.9
43858.2
43853.3
43848.4
43843.9
43840.2
43837.9
43834
43829.2
43824.2
43819.3
43814.5
43810
43806.5
43804.7
43801
43796.1
43791.1
43786
43781.1
43776.3
43772.1
43769.5
43767.9
43763.7
43758.8
43753.6
43748.6
43743.8
43739.3
43736.1
43736.5
43734.3
43729.5
43724.1
43717.3
43711.1
43706.1
43701.3
43697
43694.3
43694.5
43691.4
43686.5
43681
43675.4
43670.5
43665.7
43661.4
43658.7
43656.8
43652.5
43647.6
43642.4
43637
43632
43627.2
43622.4
43617.9
43614.4
43614.4
43613.4
43609
43603.8
43598
43592.3
43587.3
43582.5
43577.8
43573.5
43570.6
43570.3
43567
43562.1
43556.9
43551.8
43546.9
43542.2
43537.9
43535
43531.6
43527
43522.1
43517.3
43512.8
43509.1
43506.9
43503
43498.2
43493.3
43488.5
43483.8
43479.5
43476.9
43474.8
43470.5
43465.7
43460.6
43455.5
43450.6
43445.8
43441.1
43436.9
43434.6
43434.7
43431.3
43426.4
43421.1
43415.7
43410.8
43406
43401.3
43396.8
43393.4
43391.7
43388
43383.2
43378.3
43373.5
43368.7
43364.2
43360.5
43358
43354
43349.1
43344.2
43339.1
43334.2
43329.5
43325
43321.5
43321.8
43322
43317.9
43312.8
43306.7
43299.6
43294.1
43289.2
43284.6
43280.4
43278.2
43278
43274.3
43269.4
43264.1
43258.7
43253.9
43249.2
43244.9
43242.2
43239.5
43235.1
43230.3
43225.5
43220.7
43216.2
43212.4
43209.3
43205
43200.2
43195.4
43190.6
43185.8
43181.3
43177.6
43177.3
43178.3
43174.8
43169.8
43164
43156.6
43150.5
43145.5
43140.8
43136.5
43133.3
43133.6
43131.8
43127.1
43122
43116.2
43111
43106.2
43101.5
43097.1
43093.3
43089
43084.3
43079.5
43074.8
43070.4
43067
43067.3
43068.7
43065.1
43060.2
43054.5
43046.9
43040.2
43035.1
43030.3
43025.6
43021
43016.9
43015
43016.6
43014.5
43009.8
43004.5
42997.9
42991.6
42986.6
42981.9
42977.3
42973.4
42971.8
42969.8
42965.4
42960.5
42955
42949.4
42944.5
42939.8
42935.5
42932.2
42933
42933.8
42929.9
42924.9
42919
42911.4
42905.2
42900.3
42895.6
42891.2
42887.7
42887.6
42886.1
42881.6
42876.6
42871
42865.8
42861.1
42856.5
42852.4
42849.4
42845.7
42841
42836.3
42831.5
42826.8
42822.2
42818.3
42817
42818.6
42815.9
42811.2
42805.8
42798.9
42792.2
42787
42782.3
42777.6
42772.9
42768.4
42764.4
42762.9
42764.1
42761.2
42756.4
42751.1
42744.6
42738.7
42733.9
42729.2
42724.6
42720.5
42718.6
42718.9
42715.6
42710.9
42705.6
42700.3
42695.5
42690.8
42686.6
42683.7
42681.3
42677
42672.3
42667.4
42662.2
42657.2
42652.5
42647.8
42643.1
42638.6
42634.8
42633.6
42634.3
42631
42626.2
42620.8
42614.8
42609.6
42604.9
42600.3
42595.9
42592.2
42590.7
42587.8
42583.2
42578.4
42573.5
42568.8
42564.2
42559.9
42556.8
42555.7
42552.4
42547.7
42542.8
42537.8
42533.1
42528.4
42523.8
42519.4
42515.5
42511.2
42506.6
42502.1
42498
42495.2
42495.8
42493.8
42489.2
42484.1
42478
42471.7
42466.7
42462
42457.3
42452.8
42448.8
42446.6
42447.5
42445
42440.3
42435.2
42429.2
42423.7
42419
42414.3
42409.9
42406
42404.5
42402.5
42398.1
42393.2
42388
42382
42376.9
42372.2
42367.6
42363.3
42360
42360.4
42360.5
42356.6
42351.7
42345.9
42338.8
42333.1
42328.3
42323.7
42319.3
42315.7
42315.1
42315.1
42311.2
42306.4
42301
42295.5
42290.8
42286.1
42281.6
42277.7
42273.9
42269.4
42264.7
42260.1
42255.5
42250.9
42246.6
42243.5
42244.3
42244.9
42241.1
42236.2
42230.6
42223.4
42217.5
42212.7
42208.1
42203.8
42200.3
42199.8
42197.9
42193.4
42188.6
42183.2
42178.2
42173.5
42169
42165
42162.7
42160.5
42156.2
42151.6
42146.9
42142.2
42137.7
42133.5
42130.2
42126.5
42122
42117.3
42112.5
42107.3
42102.3
42097.7
42093.1
42088.6
42084.6
42082.5
42085.3
42086.4
42082.7
42077.9
42072.3
42064.9
42058.5
42053.6
42049
42044.4
42039.9
42035.9
42031.6
42027.1
42022.4
42017.8
42013.3
42008.9
42005.3
42004.6
42007
42004.6
41999.9
41994.7
41987.9
41980.1
41974.7
41970.1
41965.6
41961.6
41959.4
41961.8
41961.8
41957.7
41952.8
41946.9
41938.5
41931.5
41926.5
41921.9
41917.5
41913.4
41911.1
41912.6
41911.1
41906.7
41901.8
41895.9
41890.1
41885.3
41880.7
41876.4
41872.8
41871.3
41868.3
41863.8
41859.1
41854
41848.8
41844.1
41839.5
41834.9
41830.3
41825.7
41821.2
41816.9
41813.2
41812.6
41814.4
41811.7
41807.1
41802
41795.7
41789.7
41785
41780.4
41776
41772.2
41770.9
41770.7
41766.9
41762.1
41756.8
41750.3
41744.7
41740
41735.4
41730.8
41726.3
41721.7
41717.3
41713.3
41710.8
41712.9
41714.6
41711.1
41706.4
41701.1
41694.2
41687.9
41683
41678.5
41674
41669.8
41666.6
41664
41659.8
41655.3
41650.7
41646.1
41641.7
41637.7
41635.2
41633.6
41629.7
41625.1
41620.3
41614.6
41609
41604.2
41599.7
41595.1
41590.7
41586.7
41584
41585.3
41585
41580.9
41576.2
41570.6
41564.3
41559.2
41554.7
41550.2
41546
41542.6
41539.7
41535.5
41531
41526.4
41521.9
41517.3
41513
41509.1
41507.5
41506.6
41502.6
41498
41492.8
41487.2
41482.4
41477.8
41473.5
41469.7
41468.7
41468.6
41464.9
41460.2
41454.8
41447.7
41441.6
41436.9
41432.3
41428.1
41424.6
41424.4
41425.2
41421.7
41417
41411.7
41405.5
41400.3
41395.7
41391.3
41387.4
41385.4
41386.1
41383.2
41378.6
41373.5
41366.9
41360.1
41355.1
41350.5
41346.1
41341.9
41338.8
41339.3
41338.8
41334.7
41330
41324.4
41317.8
41312.4
41307.8
41303.3
41299.1
41295.6
41295.1
41294.6
41290.7
41286
41280.8
41275.6
41271
41266.5
41262.2
41258.5
41256
41252.3
41247.9
41243.3
41238.9
41234.6
41230.8
41228
41224.4
41219.9
41215.4
41210.7
41205.8
41201.2
41196.7
41192.2
41187.9
41184.2
41183
41183.9
41180.9
41176.3
41171.3
41165.1
41159.2
41154.4
41149.9
41145.5
41141.3
41137.8
41137.3
41138.1
41134.8
41130.2
41125.1
41118.6
41112.4
41107.7
41103.2
41098.7
41094.4
41090.5
41088.3
41088.9
41086.1
41081.6
41076.7
41071
41065.8
41061.2
41056.7
41052.4
41048.7
41046.9
41044.9
41040.8
41036.2
41031.4
41025.9
41020.8
41016.2
41011.7
41007.2
41002.8
40998.4
40994.3
40991
40991.3
40993.8
40991.3
40986.9
40982
40976
40969.4
40964.4
40959.9
40955.4
40951
40946.6
40942.5
40939.3
40938.2
40935.5
40931.1
40926.6
40922.1
40917.5
40912.6
40907.6
40903
40898.5
40894.1
40889.6
40885.2
40881
40877.4
40876.3
40877.8
40875.2
40870.7
40865.8
40859.6
40852.9
40848
40843.5
40839.1
40835.2
40832.5
40833.7
40833.4
40829.4
40824.8
40819.5
40813.4
40808.4
40803.9
40799.5
40795.2
40791.1
40787
40782.6
40778.2
40773.7
40769.1
40764.7
40760.2
40755.9
40751.8
40748.5
40748.7
40749.3
40745.8
40741.2
40736.1
40729.8
40724.4
40719.8
40715.4
40711.3
40708
40708
40708.4
40704.7
40700.2
40695.1
40689
40683.8
40679.3
40674.9
40670.6
40666.6
40662.8
40658.5
40654
40649.6
40645
40640.4
40636
40631.6
40627.3
40623.6
40622.1
40623.7
40621.5
40617.1
40612.3
40606.4
40599.5
40594.4
40590
40585.6
40581.5
40578.1
40577.8
40577.1
40573.1
40568.5
40563.3
40557.5
40552.8
40548.4
40544.1
40540.3
40538.3
40536.7
40532.7
40528.2
40523.4
40518
40513.2
40508.8
40504.5
40500.7
40498.9
40500.3
40498.1
40493.7
40488.9
40482.8
40475.1
40469.6
40465.1
40460.7
40456.6
40453.2
40452.9
40454.7
40452
40447.6
40442.7
40436.8
40430.9
40426.3
40421.9
40417.6
40413.7
40411
40409
40405.1
40400.7
40396.3
40391.6
40387.2
40382.8
40378.4
40374.1
40369.8
40365.7
40361.4
40357.1
40352.7
40348.6
40344.9
40343.4
40343.2
40339.7
40335.2
40330.3
40324.1
40318.2
40313.5
40309.1
40304.9
40301
40298.7
40300.7
40300.9
40297.1
40292.5
40287.3
40280.1
40273.2
40268.4
40264
40259.7
40255.8
40253.1
40254.4
40254.8
40251
40246.5
40241.4
40234.2
40226.8
40221.8
40217.4
40213
40208.9
40205.2
40203.7
40205.3
40203.2
40198.9
40194.2
40188.5
40182
40177
40172.6
40168.3
40164.2
40160.8
40159.7
40157.7
40153.6
40149.1
40144.4
40139.8
40135.5
40131.2
40127.2
40124.1
40122.1
40118.4
40114
40109.5
40104.6
40098.6
40093.4
40089
40084.6
40080.3
40076.2
40072.7
40071.6
40075.5
40076
40072.3
40067.8
40062.7
40055.8
40047.9
40042.7
40038.3
40033.9
40029.7
40025.7
40022.7
40022.1
40019.8
40015.6
40011.1
40006.2
40000.9
39996.3
39991.9
39987.6
39983.2
39978.9
39974.6
39970.3
39966.3
39962.9
39962.1
39964.8
39963.1
39958.9
39954.4
39949
39942
39936.2
39931.7
39927.4
39923
39918.7
39914.4
39910.1
39905.7
39901.4
39897.1
39892.9
39888.9
39885.6
39885.5
39888
39885.7
39881.5
39876.8
39871.3
39864.6
39859.5
39855.1
39850.8
39846.6
39842.7
39839.8
39836.5
39832.3
39828
39823.7
39819.2
39814.7
39810.3
39806
39801.7
39797.4
39793.2
39789.1
39785.6
39784.7
39788.4
39788.5
39784.7
39780.3
39775.3
39768.4
39760.1
39754.7
39750.2
39745.9
39741.7
39737.4
39733.1
39728.8
39724.6
39720.9
39718.5
39720.1
39720.4
39716.7
39712.3
39707.3
39700.6
39692.5
39687
39682.6
39678.3
39674
39669.8
39665.6
39661.9
39659.7
39662.1
39665.2
39662.5
39658.2
39653.6
39647.8
39640
39634
39629.5
39625.2
39620.9
39616.9
39613.4
39611.1
39607.8
39603.6
39599.4
39595
39590.7
39586.4
39582.2
39578.1
39574.7
39573.8
39575
39572.2
39567.9
39563.3
39557.9
39550.9
39545.3
39540.9
39536.6
39532.3
39528.1
39523.8
39519.5
39515.3
39511
39506.8
39502.8
39499.4
39498.5
39502.1
39502
39498.1
39493.8
39488.8
39482.2
39475.5
39470.8
39466.5
39462.3
39458.1
39454.4
39451.8
39448.8
39444.8
39440.5
39436.2
39431.8
39427.2
39422.9
39418.6
39414.4
39410.2
39406
39402.1
39399.1
39399.4
39399.3
39395.7
39391.4
39386.7
39380.9
39375.4
39371
39366.7
39362.5
39358.3
39354.3
39350.7
39349
39347.1
39343.2
39338.9
39334.5
39329.7
39324.7
39320.3
39316.1
39311.9
39307.7
39303.5
39299.6
39296.5
39296.7
39297.6
39294.3
39290
39285.3
39279.2
39271.4
39265.9
39261.5
39257.3
39253.1
39249.4
39247
39248.6
39248.9
39245.3
39241
39236.2
39229.7
39222.4
39217.4
39213.1
39208.9
39204.8
39201
39198.7
39200.1
39199.3
39195.5
39191.1
39186.3
39180.5
39175.4
39171
39166.8
39162.6
39158.4
39154.2
39150
39145.8
39141.6
39137.4
39133.5
39130.2
39129.6
39130.2
39127
39122.8
39118.3
39113.2
39107.9
39103.4
39099.2
39095.1
39090.9
39087.1
39083.6
39079.7
39075.5
39071.3
39067.1
39063
39059.2
39056.2
39056.6
39056.8
39053.2
39049
39044.3
39038.4
39031.7
39026.8
39022.5
39018.3
39014.2
39010
39005.8
39001.6
38997.6
38994.1
38992.4
38993
38990.2
38986.1
38981.6
38976.5
38970.9
38966.4
38962.2
38958.1
38954.2
38951
38950.6
38949.6
38945.8
38941.5
38936.7
38930.6
38924.4
38919.7
38915.5
38911.3
38907.2
38903
38898.9
38895.1
38892.2
38892.6
38894.5
38891.7
38887.6
38883.1
38877.7
38871.2
38866.2
38861.9
38857.8
38853.8
38850.1
38848.2
38847.1
38843.5
38839.3
38834.9
38829.5
38823.5
38818.9
38814.7
38810.6
38806.7
38803.8
38804.2
38804.2
38800.7
38796.4
38791.7
38785.4
38778.2
38773.3
38769.1
38764.9
38761
38757.6
38756.7
38759.1
38757.5
38753.5
38749.1
38744.1
38737.2
38730.8
38726.2
38722.1
38717.9
38713.9
38710.4
38708.6
38709
38706.2
38702
38697.7
38692.6
38687.3
38682.9
38678.8
38674.7
38670.7
38667.2
38664.1
38660.2
38656.1
38651.9
38647.7
38643.3
38638.9
38634.8
38630.7
38626.6
38622.7
38619.6
38619.3
38620.7
38617.9
38613.8
38609.5
38604.5
38599.2
38594.8
38590.7
38586.5
38582.4
38578.3
38574.2
38570
38565.8
38561.4
38556.6
38552.3
38548.1
38544
38540.1
38536.7
38535.3
38537.8
38536.8
38533
38528.7
38523.9
38517.7
38511.5
38507
38502.9
38498.8
38494.9
38491.4
38490
38489.1
38485.5
38481.3
38477
38472.4
38468.1
38464
38459.9
38456
38452.6
38449.3
38445.4
38441.3
38437.1
38432.7
38428.2
38423.9
38419.9
38415.8
38412.1
38409.3
38409.8
38409.5
38405.8
38401.6
38397.1
38391.4
38385.3
38380.7
38376.6
38372.5
38368.4
38364.3
38360.2
38356.1
38352
38348.1
38344.4
38341.8
38342.9
38344.7
38341.9
38337.8
38333.6
38329.1
38323.6
38315.6
38308.6
38304
38299.9
38295.8
38291.7
38287.6
38283.6
38279.8
38276.8
38276.8
38280.5
38279.3
38275.5
38271.3
38266.6
38260.6
38254
38249.3
38245.2
38241.1
38237
38233
38229.1
38225.5
38221.7
38217.6
38213.6
38209.6
38205.6
38201.8
38198.8
38197.5
38194.7
38190.7
38186.6
38182.2
38177.4
38172.4
38168.2
38164.1
38160.1
38156.2
38153.1
38152.6
38154.6
38152.3
38148.3
38144.1
38139.3
38132.8
38126.3
38121.8
38117.6
38113.5
38109.5
38105.4
38101.4
38097.3
38093.2
38089.2
38085.2
38081.3
38078
38077
38079.1
38077.4
38073.5
38069.3
38064.6
38058.4
38052.5
38048.1
38044
38040
38036.1
38032.8
38031.7
38032.7
38030.1
38026.1
38021.8
38016.9
38010.1
38003.7
37999.2
37995.1
37991
37987
37982.9
37978.9
37974.8
37970.8
37966.9
37963.4
37961.5
37963.4
37963.1
37959.5
37955.4
37950.9
37945.3
37938.2
37933.1
37928.9
37924.8
37920.8
37917
37913.7
37912.6
37913.3
37910.5
37906.4
37902.3
37897.8
37893.5
37889.5
37885.5
37881.5
37877.9
37874.4
37870.5
37866.4
37862.4
37858.3
37854.2
37849.9
37845.9
37841.8
37837.8
37833.8
37829.8
37825.7
37821.7
37817.8
37814.2
37811.7
37812.7
37812.7
37809.3
37805.2
37801
37796.1
37790.9
37786.6
37782.6
37778.6
37774.6
37771.1
37768.6
37766.3
37762.5
37758.5
37754.4
37750
37744.8
37739.1
37734.7
37730.7
37726.7
37722.7
37718.6
37714.6
37710.7
37706.7
37703.2
37700.7
37702
37704.1
37701.5
37697.5
37693.3
37688.7
37682.4
37676
37671.4
37667.4
37663.3
37659.3
37655.3
37651.3
37647.3
37643.3
37639.3
37635.4
37631.4
37627.6
37624.3
37623.1
37623.9
37621.2
37617.3
37613.1
37608.5
37602.9
37598.2
37594.2
37590.2
37586.3
37582.7
37580.1
37578.6
37575.2
37571.2
37567.2
37562.8
37557.9
37553.3
37549.3
37545.3
37541.4
37538
37535.9
37534.6
37531.2
37527.2
37523.1
37518.6
37513.4
37509
37505
37501
37497.2
37493.9
37492.8
37493.6
37491
37487
37482.9
37478.3
37472.5
37467.3
37463.1
37459.1
37455.2
37451.2
37447.3
37443.4
37439.8
37437.2
37437
37434.7
37430.8
37426.8
37422.6
37417.8
37412.8
37408.6
37404.6
37400.7
37396.7
37392.8
37388.9
37385.3
37382.9
37382.9
37380.6
37376.8
37372.7
37368.5
37363.9
37359.7
37355.7
37351.8
37347.9
37344.1
37340.6
37337
37333.1
37329.2
37325.2
37321.3
37317.4
37313.5
37310.1
37308.1
37307.9
37305
37301.1
37297
37292.7
37287.3
37281.9
37277.6
37273.7
37269.7
37265.8
37261.8
37257.9
37253.9
37250.1
37246.5
37243.8
37244.3
37244.5
37241.2
37237.3
37233.2
37228.6
37223.4
37219.1
37215.1
37211.1
37207.2
37203.2
37199.3
37195.4
37191.3
37187.2
37182.8
37178.8
37174.8
37170.9
37167
37163.4
37160.6
37160.8
37162
37159.2
37155.3
37151.2
37146.5
37140
37132.5
37127.6
37123.5
37119.6
37115.7
37111.8
37107.8
37104
37100.2
37097.1
37096.1
37099.9
37100.9
37097.7
37093.8
37089.7
37085
37078.5
37070.3
37065
37060.9
37057
37053.1
37049.1
37045.2
37041.3
37037.4
37033.5
37029.6
37025.9
37022.7
37021.6
37023.4
37021.6
37017.8
37013.9
37009.5
37004
36997.2
36992.3
36988.3
36984.4
36980.5
36976.8
36973.5
36971.9
36970.9
36967.5
36963.6
36959.6
36955.2
36950.2
36945.9
36941.9
36938
36934.2
36930.8
36928.7
36928.3
36925.4
36921.5
36917.5
36913.2
36908.3
36903.9
36900
36896.1
36892.3
36888.8
36886.2
36884
36880.4
36876.6
36872.7
36868.7
36864.8
36860.9
36857.1
36853.3
36849.9
36847.8
36845.4
36841.8
36837.9
36834
36829.9
36825.6
36821.6
36817.7
36813.8
36810.1
36806.7
36804.4
36801.4
36797.6
36793.7
36789.8
36785.9
36782.1
36778.2
36774.4
36770.7
36767.5
36765.1
36761.7
36757.8
36754
36750
36745.9
36741.9
36738
36734.1
36730.3
36726.8
36724.2
36724.5
36723.4
36719.8
36715.9
36711.9
36707.3
36701.6
36696.9
36692.9
36689
36685.1
36681.2
36677.4
36673.5
36669.7
36665.8
36662
36658.2
36654.8
36652.4
36652.7
36651.1
36647.4
36643.5
36639.4
36634.9
36630.6
36626.7
36622.8
36619
36615.5
36612.7
36611.2
36608.2
36604.4
36600.5
36596.5
36592
36586.3
36580.9
36576.8
36572.9
36569
36565.2
36561.3
36557.5
36553.6
36549.8
36546
36542.5
36539.7
36539.9
36541.2
36538.4
36534.6
36530.7
36526.5
36521.3
36515.3
36510.8
36506.9
36503
36499.2
36495.4
36491.5
36487.7
36483.9
36480
36476.2
36472.5
36469.2
36467.1
36468.4
36467.6
36464.1
36460.3
36456.3
36452
36446.6
36440.1
36435.4
36431.5
36427.6
36423.8
36420
36416.1
36412.3
36408.5
36404.9
36401.8
36400.9
36402.8
36401.2
36397.5
36393.6
36389.5
36384.6
36377.5
36370.5
36366
36362.1
36358.3
36354.5
36350.7
36346.8
36343
36339.3
36335.7
36332.6
36331.7
36334.3
36333.3
36329.8
36325.9
36321.9
36317.4
36311.6
36306.5
36302.5
36298.6
36294.8
36291
36287.2
36283.4
36279.7
36276.2
36272.8
36269.1
36265.4
36261.7
36258.2
36255.6
36255.7
36255.3
36252
36248.2
36244.3
36240
36234.6
36229.5
36225.5
36221.6
36217.8
36214.1
36210.4
36206.9
36203.2
36199.5
36195.7
36191.8
36187.9
36183.6
36178.8
36174.5
36170.6
36166.8
36163.1
36159.3
36155.7
36152.5
36151.1
36153.5
36153.3
36149.9
36146.1
36142.2
36137.7
36131.6
36125.2
36120.9
36117
36113.3
36109.5
36106
36103.1
36102.9
36102.8
36099.6
36095.8
36091.9
36087.5
36081.7
36074.6
36069.8
36065.9
36062.1
36058.3
36054.6
36050.9
36047.6
36045.5
36046.8
36046.6
36043.3
36039.5
36035.6
36031.2
36025.2
36018
36013.3
36009.4
36005.6
36001.9
35998.2
35994.9
35992.9
35994.1
35993.1
35989.6
35985.8
35981.9
35977.3
35971.5
35966.5
35962.5
35958.7
35955
35951.3
35948.1
35946.6
35947.4
35945.2
35941.5
35937.7
35933.6
35928.8
35922.4
35917.2
35913.2
35909.4
35905.7
35901.9
35898.2
35894.6
35891.6
35890
35887.7
35884.1
35880.3
35876.5
35872.7
35868.6
35864.6
35860.7
35857
35853.2
35849.5
35845.9
35842.8
35841.3
35842.1
35839.9
35836.2
35832.4
35828.5
35824
35818.1
35812.9
35809
35805.2
35801.4
35797.7
35794
35790.2
35786.6
35783.2
35780.7
35781.1
35780.1
35776.7
35772.9
35769
35764.7
35758.9
35752
35747.4
35743.5
35739.7
35736
35732.4
35729
35726.4
35726.9
35727.4
35724.3
35720.6
35716.8
35712.6
35707.3
35699.6
35693.9
35689.9
35686.1
35682.4
35678.7
35675.1
35671.9
35670
35672.4
35674.2
35671.6
35667.9
35664.1
35660.2
35655.6
35649.2
35642.7
35638.4
35634.6
35630.8
35627.1
35623.4
35619.7
35616
35612.2
35608.5
35604.8
35601.2
35597.8
35595.3
35595.9
35596.5
35593.5
35589.8
35586.1
35582.1
35577.4
35570.8
35564.9
35560.8
35557
35553.3
35549.6
35545.9
35542.2
35538.5
35534.8
35531.1
35527.4
35524
35521.1
35520.6
35521.2
35518.5
35514.8
35511.1
35507.1
35502.2
35495.4
35489.8
35485.8
35482.1
35478.4
35474.7
35471.3
35468.6
35468.5
35467.9
35464.6
35460.9
35457.2
35453.1
35448.6
35444.6
35440.8
35437.2
35433.5
35430
35427.1
35424.8
35421.5
35417.9
35414.2
35410.5
35406.7
35403
35399.3
35395.6
35391.9
35388.5
35385.6
35383.1
35379.7
35376.1
35372.4
35368.6
35364.8
35360.9
35357.2
35353.5
35349.8
35346.4
35343.5
35342.7
35341.9
35338.6
35335
35331.2
35327.2
35322.4
35316.4
35311.8
35307.9
35304.2
35300.6
35296.9
35293.2
35289.6
35286.1
35283.2
35282.5
35283.7
35281.3
35277.7
35274
35270.2
35265.8
35259.8
35253.1
35248.7
35244.9
35241.2
35237.6
35233.9
35230.3
35226.9
35224.1
35223.8
35224.1
35221.2
35217.6
35213.9
35210
35205.6
35199.6
35193.7
35189.6
35185.8
35182.2
35178.5
35174.9
35171.2
35167.6
35163.9
35160.4
35157.4
35156.2
35156
35153.1
35149.4
35145.8
35142
35137.8
35133.7
35130
35126.3
35122.7
35119.1
35115.9
35113.7
35111.4
35107.9
35104.3
35100.6
35096.9
35093.1
35089.3
35085.6
35082
35078.4
35075
35072.3
35071
35068.3
35064.8
35061.1
35057.5
35053.6
35049.2
35044
35039.7
35036
35032.3
35028.7
35025
35021.4
35017.8
35014.2
35010.9
35008.3
35008.3
35007.5
35004.3
35000.7
34997
34993.3
34989.3
34984.6
34980.3
34976.5
34972.8
34969.2
34965.5
34961.8
34957.9
34953.6
34949.1
34945.2
34941.6
34937.9
34934.3
34930.7
34927.3
34924.4
34923.6
34924.6
34922.2
34918.7
34915
34911.3
34907.1
34901.9
34897.2
34893.4
34889.8
34886.2
34882.6
34879.3
34876.9
34877
34875.5
34872.1
34868.4
34864.8
34861.2
34857.4
34853.2
34847.8
34840.9
34836.1
34832.3
34828.7
34825.1
34821.4
34817.8
34814.2
34810.6
34807
34803.4
34799.8
34796.4
34793.5
34792.6
34795.2
34794.5
34791.2
34787.6
34784
34780.2
34776
34770.4
34764.1
34759.7
34755.9
34752.2
34748.6
34744.8
34740.9
34736.9
34733.1
34729.5
34725.9
34722.3
34718.7
34715.1
34711.6
34708.3
34705.5
34705.2
34706.4
34704
34700.5
34696.9
34693.2
34689.1
34683.8
34678.2
34674.1
34670.5
34666.9
34663.3
34659.9
34656.7
34654.8
34652.5
34649.2
34645.6
34642
34638.4
34634.8
34631.2
34627.7
34624.1
34620.6
34617.4
34614.9
34611.9
34608.4
34604.8
34601.2
34597.6
34593.8
34590.1
34586.5
34582.9
34579.4
34575.9
34572.9
34570.5
34567.6
34564.1
34560.5
34556.9
34553.3
34549.7
34546.1
34542.6
34539
34535.5
34532.3
34530.1
34528.1
34524.9
34521.4
34517.8
34514.2
34510.7
34507.1
34503.5
34499.8
34495.7
34491.3
34487.4
34483.8
34480.2
34476.6
34473.1
34469.5
34465.9
34462.4
34458.8
34455.4
34452.3
34450.3
34451.1
34450
34446.7
34443.2
34439.6
34435.8
34431.4
34425.3
34419.3
34415.3
34411.7
34408.1
34404.6
34401
34397.6
34394.6
34393.1
34392
34389
34385.5
34381.9
34378.3
34374.4
34370
34365.8
34362.2
34358.6
34355.1
34351.6
34348.3
34345.7
34343.5
34340.3
34336.8
34333.3
34329.7
34326.1
34322.6
34319
34315.5
34312
34308.7
34305.9
34305
34303.4
34300.1
34296.6
34293.1
34289.4
34285.4
34280.4
34274.8
34270.7
34267.1
34263.5
34260
34256.5
34252.9
34249.4
34245.9
34242.4
34239.3
34237
34237.6
34237
34233.9
34230.4
34226.8
34223.2
34219.3
34214.6
34209
34204.7
34201.1
34197.5
34194
34190.5
34186.9
34183.4
34179.9
34176.4
34173
34169.8
34167.6
34166.5
34163.8
34160.3
34156.8
34153.2
34149.5
34145.4
34140.3
34136
34132.3
34128.8
34125.3
34121.8
34118.6
34116
34115.3
34113.4
34110.1
34106.5
34103
34099.4
34095.3
34090.7
34086.8
34083.2
34079.7
34076.2
34072.8
34069.8
34067.8
34066.2
34063.1
34059.6
34056.1
34052.6
34049
34045.3
34041.5
34038
34034.4
34030.9
34027.4
34023.9
34020.5
34017.3
34014.4
34011.3
34007.8
34004.3
34000.8
33997.3
33993.8
33990.2
33986.7
33983.2
33979.7
33976.2
33972.7
33969.3
33966.3
33964.4
33963
33959.9
33956.5
33953
33949.5
33945.8
33941.9
33937
33932.6
33928.9
33925.4
33921.9
33918.4
33915
33911.6
33908.6
33906.7
33904.5
33901.2
33897.7
33894.2
33890.7
33887.2
33883.6
33880
33876.6
33873.1
33869.6
33866.3
33863.4
33861.9
33860
33856.7
33853.3
33849.8
33846.3
33842.7
33838.8
33834
33829.4
33825.7
33822.2
33818.7
33815.2
33811.7
33808.3
33804.8
33801.3
33797.9
33794.5
33791.3
33789.1
33788
33785.3
33781.9
33778.4
33775
33771.5
33767.9
33764.4
33760.9
33757.5
33754
33750.7
33747.9
33746
33743.3
33739.9
33736.4
33732.9
33729.4
33725.5
33720.6
33715
33711
33707.4
33703.9
33700.5
33697
33693.6
33690.3
33687.5
33686.4
33685.9
33683
33679.6
33676.1
33672.6
33669.1
33665.2
33661.2
33657.7
33654.2
33650.8
33647.3
33644
33641
33638.4
33635.3
33631.9
33628.5
33625
33621.6
33618.1
33614.7
33611.3
33608
33605.2
33602.8
33599.7
33596.3
33592.8
33589.4
33585.9
33582.3
33578.5
33574.8
33571.3
33567.9
33564.5
33561
33557.7
33554.7
33551.6
33548.2
33544.8
33541.3
33537.9
33534.4
33531
33527.5
33524.1
33520.7
33517.4
33514.6
33513.3
33512.6
33509.7
33506.3
33502.9
33499.4
33495.8
33491.9
33486.6
33480.6
33476.5
33472.9
33469.5
33466
33462.6
33459.2
33455.7
33452.3
33448.9
33445.5
33442.3
33439.6
33438.2
33436.1
33432.8
33429.4
33426
33422.5
33419
33415.3
33411.7
33408.3
33404.9
33401.5
33398.2
33395.3
33393.6
33391.3
33388
33384.6
33381.2
33377.7
33374.1
33370.2
33366.5
33363
33359.6
33356.2
33352.9
33349.8
33347.3
33344.3
33341
33337.5
33334.1
33330.7
33327.1
33323.6
33320.1
33316.7
33313.3
33309.9
33306.8
33304.2
33302.4
33299.6
33296.2
33292.8
33289.4
33286
33282.6
33279.2
33275.9
33272.5
33269.1
33265.7
33262.3
33258.9
33255.4
33251.8
33247.7
33243.3
33239.7
33236.3
33232.9
33229.5
33226.2
33223
33220.4
33219.9
33219.8
33217
33213.7
33210.3
33206.9
33203.3
33199.5
33194.4
33188.5
33184.4
33180.9
33177.5
33174.1
33170.7
33167.3
33163.9
33160.6
33157.2
33154
33151.3
33150.3
33149.7
33146.9
33143.6
33140.2
33136.7
33133.2
33129.2
33123.6
33117.4
33113.3
33109.8
33106.4
33103
33099.6
33096.3
33093.2
33090.8
33091
33091.8
33089.3
33086
33082.6
33079.2
33075.6
33071.6
33065.8
33059
33054.7
33051.2
33047.8
33044.5
33041.1
33037.9
33035
33033.6
33034.4
33032.5
33029.2
33025.9
33022.5
33019
33015.3
33010.6
33005.8
33002.2
32998.8
32995.4
32992.1
32988.8
32986
32984.4
32983.2
32980.3
32977
32973.6
32970.2
32966.8
32963
32958.2
32952.7
32948.7
32945.2
32941.8
32938.5
32935.1
32931.8
32928.4
32925
32921.7
32918.5
32915.5
32913.6
32913.5
32911.4
32908.2
32904.9
32901.5
32898.2
32894.7
32891.2
32887.8
32884.4
32881.1
32877.8
32874.5
32871.4
32868.3
32865
32861.6
32858.3
32854.9
32851.3
32847.2
32841.6
32836
32832.2
32828.7
32825.4
32822
32818.7
32815.4
32812.1
32808.9
32806.3
32805.6
32806.5
32804.3
32801.1
32797.7
32794.4
32791
32787.3
32783
32778.6
32775.1
32771.7
32768.4
32765.1
32761.9
32759
32757.1
32754.4
32751.2
32747.9
32744.5
32741.1
32737.5
32733.3
32728.6
32724.9
32721.5
32718.2
32714.9
32711.6
32708.6
32706.5
32706.6
32705.4
32702.4
32699
32695.7
32692.3
32688.8
32684.7
32678.9
32672.3
32668.2
32664.7
32661.4
32658
32654.7
32651.4
32648.1
32644.8
32641.7
32639
32638.2
32637.4
32634.6
32631.3
32628
32624.6
32621.2
32617.3
32612.6
32608.3
32604.9
32601.5
32598.2
32595
32591.9
32589.6
32589.5
32588.5
32585.6
32582.3
32579
32575.6
32572
32567.5
32560.8
32554.6
32550.8
32547.4
32544.1
32540.8
32537.5
32534.4
32531.8
32531.3
32532.9
32531.1
32527.9
32524.7
32521.3
32518
32514.6
32510.7
32505.7
32500.6
32496.9
32493.5
32490.2
32486.9
32483.6
32480.3
32476.9
32473.5
32469.9
32466.1
32462.7
32459.4
32456.1
32452.8
32449.5
32446.2
32443
32440.1
32438.3
32437.6
32435.1
32431.9
32428.7
32425.4
32422
32418.7
32415.1
32411.2