/*--------------------------------*- C++ -*----------------------------------*\
  =========                 |
  \\      /  F ield         | OpenFOAM: The Open Source CFD Toolbox
   \\    /   O peration     | Website:  https://openfoam.org
    \\  /    A nd           | Version:  9
     \\/     M anipulation  |
\*---------------------------------------------------------------------------*/
FoamFile
{
    format      ascii;
    class       volScalarField;
    location    "0.048";
    object      mag(U);
}
// * * * * * * * * * * * * * * * * * * * * * * * * * * * * * * * * * * * * * //

dimensions      [0 1 -1 0 0 0 0];

internalField   nonuniform List<scalar> 
1000
(
19.7951
20.0198
20.3135
20.5561
20.7666
20.9744
21.1875
21.4032
21.6188
21.8338
22.0485
22.2631
22.4777
22.6921
22.9065
23.1207
23.3348
23.5488
23.7626
23.9763
24.1899
24.4033
24.6166
24.8297
25.0426
25.2554
25.468
25.6804
25.8926
26.1046
26.3164
26.528
26.7394
26.9505
27.1615
27.3722
27.5826
27.7928
28.0028
28.2124
28.4218
28.631
28.8398
29.0483
29.2565
29.4644
29.672
29.8793
30.0862
30.2928
30.499
30.7048
30.9103
31.1153
31.32
31.5243
31.7281
31.9316
32.1346
32.3372
32.5393
32.7411
32.9425
33.1435
33.3438
33.5435
33.7427
33.9414
34.1396
34.3373
34.5345
34.7311
34.9271
35.1226
35.3175
35.5119
35.7056
35.8987
36.0912
36.283
36.4742
36.6647
36.8546
37.0438
37.2322
37.42
37.607
37.7933
37.9788
38.1636
38.3477
38.5309
38.7133
38.895
39.0758
39.2558
39.4349
39.6132
39.7907
39.9672
40.1429
40.3177
40.4916
40.6645
40.8366
41.0077
41.1778
41.347
41.5152
41.6825
41.8487
42.014
42.1783
42.3416
42.5038
42.6651
42.8253
42.9845
43.1427
43.2998
43.4559
43.611
43.765
43.9179
44.0698
44.2207
44.3705
44.5193
44.667
44.8137
44.9594
45.104
45.2476
45.3901
45.5317
45.6722
45.8118
45.9504
46.0879
46.2245
46.3602
46.4949
46.6286
46.7615
46.8934
47.0245
47.1546
47.2839
47.4124
47.54
47.6668
47.7929
47.9181
48.0426
48.1663
48.2894
48.4117
48.5334
48.6544
48.7748
48.8945
49.0137
49.1322
49.2502
49.3677
49.4847
49.6012
49.7172
49.8327
49.9478
50.0625
50.1768
50.2907
50.4042
50.5174
50.6303
50.7429
50.8552
50.9672
51.0789
51.1904
51.3017
51.4128
51.5236
51.6343
51.7448
51.8551
51.9653
52.0753
52.1852
52.295
52.4047
52.5143
52.6238
52.7332
52.8426
52.9518
53.061
53.1702
53.2793
53.3884
53.4974
53.6064
53.7154
53.8244
53.9334
54.0423
54.1513
54.2602
54.3691
54.4781
54.587
54.696
54.8049
54.9139
55.0229
55.1319
55.241
55.35
55.4591
55.5682
55.6774
55.7865
55.8957
56.0049
56.1141
56.2234
56.3327
56.4421
56.5514
56.6608
56.7703
56.8797
56.9892
57.0988
57.2083
57.3179
57.4276
57.5373
57.647
57.7567
57.8665
57.9763
58.0862
58.1961
58.306
58.416
58.526
58.636
58.7461
58.8562
58.9664
59.0766
59.1868
59.2971
59.4074
59.5177
59.6281
59.7385
59.849
59.9594
60.07
60.1805
60.2911
60.4018
60.5124
60.6232
60.7339
60.8447
60.9555
61.0664
61.1773
61.2882
61.3992
61.5102
61.6213
61.7324
61.8435
61.9547
62.0659
62.1771
62.2884
62.3997
62.511
62.6224
62.7339
62.8453
62.9568
63.0684
63.1799
63.2915
63.4032
63.5149
63.6266
63.7384
63.8502
63.962
64.0739
64.1858
64.2977
64.4097
64.5217
64.6338
64.7458
64.858
64.9701
65.0823
65.1946
65.3068
65.4191
65.5315
65.6439
65.7563
65.8687
65.9812
66.0937
66.2063
66.3189
66.4315
66.5442
66.6569
66.7696
66.8824
66.9952
67.108
67.2209
67.3338
67.4467
67.5597
67.6727
67.7858
67.8989
68.012
68.1251
68.2383
68.3515
68.4648
68.5781
68.6914
68.8048
68.9182
69.0316
69.1451
69.2586
69.3721
69.4857
69.5993
69.7129
69.8265
69.9402
70.054
70.1678
70.2816
70.3954
70.5093
70.6232
70.7371
70.8511
70.9651
71.0791
71.1932
71.3073
71.4214
71.5356
71.6498
71.764
71.8783
71.9926
72.1069
72.2213
72.3357
72.4501
72.5646
72.6791
72.7936
72.9082
73.0228
73.1374
73.2521
73.3668
73.4815
73.5963
73.7111
73.8259
73.9408
74.0557
74.1706
74.2855
74.4005
74.5156
74.6306
74.7457
74.8608
74.976
75.0912
75.2064
75.3216
75.4369
75.5522
75.6676
75.783
75.8984
76.0138
76.1293
76.2448
76.3603
76.4759
76.5915
76.7071
76.8228
76.9385
77.0542
77.17
77.2858
77.4016
77.5175
77.6334
77.7493
77.8652
77.9812
78.0972
78.2133
78.3294
78.4455
78.5616
78.6778
78.794
78.9102
79.0265
79.1428
79.2591
79.3755
79.4919
79.6083
79.7248
79.8413
79.9578
80.0743
80.1909
80.3075
80.4242
80.5408
80.6576
80.7743
80.8911
81.0079
81.1247
81.2415
81.3584
81.4754
81.5923
81.7093
81.8263
81.9434
82.0604
82.1775
82.2947
82.4118
82.529
82.6463
82.7635
82.8808
82.9981
83.1155
83.2329
83.3503
83.4677
83.5852
83.7027
83.8202
83.9378
84.0554
84.173
84.2907
84.4084
84.5261
84.6438
84.7616
84.8794
84.9973
85.1152
85.2331
85.351
85.4689
85.5869
85.705
85.823
85.9411
86.0592
86.1773
86.2955
86.4137
86.532
86.6502
86.7685
86.8868
87.0052
87.1236
87.242
87.3604
87.4789
87.5974
87.7159
87.8345
87.9531
88.0717
88.1903
88.309
88.4277
88.5465
88.6652
88.784
88.9029
89.0217
89.1406
89.2595
89.3785
89.4974
89.6164
89.7355
89.8545
89.9736
90.0927
90.2119
90.3311
90.4503
90.5695
90.6888
90.8081
90.9274
91.0468
91.1661
91.2856
91.405
91.5245
91.644
91.7635
91.883
92.0026
92.1223
92.2419
92.3616
92.4813
92.601
92.7208
92.8406
92.9604
93.0802
93.2001
93.32
93.4399
93.5599
93.6799
93.7999
93.92
94.04
94.1601
94.2803
94.4004
94.5206
94.6408
94.761
94.8813
95.0016
95.1219
95.2423
95.3627
95.483
95.6035
95.7239
95.8444
95.9649
96.0855
96.206
96.3266
96.4472
96.5678
96.6885
96.8092
96.9299
97.0506
97.1714
97.2922
97.413
97.5339
97.6547
97.7756
97.8965
98.0175
98.1385
98.2595
98.3805
98.5016
98.6227
98.7438
98.8649
98.9861
99.1073
99.2286
99.3498
99.4711
99.5924
99.7138
99.8351
99.9566
100.078
100.199
100.321
100.442
100.564
100.686
100.807
100.929
101.05
101.172
101.294
101.415
101.537
101.659
101.78
101.902
102.024
102.146
102.267
102.389
102.511
102.633
102.754
102.876
102.998
103.12
103.241
103.363
103.484
103.606
103.727
103.849
103.97
104.092
104.213
104.334
104.455
104.576
104.697
104.818
104.938
105.059
105.179
105.299
105.419
105.539
105.659
105.778
105.898
106.017
106.135
106.254
106.372
106.49
106.608
106.725
106.842
106.959
107.075
107.191
107.307
107.422
107.537
107.651
107.765
107.878
107.991
108.104
108.216
108.327
108.438
108.549
108.658
108.768
108.877
108.985
109.092
109.2
109.306
109.412
109.517
109.622
109.726
109.83
109.933
110.036
110.138
110.239
110.34
110.441
110.541
110.64
110.739
110.838
110.937
111.035
111.132
111.23
111.327
111.424
111.521
111.617
111.714
111.81
111.906
112.003
112.099
112.195
112.292
112.389
112.485
112.582
112.68
112.777
112.875
112.973
113.072
113.171
113.27
113.37
113.47
113.571
113.672
113.774
113.876
113.979
114.083
114.187
114.291
114.397
114.502
114.609
114.716
114.823
114.932
115.04
115.15
115.26
115.37
115.482
115.593
115.706
115.818
115.932
116.045
116.16
116.275
116.39
116.506
116.622
116.738
116.855
116.973
117.091
117.209
117.328
117.447
117.566
117.685
117.805
117.926
118.046
118.167
118.288
118.409
118.531
118.653
118.775
118.897
119.019
119.142
119.265
119.388
119.511
119.634
119.758
119.881
120.005
120.129
120.252
120.376
120.501
120.625
120.749
120.873
120.997
121.121
121.245
121.369
121.493
121.617
121.74
121.864
121.987
122.109
122.232
122.354
122.476
122.597
122.717
122.837
122.956
123.075
123.192
123.309
123.424
123.539
123.652
123.764
123.875
123.984
124.092
124.198
124.303
124.405
124.506
124.605
124.702
124.797
124.889
124.98
125.068
125.155
125.238
125.32
125.4
125.477
125.552
125.625
125.696
125.766
125.833
125.899
125.963
126.025
126.086
126.147
126.206
126.264
126.322
126.379
126.435
126.492
126.549
126.605
126.662
126.72
126.778
126.837
126.897
126.958
127.02
127.083
127.147
127.213
127.28
127.348
127.418
127.49
127.562
127.637
127.713
127.79
127.869
127.949
128.031
128.115
128.199
128.286
128.373
128.462
128.552
128.644
128.736
128.83
128.925
129.022
129.119
129.217
129.317
129.418
129.519
129.622
129.726
129.83
129.936
130.042
130.15
130.258
130.367
130.477
130.588
130.699
130.811
130.925
131.038
131.153
131.269
131.385
131.501
131.619
131.737
131.856
131.976
132.096
132.217
132.338
132.46
132.583
132.706
132.83
132.955
133.08
133.206
133.332
133.459
133.586
133.714
133.843
133.972
134.101
134.231
134.362
134.493
134.625
134.757
134.889
135.022
135.156
135.29
135.424
135.559
135.694
135.83
135.966
136.103
136.24
136.378
136.516
136.654
136.793
136.932
137.072
137.212
137.353
137.493
137.635
137.776
137.918
138.061
138.204
138.347
138.49
138.634
138.778
138.923
139.068
139.213
139.359
139.505
139.652
139.798
139.945
140.093
140.241
140.389
140.537
140.686
140.835
140.984
141.134
141.284
141.434
141.585
141.736
141.887
142.039
142.191
142.343
142.495
142.648
142.801
142.955
143.108
143.262
143.416
143.571
143.726
143.881
144.036
144.192
144.348
144.504
144.663
144.931
)
;

boundaryField
{
    sides
    {
        type            calculated;
        value           nonuniform List<scalar> 2(144.931 19.7951);
    }
    empty
    {
        type            empty;
    }
}


// ************************************************************************* //
