/*--------------------------------*- C++ -*----------------------------------*\
  =========                 |
  \\      /  F ield         | OpenFOAM: The Open Source CFD Toolbox
   \\    /   O peration     | Website:  https://openfoam.org
    \\  /    A nd           | Version:  9
     \\/     M anipulation  |
\*---------------------------------------------------------------------------*/
FoamFile
{
    format      ascii;
    class       volScalarField;
    location    "0.004";
    object      p;
}
// * * * * * * * * * * * * * * * * * * * * * * * * * * * * * * * * * * * * * //

dimensions      [1 -1 -2 0 0 0 0];

internalField   nonuniform List<scalar> 
100
(
100000
100000
100000
100000
100000
100000
100000
100000
100000
100000
100000
100000
100000
100000
100000
100000
100000
100000
100000
100000
100000
100000
100000
100000
100000
100000
99999.9
99999.7
99998.6
99994.3
99978.1
99921.5
99738.9
99197.5
97734.1
94185.2
87800.6
80717.9
74479.6
69000.4
64030.8
59435.6
55146.1
51121.9
47336.9
43788.8
40469
37332.9
34599.8
32301.3
30664.2
30024.1
30401.9
30419.8
30334.4
30317.2
30289.8
30240.9
30183.7
30180
30241
30311.7
30726.5
30878.5
29984.7
29676.8
29710.1
29771.6
30038.1
30481.6
30420.4
28487.5
17553
10572.4
10037.5
10002.4
10000.2
10000
10000
10000
10000
10000
10000
10000
10000
10000
10000
10000
10000
10000
10000
10000
10000
10000
10000
10000
10000
10000
10000
10000
)
;

boundaryField
{
    sides
    {
        type            zeroGradient;
    }
    empty
    {
        type            empty;
    }
}


// ************************************************************************* //
