/*--------------------------------*- C++ -*----------------------------------*\
  =========                 |
  \\      /  F ield         | OpenFOAM: The Open Source CFD Toolbox
   \\    /   O peration     | Website:  https://openfoam.org
    \\  /    A nd           | Version:  9
     \\/     M anipulation  |
\*---------------------------------------------------------------------------*/
FoamFile
{
    format      ascii;
    class       volScalarField;
    location    "0.039";
    object      T;
}
// * * * * * * * * * * * * * * * * * * * * * * * * * * * * * * * * * * * * * //

dimensions      [0 0 0 1 0 0 0];

internalField   nonuniform List<scalar> 
100
(
207.814
207.692
207.569
207.451
207.364
207.281
207.17
207.095
207.05
206.996
206.953
206.936
206.916
206.857
206.799
206.757
206.664
206.511
206.399
206.352
206.292
206.167
206.032
205.96
205.94
205.925
205.878
205.773
205.716
205.711
205.724
205.753
205.754
205.732
205.71
205.714
205.74
205.813
205.926
206.067
206.195
206.334
206.512
206.701
206.912
207.15
207.368
207.575
207.831
208.121
208.412
208.717
209.044
209.359
209.647
209.961
210.323
210.702
211.081
211.451
211.796
212.137
212.516
212.941
213.376
213.777
214.129
214.488
214.89
215.351
215.808
216.273
216.642
217.016
217.335
217.844
218.274
218.864
219.192
219.694
219.937
220.427
220.721
221.326
221.677
222.25
222.532
223.057
223.33
223.887
224.215
224.895
225.271
226.007
226.389
227.154
227.534
228.328
228.641
229.467
)
;

boundaryField
{
    sides
    {
        type            zeroGradient;
    }
    empty
    {
        type            empty;
    }
}


// ************************************************************************* //
