/*--------------------------------*- C++ -*----------------------------------*\
  =========                 |
  \\      /  F ield         | OpenFOAM: The Open Source CFD Toolbox
   \\    /   O peration     | Website:  https://openfoam.org
    \\  /    A nd           | Version:  9
     \\/     M anipulation  |
\*---------------------------------------------------------------------------*/
FoamFile
{
    format      ascii;
    class       volScalarField;
    location    "0.031";
    object      T;
}
// * * * * * * * * * * * * * * * * * * * * * * * * * * * * * * * * * * * * * //

dimensions      [0 0 0 1 0 0 0];

internalField   nonuniform List<scalar> 
10000
(
287.6
287.586
287.577
287.567
287.558
287.549
287.539
287.53
287.521
287.511
287.502
287.493
287.484
287.474
287.465
287.455
287.446
287.437
287.427
287.418
287.408
287.399
287.39
287.381
287.371
287.362
287.353
287.343
287.334
287.325
287.315
287.306
287.297
287.287
287.278
287.269
287.259
287.25
287.241
287.231
287.222
287.213
287.204
287.194
287.185
287.176
287.166
287.157
287.148
287.138
287.129
287.12
287.11
287.101
287.092
287.082
287.073
287.064
287.054
287.045
287.035
287.026
287.017
287.007
286.998
286.989
286.979
286.97
286.961
286.951
286.942
286.933
286.923
286.914
286.905
286.895
286.886
286.877
286.867
286.858
286.849
286.839
286.83
286.821
286.811
286.802
286.793
286.783
286.774
286.765
286.756
286.746
286.737
286.728
286.718
286.709
286.7
286.69
286.681
286.672
286.662
286.653
286.644
286.634
286.625
286.616
286.607
286.597
286.588
286.579
286.569
286.56
286.551
286.541
286.532
286.523
286.514
286.504
286.495
286.485
286.476
286.467
286.458
286.448
286.439
286.43
286.42
286.411
286.401
286.392
286.383
286.374
286.365
286.355
286.345
286.336
286.327
286.318
286.309
286.3
286.29
286.28
286.271
286.261
286.252
286.243
286.234
286.225
286.215
286.206
286.196
286.187
286.178
286.169
286.16
286.151
286.141
286.132
286.122
286.112
286.103
286.094
286.085
286.076
286.067
286.057
286.047
286.038
286.028
286.02
286.011
286.001
285.992
285.982
285.973
285.964
285.955
285.946
285.937
285.926
285.916
285.907
285.899
285.892
285.883
285.872
285.861
285.85
285.84
285.832
285.827
285.819
285.808
285.797
285.786
285.775
285.765
285.757
285.752
285.744
285.734
285.722
285.711
285.701
285.691
285.683
285.676
285.669
285.66
285.649
285.639
285.628
285.618
285.608
285.599
285.593
285.586
285.576
285.565
285.554
285.543
285.533
285.524
285.516
285.51
285.502
285.492
285.481
285.47
285.46
285.45
285.442
285.436
285.427
285.417
285.406
285.395
285.385
285.374
285.366
285.36
285.355
285.346
285.334
285.323
285.312
285.302
285.291
285.281
285.272
285.267
285.263
285.254
285.242
285.23
285.219
285.207
285.197
285.187
285.179
285.174
285.173
285.164
285.152
285.14
285.127
285.116
285.105
285.095
285.091
285.088
285.078
285.065
285.052
285.04
285.029
285.019
285.016
285.014
285.004
284.992
284.978
284.965
284.953
284.944
284.939
284.94
284.931
284.918
284.904
284.892
284.88
284.871
284.867
284.864
284.854
284.842
284.83
284.819
284.811
284.806
284.796
284.784
284.772
284.76
284.749
284.742
284.742
284.736
284.724
284.71
284.696
284.685
284.674
284.667
284.668
284.661
284.649
284.635
284.621
284.61
284.6
284.595
284.595
284.586
284.574
284.559
284.546
284.535
284.525
284.521
284.521
284.512
284.499
284.486
284.475
284.464
284.457
284.452
284.442
284.431
284.419
284.409
284.403
284.4
284.389
284.377
284.364
284.352
284.34
284.331
284.328
284.327
284.318
284.305
284.29
284.277
284.266
284.256
284.253
284.252
284.243
284.23
284.215
284.202
284.191
284.181
284.178
284.178
284.169
284.156
284.141
284.128
284.117
284.107
284.103
284.103
284.095
284.082
284.069
284.057
284.047
284.039
284.034
284.024
284.012
284
283.988
283.978
283.969
283.969
283.966
283.954
283.941
283.926
283.914
283.903
283.895
283.895
283.894
283.883
283.87
283.854
283.84
283.828
283.818
283.812
283.814
283.809
283.798
283.784
283.768
283.756
283.745
283.736
283.734
283.733
283.723
283.711
283.697
283.686
283.675
283.668
283.664
283.655
283.643
283.63
283.618
283.608
283.599
283.598
283.594
283.582
283.569
283.555
283.543
283.532
283.524
283.524
283.52
283.509
283.496
283.482
283.47
283.46
283.452
283.449
283.44
283.429
283.416
283.404
283.393
283.383
283.381
283.379
283.368
283.356
283.342
283.33
283.32
283.313
283.315
283.311
283.299
283.285
283.267
283.253
283.242
283.231
283.225
283.229
283.225
283.214
283.201
283.184
283.17
283.159
283.149
283.144
283.147
283.14
283.128
283.114
283.097
283.084
283.073
283.064
283.062
283.069
283.065
283.053
283.039
283.02
283.002
282.99
282.978
282.968
282.96
282.962
282.969
282.963
282.952
282.937
282.919
282.905
282.893
282.882
282.874
282.874
282.872
282.861
282.848
282.833
282.82
282.809
282.799
282.797
282.797
282.788
282.776
282.762
282.75
282.739
282.73
282.724
282.716
282.704
282.693
282.681
282.67
282.661
282.658
282.657
282.647
282.634
282.62
282.608
282.597
282.588
282.586
282.58
282.569
282.556
282.542
282.53
282.52
282.512
282.516
282.518
282.509
282.497
282.48
282.46
282.445
282.434
282.423
282.414
282.412
282.419
282.416
282.405
282.392
282.376
282.361
282.349
282.338
282.326
282.315
282.306
282.303
282.306
282.299
282.287
282.274
282.26
282.248
282.236
282.225
282.215
282.208
282.21
282.207
282.196
282.183
282.168
282.157
282.146
282.136
282.133
282.128
282.117
282.105
282.093
282.082
282.072
282.068
282.063
282.053
282.041
282.029
282.018
282.007
281.996
281.987
281.977
281.966
281.956
281.949
281.95
281.945
281.933
281.92
281.905
281.893
281.882
281.874
281.873
281.872
281.862
281.849
281.833
281.819
281.808
281.798
281.791
281.794
281.79
281.779
281.765
281.748
281.735
281.723
281.714
281.709
281.715
281.714
281.704
281.69
281.672
281.653
281.64
281.629
281.619
281.613
281.618
281.621
281.612
281.6
281.585
281.569
281.556
281.545
281.533
281.522
281.512
281.503
281.494
281.485
281.477
281.478
281.477
281.466
281.454
281.439
281.425
281.414
281.403
281.395
281.395
281.388
281.377
281.364
281.351
281.34
281.329
281.323
281.323
281.316
281.304
281.29
281.276
281.265
281.254
281.247
281.249
281.245
281.233
281.22
281.204
281.191
281.18
281.17
281.166
281.169
281.161
281.149
281.135
281.12
281.108
281.098
281.089
281.088
281.086
281.075
281.062
281.047
281.035
281.024
281.014
281.011
281.013
281.004
280.992
280.977
280.963
280.952
280.942
280.935
280.937
280.935
280.924
280.911
280.893
280.874
280.862
280.85
280.84
280.831
280.83
280.839
280.836
280.825
280.812
280.795
280.777
280.765
280.754
280.744
280.738
280.742
280.737
280.726
280.713
280.697
280.684
280.673
280.663
280.658
280.66
280.652
280.64
280.627
280.613
280.602
280.592
280.586
280.588
280.583
280.572
280.558
280.541
280.525
280.513
280.502
280.491
280.481
280.473
280.475
280.48
280.473
280.462
280.447
280.43
280.417
280.406
280.395
280.388
280.39
280.39
280.38
280.368
280.351
280.332
280.318
280.307
280.296
280.286
280.281
280.287
280.289
280.279
280.267
280.251
280.232
280.219
280.208
280.198
280.191
280.193
280.195
280.186
280.174
280.158
280.142
280.13
280.119
280.11
280.105
280.107
280.099
280.087
280.073
280.059
280.047
280.036
280.027
280.026
280.025
280.015
280.003
279.989
279.976
279.965
279.956
279.95
279.946
279.936
279.924
279.912
279.901
279.891
279.882
279.881
279.876
279.865
279.852
279.839
279.828
279.817
279.808
279.806
279.801
279.79
279.778
279.765
279.753
279.743
279.734
279.732
279.726
279.715
279.702
279.69
279.678
279.668
279.66
279.659
279.653
279.642
279.63
279.617
279.606
279.596
279.589
279.589
279.583
279.572
279.559
279.544
279.533
279.522
279.513
279.513
279.514
279.505
279.493
279.477
279.456
279.441
279.43
279.419
279.409
279.401
279.404
279.416
279.414
279.403
279.39
279.373
279.35
279.335
279.324
279.312
279.301
279.29
279.28
279.272
279.273
279.282
279.279
279.268
279.255
279.237
279.219
279.206
279.195
279.185
279.177
279.178
279.178
279.169
279.156
279.141
279.126
279.114
279.103
279.094
279.091
279.093
279.085
279.074
279.06
279.048
279.037
279.027
279.022
279.021
279.012
279
278.985
278.969
278.956
278.945
278.936
278.933
278.94
278.937
278.926
278.913
278.896
278.879
278.867
278.856
278.846
278.842
278.845
278.839
278.828
278.814
278.795
278.779
278.767
278.756
278.747
278.744
278.753
278.753
278.744
278.731
278.715
278.696
278.683
278.672
278.661
278.653
278.654
278.659
278.652
278.641
278.627
278.608
278.592
278.58
278.569
278.558
278.547
278.536
278.527
278.522
278.529
278.532
278.523
278.511
278.497
278.48
278.467
278.456
278.446
278.437
278.436
278.43
278.419
278.406
278.392
278.379
278.368
278.358
278.351
278.354
278.352
278.342
278.329
278.312
278.295
278.283
278.272
278.263
278.258
278.263
278.262
278.251
278.239
278.223
278.206
278.194
278.183
278.173
278.167
278.171
278.17
278.159
278.147
278.133
278.122
278.111
278.1
278.093
278.085
278.074
278.063
278.052
278.041
278.03
278.022
278.021
278.025
278.018
278.006
277.992
277.97
277.951
277.938
277.927
277.917
277.909
277.911
277.921
277.92
277.909
277.897
277.879
277.857
277.842
277.831
277.82
277.81
277.804
277.809
277.811
277.802
277.79
277.776
277.762
277.751
277.741
277.732
277.729
277.722
277.711
277.699
277.683
277.669
277.658
277.648
277.64
277.643
277.652
277.647
277.636
277.622
277.602
277.579
277.565
277.553
277.543
277.534
277.532
277.541
277.541
277.531
277.519
277.503
277.482
277.468
277.457
277.446
277.437
277.434
277.439
277.435
277.424
277.411
277.394
277.38
277.369
277.358
277.349
277.347
277.351
277.346
277.335
277.322
277.307
277.295
277.284
277.273
277.263
277.254
277.244
277.233
277.222
277.211
277.202
277.197
277.2
277.194
277.183
277.17
277.154
277.142
277.131
277.121
277.113
277.114
277.111
277.1
277.088
277.073
277.06
277.049
277.039
277.032
277.032
277.029
277.018
277.006
276.991
276.979
276.968
276.958
276.95
276.95
276.945
276.935
276.923
276.91
276.899
276.888
276.878
276.869
276.859
276.849
276.838
276.827
276.818
276.813
276.814
276.807
276.796
276.783
276.769
276.758
276.747
276.737
276.733
276.73
276.72
276.709
276.697
276.685
276.675
276.665
276.659
276.658
276.65
276.639
276.627
276.616
276.606
276.596
276.587
276.578
276.567
276.556
276.545
276.534
276.524
276.516
276.516
276.515
276.505
276.493
276.477
276.462
276.451
276.44
276.431
276.426
276.431
276.427
276.416
276.404
276.391
276.379
276.368
276.358
276.349
276.339
276.329
276.318
276.307
276.296
276.286
276.277
276.274
276.278
276.272
276.261
276.248
276.232
276.218
276.207
276.197
276.188
276.187
276.185
276.174
276.162
276.145
276.125
276.112
276.101
276.091
276.083
276.086
276.098
276.097
276.087
276.075
276.058
276.035
276.019
276.007
275.997
275.987
275.98
275.982
275.987
275.98
275.969
275.955
275.937
275.923
275.911
275.901
275.892
275.887
275.892
275.889
275.879
275.867
275.85
275.832
275.819
275.808
275.798
275.787
275.776
275.766
275.759
275.76
275.768
275.762
275.752
275.739
275.724
275.71
275.699
275.689
275.68
275.673
275.665
275.654
275.643
275.629
275.613
275.6
275.589
275.578
275.57
275.567
275.577
275.583
275.575
275.564
275.55
275.531
275.515
275.503
275.492
275.482
275.475
275.471
275.464
275.453
275.441
275.425
275.41
275.398
275.388
275.379
275.375
275.383
275.39
275.383
275.372
275.358
275.338
275.319
275.307
275.296
275.285
275.276
275.272
275.275
275.27
275.259
275.247
275.231
275.218
275.207
275.197
275.189
275.188
275.188
275.179
275.167
275.153
275.136
275.124
275.114
275.104
275.097
275.099
275.098
275.088
275.076
275.061
275.046
275.034
275.024
275.014
275.008
275.011
275.008
274.997
274.985
274.97
274.955
274.944
274.934
274.924
274.918
274.92
274.914
274.903
274.891
274.877
274.864
274.853
274.843
274.832
274.821
274.81
274.8
274.791
274.788
274.792
274.787
274.776
274.764
274.75
274.737
274.726
274.716
274.707
274.704
274.707
274.701
274.689
274.676
274.659
274.643
274.631
274.62
274.609
274.599
274.588
274.579
274.572
274.575
274.58
274.573
274.562
274.549
274.53
274.513
274.501
274.491
274.481
274.473
274.473
274.477
274.47
274.459
274.446
274.428
274.414
274.403
274.392
274.383
274.377
274.382
274.38
274.37
274.359
274.344
274.328
274.315
274.304
274.294
274.283
274.272
274.262
274.252
274.244
274.243
274.247
274.241
274.23
274.217
274.201
274.187
274.175
274.165
274.155
274.149
274.15
274.146
274.135
274.123
274.11
274.098
274.088
274.078
274.071
274.073
274.068
274.058
274.046
274.029
274.012
274
273.989
273.979
273.968
273.957
273.947
273.939
273.936
273.945
273.946
273.936
273.925
273.91
273.89
273.874
273.863
273.852
273.842
273.835
273.838
273.845
273.84
273.829
273.816
273.799
273.78
273.767
273.756
273.745
273.735
273.724
273.713
273.703
273.692
273.683
273.678
273.683
273.687
273.679
273.668
273.655
273.636
273.617
273.605
273.594
273.584
273.575
273.573
273.582
273.583
273.574
273.563
273.549
273.531
273.516
273.504
273.494
273.483
273.472
273.462
273.451
273.441
273.43
273.421
273.414
273.416
273.42
273.413
273.402
273.389
273.371
273.355
273.343
273.333
273.323
273.315
273.315
273.319
273.311
273.3
273.287
273.27
273.255
273.244
273.234
273.225
273.218
273.222
273.221
273.211
273.2
273.186
273.171
273.16
273.149
273.139
273.13
273.122
273.113
273.103
273.092
273.082
273.072
273.063
273.062
273.064
273.056
273.045
273.032
273.015
273
272.989
272.978
272.968
272.957
272.947
272.938
272.934
272.939
272.936
272.926
272.915
272.9
272.885
272.874
272.863
272.853
272.844
272.84
272.843
272.838
272.828
272.816
272.802
272.79
272.779
272.768
272.759
272.752
272.743
272.733
272.722
272.711
272.698
272.686
272.675
272.664
272.654
272.645
272.638
272.642
272.648
272.642
272.631
272.619
272.602
272.584
272.572
272.561
272.551
272.542
272.536
272.537
272.532
272.521
272.51
272.496
272.484
272.473
272.463
272.455
272.454
272.452
272.442
272.431
272.417
272.402
272.39
272.379
272.369
272.361
272.359
272.359
272.35
272.339
272.326
272.314
272.304
272.293
272.284
272.278
272.27
272.26
272.249
272.238
272.227
272.217
272.207
272.199
272.198
272.198
272.188
272.177
272.163
272.147
272.134
272.123
272.113
272.104
272.101
272.105
272.099
272.088
272.076
272.061
272.047
272.037
272.026
272.018
272.014
272.02
272.018
272.008
271.996
271.981
271.958
271.939
271.927
271.916
271.905
271.895
271.884
271.874
271.865
271.858
271.862
271.876
271.876
271.866
271.855
271.841
271.82
271.799
271.786
271.776
271.765
271.756
271.748
271.749
271.753
271.746
271.735
271.722
271.706
271.691
271.68
271.669
271.66
271.652
271.652
271.651
271.642
271.631
271.618
271.603
271.591
271.581
271.571
271.562
271.561
271.561
271.552
271.541
271.529
271.517
271.506
271.496
271.487
271.482
271.478
271.468
271.457
271.444
271.426
271.411
271.399
271.389
271.378
271.368
271.359
271.356
271.365
271.371
271.363
271.352
271.34
271.321
271.299
271.286
271.275
271.264
271.255
271.247
271.247
271.254
271.249
271.238
271.227
271.211
271.193
271.181
271.171
271.16
271.152
271.148
271.153
271.152
271.142
271.131
271.117
271.098
271.084
271.072
271.062
271.051
271.041
271.031
271.02
271.01
271.001
270.997
271.004
271.004
270.995
270.984
270.97
270.951
270.934
270.923
270.912
270.902
270.894
270.891
270.897
270.894
270.884
270.872
270.858
270.84
270.826
270.816
270.805
270.796
270.789
270.791
270.79
270.78
270.769
270.756
270.742
270.73
270.72
270.71
270.702
270.699
270.694
270.684
270.673
270.659
270.644
270.632
270.622
270.612
270.605
270.606
270.613
270.607
270.597
270.585
270.569
270.547
270.533
270.522
270.512
270.502
270.494
270.494
270.499
270.493
270.483
270.471
270.455
270.441
270.43
270.419
270.41
270.402
270.404
270.408
270.401
270.39
270.378
270.36
270.339
270.325
270.315
270.304
270.294
270.283
270.273
270.263
270.254
270.251
270.258
270.261
270.253
270.242
270.229
270.211
270.193
270.181
270.171
270.16
270.151
270.144
270.145
270.146
270.138
270.127
270.115
270.102
270.091
270.081
270.071
270.064
270.064
270.061
270.051
270.04
270.026
270.006
269.989
269.978
269.968
269.957
269.947
269.937
269.929
269.926
269.934
269.935
269.927
269.916
269.903
269.885
269.868
269.856
269.846
269.835
269.826
269.819
269.821
269.82
269.811
269.8
269.787
269.773
269.761
269.751
269.741
269.732
269.729
269.729
269.721
269.71
269.698
269.685
269.674
269.664
269.654
269.645
269.638
269.629
269.618
269.608
269.597
269.586
269.575
269.565
269.556
269.549
269.55
269.55
269.541
269.53
269.518
269.503
269.491
269.48
269.47
269.459
269.449
269.439
269.428
269.418
269.41
269.404
269.408
269.406
269.397
269.386
269.373
269.36
269.349
269.339
269.329
269.321
269.315
269.306
269.296
269.285
269.272
269.257
269.245
269.235
269.225
269.216
269.212
269.219
269.221
269.213
269.202
269.189
269.17
269.15
269.137
269.127
269.117
269.108
269.101
269.104
269.109
269.102
269.091
269.079
269.063
269.044
269.031
269.021
269.011
269.001
268.994
268.997
268.999
268.991
268.98
268.968
268.951
268.936
268.925
268.915
268.905
268.896
268.894
268.897
268.89
268.88
268.869
268.855
268.841
268.831
268.821
268.811
268.805
268.806
268.804
268.795
268.784
268.77
268.749
268.728
268.715
268.705
268.694
268.684
268.674
268.665
268.659
268.663
268.677
268.675
268.666
268.655
268.642
268.622
268.599
268.586
268.575
268.565
268.555
268.547
268.544
268.551
268.551
268.542
268.531
268.518
268.501
268.485
268.474
268.463
268.453
268.444
268.437
268.439
268.438
268.428
268.417
268.405
268.392
268.382
268.371
268.361
268.352
268.344
268.336
268.326
268.316
268.306
268.295
268.286
268.278
268.272
268.263
268.252
268.242
268.232
268.222
268.212
268.203
268.198
268.196
268.187
268.176
268.165
268.151
268.138
268.127
268.117
268.107
268.1
268.1
268.104
268.097
268.086
268.075
268.059
268.042
268.03
268.02
268.01
268.001
267.995
267.998
267.997
267.987
267.977
267.964
267.948
267.936
267.925
267.915
267.906
267.898
267.899
267.897
267.888
267.878
267.865
267.849
267.835
267.825
267.814
267.805
267.797
267.796
267.792
267.782
267.771
267.758
267.739
267.723
267.711
267.701
267.692
267.683
267.681
267.692
267.698
267.69
267.68
267.668
267.652
267.628
267.611
267.6
267.59
267.579
267.57
267.564
267.567
267.573
267.566
267.556
267.545
267.53
267.512
267.499
267.489
267.479
267.469
267.462
267.463
267.467
267.461
267.45
267.439
267.424
267.403
267.388
267.378
267.367
267.357
267.347
267.338
267.33
267.331
267.333
267.326
267.316
267.304
267.289
267.272
267.26
267.25
267.24
267.231
267.226
267.232
267.235
267.227
267.216
267.204
267.187
267.164
267.15
267.139
267.129
267.119
267.111
267.109
267.116
267.116
267.107
267.096
267.084
267.066
267.047
267.035
267.025
267.015
267.006
266.998
266.998
267.002
266.996
266.985
266.974
266.96
266.944
266.932
266.922
266.912
266.903
266.896
266.897
266.902
266.896
266.886
266.875
266.864
266.85
266.829
266.81
266.798
266.788
266.777
266.767
266.757
266.747
266.737
266.727
266.719
266.715
266.723
266.73
266.723
266.713
266.701
266.687
266.665
266.648
266.637
266.627
266.617
266.607
266.6
266.602
266.607
266.601
266.59
266.579
266.565
266.547
266.534
266.523
266.513
266.504
266.495
266.492
266.495
266.488
266.478
266.467
266.454
266.438
266.427
266.417
266.407
266.397
266.39
266.389
266.386
266.376
266.366
266.354
266.343
266.332
266.322
266.312
266.303
266.296
266.288
266.278
266.267
266.257
266.247
266.237
266.228
266.222
266.221
266.215
266.205
266.195
266.183
266.17
266.159
266.149
266.139
266.13
266.121
266.117
266.116
266.108
266.098
266.088
266.077
266.063
266.047
266.035
266.025
266.015
266.005
265.995
265.985
265.976
265.971
265.975
265.975
265.966
265.955
265.943
265.928
265.912
265.901
265.891
265.881
265.872
265.866
265.869
265.869
265.86
265.849
265.837
265.821
265.805
265.794
265.783
265.773
265.764
265.758
265.759
265.758
265.749
265.738
265.727
265.711
265.697
265.687
265.677
265.667
265.658
265.653
265.654
265.648
265.638
265.627
265.616
265.604
265.594
265.584
265.575
265.57
265.572
265.569
265.559
265.548
265.535
265.516
265.494
265.48
265.47
265.46
265.45
265.44
265.43
265.42
265.411
265.405
265.41
265.423
265.42
265.411
265.4
265.388
265.37
265.346
265.33
265.32
265.31
265.3
265.291
265.284
265.286
265.294
265.289
265.279
265.268
265.255
265.238
265.224
265.213
265.203
265.193
265.185
265.179
265.18
265.174
265.164
265.153
265.14
265.119
265.1
265.088
265.077
265.067
265.058
265.049
265.044
265.049
265.062
265.058
265.048
265.038
265.025
265.007
264.984
264.97
264.959
264.949
264.939
264.93
264.924
264.927
264.933
264.928
264.918
264.907
264.894
264.878
264.866
264.856
264.846
264.836
264.828
264.822
264.814
264.804
264.794
264.783
264.768
264.752
264.74
264.73
264.72
264.711
264.704
264.705
264.715
264.711
264.702
264.691
264.679
264.661
264.642
264.629
264.619
264.609
264.599
264.59
264.585
264.589
264.587
264.577
264.567
264.555
264.54
264.526
264.516
264.506
264.496
264.486
264.48
264.479
264.475
264.465
264.455
264.444
264.433
264.423
264.413
264.404
264.399
264.396
264.388
264.378
264.367
264.353
264.331
264.312
264.3
264.29
264.28
264.27
264.26
264.252
264.248
264.258
264.27
264.265
264.255
264.245
264.232
264.214
264.188
264.172
264.161
264.151
264.141
264.131
264.122
264.117
264.122
264.122
264.114
264.103
264.092
264.079
264.066
264.055
264.045
264.036
264.027
264.021
264.015
264.006
263.996
263.986
263.975
263.963
263.953
263.943
263.933
263.925
263.921
263.922
263.916
263.906
263.895
263.882
263.866
263.854
263.843
263.833
263.824
263.816
263.812
263.815
263.81
263.8
263.79
263.778
263.764
263.752
263.742
263.732
263.723
263.713
263.704
263.695
263.685
263.675
263.666
263.656
263.646
263.638
263.635
263.63
263.621
263.611
263.601
263.589
263.577
263.567
263.557
263.548
263.539
263.533
263.533
263.528
263.519
263.508
263.497
263.484
263.474
263.464
263.454
263.445
263.438
263.437
263.432
263.423
263.412
263.401
263.385
263.368
263.357
263.347
263.337
263.327
263.317
263.307
263.298
263.291
263.292
263.297
263.292
263.282
263.272
263.26
263.244
263.23
263.219
263.21
263.2
263.19
263.182
263.178
263.175
263.166
263.157
263.146
263.136
263.125
263.115
263.106
263.096
263.087
263.079
263.07
263.06
263.05
263.04
263.031
263.021
263.012
263.004
263.002
263.007
263.002
262.992
262.982
262.972
262.961
262.947
262.927
262.909
262.897
262.887
262.877
262.867
262.858
262.848
262.838
262.829
262.821
262.819
262.829
262.83
262.821
262.811
262.801
262.787
262.768
262.752
262.742
262.732
262.722
262.713
262.705
262.702
262.704
262.698
262.688
262.678
262.666
262.651
262.639
262.628
262.619
262.609
262.6
262.594
262.597
262.597
262.589
262.579
262.569
262.559
262.548
262.536
262.518
262.498
262.486
262.476
262.466
262.456
262.447
262.437
262.427
262.418
262.409
262.403
262.406
262.415
262.41
262.4
262.39
262.378
262.362
262.344
262.331
262.321
262.312
262.302
262.294
262.289
262.292
262.291
262.282
262.272
262.261
262.246
262.227
262.214
262.204
262.194
262.184
262.175
262.168
262.168
262.173
262.166
262.157
262.147
262.135
262.122
262.111
262.101
262.091
262.082
262.072
262.063
262.053
262.043
262.034
262.024
262.013
262.001
261.99
261.98
261.97
261.96
261.95
261.941
261.932
261.925
261.927
261.932
261.927
261.917
261.907
261.895
261.879
261.86
261.848
261.838
261.828
261.818
261.81
261.804
261.808
261.807
261.799
261.789
261.778
261.764
261.747
261.734
261.724
261.714
261.705
261.696
261.689
261.691
261.693
261.685
261.676
261.666
261.654
261.641
261.63
261.62
261.61
261.6
261.59
261.581
261.57
261.559
261.544
261.529
261.518
261.509
261.499
261.489
261.481
261.474
261.477
261.487
261.484
261.474
261.464
261.453
261.439
261.419
261.405
261.394
261.385
261.375
261.366
261.36
261.362
261.369
261.363
261.354
261.344
261.332
261.316
261.291
261.273
261.262
261.252
261.242
261.232
261.223
261.213
261.204
261.196
261.192
261.2
261.205
261.198
261.189
261.178
261.167
261.15
261.132
261.12
261.11
261.1
261.09
261.082
261.075
261.075
261.075
261.067
261.057
261.047
261.035
261.02
261.009
260.999
260.989
260.98
260.971
260.966
260.964
260.957
260.947
260.937
260.926
260.91
260.892
260.88
260.87
260.86
260.851
260.841
260.833
260.827
260.832
260.837
260.83
260.82
260.81
260.799
260.784
260.768
260.757
260.748
260.738
260.729
260.72
260.714
260.711
260.703
260.693
260.684
260.673
260.661
260.649
260.639
260.63
260.62
260.612
260.607
260.611
260.609
260.6
260.591
260.58
260.567
260.55
260.535
260.525
260.515
260.505
260.496
260.486
260.477
260.467
260.458
260.45
260.448
260.448
260.441
260.431
260.421
260.41
260.396
260.382
260.372
260.363
260.353
260.344
260.335
260.33
260.327
260.319
260.309
260.299
260.29
260.28
260.271
260.262
260.255
260.247
260.237
260.228
260.218
260.208
260.198
260.188
260.178
260.169
260.159
260.152
260.149
260.147
260.139
260.129
260.119
260.108
260.096
260.086
260.076
260.067
260.058
260.051
260.046
260.038
260.028
260.019
260.008
259.995
259.977
259.964
259.953
259.944
259.934
259.925
259.917
259.913
259.92
259.924
259.917
259.908
259.898
259.886
259.871
259.85
259.836
259.826
259.816
259.806
259.797
259.789
259.783
259.784
259.781
259.772
259.763
259.753
259.742
259.732
259.722
259.713
259.704
259.695
259.687
259.678
259.668
259.659
259.649
259.638
259.628
259.619
259.609
259.6
259.592
259.587
259.584
259.576
259.567
259.557
259.546
259.533
259.521
259.511
259.501
259.492
259.483
259.476
259.475
259.47
259.461
259.451
259.441
259.429
259.415
259.405
259.395
259.385
259.376
259.368
259.364
259.362
259.353
259.344
259.334
259.324
259.311
259.3
259.29
259.281
259.271
259.263
259.256
259.256
259.252
259.243
259.233
259.223
259.213
259.204
259.194
259.185
259.176
259.166
259.157
259.147
259.138
259.128
259.116
259.1
259.086
259.075
259.065
259.056
259.046
259.037
259.028
259.02
259.016
259.023
259.024
259.017
259.007
258.997
258.986
258.972
258.954
258.942
258.933
258.923
258.914
258.904
258.896
258.893
258.892
258.884
258.875
258.865
258.855
258.845
258.836
258.826
258.817
258.809
258.805
258.804
258.796
258.787
258.777
258.766
258.751
258.727
258.71
258.699
258.689
258.68
258.67
258.661
258.652
258.644
258.64
258.648
258.653
258.646
258.636
258.626
258.616
258.602
258.583
258.57
258.559
258.55
258.54
258.531
258.523
258.519
258.52
258.514
258.505
258.495
258.485
258.473
258.458
258.448
258.438
258.429
258.419
258.411
258.405
258.402
258.395
258.386
258.376
258.366
258.355
258.342
258.332
258.323
258.313
258.304
258.296
258.292
258.292
258.284
258.275
258.265
258.255
258.243
258.229
258.217
258.207
258.198
258.188
258.179
258.17
258.16
258.151
258.143
258.137
258.136
258.131
258.122
258.112
258.102
258.091
258.078
258.067
258.057
258.048
258.038
258.03
258.023
258.021
258.015
258.005
257.996
257.986
257.975
257.963
257.952
257.943
257.933
257.924
257.916
257.911
257.907
257.899
257.89
257.88
257.87
257.859
257.848
257.838
257.829
257.819
257.81
257.803
257.799
257.792
257.783
257.774
257.764
257.754
257.744
257.735
257.725
257.716
257.707
257.699
257.693
257.686
257.676
257.667
257.658
257.648
257.639
257.629
257.62
257.61
257.601
257.591
257.582
257.573
257.563
257.554
257.545
257.539
257.537
257.53
257.521
257.511
257.502
257.493
257.483
257.473
257.463
257.454
257.444
257.435
257.425
257.416
257.406
257.396
257.385
257.371
257.359
257.349
257.34
257.33
257.321
257.312
257.304
257.301
257.307
257.306
257.298
257.289
257.279
257.268
257.254
257.24
257.229
257.219
257.21
257.201
257.193
257.188
257.191
257.191
257.183
257.174
257.164
257.153
257.137
257.111
257.087
257.075
257.065
257.056
257.046
257.037
257.028
257.019
257.012
257.013
257.026
257.028
257.02
257.01
257.001
256.991
256.978
256.958
256.941
256.93
256.921
256.911
256.902
256.893
256.887
256.887
256.885
256.877
256.868
256.858
256.848
256.835
256.82
256.81
256.8
256.791
256.782
256.773
256.767
256.765
256.759
256.75
256.74
256.731
256.72
256.709
256.699
256.689
256.68
256.671
256.663
256.657
256.659
256.659
256.651
256.641
256.632
256.623
256.613
256.601
256.586
256.561
256.542
256.531
256.521
256.512
256.503
256.493
256.484
256.475
256.466
256.459
256.458
256.468
256.469
256.461
256.452
256.442
256.432
256.419
256.401
256.385
256.375
256.366
256.356
256.347
256.339
256.333
256.336
256.334
256.325
256.316
256.306
256.296
256.282
256.264
256.251
256.241
256.232
256.222
256.213
256.205
256.199
256.201
256.199
256.191
256.182
256.173
256.163
256.154
256.145
256.136
256.127
256.118
256.108
256.099
256.089
256.078
256.064
256.042
256.026
256.016
256.006
255.997
255.988
255.979
255.972
255.969
255.979
255.983
255.975
255.966
255.957
255.947
255.935
255.918
255.9
255.889
255.88
255.87
255.861
255.853
255.845
255.844
255.843
255.835
255.826
255.817
255.807
255.795
255.781
255.77
255.76
255.751
255.742
255.733
255.726
255.722
255.717
255.708
255.699
255.689
255.679
255.668
255.657
255.648
255.638
255.629
255.62
255.613
255.609
255.604
255.596
255.587
255.577
255.568
255.558
255.548
255.538
255.528
255.519
255.51
255.501
255.491
255.482
255.473
255.464
255.454
255.444
255.434
255.424
255.414
255.405
255.396
255.387
255.378
255.37
255.366
255.363
255.355
255.346
255.337
255.328
255.319
255.309
255.3
255.291
255.282
255.275
255.271
255.265
255.256
255.247
255.238
255.228
255.216
255.199
255.18
255.169
255.159
255.15
255.14
255.131
255.122
255.114
255.107
255.107
255.112
255.107
255.098
255.089
255.08
255.069
255.057
255.041
255.03
255.02
255.011
255.002
254.993
254.985
254.98
254.974
254.966
254.957
254.947
254.938
254.928
254.918
254.908
254.899
254.89
254.881
254.872
254.865
254.86
254.852
254.843
254.834
254.825
254.816
254.806
254.798
254.79
254.784
254.78
254.772
254.762
254.753
254.744
254.734
254.722
254.704
254.688
254.678
254.669
254.659
254.65
254.641
254.632
254.623
254.615
254.612
254.615
254.612
254.603
254.594
254.585
254.575
254.564
254.549
254.538
254.528
254.519
254.51
254.501
254.493
254.487
254.482
254.474
254.465
254.456
254.446
254.437
254.427
254.417
254.408
254.399
254.39
254.381
254.374
254.368
254.36
254.351
254.341
254.332
254.323
254.314
254.304
254.295
254.286
254.276
254.267
254.259
254.251
254.245
254.238
254.23
254.22
254.211
254.202
254.193
254.184
254.174
254.165
254.155
254.143
254.13
254.12
254.111
254.101
254.092
254.083
254.074
254.066
254.061
254.059
254.052
254.043
254.034
254.025
254.015
254.005
253.995
253.985
253.976
253.967
253.958
253.95
253.944
253.946
253.944
253.936
253.927
253.918
253.909
253.899
253.886
253.866
253.841