/*--------------------------------*- C++ -*----------------------------------*\
  =========                 |
  \\      /  F ield         | OpenFOAM: The Open Source CFD Toolbox
   \\    /   O peration     | Website:  https://openfoam.org
    \\  /    A nd           | Version:  9
     \\/     M anipulation  |
\*---------------------------------------------------------------------------*/
FoamFile
{
    format      ascii;
    class       volVectorField;
    location    "0.031";
    object      U;
}
// * * * * * * * * * * * * * * * * * * * * * * * * * * * * * * * * * * * * * //

dimensions      [0 1 -1 0 0 0 0];

internalField   nonuniform List<vector> 
10000
(
(182.311 0 0)
(182.353 0 0)
(182.378 0 0)
(182.405 0 0)
(182.431 0 0)
(182.458 0 0)
(182.484 0 0)
(182.511 0 0)
(182.537 0 0)
(182.563 0 0)
(182.59 0 0)
(182.616 0 0)
(182.642 0 0)
(182.669 0 0)
(182.695 0 0)
(182.722 0 0)
(182.749 0 0)
(182.775 0 0)
(182.802 0 0)
(182.829 0 0)
(182.855 0 0)
(182.881 0 0)
(182.908 0 0)
(182.934 0 0)
(182.96 0 0)
(182.987 0 0)
(183.013 0 0)
(183.039 0 0)
(183.066 0 0)
(183.092 0 0)
(183.118 0 0)
(183.145 0 0)
(183.171 0 0)
(183.198 0 0)
(183.224 0 0)
(183.25 0 0)
(183.277 0 0)
(183.303 0 0)
(183.33 0 0)
(183.356 0 0)
(183.382 0 0)
(183.409 0 0)
(183.435 0 0)
(183.462 0 0)
(183.488 0 0)
(183.514 0 0)
(183.541 0 0)
(183.567 0 0)
(183.594 0 0)
(183.62 0 0)
(183.647 0 0)
(183.673 0 0)
(183.699 0 0)
(183.726 0 0)
(183.752 0 0)
(183.779 0 0)
(183.805 0 0)
(183.832 0 0)
(183.858 0 0)
(183.885 0 0)
(183.911 0 0)
(183.938 0 0)
(183.964 0 0)
(183.991 0 0)
(184.017 0 0)
(184.044 0 0)
(184.07 0 0)
(184.097 0 0)
(184.123 0 0)
(184.15 0 0)
(184.176 0 0)
(184.202 0 0)
(184.229 0 0)
(184.255 0 0)
(184.282 0 0)
(184.308 0 0)
(184.335 0 0)
(184.361 0 0)
(184.387 0 0)
(184.414 0 0)
(184.44 0 0)
(184.467 0 0)
(184.493 0 0)
(184.52 0 0)
(184.546 0 0)
(184.573 0 0)
(184.599 0 0)
(184.625 0 0)
(184.652 0 0)
(184.678 0 0)
(184.705 0 0)
(184.731 0 0)
(184.758 0 0)
(184.784 0 0)
(184.811 0 0)
(184.837 0 0)
(184.863 0 0)
(184.89 0 0)
(184.916 0 0)
(184.943 0 0)
(184.969 0 0)
(184.995 0 0)
(185.022 0 0)
(185.048 0 0)
(185.075 0 0)
(185.101 0 0)
(185.127 0 0)
(185.154 0 0)
(185.18 0 0)
(185.207 0 0)
(185.233 0 0)
(185.259 0 0)
(185.286 0 0)
(185.312 0 0)
(185.338 0 0)
(185.365 0 0)
(185.392 0 0)
(185.418 0 0)
(185.444 0 0)
(185.47 0 0)
(185.496 0 0)
(185.523 0 0)
(185.55 0 0)
(185.577 0 0)
(185.603 0 0)
(185.629 0 0)
(185.655 0 0)
(185.681 0 0)
(185.707 0 0)
(185.734 0 0)
(185.761 0 0)
(185.788 0 0)
(185.814 0 0)
(185.84 0 0)
(185.866 0 0)
(185.892 0 0)
(185.919 0 0)
(185.946 0 0)
(185.974 0 0)
(186.001 0 0)
(186.026 0 0)
(186.051 0 0)
(186.077 0 0)
(186.103 0 0)
(186.13 0 0)
(186.158 0 0)
(186.185 0 0)
(186.212 0 0)
(186.237 0 0)
(186.262 0 0)
(186.288 0 0)
(186.314 0 0)
(186.341 0 0)
(186.369 0 0)
(186.397 0 0)
(186.424 0 0)
(186.45 0 0)
(186.475 0 0)
(186.5 0 0)
(186.526 0 0)
(186.552 0 0)
(186.579 0 0)
(186.607 0 0)
(186.635 0 0)
(186.662 0 0)
(186.687 0 0)
(186.712 0 0)
(186.738 0 0)
(186.764 0 0)
(186.792 0 0)
(186.819 0 0)
(186.846 0 0)
(186.872 0 0)
(186.897 0 0)
(186.922 0 0)
(186.95 0 0)
(186.978 0 0)
(187.006 0 0)
(187.031 0 0)
(187.055 0 0)
(187.079 0 0)
(187.104 0 0)
(187.135 0 0)
(187.169 0 0)
(187.196 0 0)
(187.218 0 0)
(187.239 0 0)
(187.261 0 0)
(187.284 0 0)
(187.314 0 0)
(187.353 0 0)
(187.385 0 0)
(187.407 0 0)
(187.427 0 0)
(187.448 0 0)
(187.469 0 0)
(187.493 0 0)
(187.525 0 0)
(187.564 0 0)
(187.595 0 0)
(187.617 0 0)
(187.638 0 0)
(187.66 0 0)
(187.682 0 0)
(187.707 0 0)
(187.736 0 0)
(187.769 0 0)
(187.802 0 0)
(187.83 0 0)
(187.854 0 0)
(187.876 0 0)
(187.899 0 0)
(187.922 0 0)
(187.946 0 0)
(187.975 0 0)
(188.011 0 0)
(188.045 0 0)
(188.069 0 0)
(188.091 0 0)
(188.112 0 0)
(188.133 0 0)
(188.157 0 0)
(188.182 0 0)
(188.214 0 0)
(188.249 0 0)
(188.28 0 0)
(188.304 0 0)
(188.326 0 0)
(188.349 0 0)
(188.372 0 0)
(188.397 0 0)
(188.428 0 0)
(188.462 0 0)
(188.492 0 0)
(188.515 0 0)
(188.537 0 0)
(188.558 0 0)
(188.58 0 0)
(188.604 0 0)
(188.632 0 0)
(188.668 0 0)
(188.707 0 0)
(188.734 0 0)
(188.756 0 0)
(188.776 0 0)
(188.798 0 0)
(188.82 0 0)
(188.843 0 0)
(188.867 0 0)
(188.895 0 0)
(188.934 0 0)
(188.975 0 0)
(189.001 0 0)
(189.021 0 0)
(189.04 0 0)
(189.06 0 0)
(189.081 0 0)
(189.103 0 0)
(189.128 0 0)
(189.156 0 0)
(189.197 0 0)
(189.245 0 0)
(189.276 0 0)
(189.295 0 0)
(189.312 0 0)
(189.33 0 0)
(189.349 0 0)
(189.368 0 0)
(189.393 0 0)
(189.436 0 0)
(189.482 0 0)
(189.507 0 0)
(189.524 0 0)
(189.538 0 0)
(189.555 0 0)
(189.575 0 0)
(189.599 0 0)
(189.643 0 0)
(189.694 0 0)
(189.721 0 0)
(189.737 0 0)
(189.749 0 0)
(189.765 0 0)
(189.784 0 0)
(189.807 0 0)
(189.85 0 0)
(189.904 0 0)
(189.934 0 0)
(189.951 0 0)
(189.964 0 0)
(189.98 0 0)
(189.999 0 0)
(190.024 0 0)
(190.067 0 0)
(190.113 0 0)
(190.137 0 0)
(190.155 0 0)
(190.174 0 0)
(190.195 0 0)
(190.227 0 0)
(190.264 0 0)
(190.289 0 0)
(190.308 0 0)
(190.326 0 0)
(190.345 0 0)
(190.364 0 0)
(190.398 0 0)
(190.449 0 0)
(190.489 0 0)
(190.509 0 0)
(190.522 0 0)
(190.535 0 0)
(190.553 0 0)
(190.573 0 0)
(190.61 0 0)
(190.662 0 0)
(190.698 0 0)
(190.717 0 0)
(190.729 0 0)
(190.743 0 0)
(190.762 0 0)
(190.784 0 0)
(190.826 0 0)
(190.879 0 0)
(190.909 0 0)
(190.926 0 0)
(190.938 0 0)
(190.953 0 0)
(190.972 0 0)
(190.995 0 0)
(191.039 0 0)
(191.091 0 0)
(191.121 0 0)
(191.138 0 0)
(191.154 0 0)
(191.172 0 0)
(191.194 0 0)
(191.227 0 0)
(191.267 0 0)
(191.293 0 0)
(191.312 0 0)
(191.332 0 0)
(191.354 0 0)
(191.391 0 0)
(191.434 0 0)
(191.46 0 0)
(191.478 0 0)
(191.492 0 0)
(191.509 0 0)
(191.528 0 0)
(191.553 0 0)
(191.599 0 0)
(191.651 0 0)
(191.679 0 0)
(191.695 0 0)
(191.705 0 0)
(191.72 0 0)
(191.739 0 0)
(191.763 0 0)
(191.808 0 0)
(191.861 0 0)
(191.888 0 0)
(191.904 0 0)
(191.915 0 0)
(191.929 0 0)
(191.948 0 0)
(191.973 0 0)
(192.019 0 0)
(192.073 0 0)
(192.101 0 0)
(192.118 0 0)
(192.128 0 0)
(192.142 0 0)
(192.161 0 0)
(192.184 0 0)
(192.227 0 0)
(192.282 0 0)
(192.313 0 0)
(192.33 0 0)
(192.345 0 0)
(192.364 0 0)
(192.385 0 0)
(192.416 0 0)
(192.455 0 0)
(192.481 0 0)
(192.5 0 0)
(192.517 0 0)
(192.536 0 0)
(192.556 0 0)
(192.586 0 0)
(192.637 0 0)
(192.684 0 0)
(192.706 0 0)
(192.721 0 0)
(192.731 0 0)
(192.747 0 0)
(192.767 0 0)
(192.797 0 0)
(192.85 0 0)
(192.902 0 0)
(192.927 0 0)
(192.942 0 0)
(192.947 0 0)
(192.959 0 0)
(192.978 0 0)
(192.999 0 0)
(193.037 0 0)
(193.095 0 0)
(193.138 0 0)
(193.158 0 0)
(193.171 0 0)
(193.179 0 0)
(193.195 0 0)
(193.214 0 0)
(193.241 0 0)
(193.29 0 0)
(193.343 0 0)
(193.369 0 0)
(193.385 0 0)
(193.4 0 0)
(193.418 0 0)
(193.44 0 0)
(193.474 0 0)
(193.516 0 0)
(193.543 0 0)
(193.562 0 0)
(193.578 0 0)
(193.597 0 0)
(193.616 0 0)
(193.646 0 0)
(193.695 0 0)
(193.739 0 0)
(193.76 0 0)
(193.774 0 0)
(193.785 0 0)
(193.803 0 0)
(193.823 0 0)
(193.854 0 0)
(193.907 0 0)
(193.952 0 0)
(193.974 0 0)
(193.989 0 0)
(194.002 0 0)
(194.02 0 0)
(194.041 0 0)
(194.075 0 0)
(194.118 0 0)
(194.147 0 0)
(194.166 0 0)
(194.183 0 0)
(194.2 0 0)
(194.22 0 0)
(194.245 0 0)
(194.291 0 0)
(194.341 0 0)
(194.366 0 0)
(194.382 0 0)
(194.396 0 0)
(194.414 0 0)
(194.434 0 0)
(194.471 0 0)
(194.527 0 0)
(194.572 0 0)
(194.593 0 0)
(194.604 0 0)
(194.606 0 0)
(194.617 0 0)
(194.636 0 0)
(194.657 0 0)
(194.696 0 0)
(194.756 0 0)
(194.804 0 0)
(194.826 0 0)
(194.839 0 0)
(194.844 0 0)
(194.857 0 0)
(194.876 0 0)
(194.898 0 0)
(194.94 0 0)
(194.999 0 0)
(195.038 0 0)
(195.057 0 0)
(195.067 0 0)
(195.071 0 0)
(195.087 0 0)
(195.106 0 0)
(195.133 0 0)
(195.184 0 0)
(195.253 0 0)
(195.298 0 0)
(195.319 0 0)
(195.33 0 0)
(195.327 0 0)
(195.328 0 0)
(195.345 0 0)
(195.365 0 0)
(195.385 0 0)
(195.418 0 0)
(195.478 0 0)
(195.55 0 0)
(195.591 0 0)
(195.61 0 0)
(195.622 0 0)
(195.622 0 0)
(195.632 0 0)
(195.651 0 0)
(195.671 0 0)
(195.701 0 0)
(195.753 0 0)
(195.802 0 0)
(195.825 0 0)
(195.841 0 0)
(195.85 0 0)
(195.866 0 0)
(195.885 0 0)
(195.91 0 0)
(195.956 0 0)
(196.011 0 0)
(196.041 0 0)
(196.058 0 0)
(196.072 0 0)
(196.09 0 0)
(196.11 0 0)
(196.137 0 0)
(196.173 0 0)
(196.204 0 0)
(196.224 0 0)
(196.243 0 0)
(196.262 0 0)
(196.282 0 0)
(196.308 0 0)
(196.354 0 0)
(196.404 0 0)
(196.43 0 0)
(196.446 0 0)
(196.459 0 0)
(196.477 0 0)
(196.496 0 0)
(196.525 0 0)
(196.571 0 0)
(196.609 0 0)
(196.629 0 0)
(196.644 0 0)
(196.657 0 0)
(196.675 0 0)
(196.696 0 0)
(196.731 0 0)
(196.794 0 0)
(196.855 0 0)
(196.885 0 0)
(196.902 0 0)
(196.906 0 0)
(196.9 0 0)
(196.91 0 0)
(196.929 0 0)
(196.949 0 0)
(196.976 0 0)
(197.027 0 0)
(197.099 0 0)
(197.147 0 0)
(197.169 0 0)
(197.183 0 0)
(197.188 0 0)
(197.198 0 0)
(197.217 0 0)
(197.237 0 0)
(197.257 0 0)
(197.278 0 0)
(197.303 0 0)
(197.351 0 0)
(197.41 0 0)
(197.446 0 0)
(197.465 0 0)
(197.479 0 0)
(197.491 0 0)
(197.509 0 0)
(197.529 0 0)
(197.549 0 0)
(197.57 0 0)
(197.607 0 0)
(197.664 0 0)
(197.71 0 0)
(197.733 0 0)
(197.748 0 0)
(197.759 0 0)
(197.777 0 0)
(197.797 0 0)
(197.825 0 0)
(197.868 0 0)
(197.907 0 0)
(197.929 0 0)
(197.948 0 0)
(197.966 0 0)
(197.986 0 0)
(198.011 0 0)
(198.051 0 0)
(198.093 0 0)
(198.117 0 0)
(198.135 0 0)
(198.154 0 0)
(198.173 0 0)
(198.194 0 0)
(198.218 0 0)
(198.244 0 0)
(198.267 0 0)
(198.289 0 0)
(198.311 0 0)
(198.347 0 0)
(198.4 0 0)
(198.442 0 0)
(198.463 0 0)
(198.476 0 0)
(198.487 0 0)
(198.504 0 0)
(198.524 0 0)
(198.553 0 0)
(198.603 0 0)
(198.656 0 0)
(198.682 0 0)
(198.698 0 0)
(198.705 0 0)
(198.716 0 0)
(198.735 0 0)
(198.757 0 0)
(198.795 0 0)
(198.854 0 0)
(198.899 0 0)
(198.92 0 0)
(198.933 0 0)
(198.936 0 0)
(198.949 0 0)
(198.969 0 0)
(198.991 0 0)
(199.036 0 0)
(199.104 0 0)
(199.157 0 0)
(199.181 0 0)
(199.196 0 0)
(199.195 0 0)
(199.192 0 0)
(199.206 0 0)
(199.226 0 0)
(199.248 0 0)
(199.288 0 0)
(199.356 0 0)
(199.418 0 0)
(199.449 0 0)
(199.467 0 0)
(199.475 0 0)
(199.48 0 0)
(199.496 0 0)
(199.516 0 0)
(199.537 0 0)
(199.558 0 0)
(199.582 0 0)
(199.609 0 0)
(199.635 0 0)
(199.659 0 0)
(199.693 0 0)
(199.745 0 0)
(199.798 0 0)
(199.823 0 0)
(199.84 0 0)
(199.85 0 0)
(199.862 0 0)
(199.881 0 0)
(199.902 0 0)
(199.934 0 0)
(199.983 0 0)
(200.022 0 0)
(200.043 0 0)
(200.058 0 0)
(200.073 0 0)
(200.092 0 0)
(200.113 0 0)
(200.149 0 0)
(200.201 0 0)
(200.236 0 0)
(200.256 0 0)
(200.268 0 0)
(200.281 0 0)
(200.3 0 0)
(200.321 0 0)
(200.356 0 0)
(200.412 0 0)
(200.456 0 0)
(200.478 0 0)
(200.491 0 0)
(200.498 0 0)
(200.513 0 0)
(200.533 0 0)
(200.556 0 0)
(200.6 0 0)
(200.658 0 0)
(200.694 0 0)
(200.712 0 0)
(200.724 0 0)
(200.733 0 0)
(200.751 0 0)
(200.771 0 0)
(200.8 0 0)
(200.85 0 0)
(200.898 0 0)
(200.922 0 0)
(200.938 0 0)
(200.948 0 0)
(200.964 0 0)
(200.984 0 0)
(201.009 0 0)
(201.055 0 0)
(201.111 0 0)
(201.143 0 0)
(201.161 0 0)
(201.171 0 0)
(201.183 0 0)
(201.202 0 0)
(201.223 0 0)
(201.259 0 0)
(201.317 0 0)
(201.367 0 0)
(201.391 0 0)
(201.405 0 0)
(201.405 0 0)
(201.404 0 0)
(201.419 0 0)
(201.439 0 0)
(201.46 0 0)
(201.488 0 0)
(201.541 0 0)
(201.617 0 0)
(201.666 0 0)
(201.689 0 0)
(201.704 0 0)
(201.706 0 0)
(201.708 0 0)
(201.725 0 0)
(201.745 0 0)
(201.767 0 0)
(201.807 0 0)
(201.866 0 0)
(201.911 0 0)
(201.932 0 0)
(201.946 0 0)
(201.954 0 0)
(201.969 0 0)
(201.989 0 0)
(202.012 0 0)
(202.053 0 0)
(202.108 0 0)
(202.143 0 0)
(202.162 0 0)
(202.175 0 0)
(202.189 0 0)
(202.209 0 0)
(202.23 0 0)
(202.269 0 0)
(202.326 0 0)
(202.369 0 0)
(202.39 0 0)
(202.403 0 0)
(202.404 0 0)
(202.412 0 0)
(202.431 0 0)
(202.451 0 0)
(202.471 0 0)
(202.493 0 0)
(202.525 0 0)
(202.584 0 0)
(202.651 0 0)
(202.688 0 0)
(202.708 0 0)
(202.719 0 0)
(202.723 0 0)
(202.736 0 0)
(202.756 0 0)
(202.777 0 0)
(202.811 0 0)
(202.869 0 0)
(202.924 0 0)
(202.951 0 0)
(202.968 0 0)
(202.972 0 0)
(202.968 0 0)
(202.98 0 0)
(203 0 0)
(203.02 0 0)
(203.044 0 0)
(203.087 0 0)
(203.156 0 0)
(203.214 0 0)
(203.242 0 0)
(203.259 0 0)
(203.265 0 0)
(203.265 0 0)
(203.279 0 0)
(203.299 0 0)
(203.32 0 0)
(203.355 0 0)
(203.416 0 0)
(203.474 0 0)
(203.504 0 0)
(203.521 0 0)
(203.529 0 0)
(203.535 0 0)
(203.552 0 0)
(203.572 0 0)
(203.596 0 0)
(203.639 0 0)
(203.696 0 0)
(203.73 0 0)
(203.748 0 0)
(203.76 0 0)
(203.77 0 0)
(203.789 0 0)
(203.809 0 0)
(203.837 0 0)
(203.886 0 0)
(203.938 0 0)
(203.963 0 0)
(203.98 0 0)
(203.993 0 0)
(204.01 0 0)
(204.031 0 0)
(204.055 0 0)
(204.092 0 0)
(204.133 0 0)
(204.158 0 0)
(204.178 0 0)
(204.196 0 0)
(204.216 0 0)
(204.237 0 0)
(204.268 0 0)
(204.317 0 0)
(204.357 0 0)
(204.378 0 0)
(204.395 0 0)
(204.409 0 0)
(204.428 0 0)
(204.449 0 0)
(204.479 0 0)
(204.525 0 0)
(204.564 0 0)
(204.586 0 0)
(204.603 0 0)
(204.619 0 0)
(204.638 0 0)
(204.659 0 0)
(204.689 0 0)
(204.734 0 0)
(204.771 0 0)
(204.793 0 0)
(204.81 0 0)
(204.826 0 0)
(204.846 0 0)
(204.867 0 0)
(204.897 0 0)
(204.946 0 0)
(204.986 0 0)
(205.008 0 0)
(205.025 0 0)
(205.04 0 0)
(205.06 0 0)
(205.081 0 0)
(205.116 0 0)
(205.169 0 0)
(205.209 0 0)
(205.229 0 0)
(205.243 0 0)
(205.255 0 0)
(205.273 0 0)
(205.293 0 0)
(205.323 0 0)
(205.375 0 0)
(205.432 0 0)
(205.462 0 0)
(205.479 0 0)
(205.485 0 0)
(205.477 0 0)
(205.486 0 0)
(205.505 0 0)
(205.526 0 0)
(205.547 0 0)
(205.582 0 0)
(205.644 0 0)
(205.73 0 0)
(205.78 0 0)
(205.803 0 0)
(205.819 0 0)
(205.82 0 0)
(205.808 0 0)
(205.816 0 0)
(205.835 0 0)
(205.856 0 0)
(205.876 0 0)
(205.897 0 0)
(205.919 0 0)
(205.951 0 0)
(206.008 0 0)
(206.086 0 0)
(206.133 0 0)
(206.156 0 0)
(206.17 0 0)
(206.171 0 0)
(206.17 0 0)
(206.185 0 0)
(206.206 0 0)
(206.227 0 0)
(206.259 0 0)
(206.314 0 0)
(206.369 0 0)
(206.397 0 0)
(206.414 0 0)
(206.423 0 0)
(206.431 0 0)
(206.449 0 0)
(206.47 0 0)
(206.495 0 0)
(206.542 0 0)
(206.6 0 0)
(206.633 0 0)
(206.652 0 0)
(206.666 0 0)
(206.682 0 0)
(206.702 0 0)
(206.725 0 0)
(206.765 0 0)
(206.815 0 0)
(206.845 0 0)
(206.863 0 0)
(206.873 0 0)
(206.878 0 0)
(206.894 0 0)
(206.915 0 0)
(206.94 0 0)
(206.988 0 0)
(207.058 0 0)
(207.106 0 0)
(207.129 0 0)
(207.144 0 0)
(207.146 0 0)
(207.149 0 0)
(207.166 0 0)
(207.187 0 0)
(207.21 0 0)
(207.252 0 0)
(207.312 0 0)
(207.353 0 0)
(207.374 0 0)
(207.386 0 0)
(207.384 0 0)
(207.388 0 0)
(207.406 0 0)
(207.427 0 0)
(207.452 0 0)
(207.501 0 0)
(207.577 0 0)
(207.634 0 0)
(207.661 0 0)
(207.678 0 0)
(207.683 0 0)
(207.68 0 0)
(207.694 0 0)
(207.714 0 0)
(207.735 0 0)
(207.766 0 0)
(207.823 0 0)
(207.89 0 0)
(207.927 0 0)
(207.946 0 0)
(207.958 0 0)
(207.956 0 0)
(207.961 0 0)
(207.979 0 0)
(207.999 0 0)
(208.02 0 0)
(208.041 0 0)
(208.062 0 0)
(208.087 0 0)
(208.131 0 0)
(208.203 0 0)
(208.265 0 0)
(208.295 0 0)
(208.314 0 0)
(208.323 0 0)
(208.327 0 0)
(208.342 0 0)
(208.363 0 0)
(208.384 0 0)
(208.415 0 0)
(208.461 0 0)
(208.5 0 0)
(208.522 0 0)
(208.538 0 0)
(208.548 0 0)
(208.564 0 0)
(208.584 0 0)
(208.606 0 0)
(208.643 0 0)
(208.703 0 0)
(208.753 0 0)
(208.777 0 0)
(208.793 0 0)
(208.796 0 0)
(208.798 0 0)
(208.815 0 0)
(208.836 0 0)
(208.86 0 0)
(208.903 0 0)
(208.969 0 0)
(209.021 0 0)
(209.046 0 0)
(209.062 0 0)
(209.067 0 0)
(209.071 0 0)
(209.088 0 0)
(209.109 0 0)
(209.131 0 0)
(209.171 0 0)
(209.233 0 0)
(209.284 0 0)
(209.308 0 0)
(209.326 0 0)
(209.339 0 0)
(209.357 0 0)
(209.378 0 0)
(209.401 0 0)
(209.432 0 0)
(209.462 0 0)
(209.485 0 0)
(209.505 0 0)
(209.526 0 0)
(209.546 0 0)
(209.567 0 0)
(209.596 0 0)
(209.649 0 0)
(209.713 0 0)
(209.748 0 0)
(209.767 0 0)
(209.777 0 0)
(209.767 0 0)
(209.763 0 0)
(209.779 0 0)
(209.799 0 0)
(209.821 0 0)
(209.853 0 0)
(209.912 0 0)
(209.995 0 0)
(210.045 0 0)
(210.069 0 0)
(210.085 0 0)
(210.087 0 0)
(210.075 0 0)
(210.083 0 0)
(210.103 0 0)
(210.124 0 0)
(210.146 0 0)
(210.186 0 0)
(210.251 0 0)
(210.311 0 0)
(210.341 0 0)
(210.36 0 0)
(210.371 0 0)
(210.384 0 0)
(210.404 0 0)
(210.425 0 0)
(210.454 0 0)
(210.497 0 0)
(210.533 0 0)
(210.554 0 0)
(210.57 0 0)
(210.577 0 0)
(210.589 0 0)
(210.608 0 0)
(210.63 0 0)
(210.665 0 0)
(210.729 0 0)
(210.806 0 0)
(210.847 0 0)
(210.868 0 0)
(210.881 0 0)
(210.874 0 0)
(210.858 0 0)
(210.869 0 0)
(210.889 0 0)
(210.91 0 0)
(210.937 0 0)
(210.988 0 0)
(211.065 0 0)
(211.12 0 0)
(211.146 0 0)
(211.164 0 0)
(211.169 0 0)
(211.162 0 0)
(211.173 0 0)
(211.193 0 0)
(211.214 0 0)
(211.24 0 0)
(211.287 0 0)
(211.353 0 0)
(211.396 0 0)
(211.418 0 0)
(211.433 0 0)
(211.438 0 0)
(211.448 0 0)
(211.467 0 0)
(211.488 0 0)
(211.515 0 0)
(211.564 0 0)
(211.628 0 0)
(211.669 0 0)
(211.69 0 0)
(211.705 0 0)
(211.715 0 0)
(211.732 0 0)
(211.753 0 0)
(211.775 0 0)
(211.799 0 0)
(211.826 0 0)
(211.848 0 0)
(211.869 0 0)
(211.89 0 0)
(211.912 0 0)
(211.936 0 0)
(211.978 0 0)
(212.037 0 0)
(212.077 0 0)
(212.098 0 0)
(212.112 0 0)
(212.12 0 0)
(212.135 0 0)
(212.155 0 0)
(212.177 0 0)
(212.21 0 0)
(212.264 0 0)
(212.31 0 0)
(212.334 0 0)
(212.351 0 0)
(212.36 0 0)
(212.375 0 0)
(212.396 0 0)
(212.417 0 0)
(212.451 0 0)
(212.505 0 0)
(212.551 0 0)
(212.574 0 0)
(212.591 0 0)
(212.601 0 0)
(212.617 0 0)
(212.637 0 0)
(212.659 0 0)
(212.691 0 0)
(212.743 0 0)
(212.786 0 0)
(212.808 0 0)
(212.826 0 0)
(212.842 0 0)
(212.862 0 0)
(212.883 0 0)
(212.907 0 0)
(212.934 0 0)
(212.959 0 0)
(212.98 0 0)
(213.001 0 0)
(213.023 0 0)
(213.047 0 0)
(213.089 0 0)
(213.144 0 0)
(213.179 0 0)
(213.199 0 0)
(213.214 0 0)
(213.227 0 0)
(213.246 0 0)
(213.267 0 0)
(213.292 0 0)
(213.332 0 0)
(213.377 0 0)
(213.404 0 0)
(213.424 0 0)
(213.441 0 0)
(213.461 0 0)
(213.482 0 0)
(213.505 0 0)
(213.544 0 0)
(213.594 0 0)
(213.625 0 0)
(213.646 0 0)
(213.665 0 0)
(213.685 0 0)
(213.706 0 0)
(213.731 0 0)
(213.76 0 0)
(213.784 0 0)
(213.806 0 0)
(213.827 0 0)
(213.847 0 0)
(213.869 0 0)
(213.89 0 0)
(213.922 0 0)
(213.975 0 0)
(214.026 0 0)
(214.051 0 0)
(214.068 0 0)
(214.077 0 0)
(214.085 0 0)
(214.104 0 0)
(214.125 0 0)
(214.149 0 0)
(214.193 0 0)
(214.256 0 0)
(214.302 0 0)
(214.325 0 0)
(214.342 0 0)
(214.356 0 0)
(214.374 0 0)
(214.395 0 0)
(214.418 0 0)
(214.445 0 0)
(214.471 0 0)
(214.493 0 0)
(214.514 0 0)
(214.535 0 0)
(214.556 0 0)
(214.577 0 0)
(214.604 0 0)
(214.652 0 0)
(214.715 0 0)
(214.754 0 0)
(214.775 0 0)
(214.79 0 0)
(214.795 0 0)
(214.807 0 0)
(214.828 0 0)
(214.849 0 0)
(214.878 0 0)
(214.927 0 0)
(214.975 0 0)
(214.999 0 0)
(215.016 0 0)
(215.02 0 0)
(215.014 0 0)
(215.027 0 0)
(215.047 0 0)
(215.069 0 0)
(215.103 0 0)
(215.165 0 0)
(215.253 0 0)
(215.305 0 0)
(215.33 0 0)
(215.347 0 0)
(215.351 0 0)
(215.336 0 0)
(215.341 0 0)
(215.36 0 0)
(215.381 0 0)
(215.403 0 0)
(215.438 0 0)
(215.499 0 0)
(215.566 0 0)
(215.601 0 0)
(215.621 0 0)
(215.634 0 0)
(215.635 0 0)
(215.645 0 0)
(215.664 0 0)
(215.686 0 0)
(215.71 0 0)
(215.754 0 0)
(215.819 0 0)
(215.867 0 0)
(215.891 0 0)
(215.908 0 0)
(215.913 0 0)
(215.912 0 0)
(215.927 0 0)
(215.948 0 0)
(215.969 0 0)
(215.99 0 0)
(216.012 0 0)
(216.034 0 0)
(216.067 0 0)
(216.126 0 0)
(216.199 0 0)
(216.241 0 0)
(216.263 0 0)
(216.278 0 0)
(216.287 0 0)
(216.301 0 0)
(216.321 0 0)
(216.343 0 0)
(216.369 0 0)
(216.404 0 0)
(216.433 0 0)
(216.455 0 0)
(216.474 0 0)
(216.487 0 0)
(216.492 0 0)
(216.506 0 0)
(216.527 0 0)
(216.548 0 0)
(216.575 0 0)
(216.623 0 0)
(216.707 0 0)
(216.776 0 0)
(216.809 0 0)
(216.829 0 0)
(216.842 0 0)
(216.839 0 0)
(216.844 0 0)
(216.863 0 0)
(216.884 0 0)
(216.907 0 0)
(216.938 0 0)
(216.982 0 0)
(217.014 0 0)
(217.035 0 0)
(217.052 0 0)
(217.059 0 0)
(217.068 0 0)
(217.086 0 0)
(217.108 0 0)
(217.132 0 0)
(217.177 0 0)
(217.256 0 0)
(217.329 0 0)
(217.364 0 0)
(217.384 0 0)
(217.397 0 0)
(217.392 0 0)
(217.388 0 0)
(217.404 0 0)
(217.425 0 0)
(217.446 0 0)
(217.471 0 0)
(217.515 0 0)
(217.576 0 0)
(217.617 0 0)
(217.638 0 0)
(217.654 0 0)
(217.663 0 0)
(217.677 0 0)
(217.698 0 0)
(217.719 0 0)
(217.748 0 0)
(217.799 0 0)
(217.853 0 0)
(217.881 0 0)
(217.9 0 0)
(217.91 0 0)
(217.916 0 0)
(217.933 0 0)
(217.954 0 0)
(217.977 0 0)
(218.012 0 0)
(218.069 0 0)
(218.121 0 0)
(218.147 0 0)
(218.165 0 0)
(218.174 0 0)
(218.182 0 0)
(218.201 0 0)
(218.222 0 0)
(218.245 0 0)
(218.284 0 0)
(218.343 0 0)
(218.39 0 0)
(218.413 0 0)
(218.43 0 0)
(218.439 0 0)
(218.449 0 0)
(218.469 0 0)
(218.49 0 0)
(218.513 0 0)
(218.552 0 0)
(218.608 0 0)
(218.647 0 0)
(218.668 0 0)
(218.685 0 0)
(218.697 0 0)
(218.714 0 0)
(218.734 0 0)
(218.756 0 0)
(218.777 0 0)
(218.799 0 0)
(218.82 0 0)
(218.843 0 0)
(218.869 0 0)
(218.914 0 0)
(218.977 0 0)
(219.019 0 0)
(219.042 0 0)
(219.059 0 0)
(219.07 0 0)
(219.084 0 0)
(219.105 0 0)
(219.127 0 0)
(219.153 0 0)
(219.201 0 0)
(219.262 0 0)
(219.298 0 0)
(219.319 0 0)
(219.334 0 0)
(219.335 0 0)
(219.34 0 0)
(219.358 0 0)
(219.379 0 0)
(219.401 0 0)
(219.422 0 0)
(219.444 0 0)
(219.467 0 0)
(219.504 0 0)
(219.567 0 0)
(219.634 0 0)
(219.669 0 0)
(219.69 0 0)
(219.703 0 0)
(219.702 0 0)
(219.705 0 0)
(219.722 0 0)
(219.744 0 0)
(219.766 0 0)
(219.797 0 0)
(219.853 0 0)
(219.916 0 0)
(219.951 0 0)
(219.972 0 0)
(219.986 0 0)
(219.988 0 0)
(219.998 0 0)
(220.017 0 0)
(220.039 0 0)
(220.063 0 0)
(220.103 0 0)
(220.167 0 0)
(220.219 0 0)
(220.244 0 0)
(220.263 0 0)
(220.273 0 0)
(220.277 0 0)
(220.293 0 0)
(220.314 0 0)
(220.336 0 0)
(220.357 0 0)
(220.379 0 0)
(220.401 0 0)
(220.423 0 0)
(220.453 0 0)
(220.506 0 0)
(220.571 0 0)
(220.607 0 0)
(220.629 0 0)
(220.644 0 0)
(220.649 0 0)
(220.66 0 0)
(220.68 0 0)
(220.702 0 0)
(220.725 0 0)
(220.761 0 0)
(220.817 0 0)
(220.86 0 0)
(220.883 0 0)
(220.901 0 0)
(220.914 0 0)
(220.932 0 0)
(220.954 0 0)
(220.977 0 0)
(221.013 0 0)
(221.069 0 0)
(221.112 0 0)
(221.134 0 0)
(221.151 0 0)
(221.157 0 0)
(221.159 0 0)
(221.176 0 0)
(221.197 0 0)
(221.219 0 0)
(221.24 0 0)
(221.262 0 0)
(221.284 0 0)
(221.312 0 0)
(221.361 0 0)
(221.438 0 0)
(221.495 0 0)
(221.522 0 0)
(221.541 0 0)
(221.551 0 0)
(221.544 0 0)
(221.55 0 0)
(221.569 0 0)
(221.59 0 0)
(221.613 0 0)
(221.647 0 0)
(221.709 0 0)
(221.783 0 0)
(221.823 0 0)
(221.845 0 0)
(221.861 0 0)
(221.864 0 0)
(221.86 0 0)
(221.874 0 0)
(221.895 0 0)
(221.916 0 0)
(221.938 0 0)
(221.96 0 0)
(221.981 0 0)
(222.003 0 0)
(222.025 0 0)
(222.049 0 0)
(222.089 0 0)
(222.157 0 0)
(222.223 0 0)
(222.256 0 0)
(222.277 0 0)
(222.29 0 0)
(222.287 0 0)
(222.284 0 0)
(222.301 0 0)
(222.322 0 0)
(222.344 0 0)
(222.372 0 0)
(222.421 0 0)
(222.5 0 0)
(222.558 0 0)
(222.586 0 0)
(222.606 0 0)
(222.617 0 0)
(222.616 0 0)
(222.625 0 0)
(222.644 0 0)
(222.666 0 0)
(222.688 0 0)
(222.709 0 0)
(222.731 0 0)
(222.753 0 0)
(222.775 0 0)
(222.797 0 0)
(222.82 0 0)
(222.855 0 0)
(222.916 0 0)
(222.981 0 0)
(223.015 0 0)
(223.036 0 0)
(223.051 0 0)
(223.051 0 0)
(223.055 0 0)
(223.074 0 0)
(223.095 0 0)
(223.118 0 0)
(223.149 0 0)
(223.204 0 0)
(223.267 0 0)
(223.301 0 0)
(223.322 0 0)
(223.336 0 0)
(223.338 0 0)
(223.348 0 0)
(223.368 0 0)
(223.39 0 0)
(223.413 0 0)
(223.452 0 0)
(223.513 0 0)
(223.566 0 0)
(223.593 0 0)
(223.612 0 0)
(223.624 0 0)
(223.633 0 0)
(223.652 0 0)
(223.674 0 0)
(223.696 0 0)
(223.722 0 0)
(223.753 0 0)
(223.781 0 0)
(223.803 0 0)
(223.825 0 0)
(223.847 0 0)
(223.869 0 0)
(223.898 0 0)
(223.949 0 0)
(224.007 0 0)
(224.038 0 0)
(224.059 0 0)
(224.073 0 0)
(224.076 0 0)
(224.086 0 0)
(224.106 0 0)
(224.127 0 0)
(224.149 0 0)
(224.171 0 0)
(224.194 0 0)
(224.219 0 0)
(224.263 0 0)
(224.329 0 0)
(224.377 0 0)
(224.402 0 0)
(224.421 0 0)
(224.431 0 0)
(224.439 0 0)
(224.458 0 0)
(224.479 0 0)
(224.501 0 0)
(224.527 0 0)
(224.57 0 0)
(224.632 0 0)
(224.674 0 0)
(224.696 0 0)
(224.714 0 0)
(224.726 0 0)
(224.743 0 0)
(224.764 0 0)
(224.786 0 0)
(224.812 0 0)
(224.844 0 0)
(224.872 0 0)
(224.895 0 0)
(224.916 0 0)
(224.935 0 0)
(224.95 0 0)
(224.968 0 0)
(224.989 0 0)
(225.011 0 0)
(225.033 0 0)
(225.057 0 0)
(225.093 0 0)
(225.157 0 0)
(225.229 0 0)
(225.267 0 0)
(225.289 0 0)
(225.305 0 0)
(225.308 0 0)
(225.308 0 0)
(225.325 0 0)
(225.346 0 0)
(225.368 0 0)
(225.392 0 0)
(225.43 0 0)
(225.486 0 0)
(225.527 0 0)
(225.549 0 0)
(225.567 0 0)
(225.58 0 0)
(225.597 0 0)
(225.618 0 0)
(225.641 0 0)
(225.67 0 0)
(225.719 0 0)
(225.769 0 0)
(225.795 0 0)
(225.815 0 0)
(225.827 0 0)
(225.834 0 0)
(225.851 0 0)
(225.873 0 0)
(225.895 0 0)
(225.924 0 0)
(225.972 0 0)
(226.025 0 0)
(226.054 0 0)
(226.074 0 0)
(226.091 0 0)
(226.108 0 0)
(226.129 0 0)
(226.152 0 0)
(226.178 0 0)
(226.212 0 0)
(226.243 0 0)
(226.266 0 0)
(226.288 0 0)
(226.308 0 0)
(226.329 0 0)
(226.351 0 0)
(226.374 0 0)
(226.404 0 0)
(226.455 0 0)
(226.508 0 0)
(226.536 0 0)
(226.556 0 0)
(226.568 0 0)
(226.572 0 0)
(226.586 0 0)
(226.608 0 0)
(226.63 0 0)
(226.656 0 0)
(226.703 0 0)
(226.765 0 0)
(226.803 0 0)
(226.826 0 0)
(226.842 0 0)
(226.851 0 0)
(226.864 0 0)
(226.884 0 0)
(226.907 0 0)
(226.932 0 0)
(226.978 0 0)
(227.048 0 0)
(227.097 0 0)
(227.122 0 0)
(227.141 0 0)
(227.148 0 0)
(227.132 0 0)
(227.128 0 0)
(227.145 0 0)
(227.166 0 0)
(227.188 0 0)
(227.21 0 0)
(227.232 0 0)
(227.255 0 0)
(227.278 0 0)
(227.315 0 0)
(227.38 0 0)
(227.475 0 0)
(227.529 0 0)
(227.555 0 0)
(227.575 0 0)
(227.586 0 0)
(227.576 0 0)
(227.567 0 0)
(227.583 0 0)
(227.604 0 0)
(227.626 0 0)
(227.649 0 0)
(227.681 0 0)
(227.738 0 0)
(227.802 0 0)
(227.836 0 0)
(227.857 0 0)
(227.873 0 0)
(227.878 0 0)
(227.886 0 0)
(227.906 0 0)
(227.928 0 0)
(227.951 0 0)
(227.982 0 0)
(228.034 0 0)
(228.087 0 0)
(228.115 0 0)
(228.136 0 0)
(228.15 0 0)
(228.158 0 0)
(228.176 0 0)
(228.198 0 0)
(228.221 0 0)
(228.249 0 0)
(228.298 0 0)
(228.353 0 0)
(228.382 0 0)
(228.403 0 0)
(228.42 0 0)
(228.436 0 0)
(228.457 0 0)
(228.48 0 0)
(228.506 0 0)
(228.545 0 0)
(228.586 0 0)
(228.611 0 0)
(228.632 0 0)
(228.647 0 0)
(228.648 0 0)
(228.653 0 0)
(228.672 0 0)
(228.694 0 0)
(228.716 0 0)
(228.739 0 0)
(228.766 0 0)
(228.812 0 0)
(228.891 0 0)
(228.961 0 0)
(228.995 0 0)
(229.016 0 0)
(229.032 0 0)
(229.03 0 0)
(229.018 0 0)
(229.029 0 0)
(229.05 0 0)
(229.072 0 0)
(229.095 0 0)
(229.127 0 0)
(229.183 0 0)
(229.254 0 0)
(229.295 0 0)
(229.318 0 0)
(229.335 0 0)
(229.341 0 0)
(229.342 0 0)
(229.359 0 0)
(229.381 0 0)
(229.403 0 0)
(229.429 0 0)
(229.473 0 0)
(229.542 0 0)
(229.594 0 0)
(229.619 0 0)
(229.639 0 0)
(229.651 0 0)
(229.648 0 0)
(229.656 0 0)
(229.676 0 0)
(229.698 0 0)
(229.72 0 0)
(229.742 0 0)
(229.764 0 0)
(229.787 0 0)
(229.81 0 0)
(229.836 0 0)
(229.88 0 0)
(229.95 0 0)
(230.007 0 0)
(230.035 0 0)
(230.055 0 0)
(230.068 0 0)
(230.064 0 0)
(230.066 0 0)
(230.084 0 0)
(230.106 0 0)
(230.129 0 0)
(230.156 0 0)
(230.203 0 0)
(230.273 0 0)
(230.32 0 0)
(230.344 0 0)
(230.364 0 0)
(230.373 0 0)
(230.372 0 0)
(230.385 0 0)
(230.406 0 0)
(230.428 0 0)
(230.452 0 0)
(230.487 0 0)
(230.544 0 0)
(230.596 0 0)
(230.623 0 0)
(230.643 0 0)
(230.657 0 0)
(230.667 0 0)
(230.686 0 0)
(230.708 0 0)
(230.731 0 0)
(230.761 0 0)
(230.806 0 0)
(230.846 0 0)
(230.869 0 0)
(230.889 0 0)
(230.902 0 0)
(230.91 0 0)
(230.928 0 0)
(230.95 0 0)
(230.973 0 0)
(231.005 0 0)
(231.063 0 0)
(231.135 0 0)
(231.175 0 0)
(231.198 0 0)
(231.215 0 0)
(231.219 0 0)
(231.209 0 0)
(231.219 0 0)
(231.239 0 0)
(231.262 0 0)
(231.285 0 0)
(231.316 0 0)
(231.371 0 0)
(231.438 0 0)
(231.475 0 0)
(231.498 0 0)
(231.515 0 0)
(231.523 0 0)
(231.532 0 0)
(231.552 0 0)
(231.574 0 0)
(231.597 0 0)
(231.631 0 0)
(231.689 0 0)
(231.754 0 0)
(231.789 0 0)
(231.81 0 0)
(231.827 0 0)
(231.827 0 0)
(231.817 0 0)
(231.828 0 0)
(231.849 0 0)
(231.871 0 0)
(231.894 0 0)
(231.916 0 0)
(231.939 0 0)
(231.962 0 0)
(231.988 0 0)
(232.034 0 0)
(232.109 0 0)
(232.171 0 0)
(232.201 0 0)
(232.222 0 0)
(232.238 0 0)
(232.237 0 0)
(232.236 0 0)
(232.253 0 0)
(232.274 0 0)
(232.297 0 0)
(232.32 0 0)
(232.354 0 0)
(232.41 0 0)
(232.469 0 0)
(232.499 0 0)
(232.521 0 0)
(232.537 0 0)
(232.552 0 0)
(232.572 0 0)
(232.594 0 0)
(232.617 0 0)
(232.65 0 0)
(232.704 0 0)
(232.751 0 0)
(232.775 0 0)
(232.795 0 0)
(232.805 0 0)
(232.798 0 0)
(232.802 0 0)
(232.821 0 0)
(232.843 0 0)
(232.866 0 0)
(232.888 0 0)
(232.911 0 0)
(232.939 0 0)
(232.986 0 0)
(233.062 0 0)
(233.122 0 0)
(233.151 0 0)
(233.172 0 0)
(233.187 0 0)
(233.187 0 0)
(233.187 0 0)
(233.205 0 0)
(233.227 0 0)
(233.25 0 0)
(233.274 0 0)
(233.308 0 0)
(233.365 0 0)
(233.417 0 0)
(233.444 0 0)
(233.465 0 0)
(233.48 0 0)
(233.49 0 0)
(233.509 0 0)
(233.531 0 0)
(233.554 0 0)
(233.581 0 0)
(233.625 0 0)
(233.68 0 0)
(233.711 0 0)
(233.732 0 0)
(233.75 0 0)
(233.764 0 0)
(233.783 0 0)
(233.806 0 0)
(233.829 0 0)
(233.856 0 0)
(233.888 0 0)
(233.915 0 0)
(233.938 0 0)
(233.96 0 0)
(233.98 0 0)
(234.001 0 0)
(234.023 0 0)
(234.045 0 0)
(234.069 0 0)
(234.102 0 0)
(234.158 0 0)
(234.212 0 0)
(234.24 0 0)
(234.262 0 0)
(234.278 0 0)
(234.287 0 0)
(234.304 0 0)
(234.325 0 0)
(234.348 0 0)
(234.37 0 0)
(234.393 0 0)
(234.415 0 0)
(234.438 0 0)
(234.461 0 0)
(234.486 0 0)
(234.526 0 0)
(234.589 0 0)
(234.64 0 0)
(234.666 0 0)
(234.687 0 0)
(234.702 0 0)
(234.716 0 0)
(234.737 0 0)
(234.759 0 0)
(234.783 0 0)
(234.812 0 0)
(234.847 0 0)
(234.874 0 0)
(234.897 0 0)
(234.918 0 0)
(234.933 0 0)
(234.942 0 0)
(234.959 0 0)
(234.98 0 0)
(235.003 0 0)
(235.029 0 0)
(235.074 0 0)
(235.148 0 0)
(235.208 0 0)
(235.237 0 0)
(235.258 0 0)
(235.273 0 0)
(235.269 0 0)
(235.262 0 0)
(235.277 0 0)
(235.299 0 0)
(235.322 0 0)
(235.346 0 0)
(235.382 0 0)
(235.445 0 0)
(235.512 0 0)
(235.546 0 0)
(235.569 0 0)
(235.586 0 0)
(235.589 0 0)
(235.586 0 0)
(235.601 0 0)
(235.623 0 0)
(235.645 0 0)
(235.669 0 0)
(235.704 0 0)
(235.763 0 0)
(235.823 0 0)
(235.854 0 0)
(235.876 0 0)
(235.892 0 0)
(235.897 0 0)
(235.904 0 0)
(235.924 0 0)
(235.946 0 0)
(235.97 0 0)
(235.997 0 0)
(236.043 0 0)
(236.105 0 0)
(236.142 0 0)
(236.165 0 0)
(236.184 0 0)
(236.195 0 0)
(236.209 0 0)
(236.23 0 0)
(236.252 0 0)
(236.276 0 0)
(236.311 0 0)
(236.369 0 0)
(236.419 0 0)
(236.445 0 0)
(236.465 0 0)
(236.477 0 0)
(236.467 0 0)
(236.456 0 0)
(236.471 0 0)
(236.492 0 0)
(236.515 0 0)
(236.538 0 0)
(236.561 0 0)
(236.585 0 0)
(236.623 0 0)
(236.69 0 0)
(236.783 0 0)
(236.834 0 0)
(236.86 0 0)
(236.881 0 0)
(236.894 0 0)
(236.887 0 0)
(236.873 0 0)
(236.886 0 0)
(236.908 0 0)
(236.93 0 0)
(236.953 0 0)
(236.98 0 0)
(237.027 0 0)
(237.1 0 0)
(237.155 0 0)
(237.182 0 0)
(237.203 0 0)
(237.218 0 0)
(237.219 0 0)
(237.224 0 0)
(237.244 0 0)
(237.266 0 0)
(237.289 0 0)
(237.313 0 0)
(237.349 0 0)
(237.406 0 0)
(237.457 0 0)
(237.483 0 0)
(237.504 0 0)
(237.521 0 0)
(237.536 0 0)
(237.556 0 0)
(237.579 0 0)
(237.602 0 0)
(237.627 0 0)
(237.658 0 0)
(237.687 0 0)
(237.71 0 0)
(237.733 0 0)
(237.756 0 0)
(237.779 0 0)
(237.803 0 0)
(237.833 0 0)
(237.868 0 0)
(237.895 0 0)
(237.918 0 0)
(237.94 0 0)
(237.963 0 0)