/*--------------------------------*- C++ -*----------------------------------*\
  =========                 |
  \\      /  F ield         | OpenFOAM: The Open Source CFD Toolbox
   \\    /   O peration     | Website:  https://openfoam.org
    \\  /    A nd           | Version:  9
     \\/     M anipulation  |
\*---------------------------------------------------------------------------*/
FoamFile
{
    format      ascii;
    class       volScalarField;
    location    "0.02";
    object      mag(U);
}
// * * * * * * * * * * * * * * * * * * * * * * * * * * * * * * * * * * * * * //

dimensions      [0 1 -1 0 0 0 0];

internalField   nonuniform List<scalar> 
10000
(
1.88427
1.99618
2.07182
2.1398
2.21131
2.2848
2.35826
2.43137
2.50436
2.57737
2.65041
2.72343
2.79644
2.86945
2.94245
3.01546
3.08847
3.16148
3.23448
3.30749
3.3805
3.4535
3.52651
3.59952
3.67253
3.74554
3.81855
3.89156
3.96457
4.03758
4.11059
4.18361
4.25662
4.32963
4.40265
4.47566
4.54867
4.62169
4.6947
4.76772
4.84073
4.91375
4.98677
5.05979
5.1328
5.20582
5.27884
5.35186
5.42488
5.4979
5.57092
5.64394
5.71696
5.78998
5.863
5.93603
6.00905
6.08207
6.1551
6.22812
6.30115
6.37417
6.4472
6.52022
6.59325
6.66628
6.7393
6.81233
6.88536
6.95839
7.03142
7.10445
7.17748
7.25051
7.32354
7.39657
7.4696
7.54263
7.61566
7.6887
7.76173
7.83477
7.9078
7.98083
8.05387
8.1269
8.19994
8.27298
8.34601
8.41905
8.49209
8.56513
8.63817
8.7112
8.78424
8.85728
8.93032
9.00337
9.07641
9.14945
9.22249
9.29553
9.36858
9.44162
9.51466
9.58771
9.66075
9.7338
9.80684
9.87989
9.95294
10.026
10.099
10.1721
10.2451
10.3182
10.3912
10.4643
10.5373
10.6104
10.6834
10.7565
10.8295
10.9026
10.9756
11.0487
11.1217
11.1948
11.2678
11.3409
11.414
11.487
11.5601
11.6331
11.7062
11.7792
11.8523
11.9254
11.9984
12.0715
12.1445
12.2176
12.2907
12.3637
12.4368
12.5098
12.5829
12.656
12.729
12.8021
12.8751
12.9482
13.0213
13.0943
13.1674
13.2405
13.3135
13.3866
13.4597
13.5327
13.6058
13.6789
13.7519
13.825
13.8981
13.9712
14.0442
14.1173
14.1904
14.2634
14.3365
14.4096
14.4827
14.5557
14.6288
14.7019
14.775
14.848
14.9211
14.9942
15.0673
15.1403
15.2134
15.2865
15.3596
15.4327
15.5057
15.5788
15.6519
15.725
15.7981
15.8711
15.9442
16.0173
16.0904
16.1635
16.2366
16.3096
16.3827
16.4558
16.5289
16.602
16.6751
16.7482
16.8212
16.8943
16.9674
17.0405
17.1136
17.1867
17.2598
17.3329
17.406
17.479
17.5521
17.6252
17.6983
17.7714
17.8445
17.9176
17.9907
18.0638
18.1369
18.21
18.2831
18.3562
18.4293
18.5024
18.5755
18.6486
18.7217
18.7948
18.8679
18.941
19.0141
19.0872
19.1603
19.2334
19.3065
19.3796
19.4527
19.5258
19.5989
19.672
19.7451
19.8182
19.8913
19.9644
20.0375
20.1106
20.1837
20.2568
20.3299
20.403
20.4762
20.5493
20.6224
20.6955
20.7686
20.8417
20.9148
20.9879
21.061
21.1342
21.2073
21.2804
21.3535
21.4266
21.4997
21.5728
21.646
21.7191
21.7922
21.8653
21.9384
22.0115
22.0847
22.1578
22.2309
22.304
22.3771
22.4503
22.5234
22.5965
22.6696
22.7427
22.8159
22.889
22.9621
23.0352
23.1084
23.1815
23.2546
23.3277
23.4009
23.474
23.5471
23.6202
23.6934
23.7665
23.8396
23.9128
23.9859
24.059
24.1321
24.2053
24.2784
24.3515
24.4247
24.4978
24.5709
24.6441
24.7172
24.7903
24.8635
24.9366
25.0097
25.0829
25.156
25.2292
25.3023
25.3754
25.4486
25.5217
25.5948
25.668
25.7411
25.8143
25.8874
25.9605
26.0337
26.1068
26.18
26.2531
26.3263
26.3994
26.4725
26.5457
26.6188
26.692
26.7651
26.8383
26.9114
26.9846
27.0577
27.1309
27.204
27.2772
27.3503
27.4235
27.4966
27.5698
27.6429
27.7161
27.7892
27.8624
27.9355
28.0087
28.0818
28.155
28.2281
28.3013
28.3744
28.4476
28.5208
28.5939
28.6671
28.7402
28.8134
28.8865
28.9597
29.0329
29.106
29.1792
29.2523
29.3255
29.3987
29.4718
29.545
29.6182
29.6913
29.7645
29.8376
29.9108
29.984
30.0571
30.1303
30.2035
30.2766
30.3498
30.423
30.4961
30.5693
30.6425
30.7156
30.7888
30.862
30.9352
31.0083
31.0815
31.1547
31.2278
31.301
31.3742
31.4474
31.5205
31.5937
31.6669
31.7401
31.8132
31.8864
31.9596
32.0328
32.1059
32.1791
32.2523
32.3255
32.3987
32.4718
32.545
32.6182
32.6914
32.7646
32.8377
32.9109
32.9841
33.0573
33.1305
33.2037
33.2768
33.35
33.4232
33.4964
33.5696
33.6428
33.716
33.7891
33.8623
33.9355
34.0087
34.0819
34.1551
34.2283
34.3015
34.3747
34.4478
34.521
34.5942
34.6674
34.7406
34.8138
34.887
34.9602
35.0334
35.1066
35.1798
35.253
35.3262
35.3994
35.4726
35.5458
35.619
35.6922
35.7654
35.8386
35.9118
35.985
36.0582
36.1314
36.2046
36.2778
36.351
36.4242
36.4974
36.5706
36.6438
36.717
36.7902
36.8634
36.9366
37.0098
37.083
37.1562
37.2294
37.3026
37.3758
37.4491
37.5223
37.5955
37.6687
37.7419
37.8151
37.8883
37.9615
38.0347
38.108
38.1812
38.2544
38.3276
38.4008
38.474
38.5472
38.6205
38.6937
38.7669
38.8401
38.9133
38.9865
39.0598
39.133
39.2062
39.2794
39.3526
39.4259
39.4991
39.5723
39.6455
39.7187
39.792
39.8652
39.9384
40.0116
40.0849
40.1581
40.2313
40.3045
40.3778
40.451
40.5242
40.5974
40.6707
40.7439
40.8171
40.8904
40.9636
41.0368
41.1101
41.1833
41.2565
41.3297
41.403
41.4762
41.5494
41.6227
41.6959
41.7691
41.8424
41.9156
41.9889
42.0621
42.1353
42.2086
42.2818
42.355
42.4283
42.5015
42.5748
42.648
42.7212
42.7945
42.8677
42.941
43.0142
43.0874
43.1607
43.2339
43.3072
43.3804
43.4537
43.5269
43.6001
43.6734
43.7466
43.8199
43.8931
43.9664
44.0396
44.1129
44.1861
44.2594
44.3326
44.4059
44.4791
44.5524
44.6256
44.6989
44.7721
44.8454
44.9186
44.9919
45.0651
45.1384
45.2117
45.2849
45.3582
45.4314
45.5047
45.5779
45.6512
45.7244
45.7977
45.871
45.9442
46.0175
46.0907
46.164
46.2373
46.3105
46.3838
46.457
46.5303
46.6036
46.6768
46.7501
46.8234
46.8966
46.9699
47.0432
47.1164
47.1897
47.263
47.3362
47.4095
47.4828
47.556
47.6293
47.7026
47.7758
47.8491
47.9224
47.9957
48.0689
48.1422
48.2155
48.2887
48.362
48.4353
48.5086
48.5818
48.6551
48.7284
48.8017
48.8749
48.9482
49.0215
49.0948
49.168
49.2413
49.3146
49.3879
49.4612
49.5344
49.6077
49.681
49.7543
49.8276
49.9009
49.9741
50.0474
50.1207
50.194
50.2673
50.3406
50.4138
50.4871
50.5604
50.6337
50.707
50.7803
50.8536
50.9269
51.0001
51.0734
51.1467
51.22
51.2933
51.3666
51.4399
51.5132
51.5865
51.6598
51.7331
51.8064
51.8796
51.9529
52.0262
52.0995
52.1728
52.2461
52.3194
52.3927
52.466
52.5393
52.6126
52.6859
52.7592
52.8325
52.9058
52.9791
53.0524
53.1257
53.199
53.2723
53.3456
53.4189
53.4922
53.5655
53.6388
53.7121
53.7854
53.8588
53.9321
54.0054
54.0787
54.152
54.2253
54.2986
54.3719
54.4452
54.5185
54.5918
54.6651
54.7385
54.8118
54.8851
54.9584
55.0317
55.105
55.1783
55.2517
55.325
55.3983
55.4716
55.5449
55.6182
55.6915
55.7649
55.8382
55.9115
55.9848
56.0581
56.1315
56.2048
56.2781
56.3514
56.4247
56.4981
56.5714
56.6447
56.718
56.7914
56.8647
56.938
57.0113
57.0846
57.158
57.2313
57.3046
57.378
57.4513
57.5246
57.5979
57.6713
57.7446
57.8179
57.8913
57.9646
58.0379
58.1112
58.1846
58.2579
58.3312
58.4046
58.4779
58.5512
58.6246
58.6979
58.7712
58.8446
58.9179
58.9913
59.0646
59.1379
59.2113
59.2846
59.3579
59.4313
59.5046
59.578
59.6513
59.7246
59.798
59.8713
59.9447
60.018
60.0914
60.1647
60.238
60.3114
60.3847
60.4581
60.5314
60.6048
60.6781
60.7515
60.8248
60.8982
60.9715
61.0449
61.1182
61.1915
61.2649
61.3382
61.4116
61.485
61.5583
61.6317
61.705
61.7784
61.8517
61.9251
61.9984
62.0718
62.1451
62.2185
62.2918
62.3652
62.4386
62.5119
62.5853
62.6586
62.732
62.8053
62.8787
62.9521
63.0254
63.0988
63.1721
63.2455
63.3189
63.3922
63.4656
63.539
63.6123
63.6857
63.7591
63.8324
63.9058
63.9792
64.0525
64.1259
64.1993
64.2726
64.346
64.4194
64.4927
64.5661
64.6395
64.7128
64.7862
64.8596
64.9329
65.0063
65.0797
65.1531
65.2264
65.2998
65.3732
65.4466
65.5199
65.5933
65.6667
65.7401
65.8134
65.8868
65.9602
66.0336
66.107
66.1803
66.2537
66.3271
66.4005
66.4739
66.5472
66.6206
66.694
66.7674
66.8408
66.9141
66.9875
67.0609
67.1343
67.2077
67.2811
67.3545
67.4278
67.5012
67.5746
67.648
67.7214
67.7948
67.8682
67.9416
68.0149
68.0883
68.1617
68.2351
68.3085
68.3819
68.4553
68.5287
68.6021
68.6755
68.7489
68.8223
68.8957
68.9691
69.0424
69.1158
69.1892
69.2626
69.336
69.4094
69.4828
69.5562
69.6296
69.703
69.7764
69.8498
69.9232
69.9966
70.07
70.1434
70.2168
70.2902
70.3636
70.4371
70.5105
70.5839
70.6573
70.7307
70.8041
70.8775
70.9509
71.0243
71.0977
71.1711
71.2445
71.3179
71.3913
71.4648
71.5382
71.6116
71.685
71.7584
71.8318
71.9052
71.9786
72.0521
72.1255
72.1989
72.2723
72.3457
72.4191
72.4925
72.566
72.6394
72.7128
72.7862
72.8596
72.9331
73.0065
73.0799
73.1533
73.2267
73.3002
73.3736
73.447
73.5204
73.5938
73.6673
73.7407
73.8141
73.8875
73.961
74.0344
74.1078
74.1812
74.2547
74.3281
74.4015
74.4749
74.5484
74.6218
74.6952
74.7687
74.8421
74.9155
74.989
75.0624
75.1358
75.2092
75.2827
75.3561
75.4295
75.503
75.5764
75.6499
75.7233
75.7967
75.8702
75.9436
76.017
76.0905
76.1639
76.2373
76.3108
76.3842
76.4577
76.5311
76.6045
76.678
76.7514
76.8249
76.8983
76.9718
77.0452
77.1186
77.1921
77.2655
77.339
77.4124
77.4859
77.5593
77.6328
77.7062
77.7797
77.8531
77.9265
78
78.0734
78.1469
78.2203
78.2938
78.3672
78.4407
78.5141
78.5876
78.6611
78.7345
78.808
78.8814
78.9549
79.0283
79.1018
79.1752
79.2487
79.3221
79.3956
79.4691
79.5425
79.616
79.6894
79.7629
79.8364
79.9098
79.9833
80.0567
80.1302
80.2037
80.2771
80.3506
80.424
80.4975
80.571
80.6444
80.7179
80.7914
80.8648
80.9383
81.0118
81.0852
81.1587
81.2322
81.3056
81.3791
81.4526
81.526
81.5995
81.673
81.7465
81.8199
81.8934
81.9669
82.0403
82.1138
82.1873
82.2608
82.3342
82.4077
82.4812
82.5547
82.6281
82.7016
82.7751
82.8486
82.922
82.9955
83.069
83.1425
83.216
83.2894
83.3629
83.4364
83.5099
83.5834
83.6568
83.7303
83.8038
83.8773
83.9508
84.0243
84.0977
84.1712
84.2447
84.3182
84.3917
84.4652
84.5387
84.6121
84.6856
84.7591
84.8326
84.9061
84.9796
85.0531
85.1266
85.2001
85.2736
85.347
85.4205
85.494
85.5675
85.641
85.7145
85.788
85.8615
85.935
86.0085
86.082
86.1555
86.229
86.3025
86.376
86.4495
86.523
86.5965
86.67
86.7435
86.817
86.8905
86.964
87.0375
87.111
87.1845
87.258
87.3315
87.405
87.4785
87.552
87.6255
87.699
87.7725
87.846
87.9195
87.993
88.0666
88.1401
88.2136
88.2871
88.3606
88.4341
88.5076
88.5811
88.6546
88.7281
88.8017
88.8752
88.9487
89.0222
89.0957
89.1692
89.2427
89.3163
89.3898
89.4633
89.5368
89.6103
89.6838
89.7574
89.8309
89.9044
89.9779
90.0514
90.1249
90.1985
90.272
90.3455
90.419
90.4926
90.5661
90.6396
90.7131
90.7866
90.8602
90.9337
91.0072
91.0807
91.1543
91.2278
91.3013
91.3749
91.4484
91.5219
91.5954
91.669
91.7425
91.816
91.8896
91.9631
92.0366
92.1101
92.1837
92.2572
92.3307
92.4043
92.4778
92.5513
92.6249
92.6984
92.7719
92.8455
92.919
92.9926
93.0661
93.1396
93.2132
93.2867
93.3602
93.4338
93.5073
93.5809
93.6544
93.7279
93.8015
93.875
93.9486
94.0221
94.0957
94.1692
94.2427
94.3163
94.3898
94.4634
94.5369
94.6105
94.684
94.7576
94.8311
94.9047
94.9782
95.0518
95.1253
95.1989
95.2724
95.346
95.4195
95.4931
95.5666
95.6402
95.7137
95.7873
95.8608
95.9344
96.0079
96.0815
96.155
96.2286
96.3022
96.3757
96.4493
96.5228
96.5964
96.6699
96.7435
96.8171
96.8906
96.9642
97.0377
97.1113
97.1849
97.2584
97.332
97.4055
97.4791
97.5527
97.6262
97.6998
97.7734
97.8469
97.9205
97.9941
98.0676
98.1412
98.2148
98.2883
98.3619
98.4355
98.509
98.5826
98.6562
98.7297
98.8033
98.8769
98.9505
99.024
99.0976
99.1712
99.2447
99.3183
99.3919
99.4655
99.539
99.6126
99.6862
99.7598
99.8333
99.9069
99.9805
100.054
100.128
100.201
100.275
100.348
100.422
100.496
100.569
100.643
100.716
100.79
100.863
100.937
101.011
101.084
101.158
101.231
101.305
101.379
101.452
101.526
101.599
101.673
101.746
101.82
101.894
101.967
102.041
102.114
102.188
102.262
102.335
102.409
102.482
102.556
102.63
102.703
102.777
102.85
102.924
102.998
103.071
103.145
103.218
103.292
103.366
103.439
103.513
103.586
103.66
103.734
103.807
103.881
103.954
104.028
104.102
104.175
104.249
104.322
104.396
104.47
104.543
104.617
104.69
104.764
104.838
104.911
104.985
105.058
105.132
105.206
105.279
105.353
105.426
105.5
105.574
105.647
105.721
105.794
105.868
105.942
106.015
106.089
106.163
106.236
106.31
106.383
106.457
106.531
106.604
106.678
106.751
106.825
106.899
106.972
107.046
107.12
107.193
107.267
107.34
107.414
107.488
107.561
107.635
107.708
107.782
107.856
107.929
108.003
108.077
108.15
108.224
108.297
108.371
108.445
108.518
108.592
108.666
108.739
108.813
108.886
108.96
109.034
109.107
109.181
109.255
109.328
109.402
109.476
109.549
109.623
109.696
109.77
109.844
109.917
109.991
110.065
110.138
110.212
110.286
110.359
110.433
110.506
110.58
110.654
110.727
110.801
110.875
110.948
111.022
111.096
111.169
111.243
111.316
111.39
111.464
111.537
111.611
111.685
111.758
111.832
111.906
111.979
112.053
112.127
112.2
112.274
112.348
112.421
112.495
112.568
112.642
112.716
112.789
112.863
112.937
113.01
113.084
113.158
113.231
113.305
113.379
113.452
113.526
113.6
113.673
113.747
113.821
113.894
113.968
114.042
114.115
114.189
114.263
114.336
114.41
114.484
114.557
114.631
114.704
114.778
114.852
114.925
114.999
115.073
115.146
115.22
115.294
115.367
115.441
115.515
115.588
115.662
115.736
115.809
115.883
115.957
116.03
116.104
116.178
116.251
116.325
116.399
116.472
116.546
116.62
116.693
116.767
116.841
116.915
116.988
117.062
117.136
117.209
117.283
117.357
117.43
117.504
117.578
117.651
117.725
117.799
117.872
117.946
118.02
118.093
118.167
118.241
118.314
118.388
118.462
118.535
118.609
118.683
118.757
118.83
118.904
118.978
119.051
119.125
119.199
119.272
119.346
119.42
119.493
119.567
119.641
119.714
119.788
119.862
119.936
120.009
120.083
120.157
120.23
120.304
120.378
120.451
120.525
120.599
120.672
120.746
120.82
120.894
120.967
121.041
121.115
121.188
121.262
121.336
121.409
121.483
121.557
121.631
121.704
121.778
121.852
121.925
121.999
122.073
122.146
122.22
122.294
122.368
122.441
122.515
122.589
122.662
122.736
122.81
122.883
122.957
123.031
123.105
123.178
123.252
123.326
123.399
123.473
123.547
123.621
123.694
123.768
123.842
123.915
123.989
124.063
124.137
124.21
124.284
124.358
124.431
124.505
124.579
124.653
124.726
124.8
124.874
124.947
125.021
125.095
125.169
125.242
125.316
125.39
125.463
125.537
125.611
125.685
125.758
125.832
125.906
125.98
126.053
126.127
126.201
126.274
126.348
126.422
126.496
126.569
126.643
126.717
126.791
126.864
126.938
127.012
127.085
127.159
127.233
127.307
127.38
127.454
127.528
127.602
127.675
127.749
127.823
127.897
127.97
128.044
128.118
128.191
128.265
128.339
128.413
128.486
128.56
128.634
128.708
128.781
128.855
128.929
129.003
129.076
129.15
129.224
129.298
129.371
129.445
129.519
129.593
129.666
129.74
129.814
129.887
129.961
130.035
130.109
130.182
130.256
130.33
130.404
130.477
130.551
130.625
130.699
130.772
130.846
130.92
130.994
131.067
131.141
131.215
131.289
131.362
131.436
131.51
131.584
131.657
131.731
131.805
131.879
131.952
132.026
132.1
132.174
132.248
132.321
132.395
132.469
132.543
132.616
132.69
132.764
132.838
132.911
132.985
133.059
133.133
133.206
133.28
133.354
133.428
133.501
133.575
133.649
133.723
133.797
133.87
133.944
134.018
134.092
134.165
134.239
134.313
134.387
134.46
134.534
134.608
134.682
134.755
134.829
134.903
134.977
135.051
135.124
135.198
135.272
135.346
135.419
135.493
135.567
135.641
135.715
135.788
135.862
135.936
136.01
136.083
136.157
136.231
136.305
136.379
136.452
136.526
136.6
136.674
136.747
136.821
136.895
136.969
137.043
137.116
137.19
137.264
137.338
137.411
137.485
137.559
137.633
137.707
137.78
137.854
137.928
138.002
138.076
138.149
138.223
138.297
138.371
138.444
138.518
138.592
138.666
138.74
138.813
138.887
138.961
139.035
139.109
139.182
139.256
139.33
139.404
139.478
139.551
139.625
139.699
139.773
139.847
139.92
139.994
140.068
140.142
140.216
140.289
140.363
140.437
140.511
140.585
140.658
140.732
140.806
140.88
140.954
141.027
141.101
141.175
141.249
141.323
141.396
141.47
141.544
141.618
141.692
141.765
141.839
141.913
141.987
142.061
142.134
142.208
142.282
142.356
142.43
142.503
142.577
142.651
142.725
142.799
142.872
142.946
143.02
143.094
143.168
143.241
143.315
143.389
143.463
143.537
143.611
143.684
143.758
143.832
143.906
143.98
144.053
144.127
144.201
144.275
144.349
144.423
144.496
144.57
144.644
144.718
144.792
144.865
144.939
145.013
145.087
145.161
145.235
145.308
145.382
145.456
145.53
145.604
145.677
145.751
145.825
145.899
145.973
146.047
146.12
146.194
146.268
146.342
146.416
146.49
146.563
146.637
146.711
146.785
146.859
146.933
147.006
147.08
147.154
147.228
147.302
147.375
147.449
147.523
147.597
147.671
147.745
147.818
147.892
147.966
148.04
148.114
148.188
148.261
148.335
148.409
148.483
148.557
148.631
148.704
148.778
148.852
148.926
149
149.074
149.148
149.221
149.295
149.369
149.443
149.517
149.591
149.664
149.738
149.812
149.886
149.96
150.034
150.107
150.181
150.255
150.329
150.403
150.477
150.55
150.624
150.698
150.772
150.846
150.92
150.994
151.067
151.141
151.215
151.289
151.363
151.437
151.51
151.584
151.658
151.732
151.806
151.88
151.954
152.027
152.101
152.175
152.249
152.323
152.397
152.471
152.544
152.618
152.692
152.766
152.84
152.914
152.987
153.061
153.135
153.209
153.283
153.357
153.431
153.504
153.578
153.652
153.726
153.8
153.874
153.948
154.021
154.095
154.169
154.243
154.317
154.391
154.465
154.538
154.612
154.686
154.76
154.834
154.908
154.982
155.055
155.129
155.203
155.277
155.351
155.425
155.499
155.573
155.646
155.72
155.794
155.868
155.942
156.016
156.09
156.163
156.237
156.311
156.385
156.459
156.533
156.607
156.68
156.754
156.828
156.902
156.976
157.05
157.124
157.198
157.271
157.345
157.419
157.493
157.567
157.641
157.715
157.789
157.862
157.936
158.01
158.084
158.158
158.232
158.306
158.38
158.453
158.527
158.601
158.675
158.749
158.823
158.897
158.97
159.044
159.118
159.192
159.266
159.34
159.414
159.488
159.561
159.635
159.709
159.783
159.857
159.931
160.005
160.079
160.153
160.226
160.3
160.374
160.448
160.522
160.596
160.67
160.744
160.817
160.891
160.965
161.039
161.113
161.187
161.261
161.335
161.408
161.482
161.556
161.63
161.704
161.778
161.852
161.926
162
162.073
162.147
162.221
162.295
162.369
162.443
162.517
162.591
162.664
162.738
162.812
162.886
162.96
163.034
163.108
163.182
163.256
163.329
163.403
163.477
163.551
163.625
163.699
163.773
163.847
163.921
163.994
164.068
164.142
164.216
164.29
164.364
164.438
164.512
164.586
164.659
164.733
164.807
164.881
164.955
165.029
165.103
165.177
165.251
165.324
165.398
165.472
165.546
165.62
165.694
165.768
165.842
165.916
165.989
166.063
166.137
166.211
166.285
166.359
166.433
166.507
166.581
166.654
166.728
166.802
166.876
166.95
167.024
167.098
167.172
167.246
167.32
167.393
167.467
167.541
167.615
167.689
167.763
167.837
167.911
167.985
168.058
168.132
168.206
168.28
168.354
168.428
168.502
168.576
168.65
168.724
168.797
168.871
168.945
169.019
169.093
169.167
169.241
169.315
169.389
169.463
169.536
169.61
169.684
169.758
169.832
169.906
169.98
170.054
170.128
170.201
170.275
170.349
170.423
170.497
170.571
170.645
170.719
170.793
170.867
170.94
171.014
171.088
171.162
171.236
171.31
171.384
171.458
171.532
171.606
171.679
171.753
171.827
171.901
171.975
172.049
172.123
172.197
172.271
172.345
172.418
172.492
172.566
172.64
172.714
172.788
172.862
172.936
173.01
173.084
173.157
173.231
173.305
173.379
173.453
173.527
173.601
173.675
173.749
173.823
173.896
173.97
174.044
174.118
174.192
174.266
174.34
174.414
174.488
174.562
174.635
174.709
174.783
174.857
174.931
175.005
175.079
175.153
175.227
175.3
175.374
175.448
175.522
175.596
175.67
175.744
175.818
175.892
175.966
176.039
176.113
176.187
176.261
176.335
176.409
176.483
176.557
176.631
176.705
176.778
176.852
176.926
177
177.074
177.148
177.222
177.296
177.37
177.443
177.517
177.591
177.665
177.739
177.813
177.887
177.961
178.035
178.109
178.182
178.256
178.33
178.404
178.478
178.552
178.626
178.7
178.774
178.847
178.921
178.995
179.069
179.143
179.217
179.291
179.365
179.439
179.513
179.586
179.66
179.734
179.808
179.882
179.956
180.03
180.104
180.178
180.251
180.325
180.399
180.473
180.547
180.621
180.695
180.769
180.843
180.916
180.99
181.064
181.138
181.212
181.286
181.36
181.434
181.507
181.581
181.655
181.729
181.803
181.877
181.951
182.025
182.099
182.172
182.246
182.32
182.394
182.468
182.542
182.616
182.69
182.763
182.837
182.911
182.985
183.059
183.133
183.207
183.281
183.355
183.428
183.502
183.576
183.65
183.724
183.798
183.872
183.946
184.019
184.093
184.167
184.241
184.315
184.389
184.463
184.537
184.61
184.684
184.758
184.832
184.906
184.98
185.054
185.127
185.201
185.275
185.349
185.423
185.497
185.571
185.645
185.718
185.792
185.866
185.94
186.014
186.088
186.162
186.235
186.309
186.383
186.457
186.531
186.605
186.679
186.752
186.826
186.9
186.974
187.048
187.122
187.196
187.269
187.343
187.417
187.491
187.565
187.639
187.713
187.786
187.86
187.934
188.008
188.082
188.156
188.229
188.303
188.377
188.451
188.525
188.599
188.673
188.746
188.82
188.894
188.968
189.042
189.116
189.189
189.263
189.337
189.411
189.485
189.559
189.632
189.706
189.78
189.854
189.928
190.002
190.075
190.149
190.223
190.297
190.371
190.445
190.518
190.592
190.666
190.74
190.814
190.887
190.961
191.035
191.109
191.183
191.257
191.33
191.404
191.478
191.552
191.626
191.699
191.773
191.847
191.921
191.995
192.068
192.142
192.216
192.29
192.364
192.437
192.511
192.585
192.659
192.733
192.806
192.88
192.954
193.028
193.102
193.175
193.249
193.323
193.397
193.471
193.544
193.618
193.692
193.766
193.839
193.913
193.987
194.061
194.135
194.208
194.282
194.356
194.43
194.503
194.577
194.651
194.725
194.798
194.872
194.946
195.02
195.094
195.167
195.241
195.315
195.389
195.462
195.536
195.61
195.684
195.757
195.831
195.905
195.979
196.052
196.126
196.2
196.274
196.347
196.421
196.495
196.568
196.642
196.716
196.79
196.863
196.937
197.011
197.085
197.158
197.232
197.306
197.379
197.453
197.527
197.601
197.674
197.748
197.822
197.895
197.969
198.043
198.117
198.19
198.264
198.338
198.411
198.485
198.559
198.632
198.706
198.78
198.853
198.927
199.001
199.074
199.148
199.222
199.296
199.369
199.443
199.517
199.59
199.664
199.738
199.811
199.885
199.958
200.032
200.106
200.179
200.253
200.327
200.4
200.474
200.548
200.621
200.695
200.769
200.842
200.916
200.989
201.063
201.137
201.21
201.284
201.358
201.431
201.505
201.578
201.652
201.726
201.799
201.873
201.946
202.02
202.094
202.167
202.241
202.314
202.388
202.461
202.535
202.609
202.682
202.756
202.829
202.903
202.976
203.05
203.124
203.197
203.271
203.344
203.418
203.491
203.565
203.638
203.712
203.785
203.859
203.933
204.006
204.08
204.153
204.227
204.3
204.374
204.447
204.521
204.594
204.668
204.741
204.815
204.888
204.962
205.035
205.109
205.182
205.255
205.329
205.402
205.476
205.549
205.623
205.696
205.77
205.843
205.917
205.99
206.063
206.137
206.21
206.284
206.357
206.431
206.504
206.577
206.651
206.724
206.798
206.871
206.944
207.018
207.091
207.164
207.238
207.311
207.385
207.458
207.531
207.605
207.678
207.751
207.825
207.898
207.971
208.045
208.118
208.191
208.265
208.338
208.411
208.485
208.558
208.631
208.704
208.778
208.851
208.924
208.998
209.071
209.144
209.217
209.291
209.364
209.437
209.51
209.584
209.657
209.73
209.803
209.876
209.95
210.023
210.096
210.169
210.242
210.316
210.389
210.462
210.535
210.608
210.681
210.755
210.828
210.901
210.974
211.047
211.12
211.193
211.266
211.34
211.413
211.486
211.559
211.632
211.705
211.778
211.851
211.924
211.997
212.07
212.143
212.216
212.289
212.362
212.435
212.508
212.581
212.654
212.727
212.8
212.873
212.946
213.019
213.092
213.165
213.238
213.311
213.384
213.457
213.53
213.602
213.675
213.748
213.821
213.894
213.967
214.04
214.113
214.185
214.258
214.331
214.404
214.477
214.549
214.622
214.695
214.768
214.84
214.913
214.986
215.059
215.131
215.204
215.277
215.35
215.422
215.495
215.568
215.64
215.713
215.786
215.858
215.931
216.003
216.076
216.149
216.221
216.294
216.366
216.439
216.511
216.584
216.656
216.729
216.801
216.874
216.946
217.019
217.091
217.164
217.236
217.309
217.381
217.453
217.526
217.598
217.671
217.743
217.815
217.888
217.96
218.032
218.104
218.177
218.249
218.321
218.393
218.466
218.538
218.61
218.682
218.754
218.827
218.899
218.971
219.043
219.115
219.187
219.259
219.331
219.403
219.475
219.547
219.619
219.691
219.763
219.835
219.907
219.979
220.051
220.123
220.195
220.267
220.339
220.41
220.482
220.554
220.626
220.698
220.769
220.841
220.913
220.984
221.056
221.128
221.199
221.271
221.343
221.414
221.486
221.557
221.629
221.7
221.772
221.843
221.915
221.986
222.058
222.129
222.2
222.272
222.343
222.414
222.486
222.557
222.628
222.699
222.77
222.842
222.913
222.984
223.055
223.126
223.197
223.268
223.339
223.41
223.481
223.552
223.623
223.694
223.765
223.836
223.906
223.977
224.048
224.119
224.189
224.26
224.331
224.401
224.472
224.542
224.613
224.683
224.754
224.824
224.895
224.965
225.036
225.106
225.176
225.246
225.317
225.387
225.457
225.527
225.597
225.667
225.737
225.807
225.877
225.947
226.017
226.087
226.157
226.227
226.296
226.366
226.436
226.506
226.575
226.645
226.714
226.784
226.853
226.923
226.992
227.061
227.131
227.2
227.269
227.338
227.407
227.477
227.546
227.615
227.684
227.752
227.821
227.89
227.959
228.028
228.096
228.165
228.234
228.302
228.371
228.439
228.508
228.576
228.644
228.713
228.781
228.849
228.917
228.985
229.053
229.121
229.189
229.257
229.324
229.392
229.46
229.528
229.595
229.663
229.73
229.797
229.865
229.932
229.999
230.066
230.133
230.2
230.267
230.334
230.401
230.468
230.535
230.601
230.668
230.734
230.801
230.867
230.933
231
231.066
231.132
231.198
231.264
231.33
231.396
231.461
231.527
231.593
231.658
231.723
231.789
231.854
231.919
231.984
232.049
232.114
232.179
232.244
232.309
232.373
232.438
232.502
232.567
232.631
232.695
232.759
232.824
232.887
232.951
233.015
233.079
233.142
233.206
233.269
233.333
233.396
233.459
233.522
233.585
233.648
233.711
233.773
233.836
233.898
233.961
234.023
234.085
234.147
234.209
234.271
234.333
234.394
234.456
234.517
234.578
234.64
234.701
234.762
234.823
234.883
234.944
235.005
235.065
235.125
235.186
235.246
235.306
235.366
235.425
235.485
235.545
235.604
235.663
235.723
235.782
235.841
235.899
235.958
236.017
236.075
236.134
236.192
236.25
236.308
236.366
236.423
236.481
236.539
236.596
236.653
236.71
236.767
236.824
236.881
236.938
236.994
237.05
237.107
237.163
237.219
237.275
237.33
237.386
237.441
237.497
237.552
237.607
237.662
237.717
237.772
237.826
237.881
237.935
237.989
238.043
238.097
238.151
238.205
238.258
238.311
238.365
238.418
238.471
238.524
238.577
238.629
238.682
238.734
238.786
238.839
238.891
238.942
238.994
239.046
239.097
239.149
239.2
239.251
239.302
239.353
239.404
239.454
239.505
239.555
239.606
239.656
239.706
239.756
239.805
239.855
239.905
239.954
240.004
240.053
240.102
240.151
240.2
240.248
240.297
240.346
240.394
240.442
240.491
240.539
240.587
240.635
240.682
240.73
240.778
240.825
240.873
240.92
240.967
241.014
241.061
241.108
241.155
241.202
241.248
241.295
241.341
241.387
241.434
241.48
241.526
241.572
241.618
241.664
241.709
241.755
241.801
241.846
241.891
241.937
241.982
242.027
242.072
242.117
242.162
242.207
242.252
242.297
242.341
242.386
242.43
242.475
242.519
242.564
242.608
242.652
242.696
242.74
242.784
242.828
242.872
242.916
242.96
243.004
243.047
243.091
243.135
243.178
243.222
243.265
243.308
243.352
243.395
243.438
243.482
243.525
243.568
243.611
243.654
243.697
243.74
243.783
243.826
243.869
243.911
243.954
243.997
244.04
244.082
244.125
244.168
244.21
244.253
244.295
244.338
244.38
244.423
244.465
244.508
244.55
244.592
244.635
244.677
244.719
244.761
244.804
244.846
244.888
244.93
244.972
245.014
245.057
245.099
245.141
245.183
245.225
245.267
245.309
245.351
245.393
245.435
245.477
245.519
245.561
245.602
245.644
245.686
245.728
245.77
245.812
245.854
245.896
245.937
245.979
246.021
246.063
246.105
246.146
246.188
246.23
246.272
246.313
246.355
246.397
246.438
246.48
246.522
246.564
246.605
246.647
246.689
246.73
246.772
246.814
246.855
246.897
246.939
246.98
247.022
247.064
247.105
247.147
247.188
247.23
247.272
247.313
247.355
247.396
247.438
247.48
247.521
247.563
247.604
247.646
247.688
247.729
247.771
247.812
247.854
247.896
247.937
247.979
248.02
248.062
248.103
248.145
248.187
248.228
248.27
248.311
248.353
248.394
248.436
248.477
248.519
248.561
248.602
248.644
248.685
248.727
248.768
248.81
248.851
248.893
248.934
248.976
249.018
249.059
249.101
249.142
249.184
249.225
249.267
249.308
249.35
249.391
249.433
249.474
249.516
249.557
249.599
249.641
249.682
249.724
249.765
249.807
249.848
249.89
249.931
249.973
250.014
250.056
250.097
250.139
250.18
250.222
250.263
250.305
250.346
250.388
250.429
250.471
250.513
250.554
250.596
250.637
250.679
250.72
250.762
250.803
250.845
250.886
250.928
250.969
251.011
251.052
251.094
251.135
251.177
251.218
251.26
251.301
251.343
251.384
251.426
251.467
251.509
251.55
251.592
251.633
251.675
251.716
251.758
251.799
251.841
251.882
251.924
251.965
252.007
252.048
252.09
252.132
252.173
252.215
252.256
252.298
252.339
252.381
252.422
252.464
252.505
252.547
252.588
252.63
252.671
252.713
252.754
252.796
252.837
252.879
252.92
252.962
253.003
253.045
253.086
253.128
253.169
253.211
253.252
253.294
253.335
253.377
253.418
253.46
253.501
253.543
253.584
253.626
253.667
253.709
253.75
253.791
253.833
253.874
253.916
253.957
253.999
254.04
254.082
254.123
254.165
254.206
254.248
254.289
254.331
254.372
254.414
254.455
254.497
254.538
254.58
254.621
254.663
254.704
254.746
254.787
254.829
254.87
254.912
254.953
254.995
255.036
255.078
255.119
255.161
255.202
255.244
255.285
255.326
255.368
255.409
255.451
255.492
255.534
255.575
255.617
255.658
255.7
255.741
255.783
255.824
255.866
255.907
255.949
255.99
256.032
256.073
256.114
256.156
256.197
256.239
256.28
256.322
256.363
256.405
256.446
256.488
256.529
256.571
256.612
256.654
256.695
256.737
256.778
256.819
256.861
256.902
256.944
256.985
257.027
257.068
257.11
257.151
257.193
257.234
257.276
257.317
257.358
257.4
257.441
257.483
257.524
257.566
257.607
257.649
257.69
257.732
257.773
257.814
257.856
257.897
257.939
257.98
258.022
258.063
258.105
258.146
258.187
258.229
258.27
258.312
258.353
258.395
258.436
258.478
258.519
258.56
258.602