/*--------------------------------*- C++ -*----------------------------------*\
  =========                 |
  \\      /  F ield         | OpenFOAM: The Open Source CFD Toolbox
   \\    /   O peration     | Website:  https://openfoam.org
    \\  /    A nd           | Version:  9
     \\/     M anipulation  |
\*---------------------------------------------------------------------------*/
FoamFile
{
    format      ascii;
    class       volVectorField;
    location    "0.011";
    object      U;
}
// * * * * * * * * * * * * * * * * * * * * * * * * * * * * * * * * * * * * * //

dimensions      [0 1 -1 0 0 0 0];

internalField   nonuniform List<vector> 
100
(
(0.240022 0 0)
(0.667533 0 0)
(1.22595 0 0)
(2.19976 0 0)
(3.73879 0 0)
(5.98417 0 0)
(8.95379 0 0)
(12.6032 0 0)
(16.8804 0 0)
(21.7088 0 0)
(26.9925 0 0)
(32.637 0 0)
(38.56 0 0)
(44.696 0 0)
(50.995 0 0)
(57.42 0 0)
(63.9432 0 0)
(70.5436 0 0)
(77.2051 0 0)
(83.9148 0 0)
(90.6625 0 0)
(97.4396 0 0)
(104.239 0 0)
(111.054 0 0)
(117.88 0 0)
(124.71 0 0)
(131.54 0 0)
(138.364 0 0)
(145.184 0 0)
(151.977 0 0)
(158.772 0 0)
(165.511 0 0)
(172.247 0 0)
(178.938 0 0)
(185.565 0 0)
(192.181 0 0)
(198.714 0 0)
(205.166 0 0)
(211.57 0 0)
(217.874 0 0)
(224.059 0 0)
(230.139 0 0)
(236.089 0 0)
(241.87 0 0)
(247.475 0 0)
(252.893 0 0)
(258.079 0 0)
(262.991 0 0)
(267.62 0 0)
(271.944 0 0)
(275.926 0 0)
(279.484 0 0)
(282.609 0 0)
(285.342 0 0)
(287.625 0 0)
(289.459 0 0)
(290.923 0 0)
(291.897 0 0)
(292.5 0 0)
(293.008 0 0)
(293.332 0 0)
(293.523 0 0)
(293.637 0 0)
(293.633 0 0)
(293.609 0 0)
(293.603 0 0)
(293.603 0 0)
(293.606 0 0)
(293.614 0 0)
(293.624 0 0)
(293.627 0 0)
(293.624 0 0)
(293.624 0 0)
(293.63 0 0)
(293.646 0 0)
(293.673 0 0)
(293.73 0 0)
(293.844 0 0)
(294.025 0 0)
(294.217 0 0)
(294.12 0 0)
(293.791 0 0)
(293.581 0 0)
(293.435 0 0)
(293.342 0 0)
(293.293 0 0)
(293.218 0 0)
(293.1 0 0)
(292.977 0 0)
(292.804 0 0)
(292.526 0 0)
(292.239 0 0)
(291.955 0 0)
(291.576 0 0)
(291.104 0 0)
(290.424 0 0)
(289.443 0 0)
(288.527 0 0)
(287.913 0 0)
(287.37 0 0)
)
;

boundaryField
{
    sides
    {
        type            zeroGradient;
    }
    empty
    {
        type            empty;
    }
}


// ************************************************************************* //
