/*--------------------------------*- C++ -*----------------------------------*\
  =========                 |
  \\      /  F ield         | OpenFOAM: The Open Source CFD Toolbox
   \\    /   O peration     | Website:  https://openfoam.org
    \\  /    A nd           | Version:  9
     \\/     M anipulation  |
\*---------------------------------------------------------------------------*/
FoamFile
{
    format      ascii;
    class       volScalarField;
    location    "0.022";
    object      mag(U);
}
// * * * * * * * * * * * * * * * * * * * * * * * * * * * * * * * * * * * * * //

dimensions      [0 1 -1 0 0 0 0];

internalField   nonuniform List<scalar> 
10000
(
2.39048
2.48426
2.55643
2.61811
2.68075
2.74534
2.8104
2.87522
2.93989
3.00455
3.06925
3.13397
3.1987
3.26343
3.32815
3.39286
3.45757
3.52228
3.58698
3.65168
3.71638
3.78108
3.84578
3.91048
3.97518
4.03988
4.10458
4.16929
4.23399
4.29869
4.36339
4.42809
4.4928
4.5575
4.6222
4.68691
4.75161
4.81632
4.88102
4.94573
5.01044
5.07514
5.13985
5.20456
5.26926
5.33397
5.39868
5.46339
5.5281
5.59281
5.65752
5.72223
5.78694
5.85165
5.91636
5.98107
6.04579
6.1105
6.17521
6.23992
6.30464
6.36935
6.43407
6.49878
6.5635
6.62821
6.69293
6.75765
6.82236
6.88708
6.9518
7.01652
7.08123
7.14595
7.21067
7.27539
7.34011
7.40483
7.46955
7.53427
7.599
7.66372
7.72844
7.79316
7.85789
7.92261
7.98733
8.05206
8.11678
8.18151
8.24623
8.31096
8.37568
8.44041
8.50514
8.56986
8.63459
8.69932
8.76405
8.82878
8.89351
8.95824
9.02297
9.0877
9.15243
9.21716
9.28189
9.34662
9.41135
9.47609
9.54082
9.60555
9.67029
9.73502
9.79976
9.86449
9.92923
9.99396
10.0587
10.1234
10.1882
10.2529
10.3176
10.3824
10.4471
10.5119
10.5766
10.6413
10.7061
10.7708
10.8356
10.9003
10.965
11.0298
11.0945
11.1593
11.224
11.2888
11.3535
11.4182
11.483
11.5477
11.6125
11.6772
11.742
11.8067
11.8715
11.9362
12.001
12.0657
12.1305
12.1952
12.26
12.3247
12.3895
12.4542
12.519
12.5837
12.6485
12.7132
12.778
12.8427
12.9075
12.9722
13.037
13.1017
13.1665
13.2312
13.296
13.3607
13.4255
13.4903
13.555
13.6198
13.6845
13.7493
13.814
13.8788
13.9436
14.0083
14.0731
14.1378
14.2026
14.2674
14.3321
14.3969
14.4617
14.5264
14.5912
14.6559
14.7207
14.7855
14.8502
14.915
14.9798
15.0445
15.1093
15.1741
15.2388
15.3036
15.3684
15.4331
15.4979
15.5627
15.6274
15.6922
15.757
15.8217
15.8865
15.9513
16.0161
16.0808
16.1456
16.2104
16.2751
16.3399
16.4047
16.4695
16.5342
16.599
16.6638
16.7286
16.7933
16.8581
16.9229
16.9877
17.0524
17.1172
17.182
17.2468
17.3116
17.3763
17.4411
17.5059
17.5707
17.6355
17.7002
17.765
17.8298
17.8946
17.9594
18.0242
18.0889
18.1537
18.2185
18.2833
18.3481
18.4129
18.4776
18.5424
18.6072
18.672
18.7368
18.8016
18.8664
18.9312
18.9959
19.0607
19.1255
19.1903
19.2551
19.3199
19.3847
19.4495
19.5143
19.5791
19.6439
19.7086
19.7734
19.8382
19.903
19.9678
20.0326
20.0974
20.1622
20.227
20.2918
20.3566
20.4214
20.4862
20.551
20.6158
20.6806
20.7454
20.8102
20.875
20.9398
21.0046
21.0694
21.1342
21.199
21.2638
21.3286
21.3934
21.4582
21.523
21.5878
21.6526
21.7174
21.7822
21.847
21.9118
21.9766
22.0414
22.1062
22.1711
22.2359
22.3007
22.3655
22.4303
22.4951
22.5599
22.6247
22.6895
22.7543
22.8192
22.884
22.9488
23.0136
23.0784
23.1432
23.208
23.2728
23.3377
23.4025
23.4673
23.5321
23.5969
23.6617
23.7265
23.7914
23.8562
23.921
23.9858
24.0506
24.1155
24.1803
24.2451
24.3099
24.3747
24.4395
24.5044
24.5692
24.634
24.6988
24.7637
24.8285
24.8933
24.9581
25.023
25.0878
25.1526
25.2174
25.2823
25.3471
25.4119
25.4767
25.5416
25.6064
25.6712
25.736
25.8009
25.8657
25.9305
25.9954
26.0602
26.125
26.1898
26.2547
26.3195
26.3843
26.4492
26.514
26.5788
26.6437
26.7085
26.7733
26.8382
26.903
26.9678
27.0327
27.0975
27.1624
27.2272
27.292
27.3569
27.4217
27.4865
27.5514
27.6162
27.6811
27.7459
27.8107
27.8756
27.9404
28.0053
28.0701
28.1349
28.1998
28.2646
28.3295
28.3943
28.4592
28.524
28.5888
28.6537
28.7185
28.7834
28.8482
28.9131
28.9779
29.0428
29.1076
29.1725
29.2373
29.3022
29.367
29.4319
29.4967
29.5616
29.6264
29.6913
29.7561
29.821
29.8858
29.9507
30.0155
30.0804
30.1452
30.2101
30.2749
30.3398
30.4046
30.4695
30.5344
30.5992
30.6641
30.7289
30.7938
30.8586
30.9235
30.9884
31.0532
31.1181
31.1829
31.2478
31.3127
31.3775
31.4424
31.5072
31.5721
31.637
31.7018
31.7667
31.8316
31.8964
31.9613
32.0261
32.091
32.1559
32.2207
32.2856
32.3505
32.4153
32.4802
32.5451
32.6099
32.6748
32.7397
32.8045
32.8694
32.9343
32.9992
33.064
33.1289
33.1938
33.2586
33.3235
33.3884
33.4533
33.5181
33.583
33.6479
33.7127
33.7776
33.8425
33.9074
33.9722
34.0371
34.102
34.1669
34.2318
34.2966
34.3615
34.4264
34.4913
34.5561
34.621
34.6859
34.7508
34.8157
34.8805
34.9454
35.0103
35.0752
35.1401
35.205
35.2698
35.3347
35.3996
35.4645
35.5294
35.5943
35.6591
35.724
35.7889
35.8538
35.9187
35.9836
36.0485
36.1134
36.1782
36.2431
36.308
36.3729
36.4378
36.5027
36.5676
36.6325
36.6974
36.7623
36.8271
36.892
36.9569
37.0218
37.0867
37.1516
37.2165
37.2814
37.3463
37.4112
37.4761
37.541
37.6059
37.6708
37.7357
37.8006
37.8655
37.9304
37.9953
38.0602
38.1251
38.19
38.2549
38.3198
38.3847
38.4496
38.5145
38.5794
38.6443
38.7092
38.7741
38.839
38.9039
38.9688
39.0337
39.0986
39.1635
39.2284
39.2933
39.3582
39.4231
39.488
39.5529
39.6179
39.6828
39.7477
39.8126
39.8775
39.9424
40.0073
40.0722
40.1371
40.202
40.267
40.3319
40.3968
40.4617
40.5266
40.5915
40.6564
40.7214
40.7863
40.8512
40.9161
40.981
41.0459
41.1108
41.1758
41.2407
41.3056
41.3705
41.4354
41.5004
41.5653
41.6302
41.6951
41.76
41.825
41.8899
41.9548
42.0197
42.0846
42.1496
42.2145
42.2794
42.3443
42.4093
42.4742
42.5391
42.604
42.669
42.7339
42.7988
42.8637
42.9287
42.9936
43.0585
43.1234
43.1884
43.2533
43.3182
43.3832
43.4481
43.513
43.578
43.6429
43.7078
43.7727
43.8377
43.9026
43.9675
44.0325
44.0974
44.1623
44.2273
44.2922
44.3571
44.4221
44.487
44.552
44.6169
44.6818
44.7468
44.8117
44.8766
44.9416
45.0065
45.0715
45.1364
45.2013
45.2663
45.3312
45.3962
45.4611
45.526
45.591
45.6559
45.7209
45.7858
45.8508
45.9157
45.9806
46.0456
46.1105
46.1755
46.2404
46.3054
46.3703
46.4353
46.5002
46.5652
46.6301
46.6951
46.76
46.825
46.8899
46.9549
47.0198
47.0848
47.1497
47.2147
47.2796
47.3446
47.4095
47.4745
47.5394
47.6044
47.6693
47.7343
47.7992
47.8642
47.9291
47.9941
48.0591
48.124
48.189
48.2539
48.3189
48.3838
48.4488
48.5138
48.5787
48.6437
48.7086
48.7736
48.8386
48.9035
48.9685
49.0334
49.0984
49.1634
49.2283
49.2933
49.3583
49.4232
49.4882
49.5532
49.6181
49.6831
49.7481
49.813
49.878
49.943
50.0079
50.0729
50.1379
50.2028
50.2678
50.3328
50.3977
50.4627
50.5277
50.5926
50.6576
50.7226
50.7876
50.8525
50.9175
50.9825
51.0474
51.1124
51.1774
51.2424
51.3073
51.3723
51.4373
51.5023
51.5672
51.6322
51.6972
51.7622
51.8272
51.8921
51.9571
52.0221
52.0871
52.152
52.217
52.282
52.347
52.412
52.4769
52.5419
52.6069
52.6719
52.7369
52.8019
52.8668
52.9318
52.9968
53.0618
53.1268
53.1918
53.2568
53.3217
53.3867
53.4517
53.5167
53.5817
53.6467
53.7117
53.7767
53.8416
53.9066
53.9716
54.0366
54.1016
54.1666
54.2316
54.2966
54.3616
54.4266
54.4916
54.5565
54.6215
54.6865
54.7515
54.8165
54.8815
54.9465
55.0115
55.0765
55.1415
55.2065
55.2715
55.3365
55.4015
55.4665
55.5315
55.5965
55.6615
55.7265
55.7915
55.8565
55.9215
55.9865
56.0515
56.1165
56.1815
56.2465
56.3115
56.3765
56.4415
56.5065
56.5715
56.6365
56.7015
56.7665
56.8315
56.8965
56.9615
57.0266
57.0916
57.1566
57.2216
57.2866
57.3516
57.4166
57.4816
57.5466
57.6116
57.6766
57.7417
57.8067
57.8717
57.9367
58.0017
58.0667
58.1317
58.1967
58.2618
58.3268
58.3918
58.4568
58.5218
58.5868
58.6519
58.7169
58.7819
58.8469
58.9119
58.9769
59.042
59.107
59.172
59.237
59.302
59.3671
59.4321
59.4971
59.5621
59.6271
59.6922
59.7572
59.8222
59.8872
59.9523
60.0173
60.0823
60.1473
60.2124
60.2774
60.3424
60.4074
60.4725
60.5375
60.6025
60.6675
60.7326
60.7976
60.8626
60.9277
60.9927
61.0577
61.1227
61.1878
61.2528
61.3178
61.3829
61.4479
61.5129
61.578
61.643
61.708
61.7731
61.8381
61.9031
61.9682
62.0332
62.0982
62.1633
62.2283
62.2934
62.3584
62.4234
62.4885
62.5535
62.6185
62.6836
62.7486
62.8137
62.8787
62.9437
63.0088
63.0738
63.1389
63.2039
63.2689
63.334
63.399
63.4641
63.5291
63.5942
63.6592
63.7243
63.7893
63.8543
63.9194
63.9844
64.0495
64.1145
64.1796
64.2446
64.3097
64.3747
64.4398
64.5048
64.5699
64.6349
64.7
64.765
64.8301
64.8951
64.9602
65.0252
65.0903
65.1553
65.2204
65.2854
65.3505
65.4156
65.4806
65.5457
65.6107
65.6758
65.7408
65.8059
65.8709
65.936
66.0011
66.0661
66.1312
66.1962
66.2613
66.3264
66.3914
66.4565
66.5215
66.5866
66.6517
66.7167
66.7818
66.8468
66.9119
66.977
67.042
67.1071
67.1722
67.2372
67.3023
67.3674
67.4324
67.4975
67.5626
67.6276
67.6927
67.7578
67.8228
67.8879
67.953
68.018
68.0831
68.1482
68.2132
68.2783
68.3434
68.4085
68.4735
68.5386
68.6037
68.6687
68.7338
68.7989
68.864
68.929
68.9941
69.0592
69.1243
69.1893
69.2544
69.3195
69.3846
69.4497
69.5147
69.5798
69.6449
69.71
69.775
69.8401
69.9052
69.9703
70.0354
70.1004
70.1655
70.2306
70.2957
70.3608
70.4259
70.4909
70.556
70.6211
70.6862
70.7513
70.8164
70.8815
70.9465
71.0116
71.0767
71.1418
71.2069
71.272
71.3371
71.4021
71.4672
71.5323
71.5974
71.6625
71.7276
71.7927
71.8578
71.9229
71.988
72.053
72.1181
72.1832
72.2483
72.3134
72.3785
72.4436
72.5087
72.5738
72.6389
72.704
72.7691
72.8342
72.8993
72.9644
73.0295
73.0946
73.1597
73.2248
73.2899
73.355
73.4201
73.4852
73.5503
73.6154
73.6805
73.7456
73.8107
73.8758
73.9409
74.006
74.0711
74.1362
74.2013
74.2664
74.3315
74.3966
74.4617
74.5268
74.5919
74.657
74.7221
74.7872
74.8523
74.9174
74.9826
75.0477
75.1128
75.1779
75.243
75.3081
75.3732
75.4383
75.5034
75.5685
75.6337
75.6988
75.7639
75.829
75.8941
75.9592
76.0243
76.0895
76.1546
76.2197
76.2848
76.3499
76.415
76.4802
76.5453
76.6104
76.6755
76.7406
76.8057
76.8709
76.936
77.0011
77.0662
77.1313
77.1965
77.2616
77.3267
77.3918
77.457
77.5221
77.5872
77.6523
77.7175
77.7826
77.8477
77.9128
77.978
78.0431
78.1082
78.1733
78.2385
78.3036
78.3687
78.4338
78.499
78.5641
78.6292
78.6944
78.7595
78.8246
78.8897
78.9549
79.02
79.0851
79.1503
79.2154
79.2805
79.3457
79.4108
79.4759
79.5411
79.6062
79.6713
79.7365
79.8016
79.8668
79.9319
79.997
80.0622
80.1273
80.1924
80.2576
80.3227
80.3879
80.453
80.5181
80.5833
80.6484
80.7136
80.7787
80.8438
80.909
80.9741
81.0393
81.1044
81.1696
81.2347
81.2998
81.365
81.4301
81.4953
81.5604
81.6256
81.6907
81.7559
81.821
81.8862
81.9513
82.0165
82.0816
82.1468
82.2119
82.2771
82.3422
82.4074
82.4725
82.5377
82.6028
82.668
82.7331
82.7983
82.8634
82.9286
82.9937
83.0589
83.124
83.1892
83.2543
83.3195
83.3847
83.4498
83.515
83.5801
83.6453
83.7104
83.7756
83.8408
83.9059
83.9711
84.0362
84.1014
84.1666
84.2317
84.2969
84.362
84.4272
84.4924
84.5575
84.6227
84.6879
84.753
84.8182
84.8833
84.9485
85.0137
85.0788
85.144
85.2092
85.2743
85.3395
85.4047
85.4698
85.535
85.6002
85.6654
85.7305
85.7957
85.8609
85.926
85.9912
86.0564
86.1215
86.1867
86.2519
86.3171
86.3822
86.4474
86.5126
86.5778
86.6429
86.7081
86.7733
86.8385
86.9036
86.9688
87.034
87.0992
87.1643
87.2295
87.2947
87.3599
87.4251
87.4902
87.5554
87.6206
87.6858
87.751
87.8161
87.8813
87.9465
88.0117
88.0769
88.142
88.2072
88.2724
88.3376
88.4028
88.468
88.5332
88.5983
88.6635
88.7287
88.7939
88.8591
88.9243
88.9895
89.0547
89.1198
89.185
89.2502
89.3154
89.3806
89.4458
89.511
89.5762
89.6414
89.7066
89.7717
89.8369
89.9021
89.9673
90.0325
90.0977
90.1629
90.2281
90.2933
90.3585
90.4237
90.4889
90.5541
90.6193
90.6845
90.7497
90.8149
90.8801
90.9453
91.0105
91.0757
91.1409
91.2061
91.2713
91.3365
91.4017
91.4669
91.5321
91.5973
91.6625
91.7277
91.7929
91.8581
91.9233
91.9885
92.0537
92.1189
92.1841
92.2493
92.3145
92.3797
92.445
92.5102
92.5754
92.6406
92.7058
92.771
92.8362
92.9014
92.9666
93.0318
93.0971
93.1623
93.2275
93.2927
93.3579
93.4231
93.4883
93.5535
93.6188
93.684
93.7492
93.8144
93.8796
93.9448
94.0101
94.0753
94.1405
94.2057
94.2709
94.3361
94.4014
94.4666
94.5318
94.597
94.6622
94.7275
94.7927
94.8579
94.9231
94.9883
95.0536
95.1188
95.184
95.2492
95.3145
95.3797
95.4449
95.5101
95.5754
95.6406
95.7058
95.771
95.8363
95.9015
95.9667
96.032
96.0972
96.1624
96.2276
96.2929
96.3581
96.4233
96.4886
96.5538
96.619
96.6843
96.7495
96.8147
96.88
96.9452
97.0104
97.0757
97.1409
97.2061
97.2714
97.3366
97.4018
97.4671
97.5323
97.5975
97.6628
97.728
97.7933
97.8585
97.9237
97.989
98.0542
98.1194
98.1847
98.2499
98.3152
98.3804
98.4457
98.5109
98.5761
98.6414
98.7066
98.7719
98.8371
98.9024
98.9676
99.0329
99.0981
99.1633
99.2286
99.2938
99.3591
99.4243
99.4896
99.5548
99.6201
99.6853
99.7506
99.8158
99.8811
99.9463
100.012
100.077
100.142
100.207
100.273
100.338
100.403
100.468
100.534
100.599
100.664
100.729
100.795
100.86
100.925
100.99
101.056
101.121
101.186
101.251
101.317
101.382
101.447
101.512
101.578
101.643
101.708
101.773
101.839
101.904
101.969
102.035
102.1
102.165
102.23
102.296
102.361
102.426
102.491
102.557
102.622
102.687
102.752
102.818
102.883
102.948
103.014
103.079
103.144
103.209
103.275
103.34
103.405
103.47
103.536
103.601
103.666
103.731
103.797
103.862
103.927
103.993
104.058
104.123
104.188
104.254
104.319
104.384
104.45
104.515
104.58
104.645
104.711
104.776
104.841
104.906
104.972
105.037
105.102
105.168
105.233
105.298
105.363
105.429
105.494
105.559
105.625
105.69
105.755
105.82
105.886
105.951
106.016
106.082
106.147
106.212
106.277
106.343
106.408
106.473
106.539
106.604
106.669
106.734
106.8
106.865
106.93
106.996
107.061
107.126
107.191
107.257
107.322
107.387
107.453
107.518
107.583
107.649
107.714
107.779
107.844
107.91
107.975
108.04
108.106
108.171
108.236
108.301
108.367
108.432
108.497
108.563
108.628
108.693
108.759
108.824
108.889
108.954
109.02
109.085
109.15
109.216
109.281
109.346
109.412
109.477
109.542
109.608
109.673
109.738
109.803
109.869
109.934
109.999
110.065
110.13
110.195
110.261
110.326
110.391
110.457
110.522
110.587
110.652
110.718
110.783
110.848
110.914
110.979
111.044
111.11
111.175
111.24
111.306
111.371
111.436
111.502
111.567
111.632
111.698
111.763
111.828
111.893
111.959
112.024
112.089
112.155
112.22
112.285
112.351
112.416
112.481
112.547
112.612
112.677
112.743
112.808
112.873
112.939
113.004
113.069
113.135
113.2
113.265
113.331
113.396
113.461
113.527
113.592
113.657
113.723
113.788
113.853
113.919
113.984
114.049
114.115
114.18
114.245
114.311
114.376
114.441
114.507
114.572
114.637
114.703
114.768
114.833
114.899
114.964
115.029
115.095
115.16
115.225
115.291
115.356
115.421
115.487
115.552
115.617
115.683
115.748
115.813
115.879
115.944
116.009
116.075
116.14
116.205
116.271
116.336
116.401
116.467
116.532
116.597
116.663
116.728
116.793
116.859
116.924
116.99
117.055
117.12
117.186
117.251
117.316
117.382
117.447
117.512
117.578
117.643
117.708
117.774
117.839
117.904
117.97
118.035
118.1
118.166
118.231
118.297
118.362
118.427
118.493
118.558
118.623
118.689
118.754
118.819
118.885
118.95
119.015
119.081
119.146
119.212
119.277
119.342
119.408
119.473
119.538
119.604
119.669
119.734
119.8
119.865
119.931
119.996
120.061
120.127
120.192
120.257
120.323
120.388
120.454
120.519
120.584
120.65
120.715
120.78
120.846
120.911
120.976
121.042
121.107
121.173
121.238
121.303
121.369
121.434
121.499
121.565
121.63
121.696
121.761
121.826
121.892
121.957
122.022
122.088
122.153
122.219
122.284
122.349
122.415
122.48
122.545
122.611
122.676
122.742
122.807
122.872
122.938
123.003
123.069
123.134
123.199
123.265
123.33
123.395
123.461
123.526
123.592
123.657
123.722
123.788
123.853
123.919
123.984
124.049
124.115
124.18
124.245
124.311
124.376
124.442
124.507
124.572
124.638
124.703
124.769
124.834
124.899
124.965
125.03
125.096
125.161
125.226
125.292
125.357
125.423
125.488
125.553
125.619
125.684
125.75
125.815
125.88
125.946
126.011
126.077
126.142
126.207
126.273
126.338
126.404
126.469
126.534
126.6
126.665
126.731
126.796
126.861
126.927
126.992
127.058
127.123
127.188
127.254
127.319
127.385
127.45
127.515
127.581
127.646
127.712
127.777
127.843
127.908
127.973
128.039
128.104
128.17
128.235
128.3
128.366
128.431
128.497
128.562
128.627
128.693
128.758
128.824
128.889
128.955
129.02
129.085
129.151
129.216
129.282
129.347
129.412
129.478
129.543
129.609
129.674
129.74
129.805
129.87
129.936
130.001
130.067
130.132
130.198
130.263
130.328
130.394
130.459
130.525
130.59
130.656
130.721
130.786
130.852
130.917
130.983
131.048
131.113
131.179
131.244
131.31
131.375
131.441
131.506
131.572
131.637
131.702
131.768
131.833
131.899
131.964
132.03
132.095
132.16
132.226
132.291
132.357
132.422
132.488
132.553
132.618
132.684
132.749
132.815
132.88
132.946
133.011
133.077
133.142
133.207
133.273
133.338
133.404
133.469
133.535
133.6
133.666
133.731
133.796
133.862
133.927
133.993
134.058
134.124
134.189
134.255
134.32
134.385
134.451
134.516
134.582
134.647
134.713
134.778
134.844
134.909
134.974
135.04
135.105
135.171
135.236
135.302
135.367
135.433
135.498
135.564
135.629
135.694
135.76
135.825
135.891
135.956
136.022
136.087
136.153
136.218
136.284
136.349
136.414
136.48
136.545
136.611
136.676
136.742
136.807
136.873
136.938
137.004
137.069
137.135
137.2
137.265
137.331
137.396
137.462
137.527
137.593
137.658
137.724
137.789
137.855
137.92
137.986
138.051
138.117
138.182
138.247
138.313
138.378
138.444
138.509
138.575
138.64
138.706
138.771
138.837
138.902
138.968
139.033
139.099
139.164
139.23
139.295
139.361
139.426
139.491
139.557
139.622
139.688
139.753
139.819
139.884
139.95
140.015
140.081
140.146
140.212
140.277
140.343
140.408
140.474
140.539
140.605
140.67
140.736
140.801
140.867
140.932
140.998
141.063
141.129
141.194
141.259
141.325
141.39
141.456
141.521
141.587
141.652
141.718
141.783
141.849
141.914
141.98
142.045
142.111
142.176
142.242
142.307
142.373
142.438
142.504
142.569
142.635
142.7
142.766
142.831
142.897
142.962
143.028
143.093
143.159
143.224
143.29
143.355
143.421
143.486
143.552
143.617
143.683
143.748
143.814
143.879
143.945
144.01
144.076
144.141
144.207
144.272
144.338
144.403
144.469
144.534
144.6
144.665
144.731
144.796
144.862
144.927
144.993
145.058
145.124
145.189
145.255
145.32
145.386
145.451
145.517
145.582
145.648
145.713
145.779
145.844
145.91
145.975
146.041
146.107
146.172
146.238
146.303
146.369
146.434
146.5
146.565
146.631
146.696
146.762
146.827
146.893
146.958
147.024
147.089
147.155
147.22
147.286
147.351
147.417
147.482
147.548
147.613
147.679
147.744
147.81
147.876
147.941
148.007
148.072
148.138
148.203
148.269
148.334
148.4
148.465
148.531
148.596
148.662
148.727
148.793
148.858
148.924
148.989
149.055
149.121
149.186
149.252
149.317
149.383
149.448
149.514
149.579
149.645
149.71
149.776
149.841
149.907
149.972
150.038
150.104
150.169
150.235
150.3
150.366
150.431
150.497
150.562
150.628
150.693
150.759
150.824
150.89
150.956
151.021
151.087
151.152
151.218
151.283
151.349
151.414
151.48
151.545
151.611
151.677
151.742
151.808
151.873
151.939
152.004
152.07
152.135
152.201
152.266
152.332
152.398
152.463
152.529
152.594
152.66
152.725
152.791
152.856
152.922
152.988
153.053
153.119
153.184
153.25
153.315
153.381
153.446
153.512
153.578
153.643
153.709
153.774
153.84
153.905
153.971
154.036
154.102
154.168
154.233
154.299
154.364
154.43
154.495
154.561
154.626
154.692
154.758
154.823
154.889
154.954
155.02
155.085
155.151
155.217
155.282
155.348
155.413
155.479
155.544
155.61
155.675
155.741
155.807
155.872
155.938
156.003
156.069
156.134
156.2
156.266
156.331
156.397
156.462
156.528
156.593
156.659
156.725
156.79
156.856
156.921
156.987
157.052
157.118
157.184
157.249
157.315
157.38
157.446
157.512
157.577
157.643
157.708
157.774
157.839
157.905
157.971
158.036
158.102
158.167
158.233
158.298
158.364
158.43
158.495
158.561
158.626
158.692
158.758
158.823
158.889
158.954
159.02
159.085
159.151
159.217
159.282
159.348
159.413
159.479
159.545
159.61
159.676
159.741
159.807
159.873
159.938
160.004
160.069
160.135
160.201
160.266
160.332
160.397
160.463
160.528
160.594
160.66
160.725
160.791
160.856
160.922
160.988
161.053
161.119
161.184
161.25
161.316
161.381
161.447
161.512
161.578
161.644
161.709
161.775
161.84
161.906
161.972
162.037
162.103
162.168
162.234
162.3
162.365
162.431
162.496
162.562
162.628
162.693
162.759
162.825
162.89
162.956
163.021
163.087
163.153
163.218
163.284
163.349
163.415
163.481
163.546
163.612
163.677
163.743
163.809
163.874
163.94
164.005
164.071
164.137
164.202
164.268
164.334
164.399
164.465
164.53
164.596
164.662
164.727
164.793
164.858
164.924
164.99
165.055
165.121
165.187
165.252
165.318
165.383
165.449
165.515
165.58
165.646
165.712
165.777
165.843
165.908
165.974
166.04
166.105
166.171
166.237
166.302
166.368
166.433
166.499
166.565
166.63
166.696
166.762
166.827
166.893
166.958
167.024
167.09
167.155
167.221
167.287
167.352
167.418
167.483
167.549
167.615
167.68
167.746
167.812
167.877
167.943
168.009
168.074
168.14
168.205
168.271
168.337
168.402
168.468
168.534
168.599
168.665
168.731
168.796
168.862
168.927
168.993
169.059
169.124
169.19
169.256
169.321
169.387
169.453
169.518
169.584
169.65
169.715
169.781
169.846
169.912
169.978
170.043
170.109
170.175
170.24
170.306
170.372
170.437
170.503
170.569
170.634
170.7
170.765
170.831
170.897
170.962
171.028
171.094
171.159
171.225
171.291
171.356
171.422
171.488
171.553
171.619
171.685
171.75
171.816
171.882
171.947
172.013
172.079
172.144
172.21
172.276
172.341
172.407
172.472
172.538
172.604
172.669
172.735
172.801
172.866
172.932
172.998
173.063
173.129
173.195
173.26
173.326
173.392
173.457
173.523
173.589
173.654
173.72
173.786
173.851
173.917
173.983
174.048
174.114
174.18
174.245
174.311
174.377
174.442
174.508
174.574
174.639
174.705
174.771
174.836
174.902
174.968
175.033
175.099
175.165
175.23
175.296
175.362
175.427
175.493
175.559
175.624
175.69
175.756
175.821
175.887
175.953
176.019
176.084
176.15
176.216
176.281
176.347
176.413
176.478
176.544
176.61
176.675
176.741
176.807
176.872
176.938
177.004
177.069
177.135
177.201
177.266
177.332
177.398
177.463
177.529
177.595
177.661
177.726
177.792
177.858
177.923
177.989
178.055
178.12
178.186
178.252
178.317
178.383
178.449
178.514
178.58
178.646
178.712
178.777
178.843
178.909
178.974
179.04
179.106
179.171
179.237
179.303
179.368
179.434
179.5
179.566
179.631
179.697
179.763
179.828
179.894
179.96
180.025
180.091
180.157
180.222
180.288
180.354
180.42
180.485
180.551
180.617
180.682
180.748
180.814
180.879
180.945
181.011
181.077
181.142
181.208
181.274
181.339
181.405
181.471
181.536
181.602
181.668
181.734
181.799
181.865
181.931
181.996
182.062
182.128
182.194
182.259
182.325
182.391
182.456
182.522
182.588
182.653
182.719
182.785
182.851
182.916
182.982
183.048
183.113
183.179
183.245
183.311
183.376
183.442
183.508
183.573
183.639
183.705
183.771
183.836
183.902
183.968
184.033
184.099
184.165
184.231
184.296
184.362
184.428
184.493
184.559
184.625
184.691
184.756
184.822
184.888
184.953
185.019
185.085
185.151
185.216
185.282
185.348
185.414
185.479
185.545
185.611
185.676
185.742
185.808
185.874
185.939
186.005
186.071
186.136
186.202
186.268
186.334
186.399
186.465
186.531
186.597
186.662
186.728
186.794
186.859
186.925
186.991
187.057
187.122
187.188
187.254
187.32
187.385
187.451
187.517
187.583
187.648
187.714
187.78
187.845
187.911
187.977
188.043
188.108
188.174
188.24
188.306
188.371
188.437
188.503
188.569
188.634
188.7
188.766
188.831
188.897
188.963
189.029
189.094
189.16
189.226
189.292
189.357
189.423
189.489
189.555
189.62
189.686
189.752
189.818
189.883
189.949
190.015
190.081
190.146
190.212
190.278
190.344
190.409
190.475
190.541
190.606
190.672
190.738
190.804
190.869
190.935
191.001
191.067
191.132
191.198
191.264
191.33
191.395
191.461
191.527
191.593
191.658
191.724
191.79
191.856
191.921
191.987
192.053
192.119
192.184
192.25
192.316
192.382
192.447
192.513
192.579
192.645
192.71
192.776
192.842
192.908
192.974
193.039
193.105
193.171
193.237
193.302
193.368
193.434
193.5
193.565
193.631
193.697
193.763
193.828
193.894
193.96
194.026
194.091
194.157
194.223
194.289
194.354
194.42
194.486
194.552
194.617
194.683
194.749
194.815
194.881
194.946
195.012
195.078
195.144
195.209
195.275
195.341
195.407
195.472
195.538
195.604
195.67
195.735
195.801
195.867
195.933
195.999
196.064
196.13
196.196
196.262
196.327
196.393
196.459
196.525
196.59
196.656
196.722
196.788
196.854
196.919
196.985
197.051
197.117
197.182
197.248
197.314
197.38
197.445
197.511
197.577
197.643
197.709
197.774
197.84
197.906
197.972
198.037
198.103
198.169
198.235
198.301
198.366
198.432
198.498
198.564
198.629
198.695
198.761
198.827
198.893
198.958
199.024
199.09
199.156
199.221
199.287
199.353
199.419
199.485
199.55
199.616
199.682
199.748
199.813
199.879
199.945
200.011
200.077
200.142
200.208
200.274
200.34
200.406
200.471
200.537
200.603
200.669
200.734
200.8
200.866
200.932
200.998
201.063
201.129
201.195
201.261
201.327
201.392
201.458
201.524
201.59
201.655
201.721
201.787
201.853
201.919
201.984
202.05
202.116
202.182
202.248
202.313
202.379
202.445
202.511
202.577
202.642
202.708
202.774
202.84
202.905
202.971
203.037
203.103
203.169
203.234
203.3
203.366
203.432
203.498
203.563
203.629
203.695
203.761
203.827
203.892
203.958
204.024
204.09
204.156
204.221
204.287
204.353
204.419
204.485
204.55
204.616
204.682
204.748
204.814
204.879
204.945
205.011
205.077
205.143
205.208
205.274
205.34
205.406
205.472
205.537
205.603
205.669
205.735
205.801
205.866
205.932
205.998
206.064
206.13
206.195
206.261
206.327
206.393
206.459
206.524
206.59
206.656
206.722
206.788
206.853
206.919
206.985
207.051
207.117
207.182
207.248
207.314
207.38
207.446
207.511
207.577
207.643
207.709
207.775
207.84
207.906
207.972
208.038
208.104
208.169
208.235
208.301
208.367
208.433
208.499
208.564
208.63
208.696
208.762
208.828
208.893
208.959
209.025
209.091
209.157
209.222
209.288
209.354
209.42
209.486
209.551
209.617
209.683
209.749
209.815
209.881
209.946
210.012
210.078
210.144
210.21
210.275
210.341
210.407
210.473
210.539
210.604
210.67
210.736
210.802
210.868
210.933
210.999
211.065
211.131
211.197
211.263
211.328
211.394
211.46
211.526
211.592
211.657
211.723
211.789
211.855
211.921
211.987
212.052
212.118
212.184
212.25
212.316
212.381
212.447
212.513
212.579
212.645
212.71
212.776
212.842
212.908
212.974
213.04
213.105
213.171
213.237
213.303
213.369
213.434
213.5
213.566
213.632
213.698
213.764
213.829
213.895
213.961
214.027
214.093
214.158
214.224
214.29
214.356
214.422
214.488
214.553
214.619
214.685
214.751
214.817
214.882
214.948
215.014
215.08
215.146
215.212
215.277
215.343
215.409
215.475
215.541
215.606
215.672
215.738
215.804
215.87
215.936
216.001
216.067
216.133
216.199
216.265
216.33
216.396
216.462
216.528
216.594
216.66
216.725
216.791
216.857
216.923
216.989
217.055
217.12
217.186
217.252
217.318
217.384
217.449
217.515
217.581
217.647
217.713
217.779
217.844
217.91
217.976
218.042
218.108
218.173
218.239
218.305
218.371
218.437
218.503
218.568
218.634
218.7
218.766
218.832
218.898
218.963
219.029
219.095
219.161
219.227
219.292
219.358
219.424
219.49
219.556
219.622
219.687
219.753
219.819
219.885
219.951
220.016
220.082
220.148
220.214
220.28
220.346
220.411
220.477
220.543
220.609
220.675
220.74
220.806
220.872
220.938
221.004
221.07
221.135
221.201
221.267
221.333
221.399
221.465
221.53
221.596
221.662
221.728
221.794
221.859
221.925
221.991
222.057
222.123
222.189
222.254
222.32
222.386
222.452
222.518
222.583
222.649
222.715
222.781
222.847
222.913
222.978
223.044
223.11
223.176
223.242
223.307
223.373
223.439
223.505
223.571
223.637
223.702
223.768
223.834
223.9
223.966
224.031
224.097
224.163
224.229
224.295
224.361
224.426
224.492
224.558
224.624
224.69
224.755
224.821
224.887
224.953
225.019
225.084
225.15
225.216
225.282
225.348
225.414
225.479
225.545
225.611
225.677
225.743
225.808
225.874
225.94
226.006
226.072
226.137
226.203
226.269
226.335
226.401
226.467
226.532
226.598
226.664
226.73
226.796
226.861
226.927
226.993
227.059
227.125
227.19
227.256
227.322
227.388
227.454
227.519
227.585
227.651
227.717
227.783
227.849
227.914
227.98
228.046
228.112
228.178
228.243
228.309
228.375
228.441
228.507
228.572
228.638
228.704
228.77
228.836
228.901
228.967
229.033
229.099
229.165
229.23
229.296
229.362
229.428
229.494
229.559
229.625
229.691
229.757
229.823
229.888
229.954
230.02
230.086
230.152
230.217
230.283
230.349
230.415
230.481
230.546
230.612
230.678
230.744
230.81
230.875
230.941
231.007
231.073
231.139
231.204
231.27
231.336
231.402
231.467
231.533
231.599
231.665
231.731
231.796
231.862
231.928
231.994
232.06
232.125
232.191
232.257
232.323
232.388
232.454
232.52
232.586
232.652
232.717
232.783
232.849
232.915
232.981
233.046
233.112
233.178
233.244
233.309
233.375
233.441
233.507
233.573
233.638
233.704
233.77
233.836
233.901
233.967
234.033
234.099
234.165
234.23
234.296
234.362
234.428
234.493
234.559
234.625
234.691
234.756
234.822
234.888
234.954
235.019
235.085
235.151
235.217
235.283
235.348
235.414
235.48
235.546
235.611
235.677
235.743
235.809
235.874
235.94
236.006
236.072
236.137
236.203
236.269
236.335
236.4
236.466
236.532
236.598
236.663
236.729
236.795
236.861
236.926
236.992
237.058
237.124
237.189
237.255
237.321
237.387
237.452
237.518
237.584
237.65
237.715
237.781
237.847
237.913
237.978
238.044
238.11
238.176
238.241
238.307
238.373
238.438
238.504
238.57
238.636
238.701
238.767
238.833
238.899
238.964
239.03
239.096
239.161
239.227
239.293
239.359
239.424
239.49
239.556
239.622
239.687
239.753
239.819
239.884
239.95
240.016
240.082
240.147
240.213
240.279
240.344
240.41
240.476
240.541
240.607
240.673
240.739
240.804
240.87
240.936
241.001
241.067
241.133
241.198
241.264
241.33
241.396
241.461
241.527
241.593
241.658
241.724
241.79
241.855
241.921
241.987
242.052
242.118
242.184
242.25
242.315
242.381
242.447
242.512
242.578
242.644
242.709
242.775
242.841
242.906
242.972
243.038
243.103
243.169
243.235
243.3
243.366
243.432
243.497
243.563
243.629
243.694
243.76
243.826
243.891
243.957
244.022
244.088
244.154
244.219
244.285
244.351
244.416
244.482
244.548
244.613
244.679
244.745
244.81
244.876
244.941
245.007
245.073
245.138
245.204