/*--------------------------------*- C++ -*----------------------------------*\
  =========                 |
  \\      /  F ield         | OpenFOAM: The Open Source CFD Toolbox
   \\    /   O peration     | Website:  https://openfoam.org
    \\  /    A nd           | Version:  9
     \\/     M anipulation  |
\*---------------------------------------------------------------------------*/
FoamFile
{
    format      ascii;
    class       volScalarField;
    location    "0.037";
    object      p;
}
// * * * * * * * * * * * * * * * * * * * * * * * * * * * * * * * * * * * * * //

dimensions      [1 -1 -2 0 0 0 0];

internalField   nonuniform List<scalar> 
10000
(
12682.3
12682.2
12682.2
12682.2
12682.1
12682.1
12682.1
12682.1
12682.1
12682.1
12682.1
12682.1
12682.1
12682.1
12682.1
12682.1
12682.1
12682.1
12682.1
12682.1
12682.2
12682.2
12682.2
12682.2
12682.3
12682.3
12682.3
12682.4
12682.4
12682.4
12682.5
12682.5
12682.6
12682.6
12682.7
12682.7
12682.8
12682.8
12682.9
12682.9
12683
12683
12683.1
12683.1
12683.2
12683.2
12683.3
12683.3
12683.4
12683.4
12683.5
12683.5
12683.6
12683.6
12683.7
12683.7
12683.8
12683.8
12683.9
12683.9
12683.9
12684
12684
12684
12684.1
12684.1
12684.1
12684.1
12684.2
12684.2
12684.2
12684.2
12684.2
12684.2
12684.2
12684.2
12684.2
12684.2
12684.2
12684.2
12684.2
12684.2
12684.1
12684.1
12684.1
12684
12684
12684
12683.9
12683.9
12683.8
12683.8
12683.7
12683.7
12683.6
12683.5
12683.5
12683.4
12683.3
12683.2
12683.1
12683.1
12683
12682.9
12682.8
12682.7
12682.6
12682.5
12682.4
12682.3
12682.1
12682
12681.9
12681.8
12681.7
12681.6
12681.4
12681.3
12681.2
12681
12680.9
12680.8
12680.6
12680.5
12680.4
12680.2
12680.1
12680
12679.8
12679.7
12679.5
12679.4
12679.3
12679.1
12679
12678.8
12678.7
12678.5
12678.4
12678.3
12678.1
12678
12677.9
12677.7
12677.6
12677.5
12677.3
12677.2
12677.1
12677
12676.8
12676.7
12676.6
12676.5
12676.4
12676.3
12676.1
12676
12675.9
12675.8
12675.7
12675.6
12675.5
12675.5
12675.4
12675.3
12675.2
12675.1
12675.1
12675
12674.9
12674.9
12674.8
12674.8
12674.7
12674.6
12674.6
12674.6
12674.5
12674.5
12674.5
12674.4
12674.4
12674.4
12674.4
12674.3
12674.3
12674.3
12674.3
12674.3
12674.3
12674.3
12674.3
12674.3
12674.4
12674.4
12674.4
12674.4
12674.4
12674.5
12674.5
12674.5
12674.6
12674.6
12674.6
12674.7
12674.7
12674.8
12674.8
12674.9
12674.9
12675
12675
12675.1
12675.1
12675.2
12675.3
12675.3
12675.4
12675.4
12675.5
12675.6
12675.6
12675.7
12675.7
12675.8
12675.9
12675.9
12676
12676
12676.1
12676.2
12676.2
12676.3
12676.3
12676.4
12676.4
12676.5
12676.5
12676.6
12676.6
12676.6
12676.7
12676.7
12676.7
12676.8
12676.8
12676.8
12676.8
12676.9
12676.9
12676.9
12676.9
12676.9
12676.9
12676.9
12676.9
12676.9
12676.8
12676.8
12676.8
12676.8
12676.7
12676.7
12676.6
12676.6
12676.5
12676.5
12676.4
12676.4
12676.3
12676.2
12676.1
12676.1
12676
12675.9
12675.8
12675.7
12675.6
12675.5
12675.4
12675.3
12675.2
12675.1
12674.9
12674.8
12674.7
12674.6
12674.4
12674.3
12674.2
12674
12673.9
12673.7
12673.6
12673.5
12673.3
12673.2
12673
12672.9
12672.7
12672.6
12672.4
12672.3
12672.1
12672
12671.8
12671.7
12671.5
12671.4
12671.2
12671.1
12670.9
12670.8
12670.6
12670.5
12670.3
12670.2
12670
12669.9
12669.8
12669.6
12669.5
12669.4
12669.2
12669.1
12669
12668.9
12668.7
12668.6
12668.5
12668.4
12668.3
12668.2
12668.1
12668
12667.9
12667.8
12667.7
12667.6
12667.5
12667.5
12667.4
12667.3
12667.3
12667.2
12667.1
12667.1
12667
12667
12666.9
12666.9
12666.8
12666.8
12666.8
12666.7
12666.7
12666.7
12666.7
12666.7
12666.6
12666.6
12666.6
12666.6
12666.6
12666.6
12666.6
12666.6
12666.6
12666.6
12666.7
12666.7
12666.7
12666.7
12666.7
12666.8
12666.8
12666.8
12666.8
12666.9
12666.9
12666.9
12667
12667
12667.1
12667.1
12667.1
12667.2
12667.2
12667.2
12667.3
12667.3
12667.4
12667.4
12667.4
12667.5
12667.5
12667.6
12667.6
12667.6
12667.7
12667.7
12667.7
12667.7
12667.8
12667.8
12667.8
12667.8
12667.9
12667.9
12667.9
12667.9
12667.9
12667.9
12667.9
12667.9
12667.9
12667.9
12667.9
12667.9
12667.9
12667.8
12667.8
12667.8
12667.8
12667.7
12667.7
12667.7
12667.6
12667.6
12667.5
12667.5
12667.4
12667.3
12667.3
12667.2
12667.1
12667.1
12667
12666.9
12666.8
12666.8
12666.7
12666.6
12666.5
12666.4
12666.3
12666.2
12666.1
12666
12665.9
12665.8
12665.7
12665.6
12665.5
12665.3
12665.2
12665.1
12665
12664.9
12664.8
12664.7
12664.5
12664.4
12664.3
12664.2
12664.1
12664
12663.8
12663.7
12663.6
12663.5
12663.4
12663.3
12663.2
12663.1
12662.9
12662.8
12662.7
12662.6
12662.5
12662.4
12662.3
12662.2
12662.1
12662
12661.9
12661.8
12661.8
12661.7
12661.6
12661.5
12661.4
12661.3
12661.3
12661.2
12661.1
12661.1
12661
12660.9
12660.9
12660.8
12660.8
12660.7
12660.6
12660.6
12660.6
12660.5
12660.5
12660.4
12660.4
12660.4
12660.3
12660.3
12660.3
12660.2
12660.2
12660.2
12660.2
12660.2
12660.1
12660.1
12660.1
12660.1
12660.1
12660.1
12660.1
12660.1
12660.1
12660.1
12660.1
12660.1
12660.1
12660.1
12660.1
12660.1
12660.1
12660.1
12660.1
12660.1
12660.1
12660.1
12660.1
12660.1
12660.1
12660.1
12660.1
12660.2
12660.2
12660.2
12660.2
12660.2
12660.2
12660.2
12660.2
12660.2
12660.2
12660.1
12660.1
12660.1
12660.1
12660.1
12660.1
12660.1
12660
12660
12660
12660
12659.9
12659.9
12659.9
12659.8
12659.8
12659.7
12659.7
12659.6
12659.6
12659.5
12659.5
12659.4
12659.3
12659.3
12659.2
12659.1
12659.1
12659
12658.9
12658.8
12658.7
12658.7
12658.6
12658.5
12658.4
12658.3
12658.2
12658.1
12658
12657.9
12657.8
12657.7
12657.6
12657.5
12657.4
12657.3
12657.2
12657
12656.9
12656.8
12656.7
12656.6
12656.5
12656.4
12656.2
12656.1
12656
12655.9
12655.8
12655.7
12655.6
12655.4
12655.3
12655.2
12655.1
12655
12654.9
12654.8
12654.7
12654.5
12654.4
12654.3
12654.2
12654.1
12654
12653.9
12653.8
12653.7
12653.6
12653.5
12653.4
12653.4
12653.3
12653.2
12653.1
12653
12652.9
12652.9
12652.8
12652.7
12652.6
12652.6
12652.5
12652.4
12652.4
12652.3
12652.3
12652.2
12652.2
12652.1
12652.1
12652
12652
12652
12651.9
12651.9
12651.8
12651.8
12651.8
12651.8
12651.7
12651.7
12651.7
12651.7
12651.7
12651.7
12651.7
12651.6
12651.6
12651.6
12651.6
12651.6
12651.6
12651.6
12651.6
12651.6
12651.7
12651.7
12651.7
12651.7
12651.7
12651.7
12651.7
12651.8
12651.8
12651.8
12651.8
12651.8
12651.8
12651.9
12651.9
12651.9
12651.9
12652
12652
12652
12652
12652
12652.1
12652.1
12652.1
12652.1
12652.1
12652.1
12652.2
12652.2
12652.2
12652.2
12652.2
12652.2
12652.2
12652.2
12652.2
12652.2
12652.2
12652.2
12652.2
12652.2
12652.2
12652.2
12652.1
12652.1
12652.1
12652.1
12652
12652
12651.9
12651.9
12651.9
12651.8
12651.7
12651.7
12651.6
12651.6
12651.5
12651.4
12651.4
12651.3
12651.2
12651.1
12651
12650.9
12650.8
12650.7
12650.6
12650.5
12650.4
12650.3
12650.2
12650.1
12650
12649.8
12649.7
12649.6
12649.5
12649.3
12649.2
12649.1
12648.9
12648.8
12648.7
12648.5
12648.4
12648.2
12648.1
12647.9
12647.8
12647.6
12647.5
12647.3
12647.2
12647
12646.9
12646.7
12646.6
12646.4
12646.3
12646.1
12646
12645.8
12645.7
12645.5
12645.4
12645.2
12645.1
12644.9
12644.8
12644.7
12644.5
12644.4
12644.2
12644.1
12644
12643.8
12643.7
12643.6
12643.5
12643.3
12643.2
12643.1
12643
12642.9
12642.8
12642.7
12642.6
12642.5
12642.4
12642.3
12642.2
12642.1
12642
12642
12641.9
12641.8
12641.7
12641.7
12641.6
12641.6
12641.5
12641.5
12641.4
12641.4
12641.3
12641.3
12641.3
12641.2
12641.2
12641.2
12641.1
12641.1
12641.1
12641.1
12641.1
12641.1
12641.1
12641.1
12641.1
12641.1
12641.1
12641.1
12641.1
12641.1
12641.1
12641.1
12641.2
12641.2
12641.2
12641.2
12641.3
12641.3
12641.3
12641.4
12641.4
12641.4
12641.5
12641.5
12641.5
12641.6
12641.6
12641.6
12641.7
12641.7
12641.8
12641.8
12641.8
12641.9
12641.9
12641.9
12642
12642
12642
12642.1
12642.1
12642.1
12642.2
12642.2
12642.2
12642.2
12642.2
12642.3
12642.3
12642.3
12642.3
12642.3
12642.3
12642.3
12642.3
12642.3
12642.3
12642.3
12642.2
12642.2
12642.2
12642.2
12642.1
12642.1
12642.1
12642
12642
12641.9
12641.8
12641.8
12641.7
12641.6
12641.6
12641.5
12641.4
12641.3
12641.3
12641.2
12641.1
12641
12640.9
12640.8
12640.7
12640.6
12640.5
12640.4
12640.3
12640.1
12640
12639.9
12639.8
12639.7
12639.6
12639.5
12639.3
12639.2
12639.1
12639
12638.9
12638.7
12638.6
12638.5
12638.4
12638.2
12638.1
12638
12637.9
12637.8
12637.6
12637.5
12637.4
12637.3
12637.2
12637
12636.9
12636.8
12636.7
12636.6
12636.4
12636.3
12636.2
12636.1
12636
12635.8
12635.7
12635.6
12635.5
12635.4
12635.3
12635.1
12635
12634.9
12634.8
12634.7
12634.6
12634.5
12634.3
12634.2
12634.1
12634
12633.9
12633.8
12633.7
12633.6
12633.5
12633.4
12633.3
12633.2
12633
12632.9
12632.8
12632.7
12632.6
12632.5
12632.5
12632.4
12632.3
12632.2
12632.1
12632
12631.9
12631.8
12631.8
12631.7
12631.6
12631.5
12631.5
12631.4
12631.3
12631.3
12631.2
12631.1
12631.1
12631
12631
12630.9
12630.9
12630.8
12630.8
12630.8
12630.7
12630.7
12630.7
12630.7
12630.6
12630.6
12630.6
12630.6
12630.6
12630.6
12630.6
12630.6
12630.6
12630.6
12630.6
12630.6
12630.6
12630.6
12630.6
12630.7
12630.7
12630.7
12630.7
12630.7
12630.8
12630.8
12630.8
12630.9
12630.9
12630.9
12630.9
12631
12631
12631
12631.1
12631.1
12631.1
12631.2
12631.2
12631.2
12631.3
12631.3
12631.3
12631.3
12631.4
12631.4
12631.4
12631.4
12631.5
12631.5
12631.5
12631.5
12631.5
12631.5
12631.5
12631.5
12631.5
12631.5
12631.5
12631.4
12631.4
12631.4
12631.4
12631.3
12631.3
12631.2
12631.2
12631.1
12631.1
12631
12630.9
12630.8
12630.7
12630.6
12630.5
12630.4
12630.3
12630.2
12630.1
12630
12629.8
12629.7
12629.6
12629.4
12629.3
12629.1
12629
12628.8
12628.6
12628.5
12628.3
12628.1
12628
12627.8
12627.6
12627.4
12627.2
12627
12626.9
12626.7
12626.5
12626.3
12626.1
12625.9
12625.8
12625.6
12625.4
12625.2
12625
12624.9
12624.7
12624.5
12624.3
12624.2
12624
12623.9
12623.7
12623.6
12623.4
12623.3
12623.1
12623
12622.8
12622.7
12622.6
12622.5
12622.3
12622.2
12622.1
12622
12621.9
12621.8
12621.7
12621.6
12621.6
12621.5
12621.4
12621.3
12621.3
12621.2
12621.2
12621.1
12621
12621
12621
12620.9
12620.9
12620.8
12620.8
12620.8
12620.8
12620.7
12620.7
12620.7
12620.7
12620.7
12620.6
12620.6
12620.6
12620.6
12620.6
12620.6
12620.6
12620.6
12620.6
12620.6
12620.6
12620.6
12620.6
12620.5
12620.5
12620.5
12620.5
12620.5
12620.5
12620.5
12620.5
12620.5
12620.4
12620.4
12620.4
12620.4
12620.4
12620.3
12620.3
12620.3
12620.2
12620.2
12620.2
12620.1
12620.1
12620
12620
12620
12619.9
12619.9
12619.8
12619.8
12619.7
12619.7
12619.6
12619.5
12619.5
12619.4
12619.4
12619.3
12619.3
12619.2
12619.1
12619.1
12619
12619
12618.9
12618.9
12618.8
12618.7
12618.7
12618.6
12618.6
12618.5
12618.5
12618.4
12618.4
12618.3
12618.3
12618.2
12618.2
12618.2
12618.1
12618.1
12618
12618
12618
12617.9
12617.9
12617.8
12617.8
12617.8
12617.7
12617.7
12617.7
12617.7
12617.6
12617.6
12617.6
12617.5
12617.5
12617.5
12617.4
12617.4
12617.4
12617.3
12617.3
12617.3
12617.2
12617.2
12617.2
12617.1
12617.1
12617
12617
12617
12616.9
12616.9
12616.8
12616.7
12616.7
12616.6
12616.6
12616.5
12616.4
12616.3
12616.3
12616.2
12616.1
12616
12615.9
12615.8
12615.7
12615.6
12615.5
12615.4
12615.3
12615.2
12615.1
12615
12614.9
12614.8
12614.6
12614.5
12614.4
12614.3
12614.2
12614
12613.9
12613.8
12613.6
12613.5
12613.4
12613.3
12613.1
12613
12612.9
12612.8
12612.6
12612.5
12612.4
12612.3
12612.2
12612.1
12612
12611.9
12611.7
12611.6
12611.5
12611.5
12611.4
12611.3
12611.2
12611.1
12611
12610.9
12610.9
12610.8
12610.7
12610.7
12610.6
12610.5
12610.5
12610.4
12610.4
12610.3
12610.3
12610.2
12610.2
12610.1
12610.1
12610.1
12610
12610
12610
12610
12609.9
12609.9
12609.9
12609.8
12609.8
12609.8
12609.8
12609.7
12609.7
12609.7
12609.7
12609.6
12609.6
12609.6
12609.6
12609.5
12609.5
12609.5
12609.4
12609.4
12609.4
12609.3
12609.3
12609.2
12609.2
12609.1
12609.1
12609
12608.9
12608.9
12608.8
12608.7
12608.6
12608.6
12608.5
12608.4
12608.3
12608.2
12608.1
12608
12607.9
12607.8
12607.7
12607.6
12607.5
12607.4
12607.2
12607.1
12607
12606.9
12606.8
12606.7
12606.5
12606.4
12606.3
12606.2
12606
12605.9
12605.8
12605.7
12605.6
12605.4
12605.3
12605.2
12605.1
12605
12604.9
12604.8
12604.7
12604.6
12604.5
12604.4
12604.3
12604.2
12604.1
12604
12603.9
12603.8
12603.8
12603.7
12603.6
12603.5
12603.5
12603.4
12603.3
12603.3
12603.2
12603.1
12603.1
12603
12603
12602.9
12602.9
12602.8
12602.8
12602.7
12602.7
12602.7
12602.6
12602.6
12602.6
12602.5
12602.5
12602.5
12602.4
12602.4
12602.4
12602.4
12602.3
12602.3
12602.3
12602.3
12602.3
12602.2
12602.2
12602.2
12602.2
12602.2
12602.2
12602.1
12602.1
12602.1
12602.1
12602.1
12602
12602
12602
12602
12602
12601.9
12601.9
12601.9
12601.9
12601.8
12601.8
12601.8
12601.7
12601.7
12601.6
12601.6
12601.6
12601.5
12601.5
12601.4
12601.3
12601.3
12601.2
12601.2
12601.1
12601
12601
12600.9
12600.8
12600.7
12600.7
12600.6
12600.5
12600.4
12600.3
12600.2
12600.1
12600.1
12600
12599.9
12599.8
12599.7
12599.6
12599.5
12599.4
12599.3
12599.2
12599.1
12599
12598.9
12598.8
12598.7
12598.6
12598.4
12598.3
12598.2
12598.1
12598
12597.9
12597.8
12597.7
12597.6
12597.5
12597.4
12597.3
12597.2
12597.1
12597
12596.9
12596.8
12596.7
12596.6
12596.5
12596.4
12596.3
12596.2
12596.1
12596
12595.9
12595.8
12595.7
12595.6
12595.5
12595.4
12595.3
12595.2
12595.1
12595.1
12595
12594.9
12594.8
12594.7
12594.7
12594.6
12594.5
12594.4
12594.4
12594.3
12594.2
12594.2
12594.1
12594.1
12594
12593.9
12593.9
12593.8
12593.8
12593.7
12593.7
12593.6
12593.6
12593.6
12593.5
12593.5
12593.4
12593.4
12593.4
12593.3
12593.3
12593.3
12593.2
12593.2
12593.2
12593.1
12593.1
12593.1
12593
12593
12593
12592.9
12592.9
12592.9
12592.8
12592.8
12592.8
12592.7
12592.7
12592.6
12592.6
12592.5
12592.5
12592.4
12592.4
12592.3
12592.3
12592.2
12592.1
12592.1
12592
12591.9
12591.9
12591.8
12591.7
12591.6
12591.5
12591.5
12591.4
12591.3
12591.2
12591.1
12591
12590.9
12590.8
12590.7
12590.6
12590.5
12590.4
12590.3
12590.2
12590.1
12590
12589.9
12589.7
12589.6
12589.5
12589.4
12589.3
12589.2
12589.1
12589
12588.9
12588.8
12588.7
12588.6
12588.5
12588.4
12588.3
12588.2
12588.1
12588
12587.9
12587.9
12587.8
12587.7
12587.6
12587.5
12587.5
12587.4
12587.3
12587.2
12587.2
12587.1
12587
12587
12586.9
12586.9
12586.8
12586.7
12586.7
12586.6
12586.6
12586.6
12586.5
12586.5
12586.4
12586.4
12586.4
12586.3
12586.3
12586.3
12586.2
12586.2
12586.2
12586.2
12586.1
12586.1
12586.1
12586.1
12586.1
12586
12586
12586
12586
12586
12586
12585.9
12585.9
12585.9
12585.9
12585.9
12585.9
12585.8
12585.8
12585.8
12585.8
12585.7
12585.7
12585.7
12585.7
12585.6
12585.6
12585.6
12585.5
12585.5
12585.4
12585.4
12585.3
12585.3
12585.2
12585.2
12585.1
12585.1
12585
12584.9
12584.8
12584.8
12584.7
12584.6
12584.5
12584.4
12584.4
12584.3
12584.2
12584.1
12584
12583.9
12583.8
12583.7
12583.6
12583.5
12583.4
12583.3
12583.2
12583.1
12583
12582.8
12582.7
12582.6
12582.5
12582.4
12582.3
12582.2
12582.1
12582
12581.9
12581.8
12581.7
12581.6
12581.5
12581.4
12581.3
12581.2
12581.1
12580.9
12580.8
12580.7
12580.6
12580.5
12580.4
12580.3
12580.2
12580.1
12580
12579.9
12579.8
12579.7
12579.5
12579.4
12579.3
12579.2
12579.1
12579
12578.9
12578.7
12578.6
12578.5
12578.4
12578.2
12578.1
12578
12577.9
12577.7
12577.6
12577.5
12577.3
12577.2
12577.1
12576.9
12576.8
12576.7
12576.5
12576.4
12576.3
12576.2
12576
12575.9
12575.8
12575.7
12575.5
12575.4
12575.3
12575.2
12575.1
12575
12574.9
12574.8
12574.7
12574.6
12574.5
12574.4
12574.3
12574.3
12574.2
12574.1
12574
12574
12573.9
12573.8
12573.8
12573.7
12573.7
12573.6
12573.6
12573.5
12573.5
12573.5
12573.4
12573.4
12573.4
12573.3
12573.3
12573.3
12573.2
12573.2
12573.2
12573.2
12573.1
12573.1
12573.1
12573.1
12573.1
12573
12573
12573
12573
12573
12572.9
12572.9
12572.9
12572.8
12572.8
12572.8
12572.7
12572.7
12572.7
12572.6
12572.6
12572.5
12572.5
12572.4
12572.4
12572.3
12572.2
12572.2
12572.1
12572
12572
12571.9
12571.8
12571.7
12571.6
12571.5
12571.4
12571.3
12571.2
12571.1
12571
12570.9
12570.8
12570.7
12570.6
12570.5
12570.3
12570.2
12570.1
12570
12569.9
12569.8
12569.6
12569.5
12569.4
12569.3
12569.2
12569.1
12568.9
12568.8
12568.7
12568.6
12568.5
12568.4
12568.3
12568.2
12568.1
12568
12567.9
12567.8
12567.7
12567.6
12567.6
12567.5
12567.4
12567.3
12567.2
12567.2
12567.1
12567
12567
12566.9
12566.8
12566.8
12566.7
12566.6
12566.6
12566.5
12566.4
12566.4
12566.3
12566.2
12566.2
12566.1
12566.1
12566
12565.9
12565.9
12565.8
12565.7
12565.7
12565.6
12565.5
12565.4
12565.3
12565.3
12565.2
12565.1
12565
12564.9
12564.8
12564.7
12564.6
12564.5
12564.4
12564.3
12564.1
12564
12563.9
12563.8
12563.6
12563.5
12563.4
12563.3
12563.1
12563
12562.9
12562.7
12562.6
12562.5
12562.4
12562.2
12562.1
12562
12561.9
12561.7
12561.6
12561.5
12561.4
12561.3
12561.2
12561.1
12561
12560.9
12560.8
12560.7
12560.6
12560.5
12560.5
12560.4
12560.3
12560.2
12560.2
12560.1
12560
12559.9
12559.9
12559.8
12559.7
12559.7
12559.6
12559.5
12559.5
12559.4
12559.3
12559.3
12559.2
12559.1
12559
12559
12558.9
12558.8
12558.7
12558.6
12558.5
12558.4
12558.3
12558.2
12558.1
12558
12557.9
12557.8
12557.7
12557.6
12557.5
12557.3
12557.2
12557.1
12556.9
12556.8
12556.7
12556.5
12556.4
12556.3
12556.1
12556
12555.9
12555.7
12555.6
12555.4
12555.3
12555.2
12555
12554.9
12554.8
12554.7
12554.5
12554.4
12554.3
12554.2
12554.1
12554
12553.9
12553.8
12553.6
12553.5
12553.4
12553.3
12553.3
12553.2
12553.1
12553
12552.9
12552.8
12552.7
12552.6
12552.5
12552.5
12552.4
12552.3
12552.2
12552.1
12552.1
12552
12551.9
12551.8
12551.8
12551.7
12551.6
12551.5
12551.5
12551.4
12551.3
12551.2
12551.1
12551.1
12551
12550.9
12550.8
12550.7
12550.6
12550.5
12550.4
12550.4
12550.3
12550.2
12550.1
12550
12549.9
12549.8
12549.7
12549.6
12549.5
12549.4
12549.3
12549.2
12549.1
12549
12548.9
12548.8
12548.7
12548.6
12548.5
12548.4
12548.3
12548.2
12548.1
12548
12547.9
12547.8
12547.6
12547.5
12547.4
12547.3
12547.2
12547.1
12547
12546.9
12546.8
12546.7
12546.6
12546.5
12546.4
12546.3
12546.2
12546.1
12546
12545.9
12545.8
12545.7
12545.6
12545.5
12545.4
12545.3
12545.2
12545.1
12545
12544.9
12544.8
12544.7
12544.6
12544.5
12544.3
12544.2
12544.1
12544
12543.9
12543.8
12543.7
12543.6
12543.5
12543.4
12543.3
12543.2
12543.1
12543
12542.9
12542.7
12542.6
12542.5
12542.4
12542.3
12542.2
12542.1
12542
12541.9
12541.8
12541.7
12541.6
12541.5
12541.4
12541.3
12541.3
12541.2
12541.1
12541
12540.9
12540.8
12540.7
12540.6
12540.6
12540.5
12540.4
12540.3
12540.2
12540.2
12540.1
12540
12539.9
12539.9
12539.8
12539.7
12539.7
12539.6
12539.5
12539.4
12539.4
12539.3
12539.2
12539.2
12539.1
12539
12539
12538.9
12538.8
12538.8
12538.7
12538.6
12538.6
12538.5
12538.4
12538.4
12538.3
12538.2
12538.1
12538.1
12538
12537.9
12537.8
12537.7
12537.7
12537.6
12537.5
12537.4
12537.3
12537.2
12537.2
12537.1
12537
12536.9
12536.8
12536.7
12536.7
12536.6
12536.5
12536.4
12536.3
12536.3
12536.2
12536.1
12536
12536
12535.9
12535.8
12535.7
12535.7
12535.6
12535.5
12535.5
12535.4
12535.3
12535.3
12535.2
12535.1
12535.1
12535
12534.9
12534.8
12534.8
12534.7
12534.6
12534.5
12534.5
12534.4
12534.3
12534.2
12534.1
12534.1
12534
12533.9
12533.8
12533.7
12533.6
12533.5
12533.4
12533.3
12533.2
12533.1
12533
12532.9
12532.8
12532.7
12532.6
12532.5
12532.4
12532.3
12532.2
12532.1
12532
12531.9
12531.8
12531.7
12531.6
12531.5
12531.4
12531.3
12531.3
12531.2
12531.1
12531
12531
12530.9
12530.8
12530.8
12530.7
12530.7
12530.6
12530.5
12530.5
12530.4
12530.4
12530.3
12530.3
12530.2
12530.2
12530.1
12530.1
12530
12530
12529.9
12529.9
12529.8
12529.7
12529.7
12529.6
12529.5
12529.5
12529.4
12529.3
12529.2
12529.2
12529.1
12529
12528.9
12528.8
12528.7
12528.6
12528.5
12528.4
12528.3
12528.2
12528.1
12528
12527.9
12527.8
12527.6
12527.5
12527.4
12527.3
12527.2
12527.1
12527
12526.9
12526.8
12526.7
12526.6
12526.6
12526.5
12526.4
12526.3
12526.3
12526.2
12526.1
12526.1
12526
12526
12525.9
12525.9
12525.8
12525.8
12525.7
12525.7
12525.7
12525.7
12525.6
12525.6
12525.6
12525.6
12525.6
12525.6
12525.6
12525.6
12525.5
12525.5
12525.5
12525.5
12525.5
12525.5
12525.5
12525.5
12525.5
12525.5
12525.5
12525.5
12525.5
12525.5
12525.5
12525.5
12525.5
12525.5
12525.5
12525.5
12525.5
12525.5
12525.5
12525.5
12525.5
12525.4
12525.4
12525.4
12525.4
12525.4
12525.3
12525.3
12525.3
12525.2
12525.2
12525.2
12525.1
12525.1
12525.1
12525
12525
12524.9
12524.9
12524.8
12524.8
12524.7
12524.7
12524.6
12524.6
12524.5
12524.4
12524.4
12524.3
12524.3
12524.2
12524.1
12524.1
12524
12523.9
12523.9
12523.8
12523.8
12523.7
12523.6
12523.6
12523.5
12523.4
12523.4
12523.3
12523.3
12523.2
12523.2
12523.1
12523
12523
12522.9
12522.9
12522.8
12522.8
12522.7
12522.7
12522.6
12522.6
12522.5
12522.5
12522.5
12522.4
12522.4
12522.3
12522.3
12522.2
12522.2
12522.2
12522.1
12522.1
12522
12522
12522
12521.9
12521.9
12521.9
12521.8
12521.8
12521.7
12521.7
12521.7
12521.6
12521.6
12521.6
12521.6
12521.5
12521.5
12521.5
12521.4
12521.4
12521.4
12521.4
12521.3
12521.3
12521.3
12521.3
12521.3
12521.2
12521.2
12521.2
12521.2
12521.1
12521.1
12521.1
12521.1
12521.1
12521
12521
12521
12521
12521
12520.9
12520.9
12520.9
12520.9
12520.9
12520.8
12520.8
12520.8
12520.8
12520.7
12520.7
12520.7
12520.7
12520.6
12520.6
12520.6
12520.6
12520.5
12520.5
12520.5
12520.5
12520.4
12520.4
12520.4
12520.4
12520.4
12520.3
12520.3
12520.3
12520.3
12520.3
12520.3
12520.2
12520.2
12520.2
12520.2
12520.2
12520.2
12520.2
12520.2
12520.2
12520.2
12520.2
12520.2
12520.1
12520.1
12520.1
12520.1
12520.1
12520.1
12520.1
12520.1
12520.1
12520.1
12520.1
12520.1
12520.1
12520.1
12520.1
12520.1
12520.1
12520.1
12520.1
12520.1
12520
12520
12520
12520
12520
12520
12519.9
12519.9
12519.9
12519.9
12519.8
12519.8
12519.7
12519.7
12519.7
12519.6
12519.6
12519.5
12519.5
12519.4
12519.4
12519.3
12519.2
12519.2
12519.1
12519.1
12519
12519
12518.9
12518.9
12518.8
12518.8
12518.7
12518.7
12518.7
12518.7
12518.6
12518.6
12518.6
12518.6
12518.6
12518.5
12518.5
12518.5
12518.5
12518.5
12518.5
12518.5
12518.5
12518.6
12518.6
12518.6
12518.6
12518.6
12518.6
12518.6
12518.6
12518.7
12518.7
12518.7
12518.7
12518.7
12518.8
12518.8
12518.8
12518.8
12518.8
12518.9
12518.9
12518.9
12518.9
12518.9
12519
12519
12519
12519
12519
12519
12519
12519.1
12519.1
12519.1
12519.1
12519.1
12519.1
12519.1
12519.1
12519.1
12519.1
12519.1
12519.1
12519.1
12519.1
12519.1
12519.2
12519.2
12519.2
12519.2
12519.2
12519.2
12519.2
12519.2
12519.2
12519.2
12519.2
12519.2
12519.2
12519.2
12519.2
12519.2
12519.2
12519.3
12519.3
12519.3
12519.3
12519.3
12519.3
12519.4
12519.4
12519.4
12519.4
12519.5
12519.5
12519.5
12519.6
12519.6
12519.6
12519.7
12519.7
12519.8
12519.8
12519.9
12520
12520
12520.1
12520.1
12520.2
12520.3
12520.4
12520.4
12520.5
12520.6
12520.6
12520.7
12520.8
12520.9
12521
12521
12521.1
12521.2
12521.3
12521.3
12521.4
12521.5
12521.5
12521.6
12521.7
12521.7
12521.8
12521.9
12521.9
12522
12522.1
12522.1
12522.2
12522.2
12522.3
12522.4
12522.4
12522.5
12522.5
12522.6
12522.7
12522.8
12522.8
12522.9
12523
12523.1
12523.2
12523.3
12523.4
12523.5
12523.6
12523.7
12523.8
12523.9
12524
12524.2
12524.3
12524.4
12524.5
12524.7
12524.8
12524.9
12525.1
12525.2
12525.3
12525.5
12525.6
12525.8
12525.9
12526
12526.2
12526.3
12526.5
12526.6
12526.8
12526.9
12527
12527.2
12527.3
12527.4
12527.6
12527.7
12527.8
12528
12528.1
12528.2
12528.4
12528.5
12528.6
12528.7
12528.9
12529
12529.1
12529.3
12529.4
12529.6
12529.7
12529.8
12530
12530.1
12530.3
12530.5
12530.6
12530.8
12530.9
12531.1
12531.3
12531.4
12531.6
12531.8
12531.9
12532.1
12532.3
12532.4
12532.6
12532.7
12532.9
12533.1
12533.2
12533.4
12533.5
12533.7
12533.8
12534
12534.1
12534.3
12534.4
12534.5
12534.7
12534.8
12534.9
12535.1
12535.2
12535.3
12535.5
12535.6
12535.8
12535.9
12536.1
12536.3
12536.4
12536.6
12536.8
12537
12537.1
12537.3
12537.5
12537.7
12537.9
12538.1
12538.4
12538.6
12538.8
12539
12539.2
12539.4
12539.7
12539.9
12540.1
12540.3
12540.6
12540.8
12541
12541.2
12541.4
12541.7
12541.9
12542.1
12542.3
12542.5
12542.7
12543
12543.2
12543.4
12543.6
12543.8
12544
12544.3
12544.5
12544.7
12545
12545.2
12545.5
12545.7
12546
12546.3
12546.5
12546.8
12547.1
12547.5
12547.8
12548.1
12548.4
12548.8
12549.1
12549.5
12549.8
12550.2
12550.5
12550.9
12551.3
12551.6
12552
12552.4
12552.7
12553.1
12553.5
12553.8
12554.2
12554.5
12554.9
12555.2
12555.6
12556
12556.3
12556.7
12557.1
12557.5
12557.9
12558.3
12558.7
12559.2
12559.7
12560.2
12560.7
12561.2
12561.8
12562.3
12562.9
12563.5
12564.2
12564.8
12565.5
12566.2
12566.9
12567.6
12568.3
12569
12569.7
12570.5
12571.2
12572
12572.7
12573.5
12574.2
12575
12575.7
12576.5
12577.2
12578
12578.7
12579.4
12580.2
12580.9
12581.6
12582.4
12583.1
12583.8
12584.6
12585.3
12586.1
12586.9
12587.6
12588.4
12589.2
12590
12590.8
12591.7
12592.5
12593.3
12594.2
12595
12595.9
12596.8
12597.7
12598.6
12599.5
12600.4
12601.3
12602.2
12603.1
12604
12604.9
12605.8
12606.8
12607.7
12608.6
12609.5
12610.5
12611.4
12612.3
12613.2
12614.1
12615
12616
12616.9
12617.8
12618.7
12619.6
12620.5
12621.4
12622.2
12623.1
12624
12624.9
12625.8
12626.7
12627.5
12628.4
12629.3
12630.2
12631
12631.9
12632.8
12633.7
12634.5
12635.4
12636.3
12637.2
12638.1
12639
12639.8
12640.7
12641.6
12642.5
12643.4
12644.3
12645.2
12646.1
12647
12647.9
12648.8
12649.7
12650.7
12651.6
12652.5
12653.4
12654.3
12655.2
12656.2
12657.1
12658
12658.9
12659.9
12660.8
12661.7
12662.7
12663.6
12664.6
12665.5
12666.4
12667.4
12668.3
12669.3
12670.2
12671.2
12672.1
12673.1
12674
12675
12675.9
12676.9
12677.9
12678.8
12679.8
12680.7
12681.7
12682.7
12683.6
12684.6
12685.6
12686.5
12687.5
12688.5
12689.5
12690.4
12691.4
12692.4
12693.4
12694.3
12695.3
12696.3
12697.3
12698.3
12699.3
12700.3
12701.2
12702.2
12703.2
12704.2
12705.2
12706.2
12707.2
12708.2
12709.2
12710.2
12711.2
12712.2
12713.2
12714.2
12715.2
12716.2
12717.3
12718.3
12719.3
12720.3
12721.3
12722.3
12723.3
12724.4
12725.4
12726.4
12727.4
12728.4
12729.5
12730.5
12731.5
12732.5
12733.6
12734.6
12735.6
12736.7
12737.7
12738.7
12739.8
12740.8
12741.8
12742.9
12743.9
12744.9
12746
12747
12748.1
12749.1
12750.1
12751.2
12752.2
12753.3
12754.3
12755.4
12756.4
12757.5
12758.5
12759.6
12760.6
12761.7
12762.7
12763.8
12764.8
12765.9
12766.9
12768
12769
12770.1
12771.2
12772.2
12773.3
12774.3
12775.4
12776.5
12777.5
12778.6
12779.6
12780.7
12781.8
12782.8
12783.9
12785
12786
12787.1
12788.2
12789.2
12790.3
12791.4
12792.4
12793.5
12794.6
12795.6
12796.7
12797.8
12798.8
12799.9
12801
12802
12803.1
12804.2
12805.2
12806.3
12807.4
12808.5
12809.5
12810.6
12811.7
12812.7
12813.8
12814.9
12816
12817
12818.1
12819.2
12820.3
12821.3
12822.4
12823.5
12824.6
12825.6
12826.7
12827.8
12828.8
12829.9
12831
12832.1
12833.1
12834.2
12835.3
12836.4
12837.5
12838.5
12839.6
12840.7
12841.8
12842.8
12843.9
12845
12846.1
12847.1
12848.2
12849.3
12850.4
12851.4
12852.5
12853.6
12854.7
12855.7
12856.8
12857.9
12859
12860
12861.1
12862.2
12863.3
12864.3
12865.4
12866.5
12867.6
12868.7
12869.7
12870.8
12871.9
12873
12874
12875.1
12876.2
12877.3
12878.4
12879.4
12880.5
12881.6
12882.7
12883.8
12884.8
12885.9
12887
12888.1
12889.1
12890.2
12891.3
12892.4
12893.5
12894.5
12895.6
12896.7
12897.8
12898.9
12899.9
12901
12902.1
12903.2
12904.3
12905.3
12906.4
12907.5
12908.6
12909.7
12910.7
12911.8
12912.9
12914
12915.1
12916.1
12917.2
12918.3
12919.4
12920.5
12921.5
12922.6
12923.7
12924.8
12925.9
12927
12928
12929.1
12930.2
12931.3
12932.4
12933.4
12934.5
12935.6
12936.7
12937.8
12938.9
12939.9
12941
12942.1
12943.2
12944.3
12945.4
12946.4
12947.5
12948.6
12949.7
12950.8
12951.8
12952.9
12954
12955.1
12956.2
12957.3
12958.3
12959.4
12960.5
12961.6
12962.7
12963.8
12964.8
12965.9
12967
12968.1
12969.2
12970.3
12971.3
12972.4
12973.5
12974.6
12975.7
12976.8
12977.8
12978.9
12980
12981.1
12982.2
12983.3
12984.3
12985.4
12986.5
12987.6
12988.7
12989.8
12990.8
12991.9
12993
12994.1
12995.2
12996.3
12997.4
12998.4
12999.5
13000.6
13001.7
13002.8
13003.9
13005
13006
13007.1
13008.2
13009.3
13010.4
13011.5
13012.5
13013.6
13014.7
13015.8
13016.9
13018
13019.1
13020.2
13021.2
13022.3
13023.4
13024.5
13025.6
13026.7
13027.8
13028.9
13029.9
13031
13032.1
13033.2
13034.3
13035.4
13036.5
13037.6
13038.7
13039.7
13040.8
13041.9
13043
13044.1
13045.2
13046.3
13047.4
13048.5
13049.6
13050.6
13051.7
13052.8
13053.9
13055
13056.1
13057.2
13058.3
13059.4
13060.5
13061.6
13062.7
13063.7
13064.8
13065.9
13067
13068.1
13069.2
13070.3
13071.4
13072.5
13073.6
13074.7
13075.8
13076.9
13078
13079.1
13080.1
13081.2
13082.3
13083.4
13084.5
13085.6
13086.7
13087.8
13088.9
13090
13091.1
13092.2
13093.3
13094.4
13095.5
13096.6
13097.7
13098.8
13099.9
13101
13102.1
13103.2
13104.3
13105.4
13106.5
13107.6
13108.7
13109.8
13110.9
13112
13113.1
13114.2
13115.2
13116.3
13117.4
13118.5
13119.6
13120.7
13121.8
13122.9
13124
13125.1
13126.2
13127.3
13128.4
13129.5
13130.6
13131.7
13132.8
13133.9
13135
13136.1
13137.2
13138.4
13139.5
13140.6
13141.7
13142.8
13143.9
13145
13146.1
13147.2
13148.3
13149.4
13150.5
13151.6
13152.7
13153.8
13154.9
13156
13157.1
13158.2
13159.3
13160.4
13161.5
13162.6
13163.7
13164.8
13165.9
13167
13168.1
13169.2
13170.3
13171.4
13172.5
13173.6
13174.7
13175.8
13176.9
13178
13179.1
13180.2
13181.3
13182.4
13183.5
13184.7
13185.8
13186.9
13188
13189.1
13190.2
13191.3
13192.4
13193.5
13194.6
13195.7
13196.8
13197.9
13199
13200.1
13201.2
13202.3
13203.4
13204.5
13205.6
13206.7
13207.8
13208.9
13210
13211.2
13212.3
13213.4
13214.5
13215.6
13216.7
13217.8
13218.9
13220
13221.1
13222.2
13223.3
13224.4
13225.5
13226.6
13227.7
13228.8
13229.9
13231
13232.1
13233.3
13234.4
13235.5
13236.6
13237.7
13238.8
13239.9
13241
13242.1
13243.2
13244.3
13245.4
13246.5
13247.6
13248.7
13249.8
13251
13252.1
13253.2
13254.3
13255.4
13256.5
13257.6
13258.7
13259.8
13260.9
13262
13263.1
13264.2
13265.3
13266.4
13267.6
13268.7
13269.8
13270.9
13272
13273.1
13274.2
13275.3
13276.4
13277.5
13278.6
13279.7
13280.9
13282
13283.1
13284.2
13285.3
13286.4
13287.5
13288.6
13289.7
13290.8
13291.9
13293.1
13294.2
13295.3
13296.4
13297.5
13298.6
13299.7
13300.8
13301.9
13303
13304.1
13305.3
13306.4
13307.5
13308.6
13309.8
13310.9
13312
13313.1
13314.3
13315.4
13316.5
13317.6
13318.7
13319.9
13321
13322.1
13323.2
13324.4
13325.5
13326.6
13327.7
13328.9
13330
13331.1
13332.2
13333.3
13334.4
13335.5
13336.6
13337.7
13338.8
13339.9
13341
13342.2
13343.3
13344.4
13345.5
13346.6
13347.7
13348.8
13349.9
13351
13352.1
13353.3
13354.4
13355.5
13356.6
13357.8
13358.9
13360
13361.1
13362.3
13363.4
13364.5