/*--------------------------------*- C++ -*----------------------------------*\
  =========                 |
  \\      /  F ield         | OpenFOAM: The Open Source CFD Toolbox
   \\    /   O peration     | Website:  https://openfoam.org
    \\  /    A nd           | Version:  9
     \\/     M anipulation  |
\*---------------------------------------------------------------------------*/
FoamFile
{
    format      ascii;
    class       volScalarField;
    location    "0.045";
    object      mag(U);
}
// * * * * * * * * * * * * * * * * * * * * * * * * * * * * * * * * * * * * * //

dimensions      [0 1 -1 0 0 0 0];

internalField   nonuniform List<scalar> 
1000
(
227.552
227.843
228.014
228.199
228.381
228.564
228.746
228.929
229.112
229.294
229.477
229.659
229.842
230.024
230.207
230.389
230.572
230.754
230.937
231.12
231.302
231.485
231.667
231.85
232.032
232.215
232.397
232.58
232.762
232.945
233.127
233.31
233.492
233.675
233.857
234.04
234.222
234.405
234.587
234.77
234.952
235.135
235.317
235.5
235.682
235.865
236.047
236.23
236.412
236.595
236.777
236.96
237.142
237.324
237.507
237.689
237.872
238.054
238.236
238.419
238.601
238.784
238.966
239.149
239.331
239.514
239.696
239.879
240.061
240.243
240.426
240.608
240.79
240.973
241.155
241.338
241.52
241.702
241.885
242.067
242.25
242.432
242.614
242.797
242.979
243.162
243.344
243.526
243.709
243.891
244.073
244.256
244.438
244.621
244.803
244.985
245.168
245.35
245.532
245.715
245.897
246.08
246.262
246.444
246.627
246.809
246.992
247.174
247.356
247.539
247.721
247.903
248.086
248.268
248.45
248.633
248.815
248.998
249.18
249.362
249.545
249.727
249.909
250.092
250.274
250.456
250.639
250.821
251.003
251.186
251.368
251.55
251.733
251.915
252.097
252.28
252.462
252.644
252.827
253.009
253.191
253.374
253.556
253.738
253.92
254.103
254.285
254.467
254.65
254.832
255.014
255.196
255.379
255.561
255.743
255.925
256.108
256.29
256.472
256.655
256.837
257.019
257.202
257.384
257.567
257.749
257.932
258.114
258.297
258.479
258.662
258.844
259.026
259.209
259.391
259.573
259.755
259.938
260.12
260.302
260.484
260.666
260.848
261.03
261.212
261.394
261.577
261.759
261.941
262.123
262.305
262.487
262.67
262.852
263.034
263.216
263.398
263.581
263.763
263.945
264.127
264.31
264.492
264.674
264.857
265.039
265.221
265.403
265.585
265.767
265.95
266.132
266.314
266.496
266.678
266.86
267.042
267.225
267.407
267.589
267.771
267.953
268.135
268.317
268.5
268.682
268.864
269.046
269.228
269.41
269.593
269.775
269.957
270.139
270.321
270.503
270.685
270.868
271.05
271.232
271.414
271.596
271.778
271.96
272.143
272.325
272.507
272.689
272.871
273.053
273.235
273.418
273.6
273.782
273.964
274.146
274.328
274.511
274.693
274.875
275.057
275.239
275.422
275.604
275.785
275.967
276.149
276.332
276.515
276.697
276.878
277.059
277.241
277.424
277.608
277.791
277.972
278.151
278.332
278.514
278.7
278.884
279.065
279.244
279.423
279.604
279.791
279.978
280.158
280.336
280.514
280.694
280.88
281.07
281.251
281.429
281.606
281.784
281.969
282.161
282.344
282.521
282.698
282.875
283.058
283.251
283.437
283.614
283.791
283.967
284.147
284.337
284.529
284.708
284.885
285.061
285.239
285.423
285.619
285.802
285.979
286.155
286.332
286.512
286.705
286.894
287.071
287.248
287.425
287.603
287.79
287.983
288.164
288.341
288.517
288.695
288.877
289.071
289.255
289.433
289.61
289.787
289.967
290.157
290.346
290.524
290.701
290.878
291.056
291.237
291.428
291.616
291.795
291.973
292.151
292.33
292.517
292.709
292.889
293.067
293.245
293.423
293.603
293.789
293.975
294.154
294.333
294.512
294.693
294.88
295.062
295.241
295.421
295.602
295.787
295.968
296.147
296.326
296.505
296.687
296.871
297.05
297.228
297.406
297.585
297.767
297.947
298.124
298.3
298.476
298.653
298.831
299.005
299.178
299.349
299.52
299.692
299.861
300.027
300.191
300.353
300.514
300.673
300.828
300.98
301.127
301.271
301.41
301.544
301.67
301.787
301.893
301.989
302.075
302.148
302.21
302.259
302.295
302.32
302.336
302.344
302.344
302.339
302.327
302.315
302.3
302.276
302.244
302.209
302.173
302.14
302.111
302.083
302.05
302.01
301.98
301.953
301.925
301.893
301.86
301.827
301.799
301.775
301.756
301.735
301.697
301.671
301.668
301.676
301.705
301.752
301.802
301.846
301.881
301.907
301.927
301.942
301.948
301.947
301.95
301.952
301.951
301.947
301.932
301.901
301.888
301.879
301.87
301.859
301.847
301.831
301.805
301.769
301.744
301.722
301.699
301.678
301.653
301.612
301.581
301.568
301.561
301.558
301.559
301.575
301.615
301.65
301.678
301.7
301.719
301.73
301.717
301.701
301.705
301.711
301.716
301.719
301.719
301.71
301.686
301.676
301.672
301.668
301.662
301.655
301.646
301.631
301.602
301.581
301.567
301.553
301.539
301.524
301.507
301.482
301.453
301.439
301.43
301.423
301.419
301.417
301.416
301.417
301.437
301.459
301.479
301.494
301.505
301.505
301.498
301.503
301.508
301.513
301.517
301.519
301.518
301.508
301.499
301.494
301.49
301.483
301.47
301.451
301.44
301.43
301.421
301.41
301.397
301.378
301.352
301.335
301.321
301.308
301.295
301.279
301.257
301.248
301.245
301.246
301.254
301.273
301.293
301.304
301.307
301.315
301.324
301.331
301.336
301.337
301.324
301.306
301.304
301.306
301.306
301.306
301.305
301.303
301.301
301.297
301.292
301.286
301.276
301.255
301.231
301.217
301.205
301.192
301.174
301.15
301.135
301.125
301.116
301.108
301.101
301.091
301.076
301.073
301.082
301.097
301.112
301.117
301.114
301.121
301.128
301.134
301.139
301.142
301.146
301.147
301.144
301.118
301.09
301.084
301.082
301.079
301.076
301.073
301.069
301.065
301.061
301.054
301.047
301.039
301.031
301.02
301.005
300.967
300.921
300.906
300.898
300.893
300.89
300.889
300.891
300.9
300.913
300.927
300.939
300.949
300.958
300.964
300.967
300.955
300.919
300.91
300.911
300.912
300.913
300.914
300.914
300.913
300.91
300.904
300.887
300.87
300.864
300.858
300.851
300.842
300.825
300.806
300.796
300.786
300.776
300.766
300.754
300.738
300.725
300.718
300.714
300.713
300.717
300.722
300.722
300.721
300.725
300.73
300.735
300.737
300.734
300.723
300.718
300.718
300.721
300.722
300.723
300.723
300.721
300.712
300.678
300.646
300.638
300.635
300.631
300.627
300.623
300.619
300.617
300.611
300.604
300.596
300.588
300.574
300.547
300.53
300.523
300.522
300.523
300.527
300.533
300.531
300.52
300.523
300.528
300.532
300.535
300.535
300.523
300.514
300.514
300.514
300.514
300.513
300.508
300.493
300.481
300.477
300.473
300.468
300.458
300.439
300.429
300.423
300.418
300.412
300.404
300.386
300.368
300.359
300.353
300.348
300.343
300.331
300.314
300.31
300.313
300.32
300.327
300.334
300.34
300.343
300.341
300.319
300.29
300.286
300.288
300.29
300.291
300.292
300.292
300.292
300.291
300.29
300.286
300.276
300.244
300.224
300.218
300.214
300.211
300.207
300.203
300.199
300.192
300.177
300.152
300.143
300.138
300.135
300.133
300.132
300.13
300.118
300.109
300.112
300.117
300.121
300.124
300.121
300.096
300.073
300.069
300.07
300.071
300.073
300.075
300.077
300.078
300.077
300.076
300.075
300.073
300.068
300.056
300.027
300.012
300.003
299.994
299.976
299.961
299.955
299.951
299.948
299.944
299.941
299.939
299.937
299.931
299.908
299.888
299.888
299.891
299.895
299.899
299.903
299.907
299.91
299.912
299.913
299.913
299.912
299.904
299.869
299.826
299.818
299.816
299.815
299.814
299.812
299.811
299.81
299.808
299.807
299.804
299.801
299.795
299.776
299.734
299.717
299.712
299.71
299.709
299.707
299.699
299.671
299.556
299.051
297.093
294.416
293.019
292.526
292.348
292.288
292.272
292.271
292.268
292.276
292.278
292.28
292.285
292.29
292.291
292.291
292.289
292.264
292.228
292.214
292.201
292.193
292.184
292.166
292.163
292.166
292.17
292.181
292.182
292.181
292.173
292.145
292.134
292.136
292.14
292.149
292.154
292.156
292.151
292.111
292.066
292.062
292.062
292.059
292.049
292.007
291.859
291.338
289.831
288.01
286.97
286.51
286.305
286.225
286.181
286.09
286.045
286.033
286.026
286.041
286.049
286.058
286.058
286.057
286.056
286.055
286.066
286.071
286.074
286.073
286.051
285.988
285.956
285.95
285.949
285.954
285.978
286.003
286.007
286.006
286
285.964
285.871
285.838
285.835
285.835
285.838
285.854
285.881
285.887
285.888
285.888
285.883
285.865
285.82
285.803
285.8
285.797
285.796
285.793
285.783
285.758
285.746
285.742
285.74
285.74
285.739
285.737
285.732
285.722
285.696
285.678
285.666
285.653
285.622
285.6
285.595
285.591
285.589
285.594
285.61
285.613
285.61
285.606
285.595
285.552
285.501
285.489
285.485
285.483
285.485
285.486
285.483
285.478
285.466
285.436
285.425
285.421
285.419
285.421
285.423
285.422
285.417
)
;

boundaryField
{
    sides
    {
        type            calculated;
        value           nonuniform List<scalar> 2(285.417 227.552);
    }
    empty
    {
        type            empty;
    }
}


// ************************************************************************* //
