/*--------------------------------*- C++ -*----------------------------------*\
  =========                 |
  \\      /  F ield         | OpenFOAM: The Open Source CFD Toolbox
   \\    /   O peration     | Website:  https://openfoam.org
    \\  /    A nd           | Version:  9
     \\/     M anipulation  |
\*---------------------------------------------------------------------------*/
FoamFile
{
    format      ascii;
    class       volScalarField;
    location    "0.045";
    object      p;
}
// * * * * * * * * * * * * * * * * * * * * * * * * * * * * * * * * * * * * * //

dimensions      [1 -1 -2 0 0 0 0];

internalField   nonuniform List<scalar> 
1000
(
44070.9
44016.3
43983.2
43947.5
43912.4
43877.2
43842.1
43807
43772
43736.9
43701.9
43666.9
43631.9
43596.9
43562
43527.1
43492.2
43457.4
43422.5
43387.7
43352.9
43318.2
43283.4
43248.7
43214
43179.3
43144.7
43110.1
43075.5
43040.9
43006.4
42971.8
42937.3
42902.8
42868.4
42833.9
42799.5
42765.1
42730.8
42696.4
42662.1
42627.8
42593.6
42559.3
42525.1
42490.9
42456.7
42422.6
42388.4
42354.3
42320.2
42286.2
42252.2
42218.2
42184.2
42150.2
42116.3
42082.4
42048.5
42014.6
41980.8
41946.9
41913.1
41879.3
41845.6
41811.8
41778.1
41744.5
41710.8
41677.2
41643.5
41610
41576.4
41542.9
41509.3
41475.8
41442.4
41408.9
41375.5
41342.1
41308.7
41275.3
41242
41208.6
41175.3
41142.1
41108.8
41075.6
41042.4
41009.2
40976.1
40942.9
40909.8
40876.7
40843.6
40810.6
40777.6
40744.6
40711.6
40678.6
40645.7
40612.8
40579.9
40547
40514.2
40481.3
40448.5
40415.8
40383
40350.3
40317.6
40284.9
40252.2
40219.6
40187
40154.4
40121.8
40089.2
40056.7
40024.2
39991.7
39959.2
39926.8
39894.4
39862
39829.6
39797.2
39764.9
39732.6
39700.3
39668.1
39635.8
39603.6
39571.4
39539.2
39507.1
39474.9
39442.8
39410.8
39378.7
39346.6
39314.6
39282.6
39250.6
39218.7
39186.8
39154.9
39123
39091.1
39059.3
39027.5
38995.7
38963.9
38932.1
38900.4
38868.7
38837
38805.4
38773.7
38742.1
38710.5
38678.9
38647.3
38615.7
38584.2
38552.6
38521.1
38489.6
38458.2
38426.7
38395.3
38363.9
38332.6
38301.2
38269.9
38238.7
38207.4
38176.2
38145
38113.8
38082.7
38051.6
38020.5
37989.4
37958.3
37927.3
37896.3
37865.3
37834.3
37803.3
37772.4
37741.4
37710.5
37679.7
37648.8
37618
37587.1
37556.3
37525.6
37494.8
37464
37433.3
37402.6
37371.9
37341.2
37310.6
37280
37249.4
37218.9
37188.3
37157.8
37127.3
37096.8
37066.4
37035.9
37005.5
36975.1
36944.8
36914.4
36884.1
36853.8
36823.5
36793.2
36763
36732.7
36702.5
36672.3
36642.2
36612
36581.9
36551.8
36521.7
36491.7
36461.6
36431.6
36401.6
36371.6
36341.7
36311.7
36281.8
36251.9
36222.1
36192.2
36162.4
36132.6
36102.8
36073
36043.3
36013.5
35983.8
35954.1
35924.5
35894.8
35865.2
35835.6
35806
35776.4
35746.9
35717.3
35687.8
35658.3
35628.9
35599.5
35570.1
35540.6
35511.1
35481.8
35452.5
35423.3
35394.1
35364.7
35335.2
35305.9
35276.9
35248
35218.9
35189.6
35160.2
35130.8
35101.8
35073.4
35044.7
35015.5
34986
34956.6
34927.5
34899.3
34871.2
34842.1
34812.7
34783.2
34754.1
34725.9
34698.4
34669.5
34640.1
34610.6
34581.4
34553.2
34526.2
34497.6
34468.3
34438.9
34409.7
34381.1
34354.4
34326.4
34297.2
34267.9
34238.7
34210
34182.8
34155.9
34127
34097.9
34068.7
34039.8
34011.9
33985.7
33957.5
33928.5
33899.5
33870.6
33842.2
33815.7
33788.5
33759.8
33730.9
33702.1
33673.6
33646.2
33620
33591.7
33563
33534.3
33505.8
33477.9
33451.8
33424.2
33395.7
33367.2
33338.8
33310.7
33284.2
33257.4
33229.2
33200.8
33172.5
33144.2
33116.4
33090.2
33063.4
33035.4
33007.3
32979.2
32951.4
32924.6
32898.6
32871
32843
32815.1
32787.2
32759.5
32732.8
32706.1
32678.6
32650.9
32623.3
32596
32569.5
32542.5
32515.1
32487.7
32460.6
32434.1
32407.2
32379.9
32352.7
32325.5
32298.9
32272.5
32245.6
32218.6
32191.7
32165
32138.8
32112.5
32085.9
32059.4
32033
32007.1
31981.5
31955.5
31929.7
31904
31878.7
31853.8
31829
31804.4
31779.9
31755.8
31732.1
31709
31686.1
31663.6
31641.6
31620.2
31599.7
31580
31561.3
31543.7
31527.4
31512.7
31499.7
31488.4
31478.8
31470.8
31464.2
31459.3
31456
31454.1
31453
31452.3
31451.6
31451.8
31453.1
31455.7
31459.4
31463.3
31466.9
31470.2
31473.4
31476.4
31478.6
31479.5
31481.9
31485.2
31489.1
31493.5
31498.2
31502.8
31506.8
31510
31512.4
31513.3
31510.5
31508.3
31508
31506.7
31502.7
31496.2
31489.7
31484.4
31480
31476.2
31473.2
31470.7
31468.1
31465.4
31464
31463.3
31462.8
31462.4
31460.7
31457.4
31456.9
31457.5
31458.5
31459.8
31461.2
31462.5
31463
31462.6
31464.4
31467
31469.7
31472.2
31473.8
31472.5
31471.8
31472.9
31473.9
31474.5
31474.8
31474.9
31474.8
31472
31468.3
31464.9
31461.8
31458.5
31452.6
31447
31444.9
31443.6
31442.7
31442
31441.4
31440
31436.8
31435.8
31435.9
31436.3
31436.9
31437.6
31438.4
31438.7
31437.3
31437.5
31438.9
31440.6
31442.5
31444.4
31446
31446.3
31445.7
31446.6
31447.7
31448.4
31448.8
31448.6
31446.6
31441.8
31437.6
31434.1
31431.2
31428.7
31426.4
31423.3
31419.9
31418.3
31417.2
31416.4
31415.7
31415.2
31414.6
31413.3
31412.1
31412
31412.1
31412.2
31411.7
31410.7
31411.1
31412
31413.2
31414.4
31415.6
31416.1
31415.9
31417
31418.5
31419.9
31421.1
31421.4
31420.3
31420.3
31420.5
31420.2
31419
31416.3
31412.9
31409
31404.7
31402.3
31400.7
31399.3
31398.1
31396.7
31393.5
31389.7
31388.5
31388.1
31387.9
31387.9
31388
31388.3
31388.6
31389.1
31389.7
31390.3
31390.6
31389.7
31388.6
31389.2
31390.1
31391.1
31391.4
31390.9
31391.7
31392.8
31393.9
31394.7
31395.1
31394.6
31392.6
31391.2
31389.3
31386.7
31383.8
31380.3
31376.5
31374.6
31373.4
31372.5
31371.8
31371.2
31370.6
31370
31368.7
31364.7
31360.7
31359.9
31359.9
31360.2
31360.5
31361
31361.7
31362.5
31363.4
31364.2
31365.2
31366.2
31367.2
31368.2
31368.5
31365.6
31361.5
31361.4
31362
31362.6
31363
31363.1
31362.8
31361.7
31360.1
31358.3
31356.6
31355.1
31353.7
31352.5
31351.1
31348.2
31342.4
31340.3
31339.7
31339.3
31338.9
31338.7
31338.6
31338.6
31338.7
31338.5
31336.8
31335.5
31335.7
31336.1
31336.5
31336.8
31336.2
31335.4
31335.9
31336.6
31337.3
31337.8
31337.9
31337.3
31336.7
31336.5
31336.2
31335.7
31334.4
31332.3
31329.3
31326.6
31324.8
31323.5
31322.3
31321
31319.2
31316.7
31315.1
31314.6
31314.5
31314.4
31314.3
31314.2
31313.9
31312.9
31308.7
31305
31304.7
31305.1
31305.6
31306.2
31306.9
31307.7
31309
31309.8
31310.5
31311.1
31311.5
31311
31308.5
31307.1
31306.8
31307
31306.8
31306.1
31304.5
31301.4
31297.7
31296.2
31295.3
31294.6
31293.9
31292.8
31290.1
31288
31287.4
31287
31286.8
31286.6
31285.9
31283.8
31282.4
31282.2
31282.1
31282.1
31281.6
31279.9
31279.5
31279.8
31280.2
31280.6
31280.8
31279.8
31278.6
31278.8
31279.2
31279.5
31279.4
31278.2
31275.9
31275.1
31274.5
31273.5
31272.4
31271.3
31270.4
31269.5
31268.2
31264.3
31259.5
31258.2
31257.7
31257.3
31257.1
31256.9
31256.9
31256.9
31257
31257.1
31257
31256.1
31252.2
31250
31249.9
31250.3
31250.7
31251.2
31251.6
31252.1
31252.3
31251.5
31249.2
31249
31249.2
31249.5
31249.6
31249.4
31248.6
31245.8
31243.1
31242
31241
31240
31239.1
31237.7
31233.7
31230
31229.2
31228.9
31228.7
31228.4
31228.3
31228.4
31228.5
31228.5
31228.7
31228.8
31228.9
31228.8
31227.5
31224.1
31222.7
31222.4
31222
31220.5
31219.3
31219.4
31219.8
31220.2
31220.6
31221
31221.2
31221.1
31220.3
31216.4
31212.5
31211.4
31210.8
31210.2
31209.7
31209.2
31208.7
31208.3
31208
31207.8
31207.6
31207.3
31206.1
31201
31194.8
31193.6
31193.5
31193.5
31193.7
31194
31194.2
31194.4
31194.6
31194.8
31195.1
31195.3
31195.3
31193.7
31188.8
31187.3
31187.3
31187.5
31187.7
31188
31189
31192.9
31208.8
31278.3
31549.4
31923.2
32109.5
32177.5
32198.1
32204.7
32207.3
32207.4
32206.7
32207.6
32207.8
32208
32208.4
32208.9
32208.8
32208.6
32208.2
32204.5
32199.2
32196.9
32194.9
32193.5
32192
32189.1
32188.3
32188.2
32188.3
32189.2
32188.8
32188
32186.3
32181.7
32179.6
32179.1
32178.8
32179.2
32179.1
32178.3
32176.4
32169.5
32161.5
32159.6
32158.9
32159.2
32161.6
32168.9
32190.8
32265.4
32480.8
32739
32892
32962.5
32991.2
33005.2
33010
33001.7
32997.2
32996.3
32995.4
32997.4
32998.5
32999.5
32999.5
32999.4
32999.4
32999.2
33000.7
33001.3
33001.7
33001.5
32998.4
32989.4
32984.8
32983.8
32983.8
32984.3
32987.8
32991.4
32992
32991.9
32991
32985.9
32972.4
32967.6
32967
32967.1
32967.5
32969.7
32973.6
32974.4
32974.5
32974.5
32973.9
32971.3
32964.9
32962.8
32962.5
32962.5
32962.7
32962.6
32961.7
32958.5
32957.2
32957.3
32957.7
32958.4
32959
32959.4
32959.6
32958.9
32956.1
32954.2
32953.4
32952.3
32948.7
32946.3
32946.4
32946.8
32947.4
32949
32952.2
32953.4
32953.9
32954.2
32953.4
32948.2
32941.5
32940.7
32941
32941.6
32942.6
32943.5
32944
32944.2
32943.1
32939.7
32938.9
32939.2
32939.6
32940.7
32941.8
32942.1
32942.6
)
;

boundaryField
{
    sides
    {
        type            zeroGradient;
    }
    empty
    {
        type            empty;
    }
}


// ************************************************************************* //
