/*--------------------------------*- C++ -*----------------------------------*\
  =========                 |
  \\      /  F ield         | OpenFOAM: The Open Source CFD Toolbox
   \\    /   O peration     | Website:  https://openfoam.org
    \\  /    A nd           | Version:  9
     \\/     M anipulation  |
\*---------------------------------------------------------------------------*/
FoamFile
{
    format      ascii;
    class       volScalarField;
    location    "0.045";
    object      rho;
}
// * * * * * * * * * * * * * * * * * * * * * * * * * * * * * * * * * * * * * //

dimensions      [1 -3 0 0 0 0 0];

internalField   nonuniform List<scalar> 
1000
(
0.55663
0.556137
0.555839
0.555516
0.5552
0.554882
0.554565
0.554248
0.553931
0.553614
0.553298
0.552981
0.552665
0.552349
0.552033
0.551717
0.551401
0.551085
0.55077
0.550454
0.550139
0.549824
0.549509
0.549194
0.54888
0.548565
0.548251
0.547937
0.547623
0.547309
0.546995
0.546681
0.546368
0.546055
0.545741
0.545428
0.545115
0.544802
0.54449
0.544177
0.543865
0.543553
0.543241
0.542929
0.542617
0.542305
0.541994
0.541682
0.541371
0.54106
0.540749
0.540438
0.540128
0.539817
0.539507
0.539197
0.538887
0.538577
0.538267
0.537958
0.537648
0.537339
0.537029
0.53672
0.536411
0.536102
0.535794
0.535485
0.535177
0.534869
0.534561
0.534253
0.533945
0.533637
0.53333
0.533022
0.532715
0.532408
0.532101
0.531794
0.531487
0.531181
0.530874
0.530568
0.530262
0.529956
0.52965
0.529344
0.529039
0.528733
0.528428
0.528123
0.527818
0.527513
0.527208
0.526903
0.526599
0.526294
0.52599
0.525686
0.525382
0.525078
0.524775
0.524471
0.524168
0.523864
0.523561
0.523258
0.522955
0.522653
0.52235
0.522048
0.521745
0.521443
0.521141
0.520839
0.520537
0.520236
0.519934
0.519633
0.519332
0.519031
0.51873
0.518429
0.518128
0.517828
0.517527
0.517227
0.516927
0.516627
0.516327
0.516027
0.515728
0.515428
0.515129
0.51483
0.514531
0.514232
0.513933
0.513635
0.513336
0.513038
0.51274
0.512442
0.512144
0.511846
0.511548
0.511251
0.510953
0.510656
0.510359
0.510062
0.509766
0.509469
0.509172
0.508876
0.50858
0.508284
0.507988
0.507692
0.507396
0.5071
0.506804
0.506509
0.506213
0.505918
0.505622
0.505327
0.505032
0.504737
0.504443
0.504148
0.503854
0.50356
0.503266
0.502972
0.502679
0.502385
0.502092
0.501799
0.501506
0.501214
0.500921
0.500629
0.500336
0.500044
0.499752
0.49946
0.499168
0.498877
0.498585
0.498293
0.498002
0.497711
0.49742
0.497129
0.496838
0.496547
0.496256
0.495966
0.495675
0.495385
0.495095
0.494805
0.494515
0.494225
0.493935
0.493646
0.493357
0.493068
0.492779
0.49249
0.492201
0.491913
0.491624
0.491336
0.491048
0.49076
0.490472
0.490184
0.489896
0.489609
0.489321
0.489034
0.488747
0.48846
0.488173
0.487886
0.4876
0.487313
0.487027
0.486741
0.486455
0.486169
0.485883
0.485597
0.485312
0.485026
0.484741
0.484456
0.484171
0.483886
0.483601
0.483316
0.483032
0.482747
0.482463
0.482179
0.481895
0.481611
0.481327
0.481044
0.48076
0.480477
0.480193
0.47991
0.479627
0.479344
0.479062
0.478779
0.478496
0.478214
0.477932
0.47765
0.477368
0.477085
0.476803
0.476523
0.476243
0.475962
0.475679
0.475397
0.475115
0.474836
0.474558
0.474279
0.473997
0.473714
0.473431
0.473153
0.472878
0.472602
0.472321
0.472037
0.471754
0.471474
0.471202
0.470931
0.47065
0.470366
0.470082
0.469801
0.469529
0.469263
0.468984
0.4687
0.468415
0.468133
0.46786
0.467599
0.467322
0.467039
0.466754
0.466472
0.466196
0.465936
0.465665
0.465383
0.465099
0.464816
0.464537
0.464274
0.464013
0.463733
0.46345
0.463167
0.462886
0.462615
0.462361
0.462087
0.461806
0.461523
0.461242
0.460966
0.460708
0.460444
0.460165
0.459884
0.459603
0.459325
0.459059
0.458803
0.458527
0.458248
0.457968
0.45769
0.457418
0.457163
0.456894
0.456616
0.456338
0.45606
0.455786
0.455527
0.455265
0.454989
0.454711
0.454434
0.454158
0.453885
0.453629
0.453367
0.453093
0.452818
0.452543
0.45227
0.452008
0.451753
0.451481
0.451207
0.450933
0.45066
0.450388
0.450126
0.449864
0.449593
0.449322
0.44905
0.448782
0.448522
0.448256
0.447986
0.447717
0.44745
0.44719
0.446924
0.446656
0.446388
0.44612
0.445858
0.445598
0.445332
0.445066
0.444801
0.444537
0.444279
0.444019
0.443757
0.443495
0.443234
0.442978
0.442725
0.442469
0.442213
0.441959
0.441708
0.441463
0.441218
0.440973
0.440731
0.440493
0.440258
0.440029
0.439802
0.439579
0.439361
0.439149
0.438945
0.43875
0.438565
0.43839
0.438228
0.438082
0.437954
0.437842
0.437747
0.437667
0.437602
0.437553
0.437521
0.437501
0.437491
0.437484
0.437478
0.43748
0.437492
0.437518
0.437555
0.437594
0.43763
0.437663
0.437695
0.437724
0.437746
0.437755
0.437779
0.437813
0.437851
0.437895
0.437942
0.437987
0.438027
0.43806
0.438083
0.438092
0.438065
0.438043
0.43804
0.438027
0.437988
0.437924
0.437859
0.437807
0.437762
0.437725
0.437695
0.437671
0.437645
0.437619
0.437605
0.437597
0.437593
0.437589
0.437572
0.437539
0.437534
0.437541
0.437551
0.437564
0.437578
0.437591
0.437596
0.437592
0.43761
0.437636
0.437664
0.437689
0.437705
0.437691
0.437685
0.437696
0.437706
0.437712
0.437715
0.437717
0.437716
0.437687
0.437651
0.437617
0.437587
0.437555
0.437496
0.43744
0.437419
0.437407
0.437398
0.437391
0.437385
0.437372
0.43734
0.43733
0.437331
0.437335
0.437341
0.437349
0.437357
0.43736
0.437346
0.437349
0.437363
0.43738
0.437399
0.437417
0.437434
0.437437
0.437431
0.43744
0.437451
0.437459
0.437463
0.437461
0.437441
0.437394
0.437353
0.437318
0.437289
0.437265
0.437242
0.437212
0.437178
0.437162
0.437151
0.437143
0.437137
0.437132
0.437126
0.437113
0.437102
0.437101
0.437102
0.437104
0.437099
0.437089
0.437093
0.437103
0.437115
0.437127
0.437139
0.437144
0.437142
0.437153
0.437168
0.437183
0.437195
0.437198
0.437187
0.437188
0.43719
0.437188
0.437175
0.437149
0.437116
0.437077
0.437035
0.437011
0.436995
0.436982
0.436971
0.436956
0.436925
0.436888
0.436876
0.436872
0.436871
0.436871
0.436872
0.436875
0.436879
0.436884
0.43689
0.436896
0.4369
0.436892
0.436881
0.436887
0.436897
0.436906
0.43691
0.436906
0.436914
0.436925
0.436936
0.436945
0.436949
0.436945
0.436925
0.436911
0.436893
0.436867
0.436839
0.436805
0.436767
0.436749
0.436737
0.436729
0.436723
0.436717
0.436712
0.436705
0.436693
0.436654
0.436615
0.436608
0.436608
0.436611
0.436615
0.43662
0.436627
0.436636
0.436645
0.436655
0.436665
0.436675
0.436686
0.436696
0.436699
0.436672
0.436631
0.436631
0.436638
0.436645
0.436649
0.436651
0.436649
0.436639
0.436624
0.436606
0.43659
0.436575
0.436563
0.436552
0.436539
0.436511
0.436454
0.436434
0.436429
0.436426
0.436424
0.436423
0.436423
0.436423
0.436425
0.436423
0.436408
0.436396
0.4364
0.436406
0.436412
0.436418
0.436415
0.436409
0.436419
0.436431
0.436444
0.436458
0.436471
0.436476
0.436478
0.43648
0.436481
0.436479
0.436471
0.436456
0.436431
0.436407
0.436389
0.436371
0.436354
0.436335
0.436309
0.436278
0.436257
0.436248
0.436243
0.43624
0.436238
0.436235
0.43623
0.436219
0.436176
0.436139
0.436136
0.43614
0.436146
0.436154
0.436163
0.436176
0.436192
0.436205
0.436215
0.436224
0.436228
0.436223
0.436197
0.436181
0.436177
0.436176
0.436173
0.436164
0.436146
0.436114
0.436077
0.436061
0.436053
0.436046
0.436039
0.436029
0.436003
0.435983
0.435978
0.435975
0.435973
0.435971
0.435965
0.435944
0.43593
0.435927
0.435927
0.435926
0.43592
0.435903
0.435899
0.435901
0.435906
0.43591
0.435912
0.435902
0.435891
0.435893
0.435897
0.435899
0.435899
0.435887
0.435864
0.435857
0.43585
0.43584
0.435829
0.435819
0.435809
0.4358
0.435787
0.435748
0.435701
0.435688
0.435683
0.435679
0.435676
0.435675
0.435675
0.435675
0.435676
0.435677
0.435676
0.435667
0.435628
0.435606
0.435606
0.435609
0.435613
0.435618
0.435623
0.435627
0.43563
0.435621
0.435599
0.435596
0.435599
0.435601
0.435602
0.435601
0.435592
0.435565
0.435538
0.435527
0.435517
0.435508
0.435498
0.435484
0.435444
0.435408
0.4354
0.435397
0.435395
0.435392
0.435391
0.435391
0.435392
0.435393
0.435394
0.435396
0.435397
0.435395
0.435383
0.435349
0.435335
0.435332
0.435328
0.435313
0.435301
0.435302
0.435306
0.43531
0.435315
0.435318
0.43532
0.43532
0.435311
0.435273
0.435234
0.435223
0.435216
0.435211
0.435206
0.435201
0.435196
0.435192
0.435189
0.435187
0.435185
0.435182
0.43517
0.435119
0.435058
0.435046
0.435044
0.435045
0.435047
0.435049
0.435051
0.435053
0.435055
0.435057
0.43506
0.435062
0.435062
0.435045
0.434997
0.434982
0.434982
0.434984
0.434985
0.434988
0.434999
0.435037
0.435196
0.435889
0.438583
0.442335
0.444137
0.444693
0.444963
0.445098
0.44516
0.445152
0.445093
0.445057
0.445056
0.445067
0.445109
0.445146
0.445147
0.445132
0.445097
0.445039
0.444985
0.444983
0.444987
0.444979
0.444957
0.444914
0.444893
0.44489
0.444895
0.444918
0.444927
0.444922
0.444898
0.444839
0.444814
0.444809
0.444809
0.444819
0.444822
0.444815
0.444791
0.444714
0.444634
0.444619
0.444619
0.444624
0.444651
0.444723
0.444937
0.445668
0.447786
0.450337
0.45178
0.452527
0.452865
0.452972
0.45297
0.452866
0.452829
0.452849
0.45287
0.452897
0.452896
0.45288
0.452866
0.452866
0.452876
0.452894
0.452915
0.452917
0.452908
0.452894
0.452857
0.452777
0.452748
0.452746
0.452746
0.452747
0.452769
0.4528
0.452806
0.452809
0.452807
0.452761
0.452623
0.452571
0.452563
0.452563
0.45257
0.452597
0.452639
0.452646
0.452645
0.452642
0.452634
0.452609
0.452552
0.452532
0.452529
0.452527
0.452525
0.452522
0.452512
0.452482
0.452473
0.452476
0.45248
0.452487
0.452492
0.452495
0.452497
0.452491
0.452464
0.452445
0.452436
0.452423
0.452387
0.452363
0.452364
0.452369
0.452377
0.452394
0.452425
0.452438
0.452442
0.452445
0.452437
0.452385
0.45232
0.452312
0.452315
0.45232
0.452331
0.45234
0.452345
0.452347
0.452337
0.452303
0.452295
0.452298
0.452304
0.452314
0.452325
0.452328
0.452331
)
;

boundaryField
{
    sides
    {
        type            calculated;
        value           nonuniform List<scalar> 2(0.452331 0.55663);
    }
    empty
    {
        type            empty;
    }
}


// ************************************************************************* //
