/*--------------------------------*- C++ -*----------------------------------*\
  =========                 |
  \\      /  F ield         | OpenFOAM: The Open Source CFD Toolbox
   \\    /   O peration     | Website:  https://openfoam.org
    \\  /    A nd           | Version:  9
     \\/     M anipulation  |
\*---------------------------------------------------------------------------*/
FoamFile
{
    format      ascii;
    class       volVectorField;
    location    "0.045";
    object      U;
}
// * * * * * * * * * * * * * * * * * * * * * * * * * * * * * * * * * * * * * //

dimensions      [0 1 -1 0 0 0 0];

internalField   nonuniform List<vector> 
1000
(
(227.552 0 0)
(227.843 0 0)
(228.014 0 0)
(228.199 0 0)
(228.381 0 0)
(228.564 0 0)
(228.746 0 0)
(228.929 0 0)
(229.112 0 0)
(229.294 0 0)
(229.477 0 0)
(229.659 0 0)
(229.842 0 0)
(230.024 0 0)
(230.207 0 0)
(230.389 0 0)
(230.572 0 0)
(230.754 0 0)
(230.937 0 0)
(231.12 0 0)
(231.302 0 0)
(231.485 0 0)
(231.667 0 0)
(231.85 0 0)
(232.032 0 0)
(232.215 0 0)
(232.397 0 0)
(232.58 0 0)
(232.762 0 0)
(232.945 0 0)
(233.127 0 0)
(233.31 0 0)
(233.492 0 0)
(233.675 0 0)
(233.857 0 0)
(234.04 0 0)
(234.222 0 0)
(234.405 0 0)
(234.587 0 0)
(234.77 0 0)
(234.952 0 0)
(235.135 0 0)
(235.317 0 0)
(235.5 0 0)
(235.682 0 0)
(235.865 0 0)
(236.047 0 0)
(236.23 0 0)
(236.412 0 0)
(236.595 0 0)
(236.777 0 0)
(236.96 0 0)
(237.142 0 0)
(237.324 0 0)
(237.507 0 0)
(237.689 0 0)
(237.872 0 0)
(238.054 0 0)
(238.236 0 0)
(238.419 0 0)
(238.601 0 0)
(238.784 0 0)
(238.966 0 0)
(239.149 0 0)
(239.331 0 0)
(239.514 0 0)
(239.696 0 0)
(239.879 0 0)
(240.061 0 0)
(240.243 0 0)
(240.426 0 0)
(240.608 0 0)
(240.79 0 0)
(240.973 0 0)
(241.155 0 0)
(241.338 0 0)
(241.52 0 0)
(241.702 0 0)
(241.885 0 0)
(242.067 0 0)
(242.25 0 0)
(242.432 0 0)
(242.614 0 0)
(242.797 0 0)
(242.979 0 0)
(243.162 0 0)
(243.344 0 0)
(243.526 0 0)
(243.709 0 0)
(243.891 0 0)
(244.073 0 0)
(244.256 0 0)
(244.438 0 0)
(244.621 0 0)
(244.803 0 0)
(244.985 0 0)
(245.168 0 0)
(245.35 0 0)
(245.532 0 0)
(245.715 0 0)
(245.897 0 0)
(246.08 0 0)
(246.262 0 0)
(246.444 0 0)
(246.627 0 0)
(246.809 0 0)
(246.992 0 0)
(247.174 0 0)
(247.356 0 0)
(247.539 0 0)
(247.721 0 0)
(247.903 0 0)
(248.086 0 0)
(248.268 0 0)
(248.45 0 0)
(248.633 0 0)
(248.815 0 0)
(248.998 0 0)
(249.18 0 0)
(249.362 0 0)
(249.545 0 0)
(249.727 0 0)
(249.909 0 0)
(250.092 0 0)
(250.274 0 0)
(250.456 0 0)
(250.639 0 0)
(250.821 0 0)
(251.003 0 0)
(251.186 0 0)
(251.368 0 0)
(251.55 0 0)
(251.733 0 0)
(251.915 0 0)
(252.097 0 0)
(252.28 0 0)
(252.462 0 0)
(252.644 0 0)
(252.827 0 0)
(253.009 0 0)
(253.191 0 0)
(253.374 0 0)
(253.556 0 0)
(253.738 0 0)
(253.92 0 0)
(254.103 0 0)
(254.285 0 0)
(254.467 0 0)
(254.65 0 0)
(254.832 0 0)
(255.014 0 0)
(255.196 0 0)
(255.379 0 0)
(255.561 0 0)
(255.743 0 0)
(255.925 0 0)
(256.108 0 0)
(256.29 0 0)
(256.472 0 0)
(256.655 0 0)
(256.837 0 0)
(257.019 0 0)
(257.202 0 0)
(257.384 0 0)
(257.567 0 0)
(257.749 0 0)
(257.932 0 0)
(258.114 0 0)
(258.297 0 0)
(258.479 0 0)
(258.662 0 0)
(258.844 0 0)
(259.026 0 0)
(259.209 0 0)
(259.391 0 0)
(259.573 0 0)
(259.755 0 0)
(259.938 0 0)
(260.12 0 0)
(260.302 0 0)
(260.484 0 0)
(260.666 0 0)
(260.848 0 0)
(261.03 0 0)
(261.212 0 0)
(261.394 0 0)
(261.577 0 0)
(261.759 0 0)
(261.941 0 0)
(262.123 0 0)
(262.305 0 0)
(262.487 0 0)
(262.67 0 0)
(262.852 0 0)
(263.034 0 0)
(263.216 0 0)
(263.398 0 0)
(263.581 0 0)
(263.763 0 0)
(263.945 0 0)
(264.127 0 0)
(264.31 0 0)
(264.492 0 0)
(264.674 0 0)
(264.857 0 0)
(265.039 0 0)
(265.221 0 0)
(265.403 0 0)
(265.585 0 0)
(265.767 0 0)
(265.95 0 0)
(266.132 0 0)
(266.314 0 0)
(266.496 0 0)
(266.678 0 0)
(266.86 0 0)
(267.042 0 0)
(267.225 0 0)
(267.407 0 0)
(267.589 0 0)
(267.771 0 0)
(267.953 0 0)
(268.135 0 0)
(268.317 0 0)
(268.5 0 0)
(268.682 0 0)
(268.864 0 0)
(269.046 0 0)
(269.228 0 0)
(269.41 0 0)
(269.593 0 0)
(269.775 0 0)
(269.957 0 0)
(270.139 0 0)
(270.321 0 0)
(270.503 0 0)
(270.685 0 0)
(270.868 0 0)
(271.05 0 0)
(271.232 0 0)
(271.414 0 0)
(271.596 0 0)
(271.778 0 0)
(271.96 0 0)
(272.143 0 0)
(272.325 0 0)
(272.507 0 0)
(272.689 0 0)
(272.871 0 0)
(273.053 0 0)
(273.235 0 0)
(273.418 0 0)
(273.6 0 0)
(273.782 0 0)
(273.964 0 0)
(274.146 0 0)
(274.328 0 0)
(274.511 0 0)
(274.693 0 0)
(274.875 0 0)
(275.057 0 0)
(275.239 0 0)
(275.422 0 0)
(275.604 0 0)
(275.785 0 0)
(275.967 0 0)
(276.149 0 0)
(276.332 0 0)
(276.515 0 0)
(276.697 0 0)
(276.878 0 0)
(277.059 0 0)
(277.241 0 0)
(277.424 0 0)
(277.608 0 0)
(277.791 0 0)
(277.972 0 0)
(278.151 0 0)
(278.332 0 0)
(278.514 0 0)
(278.7 0 0)
(278.884 0 0)
(279.065 0 0)
(279.244 0 0)
(279.423 0 0)
(279.604 0 0)
(279.791 0 0)
(279.978 0 0)
(280.158 0 0)
(280.336 0 0)
(280.514 0 0)
(280.694 0 0)
(280.88 0 0)
(281.07 0 0)
(281.251 0 0)
(281.429 0 0)
(281.606 0 0)
(281.784 0 0)
(281.969 0 0)
(282.161 0 0)
(282.344 0 0)
(282.521 0 0)
(282.698 0 0)
(282.875 0 0)
(283.058 0 0)
(283.251 0 0)
(283.437 0 0)
(283.614 0 0)
(283.791 0 0)
(283.967 0 0)
(284.147 0 0)
(284.337 0 0)
(284.529 0 0)
(284.708 0 0)
(284.885 0 0)
(285.061 0 0)
(285.239 0 0)
(285.423 0 0)
(285.619 0 0)
(285.802 0 0)
(285.979 0 0)
(286.155 0 0)
(286.332 0 0)
(286.512 0 0)
(286.705 0 0)
(286.894 0 0)
(287.071 0 0)
(287.248 0 0)
(287.425 0 0)
(287.603 0 0)
(287.79 0 0)
(287.983 0 0)
(288.164 0 0)
(288.341 0 0)
(288.517 0 0)
(288.695 0 0)
(288.877 0 0)
(289.071 0 0)
(289.255 0 0)
(289.433 0 0)
(289.61 0 0)
(289.787 0 0)
(289.967 0 0)
(290.157 0 0)
(290.346 0 0)
(290.524 0 0)
(290.701 0 0)
(290.878 0 0)
(291.056 0 0)
(291.237 0 0)
(291.428 0 0)
(291.616 0 0)
(291.795 0 0)
(291.973 0 0)
(292.151 0 0)
(292.33 0 0)
(292.517 0 0)
(292.709 0 0)
(292.889 0 0)
(293.067 0 0)
(293.245 0 0)
(293.423 0 0)
(293.603 0 0)
(293.789 0 0)
(293.975 0 0)
(294.154 0 0)
(294.333 0 0)
(294.512 0 0)
(294.693 0 0)
(294.88 0 0)
(295.062 0 0)
(295.241 0 0)
(295.421 0 0)
(295.602 0 0)
(295.787 0 0)
(295.968 0 0)
(296.147 0 0)
(296.326 0 0)
(296.505 0 0)
(296.687 0 0)
(296.871 0 0)
(297.05 0 0)
(297.228 0 0)
(297.406 0 0)
(297.585 0 0)
(297.767 0 0)
(297.947 0 0)
(298.124 0 0)
(298.3 0 0)
(298.476 0 0)
(298.653 0 0)
(298.831 0 0)
(299.005 0 0)
(299.178 0 0)
(299.349 0 0)
(299.52 0 0)
(299.692 0 0)
(299.861 0 0)
(300.027 0 0)
(300.191 0 0)
(300.353 0 0)
(300.514 0 0)
(300.673 0 0)
(300.828 0 0)
(300.98 0 0)
(301.127 0 0)
(301.271 0 0)
(301.41 0 0)
(301.544 0 0)
(301.67 0 0)
(301.787 0 0)
(301.893 0 0)
(301.989 0 0)
(302.075 0 0)
(302.148 0 0)
(302.21 0 0)
(302.259 0 0)
(302.295 0 0)
(302.32 0 0)
(302.336 0 0)
(302.344 0 0)
(302.344 0 0)
(302.339 0 0)
(302.327 0 0)
(302.315 0 0)
(302.3 0 0)
(302.276 0 0)
(302.244 0 0)
(302.209 0 0)
(302.173 0 0)
(302.14 0 0)
(302.111 0 0)
(302.083 0 0)
(302.05 0 0)
(302.01 0 0)
(301.98 0 0)
(301.953 0 0)
(301.925 0 0)
(301.893 0 0)
(301.86 0 0)
(301.827 0 0)
(301.799 0 0)
(301.775 0 0)
(301.756 0 0)
(301.735 0 0)
(301.697 0 0)
(301.671 0 0)
(301.668 0 0)
(301.676 0 0)
(301.705 0 0)
(301.752 0 0)
(301.802 0 0)
(301.846 0 0)
(301.881 0 0)
(301.907 0 0)
(301.927 0 0)
(301.942 0 0)
(301.948 0 0)
(301.947 0 0)
(301.95 0 0)
(301.952 0 0)
(301.951 0 0)
(301.947 0 0)
(301.932 0 0)
(301.901 0 0)
(301.888 0 0)
(301.879 0 0)
(301.87 0 0)
(301.859 0 0)
(301.847 0 0)
(301.831 0 0)
(301.805 0 0)
(301.769 0 0)
(301.744 0 0)
(301.722 0 0)
(301.699 0 0)
(301.678 0 0)
(301.653 0 0)
(301.612 0 0)
(301.581 0 0)
(301.568 0 0)
(301.561 0 0)
(301.558 0 0)
(301.559 0 0)
(301.575 0 0)
(301.615 0 0)
(301.65 0 0)
(301.678 0 0)
(301.7 0 0)
(301.719 0 0)
(301.73 0 0)
(301.717 0 0)
(301.701 0 0)
(301.705 0 0)
(301.711 0 0)
(301.716 0 0)
(301.719 0 0)
(301.719 0 0)
(301.71 0 0)
(301.686 0 0)
(301.676 0 0)
(301.672 0 0)
(301.668 0 0)
(301.662 0 0)
(301.655 0 0)
(301.646 0 0)
(301.631 0 0)
(301.602 0 0)
(301.581 0 0)
(301.567 0 0)
(301.553 0 0)
(301.539 0 0)
(301.524 0 0)
(301.507 0 0)
(301.482 0 0)
(301.453 0 0)
(301.439 0 0)
(301.43 0 0)
(301.423 0 0)
(301.419 0 0)
(301.417 0 0)
(301.416 0 0)
(301.417 0 0)
(301.437 0 0)
(301.459 0 0)
(301.479 0 0)
(301.494 0 0)
(301.505 0 0)
(301.505 0 0)
(301.498 0 0)
(301.503 0 0)
(301.508 0 0)
(301.513 0 0)
(301.517 0 0)
(301.519 0 0)
(301.518 0 0)
(301.508 0 0)
(301.499 0 0)
(301.494 0 0)
(301.49 0 0)
(301.483 0 0)
(301.47 0 0)
(301.451 0 0)
(301.44 0 0)
(301.43 0 0)
(301.421 0 0)
(301.41 0 0)
(301.397 0 0)
(301.378 0 0)
(301.352 0 0)
(301.335 0 0)
(301.321 0 0)
(301.308 0 0)
(301.295 0 0)
(301.279 0 0)
(301.257 0 0)
(301.248 0 0)
(301.245 0 0)
(301.246 0 0)
(301.254 0 0)
(301.273 0 0)
(301.293 0 0)
(301.304 0 0)
(301.307 0 0)
(301.315 0 0)
(301.324 0 0)
(301.331 0 0)
(301.336 0 0)
(301.337 0 0)
(301.324 0 0)
(301.306 0 0)
(301.304 0 0)
(301.306 0 0)
(301.306 0 0)
(301.306 0 0)
(301.305 0 0)
(301.303 0 0)
(301.301 0 0)
(301.297 0 0)
(301.292 0 0)
(301.286 0 0)
(301.276 0 0)
(301.255 0 0)
(301.231 0 0)
(301.217 0 0)
(301.205 0 0)
(301.192 0 0)
(301.174 0 0)
(301.15 0 0)
(301.135 0 0)
(301.125 0 0)
(301.116 0 0)
(301.108 0 0)
(301.101 0 0)
(301.091 0 0)
(301.076 0 0)
(301.073 0 0)
(301.082 0 0)
(301.097 0 0)
(301.112 0 0)
(301.117 0 0)
(301.114 0 0)
(301.121 0 0)
(301.128 0 0)
(301.134 0 0)
(301.139 0 0)
(301.142 0 0)
(301.146 0 0)
(301.147 0 0)
(301.144 0 0)
(301.118 0 0)
(301.09 0 0)
(301.084 0 0)
(301.082 0 0)
(301.079 0 0)
(301.076 0 0)
(301.073 0 0)
(301.069 0 0)
(301.065 0 0)
(301.061 0 0)
(301.054 0 0)
(301.047 0 0)
(301.039 0 0)
(301.031 0 0)
(301.02 0 0)
(301.005 0 0)
(300.967 0 0)
(300.921 0 0)
(300.906 0 0)
(300.898 0 0)
(300.893 0 0)
(300.89 0 0)
(300.889 0 0)
(300.891 0 0)
(300.9 0 0)
(300.913 0 0)
(300.927 0 0)
(300.939 0 0)
(300.949 0 0)
(300.958 0 0)
(300.964 0 0)
(300.967 0 0)
(300.955 0 0)
(300.919 0 0)
(300.91 0 0)
(300.911 0 0)
(300.912 0 0)
(300.913 0 0)
(300.914 0 0)
(300.914 0 0)
(300.913 0 0)
(300.91 0 0)
(300.904 0 0)
(300.887 0 0)
(300.87 0 0)
(300.864 0 0)
(300.858 0 0)
(300.851 0 0)
(300.842 0 0)
(300.825 0 0)
(300.806 0 0)
(300.796 0 0)
(300.786 0 0)
(300.776 0 0)
(300.766 0 0)
(300.754 0 0)
(300.738 0 0)
(300.725 0 0)
(300.718 0 0)
(300.714 0 0)
(300.713 0 0)
(300.717 0 0)
(300.722 0 0)
(300.722 0 0)
(300.721 0 0)
(300.725 0 0)
(300.73 0 0)
(300.735 0 0)
(300.737 0 0)
(300.734 0 0)
(300.723 0 0)
(300.718 0 0)
(300.718 0 0)
(300.721 0 0)
(300.722 0 0)
(300.723 0 0)
(300.723 0 0)
(300.721 0 0)
(300.712 0 0)
(300.678 0 0)
(300.646 0 0)
(300.638 0 0)
(300.635 0 0)
(300.631 0 0)
(300.627 0 0)
(300.623 0 0)
(300.619 0 0)
(300.617 0 0)
(300.611 0 0)
(300.604 0 0)
(300.596 0 0)
(300.588 0 0)
(300.574 0 0)
(300.547 0 0)
(300.53 0 0)
(300.523 0 0)
(300.522 0 0)
(300.523 0 0)
(300.527 0 0)
(300.533 0 0)
(300.531 0 0)
(300.52 0 0)
(300.523 0 0)
(300.528 0 0)
(300.532 0 0)
(300.535 0 0)
(300.535 0 0)
(300.523 0 0)
(300.514 0 0)
(300.514 0 0)
(300.514 0 0)
(300.514 0 0)
(300.513 0 0)
(300.508 0 0)
(300.493 0 0)
(300.481 0 0)
(300.477 0 0)
(300.473 0 0)
(300.468 0 0)
(300.458 0 0)
(300.439 0 0)
(300.429 0 0)
(300.423 0 0)
(300.418 0 0)
(300.412 0 0)
(300.404 0 0)
(300.386 0 0)
(300.368 0 0)
(300.359 0 0)
(300.353 0 0)
(300.348 0 0)
(300.343 0 0)
(300.331 0 0)
(300.314 0 0)
(300.31 0 0)
(300.313 0 0)
(300.32 0 0)
(300.327 0 0)
(300.334 0 0)
(300.34 0 0)
(300.343 0 0)
(300.341 0 0)
(300.319 0 0)
(300.29 0 0)
(300.286 0 0)
(300.288 0 0)
(300.29 0 0)
(300.291 0 0)
(300.292 0 0)
(300.292 0 0)
(300.292 0 0)
(300.291 0 0)
(300.29 0 0)
(300.286 0 0)
(300.276 0 0)
(300.244 0 0)
(300.224 0 0)
(300.218 0 0)
(300.214 0 0)
(300.211 0 0)
(300.207 0 0)
(300.203 0 0)
(300.199 0 0)
(300.192 0 0)
(300.177 0 0)
(300.152 0 0)
(300.143 0 0)
(300.138 0 0)
(300.135 0 0)
(300.133 0 0)
(300.132 0 0)
(300.13 0 0)
(300.118 0 0)
(300.109 0 0)
(300.112 0 0)
(300.117 0 0)
(300.121 0 0)
(300.124 0 0)
(300.121 0 0)
(300.096 0 0)
(300.073 0 0)
(300.069 0 0)
(300.07 0 0)
(300.071 0 0)
(300.073 0 0)
(300.075 0 0)
(300.077 0 0)
(300.078 0 0)
(300.077 0 0)
(300.076 0 0)
(300.075 0 0)
(300.073 0 0)
(300.068 0 0)
(300.056 0 0)
(300.027 0 0)
(300.012 0 0)
(300.003 0 0)
(299.994 0 0)
(299.976 0 0)
(299.961 0 0)
(299.955 0 0)
(299.951 0 0)
(299.948 0 0)
(299.944 0 0)
(299.941 0 0)
(299.939 0 0)
(299.937 0 0)
(299.931 0 0)
(299.908 0 0)
(299.888 0 0)
(299.888 0 0)
(299.891 0 0)
(299.895 0 0)
(299.899 0 0)
(299.903 0 0)
(299.907 0 0)
(299.91 0 0)
(299.912 0 0)
(299.913 0 0)
(299.913 0 0)
(299.912 0 0)
(299.904 0 0)
(299.869 0 0)
(299.826 0 0)
(299.818 0 0)
(299.816 0 0)
(299.815 0 0)
(299.814 0 0)
(299.812 0 0)
(299.811 0 0)
(299.81 0 0)
(299.808 0 0)
(299.807 0 0)
(299.804 0 0)
(299.801 0 0)
(299.795 0 0)
(299.776 0 0)
(299.734 0 0)
(299.717 0 0)
(299.712 0 0)
(299.71 0 0)
(299.709 0 0)
(299.707 0 0)
(299.699 0 0)
(299.671 0 0)
(299.556 0 0)
(299.051 0 0)
(297.093 0 0)
(294.416 0 0)
(293.019 0 0)
(292.526 0 0)
(292.348 0 0)
(292.288 0 0)
(292.272 0 0)
(292.271 0 0)
(292.268 0 0)
(292.276 0 0)
(292.278 0 0)
(292.28 0 0)
(292.285 0 0)
(292.29 0 0)
(292.291 0 0)
(292.291 0 0)
(292.289 0 0)
(292.264 0 0)
(292.228 0 0)
(292.214 0 0)
(292.201 0 0)
(292.193 0 0)
(292.184 0 0)
(292.166 0 0)
(292.163 0 0)
(292.166 0 0)
(292.17 0 0)
(292.181 0 0)
(292.182 0 0)
(292.181 0 0)
(292.173 0 0)
(292.145 0 0)
(292.134 0 0)
(292.136 0 0)
(292.14 0 0)
(292.149 0 0)
(292.154 0 0)
(292.156 0 0)
(292.151 0 0)
(292.111 0 0)
(292.066 0 0)
(292.062 0 0)
(292.062 0 0)
(292.059 0 0)
(292.049 0 0)
(292.007 0 0)
(291.859 0 0)
(291.338 0 0)
(289.831 0 0)
(288.01 0 0)
(286.97 0 0)
(286.51 0 0)
(286.305 0 0)
(286.225 0 0)
(286.181 0 0)
(286.09 0 0)
(286.045 0 0)
(286.033 0 0)
(286.026 0 0)
(286.041 0 0)
(286.049 0 0)
(286.058 0 0)
(286.058 0 0)
(286.057 0 0)
(286.056 0 0)
(286.055 0 0)
(286.066 0 0)
(286.071 0 0)
(286.074 0 0)
(286.073 0 0)
(286.051 0 0)
(285.988 0 0)
(285.956 0 0)
(285.95 0 0)
(285.949 0 0)
(285.954 0 0)
(285.978 0 0)
(286.003 0 0)
(286.007 0 0)
(286.006 0 0)
(286 0 0)
(285.964 0 0)
(285.871 0 0)
(285.838 0 0)
(285.835 0 0)
(285.835 0 0)
(285.838 0 0)
(285.854 0 0)
(285.881 0 0)
(285.887 0 0)
(285.888 0 0)
(285.888 0 0)
(285.883 0 0)
(285.865 0 0)
(285.82 0 0)
(285.803 0 0)
(285.8 0 0)
(285.797 0 0)
(285.796 0 0)
(285.793 0 0)
(285.783 0 0)
(285.758 0 0)
(285.746 0 0)
(285.742 0 0)
(285.74 0 0)
(285.74 0 0)
(285.739 0 0)
(285.737 0 0)
(285.732 0 0)
(285.722 0 0)
(285.696 0 0)
(285.678 0 0)
(285.666 0 0)
(285.653 0 0)
(285.622 0 0)
(285.6 0 0)
(285.595 0 0)
(285.591 0 0)
(285.589 0 0)
(285.594 0 0)
(285.61 0 0)
(285.613 0 0)
(285.61 0 0)
(285.606 0 0)
(285.595 0 0)
(285.552 0 0)
(285.501 0 0)
(285.489 0 0)
(285.485 0 0)
(285.483 0 0)
(285.485 0 0)
(285.486 0 0)
(285.483 0 0)
(285.478 0 0)
(285.466 0 0)
(285.436 0 0)
(285.425 0 0)
(285.421 0 0)
(285.419 0 0)
(285.421 0 0)
(285.423 0 0)
(285.422 0 0)
(285.417 0 0)
)
;

boundaryField
{
    sides
    {
        type            zeroGradient;
    }
    empty
    {
        type            empty;
    }
}


// ************************************************************************* //
