/*--------------------------------*- C++ -*----------------------------------*\
  =========                 |
  \\      /  F ield         | OpenFOAM: The Open Source CFD Toolbox
   \\    /   O peration     | Website:  https://openfoam.org
    \\  /    A nd           | Version:  9
     \\/     M anipulation  |
\*---------------------------------------------------------------------------*/
FoamFile
{
    format      ascii;
    class       volScalarField;
    location    "0.045";
    object      mag(U);
}
// * * * * * * * * * * * * * * * * * * * * * * * * * * * * * * * * * * * * * //

dimensions      [0 1 -1 0 0 0 0];

internalField   nonuniform List<scalar> 
100
(
226.524
229.415
231.11
232.938
234.734
236.537
238.339
240.141
241.942
243.744
245.545
247.346
249.146
250.947
252.747
254.546
256.346
258.145
259.943
261.741
263.539
265.336
267.132
268.928
270.723
272.518
274.311
276.104
277.896
279.687
281.476
283.264
285.05
286.833
288.61
290.378
292.126
293.84
295.492
297.041
298.411
299.529
300.329
300.824
301.094
301.248
301.375
301.514
301.624
301.657
301.627
301.559
301.473
301.394
301.337
301.305
301.269
301.213
301.127
301.018
300.906
300.813
300.751
300.724
300.687
300.632
300.553
300.457
300.356
300.262
300.191
300.147
300.106
300.053
299.984
299.888
299.774
299.657
299.555
299.487
299.467
299.464
299.395
299.236
298.57
296.284
293.903
292.593
291.618
290.232
288.402
287.234
286.721
286.492
286.357
286.281
286.194
286.087
285.995
285.899
)
;

boundaryField
{
    sides
    {
        type            calculated;
        value           nonuniform List<scalar> 2(285.899 226.524);
    }
    empty
    {
        type            empty;
    }
}


// ************************************************************************* //
