/*--------------------------------*- C++ -*----------------------------------*\
  =========                 |
  \\      /  F ield         | OpenFOAM: The Open Source CFD Toolbox
   \\    /   O peration     | Website:  https://openfoam.org
    \\  /    A nd           | Version:  9
     \\/     M anipulation  |
\*---------------------------------------------------------------------------*/
FoamFile
{
    format      ascii;
    class       volScalarField;
    location    "0.005";
    object      mag(U);
}
// * * * * * * * * * * * * * * * * * * * * * * * * * * * * * * * * * * * * * //

dimensions      [0 1 -1 0 0 0 0];

internalField   nonuniform List<scalar> 
100
(
2.4988e-12
2.46234e-12
7.59998e-13
6.50594e-13
9.71514e-13
4.99907e-12
2.04791e-11
9.68101e-11
4.5455e-10
2.08005e-09
9.27151e-09
4.01439e-08
1.68724e-07
6.87727e-07
2.71485e-06
1.03679e-05
3.82435e-05
0.000136067
0.000466076
0.00153427
0.0048427
0.0146213
0.0421025
0.115242
0.298596
0.728769
1.66558
3.54239
6.90744
12.1224
19.258
28.233
38.7989
50.5879
63.2341
76.4405
90.0009
103.758
117.637
131.493
145.391
159.062
172.645
185.993
198.953
211.621
223.787
235.291
246.172
256.189
265.172
273.152
279.912
285.411
289.248
291.581
292.949
293.536
293.96
294.411
294.741
295.012
295.157
294.548
293.253
292.078
291.313
291.06
291.313
291.861
291.97
291.472
290.536
288.914
286.203
281.15
269.728
236.443
143.871
36.7635
6.13243
0.938376
0.139589
0.0206662
0.00305839
0.000452088
6.664e-05
9.77885e-06
1.42605e-06
2.06356e-07
2.95947e-08
4.20232e-09
5.90492e-10
8.24052e-11
1.00886e-11
4.18656e-13
1.21075e-12
1.40184e-12
1.1699e-12
2.8314e-12
)
;

boundaryField
{
    sides
    {
        type            calculated;
        value           nonuniform List<scalar> 2(2.8314e-12 2.4988e-12);
    }
    empty
    {
        type            empty;
    }
}


// ************************************************************************* //
