/*--------------------------------*- C++ -*----------------------------------*\
  =========                 |
  \\      /  F ield         | OpenFOAM: The Open Source CFD Toolbox
   \\    /   O peration     | Website:  https://openfoam.org
    \\  /    A nd           | Version:  9
     \\/     M anipulation  |
\*---------------------------------------------------------------------------*/
FoamFile
{
    format      ascii;
    class       volScalarField;
    location    "0.021";
    object      p;
}
// * * * * * * * * * * * * * * * * * * * * * * * * * * * * * * * * * * * * * //

dimensions      [1 -1 -2 0 0 0 0];

internalField   nonuniform List<scalar> 
10000
(
37583.8
37583.6
37583.4
37583.2
37583
37582.8
37582.6
37582.4
37582.2
37582
37581.8
37581.6
37581.4
37581.2
37581
37580.8
37580.6
37580.4
37580.2
37580
37579.8
37579.6
37579.4
37579.1
37578.9
37578.7
37578.5
37578.3
37578.1
37577.9
37577.7
37577.5
37577.3
37577.1
37576.9
37576.7
37576.5
37576.3
37576.1
37575.8
37575.6
37575.4
37575.2
37575
37574.8
37574.6
37574.4
37574.2
37574
37573.8
37573.5
37573.3
37573.1
37572.9
37572.7
37572.5
37572.3
37572.1
37571.8
37571.6
37571.4
37571.2
37571
37570.8
37570.6
37570.3
37570.1
37569.9
37569.7
37569.5
37569.3
37569
37568.8
37568.6
37568.4
37568.2
37567.9
37567.7
37567.5
37567.3
37567.1
37566.8
37566.6
37566.4
37566.2
37566
37565.7
37565.5
37565.3
37565.1
37564.9
37564.6
37564.4
37564.2
37564
37563.7
37563.5
37563.3
37563.1
37562.8
37562.6
37562.4
37562.2
37561.9
37561.7
37561.5
37561.3
37561
37560.8
37560.6
37560.3
37560.1
37559.9
37559.7
37559.4
37559.2
37559
37558.7
37558.5
37558.3
37558
37557.8
37557.6
37557.4
37557.1
37556.9
37556.7
37556.4
37556.2
37556
37555.7
37555.5
37555.2
37555
37554.8
37554.5
37554.3
37554.1
37553.8
37553.6
37553.4
37553.1
37552.9
37552.7
37552.4
37552.2
37551.9
37551.7
37551.5
37551.2
37551
37550.7
37550.5
37550.3
37550
37549.8
37549.5
37549.3
37549.1
37548.8
37548.6
37548.3
37548.1
37547.8
37547.6
37547.4
37547.1
37546.9
37546.6
37546.4
37546.1
37545.9
37545.6
37545.4
37545.1
37544.9
37544.7
37544.4
37544.2
37543.9
37543.7
37543.4
37543.2
37542.9
37542.7
37542.4
37542.2
37541.9
37541.7
37541.4
37541.2
37540.9
37540.7
37540.4
37540.2
37539.9
37539.7
37539.4
37539.1
37538.9
37538.6
37538.4
37538.1
37537.9
37537.6
37537.4
37537.1
37536.9
37536.6
37536.3
37536.1
37535.8
37535.6
37535.3
37535.1
37534.8
37534.5
37534.3
37534
37533.8
37533.5
37533.2
37533
37532.7
37532.5
37532.2
37531.9
37531.7
37531.4
37531.2
37530.9
37530.6
37530.4
37530.1
37529.8
37529.6
37529.3
37529
37528.8
37528.5
37528.2
37528
37527.7
37527.5
37527.2
37526.9
37526.7
37526.4
37526.1
37525.8
37525.6
37525.3
37525
37524.8
37524.5
37524.2
37524
37523.7
37523.4
37523.2
37522.9
37522.6
37522.3
37522.1
37521.8
37521.5
37521.3
37521
37520.7
37520.4
37520.2
37519.9
37519.6
37519.3
37519.1
37518.8
37518.5
37518.2
37518
37517.7
37517.4
37517.1
37516.8
37516.6
37516.3
37516
37515.7
37515.5
37515.2
37514.9
37514.6
37514.3
37514.1
37513.8
37513.5
37513.2
37512.9
37512.7
37512.4
37512.1
37511.8
37511.5
37511.2
37511
37510.7
37510.4
37510.1
37509.8
37509.5
37509.3
37509
37508.7
37508.4
37508.1
37507.8
37507.5
37507.2
37507
37506.7
37506.4
37506.1
37505.8
37505.5
37505.2
37504.9
37504.7
37504.4
37504.1
37503.8
37503.5
37503.2
37502.9
37502.6
37502.3
37502
37501.7
37501.4
37501.2
37500.9
37500.6
37500.3
37500
37499.7
37499.4
37499.1
37498.8
37498.5
37498.2
37497.9
37497.6
37497.3
37497
37496.7
37496.4
37496.1
37495.8
37495.5
37495.2
37494.9
37494.6
37494.3
37494
37493.7
37493.4
37493.1
37492.8
37492.5
37492.2
37491.9
37491.6
37491.3
37491
37490.7
37490.4
37490.1
37489.8
37489.5
37489.2
37488.9
37488.6
37488.3
37488
37487.7
37487.4
37487
37486.7
37486.4
37486.1
37485.8
37485.5
37485.2
37484.9
37484.6
37484.3
37484
37483.7
37483.3
37483
37482.7
37482.4
37482.1
37481.8
37481.5
37481.2
37480.9
37480.5
37480.2
37479.9
37479.6
37479.3
37479
37478.7
37478.3
37478
37477.7
37477.4
37477.1
37476.8
37476.4
37476.1
37475.8
37475.5
37475.2
37474.9
37474.5
37474.2
37473.9
37473.6
37473.3
37472.9
37472.6
37472.3
37472
37471.7
37471.3
37471
37470.7
37470.4
37470.1
37469.7
37469.4
37469.1
37468.8
37468.4
37468.1
37467.8
37467.5
37467.1
37466.8
37466.5
37466.2
37465.8
37465.5
37465.2
37464.9
37464.5
37464.2
37463.9
37463.5
37463.2
37462.9
37462.6
37462.2
37461.9
37461.6
37461.2
37460.9
37460.6
37460.2
37459.9
37459.6
37459.2
37458.9
37458.6
37458.2
37457.9
37457.6
37457.2
37456.9
37456.6
37456.2
37455.9
37455.6
37455.2
37454.9
37454.6
37454.2
37453.9
37453.6
37453.2
37452.9
37452.5
37452.2
37451.9
37451.5
37451.2
37450.9
37450.5
37450.2
37449.8
37449.5
37449.1
37448.8
37448.5
37448.1
37447.8
37447.4
37447.1
37446.8
37446.4
37446.1
37445.7
37445.4
37445
37444.7
37444.3
37444
37443.7
37443.3
37443
37442.6
37442.3
37441.9
37441.6
37441.2
37440.9
37440.5
37440.2
37439.8
37439.5
37439.1
37438.8
37438.4
37438.1
37437.7
37437.4
37437
37436.7
37436.3
37436
37435.6
37435.3
37434.9
37434.6
37434.2
37433.9
37433.5
37433.2
37432.8
37432.4
37432.1
37431.7
37431.4
37431
37430.7
37430.3
37430
37429.6
37429.2
37428.9
37428.5
37428.2
37427.8
37427.4
37427.1
37426.7
37426.4
37426
37425.6
37425.3
37424.9
37424.6
37424.2
37423.8
37423.5
37423.1
37422.8
37422.4
37422
37421.7
37421.3
37420.9
37420.6
37420.2
37419.8
37419.5
37419.1
37418.7
37418.4
37418
37417.6
37417.3
37416.9
37416.5
37416.2
37415.8
37415.4
37415.1
37414.7
37414.3
37414
37413.6
37413.2
37412.8
37412.5
37412.1
37411.7
37411.4
37411
37410.6
37410.2
37409.9
37409.5
37409.1
37408.8
37408.4
37408
37407.6
37407.3
37406.9
37406.5
37406.1
37405.7
37405.4
37405
37404.6
37404.2
37403.9
37403.5
37403.1
37402.7
37402.3
37402
37401.6
37401.2
37400.8
37400.5
37400.1
37399.7
37399.3
37398.9
37398.5
37398.2
37397.8
37397.4
37397
37396.6
37396.2
37395.9
37395.5
37395.1
37394.7
37394.3
37393.9
37393.6
37393.2
37392.8
37392.4
37392
37391.6
37391.2
37390.8
37390.5
37390.1
37389.7
37389.3
37388.9
37388.5
37388.1
37387.7
37387.3
37386.9
37386.6
37386.2
37385.8
37385.4
37385
37384.6
37384.2
37383.8
37383.4
37383
37382.6
37382.2
37381.8
37381.4
37381.1
37380.7
37380.3
37379.9
37379.5
37379.1
37378.7
37378.3
37377.9
37377.5
37377.1
37376.7
37376.3
37375.9
37375.5
37375.1
37374.7
37374.3
37373.9
37373.5
37373.1
37372.7
37372.3
37371.9
37371.5
37371.1
37370.7
37370.3
37369.9
37369.5
37369.1
37368.7
37368.2
37367.8
37367.4
37367
37366.6
37366.2
37365.8
37365.4
37365
37364.6
37364.2
37363.8
37363.4
37363
37362.6
37362.1
37361.7
37361.3
37360.9
37360.5
37360.1
37359.7
37359.3
37358.9
37358.4
37358
37357.6
37357.2
37356.8
37356.4
37356
37355.6
37355.1
37354.7
37354.3
37353.9
37353.5
37353.1
37352.7
37352.2
37351.8
37351.4
37351
37350.6
37350.1
37349.7
37349.3
37348.9
37348.5
37348.1
37347.6
37347.2
37346.8
37346.4
37346
37345.5
37345.1
37344.7
37344.3
37343.8
37343.4
37343
37342.6
37342.2
37341.7
37341.3
37340.9
37340.5
37340
37339.6
37339.2
37338.8
37338.3
37337.9
37337.5
37337.1
37336.6
37336.2
37335.8
37335.3
37334.9
37334.5
37334.1
37333.6
37333.2
37332.8
37332.3
37331.9
37331.5
37331
37330.6
37330.2
37329.7
37329.3
37328.9
37328.5
37328
37327.6
37327.1
37326.7
37326.3
37325.8
37325.4
37325
37324.5
37324.1
37323.7
37323.2
37322.8
37322.4
37321.9
37321.5
37321
37320.6
37320.2
37319.7
37319.3
37318.9
37318.4
37318
37317.5
37317.1
37316.6
37316.2
37315.8
37315.3
37314.9
37314.4
37314
37313.6
37313.1
37312.7
37312.2
37311.8
37311.3
37310.9
37310.4
37310
37309.6
37309.1
37308.7
37308.2
37307.8
37307.3
37306.9
37306.4
37306
37305.5
37305.1
37304.6
37304.2
37303.7
37303.3
37302.8
37302.4
37301.9
37301.5
37301
37300.6
37300.1
37299.7
37299.2
37298.8
37298.3
37297.9
37297.4
37297
37296.5
37296
37295.6
37295.1
37294.7
37294.2
37293.8
37293.3
37292.9
37292.4
37291.9
37291.5
37291
37290.6
37290.1
37289.6
37289.2
37288.7
37288.3
37287.8
37287.3
37286.9
37286.4
37286
37285.5
37285
37284.6
37284.1
37283.7
37283.2
37282.7
37282.3
37281.8
37281.3
37280.9
37280.4
37279.9
37279.5
37279
37278.5
37278.1
37277.6
37277.1
37276.7
37276.2
37275.7
37275.3
37274.8
37274.3
37273.9
37273.4
37272.9
37272.5
37272
37271.5
37271
37270.6
37270.1
37269.6
37269.2
37268.7
37268.2
37267.7
37267.3
37266.8
37266.3
37265.8
37265.4
37264.9
37264.4
37263.9
37263.5
37263
37262.5
37262
37261.6
37261.1
37260.6
37260.1
37259.7
37259.2
37258.7
37258.2
37257.7
37257.3
37256.8
37256.3
37255.8
37255.3
37254.9
37254.4
37253.9
37253.4
37252.9
37252.4
37252
37251.5
37251
37250.5
37250
37249.5
37249.1
37248.6
37248.1
37247.6
37247.1
37246.6
37246.1
37245.7
37245.2
37244.7
37244.2
37243.7
37243.2
37242.7
37242.2
37241.8
37241.3
37240.8
37240.3
37239.8
37239.3
37238.8
37238.3
37237.8
37237.3
37236.8
37236.3
37235.9
37235.4
37234.9
37234.4
37233.9
37233.4
37232.9
37232.4
37231.9
37231.4
37230.9
37230.4
37229.9
37229.4
37228.9
37228.4
37227.9
37227.4
37226.9
37226.4
37225.9
37225.4
37224.9
37224.4
37223.9
37223.4
37222.9
37222.4
37221.9
37221.4
37220.9
37220.4
37219.9
37219.4
37218.9
37218.4
37217.9
37217.4
37216.9
37216.4
37215.9
37215.4
37214.9
37214.4
37213.9
37213.4
37212.9
37212.4
37211.8
37211.3
37210.8
37210.3
37209.8
37209.3
37208.8
37208.3
37207.8
37207.3
37206.8
37206.2
37205.7
37205.2
37204.7
37204.2
37203.7
37203.2
37202.7
37202.2
37201.6
37201.1
37200.6
37200.1
37199.6
37199.1
37198.6
37198
37197.5
37197
37196.5
37196
37195.5
37194.9
37194.4
37193.9
37193.4
37192.9
37192.3
37191.8
37191.3
37190.8
37190.3
37189.7
37189.2
37188.7
37188.2
37187.7
37187.1
37186.6
37186.1
37185.6
37185.1
37184.5
37184
37183.5
37183
37182.4
37181.9
37181.4
37180.9
37180.3
37179.8
37179.3
37178.8
37178.2
37177.7
37177.2
37176.6
37176.1
37175.6
37175.1
37174.5
37174
37173.5
37172.9
37172.4
37171.9
37171.3
37170.8
37170.3
37169.8
37169.2
37168.7
37168.2
37167.6
37167.1
37166.6
37166
37165.5
37165
37164.4
37163.9
37163.3
37162.8
37162.3
37161.7
37161.2
37160.7
37160.1
37159.6
37159.1
37158.5
37158
37157.4
37156.9
37156.4
37155.8
37155.3
37154.7
37154.2
37153.7
37153.1
37152.6
37152
37151.5
37151
37150.4
37149.9
37149.3
37148.8
37148.2
37147.7
37147.1
37146.6
37146.1
37145.5
37145
37144.4
37143.9
37143.3
37142.8
37142.2
37141.7
37141.1
37140.6
37140
37139.5
37138.9
37138.4
37137.8
37137.3
37136.7
37136.2
37135.6
37135.1
37134.5
37134
37133.4
37132.9
37132.3
37131.8
37131.2
37130.7
37130.1
37129.6
37129
37128.5
37127.9
37127.3
37126.8
37126.2
37125.7
37125.1
37124.6
37124
37123.4
37122.9
37122.3
37121.8
37121.2
37120.7
37120.1
37119.5
37119
37118.4
37117.9
37117.3
37116.7
37116.2
37115.6
37115
37114.5
37113.9
37113.4
37112.8
37112.2
37111.7
37111.1
37110.5
37110
37109.4
37108.8
37108.3
37107.7
37107.1
37106.6
37106
37105.4
37104.9
37104.3
37103.7
37103.2
37102.6
37102
37101.5
37100.9
37100.3
37099.8
37099.2
37098.6
37098
37097.5
37096.9
37096.3
37095.7
37095.2
37094.6
37094
37093.5
37092.9
37092.3
37091.7
37091.2
37090.6
37090
37089.4
37088.9
37088.3
37087.7
37087.1
37086.5
37086
37085.4
37084.8
37084.2
37083.7
37083.1
37082.5
37081.9
37081.3
37080.8
37080.2
37079.6
37079
37078.4
37077.9
37077.3
37076.7
37076.1
37075.5
37074.9
37074.4
37073.8
37073.2
37072.6
37072
37071.4
37070.8
37070.3
37069.7
37069.1
37068.5
37067.9
37067.3
37066.7
37066.1
37065.6
37065
37064.4
37063.8
37063.2
37062.6
37062
37061.4
37060.8
37060.3
37059.7
37059.1
37058.5
37057.9
37057.3
37056.7
37056.1
37055.5
37054.9
37054.3
37053.7
37053.1
37052.5
37051.9
37051.3
37050.8
37050.2
37049.6
37049
37048.4
37047.8
37047.2
37046.6
37046
37045.4
37044.8
37044.2
37043.6
37043
37042.4
37041.8
37041.2
37040.6
37040
37039.4
37038.8
37038.2
37037.6
37037
37036.4
37035.7
37035.1
37034.5
37033.9
37033.3
37032.7
37032.1
37031.5
37030.9
37030.3
37029.7
37029.1
37028.5
37027.9
37027.3
37026.7
37026
37025.4
37024.8
37024.2
37023.6
37023
37022.4
37021.8
37021.2
37020.6
37019.9
37019.3
37018.7
37018.1
37017.5
37016.9
37016.3
37015.7
37015
37014.4
37013.8
37013.2
37012.6
37012
37011.3
37010.7
37010.1
37009.5
37008.9
37008.3
37007.6
37007
37006.4
37005.8
37005.2
37004.6
37003.9
37003.3
37002.7
37002.1
37001.4
37000.8
37000.2
36999.6
36999
36998.3
36997.7
36997.1
36996.5
36995.8
36995.2
36994.6
36994
36993.3
36992.7
36992.1
36991.5
36990.8
36990.2
36989.6
36989
36988.3
36987.7
36987.1
36986.5
36985.8
36985.2
36984.6
36983.9
36983.3
36982.7
36982
36981.4
36980.8
36980.2
36979.5
36978.9
36978.3
36977.6
36977
36976.4
36975.7
36975.1
36974.5
36973.8
36973.2
36972.6
36971.9
36971.3
36970.6
36970
36969.4
36968.7
36968.1
36967.5
36966.8
36966.2
36965.5
36964.9
36964.3
36963.6
36963
36962.4
36961.7
36961.1
36960.4
36959.8
36959.1
36958.5
36957.9
36957.2
36956.6
36955.9
36955.3
36954.6
36954
36953.4
36952.7
36952.1
36951.4
36950.8
36950.1
36949.5
36948.8
36948.2
36947.5
36946.9
36946.2
36945.6
36945
36944.3
36943.7
36943
36942.4
36941.7
36941.1
36940.4
36939.8
36939.1
36938.5
36937.8
36937.1
36936.5
36935.8
36935.2
36934.5
36933.9
36933.2
36932.6
36931.9
36931.3
36930.6
36930
36929.3
36928.6
36928
36927.3
36926.7
36926
36925.4
36924.7
36924
36923.4
36922.7
36922.1
36921.4
36920.7
36920.1
36919.4
36918.8
36918.1
36917.4
36916.8
36916.1
36915.5
36914.8
36914.1
36913.5
36912.8
36912.1
36911.5
36910.8
36910.1
36909.5
36908.8
36908.1
36907.5
36906.8
36906.1
36905.5
36904.8
36904.1
36903.5
36902.8
36902.1
36901.5
36900.8
36900.1
36899.5
36898.8
36898.1
36897.5
36896.8
36896.1
36895.4
36894.8
36894.1
36893.4
36892.8
36892.1
36891.4
36890.7
36890.1
36889.4
36888.7
36888
36887.4
36886.7
36886
36885.3
36884.7
36884
36883.3
36882.6
36881.9
36881.3
36880.6
36879.9
36879.2
36878.5
36877.9
36877.2
36876.5
36875.8
36875.1
36874.5
36873.8
36873.1
36872.4
36871.7
36871.1
36870.4
36869.7
36869
36868.3
36867.6
36867
36866.3
36865.6
36864.9
36864.2
36863.5
36862.8
36862.2
36861.5
36860.8
36860.1
36859.4
36858.7
36858
36857.3
36856.6
36856
36855.3
36854.6
36853.9
36853.2
36852.5
36851.8
36851.1
36850.4
36849.7
36849
36848.3
36847.7
36847
36846.3
36845.6
36844.9
36844.2
36843.5
36842.8
36842.1
36841.4
36840.7
36840
36839.3
36838.6
36837.9
36837.2
36836.5
36835.8
36835.1
36834.4
36833.7
36833
36832.3
36831.6
36830.9
36830.2
36829.5
36828.8
36828.1
36827.4
36826.7
36826
36825.3
36824.6
36823.9
36823.2
36822.5
36821.8
36821.1
36820.4
36819.7
36819
36818.3
36817.5
36816.8
36816.1
36815.4
36814.7
36814
36813.3
36812.6
36811.9
36811.2
36810.5
36809.7
36809
36808.3
36807.6
36806.9
36806.2
36805.5
36804.8
36804.1
36803.3
36802.6
36801.9
36801.2
36800.5
36799.8
36799.1
36798.3
36797.6
36796.9
36796.2
36795.5
36794.8
36794
36793.3
36792.6
36791.9
36791.2
36790.5
36789.7
36789
36788.3
36787.6
36786.9
36786.1
36785.4
36784.7
36784
36783.3
36782.5
36781.8
36781.1
36780.4
36779.6
36778.9
36778.2
36777.5
36776.7
36776
36775.3
36774.6
36773.8
36773.1
36772.4
36771.7
36770.9
36770.2
36769.5
36768.7
36768
36767.3
36766.6
36765.8
36765.1
36764.4
36763.6
36762.9
36762.2
36761.5
36760.7
36760
36759.3
36758.5
36757.8
36757.1
36756.3
36755.6
36754.9
36754.1
36753.4
36752.7
36751.9
36751.2
36750.4
36749.7
36749
36748.2
36747.5
36746.8
36746
36745.3
36744.5
36743.8
36743.1
36742.3
36741.6
36740.8
36740.1
36739.4
36738.6
36737.9
36737.1
36736.4
36735.7
36734.9
36734.2
36733.4
36732.7
36731.9
36731.2
36730.5
36729.7
36729
36728.2
36727.5
36726.7
36726
36725.2
36724.5
36723.7
36723
36722.2
36721.5
36720.8
36720
36719.3
36718.5
36717.8
36717
36716.3
36715.5
36714.8
36714
36713.2
36712.5
36711.7
36711
36710.2
36709.5
36708.7
36708
36707.2
36706.5
36705.7
36705
36704.2
36703.4
36702.7
36701.9
36701.2
36700.4
36699.7
36698.9
36698.2
36697.4
36696.6
36695.9
36695.1
36694.4
36693.6
36692.8
36692.1
36691.3
36690.6
36689.8
36689
36688.3
36687.5
36686.7
36686
36685.2
36684.5
36683.7
36682.9
36682.2
36681.4
36680.6
36679.9
36679.1
36678.3
36677.6
36676.8
36676
36675.3
36674.5
36673.7
36673
36672.2
36671.4
36670.7
36669.9
36669.1
36668.3
36667.6
36666.8
36666
36665.3
36664.5
36663.7
36662.9
36662.2
36661.4
36660.6
36659.9
36659.1
36658.3
36657.5
36656.8
36656
36655.2
36654.4
36653.7
36652.9
36652.1
36651.3
36650.5
36649.8
36649
36648.2
36647.4
36646.7
36645.9
36645.1
36644.3
36643.5
36642.8
36642
36641.2
36640.4
36639.6
36638.8
36638.1
36637.3
36636.5
36635.7
36634.9
36634.1
36633.4
36632.6
36631.8
36631
36630.2
36629.4
36628.6
36627.9
36627.1
36626.3
36625.5
36624.7
36623.9
36623.1
36622.3
36621.6
36620.8
36620
36619.2
36618.4
36617.6
36616.8
36616
36615.2
36614.4
36613.6
36612.9
36612.1
36611.3
36610.5
36609.7
36608.9
36608.1
36607.3
36606.5
36605.7
36604.9
36604.1
36603.3
36602.5
36601.7
36600.9
36600.1
36599.3
36598.5
36597.7
36596.9
36596.1
36595.3
36594.5
36593.7
36592.9
36592.1
36591.3
36590.5
36589.7
36588.9
36588.1
36587.3
36586.5
36585.7
36584.9
36584.1
36583.3
36582.5
36581.7
36580.9
36580.1
36579.3
36578.5
36577.7
36576.9
36576
36575.2
36574.4
36573.6
36572.8
36572
36571.2
36570.4
36569.6
36568.8
36568
36567.1
36566.3
36565.5
36564.7
36563.9
36563.1
36562.3
36561.5
36560.6
36559.8
36559
36558.2
36557.4
36556.6
36555.8
36554.9
36554.1
36553.3
36552.5
36551.7
36550.9
36550
36549.2
36548.4
36547.6
36546.8
36545.9
36545.1
36544.3
36543.5
36542.7
36541.8
36541
36540.2
36539.4
36538.6
36537.7
36536.9
36536.1
36535.3
36534.4
36533.6
36532.8
36532
36531.2
36530.3
36529.5
36528.7
36527.8
36527
36526.2
36525.4
36524.5
36523.7
36522.9
36522.1
36521.2
36520.4
36519.6
36518.7
36517.9
36517.1
36516.2
36515.4
36514.6
36513.8
36512.9
36512.1
36511.3
36510.4
36509.6
36508.8
36507.9
36507.1
36506.3
36505.4
36504.6
36503.8
36502.9
36502.1
36501.2
36500.4
36499.6
36498.7
36497.9
36497.1
36496.2
36495.4
36494.5
36493.7
36492.9
36492
36491.2
36490.3
36489.5
36488.7
36487.8
36487
36486.1
36485.3
36484.4
36483.6
36482.8
36481.9
36481.1
36480.2
36479.4
36478.5
36477.7
36476.8
36476
36475.2
36474.3
36473.5
36472.6
36471.8
36470.9
36470.1
36469.2
36468.4
36467.5
36466.7
36465.8
36465
36464.1
36463.3
36462.4
36461.6
36460.7
36459.9
36459
36458.2
36457.3
36456.5
36455.6
36454.7
36453.9
36453
36452.2
36451.3
36450.5
36449.6
36448.8
36447.9
36447
36446.2
36445.3
36444.5
36443.6
36442.8
36441.9
36441
36440.2
36439.3
36438.5
36437.6
36436.7
36435.9
36435
36434.2
36433.3
36432.4
36431.6
36430.7
36429.8
36429
36428.1
36427.2
36426.4
36425.5
36424.7
36423.8
36422.9
36422.1
36421.2
36420.3
36419.5
36418.6
36417.7
36416.9
36416
36415.1
36414.2
36413.4
36412.5
36411.6
36410.8
36409.9
36409
36408.2
36407.3
36406.4
36405.5
36404.7
36403.8
36402.9
36402
36401.2
36400.3
36399.4
36398.5
36397.7
36396.8
36395.9
36395
36394.2
36393.3
36392.4
36391.5
36390.7
36389.8
36388.9
36388
36387.1
36386.3
36385.4
36384.5
36383.6
36382.7
36381.9
36381
36380.1
36379.2
36378.3
36377.4
36376.6
36375.7
36374.8
36373.9
36373
36372.1
36371.3
36370.4
36369.5
36368.6
36367.7
36366.8
36365.9
36365.1
36364.2
36363.3
36362.4
36361.5
36360.6
36359.7
36358.8
36357.9
36357.1
36356.2
36355.3
36354.4
36353.5
36352.6
36351.7
36350.8
36349.9
36349
36348.1
36347.2
36346.3
36345.4
36344.6
36343.7
36342.8
36341.9
36341
36340.1
36339.2
36338.3
36337.4
36336.5
36335.6
36334.7
36333.8
36332.9
36332
36331.1
36330.2
36329.3
36328.4
36327.5
36326.6
36325.7
36324.8
36323.9
36323
36322.1
36321.2
36320.3
36319.4
36318.5
36317.6
36316.7
36315.7
36314.8
36313.9
36313
36312.1
36311.2
36310.3
36309.4
36308.5
36307.6
36306.7
36305.8
36304.9
36303.9
36303
36302.1
36301.2
36300.3
36299.4
36298.5
36297.6
36296.7
36295.7
36294.8
36293.9
36293
36292.1
36291.2
36290.3
36289.4
36288.4
36287.5
36286.6
36285.7
36284.8
36283.9
36282.9
36282
36281.1
36280.2
36279.3
36278.3
36277.4
36276.5
36275.6
36274.7
36273.7
36272.8
36271.9
36271
36270.1
36269.1
36268.2
36267.3
36266.4
36265.5
36264.5
36263.6
36262.7
36261.8
36260.8
36259.9
36259
36258.1
36257.1
36256.2
36255.3
36254.3
36253.4
36252.5
36251.6
36250.6
36249.7
36248.8
36247.8
36246.9
36246
36245.1
36244.1
36243.2
36242.3
36241.3
36240.4
36239.5
36238.5
36237.6
36236.7
36235.7
36234.8
36233.9
36232.9
36232
36231.1
36230.1
36229.2
36228.2
36227.3
36226.4
36225.4
36224.5
36223.6
36222.6
36221.7
36220.7
36219.8
36218.9
36217.9
36217
36216
36215.1
36214.2
36213.2
36212.3
36211.3
36210.4
36209.4
36208.5
36207.6
36206.6
36205.7
36204.7
36203.8
36202.8
36201.9
36200.9
36200
36199
36198.1
36197.2
36196.2
36195.3
36194.3
36193.4
36192.4
36191.5
36190.5
36189.6
36188.6
36187.7
36186.7
36185.8
36184.8
36183.9
36182.9
36181.9
36181
36180
36179.1
36178.1
36177.2
36176.2
36175.3
36174.3
36173.4
36172.4
36171.4
36170.5
36169.5
36168.6
36167.6
36166.7
36165.7
36164.7
36163.8
36162.8
36161.9
36160.9
36159.9
36159
36158
36157.1
36156.1
36155.1
36154.2
36153.2
36152.2
36151.3
36150.3
36149.4
36148.4
36147.4
36146.5
36145.5
36144.5
36143.6
36142.6
36141.6
36140.7
36139.7
36138.7
36137.8
36136.8
36135.8
36134.8
36133.9
36132.9
36131.9
36131
36130
36129
36128.1
36127.1
36126.1
36125.1
36124.2
36123.2
36122.2
36121.2
36120.3
36119.3
36118.3
36117.3
36116.4
36115.4
36114.4
36113.4
36112.5
36111.5
36110.5
36109.5
36108.6
36107.6
36106.6
36105.6
36104.6
36103.7
36102.7
36101.7
36100.7
36099.7
36098.7
36097.8
36096.8
36095.8
36094.8
36093.8
36092.9
36091.9
36090.9
36089.9
36088.9
36087.9
36086.9
36086
36085
36084
36083
36082
36081
36080
36079
36078.1
36077.1
36076.1
36075.1
36074.1
36073.1
36072.1
36071.1
36070.1
36069.1
36068.1
36067.2
36066.2
36065.2
36064.2
36063.2
36062.2
36061.2
36060.2
36059.2
36058.2
36057.2
36056.2
36055.2
36054.2
36053.2
36052.2
36051.2
36050.2
36049.2
36048.2
36047.2
36046.2
36045.2
36044.2
36043.2
36042.2
36041.2
36040.2
36039.2
36038.2
36037.2
36036.2
36035.2
36034.2
36033.2
36032.2
36031.2
36030.2
36029.2
36028.2
36027.2
36026.2
36025.2
36024.1
36023.1
36022.1
36021.1
36020.1
36019.1
36018.1
36017.1
36016.1
36015.1
36014
36013
36012
36011
36010
36009
36008
36007
36006
36004.9
36003.9
36002.9
36001.9
36000.9
35999.9
35998.8
35997.8
35996.8
35995.8
35994.8
35993.8
35992.7
35991.7
35990.7
35989.7
35988.7
35987.6
35986.6
35985.6
35984.6
35983.6
35982.5
35981.5
35980.5
35979.5
35978.4
35977.4
35976.4
35975.4
35974.4
35973.3
35972.3
35971.3
35970.3
35969.2
35968.2
35967.2
35966.1
35965.1
35964.1
35963.1
35962
35961
35960
35958.9
35957.9
35956.9
35955.9
35954.8
35953.8
35952.8
35951.7
35950.7
35949.7
35948.6
35947.6
35946.6
35945.5
35944.5
35943.5
35942.4
35941.4
35940.3
35939.3
35938.3
35937.2
35936.2
35935.2
35934.1
35933.1
35932
35931
35930
35928.9
35927.9
35926.8
35925.8
35924.8
35923.7
35922.7
35921.6
35920.6
35919.6
35918.5
35917.5
35916.4
35915.4
35914.3
35913.3
35912.2
35911.2
35910.1
35909.1
35908.1
35907
35906
35904.9
35903.9
35902.8
35901.8
35900.7
35899.7
35898.6
35897.6
35896.5
35895.5
35894.4
35893.4
35892.3
35891.2
35890.2
35889.1
35888.1
35887
35886
35884.9
35883.9
35882.8
35881.8
35880.7
35879.6
35878.6
35877.5
35876.5
35875.4
35874.4
35873.3
35872.2
35871.2
35870.1
35869.1
35868
35866.9
35865.9
35864.8
35863.7
35862.7
35861.6
35860.6
35859.5
35858.4
35857.4
35856.3
35855.2
35854.2
35853.1
35852
35851
35849.9
35848.8
35847.8
35846.7
35845.6
35844.6
35843.5
35842.4
35841.4
35840.3
35839.2
35838.1
35837.1
35836
35834.9
35833.9
35832.8
35831.7
35830.6
35829.6
35828.5
35827.4
35826.3
35825.3
35824.2
35823.1
35822
35821
35819.9
35818.8
35817.7
35816.6
35815.6
35814.5
35813.4
35812.3
35811.2
35810.2
35809.1
35808
35806.9
35805.8
35804.8
35803.7
35802.6
35801.5
35800.4
35799.3
35798.2
35797.2
35796.1
35795
35793.9
35792.8
35791.7
35790.6
35789.6
35788.5
35787.4
35786.3
35785.2
35784.1
35783
35781.9
35780.8
35779.7
35778.7
35777.6
35776.5
35775.4
35774.3
35773.2
35772.1
35771
35769.9
35768.8
35767.7
35766.6
35765.5
35764.4
35763.3
35762.2
35761.1
35760
35758.9
35757.8
35756.7
35755.6
35754.5
35753.4
35752.3
35751.2
35750.1
35749
35747.9
35746.8
35745.7
35744.6
35743.5
35742.4
35741.3
35740.2
35739.1
35738
35736.9
35735.8
35734.7
35733.6
35732.5
35731.3
35730.2
35729.1
35728
35726.9
35725.8
35724.7
35723.6
35722.5
35721.4
35720.2
35719.1
35718
35716.9
35715.8
35714.7
35713.6
35712.4
35711.3
35710.2
35709.1
35708
35706.9
35705.8
35704.6
35703.5
35702.4
35701.3
35700.2
35699
35697.9
35696.8
35695.7
35694.6
35693.4
35692.3
35691.2
35690.1
35688.9
35687.8
35686.7
35685.6
35684.4
35683.3
35682.2
35681.1
35679.9
35678.8
35677.7
35676.6
35675.4
35674.3
35673.2
35672
35670.9
35669.8
35668.7
35667.5
35666.4
35665.3
35664.1
35663
35661.9
35660.7
35659.6
35658.5
35657.3
35656.2
35655.1
35653.9
35652.8
35651.6
35650.5
35649.4
35648.2
35647.1
35646
35644.8
35643.7
35642.5
35641.4
35640.3
35639.1
35638
35636.8
35635.7
35634.5
35633.4
35632.3
35631.1
35630
35628.8
35627.7
35626.5
35625.4
35624.2
35623.1
35621.9
35620.8
35619.6
35618.5
35617.3
35616.2
35615
35613.9
35612.7
35611.6
35610.4
35609.3
35608.1
35607
35605.8
35604.7
35603.5
35602.4
35601.2
35600.1
35598.9
35597.7
35596.6
35595.4
35594.3
35593.1
35592
35590.8
35589.6
35588.5
35587.3
35586.2
35585
35583.8
35582.7
35581.5
35580.3
35579.2
35578
35576.8
35575.7
35574.5
35573.4
35572.2
35571
35569.9
35568.7
35567.5
35566.3
35565.2
35564
35562.8
35561.7
35560.5
35559.3
35558.2
35557
35555.8
35554.6
35553.5
35552.3
35551.1
35549.9
35548.8
35547.6
35546.4
35545.2
35544.1
35542.9
35541.7
35540.5
35539.3
35538.2
35537
35535.8
35534.6
35533.4
35532.3
35531.1
35529.9
35528.7
35527.5
35526.3
35525.2
35524
35522.8
35521.6
35520.4
35519.2
35518
35516.9
35515.7
35514.5
35513.3
35512.1
35510.9
35509.7
35508.5
35507.3
35506.1
35504.9
35503.8
35502.6
35501.4
35500.2
35499
35497.8
35496.6
35495.4
35494.2
35493
35491.8
35490.6
35489.4
35488.2
35487
35485.8
35484.6
35483.4
35482.2
35481
35479.8
35478.6
35477.4
35476.2
35475
35473.8
35472.6
35471.4
35470.1
35468.9
35467.7
35466.5
35465.3
35464.1
35462.9
35461.7
35460.5
35459.3
35458
35456.8
35455.6
35454.4
35453.2
35452
35450.8
35449.5
35448.3
35447.1
35445.9
35444.7
35443.5
35442.2
35441
35439.8
35438.6
35437.4
35436.1
35434.9
35433.7
35432.5
35431.2
35430
35428.8
35427.6
35426.3
35425.1
35423.9
35422.7
35421.4
35420.2
35419
35417.8
35416.5
35415.3
35414.1
35412.8
35411.6
35410.4
35409.1
35407.9
35406.7
35405.4
35404.2
35403
35401.7
35400.5
35399.2
35398
35396.8
35395.5
35394.3
35393
35391.8
35390.6
35389.3
35388.1
35386.8
35385.6
35384.3
35383.1
35381.8
35380.6
35379.4
35378.1
35376.9
35375.6
35374.4
35373.1
35371.9
35370.6
35369.3
35368.1
35366.8
35365.6
35364.3
35363.1
35361.8
35360.6
35359.3
35358.1
35356.8
35355.5
35354.3
35353
35351.8
35350.5
35349.2
35348
35346.7
35345.4
35344.2
35342.9
35341.6
35340.4
35339.1
35337.8
35336.6
35335.3
35334
35332.8
35331.5
35330.2
35329
35327.7
35326.4
35325.1
35323.9
35322.6
35321.3
35320
35318.8
35317.5
35316.2
35314.9
35313.6
35312.4
35311.1
35309.8
35308.5
35307.2
35305.9
35304.7
35303.4
35302.1
35300.8
35299.5
35298.2
35296.9
35295.6
35294.4
35293.1
35291.8
35290.5
35289.2
35287.9
35286.6
35285.3
35284
35282.7
35281.4
35280.1
35278.8
35277.5
35276.2
35274.9
35273.6
35272.3
35271
35269.7
35268.4
35267.1
35265.8
35264.5
35263.2
35261.9
35260.5
35259.2
35257.9
35256.6
35255.3
35254
35252.7
35251.4
35250
35248.7
35247.4
35246.1
35244.8
35243.5
35242.1
35240.8
35239.5
35238.2
35236.8
35235.5
35234.2
35232.9
35231.5
35230.2
35228.9
35227.5
35226.2
35224.9
35223.6
35222.2
35220.9
35219.6
35218.2
35216.9
35215.5
35214.2
35212.9
35211.5
35210.2
35208.8
35207.5
35206.2
35204.8
35203.5
35202.1
35200.8
35199.4
35198.1
35196.7
35195.4
35194
35192.7
35191.3
35190
35188.6
35187.2
35185.9
35184.5
35183.2
35181.8
35180.5
35179.1
35177.7
35176.4
35175
35173.6
35172.3
35170.9
35169.5
35168.2
35166.8
35165.4
35164
35162.7
35161.3
35159.9
35158.5
35157.2
35155.8
35154.4
35153
35151.6
35150.2
35148.9
35147.5
35146.1
35144.7
35143.3
35141.9
35140.5
35139.1
35137.7
35136.4
35135
35133.6
35132.2
35130.8
35129.4
35128
35126.6
35125.2
35123.8
35122.3
35120.9
35119.5
35118.1
35116.7
35115.3
35113.9
35112.5
35111.1
35109.6
35108.2
35106.8
35105.4
35104
35102.5
35101.1
35099.7
35098.3
35096.8
35095.4
35094
35092.5
35091.1
35089.7
35088.2
35086.8
35085.4
35083.9
35082.5
35081
35079.6
35078.1
35076.7
35075.2
35073.8
35072.3
35070.9
35069.4
35068
35066.5
35065.1
35063.6
35062.1
35060.7
35059.2
35057.8
35056.3
35054.8
35053.3
35051.9
35050.4
35048.9
35047.5
35046
35044.5
35043
35041.5
35040
35038.6
35037.1
35035.6
35034.1
35032.6
35031.1
35029.6
35028.1
35026.6
35025.1
35023.6
35022.1
35020.6
35019.1
35017.6
35016.1
35014.6
35013
35011.5
35010
35008.5
35007
35005.4
35003.9
35002.4
35000.9
34999.3
34997.8
34996.3
34994.7
34993.2
34991.6
34990.1
34988.6
34987
34985.5
34983.9
34982.4
34980.8
34979.2
34977.7
34976.1
34974.6
34973
34971.4
34969.9
34968.3
34966.7
34965.1
34963.6
34962
34960.4
34958.8
34957.2
34955.6
34954
34952.4
34950.8
34949.2
34947.6
34946
34944.4
34942.8
34941.2
34939.6
34938
34936.4
34934.7
34933.1
34931.5
34929.9
34928.2
34926.6
34925
34923.3
34921.7
34920
34918.4
34916.7
34915.1
34913.4
34911.8
34910.1
34908.4
34906.8
34905.1
34903.4
34901.8
34900.1
34898.4
34896.7
34895
34893.3
34891.6
34889.9
34888.2
34886.5
34884.8
34883.1
34881.4
34879.7
34878
34876.3
34874.5
34872.8
34871.1
34869.3
34867.6
34865.9
34864.1
34862.4
34860.6
34858.8
34857.1
34855.3
34853.6
34851.8
34850
34848.2
34846.5
34844.7
34842.9
34841.1
34839.3
34837.5
34835.7
34833.9
34832.1
34830.2
34828.4
34826.6
34824.8
34822.9
34821.1
34819.2
34817.4
34815.5
34813.7
34811.8
34810
34808.1
34806.2
34804.3
34802.5
34800.6
34798.7
34796.8
34794.9
34793
34791.1
34789.1
34787.2
34785.3
34783.4
34781.4
34779.5
34777.5
34775.6
34773.6
34771.7
34769.7
34767.7
34765.8
34763.8
34761.8
34759.8
34757.8
34755.8
34753.8
34751.8
34749.7
34747.7
34745.7
34743.6
34741.6
34739.5
34737.5
34735.4
34733.3
34731.3
34729.2
34727.1
34725
34722.9
34720.8
34718.7
34716.5
34714.4
34712.3
34710.1
34708
34705.8
34703.7
34701.5
34699.3
34697.1
34694.9
34692.7
34690.5
34688.3
34686.1
34683.9
34681.6
34679.4
34677.1
34674.9
34672.6
34670.3
34668
34665.8
34663.5
34661.1
34658.8
34656.5
34654.2
34651.8
34649.5
34647.1
34644.8
34642.4
34640
34637.6
34635.2
34632.8
34630.4
34627.9
34625.5
34623
34620.6
34618.1
34615.6
34613.2
34610.7
34608.2
34605.6
34603.1
34600.6
34598
34595.5
34592.9
34590.3
34587.7
34585.1
34582.5
34579.9
34577.3
34574.7
34572
34569.3
34566.7
34564
34561.3
34558.6
34555.9
34553.1
34550.4
34547.6
34544.9
34542.1
34539.3
34536.5
34533.7
34530.9
34528
34525.2
34522.3
34519.5
34516.6
34513.7
34510.8
34507.8
34504.9
34502
34499
34496
34493
34490
34487
34484
34481
34477.9
34474.8
34471.8
34468.7
34465.6
34462.4
34459.3
34456.1