/*--------------------------------*- C++ -*----------------------------------*\
  =========                 |
  \\      /  F ield         | OpenFOAM: The Open Source CFD Toolbox
   \\    /   O peration     | Website:  https://openfoam.org
    \\  /    A nd           | Version:  9
     \\/     M anipulation  |
\*---------------------------------------------------------------------------*/
FoamFile
{
    format      ascii;
    class       volVectorField;
    location    "0.034";
    object      ddt0(rho,U);
}
// * * * * * * * * * * * * * * * * * * * * * * * * * * * * * * * * * * * * * //

dimensions      [1 -2 -2 0 0 0 0];

internalField   nonuniform List<vector> 
1000
(
(-48.3083 0 0)
(-57.1818 0 0)
(-65.9253 0 0)
(-72.979 0 0)
(-79.6566 0 0)
(-86.5547 0 0)
(-93.5895 0 0)
(-100.58 0 0)
(-107.49 0 0)
(-114.395 0 0)
(-121.358 0 0)
(-128.363 0 0)
(-135.341 0 0)
(-142.237 0 0)
(-149.068 0 0)
(-155.913 0 0)
(-162.836 0 0)
(-169.851 0 0)
(-176.929 0 0)
(-184.016 0 0)
(-191.045 0 0)
(-197.951 0 0)
(-204.698 0 0)
(-211.332 0 0)
(-217.954 0 0)
(-224.639 0 0)
(-231.425 0 0)
(-238.324 0 0)
(-245.364 0 0)
(-252.579 0 0)
(-259.918 0 0)
(-267.296 0 0)
(-274.675 0 0)
(-282.03 0 0)
(-289.352 0 0)
(-296.566 0 0)
(-303.598 0 0)
(-310.543 0 0)
(-317.551 0 0)
(-324.612 0 0)
(-331.744 0 0)
(-339.462 0 0)
(-346.76 0 0)
(-353.814 0 0)
(-360.796 0 0)
(-367.727 0 0)
(-374.739 0 0)
(-381.737 0 0)
(-388.628 0 0)
(-395.514 0 0)
(-402.478 0 0)
(-409.456 0 0)
(-416.409 0 0)
(-423.382 0 0)
(-430.388 0 0)
(-437.364 0 0)
(-444.3 0 0)
(-451.207 0 0)
(-458.159 0 0)
(-465.055 0 0)
(-472.027 0 0)
(-478.899 0 0)
(-485.979 0 0)
(-492.828 0 0)
(-499.932 0 0)
(-506.73 0 0)
(-513.774 0 0)
(-520.726 0 0)
(-527.557 0 0)
(-534.501 0 0)
(-541.447 0 0)
(-548.42 0 0)
(-555.23 0 0)
(-562.45 0 0)
(-568.991 0 0)
(-576.359 0 0)
(-582.923 0 0)
(-589.989 0 0)
(-597.055 0 0)
(-603.547 0 0)
(-611.068 0 0)
(-617.546 0 0)
(-624.584 0 0)
(-631.851 0 0)
(-638.116 0 0)
(-645.611 0 0)
(-652.364 0 0)
(-658.823 0 0)
(-666.496 0 0)
(-672.858 0 0)
(-679.659 0 0)
(-687.34 0 0)
(-693.472 0 0)
(-700.533 0 0)
(-708.151 0 0)
(-714.117 0 0)
(-721.294 0 0)
(-728.911 0 0)
(-734.758 0 0)
(-741.916 0 0)
(-749.679 0 0)
(-755.466 0 0)
(-762.458 0 0)
(-770.484 0 0)
(-776.314 0 0)
(-782.915 0 0)
(-791.21 0 0)
(-797.299 0 0)
(-803.318 0 0)
(-811.718 0 0)
(-818.42 0 0)
(-823.847 0 0)
(-831.941 0 0)
(-839.571 0 0)
(-844.721 0 0)
(-851.925 0 0)
(-860.421 0 0)
(-866.017 0 0)
(-871.948 0 0)
(-880.66 0 0)
(-887.535 0 0)
(-892.529 0 0)
(-900.351 0 0)
(-908.706 0 0)
(-913.948 0 0)
(-920.073 0 0)
(-928.921 0 0)
(-935.728 0 0)
(-940.634 0 0)
(-948.322 0 0)
(-956.832 0 0)
(-962.278 0 0)
(-968.005 0 0)
(-976.665 0 0)
(-984.083 0 0)
(-989.012 0 0)
(-995.907 0 0)
(-1004.7 0 0)
(-1011.01 0 0)
(-1016.07 0 0)
(-1023.95 0 0)
(-1032.37 0 0)
(-1037.83 0 0)
(-1043.39 0 0)
(-1051.91 0 0)
(-1059.78 0 0)
(-1064.76 0 0)
(-1070.85 0 0)
(-1079.77 0 0)
(-1087.13 0 0)
(-1091.82 0 0)
(-1098.34 0 0)
(-1107.47 0 0)
(-1114.51 0 0)
(-1118.96 0 0)
(-1125.73 0 0)
(-1135.03 0 0)
(-1141.94 0 0)
(-1146.23 0 0)
(-1152.97 0 0)
(-1162.44 0 0)
(-1169.51 0 0)
(-1173.65 0 0)
(-1180.08 0 0)
(-1189.67 0 0)
(-1197.17 0 0)
(-1201.26 0 0)
(-1207.13 0 0)
(-1216.66 0 0)
(-1224.81 0 0)
(-1229.13 0 0)
(-1234.27 0 0)
(-1243.39 0 0)
(-1252.29 0 0)
(-1257.21 0 0)
(-1261.64 0 0)
(-1269.92 0 0)
(-1279.44 0 0)
(-1285.34 0 0)
(-1289.33 0 0)
(-1296.48 0 0)
(-1306.2 0 0)
(-1313.37 0 0)
(-1317.4 0 0)
(-1323.25 0 0)
(-1332.65 0 0)
(-1341.14 0 0)
(-1345.81 0 0)
(-1350.38 0 0)
(-1358.8 0 0)
(-1368.41 0 0)
(-1374.44 0 0)
(-1378.14 0 0)
(-1384.8 0 0)
(-1394.81 0 0)
(-1402.93 0 0)
(-1406.93 0 0)
(-1411.37 0 0)
(-1420.21 0 0)
(-1430.32 0 0)
(-1436.43 0 0)
(-1439.6 0 0)
(-1445.64 0 0)
(-1455.83 0 0)
(-1464.97 0 0)
(-1469.47 0 0)
(-1472.95 0 0)
(-1480.58 0 0)
(-1491.11 0 0)
(-1498.88 0 0)
(-1502.52 0 0)
(-1506.97 0 0)
(-1515.81 0 0)
(-1525.94 0 0)
(-1532.36 0 0)
(-1535.79 0 0)
(-1541.42 0 0)
(-1551.09 0 0)
(-1560.55 0 0)
(-1565.83 0 0)
(-1569.22 0 0)
(-1575.9 0 0)
(-1586.29 0 0)
(-1595.24 0 0)
(-1599.57 0 0)
(-1602.79 0 0)
(-1610.18 0 0)
(-1621.17 0 0)
(-1630.01 0 0)
(-1633.82 0 0)
(-1636.74 0 0)
(-1644.25 0 0)
(-1655.55 0 0)
(-1664.62 0 0)
(-1668.5 0 0)
(-1671.26 0 0)
(-1678.44 0 0)
(-1689.58 0 0)
(-1698.93 0 0)
(-1703.27 0 0)
(-1706.14 0 0)
(-1712.97 0 0)
(-1723.78 0 0)
(-1733.26 0 0)
(-1737.96 0 0)
(-1740.84 0 0)
(-1747.4 0 0)
(-1758.22 0 0)
(-1768.18 0 0)
(-1773.12 0 0)
(-1775.47 0 0)
(-1781.21 0 0)
(-1792.08 0 0)
(-1803.27 0 0)
(-1809.29 0 0)
(-1811.19 0 0)
(-1815.17 0 0)
(-1825.01 0 0)
(-1837.25 0 0)
(-1845.41 0 0)
(-1848.15 0 0)
(-1850.64 0 0)
(-1858.41 0 0)
(-1870.35 0 0)
(-1880.34 0 0)
(-1884.83 0 0)
(-1886.99 0 0)
(-1892.98 0 0)
(-1904.01 0 0)
(-1915.13 0 0)
(-1921.24 0 0)
(-1923.38 0 0)
(-1927.56 0 0)
(-1937.45 0 0)
(-1949.86 0 0)
(-1958.49 0 0)
(-1961.38 0 0)
(-1963.32 0 0)
(-1970.27 0 0)
(-1982.58 0 0)
(-1994.41 0 0)
(-2000.48 0 0)
(-2002.13 0 0)
(-2005.65 0 0)
(-2015 0 0)
(-2027.92 0 0)
(-2037.37 0 0)
(-2041.5 0 0)
(-2043.86 0 0)
(-2050 0 0)
(-2061.28 0 0)
(-2073.31 0 0)
(-2080.11 0 0)
(-2082.79 0 0)
(-2086.91 0 0)
(-2094.22 0 0)
(-2107.58 0 0)
(-2119.24 0 0)
(-2123.89 0 0)
(-2126.99 0 0)
(-2131.63 0 0)
(-2138.55 0 0)
(-2150.33 0 0)
(-2165.9 0 0)
(-2169.05 0 0)
(-2172.53 0 0)
(-2177.81 0 0)
(-2184.84 0 0)
(-2194.83 0 0)
(-2210.69 0 0)
(-2213.68 0 0)
(-2218.35 0 0)
(-2224.35 0 0)
(-2231.85 0 0)
(-2239.52 0 0)
(-2254.24 0 0)
(-2258.27 0 0)
(-2263.03 0 0)
(-2268.12 0 0)
(-2275.3 0 0)
(-2286.9 0 0)
(-2295.26 0 0)
(-2304.26 0 0)
(-2314.94 0 0)
(-2322.41 0 0)
(-2327.63 0 0)
(-2336.86 0 0)
(-2347.45 0 0)
(-2355.88 0 0)
(-2363.18 0 0)
(-2370.61 0 0)
(-2377.91 0 0)
(-2386.23 0 0)
(-2395.85 0 0)
(-2404.96 0 0)
(-2412.48 0 0)
(-2419.39 0 0)
(-2426.88 0 0)
(-2435.89 0 0)
(-2446.28 0 0)
(-2456.63 0 0)
(-2465.18 0 0)
(-2471.73 0 0)
(-2478.58 0 0)
(-2487.21 0 0)
(-2497.37 0 0)
(-2507.75 0 0)
(-2516.84 0 0)
(-2524.28 0 0)
(-2531.41 0 0)
(-2539.95 0 0)
(-2550 0 0)
(-2560.6 0 0)
(-2570.2 0 0)
(-2578.19 0 0)
(-2585.31 0 0)
(-2593.56 0 0)
(-2603.8 0 0)
(-2614.69 0 0)
(-2624.75 0 0)
(-2633.28 0 0)
(-2640.6 0 0)
(-2648.11 0 0)
(-2657.53 0 0)
(-2668.45 0 0)
(-2678.99 0 0)
(-2688.21 0 0)
(-2696.26 0 0)
(-2703.99 0 0)
(-2712.96 0 0)
(-2723.5 0 0)
(-2733.96 0 0)
(-2743 0 0)
(-2750.75 0 0)
(-2757.97 0 0)
(-2766.04 0 0)
(-2776.16 0 0)
(-2787.38 0 0)
(-2797.51 0 0)
(-2806.07 0 0)
(-2813.64 0 0)
(-2820.86 0 0)
(-2829.23 0 0)
(-2839.4 0 0)
(-2849.63 0 0)
(-2857.98 0 0)
(-2865.07 0 0)
(-2872.08 0 0)
(-2879.75 0 0)
(-2888.98 0 0)
(-2899.35 0 0)
(-2908.7 0 0)
(-2915.92 0 0)
(-2922.16 0 0)
(-2928.74 0 0)
(-2936.29 0 0)
(-2945.17 0 0)
(-2954.59 0 0)
(-2962.76 0 0)
(-2968.86 0 0)
(-2974.3 0 0)
(-2980.99 0 0)
(-2989.14 0 0)
(-2997.75 0 0)
(-3005.63 0 0)
(-3012.11 0 0)
(-3017.48 0 0)
(-3022.7 0 0)
(-3028.99 0 0)
(-3036.74 0 0)
(-3045.03 0 0)
(-3052.36 0 0)
(-3057.94 0 0)
(-3062.49 0 0)
(-3067.5 0 0)
(-3073.99 0 0)
(-3081.57 0 0)
(-3088.9 0 0)
(-3094.8 0 0)
(-3099.37 0 0)
(-3103.8 0 0)
(-3109.07 0 0)
(-3115.59 0 0)
(-3122.98 0 0)
(-3130.08 0 0)
(-3135.63 0 0)
(-3139.59 0 0)
(-3143.44 0 0)
(-3148.75 0 0)
(-3155.54 0 0)
(-3162.49 0 0)
(-3168.51 0 0)
(-3173.33 0 0)
(-3177.31 0 0)
(-3181.51 0 0)
(-3187.19 0 0)
(-3194.32 0 0)
(-3201.39 0 0)
(-3207 0 0)
(-3211.17 0 0)
(-3215.04 0 0)
(-3219.65 0 0)
(-3225.42 0 0)
(-3232.14 0 0)
(-3238.86 0 0)
(-3244.37 0 0)
(-3248.47 0 0)
(-3252.29 0 0)
(-3257.11 0 0)
(-3263.34 0 0)
(-3270.42 0 0)
(-3277.08 0 0)
(-3282.33 0 0)
(-3286.25 0 0)
(-3290.03 0 0)
(-3295.08 0 0)
(-3301.64 0 0)
(-3308.82 0 0)
(-3315.11 0 0)
(-3319.79 0 0)
(-3323.5 0 0)
(-3327.69 0 0)
(-3333.52 0 0)
(-3340.52 0 0)
(-3347.39 0 0)
(-3353.24 0 0)
(-3357.94 0 0)
(-3362.14 0 0)
(-3366.7 0 0)
(-3372.42 0 0)
(-3379.21 0 0)
(-3386.12 0 0)
(-3392 0 0)
(-3396.64 0 0)
(-3400.79 0 0)
(-3405.45 0 0)
(-3411.3 0 0)
(-3418.24 0 0)
(-3425.34 0 0)
(-3431.31 0 0)
(-3435.78 0 0)
(-3439.69 0 0)
(-3444.54 0 0)
(-3450.91 0 0)
(-3458.12 0 0)
(-3464.95 0 0)
(-3470.67 0 0)
(-3475.35 0 0)
(-3479.7 0 0)
(-3484.64 0 0)
(-3490.75 0 0)
(-3497.8 0 0)
(-3504.74 0 0)
(-3510.59 0 0)
(-3515.13 0 0)
(-3519.18 0 0)
(-3524.15 0 0)
(-3530.57 0 0)
(-3537.87 0 0)
(-3544.73 0 0)
(-3550.33 0 0)
(-3554.93 0 0)
(-3559.52 0 0)
(-3565.03 0 0)
(-3571.67 0 0)
(-3578.96 0 0)
(-3585.79 0 0)
(-3591.51 0 0)
(-3596.22 0 0)
(-3600.76 0 0)
(-3606.24 0 0)
(-3612.95 0 0)
(-3620.35 0 0)
(-3627.26 0 0)
(-3633.02 0 0)
(-3637.7 0 0)
(-3642.29 0 0)
(-3647.82 0 0)
(-3654.68 0 0)
(-3662.26 0 0)
(-3669.3 0 0)
(-3675.07 0 0)
(-3679.62 0 0)
(-3684.22 0 0)
(-3689.91 0 0)
(-3696.92 0 0)
(-3704.42 0 0)
(-3711.3 0 0)
(-3717.03 0 0)
(-3721.89 0 0)
(-3726.82 0 0)
(-3732.51 0 0)
(-3739.19 0 0)
(-3746.51 0 0)
(-3753.67 0 0)
(-3759.96 0 0)
(-3765.19 0 0)
(-3769.9 0 0)
(-3775.15 0 0)
(-3781.73 0 0)
(-3789.47 0 0)
(-3797.1 0 0)
(-3803.52 0 0)
(-3808.42 0 0)
(-3812.88 0 0)
(-3818.37 0 0)
(-3825.54 0 0)
(-3833.7 0 0)
(-3841.31 0 0)
(-3847.32 0 0)
(-3851.91 0 0)
(-3856.4 0 0)
(-3862.22 0 0)
(-3869.76 0 0)
(-3878.03 0 0)
(-3885.57 0 0)
(-3891.34 0 0)
(-3895.85 0 0)
(-3900.46 0 0)
(-3906.63 0 0)
(-3914.46 0 0)
(-3922.81 0 0)
(-3930.12 0 0)
(-3935.64 0 0)
(-3940.2 0 0)
(-3945.18 0 0)
(-3951.84 0 0)
(-3959.91 0 0)
(-3968.08 0 0)
(-3974.95 0 0)
(-3980.2 0 0)
(-3984.86 0 0)
(-3990.37 0 0)
(-3997.52 0 0)
(-4005.73 0 0)
(-4013.68 0 0)
(-4020.2 0 0)
(-4025.37 0 0)
(-4030.34 0 0)
(-4036.29 0 0)
(-4043.76 0 0)
(-4051.89 0 0)
(-4059.46 0 0)
(-4065.68 0 0)
(-4070.83 0 0)
(-4076.14 0 0)
(-4082.58 0 0)
(-4090.41 0 0)
(-4098.61 0 0)
(-4106.06 0 0)
(-4112.04 0 0)
(-4117.02 0 0)
(-4122.46 0 0)
(-4129.14 0 0)
(-4137.27 0 0)
(-4145.64 0 0)
(-4152.96 0 0)
(-4158.74 0 0)
(-4163.68 0 0)
(-4169.26 0 0)
(-4176.42 0 0)
(-4184.99 0 0)
(-4193.5 0 0)
(-4200.68 0 0)
(-4206.05 0 0)
(-4210.75 0 0)
(-4216.37 0 0)
(-4223.83 0 0)
(-4232.72 0 0)
(-4241.4 0 0)
(-4248.47 0 0)
(-4253.77 0 0)
(-4258.55 0 0)
(-4264.37 0 0)
(-4272.14 0 0)
(-4281.08 0 0)
(-4289.67 0 0)
(-4296.58 0 0)
(-4301.81 0 0)
(-4306.72 0 0)
(-4312.85 0 0)
(-4320.8 0 0)
(-4329.79 0 0)
(-4338.27 0 0)
(-4345.09 0 0)
(-4350.54 0 0)
(-4355.74 0 0)
(-4362.21 0 0)
(-4370.23 0 0)
(-4379.08 0 0)
(-4387.29 0 0)
(-4394.02 0 0)
(-4399.65 0 0)
(-4405.1 0 0)
(-4411.79 0 0)
(-4419.81 0 0)
(-4428.45 0 0)
(-4436.57 0 0)
(-4443.34 0 0)
(-4449.3 0 0)
(-4455.19 0 0)
(-4462.11 0 0)
(-4470.14 0 0)
(-4478.59 0 0)
(-4486.71 0 0)
(-4493.57 0 0)
(-4499.87 0 0)
(-4505.85 0 0)
(-4512.77 0 0)
(-4520.46 0 0)
(-4528.68 0 0)
(-4536.8 0 0)
(-4543.85 0 0)
(-4550.61 0 0)
(-4556.78 0 0)
(-4563.85 0 0)
(-4571.42 0 0)
(-4579.61 0 0)
(-4587.86 0 0)
(-4595.27 0 0)
(-4602.27 0 0)
(-4608.76 0 0)
(-4615.52 0 0)
(-4623.07 0 0)
(-4630.78 0 0)
(-4639.15 0 0)
(-4646.6 0 0)
(-4654 0 0)
(-4660.73 0 0)
(-4667.49 0 0)
(-4675.11 0 0)
(-4682.52 0 0)
(-4691.17 0 0)
(-4698.52 0 0)
(-4706.62 0 0)
(-4713.24 0 0)
(-4720.53 0 0)
(-4727.57 0 0)
(-4735.04 0 0)
(-4743.42 0 0)
(-4750.83 0 0)
(-4759.59 0 0)
(-4766.01 0 0)
(-4774.23 0 0)
(-4780.39 0 0)
(-4788.47 0 0)
(-4796.03 0 0)
(-4803.66 0 0)
(-4812.97 0 0)
(-4818.86 0 0)
(-4828.92 0 0)
(-4833.59 0 0)
(-4843.2 0 0)
(-4849.24 0 0)
(-4857.4 0 0)
(-4866.4 0 0)
(-4872.27 0 0)
(-4883.24 0 0)
(-4887.27 0 0)
(-4898.33 0 0)
(-4902.73 0 0)
(-4912.68 0 0)
(-4919.44 0 0)
(-4927.3 0 0)
(-4937.09 0 0)
(-4941.89 0 0)
(-4954.17 0 0)
(-4956.6 0 0)
(-4969.7 0 0)
(-4972.52 0 0)
(-4984.14 0 0)
(-4990.15 0 0)
(-4997.97 0 0)
(-5008.78 0 0)
(-5011.38 0 0)
(-5026.78 0 0)
(-5025.97 0 0)
(-5042.52 0 0)
(-5042.83 0 0)
(-5056.56 0 0)
(-5061.22 0 0)
(-5069.88 0 0)
(-5080.5 0 0)
(-5082.76 0 0)
(-5099.45 0 0)
(-5097.26 0 0)
(-5115.19 0 0)
(-5115.51 0 0)
(-5128.11 0 0)
(-5134.94 0 0)
(-5141.99 0 0)
(-5152.86 0 0)
(-5157.1 0 0)
(-5170.51 0 0)
(-5172.37 0 0)
(-5187.29 0 0)
(-5189.57 0 0)
(-5201.76 0 0)
(-5208.35 0 0)
(-5215.93 0 0)
(-5226.43 0 0)
(-5231.72 0 0)
(-5243.12 0 0)
(-5248.52 0 0)
(-5260.27 0 0)
(-5263.8 0 0)
(-5278.8 0 0)
(-5279.63 0 0)
(-5293.99 0 0)
(-5300.23 0 0)
(-5306 0 0)
(-5320.53 0 0)
(-5321.61 0 0)
(-5337.05 0 0)
(-5339.46 0 0)
(-5353.31 0 0)
(-5357.23 0 0)
(-5369.02 0 0)
(-5375.4 0 0)
(-5385.71 0 0)
(-5392.08 0 0)
(-5402.28 0 0)
(-5412.11 0 0)
(-5414.73 0 0)
(-5433.57 0 0)
(-5430.64 0 0)
(-5449.4 0 0)
(-5450.05 0 0)
(-5465.67 0 0)
(-5467.78 0 0)
(-5481.04 0 0)
(-5490.12 0 0)
(-5492.09 0 0)
(-5512.52 0 0)
(-5508.52 0 0)
(-5528 0 0)
(-5529.26 0 0)
(-5542.74 0 0)
(-5549.8 0 0)
(-5556.66 0 0)
(-5571.93 0 0)
(-5570.86 0 0)
(-5591.03 0 0)
(-5590.84 0 0)
(-5604.21 0 0)
(-5614.34 0 0)
(-5618.74 0 0)
(-5632.41 0 0)
(-5639.02 0 0)
(-5649.67 0 0)
(-5653.95 0 0)
(-5674.06 0 0)
(-5668 0 0)
(-5689.51 0 0)
(-5697.45 0 0)
(-5693.94 0 0)
(-5724.91 0 0)
(-5714.64 0 0)
(-5732.4 0 0)
(-5745.39 0 0)
(-5746.85 0 0)
(-5759.56 0 0)
(-5771.12 0 0)
(-5781.78 0 0)
(-5777.93 0 0)
(-5810.01 0 0)
(-5802.65 0 0)
(-5810.46 0 0)
(-5838.06 0 0)
(-5830.65 0 0)
(-5841.86 0 0)
(-5863.62 0 0)
(-5864.35 0 0)
(-5866.95 0 0)
(-5896.43 0 0)
(-5891.62 0 0)
(-5898.13 0 0)
(-5925.23 0 0)
(-5920.51 0 0)
(-5931.14 0 0)
(-5950.83 0 0)
(-5953.45 0 0)
(-5961.56 0 0)
(-5979 0 0)
(-5984.36 0 0)
(-5993.92 0 0)
(-6006.76 0 0)
(-6016.02 0 0)
(-6026.44 0 0)
(-6033.44 0 0)
(-6052.16 0 0)
(-6052.12 0 0)
(-6068.16 0 0)
(-6082.05 0 0)
(-6082.16 0 0)
(-6101.09 0 0)
(-6110.97 0 0)
(-6116.24 0 0)
(-6128.9 0 0)
(-6144.85 0 0)
(-6146.84 0 0)
(-6159.79 0 0)
(-6176.1 0 0)
(-6180.14 0 0)
(-6189.1 0 0)
(-6206.98 0 0)
(-6215.1 0 0)
(-6218.07 0 0)
(-6237.47 0 0)
(-6247.23 0 0)
(-6252.8 0 0)
(-6265.18 0 0)
(-6277.36 0 0)
(-6288.87 0 0)
(-6294.25 0 0)
(-6307.9 0 0)
(-6320.65 0 0)
(-6326.15 0 0)
(-6338.62 0 0)
(-6352.23 0 0)
(-6357.2 0 0)
(-6367.85 0 0)
(-6384.32 0 0)
(-6389.56 0 0)
(-6397.95 0 0)
(-6411.37 0 0)
(-6422.12 0 0)
(-6433 0 0)
(-6436.96 0 0)
(-6450.38 0 0)
(-6467.9 0 0)
(-6466.74 0 0)
(-6477.84 0 0)
(-6498.91 0 0)
(-6498.18 0 0)
(-6505.85 0 0)
(-6528.15 0 0)
(-6531.05 0 0)
(-6533.77 0 0)
(-6554.1 0 0)
(-6564.46 0 0)
(-6565.22 0 0)
(-6578.14 0 0)
(-6593.28 0 0)
(-6599.04 0 0)
(-6605.93 0 0)
(-6618.48 0 0)
(-6629.63 0 0)
(-6637.34 0 0)
(-6645.43 0 0)
(-6656.04 0 0)
(-6667.08 0 0)
(-6676.77 0 0)
(-6684.52 0 0)
(-6692.24 0 0)
(-6703.92 0 0)
(-6717.04 0 0)
(-6724.06 0 0)
(-6727.95 0 0)
(-6740.71 0 0)
(-6756.31 0 0)
(-6763 0 0)
(-6766.11 0 0)
(-6779.12 0 0)
(-6791.95 0 0)
(-6800.71 0 0)
(-6807.15 0 0)
(-6819.31 0 0)
(-6826.16 0 0)
(-6839.22 0 0)
(-6846.05 0 0)
(-6858.71 0 0)
(-6864.04 0 0)
(-6881.77 0 0)
(-6880.67 0 0)
(-6893.71 0 0)
(-6904.39 0 0)
(-6929.03 0 0)
(-6918.01 0 0)
(-6925.38 0 0)
(-6939.07 0 0)
(-6975.45 0 0)
(-6965.33 0 0)
(-6961.89 0 0)
(-6968.21 0 0)
(-7010.01 0 0)
(-7016.61 0 0)
(-7011.06 0 0)
(-7001.76 0 0)
(-7035.84 0 0)
(-7055.63 0 0)
(-7064.91 0 0)
(-7053.14 0 0)
(-7062.84 0 0)
(-7085.69 0 0)
(-7102.02 0 0)
(-7111.71 0 0)
(-7110.35 0 0)
(-7116.28 0 0)
(-7131.33 0 0)
(-7151.03 0 0)
(-7162.96 0 0)
(-7164.95 0 0)
(-7167.88 0 0)
(-7184.72 0 0)
(-7199.67 0 0)
(-7211.13 0 0)
(-7217.61 0 0)
(-7225.05 0 0)
(-7234.75 0 0)
(-7248.44 0 0)
(-7259.96 0 0)
(-7270.69 0 0)
(-7279.34 0 0)
(-7289.45 0 0)
(-7298.78 0 0)
(-7310.19 0 0)
(-7321.54 0 0)
(-7334.32 0 0)
(-7343.22 0 0)
(-7350.85 0 0)
(-7359.16 0 0)
(-7373.78 0 0)
(-7387.61 0 0)
(-7399.94 0 0)
(-7404.19 0 0)
(-7410.67 0 0)
(-7424.54 0 0)
(-7441.01 0 0)
(-7454.37 0 0)
(-7466.13 0 0)
(-7467.99 0 0)
(-7477.23 0 0)
(-7495.14 0 0)
(-7510.63 0 0)
(-7527 0 0)
(-7541.29 0 0)
(-7548.05 0 0)
(-7556.49 0 0)
(-7570 0 0)
(-7586.09 0 0)
(-7608.49 0 0)
(-7624.75 0 0)
(-7639.27 0 0)
(-7650.08 0 0)
(-7660.06 0 0)
(-7671.78 0 0)
(-7688.86 0 0)
(-7704.4 0 0)
(-7721.2 0 0)
(-7734.02 0 0)
(-7741.79 0 0)
(-7751.82 0 0)
(-7758.75 0 0)
(-7773.2 0 0)
(-7785.05 0 0)
(-7798.76 0 0)
(-7807.78 0 0)
(-7818.84 0 0)
(-7828.12 0 0)
)
;

boundaryField
{
    sides
    {
        type            calculated;
        value           nonuniform List<vector> 2((-7828.12 0 0) (-48.3083 0 0));
    }
    empty
    {
        type            empty;
    }
}


// ************************************************************************* //
