/*--------------------------------*- C++ -*----------------------------------*\
  =========                 |
  \\      /  F ield         | OpenFOAM: The Open Source CFD Toolbox
   \\    /   O peration     | Website:  https://openfoam.org
    \\  /    A nd           | Version:  9
     \\/     M anipulation  |
\*---------------------------------------------------------------------------*/
FoamFile
{
    format      ascii;
    class       volScalarField;
    location    "0.034";
    object      ddt0(rho);
}
// * * * * * * * * * * * * * * * * * * * * * * * * * * * * * * * * * * * * * //

dimensions      [1 -3 -1 0 0 0 0];

internalField   nonuniform List<scalar> 
1000
(
-9.70942
-9.70525
-9.70034
-9.69494
-9.68926
-9.68542
-9.68223
-9.67669
-9.6687
-9.66156
-9.65817
-9.65774
-9.65649
-9.65109
-9.64137
-9.63025
-9.62181
-9.6187
-9.62058
-9.62458
-9.6268
-9.6242
-9.61579
-9.6025
-9.58665
-9.57147
-9.56001
-9.5544
-9.55545
-9.56243
-9.57402
-9.58841
-9.60308
-9.61586
-9.62499
-9.62984
-9.63125
-9.62969
-9.62832
-9.62892
-9.63393
-9.6553
-9.66273
-9.6635
-9.66244
-9.66062
-9.65896
-9.65706
-9.65465
-9.65228
-9.65028
-9.64835
-9.64635
-9.64443
-9.64274
-9.64085
-9.63901
-9.63664
-9.63512
-9.63228
-9.63166
-9.62783
-9.62865
-9.62363
-9.62533
-9.62033
-9.61998
-9.61841
-9.61533
-9.61352
-9.6119
-9.61073
-9.60562
-9.61004
-9.59914
-9.60699
-9.59711
-9.5982
-9.59973
-9.58812
-9.59858
-9.58696
-9.58696
-9.5925
-9.57687
-9.58684
-9.58218
-9.57078
-9.58432
-9.57159
-9.56669
-9.57987
-9.56245
-9.56259
-9.5746
-9.55452
-9.55715
-9.56929
-9.54757
-9.54985
-9.56444
-9.54196
-9.54079
-9.55965
-9.53848
-9.53021
-9.55344
-9.53766
-9.51938
-9.54375
-9.5392
-9.51115
-9.52922
-9.54065
-9.50883
-9.51119
-9.53681
-9.51374
-9.49494
-9.52307
-9.52178
-9.48834
-9.50069
-9.52306
-9.4949
-9.47974
-9.50891
-9.50658
-9.47316
-9.48305
-9.50701
-9.48328
-9.4627
-9.48764
-9.49451
-9.46281
-9.46016
-9.48703
-9.47716
-9.44774
-9.45988
-9.48103
-9.45885
-9.43714
-9.45851
-9.47142
-9.44232
-9.42846
-9.45523
-9.46053
-9.42778
-9.42016
-9.44941
-9.45024
-9.41481
-9.41064
-9.44174
-9.44085
-9.40384
-9.39924
-9.43193
-9.43314
-9.39473
-9.38614
-9.41969
-9.42635
-9.38813
-9.3724
-9.40432
-9.41911
-9.38456
-9.35977
-9.3857
-9.40951
-9.38327
-9.35013
-9.36508
-9.39586
-9.38226
-9.34449
-9.34507
-9.37753
-9.37931
-9.34281
-9.3277
-9.35537
-9.37255
-9.34434
-9.31454
-9.3299
-9.35979
-9.34799
-9.30867
-9.30334
-9.33692
-9.34913
-9.31403
-9.28349
-9.30286
-9.33697
-9.32614
-9.2821
-9.2696
-9.30366
-9.32627
-9.29769
-9.25746
-9.26262
-9.29956
-9.3068
-9.26914
-9.23987
-9.25781
-9.28967
-9.28218
-9.24261
-9.22607
-9.25219
-9.27627
-9.25671
-9.2171
-9.21148
-9.24427
-9.26253
-9.23324
-9.19232
-9.19367
-9.23171
-9.24823
-9.21396
-9.17044
-9.17264
-9.21278
-9.23096
-9.1976
-9.15293
-9.15159
-9.18903
-9.20911
-9.18034
-9.13719
-9.13201
-9.16528
-9.18578
-9.1605
-9.11774
-9.10977
-9.14204
-9.16619
-9.14326
-9.09578
-9.0798
-9.11138
-9.14606
-9.13288
-9.08152
-9.04915
-9.07025
-9.11322
-9.11901
-9.0756
-9.02973
-9.03121
-9.07012
-9.0915
-9.06364
-9.01498
-8.99997
-9.0294
-9.05962
-9.0456
-8.99669
-8.96541
-8.98357
-9.02353
-9.03058
-8.98802
-8.9369
-8.92888
-8.96624
-8.99912
-8.98311
-8.9297
-8.8922
-8.90181
-8.94191
-8.95422
-8.92096
-8.87195
-8.85454
-8.88078
-8.91025
-8.89686
-8.85434
-8.81502
-8.80729
-8.84967
-8.86806
-8.84016
-8.79898
-8.76033
-8.75593
-8.7785
-8.81895
-8.7828
-8.74362
-8.70995
-8.70448
-8.71129
-8.75124
-8.71278
-8.68308
-8.6554
-8.65587
-8.64705
-8.67744
-8.64915
-8.63692
-8.61851
-8.60617
-8.60557
-8.58531
-8.57113
-8.55304
-8.52491
-8.49338
-8.48461
-8.48451
-8.4767
-8.45803
-8.43438
-8.41188
-8.3989
-8.39418
-8.38467
-8.36247
-8.33425
-8.30989
-8.29668
-8.29253
-8.28674
-8.26756
-8.23397
-8.20233
-8.18299
-8.17402
-8.16615
-8.14897
-8.11996
-8.08819
-8.06547
-8.05217
-8.04174
-8.02371
-7.99432
-7.95913
-7.93215
-7.91912
-7.91012
-7.8947
-7.86792
-7.83218
-7.7976
-7.77608
-7.76481
-7.75084
-7.72776
-7.69675
-7.66381
-7.63971
-7.62664
-7.61317
-7.59022
-7.55863
-7.52371
-7.49472
-7.47991
-7.47294
-7.45897
-7.43505
-7.40507
-7.37355
-7.35058
-7.34072
-7.33218
-7.3121
-7.28458
-7.25748
-7.23574
-7.22538
-7.22349
-7.21578
-7.19498
-7.16884
-7.14624
-7.13142
-7.12684
-7.12734
-7.12099
-7.1025
-7.08099
-7.06891
-7.06749
-7.07022
-7.06921
-7.06023
-7.04523
-7.03048
-7.02413
-7.02854
-7.03773
-7.04189
-7.03594
-7.02437
-7.01674
-7.01957
-7.03025
-7.04004
-7.04137
-7.03496
-7.02836
-7.02797
-7.03637
-7.05103
-7.06452
-7.06881
-7.06352
-7.058
-7.06225
-7.07627
-7.09158
-7.10129
-7.10361
-7.10093
-7.09998
-7.10866
-7.12669
-7.14464
-7.15362
-7.15368
-7.15207
-7.15518
-7.16559
-7.18199
-7.19838
-7.20724
-7.20737
-7.20577
-7.21058
-7.22418
-7.24315
-7.25957
-7.26731
-7.26678
-7.26543
-7.27188
-7.28763
-7.30707
-7.32099
-7.32484
-7.32273
-7.32357
-7.33444
-7.35254
-7.36986
-7.3809
-7.38491
-7.38589
-7.38905
-7.39925
-7.41586
-7.43309
-7.44398
-7.44729
-7.44759
-7.45094
-7.46151
-7.47865
-7.49679
-7.5081
-7.51032
-7.50917
-7.51361
-7.52717
-7.54563
-7.56173
-7.57111
-7.57413
-7.57514
-7.57968
-7.59114
-7.60824
-7.6247
-7.63462
-7.63674
-7.63599
-7.64062
-7.65383
-7.67209
-7.6877
-7.69576
-7.69786
-7.69978
-7.70718
-7.72117
-7.73892
-7.75396
-7.76242
-7.76502
-7.76657
-7.77353
-7.78766
-7.80574
-7.82087
-7.82925
-7.83121
-7.83263
-7.83954
-7.85409
-7.87278
-7.88831
-7.89645
-7.89753
-7.89888
-7.90649
-7.9217
-7.93962
-7.95388
-7.96143
-7.96396
-7.96684
-7.97408
-7.98686
-8.00334
-8.0188
-8.02931
-8.03369
-8.03514
-8.03959
-8.05158
-8.07003
-8.08784
-8.09872
-8.1009
-8.10052
-8.10596
-8.12086
-8.1413
-8.15855
-8.16679
-8.16705
-8.1667
-8.17381
-8.19049
-8.21123
-8.2278
-8.2344
-8.23392
-8.23396
-8.24265
-8.26057
-8.28126
-8.29615
-8.30105
-8.3006
-8.3025
-8.31367
-8.33254
-8.35195
-8.3641
-8.36729
-8.3672
-8.37171
-8.38522
-8.40446
-8.42229
-8.43217
-8.43464
-8.436
-8.44272
-8.45774
-8.4763
-8.49173
-8.49974
-8.50195
-8.50492
-8.51405
-8.5306
-8.54912
-8.56351
-8.56987
-8.57085
-8.57423
-8.58432
-8.6022
-8.62127
-8.63465
-8.63974
-8.64026
-8.64421
-8.65655
-8.67642
-8.69587
-8.70817
-8.71078
-8.70979
-8.71367
-8.72737
-8.74859
-8.76865
-8.78014
-8.78216
-8.7814
-8.78612
-8.80115
-8.82229
-8.84148
-8.85176
-8.8532
-8.85284
-8.85893
-8.87454
-8.89555
-8.91385
-8.92341
-8.92571
-8.92676
-8.93436
-8.95003
-8.96997
-8.9865
-8.99529
-8.99827
-9.00035
-9.00881
-9.02412
-9.04261
-9.05832
-9.06705
-9.07153
-9.07562
-9.08501
-9.1001
-9.11724
-9.13267
-9.14158
-9.14762
-9.15191
-9.16101
-9.17403
-9.18968
-9.2048
-9.2144
-9.2225
-9.22754
-9.2371
-9.24919
-9.26441
-9.27981
-9.29093
-9.29996
-9.30635
-9.31405
-9.32571
-9.33815
-9.35392
-9.36496
-9.37573
-9.38307
-9.39057
-9.4023
-9.41303
-9.42987
-9.44017
-9.45413
-9.46071
-9.47056
-9.4791
-9.48977
-9.50489
-9.51518
-9.53213
-9.53736
-9.55154
-9.55543
-9.56885
-9.57955
-9.5907
-9.60998
-9.61243
-9.63537
-9.63164
-9.6523
-9.65528
-9.66875
-9.68615
-9.6883
-9.71529
-9.70834
-9.7357
-9.7304
-9.75227
-9.75841
-9.77004
-9.79082
-9.78746
-9.82031
-9.80528
-9.84204
-9.8288
-9.85838
-9.86049
-9.87165
-9.89684
-9.8827
-9.92998
-9.89926
-9.95209
-9.92656
-9.96585
-9.96108
-9.97597
-9.99966
-9.98375
-10.0364
-9.99909
-10.0577
-10.0321
-10.0652
-10.0706
-10.0773
-10.1016
-10.0948
-10.1312
-10.113
-10.1565
-10.14
-10.1706
-10.1743
-10.183
-10.2051
-10.2029
-10.2291
-10.2272
-10.255
-10.2442
-10.2872
-10.2635
-10.3034
-10.3048
-10.3044
-10.3445
-10.322
-10.3662
-10.3496
-10.3864
-10.3766
-10.4036
-10.405
-10.425
-10.4261
-10.4454
-10.4624
-10.4463
-10.5048
-10.4628
-10.5207
-10.4949
-10.5382
-10.5187
-10.5509
-10.5632
-10.5432
-10.6073
-10.5596
-10.6191
-10.595
-10.6267
-10.6288
-10.6299
-10.6691
-10.6336
-10.6947
-10.6628
-10.6926
-10.7071
-10.6957
-10.7258
-10.724
-10.7398
-10.7269
-10.7852
-10.7248
-10.7889
-10.7912
-10.7419
-10.8474
-10.767
-10.8125
-10.8359
-10.8077
-10.8292
-10.8457
-10.8574
-10.804
-10.9111
-10.8413
-10.8393
-10.9249
-10.8543
-10.8662
-10.9249
-10.8895
-10.8621
-10.9539
-10.893
-10.8822
-10.9622
-10.9011
-10.9075
-10.9538
-10.9244
-10.9188
-10.9544
-10.9363
-10.9366
-10.951
-10.9496
-10.953
-10.9413
-10.9809
-10.938
-10.9657
-10.9836
-10.9414
-10.9813
-10.9818
-10.962
-10.9746
-11.0017
-10.9678
-10.982
-11.0109
-10.9865
-10.9837
-11.0201
-11.0142
-10.9862
-11.03
-11.0322
-11.0167
-11.031
-11.0451
-11.0566
-11.0421
-11.064
-11.0825
-11.0702
-11.0886
-11.1127
-11.1
-11.1125
-11.1508
-11.1414
-11.1462
-11.1735
-11.19
-11.2078
-11.1964
-11.2266
-11.2751
-11.244
-11.2663
-11.3323
-11.3053
-11.315
-11.3883
-11.3791
-11.3697
-11.4364
-11.4611
-11.4453
-11.482
-11.5289
-11.5362
-11.5488
-11.5861
-11.6179
-11.6353
-11.6548
-11.6853
-11.7181
-11.7453
-11.7645
-11.7838
-11.8201
-11.8627
-11.8794
-11.8829
-11.924
-11.9772
-11.9926
-11.9926
-12.0345
-12.0755
-12.099
-12.1126
-12.1501
-12.1649
-12.2057
-12.2199
-12.2585
-12.2657
-12.3251
-12.3047
-12.3438
-12.3721
-12.4593
-12.3959
-12.41
-12.4493
-12.5844
-12.5232
-12.4911
-12.4976
-12.6538
-12.6608
-12.6187
-12.5584
-12.6806
-12.7407
-12.7591
-12.687
-12.7062
-12.7772
-12.8235
-12.839
-12.8117
-12.8116
-12.8505
-12.9054
-12.9311
-12.9162
-12.9049
-12.9442
-12.9828
-13.0041
-13.0067
-13.0105
-13.0259
-13.0544
-13.0765
-13.0926
-13.1028
-13.1161
-13.1289
-13.1472
-13.1678
-13.1912
-13.201
-13.2027
-13.2094
-13.2383
-13.267
-13.285
-13.2724
-13.267
-13.2892
-13.3179
-13.335
-13.3385
-13.3049
-13.2942
-13.3125
-13.3115
-13.3143
-13.2979
-13.2479
-13.2026
-13.1711
-13.1353
-13.1252
-13.0831
-13.0388
-12.981
-12.9244
-12.8759
-12.8587
-12.8355
-12.8333
-12.8222
-12.8064
-12.8079
-12.8099
-12.8441
-12.881
-12.9239
-12.9573
-12.9988
-13.0214
)
;

boundaryField
{
    sides
    {
        type            calculated;
        value           nonuniform List<scalar> 2(-13.0214 -9.70942);
    }
    empty
    {
        type            empty;
    }
}


// ************************************************************************* //
