/*--------------------------------*- C++ -*----------------------------------*\
  =========                 |
  \\      /  F ield         | OpenFOAM: The Open Source CFD Toolbox
   \\    /   O peration     | Website:  https://openfoam.org
    \\  /    A nd           | Version:  9
     \\/     M anipulation  |
\*---------------------------------------------------------------------------*/
FoamFile
{
    format      ascii;
    class       volScalarField;
    location    "0.027";
    object      ddt0(rho,K);
}
// * * * * * * * * * * * * * * * * * * * * * * * * * * * * * * * * * * * * * //

dimensions      [1 -1 -3 0 0 0 0];

internalField   nonuniform List<scalar> 
1000
(
1701.84
1498.23
1365.71
1235.69
1080.23
904.853
720.004
527.928
325.508
110.946
-117.008
-359.307
-614.685
-882.075
-1161.26
-1451.85
-1754.44
-2067.68
-2388.82
-2721.8
-3068.89
-3428.61
-3803.41
-4182.1
-4571.54
-4974.34
-5390.93
-5816.53
-6251.27
-6698.98
-7160.17
-7632.66
-8116.32
-8612.11
-9119.31
-9637.16
-10166.8
-10709
-11262.5
-11826.4
-12401.2
-12987.7
-13586.2
-14196.4
-14818.5
-15452.4
-16097.4
-16753.1
-17419.9
-18098.5
-18788.9
-19490.8
-20203.8
-20927.9
-21663
-22409.4
-23167.4
-23937.6
-24719.9
-25514.1
-26319.7
-27136.7
-27965.3
-28805.6
-29657.4
-30520.5
-31394.7
-32280.1
-33176.7
-34084.5
-35004
-35935.1
-36878.1
-37832.7
-38798.9
-39776.4
-40765.6
-41766.6
-42779.4
-43804
-44840.1
-45887.2
-46945.5
-48015.1
-49096
-50188.2
-51291.5
-52406.1
-53532.8
-54671.5
-55822.3
-56983.2
-58156.4
-59338.2
-60537
-61741.1
-62968.2
-64188.9
-65441.7
-66679.3
-67958.1
-69228.2
-70514.6
-71820.8
-73129.9
-74448.2
-75777.9
-77130.2
-78475.3
-79862.7
-81208.3
-82643
-84000.6
-85449.8
-86864.4
-88280.7
-89782.3
-91171.2
-92697.4
-94168.6
-95613.3
-97206.6
-98643.5
-100188
-101794
-103233
-104876
-106470
-107942
-109663
-111243
-112761
-114544
-116119
-117684
-119521
-121102
-122707
-124593
-126195
-127835
-129763
-131408
-133063
-135027
-136725
-138392
-140389
-142153
-143823
-145846
-147692
-149360
-151393
-153345
-155012
-157019
-159098
-160796
-162722
-164924
-166728
-168530
-170788
-172799
-174505
-176677
-178940
-180698
-182654
-185059
-187071
-188841
-191147
-193480
-195293
-197336
-199826
-201917
-203762
-206144
-208575
-210460
-212542
-215152
-217383
-219208
-221597
-224278
-226312
-228220
-230858
-233500
-235425
-237502
-240289
-242828
-244735
-247031
-249893
-252284
-254229
-256762
-259681
-261934
-263892
-266630
-269644
-271836
-273776
-276603
-279714
-281966
-283933
-286757
-289895
-292224
-294278
-297157
-300323
-302653
-304699
-307654
-311003
-313425
-315334
-318172
-321709
-324433
-326347
-328952
-332470
-335467
-337526
-340006
-343505
-346732
-348859
-351101
-354564
-358222
-360648
-362562
-365613
-369514
-372537
-374521
-377123
-380911
-384372
-386573
-388830
-392441
-396409
-399086
-400966
-403905
-408052
-411607
-413785
-416082
-419776
-423825
-426614
-428634
-431699
-435992
-439718
-441940
-444087
-447720
-452125
-455441
-457555
-460230
-464336
-468498
-471246
-473313
-476539
-481080
-485128
-487596
-489726
-493243
-497831
-501631
-504008
-506469
-510425
-515100
-518645
-520809
-523336
-527490
-532279
-535869
-538151
-540850
-545076
-549780
-553253
-555526
-558331
-562709
-567572
-571196
-573559
-576339
-580618
-585444
-589156
-591637
-594462
-598779
-603766
-607713
-610282
-612949
-617053
-622061
-626296
-629129
-631776
-635710
-640762
-645342
-648456
-650974
-654528
-659445
-664354
-667937
-670576
-673852
-678553
-683709
-687792
-690615
-693528
-697792
-703015
-707676
-710945
-713711
-717481
-722557
-727720
-731631
-734488
-737713
-742341
-747717
-752314
-755582
-758520
-762535
-767770
-773013
-777059
-780070
-783414
-788125
-793623
-798462
-801978
-804996
-808952
-814169
-819618
-824050
-827313
-830620
-835160
-840707
-846028
-850120
-853317
-857024
-862043
-867768
-872850
-876639
-879935
-884039
-889420
-895187
-900027
-903742
-907215
-911657
-917362
-923122
-927822
-931422
-935383
-939678
-945767
-952071
-955727
-960055
-964179
-967919
-973136
-978407
-983286
-987507
-993693
-999142
-1.00359e+06
-1.00894e+06
-1.01419e+06
-1.01879e+06
-1.02336e+06
-1.02814e+06
-1.03313e+06
-1.03833e+06
-1.04379e+06
-1.04908e+06
-1.05381e+06
-1.05856e+06
-1.0638e+06
-1.06933e+06
-1.07493e+06
-1.08017e+06
-1.08469e+06
-1.08929e+06
-1.09454e+06
-1.10001e+06
-1.10555e+06
-1.11099e+06
-1.1158e+06
-1.12049e+06
-1.12584e+06
-1.13153e+06
-1.13727e+06
-1.14279e+06
-1.14773e+06
-1.1523e+06
-1.15718e+06
-1.16269e+06
-1.16851e+06
-1.17399e+06
-1.17879e+06
-1.18343e+06
-1.1885e+06
-1.19394e+06
-1.19966e+06
-1.20526e+06
-1.21026e+06
-1.21478e+06
-1.21945e+06
-1.22458e+06
-1.23002e+06
-1.23543e+06
-1.24039e+06
-1.24484e+06
-1.2492e+06
-1.25412e+06
-1.25961e+06
-1.26504e+06
-1.26986e+06
-1.27412e+06
-1.27826e+06
-1.28273e+06
-1.28767e+06
-1.29268e+06
-1.2974e+06
-1.30162e+06
-1.30552e+06
-1.30959e+06
-1.31431e+06
-1.31953e+06
-1.32438e+06
-1.32834e+06
-1.33175e+06
-1.33545e+06
-1.33979e+06
-1.34461e+06
-1.34921e+06
-1.35299e+06
-1.35613e+06
-1.3596e+06
-1.36402e+06
-1.36896e+06
-1.37344e+06
-1.37703e+06
-1.38015e+06
-1.38362e+06
-1.3879e+06
-1.39255e+06
-1.39677e+06
-1.40022e+06
-1.40334e+06
-1.40681e+06
-1.41093e+06
-1.41544e+06
-1.41968e+06
-1.42321e+06
-1.42629e+06
-1.42967e+06
-1.43384e+06
-1.43848e+06
-1.44273e+06
-1.44615e+06
-1.44915e+06
-1.45251e+06
-1.45672e+06
-1.4614e+06
-1.46571e+06
-1.46922e+06
-1.47226e+06
-1.47562e+06
-1.47979e+06
-1.4845e+06
-1.48898e+06
-1.49266e+06
-1.49571e+06
-1.49891e+06
-1.50293e+06
-1.50768e+06
-1.51236e+06
-1.51626e+06
-1.51938e+06
-1.52253e+06
-1.52648e+06
-1.53126e+06
-1.53611e+06
-1.54018e+06
-1.54339e+06
-1.54645e+06
-1.55026e+06
-1.55498e+06
-1.55991e+06
-1.56411e+06
-1.56739e+06
-1.57047e+06
-1.57424e+06
-1.57894e+06
-1.58391e+06
-1.58826e+06
-1.59173e+06
-1.59492e+06
-1.59868e+06
-1.60329e+06
-1.60826e+06
-1.61273e+06
-1.61639e+06
-1.61969e+06
-1.62339e+06
-1.62785e+06
-1.63275e+06
-1.63734e+06
-1.64124e+06
-1.64471e+06
-1.6484e+06
-1.65272e+06
-1.65748e+06
-1.66211e+06
-1.66622e+06
-1.6699e+06
-1.67363e+06
-1.6778e+06
-1.68241e+06
-1.6871e+06
-1.69146e+06
-1.6954e+06
-1.69923e+06
-1.70328e+06
-1.70771e+06
-1.71235e+06
-1.71689e+06
-1.72112e+06
-1.72509e+06
-1.72906e+06
-1.73325e+06
-1.73772e+06
-1.74232e+06
-1.74676e+06
-1.75096e+06
-1.755e+06
-1.75907e+06
-1.76336e+06
-1.76789e+06
-1.77249e+06
-1.77695e+06
-1.78123e+06
-1.78538e+06
-1.7896e+06
-1.79398e+06
-1.79848e+06
-1.80304e+06
-1.80752e+06
-1.81188e+06
-1.81618e+06
-1.82048e+06
-1.82485e+06
-1.82932e+06
-1.83384e+06
-1.83832e+06
-1.84275e+06
-1.84711e+06
-1.85147e+06
-1.85586e+06
-1.86031e+06
-1.86476e+06
-1.8692e+06
-1.87365e+06
-1.87806e+06
-1.88251e+06
-1.88699e+06
-1.89147e+06
-1.89593e+06
-1.9004e+06
-1.90486e+06
-1.90934e+06
-1.91383e+06
-1.91833e+06
-1.92285e+06
-1.92737e+06
-1.93188e+06
-1.9364e+06
-1.9409e+06
-1.9454e+06
-1.94993e+06
-1.95445e+06
-1.95898e+06
-1.96351e+06
-1.96804e+06
-1.97255e+06
-1.97706e+06
-1.98157e+06
-1.98607e+06
-1.9906e+06
-1.99513e+06
-1.99968e+06
-2.00421e+06
-2.00873e+06
-2.01326e+06
-2.01778e+06
-2.0223e+06
-2.02682e+06
-2.03138e+06
-2.03593e+06
-2.0405e+06
-2.04505e+06
-2.04962e+06
-2.05418e+06
-2.05871e+06
-2.06323e+06
-2.06774e+06
-2.07227e+06
-2.07678e+06
-2.0813e+06
-2.08579e+06
-2.09029e+06
-2.09479e+06
-2.09927e+06
-2.10374e+06
-2.10818e+06
-2.11263e+06
-2.11705e+06
-2.12145e+06
-2.12583e+06
-2.13021e+06
-2.13455e+06
-2.13888e+06
-2.1432e+06
-2.14749e+06
-2.15174e+06
-2.15595e+06
-2.16017e+06
-2.16432e+06
-2.16844e+06
-2.17253e+06
-2.17655e+06
-2.18051e+06
-2.18442e+06
-2.18827e+06
-2.19205e+06
-2.19574e+06
-2.19935e+06
-2.20287e+06
-2.2063e+06
-2.20961e+06
-2.21283e+06
-2.21589e+06
-2.21882e+06
-2.22161e+06
-2.22419e+06
-2.22662e+06
-2.22883e+06
-2.23082e+06
-2.23259e+06
-2.23409e+06
-2.23531e+06
-2.23621e+06
-2.23674e+06
-2.23692e+06
-2.23668e+06
-2.236e+06
-2.23483e+06
-2.23313e+06
-2.23087e+06
-2.22801e+06
-2.22446e+06
-2.22021e+06
-2.21522e+06
-2.20941e+06
-2.20275e+06
-2.19513e+06
-2.18657e+06
-2.17695e+06
-2.16624e+06
-2.15438e+06
-2.1413e+06
-2.12693e+06
-2.11127e+06
-2.09418e+06
-2.07566e+06
-2.05568e+06
-2.03412e+06
-2.01102e+06
-1.98627e+06
-1.95988e+06
-1.93183e+06
-1.9021e+06
-1.87067e+06
-1.83753e+06
-1.80271e+06
-1.76621e+06
-1.72809e+06
-1.68837e+06
-1.64713e+06
-1.60441e+06
-1.56025e+06
-1.51482e+06
-1.46818e+06
-1.42049e+06
-1.37181e+06
-1.32227e+06
-1.27208e+06
-1.22136e+06
-1.17028e+06
-1.11895e+06
-1.0676e+06
-1.01635e+06
-965431
-914988
-865146
-816096
-767972
-720956
-675145
-630697
-587676
-546215
-506383
-468263
-431885
-397313
-364551
-333592
-304499
-277205
-251718
-227933
-205872
-185456
-166630
-149330
-133468
-119011
-105852
-93894.1
-83093.2
-73319.5
-64544
-56690.5
-49613.9
-43333.5
-37718.8
-32745.5
-28353.6
-24502.6
-21078.7
-18135.7
-15590.3
-13290.9
-11366.4
-9756
-8421.33
-7150.13
-5949.71
-5090.88
-4367.99
-3652.4
-2990.06
-2584.54
-2409.58
-2503.05
-2783.34
-2530.9
-2484.67
-1773.18
-2135.16
-2628.25
-4895.05
-7334.56
-9473.04
-5843.97
10891.9
31367
443.956
-29182.2
-11555
23568.8
40570.5
-27126.7
-42258.2
-11526.9
45436.4
49886.5
-53435.4
-54055.5
-4456.74
76193.4
54634.7
-91177.8
-75458.6
13340.8
114788
10511.3
-122439
-49503
84748.7
147910
-85868.4
-154999
-29232.1
169067
146718
-190910
-166766
-5572.37
231919
214358
-213058
-269651
-86807.5
183601
399131
-45467.1
-400993
-273628
-42704.1
340780
520758
-228359
-455196
-260670
129304
717454
292225
-646723
-600109
-357127
276050
977723
273376
-873320
-628740
-70031.4
859551
594923
-803599
-628479
295577
1.09046e+06
-26655.5
-1.00736e+06
-447958
515236
1.18276e+06
-293427
-1.17203e+06
-358250
983106
1.47711e+06
-687164
-1.426e+06
-804530
865586
2.0219e+06
30752.1
-1.63202e+06
-1.57793e+06
-648810
1.32004e+06
2.11142e+06
-139541
-1.82645e+06
-1.35399e+06
-353040
1.46278e+06
1.45537e+06
-699130
-1.0538e+06
984.711
1.51328e+06
442021
-1.37117e+06
-1.08902e+06
94579.2
1.94518e+06
731794
-1.54018e+06
-988325
918623
1.75492e+06
-409166
-1.5249e+06
-358396
1.70451e+06
1.2745e+06
-1.06739e+06
-1.55105e+06
-909191
866025
1.97273e+06
260628
-1.50062e+06
-1.18093e+06
-61120.1
1.94396e+06
1.36986e+06
-940682
-1.65627e+06
-1.4793e+06
-542065
1.76506e+06
2.16205e+06
264816
-1.76266e+06
-1.69233e+06
-1.35631e+06
423448
2.00581e+06
1.31152e+06
-615375
-1.58503e+06
-1.07691e+06
478798
1.4675e+06
903282
-450842
-983489
-339413
1.01002e+06
967726
-283530
-943932
-311277
1.20589e+06
1.11595e+06
-185976
-1.32815e+06
-1.18843e+06
287923
1.74412e+06
1.06045e+06
-1.22494e+06
-1.86727e+06
-589170
1.20256e+06
1.01059e+06
-229279
-919382
-661595
-108128
331513
239992
-8314.26
-87764.4
95462.7
153324
35436.8
-60900.8
-32011.4
43570
44857.1
-7294.96
-19391.3
35354.9
34190.2
-44068.3
-41016.2
1461.84
34657.3
4030.21
)
;

boundaryField
{
    sides
    {
        type            calculated;
        value           nonuniform List<scalar> 2(4030.21 1701.84);
    }
    empty
    {
        type            empty;
    }
}


// ************************************************************************* //
