/*--------------------------------*- C++ -*----------------------------------*\
  =========                 |
  \\      /  F ield         | OpenFOAM: The Open Source CFD Toolbox
   \\    /   O peration     | Website:  https://openfoam.org
    \\  /    A nd           | Version:  9
     \\/     M anipulation  |
\*---------------------------------------------------------------------------*/
FoamFile
{
    format      ascii;
    class       volScalarField;
    location    "0.027";
    object      rho_0;
}
// * * * * * * * * * * * * * * * * * * * * * * * * * * * * * * * * * * * * * //

dimensions      [1 -3 0 0 0 0 0];

internalField   nonuniform List<scalar> 
1000
(
0.36626
0.366159
0.366014
0.365878
0.365743
0.365606
0.365476
0.365353
0.365231
0.3651
0.36496
0.364814
0.36467
0.364536
0.364417
0.364315
0.364226
0.364147
0.364074
0.364001
0.36393
0.363863
0.363807
0.363757
0.363706
0.363656
0.363605
0.363553
0.363502
0.36345
0.363398
0.363346
0.363294
0.363242
0.36319
0.363138
0.363086
0.363034
0.362982
0.362929
0.362877
0.362825
0.362773
0.36272
0.362668
0.362616
0.362563
0.362511
0.362458
0.362406
0.362353
0.362301
0.362248
0.362196
0.362143
0.36209
0.362038
0.361985
0.361932
0.361879
0.361826
0.361774
0.361721
0.361668
0.361615
0.361562
0.361509
0.361456
0.361403
0.36135
0.361297
0.361244
0.36119
0.361137
0.361084
0.361031
0.360977
0.360924
0.360871
0.360817
0.360764
0.36071
0.360657
0.360603
0.36055
0.360496
0.360443
0.360389
0.360335
0.360282
0.360228
0.360174
0.36012
0.360067
0.360012
0.359959
0.359904
0.359852
0.359795
0.359746
0.359686
0.359639
0.359577
0.35953
0.359469
0.359422
0.359361
0.359314
0.359253
0.359204
0.359146
0.359093
0.35904
0.358981
0.358933
0.358872
0.358821
0.358767
0.358708
0.35866
0.3586
0.358547
0.358496
0.358434
0.358385
0.35833
0.35827
0.358222
0.358164
0.358106
0.358058
0.357998
0.357941
0.357894
0.357832
0.357777
0.357729
0.357666
0.357612
0.357563
0.357501
0.357446
0.357397
0.357335
0.35728
0.357231
0.35717
0.357113
0.357065
0.357005
0.356946
0.356898
0.356839
0.356779
0.35673
0.356674
0.356612
0.356561
0.356508
0.356445
0.356391
0.356342
0.35628
0.356221
0.356173
0.356116
0.356053
0.356002
0.355951
0.355887
0.35583
0.355782
0.355723
0.35566
0.35561
0.355558
0.355494
0.355438
0.355389
0.35533
0.355267
0.355216
0.355164
0.355101
0.355043
0.354994
0.354936
0.354872
0.354819
0.35477
0.354708
0.354645
0.354595
0.354544
0.35448
0.35442
0.35437
0.354316
0.354252
0.354195
0.354145
0.354088
0.354024
0.353969
0.353919
0.353859
0.353795
0.353742
0.353693
0.353632
0.353567
0.353514
0.353465
0.353405
0.353341
0.353287
0.353237
0.353177
0.353113
0.353059
0.353009
0.352948
0.352884
0.35283
0.352781
0.352722
0.352656
0.3526
0.352552
0.352495
0.35243
0.352371
0.352321
0.352267
0.352203
0.352142
0.352092
0.352039
0.351976
0.351912
0.35186
0.351811
0.351752
0.351685
0.351628
0.35158
0.351525
0.35146
0.351399
0.351349
0.351297
0.351234
0.35117
0.351117
0.351069
0.351011
0.350944
0.350885
0.350835
0.350784
0.350721
0.350658
0.350604
0.350555
0.350497
0.350431
0.350372
0.350323
0.350272
0.350211
0.350146
0.35009
0.350041
0.349987
0.349924
0.349862
0.34981
0.349761
0.349702
0.349638
0.349579
0.349529
0.349479
0.34942
0.349356
0.349299
0.349249
0.349197
0.349136
0.349074
0.34902
0.348971
0.348919
0.348857
0.348794
0.34874
0.348692
0.348639
0.348579
0.348518
0.348465
0.348416
0.348363
0.348302
0.348242
0.348189
0.348141
0.348089
0.34803
0.34797
0.347917
0.347869
0.347817
0.347758
0.347699
0.347647
0.347599
0.347549
0.347492
0.347433
0.34738
0.347332
0.347283
0.347228
0.34717
0.347117
0.347069
0.347023
0.34697
0.346913
0.346859
0.346811
0.346765
0.346715
0.34666
0.346606
0.346558
0.346513
0.346466
0.346414
0.346361
0.346311
0.346267
0.346223
0.346174
0.346122
0.346072
0.346028
0.345986
0.345941
0.345892
0.345843
0.345798
0.345758
0.345717
0.345671
0.345624
0.345579
0.345538
0.345501
0.345461
0.345417
0.345372
0.345332
0.345296
0.345261
0.345222
0.34518
0.34514
0.345105
0.345073
0.345039
0.345002
0.344965
0.34493
0.3449
0.344872
0.344842
0.344809
0.344777
0.344748
0.344724
0.344701
0.344675
0.344647
0.344621
0.3446
0.344582
0.344564
0.344544
0.344523
0.344504
0.344491
0.34448
0.34447
0.344457
0.344445
0.344435
0.344431
0.344429
0.344425
0.344423
0.344421
0.34442
0.344422
0.344424
0.344429
0.344437
0.344447
0.344458
0.344473
0.344491
0.344512
0.344534
0.344557
0.344583
0.344611
0.344643
0.344678
0.344716
0.344755
0.344796
0.34484
0.344889
0.344942
0.344997
0.345053
0.345112
0.345176
0.345243
0.345315
0.34539
0.345466
0.345546
0.34563
0.345719
0.345812
0.345909
0.346009
0.346112
0.346218
0.34633
0.346447
0.346567
0.346691
0.346818
0.346949
0.347085
0.347226
0.347371
0.34752
0.347671
0.347827
0.347987
0.348152
0.348322
0.348495
0.34867
0.348849
0.349032
0.34922
0.349413
0.349608
0.349806
0.350006
0.35021
0.350419
0.350631
0.350846
0.351062
0.351281
0.351502
0.351727
0.351956
0.352187
0.352419
0.352652
0.352887
0.353125
0.353366
0.353609
0.353852
0.354095
0.35434
0.354587
0.354838
0.355089
0.35534
0.355591
0.355843
0.356097
0.356352
0.356609
0.356865
0.357121
0.357378
0.357636
0.357895
0.358155
0.358415
0.358674
0.358933
0.359194
0.359456
0.359719
0.359981
0.360242
0.360503
0.360766
0.36103
0.361294
0.361558
0.361821
0.362084
0.362348
0.362613
0.36288
0.363145
0.363409
0.363673
0.363938
0.364205
0.364473
0.36474
0.365006
0.365271
0.365537
0.365805
0.366074
0.366343
0.36661
0.366877
0.367144
0.367413
0.367683
0.367953
0.368222
0.368489
0.368758
0.369028
0.369299
0.36957
0.36984
0.37011
0.370379
0.37065
0.370922
0.371195
0.371466
0.371737
0.372008
0.37228
0.372553
0.372827
0.3731
0.373372
0.373644
0.373917
0.374191
0.374466
0.37474
0.375014
0.375287
0.375561
0.375836
0.376112
0.376387
0.376663
0.376938
0.377213
0.377489
0.377765
0.378042
0.378319
0.378595
0.378872
0.379148
0.379426
0.379704
0.379982
0.38026
0.380538
0.380816
0.381094
0.381373
0.381652
0.381932
0.382211
0.38249
0.38277
0.38305
0.38333
0.383611
0.383891
0.384172
0.384453
0.384734
0.385016
0.385297
0.385579
0.385862
0.386144
0.386426
0.386709
0.386992
0.387275
0.387558
0.387842
0.388125
0.388409
0.388693
0.388977
0.389262
0.389546
0.389831
0.390116
0.390401
0.390686
0.390972
0.391258
0.391544
0.39183
0.392116
0.392402
0.392689
0.392976
0.393263
0.39355
0.393837
0.394125
0.394413
0.394701
0.394989
0.395277
0.395565
0.395854
0.396143
0.396431
0.396721
0.39701
0.397299
0.397589
0.397878
0.398168
0.398458
0.398749
0.399039
0.39933
0.39962
0.399911
0.400202
0.400494
0.400785
0.401076
0.401368
0.40166
0.401952
0.402244
0.402536
0.402828
0.403121
0.403413
0.403706
0.403999
0.404292
0.404585
0.404878
0.405172
0.405465
0.405759
0.406052
0.406346
0.40664
0.406934
0.407228
0.407522
0.407816
0.40811
0.408404
0.408699
0.408993
0.409287
0.409582
0.409876
0.41017
0.410464
0.410758
0.411052
0.411346
0.41164
0.411934
0.412228
0.412521
0.412814
0.413107
0.413399
0.413692
0.413984
0.414275
0.414566
0.414857
0.415146
0.415436
0.415724
0.416012
0.416299
0.416585
0.41687
0.417153
0.417436
0.417717
0.417997
0.418275
0.418551
0.418826
0.419098
0.419368
0.419636
0.419902
0.420165
0.420425
0.420682
0.420936
0.421186
0.421433
0.421676
0.421915
0.422151
0.422381
0.422607
0.422829
0.423045
0.423257
0.423463
0.423663
0.423858
0.424047
0.424231
0.424408
0.424579
0.424744
0.424903
0.425055
0.425201
0.42534
0.425473
0.4256
0.42572
0.425834
0.425942
0.426044
0.426139
0.426229
0.426313
0.426392
0.426465
0.426533
0.426597
0.426655
0.426709
0.426759
0.426804
0.426846
0.426884
0.426919
0.42695
0.426979
0.427004
0.427028
0.427048
0.427067
0.427084
0.427099
0.427112
0.427124
0.427134
0.427143
0.427151
0.427158
0.427165
0.42717
0.427175
0.427179
0.427183
0.427186
0.427188
0.427191
0.427193
0.427195
0.427196
0.427198
0.427199
0.427201
0.427202
0.427203
0.427204
0.427205
0.427206
0.427207
0.427208
0.427209
0.427211
0.427212
0.427214
0.427215
0.427217
0.427219
0.427221
0.427224
0.427228
0.427231
0.427234
0.427233
0.427232
0.42724
0.427247
0.427248
0.427247
0.427251
0.427263
0.427272
0.427275
0.427272
0.427279
0.427298
0.427308
0.42731
0.427305
0.42732
0.427346
0.427362
0.427361
0.427354
0.427387
0.427416
0.427425
0.427412
0.427426
0.427477
0.427504
0.427511
0.4275
0.427528
0.427591
0.427625
0.427631
0.427615
0.427644
0.427725
0.427785
0.427809
0.427785
0.427795
0.427893
0.427977
0.428039
0.428053
0.428019
0.428053
0.428167
0.428284
0.428338
0.428319
0.428282
0.428397
0.428565
0.428689
0.428762
0.42873
0.428663
0.428832
0.429049
0.42915
0.429144
0.429089
0.429234
0.42945
0.429553
0.429502
0.429483
0.42971
0.429947
0.430022
0.42994
0.429982
0.430227
0.430493
0.43054
0.430331
0.430435
0.430842
0.431004
0.431146
0.43099
0.430886
0.431235
0.43158
0.43187
0.431919
0.431651
0.431652
0.432073
0.432325
0.432601
0.432579
0.432401
0.432504
0.432847
0.433002
0.432992
0.432856
0.433107
0.433509
0.433609
0.433496
0.433362
0.433634
0.433947
0.434048
0.4338
0.433825
0.434182
0.434379
0.434305
0.434105
0.43423
0.434601
0.43481
0.434902
0.434691
0.434534
0.434797
0.435096
0.43522
0.435103
0.434877
0.434975
0.435271
0.435551
0.435755
0.435659
0.435339
0.435199
0.435432
0.435799
0.435936
0.4361
0.435918
0.435575
0.435631
0.435942
0.436109
0.436184
0.435974
0.435844
0.43587
0.43601
0.436162
0.436117
0.435874
0.435887
0.436077
0.436178
0.436099
0.435857
0.43584
0.436066
0.436194
0.436316
0.436129
0.43583
0.435916
0.436254
0.436394
0.4363
0.43609
0.436071
0.436215
0.436328
0.436369
0.43633
0.436285
0.436279
0.436302
0.436299
0.436275
0.436264
0.436273
0.436284
0.436281
0.436271
0.436271
0.436277
0.436275
0.436267
0.43627
0.436279
0.436281
0.436277
0.436277
)
;

boundaryField
{
    sides
    {
        type            calculated;
        value           nonuniform List<scalar> 2(0.436277 0.36626);
    }
    empty
    {
        type            empty;
    }
}


// ************************************************************************* //
