/*--------------------------------*- C++ -*----------------------------------*\
  =========                 |
  \\      /  F ield         | OpenFOAM: The Open Source CFD Toolbox
   \\    /   O peration     | Website:  https://openfoam.org
    \\  /    A nd           | Version:  9
     \\/     M anipulation  |
\*---------------------------------------------------------------------------*/
FoamFile
{
    format      ascii;
    class       volVectorField;
    location    "0.027";
    object      U_0;
}
// * * * * * * * * * * * * * * * * * * * * * * * * * * * * * * * * * * * * * //

dimensions      [0 1 -1 0 0 0 0];

internalField   nonuniform List<vector> 
1000
(
(14.1263 0 0)
(14.7075 0 0)
(15.3115 0 0)
(15.8042 0 0)
(16.2622 0 0)
(16.7287 0 0)
(17.2047 0 0)
(17.6824 0 0)
(18.1589 0 0)
(18.6347 0 0)
(19.1106 0 0)
(19.587 0 0)
(20.0636 0 0)
(20.5404 0 0)
(21.0173 0 0)
(21.494 0 0)
(21.9707 0 0)
(22.4473 0 0)
(22.9239 0 0)
(23.4005 0 0)
(23.8773 0 0)
(24.3541 0 0)
(24.831 0 0)
(25.3079 0 0)
(25.7847 0 0)
(26.2616 0 0)
(26.7385 0 0)
(27.2156 0 0)
(27.6926 0 0)
(28.1697 0 0)
(28.6469 0 0)
(29.1241 0 0)
(29.6014 0 0)
(30.0787 0 0)
(30.5561 0 0)
(31.0336 0 0)
(31.5111 0 0)
(31.9886 0 0)
(32.4663 0 0)
(32.9439 0 0)
(33.4217 0 0)
(33.8994 0 0)
(34.3773 0 0)
(34.8551 0 0)
(35.3331 0 0)
(35.8111 0 0)
(36.2891 0 0)
(36.7672 0 0)
(37.2454 0 0)
(37.7236 0 0)
(38.2018 0 0)
(38.6801 0 0)
(39.1585 0 0)
(39.6369 0 0)
(40.1154 0 0)
(40.5939 0 0)
(41.0724 0 0)
(41.551 0 0)
(42.0297 0 0)
(42.5084 0 0)
(42.9872 0 0)
(43.466 0 0)
(43.9449 0 0)
(44.4238 0 0)
(44.9028 0 0)
(45.3818 0 0)
(45.8609 0 0)
(46.34 0 0)
(46.8192 0 0)
(47.2984 0 0)
(47.7777 0 0)
(48.2571 0 0)
(48.7364 0 0)
(49.2159 0 0)
(49.6954 0 0)
(50.1749 0 0)
(50.6545 0 0)
(51.1341 0 0)
(51.6138 0 0)
(52.0935 0 0)
(52.5733 0 0)
(53.0532 0 0)
(53.5331 0 0)
(54.013 0 0)
(54.493 0 0)
(54.9731 0 0)
(55.4531 0 0)
(55.9333 0 0)
(56.4135 0 0)
(56.8937 0 0)
(57.374 0 0)
(57.8543 0 0)
(58.3347 0 0)
(58.8152 0 0)
(59.2957 0 0)
(59.7762 0 0)
(60.2568 0 0)
(60.7374 0 0)
(61.2181 0 0)
(61.6988 0 0)
(62.1796 0 0)
(62.6605 0 0)
(63.1413 0 0)
(63.6222 0 0)
(64.1032 0 0)
(64.5843 0 0)
(65.0653 0 0)
(65.5465 0 0)
(66.0276 0 0)
(66.5089 0 0)
(66.9901 0 0)
(67.4714 0 0)
(67.9528 0 0)
(68.4342 0 0)
(68.9157 0 0)
(69.3972 0 0)
(69.8787 0 0)
(70.3603 0 0)
(70.842 0 0)
(71.3237 0 0)
(71.8054 0 0)
(72.2872 0 0)
(72.769 0 0)
(73.2509 0 0)
(73.7328 0 0)
(74.2148 0 0)
(74.6968 0 0)
(75.1789 0 0)
(75.661 0 0)
(76.1432 0 0)
(76.6254 0 0)
(77.1076 0 0)
(77.5899 0 0)
(78.0723 0 0)
(78.5546 0 0)
(79.0371 0 0)
(79.5196 0 0)
(80.0021 0 0)
(80.4847 0 0)
(80.9673 0 0)
(81.4499 0 0)
(81.9327 0 0)
(82.4154 0 0)
(82.8982 0 0)
(83.381 0 0)
(83.8639 0 0)
(84.3468 0 0)
(84.8298 0 0)
(85.3128 0 0)
(85.7958 0 0)
(86.279 0 0)
(86.7621 0 0)
(87.2453 0 0)
(87.7285 0 0)
(88.2118 0 0)
(88.6951 0 0)
(89.1785 0 0)
(89.6619 0 0)
(90.1453 0 0)
(90.6288 0 0)
(91.1123 0 0)
(91.5959 0 0)
(92.0795 0 0)
(92.5632 0 0)
(93.0468 0 0)
(93.5305 0 0)
(94.0143 0 0)
(94.4982 0 0)
(94.982 0 0)
(95.4659 0 0)
(95.9498 0 0)
(96.4338 0 0)
(96.9178 0 0)
(97.4019 0 0)
(97.886 0 0)
(98.3701 0 0)
(98.8542 0 0)
(99.3385 0 0)
(99.8227 0 0)
(100.307 0 0)
(100.791 0 0)
(101.276 0 0)
(101.76 0 0)
(102.244 0 0)
(102.729 0 0)
(103.214 0 0)
(103.698 0 0)
(104.183 0 0)
(104.667 0 0)
(105.152 0 0)
(105.637 0 0)
(106.121 0 0)
(106.606 0 0)
(107.091 0 0)
(107.576 0 0)
(108.061 0 0)
(108.545 0 0)
(109.03 0 0)
(109.515 0 0)
(110 0 0)
(110.485 0 0)
(110.97 0 0)
(111.456 0 0)
(111.941 0 0)
(112.426 0 0)
(112.911 0 0)
(113.396 0 0)
(113.882 0 0)
(114.367 0 0)
(114.852 0 0)
(115.338 0 0)
(115.823 0 0)
(116.308 0 0)
(116.794 0 0)
(117.279 0 0)
(117.765 0 0)
(118.25 0 0)
(118.736 0 0)
(119.221 0 0)
(119.707 0 0)
(120.193 0 0)
(120.678 0 0)
(121.164 0 0)
(121.65 0 0)
(122.135 0 0)
(122.621 0 0)
(123.107 0 0)
(123.593 0 0)
(124.078 0 0)
(124.564 0 0)
(125.05 0 0)
(125.536 0 0)
(126.022 0 0)
(126.508 0 0)
(126.994 0 0)
(127.48 0 0)
(127.966 0 0)
(128.452 0 0)
(128.938 0 0)
(129.424 0 0)
(129.91 0 0)
(130.396 0 0)
(130.882 0 0)
(131.368 0 0)
(131.854 0 0)
(132.34 0 0)
(132.826 0 0)
(133.313 0 0)
(133.799 0 0)
(134.285 0 0)
(134.771 0 0)
(135.257 0 0)
(135.743 0 0)
(136.23 0 0)
(136.716 0 0)
(137.202 0 0)
(137.688 0 0)
(138.174 0 0)
(138.661 0 0)
(139.147 0 0)
(139.633 0 0)
(140.119 0 0)
(140.605 0 0)
(141.091 0 0)
(141.578 0 0)
(142.064 0 0)
(142.55 0 0)
(143.036 0 0)
(143.522 0 0)
(144.008 0 0)
(144.495 0 0)
(144.981 0 0)
(145.467 0 0)
(145.953 0 0)
(146.439 0 0)
(146.925 0 0)
(147.411 0 0)
(147.897 0 0)
(148.383 0 0)
(148.869 0 0)
(149.355 0 0)
(149.841 0 0)
(150.327 0 0)
(150.813 0 0)
(151.298 0 0)
(151.784 0 0)
(152.27 0 0)
(152.756 0 0)
(153.241 0 0)
(153.727 0 0)
(154.213 0 0)
(154.698 0 0)
(155.184 0 0)
(155.669 0 0)
(156.154 0 0)
(156.64 0 0)
(157.125 0 0)
(157.61 0 0)
(158.095 0 0)
(158.581 0 0)
(159.066 0 0)
(159.551 0 0)
(160.036 0 0)
(160.52 0 0)
(161.005 0 0)
(161.49 0 0)
(161.974 0 0)
(162.459 0 0)
(162.943 0 0)
(163.428 0 0)
(163.912 0 0)
(164.396 0 0)
(164.88 0 0)
(165.364 0 0)
(165.848 0 0)
(166.332 0 0)
(166.816 0 0)
(167.299 0 0)
(167.783 0 0)
(168.266 0 0)
(168.749 0 0)
(169.232 0 0)
(169.715 0 0)
(170.198 0 0)
(170.68 0 0)
(171.163 0 0)
(171.645 0 0)
(172.127 0 0)
(172.609 0 0)
(173.091 0 0)
(173.573 0 0)
(174.054 0 0)
(174.536 0 0)
(175.017 0 0)
(175.498 0 0)
(175.979 0 0)
(176.459 0 0)
(176.939 0 0)
(177.419 0 0)
(177.899 0 0)
(178.379 0 0)
(178.858 0 0)
(179.338 0 0)
(179.816 0 0)
(180.295 0 0)
(180.773 0 0)
(181.252 0 0)
(181.729 0 0)
(182.207 0 0)
(182.684 0 0)
(183.161 0 0)
(183.638 0 0)
(184.114 0 0)
(184.59 0 0)
(185.065 0 0)
(185.54 0 0)
(186.015 0 0)
(186.49 0 0)
(186.964 0 0)
(187.437 0 0)
(187.911 0 0)
(188.383 0 0)
(188.856 0 0)
(189.327 0 0)
(189.799 0 0)
(190.27 0 0)
(190.74 0 0)
(191.21 0 0)
(191.679 0 0)
(192.148 0 0)
(192.616 0 0)
(193.084 0 0)
(193.551 0 0)
(194.017 0 0)
(194.483 0 0)
(194.948 0 0)
(195.413 0 0)
(195.876 0 0)
(196.339 0 0)
(196.802 0 0)
(197.263 0 0)
(197.724 0 0)
(198.184 0 0)
(198.643 0 0)
(199.101 0 0)
(199.558 0 0)
(200.014 0 0)
(200.47 0 0)
(200.924 0 0)
(201.377 0 0)
(201.83 0 0)
(202.281 0 0)
(202.731 0 0)
(203.18 0 0)
(203.627 0 0)
(204.074 0 0)
(204.519 0 0)
(204.962 0 0)
(205.404 0 0)
(205.845 0 0)
(206.285 0 0)
(206.723 0 0)
(207.161 0 0)
(207.598 0 0)
(208.034 0 0)
(208.468 0 0)
(208.901 0 0)
(209.331 0 0)
(209.758 0 0)
(210.184 0 0)
(210.608 0 0)
(211.029 0 0)
(211.449 0 0)
(211.866 0 0)
(212.282 0 0)
(212.695 0 0)
(213.107 0 0)
(213.516 0 0)
(213.922 0 0)
(214.327 0 0)
(214.729 0 0)
(215.129 0 0)
(215.526 0 0)
(215.92 0 0)
(216.312 0 0)
(216.702 0 0)
(217.088 0 0)
(217.472 0 0)
(217.853 0 0)
(218.231 0 0)
(218.606 0 0)
(218.978 0 0)
(219.347 0 0)
(219.713 0 0)
(220.076 0 0)
(220.436 0 0)
(220.792 0 0)
(221.146 0 0)
(221.495 0 0)
(221.842 0 0)
(222.185 0 0)
(222.525 0 0)
(222.861 0 0)
(223.194 0 0)
(223.523 0 0)
(223.849 0 0)
(224.171 0 0)
(224.49 0 0)
(224.805 0 0)
(225.117 0 0)
(225.426 0 0)
(225.731 0 0)
(226.032 0 0)
(226.331 0 0)
(226.626 0 0)
(226.917 0 0)
(227.205 0 0)
(227.49 0 0)
(227.772 0 0)
(228.051 0 0)
(228.327 0 0)
(228.6 0 0)
(228.87 0 0)
(229.137 0 0)
(229.402 0 0)
(229.663 0 0)
(229.923 0 0)
(230.179 0 0)
(230.434 0 0)
(230.686 0 0)
(230.936 0 0)
(231.183 0 0)
(231.429 0 0)
(231.673 0 0)
(231.915 0 0)
(232.156 0 0)
(232.395 0 0)
(232.632 0 0)
(232.868 0 0)
(233.103 0 0)
(233.336 0 0)
(233.568 0 0)
(233.799 0 0)
(234.03 0 0)
(234.259 0 0)
(234.487 0 0)
(234.715 0 0)
(234.942 0 0)
(235.168 0 0)
(235.394 0 0)
(235.62 0 0)
(235.845 0 0)
(236.069 0 0)
(236.293 0 0)
(236.517 0 0)
(236.741 0 0)
(236.964 0 0)
(237.187 0 0)
(237.41 0 0)
(237.633 0 0)
(237.855 0 0)
(238.078 0 0)
(238.3 0 0)
(238.523 0 0)
(238.745 0 0)
(238.967 0 0)
(239.19 0 0)
(239.412 0 0)
(239.634 0 0)
(239.856 0 0)
(240.079 0 0)
(240.301 0 0)
(240.523 0 0)
(240.746 0 0)
(240.968 0 0)
(241.191 0 0)
(241.413 0 0)
(241.636 0 0)
(241.858 0 0)
(242.081 0 0)
(242.304 0 0)
(242.526 0 0)
(242.749 0 0)
(242.972 0 0)
(243.195 0 0)
(243.418 0 0)
(243.641 0 0)
(243.864 0 0)
(244.087 0 0)
(244.31 0 0)
(244.533 0 0)
(244.757 0 0)
(244.98 0 0)
(245.204 0 0)
(245.427 0 0)
(245.651 0 0)
(245.874 0 0)
(246.098 0 0)
(246.322 0 0)
(246.545 0 0)
(246.769 0 0)
(246.993 0 0)
(247.217 0 0)
(247.441 0 0)
(247.665 0 0)
(247.889 0 0)
(248.113 0 0)
(248.338 0 0)
(248.562 0 0)
(248.786 0 0)
(249.011 0 0)
(249.235 0 0)
(249.46 0 0)
(249.684 0 0)
(249.909 0 0)
(250.134 0 0)
(250.358 0 0)
(250.583 0 0)
(250.808 0 0)
(251.033 0 0)
(251.258 0 0)
(251.483 0 0)
(251.708 0 0)
(251.933 0 0)
(252.159 0 0)
(252.384 0 0)
(252.609 0 0)
(252.834 0 0)
(253.06 0 0)
(253.285 0 0)
(253.511 0 0)
(253.736 0 0)
(253.962 0 0)
(254.188 0 0)
(254.413 0 0)
(254.639 0 0)
(254.865 0 0)
(255.091 0 0)
(255.316 0 0)
(255.542 0 0)
(255.768 0 0)
(255.994 0 0)
(256.22 0 0)
(256.446 0 0)
(256.672 0 0)
(256.898 0 0)
(257.125 0 0)
(257.351 0 0)
(257.577 0 0)
(257.803 0 0)
(258.03 0 0)
(258.256 0 0)
(258.482 0 0)
(258.709 0 0)
(258.935 0 0)
(259.162 0 0)
(259.388 0 0)
(259.615 0 0)
(259.841 0 0)
(260.068 0 0)
(260.294 0 0)
(260.521 0 0)
(260.748 0 0)
(260.974 0 0)
(261.201 0 0)
(261.428 0 0)
(261.654 0 0)
(261.881 0 0)
(262.108 0 0)
(262.335 0 0)
(262.562 0 0)
(262.789 0 0)
(263.015 0 0)
(263.242 0 0)
(263.469 0 0)
(263.696 0 0)
(263.923 0 0)
(264.15 0 0)
(264.377 0 0)
(264.604 0 0)
(264.831 0 0)
(265.058 0 0)
(265.285 0 0)
(265.512 0 0)
(265.739 0 0)
(265.966 0 0)
(266.193 0 0)
(266.42 0 0)
(266.648 0 0)
(266.875 0 0)
(267.102 0 0)
(267.329 0 0)
(267.556 0 0)
(267.783 0 0)
(268.01 0 0)
(268.237 0 0)
(268.465 0 0)
(268.692 0 0)
(268.919 0 0)
(269.146 0 0)
(269.373 0 0)
(269.6 0 0)
(269.827 0 0)
(270.054 0 0)
(270.282 0 0)
(270.509 0 0)
(270.736 0 0)
(270.963 0 0)
(271.19 0 0)
(271.417 0 0)
(271.644 0 0)
(271.871 0 0)
(272.098 0 0)
(272.325 0 0)
(272.552 0 0)
(272.779 0 0)
(273.006 0 0)
(273.233 0 0)
(273.46 0 0)
(273.687 0 0)
(273.914 0 0)
(274.141 0 0)
(274.368 0 0)
(274.594 0 0)
(274.821 0 0)
(275.048 0 0)
(275.275 0 0)
(275.501 0 0)
(275.728 0 0)
(275.954 0 0)
(276.181 0 0)
(276.407 0 0)
(276.634 0 0)
(276.86 0 0)
(277.086 0 0)
(277.312 0 0)
(277.538 0 0)
(277.764 0 0)
(277.99 0 0)
(278.216 0 0)
(278.441 0 0)
(278.667 0 0)
(278.892 0 0)
(279.118 0 0)
(279.343 0 0)
(279.568 0 0)
(279.792 0 0)
(280.017 0 0)
(280.241 0 0)
(280.466 0 0)
(280.69 0 0)
(280.913 0 0)
(281.137 0 0)
(281.36 0 0)
(281.583 0 0)
(281.805 0 0)
(282.027 0 0)
(282.249 0 0)
(282.47 0 0)
(282.691 0 0)
(282.911 0 0)
(283.131 0 0)
(283.35 0 0)
(283.568 0 0)
(283.786 0 0)
(284.003 0 0)
(284.219 0 0)
(284.434 0 0)
(284.649 0 0)
(284.862 0 0)
(285.074 0 0)
(285.285 0 0)
(285.494 0 0)
(285.703 0 0)
(285.909 0 0)
(286.114 0 0)
(286.318 0 0)
(286.519 0 0)
(286.719 0 0)
(286.917 0 0)
(287.112 0 0)
(287.305 0 0)
(287.496 0 0)
(287.684 0 0)
(287.869 0 0)
(288.051 0 0)
(288.231 0 0)
(288.407 0 0)
(288.58 0 0)
(288.749 0 0)
(288.915 0 0)
(289.077 0 0)
(289.235 0 0)
(289.389 0 0)
(289.54 0 0)
(289.686 0 0)
(289.827 0 0)
(289.964 0 0)
(290.097 0 0)
(290.225 0 0)
(290.348 0 0)
(290.467 0 0)
(290.581 0 0)
(290.69 0 0)
(290.795 0 0)
(290.894 0 0)
(290.989 0 0)
(291.079 0 0)
(291.165 0 0)
(291.245 0 0)
(291.322 0 0)
(291.393 0 0)
(291.461 0 0)
(291.524 0 0)
(291.583 0 0)
(291.638 0 0)
(291.689 0 0)
(291.737 0 0)
(291.781 0 0)
(291.821 0 0)
(291.859 0 0)
(291.893 0 0)
(291.924 0 0)
(291.953 0 0)
(291.979 0 0)
(292.003 0 0)
(292.024 0 0)
(292.044 0 0)
(292.062 0 0)
(292.077 0 0)
(292.091 0 0)
(292.104 0 0)
(292.115 0 0)
(292.126 0 0)
(292.135 0 0)
(292.142 0 0)
(292.149 0 0)
(292.156 0 0)
(292.161 0 0)
(292.166 0 0)
(292.17 0 0)
(292.173 0 0)
(292.176 0 0)
(292.179 0 0)
(292.181 0 0)
(292.183 0 0)
(292.185 0 0)
(292.186 0 0)
(292.187 0 0)
(292.188 0 0)
(292.188 0 0)
(292.189 0 0)
(292.189 0 0)
(292.189 0 0)
(292.189 0 0)
(292.189 0 0)
(292.189 0 0)
(292.189 0 0)
(292.188 0 0)
(292.188 0 0)
(292.187 0 0)
(292.187 0 0)
(292.186 0 0)
(292.185 0 0)
(292.184 0 0)
(292.183 0 0)
(292.182 0 0)
(292.18 0 0)
(292.179 0 0)
(292.178 0 0)
(292.177 0 0)
(292.175 0 0)
(292.172 0 0)
(292.168 0 0)
(292.166 0 0)
(292.165 0 0)
(292.162 0 0)
(292.157 0 0)
(292.152 0 0)
(292.15 0 0)
(292.148 0 0)
(292.143 0 0)
(292.135 0 0)
(292.129 0 0)
(292.127 0 0)
(292.125 0 0)
(292.117 0 0)
(292.105 0 0)
(292.097 0 0)
(292.095 0 0)
(292.09 0 0)
(292.079 0 0)
(292.064 0 0)
(292.056 0 0)
(292.052 0 0)
(292.043 0 0)
(292.024 0 0)
(292.005 0 0)
(291.998 0 0)
(291.994 0 0)
(291.975 0 0)
(291.947 0 0)
(291.927 0 0)
(291.921 0 0)
(291.912 0 0)
(291.886 0 0)
(291.85 0 0)
(291.823 0 0)
(291.814 0 0)
(291.805 0 0)
(291.779 0 0)
(291.732 0 0)
(291.685 0 0)
(291.666 0 0)
(291.663 0 0)
(291.649 0 0)
(291.61 0 0)
(291.544 0 0)
(291.49 0 0)
(291.47 0 0)
(291.458 0 0)
(291.427 0 0)
(291.361 0 0)
(291.275 0 0)
(291.228 0 0)
(291.226 0 0)
(291.221 0 0)
(291.181 0 0)
(291.089 0 0)
(290.986 0 0)
(290.936 0 0)
(290.935 0 0)
(290.918 0 0)
(290.839 0 0)
(290.717 0 0)
(290.647 0 0)
(290.636 0 0)
(290.595 0 0)
(290.481 0 0)
(290.364 0 0)
(290.314 0 0)
(290.294 0 0)
(290.231 0 0)
(290.1 0 0)
(289.984 0 0)
(289.947 0 0)
(289.923 0 0)
(289.84 0 0)
(289.677 0 0)
(289.528 0 0)
(289.514 0 0)
(289.533 0 0)
(289.455 0 0)
(289.27 0 0)
(289.095 0 0)
(289.046 0 0)
(289.076 0 0)
(289.09 0 0)
(289.001 0 0)
(288.796 0 0)
(288.605 0 0)
(288.583 0 0)
(288.631 0 0)
(288.621 0 0)
(288.508 0 0)
(288.315 0 0)
(288.181 0 0)
(288.148 0 0)
(288.114 0 0)
(287.982 0 0)
(287.821 0 0)
(287.742 0 0)
(287.754 0 0)
(287.74 0 0)
(287.603 0 0)
(287.414 0 0)
(287.342 0 0)
(287.362 0 0)
(287.312 0 0)
(287.152 0 0)
(287.01 0 0)
(287.007 0 0)
(287.023 0 0)
(286.918 0 0)
(286.747 0 0)
(286.652 0 0)
(286.678 0 0)
(286.728 0 0)
(286.685 0 0)
(286.539 0 0)
(286.393 0 0)
(286.358 0 0)
(286.406 0 0)
(286.415 0 0)
(286.305 0 0)
(286.132 0 0)
(286.048 0 0)
(286.093 0 0)
(286.178 0 0)
(286.232 0 0)
(286.175 0 0)
(286.009 0 0)
(285.876 0 0)
(285.87 0 0)
(285.979 0 0)
(286.091 0 0)
(286.103 0 0)
(286.007 0 0)
(285.865 0 0)
(285.781 0 0)
(285.829 0 0)
(285.924 0 0)
(285.94 0 0)
(285.853 0 0)
(285.731 0 0)
(285.685 0 0)
(285.719 0 0)
(285.753 0 0)
(285.728 0 0)
(285.652 0 0)
(285.6 0 0)
(285.624 0 0)
(285.663 0 0)
(285.632 0 0)
(285.541 0 0)
(285.475 0 0)
(285.519 0 0)
(285.621 0 0)
(285.658 0 0)
(285.599 0 0)
(285.493 0 0)
(285.465 0 0)
(285.57 0 0)
(285.676 0 0)
(285.663 0 0)
(285.575 0 0)
(285.531 0 0)
(285.568 0 0)
(285.63 0 0)
(285.662 0 0)
(285.653 0 0)
(285.626 0 0)
(285.613 0 0)
(285.614 0 0)
(285.614 0 0)
(285.603 0 0)
(285.594 0 0)
(285.593 0 0)
(285.596 0 0)
(285.595 0 0)
(285.591 0 0)
(285.589 0 0)
(285.589 0 0)
(285.588 0 0)
(285.585 0 0)
(285.584 0 0)
(285.587 0 0)
(285.587 0 0)
(285.585 0 0)
(285.582 0 0)
)
;

boundaryField
{
    sides
    {
        type            zeroGradient;
    }
    empty
    {
        type            empty;
    }
}


// ************************************************************************* //
