/*--------------------------------*- C++ -*----------------------------------*\
  =========                 |
  \\      /  F ield         | OpenFOAM: The Open Source CFD Toolbox
   \\    /   O peration     | Website:  https://openfoam.org
    \\  /    A nd           | Version:  9
     \\/     M anipulation  |
\*---------------------------------------------------------------------------*/
FoamFile
{
    format      ascii;
    class       volScalarField;
    location    "0.018";
    object      p;
}
// * * * * * * * * * * * * * * * * * * * * * * * * * * * * * * * * * * * * * //

dimensions      [1 -1 -2 0 0 0 0];

internalField   nonuniform List<scalar> 
1000
(
73706.9
73497.1
73370.4
73233.3
73099.2
72964.7
72830.5
72696.5
72562.8
72429.2
72295.9
72162.8
72029.9
71897.3
71764.8
71632.6
71500.6
71368.8
71237.2
71105.8
70974.7
70843.7
70713
70582.5
70452.2
70322.1
70192.2
70062.6
69933.1
69803.9
69674.9
69546.1
69417.5
69289.1
69160.9
69033
68905.2
68777.6
68650.3
68523.1
68396.3
68269.6
68143.3
68017.2
67891.3
67765.7
67640.4
67515.3
67390.5
67265.7
67141.1
67016.7
66892.5
66768.6
66644.8
66521.3
66398
66274.9
66151.9
66029.2
65906.7
65784.4
65662.3
65540.4
65418.6
65297.1
65175.8
65054.7
64933.8
64813.1
64692.6
64572.3
64452.2
64332.3
64212.5
64093
63973.8
63854.7
63735.8
63617.1
63498.5
63380.1
63261.9
63143.9
63026.1
62908.7
62791.4
62674.4
62557.5
62440.7
62324
62207.5
62091.2
61975.3
61859.6
61744.2
61628.9
61513.7
61398.6
61283.6
61168.9
61054.5
60940.3
60826.3
60712.5
60598.8
60485.3
60372
60258.9
60145.9
60033.2
59920.6
59808.3
59696.1
59584.1
59472.3
59360.7
59249.2
59137.8
59026.7
58915.7
58805.1
58694.6
58584.4
58474.4
58364.5
58254.8
58145.3
58036
57927
57818.3
57709.9
57601.7
57493.6
57385.2
57276.6
57167.9
57059.4
56951.5
56844.4
56737.9
56631.8
56525.6
56419.2
56312.6
56206
56099.8
55994.1
55888.9
55784
55679.4
55575.1
55471.1
55366.8
55261.8
55155.4
55048.2
54941.4
54837.2
54737.8
54643.3
54548.7
54447
54337.1
54222.3
54106.1
53991.5
53882.3
53786.3
53716.5
53659.5
53566.1
53445.3
53318.7
53192.4
53069.3
52958.5
52909.8
52900.5
52788.5
52645.1
52490.5
52349.9
52228.8
52154.8
52209.4
52173
52040.5
51869.9
51671.6
51521.9
51390.3
51271.9
51194.6
51263.3
51320.6
51219.8
51070.4
50857.5
50662.3
50525
50405.2
50303.7
50318.1
50394.6
50315.3
50179.1
49998
49819.8
49687.5
49573.7
49493.4
49538.3
49519.9
49401.6
49254.7
49098.5
48969.5
48855.7
48765.2
48779.8
48734.4
48614.7
48481.7
48358.5
48242.3
48138.9
48080.8
48041.6
47950.1
47841.7
47733.8
47630.5
47535.9
47452.9
47375
47289.6
47196.4
47100.9
47006.7
46915.4
46826.9
46739.4
46650.9
46561.1
46470.8
46380.7
46291.3
46202.5
46114
46025.5
45936.9
45848.3
45759.9
45671.7
45583.7
45495.9
45408.3
45320.7
45233.2
45145.9
45058.8
44971.8
44885
44798.3
44711.7
44625.3
44539
44452.9
44366.9
44281
44195.3
44109.8
44024.3
43939.1
43853.9
43768.9
43684.1
43599.3
43514.8
43430.3
43346
43261.9
43177.8
43094
43010.2
42926.6
42843.2
42759.8
42676.7
42593.6
42510.7
42427.9
42345.3
42262.8
42180.5
42098.2
42016.2
41934.2
41852.4
41770.7
41689.2
41607.8
41526.5
41445.4
41364.4
41283.6
41202.8
41122.2
41041.8
40961.5
40881.3
40801.3
40721.3
40641.6
40561.9
40482.4
40403
40323.8
40244.7
40165.7
40086.8
40008.1
39929.6
39851.1
39772.8
39694.6
39616.6
39538.6
39460.8
39383.2
39305.7
39228.3
39151
39073.9
38996.9
38920
38843.2
38766.6
38690.1
38613.8
38537.6
38461.5
38385.5
38309.7
38234
38158.4
38082.9
38007.6
37932.4
37857.3
37782.4
37707.6
37632.9
37558.3
37483.9
37409.6
37335.4
37261.4
37187.4
37113.6
37040
36966.4
36893
36819.7
36746.5
36673.5
36600.6
36527.8
36455.1
36382.6
36310.1
36237.9
36165.7
36093.6
36021.7
35949.9
35878.2
35806.7
35735.2
35663.9
35592.8
35521.7
35450.8
35379.9
35309.2
35238.7
35168.2
35097.9
35027.7
34957.6
34887.6
34817.8
34748.1
34678.5
34609
34539.6
34470.4
34401.3
34332.3
34263.4
34194.6
34126
34057.5
33989.1
33920.8
33852.6
33784.6
33716.6
33648.8
33581.2
33513.6
33446.2
33378.8
33311.6
33244.5
33177.6
33110.7
33044
32977.4
32910.9
32844.5
32778.2
32712.1
32646.1
32580.2
32514.4
32448.7
32383.2
32317.8
32252.5
32187.3
32122.3
32057.3
31992.5
31927.8
31863.3
31798.9
31734.6
31670.4
31606.4
31542.5
31478.8
31415.3
31351.9
31288.7
31225.8
31163.1
31100.7
31038.8
30977.4
30916.6
30856.7
30797.8
30740.3
30684.6
30631
30579.9
30531.8
30487
30445.9
30408.9
30376.1
30347.9
30324.4
30305.7
30291.5
30281.3
30274.4
30269.9
30267.2
30265.6
30264.7
30264.4
30264.4
30264.7
30266
30268.9
30273.7
30279.1
30283.7
30287.2
30289.7
30291.8
30294.2
30297.2
30301.1
30305.2
30308.6
30311.3
30313.7
30315.9
30318.8
30322.8
30328.2
30333.4
30337.4
30339.9
30341.1
30341.3
30341
30339.3
30334.6
30327.1
30319.1
30312.4
30307.3
30303.8
30301.6
30300.1
30299.2
30298.6
30298.1
30297.8
30297.5
30297.2
30297
30297
30297.6
30299.1
30301.2
30303.2
30304.7
30305.8
30307
30308.7
30311.2
30314.2
30317.3
30320.2
30322.7
30325.3
30327.8
30329.8
30330.9
30331.4
30331.4
30330.4
30327.3
30322.2
30317.5
30314.5
30312.4
30310.6
30308.9
30307.1
30305.3
30303.9
30303.2
30303.1
30303
30303
30303
30302.9
30302.9
30303
30303.3
30304.2
30305.6
30307.7
30309.5
30310.5
30311.3
30312.2
30313.2
30315.1
30317.8
30321.1
30323.8
30325.1
30325.9
30326.4
30326.7
30327
30327.2
30326.3
30323.7
30319
30314
30310.6
30308.5
30307.3
30307.2
30307
30306.3
30305.4
30304.1
30302.9
30302.3
30302.2
30302.4
30303.2
30303.8
30304.1
30304.3
30304.3
30304.7
30305.8
30307.9
30310
30311.5
30312.6
30313.3
30314
30315.1
30317.4
30320.4
30322.8
30324.3
30325
30325.2
30325
30324.3
30322.7
30320.5
30317.9
30315
30312.1
30309.7
30308.2
30307.4
30306.9
30306.7
30306.5
30306
30305.2
30304.4
30304
30304
30304.3
30305
30305.7
30306.1
30306.4
30306.6
30307.1
30308.2
30310.3
30312.3
30313.6
30314.4
30315
30315.7
30316.9
30319.3
30321.8
30323.4
30324.1
30324.3
30324
30322.7
30320.8
30319.3
30317.9
30316.3
30314.2
30311.8
30310
30309.1
30308.7
30308.5
30308.4
30308.2
30307.8
30307.1
30306.3
30306
30306.1
30306.4
30307.4
30308.3
30308.3
30308.2
30308.3
30308.7
30309.6
30311.4
30313.2
30314.4
30314.9
30314.8
30314.9
30315.9
30317.9
30319.8
30320.8
30321.2
30320.9
30319.3
30316.3
30314
30312.6
30311.9
30311.2
30310.5
30309.1
30307.7
30306.7
30306.3
30306.1
30306.3
30306.5
30306.5
30306.3
30305.8
30305.4
30305.4
30306
30307.3
30308.5
30308.9
30309.2
30309.7
30310
30310.6
30312.3
30314
30315.1
30315.6
30316
30316.4
30317.4
30318.9
30320.2
30320.7
30320.7
30319.6
30316.7
30314
30312.6
30311.9
30311.6
30311.4
30311.1
30310
30308.4
30307.6
30307.3
30307.5
30308.3
30308.8
30308.9
30308.4
30307.6
30307.3
30307.3
30308.1
30309.7
30310.7
30311
30311
30310.9
30311.3
30311.9
30313.8
30315.9
30317
30317.3
30317
30316.8
30316.9
30317.3
30317.9
30318.3
30318.2
30316.5
30313.6
30311.6
30310.7
30310.5
30310.5
30310.6
30310.5
30309.6
30308
30307.2
30307.5
30308.3
30309.4
30310.1
30310.1
30309.4
30308.2
30307.4
30307.5
30309
30311
30312.1
30312.4
30312.5
30312.3
30312.1
30312.7
30315
30317.2
30317.8
30317.4
30316.7
30315.6
30315
30315.1
30315.9
30316.5
30316.3
30314.6
30311.8
30310.1
30309.4
30309.1
30310
30310.6
30310.6
30309.5
30307.7
30307.5
30307.8
30308.8
30310.6
30311.4
30311.3
30309.9
30308.2
30307.7
30308.1
30310.2
30312.6
30313.7
30314.2
30313.5
30312.5
30312.3
30313.3
30316.1
30317.7
30317.9
30317.5
30315.4
30313.4
30312.7
30313.6
30314.8
30315.4
30315.2
30313.4
30310.4
30308.4
30307.6
30308.4
30310.4
30311.4
30311.4
30310.3
30308.9
30308
30308
30309.6
30311.9
30312.6
30311.6
30309.9
30308.3
30307.6
30308.3
30311.6
30314.8
30316
30315.8
30314.2
30312.9
30312.4
30313.1
30315.8
30317.5
30317.7
30316.4
30312.9
30311.5
30311.4
30312.2
30314.4
30315.4
30315.2
30312.4
30308.6
30306.7
30306.4
30308.2
30311
30312.6
30313.3
30311.5
30308.8
30307.8
30308.1
30310.8
30312.8
30313.1
30312.6
30309.9
30307.7
30307.8
30310
30314
30316.8
30317.7
30316.7
30314
30311.7
30310.8
30312.4
30315.8
30317.2
30317.3
30315.1
30312
30309.8
30309.7
30312.3
30316.2
30316.9
30313.4
30301.6
30292.7
30293.7
30328
30517.4
30909.8
31168.5
31276.3
31311.6
31325.3
31330.2
31326.2
31321.5
31316.4
31311.9
31313.7
31317.7
31322.2
31325.6
31325.6
31322.5
31318.7
31315.2
31315.3
31317.6
31320.2
31322
31321.1
31318
31314.8
31315.3
31316.5
31320.9
31324.8
31325.4
31322.7
31316.9
31312.3
31310.6
31311.9
31317.2
31320.7
31322.5
31322.3
31316.8
31313.3
31312.6
31315.5
31320.4
31320.3
31318.2
31311.9
31306.1
31304.1
31306.5
31315.3
31320.2
31320.3
31316.1
31310.4
31307.2
31305.2
31305.3
31308.7
31311
31311.6
31311.4
31311.2
31311.1
31306.7
31299
31292.4
31290.2
31317.1
31504.9
31883.2
32078.4
32132.2
32138.1
)
;

boundaryField
{
    sides
    {
        type            zeroGradient;
    }
    empty
    {
        type            empty;
    }
}


// ************************************************************************* //
