/*--------------------------------*- C++ -*----------------------------------*\
  =========                 |
  \\      /  F ield         | OpenFOAM: The Open Source CFD Toolbox
   \\    /   O peration     | Website:  https://openfoam.org
    \\  /    A nd           | Version:  9
     \\/     M anipulation  |
\*---------------------------------------------------------------------------*/
FoamFile
{
    format      ascii;
    class       volVectorField;
    location    "0.018";
    object      U;
}
// * * * * * * * * * * * * * * * * * * * * * * * * * * * * * * * * * * * * * //

dimensions      [0 1 -1 0 0 0 0];

internalField   nonuniform List<vector> 
1000
(
(81.9767 0 0)
(82.6978 0 0)
(83.1202 0 0)
(83.5799 0 0)
(84.0303 0 0)
(84.4829 0 0)
(84.9349 0 0)
(85.3871 0 0)
(85.8393 0 0)
(86.2916 0 0)
(86.7438 0 0)
(87.196 0 0)
(87.6482 0 0)
(88.1005 0 0)
(88.5527 0 0)
(89.005 0 0)
(89.4573 0 0)
(89.9096 0 0)
(90.3619 0 0)
(90.8142 0 0)
(91.2665 0 0)
(91.7189 0 0)
(92.1712 0 0)
(92.6236 0 0)
(93.076 0 0)
(93.5284 0 0)
(93.9808 0 0)
(94.4332 0 0)
(94.8856 0 0)
(95.3381 0 0)
(95.7905 0 0)
(96.243 0 0)
(96.6955 0 0)
(97.148 0 0)
(97.6006 0 0)
(98.0531 0 0)
(98.5056 0 0)
(98.9581 0 0)
(99.4105 0 0)
(99.8631 0 0)
(100.316 0 0)
(100.769 0 0)
(101.222 0 0)
(101.675 0 0)
(102.129 0 0)
(102.582 0 0)
(103.036 0 0)
(103.491 0 0)
(103.945 0 0)
(104.399 0 0)
(104.852 0 0)
(105.306 0 0)
(105.76 0 0)
(106.214 0 0)
(106.667 0 0)
(107.121 0 0)
(107.575 0 0)
(108.029 0 0)
(108.483 0 0)
(108.937 0 0)
(109.391 0 0)
(109.845 0 0)
(110.299 0 0)
(110.753 0 0)
(111.207 0 0)
(111.662 0 0)
(112.116 0 0)
(112.57 0 0)
(113.024 0 0)
(113.478 0 0)
(113.932 0 0)
(114.387 0 0)
(114.841 0 0)
(115.295 0 0)
(115.749 0 0)
(116.204 0 0)
(116.658 0 0)
(117.113 0 0)
(117.567 0 0)
(118.022 0 0)
(118.476 0 0)
(118.93 0 0)
(119.384 0 0)
(119.838 0 0)
(120.293 0 0)
(120.748 0 0)
(121.203 0 0)
(121.658 0 0)
(122.113 0 0)
(122.568 0 0)
(123.022 0 0)
(123.476 0 0)
(123.93 0 0)
(124.385 0 0)
(124.841 0 0)
(125.296 0 0)
(125.752 0 0)
(126.206 0 0)
(126.661 0 0)
(127.116 0 0)
(127.57 0 0)
(128.026 0 0)
(128.481 0 0)
(128.937 0 0)
(129.392 0 0)
(129.847 0 0)
(130.302 0 0)
(130.758 0 0)
(131.213 0 0)
(131.668 0 0)
(132.124 0 0)
(132.58 0 0)
(133.035 0 0)
(133.491 0 0)
(133.947 0 0)
(134.403 0 0)
(134.859 0 0)
(135.314 0 0)
(135.77 0 0)
(136.226 0 0)
(136.682 0 0)
(137.14 0 0)
(137.597 0 0)
(138.054 0 0)
(138.51 0 0)
(138.964 0 0)
(139.418 0 0)
(139.871 0 0)
(140.325 0 0)
(140.78 0 0)
(141.237 0 0)
(141.696 0 0)
(142.155 0 0)
(142.613 0 0)
(143.069 0 0)
(143.525 0 0)
(143.979 0 0)
(144.433 0 0)
(144.889 0 0)
(145.346 0 0)
(145.806 0 0)
(146.267 0 0)
(146.726 0 0)
(147.183 0 0)
(147.637 0 0)
(148.089 0 0)
(148.541 0 0)
(148.995 0 0)
(149.451 0 0)
(149.908 0 0)
(150.367 0 0)
(150.827 0 0)
(151.288 0 0)
(151.747 0 0)
(152.202 0 0)
(152.651 0 0)
(153.095 0 0)
(153.541 0 0)
(153.998 0 0)
(154.475 0 0)
(154.974 0 0)
(155.47 0 0)
(155.935 0 0)
(156.363 0 0)
(156.767 0 0)
(157.163 0 0)
(157.565 0 0)
(157.987 0 0)
(158.47 0 0)
(159.077 0 0)
(159.724 0 0)
(160.231 0 0)
(160.603 0 0)
(160.944 0 0)
(161.28 0 0)
(161.62 0 0)
(161.989 0 0)
(162.7 0 0)
(163.569 0 0)
(164.026 0 0)
(164.28 0 0)
(164.483 0 0)
(164.742 0 0)
(165.028 0 0)
(165.692 0 0)
(166.778 0 0)
(167.601 0 0)
(167.926 0 0)
(168.042 0 0)
(168.04 0 0)
(168.244 0 0)
(168.538 0 0)
(168.828 0 0)
(169.465 0 0)
(170.696 0 0)
(171.836 0 0)
(172.362 0 0)
(172.566 0 0)
(172.482 0 0)
(172.466 0 0)
(172.72 0 0)
(173.007 0 0)
(173.481 0 0)
(174.49 0 0)
(175.702 0 0)
(176.326 0 0)
(176.588 0 0)
(176.638 0 0)
(176.689 0 0)
(176.956 0 0)
(177.252 0 0)
(177.862 0 0)
(178.927 0 0)
(179.807 0 0)
(180.177 0 0)
(180.378 0 0)
(180.532 0 0)
(180.815 0 0)
(181.111 0 0)
(181.641 0 0)
(182.573 0 0)
(183.334 0 0)
(183.673 0 0)
(183.937 0 0)
(184.239 0 0)
(184.568 0 0)
(184.966 0 0)
(185.601 0 0)
(186.322 0 0)
(186.802 0 0)
(187.18 0 0)
(187.557 0 0)
(187.957 0 0)
(188.401 0 0)
(188.904 0 0)
(189.429 0 0)
(189.918 0 0)
(190.367 0 0)
(190.802 0 0)
(191.243 0 0)
(191.698 0 0)
(192.167 0 0)
(192.64 0 0)
(193.107 0 0)
(193.567 0 0)
(194.023 0 0)
(194.48 0 0)
(194.94 0 0)
(195.402 0 0)
(195.864 0 0)
(196.326 0 0)
(196.787 0 0)
(197.247 0 0)
(197.707 0 0)
(198.168 0 0)
(198.629 0 0)
(199.09 0 0)
(199.551 0 0)
(200.012 0 0)
(200.473 0 0)
(200.934 0 0)
(201.394 0 0)
(201.855 0 0)
(202.316 0 0)
(202.777 0 0)
(203.238 0 0)
(203.699 0 0)
(204.16 0 0)
(204.62 0 0)
(205.081 0 0)
(205.542 0 0)
(206.003 0 0)
(206.464 0 0)
(206.925 0 0)
(207.386 0 0)
(207.846 0 0)
(208.307 0 0)
(208.768 0 0)
(209.229 0 0)
(209.69 0 0)
(210.151 0 0)
(210.612 0 0)
(211.073 0 0)
(211.534 0 0)
(211.994 0 0)
(212.455 0 0)
(212.916 0 0)
(213.377 0 0)
(213.838 0 0)
(214.299 0 0)
(214.76 0 0)
(215.221 0 0)
(215.682 0 0)
(216.143 0 0)
(216.604 0 0)
(217.064 0 0)
(217.525 0 0)
(217.986 0 0)
(218.447 0 0)
(218.908 0 0)
(219.369 0 0)
(219.83 0 0)
(220.291 0 0)
(220.752 0 0)
(221.213 0 0)
(221.674 0 0)
(222.135 0 0)
(222.595 0 0)
(223.056 0 0)
(223.517 0 0)
(223.978 0 0)
(224.439 0 0)
(224.9 0 0)
(225.361 0 0)
(225.822 0 0)
(226.283 0 0)
(226.744 0 0)
(227.205 0 0)
(227.666 0 0)
(228.127 0 0)
(228.588 0 0)
(229.049 0 0)
(229.51 0 0)
(229.97 0 0)
(230.431 0 0)
(230.892 0 0)
(231.353 0 0)
(231.814 0 0)
(232.275 0 0)
(232.736 0 0)
(233.197 0 0)
(233.658 0 0)
(234.119 0 0)
(234.58 0 0)
(235.041 0 0)
(235.502 0 0)
(235.963 0 0)
(236.424 0 0)
(236.885 0 0)
(237.346 0 0)
(237.806 0 0)
(238.267 0 0)
(238.728 0 0)
(239.189 0 0)
(239.65 0 0)
(240.111 0 0)
(240.572 0 0)
(241.033 0 0)
(241.494 0 0)
(241.955 0 0)
(242.416 0 0)
(242.877 0 0)
(243.338 0 0)
(243.798 0 0)
(244.259 0 0)
(244.72 0 0)
(245.181 0 0)
(245.642 0 0)
(246.103 0 0)
(246.564 0 0)
(247.025 0 0)
(247.486 0 0)
(247.946 0 0)
(248.407 0 0)
(248.868 0 0)
(249.329 0 0)
(249.79 0 0)
(250.251 0 0)
(250.712 0 0)
(251.173 0 0)
(251.633 0 0)
(252.094 0 0)
(252.555 0 0)
(253.016 0 0)
(253.477 0 0)
(253.938 0 0)
(254.398 0 0)
(254.859 0 0)
(255.32 0 0)
(255.781 0 0)
(256.242 0 0)
(256.702 0 0)
(257.163 0 0)
(257.624 0 0)
(258.085 0 0)
(258.546 0 0)
(259.006 0 0)
(259.467 0 0)
(259.928 0 0)
(260.389 0 0)
(260.849 0 0)
(261.31 0 0)
(261.771 0 0)
(262.231 0 0)
(262.692 0 0)
(263.153 0 0)
(263.614 0 0)
(264.074 0 0)
(264.535 0 0)
(264.996 0 0)
(265.456 0 0)
(265.917 0 0)
(266.378 0 0)
(266.838 0 0)
(267.299 0 0)
(267.759 0 0)
(268.22 0 0)
(268.681 0 0)
(269.141 0 0)
(269.602 0 0)
(270.062 0 0)
(270.523 0 0)
(270.983 0 0)
(271.444 0 0)
(271.904 0 0)
(272.365 0 0)
(272.825 0 0)
(273.285 0 0)
(273.746 0 0)
(274.206 0 0)
(274.666 0 0)
(275.127 0 0)
(275.587 0 0)
(276.047 0 0)
(276.507 0 0)
(276.968 0 0)
(277.428 0 0)
(277.888 0 0)
(278.348 0 0)
(278.808 0 0)
(279.268 0 0)
(279.728 0 0)
(280.187 0 0)
(280.647 0 0)
(281.107 0 0)
(281.566 0 0)
(282.026 0 0)
(282.485 0 0)
(282.944 0 0)
(283.403 0 0)
(283.862 0 0)
(284.32 0 0)
(284.779 0 0)
(285.237 0 0)
(285.694 0 0)
(286.151 0 0)
(286.607 0 0)
(287.061 0 0)
(287.514 0 0)
(287.965 0 0)
(288.413 0 0)
(288.857 0 0)
(289.295 0 0)
(289.727 0 0)
(290.149 0 0)
(290.558 0 0)
(290.953 0 0)
(291.33 0 0)
(291.685 0 0)
(292.016 0 0)
(292.32 0 0)
(292.595 0 0)
(292.838 0 0)
(293.048 0 0)
(293.222 0 0)
(293.361 0 0)
(293.467 0 0)
(293.542 0 0)
(293.593 0 0)
(293.627 0 0)
(293.648 0 0)
(293.66 0 0)
(293.665 0 0)
(293.667 0 0)
(293.668 0 0)
(293.666 0 0)
(293.657 0 0)
(293.635 0 0)
(293.599 0 0)
(293.558 0 0)
(293.524 0 0)
(293.499 0 0)
(293.48 0 0)
(293.464 0 0)
(293.446 0 0)
(293.424 0 0)
(293.396 0 0)
(293.366 0 0)
(293.339 0 0)
(293.318 0 0)
(293.301 0 0)
(293.285 0 0)
(293.265 0 0)
(293.235 0 0)
(293.194 0 0)
(293.153 0 0)
(293.124 0 0)
(293.107 0 0)
(293.099 0 0)
(293.097 0 0)
(293.098 0 0)
(293.11 0 0)
(293.145 0 0)
(293.203 0 0)
(293.263 0 0)
(293.311 0 0)
(293.348 0 0)
(293.374 0 0)
(293.393 0 0)
(293.404 0 0)
(293.41 0 0)
(293.413 0 0)
(293.416 0 0)
(293.42 0 0)
(293.423 0 0)
(293.425 0 0)
(293.425 0 0)
(293.424 0 0)
(293.42 0 0)
(293.409 0 0)
(293.395 0 0)
(293.381 0 0)
(293.37 0 0)
(293.359 0 0)
(293.349 0 0)
(293.336 0 0)
(293.319 0 0)
(293.299 0 0)
(293.277 0 0)
(293.256 0 0)
(293.233 0 0)
(293.212 0 0)
(293.194 0 0)
(293.181 0 0)
(293.174 0 0)
(293.172 0 0)
(293.173 0 0)
(293.178 0 0)
(293.199 0 0)
(293.236 0 0)
(293.27 0 0)
(293.297 0 0)
(293.316 0 0)
(293.329 0 0)
(293.341 0 0)
(293.352 0 0)
(293.363 0 0)
(293.372 0 0)
(293.379 0 0)
(293.385 0 0)
(293.387 0 0)
(293.387 0 0)
(293.386 0 0)
(293.383 0 0)
(293.381 0 0)
(293.38 0 0)
(293.379 0 0)
(293.378 0 0)
(293.369 0 0)
(293.354 0 0)
(293.339 0 0)
(293.326 0 0)
(293.317 0 0)
(293.311 0 0)
(293.305 0 0)
(293.296 0 0)
(293.279 0 0)
(293.256 0 0)
(293.235 0 0)
(293.217 0 0)
(293.206 0 0)
(293.202 0 0)
(293.2 0 0)
(293.202 0 0)
(293.208 0 0)
(293.215 0 0)
(293.234 0 0)
(293.266 0 0)
(293.295 0 0)
(293.316 0 0)
(293.33 0 0)
(293.339 0 0)
(293.349 0 0)
(293.356 0 0)
(293.36 0 0)
(293.366 0 0)
(293.372 0 0)
(293.373 0 0)
(293.376 0 0)
(293.377 0 0)
(293.377 0 0)
(293.378 0 0)
(293.375 0 0)
(293.373 0 0)
(293.371 0 0)
(293.367 0 0)
(293.362 0 0)
(293.352 0 0)
(293.338 0 0)
(293.324 0 0)
(293.316 0 0)
(293.31 0 0)
(293.305 0 0)
(293.298 0 0)
(293.287 0 0)
(293.269 0 0)
(293.247 0 0)
(293.23 0 0)
(293.222 0 0)
(293.218 0 0)
(293.217 0 0)
(293.217 0 0)
(293.221 0 0)
(293.232 0 0)
(293.249 0 0)
(293.268 0 0)
(293.292 0 0)
(293.316 0 0)
(293.333 0 0)
(293.343 0 0)
(293.348 0 0)
(293.351 0 0)
(293.353 0 0)
(293.355 0 0)
(293.359 0 0)
(293.365 0 0)
(293.37 0 0)
(293.373 0 0)
(293.374 0 0)
(293.374 0 0)
(293.369 0 0)
(293.364 0 0)
(293.361 0 0)
(293.358 0 0)
(293.356 0 0)
(293.353 0 0)
(293.346 0 0)
(293.333 0 0)
(293.32 0 0)
(293.31 0 0)
(293.304 0 0)
(293.3 0 0)
(293.295 0 0)
(293.287 0 0)
(293.272 0 0)
(293.255 0 0)
(293.243 0 0)
(293.238 0 0)
(293.237 0 0)
(293.239 0 0)
(293.249 0 0)
(293.266 0 0)
(293.279 0 0)
(293.29 0 0)
(293.301 0 0)
(293.315 0 0)
(293.332 0 0)
(293.345 0 0)
(293.354 0 0)
(293.358 0 0)
(293.36 0 0)
(293.36 0 0)
(293.359 0 0)
(293.359 0 0)
(293.363 0 0)
(293.368 0 0)
(293.371 0 0)
(293.372 0 0)
(293.369 0 0)
(293.362 0 0)
(293.354 0 0)
(293.346 0 0)
(293.341 0 0)
(293.339 0 0)
(293.337 0 0)
(293.331 0 0)
(293.319 0 0)
(293.307 0 0)
(293.298 0 0)
(293.292 0 0)
(293.284 0 0)
(293.276 0 0)
(293.268 0 0)
(293.253 0 0)
(293.241 0 0)
(293.235 0 0)
(293.234 0 0)
(293.236 0 0)
(293.248 0 0)
(293.267 0 0)
(293.279 0 0)
(293.285 0 0)
(293.291 0 0)
(293.296 0 0)
(293.306 0 0)
(293.319 0 0)
(293.331 0 0)
(293.337 0 0)
(293.338 0 0)
(293.338 0 0)
(293.335 0 0)
(293.334 0 0)
(293.335 0 0)
(293.341 0 0)
(293.349 0 0)
(293.351 0 0)
(293.351 0 0)
(293.347 0 0)
(293.335 0 0)
(293.328 0 0)
(293.324 0 0)
(293.324 0 0)
(293.327 0 0)
(293.326 0 0)
(293.322 0 0)
(293.308 0 0)
(293.293 0 0)
(293.285 0 0)
(293.28 0 0)
(293.277 0 0)
(293.275 0 0)
(293.27 0 0)
(293.262 0 0)
(293.255 0 0)
(293.253 0 0)
(293.253 0 0)
(293.262 0 0)
(293.284 0 0)
(293.302 0 0)
(293.311 0 0)
(293.314 0 0)
(293.314 0 0)
(293.315 0 0)
(293.317 0 0)
(293.326 0 0)
(293.337 0 0)
(293.344 0 0)
(293.346 0 0)
(293.346 0 0)
(293.343 0 0)
(293.341 0 0)
(293.34 0 0)
(293.344 0 0)
(293.349 0 0)
(293.352 0 0)
(293.35 0 0)
(293.34 0 0)
(293.326 0 0)
(293.318 0 0)
(293.316 0 0)
(293.317 0 0)
(293.319 0 0)
(293.322 0 0)
(293.319 0 0)
(293.305 0 0)
(293.289 0 0)
(293.28 0 0)
(293.276 0 0)
(293.272 0 0)
(293.272 0 0)
(293.271 0 0)
(293.268 0 0)
(293.265 0 0)
(293.266 0 0)
(293.271 0 0)
(293.286 0 0)
(293.309 0 0)
(293.323 0 0)
(293.327 0 0)
(293.327 0 0)
(293.322 0 0)
(293.317 0 0)
(293.317 0 0)
(293.324 0 0)
(293.336 0 0)
(293.344 0 0)
(293.349 0 0)
(293.348 0 0)
(293.34 0 0)
(293.335 0 0)
(293.334 0 0)
(293.338 0 0)
(293.343 0 0)
(293.342 0 0)
(293.34 0 0)
(293.327 0 0)
(293.312 0 0)
(293.306 0 0)
(293.306 0 0)
(293.312 0 0)
(293.32 0 0)
(293.321 0 0)
(293.316 0 0)
(293.298 0 0)
(293.28 0 0)
(293.27 0 0)
(293.264 0 0)
(293.269 0 0)
(293.277 0 0)
(293.282 0 0)
(293.283 0 0)
(293.285 0 0)
(293.287 0 0)
(293.29 0 0)
(293.303 0 0)
(293.323 0 0)
(293.334 0 0)
(293.336 0 0)
(293.33 0 0)
(293.319 0 0)
(293.313 0 0)
(293.314 0 0)
(293.323 0 0)
(293.339 0 0)
(293.351 0 0)
(293.355 0 0)
(293.348 0 0)
(293.334 0 0)
(293.327 0 0)
(293.325 0 0)
(293.328 0 0)
(293.333 0 0)
(293.335 0 0)
(293.332 0 0)
(293.316 0 0)
(293.302 0 0)
(293.298 0 0)
(293.303 0 0)
(293.313 0 0)
(293.32 0 0)
(293.32 0 0)
(293.312 0 0)
(293.288 0 0)
(293.267 0 0)
(293.258 0 0)
(293.26 0 0)
(293.276 0 0)
(293.293 0 0)
(293.3 0 0)
(293.306 0 0)
(293.304 0 0)
(293.3 0 0)
(293.301 0 0)
(293.314 0 0)
(293.332 0 0)
(293.338 0 0)
(293.336 0 0)
(293.328 0 0)
(293.313 0 0)
(293.306 0 0)
(293.307 0 0)
(293.322 0 0)
(293.347 0 0)
(293.356 0 0)
(293.355 0 0)
(293.343 0 0)
(293.325 0 0)
(293.314 0 0)
(293.308 0 0)
(293.317 0 0)
(293.328 0 0)
(293.331 0 0)
(293.327 0 0)
(293.31 0 0)
(293.298 0 0)
(293.295 0 0)
(293.298 0 0)
(293.31 0 0)
(293.319 0 0)
(293.318 0 0)
(293.303 0 0)
(293.274 0 0)
(293.258 0 0)
(293.255 0 0)
(293.265 0 0)
(293.294 0 0)
(293.319 0 0)
(293.328 0 0)
(293.325 0 0)
(293.311 0 0)
(293.302 0 0)
(293.301 0 0)
(293.312 0 0)
(293.331 0 0)
(293.339 0 0)
(293.339 0 0)
(293.325 0 0)
(293.305 0 0)
(293.301 0 0)
(293.31 0 0)
(293.333 0 0)
(293.353 0 0)
(293.36 0 0)
(293.356 0 0)
(293.331 0 0)
(293.302 0 0)
(293.29 0 0)
(293.293 0 0)
(293.312 0 0)
(293.328 0 0)
(293.336 0 0)
(293.337 0 0)
(293.311 0 0)
(293.292 0 0)
(293.287 0 0)
(293.292 0 0)
(293.308 0 0)
(293.312 0 0)
(293.308 0 0)
(293.291 0 0)
(293.267 0 0)
(293.255 0 0)
(293.258 0 0)
(293.287 0 0)
(293.332 0 0)
(293.348 0 0)
(293.349 0 0)
(293.328 0 0)
(293.297 0 0)
(293.284 0 0)
(293.292 0 0)
(293.374 0 0)
(293.433 0 0)
(293.428 0 0)
(293.176 0 0)
(291.776 0 0)
(288.891 0 0)
(287.037 0 0)
(286.301 0 0)
(286.003 0 0)
(285.895 0 0)
(285.877 0 0)
(285.866 0 0)
(285.889 0 0)
(285.922 0 0)
(285.935 0 0)
(285.947 0 0)
(285.938 0 0)
(285.914 0 0)
(285.907 0 0)
(285.912 0 0)
(285.935 0 0)
(285.965 0 0)
(285.968 0 0)
(285.961 0 0)
(285.931 0 0)
(285.888 0 0)
(285.877 0 0)
(285.886 0 0)
(285.917 0 0)
(285.953 0 0)
(285.979 0 0)
(285.975 0 0)
(285.948 0 0)
(285.923 0 0)
(285.913 0 0)
(285.916 0 0)
(285.941 0 0)
(285.955 0 0)
(285.959 0 0)
(285.944 0 0)
(285.911 0 0)
(285.893 0 0)
(285.902 0 0)
(285.943 0 0)
(285.985 0 0)
(286.008 0 0)
(286.01 0 0)
(285.984 0 0)
(285.937 0 0)
(285.905 0 0)
(285.904 0 0)
(285.943 0 0)
(285.98 0 0)
(285.994 0 0)
(285.989 0 0)
(285.973 0 0)
(285.964 0 0)
(285.966 0 0)
(285.996 0 0)
(286.031 0 0)
(286.049 0 0)
(286.045 0 0)
(286.018 0 0)
(285.972 0 0)
(285.949 0 0)
(285.943 0 0)
(285.943 0 0)
(285.953 0 0)
(285.991 0 0)
(286.061 0 0)
(286.126 0 0)
(286.174 0 0)
(286.172 0 0)
(285.97 0 0)
(284.602 0 0)
(281.907 0 0)
(280.447 0 0)
(280.071 0 0)
(280.022 0 0)
)
;

boundaryField
{
    sides
    {
        type            zeroGradient;
    }
    empty
    {
        type            empty;
    }
}


// ************************************************************************* //
