/*--------------------------------*- C++ -*----------------------------------*\
  =========                 |
  \\      /  F ield         | OpenFOAM: The Open Source CFD Toolbox
   \\    /   O peration     | Website:  https://openfoam.org
    \\  /    A nd           | Version:  9
     \\/     M anipulation  |
\*---------------------------------------------------------------------------*/
FoamFile
{
    format      ascii;
    class       volScalarField;
    location    "0.002";
    object      Ux;
}
// * * * * * * * * * * * * * * * * * * * * * * * * * * * * * * * * * * * * * //

dimensions      [0 1 -1 0 0 0 0];

internalField   nonuniform List<scalar> 
100
(
4.11297e-23
3.72296e-23
2.47097e-23
1.11002e-23
4.67866e-23
1.29853e-22
7.35206e-23
-2.11972e-22
-2.61328e-22
2.96997e-22
6.5434e-22
4.12529e-23
-5.59448e-22
-2.58887e-22
9.57961e-23
2.20686e-22
1.12833e-21
1.10025e-21
-3.29786e-21
-5.43934e-21
4.51307e-21
9.58699e-21
-2.01923e-21
-2.34668e-22
-3.08164e-22
-4.16147e-21
1.19448e-20
-2.27379e-20
3.80168e-20
-5.80533e-20
8.33994e-20
-1.13873e-19
1.49474e-19
-1.89359e-19
2.32975e-19
-2.78934e-19
3.26214e-19
-3.74709e-19
4.24418e-19
-4.60297e-19
4.78902e-19
-5.66451e-19
6.79431e-19
-5.2547e-19
5.05687e-19
-2.96789e-19
-2.43063e-19
1.81539e-19
5.64446e-19
-6.12718e-19
5.61258e-20
2.04701e-19
-2.40304e-19
3.20916e-19
-4.01107e-19
4.42471e-19
-5.22343e-19
6.84631e-19
-5.66345e-19
4.78547e-19
-4.60331e-19
4.24439e-19
-3.74706e-19
3.26213e-19
-2.78934e-19
2.32975e-19
-1.89358e-19
1.49474e-19
-1.13873e-19
8.33991e-20
-5.80529e-20
3.80163e-20
-2.27375e-20
1.19444e-20
-4.16067e-21
-3.0883e-22
-2.35928e-22
-2.01991e-21
9.59358e-21
4.51397e-21
-5.45771e-21
-3.28686e-21
1.19439e-21
1.16838e-21
-2.42064e-23
-1.98772e-22
6.27122e-24
6.47434e-23
4.12834e-23
3.0173e-23
3.17781e-23
3.32703e-23
3.32651e-23
3.31101e-23
3.30919e-23
3.31038e-23
3.31085e-23
3.31102e-23
3.31103e-23
3.31088e-23
)
;

boundaryField
{
    inlet
    {
        type            calculated;
        value           uniform 4.11297e-23;
    }
    outlet
    {
        type            calculated;
        value           uniform 3.31088e-23;
    }
    lowerWall
    {
        type            empty;
    }
    upperWall
    {
        type            empty;
    }
    frontAndBack
    {
        type            empty;
    }
}


// ************************************************************************* //
