/*--------------------------------*- C++ -*----------------------------------*\
  =========                 |
  \\      /  F ield         | OpenFOAM: The Open Source CFD Toolbox
   \\    /   O peration     | Website:  https://openfoam.org
    \\  /    A nd           | Version:  9
     \\/     M anipulation  |
\*---------------------------------------------------------------------------*/
FoamFile
{
    format      ascii;
    class       volScalarField;
    location    "0.022";
    object      ddt0(rho);
}
// * * * * * * * * * * * * * * * * * * * * * * * * * * * * * * * * * * * * * //

dimensions      [1 -3 -1 0 0 0 0];

internalField   nonuniform List<scalar> 
10000
(
-29.893
-29.8914
-29.8898
-29.8901
-29.8886
-29.8843
-29.8805
-29.8804
-29.8832
-29.8851
-29.883
-29.877
-29.8696
-29.864
-29.8625
-29.8656
-29.8721
-29.8807
-29.8896
-29.8977
-29.9043
-29.909
-29.9119
-29.9133
-29.9135
-29.9141
-29.9162
-29.9188
-29.9182
-29.9179
-29.9176
-29.9175
-29.9173
-29.9172
-29.9171
-29.917
-29.9169
-29.9168
-29.9167
-29.9166
-29.9165
-29.9164
-29.9163
-29.9162
-29.9161
-29.916
-29.9159
-29.9158
-29.9157
-29.9156
-29.9154
-29.9153
-29.9152
-29.9151
-29.915
-29.9149
-29.9148
-29.9147
-29.9146
-29.9145
-29.9144
-29.9143
-29.9142
-29.9141
-29.914
-29.9139
-29.9138
-29.9136
-29.9135
-29.9134
-29.9133
-29.9132
-29.9131
-29.913
-29.9129
-29.9128
-29.9126
-29.9125
-29.9124
-29.9123
-29.9122
-29.9121
-29.9119
-29.9118
-29.9117
-29.9116
-29.9115
-29.9114
-29.9112
-29.9111
-29.911
-29.9109
-29.9108
-29.9106
-29.9105
-29.9104
-29.9103
-29.9102
-29.91
-29.9099
-29.9098
-29.9097
-29.9095
-29.9094
-29.9093
-29.9092
-29.909
-29.9089
-29.9088
-29.9087
-29.9085
-29.9084
-29.9083
-29.9081
-29.908
-29.9079
-29.9078
-29.9076
-29.9075
-29.9074
-29.9072
-29.9071
-29.907
-29.9068
-29.9067
-29.9066
-29.9064
-29.9063
-29.9062
-29.906
-29.9059
-29.9058
-29.9056
-29.9055
-29.9053
-29.9052
-29.9051
-29.9049
-29.9048
-29.9047
-29.9045
-29.9044
-29.9042
-29.9041
-29.9039
-29.9038
-29.9037
-29.9035
-29.9034
-29.9032
-29.9031
-29.9029
-29.9028
-29.9027
-29.9025
-29.9024
-29.9022
-29.9021
-29.9019
-29.9018
-29.9016
-29.9015
-29.9013
-29.9012
-29.901
-29.9009
-29.9007
-29.9006
-29.9004
-29.9003
-29.9001
-29.9
-29.8998
-29.8997
-29.8995
-29.8993
-29.8992
-29.899
-29.8989
-29.8987
-29.8986
-29.8984
-29.8982
-29.8981
-29.8979
-29.8978
-29.8976
-29.8975
-29.8973
-29.8971
-29.897
-29.8968
-29.8966
-29.8965
-29.8963
-29.8962
-29.896
-29.8958
-29.8957
-29.8955
-29.8953
-29.8952
-29.895
-29.8948
-29.8947
-29.8945
-29.8943
-29.8942
-29.894
-29.8938
-29.8937
-29.8935
-29.8933
-29.8932
-29.893
-29.8928
-29.8926
-29.8925
-29.8923
-29.8921
-29.8919
-29.8918
-29.8916
-29.8914
-29.8912
-29.8911
-29.8909
-29.8907
-29.8905
-29.8904
-29.8902
-29.89
-29.8898
-29.8896
-29.8895
-29.8893
-29.8891
-29.8889
-29.8887
-29.8886
-29.8884
-29.8882
-29.888
-29.8878
-29.8876
-29.8875
-29.8873
-29.8871
-29.8869
-29.8867
-29.8865
-29.8863
-29.8862
-29.886
-29.8858
-29.8856
-29.8854
-29.8852
-29.885
-29.8848
-29.8846
-29.8845
-29.8843
-29.8841
-29.8839
-29.8837
-29.8835
-29.8833
-29.8831
-29.8829
-29.8827
-29.8825
-29.8823
-29.8821
-29.8819
-29.8817
-29.8815
-29.8813
-29.8811
-29.8809
-29.8807
-29.8805
-29.8803
-29.8801
-29.8799
-29.8797
-29.8795
-29.8793
-29.8791
-29.8789
-29.8787
-29.8785
-29.8783
-29.8781
-29.8779
-29.8777
-29.8775
-29.8773
-29.8771
-29.8769
-29.8767
-29.8765
-29.8763
-29.876
-29.8758
-29.8756
-29.8754
-29.8752
-29.875
-29.8748
-29.8746
-29.8744
-29.8741
-29.8739
-29.8737
-29.8735
-29.8733
-29.8731
-29.8729
-29.8726
-29.8724
-29.8722
-29.872
-29.8718
-29.8716
-29.8713
-29.8711
-29.8709
-29.8707
-29.8705
-29.8702
-29.87
-29.8698
-29.8696
-29.8694
-29.8691
-29.8689
-29.8687
-29.8685
-29.8682
-29.868
-29.8678
-29.8676
-29.8673
-29.8671
-29.8669
-29.8667
-29.8664
-29.8662
-29.866
-29.8657
-29.8655
-29.8653
-29.865
-29.8648
-29.8646
-29.8644
-29.8641
-29.8639
-29.8637
-29.8634
-29.8632
-29.863
-29.8627
-29.8625
-29.8623
-29.862
-29.8618
-29.8615
-29.8613
-29.8611
-29.8608
-29.8606
-29.8604
-29.8601
-29.8599
-29.8596
-29.8594
-29.8592
-29.8589
-29.8587
-29.8584
-29.8582
-29.8579
-29.8577
-29.8575
-29.8572
-29.857
-29.8567
-29.8565
-29.8562
-29.856
-29.8557
-29.8555
-29.8552
-29.855
-29.8547
-29.8545
-29.8542
-29.854
-29.8537
-29.8535
-29.8532
-29.853
-29.8527
-29.8525
-29.8522
-29.852
-29.8517
-29.8515
-29.8512
-29.851
-29.8507
-29.8504
-29.8502
-29.8499
-29.8497
-29.8494
-29.8492
-29.8489
-29.8486
-29.8484
-29.8481
-29.8479
-29.8476
-29.8473
-29.8471
-29.8468
-29.8465
-29.8463
-29.846
-29.8458
-29.8455
-29.8452
-29.845
-29.8447
-29.8444
-29.8442
-29.8439
-29.8436
-29.8434
-29.8431
-29.8428
-29.8426
-29.8423
-29.842
-29.8417
-29.8415
-29.8412
-29.8409
-29.8407
-29.8404
-29.8401
-29.8398
-29.8396
-29.8393
-29.839
-29.8387
-29.8385
-29.8382
-29.8379
-29.8376
-29.8374
-29.8371
-29.8368
-29.8365
-29.8362
-29.836
-29.8357
-29.8354
-29.8351
-29.8348
-29.8346
-29.8343
-29.834
-29.8337
-29.8334
-29.8331
-29.8329
-29.8326
-29.8323
-29.832
-29.8317
-29.8314
-29.8312
-29.8309
-29.8306
-29.8303
-29.83
-29.8297
-29.8294
-29.8291
-29.8288
-29.8285
-29.8283
-29.828
-29.8277
-29.8274
-29.8271
-29.8268
-29.8265
-29.8262
-29.8259
-29.8256
-29.8253
-29.825
-29.8247
-29.8244
-29.8241
-29.8238
-29.8235
-29.8232
-29.8229
-29.8226
-29.8223
-29.822
-29.8217
-29.8214
-29.8211
-29.8208
-29.8205
-29.8202
-29.8199
-29.8196
-29.8193
-29.819
-29.8187
-29.8184
-29.8181
-29.8178
-29.8175
-29.8172
-29.8169
-29.8166
-29.8163
-29.816
-29.8156
-29.8153
-29.815
-29.8147
-29.8144
-29.8141
-29.8138
-29.8135
-29.8132
-29.8128
-29.8125
-29.8122
-29.8119
-29.8116
-29.8113
-29.811
-29.8106
-29.8103
-29.81
-29.8097
-29.8094
-29.809
-29.8087
-29.8084
-29.8081
-29.8078
-29.8074
-29.8071
-29.8068
-29.8065
-29.8062
-29.8058
-29.8055
-29.8052
-29.8049
-29.8045
-29.8042
-29.8039
-29.8036
-29.8032
-29.8029
-29.8026
-29.8023
-29.8019
-29.8016
-29.8013
-29.8009
-29.8006
-29.8003
-29.8
-29.7996
-29.7993
-29.799
-29.7986
-29.7983
-29.798
-29.7976
-29.7973
-29.797
-29.7966
-29.7963
-29.796
-29.7956
-29.7953
-29.7949
-29.7946
-29.7943
-29.7939
-29.7936
-29.7933
-29.7929
-29.7926
-29.7922
-29.7919
-29.7916
-29.7912
-29.7909
-29.7905
-29.7902
-29.7898
-29.7895
-29.7892
-29.7888
-29.7885
-29.7881
-29.7878
-29.7874
-29.7871
-29.7867
-29.7864
-29.786
-29.7857
-29.7853
-29.785
-29.7846
-29.7843
-29.7839
-29.7836
-29.7832
-29.7829
-29.7825
-29.7822
-29.7818
-29.7815
-29.7811
-29.7808
-29.7804
-29.78
-29.7797
-29.7793
-29.779
-29.7786
-29.7783
-29.7779
-29.7775
-29.7772
-29.7768
-29.7765
-29.7761
-29.7757
-29.7754
-29.775
-29.7747
-29.7743
-29.7739
-29.7736
-29.7732
-29.7728
-29.7725
-29.7721
-29.7717
-29.7714
-29.771
-29.7706
-29.7703
-29.7699
-29.7695
-29.7692
-29.7688
-29.7684
-29.7681
-29.7677
-29.7673
-29.767
-29.7666
-29.7662
-29.7658
-29.7655
-29.7651
-29.7647
-29.7643
-29.764
-29.7636
-29.7632
-29.7628
-29.7625
-29.7621
-29.7617
-29.7613
-29.761
-29.7606
-29.7602
-29.7598
-29.7594
-29.7591
-29.7587
-29.7583
-29.7579
-29.7575
-29.7571
-29.7568
-29.7564
-29.756
-29.7556
-29.7552
-29.7548
-29.7545
-29.7541
-29.7537
-29.7533
-29.7529
-29.7525
-29.7521
-29.7517
-29.7514
-29.751
-29.7506
-29.7502
-29.7498
-29.7494
-29.749
-29.7486
-29.7482
-29.7478
-29.7474
-29.747
-29.7467
-29.7463
-29.7459
-29.7455
-29.7451
-29.7447
-29.7443
-29.7439
-29.7435
-29.7431
-29.7427
-29.7423
-29.7419
-29.7415
-29.7411
-29.7407
-29.7403
-29.7399
-29.7395
-29.7391
-29.7387
-29.7383
-29.7379
-29.7375
-29.7371
-29.7367
-29.7362
-29.7358
-29.7354
-29.735
-29.7346
-29.7342
-29.7338
-29.7334
-29.733
-29.7326
-29.7322
-29.7318
-29.7313
-29.7309
-29.7305
-29.7301
-29.7297
-29.7293
-29.7289
-29.7285
-29.728
-29.7276
-29.7272
-29.7268
-29.7264
-29.726
-29.7255
-29.7251
-29.7247
-29.7243
-29.7239
-29.7235
-29.723
-29.7226
-29.7222
-29.7218
-29.7213
-29.7209
-29.7205
-29.7201
-29.7197
-29.7192
-29.7188
-29.7184
-29.718
-29.7175
-29.7171
-29.7167
-29.7163
-29.7158
-29.7154
-29.715
-29.7145
-29.7141
-29.7137
-29.7133
-29.7128
-29.7124
-29.712
-29.7115
-29.7111
-29.7107
-29.7102
-29.7098
-29.7094
-29.7089
-29.7085
-29.7081
-29.7076
-29.7072
-29.7068
-29.7063
-29.7059
-29.7054
-29.705
-29.7046
-29.7041
-29.7037
-29.7032
-29.7028
-29.7024
-29.7019
-29.7015
-29.701
-29.7006
-29.7002
-29.6997
-29.6993
-29.6988
-29.6984
-29.6979
-29.6975
-29.697
-29.6966
-29.6962
-29.6957
-29.6953
-29.6948
-29.6944
-29.6939
-29.6935
-29.693
-29.6926
-29.6921
-29.6917
-29.6912
-29.6908
-29.6903
-29.6898
-29.6894
-29.6889
-29.6885
-29.688
-29.6876
-29.6871
-29.6867
-29.6862
-29.6858
-29.6853
-29.6848
-29.6844
-29.6839
-29.6835
-29.683
-29.6825
-29.6821
-29.6816
-29.6812
-29.6807
-29.6802
-29.6798
-29.6793
-29.6788
-29.6784
-29.6779
-29.6774
-29.677
-29.6765
-29.6761
-29.6756
-29.6751
-29.6746
-29.6742
-29.6737
-29.6732
-29.6728
-29.6723
-29.6718
-29.6714
-29.6709
-29.6704
-29.6699
-29.6695
-29.669
-29.6685
-29.6681
-29.6676
-29.6671
-29.6666
-29.6662
-29.6657
-29.6652
-29.6647
-29.6643
-29.6638
-29.6633
-29.6628
-29.6623
-29.6619
-29.6614
-29.6609
-29.6604
-29.6599
-29.6595
-29.659
-29.6585
-29.658
-29.6575
-29.657
-29.6566
-29.6561
-29.6556
-29.6551
-29.6546
-29.6541
-29.6536
-29.6532
-29.6527
-29.6522
-29.6517
-29.6512
-29.6507
-29.6502
-29.6497
-29.6492
-29.6487
-29.6483
-29.6478
-29.6473
-29.6468
-29.6463
-29.6458
-29.6453
-29.6448
-29.6443
-29.6438
-29.6433
-29.6428
-29.6423
-29.6418
-29.6413
-29.6408
-29.6403
-29.6398
-29.6393
-29.6388
-29.6383
-29.6378
-29.6373
-29.6368
-29.6363
-29.6358
-29.6353
-29.6348
-29.6343
-29.6338
-29.6333
-29.6328
-29.6323
-29.6318
-29.6313
-29.6308
-29.6303
-29.6297
-29.6292
-29.6287
-29.6282
-29.6277
-29.6272
-29.6267
-29.6262
-29.6257
-29.6252
-29.6246
-29.6241
-29.6236
-29.6231
-29.6226
-29.6221
-29.6216
-29.621
-29.6205
-29.62
-29.6195
-29.619
-29.6185
-29.6179
-29.6174
-29.6169
-29.6164
-29.6159
-29.6154
-29.6148
-29.6143
-29.6138
-29.6133
-29.6128
-29.6122
-29.6117
-29.6112
-29.6107
-29.6101
-29.6096
-29.6091
-29.6086
-29.6081
-29.6075
-29.607
-29.6065
-29.606
-29.6054
-29.6049
-29.6044
-29.6039
-29.6033
-29.6028
-29.6023
-29.6017
-29.6012
-29.6007
-29.6001
-29.5996
-29.5991
-29.5985
-29.598
-29.5975
-29.5969
-29.5964
-29.5958
-29.5953
-29.5948
-29.5942
-29.5937
-29.5931
-29.5926
-29.592
-29.5915
-29.5909
-29.5904
-29.5898
-29.5893
-29.5887
-29.5882
-29.5876
-29.5871
-29.5865
-29.586
-29.5854
-29.5849
-29.5843
-29.5837
-29.5832
-29.5826
-29.5821
-29.5815
-29.581
-29.5804
-29.5799
-29.5793
-29.5787
-29.5782
-29.5776
-29.5771
-29.5765
-29.576
-29.5754
-29.5749
-29.5743
-29.5738
-29.5732
-29.5727
-29.5721
-29.5716
-29.571
-29.5705
-29.5699
-29.5694
-29.5688
-29.5683
-29.5677
-29.5672
-29.5666
-29.5661
-29.5655
-29.5649
-29.5644
-29.5638
-29.5633
-29.5627
-29.5622
-29.5616
-29.561
-29.5605
-29.5599
-29.5594
-29.5588
-29.5582
-29.5577
-29.5571
-29.5565
-29.556
-29.5554
-29.5548
-29.5543
-29.5537
-29.5531
-29.5526
-29.552
-29.5514
-29.5508
-29.5503
-29.5497
-29.5491
-29.5485
-29.548
-29.5474
-29.5468
-29.5462
-29.5457
-29.5451
-29.5445
-29.5439
-29.5433
-29.5428
-29.5422
-29.5416
-29.541
-29.5405
-29.5399
-29.5393
-29.5387
-29.5381
-29.5375
-29.537
-29.5364
-29.5358
-29.5352
-29.5346
-29.534
-29.5334
-29.5329
-29.5323
-29.5317
-29.5311
-29.5305
-29.5299
-29.5293
-29.5287
-29.5282
-29.5276
-29.527
-29.5264
-29.5258
-29.5252
-29.5246
-29.524
-29.5234
-29.5228
-29.5222
-29.5216
-29.521
-29.5205
-29.5199
-29.5193
-29.5187
-29.5181
-29.5175
-29.5169
-29.5163
-29.5157
-29.5151
-29.5145
-29.5139
-29.5133
-29.5127
-29.5121
-29.5115
-29.5109
-29.5103
-29.5097
-29.5091
-29.5085
-29.5078
-29.5072
-29.5066
-29.506
-29.5054
-29.5048
-29.5042
-29.5036
-29.503
-29.5024
-29.5018
-29.5012
-29.5006
-29.4999
-29.4993
-29.4987
-29.4981
-29.4975
-29.4969
-29.4963
-29.4957
-29.495
-29.4944
-29.4938
-29.4932
-29.4926
-29.492
-29.4914
-29.4907
-29.4901
-29.4895
-29.4889
-29.4883
-29.4876
-29.487
-29.4864
-29.4858
-29.4852
-29.4845
-29.4839
-29.4833
-29.4827
-29.4821
-29.4814
-29.4808
-29.4802
-29.4796
-29.4789
-29.4783
-29.4777
-29.4771
-29.4764
-29.4758
-29.4752
-29.4745
-29.4739
-29.4733
-29.4727
-29.472
-29.4714
-29.4708
-29.4701
-29.4695
-29.4689
-29.4682
-29.4676
-29.467
-29.4663
-29.4657
-29.4651
-29.4644
-29.4638
-29.4632
-29.4625
-29.4619
-29.4613
-29.4606
-29.46
-29.4593
-29.4587
-29.4581
-29.4574
-29.4568
-29.4561
-29.4555
-29.4549
-29.4542
-29.4536
-29.4529
-29.4523
-29.4516
-29.451
-29.4504
-29.4497
-29.4491
-29.4484
-29.4478
-29.4471
-29.4465
-29.4458
-29.4452
-29.4445
-29.4439
-29.4432
-29.4426
-29.4419
-29.4413
-29.4406
-29.44
-29.4393
-29.4387
-29.438
-29.4374
-29.4367
-29.4361
-29.4354
-29.4347
-29.4341
-29.4334
-29.4328
-29.4321
-29.4315
-29.4308
-29.4301
-29.4295
-29.4288
-29.4282
-29.4275
-29.4268
-29.4262
-29.4255
-29.4249
-29.4242
-29.4235
-29.4229
-29.4222
-29.4215
-29.4209
-29.4202
-29.4195
-29.4189
-29.4182
-29.4175
-29.4169
-29.4162
-29.4155
-29.4149
-29.4142
-29.4135
-29.4129
-29.4122
-29.4115
-29.4109
-29.4102
-29.4095
-29.4088
-29.4082
-29.4075
-29.4068
-29.4061
-29.4055
-29.4048
-29.4041
-29.4034
-29.4028
-29.4021
-29.4014
-29.4007
-29.4
-29.3994
-29.3987
-29.398
-29.3973
-29.3967
-29.396
-29.3953
-29.3946
-29.3939
-29.3932
-29.3926
-29.3919
-29.3912
-29.3905
-29.3898
-29.3891
-29.3884
-29.3878
-29.3871
-29.3864
-29.3857
-29.3851
-29.3842
-29.3837
-29.3828
-29.3824
-29.3813
-29.3812
-29.3798
-29.3799
-29.3782
-29.3788
-29.3765
-29.3778
-29.3748
-29.3768
-29.3729
-29.376
-29.371
-29.3751
-29.3691
-29.374
-29.3675
-29.3726
-29.3665
-29.3704
-29.3662
-29.3673
-29.3667
-29.3652
-29.3647
-29.3644
-29.3633
-29.3625
-29.3622
-29.3615
-29.3607
-29.3598
-29.3593
-29.3585
-29.3578
-29.357
-29.3564
-29.3557
-29.3551
-29.3542
-29.354
-29.3518
-29.3541
-29.3483
-29.3552
-29.3441
-29.3564
-29.3404
-29.3567
-29.3384
-29.3546
-29.339
-29.3496
-29.3428
-29.3417
-29.3477
-29.335
-29.3509
-29.3298
-29.3515
-29.3285
-29.3476
-29.3318
-29.3391
-29.3389
-29.3293
-29.3445
-29.3226
-29.346
-29.3207
-29.3424
-29.3246
-29.3328
-29.3326
-29.3223
-29.3385
-29.3157
-29.3398
-29.314
-29.3357
-29.3186
-29.3257
-29.327
-29.3141
-29.3343
-29.3067
-29.3349
-29.3076
-29.3266
-29.3169
-29.3124
-29.3278
-29.3012
-29.3317
-29.3001
-29.3238
-29.3099
-29.3079
-29.3229
-29.2952
-29.3276
-29.294
-29.3189
-29.3057
-29.301
-29.32
-29.288
-29.3231
-29.2903
-29.3101
-29.3051
-29.2917
-29.3176
-29.282
-29.3163
-29.2885
-29.3008
-29.3042
-29.2827
-29.3144
-29.2775
-29.3077
-29.289
-29.2884
-29.3057
-29.2731
-29.31
-29.2757
-29.2951
-29.2937
-29.2731
-29.3078
-29.2659
-29.2996
-29.282
-29.2749
-29.3022
-29.26
-29.3011
-29.2716
-29.2768
-29.2952
-29.2564
-29.3002
-29.2625
-29.2792
-29.2862
-29.2552
-29.2972
-29.2549
-29.2811
-29.2769
-29.2545
-29.2935
-29.2483
-29.2817
-29.2685
-29.2542
-29.2886
-29.2428
-29.2815
-29.2607
-29.253
-29.2844
-29.2372
-29.2803
-29.2548
-29.2499
-29.2811
-29.2324
-29.2773
-29.2507
-29.2457
-29.2778
-29.2283
-29.2731
-29.2477
-29.2408
-29.2744
-29.2249
-29.2677
-29.2456
-29.2359
-29.2705
-29.222
-29.2625
-29.2433
-29.2304
-29.2679
-29.2176
-29.2573
-29.2427
-29.2221
-29.2674
-29.2139
-29.2489
-29.246
-29.2122
-29.2648
-29.2147
-29.2366
-29.2498
-29.2054
-29.2573
-29.2185
-29.2249
-29.25
-29.2022
-29.2491
-29.2207
-29.2147
-29.2506
-29.1976
-29.2403
-29.2262
-29.2009
-29.2514
-29.1974
-29.225
-29.2355
-29.1889
-29.2455
-29.2049
-29.206
-29.2421
-29.1848
-29.2313
-29.2159
-29.1903
-29.2407
-29.1881
-29.214
-29.2245
-29.1802
-29.2336
-29.1949
-29.1962
-29.2313
-29.1741
-29.2207
-29.2076
-29.1761
-29.233
-29.1794
-29.1968
-29.2226
-29.1657
-29.2186
-29.1962
-29.1741
-29.2244
-29.1711
-29.1961
-29.2095
-29.1624
-29.2149
-29.1831
-29.1731
-29.2174
-29.1608
-29.194
-29.2014
-29.1545
-29.2105
-29.1761
-29.1655
-29.2117
-29.1553
-29.1852
-29.1966
-29.1485
-29.2011
-29.173
-29.1574
-29.2036
-29.1524
-29.1752
-29.1913
-29.1435
-29.1914
-29.1697
-29.1485
-29.1974
-29.1486
-29.163
-29.1902
-29.1361
-29.1788
-29.1729
-29.1358
-29.1878
-29.1528
-29.146
-29.1856
-29.1371
-29.1609
-29.1731
-29.1306
-29.1736
-29.1548
-29.1338
-29.1789
-29.1369
-29.1437
-29.1749
-29.1248
-29.1553
-29.1628
-29.1214
-29.1637
-29.1466
-29.126
-29.1657
-29.1311
-29.1358
-29.1604
-29.12
-29.1467
-29.1496
-29.1153
-29.1547
-29.1358
-29.1169
-29.1574
-29.1229
-29.123
-29.1536
-29.1135
-29.1308
-29.1443
-29.109
-29.1381
-29.1313
-29.1092
-29.1428
-29.1177
-29.1127
-29.1434
-29.1062
-29.1177
-29.1395
-29.099
-29.1225
-29.1313
-29.0964
-29.1264
-29.1203
-29.0976
-29.1283
-29.1085
-29.1013
-29.1276
-29.0978
-29.1059
-29.1245
-29.0898
-29.1098
-29.1189
-29.0855
-29.1124
-29.111
-29.0846
-29.1135
-29.1017
-29.0863
-29.1131
-29.0922
-29.0892
-29.1113
-29.0837
-29.092
-29.1081
-29.0773
-29.0941
-29.103
-29.0736
-29.0955
-29.0962
-29.0721
-29.0964
-29.0884
-29.0717
-29.0965
-29.0807
-29.0719
-29.0956
-29.0738
-29.0724
-29.0933
-29.0681
-29.0732
-29.0894
-29.0637
-29.0741
-29.0843
-29.0601
-29.0753
-29.0786
-29.0569
-29.0761
-29.0729
-29.0544
-29.0761
-29.0675
-29.0524
-29.075
-29.0626
-29.0512
-29.0729
-29.0576
-29.0509
-29.0702
-29.0525
-29.0508
-29.0672
-29.0478
-29.0507
-29.064
-29.0433
-29.0504
-29.0608
-29.039
-29.0494
-29.0577
-29.0359
-29.0477
-29.0538
-29.0338
-29.0462
-29.049
-29.0318
-29.0455
-29.044
-29.029
-29.0449
-29.0399
-29.0256
-29.0434
-29.0372
-29.0227
-29.0403
-29.0343
-29.0214
-29.0369
-29.0299
-29.0209
-29.0348
-29.0248
-29.0188
-29.0339
-29.0211
-29.0151
-29.0319
-29.0191
-29.0121
-29.028
-29.0169
-29.011
-29.0238
-29.0131
-29.0101
-29.0215
-29.0085
-29.0077
-29.0203
-29.0054
-29.0038
-29.0177
-29.0041
-29.0008
-29.0132
-29.0021
-28.9996
-29.0096
-28.9979
-28.998
-29.0078
-28.9942
-28.9944
-29.006
-28.9926
-28.9903
-29.0024
-28.9913
-28.9882
-28.9981
-28.988
-28.987
-28.9957
-28.9842
-28.9835
-28.9942
-28.9823
-28.9791
-28.9908
-28.9811
-28.9768
-28.9865
-28.9783
-28.9749
-28.9839
-28.9751
-28.9714
-28.9819
-28.9731
-28.9677
-28.9783
-28.9715
-28.9652
-28.9746
-28.969
-28.9624
-28.9719
-28.9666
-28.9592
-28.9686
-28.9647
-28.9566
-28.9648
-28.9623
-28.9539
-28.9619
-28.96
-28.9505
-28.9585
-28.9583
-28.9481
-28.9541
-28.9559
-28.9464
-28.9508
-28.9528
-28.9433
-28.948
-28.9508
-28.9405
-28.9435
-28.9488
-28.939
-28.9394
-28.9454
-28.9373
-28.9366
-28.942
-28.9345
-28.9335
-28.9399
-28.9323
-28.9288
-28.937
-28.9315
-28.9256
-28.9322
-28.9294
-28.9239
-28.9291
-28.9263
-28.92
-28.9266
-28.9252
-28.9165
-28.9216
-28.9237
-28.9154
-28.9172
-28.92
-28.9131
-28.9148
-28.9175
-28.9097
-28.9105
-28.9158
-28.9086
-28.9058
-28.9119
-28.9073
-28.9033
-28.9081
-28.9046
-28.9003
-28.9051
-28.9026
-28.8965
-28.9016
-28.9013
-28.8937
-28.8968
-28.899
-28.8924
-28.893
-28.8956
-28.8896
-28.8899
-28.8934
-28.8871
-28.8854
-28.8905
-28.8862
-28.8816
-28.8863
-28.8843
-28.8793
-28.8826
-28.8816
-28.8763
-28.8793
-28.8798
-28.8731
-28.8748
-28.8779
-28.8717
-28.8704
-28.8739
-28.87
-28.8677
-28.8709
-28.867
-28.8638
-28.8681
-28.866
-28.8602
-28.8631
-28.8641
-28.8586
-28.8594
-28.8606
-28.8558
-28.8561
-28.8586
-28.8534
-28.8513
-28.8554
-28.8524
-28.8483
-28.851
-28.8498
-28.8456
-28.8478
-28.8477
-28.8423
-28.8435
-28.8454
-28.8406
-28.8394
-28.842
-28.8385
-28.836
-28.8389
-28.8364
-28.8326
-28.8349
-28.8345
-28.8299
-28.831
-28.8319
-28.8272
-28.8271
-28.8293
-28.8254
-28.823
-28.8255
-28.8234
-28.8202
-28.8221
-28.8208
-28.8168
-28.8183
-28.8192
-28.8144
-28.8136
-28.8157
-28.8127
-28.8107
-28.8122
-28.8099
-28.807
-28.8093
-28.8083
-28.8036
-28.8044
-28.8059
-28.8023
-28.8008
-28.802
-28.7991
-28.7978
-28.7997
-28.7972
-28.7932
-28.795
-28.7958
-28.7918
-28.791
-28.7915
-28.7888
-28.7882
-28.7896
-28.7863
-28.7832
-28.7854
-28.7853
-28.7815
-28.7809
-28.7813
-28.7786
-28.7784
-28.7792
-28.7757
-28.7734
-28.7755
-28.7748
-28.771
-28.7709
-28.771
-28.7685
-28.7683
-28.7687
-28.7652
-28.7634
-28.7655
-28.7642
-28.7607
-28.7607
-28.7608
-28.7582
-28.7579
-28.7582
-28.7549
-28.7535
-28.7551
-28.7537
-28.7503
-28.7505
-28.7504
-28.748
-28.7476
-28.7477
-28.7447
-28.743
-28.7447
-28.7433
-28.7403
-28.7401
-28.7399
-28.7374
-28.7371
-28.7375
-28.7347
-28.7327
-28.7337
-28.7327
-28.73
-28.73
-28.7297
-28.7269
-28.7261
-28.7268
-28.7248
-28.7226
-28.7231
-28.722
-28.7194
-28.7194
-28.7196
-28.7169
-28.7152
-28.7158
-28.7143
-28.7125
-28.7127
-28.7116
-28.7086
-28.7083
-28.7091
-28.7071
-28.705
-28.7048
-28.7036
-28.7017
-28.7022
-28.7017
-28.6986
-28.6972
-28.6979
-28.6968
-28.6948
-28.6944
-28.6931
-28.6909
-28.6909
-28.6913
-28.6888
-28.6865
-28.6866
-28.6859
-28.6844
-28.684
-28.683
-28.6802
-28.6794
-28.6803
-28.679
-28.6765
-28.6757
-28.6749
-28.6732
-28.6731
-28.6729
-28.6705
-28.6682
-28.6685
-28.6681
-28.6663
-28.6654
-28.6645
-28.6624
-28.6613
-28.6619
-28.6607
-28.6582
-28.6573
-28.6569
-28.6553
-28.6544
-28.6543
-28.6524
-28.6502
-28.6501
-28.6499
-28.648
-28.6468
-28.6463
-28.6445
-28.6429
-28.643
-28.6424
-28.6401
-28.639
-28.6386
-28.637
-28.6355
-28.6355
-28.6345
-28.6324
-28.6315
-28.6311
-28.6294
-28.6279
-28.6279
-28.6268
-28.6248
-28.6239
-28.6234
-28.6218
-28.6204
-28.6203
-28.619
-28.617
-28.6161
-28.6158
-28.6143
-28.613
-28.6125
-28.6111
-28.6092
-28.6085
-28.6083
-28.6067
-28.6052
-28.6046
-28.6033
-28.6016
-28.6011
-28.6007
-28.5988
-28.5973
-28.5967
-28.5958
-28.5941
-28.5935
-28.5928
-28.591
-28.5895
-28.5891
-28.5882
-28.5865
-28.5856
-28.5848
-28.5832
-28.5818
-28.5815
-28.5805
-28.5786
-28.5776
-28.577
-28.5756
-28.5742
-28.5737
-28.5725
-28.5707
-28.5697
-28.5693
-28.568
-28.5665
-28.5657
-28.5645
-28.5629
-28.5619
-28.5616
-28.5603
-28.5586
-28.5576
-28.5567
-28.5551
-28.5542
-28.5538
-28.5524
-28.5507
-28.5496
-28.5488
-28.5474
-28.5463
-28.5458
-28.5446
-28.5427
-28.5417
-28.5411
-28.5397
-28.5385
-28.5377
-28.5366
-28.5348
-28.5338
-28.5332
-28.5319
-28.5305
-28.5297
-28.5286
-28.5269
-28.5259
-28.5253
-28.5241
-28.5225
-28.5216
-28.5206
-28.519
-28.5178
-28.5172
-28.5162
-28.5146
-28.5136
-28.5127
-28.5113
-28.5099
-28.5091
-28.5082
-28.5067
-28.5056
-28.5047
-28.5035
-28.5019
-28.501
-28.5001
-28.4987
-28.4974
-28.4967
-28.4955
-28.4939
-28.4929
-28.492
-28.4907
-28.4894
-28.4886
-28.4876
-28.486
-28.4847
-28.4839
-28.4827
-28.4813
-28.4804
-28.4795
-28.4781
-28.4766
-28.4758
-28.4747
-28.4733
-28.4722
-28.4713
-28.47
-28.4685
-28.4676
-28.4666
-28.4652
-28.4639
-28.463
-28.4619
-28.4605
-28.4594
-28.4585
-28.4573
-28.4558
-28.4549
-28.4538
-28.4524
-28.4511
-28.4503
-28.4492
-28.4478
-28.4466
-28.4457
-28.4443
-28.4429
-28.442
-28.441
-28.4396
-28.4383
-28.4374
-28.4361
-28.4347
-28.4337
-28.4328
-28.4315
-28.4301
-28.429
-28.4279
-28.4265
-28.4253
-28.4245
-28.4234
-28.422
-28.4208
-28.4198
-28.4184
-28.417
-28.4161
-28.4151
-28.4138
-28.4125
-28.4115
-28.4102
-28.4088
-28.4076
-28.4067
-28.4055
-28.4042
-28.4032
-28.402
-28.4006
-28.3992
-28.3982
-28.3971
-28.3958
-28.3947
-28.3937
-28.3925
-28.391
-28.3899
-28.3888
-28.3875
-28.3862
-28.3853
-28.3841
-28.3828
-28.3815
-28.3804
-28.3793
-28.3779
-28.3768
-28.3757
-28.3745
-28.3731
-28.372
-28.3709
-28.3696
-28.3683
-28.3673
-28.3662
-28.3648
-28.3635
-28.3624
-28.3612
-28.3598
-28.3587
-28.3577
-28.3565
-28.3551
-28.354
-28.3528
-28.3514
-28.35
-28.3489
-28.3479
-28.3466
-28.3455
-28.3445
-28.3433
-28.3419
-28.3406
-28.3394
-28.3381
-28.3367
-28.3356
-28.3347
-28.3334
-28.3322
-28.3311
-28.3299
-28.3284
-28.3271
-28.3259
-28.3247
-28.3235
-28.3223
-28.3213
-28.3201
-28.3188
-28.3175
-28.3163
-28.3149
-28.3136
-28.3125
-28.3114
-28.3102
-28.309
-28.3079
-28.3066
-28.3052
-28.3037
-28.3026
-28.3013
-28.3002
-28.2991
-28.2982
-28.297
-28.2957
-28.2944
-28.293
-28.2915
-28.29
-28.2889
-28.2878
-28.2867
-28.2856
-28.2846
-28.2834
-28.282
-28.2806
-28.2792
-28.2779
-28.2765
-28.2753
-28.2743
-28.2733
-28.2721
-28.271
-28.2697
-28.2683
-28.2668
-28.2655
-28.2643
-28.263
-28.2618
-28.2608
-28.2597
-28.2584
-28.2571
-28.2558
-28.2545
-28.253
-28.2516
-28.2504
-28.2493
-28.2481
-28.247
-28.246
-28.2448
-28.2435
-28.2421
-28.2408
-28.2393
-28.2379
-28.2366
-28.2355
-28.2343
-28.2332
-28.2321
-28.231
-28.2297
-28.2283
-28.227
-28.2256
-28.2242
-28.2228
-28.2217
-28.2205
-28.2192
-28.2181
-28.217
-28.2158
-28.2144
-28.2131
-28.2118
-28.2104
-28.209
-28.2078
-28.2066
-28.2053
-28.2041
-28.2029
-28.2017
-28.2004
-28.1991
-28.1978
-28.1966
-28.1952
-28.1938
-28.1926
-28.1914
-28.1901
-28.1888
-28.1877
-28.1865
-28.1852
-28.184
-28.1828
-28.1814
-28.18
-28.1787
-28.1773
-28.176
-28.1745
-28.1732
-28.1719
-28.1707
-28.1694
-28.1682
-28.1671
-28.1659
-28.1647
-28.1635
-28.1623
-28.161
-28.1596
-28.1582
-28.1569
-28.1555
-28.1541
-28.1528
-28.1516
-28.1503
-28.149
-28.1479
-28.1467
-28.1455
-28.1443
-28.143
-28.1417
-28.1403
-28.1389
-28.1375
-28.1361
-28.1347
-28.1333
-28.132
-28.1307
-28.1295
-28.1283
-28.1271
-28.126
-28.1247
-28.1235
-28.1222
-28.1209
-28.1195
-28.1182
-28.1168
-28.1154
-28.114
-28.1126
-28.1114
-28.1101
-28.1088
-28.1076
-28.1065
-28.1053
-28.104
-28.1028
-28.1016
-28.1003
-28.0989
-28.0975
-28.0962
-28.0948
-28.0933
-28.0919
-28.0905
-28.0892
-28.0878
-28.0865
-28.0852
-28.084
-28.0827
-28.0814
-28.0802
-28.0789
-28.0776
-28.0762
-28.0749
-28.0735
-28.0721
-28.0707
-28.0693
-28.0679
-28.0665
-28.065
-28.0637
-28.0623
-28.0609
-28.0595
-28.0582
-28.0568
-28.0554
-28.0541
-28.0527
-28.0514
-28.05
-28.0487
-28.0473
-28.046
-28.0446
-28.0432
-28.0419
-28.0405
-28.0392
-28.0379
-28.0366
-28.0353
-28.034
-28.0327
-28.0315
-28.0303
-28.029
-28.0278
-28.0266
-28.0254
-28.0241
-28.0229
-28.0217
-28.0205
-28.0192
-28.0179
-28.0167
-28.0154
-28.014
-28.0127
-28.0114
-28.0101
-28.0087
-28.0074
-28.006
-28.0046
-28.0033
-28.0019
-28.0005
-27.9991
-27.9977
-27.9963
-27.995
-27.9936
-27.9922
-27.9908
-27.9894
-27.9881
-27.9866
-27.9853
-27.9839
-27.9825
-27.9811
-27.9798
-27.9784
-27.977
-27.9757
-27.9743
-27.9729
-27.9716
-27.9702
-27.9688
-27.9675
-27.9661
-27.9647
-27.9634
-27.962
-27.9607
-27.9593
-27.9579
-27.9565
-27.9552
-27.9538
-27.9524
-27.9511
-27.9497
-27.9483
-27.947
-27.9456
-27.9442
-27.9429
-27.9415
-27.9401
-27.9387
-27.9374
-27.936
-27.9346
-27.9332
-27.9319
-27.9305
-27.9291
-27.9277
-27.9264
-27.925
-27.9236
-27.9222
-27.9208
-27.9195
-27.9181
-27.9167
-27.9153
-27.914
-27.9125
-27.9112
-27.9098
-27.9084
-27.907
-27.9056
-27.9043
-27.9029
-27.9015
-27.9001
-27.8987
-27.8973
-27.8959
-27.8945
-27.8932
-27.8918
-27.8904
-27.889
-27.8876
-27.8862
-27.8848
-27.8834
-27.882
-27.8806
-27.8792
-27.8778
-27.8764
-27.8751
-27.8736
-27.8722
-27.8709
-27.8695
-27.8681
-27.8666
-27.8653
-27.8638
-27.8625
-27.861
-27.8597
-27.8582
-27.8568
-27.8554
-27.854
-27.8526
-27.8512
-27.8498
-27.8484
-27.847
-27.8456
-27.8442
-27.8428
-27.8414
-27.8399
-27.8385
-27.8371
-27.8357
-27.8343
-27.8329
-27.8315
-27.8301
-27.8287
-27.8272
-27.8258
-27.8244
-27.823
-27.8216
-27.8202
-27.8187
-27.8173
-27.8159
-27.8145
-27.8131
-27.8116
-27.8102
-27.8088
-27.8074
-27.8059
-27.8045
-27.8031
-27.8017
-27.8003
-27.7988
-27.7974
-27.796
-27.7946
-27.7931
-27.7917
-27.7903
-27.7888
-27.7874
-27.786
-27.7845
-27.7831
-27.7817
-27.7803
-27.7788
-27.7774
-27.776
-27.7745
-27.7731
-27.7716
-27.7702
-27.7688
-27.7673
-27.7659
-27.7645
-27.763
-27.7616
-27.7601
-27.7587
-27.7573
-27.7558
-27.7544
-27.7529
-27.7515
-27.75
-27.7486
-27.7471
-27.7457
-27.7443
-27.7428
-27.7414
-27.7399
-27.7385
-27.737
-27.7356
-27.7341
-27.7327
-27.7312
-27.7298
-27.7283
-27.7269
-27.7254
-27.724
-27.7225
-27.721
-27.7196
-27.7181
-27.7167
-27.7152
-27.7138
-27.7123
-27.7108
-27.7094
-27.7079
-27.7065
-27.705
-27.7035
-27.7021
-27.7006
-27.6991
-27.6977
-27.6962
-27.6948
-27.6933
-27.6918
-27.6904
-27.6889
-27.6874
-27.686
-27.6845
-27.683
-27.6816
-27.6801
-27.6786
-27.6771
-27.6757
-27.6742
-27.6727
-27.6712
-27.6698
-27.6683
-27.6668
-27.6653
-27.6639
-27.6624
-27.6609
-27.6594
-27.658
-27.6565
-27.655
-27.6535
-27.652
-27.6506
-27.6491
-27.6476
-27.6461
-27.6446
-27.6431
-27.6417
-27.6402
-27.6387
-27.6372
-27.6357
-27.6342
-27.6327
-27.6313
-27.6297
-27.6283
-27.6268
-27.6253
-27.6238
-27.6223
-27.6208
-27.6193
-27.6178
-27.6163
-27.6148
-27.6133
-27.6118
-27.6103
-27.6089
-27.6073
-27.6059
-27.6043
-27.6029
-27.6014
-27.5999
-27.5984
-27.5968
-27.5953
-27.5938
-27.5923
-27.5908
-27.5893
-27.5878
-27.5863
-27.5848
-27.5833
-27.5818
-27.5803
-27.5788
-27.5773
-27.5758
-27.5743
-27.5728
-27.5712
-27.5697
-27.5682
-27.5667
-27.5652
-27.5637
-27.5621
-27.5606
-27.5591
-27.5576
-27.5561
-27.5546
-27.5531
-27.5515
-27.55
-27.5485
-27.547
-27.5454
-27.5439
-27.5424
-27.5409
-27.5394
-27.5378
-27.5363
-27.5348
-27.5333
-27.5317
-27.5302
-27.5287
-27.5272
-27.5256
-27.5241
-27.5226
-27.521
-27.5195
-27.518
-27.5164
-27.5149
-27.5134
-27.5118
-27.5103
-27.5088
-27.5072
-27.5057
-27.5042
-27.5026
-27.5011
-27.4995
-27.498
-27.4965
-27.4949
-27.4934
-27.4918
-27.4903
-27.4888
-27.4872
-27.4857
-27.4841
-27.4826
-27.481
-27.4795
-27.478
-27.4764
-27.4749
-27.4733
-27.4718
-27.4702
-27.4687
-27.4671
-27.4655
-27.464
-27.4624
-27.4609
-27.4593
-27.4578
-27.4562
-27.4547
-27.4531
-27.4516
-27.45
-27.4484
-27.4469
-27.4453
-27.4438
-27.4422
-27.4407
-27.4391
-27.4375
-27.436
-27.4344
-27.4328
-27.4313
-27.4297
-27.4281
-27.4266
-27.425
-27.4234
-27.4219
-27.4203
-27.4187
-27.4172
-27.4156
-27.414
-27.4124
-27.4109
-27.4093
-27.4077
-27.4062
-27.4046
-27.403
-27.4014
-27.3999
-27.3983
-27.3967
-27.3951
-27.3935
-27.392
-27.3904
-27.3888
-27.3872
-27.3856
-27.3841
-27.3825
-27.3809
-27.3793
-27.3777
-27.3761
-27.3745
-27.373
-27.3714
-27.3698
-27.3682
-27.3666
-27.365
-27.3634
-27.3618
-27.3602
-27.3587
-27.3571
-27.3555
-27.3539
-27.3523
-27.3507
-27.3491
-27.3475
-27.3459
-27.3443
-27.3427
-27.3411
-27.3395
-27.3379
-27.3363
-27.3347
-27.3331
-27.3315
-27.3299
-27.3283
-27.3267
-27.3251
-27.3235
-27.3219
-27.3202
-27.3186
-27.317
-27.3154
-27.3138
-27.3122
-27.3106
-27.309
-27.3074
-27.3058
-27.3041
-27.3025
-27.3009
-27.2993
-27.2977
-27.2961
-27.2945
-27.2928
-27.2912
-27.2896
-27.288
-27.2864
-27.2847
-27.2831
-27.2815
-27.2799
-27.2782
-27.2766
-27.275
-27.2734
-27.2717
-27.2701
-27.2685
-27.2669
-27.2652
-27.2636
-27.262
-27.2603
-27.2587
-27.2571
-27.2554
-27.2538
-27.2522
-27.2505
-27.2489
-27.2473
-27.2456
-27.244
-27.2424
-27.2407
-27.2391
-27.2374
-27.2358
-27.2342
-27.2325
-27.2309
-27.2292
-27.2276
-27.2259
-27.2243
-27.2226
-27.221
-27.2194
-27.2177
-27.2161
-27.2144
-27.2128
-27.2111
-27.2095