/*--------------------------------*- C++ -*----------------------------------*\
  =========                 |
  \\      /  F ield         | OpenFOAM: The Open Source CFD Toolbox
   \\    /   O peration     | Website:  https://openfoam.org
    \\  /    A nd           | Version:  9
     \\/     M anipulation  |
\*---------------------------------------------------------------------------*/
FoamFile
{
    format      ascii;
    class       volScalarField;
    location    "0.022";
    object      ddt0(rho,e);
}
// * * * * * * * * * * * * * * * * * * * * * * * * * * * * * * * * * * * * * //

dimensions      [1 -1 -3 0 0 0 0];

internalField   nonuniform List<scalar> 
10000
(
1.24143e+06
1.241e+06
1.24057e+06
1.24067e+06
1.24028e+06
1.23903e+06
1.23793e+06
1.23793e+06
1.2388e+06
1.2394e+06
1.23882e+06
1.23705e+06
1.23487e+06
1.23325e+06
1.23284e+06
1.23378e+06
1.23579e+06
1.23839e+06
1.24111e+06
1.24357e+06
1.24557e+06
1.24703e+06
1.24795e+06
1.24839e+06
1.2485e+06
1.24872e+06
1.2494e+06
1.25021e+06
1.25008e+06
1.25002e+06
1.24999e+06
1.24997e+06
1.24997e+06
1.24997e+06
1.24998e+06
1.24999e+06
1.25e+06
1.25001e+06
1.25002e+06
1.25003e+06
1.25005e+06
1.25006e+06
1.25007e+06
1.25008e+06
1.2501e+06
1.25011e+06
1.25012e+06
1.25013e+06
1.25014e+06
1.25016e+06
1.25017e+06
1.25018e+06
1.25019e+06
1.2502e+06
1.25022e+06
1.25023e+06
1.25024e+06
1.25025e+06
1.25026e+06
1.25028e+06
1.25029e+06
1.2503e+06
1.25031e+06
1.25033e+06
1.25034e+06
1.25035e+06
1.25036e+06
1.25037e+06
1.25039e+06
1.2504e+06
1.25041e+06
1.25042e+06
1.25043e+06
1.25045e+06
1.25046e+06
1.25047e+06
1.25048e+06
1.25049e+06
1.25051e+06
1.25052e+06
1.25053e+06
1.25054e+06
1.25055e+06
1.25057e+06
1.25058e+06
1.25059e+06
1.2506e+06
1.25061e+06
1.25063e+06
1.25064e+06
1.25065e+06
1.25066e+06
1.25067e+06
1.25069e+06
1.2507e+06
1.25071e+06
1.25072e+06
1.25073e+06
1.25074e+06
1.25076e+06
1.25077e+06
1.25078e+06
1.25079e+06
1.2508e+06
1.25082e+06
1.25083e+06
1.25084e+06
1.25085e+06
1.25086e+06
1.25088e+06
1.25089e+06
1.2509e+06
1.25091e+06
1.25092e+06
1.25093e+06
1.25095e+06
1.25096e+06
1.25097e+06
1.25098e+06
1.25099e+06
1.25101e+06
1.25102e+06
1.25103e+06
1.25104e+06
1.25105e+06
1.25106e+06
1.25108e+06
1.25109e+06
1.2511e+06
1.25111e+06
1.25112e+06
1.25114e+06
1.25115e+06
1.25116e+06
1.25117e+06
1.25118e+06
1.25119e+06
1.25121e+06
1.25122e+06
1.25123e+06
1.25124e+06
1.25125e+06
1.25126e+06
1.25128e+06
1.25129e+06
1.2513e+06
1.25131e+06
1.25132e+06
1.25134e+06
1.25135e+06
1.25136e+06
1.25137e+06
1.25138e+06
1.25139e+06
1.25141e+06
1.25142e+06
1.25143e+06
1.25144e+06
1.25145e+06
1.25146e+06
1.25148e+06
1.25149e+06
1.2515e+06
1.25151e+06
1.25152e+06
1.25153e+06
1.25154e+06
1.25156e+06
1.25157e+06
1.25158e+06
1.25159e+06
1.2516e+06
1.25161e+06
1.25163e+06
1.25164e+06
1.25165e+06
1.25166e+06
1.25167e+06
1.25168e+06
1.2517e+06
1.25171e+06
1.25172e+06
1.25173e+06
1.25174e+06
1.25175e+06
1.25176e+06
1.25178e+06
1.25179e+06
1.2518e+06
1.25181e+06
1.25182e+06
1.25183e+06
1.25185e+06
1.25186e+06
1.25187e+06
1.25188e+06
1.25189e+06
1.2519e+06
1.25191e+06
1.25193e+06
1.25194e+06
1.25195e+06
1.25196e+06
1.25197e+06
1.25198e+06
1.25199e+06
1.25201e+06
1.25202e+06
1.25203e+06
1.25204e+06
1.25205e+06
1.25206e+06
1.25207e+06
1.25209e+06
1.2521e+06
1.25211e+06
1.25212e+06
1.25213e+06
1.25214e+06
1.25215e+06
1.25217e+06
1.25218e+06
1.25219e+06
1.2522e+06
1.25221e+06
1.25222e+06
1.25223e+06
1.25224e+06
1.25226e+06
1.25227e+06
1.25228e+06
1.25229e+06
1.2523e+06
1.25231e+06
1.25232e+06
1.25234e+06
1.25235e+06
1.25236e+06
1.25237e+06
1.25238e+06
1.25239e+06
1.2524e+06
1.25241e+06
1.25243e+06
1.25244e+06
1.25245e+06
1.25246e+06
1.25247e+06
1.25248e+06
1.25249e+06
1.2525e+06
1.25252e+06
1.25253e+06
1.25254e+06
1.25255e+06
1.25256e+06
1.25257e+06
1.25258e+06
1.25259e+06
1.25261e+06
1.25262e+06
1.25263e+06
1.25264e+06
1.25265e+06
1.25266e+06
1.25267e+06
1.25268e+06
1.25269e+06
1.25271e+06
1.25272e+06
1.25273e+06
1.25274e+06
1.25275e+06
1.25276e+06
1.25277e+06
1.25278e+06
1.25279e+06
1.25281e+06
1.25282e+06
1.25283e+06
1.25284e+06
1.25285e+06
1.25286e+06
1.25287e+06
1.25288e+06
1.25289e+06
1.25291e+06
1.25292e+06
1.25293e+06
1.25294e+06
1.25295e+06
1.25296e+06
1.25297e+06
1.25298e+06
1.25299e+06
1.25301e+06
1.25302e+06
1.25303e+06
1.25304e+06
1.25305e+06
1.25306e+06
1.25307e+06
1.25308e+06
1.25309e+06
1.2531e+06
1.25312e+06
1.25313e+06
1.25314e+06
1.25315e+06
1.25316e+06
1.25317e+06
1.25318e+06
1.25319e+06
1.2532e+06
1.25321e+06
1.25322e+06
1.25324e+06
1.25325e+06
1.25326e+06
1.25327e+06
1.25328e+06
1.25329e+06
1.2533e+06
1.25331e+06
1.25332e+06
1.25333e+06
1.25334e+06
1.25336e+06
1.25337e+06
1.25338e+06
1.25339e+06
1.2534e+06
1.25341e+06
1.25342e+06
1.25343e+06
1.25344e+06
1.25345e+06
1.25346e+06
1.25347e+06
1.25349e+06
1.2535e+06
1.25351e+06
1.25352e+06
1.25353e+06
1.25354e+06
1.25355e+06
1.25356e+06
1.25357e+06
1.25358e+06
1.25359e+06
1.2536e+06
1.25361e+06
1.25363e+06
1.25364e+06
1.25365e+06
1.25366e+06
1.25367e+06
1.25368e+06
1.25369e+06
1.2537e+06
1.25371e+06
1.25372e+06
1.25373e+06
1.25374e+06
1.25375e+06
1.25376e+06
1.25378e+06
1.25379e+06
1.2538e+06
1.25381e+06
1.25382e+06
1.25383e+06
1.25384e+06
1.25385e+06
1.25386e+06
1.25387e+06
1.25388e+06
1.25389e+06
1.2539e+06
1.25391e+06
1.25392e+06
1.25394e+06
1.25395e+06
1.25396e+06
1.25397e+06
1.25398e+06
1.25399e+06
1.254e+06
1.25401e+06
1.25402e+06
1.25403e+06
1.25404e+06
1.25405e+06
1.25406e+06
1.25407e+06
1.25408e+06
1.25409e+06
1.2541e+06
1.25411e+06
1.25413e+06
1.25414e+06
1.25415e+06
1.25416e+06
1.25417e+06
1.25418e+06
1.25419e+06
1.2542e+06
1.25421e+06
1.25422e+06
1.25423e+06
1.25424e+06
1.25425e+06
1.25426e+06
1.25427e+06
1.25428e+06
1.25429e+06
1.2543e+06
1.25431e+06
1.25432e+06
1.25433e+06
1.25435e+06
1.25436e+06
1.25437e+06
1.25438e+06
1.25439e+06
1.2544e+06
1.25441e+06
1.25442e+06
1.25443e+06
1.25444e+06
1.25445e+06
1.25446e+06
1.25447e+06
1.25448e+06
1.25449e+06
1.2545e+06
1.25451e+06
1.25452e+06
1.25453e+06
1.25454e+06
1.25455e+06
1.25456e+06
1.25457e+06
1.25458e+06
1.25459e+06
1.2546e+06
1.25461e+06
1.25463e+06
1.25464e+06
1.25465e+06
1.25466e+06
1.25467e+06
1.25468e+06
1.25469e+06
1.2547e+06
1.25471e+06
1.25472e+06
1.25473e+06
1.25474e+06
1.25475e+06
1.25476e+06
1.25477e+06
1.25478e+06
1.25479e+06
1.2548e+06
1.25481e+06
1.25482e+06
1.25483e+06
1.25484e+06
1.25485e+06
1.25486e+06
1.25487e+06
1.25488e+06
1.25489e+06
1.2549e+06
1.25491e+06
1.25492e+06
1.25493e+06
1.25494e+06
1.25495e+06
1.25496e+06
1.25497e+06
1.25498e+06
1.25499e+06
1.255e+06
1.25501e+06
1.25502e+06
1.25503e+06
1.25504e+06
1.25505e+06
1.25506e+06
1.25507e+06
1.25508e+06
1.25509e+06
1.2551e+06
1.25511e+06
1.25512e+06
1.25513e+06
1.25514e+06
1.25515e+06
1.25516e+06
1.25517e+06
1.25518e+06
1.25519e+06
1.2552e+06
1.25521e+06
1.25522e+06
1.25523e+06
1.25524e+06
1.25525e+06
1.25526e+06
1.25527e+06
1.25528e+06
1.25529e+06
1.2553e+06
1.25531e+06
1.25532e+06
1.25533e+06
1.25534e+06
1.25535e+06
1.25536e+06
1.25537e+06
1.25538e+06
1.25539e+06
1.2554e+06
1.25541e+06
1.25542e+06
1.25543e+06
1.25544e+06
1.25545e+06
1.25546e+06
1.25547e+06
1.25548e+06
1.25549e+06
1.2555e+06
1.25551e+06
1.25552e+06
1.25553e+06
1.25554e+06
1.25555e+06
1.25556e+06
1.25557e+06
1.25558e+06
1.25559e+06
1.2556e+06
1.25561e+06
1.25562e+06
1.25563e+06
1.25564e+06
1.25565e+06
1.25566e+06
1.25567e+06
1.25568e+06
1.25569e+06
1.2557e+06
1.25571e+06
1.25572e+06
1.25573e+06
1.25574e+06
1.25575e+06
1.25576e+06
1.25577e+06
1.25578e+06
1.25579e+06
1.2558e+06
1.25581e+06
1.25582e+06
1.25583e+06
1.25584e+06
1.25584e+06
1.25585e+06
1.25586e+06
1.25587e+06
1.25588e+06
1.25589e+06
1.2559e+06
1.25591e+06
1.25592e+06
1.25593e+06
1.25594e+06
1.25595e+06
1.25596e+06
1.25597e+06
1.25598e+06
1.25599e+06
1.256e+06
1.25601e+06
1.25602e+06
1.25603e+06
1.25604e+06
1.25605e+06
1.25606e+06
1.25607e+06
1.25608e+06
1.25609e+06
1.2561e+06
1.25611e+06
1.25611e+06
1.25612e+06
1.25613e+06
1.25614e+06
1.25615e+06
1.25616e+06
1.25617e+06
1.25618e+06
1.25619e+06
1.2562e+06
1.25621e+06
1.25622e+06
1.25623e+06
1.25624e+06
1.25625e+06
1.25626e+06
1.25627e+06
1.25628e+06
1.25629e+06
1.2563e+06
1.25631e+06
1.25631e+06
1.25632e+06
1.25633e+06
1.25634e+06
1.25635e+06
1.25636e+06
1.25637e+06
1.25638e+06
1.25639e+06
1.2564e+06
1.25641e+06
1.25642e+06
1.25643e+06
1.25644e+06
1.25645e+06
1.25646e+06
1.25647e+06
1.25647e+06
1.25648e+06
1.25649e+06
1.2565e+06
1.25651e+06
1.25652e+06
1.25653e+06
1.25654e+06
1.25655e+06
1.25656e+06
1.25657e+06
1.25658e+06
1.25659e+06
1.2566e+06
1.25661e+06
1.25661e+06
1.25662e+06
1.25663e+06
1.25664e+06
1.25665e+06
1.25666e+06
1.25667e+06
1.25668e+06
1.25669e+06
1.2567e+06
1.25671e+06
1.25672e+06
1.25673e+06
1.25674e+06
1.25674e+06
1.25675e+06
1.25676e+06
1.25677e+06
1.25678e+06
1.25679e+06
1.2568e+06
1.25681e+06
1.25682e+06
1.25683e+06
1.25684e+06
1.25685e+06
1.25686e+06
1.25686e+06
1.25687e+06
1.25688e+06
1.25689e+06
1.2569e+06
1.25691e+06
1.25692e+06
1.25693e+06
1.25694e+06
1.25695e+06
1.25696e+06
1.25696e+06
1.25697e+06
1.25698e+06
1.25699e+06
1.257e+06
1.25701e+06
1.25702e+06
1.25703e+06
1.25704e+06
1.25705e+06
1.25706e+06
1.25706e+06
1.25707e+06
1.25708e+06
1.25709e+06
1.2571e+06
1.25711e+06
1.25712e+06
1.25713e+06
1.25714e+06
1.25715e+06
1.25716e+06
1.25716e+06
1.25717e+06
1.25718e+06
1.25719e+06
1.2572e+06
1.25721e+06
1.25722e+06
1.25723e+06
1.25724e+06
1.25725e+06
1.25725e+06
1.25726e+06
1.25727e+06
1.25728e+06
1.25729e+06
1.2573e+06
1.25731e+06
1.25732e+06
1.25733e+06
1.25733e+06
1.25734e+06
1.25735e+06
1.25736e+06
1.25737e+06
1.25738e+06
1.25739e+06
1.2574e+06
1.25741e+06
1.25741e+06
1.25742e+06
1.25743e+06
1.25744e+06
1.25745e+06
1.25746e+06
1.25747e+06
1.25748e+06
1.25749e+06
1.25749e+06
1.2575e+06
1.25751e+06
1.25752e+06
1.25753e+06
1.25754e+06
1.25755e+06
1.25756e+06
1.25756e+06
1.25757e+06
1.25758e+06
1.25759e+06
1.2576e+06
1.25761e+06
1.25762e+06
1.25763e+06
1.25763e+06
1.25764e+06
1.25765e+06
1.25766e+06
1.25767e+06
1.25768e+06
1.25769e+06
1.2577e+06
1.2577e+06
1.25771e+06
1.25772e+06
1.25773e+06
1.25774e+06
1.25775e+06
1.25776e+06
1.25777e+06
1.25777e+06
1.25778e+06
1.25779e+06
1.2578e+06
1.25781e+06
1.25782e+06
1.25783e+06
1.25783e+06
1.25784e+06
1.25785e+06
1.25786e+06
1.25787e+06
1.25788e+06
1.25789e+06
1.25789e+06
1.2579e+06
1.25791e+06
1.25792e+06
1.25793e+06
1.25794e+06
1.25795e+06
1.25795e+06
1.25796e+06
1.25797e+06
1.25798e+06
1.25799e+06
1.258e+06
1.25801e+06
1.25801e+06
1.25802e+06
1.25803e+06
1.25804e+06
1.25805e+06
1.25806e+06
1.25807e+06
1.25807e+06
1.25808e+06
1.25809e+06
1.2581e+06
1.25811e+06
1.25812e+06
1.25812e+06
1.25813e+06
1.25814e+06
1.25815e+06
1.25816e+06
1.25817e+06
1.25818e+06
1.25818e+06
1.25819e+06
1.2582e+06
1.25821e+06
1.25822e+06
1.25823e+06
1.25823e+06
1.25824e+06
1.25825e+06
1.25826e+06
1.25827e+06
1.25828e+06
1.25828e+06
1.25829e+06
1.2583e+06
1.25831e+06
1.25832e+06
1.25833e+06
1.25833e+06
1.25834e+06
1.25835e+06
1.25836e+06
1.25837e+06
1.25838e+06
1.25838e+06
1.25839e+06
1.2584e+06
1.25841e+06
1.25842e+06
1.25843e+06
1.25843e+06
1.25844e+06
1.25845e+06
1.25846e+06
1.25847e+06
1.25848e+06
1.25848e+06
1.25849e+06
1.2585e+06
1.25851e+06
1.25852e+06
1.25852e+06
1.25853e+06
1.25854e+06
1.25855e+06
1.25856e+06
1.25857e+06
1.25857e+06
1.25858e+06
1.25859e+06
1.2586e+06
1.25861e+06
1.25861e+06
1.25862e+06
1.25863e+06
1.25864e+06
1.25865e+06
1.25866e+06
1.25866e+06
1.25867e+06
1.25868e+06
1.25869e+06
1.2587e+06
1.2587e+06
1.25871e+06
1.25872e+06
1.25873e+06
1.25874e+06
1.25874e+06
1.25875e+06
1.25876e+06
1.25877e+06
1.25878e+06
1.25878e+06
1.25879e+06
1.2588e+06
1.25881e+06
1.25882e+06
1.25882e+06
1.25883e+06
1.25884e+06
1.25885e+06
1.25886e+06
1.25886e+06
1.25887e+06
1.25888e+06
1.25889e+06
1.2589e+06
1.2589e+06
1.25891e+06
1.25892e+06
1.25893e+06
1.25894e+06
1.25894e+06
1.25895e+06
1.25896e+06
1.25897e+06
1.25898e+06
1.25898e+06
1.25899e+06
1.259e+06
1.25901e+06
1.25902e+06
1.25902e+06
1.25903e+06
1.25904e+06
1.25905e+06
1.25905e+06
1.25906e+06
1.25907e+06
1.25908e+06
1.25909e+06
1.25909e+06
1.2591e+06
1.25911e+06
1.25912e+06
1.25912e+06
1.25913e+06
1.25914e+06
1.25915e+06
1.25916e+06
1.25916e+06
1.25917e+06
1.25918e+06
1.25919e+06
1.2592e+06
1.2592e+06
1.25921e+06
1.25922e+06
1.25923e+06
1.25923e+06
1.25924e+06
1.25925e+06
1.25926e+06
1.25926e+06
1.25927e+06
1.25928e+06
1.25929e+06
1.2593e+06
1.2593e+06
1.25931e+06
1.25932e+06
1.25933e+06
1.25933e+06
1.25934e+06
1.25935e+06
1.25936e+06
1.25936e+06
1.25937e+06
1.25938e+06
1.25939e+06
1.2594e+06
1.2594e+06
1.25941e+06
1.25942e+06
1.25943e+06
1.25943e+06
1.25944e+06
1.25945e+06
1.25946e+06
1.25946e+06
1.25947e+06
1.25948e+06
1.25949e+06
1.25949e+06
1.2595e+06
1.25951e+06
1.25952e+06
1.25952e+06
1.25953e+06
1.25954e+06
1.25955e+06
1.25955e+06
1.25956e+06
1.25957e+06
1.25958e+06
1.25958e+06
1.25959e+06
1.2596e+06
1.25961e+06
1.25961e+06
1.25962e+06
1.25963e+06
1.25964e+06
1.25964e+06
1.25965e+06
1.25966e+06
1.25967e+06
1.25967e+06
1.25968e+06
1.25969e+06
1.2597e+06
1.2597e+06
1.25971e+06
1.25972e+06
1.25973e+06
1.25973e+06
1.25974e+06
1.25975e+06
1.25976e+06
1.25976e+06
1.25977e+06
1.25978e+06
1.25979e+06
1.25979e+06
1.2598e+06
1.25981e+06
1.25982e+06
1.25982e+06
1.25983e+06
1.25984e+06
1.25985e+06
1.25985e+06
1.25986e+06
1.25987e+06
1.25988e+06
1.25988e+06
1.25989e+06
1.2599e+06
1.2599e+06
1.25991e+06
1.25992e+06
1.25993e+06
1.25993e+06
1.25994e+06
1.25995e+06
1.25996e+06
1.25996e+06
1.25997e+06
1.25998e+06
1.25998e+06
1.25999e+06
1.26e+06
1.26e+06
1.26001e+06
1.26002e+06
1.26003e+06
1.26003e+06
1.26004e+06
1.26005e+06
1.26005e+06
1.26006e+06
1.26007e+06
1.26007e+06
1.26008e+06
1.26009e+06
1.26009e+06
1.2601e+06
1.26011e+06
1.26011e+06
1.26012e+06
1.26013e+06
1.26013e+06
1.26014e+06
1.26015e+06
1.26015e+06
1.26016e+06
1.26017e+06
1.26017e+06
1.26018e+06
1.26019e+06
1.26019e+06
1.2602e+06
1.26021e+06
1.26022e+06
1.26022e+06
1.26023e+06
1.26024e+06
1.26024e+06
1.26025e+06
1.26026e+06
1.26026e+06
1.26027e+06
1.26028e+06
1.26029e+06
1.26029e+06
1.2603e+06
1.26031e+06
1.26032e+06
1.26032e+06
1.26033e+06
1.26034e+06
1.26034e+06
1.26035e+06
1.26036e+06
1.26037e+06
1.26037e+06
1.26038e+06
1.26039e+06
1.26039e+06
1.2604e+06
1.26041e+06
1.26042e+06
1.26042e+06
1.26043e+06
1.26044e+06
1.26044e+06
1.26045e+06
1.26046e+06
1.26046e+06
1.26047e+06
1.26048e+06
1.26049e+06
1.26049e+06
1.2605e+06
1.26051e+06
1.26051e+06
1.26052e+06
1.26053e+06
1.26053e+06
1.26054e+06
1.26055e+06
1.26055e+06
1.26056e+06
1.26057e+06
1.26057e+06
1.26058e+06
1.26059e+06
1.26059e+06
1.2606e+06
1.26061e+06
1.26061e+06
1.26062e+06
1.26063e+06
1.26063e+06
1.26064e+06
1.26065e+06
1.26065e+06
1.26066e+06
1.26067e+06
1.26067e+06
1.26068e+06
1.26069e+06
1.26069e+06
1.2607e+06
1.26071e+06
1.26071e+06
1.26072e+06
1.26073e+06
1.26073e+06
1.26074e+06
1.26075e+06
1.26075e+06
1.26076e+06
1.26077e+06
1.26077e+06
1.26078e+06
1.26079e+06
1.26079e+06
1.2608e+06
1.26081e+06
1.26081e+06
1.26082e+06
1.26083e+06
1.26083e+06
1.26084e+06
1.26085e+06
1.26085e+06
1.26086e+06
1.26086e+06
1.26087e+06
1.26088e+06
1.26088e+06
1.26089e+06
1.2609e+06
1.2609e+06
1.26091e+06
1.26092e+06
1.26092e+06
1.26093e+06
1.26094e+06
1.26094e+06
1.26095e+06
1.26096e+06
1.26096e+06
1.26097e+06
1.26097e+06
1.26098e+06
1.26099e+06
1.26099e+06
1.261e+06
1.26101e+06
1.26101e+06
1.26102e+06
1.26103e+06
1.26103e+06
1.26104e+06
1.26104e+06
1.26105e+06
1.26106e+06
1.26106e+06
1.26107e+06
1.26108e+06
1.26108e+06
1.26109e+06
1.2611e+06
1.2611e+06
1.26111e+06
1.26111e+06
1.26112e+06
1.26113e+06
1.26113e+06
1.26114e+06
1.26115e+06
1.26115e+06
1.26116e+06
1.26116e+06
1.26117e+06
1.26118e+06
1.26118e+06
1.26119e+06
1.2612e+06
1.2612e+06
1.26121e+06
1.26121e+06
1.26122e+06
1.26123e+06
1.26123e+06
1.26124e+06
1.26125e+06
1.26125e+06
1.26126e+06
1.26126e+06
1.26127e+06
1.26128e+06
1.26128e+06
1.26129e+06
1.26129e+06
1.2613e+06
1.26131e+06
1.26131e+06
1.26132e+06
1.26133e+06
1.26133e+06
1.26134e+06
1.26134e+06
1.26135e+06
1.26136e+06
1.26136e+06
1.26137e+06
1.26137e+06
1.26138e+06
1.26139e+06
1.26139e+06
1.2614e+06
1.2614e+06
1.26141e+06
1.26142e+06
1.26142e+06
1.26143e+06
1.26143e+06
1.26144e+06
1.26145e+06
1.26145e+06
1.26146e+06
1.26146e+06
1.26147e+06
1.26148e+06
1.26148e+06
1.26149e+06
1.26149e+06
1.2615e+06
1.26151e+06
1.26151e+06
1.26152e+06
1.26152e+06
1.26153e+06
1.26154e+06
1.26154e+06
1.26155e+06
1.26155e+06
1.26156e+06
1.26157e+06
1.26157e+06
1.26158e+06
1.26158e+06
1.26159e+06
1.26159e+06
1.2616e+06
1.26161e+06
1.26161e+06
1.26162e+06
1.26162e+06
1.26163e+06
1.26164e+06
1.26164e+06
1.26165e+06
1.26165e+06
1.26166e+06
1.26166e+06
1.26167e+06
1.26168e+06
1.26168e+06
1.26169e+06
1.26169e+06
1.2617e+06
1.2617e+06
1.26171e+06
1.26172e+06
1.26172e+06
1.26173e+06
1.26173e+06
1.26174e+06
1.26174e+06
1.26175e+06
1.26176e+06
1.26176e+06
1.26177e+06
1.26177e+06
1.26178e+06
1.26178e+06
1.26179e+06
1.2618e+06
1.2618e+06
1.26181e+06
1.26181e+06
1.26182e+06
1.26182e+06
1.26183e+06
1.26184e+06
1.26184e+06
1.26185e+06
1.26185e+06
1.26186e+06
1.26186e+06
1.26187e+06
1.26187e+06
1.26188e+06
1.26189e+06
1.26189e+06
1.2619e+06
1.2619e+06
1.26191e+06
1.26191e+06
1.26192e+06
1.26192e+06
1.26193e+06
1.26194e+06
1.26194e+06
1.26195e+06
1.26195e+06
1.26196e+06
1.26196e+06
1.26197e+06
1.26197e+06
1.26198e+06
1.26199e+06
1.26199e+06
1.262e+06
1.262e+06
1.26201e+06
1.26201e+06
1.26202e+06
1.26202e+06
1.26203e+06
1.26203e+06
1.26204e+06
1.26205e+06
1.26205e+06
1.26206e+06
1.26206e+06
1.26207e+06
1.26207e+06
1.26208e+06
1.26208e+06
1.26209e+06
1.26209e+06
1.2621e+06
1.2621e+06
1.26211e+06
1.26211e+06
1.26213e+06
1.26211e+06
1.26215e+06
1.26211e+06
1.26217e+06
1.26211e+06
1.2622e+06
1.26209e+06
1.26225e+06
1.26206e+06
1.26231e+06
1.26201e+06
1.2624e+06
1.26193e+06
1.26251e+06
1.26182e+06
1.26265e+06
1.26168e+06
1.26282e+06
1.26154e+06
1.26298e+06
1.26141e+06
1.2631e+06
1.26136e+06
1.2631e+06
1.26148e+06
1.26288e+06
1.26186e+06
1.26232e+06
1.26245e+06
1.26218e+06
1.26224e+06
1.26237e+06
1.26227e+06
1.26224e+06
1.26234e+06
1.26234e+06
1.26231e+06
1.26228e+06
1.26234e+06
1.26233e+06
1.26235e+06
1.26231e+06
1.26235e+06
1.26234e+06
1.26237e+06
1.26232e+06
1.26249e+06
1.26205e+06
1.26297e+06
1.26143e+06
1.26373e+06
1.26062e+06
1.26454e+06
1.25995e+06
1.26503e+06
1.25978e+06
1.26484e+06
1.26042e+06
1.26377e+06
1.26194e+06
1.26197e+06
1.26378e+06
1.2603e+06
1.26526e+06
1.25918e+06
1.26589e+06
1.25922e+06
1.26516e+06
1.2607e+06
1.26306e+06
1.26319e+06
1.26061e+06
1.26531e+06
1.259e+06
1.26629e+06
1.25886e+06
1.26556e+06
1.2605e+06
1.2632e+06
1.26328e+06
1.26053e+06
1.26549e+06
1.25893e+06
1.26641e+06
1.25887e+06
1.26556e+06
1.26067e+06
1.26303e+06
1.26366e+06
1.26002e+06
1.26628e+06
1.25822e+06
1.26694e+06
1.25896e+06
1.26484e+06
1.26221e+06
1.26102e+06
1.26594e+06
1.25811e+06
1.26751e+06
1.25827e+06
1.2656e+06
1.26167e+06
1.26135e+06
1.26596e+06
1.25792e+06
1.26788e+06
1.25802e+06
1.26568e+06
1.262e+06
1.26077e+06
1.26674e+06
1.25733e+06
1.26811e+06
1.25845e+06
1.26473e+06
1.26334e+06
1.25959e+06
1.26755e+06
1.25721e+06
1.26763e+06
1.25953e+06
1.26343e+06
1.26472e+06
1.25849e+06
1.26822e+06
1.25737e+06
1.26667e+06
1.26129e+06
1.26134e+06
1.26674e+06
1.2572e+06
1.26848e+06
1.25845e+06
1.26447e+06
1.2643e+06
1.25834e+06
1.26898e+06
1.25667e+06
1.26697e+06
1.26193e+06
1.26003e+06
1.26845e+06
1.25604e+06
1.26859e+06
1.25995e+06
1.26178e+06
1.26747e+06
1.25614e+06
1.26947e+06
1.25844e+06
1.26361e+06
1.26599e+06
1.25689e+06
1.26975e+06
1.25725e+06
1.26539e+06
1.26435e+06
1.25786e+06
1.26978e+06
1.25645e+06
1.26672e+06
1.26298e+06
1.25892e+06
1.26947e+06
1.25598e+06
1.26782e+06
1.2618e+06
1.25975e+06
1.26938e+06
1.25548e+06
1.26863e+06
1.26121e+06
1.25997e+06
1.26955e+06
1.25521e+06
1.26888e+06
1.26117e+06
1.25991e+06
1.26972e+06
1.25514e+06
1.26882e+06
1.26144e+06
1.25961e+06
1.26991e+06
1.25531e+06
1.26838e+06
1.26199e+06
1.25931e+06
1.26992e+06
1.25561e+06
1.26799e+06
1.26247e+06
1.25886e+06
1.27034e+06
1.2555e+06
1.26764e+06
1.26348e+06
1.25754e+06
1.27137e+06
1.25557e+06
1.26628e+06
1.26565e+06
1.25576e+06
1.27176e+06
1.25699e+06
1.26378e+06
1.26798e+06
1.25494e+06
1.27073e+06
1.25933e+06
1.26147e+06
1.26924e+06
1.25515e+06
1.26945e+06
1.26119e+06
1.25961e+06
1.27063e+06
1.25498e+06
1.26801e+06
1.26403e+06
1.2567e+06
1.27207e+06
1.25614e+06
1.26463e+06
1.26803e+06
1.2543e+06
1.27151e+06
1.25958e+06
1.26014e+06
1.2712e+06
1.25427e+06
1.26847e+06
1.26408e+06
1.25665e+06
1.27201e+06
1.25649e+06
1.2645e+06
1.26788e+06
1.25485e+06
1.2711e+06
1.25975e+06
1.26036e+06
1.27113e+06
1.25423e+06
1.26846e+06
1.26477e+06
1.25555e+06
1.27287e+06
1.25703e+06
1.2625e+06
1.27048e+06
1.25366e+06
1.26978e+06
1.2633e+06
1.25691e+06
1.27225e+06
1.25652e+06
1.26424e+06
1.26852e+06
1.25464e+06
1.27063e+06
1.26134e+06
1.25858e+06
1.2721e+06
1.25541e+06
1.2656e+06
1.26804e+06
1.25425e+06
1.27128e+06
1.26122e+06
1.25829e+06
1.27238e+06
1.25571e+06
1.26494e+06
1.2686e+06
1.25444e+06
1.27043e+06
1.26228e+06
1.25785e+06
1.27195e+06
1.25684e+06
1.26393e+06
1.26898e+06
1.25492e+06
1.26953e+06
1.26328e+06
1.25718e+06
1.27207e+06
1.2577e+06
1.26226e+06
1.27066e+06
1.2547e+06
1.26773e+06
1.26624e+06
1.25536e+06
1.27118e+06
1.26096e+06
1.25917e+06
1.27129e+06
1.25701e+06
1.2644e+06
1.2683e+06
1.25581e+06
1.26895e+06
1.26358e+06
1.25753e+06
1.2713e+06
1.25896e+06
1.26126e+06
1.27085e+06
1.25609e+06
1.26549e+06
1.26798e+06
1.25582e+06
1.26876e+06
1.2639e+06
1.25797e+06
1.27011e+06
1.26001e+06
1.26166e+06
1.2693e+06
1.25743e+06
1.26568e+06
1.2668e+06
1.25678e+06
1.26886e+06
1.26346e+06
1.25804e+06
1.27042e+06
1.26034e+06
1.26062e+06
1.27006e+06
1.2583e+06
1.26375e+06
1.26803e+06
1.25771e+06
1.2667e+06
1.26492e+06
1.25853e+06
1.26886e+06
1.26159e+06
1.26037e+06
1.26982e+06
1.25892e+06
1.26263e+06
1.26941e+06
1.25754e+06
1.26485e+06
1.26773e+06
1.25754e+06
1.26678e+06
1.26521e+06
1.25866e+06
1.26812e+06
1.26245e+06
1.26056e+06
1.26869e+06
1.26002e+06
1.26272e+06
1.26853e+06
1.25841e+06
1.26465e+06
1.26763e+06
1.2579e+06
1.26621e+06
1.26604e+06
1.2584e+06
1.26733e+06
1.26404e+06
1.25969e+06
1.26797e+06
1.26198e+06
1.26135e+06
1.26822e+06
1.26021e+06
1.26298e+06
1.26804e+06
1.25909e+06
1.26439e+06
1.26732e+06
1.25877e+06
1.26559e+06
1.26605e+06
1.2591e+06
1.26663e+06
1.26451e+06
1.25976e+06
1.26746e+06
1.263e+06
1.26062e+06
1.26799e+06
1.2617e+06
1.26157e+06
1.26809e+06
1.26079e+06
1.26258e+06
1.26771e+06
1.26027e+06
1.26366e+06
1.26698e+06
1.25998e+06
1.26479e+06
1.26607e+06
1.25983e+06
1.26584e+06
1.26515e+06
1.25985e+06
1.26664e+06
1.26433e+06
1.26006e+06
1.2671e+06
1.26364e+06
1.26051e+06
1.26727e+06
1.26294e+06
1.2612e+06
1.26727e+06
1.26223e+06
1.26198e+06
1.26716e+06
1.26162e+06
1.26274e+06
1.26699e+06
1.26106e+06
1.26346e+06
1.26686e+06
1.2606e+06
1.26398e+06
1.26672e+06
1.26046e+06
1.26427e+06
1.26635e+06
1.26065e+06
1.26462e+06
1.26573e+06
1.26084e+06
1.26521e+06
1.26504e+06
1.26081e+06
1.26587e+06
1.26464e+06
1.2606e+06
1.26621e+06
1.26462e+06
1.26055e+06
1.2661e+06
1.26458e+06
1.26099e+06
1.2659e+06
1.26406e+06
1.26163e+06
1.26609e+06
1.26334e+06
1.26182e+06
1.26661e+06
1.26305e+06
1.26153e+06
1.26684e+06
1.26326e+06
1.26146e+06
1.26648e+06
1.26343e+06
1.26195e+06
1.26606e+06
1.26312e+06
1.2625e+06
1.26618e+06
1.26256e+06
1.26257e+06
1.26664e+06
1.26244e+06
1.26224e+06
1.26667e+06
1.26289e+06
1.26216e+06
1.26617e+06
1.2631e+06
1.26263e+06
1.26591e+06
1.26268e+06
1.26299e+06
1.26621e+06
1.26238e+06
1.26272e+06
1.26649e+06
1.26273e+06
1.26232e+06
1.26623e+06
1.26317e+06
1.26254e+06
1.26577e+06
1.26303e+06
1.26299e+06
1.26587e+06
1.2627e+06
1.26277e+06
1.26628e+06
1.26297e+06
1.26228e+06
1.26609e+06
1.26346e+06
1.26243e+06
1.26564e+06
1.26345e+06
1.2627e+06
1.26569e+06
1.26332e+06
1.26248e+06
1.26591e+06
1.26357e+06
1.26223e+06
1.26568e+06
1.26391e+06
1.26231e+06
1.26541e+06
1.26401e+06
1.26232e+06
1.26542e+06
1.26414e+06
1.26219e+06
1.26528e+06
1.26439e+06
1.26225e+06
1.265e+06
1.26452e+06
1.26229e+06
1.26497e+06
1.26467e+06
1.26213e+06
1.26479e+06
1.26502e+06
1.26225e+06
1.26431e+06
1.26513e+06
1.26257e+06
1.26418e+06
1.26505e+06
1.26251e+06
1.2642e+06
1.26532e+06
1.26251e+06
1.26371e+06
1.26557e+06
1.26293e+06
1.26331e+06
1.26541e+06
1.26325e+06
1.26334e+06
1.26524e+06
1.26328e+06
1.26325e+06
1.26545e+06
1.26346e+06
1.26272e+06
1.26545e+06
1.26409e+06
1.26261e+06
1.26486e+06
1.2643e+06
1.26294e+06
1.2648e+06
1.26425e+06
1.26264e+06
1.26489e+06
1.26477e+06
1.26245e+06
1.26426e+06
1.26517e+06
1.26297e+06
1.2638e+06
1.26494e+06
1.26316e+06
1.26396e+06
1.26506e+06
1.26299e+06
1.26353e+06
1.26541e+06
1.26353e+06
1.26297e+06
1.2651e+06
1.26401e+06
1.26309e+06
1.26482e+06
1.26406e+06
1.26307e+06
1.26481e+06
1.26434e+06
1.26279e+06
1.26462e+06
1.26482e+06
1.26284e+06
1.26404e+06
1.26499e+06
1.2633e+06
1.26377e+06
1.26486e+06
1.26335e+06
1.26373e+06
1.26507e+06
1.26347e+06
1.26325e+06
1.26508e+06
1.26408e+06
1.263e+06
1.26468e+06
1.26438e+06
1.26318e+06
1.26446e+06
1.26443e+06
1.26316e+06
1.26434e+06
1.26479e+06
1.26306e+06
1.26388e+06
1.26508e+06
1.26353e+06
1.26344e+06
1.26478e+06
1.26391e+06
1.2635e+06
1.26476e+06
1.26389e+06
1.26322e+06
1.26479e+06
1.26445e+06
1.26303e+06
1.26419e+06
1.26479e+06
1.26343e+06
1.26396e+06
1.26462e+06
1.26348e+06
1.26387e+06
1.2649e+06
1.26365e+06
1.26331e+06
1.26483e+06
1.26422e+06
1.26331e+06
1.2644e+06
1.26434e+06
1.26339e+06
1.26434e+06
1.2646e+06
1.26328e+06
1.26395e+06
1.26481e+06
1.26367e+06
1.26361e+06
1.26469e+06
1.26393e+06
1.26347e+06
1.26465e+06
1.2642e+06
1.26335e+06
1.26433e+06
1.26451e+06
1.26345e+06
1.26408e+06
1.26463e+06
1.26353e+06
1.2638e+06
1.26476e+06
1.2639e+06
1.26346e+06
1.26453e+06
1.2642e+06
1.26353e+06
1.2644e+06
1.2643e+06
1.26341e+06
1.26416e+06
1.26474e+06
1.26359e+06
1.26367e+06
1.26461e+06
1.264e+06
1.26369e+06
1.26445e+06
1.26405e+06
1.26349e+06
1.2645e+06
1.26448e+06
1.26339e+06
1.26391e+06
1.26466e+06
1.2639e+06
1.26375e+06
1.26441e+06
1.26385e+06
1.26375e+06
1.26464e+06
1.2642e+06
1.2633e+06
1.26413e+06
1.26468e+06
1.26379e+06
1.26384e+06
1.2643e+06
1.26382e+06
1.26392e+06
1.26466e+06
1.26397e+06
1.26333e+06
1.26432e+06
1.26458e+06
1.26374e+06
1.26387e+06
1.2643e+06
1.26379e+06
1.26404e+06
1.26459e+06
1.26384e+06
1.26346e+06
1.26442e+06
1.2645e+06
1.26365e+06
1.26395e+06
1.26427e+06
1.26383e+06
1.26407e+06
1.26451e+06
1.26379e+06
1.26353e+06
1.26448e+06
1.26438e+06
1.26366e+06
1.26397e+06
1.26429e+06
1.26383e+06
1.26406e+06
1.26445e+06
1.26378e+06
1.26365e+06
1.26445e+06
1.26434e+06
1.26362e+06
1.26399e+06
1.26428e+06
1.26387e+06
1.26407e+06
1.2644e+06
1.2638e+06
1.26361e+06
1.26442e+06
1.26433e+06
1.26372e+06
1.26399e+06
1.26423e+06
1.26381e+06
1.26401e+06
1.26447e+06
1.26392e+06
1.26365e+06
1.26424e+06
1.26427e+06
1.26376e+06
1.26408e+06
1.2643e+06
1.26378e+06
1.26385e+06
1.26436e+06
1.26408e+06
1.26374e+06
1.2642e+06
1.26417e+06
1.26372e+06
1.26405e+06
1.26441e+06
1.26392e+06
1.26373e+06
1.26421e+06
1.26409e+06
1.26386e+06
1.26422e+06
1.26422e+06
1.26363e+06
1.26384e+06
1.26441e+06
1.26411e+06
1.26382e+06
1.26406e+06
1.26401e+06
1.26376e+06
1.26422e+06
1.26439e+06
1.26378e+06
1.26367e+06
1.2642e+06
1.26419e+06
1.2639e+06
1.26412e+06
1.26402e+06
1.26368e+06
1.26401e+06
1.26446e+06
1.26401e+06
1.26364e+06
1.26401e+06
1.26412e+06
1.26396e+06
1.26415e+06
1.26419e+06
1.26366e+06
1.26374e+06
1.26433e+06
1.26426e+06
1.26383e+06
1.26391e+06
1.26401e+06
1.2638e+06
1.26408e+06
1.26436e+06
1.26395e+06
1.26359e+06
1.264e+06
1.26421e+06
1.26396e+06
1.26403e+06
1.26409e+06
1.26377e+06
1.26376e+06
1.26427e+06
1.26421e+06
1.26378e+06
1.26385e+06
1.26406e+06
1.2639e+06
1.26396e+06
1.26425e+06
1.26398e+06
1.26366e+06
1.26393e+06
1.2642e+06
1.26395e+06
1.26392e+06
1.26409e+06
1.26388e+06
1.26374e+06
1.26407e+06
1.26421e+06
1.26386e+06
1.26386e+06
1.26405e+06
1.26391e+06
1.26379e+06
1.26408e+06
1.26413e+06
1.26381e+06
1.26387e+06
1.26406e+06
1.2639e+06
1.26378e+06
1.26409e+06
1.26409e+06
1.26381e+06
1.26386e+06
1.26405e+06
1.26389e+06
1.26381e+06
1.26409e+06
1.26403e+06
1.26375e+06
1.26382e+06
1.26406e+06
1.26393e+06
1.26386e+06
1.26406e+06
1.26396e+06
1.26371e+06
1.26385e+06
1.26411e+06
1.26394e+06
1.26383e+06
1.26397e+06
1.26392e+06
1.26374e+06
1.26391e+06
1.26411e+06
1.26389e+06
1.26376e+06
1.26392e+06
1.26395e+06
1.26379e+06
1.26392e+06
1.26405e+06
1.26383e+06
1.26372e+06
1.26394e+06
1.264e+06
1.26381e+06
1.26388e+06
1.26397e+06
1.26382e+06
1.26374e+06
1.26397e+06
1.26399e+06
1.26377e+06
1.2638e+06
1.26395e+06
1.26387e+06
1.26377e+06
1.26396e+06
1.26394e+06
1.26373e+06
1.26376e+06
1.26398e+06
1.26392e+06
1.26379e+06
1.26389e+06
1.26387e+06
1.2637e+06
1.26375e+06
1.264e+06
1.26393e+06
1.26377e+06
1.26381e+06
1.26385e+06
1.26372e+06
1.26377e+06
1.264e+06
1.26392e+06
1.26373e+06
1.26374e+06
1.26384e+06
1.26374e+06
1.26377e+06
1.26394e+06
1.2639e+06
1.2637e+06
1.26372e+06
1.26386e+06
1.26379e+06
1.26376e+06
1.26388e+06
1.26388e+06
1.26368e+06
1.26371e+06
1.26386e+06
1.26382e+06
1.26374e+06
1.26382e+06
1.26385e+06
1.26368e+06
1.2637e+06
1.26385e+06
1.26384e+06
1.26371e+06
1.26377e+06
1.26381e+06
1.26368e+06
1.26365e+06
1.26379e+06
1.26383e+06
1.2637e+06
1.26374e+06
1.26381e+06
1.26372e+06
1.26363e+06
1.26376e+06
1.26381e+06
1.2637e+06
1.26371e+06
1.2638e+06
1.26376e+06
1.26363e+06
1.26371e+06
1.26377e+06
1.26369e+06
1.26365e+06
1.26377e+06
1.26376e+06
1.26363e+06
1.26365e+06
1.26373e+06
1.2637e+06
1.26363e+06
1.26375e+06
1.26378e+06
1.26366e+06
1.26361e+06
1.2637e+06
1.26368e+06
1.2636e+06
1.26368e+06
1.26375e+06
1.26368e+06
1.26359e+06
1.26368e+06
1.26369e+06
1.26361e+06
1.26363e+06
1.26372e+06
1.26368e+06
1.26358e+06
1.26363e+06
1.26367e+06
1.2636e+06
1.26355e+06
1.26365e+06
1.26364e+06
1.26357e+06
1.26359e+06
1.26368e+06
1.26365e+06
1.26357e+06
1.26362e+06
1.26364e+06
1.26357e+06
1.26353e+06
1.26364e+06
1.26365e+06
1.26358e+06
1.26358e+06
1.26364e+06
1.26358e+06
1.26351e+06
1.26359e+06
1.26363e+06
1.26357e+06
1.26353e+06
1.2636e+06
1.26357e+06
1.2635e+06
1.26352e+06
1.26361e+06
1.26357e+06
1.2635e+06
1.26354e+06
1.26354e+06
1.26348e+06
1.26346e+06
1.26357e+06
1.26358e+06
1.26353e+06
1.26352e+06
1.26355e+06
1.26349e+06
1.26343e+06
1.2635e+06
1.26356e+06
1.26354e+06
1.2635e+06
1.26355e+06
1.26351e+06
1.26342e+06
1.26341e+06
1.26349e+06
1.2635e+06
1.26346e+06
1.2635e+06
1.26351e+06
1.26344e+06
1.26337e+06
1.26342e+06
1.26344e+06
1.26342e+06
1.26343e+06
1.2635e+06
1.26348e+06
1.26339e+06
1.2634e+06
1.26343e+06
1.26341e+06
1.26337e+06
1.26344e+06