/*--------------------------------*- C++ -*----------------------------------*\
  =========                 |
  \\      /  F ield         | OpenFOAM: The Open Source CFD Toolbox
   \\    /   O peration     | Website:  https://openfoam.org
    \\  /    A nd           | Version:  9
     \\/     M anipulation  |
\*---------------------------------------------------------------------------*/
FoamFile
{
    format      ascii;
    class       volVectorField;
    location    "0.022";
    object      ddtCorrDdt0(rho,U);
}
// * * * * * * * * * * * * * * * * * * * * * * * * * * * * * * * * * * * * * //

dimensions      [1 -2 -2 0 0 0 0];

internalField   nonuniform List<vector> 
10000
(
(57.9657 0 0)
(51.4019 0 0)
(48.3175 0 0)
(45.366 0 0)
(41.7574 0 0)
(37.9872 0 0)
(34.2803 0 0)
(30.6216 0 0)
(26.9815 0 0)
(23.355 0 0)
(19.7361 0 0)
(16.1112 0 0)
(12.47 0 0)
(8.81054 0 0)
(5.13527 0 0)
(1.44911 0 0)
(-2.23953 0 0)
(-5.92502 0 0)
(-9.60577 0 0)
(-13.2789 0 0)
(-16.9446 0 0)
(-20.6039 0 0)
(-24.258 0 0)
(-27.91 0 0)
(-31.5613 0 0)
(-35.2174 0 0)
(-38.8771 0 0)
(-42.5316 0 0)
(-46.1725 0 0)
(-49.8205 0 0)
(-53.4694 0 0)
(-57.1173 0 0)
(-60.7659 0 0)
(-64.4141 0 0)
(-68.0628 0 0)
(-71.7114 0 0)
(-75.3593 0 0)
(-79.0085 0 0)
(-82.6571 0 0)
(-86.3048 0 0)
(-89.9538 0 0)
(-93.603 0 0)
(-97.2507 0 0)
(-100.899 0 0)
(-104.548 0 0)
(-108.197 0 0)
(-111.846 0 0)
(-115.493 0 0)
(-119.14 0 0)
(-122.788 0 0)
(-126.437 0 0)
(-130.086 0 0)
(-133.735 0 0)
(-137.384 0 0)
(-141.032 0 0)
(-144.681 0 0)
(-148.329 0 0)
(-151.977 0 0)
(-155.626 0 0)
(-159.275 0 0)
(-162.924 0 0)
(-166.573 0 0)
(-170.221 0 0)
(-173.87 0 0)
(-177.518 0 0)
(-181.166 0 0)
(-184.814 0 0)
(-188.462 0 0)
(-192.111 0 0)
(-195.759 0 0)
(-199.407 0 0)
(-203.056 0 0)
(-206.704 0 0)
(-210.352 0 0)
(-214.001 0 0)
(-217.649 0 0)
(-221.297 0 0)
(-224.946 0 0)
(-228.594 0 0)
(-232.242 0 0)
(-235.891 0 0)
(-239.539 0 0)
(-243.187 0 0)
(-246.835 0 0)
(-250.484 0 0)
(-254.132 0 0)
(-257.78 0 0)
(-261.428 0 0)
(-265.077 0 0)
(-268.725 0 0)
(-272.373 0 0)
(-276.021 0 0)
(-279.67 0 0)
(-283.318 0 0)
(-286.966 0 0)
(-290.614 0 0)
(-294.262 0 0)
(-297.911 0 0)
(-301.559 0 0)
(-305.207 0 0)
(-308.855 0 0)
(-312.503 0 0)
(-316.151 0 0)
(-319.799 0 0)
(-323.448 0 0)
(-327.096 0 0)
(-330.743 0 0)
(-334.391 0 0)
(-338.039 0 0)
(-341.688 0 0)
(-345.336 0 0)
(-348.984 0 0)
(-352.632 0 0)
(-356.28 0 0)
(-359.927 0 0)
(-363.575 0 0)
(-367.223 0 0)
(-370.87 0 0)
(-374.518 0 0)
(-378.166 0 0)
(-381.814 0 0)
(-385.463 0 0)
(-389.111 0 0)
(-392.759 0 0)
(-396.407 0 0)
(-400.055 0 0)
(-403.702 0 0)
(-407.35 0 0)
(-410.998 0 0)
(-414.646 0 0)
(-418.294 0 0)
(-421.942 0 0)
(-425.59 0 0)
(-429.238 0 0)
(-432.886 0 0)
(-436.534 0 0)
(-440.181 0 0)
(-443.829 0 0)
(-447.477 0 0)
(-451.124 0 0)
(-454.772 0 0)
(-458.419 0 0)
(-462.067 0 0)
(-465.714 0 0)
(-469.362 0 0)
(-473.009 0 0)
(-476.657 0 0)
(-480.305 0 0)
(-483.952 0 0)
(-487.6 0 0)
(-491.247 0 0)
(-494.895 0 0)
(-498.542 0 0)
(-502.19 0 0)
(-505.837 0 0)
(-509.485 0 0)
(-513.132 0 0)
(-516.779 0 0)
(-520.427 0 0)
(-524.074 0 0)
(-527.722 0 0)
(-531.369 0 0)
(-535.016 0 0)
(-538.664 0 0)
(-542.311 0 0)
(-545.958 0 0)
(-549.605 0 0)
(-553.253 0 0)
(-556.9 0 0)
(-560.547 0 0)
(-564.194 0 0)
(-567.842 0 0)
(-571.489 0 0)
(-575.136 0 0)
(-578.783 0 0)
(-582.43 0 0)
(-586.077 0 0)
(-589.724 0 0)
(-593.371 0 0)
(-597.019 0 0)
(-600.666 0 0)
(-604.313 0 0)
(-607.96 0 0)
(-611.606 0 0)
(-615.253 0 0)
(-618.9 0 0)
(-622.546 0 0)
(-626.193 0 0)
(-629.84 0 0)
(-633.487 0 0)
(-637.134 0 0)
(-640.78 0 0)
(-644.427 0 0)
(-648.074 0 0)
(-651.721 0 0)
(-655.368 0 0)
(-659.015 0 0)
(-662.662 0 0)
(-666.308 0 0)
(-669.955 0 0)
(-673.601 0 0)
(-677.248 0 0)
(-680.894 0 0)
(-684.541 0 0)
(-688.188 0 0)
(-691.834 0 0)
(-695.481 0 0)
(-699.128 0 0)
(-702.774 0 0)
(-706.421 0 0)
(-710.067 0 0)
(-713.714 0 0)
(-717.36 0 0)
(-721.006 0 0)
(-724.653 0 0)
(-728.299 0 0)
(-731.945 0 0)
(-735.591 0 0)
(-739.238 0 0)
(-742.884 0 0)
(-746.53 0 0)
(-750.176 0 0)
(-753.822 0 0)
(-757.468 0 0)
(-761.114 0 0)
(-764.76 0 0)
(-768.406 0 0)
(-772.052 0 0)
(-775.698 0 0)
(-779.344 0 0)
(-782.99 0 0)
(-786.636 0 0)
(-790.282 0 0)
(-793.928 0 0)
(-797.574 0 0)
(-801.22 0 0)
(-804.866 0 0)
(-808.511 0 0)
(-812.157 0 0)
(-815.803 0 0)
(-819.449 0 0)
(-823.094 0 0)
(-826.74 0 0)
(-830.386 0 0)
(-834.031 0 0)
(-837.677 0 0)
(-841.322 0 0)
(-844.968 0 0)
(-848.613 0 0)
(-852.259 0 0)
(-855.904 0 0)
(-859.55 0 0)
(-863.195 0 0)
(-866.841 0 0)
(-870.486 0 0)
(-874.131 0 0)
(-877.777 0 0)
(-881.422 0 0)
(-885.067 0 0)
(-888.712 0 0)
(-892.357 0 0)
(-896.002 0 0)
(-899.647 0 0)
(-903.292 0 0)
(-906.937 0 0)
(-910.582 0 0)
(-914.227 0 0)
(-917.872 0 0)
(-921.517 0 0)
(-925.162 0 0)
(-928.807 0 0)
(-932.452 0 0)
(-936.097 0 0)
(-939.742 0 0)
(-943.387 0 0)
(-947.032 0 0)
(-950.676 0 0)
(-954.321 0 0)
(-957.966 0 0)
(-961.61 0 0)
(-965.255 0 0)
(-968.9 0 0)
(-972.544 0 0)
(-976.189 0 0)
(-979.833 0 0)
(-983.478 0 0)
(-987.123 0 0)
(-990.767 0 0)
(-994.412 0 0)
(-998.056 0 0)
(-1001.7 0 0)
(-1005.34 0 0)
(-1008.99 0 0)
(-1012.63 0 0)
(-1016.28 0 0)
(-1019.92 0 0)
(-1023.57 0 0)
(-1027.21 0 0)
(-1030.85 0 0)
(-1034.5 0 0)
(-1038.14 0 0)
(-1041.79 0 0)
(-1045.43 0 0)
(-1049.07 0 0)
(-1052.72 0 0)
(-1056.36 0 0)
(-1060 0 0)
(-1063.65 0 0)
(-1067.29 0 0)
(-1070.94 0 0)
(-1074.58 0 0)
(-1078.22 0 0)
(-1081.87 0 0)
(-1085.51 0 0)
(-1089.15 0 0)
(-1092.8 0 0)
(-1096.44 0 0)
(-1100.08 0 0)
(-1103.73 0 0)
(-1107.37 0 0)
(-1111.01 0 0)
(-1114.66 0 0)
(-1118.3 0 0)
(-1121.94 0 0)
(-1125.59 0 0)
(-1129.23 0 0)
(-1132.87 0 0)
(-1136.52 0 0)
(-1140.16 0 0)
(-1143.8 0 0)
(-1147.45 0 0)
(-1151.09 0 0)
(-1154.73 0 0)
(-1158.38 0 0)
(-1162.02 0 0)
(-1165.66 0 0)
(-1169.3 0 0)
(-1172.95 0 0)
(-1176.59 0 0)
(-1180.23 0 0)
(-1183.87 0 0)
(-1187.52 0 0)
(-1191.16 0 0)
(-1194.8 0 0)
(-1198.44 0 0)
(-1202.09 0 0)
(-1205.73 0 0)
(-1209.37 0 0)
(-1213.01 0 0)
(-1216.66 0 0)
(-1220.3 0 0)
(-1223.94 0 0)
(-1227.58 0 0)
(-1231.23 0 0)
(-1234.87 0 0)
(-1238.51 0 0)
(-1242.15 0 0)
(-1245.79 0 0)
(-1249.44 0 0)
(-1253.08 0 0)
(-1256.72 0 0)
(-1260.36 0 0)
(-1264 0 0)
(-1267.65 0 0)
(-1271.29 0 0)
(-1274.93 0 0)
(-1278.57 0 0)
(-1282.21 0 0)
(-1285.85 0 0)
(-1289.5 0 0)
(-1293.14 0 0)
(-1296.78 0 0)
(-1300.42 0 0)
(-1304.06 0 0)
(-1307.7 0 0)
(-1311.34 0 0)
(-1314.99 0 0)
(-1318.63 0 0)
(-1322.27 0 0)
(-1325.91 0 0)
(-1329.55 0 0)
(-1333.19 0 0)
(-1336.83 0 0)
(-1340.47 0 0)
(-1344.11 0 0)
(-1347.76 0 0)
(-1351.4 0 0)
(-1355.04 0 0)
(-1358.68 0 0)
(-1362.32 0 0)
(-1365.96 0 0)
(-1369.6 0 0)
(-1373.24 0 0)
(-1376.88 0 0)
(-1380.52 0 0)
(-1384.16 0 0)
(-1387.8 0 0)
(-1391.44 0 0)
(-1395.08 0 0)
(-1398.72 0 0)
(-1402.36 0 0)
(-1406 0 0)
(-1409.64 0 0)
(-1413.28 0 0)
(-1416.92 0 0)
(-1420.56 0 0)
(-1424.2 0 0)
(-1427.85 0 0)
(-1431.49 0 0)
(-1435.12 0 0)
(-1438.76 0 0)
(-1442.4 0 0)
(-1446.04 0 0)
(-1449.68 0 0)
(-1453.32 0 0)
(-1456.96 0 0)
(-1460.6 0 0)
(-1464.24 0 0)
(-1467.88 0 0)
(-1471.52 0 0)
(-1475.16 0 0)
(-1478.8 0 0)
(-1482.44 0 0)
(-1486.08 0 0)
(-1489.72 0 0)
(-1493.36 0 0)
(-1497 0 0)
(-1500.64 0 0)
(-1504.27 0 0)
(-1507.91 0 0)
(-1511.55 0 0)
(-1515.19 0 0)
(-1518.83 0 0)
(-1522.47 0 0)
(-1526.11 0 0)
(-1529.75 0 0)
(-1533.39 0 0)
(-1537.02 0 0)
(-1540.66 0 0)
(-1544.3 0 0)
(-1547.94 0 0)
(-1551.58 0 0)
(-1555.22 0 0)
(-1558.86 0 0)
(-1562.49 0 0)
(-1566.13 0 0)
(-1569.77 0 0)
(-1573.41 0 0)
(-1577.05 0 0)
(-1580.69 0 0)
(-1584.32 0 0)
(-1587.96 0 0)
(-1591.6 0 0)
(-1595.24 0 0)
(-1598.88 0 0)
(-1602.51 0 0)
(-1606.15 0 0)
(-1609.79 0 0)
(-1613.43 0 0)
(-1617.06 0 0)
(-1620.7 0 0)
(-1624.34 0 0)
(-1627.98 0 0)
(-1631.61 0 0)
(-1635.25 0 0)
(-1638.89 0 0)
(-1642.53 0 0)
(-1646.16 0 0)
(-1649.8 0 0)
(-1653.44 0 0)
(-1657.08 0 0)
(-1660.71 0 0)
(-1664.35 0 0)
(-1667.99 0 0)
(-1671.62 0 0)
(-1675.26 0 0)
(-1678.9 0 0)
(-1682.53 0 0)
(-1686.17 0 0)
(-1689.81 0 0)
(-1693.44 0 0)
(-1697.08 0 0)
(-1700.72 0 0)
(-1704.35 0 0)
(-1707.99 0 0)
(-1711.63 0 0)
(-1715.26 0 0)
(-1718.9 0 0)
(-1722.53 0 0)
(-1726.17 0 0)
(-1729.81 0 0)
(-1733.44 0 0)
(-1737.08 0 0)
(-1740.71 0 0)
(-1744.35 0 0)
(-1747.99 0 0)
(-1751.62 0 0)
(-1755.26 0 0)
(-1758.89 0 0)
(-1762.53 0 0)
(-1766.16 0 0)
(-1769.8 0 0)
(-1773.44 0 0)
(-1777.07 0 0)
(-1780.71 0 0)
(-1784.34 0 0)
(-1787.98 0 0)
(-1791.61 0 0)
(-1795.25 0 0)
(-1798.88 0 0)
(-1802.52 0 0)
(-1806.15 0 0)
(-1809.79 0 0)
(-1813.42 0 0)
(-1817.06 0 0)
(-1820.69 0 0)
(-1824.33 0 0)
(-1827.96 0 0)
(-1831.6 0 0)
(-1835.23 0 0)
(-1838.87 0 0)
(-1842.5 0 0)
(-1846.13 0 0)
(-1849.77 0 0)
(-1853.4 0 0)
(-1857.04 0 0)
(-1860.67 0 0)
(-1864.31 0 0)
(-1867.94 0 0)
(-1871.57 0 0)
(-1875.21 0 0)
(-1878.84 0 0)
(-1882.48 0 0)
(-1886.11 0 0)
(-1889.74 0 0)
(-1893.38 0 0)
(-1897.01 0 0)
(-1900.64 0 0)
(-1904.28 0 0)
(-1907.91 0 0)
(-1911.54 0 0)
(-1915.18 0 0)
(-1918.81 0 0)
(-1922.44 0 0)
(-1926.08 0 0)
(-1929.71 0 0)
(-1933.34 0 0)
(-1936.98 0 0)
(-1940.61 0 0)
(-1944.24 0 0)
(-1947.88 0 0)
(-1951.51 0 0)
(-1955.14 0 0)
(-1958.77 0 0)
(-1962.41 0 0)
(-1966.04 0 0)
(-1969.67 0 0)
(-1973.3 0 0)
(-1976.94 0 0)
(-1980.57 0 0)
(-1984.2 0 0)
(-1987.83 0 0)
(-1991.47 0 0)
(-1995.1 0 0)
(-1998.73 0 0)
(-2002.36 0 0)
(-2005.99 0 0)
(-2009.63 0 0)
(-2013.26 0 0)
(-2016.89 0 0)
(-2020.52 0 0)
(-2024.15 0 0)
(-2027.78 0 0)
(-2031.42 0 0)
(-2035.05 0 0)
(-2038.68 0 0)
(-2042.31 0 0)
(-2045.94 0 0)
(-2049.57 0 0)
(-2053.2 0 0)
(-2056.83 0 0)
(-2060.46 0 0)
(-2064.1 0 0)
(-2067.73 0 0)
(-2071.36 0 0)
(-2074.99 0 0)
(-2078.62 0 0)
(-2082.25 0 0)
(-2085.88 0 0)
(-2089.51 0 0)
(-2093.14 0 0)
(-2096.77 0 0)
(-2100.4 0 0)
(-2104.03 0 0)
(-2107.66 0 0)
(-2111.29 0 0)
(-2114.92 0 0)
(-2118.55 0 0)
(-2122.18 0 0)
(-2125.81 0 0)
(-2129.44 0 0)
(-2133.07 0 0)
(-2136.7 0 0)
(-2140.33 0 0)
(-2143.96 0 0)
(-2147.59 0 0)
(-2151.22 0 0)
(-2154.85 0 0)
(-2158.48 0 0)
(-2162.11 0 0)
(-2165.74 0 0)
(-2169.37 0 0)
(-2173 0 0)
(-2176.63 0 0)
(-2180.25 0 0)
(-2183.88 0 0)
(-2187.51 0 0)
(-2191.14 0 0)
(-2194.77 0 0)
(-2198.4 0 0)
(-2202.03 0 0)
(-2205.66 0 0)
(-2209.28 0 0)
(-2212.91 0 0)
(-2216.54 0 0)
(-2220.17 0 0)
(-2223.8 0 0)
(-2227.42 0 0)
(-2231.05 0 0)
(-2234.68 0 0)
(-2238.31 0 0)
(-2241.94 0 0)
(-2245.56 0 0)
(-2249.19 0 0)
(-2252.82 0 0)
(-2256.45 0 0)
(-2260.08 0 0)
(-2263.7 0 0)
(-2267.33 0 0)
(-2270.96 0 0)
(-2274.58 0 0)
(-2278.21 0 0)
(-2281.84 0 0)
(-2285.47 0 0)
(-2289.09 0 0)
(-2292.72 0 0)
(-2296.35 0 0)
(-2299.97 0 0)
(-2303.6 0 0)
(-2307.23 0 0)
(-2310.85 0 0)
(-2314.48 0 0)
(-2318.11 0 0)
(-2321.73 0 0)
(-2325.36 0 0)
(-2328.99 0 0)
(-2332.61 0 0)
(-2336.24 0 0)
(-2339.86 0 0)
(-2343.49 0 0)
(-2347.12 0 0)
(-2350.74 0 0)
(-2354.37 0 0)
(-2357.99 0 0)
(-2361.62 0 0)
(-2365.25 0 0)
(-2368.87 0 0)
(-2372.5 0 0)
(-2376.12 0 0)
(-2379.75 0 0)
(-2383.37 0 0)
(-2387 0 0)
(-2390.62 0 0)
(-2394.25 0 0)
(-2397.87 0 0)
(-2401.5 0 0)
(-2405.12 0 0)
(-2408.75 0 0)
(-2412.37 0 0)
(-2416 0 0)
(-2419.62 0 0)
(-2423.24 0 0)
(-2426.87 0 0)
(-2430.49 0 0)
(-2434.12 0 0)
(-2437.74 0 0)
(-2441.37 0 0)
(-2444.99 0 0)
(-2448.61 0 0)
(-2452.24 0 0)
(-2455.86 0 0)
(-2459.49 0 0)
(-2463.11 0 0)
(-2466.73 0 0)
(-2470.36 0 0)
(-2473.98 0 0)
(-2477.6 0 0)
(-2481.23 0 0)
(-2484.85 0 0)
(-2488.47 0 0)
(-2492.1 0 0)
(-2495.72 0 0)
(-2499.34 0 0)
(-2502.97 0 0)
(-2506.59 0 0)
(-2510.21 0 0)
(-2513.83 0 0)
(-2517.46 0 0)
(-2521.08 0 0)
(-2524.7 0 0)
(-2528.32 0 0)
(-2531.95 0 0)
(-2535.57 0 0)
(-2539.19 0 0)
(-2542.81 0 0)
(-2546.43 0 0)
(-2550.06 0 0)
(-2553.68 0 0)
(-2557.3 0 0)
(-2560.92 0 0)
(-2564.54 0 0)
(-2568.16 0 0)
(-2571.79 0 0)
(-2575.41 0 0)
(-2579.03 0 0)
(-2582.65 0 0)
(-2586.27 0 0)
(-2589.89 0 0)
(-2593.51 0 0)
(-2597.13 0 0)
(-2600.76 0 0)
(-2604.38 0 0)
(-2608 0 0)
(-2611.62 0 0)
(-2615.24 0 0)
(-2618.86 0 0)
(-2622.48 0 0)
(-2626.1 0 0)
(-2629.72 0 0)
(-2633.34 0 0)
(-2636.96 0 0)
(-2640.58 0 0)
(-2644.2 0 0)
(-2647.82 0 0)
(-2651.44 0 0)
(-2655.06 0 0)
(-2658.68 0 0)
(-2662.3 0 0)
(-2665.92 0 0)
(-2669.54 0 0)
(-2673.16 0 0)
(-2676.78 0 0)
(-2680.4 0 0)
(-2684.01 0 0)
(-2687.63 0 0)
(-2691.25 0 0)
(-2694.87 0 0)
(-2698.49 0 0)
(-2702.11 0 0)
(-2705.73 0 0)
(-2709.35 0 0)
(-2712.96 0 0)
(-2716.58 0 0)
(-2720.2 0 0)
(-2723.82 0 0)
(-2727.44 0 0)
(-2731.06 0 0)
(-2734.67 0 0)
(-2738.29 0 0)
(-2741.91 0 0)
(-2745.53 0 0)
(-2749.15 0 0)
(-2752.76 0 0)
(-2756.38 0 0)
(-2760 0 0)
(-2763.62 0 0)
(-2767.23 0 0)
(-2770.85 0 0)
(-2774.47 0 0)
(-2778.08 0 0)
(-2781.7 0 0)
(-2785.32 0 0)
(-2788.93 0 0)
(-2792.55 0 0)
(-2796.17 0 0)
(-2799.78 0 0)
(-2803.4 0 0)
(-2807.02 0 0)
(-2810.63 0 0)
(-2814.25 0 0)
(-2817.87 0 0)
(-2821.48 0 0)
(-2825.1 0 0)
(-2828.71 0 0)
(-2832.33 0 0)
(-2835.95 0 0)
(-2839.56 0 0)
(-2843.18 0 0)
(-2846.79 0 0)
(-2850.41 0 0)
(-2854.02 0 0)
(-2857.64 0 0)
(-2861.25 0 0)
(-2864.87 0 0)
(-2868.48 0 0)
(-2872.1 0 0)
(-2875.71 0 0)
(-2879.33 0 0)
(-2882.94 0 0)
(-2886.56 0 0)
(-2890.17 0 0)
(-2893.79 0 0)
(-2897.4 0 0)
(-2901.01 0 0)
(-2904.63 0 0)
(-2908.24 0 0)
(-2911.86 0 0)
(-2915.47 0 0)
(-2919.08 0 0)
(-2922.7 0 0)
(-2926.31 0 0)
(-2929.93 0 0)
(-2933.54 0 0)
(-2937.15 0 0)
(-2940.77 0 0)
(-2944.38 0 0)
(-2947.99 0 0)
(-2951.61 0 0)
(-2955.22 0 0)
(-2958.83 0 0)
(-2962.44 0 0)
(-2966.06 0 0)
(-2969.67 0 0)
(-2973.28 0 0)
(-2976.89 0 0)
(-2980.51 0 0)
(-2984.12 0 0)
(-2987.73 0 0)
(-2991.34 0 0)
(-2994.95 0 0)
(-2998.57 0 0)
(-3002.18 0 0)
(-3005.79 0 0)
(-3009.4 0 0)
(-3013.01 0 0)
(-3016.63 0 0)
(-3020.24 0 0)
(-3023.85 0 0)
(-3027.46 0 0)
(-3031.07 0 0)
(-3034.68 0 0)
(-3038.29 0 0)
(-3041.9 0 0)
(-3045.51 0 0)
(-3049.12 0 0)
(-3052.74 0 0)
(-3056.35 0 0)
(-3059.96 0 0)
(-3063.57 0 0)
(-3067.18 0 0)
(-3070.79 0 0)
(-3074.4 0 0)
(-3078.01 0 0)
(-3081.62 0 0)
(-3085.23 0 0)
(-3088.84 0 0)
(-3092.45 0 0)
(-3096.06 0 0)
(-3099.66 0 0)
(-3103.27 0 0)
(-3106.88 0 0)
(-3110.49 0 0)
(-3114.1 0 0)
(-3117.71 0 0)
(-3121.32 0 0)
(-3124.93 0 0)
(-3128.54 0 0)
(-3132.15 0 0)
(-3135.75 0 0)
(-3139.36 0 0)
(-3142.97 0 0)
(-3146.58 0 0)
(-3150.19 0 0)
(-3153.8 0 0)
(-3157.4 0 0)
(-3161.01 0 0)
(-3164.62 0 0)
(-3168.23 0 0)
(-3171.83 0 0)
(-3175.44 0 0)
(-3179.05 0 0)
(-3182.66 0 0)
(-3186.26 0 0)
(-3189.87 0 0)
(-3193.48 0 0)
(-3197.08 0 0)
(-3200.69 0 0)
(-3204.3 0 0)
(-3207.91 0 0)
(-3211.51 0 0)
(-3215.12 0 0)
(-3218.72 0 0)
(-3222.33 0 0)
(-3225.94 0 0)
(-3229.54 0 0)
(-3233.15 0 0)
(-3236.76 0 0)
(-3240.36 0 0)
(-3243.97 0 0)
(-3247.57 0 0)
(-3251.18 0 0)
(-3254.78 0 0)
(-3258.39 0 0)
(-3261.99 0 0)
(-3265.6 0 0)
(-3269.2 0 0)
(-3272.81 0 0)
(-3276.41 0 0)
(-3280.02 0 0)
(-3283.62 0 0)
(-3287.23 0 0)
(-3290.83 0 0)
(-3294.44 0 0)
(-3298.04 0 0)
(-3301.65 0 0)
(-3305.25 0 0)
(-3308.85 0 0)
(-3312.46 0 0)
(-3316.06 0 0)
(-3319.67 0 0)
(-3323.27 0 0)
(-3326.87 0 0)
(-3330.48 0 0)
(-3334.08 0 0)
(-3337.68 0 0)
(-3341.29 0 0)
(-3344.89 0 0)
(-3348.49 0 0)
(-3352.09 0 0)
(-3355.7 0 0)
(-3359.3 0 0)
(-3362.9 0 0)
(-3366.51 0 0)
(-3370.11 0 0)
(-3373.71 0 0)
(-3377.31 0 0)
(-3380.91 0 0)
(-3384.52 0 0)
(-3388.12 0 0)
(-3391.72 0 0)
(-3395.32 0 0)
(-3398.92 0 0)
(-3402.52 0 0)
(-3406.13 0 0)
(-3409.73 0 0)
(-3413.33 0 0)
(-3416.93 0 0)
(-3420.53 0 0)
(-3424.13 0 0)
(-3427.73 0 0)
(-3431.33 0 0)
(-3434.93 0 0)
(-3438.53 0 0)
(-3442.13 0 0)
(-3445.73 0 0)
(-3449.33 0 0)
(-3452.94 0 0)
(-3456.54 0 0)
(-3460.13 0 0)
(-3463.73 0 0)
(-3467.33 0 0)
(-3470.93 0 0)
(-3474.53 0 0)
(-3478.13 0 0)
(-3481.73 0 0)
(-3485.33 0 0)
(-3488.93 0 0)
(-3492.53 0 0)
(-3496.13 0 0)
(-3499.73 0 0)
(-3503.33 0 0)
(-3506.92 0 0)
(-3510.52 0 0)
(-3514.12 0 0)
(-3517.72 0 0)
(-3521.32 0 0)
(-3524.92 0 0)
(-3528.51 0 0)
(-3532.11 0 0)
(-3535.71 0 0)
(-3539.31 0 0)
(-3542.9 0 0)
(-3546.5 0 0)
(-3550.1 0 0)
(-3553.7 0 0)
(-3557.29 0 0)
(-3560.89 0 0)
(-3564.49 0 0)
(-3568.08 0 0)
(-3571.68 0 0)
(-3575.28 0 0)
(-3578.87 0 0)
(-3582.47 0 0)
(-3586.07 0 0)
(-3589.66 0 0)
(-3593.26 0 0)
(-3596.85 0 0)
(-3600.45 0 0)
(-3604.05 0 0)
(-3607.64 0 0)
(-3611.24 0 0)
(-3614.83 0 0)
(-3618.43 0 0)
(-3622.02 0 0)
(-3625.62 0 0)
(-3629.21 0 0)
(-3632.81 0 0)
(-3636.4 0 0)
(-3639.99 0 0)
(-3643.59 0 0)
(-3647.18 0 0)
(-3650.78 0 0)
(-3654.37 0 0)
(-3657.96 0 0)
(-3661.56 0 0)
(-3665.15 0 0)
(-3668.74 0 0)
(-3672.34 0 0)
(-3675.93 0 0)
(-3679.52 0 0)
(-3683.12 0 0)
(-3686.71 0 0)
(-3690.3 0 0)
(-3693.89 0 0)
(-3697.49 0 0)
(-3701.08 0 0)
(-3704.67 0 0)
(-3708.26 0 0)
(-3711.85 0 0)
(-3715.45 0 0)
(-3719.04 0 0)
(-3722.63 0 0)
(-3726.22 0 0)
(-3729.81 0 0)
(-3733.4 0 0)
(-3736.99 0 0)
(-3740.59 0 0)
(-3744.18 0 0)
(-3747.77 0 0)
(-3751.36 0 0)
(-3754.95 0 0)
(-3758.54 0 0)
(-3762.13 0 0)
(-3765.73 0 0)
(-3769.32 0 0)
(-3772.91 0 0)
(-3776.5 0 0)
(-3780.09 0 0)
(-3783.68 0 0)
(-3787.28 0 0)
(-3790.87 0 0)
(-3794.46 0 0)
(-3798.05 0 0)
(-3801.64 0 0)
(-3805.23 0 0)
(-3808.83 0 0)
(-3812.42 0 0)
(-3816.01 0 0)
(-3819.6 0 0)
(-3823.19 0 0)
(-3826.78 0 0)
(-3830.38 0 0)
(-3833.97 0 0)
(-3837.56 0 0)
(-3841.15 0 0)
(-3844.74 0 0)
(-3848.33 0 0)
(-3851.92 0 0)
(-3855.51 0 0)
(-3859.1 0 0)
(-3862.69 0 0)
(-3866.28 0 0)
(-3869.87 0 0)
(-3873.46 0 0)
(-3877.05 0 0)
(-3880.64 0 0)
(-3884.23 0 0)
(-3887.82 0 0)
(-3891.4 0 0)
(-3894.99 0 0)
(-3898.58 0 0)
(-3902.17 0 0)
(-3905.75 0 0)
(-3909.34 0 0)
(-3912.92 0 0)
(-3916.51 0 0)
(-3920.1 0 0)
(-3923.68 0 0)
(-3927.26 0 0)
(-3930.85 0 0)
(-3934.43 0 0)
(-3938.02 0 0)
(-3941.6 0 0)
(-3945.19 0 0)
(-3948.77 0 0)
(-3952.35 0 0)
(-3955.94 0 0)
(-3959.52 0 0)
(-3963.1 0 0)
(-3966.68 0 0)
(-3970.27 0 0)
(-3973.85 0 0)
(-3977.43 0 0)
(-3981.01 0 0)
(-3984.6 0 0)
(-3988.18 0 0)
(-3991.76 0 0)
(-3995.34 0 0)
(-3998.93 0 0)
(-4002.51 0 0)
(-4006.09 0 0)
(-4009.67 0 0)
(-4013.26 0 0)
(-4016.84 0 0)
(-4020.42 0 0)
(-4024 0 0)
(-4027.59 0 0)
(-4031.17 0 0)
(-4034.75 0 0)
(-4038.33 0 0)
(-4041.91 0 0)
(-4045.5 0 0)
(-4049.08 0 0)
(-4052.66 0 0)
(-4056.24 0 0)
(-4059.82 0 0)
(-4063.41 0 0)
(-4066.99 0 0)
(-4070.57 0 0)
(-4074.15 0 0)
(-4077.73 0 0)
(-4081.31 0 0)
(-4084.89 0 0)
(-4088.47 0 0)
(-4092.05 0 0)
(-4095.63 0 0)
(-4099.22 0 0)
(-4102.8 0 0)
(-4106.38 0 0)
(-4109.96 0 0)
(-4113.54 0 0)
(-4117.12 0 0)
(-4120.7 0 0)
(-4124.28 0 0)
(-4127.86 0 0)
(-4131.43 0 0)
(-4135.01 0 0)
(-4138.59 0 0)
(-4142.17 0 0)
(-4145.75 0 0)
(-4149.33 0 0)
(-4152.91 0 0)
(-4156.49 0 0)
(-4160.07 0 0)
(-4163.64 0 0)
(-4167.22 0 0)
(-4170.8 0 0)
(-4174.38 0 0)
(-4177.96 0 0)
(-4181.53 0 0)
(-4185.11 0 0)
(-4188.69 0 0)
(-4192.27 0 0)
(-4195.84 0 0)
(-4199.42 0 0)
(-4203 0 0)
(-4206.57 0 0)
(-4210.15 0 0)
(-4213.73 0 0)
(-4217.3 0 0)
(-4220.88 0 0)
(-4224.46 0 0)
(-4228.03 0 0)
(-4231.61 0 0)
(-4235.19 0 0)
(-4238.76 0 0)
(-4242.34 0 0)
(-4245.91 0 0)
(-4249.49 0 0)
(-4253.06 0 0)
(-4256.64 0 0)
(-4260.21 0 0)
(-4263.79 0 0)
(-4267.36 0 0)
(-4270.94 0 0)
(-4274.51 0 0)
(-4278.09 0 0)
(-4281.66 0 0)
(-4285.23 0 0)
(-4288.81 0 0)
(-4292.38 0 0)
(-4295.96 0 0)
(-4299.53 0 0)
(-4303.1 0 0)
(-4306.68 0 0)
(-4310.25 0 0)
(-4313.82 0 0)
(-4317.4 0 0)
(-4320.97 0 0)
(-4324.54 0 0)
(-4328.12 0 0)
(-4331.69 0 0)
(-4335.26 0 0)
(-4338.83 0 0)
(-4342.41 0 0)
(-4345.98 0 0)
(-4349.55 0 0)
(-4353.12 0 0)
(-4356.69 0 0)
(-4360.27 0 0)
(-4363.84 0 0)
(-4367.41 0 0)
(-4370.98 0 0)
(-4374.55 0 0)
(-4378.12 0 0)
(-4381.69 0 0)
(-4385.26 0 0)
(-4388.83 0 0)
(-4392.4 0 0)
(-4395.97 0 0)
(-4399.55 0 0)
(-4403.12 0 0)
(-4406.69 0 0)
(-4410.25 0 0)
(-4413.82 0 0)
(-4417.39 0 0)
(-4420.96 0 0)
(-4424.53 0 0)
(-4428.1 0 0)
(-4431.67 0 0)
(-4435.24 0 0)
(-4438.81 0 0)
(-4442.38 0 0)
(-4445.95 0 0)
(-4449.51 0 0)
(-4453.08 0 0)
(-4456.65 0 0)
(-4460.22 0 0)
(-4463.79 0 0)
(-4467.36 0 0)
(-4470.92 0 0)
(-4474.49 0 0)
(-4478.06 0 0)
(-4481.62 0 0)
(-4485.19 0 0)
(-4488.76 0 0)
(-4492.33 0 0)
(-4495.89 0 0)
(-4499.46 0 0)
(-4503.03 0 0)
(-4506.59 0 0)
(-4510.16 0 0)
(-4513.72 0 0)
(-4517.29 0 0)
(-4520.86 0 0)
(-4524.42 0 0)
(-4527.99 0 0)
(-4531.55 0 0)
(-4535.12 0 0)
(-4538.68 0 0)
(-4542.25 0 0)
(-4545.81 0 0)
(-4549.38 0 0)
(-4552.94 0 0)
(-4556.51 0 0)
(-4560.07 0 0)
(-4563.64 0 0)
(-4567.2 0 0)
(-4570.77 0 0)
(-4574.33 0 0)
(-4577.89 0 0)
(-4581.46 0 0)
(-4585.02 0 0)
(-4588.58 0 0)
(-4592.15 0 0)
(-4595.71 0 0)
(-4599.27 0 0)
(-4602.84 0 0)
(-4606.4 0 0)
(-4609.96 0 0)
(-4613.52 0 0)
(-4617.09 0 0)
(-4620.65 0 0)
(-4624.21 0 0)
(-4627.77 0 0)
(-4631.34 0 0)
(-4634.9 0 0)
(-4638.46 0 0)
(-4642.02 0 0)
(-4645.58 0 0)
(-4649.14 0 0)
(-4652.7 0 0)
(-4656.27 0 0)
(-4659.83 0 0)
(-4663.39 0 0)
(-4666.95 0 0)
(-4670.51 0 0)
(-4674.07 0 0)
(-4677.63 0 0)
(-4681.19 0 0)
(-4684.75 0 0)
(-4688.31 0 0)
(-4691.87 0 0)
(-4695.43 0 0)
(-4698.99 0 0)
(-4702.55 0 0)
(-4706.1 0 0)
(-4709.66 0 0)
(-4713.22 0 0)
(-4716.78 0 0)
(-4720.34 0 0)
(-4723.9 0 0)
(-4727.46 0 0)
(-4731.01 0 0)
(-4734.57 0 0)
(-4738.13 0 0)
(-4741.69 0 0)
(-4745.25 0 0)
(-4748.8 0 0)
(-4752.36 0 0)
(-4755.92 0 0)
(-4759.48 0 0)
(-4763.03 0 0)
(-4766.59 0 0)
(-4770.15 0 0)
(-4773.7 0 0)
(-4777.26 0 0)
(-4780.82 0 0)
(-4784.37 0 0)
(-4787.93 0 0)
(-4791.48 0 0)
(-4795.04 0 0)
(-4798.59 0 0)
(-4802.15 0 0)
(-4805.71 0 0)
(-4809.26 0 0)
(-4812.82 0 0)
(-4816.37 0 0)
(-4819.93 0 0)
(-4823.48 0 0)
(-4827.03 0 0)
(-4830.59 0 0)
(-4834.14 0 0)
(-4837.7 0 0)
(-4841.25 0 0)
(-4844.8 0 0)
(-4848.36 0 0)
(-4851.91 0 0)
(-4855.46 0 0)
(-4859.02 0 0)
(-4862.57 0 0)
(-4866.12 0 0)
(-4869.68 0 0)
(-4873.23 0 0)
(-4876.78 0 0)
(-4880.33 0 0)
(-4883.89 0 0)
(-4887.44 0 0)
(-4890.99 0 0)
(-4894.54 0 0)
(-4898.09 0 0)
(-4901.65 0 0)
(-4905.2 0 0)
(-4908.75 0 0)
(-4912.3 0 0)
(-4915.85 0 0)
(-4919.4 0 0)
(-4922.95 0 0)
(-4926.5 0 0)
(-4930.05 0 0)
(-4933.6 0 0)
(-4937.15 0 0)
(-4940.7 0 0)
(-4944.25 0 0)
(-4947.8 0 0)
(-4951.35 0 0)
(-4954.9 0 0)
(-4958.45 0 0)
(-4962 0 0)
(-4965.55 0 0)
(-4969.1 0 0)
(-4972.65 0 0)
(-4976.2 0 0)
(-4979.74 0 0)
(-4983.29 0 0)
(-4986.84 0 0)
(-4990.39 0 0)
(-4993.93 0 0)
(-4997.49 0 0)
(-5001.03 0 0)
(-5004.58 0 0)
(-5008.12 0 0)
(-5011.68 0 0)
(-5015.21 0 0)
(-5018.78 0 0)
(-5022.29 0 0)
(-5025.89 0 0)
(-5029.37 0 0)
(-5032.99 0 0)
(-5036.44 0 0)
(-5040.11 0 0)
(-5043.51 0 0)
(-5047.23 0 0)
(-5050.56 0 0)
(-5054.37 0 0)
(-5057.61 0 0)
(-5061.51 0 0)
(-5064.65 0 0)
(-5068.65 0 0)
(-5071.69 0 0)
(-5075.77 0 0)
(-5078.76 0 0)
(-5082.85 0 0)
(-5085.88 0 0)
(-5089.87 0 0)
(-5093.09 0 0)
(-5096.8 0 0)
(-5100.35 0 0)
(-5103.8 0 0)
(-5107.37 0 0)
(-5110.94 0 0)
(-5114.46 0 0)
(-5117.98 0 0)
(-5121.58 0 0)
(-5125.14 0 0)
(-5128.67 0 0)
(-5132.17 0 0)
(-5135.72 0 0)
(-5139.26 0 0)
(-5142.81 0 0)
(-5146.32 0 0)
(-5149.88 0 0)
(-5153.42 0 0)
(-5156.99 0 0)
(-5160.52 0 0)
(-5164.11 0 0)
(-5167.5 0 0)
(-5171.33 0 0)
(-5174.37 0 0)
(-5178.64 0 0)
(-5181.17 0 0)
(-5185.98 0 0)
(-5188.04 0 0)
(-5193.23 0 0)
(-5195.07 0 0)
(-5200.25 0 0)
(-5202.36 0 0)
(-5206.96 0 0)
(-5209.93 0 0)
(-5213.41 0 0)
(-5217.61 0 0)
(-5220 0 0)
(-5225.13 0 0)
(-5226.68 0 0)
(-5232.42 0 0)
(-5233.79 0 0)
(-5239.26 0 0)
(-5241.34 0 0)
(-5245.62 0 0)
(-5249.22 0 0)
(-5251.89 0 0)
(-5257 0 0)
(-5258.45 0 0)
(-5264.33 0 0)
(-5265.46 0 0)
(-5271.22 0 0)
(-5273.12 0 0)
(-5277.48 0 0)
(-5281.06 0 0)
(-5283.65 0 0)
(-5288.88 0 0)
(-5290.22 0 0)
(-5296.16 0 0)
(-5297.25 0 0)
(-5303.04 0 0)
(-5304.97 0 0)
(-5309.24 0 0)
(-5312.97 0 0)
(-5315.31 0 0)
(-5320.92 0 0)
(-5321.78 0 0)
(-5328.16 0 0)
(-5329.05 0 0)
(-5334.57 0 0)
(-5337.25 0 0)
(-5340.38 0 0)
(-5345.5 0 0)
(-5346.47 0 0)
(-5353.14 0 0)
(-5353.57 0 0)
(-5359.51 0 0)
(-5361.75 0 0)
(-5365.15 0 0)
(-5370.26 0 0)
(-5371.11 0 0)
(-5377.96 0 0)
(-5378.18 0 0)
(-5384.28 0 0)
(-5386.6 0 0)
(-5389.68 0 0)
(-5395.18 0 0)
(-5395.6 0 0)
(-5402.73 0 0)
(-5403.02 0 0)
(-5408.67 0 0)
(-5411.71 0 0)
(-5413.99 0 0)
(-5420.24 0 0)
(-5420.16 0 0)
(-5427.28 0 0)
(-5428.09 0 0)
(-5432.94 0 0)
(-5436.87 0 0)
(-5438.27 0 0)
(-5445.12 0 0)
(-5444.97 0 0)
(-5451.65 0 0)
(-5453.33 0 0)
(-5456.88 0 0)
(-5462.26 0 0)
(-5462.54 0 0)
(-5469.9 0 0)
(-5470 0 0)
(-5475.58 0 0)
(-5479.05 0 0)
(-5480.53 0 0)
(-5487.69 0 0)
(-5487 0 0)
(-5494.06 0 0)
(-5495.86 0 0)
(-5498.73 0 0)
(-5505.14 0 0)
(-5504.41 0 0)
(-5512.24 0 0)
(-5512.77 0 0)
(-5516.96 0 0)
(-5522.46 0 0)
(-5522.02 0 0)
(-5530.17 0 0)
(-5529.87 0 0)
(-5535.2 0 0)
(-5539.53 0 0)
(-5539.91 0 0)
(-5547.85 0 0)
(-5547.1 0 0)
(-5553.41 0 0)
(-5556.55 0 0)
(-5557.84 0 0)
(-5565.51 0 0)
(-5564.41 0 0)
(-5571.48 0 0)
(-5573.69 0 0)
(-5575.8 0 0)
(-5583 0 0)
(-5581.82 0 0)
(-5589.46 0 0)
(-5590.88 0 0)
(-5593.69 0 0)
(-5600.58 0 0)
(-5599.24 0 0)
(-5607.35 0 0)
(-5608.28 0 0)
(-5611.36 0 0)
(-5618.23 0 0)
(-5616.72 0 0)
(-5625.03 0 0)
(-5625.86 0 0)
(-5628.91 0 0)
(-5635.89 0 0)
(-5634.3 0 0)
(-5642.61 0 0)
(-5643.52 0 0)
(-5646.39 0 0)
(-5653.54 0 0)
(-5651.92 0 0)
(-5660.04 0 0)
(-5661.3 0 0)
(-5663.87 0 0)
(-5671.14 0 0)
(-5669.6 0 0)
(-5677.49 0 0)
(-5679.05 0 0)
(-5681.28 0 0)
(-5688.86 0 0)
(-5687.12 0 0)
(-5694.94 0 0)
(-5696.98 0 0)
(-5698.38 0 0)
(-5706.81 0 0)
(-5704.71 0 0)
(-5712.03 0 0)
(-5715.32 0 0)
(-5715.31 0 0)
(-5724.53 0 0)
(-5722.77 0 0)
(-5728.71 0 0)
(-5733.72 0 0)
(-5732.57 0 0)
(-5741.73 0 0)
(-5741.16 0 0)
(-5745.44 0 0)
(-5751.74 0 0)
(-5750.19 0 0)
(-5758.83 0 0)
(-5759.38 0 0)
(-5762.33 0 0)
(-5769.8 0 0)
(-5767.68 0 0)
(-5775.88 0 0)
(-5777.95 0 0)
(-5778.82 0 0)
(-5787.88 0 0)
(-5785.64 0 0)
(-5792.21 0 0)
(-5796.95 0 0)
(-5795.5 0 0)
(-5805.23 0 0)
(-5804.42 0 0)
(-5808.14 0 0)
(-5815.65 0 0)
(-5813.02 0 0)
(-5821.68 0 0)
(-5823.59 0 0)
(-5824.4 0 0)
(-5833.49 0 0)
(-5831.35 0 0)
(-5837.78 0 0)
(-5842.51 0 0)
(-5841.28 0 0)
(-5850.7 0 0)
(-5850.07 0 0)
(-5853.8 0 0)
(-5861.24 0 0)
(-5858.57 0 0)
(-5867.28 0 0)
(-5869.43 0 0)
(-5869.57 0 0)
(-5879.41 0 0)
(-5877.11 0 0)
(-5882.63 0 0)
(-5889.05 0 0)
(-5886.39 0 0)
(-5895.81 0 0)
(-5896.93 0 0)
(-5898.09 0 0)
(-5907.23 0 0)
(-5904.95 0 0)
(-5911.3 0 0)
(-5916.37 0 0)
(-5914.76 0 0)
(-5924.16 0 0)
(-5924.24 0 0)
(-5926.72 0 0)
(-5935.22 0 0)
(-5932.55 0 0)
(-5939.82 0 0)
(-5944.23 0 0)
(-5942.62 0 0)
(-5952.43 0 0)
(-5952.2 0 0)
(-5954.62 0 0)
(-5963.35 0 0)
(-5960.66 0 0)
(-5967.59 0 0)
(-5972.45 0 0)
(-5970.68 0 0)
(-5980.14 0 0)
(-5980.6 0 0)
(-5982.45 0 0)
(-5991.21 0 0)
(-5989.06 0 0)
(-5995.21 0 0)
(-6000.6 0 0)
(-5998.84 0 0)
(-6007.8 0 0)
(-6008.96 0 0)
(-6010.18 0 0)
(-6019.26 0 0)
(-6017.36 0 0)
(-6022.58 0 0)
(-6029.22 0 0)
(-6026.73 0 0)
(-6035.12 0 0)
(-6038.05 0 0)
(-6037.46 0 0)
(-6046.91 0 0)
(-6046.56 0 0)
(-6049.38 0 0)
(-6057.45 0 0)
(-6055.56 0 0)
(-6061.84 0 0)
(-6066.81 0 0)
(-6065.58 0 0)
(-6074.05 0 0)
(-6075.51 0 0)
(-6076.72 0 0)
(-6085.43 0 0)
(-6084.24 0 0)
(-6088.61 0 0)
(-6095.74 0 0)
(-6093.63 0 0)
(-6100.7 0 0)
(-6105.14 0 0)
(-6104.01 0 0)
(-6112.43 0 0)
(-6114.06 0 0)
(-6115.3 0 0)
(-6123.42 0 0)
(-6123.06 0 0)
(-6127.18 0 0)
(-6133.59 0 0)
(-6132.54 0 0)
(-6139.19 0 0)
(-6143.11 0 0)
(-6142.77 0 0)
(-6150.89 0 0)
(-6152.3 0 0)
(-6153.72 0 0)
(-6161.96 0 0)
(-6161.58 0 0)
(-6165.18 0 0)
(-6172.29 0 0)
(-6171.26 0 0)
(-6176.85 0 0)
(-6181.98 0 0)
(-6181.5 0 0)
(-6188.45 0 0)
(-6191.25 0 0)
(-6192.28 0 0)
(-6199.76 0 0)
(-6200.43 0 0)
(-6203.45 0 0)
(-6210.59 0 0)
(-6209.86 0 0)
(-6214.79 0 0)
(-6220.9 0 0)
(-6219.79 0 0)
(-6226.11 0 0)
(-6230.71 0 0)
(-6230.24 0 0)
(-6237.32 0 0)
(-6240.19 0 0)
(-6241.13 0 0)
(-6248.3 0 0)
(-6249.58 0 0)
(-6252.33 0 0)
(-6258.98 0 0)
(-6259.08 0 0)
(-6263.62 0 0)
(-6269.38 0 0)
(-6268.91 0 0)
(-6274.83 0 0)
(-6279.48 0 0)
(-6279.15 0 0)
(-6285.89 0 0)
(-6289.31 0 0)
(-6289.8 0 0)
(-6296.78 0 0)
(-6298.97 0 0)
(-6300.75 0 0)
(-6307.49 0 0)
(-6308.61 0 0)
(-6311.85 0 0)
(-6318.03 0 0)
(-6318.36 0 0)
(-6322.93 0 0)
(-6328.41 0 0)
(-6328.36 0 0)
(-6333.93 0 0)
(-6338.57 0 0)
(-6338.67 0 0)
(-6344.85 0 0)
(-6348.51 0 0)
(-6349.24 0 0)
(-6355.7 0 0)
(-6358.34 0 0)
(-6359.94 0 0)
(-6366.47 0 0)
(-6368.18 0 0)
(-6370.71 0 0)
(-6377.12 0 0)
(-6378.1 0 0)
(-6381.52 0 0)
(-6387.6 0 0)
(-6388.17 0 0)
(-6392.36 0 0)
(-6397.88 0 0)
(-6398.39 0 0)
(-6403.22 0 0)
(-6408.02 0 0)
(-6408.7 0 0)
(-6414.1 0 0)
(-6418.09 0 0)
(-6419.07 0 0)
(-6424.95 0 0)
(-6428.15 0 0)
(-6429.5 0 0)
(-6435.7 0 0)
(-6438.25 0 0)
(-6440.01 0 0)
(-6446.31 0 0)
(-6448.39 0 0)
(-6450.61 0 0)
(-6456.81 0 0)
(-6458.53 0 0)
(-6461.31 0 0)
(-6467.23 0 0)
(-6468.67 0 0)
(-6472.04 0 0)
(-6477.6 0 0)
(-6478.84 0 0)
(-6482.77 0 0)
(-6487.96 0 0)
(-6489.03 0 0)
(-6493.47 0 0)
(-6498.32 0 0)
(-6499.26 0 0)
(-6504.1 0 0)
(-6508.68 0 0)
(-6509.61 0 0)
(-6514.63 0 0)
(-6518.94 0 0)
(-6520.1 0 0)
(-6525.18 0 0)
(-6529.1 0 0)
(-6530.58 0 0)
(-6535.83 0 0)
(-6539.23 0 0)
(-6540.98 0 0)
(-6546.51 0 0)
(-6549.47 0 0)
(-6551.3 0 0)
(-6557.06 0 0)
(-6559.87 0 0)
(-6561.68 0 0)
(-6567.42 0 0)
(-6570.26 0 0)
(-6572.26 0 0)
(-6577.74 0 0)
(-6580.45 0 0)
(-6582.92 0 0)
(-6588.22 0 0)
(-6590.55 0 0)
(-6593.4 0 0)
(-6598.83 0 0)
(-6600.83 0 0)
(-6603.67 0 0)
(-6609.32 0 0)
(-6611.31 0 0)
(-6614.04 0 0)
(-6619.57 0 0)
(-6621.77 0 0)
(-6624.63 0 0)
(-6629.79 0 0)
(-6632.04 0 0)
(-6635.25 0 0)
(-6640.23 0 0)
(-6642.2 0 0)
(-6645.67 0 0)
(-6650.81 0 0)
(-6652.54 0 0)
(-6655.92 0 0)
(-6661.22 0 0)
(-6663.11 0 0)
(-6666.27 0 0)
(-6671.4 0 0)
(-6673.58 0 0)
(-6676.85 0 0)
(-6681.67 0 0)
(-6683.79 0 0)
(-6687.38 0 0)
(-6692.18 0 0)
(-6694.04 0 0)
(-6697.65 0 0)
(-6702.68 0 0)
(-6704.57 0 0)
(-6707.86 0 0)
(-6712.95 0 0)
(-6715.13 0 0)
(-6718.33 0 0)
(-6723.14 0 0)
(-6725.44 0 0)
(-6728.89 0 0)
(-6733.56 0 0)
(-6735.68 0 0)
(-6739.17 0 0)
(-6744.1 0 0)
(-6746.17 0 0)
(-6749.34 0 0)
(-6754.39 0 0)
(-6756.74 0 0)
(-6759.77 0 0)
(-6764.57 0 0)
(-6767.11 0 0)
(-6770.25 0 0)
(-6774.96 0 0)
(-6777.42 0 0)
(-6780.52 0 0)
(-6785.42 0 0)
(-6787.89 0 0)
(-6790.77 0 0)
(-6795.69 0 0)
(-6798.39 0 0)
(-6801.17 0 0)
(-6805.94 0 0)
(-6808.8 0 0)
(-6811.53 0 0)
(-6816.31 0 0)
(-6819.21 0 0)
(-6821.83 0 0)
(-6826.6 0 0)
(-6829.68 0 0)
(-6832.22 0 0)
(-6836.84 0 0)
(-6840.09 0 0)
(-6842.59 0 0)
(-6847.18 0 0)
(-6850.51 0 0)
(-6852.87 0 0)
(-6857.46 0 0)
(-6861 0 0)
(-6863.27 0 0)
(-6867.6 0 0)
(-6871.41 0 0)
(-6873.76 0 0)
(-6877.9 0 0)
(-6881.72 0 0)
(-6884.08 0 0)
(-6888.25 0 0)
(-6892.18 0 0)
(-6894.42 0 0)
(-6898.39 0 0)
(-6902.63 0 0)
(-6904.94 0 0)
(-6908.56 0 0)
(-6912.91 0 0)
(-6915.42 0 0)
(-6918.91 0 0)
(-6923.18 0 0)
(-6925.78 0 0)
(-6929.21 0 0)
(-6933.61 0 0)
(-6936.19 0 0)
(-6939.32 0 0)
(-6943.94 0 0)
(-6946.8 0 0)
(-6949.6 0 0)
(-6954.02 0 0)
(-6957.23 0 0)
(-6960.08 0 0)
(-6964.33 0 0)
(-6967.53 0 0)
(-6970.28 0 0)
(-6974.7 0 0)
(-6978.09 0 0)
(-6980.53 0 0)
(-6984.76 0 0)
(-6988.59 0 0)
(-6991.08 0 0)
(-6994.88 0 0)
(-6998.82 0 0)
(-7001.49 0 0)