/*--------------------------------*- C++ -*----------------------------------*\
  =========                 |
  \\      /  F ield         | OpenFOAM: The Open Source CFD Toolbox
   \\    /   O peration     | Website:  https://openfoam.org
    \\  /    A nd           | Version:  9
     \\/     M anipulation  |
\*---------------------------------------------------------------------------*/
FoamFile
{
    format      ascii;
    class       volScalarField;
    location    "0.022";
    object      rho_0;
}
// * * * * * * * * * * * * * * * * * * * * * * * * * * * * * * * * * * * * * //

dimensions      [1 -3 0 0 0 0 0];

internalField   nonuniform List<scalar> 
10000
(
0.465471
0.46546
0.465444
0.465428
0.465413
0.465398
0.465382
0.465365
0.46535
0.465336
0.465322
0.465308
0.465292
0.465275
0.465257
0.46524
0.465225
0.465212
0.465202
0.465194
0.465187
0.465182
0.465178
0.465175
0.465171
0.465168
0.465165
0.465163
0.46516
0.465158
0.465156
0.465153
0.465151
0.465148
0.465146
0.465144
0.465141
0.465139
0.465136
0.465134
0.465131
0.465129
0.465127
0.465124
0.465122
0.465119
0.465117
0.465114
0.465112
0.465109
0.465107
0.465104
0.465102
0.465099
0.465097
0.465095
0.465092
0.46509
0.465087
0.465085
0.465082
0.46508
0.465077
0.465075
0.465072
0.46507
0.465067
0.465065
0.465062
0.46506
0.465057
0.465055
0.465052
0.46505
0.465047
0.465045
0.465042
0.46504
0.465037
0.465035
0.465032
0.46503
0.465027
0.465025
0.465022
0.46502
0.465017
0.465015
0.465012
0.465009
0.465007
0.465004
0.465002
0.464999
0.464997
0.464994
0.464992
0.464989
0.464987
0.464984
0.464981
0.464979
0.464976
0.464974
0.464971
0.464969
0.464966
0.464963
0.464961
0.464958
0.464956
0.464953
0.464951
0.464948
0.464945
0.464943
0.46494
0.464938
0.464935
0.464932
0.46493
0.464927
0.464925
0.464922
0.464919
0.464917
0.464914
0.464912
0.464909
0.464906
0.464904
0.464901
0.464899
0.464896
0.464893
0.464891
0.464888
0.464885
0.464883
0.46488
0.464877
0.464875
0.464872
0.46487
0.464867
0.464864
0.464862
0.464859
0.464856
0.464854
0.464851
0.464848
0.464846
0.464843
0.46484
0.464838
0.464835
0.464832
0.46483
0.464827
0.464824
0.464822
0.464819
0.464816
0.464814
0.464811
0.464808
0.464805
0.464803
0.4648
0.464797
0.464795
0.464792
0.464789
0.464787
0.464784
0.464781
0.464778
0.464776
0.464773
0.46477
0.464768
0.464765
0.464762
0.464759
0.464757
0.464754
0.464751
0.464749
0.464746
0.464743
0.46474
0.464738
0.464735
0.464732
0.464729
0.464727
0.464724
0.464721
0.464718
0.464716
0.464713
0.46471
0.464707
0.464705
0.464702
0.464699
0.464696
0.464693
0.464691
0.464688
0.464685
0.464682
0.46468
0.464677
0.464674
0.464671
0.464668
0.464666
0.464663
0.46466
0.464657
0.464654
0.464652
0.464649
0.464646
0.464643
0.46464
0.464638
0.464635
0.464632
0.464629
0.464626
0.464623
0.464621
0.464618
0.464615
0.464612
0.464609
0.464606
0.464604
0.464601
0.464598
0.464595
0.464592
0.464589
0.464587
0.464584
0.464581
0.464578
0.464575
0.464572
0.464569
0.464567
0.464564
0.464561
0.464558
0.464555
0.464552
0.464549
0.464546
0.464544
0.464541
0.464538
0.464535
0.464532
0.464529
0.464526
0.464523
0.46452
0.464518
0.464515
0.464512
0.464509
0.464506
0.464503
0.4645
0.464497
0.464494
0.464491
0.464488
0.464486
0.464483
0.46448
0.464477
0.464474
0.464471
0.464468
0.464465
0.464462
0.464459
0.464456
0.464453
0.46445
0.464447
0.464444
0.464442
0.464439
0.464436
0.464433
0.46443
0.464427
0.464424
0.464421
0.464418
0.464415
0.464412
0.464409
0.464406
0.464403
0.4644
0.464397
0.464394
0.464391
0.464388
0.464385
0.464382
0.464379
0.464376
0.464373
0.46437
0.464367
0.464364
0.464361
0.464358
0.464355
0.464352
0.464349
0.464346
0.464343
0.46434
0.464337
0.464334
0.464331
0.464328
0.464325
0.464322
0.464319
0.464316
0.464313
0.46431
0.464307
0.464304
0.464301
0.464297
0.464294
0.464291
0.464288
0.464285
0.464282
0.464279
0.464276
0.464273
0.46427
0.464267
0.464264
0.464261
0.464258
0.464255
0.464252
0.464248
0.464245
0.464242
0.464239
0.464236
0.464233
0.46423
0.464227
0.464224
0.464221
0.464218
0.464214
0.464211
0.464208
0.464205
0.464202
0.464199
0.464196
0.464193
0.46419
0.464186
0.464183
0.46418
0.464177
0.464174
0.464171
0.464168
0.464164
0.464161
0.464158
0.464155
0.464152
0.464149
0.464146
0.464142
0.464139
0.464136
0.464133
0.46413
0.464127
0.464124
0.46412
0.464117
0.464114
0.464111
0.464108
0.464104
0.464101
0.464098
0.464095
0.464092
0.464089
0.464085
0.464082
0.464079
0.464076
0.464073
0.464069
0.464066
0.464063
0.46406
0.464057
0.464053
0.46405
0.464047
0.464044
0.464041
0.464037
0.464034
0.464031
0.464028
0.464024
0.464021
0.464018
0.464015
0.464012
0.464008
0.464005
0.464002
0.463999
0.463995
0.463992
0.463989
0.463986
0.463982
0.463979
0.463976
0.463973
0.463969
0.463966
0.463963
0.463959
0.463956
0.463953
0.46395
0.463946
0.463943
0.46394
0.463937
0.463933
0.46393
0.463927
0.463923
0.46392
0.463917
0.463914
0.46391
0.463907
0.463904
0.4639
0.463897
0.463894
0.46389
0.463887
0.463884
0.46388
0.463877
0.463874
0.46387
0.463867
0.463864
0.46386
0.463857
0.463854
0.46385
0.463847
0.463844
0.46384
0.463837
0.463834
0.46383
0.463827
0.463824
0.46382
0.463817
0.463814
0.46381
0.463807
0.463804
0.4638
0.463797
0.463793
0.46379
0.463787
0.463783
0.46378
0.463777
0.463773
0.46377
0.463766
0.463763
0.46376
0.463756
0.463753
0.463749
0.463746
0.463743
0.463739
0.463736
0.463732
0.463729
0.463726
0.463722
0.463719
0.463715
0.463712
0.463708
0.463705
0.463702
0.463698
0.463695
0.463691
0.463688
0.463684
0.463681
0.463678
0.463674
0.463671
0.463667
0.463664
0.46366
0.463657
0.463653
0.46365
0.463647
0.463643
0.46364
0.463636
0.463633
0.463629
0.463626
0.463622
0.463619
0.463615
0.463612
0.463608
0.463605
0.463601
0.463598
0.463594
0.463591
0.463587
0.463584
0.46358
0.463577
0.463573
0.46357
0.463566
0.463563
0.463559
0.463556
0.463552
0.463549
0.463545
0.463542
0.463538
0.463535
0.463531
0.463528
0.463524
0.463521
0.463517
0.463513
0.46351
0.463506
0.463503
0.463499
0.463496
0.463492
0.463489
0.463485
0.463481
0.463478
0.463474
0.463471
0.463467
0.463464
0.46346
0.463457
0.463453
0.463449
0.463446
0.463442
0.463439
0.463435
0.463431
0.463428
0.463424
0.463421
0.463417
0.463413
0.46341
0.463406
0.463403
0.463399
0.463395
0.463392
0.463388
0.463385
0.463381
0.463377
0.463374
0.46337
0.463366
0.463363
0.463359
0.463356
0.463352
0.463348
0.463345
0.463341
0.463337
0.463334
0.46333
0.463326
0.463323
0.463319
0.463316
0.463312
0.463308
0.463305
0.463301
0.463297
0.463294
0.46329
0.463286
0.463283
0.463279
0.463275
0.463271
0.463268
0.463264
0.46326
0.463257
0.463253
0.463249
0.463246
0.463242
0.463238
0.463235
0.463231
0.463227
0.463223
0.46322
0.463216
0.463212
0.463209
0.463205
0.463201
0.463197
0.463194
0.46319
0.463186
0.463182
0.463179
0.463175
0.463171
0.463168
0.463164
0.46316
0.463156
0.463153
0.463149
0.463145
0.463141
0.463138
0.463134
0.46313
0.463126
0.463122
0.463119
0.463115
0.463111
0.463107
0.463104
0.4631
0.463096
0.463092
0.463089
0.463085
0.463081
0.463077
0.463073
0.46307
0.463066
0.463062
0.463058
0.463054
0.463051
0.463047
0.463043
0.463039
0.463035
0.463031
0.463028
0.463024
0.46302
0.463016
0.463012
0.463009
0.463005
0.463001
0.462997
0.462993
0.462989
0.462986
0.462982
0.462978
0.462974
0.46297
0.462966
0.462962
0.462959
0.462955
0.462951
0.462947
0.462943
0.462939
0.462935
0.462932
0.462928
0.462924
0.46292
0.462916
0.462912
0.462908
0.462904
0.4629
0.462897
0.462893
0.462889
0.462885
0.462881
0.462877
0.462873
0.462869
0.462865
0.462861
0.462858
0.462854
0.46285
0.462846
0.462842
0.462838
0.462834
0.46283
0.462826
0.462822
0.462818
0.462814
0.46281
0.462807
0.462803
0.462799
0.462795
0.462791
0.462787
0.462783
0.462779
0.462775
0.462771
0.462767
0.462763
0.462759
0.462755
0.462751
0.462747
0.462743
0.462739
0.462735
0.462731
0.462727
0.462723
0.462719
0.462715
0.462711
0.462707
0.462703
0.462699
0.462695
0.462691
0.462687
0.462683
0.462679
0.462675
0.462671
0.462667
0.462663
0.462659
0.462655
0.462651
0.462647
0.462643
0.462639
0.462635
0.462631
0.462627
0.462623
0.462619
0.462615
0.462611
0.462607
0.462603
0.462599
0.462595
0.462591
0.462587
0.462582
0.462578
0.462574
0.46257
0.462566
0.462562
0.462558
0.462554
0.46255
0.462546
0.462542
0.462538
0.462534
0.46253
0.462525
0.462521
0.462517
0.462513
0.462509
0.462505
0.462501
0.462497
0.462493
0.462489
0.462484
0.46248
0.462476
0.462472
0.462468
0.462464
0.46246
0.462456
0.462451
0.462447
0.462443
0.462439
0.462435
0.462431
0.462427
0.462423
0.462418
0.462414
0.46241
0.462406
0.462402
0.462398
0.462393
0.462389
0.462385
0.462381
0.462377
0.462373
0.462368
0.462364
0.46236
0.462356
0.462352
0.462348
0.462343
0.462339
0.462335
0.462331
0.462327
0.462322
0.462318
0.462314
0.46231
0.462306
0.462301
0.462297
0.462293
0.462289
0.462285
0.46228
0.462276
0.462272
0.462268
0.462263
0.462259
0.462255
0.462251
0.462247
0.462242
0.462238
0.462234
0.46223
0.462225
0.462221
0.462217
0.462213
0.462208
0.462204
0.4622
0.462196
0.462191
0.462187
0.462183
0.462179
0.462174
0.46217
0.462166
0.462161
0.462157
0.462153
0.462149
0.462144
0.46214
0.462136
0.462131
0.462127
0.462123
0.462119
0.462114
0.46211
0.462106
0.462101
0.462097
0.462093
0.462088
0.462084
0.46208
0.462075
0.462071
0.462067
0.462063
0.462058
0.462054
0.46205
0.462045
0.462041
0.462036
0.462032
0.462028
0.462023
0.462019
0.462015
0.46201
0.462006
0.462002
0.461997
0.461993
0.461989
0.461984
0.46198
0.461976
0.461971
0.461967
0.461962
0.461958
0.461954
0.461949
0.461945
0.46194
0.461936
0.461932
0.461927
0.461923
0.461919
0.461914
0.46191
0.461905
0.461901
0.461897
0.461892
0.461888
0.461883
0.461879
0.461874
0.46187
0.461866
0.461861
0.461857
0.461852
0.461848
0.461843
0.461839
0.461835
0.46183
0.461826
0.461821
0.461817
0.461812
0.461808
0.461803
0.461799
0.461795
0.46179
0.461786
0.461781
0.461777
0.461772
0.461768
0.461763
0.461759
0.461754
0.46175
0.461745
0.461741
0.461736
0.461732
0.461727
0.461723
0.461718
0.461714
0.461709
0.461705
0.4617
0.461696
0.461691
0.461687
0.461682
0.461678
0.461673
0.461669
0.461664
0.46166
0.461655
0.461651
0.461646
0.461642
0.461637
0.461633
0.461628
0.461623
0.461619
0.461614
0.46161
0.461605
0.461601
0.461596
0.461592
0.461587
0.461583
0.461578
0.461573
0.461569
0.461564
0.46156
0.461555
0.461551
0.461546
0.461541
0.461537
0.461532
0.461528
0.461523
0.461518
0.461514
0.461509
0.461505
0.4615
0.461495
0.461491
0.461486
0.461482
0.461477
0.461472
0.461468
0.461463
0.461459
0.461454
0.461449
0.461445
0.46144
0.461435
0.461431
0.461426
0.461422
0.461417
0.461412
0.461408
0.461403
0.461398
0.461394
0.461389
0.461384
0.46138
0.461375
0.46137
0.461366
0.461361
0.461356
0.461352
0.461347
0.461342
0.461338
0.461333
0.461328
0.461324
0.461319
0.461314
0.46131
0.461305
0.4613
0.461295
0.461291
0.461286
0.461281
0.461277
0.461272
0.461267
0.461263
0.461258
0.461253
0.461248
0.461244
0.461239
0.461234
0.46123
0.461225
0.46122
0.461215
0.461211
0.461206
0.461201
0.461196
0.461192
0.461187
0.461182
0.461177
0.461173
0.461168
0.461163
0.461158
0.461154
0.461149
0.461144
0.461139
0.461135
0.46113
0.461125
0.46112
0.461115
0.461111
0.461106
0.461101
0.461096
0.461091
0.461087
0.461082
0.461077
0.461072
0.461067
0.461063
0.461058
0.461053
0.461048
0.461043
0.461039
0.461034
0.461029
0.461024
0.461019
0.461015
0.46101
0.461005
0.461
0.460995
0.46099
0.460986
0.460981
0.460976
0.460971
0.460966
0.460961
0.460956
0.460952
0.460947
0.460942
0.460937
0.460932
0.460927
0.460922
0.460918
0.460913
0.460908
0.460903
0.460898
0.460893
0.460888
0.460883
0.460879
0.460874
0.460869
0.460864
0.460859
0.460854
0.460849
0.460844
0.460839
0.460834
0.46083
0.460825
0.46082
0.460815
0.46081
0.460805
0.4608
0.460795
0.46079
0.460785
0.46078
0.460775
0.46077
0.460765
0.460761
0.460756
0.460751
0.460746
0.460741
0.460736
0.460731
0.460726
0.460721
0.460716
0.460711
0.460706
0.460701
0.460696
0.460691
0.460686
0.460681
0.460676
0.460671
0.460666
0.460661
0.460656
0.460651
0.460646
0.460641
0.460636
0.460631
0.460626
0.460621
0.460616
0.460611
0.460606
0.460601
0.460596
0.460591
0.460586
0.460581
0.460576
0.460571
0.460566
0.460561
0.460556
0.460551
0.460546
0.460541
0.460536
0.460531
0.460526
0.460521
0.460516
0.460511
0.460506
0.460501
0.460496
0.46049
0.460485
0.46048
0.460475
0.46047
0.460465
0.46046
0.460455
0.46045
0.460445
0.46044
0.460435
0.46043
0.460424
0.460419
0.460414
0.460409
0.460404
0.460399
0.460394
0.460389
0.460384
0.460379
0.460373
0.460368
0.460363
0.460358
0.460353
0.460348
0.460343
0.460338
0.460333
0.460327
0.460322
0.460317
0.460312
0.460307
0.460302
0.460297
0.460291
0.460286
0.460281
0.460276
0.460271
0.460266
0.46026
0.460255
0.46025
0.460245
0.46024
0.460235
0.460229
0.460224
0.460219
0.460214
0.460209
0.460204
0.460198
0.460193
0.460188
0.460183
0.460178
0.460172
0.460167
0.460162
0.460157
0.460152
0.460146
0.460141
0.460136
0.460131
0.460126
0.46012
0.460115
0.46011
0.460105
0.460099
0.460094
0.460089
0.460084
0.460079
0.460073
0.460068
0.460063
0.460058
0.460052
0.460047
0.460042
0.460037
0.460031
0.460026
0.460021
0.460015
0.46001
0.460005
0.46
0.459994
0.459989
0.459984
0.459979
0.459973
0.459968
0.459963
0.459957
0.459952
0.459947
0.459942
0.459936
0.459931
0.459926
0.45992
0.459915
0.45991
0.459904
0.459899
0.459894
0.459888
0.459883
0.459878
0.459873
0.459867
0.459862
0.459857
0.459851
0.459846
0.459841
0.459835
0.45983
0.459824
0.459819
0.459814
0.459809
0.459803
0.459798
0.459792
0.459787
0.459781
0.459777
0.459771
0.459766
0.45976
0.459755
0.459749
0.459744
0.459738
0.459734
0.459728
0.459723
0.459717
0.459712
0.459706
0.459701
0.459695
0.459691
0.459684
0.45968
0.459674
0.459669
0.459663
0.459658
0.459652
0.459647
0.459641
0.459636
0.45963
0.459625
0.45962
0.459614
0.459609
0.459603
0.459598
0.459592
0.459588
0.459581
0.459577
0.459571
0.459566
0.45956
0.459554
0.459549
0.459543
0.459538
0.459532
0.459528
0.459521
0.459516
0.459511
0.459505
0.4595
0.459494
0.459489
0.459483
0.459478
0.459472
0.459467
0.459461
0.459456
0.459451
0.459445
0.45944
0.459433
0.459429
0.459423
0.459418
0.459412
0.459406
0.459401
0.459395
0.45939
0.459384
0.459379
0.459373
0.459368
0.459362
0.459356
0.459351
0.459345
0.45934
0.459334
0.459329
0.459323
0.459317
0.459313
0.459306
0.459301
0.459295
0.45929
0.459285
0.459278
0.459274
0.459267
0.459262
0.459256
0.459251
0.459246
0.459239
0.459235
0.459228
0.459223
0.459218
0.459212
0.459207
0.4592
0.459195
0.459189
0.459184
0.459178
0.459172
0.459167
0.459161
0.459156
0.45915
0.459144
0.459139
0.459133
0.459128
0.459122
0.459116
0.459111
0.459105
0.4591
0.459094
0.459088
0.459083
0.459076
0.459072
0.459065
0.45906
0.459054
0.459048
0.459043
0.459037
0.459032
0.459026
0.45902
0.459015
0.459009
0.459003
0.458998
0.458992
0.458987
0.45898
0.458975
0.458969
0.458963
0.458958
0.458952
0.458947
0.458941
0.458935
0.45893
0.458923
0.458918
0.458912
0.458906
0.458901
0.458895
0.458889
0.458884
0.458877
0.458872
0.458866
0.458861
0.458855
0.458849
0.458844
0.458837
0.458832
0.458826
0.45882
0.458815
0.458809
0.458803
0.458798
0.458791
0.458786
0.45878
0.458774
0.458769
0.458762
0.458757
0.458751
0.458745
0.45874
0.458733
0.458728
0.458722
0.458716
0.458711
0.458704
0.458699
0.458693
0.458687
0.458682
0.458676
0.45867
0.458664
0.458658
0.458653
0.458647
0.458641
0.458636
0.458629
0.458624
0.458618
0.458611
0.458606
0.4586
0.458594
0.458589
0.458582
0.458577
0.458571
0.458565
0.45856
0.458553
0.458548
0.458542
0.458535
0.45853
0.458524
0.458518
0.458513
0.458506
0.458501
0.458495
0.458489
0.458483
0.458477
0.458471
0.458466
0.458459
0.458454
0.458448
0.458441
0.458436
0.45843
0.458424
0.458418
0.458412
0.458407
0.4584
0.458394
0.458389
0.458382
0.458377
0.458371
0.458364
0.458359
0.458353
0.458347
0.458341
0.458335
0.458329
0.458324
0.458317
0.458312
0.458305
0.458299
0.458294
0.458287
0.458282
0.458276
0.458269
0.458264
0.458258
0.458251
0.458246
0.45824
0.458234
0.458228
0.458222
0.458216
0.45821
0.458204
0.458198
0.458192
0.458186
0.45818
0.458174
0.458168
0.458162
0.458156
0.45815
0.458144
0.458138
0.458132
0.458126
0.45812
0.458114
0.458108
0.458102
0.458096
0.458089
0.458084
0.458078
0.458071
0.458066
0.458059
0.458053
0.458048
0.458041
0.458035
0.45803
0.458023
0.458017
0.458011
0.458005
0.457999
0.457993
0.457987
0.457981
0.457975
0.457969
0.457963
0.457956
0.45795
0.457944
0.457938
0.457932
0.457926
0.45792
0.457914
0.457908
0.457901
0.457896
0.457889
0.457883
0.457877
0.457871
0.457865
0.457859
0.457853
0.457847
0.457841
0.457834
0.457828
0.457822
0.457816
0.45781
0.457804
0.457797
0.457792
0.457785
0.457779
0.457773
0.457767
0.457761
0.457755
0.457748
0.457742
0.457736
0.45773
0.457724
0.457718
0.457711
0.457705
0.457699
0.457693
0.457687
0.45768
0.457674
0.457668
0.457662
0.457656
0.45765
0.457643
0.457637
0.457631
0.457624
0.457618
0.457612
0.457606
0.4576
0.457594
0.457587
0.457581
0.457575
0.457569
0.457563
0.457556
0.45755
0.457544
0.457537
0.457531
0.457525
0.457519
0.457513
0.457506
0.4575
0.457494
0.457488
0.457481
0.457475
0.457469
0.457462
0.457456
0.45745
0.457444
0.457437
0.457431
0.457425
0.457419
0.457412
0.457406
0.4574
0.457393
0.457387
0.457381
0.457375
0.457368
0.457362
0.457356
0.457349
0.457343
0.457337
0.45733
0.457324
0.457318
0.457311
0.457305
0.457299
0.457292
0.457286
0.45728
0.457273
0.457267
0.457261
0.457254
0.457248
0.457242
0.457235
0.457229
0.457223
0.457216
0.45721
0.457204
0.457197
0.457191
0.457185
0.457178
0.457172
0.457165
0.457159
0.457153
0.457146
0.45714
0.457134
0.457127
0.457121
0.457114
0.457108
0.457102
0.457095
0.457089
0.457082
0.457076
0.45707
0.457063
0.457057
0.45705
0.457044
0.457038
0.457031
0.457025
0.457018
0.457012
0.457005
0.456999
0.456992
0.456986
0.45698
0.456973
0.456967
0.45696
0.456954
0.456947
0.456941
0.456934
0.456928
0.456922
0.456915
0.456909
0.456902
0.456896
0.456889
0.456883
0.456876
0.45687
0.456863
0.456857
0.45685
0.456844
0.456837
0.456831
0.456824
0.456818
0.456811
0.456805
0.456798
0.456792
0.456785
0.456779
0.456772
0.456766
0.456759
0.456753
0.456746
0.45674
0.456733
0.456727
0.45672
0.456714
0.456707
0.456701
0.456694
0.456688
0.456681
0.456674
0.456668
0.456661
0.456655
0.456648
0.456642
0.456635
0.456629
0.456622
0.456615
0.456609
0.456602
0.456596
0.456589
0.456583
0.456576
0.456569
0.456563
0.456556
0.45655
0.456543
0.456536
0.45653
0.456523
0.456517
0.45651
0.456503
0.456497
0.45649
0.456484
0.456477
0.45647
0.456464
0.456457
0.45645
0.456444
0.456437
0.456431
0.456424
0.456417
0.456411
0.456404
0.456397
0.456391
0.456384
0.456377
0.456371
0.456364
0.456357
0.456351
0.456344
0.456337
0.456331
0.456324
0.456317
0.456311
0.456304
0.456297
0.456291
0.456284
0.456277
0.456271
0.456264
0.456257
0.456251
0.456244
0.456237
0.45623
0.456224
0.456217
0.45621
0.456204
0.456197
0.45619
0.456184
0.456177
0.45617
0.456163
0.456157
0.45615
0.456143
0.456136
0.45613
0.456123
0.456116
0.456109
0.456103
0.456096
0.456089
0.456082
0.456076
0.456069
0.456062
0.456055
0.456049
0.456042
0.456035
0.456028
0.456022
0.456015
0.456008
0.456001
0.455994
0.455988
0.455981
0.455974
0.455967
0.45596
0.455954
0.455947
0.45594
0.455933
0.455926
0.45592
0.455913
0.455906
0.455899
0.455892
0.455886
0.455879
0.455872
0.455865
0.455858
0.455851
0.455845
0.455838
0.455831
0.455824
0.455817
0.45581
0.455804
0.455797
0.45579
0.455783
0.455776
0.455769
0.455762
0.455756
0.455749
0.455742
0.455735
0.455728
0.455721
0.455714
0.455707
0.455701
0.455694
0.455687
0.45568
0.455673
0.455666
0.455659
0.455652
0.455645
0.455638
0.455632
0.455625
0.455618
0.455611
0.455604
0.455597
0.45559
0.455583
0.455576
0.455569
0.455562
0.455555
0.455549
0.455542
0.455535
0.455528
0.455521
0.455514
0.455507
0.4555
0.455493
0.455486
0.455479
0.455472
0.455465
0.455458
0.455451
0.455444
0.455437
0.45543
0.455423
0.455416
0.455409
0.455402
0.455395
0.455388
0.455381
0.455374
0.455367
0.45536
0.455353
0.455346
0.455339
0.455332
0.455325
0.455318
0.455311
0.455304
0.455297
0.45529
0.455283
0.455276
0.455269
0.455262
0.455255
0.455248
0.455241
0.455234
0.455227
0.45522
0.455213
0.455206
0.455199
0.455192
0.455185
0.455178
0.455171
0.455164
0.455156
0.455149
0.455142
0.455135
0.455128
0.455121
0.455114
0.455107
0.4551
0.455093
0.455086
0.455079
0.455072
0.455064
0.455057
0.45505
0.455043
0.455036
0.455029
0.455022
0.455015
0.455008
0.455
0.454993
0.454986
0.454979
0.454972
0.454965
0.454958
0.454951
0.454943
0.454936
0.454929
0.454922
0.454915
0.454908
0.454901
0.454893
0.454886
0.454879
0.454872
0.454865
0.454858
0.45485
0.454843
0.454836
0.454829
0.454822
0.454815
0.454807
0.4548
0.454793
0.454786
0.454779
0.454772
0.454764
0.454757
0.45475
0.454743
0.454736
0.454728
0.454721
0.454714
0.454707
0.454699
0.454692
0.454685
0.454678
0.454671
0.454663
0.454656
0.454649
0.454642
0.454634
0.454627
0.45462
0.454613
0.454605
0.454598
0.454591
0.454584
0.454576
0.454569
0.454562
0.454555
0.454547
0.45454
0.454533
0.454526
0.454518
0.454511
0.454504
0.454497
0.454489
0.454482
0.454475
0.454467
0.45446
0.454453
0.454446
0.454438
0.454431
0.454424
0.454416
0.454409
0.454402
0.454394
0.454387
0.45438
0.454372
0.454365
0.454358
0.45435
0.454343
0.454336
0.454328
0.454321
0.454314
0.454306
0.454299
0.454292
0.454284
0.454277
0.45427
0.454262
0.454255
0.454248
0.45424
0.454233
0.454226
0.454218
0.454211
0.454203
0.454196
0.454189
0.454181
0.454174
0.454167
0.454159
0.454152
0.454144
0.454137
0.45413
0.454122
0.454115
0.454107
0.4541
0.454093
0.454085
0.454078
0.45407
0.454063
0.454055
0.454048
0.454041
0.454033
0.454026
0.454018
0.454011
0.454003
0.453996
0.453989
0.453981
0.453974
0.453966
0.453959
0.453951
0.453944
0.453936
0.453929
0.453922
0.453914
0.453907
0.453899
0.453892
0.453884
0.453877
0.453869
0.453862
0.453854
0.453847
0.453839
0.453832
0.453824
0.453817
0.453809
0.453802
0.453794
0.453787
0.453779
0.453772
0.453764
0.453757
0.453749
0.453742
0.453734
0.453727
0.453719
0.453712
0.453704
0.453697
0.453689
0.453681
0.453674
0.453666
0.453659
0.453651
0.453644
0.453636
0.453629
0.453621
0.453614
0.453606
0.453598
0.453591
0.453583
0.453576
0.453568
0.453561
0.453553
0.453545
0.453538
0.45353
0.453523
0.453515
0.453507
0.4535
0.453492
0.453485
0.453477
0.453469
0.453462
0.453454
0.453447
0.453439
0.453431
0.453424
0.453416
0.453409
0.453401
0.453393
0.453386
0.453378
0.45337
0.453363
0.453355
0.453347
0.45334
0.453332
0.453325
0.453317
0.453309
0.453302
0.453294
0.453286
0.453279
0.453271
0.453263
0.453256
0.453248
0.45324
0.453233
0.453225
0.453217
0.45321
0.453202
0.453194
0.453186
0.453179
0.453171
0.453163
0.453156
0.453148
0.45314
0.453133
0.453125
0.453117
0.453109
0.453102
0.453094
0.453086
0.453079
0.453071
0.453063
0.453055
0.453048
0.45304
0.453032
0.453024
0.453017
0.453009
0.453001
0.452993
0.452986
0.452978
0.45297
0.452962
0.452955
0.452947
0.452939
0.452931
0.452924
0.452916
0.452908
0.4529
0.452892
0.452885
0.452877
0.452869
0.452861
0.452854
0.452846
0.452838
0.45283
0.452822
0.452815
0.452807
0.452799
0.452791
0.452783
0.452776
0.452768
0.45276
0.452752
0.452744
0.452736
0.452729
0.452721
0.452713
0.452705
0.452697
0.452689
0.452682
0.452674
0.452666
0.452658
0.45265
0.452642
0.452634
0.452627
0.452619
0.452611
0.452603
0.452595
0.452587
0.452579
0.452571
0.452564
0.452556
0.452548
0.45254
0.452532
0.452524
0.452516
0.452508
0.4525
0.452493
0.452485
0.452477
0.452469
0.452461
0.452453
0.452445
0.452437
0.452429
0.452421
0.452413
0.452406
0.452398
0.45239
0.452382
0.452374
0.452366
0.452358
0.45235
0.452342
0.452334
0.452326
0.452318
0.45231
0.452302
0.452294
0.452286
0.452278
0.45227
0.452262
0.452254
0.452247
0.452239
0.452231
0.452223
0.452215
0.452207
0.452199
0.452191
0.452183
0.452175
0.452167
0.452159
0.452151
0.452143
0.452135
0.452127
0.452119
0.452111
0.452103
0.452095
0.452087
0.452079
0.45207
0.452062
0.452054
0.452046
0.452038
0.45203
0.452022
0.452014
0.452006
0.451998
0.45199
0.451982
0.451974
0.451966
0.451958
0.45195
0.451942
0.451934
0.451926
0.451918
0.451909
0.451901
0.451893
0.451885
0.451877
0.451869
0.451861
0.451853
0.451845
0.451837
0.451829
0.451821
0.451812
0.451804
0.451796
0.451788
0.45178
0.451772
0.451764
0.451756
0.451748
0.451739
0.451731
0.451723
0.451715
0.451707
0.451699
0.451691
0.451682
0.451674
0.451666
0.451658
0.45165
0.451642
0.451634
0.451625
0.451617
0.451609
0.451601
0.451593
0.451585
0.451576
0.451568
0.45156
0.451552
0.451544
0.451536
0.451527
0.451519
0.451511
0.451503
0.451495
0.451486
0.451478
0.45147
0.451462
0.451454
0.451445
0.451437
0.451429
0.451421
0.451413
0.451404
0.451396
0.451388
0.45138
0.451371
0.451363
0.451355
0.451347
0.451338
0.45133
0.451322
0.451314
0.451306
0.451297
0.451289
0.451281
0.451272
0.451264
0.451256
0.451248
0.451239
0.451231
0.451223
0.451215
0.451206
0.451198
0.45119
0.451182
0.451173
0.451165
0.451157
0.451148
0.45114
0.451132
0.451123
0.451115
0.451107
0.451099
0.45109
0.451082
0.451074
0.451065
0.451057
0.451049
0.45104
0.451032
0.451024
0.451015
0.451007
0.450999
0.45099
0.450982
0.450974
0.450965
0.450957
0.450949
0.45094
0.450932
0.450924
0.450915
0.450907
0.450898
0.45089
0.450882
0.450873
0.450865
0.450857
0.450848
0.45084
0.450831
0.450823
0.450815
0.450806
0.450798
0.450789
0.450781
0.450773
0.450764
0.450756
0.450747
0.450739
0.450731
0.450722
0.450714
0.450705
0.450697
0.450688
0.45068
0.450672
0.450663
0.450655
0.450646
0.450638
0.450629
0.450621
0.450613
0.450604
0.450596
0.450587
0.450579
0.45057
0.450562
0.450553
0.450545
0.450536
0.450528
0.45052
0.450511
0.450503
0.450494
0.450486
0.450477
0.450469
0.45046
0.450452
0.450443
0.450435
0.450426
0.450418
0.450409
0.450401
0.450392
0.450384
0.450375
0.450367
0.450358
0.45035
0.450341
0.450333
0.450324
0.450316
0.450307
0.450298
0.45029
0.450281
0.450273
0.450264
0.450256
0.450247
0.450239
0.45023
0.450222
0.450213
0.450204
0.450196
0.450187
0.450179
0.45017
0.450162
0.450153
0.450144
0.450136
0.450127
0.450119
0.45011
0.450102
0.450093
0.450084
0.450076
0.450067
0.450059
0.45005
0.450041
0.450033
0.450024
0.450016
0.450007
0.449998
0.44999
0.449981
0.449972
0.449964
0.449955
0.449947
0.449938
0.449929
0.449921
0.449912
0.449903
0.449895
0.449886
0.449877
0.449869
0.44986
0.449851
0.449843
0.449834
0.449825
0.449817
0.449808
0.449799
0.449791
0.449782
0.449773
0.449765
0.449756
0.449747
0.449739
0.44973
0.449721
0.449713
0.449704
0.449695
0.449687
0.449678
0.449669
0.44966
0.449652
0.449643
0.449634
0.449626
0.449617
0.449608
0.449599
0.449591
0.449582
0.449573
0.449564
0.449556
0.449547
0.449538
0.44953
0.449521
0.449512
0.449503
0.449495
0.449486
0.449477
0.449468
0.449459
0.449451
0.449442
0.449433
0.449424
0.449416
0.449407
0.449398
0.449389
0.44938
0.449372
0.449363
0.449354
0.449345
0.449337
0.449328
0.449319
0.44931
0.449301
0.449293
0.449284
0.449275
0.449266
0.449257
0.449248
0.44924
0.449231
0.449222
0.449213
0.449204
0.449195
0.449187
0.449178
0.449169
0.44916
0.449151
0.449142
0.449134
0.449125
0.449116
0.449107
0.449098
0.449089
0.44908
0.449072
0.449063
0.449054
0.449045
0.449036
0.449027
0.449018
0.449009
0.449
0.448992
0.448983
0.448974
0.448965
0.448956
0.448947
0.448938
0.448929
0.44892
0.448911
0.448903
0.448894
0.448885
0.448876
0.448867
0.448858
0.448849
0.44884
0.448831
0.448822
0.448813
0.448804
0.448795
0.448786
0.448778
0.448769
0.44876
0.448751
0.448742
0.448733
0.448724
0.448715
0.448706
0.448697
0.448688
0.448679
0.44867
0.448661
0.448652
0.448643
0.448634
0.448625
0.448616
0.448607
0.448598
0.448589
0.44858
0.448571
0.448562
0.448553
0.448544
0.448535
0.448526
0.448517
0.448508
0.448499
0.44849
0.448481
0.448472
0.448463
0.448454
0.448445
0.448436
0.448427
0.448418
0.448409
0.4484
0.448391
0.448382
0.448372
0.448363
0.448354
0.448345
0.448336
0.448327
0.448318
0.448309
0.4483
0.448291
0.448282
0.448273
0.448264
0.448255
0.448245
0.448236
0.448227
0.448218
0.448209
0.4482
0.448191
0.448182
0.448173
0.448164
0.448154
0.448145
0.448136
0.448127
0.448118
0.448109
0.4481
0.448091
0.448082
0.448072
0.448063
0.448054
0.448045
0.448036
0.448027
0.448018
0.448008
0.447999
0.44799
0.447981
0.447972
0.447963
0.447953
0.447944
0.447935
0.447926
0.447917
0.447908
0.447898
0.447889
0.44788
0.447871
0.447862
0.447853
0.447843
0.447834
0.447825
0.447816
0.447807
0.447797
0.447788
0.447779
0.44777
0.44776
0.447751
0.447742
0.447733
0.447724
0.447714
0.447705
0.447696
0.447687
0.447677
0.447668
0.447659
0.44765
0.447641
0.447631
0.447622
0.447613
0.447604
0.447594
0.447585
0.447576
0.447566
0.447557
0.447548
0.447539
0.447529
0.44752
0.447511
0.447502
0.447492
0.447483
0.447474
0.447464
0.447455
0.447446
0.447437
0.447427
0.447418
0.447409
0.447399
0.44739
0.447381
0.447371
0.447362
0.447353
0.447343
0.447334
0.447325
0.447316
0.447306
0.447297
0.447288
0.447278
0.447269
0.44726
0.44725
0.447241
0.447231
0.447222
0.447213
0.447203
0.447194
0.447185
0.447175
0.447166
0.447157
0.447147
0.447138
0.447129
0.447119
0.44711
0.4471
0.447091
0.447082
0.447072
0.447063
0.447053
0.447044
0.447035
0.447025
0.447016
0.447006
0.446997
0.446988
0.446978
0.446969
0.446959
0.44695
0.446941
0.446931
0.446922
0.446912
0.446903
0.446893
0.446884
0.446875
0.446865
0.446856
0.446846
0.446837
0.446827
0.446818
0.446808
0.446799
0.44679
0.44678
0.446771
0.446761
0.446752
0.446742
0.446733
0.446723
0.446714
0.446704
0.446695
0.446685
0.446676
0.446666
0.446657
0.446647
0.446638
0.446628
0.446619
0.446609
0.4466
0.44659
0.446581
0.446571
0.446562
0.446552
0.446543
0.446533
0.446524
0.446514
0.446505
0.446495
0.446486
0.446476
0.446467
0.446457
0.446447
0.446438
0.446428
0.446419
0.446409
0.4464
0.44639
0.446381
0.446371
0.446361
0.446352
0.446342
0.446333
0.446323
0.446314
0.446304
0.446294
0.446285
0.446275
0.446266
0.446256
0.446246
0.446237
0.446227
0.446218
0.446208
0.446199
0.446189
0.446179
0.44617
0.44616
0.44615
0.446141
0.446131
0.446122
0.446112
0.446102
0.446093
0.446083
0.446073
0.446064
0.446054
0.446045
0.446035
0.446025
0.446016
0.446006
0.445996
0.445987
0.445977
0.445967
0.445958
0.445948
0.445938
0.445929
0.445919
0.445909
0.4459
0.44589
0.44588
0.445871
0.445861
0.445851
0.445842
0.445832
0.445822
0.445812
0.445803
0.445793
0.445783
0.445774
0.445764
0.445754
0.445744
0.445735
0.445725
0.445715
0.445706
0.445696
0.445686
0.445676
0.445667
0.445657
0.445647
0.445637