/*--------------------------------*- C++ -*----------------------------------*\
  =========                 |
  \\      /  F ield         | OpenFOAM: The Open Source CFD Toolbox
   \\    /   O peration     | Website:  https://openfoam.org
    \\  /    A nd           | Version:  9
     \\/     M anipulation  |
\*---------------------------------------------------------------------------*/
FoamFile
{
    format      ascii;
    class       volScalarField;
    location    "0.019";
    object      mag(U);
}
// * * * * * * * * * * * * * * * * * * * * * * * * * * * * * * * * * * * * * //

dimensions      [0 1 -1 0 0 0 0];

internalField   nonuniform List<scalar> 
10000
(
1.62546
1.74842
1.82466
1.8974
1.97469
2.05347
2.13181
2.20974
2.28763
2.36559
2.44356
2.52152
2.59947
2.67742
2.75537
2.83333
2.91128
2.98923
3.06719
3.14514
3.2231
3.30105
3.37901
3.45696
3.53492
3.61288
3.69083
3.76879
3.84675
3.92471
4.00267
4.08063
4.15859
4.23655
4.31451
4.39247
4.47043
4.5484
4.62636
4.70432
4.78229
4.86025
4.93822
5.01618
5.09415
5.17211
5.25008
5.32805
5.40601
5.48398
5.56195
5.63992
5.71789
5.79586
5.87383
5.9518
6.02977
6.10774
6.18572
6.26369
6.34166
6.41963
6.49761
6.57558
6.65356
6.73153
6.80951
6.88749
6.96546
7.04344
7.12142
7.1994
7.27738
7.35535
7.43333
7.51131
7.5893
7.66728
7.74526
7.82324
7.90122
7.97921
8.05719
8.13517
8.21316
8.29114
8.36913
8.44711
8.5251
8.60309
8.68107
8.75906
8.83705
8.91504
8.99303
9.07102
9.14901
9.227
9.30499
9.38298
9.46097
9.53896
9.61696
9.69495
9.77294
9.85094
9.92893
10.0069
10.0849
10.1629
10.2409
10.3189
10.3969
10.4749
10.5529
10.6309
10.7089
10.7869
10.8649
10.9429
11.0209
11.0989
11.1769
11.2549
11.3329
11.4109
11.4889
11.5669
11.6449
11.7229
11.8009
11.879
11.957
12.035
12.113
12.191
12.269
12.347
12.425
12.503
12.581
12.659
12.7371
12.8151
12.8931
12.9711
13.0491
13.1271
13.2051
13.2831
13.3612
13.4392
13.5172
13.5952
13.6732
13.7512
13.8293
13.9073
13.9853
14.0633
14.1413
14.2194
14.2974
14.3754
14.4534
14.5314
14.6095
14.6875
14.7655
14.8435
14.9216
14.9996
15.0776
15.1556
15.2337
15.3117
15.3897
15.4678
15.5458
15.6238
15.7018
15.7799
15.8579
15.9359
16.014
16.092
16.17
16.2481
16.3261
16.4041
16.4822
16.5602
16.6382
16.7163
16.7943
16.8723
16.9504
17.0284
17.1064
17.1845
17.2625
17.3406
17.4186
17.4966
17.5747
17.6527
17.7308
17.8088
17.8869
17.9649
18.0429
18.121
18.199
18.2771
18.3551
18.4332
18.5112
18.5893
18.6673
18.7453
18.8234
18.9014
18.9795
19.0575
19.1356
19.2136
19.2917
19.3697
19.4478
19.5259
19.6039
19.682
19.76
19.8381
19.9161
19.9942
20.0722
20.1503
20.2283
20.3064
20.3845
20.4625
20.5406
20.6186
20.6967
20.7748
20.8528
20.9309
21.0089
21.087
21.1651
21.2431
21.3212
21.3992
21.4773
21.5554
21.6334
21.7115
21.7896
21.8676
21.9457
22.0238
22.1018
22.1799
22.258
22.336
22.4141
22.4922
22.5703
22.6483
22.7264
22.8045
22.8825
22.9606
23.0387
23.1168
23.1948
23.2729
23.351
23.4291
23.5071
23.5852
23.6633
23.7414
23.8195
23.8975
23.9756
24.0537
24.1318
24.2099
24.2879
24.366
24.4441
24.5222
24.6003
24.6783
24.7564
24.8345
24.9126
24.9907
25.0688
25.1469
25.2249
25.303
25.3811
25.4592
25.5373
25.6154
25.6935
25.7716
25.8497
25.9277
26.0058
26.0839
26.162
26.2401
26.3182
26.3963
26.4744
26.5525
26.6306
26.7087
26.7868
26.8649
26.943
27.0211
27.0992
27.1773
27.2554
27.3335
27.4116
27.4897
27.5678
27.6459
27.724
27.8021
27.8802
27.9583
28.0364
28.1145
28.1926
28.2707
28.3488
28.4269
28.505
28.5831
28.6612
28.7393
28.8174
28.8955
28.9737
29.0518
29.1299
29.208
29.2861
29.3642
29.4423
29.5204
29.5985
29.6767
29.7548
29.8329
29.911
29.9891
30.0672
30.1453
30.2235
30.3016
30.3797
30.4578
30.5359
30.6141
30.6922
30.7703
30.8484
30.9265
31.0047
31.0828
31.1609
31.239
31.3171
31.3953
31.4734
31.5515
31.6296
31.7078
31.7859
31.864
31.9421
32.0203
32.0984
32.1765
32.2547
32.3328
32.4109
32.489
32.5672
32.6453
32.7234
32.8016
32.8797
32.9578
33.036
33.1141
33.1922
33.2704
33.3485
33.4266
33.5048
33.5829
33.6611
33.7392
33.8173
33.8955
33.9736
34.0517
34.1299
34.208
34.2862
34.3643
34.4425
34.5206
34.5987
34.6769
34.755
34.8332
34.9113
34.9895
35.0676
35.1458
35.2239
35.302
35.3802
35.4583
35.5365
35.6146
35.6928
35.7709
35.8491
35.9272
36.0054
36.0835
36.1617
36.2398
36.318
36.3962
36.4743
36.5525
36.6306
36.7088
36.7869
36.8651
36.9432
37.0214
37.0996
37.1777
37.2559
37.334
37.4122
37.4904
37.5685
37.6467
37.7248
37.803
37.8812
37.9593
38.0375
38.1156
38.1938
38.272
38.3501
38.4283
38.5065
38.5846
38.6628
38.741
38.8191
38.8973
38.9755
39.0537
39.1318
39.21
39.2882
39.3663
39.4445
39.5227
39.6009
39.679
39.7572
39.8354
39.9135
39.9917
40.0699
40.1481
40.2262
40.3044
40.3826
40.4608
40.539
40.6171
40.6953
40.7735
40.8517
40.9299
41.008
41.0862
41.1644
41.2426
41.3208
41.3989
41.4771
41.5553
41.6335
41.7117
41.7899
41.8681
41.9462
42.0244
42.1026
42.1808
42.259
42.3372
42.4154
42.4936
42.5718
42.6499
42.7281
42.8063
42.8845
42.9627
43.0409
43.1191
43.1973
43.2755
43.3537
43.4319
43.5101
43.5883
43.6665
43.7447
43.8229
43.9011
43.9793
44.0575
44.1357
44.2139
44.2921
44.3703
44.4485
44.5267
44.6049
44.6831
44.7613
44.8395
44.9177
44.9959
45.0741
45.1523
45.2305
45.3087
45.3869
45.4651
45.5433
45.6215
45.6997
45.778
45.8562
45.9344
46.0126
46.0908
46.169
46.2472
46.3254
46.4036
46.4819
46.5601
46.6383
46.7165
46.7947
46.8729
46.9512
47.0294
47.1076
47.1858
47.264
47.3422
47.4205
47.4987
47.5769
47.6551
47.7333
47.8116
47.8898
47.968
48.0462
48.1245
48.2027
48.2809
48.3591
48.4373
48.5156
48.5938
48.672
48.7503
48.8285
48.9067
48.9849
49.0632
49.1414
49.2196
49.2979
49.3761
49.4543
49.5325
49.6108
49.689
49.7672
49.8455
49.9237
50.0019
50.0802
50.1584
50.2367
50.3149
50.3931
50.4714
50.5496
50.6278
50.7061
50.7843
50.8626
50.9408
51.019
51.0973
51.1755
51.2538
51.332
51.4102
51.4885
51.5667
51.645
51.7232
51.8015
51.8797
51.958
52.0362
52.1144
52.1927
52.2709
52.3492
52.4274
52.5057
52.5839
52.6622
52.7404
52.8187
52.8969
52.9752
53.0534
53.1317
53.2099
53.2882
53.3665
53.4447
53.523
53.6012
53.6795
53.7577
53.836
53.9142
53.9925
54.0708
54.149
54.2273
54.3055
54.3838
54.4621
54.5403
54.6186
54.6968
54.7751
54.8534
54.9316
55.0099
55.0882
55.1664
55.2447
55.323
55.4012
55.4795
55.5578
55.636
55.7143
55.7926
55.8708
55.9491
56.0274
56.1056
56.1839
56.2622
56.3405
56.4187
56.497
56.5753
56.6535
56.7318
56.8101
56.8884
56.9666
57.0449
57.1232
57.2015
57.2797
57.358
57.4363
57.5146
57.5929
57.6711
57.7494
57.8277
57.906
57.9843
58.0625
58.1408
58.2191
58.2974
58.3757
58.454
58.5322
58.6105
58.6888
58.7671
58.8454
58.9237
59.002
59.0802
59.1585
59.2368
59.3151
59.3934
59.4717
59.55
59.6283
59.7066
59.7849
59.8631
59.9414
60.0197
60.098
60.1763
60.2546
60.3329
60.4112
60.4895
60.5678
60.6461
60.7244
60.8027
60.881
60.9593
61.0376
61.1159
61.1942
61.2725
61.3508
61.4291
61.5074
61.5857
61.664
61.7423
61.8206
61.8989
61.9772
62.0555
62.1338
62.2121
62.2904
62.3687
62.447
62.5254
62.6037
62.682
62.7603
62.8386
62.9169
62.9952
63.0735
63.1518
63.2301
63.3085
63.3868
63.4651
63.5434
63.6217
63.7
63.7783
63.8567
63.935
64.0133
64.0916
64.1699
64.2482
64.3266
64.4049
64.4832
64.5615
64.6398
64.7182
64.7965
64.8748
64.9531
65.0314
65.1098
65.1881
65.2664
65.3447
65.4231
65.5014
65.5797
65.658
65.7364
65.8147
65.893
65.9713
66.0497
66.128
66.2063
66.2847
66.363
66.4413
66.5197
66.598
66.6763
66.7547
66.833
66.9113
66.9897
67.068
67.1463
67.2247
67.303
67.3813
67.4597
67.538
67.6163
67.6947
67.773
67.8514
67.9297
68.008
68.0864
68.1647
68.2431
68.3214
68.3997
68.4781
68.5564
68.6348
68.7131
68.7915
68.8698
68.9481
69.0265
69.1048
69.1832
69.2615
69.3399
69.4182
69.4966
69.5749
69.6533
69.7316
69.81
69.8883
69.9667
70.045
70.1234
70.2017
70.2801
70.3584
70.4368
70.5151
70.5935
70.6718
70.7502
70.8286
70.9069
70.9853
71.0636
71.142
71.2203
71.2987
71.3771
71.4554
71.5338
71.6121
71.6905
71.7689
71.8472
71.9256
72.004
72.0823
72.1607
72.239
72.3174
72.3958
72.4741
72.5525
72.6309
72.7092
72.7876
72.866
72.9443
73.0227
73.1011
73.1794
73.2578
73.3362
73.4146
73.4929
73.5713
73.6497
73.728
73.8064
73.8848
73.9632
74.0415
74.1199
74.1983
74.2767
74.355
74.4334
74.5118
74.5902
74.6686
74.7469
74.8253
74.9037
74.9821
75.0604
75.1388
75.2172
75.2956
75.374
75.4524
75.5307
75.6091
75.6875
75.7659
75.8443
75.9227
76.001
76.0794
76.1578
76.2362
76.3146
76.393
76.4714
76.5498
76.6281
76.7065
76.7849
76.8633
76.9417
77.0201
77.0985
77.1769
77.2553
77.3337
77.4121
77.4905
77.5689
77.6472
77.7256
77.804
77.8824
77.9608
78.0392
78.1176
78.196
78.2744
78.3528
78.4312
78.5096
78.588
78.6664
78.7448
78.8232
78.9016
78.98
79.0584
79.1368
79.2152
79.2936
79.372
79.4505
79.5289
79.6073
79.6857
79.7641
79.8425
79.9209
79.9993
80.0777
80.1561
80.2345
80.3129
80.3914
80.4698
80.5482
80.6266
80.705
80.7834
80.8618
80.9402
81.0187
81.0971
81.1755
81.2539
81.3323
81.4107
81.4891
81.5676
81.646
81.7244
81.8028
81.8812
81.9597
82.0381
82.1165
82.1949
82.2733
82.3518
82.4302
82.5086
82.587
82.6655
82.7439
82.8223
82.9007
82.9792
83.0576
83.136
83.2144
83.2929
83.3713
83.4497
83.5281
83.6066
83.685
83.7634
83.8419
83.9203
83.9987
84.0772
84.1556
84.234
84.3124
84.3909
84.4693
84.5477
84.6262
84.7046
84.7831
84.8615
84.9399
85.0184
85.0968
85.1752
85.2537
85.3321
85.4106
85.489
85.5674
85.6459
85.7243
85.8028
85.8812
85.9596
86.0381
86.1165
86.195
86.2734
86.3519
86.4303
86.5087
86.5872
86.6656
86.7441
86.8225
86.901
86.9794
87.0579
87.1363
87.2148
87.2932
87.3717
87.4501
87.5286
87.607
87.6855
87.7639
87.8424
87.9208
87.9993
88.0777
88.1562
88.2346
88.3131
88.3916
88.47
88.5485
88.6269
88.7054
88.7838
88.8623
88.9408
89.0192
89.0977
89.1761
89.2546
89.333
89.4115
89.49
89.5684
89.6469
89.7254
89.8038
89.8823
89.9607
90.0392
90.1177
90.1961
90.2746
90.3531
90.4315
90.51
90.5885
90.6669
90.7454
90.8239
90.9024
90.9808
91.0593
91.1378
91.2162
91.2947
91.3732
91.4516
91.5301
91.6086
91.6871
91.7655
91.844
91.9225
92.001
92.0794
92.1579
92.2364
92.3149
92.3933
92.4718
92.5503
92.6288
92.7073
92.7857
92.8642
92.9427
93.0212
93.0997
93.1781
93.2566
93.3351
93.4136
93.4921
93.5706
93.649
93.7275
93.806
93.8845
93.963
94.0415
94.12
94.1984
94.2769
94.3554
94.4339
94.5124
94.5909
94.6694
94.7479
94.8264
94.9048
94.9833
95.0618
95.1403
95.2188
95.2973
95.3758
95.4543
95.5328
95.6113
95.6898
95.7683
95.8468
95.9253
96.0038
96.0823
96.1608
96.2393
96.3178
96.3963
96.4748
96.5533
96.6318
96.7103
96.7888
96.8673
96.9458
97.0243
97.1028
97.1813
97.2598
97.3383
97.4168
97.4953
97.5738
97.6523
97.7308
97.8093
97.8878
97.9663
98.0448
98.1233
98.2018
98.2804
98.3589
98.4374
98.5159
98.5944
98.6729
98.7514
98.8299
98.9084
98.9869
99.0655
99.144
99.2225
99.301
99.3795
99.458
99.5365
99.6151
99.6936
99.7721
99.8506
99.9291
100.008
100.086
100.165
100.243
100.322
100.4
100.479
100.557
100.636
100.714
100.793
100.871
100.95
101.028
101.107
101.185
101.264
101.343
101.421
101.5
101.578
101.657
101.735
101.814
101.892
101.971
102.049
102.128
102.206
102.285
102.363
102.442
102.52
102.599
102.678
102.756
102.835
102.913
102.992
103.07
103.149
103.227
103.306
103.384
103.463
103.541
103.62
103.698
103.777
103.856
103.934
104.013
104.091
104.17
104.248
104.327
104.405
104.484
104.562
104.641
104.719
104.798
104.877
104.955
105.034
105.112
105.191
105.269
105.348
105.426
105.505
105.583
105.662
105.741
105.819
105.898
105.976
106.055
106.133
106.212
106.29
106.369
106.447
106.526
106.605
106.683
106.762
106.84
106.919
106.997
107.076
107.154
107.233
107.312
107.39
107.469
107.547
107.626
107.704
107.783
107.861
107.94
108.019
108.097
108.176
108.254
108.333
108.411
108.49
108.569
108.647
108.726
108.804
108.883
108.961
109.04
109.118
109.197
109.276
109.354
109.433
109.511
109.59
109.668
109.747
109.826
109.904
109.983
110.061
110.14
110.218
110.297
110.376
110.454
110.533
110.611
110.69
110.768
110.847
110.926
111.004
111.083
111.161
111.24
111.318
111.397
111.476
111.554
111.633
111.711
111.79
111.868
111.947
112.026
112.104
112.183
112.261
112.34
112.418
112.497
112.576
112.654
112.733
112.811
112.89
112.969
113.047
113.126
113.204
113.283
113.361
113.44
113.519
113.597
113.676
113.754
113.833
113.912
113.99
114.069
114.147
114.226
114.304
114.383
114.462
114.54
114.619
114.697
114.776
114.855
114.933
115.012
115.09
115.169
115.248
115.326
115.405
115.483
115.562
115.641
115.719
115.798
115.876
115.955
116.033
116.112
116.191
116.269
116.348
116.426
116.505
116.584
116.662
116.741
116.819
116.898
116.977
117.055
117.134
117.212
117.291
117.37
117.448
117.527
117.605
117.684
117.763
117.841
117.92
117.998
118.077
118.156
118.234
118.313
118.392
118.47
118.549
118.627
118.706
118.785
118.863
118.942
119.02
119.099
119.178
119.256
119.335
119.413
119.492
119.571
119.649
119.728
119.806
119.885
119.964
120.042
120.121
120.2
120.278
120.357
120.435
120.514
120.593
120.671
120.75
120.828
120.907
120.986
121.064
121.143
121.222
121.3
121.379
121.457
121.536
121.615
121.693
121.772
121.85
121.929
122.008
122.086
122.165
122.244
122.322
122.401
122.479
122.558
122.637
122.715
122.794
122.873
122.951
123.03
123.108
123.187
123.266
123.344
123.423
123.502
123.58
123.659
123.737
123.816
123.895
123.973
124.052
124.131
124.209
124.288
124.366
124.445
124.524
124.602
124.681
124.76
124.838
124.917
124.996
125.074
125.153
125.231
125.31
125.389
125.467
125.546
125.625
125.703
125.782
125.86
125.939
126.018
126.096
126.175
126.254
126.332
126.411
126.49
126.568
126.647
126.725
126.804
126.883
126.961
127.04
127.119
127.197
127.276
127.355
127.433
127.512
127.591
127.669
127.748
127.826
127.905
127.984
128.062
128.141
128.22
128.298
128.377
128.456
128.534
128.613
128.692
128.77
128.849
128.927
129.006
129.085
129.163
129.242
129.321
129.399
129.478
129.557
129.635
129.714
129.793
129.871
129.95
130.029
130.107
130.186
130.264
130.343
130.422
130.5
130.579
130.658
130.736
130.815
130.894
130.972
131.051
131.13
131.208
131.287
131.366
131.444
131.523
131.602
131.68
131.759
131.837
131.916
131.995
132.073
132.152
132.231
132.309
132.388
132.467
132.545
132.624
132.703
132.781
132.86
132.939
133.017
133.096
133.175
133.253
133.332
133.411
133.489
133.568
133.647
133.725
133.804
133.883
133.961
134.04
134.118
134.197
134.276
134.354
134.433
134.512
134.59
134.669
134.748
134.826
134.905
134.984
135.062
135.141
135.22
135.298
135.377
135.456
135.534
135.613
135.692
135.77
135.849
135.928
136.006
136.085
136.164
136.242
136.321
136.4
136.478
136.557
136.636
136.714
136.793
136.872
136.95
137.029
137.108
137.186
137.265
137.344
137.422
137.501
137.58
137.658
137.737
137.816
137.894
137.973
138.052
138.13
138.209
138.288
138.366
138.445
138.524
138.602
138.681
138.76
138.838
138.917
138.996
139.074
139.153
139.232
139.31
139.389
139.468
139.546
139.625
139.704
139.782
139.861
139.94
140.018
140.097
140.176
140.254
140.333
140.412
140.49
140.569
140.648
140.726
140.805
140.884
140.962
141.041
141.12
141.198
141.277
141.356
141.434
141.513
141.592
141.67
141.749
141.828
141.906
141.985
142.064
142.142
142.221
142.3
142.378
142.457
142.536
142.614
142.693
142.772
142.85
142.929
143.008
143.086
143.165
143.244
143.322
143.401
143.48
143.558
143.637
143.716
143.794
143.873
143.952
144.03
144.109
144.188
144.266
144.345
144.424
144.502
144.581
144.66
144.738
144.817
144.896
144.974
145.053
145.132
145.21
145.289
145.368
145.446
145.525
145.604
145.682
145.761
145.84
145.918
145.997
146.076
146.154
146.233
146.312
146.39
146.469
146.548
146.626
146.705
146.784
146.862
146.941
147.02
147.098
147.177
147.256
147.334
147.413
147.492
147.57
147.649
147.728
147.806
147.885
147.964
148.042
148.121
148.2
148.278
148.357
148.436
148.514
148.593
148.672
148.75
148.829
148.908
148.986
149.065
149.144
149.222
149.301
149.38
149.458
149.537
149.616
149.694
149.773
149.852
149.93
150.009
150.088
150.166
150.245
150.324
150.402
150.481
150.56
150.638
150.717
150.796
150.874
150.953
151.032
151.11
151.189
151.268
151.346
151.425
151.503
151.582
151.661
151.739
151.818
151.897
151.975
152.054
152.133
152.211
152.29
152.369
152.447
152.526
152.605
152.683
152.762
152.841
152.919
152.998
153.077
153.155
153.234
153.312
153.391
153.47
153.548
153.627
153.706
153.784
153.863
153.942
154.02
154.099
154.178
154.256
154.335
154.414
154.492
154.571
154.649
154.728
154.807
154.885
154.964
155.043
155.121
155.2
155.279
155.357
155.436
155.514
155.593
155.672
155.75
155.829
155.908
155.986
156.065
156.144
156.222
156.301
156.379
156.458
156.537
156.615
156.694
156.773
156.851
156.93
157.008
157.087
157.166
157.244
157.323
157.402
157.48
157.559
157.637
157.716
157.795
157.873
157.952
158.031
158.109
158.188
158.266
158.345
158.424
158.502
158.581
158.66
158.738
158.817
158.895
158.974
159.053
159.131
159.21
159.288
159.367
159.446
159.524
159.603
159.681
159.76
159.839
159.917
159.996
160.074
160.153
160.232
160.31
160.389
160.467
160.546
160.625
160.703
160.782
160.86
160.939
161.018
161.096
161.175
161.253
161.332
161.411
161.489
161.568
161.646
161.725
161.803
161.882
161.961
162.039
162.118
162.196
162.275
162.354
162.432
162.511
162.589
162.668
162.746
162.825
162.904
162.982
163.061
163.139
163.218
163.296
163.375
163.453
163.532
163.611
163.689
163.768
163.846
163.925
164.003
164.082
164.16
164.239
164.318
164.396
164.475
164.553
164.632
164.71
164.789
164.867
164.946
165.024
165.103
165.182
165.26
165.339
165.417
165.496
165.574
165.653
165.731
165.81
165.888
165.967
166.045
166.124
166.202
166.281
166.359
166.438
166.516
166.595
166.673
166.752
166.83
166.909
166.988
167.066
167.145
167.223
167.302
167.38
167.458
167.537
167.615
167.694
167.772
167.851
167.929
168.008
168.086
168.165
168.243
168.322
168.4
168.479
168.557
168.636
168.714
168.793
168.871
168.95
169.028
169.107
169.185
169.263
169.342
169.42
169.499
169.577
169.656
169.734
169.813
169.891
169.969
170.048
170.126
170.205
170.283
170.362
170.44
170.518
170.597
170.675
170.754
170.832
170.911
170.989
171.067
171.146
171.224
171.303
171.381
171.459
171.538
171.616
171.695
171.773
171.851
171.93
172.008
172.086
172.165
172.243
172.322
172.4
172.478
172.557
172.635
172.713
172.792
172.87
172.948
173.027
173.105
173.184
173.262
173.34
173.419
173.497
173.575
173.654
173.732
173.81
173.888
173.967
174.045
174.123
174.202
174.28
174.358
174.437
174.515
174.593
174.672
174.75
174.828
174.906
174.985
175.063
175.141
175.219
175.298
175.376
175.454
175.533
175.611
175.689
175.767
175.846
175.924
176.002
176.08
176.158
176.237
176.315
176.393
176.471
176.55
176.628
176.706
176.784
176.862
176.941
177.019
177.097
177.175
177.253
177.331
177.41
177.488
177.566
177.644
177.722
177.8
177.879
177.957
178.035
178.113
178.191
178.269
178.347
178.425
178.504
178.582
178.66
178.738
178.816
178.894
178.972
179.05
179.128
179.206
179.284
179.362
179.441
179.519
179.597
179.675
179.753
179.831
179.909
179.987
180.065
180.143
180.221
180.299
180.377
180.455
180.533
180.611
180.689
180.767
180.845
180.923
181.001
181.079
181.156
181.234
181.312
181.39
181.468
181.546
181.624
181.702
181.78
181.858
181.936
182.013
182.091
182.169
182.247
182.325
182.403
182.481
182.558
182.636
182.714
182.792
182.87
182.948
183.025
183.103
183.181
183.259
183.336
183.414
183.492
183.57
183.647
183.725
183.803
183.881
183.958
184.036
184.114
184.191
184.269
184.347
184.424
184.502
184.58
184.657
184.735
184.813
184.89
184.968
185.045
185.123
185.201
185.278
185.356
185.433
185.511
185.588
185.666
185.743
185.821
185.898
185.976
186.053
186.131
186.208
186.286
186.363
186.441
186.518
186.595
186.673
186.75
186.828
186.905
186.982
187.06
187.137
187.214
187.292
187.369
187.446
187.524
187.601
187.678
187.755
187.833
187.91
187.987
188.064
188.142
188.219
188.296
188.373
188.45
188.527
188.605
188.682
188.759
188.836
188.913
188.99
189.067
189.144
189.221
189.298
189.375
189.452
189.529
189.606
189.683
189.76
189.837
189.914
189.991
190.068
190.144
190.221
190.298
190.375
190.452
190.528
190.605
190.682
190.759
190.835
190.912
190.989
191.065
191.142
191.219
191.295
191.372
191.449
191.525
191.602
191.678
191.755
191.831
191.908
191.984
192.061
192.137
192.214
192.29
192.366
192.443
192.519
192.595
192.672
192.748
192.824
192.9
192.977
193.053
193.129
193.205
193.281
193.357
193.433
193.509
193.585
193.661
193.737
193.813
193.889
193.965
194.041
194.117
194.193
194.269
194.345
194.42
194.496
194.572
194.647
194.723
194.799
194.874
194.95
195.026
195.101
195.177
195.252
195.328
195.403
195.478
195.554
195.629
195.704
195.78
195.855
195.93
196.005
196.081
196.156
196.231
196.306
196.381
196.456
196.531
196.606
196.681
196.756
196.83
196.905
196.98
197.055
197.129
197.204
197.279
197.353
197.428
197.502
197.577
197.651
197.726
197.8
197.874
197.949
198.023
198.097
198.171
198.245
198.319
198.393
198.467
198.541
198.615
198.689
198.763
198.837
198.91
198.984
199.058
199.131
199.205
199.278
199.352
199.425
199.498
199.572
199.645
199.718
199.791
199.864
199.937
200.01
200.083
200.156
200.229
200.302
200.374
200.447
200.519
200.592
200.664
200.737
200.809
200.881
200.954
201.026
201.098
201.17
201.242
201.314
201.386
201.458
201.529
201.601
201.672
201.744
201.815
201.887
201.958
202.029
202.1
202.172
202.243
202.314
202.384
202.455
202.526
202.597
202.667
202.738
202.808
202.878
202.949
203.019
203.089
203.159
203.229
203.299
203.368
203.438
203.508
203.577
203.647
203.716
203.785
203.854
203.923
203.992
204.061
204.13
204.199
204.267
204.336
204.404
204.472
204.54
204.609
204.677
204.744
204.812
204.88
204.947
205.015
205.082
205.15
205.217
205.284
205.351
205.418
205.484
205.551
205.617
205.684
205.75
205.816
205.882
205.948
206.014
206.08
206.145
206.211
206.276
206.341
206.406
206.471
206.536
206.601
206.665
206.73
206.794
206.858
206.923
206.986
207.05
207.114
207.178
207.241
207.304
207.367
207.43
207.493
207.556
207.619
207.681
207.744
207.806
207.868
207.93
207.992
208.053
208.115
208.176
208.237
208.299
208.36
208.42
208.481
208.542
208.602
208.662
208.722
208.782
208.842
208.902
208.961
209.02
209.08
209.139
209.198
209.256
209.315
209.374
209.432
209.49
209.548
209.606
209.664
209.721
209.779
209.836
209.893
209.95
210.007
210.064
210.12
210.177
210.233
210.289
210.345
210.401
210.456
210.512
210.567
210.622
210.677
210.732
210.787
210.842
210.896
210.951
211.005
211.059
211.113
211.167
211.22
211.274
211.327
211.38
211.433
211.486
211.539
211.592
211.644
211.697
211.749
211.801
211.853
211.905
211.957
212.008
212.06
212.111
212.162
212.213
212.264
212.315
212.366
212.416
212.467
212.517
212.567
212.618
212.668
212.717
212.767
212.817
212.866
212.916
212.965
213.014
213.064
213.113
213.161
213.21
213.259
213.308
213.356
213.404
213.453
213.501
213.549
213.597
213.645
213.693
213.741
213.788
213.836
213.883
213.931
213.978
214.025
214.072
214.12
214.167
214.213
214.26
214.307
214.354
214.4
214.447
214.493
214.54
214.586
214.633
214.679
214.725
214.771
214.817
214.863
214.909
214.955
215.001
215.046
215.092
215.138
215.183
215.229
215.274
215.32
215.365
215.411
215.456
215.501
215.547
215.592
215.637
215.682
215.727
215.772
215.817
215.862
215.907
215.952
215.997
216.042
216.086
216.131
216.176
216.221
216.265
216.31
216.354
216.399
216.444
216.488
216.533
216.577
216.622
216.666
216.71
216.755
216.799
216.844
216.888
216.932
216.977
217.021
217.065
217.109
217.154
217.198
217.242
217.286
217.33
217.375
217.419
217.463
217.507
217.551
217.595
217.639
217.683
217.727
217.771
217.816
217.86
217.904
217.948
217.992
218.036
218.08
218.124
218.168
218.212
218.256
218.299
218.343
218.387
218.431
218.475
218.519
218.563
218.607
218.651
218.695
218.739
218.783
218.827
218.87
218.914
218.958
219.002
219.046
219.09
219.134
219.178
219.221
219.265
219.309
219.353
219.397
219.441
219.485
219.528
219.572
219.616
219.66
219.704
219.748
219.791
219.835
219.879
219.923
219.967
220.011
220.054
220.098
220.142
220.186
220.23
220.273
220.317
220.361
220.405
220.449
220.493
220.536
220.58
220.624
220.668
220.712
220.755
220.799
220.843
220.887
220.931
220.974
221.018
221.062
221.106
221.15
221.193
221.237
221.281
221.325
221.369
221.412
221.456
221.5
221.544
221.588
221.631
221.675
221.719
221.763
221.807
221.85
221.894
221.938
221.982
222.026
222.069
222.113
222.157
222.201
222.245
222.288
222.332
222.376
222.42
222.464
222.507
222.551
222.595
222.639
222.683
222.726
222.77
222.814
222.858
222.902
222.945
222.989
223.033
223.077
223.121
223.164
223.208
223.252
223.296
223.339
223.383
223.427
223.471
223.515
223.558
223.602
223.646
223.69
223.734
223.777
223.821
223.865
223.909
223.953
223.996
224.04
224.084
224.128
224.172
224.215
224.259
224.303
224.347
224.39
224.434
224.478
224.522
224.566
224.609
224.653
224.697
224.741
224.785
224.828
224.872
224.916
224.96
225.004
225.047
225.091
225.135
225.179
225.223
225.266
225.31
225.354
225.398
225.441
225.485
225.529
225.573
225.617
225.66
225.704
225.748
225.792
225.836
225.879
225.923
225.967
226.011
226.054
226.098
226.142
226.186
226.23
226.273
226.317
226.361
226.405
226.449
226.492
226.536
226.58
226.624
226.668
226.711
226.755
226.799
226.843
226.886
226.93
226.974
227.018
227.062
227.105
227.149
227.193
227.237
227.281
227.324
227.368
227.412
227.456
227.499
227.543
227.587
227.631
227.675
227.718
227.762
227.806
227.85
227.894
227.937
227.981
228.025
228.069
228.112
228.156
228.2
228.244
228.288
228.331
228.375
228.419
228.463
228.507
228.55
228.594
228.638
228.682
228.725
228.769
228.813
228.857
228.901
228.944
228.988
229.032
229.076
229.119
229.163
229.207
229.251
229.295
229.338
229.382
229.426
229.47
229.513
229.557
229.601
229.645
229.689
229.732
229.776
229.82
229.864
229.908
229.951
229.995
230.039
230.083
230.126
230.17
230.214
230.258
230.302
230.345
230.389
230.433
230.477
230.52
230.564
230.608
230.652
230.696
230.739
230.783
230.827
230.871
230.914
230.958
231.002
231.046
231.09
231.133
231.177
231.221
231.265
231.308
231.352
231.396
231.44
231.484
231.527
231.571
231.615
231.659
231.702
231.746
231.79
231.834
231.878
231.921
231.965
232.009
232.053
232.096
232.14
232.184
232.228
232.272
232.315
232.359
232.403
232.447
232.49
232.534
232.578
232.622
232.665
232.709
232.753
232.797
232.841
232.884
232.928
232.972
233.016
233.059
233.103
233.147
233.191
233.235
233.278
233.322
233.366
233.41
233.453
233.497
233.541
233.585
233.628
233.672
233.716
233.76
233.804
233.847
233.891
233.935
233.979
234.022
234.066
234.11
234.154
234.198
234.241
234.285
234.329
234.373
234.416
234.46
234.504
234.548
234.591
234.635
234.679
234.723
234.767
234.81
234.854
234.898
234.942
234.985
235.029
235.073
235.117
235.16
235.204
235.248
235.292
235.335
235.379
235.423
235.467
235.511
235.554
235.598
235.642
235.686
235.729
235.773
235.817
235.861
235.904
235.948
235.992
236.036
236.08
236.123
236.167
236.211
236.255
236.298
236.342
236.386
236.43
236.473
236.517
236.561
236.605
236.648
236.692
236.736
236.78
236.823
236.867
236.911
236.955
236.999
237.042
237.086
237.13
237.174
237.217
237.261
237.305
237.349
237.392
237.436
237.48
237.524
237.567
237.611
237.655
237.699
237.742
237.786
237.83
237.874
237.917
237.961
238.005
238.049
238.093
238.136
238.18
238.224
238.268
238.311
238.355
238.399
238.443
238.486
238.53
238.574
238.618
238.661
238.705
238.749
238.793
238.836
238.88
238.924
238.968
239.011
239.055
239.099
239.143
239.186
239.23
239.274
239.318
239.361
239.405
239.449
239.493
239.536
239.58
239.624
239.668
239.711
239.755
239.799
239.843
239.886
239.93
239.974
240.018
240.061
240.105
240.149
240.193
240.236
240.28
240.324
240.368
240.411
240.455
240.499
240.543
240.586
240.63
240.674
240.718
240.761
240.805
240.849
240.893
240.936
240.98
241.024
241.068
241.111
241.155
241.199
241.243
241.286
241.33
241.374
241.418
241.461
241.505
241.549
241.593
241.636
241.68
241.724
241.768
241.811
241.855
241.899
241.943
241.986
242.03
242.074
242.118
242.161
242.205
242.249
242.293
242.336
242.38
242.424
242.468
242.511
242.555
242.599
242.642
242.686
242.73
242.774
242.817
242.861
242.905
242.949
242.992
243.036
243.08
243.124
243.167
243.211
243.255
243.299
243.342
243.386
243.43
243.474
243.517
243.561
243.605
243.648
243.692
243.736
243.78
243.823
243.867
243.911
243.955
243.998
244.042
244.086
244.13
244.173
244.217
244.261
244.304
244.348
244.392
244.436
244.479
244.523
244.567
244.611
244.654
244.698
244.742
244.786
244.829
244.873
244.917
244.96
245.004
245.048
245.092
245.135
245.179
245.223
245.267
245.31
245.354
245.398
245.441
245.485
245.529
245.573
245.616
245.66
245.704
245.748
245.791
245.835
245.879
245.922
245.966
246.01
246.054
246.097
246.141
246.185
246.229
246.272
246.316
246.36
246.403
246.447
246.491
246.535
246.578
246.622
246.666
246.709
246.753
246.797
246.841
246.884
246.928
246.972
247.015
247.059
247.103
247.147
247.19
247.234
247.278
247.321
247.365
247.409
247.453
247.496
247.54
247.584
247.628
247.671
247.715
247.759
247.802
247.846
247.89
247.934
247.977
248.021
248.065
248.108
248.152
248.196
248.239
248.283
248.327
248.371
248.414
248.458
248.502
248.545
248.589
248.633
248.677
248.72
248.764
248.808
248.851
248.895
248.939
248.983
249.026
249.07
249.114
249.157
249.201
249.245
249.288
249.332
249.376
249.42
249.463
249.507
249.551
249.594
249.638
249.682
249.725
249.769
249.813
249.857
249.9
249.944
249.988
250.031
250.075
250.119
250.162
250.206
250.25
250.294
250.337
250.381
250.425
250.468
250.512
250.556
250.599
250.643
250.687
250.731
250.774
250.818
250.862
250.905
250.949
250.993
251.036
251.08
251.124
251.167
251.211
251.255
251.299
251.342
251.386
251.43
251.473
251.517
251.561
251.604
251.648
251.692
251.735
251.779
251.823
251.866
251.91
251.954
251.998
252.041
252.085
252.129
252.172
252.216
252.26
252.303
252.347
252.391
252.434
252.478
252.522
252.565
252.609
252.653
252.696
252.74
252.784
252.827
252.871
252.915
252.958
253.002
253.046
253.089
253.133
253.177
253.221
253.264
253.308
253.352
253.395
253.439
253.483
253.526
253.57
253.614
253.657
253.701
253.745
253.788
253.832
253.876
253.919
253.963
254.007
254.05
254.094
254.138
254.181
254.225
254.269
254.312
254.356
254.4
254.443
254.487
254.531
254.574
254.618
254.662
254.705
254.749
254.792
254.836
254.88
254.923
254.967
255.011
255.054
255.098
255.142
255.185
255.229
255.273
255.316
255.36
255.404
255.447
255.491
255.535
255.578
255.622
255.666
255.709
255.753