/*--------------------------------*- C++ -*----------------------------------*\
  =========                 |
  \\      /  F ield         | OpenFOAM: The Open Source CFD Toolbox
   \\    /   O peration     | Website:  https://openfoam.org
    \\  /    A nd           | Version:  9
     \\/     M anipulation  |
\*---------------------------------------------------------------------------*/
FoamFile
{
    format      ascii;
    class       volScalarField;
    location    "0.019";
    object      p;
}
// * * * * * * * * * * * * * * * * * * * * * * * * * * * * * * * * * * * * * //

dimensions      [1 -1 -2 0 0 0 0];

internalField   nonuniform List<scalar> 
10000
(
46124.8
46124.5
46124.3
46124.1
46123.9
46123.6
46123.4
46123.2
46123
46122.7
46122.5
46122.3
46122.1
46121.8
46121.6
46121.4
46121.1
46120.9
46120.7
46120.5
46120.2
46120
46119.8
46119.5
46119.3
46119.1
46118.8
46118.6
46118.4
46118.1
46117.9
46117.7
46117.4
46117.2
46117
46116.7
46116.5
46116.3
46116
46115.8
46115.5
46115.3
46115.1
46114.8
46114.6
46114.3
46114.1
46113.8
46113.6
46113.4
46113.1
46112.9
46112.6
46112.4
46112.1
46111.9
46111.6
46111.4
46111.2
46110.9
46110.7
46110.4
46110.2
46109.9
46109.7
46109.4
46109.2
46108.9
46108.6
46108.4
46108.1
46107.9
46107.6
46107.4
46107.1
46106.9
46106.6
46106.4
46106.1
46105.8
46105.6
46105.3
46105.1
46104.8
46104.5
46104.3
46104
46103.8
46103.5
46103.2
46103
46102.7
46102.5
46102.2
46101.9
46101.7
46101.4
46101.1
46100.9
46100.6
46100.3
46100.1
46099.8
46099.5
46099.3
46099
46098.7
46098.4
46098.2
46097.9
46097.6
46097.4
46097.1
46096.8
46096.5
46096.3
46096
46095.7
46095.4
46095.2
46094.9
46094.6
46094.3
46094
46093.8
46093.5
46093.2
46092.9
46092.6
46092.4
46092.1
46091.8
46091.5
46091.2
46091
46090.7
46090.4
46090.1
46089.8
46089.5
46089.2
46089
46088.7
46088.4
46088.1
46087.8
46087.5
46087.2
46086.9
46086.6
46086.4
46086.1
46085.8
46085.5
46085.2
46084.9
46084.6
46084.3
46084
46083.7
46083.4
46083.1
46082.8
46082.5
46082.2
46081.9
46081.6
46081.3
46081
46080.7
46080.4
46080.1
46079.8
46079.5
46079.2
46078.9
46078.6
46078.3
46078
46077.7
46077.4
46077.1
46076.8
46076.5
46076.2
46075.9
46075.6
46075.3
46074.9
46074.6
46074.3
46074
46073.7
46073.4
46073.1
46072.8
46072.5
46072.1
46071.8
46071.5
46071.2
46070.9
46070.6
46070.2
46069.9
46069.6
46069.3
46069
46068.7
46068.3
46068
46067.7
46067.4
46067.1
46066.7
46066.4
46066.1
46065.8
46065.5
46065.1
46064.8
46064.5
46064.2
46063.8
46063.5
46063.2
46062.8
46062.5
46062.2
46061.9
46061.5
46061.2
46060.9
46060.5
46060.2
46059.9
46059.5
46059.2
46058.9
46058.6
46058.2
46057.9
46057.5
46057.2
46056.9
46056.5
46056.2
46055.9
46055.5
46055.2
46054.9
46054.5
46054.2
46053.8
46053.5
46053.2
46052.8
46052.5
46052.1
46051.8
46051.4
46051.1
46050.8
46050.4
46050.1
46049.7
46049.4
46049
46048.7
46048.3
46048
46047.6
46047.3
46046.9
46046.6
46046.2
46045.9
46045.5
46045.2
46044.8
46044.5
46044.1
46043.8
46043.4
46043.1
46042.7
46042.3
46042
46041.6
46041.3
46040.9
46040.6
46040.2
46039.8
46039.5
46039.1
46038.8
46038.4
46038
46037.7
46037.3
46037
46036.6
46036.2
46035.9
46035.5
46035.1
46034.8
46034.4
46034
46033.7
46033.3
46032.9
46032.6
46032.2
46031.8
46031.5
46031.1
46030.7
46030.3
46030
46029.6
46029.2
46028.9
46028.5
46028.1
46027.7
46027.4
46027
46026.6
46026.2
46025.8
46025.5
46025.1
46024.7
46024.3
46024
46023.6
46023.2
46022.8
46022.4
46022.1
46021.7
46021.3
46020.9
46020.5
46020.1
46019.7
46019.4
46019
46018.6
46018.2
46017.8
46017.4
46017
46016.7
46016.3
46015.9
46015.5
46015.1
46014.7
46014.3
46013.9
46013.5
46013.1
46012.7
46012.3
46012
46011.6
46011.2
46010.8
46010.4
46010
46009.6
46009.2
46008.8
46008.4
46008
46007.6
46007.2
46006.8
46006.4
46006
46005.6
46005.2
46004.8
46004.4
46004
46003.6
46003.2
46002.7
46002.3
46001.9
46001.5
46001.1
46000.7
46000.3
45999.9
45999.5
45999.1
45998.7
45998.3
45997.8
45997.4
45997
45996.6
45996.2
45995.8
45995.4
45994.9
45994.5
45994.1
45993.7
45993.3
45992.9
45992.4
45992
45991.6
45991.2
45990.8
45990.4
45989.9
45989.5
45989.1
45988.7
45988.2
45987.8
45987.4
45987
45986.6
45986.1
45985.7
45985.3
45984.9
45984.4
45984
45983.6
45983.1
45982.7
45982.3
45981.9
45981.4
45981
45980.6
45980.1
45979.7
45979.3
45978.8
45978.4
45978
45977.5
45977.1
45976.7
45976.2
45975.8
45975.4
45974.9
45974.5
45974
45973.6
45973.2
45972.7
45972.3
45971.8
45971.4
45971
45970.5
45970.1
45969.6
45969.2
45968.7
45968.3
45967.8
45967.4
45967
45966.5
45966.1
45965.6
45965.2
45964.7
45964.3
45963.8
45963.4
45962.9
45962.5
45962
45961.6
45961.1
45960.7
45960.2
45959.8
45959.3
45958.8
45958.4
45957.9
45957.5
45957
45956.6
45956.1
45955.6
45955.2
45954.7
45954.3
45953.8
45953.3
45952.9
45952.4
45952
45951.5
45951
45950.6
45950.1
45949.6
45949.2
45948.7
45948.2
45947.8
45947.3
45946.8
45946.4
45945.9
45945.4
45945
45944.5
45944
45943.6
45943.1
45942.6
45942.1
45941.7
45941.2
45940.7
45940.3
45939.8
45939.3
45938.8
45938.4
45937.9
45937.4
45936.9
45936.4
45936
45935.5
45935
45934.5
45934
45933.6
45933.1
45932.6
45932.1
45931.6
45931.1
45930.7
45930.2
45929.7
45929.2
45928.7
45928.2
45927.8
45927.3
45926.8
45926.3
45925.8
45925.3
45924.8
45924.3
45923.8
45923.3
45922.9
45922.4
45921.9
45921.4
45920.9
45920.4
45919.9
45919.4
45918.9
45918.4
45917.9
45917.4
45916.9
45916.4
45915.9
45915.4
45914.9
45914.4
45913.9
45913.4
45912.9
45912.4
45911.9
45911.4
45910.9
45910.4
45909.9
45909.4
45908.9
45908.4
45907.9
45907.4
45906.9
45906.4
45905.8
45905.3
45904.8
45904.3
45903.8
45903.3
45902.8
45902.3
45901.8
45901.2
45900.7
45900.2
45899.7
45899.2
45898.7
45898.2
45897.6
45897.1
45896.6
45896.1
45895.6
45895.1
45894.5
45894
45893.5
45893
45892.5
45891.9
45891.4
45890.9
45890.4
45889.8
45889.3
45888.8
45888.3
45887.7
45887.2
45886.7
45886.2
45885.6
45885.1
45884.6
45884
45883.5
45883
45882.5
45881.9
45881.4
45880.9
45880.3
45879.8
45879.3
45878.7
45878.2
45877.7
45877.1
45876.6
45876.1
45875.5
45875
45874.4
45873.9
45873.4
45872.8
45872.3
45871.7
45871.2
45870.7
45870.1
45869.6
45869
45868.5
45867.9
45867.4
45866.9
45866.3
45865.8
45865.2
45864.7
45864.1
45863.6
45863
45862.5
45861.9
45861.4
45860.8
45860.3
45859.7
45859.2
45858.6
45858.1
45857.5
45857
45856.4
45855.9
45855.3
45854.7
45854.2
45853.6
45853.1
45852.5
45852
45851.4
45850.8
45850.3
45849.7
45849.2
45848.6
45848
45847.5
45846.9
45846.4
45845.8
45845.2
45844.7
45844.1
45843.5
45843
45842.4
45841.8
45841.3
45840.7
45840.1
45839.6
45839
45838.4
45837.9
45837.3
45836.7
45836.1
45835.6
45835
45834.4
45833.8
45833.3
45832.7
45832.1
45831.5
45831
45830.4
45829.8
45829.2
45828.7
45828.1
45827.5
45826.9
45826.3
45825.8
45825.2
45824.6
45824
45823.4
45822.8
45822.3
45821.7
45821.1
45820.5
45819.9
45819.3
45818.8
45818.2
45817.6
45817
45816.4
45815.8
45815.2
45814.6
45814
45813.4
45812.9
45812.3
45811.7
45811.1
45810.5
45809.9
45809.3
45808.7
45808.1
45807.5
45806.9
45806.3
45805.7
45805.1
45804.5
45803.9
45803.3
45802.7
45802.1
45801.5
45800.9
45800.3
45799.7
45799.1
45798.5
45797.9
45797.3
45796.7
45796.1
45795.5
45794.9
45794.3
45793.7
45793.1
45792.4
45791.8
45791.2
45790.6
45790
45789.4
45788.8
45788.2
45787.6
45786.9
45786.3
45785.7
45785.1
45784.5
45783.9
45783.3
45782.6
45782
45781.4
45780.8
45780.2
45779.6
45778.9
45778.3
45777.7
45777.1
45776.4
45775.8
45775.2
45774.6
45774
45773.3
45772.7
45772.1
45771.5
45770.8
45770.2
45769.6
45769
45768.3
45767.7
45767.1
45766.4
45765.8
45765.2
45764.5
45763.9
45763.3
45762.6
45762
45761.4
45760.7
45760.1
45759.5
45758.8
45758.2
45757.6
45756.9
45756.3
45755.7
45755
45754.4
45753.7
45753.1
45752.5
45751.8
45751.2
45750.5
45749.9
45749.3
45748.6
45748
45747.3
45746.7
45746
45745.4
45744.7
45744.1
45743.4
45742.8
45742.1
45741.5
45740.8
45740.2
45739.5
45738.9
45738.2
45737.6
45736.9
45736.3
45735.6
45735
45734.3
45733.7
45733
45732.4
45731.7
45731
45730.4
45729.7
45729.1
45728.4
45727.8
45727.1
45726.4
45725.8
45725.1
45724.4
45723.8
45723.1
45722.5
45721.8
45721.1
45720.5
45719.8
45719.1
45718.5
45717.8
45717.1
45716.5
45715.8
45715.1
45714.5
45713.8
45713.1
45712.4
45711.8
45711.1
45710.4
45709.8
45709.1
45708.4
45707.7
45707.1
45706.4
45705.7
45705
45704.4
45703.7
45703
45702.3
45701.6
45701
45700.3
45699.6
45698.9
45698.2
45697.6
45696.9
45696.2
45695.5
45694.8
45694.1
45693.5
45692.8
45692.1
45691.4
45690.7
45690
45689.3
45688.6
45688
45687.3
45686.6
45685.9
45685.2
45684.5
45683.8
45683.1
45682.4
45681.7
45681
45680.3
45679.6
45679
45678.3
45677.6
45676.9
45676.2
45675.5
45674.8
45674.1
45673.4
45672.7
45672
45671.3
45670.6
45669.9
45669.2
45668.5
45667.8
45667
45666.3
45665.6
45664.9
45664.2
45663.5
45662.8
45662.1
45661.4
45660.7
45660
45659.3
45658.6
45657.8
45657.1
45656.4
45655.7
45655
45654.3
45653.6
45652.9
45652.1
45651.4
45650.7
45650
45649.3
45648.6
45647.8
45647.1
45646.4
45645.7
45645
45644.2
45643.5
45642.8
45642.1
45641.4
45640.6
45639.9
45639.2
45638.5
45637.7
45637
45636.3
45635.6
45634.8
45634.1
45633.4
45632.6
45631.9
45631.2
45630.5
45629.7
45629
45628.3
45627.5
45626.8
45626.1
45625.3
45624.6
45623.9
45623.1
45622.4
45621.7
45620.9
45620.2
45619.4
45618.7
45618
45617.2
45616.5
45615.7
45615
45614.3
45613.5
45612.8
45612
45611.3
45610.6
45609.8
45609.1
45608.3
45607.6
45606.8
45606.1
45605.3
45604.6
45603.8
45603.1
45602.3
45601.6
45600.8
45600.1
45599.3
45598.6
45597.8
45597.1
45596.3
45595.6
45594.8
45594.1
45593.3
45592.5
45591.8
45591
45590.3
45589.5
45588.8
45588
45587.2
45586.5
45585.7
45585
45584.2
45583.4
45582.7
45581.9
45581.1
45580.4
45579.6
45578.8
45578.1
45577.3
45576.6
45575.8
45575
45574.2
45573.5
45572.7
45571.9
45571.2
45570.4
45569.6
45568.9
45568.1
45567.3
45566.5
45565.8
45565
45564.2
45563.4
45562.7
45561.9
45561.1
45560.3
45559.6
45558.8
45558
45557.2
45556.4
45555.7
45554.9
45554.1
45553.3
45552.5
45551.7
45551
45550.2
45549.4
45548.6
45547.8
45547
45546.2
45545.5
45544.7
45543.9
45543.1
45542.3
45541.5
45540.7
45539.9
45539.1
45538.3
45537.6
45536.8
45536
45535.2
45534.4
45533.6
45532.8
45532
45531.2
45530.4
45529.6
45528.8
45528
45527.2
45526.4
45525.6
45524.8
45524
45523.2
45522.4
45521.6
45520.8
45520
45519.2
45518.4
45517.6
45516.8
45516
45515.2
45514.4
45513.5
45512.7
45511.9
45511.1
45510.3
45509.5
45508.7
45507.9
45507.1
45506.2
45505.4
45504.6
45503.8
45503
45502.2
45501.4
45500.5
45499.7
45498.9
45498.1
45497.3
45496.5
45495.6
45494.8
45494
45493.2
45492.4
45491.5
45490.7
45489.9
45489.1
45488.2
45487.4
45486.6
45485.8
45484.9
45484.1
45483.3
45482.5
45481.6
45480.8
45480
45479.1
45478.3
45477.5
45476.7
45475.8
45475
45474.2
45473.3
45472.5
45471.7
45470.8
45470
45469.1
45468.3
45467.5
45466.6
45465.8
45465
45464.1
45463.3
45462.4
45461.6
45460.8
45459.9
45459.1
45458.2
45457.4
45456.5
45455.7
45454.9
45454
45453.2
45452.3
45451.5
45450.6
45449.8
45448.9
45448.1
45447.2
45446.4
45445.5
45444.7
45443.8
45443
45442.1
45441.3
45440.4
45439.6
45438.7
45437.9
45437
45436.1
45435.3
45434.4
45433.6
45432.7
45431.9
45431
45430.1
45429.3
45428.4
45427.6
45426.7
45425.8
45425
45424.1
45423.2
45422.4
45421.5
45420.6
45419.8
45418.9
45418
45417.2
45416.3
45415.4
45414.6
45413.7
45412.8
45412
45411.1
45410.2
45409.3
45408.5
45407.6
45406.7
45405.8
45405
45404.1
45403.2
45402.3
45401.5
45400.6
45399.7
45398.8
45398
45397.1
45396.2
45395.3
45394.4
45393.5
45392.7
45391.8
45390.9
45390
45389.1
45388.2
45387.4
45386.5
45385.6
45384.7
45383.8
45382.9
45382
45381.1
45380.3
45379.4
45378.5
45377.6
45376.7
45375.8
45374.9
45374
45373.1
45372.2
45371.3
45370.4
45369.5
45368.6
45367.7
45366.8
45365.9
45365
45364.1
45363.2
45362.3
45361.4
45360.5
45359.6
45358.7
45357.8
45356.9
45356
45355.1
45354.2
45353.3
45352.4
45351.5
45350.6
45349.7
45348.8
45347.9
45347
45346.1
45345.1
45344.2
45343.3
45342.4
45341.5
45340.6
45339.7
45338.8
45337.8
45336.9
45336
45335.1
45334.2
45333.3
45332.3
45331.4
45330.5
45329.6
45328.7
45327.7
45326.8
45325.9
45325
45324.1
45323.1
45322.2
45321.3
45320.4
45319.4
45318.5
45317.6
45316.7
45315.7
45314.8
45313.9
45312.9
45312
45311.1
45310.2
45309.2
45308.3
45307.4
45306.4
45305.5
45304.6
45303.6
45302.7
45301.8
45300.8
45299.9
45298.9
45298
45297.1
45296.1
45295.2
45294.2
45293.3
45292.4
45291.4
45290.5
45289.5
45288.6
45287.7
45286.7
45285.8
45284.8
45283.9
45282.9
45282
45281
45280.1
45279.1
45278.2
45277.2
45276.3
45275.3
45274.4
45273.4
45272.5
45271.5
45270.6
45269.6
45268.7
45267.7
45266.8
45265.8
45264.8
45263.9
45262.9
45262
45261
45260.1
45259.1
45258.1
45257.2
45256.2
45255.3
45254.3
45253.3
45252.4
45251.4
45250.4
45249.5
45248.5
45247.5
45246.6
45245.6
45244.6
45243.7
45242.7
45241.7
45240.8
45239.8
45238.8
45237.8
45236.9
45235.9
45234.9
45234
45233
45232
45231
45230.1
45229.1
45228.1
45227.1
45226.1
45225.2
45224.2
45223.2
45222.2
45221.2
45220.3
45219.3
45218.3
45217.3
45216.3
45215.3
45214.4
45213.4
45212.4
45211.4
45210.4
45209.4
45208.4
45207.5
45206.5
45205.5
45204.5
45203.5
45202.5
45201.5
45200.5
45199.5
45198.5
45197.5
45196.5
45195.5
45194.6
45193.6
45192.6
45191.6
45190.6
45189.6
45188.6
45187.6
45186.6
45185.6
45184.6
45183.6
45182.6
45181.6
45180.6
45179.6
45178.5
45177.5
45176.5
45175.5
45174.5
45173.5
45172.5
45171.5
45170.5
45169.5
45168.5
45167.5
45166.5
45165.4
45164.4
45163.4
45162.4
45161.4
45160.4
45159.4
45158.3
45157.3
45156.3
45155.3
45154.3
45153.3
45152.2
45151.2
45150.2
45149.2
45148.2
45147.1
45146.1
45145.1
45144.1
45143
45142
45141
45140
45138.9
45137.9
45136.9
45135.9
45134.8
45133.8
45132.8
45131.7
45130.7
45129.7
45128.6
45127.6
45126.6
45125.6
45124.5
45123.5
45122.4
45121.4
45120.4
45119.3
45118.3
45117.3
45116.2
45115.2
45114.1
45113.1
45112.1
45111
45110
45108.9
45107.9
45106.9
45105.8
45104.8
45103.7
45102.7
45101.6
45100.6
45099.5
45098.5
45097.4
45096.4
45095.3
45094.3
45093.2
45092.2
45091.1
45090.1
45089
45088
45086.9
45085.9
45084.8
45083.8
45082.7
45081.6
45080.6
45079.5
45078.5
45077.4
45076.3
45075.3
45074.2
45073.2
45072.1
45071
45070
45068.9
45067.8
45066.8
45065.7
45064.6
45063.6
45062.5
45061.4
45060.4
45059.3
45058.2
45057.2
45056.1
45055
45054
45052.9
45051.8
45050.7
45049.7
45048.6
45047.5
45046.4
45045.4
45044.3
45043.2
45042.1
45041
45040
45038.9
45037.8
45036.7
45035.6
45034.6
45033.5
45032.4
45031.3
45030.2
45029.1
45028.1
45027
45025.9
45024.8
45023.7
45022.6
45021.5
45020.4
45019.3
45018.3
45017.2
45016.1
45015
45013.9
45012.8
45011.7
45010.6
45009.5
45008.4
45007.3
45006.2
45005.1
45004
45002.9
45001.8
45000.7
44999.6
44998.5
44997.4
44996.3
44995.2
44994.1
44993
44991.9
44990.8
44989.7
44988.6
44987.5
44986.4
44985.3
44984.1
44983
44981.9
44980.8
44979.7
44978.6
44977.5
44976.4
44975.2
44974.1
44973
44971.9
44970.8
44969.7
44968.6
44967.4
44966.3
44965.2
44964.1
44963
44961.8
44960.7
44959.6
44958.5
44957.3
44956.2
44955.1
44954
44952.8
44951.7
44950.6
44949.5
44948.3
44947.2
44946.1
44944.9
44943.8
44942.7
44941.5
44940.4
44939.3
44938.1
44937
44935.9
44934.7
44933.6
44932.5
44931.3
44930.2
44929.1
44927.9
44926.8
44925.6
44924.5
44923.4
44922.2
44921.1
44919.9
44918.8
44917.6
44916.5
44915.3
44914.2
44913.1
44911.9
44910.8
44909.6
44908.5
44907.3
44906.2
44905
44903.9
44902.7
44901.5
44900.4
44899.2
44898.1
44896.9
44895.8
44894.6
44893.5
44892.3
44891.1
44890
44888.8
44887.7
44886.5
44885.3
44884.2
44883
44881.8
44880.7
44879.5
44878.3
44877.2
44876
44874.8
44873.7
44872.5
44871.3
44870.2
44869
44867.8
44866.7
44865.5
44864.3
44863.1
44862
44860.8
44859.6
44858.4
44857.3
44856.1
44854.9
44853.7
44852.5
44851.4
44850.2
44849
44847.8
44846.6
44845.4
44844.3
44843.1
44841.9
44840.7
44839.5
44838.3
44837.1
44836
44834.8
44833.6
44832.4
44831.2
44830
44828.8
44827.6
44826.4
44825.2
44824
44822.8
44821.6
44820.4
44819.2
44818.1
44816.9
44815.7
44814.5
44813.3
44812
44810.8
44809.6
44808.4
44807.2
44806
44804.8
44803.6
44802.4
44801.2
44800
44798.8
44797.6
44796.4
44795.2
44793.9
44792.7
44791.5
44790.3
44789.1
44787.9
44786.7
44785.4
44784.2
44783
44781.8
44780.6
44779.4
44778.1
44776.9
44775.7
44774.5
44773.2
44772
44770.8
44769.6
44768.3
44767.1
44765.9
44764.7
44763.4
44762.2
44761
44759.7
44758.5
44757.3
44756.1
44754.8
44753.6
44752.4
44751.1
44749.9
44748.6
44747.4
44746.2
44744.9
44743.7
44742.5
44741.2
44740
44738.7
44737.5
44736.2
44735
44733.8
44732.5
44731.3
44730
44728.8
44727.5
44726.3
44725
44723.8
44722.5
44721.3
44720
44718.8
44717.5
44716.2
44715
44713.7
44712.5
44711.2
44710
44708.7
44707.4
44706.2
44704.9
44703.7
44702.4
44701.1
44699.9
44698.6
44697.3
44696.1
44694.8
44693.5
44692.3
44691
44689.7
44688.5
44687.2
44685.9
44684.6
44683.4
44682.1
44680.8
44679.5
44678.3
44677
44675.7
44674.4
44673.2
44671.9
44670.6
44669.3
44668
44666.7
44665.5
44664.2
44662.9
44661.6
44660.3
44659
44657.7
44656.4
44655.2
44653.9
44652.6
44651.3
44650
44648.7
44647.4
44646.1
44644.8
44643.5
44642.2
44640.9
44639.6
44638.3
44637
44635.7
44634.4
44633.1
44631.8
44630.5
44629.2
44627.9
44626.6
44625.3
44624
44622.7
44621.3
44620
44618.7
44617.4
44616.1
44614.8
44613.5
44612.1
44610.8
44609.5
44608.2
44606.9
44605.6
44604.2
44602.9
44601.6
44600.3
44598.9
44597.6
44596.3
44595
44593.6
44592.3
44591
44589.6
44588.3
44587
44585.7
44584.3
44583
44581.7
44580.3
44579
44577.6
44576.3
44575
44573.6
44572.3
44570.9
44569.6
44568.3
44566.9
44565.6
44564.2
44562.9
44561.5
44560.2
44558.8
44557.5
44556.1
44554.8
44553.4
44552.1
44550.7
44549.4
44548
44546.6
44545.3
44543.9
44542.6
44541.2
44539.8
44538.5
44537.1
44535.7
44534.4
44533
44531.6
44530.3
44528.9
44527.5
44526.2
44524.8
44523.4
44522
44520.7
44519.3
44517.9
44516.5
44515.2
44513.8
44512.4
44511
44509.6
44508.3
44506.9
44505.5
44504.1
44502.7
44501.3
44499.9
44498.5
44497.2
44495.8
44494.4
44493
44491.6
44490.2
44488.8
44487.4
44486
44484.6
44483.2
44481.8
44480.4
44479
44477.6
44476.2
44474.8
44473.4
44472
44470.5
44469.1
44467.7
44466.3
44464.9
44463.5
44462.1
44460.6
44459.2
44457.8
44456.4
44455
44453.5
44452.1
44450.7
44449.3
44447.8
44446.4
44445
44443.6
44442.1
44440.7
44439.3
44437.8
44436.4
44435
44433.5
44432.1
44430.6
44429.2
44427.8
44426.3
44424.9
44423.4
44422
44420.5
44419.1
44417.6
44416.2
44414.7
44413.3
44411.8
44410.4
44408.9
44407.4
44406
44404.5
44403.1
44401.6
44400.1
44398.7
44397.2
44395.7
44394.3
44392.8
44391.3
44389.9
44388.4
44386.9
44385.4
44384
44382.5
44381
44379.5
44378
44376.5
44375.1
44373.6
44372.1
44370.6
44369.1
44367.6
44366.1
44364.6
44363.1
44361.6
44360.1
44358.6
44357.1
44355.6
44354.1
44352.6
44351.1
44349.6
44348.1
44346.6
44345.1
44343.6
44342.1
44340.5
44339
44337.5
44336
44334.5
44332.9
44331.4
44329.9
44328.4
44326.8
44325.3
44323.8
44322.2
44320.7
44319.2
44317.6
44316.1
44314.6
44313
44311.5
44309.9
44308.4
44306.8
44305.3
44303.7
44302.2
44300.6
44299.1
44297.5
44296
44294.4
44292.8
44291.3
44289.7
44288.1
44286.6
44285
44283.4
44281.9
44280.3
44278.7
44277.1
44275.5
44274
44272.4
44270.8
44269.2
44267.6
44266
44264.4
44262.8
44261.2
44259.7
44258.1
44256.5
44254.8
44253.2
44251.6
44250
44248.4
44246.8
44245.2
44243.6
44242
44240.3
44238.7
44237.1
44235.5
44233.8
44232.2
44230.6
44229
44227.3
44225.7
44224
44222.4
44220.8
44219.1
44217.5
44215.8
44214.2
44212.5
44210.9
44209.2
44207.5
44205.9
44204.2
44202.6
44200.9
44199.2
44197.5
44195.9
44194.2
44192.5
44190.8
44189.2
44187.5
44185.8
44184.1
44182.4
44180.7
44179
44177.3
44175.6
44173.9
44172.2
44170.5
44168.8
44167.1
44165.3
44163.6
44161.9
44160.2
44158.5
44156.7
44155
44153.3
44151.5
44149.8
44148
44146.3
44144.6
44142.8
44141.1
44139.3
44137.5
44135.8
44134
44132.3
44130.5
44128.7
44126.9
44125.2
44123.4
44121.6
44119.8
44118
44116.2
44114.4
44112.6
44110.8
44109
44107.2
44105.4
44103.6
44101.8
44100
44098.2
44096.3
44094.5
44092.7
44090.8
44089
44087.2
44085.3
44083.5
44081.6
44079.8
44077.9
44076
44074.2
44072.3
44070.4
44068.6
44066.7
44064.8
44062.9
44061
44059.1
44057.2
44055.3
44053.4
44051.5
44049.6
44047.7
44045.8
44043.8
44041.9
44040
44038
44036.1
44034.2
44032.2
44030.3
44028.3
44026.3
44024.4
44022.4
44020.4
44018.4
44016.5
44014.5
44012.5
44010.5
44008.5
44006.5
44004.5
44002.5
44000.4
43998.4
43996.4
43994.3
43992.3
43990.3
43988.2
43986.2
43984.1
43982
43980
43977.9
43975.8
43973.7
43971.6
43969.5
43967.4
43965.3
43963.2
43961.1
43959
43956.9
43954.7
43952.6
43950.4
43948.3
43946.1
43944
43941.8
43939.6
43937.4
43935.3
43933.1
43930.9
43928.7
43926.4
43924.2
43922
43919.8
43917.5
43915.3
43913
43910.8
43908.5
43906.2
43903.9
43901.7
43899.4
43897.1
43894.8
43892.4
43890.1
43887.8
43885.4
43883.1
43880.7
43878.4
43876
43873.6
43871.2
43868.9
43866.4
43864
43861.6
43859.2
43856.8
43854.3
43851.9
43849.4
43846.9
43844.4
43842
43839.5
43837
43834.4
43831.9
43829.4
43826.8
43824.3
43821.7
43819.1
43816.6
43814
43811.4
43808.8
43806.1
43803.5
43800.9
43798.2
43795.5
43792.9
43790.2
43787.5
43784.8
43782
43779.3
43776.6
43773.8
43771
43768.3
43765.5
43762.7
43759.9
43757
43754.2
43751.3
43748.5
43745.6
43742.7
43739.8
43736.9
43734
43731
43728.1
43725.1
43722.1
43719.1
43716.1
43713.1
43710.1
43707
43703.9
43700.9
43697.8
43694.7
43691.5
43688.4
43685.2
43682.1
43678.9
43675.7
43672.5
43669.2
43666
43662.7
43659.4
43656.1
43652.8
43649.5
43646.1
43642.8
43639.4
43636
43632.6
43629.1
43625.7
43622.2
43618.7
43615.2
43611.7
43608.1
43604.6
43601
43597.4
43593.8
43590.1
43586.5
43582.8
43579.1
43575.4
43571.7
43567.9
43564.1
43560.3
43556.5
43552.7
43548.8
43544.9
43541
43537.1
43533.2
43529.2
43525.2
43521.2
43517.2
43513.1
43509
43504.9
43500.8
43496.7
43492.5
43488.3
43484.1
43479.9
43475.6
43471.3
43467
43462.7
43458.3
43453.9
43449.5
43445.1
43440.7
43436.2
43431.7
43427.2
43422.6
43418
43413.4
43408.8
43404.2
43399.5
43394.8
43390.1
43385.3
43380.5
43375.7
43370.9
43366
43361.2
43356.3
43351.3
43346.4
43341.4
43336.4
43331.3
43326.3
43321.2
43316.1
43310.9
43305.7
43300.5
43295.3
43290.1
43284.8
43279.5
43274.1
43268.8
43263.4
43258
43252.6
43247.1
43241.6
43236.1
43230.5
43225
43219.4
43213.7
43208.1
43202.4
43196.7
43191
43185.2
43179.4
43173.6
43167.8
43161.9
43156
43150.1
43144.2
43138.2
43132.2
43126.2
43120.1
43114.1
43108
43101.8
43095.7
43089.5
43083.3
43077.1
43070.9
43064.6
43058.3
43052
43045.6
43039.3
43032.9
43026.4
43020
43013.5
43007.1
43000.6
42994
42987.5
42980.9
42974.3
42967.7
42961
42954.4
42947.7
42941
42934.3
42927.5
42920.7
42913.9
42907.1
42900.3
42893.5
42886.6
42879.7
42872.8
42865.9
42858.9
42852
42845
42838
42831
42823.9
42816.9
42809.8
42802.7
42795.6
42788.5
42781.4
42774.2
42767
42759.9
42752.7
42745.5
42738.2
42731
42723.7
42716.5
42709.2
42701.9
42694.6
42687.3
42679.9
42672.6
42665.2
42657.9
42650.5
42643.1
42635.7
42628.3
42620.8
42613.4
42605.9
42598.5
42591
42583.5
42576
42568.6
42561
42553.5
42546
42538.5
42530.9
42523.4
42515.8
42508.3
42500.7
42493.1
42485.5
42477.9
42470.3
42462.7
42455.1
42447.5
42439.9
42432.3
42424.6
42417
42409.3
42401.7
42394
42386.4
42378.7
42371
42363.4
42355.7
42348
42340.3
42332.6
42324.9
42317.2
42309.5
42301.8
42294.1
42286.4
42278.7
42271
42263.2
42255.5
42247.8
42240.1
42232.3
42224.6
42216.9
42209.1
42201.4
42193.7
42185.9
42178.2
42170.4
42162.7
42155
42147.2
42139.5
42131.7
42124
42116.2
42108.5
42100.7
42093
42085.2
42077.4
42069.7
42061.9
42054.2
42046.4
42038.7
42030.9
42023.2
42015.4
42007.6
41999.9
41992.1
41984.4
41976.6
41968.9
41961.1
41953.3
41945.6
41937.8
41930.1
41922.3
41914.6
41906.8
41899.1
41891.3
41883.6
41875.8
41868
41860.3
41852.5
41844.8
41837
41829.3
41821.6
41813.8
41806.1
41798.3
41790.6
41782.8
41775.1
41767.3
41759.6
41751.9
41744.1
41736.4
41728.6
41720.9
41713.2
41705.4
41697.7
41690
41682.2
41674.5
41666.8
41659.1
41651.3
41643.6
41635.9
41628.1
41620.4
41612.7
41605
41597.3
41589.5
41581.8
41574.1
41566.4
41558.7
41551
41543.3
41535.5
41527.8
41520.1
41512.4
41504.7
41497
41489.3
41481.6
41473.9
41466.2
41458.5
41450.8
41443.1
41435.4
41427.7
41420
41412.3
41404.6
41396.9
41389.3
41381.6
41373.9
41366.2
41358.5
41350.8
41343.2
41335.5
41327.8
41320.1
41312.4
41304.8
41297.1
41289.4
41281.7
41274.1
41266.4
41258.7
41251.1
41243.4
41235.7
41228.1
41220.4
41212.8
41205.1
41197.4
41189.8
41182.1
41174.5
41166.8
41159.2
41151.5
41143.9
41136.2
41128.6
41120.9
41113.3
41105.6
41098
41090.3
41082.7
41075.1
41067.4
41059.8
41052.2
41044.5
41036.9
41029.3
41021.6
41014
41006.4
40998.8
40991.1
40983.5
40975.9
40968.3
40960.6
40953
40945.4
40937.8
40930.2
40922.6
40914.9
40907.3
40899.7
40892.1
40884.5
40876.9
40869.3
40861.7
40854.1
40846.5
40838.9
40831.3
40823.7
40816.1
40808.5
40800.9
40793.3
40785.7
40778.1
40770.5
40762.9
40755.4
40747.8
40740.2
40732.6
40725
40717.4
40709.9
40702.3
40694.7
40687.1
40679.5
40672
40664.4
40656.8
40649.3
40641.7
40634.1
40626.6
40619
40611.4
40603.9
40596.3
40588.7
40581.2
40573.6
40566.1
40558.5
40551
40543.4
40535.9
40528.3
40520.8
40513.2
40505.7
40498.1
40490.6
40483
40475.5
40467.9
40460.4
40452.9
40445.3
40437.8
40430.3
40422.7
40415.2
40407.7
40400.1
40392.6
40385.1
40377.5
40370
40362.5
40355
40347.5
40339.9
40332.4
40324.9
40317.4
40309.9
40302.4
40294.8
40287.3
40279.8
40272.3
40264.8
40257.3
40249.8
40242.3
40234.8
40227.3
40219.8
40212.3
40204.8
40197.3
40189.8
40182.3
40174.8
40167.3
40159.8
40152.3
40144.8
40137.4
40129.9
40122.4
40114.9
40107.4
40099.9
40092.5
40085
40077.5
40070
40062.5
40055.1
40047.6
40040.1
40032.7
40025.2
40017.7
40010.3
40002.8
39995.3
39987.9
39980.4
39972.9
39965.5
39958
39950.6
39943.1
39935.7
39928.2
39920.7
39913.3
39905.8
39898.4
39890.9
39883.5
39876.1
39868.6
39861.2
39853.7
39846.3
39838.9
39831.4
39824
39816.5
39809.1
39801.7
39794.2
39786.8
39779.4
39772
39764.5
39757.1
39749.7
39742.3
39734.8
39727.4
39720
39712.6
39705.2
39697.7
39690.3
39682.9
39675.5
39668.1
39660.7
39653.3
39645.9
39638.5
39631.1
39623.6
39616.2
39608.8
39601.4
39594
39586.6
39579.2
39571.9
39564.5
39557.1
39549.7
39542.3
39534.9
39527.5
39520.1
39512.7
39505.3
39498
39490.6
39483.2
39475.8
39468.4
39461.1
39453.7
39446.3
39438.9
39431.6
39424.2
39416.8
39409.5
39402.1
39394.7
39387.4
39380
39372.6
39365.3
39357.9
39350.5
39343.2
39335.8
39328.5
39321.1
39313.8
39306.4
39299.1
39291.7
39284.4
39277
39269.7
39262.3
39255
39247.6
39240.3
39233
39225.6
39218.3
39210.9
39203.6
39196.3
39188.9
39181.6
39174.3
39166.9
39159.6
39152.3
39145
39137.6
39130.3
39123
39115.7
39108.3
39101
39093.7
39086.4
39079.1
39071.8
39064.5
39057.1
39049.8
39042.5
39035.2
39027.9
39020.6
39013.3
39006
38998.7
38991.4
38984.1
38976.8
38969.5
38962.2
38954.9
38947.6
38940.3
38933
38925.7
38918.4
38911.2
38903.9
38896.6
38889.3
38882
38874.7
38867.5
38860.2
38852.9
38845.6
38838.3
38831.1
38823.8
38816.5
38809.3
38802
38794.7
38787.4
38780.2
38772.9
38765.7
38758.4
38751.1
38743.9
38736.6
38729.3
38722.1
38714.8
38707.6
38700.3
38693.1
38685.8
38678.6
38671.3
38664.1
38656.8
38649.6
38642.3
38635.1
38627.9
38620.6
38613.4
38606.1
38598.9
38591.7
38584.4
38577.2
38570
38562.7
38555.5
38548.3
38541.1
38533.8
38526.6
38519.4
38512.2
38504.9
38497.7
38490.5
38483.3
38476.1
38468.8
38461.6
38454.4
38447.2
38440
38432.8
38425.6
38418.4
38411.2
38404
38396.8
38389.6
38382.4
38375.2
38368
38360.8
38353.6
38346.4
38339.2
38332
38324.8
38317.6
38310.4
38303.2
38296
38288.8
38281.7
38274.5
38267.3
38260.1
38252.9
38245.8
38238.6
38231.4
38224.2
38217.1
38209.9
38202.7
38195.5
38188.4
38181.2
38174
38166.9
38159.7
38152.5
38145.4
38138.2
38131.1
38123.9
38116.7
38109.6
38102.4
38095.3
38088.1
38081
38073.8
38066.7
38059.5
38052.4
38045.2
38038.1
38030.9
38023.8
38016.7
38009.5
38002.4
37995.2
37988.1
37981
37973.8
37966.7
37959.6
37952.4
37945.3
37938.2
37931.1
37923.9
37916.8
37909.7
37902.6
37895.4
37888.3
37881.2
37874.1
37867
37859.9
37852.7
37845.6
37838.5
37831.4
37824.3
37817.2
37810.1
37803
37795.9
37788.8
37781.7
37774.6
37767.5
37760.4
37753.3
37746.2
37739.1
37732
37724.9
37717.8
37710.7
37703.6
37696.5
37689.5
37682.4
37675.3
37668.2
37661.1
37654
37647
37639.9
37632.8
37625.7
37618.7
37611.6
37604.5
37597.4
37590.4
37583.3
37576.2
37569.2
37562.1
37555
37548
37540.9
37533.8
37526.8
37519.7
37512.7
37505.6
37498.6
37491.5
37484.4
37477.4
37470.3
37463.3
37456.2
37449.2
37442.2
37435.1
37428.1
37421
37414
37406.9
37399.9
37392.9
37385.8
37378.8
37371.8
37364.7
37357.7
37350.7
37343.6
37336.6
37329.6
37322.6
37315.5
37308.5
37301.5
37294.5
37287.4
37280.4
37273.4
37266.4
37259.4
37252.4
37245.4
37238.3
37231.3
37224.3
37217.3
37210.3
37203.3
37196.3
37189.3
37182.3
37175.3
37168.3
37161.3
37154.3
37147.3
37140.3
37133.3
37126.3
37119.3
37112.3
37105.3
37098.4
37091.4
37084.4
37077.4
37070.4
37063.4
37056.4
37049.5
37042.5
37035.5
37028.5
37021.6
37014.6
37007.6
37000.6
36993.7
36986.7
36979.7
36972.8
36965.8
36958.8
36951.9
36944.9
36937.9
36931
36924
36917.1
36910.1
36903.2
36896.2
36889.2
36882.3
36875.3
36868.4
36861.4
36854.5
36847.5
36840.6
36833.7
36826.7
36819.8
36812.8
36805.9
36799
36792
36785.1
36778.1
36771.2
36764.3
36757.4
36750.4
36743.5
36736.6
36729.6
36722.7
36715.8
36708.9
36701.9
36695
36688.1
36681.2
36674.3
36667.4
36660.4
36653.5
36646.6
36639.7
36632.8
36625.9
36619
36612.1
36605.2
36598.3
36591.4
36584.5
36577.6
36570.7
36563.8
36556.9
36550
36543.1
36536.2
36529.3
36522.4
36515.5
36508.6
36501.7
36494.8
36487.9
36481.1
36474.2
36467.3
36460.4
36453.5
36446.7
36439.8
36432.9
36426
36419.2
36412.3
36405.4
36398.5
36391.7
36384.8
36377.9
36371.1
36364.2
36357.3
36350.5
36343.6
36336.8
36329.9
36323
36316.2
36309.3
36302.5
36295.6
36288.8
36281.9
36275.1
36268.2
36261.4
36254.5
36247.7
36240.8
36234
36227.2
36220.3
36213.5
36206.6
36199.8
36193
36186.1
36179.3
36172.5
36165.6
36158.8
36152
36145.2
36138.3
36131.5
36124.7
36117.9
36111
36104.2
36097.4
36090.6
36083.8
36076.9
36070.1
36063.3
36056.5
36049.7
36042.9
36036.1
36029.3
36022.5
36015.7
36008.9
36002
35995.2
35988.4
35981.6
35974.8
35968.1
35961.3
35954.5
35947.7
35940.9
35934.1
35927.3
35920.5
35913.7
35906.9
35900.1
35893.4
35886.6
35879.8
35873
35866.2
35859.5
35852.7
35845.9
35839.1
35832.4
35825.6
35818.8
35812
35805.3
35798.5
35791.7
35785
35778.2
35771.4
35764.7
35757.9
35751.2
35744.4
35737.6
35730.9
35724.1
35717.4
35710.6
35703.9
35697.1
35690.4
35683.6
35676.9
35670.1
35663.4
35656.7
35649.9
35643.2
35636.4
35629.7
35623
35616.2
35609.5
35602.8
35596
35589.3
35582.6
35575.8
35569.1
35562.4
35555.6
35548.9
35542.2
35535.5
35528.8
35522
35515.3
35508.6
35501.9
35495.2