/*--------------------------------*- C++ -*----------------------------------*\
  =========                 |
  \\      /  F ield         | OpenFOAM: The Open Source CFD Toolbox
   \\    /   O peration     | Website:  https://openfoam.org
    \\  /    A nd           | Version:  9
     \\/     M anipulation  |
\*---------------------------------------------------------------------------*/
FoamFile
{
    format      ascii;
    class       volScalarField;
    location    "0.019";
    object      rho;
}
// * * * * * * * * * * * * * * * * * * * * * * * * * * * * * * * * * * * * * //

dimensions      [1 -3 0 0 0 0 0];

internalField   nonuniform List<scalar> 
10000
(
0.574342
0.574328
0.574308
0.574284
0.57426
0.57424
0.574225
0.574215
0.574209
0.574205
0.574202
0.574199
0.574197
0.574195
0.574193
0.574191
0.574189
0.574187
0.574185
0.574183
0.574181
0.574179
0.574177
0.574175
0.574173
0.574171
0.574169
0.574167
0.574165
0.574162
0.57416
0.574158
0.574156
0.574154
0.574152
0.57415
0.574148
0.574146
0.574144
0.574141
0.574139
0.574137
0.574135
0.574133
0.574131
0.574129
0.574127
0.574124
0.574122
0.57412
0.574118
0.574116
0.574114
0.574111
0.574109
0.574107
0.574105
0.574103
0.5741
0.574098
0.574096
0.574094
0.574092
0.574089
0.574087
0.574085
0.574083
0.57408
0.574078
0.574076
0.574074
0.574071
0.574069
0.574067
0.574065
0.574062
0.57406
0.574058
0.574056
0.574053
0.574051
0.574049
0.574046
0.574044
0.574042
0.57404
0.574037
0.574035
0.574033
0.57403
0.574028
0.574026
0.574023
0.574021
0.574019
0.574016
0.574014
0.574011
0.574009
0.574007
0.574004
0.574002
0.574
0.573997
0.573995
0.573992
0.57399
0.573988
0.573985
0.573983
0.57398
0.573978
0.573976
0.573973
0.573971
0.573968
0.573966
0.573963
0.573961
0.573958
0.573956
0.573954
0.573951
0.573949
0.573946
0.573944
0.573941
0.573939
0.573936
0.573934
0.573931
0.573929
0.573926
0.573924
0.573921
0.573919
0.573916
0.573914
0.573911
0.573909
0.573906
0.573903
0.573901
0.573898
0.573896
0.573893
0.573891
0.573888
0.573886
0.573883
0.57388
0.573878
0.573875
0.573873
0.57387
0.573867
0.573865
0.573862
0.57386
0.573857
0.573854
0.573852
0.573849
0.573846
0.573844
0.573841
0.573838
0.573836
0.573833
0.57383
0.573828
0.573825
0.573822
0.57382
0.573817
0.573814
0.573812
0.573809
0.573806
0.573804
0.573801
0.573798
0.573795
0.573793
0.57379
0.573787
0.573785
0.573782
0.573779
0.573776
0.573774
0.573771
0.573768
0.573765
0.573763
0.57376
0.573757
0.573754
0.573751
0.573749
0.573746
0.573743
0.57374
0.573737
0.573735
0.573732
0.573729
0.573726
0.573723
0.57372
0.573718
0.573715
0.573712
0.573709
0.573706
0.573703
0.573701
0.573698
0.573695
0.573692
0.573689
0.573686
0.573683
0.57368
0.573677
0.573675
0.573672
0.573669
0.573666
0.573663
0.57366
0.573657
0.573654
0.573651
0.573648
0.573645
0.573642
0.573639
0.573636
0.573634
0.573631
0.573628
0.573625
0.573622
0.573619
0.573616
0.573613
0.57361
0.573607
0.573604
0.573601
0.573598
0.573595
0.573592
0.573589
0.573586
0.573583
0.57358
0.573576
0.573573
0.57357
0.573567
0.573564
0.573561
0.573558
0.573555
0.573552
0.573549
0.573546
0.573543
0.57354
0.573537
0.573533
0.57353
0.573527
0.573524
0.573521
0.573518
0.573515
0.573512
0.573509
0.573505
0.573502
0.573499
0.573496
0.573493
0.57349
0.573486
0.573483
0.57348
0.573477
0.573474
0.573471
0.573467
0.573464
0.573461
0.573458
0.573455
0.573451
0.573448
0.573445
0.573442
0.573439
0.573435
0.573432
0.573429
0.573426
0.573422
0.573419
0.573416
0.573413
0.573409
0.573406
0.573403
0.573399
0.573396
0.573393
0.57339
0.573386
0.573383
0.57338
0.573376
0.573373
0.57337
0.573366
0.573363
0.57336
0.573356
0.573353
0.57335
0.573346
0.573343
0.57334
0.573336
0.573333
0.57333
0.573326
0.573323
0.573319
0.573316
0.573313
0.573309
0.573306
0.573303
0.573299
0.573296
0.573292
0.573289
0.573285
0.573282
0.573279
0.573275
0.573272
0.573268
0.573265
0.573261
0.573258
0.573254
0.573251
0.573248
0.573244
0.573241
0.573237
0.573234
0.57323
0.573227
0.573223
0.57322
0.573216
0.573213
0.573209
0.573206
0.573202
0.573198
0.573195
0.573191
0.573188
0.573184
0.573181
0.573177
0.573174
0.57317
0.573167
0.573163
0.573159
0.573156
0.573152
0.573149
0.573145
0.573141
0.573138
0.573134
0.573131
0.573127
0.573123
0.57312
0.573116
0.573112
0.573109
0.573105
0.573102
0.573098
0.573094
0.573091
0.573087
0.573083
0.57308
0.573076
0.573072
0.573069
0.573065
0.573061
0.573057
0.573054
0.57305
0.573046
0.573043
0.573039
0.573035
0.573031
0.573028
0.573024
0.57302
0.573016
0.573013
0.573009
0.573005
0.573001
0.572998
0.572994
0.57299
0.572986
0.572983
0.572979
0.572975
0.572971
0.572967
0.572964
0.57296
0.572956
0.572952
0.572948
0.572944
0.572941
0.572937
0.572933
0.572929
0.572925
0.572921
0.572918
0.572914
0.57291
0.572906
0.572902
0.572898
0.572894
0.57289
0.572887
0.572883
0.572879
0.572875
0.572871
0.572867
0.572863
0.572859
0.572855
0.572851
0.572847
0.572843
0.57284
0.572836
0.572832
0.572828
0.572824
0.57282
0.572816
0.572812
0.572808
0.572804
0.5728
0.572796
0.572792
0.572788
0.572784
0.57278
0.572776
0.572772
0.572768
0.572764
0.57276
0.572756
0.572752
0.572748
0.572744
0.57274
0.572735
0.572731
0.572727
0.572723
0.572719
0.572715
0.572711
0.572707
0.572703
0.572699
0.572695
0.572691
0.572686
0.572682
0.572678
0.572674
0.57267
0.572666
0.572662
0.572658
0.572653
0.572649
0.572645
0.572641
0.572637
0.572633
0.572628
0.572624
0.57262
0.572616
0.572612
0.572608
0.572603
0.572599
0.572595
0.572591
0.572587
0.572582
0.572578
0.572574
0.57257
0.572565
0.572561
0.572557
0.572553
0.572548
0.572544
0.57254
0.572536
0.572531
0.572527
0.572523
0.572519
0.572514
0.57251
0.572506
0.572501
0.572497
0.572493
0.572488
0.572484
0.57248
0.572475
0.572471
0.572467
0.572462
0.572458
0.572454
0.572449
0.572445
0.572441
0.572436
0.572432
0.572428
0.572423
0.572419
0.572414
0.57241
0.572406
0.572401
0.572397
0.572392
0.572388
0.572384
0.572379
0.572375
0.57237
0.572366
0.572362
0.572357
0.572353
0.572348
0.572344
0.572339
0.572335
0.57233
0.572326
0.572321
0.572317
0.572312
0.572308
0.572303
0.572299
0.572294
0.57229
0.572285
0.572281
0.572276
0.572272
0.572267
0.572263
0.572258
0.572254
0.572249
0.572245
0.57224
0.572235
0.572231
0.572226
0.572222
0.572217
0.572213
0.572208
0.572203
0.572199
0.572194
0.57219
0.572185
0.57218
0.572176
0.572171
0.572166
0.572162
0.572157
0.572153
0.572148
0.572143
0.572139
0.572134
0.572129
0.572125
0.57212
0.572115
0.572111
0.572106
0.572101
0.572097
0.572092
0.572087
0.572082
0.572078
0.572073
0.572068
0.572064
0.572059
0.572054
0.572049
0.572045
0.57204
0.572035
0.57203
0.572026
0.572021
0.572016
0.572011
0.572007
0.572002
0.571997
0.571992
0.571987
0.571983
0.571978
0.571973
0.571968
0.571963
0.571959
0.571954
0.571949
0.571944
0.571939
0.571934
0.57193
0.571925
0.57192
0.571915
0.57191
0.571905
0.5719
0.571896
0.571891
0.571886
0.571881
0.571876
0.571871
0.571866
0.571861
0.571856
0.571851
0.571846
0.571842
0.571837
0.571832
0.571827
0.571822
0.571817
0.571812
0.571807
0.571802
0.571797
0.571792
0.571787
0.571782
0.571777
0.571772
0.571767
0.571762
0.571757
0.571752
0.571747
0.571742
0.571737
0.571732
0.571727
0.571722
0.571717
0.571712
0.571707
0.571702
0.571697
0.571692
0.571687
0.571682
0.571677
0.571671
0.571666
0.571661
0.571656
0.571651
0.571646
0.571641
0.571636
0.571631
0.571626
0.57162
0.571615
0.57161
0.571605
0.5716
0.571595
0.57159
0.571585
0.571579
0.571574
0.571569
0.571564
0.571559
0.571554
0.571548
0.571543
0.571538
0.571533
0.571528
0.571522
0.571517
0.571512
0.571507
0.571501
0.571496
0.571491
0.571486
0.571481
0.571475
0.57147
0.571465
0.57146
0.571454
0.571449
0.571444
0.571438
0.571433
0.571428
0.571423
0.571417
0.571412
0.571407
0.571401
0.571396
0.571391
0.571385
0.57138
0.571375
0.571369
0.571364
0.571359
0.571353
0.571348
0.571343
0.571337
0.571332
0.571327
0.571321
0.571316
0.571311
0.571305
0.5713
0.571294
0.571289
0.571284
0.571278
0.571273
0.571267
0.571262
0.571256
0.571251
0.571246
0.57124
0.571235
0.571229
0.571224
0.571218
0.571213
0.571207
0.571202
0.571196
0.571191
0.571186
0.57118
0.571175
0.571169
0.571164
0.571158
0.571153
0.571147
0.571142
0.571136
0.57113
0.571125
0.571119
0.571114
0.571108
0.571103
0.571097
0.571092
0.571086
0.57108
0.571075
0.571069
0.571064
0.571058
0.571053
0.571047
0.571041
0.571036
0.57103
0.571025
0.571019
0.571013
0.571008
0.571002
0.570996
0.570991
0.570985
0.570979
0.570974
0.570968
0.570963
0.570957
0.570951
0.570945
0.57094
0.570934
0.570928
0.570923
0.570917
0.570911
0.570906
0.5709
0.570894
0.570888
0.570883
0.570877
0.570871
0.570866
0.57086
0.570854
0.570848
0.570843
0.570837
0.570831
0.570825
0.570819
0.570814
0.570808
0.570802
0.570796
0.570791
0.570785
0.570779
0.570773
0.570767
0.570761
0.570756
0.57075
0.570744
0.570738
0.570732
0.570726
0.570721
0.570715
0.570709
0.570703
0.570697
0.570691
0.570685
0.57068
0.570674
0.570668
0.570662
0.570656
0.57065
0.570644
0.570638
0.570632
0.570626
0.57062
0.570615
0.570609
0.570603
0.570597
0.570591
0.570585
0.570579
0.570573
0.570567
0.570561
0.570555
0.570549
0.570543
0.570537
0.570531
0.570525
0.570519
0.570513
0.570507
0.570501
0.570495
0.570489
0.570483
0.570477
0.570471
0.570465
0.570459
0.570453
0.570447
0.570441
0.570434
0.570428
0.570422
0.570416
0.57041
0.570404
0.570398
0.570392
0.570386
0.57038
0.570374
0.570367
0.570361
0.570355
0.570349
0.570343
0.570337
0.570331
0.570325
0.570318
0.570312
0.570306
0.5703
0.570294
0.570288
0.570281
0.570275
0.570269
0.570263
0.570257
0.57025
0.570244
0.570238
0.570232
0.570226
0.570219
0.570213
0.570207
0.570201
0.570194
0.570188
0.570182
0.570176
0.570169
0.570163
0.570157
0.570151
0.570144
0.570138
0.570132
0.570125
0.570119
0.570113
0.570106
0.5701
0.570094
0.570088
0.570081
0.570075
0.570069
0.570062
0.570056
0.57005
0.570043
0.570037
0.57003
0.570024
0.570018
0.570011
0.570005
0.569999
0.569992
0.569986
0.569979
0.569973
0.569967
0.56996
0.569954
0.569947
0.569941
0.569934
0.569928
0.569922
0.569915
0.569909
0.569902
0.569896
0.569889
0.569883
0.569876
0.56987
0.569863
0.569857
0.56985
0.569844
0.569837
0.569831
0.569824
0.569818
0.569811
0.569805
0.569798
0.569792
0.569785
0.569779
0.569772
0.569766
0.569759
0.569753
0.569746
0.569739
0.569733
0.569726
0.56972
0.569713
0.569707
0.5697
0.569693
0.569687
0.56968
0.569674
0.569667
0.56966
0.569654
0.569647
0.56964
0.569634
0.569627
0.56962
0.569614
0.569607
0.569601
0.569594
0.569587
0.569581
0.569574
0.569567
0.56956
0.569554
0.569547
0.56954
0.569534
0.569527
0.56952
0.569513
0.569507
0.5695
0.569493
0.569487
0.56948
0.569473
0.569466
0.56946
0.569453
0.569446
0.569439
0.569432
0.569426
0.569419
0.569412
0.569405
0.569399
0.569392
0.569385
0.569378
0.569371
0.569364
0.569358
0.569351
0.569344
0.569337
0.56933
0.569323
0.569317
0.56931
0.569303
0.569296
0.569289
0.569282
0.569275
0.569268
0.569262
0.569255
0.569248
0.569241
0.569234
0.569227
0.56922
0.569213
0.569206
0.569199
0.569192
0.569185
0.569178
0.569172
0.569165
0.569158
0.569151
0.569144
0.569137
0.56913
0.569123
0.569116
0.569109
0.569102
0.569095
0.569088
0.569081
0.569074
0.569067
0.56906
0.569053
0.569046
0.569039
0.569032
0.569024
0.569017
0.56901
0.569003
0.568996
0.568989
0.568982
0.568975
0.568968
0.568961
0.568954
0.568947
0.56894
0.568932
0.568925
0.568918
0.568911
0.568904
0.568897
0.56889
0.568883
0.568875
0.568868
0.568861
0.568854
0.568847
0.56884
0.568832
0.568825
0.568818
0.568811
0.568804
0.568796
0.568789
0.568782
0.568775
0.568768
0.56876
0.568753
0.568746
0.568739
0.568732
0.568724
0.568717
0.56871
0.568703
0.568695
0.568688
0.568681
0.568673
0.568666
0.568659
0.568652
0.568644
0.568637
0.56863
0.568622
0.568615
0.568608
0.5686
0.568593
0.568586
0.568578
0.568571
0.568564
0.568556
0.568549
0.568542
0.568534
0.568527
0.56852
0.568512
0.568505
0.568497
0.56849
0.568483
0.568475
0.568468
0.56846
0.568453
0.568446
0.568438
0.568431
0.568423
0.568416
0.568408
0.568401
0.568393
0.568386
0.568379
0.568371
0.568364
0.568356
0.568349
0.568341
0.568334
0.568326
0.568319
0.568311
0.568304
0.568296
0.568289
0.568281
0.568274
0.568266
0.568259
0.568251
0.568243
0.568236
0.568228
0.568221
0.568213
0.568206
0.568198
0.56819
0.568183
0.568175
0.568168
0.56816
0.568153
0.568145
0.568137
0.56813
0.568122
0.568114
0.568107
0.568099
0.568092
0.568084
0.568076
0.568069
0.568061
0.568053
0.568046
0.568038
0.56803
0.568023
0.568015
0.568007
0.567999
0.567992
0.567984
0.567976
0.567969
0.567961
0.567953
0.567945
0.567938
0.56793
0.567922
0.567914
0.567907
0.567899
0.567891
0.567883
0.567876
0.567868
0.56786
0.567852
0.567845
0.567837
0.567829
0.567821
0.567813
0.567805
0.567798
0.56779
0.567782
0.567774
0.567766
0.567758
0.567751
0.567743
0.567735
0.567727
0.567719
0.567711
0.567703
0.567696
0.567688
0.56768
0.567672
0.567664
0.567656
0.567648
0.56764
0.567632
0.567624
0.567616
0.567609
0.567601
0.567593
0.567585
0.567577
0.567569
0.567561
0.567553
0.567545
0.567537
0.567529
0.567521
0.567513
0.567505
0.567497
0.567489
0.567481
0.567473
0.567465
0.567457
0.567449
0.567441
0.567433
0.567425
0.567417
0.567409
0.567401
0.567393
0.567384
0.567376
0.567368
0.56736
0.567352
0.567344
0.567336
0.567328
0.56732
0.567312
0.567304
0.567295
0.567287
0.567279
0.567271
0.567263
0.567255
0.567247
0.567238
0.56723
0.567222
0.567214
0.567206
0.567198
0.567189
0.567181
0.567173
0.567165
0.567157
0.567148
0.56714
0.567132
0.567124
0.567116
0.567107
0.567099
0.567091
0.567083
0.567074
0.567066
0.567058
0.56705
0.567041
0.567033
0.567025
0.567016
0.567008
0.567
0.566992
0.566983
0.566975
0.566967
0.566958
0.56695
0.566942
0.566933
0.566925
0.566917
0.566908
0.5669
0.566892
0.566883
0.566875
0.566867
0.566858
0.56685
0.566841
0.566833
0.566825
0.566816
0.566808
0.566799
0.566791
0.566783
0.566774
0.566766
0.566757
0.566749
0.56674
0.566732
0.566723
0.566715
0.566707
0.566698
0.56669
0.566681
0.566673
0.566664
0.566656
0.566647
0.566639
0.56663
0.566622
0.566613
0.566605
0.566596
0.566588
0.566579
0.566571
0.566562
0.566553
0.566545
0.566536
0.566528
0.566519
0.566511
0.566502
0.566493
0.566485
0.566476
0.566468
0.566459
0.56645
0.566442
0.566433
0.566425
0.566416
0.566407
0.566399
0.56639
0.566381
0.566373
0.566364
0.566355
0.566347
0.566338
0.566329
0.566321
0.566312
0.566303
0.566295
0.566286
0.566277
0.566268
0.56626
0.566251
0.566242
0.566234
0.566225
0.566216
0.566207
0.566199
0.56619
0.566181
0.566172
0.566164
0.566155
0.566146
0.566137
0.566128
0.56612
0.566111
0.566102
0.566093
0.566084
0.566076
0.566067
0.566058
0.566049
0.56604
0.566031
0.566023
0.566014
0.566005
0.565996
0.565987
0.565978
0.565969
0.56596
0.565952
0.565943
0.565934
0.565925
0.565916
0.565907
0.565898
0.565889
0.56588
0.565871
0.565862
0.565853
0.565845
0.565836
0.565827
0.565818
0.565809
0.5658
0.565791
0.565782
0.565773
0.565764
0.565755
0.565746
0.565737
0.565728
0.565719
0.56571
0.565701
0.565692
0.565683
0.565674
0.565664
0.565655
0.565646
0.565637
0.565628
0.565619
0.56561
0.565601
0.565592
0.565583
0.565574
0.565565
0.565555
0.565546
0.565537
0.565528
0.565519
0.56551
0.565501
0.565492
0.565482
0.565473
0.565464
0.565455
0.565446
0.565437
0.565427
0.565418
0.565409
0.5654
0.565391
0.565381
0.565372
0.565363
0.565354
0.565345
0.565335
0.565326
0.565317
0.565308
0.565298
0.565289
0.56528
0.565271
0.565261
0.565252
0.565243
0.565233
0.565224
0.565215
0.565206
0.565196
0.565187
0.565178
0.565168
0.565159
0.56515
0.56514
0.565131
0.565122
0.565112
0.565103
0.565094
0.565084
0.565075
0.565065
0.565056
0.565047
0.565037
0.565028
0.565018
0.565009
0.565
0.56499
0.564981
0.564971
0.564962
0.564952
0.564943
0.564934
0.564924
0.564915
0.564905
0.564896
0.564886
0.564877
0.564867
0.564858
0.564848
0.564839
0.564829
0.56482
0.56481
0.564801
0.564791
0.564782
0.564772
0.564763
0.564753
0.564743
0.564734
0.564724
0.564715
0.564705
0.564696
0.564686
0.564676
0.564667
0.564657
0.564648
0.564638
0.564628
0.564619
0.564609
0.5646
0.56459
0.56458
0.564571
0.564561
0.564551
0.564542
0.564532
0.564522
0.564513
0.564503
0.564493
0.564484
0.564474
0.564464
0.564454
0.564445
0.564435
0.564425
0.564415
0.564406
0.564396
0.564386
0.564376
0.564367
0.564357
0.564347
0.564337
0.564328
0.564318
0.564308
0.564298
0.564288
0.564279
0.564269
0.564259
0.564249
0.564239
0.56423
0.56422
0.56421
0.5642
0.56419
0.56418
0.56417
0.564161
0.564151
0.564141
0.564131
0.564121
0.564111
0.564101
0.564092
0.564081
0.564072
0.564061
0.564052
0.564041
0.564032
0.564021
0.564012
0.564001
0.563993
0.563981
0.563973
0.563961
0.563953
0.563941
0.563933
0.563921
0.563913
0.563901
0.563893
0.563881
0.563873
0.563861
0.563853
0.563841
0.563833
0.563821
0.563812
0.563801
0.563792
0.563781
0.563772
0.563761
0.563752
0.563741
0.563732
0.56372
0.563712
0.5637
0.563691
0.56368
0.563671
0.56366
0.563651
0.563639
0.56363
0.563619
0.56361
0.563599
0.56359
0.563578
0.563569
0.563558
0.563549
0.563537
0.563529
0.563517
0.563508
0.563497
0.563488
0.563476
0.563467
0.563456
0.563446
0.563435
0.563426
0.563415
0.563405
0.563395
0.563384
0.563374
0.563364
0.563353
0.563343
0.563333
0.563322
0.563312
0.563302
0.563291
0.563281
0.563271
0.56326
0.56325
0.56324
0.563229
0.563219
0.563209
0.563198
0.563188
0.563177
0.563167
0.563157
0.563146
0.563136
0.563125
0.563115
0.563104
0.563094
0.563083
0.563073
0.563063
0.563052
0.563042
0.563031
0.563021
0.56301
0.563
0.562989
0.562979
0.562968
0.562958
0.562947
0.562937
0.562926
0.562915
0.562905
0.562894
0.562884
0.562873
0.562863
0.562852
0.562841
0.562831
0.56282
0.56281
0.562799
0.562788
0.562778
0.562767
0.562757
0.562746
0.562735
0.562725
0.562714
0.562703
0.562693
0.562682
0.562671
0.562661
0.56265
0.562639
0.562629
0.562618
0.562607
0.562596
0.562586
0.562575
0.562564
0.562553
0.562543
0.562532
0.562521
0.56251
0.5625
0.562489
0.562478
0.562467
0.562456
0.562446
0.562435
0.562424
0.562413
0.562402
0.562392
0.562381
0.56237
0.562359
0.562348
0.562337
0.562326
0.562316
0.562305
0.562294
0.562283
0.562272
0.562261
0.56225
0.562239
0.562228
0.562217
0.562206
0.562196
0.562185
0.562174
0.562163
0.562152
0.562141
0.56213
0.562119
0.562108
0.562097
0.562086
0.562075
0.562064
0.562053
0.562042
0.562031
0.56202
0.562009
0.561997
0.561986
0.561975
0.561964
0.561953
0.561942
0.561931
0.56192
0.561909
0.561898
0.561887
0.561875
0.561864
0.561853
0.561842
0.561831
0.56182
0.561809
0.561797
0.561786
0.561775
0.561764
0.561753
0.561741
0.56173
0.561719
0.561708
0.561697
0.561685
0.561674
0.561663
0.561652
0.56164
0.561629
0.561618
0.561607
0.561595
0.561584
0.561573
0.561561
0.56155
0.561539
0.561527
0.561516
0.561505
0.561493
0.561482
0.561471
0.561459
0.561448
0.561437
0.561425
0.561414
0.561402
0.561391
0.56138
0.561368
0.561357
0.561345
0.561334
0.561322
0.561311
0.5613
0.561288
0.561277
0.561265
0.561254
0.561242
0.561231
0.561219
0.561208
0.561196
0.561185
0.561173
0.561162
0.56115
0.561138
0.561127
0.561115
0.561104
0.561092
0.561081
0.561069
0.561057
0.561046
0.561034
0.561023
0.561011
0.560999
0.560988
0.560976
0.560964
0.560953
0.560941
0.560929
0.560918
0.560906
0.560894
0.560883
0.560871
0.560859
0.560847
0.560836
0.560824
0.560812
0.5608
0.560789
0.560777
0.560765
0.560753
0.560741
0.56073
0.560718
0.560706
0.560694
0.560682
0.560671
0.560659
0.560647
0.560635
0.560623
0.560611
0.560599
0.560587
0.560576
0.560564
0.560552
0.56054
0.560528
0.560516
0.560504
0.560492
0.56048
0.560468
0.560456
0.560444
0.560432
0.56042
0.560408
0.560396
0.560384
0.560372
0.56036
0.560348
0.560336
0.560324
0.560312
0.5603
0.560288
0.560276
0.560264
0.560251
0.560239
0.560227
0.560215
0.560203
0.560191
0.560179
0.560167
0.560154
0.560142
0.56013
0.560118
0.560106
0.560093
0.560081
0.560069
0.560057
0.560044
0.560032
0.56002
0.560008
0.559995
0.559983
0.559971
0.559959
0.559946
0.559934
0.559922
0.559909
0.559897
0.559885
0.559872
0.55986
0.559847
0.559835
0.559823
0.55981
0.559798
0.559785
0.559773
0.559761
0.559748
0.559736
0.559723
0.559711
0.559698
0.559686
0.559673
0.559661
0.559648
0.559636
0.559623
0.559611
0.559598
0.559586
0.559573
0.55956
0.559548
0.559535
0.559523
0.55951
0.559497
0.559485
0.559472
0.559459
0.559447
0.559434
0.559421
0.559409
0.559396
0.559383
0.559371
0.559358
0.559345
0.559332
0.55932
0.559307
0.559294
0.559281
0.559268
0.559256
0.559243
0.55923
0.559217
0.559204
0.559191
0.559179
0.559166
0.559153
0.55914
0.559127
0.559114
0.559101
0.559088
0.559075
0.559062
0.559049
0.559036
0.559023
0.55901
0.558997
0.558984
0.558971
0.558958
0.558945
0.558932
0.558919
0.558906
0.558893
0.55888
0.558867
0.558854
0.558841
0.558827
0.558814
0.558801
0.558788
0.558775
0.558762
0.558748
0.558735
0.558722
0.558709
0.558695
0.558682
0.558669
0.558656
0.558642
0.558629
0.558616
0.558602
0.558589
0.558576
0.558562
0.558549
0.558535
0.558522
0.558509
0.558495
0.558482
0.558468
0.558455
0.558441
0.558428
0.558414
0.558401
0.558387
0.558374
0.55836
0.558347
0.558333
0.55832
0.558306
0.558292
0.558279
0.558265
0.558251
0.558238
0.558224
0.55821
0.558197
0.558183
0.558169
0.558156
0.558142
0.558128
0.558114
0.5581
0.558087
0.558073
0.558059
0.558045
0.558031
0.558017
0.558004
0.55799
0.557976
0.557962
0.557948
0.557934
0.55792
0.557906
0.557892
0.557878
0.557864
0.55785
0.557836
0.557822
0.557808
0.557794
0.557779
0.557765
0.557751
0.557737
0.557723
0.557709
0.557694
0.55768
0.557666
0.557652
0.557637
0.557623
0.557609
0.557595
0.55758
0.557566
0.557551
0.557537
0.557523
0.557508
0.557494
0.557479
0.557465
0.55745
0.557436
0.557421
0.557407
0.557392
0.557378
0.557363
0.557349
0.557334
0.557319
0.557305
0.55729
0.557275
0.557261
0.557246
0.557231
0.557216
0.557202
0.557187
0.557172
0.557157
0.557142
0.557128
0.557113
0.557098
0.557083
0.557068
0.557053
0.557038
0.557023
0.557008
0.556993
0.556978
0.556963
0.556948
0.556932
0.556917
0.556902
0.556887
0.556872
0.556857
0.556841
0.556826
0.556811
0.556795
0.55678
0.556765
0.556749
0.556734
0.556719
0.556703
0.556688
0.556672
0.556657
0.556641
0.556626
0.55661
0.556594
0.556579
0.556563
0.556547
0.556532
0.556516
0.5565
0.556485
0.556469
0.556453
0.556437
0.556421
0.556405
0.556389
0.556373
0.556358
0.556342
0.556326
0.556309
0.556293
0.556277
0.556261
0.556245
0.556229
0.556213
0.556196
0.55618
0.556164
0.556148
0.556131
0.556115
0.556098
0.556082
0.556066
0.556049
0.556033
0.556016
0.555999
0.555983
0.555966
0.55595
0.555933
0.555916
0.555899
0.555883
0.555866
0.555849
0.555832
0.555815
0.555798
0.555781
0.555764
0.555747
0.55573
0.555713
0.555696
0.555678
0.555661
0.555644
0.555627
0.555609
0.555592
0.555575
0.555557
0.55554
0.555522
0.555505
0.555487
0.555469
0.555452
0.555434
0.555416
0.555399
0.555381
0.555363
0.555345
0.555327
0.555309
0.555291
0.555273
0.555255
0.555237
0.555219
0.5552
0.555182
0.555164
0.555145
0.555127
0.555108
0.55509
0.555071
0.555053
0.555034
0.555016
0.554997
0.554978
0.554959
0.55494
0.554921
0.554902
0.554883
0.554864
0.554845
0.554826
0.554807
0.554788
0.554768
0.554749
0.554729
0.55471
0.55469
0.554671
0.554651
0.554631
0.554612
0.554592
0.554572
0.554552
0.554532
0.554512
0.554492
0.554472
0.554451
0.554431
0.554411
0.55439
0.55437
0.554349
0.554329
0.554308
0.554287
0.554266
0.554246
0.554225
0.554204
0.554182
0.554161
0.55414
0.554119
0.554097
0.554076
0.554055
0.554033
0.554011
0.55399
0.553968
0.553946
0.553924
0.553902
0.55388
0.553858
0.553835
0.553813
0.553791
0.553768
0.553745
0.553723
0.5537
0.553677
0.553654
0.553631
0.553608
0.553585
0.553562
0.553538
0.553515
0.553491
0.553468
0.553444
0.55342
0.553396
0.553372
0.553348
0.553324
0.553299
0.553275
0.55325
0.553226
0.553201
0.553176
0.553151
0.553126
0.553101
0.553076
0.55305
0.553025
0.552999
0.552973
0.552948
0.552922
0.552896
0.552869
0.552843
0.552817
0.55279
0.552764
0.552737
0.55271
0.552683
0.552656
0.552628
0.552601
0.552574
0.552546
0.552518
0.55249
0.552462
0.552434
0.552406
0.552377
0.552349
0.55232
0.552291
0.552262
0.552233
0.552203
0.552174
0.552144
0.552115
0.552085
0.552055
0.552024
0.551994
0.551963
0.551933
0.551902
0.551871
0.55184
0.551808
0.551777
0.551745
0.551713
0.551681
0.551649
0.551617
0.551584
0.551552
0.551519
0.551486
0.551453
0.551419
0.551386
0.551352
0.551318
0.551284
0.55125
0.551215
0.551181
0.551146
0.551111
0.551075
0.55104
0.551004
0.550968
0.550932
0.550896
0.55086
0.550823
0.550786
0.550749
0.550712
0.550675
0.550637
0.550599
0.550561
0.550523
0.550484
0.550446
0.550407
0.550368
0.550328
0.550289
0.550249
0.550209
0.550169
0.550128
0.550088
0.550047
0.550006
0.549964
0.549923
0.549881
0.549839
0.549797
0.549754
0.549711
0.549668
0.549625
0.549582
0.549538
0.549494
0.54945
0.549406
0.549361
0.549316
0.549271
0.549226
0.54918
0.549135
0.549089
0.549042
0.548996
0.548949
0.548902
0.548855
0.548807
0.548759
0.548712
0.548663
0.548615
0.548566
0.548517
0.548468
0.548418
0.548369
0.548319
0.548269
0.548218
0.548168
0.548117
0.548065
0.548014
0.547962
0.547911
0.547858
0.547806
0.547753
0.547701
0.547648
0.547594
0.547541
0.547487
0.547433
0.547379
0.547324
0.547269
0.547214
0.547159
0.547104
0.547048
0.546992
0.546936
0.54688
0.546823
0.546766
0.546709
0.546652
0.546594
0.546537
0.546479
0.546421
0.546362
0.546304
0.546245
0.546186
0.546127
0.546067
0.546008
0.545948
0.545888
0.545828
0.545767
0.545707
0.545646
0.545585
0.545524
0.545462
0.545401
0.545339
0.545277
0.545215
0.545153
0.54509
0.545028
0.544965
0.544902
0.544839
0.544775
0.544712
0.544648
0.544584
0.54452
0.544456
0.544392
0.544327
0.544263
0.544198
0.544133
0.544068
0.544003
0.543937
0.543872
0.543806
0.543741
0.543675
0.543609
0.543543
0.543476
0.54341
0.543343
0.543277
0.54321
0.543143
0.543076
0.543009
0.542942
0.542875
0.542807
0.54274
0.542672
0.542605
0.542537
0.542469
0.542401
0.542333
0.542265
0.542196
0.542128
0.54206
0.541991
0.541923
0.541854
0.541785
0.541717
0.541648
0.541579
0.54151
0.541441
0.541372
0.541302
0.541233
0.541164
0.541094
0.541025
0.540955
0.540886
0.540816
0.540747
0.540677
0.540607
0.540538
0.540468
0.540398
0.540328
0.540258
0.540188
0.540118
0.540048
0.539978
0.539908
0.539837
0.539767
0.539697
0.539627
0.539556
0.539486
0.539416
0.539345
0.539275
0.539205
0.539134
0.539064
0.538993
0.538923
0.538852
0.538782
0.538711
0.53864
0.53857
0.538499
0.538429
0.538358
0.538287
0.538217
0.538146
0.538075
0.538005
0.537934
0.537863
0.537792
0.537722
0.537651
0.53758
0.537509
0.537439
0.537368
0.537297
0.537226
0.537155
0.537085
0.537014
0.536943
0.536872
0.536801
0.536731
0.53666
0.536589
0.536518
0.536447
0.536377
0.536306
0.536235
0.536164
0.536093
0.536022
0.535952
0.535881
0.53581
0.535739
0.535668
0.535598
0.535527
0.535456
0.535385
0.535314
0.535244
0.535173
0.535102
0.535031
0.534961
0.53489
0.534819
0.534748
0.534678
0.534607
0.534536
0.534465
0.534395
0.534324
0.534253
0.534182
0.534112
0.534041
0.53397
0.5339
0.533829
0.533758
0.533688
0.533617
0.533546
0.533476
0.533405
0.533334
0.533264
0.533193
0.533122
0.533052
0.532981
0.53291
0.53284
0.532769
0.532699
0.532628
0.532558
0.532487
0.532416
0.532346
0.532275
0.532205
0.532134
0.532064
0.531993
0.531923
0.531852
0.531782
0.531711
0.531641
0.53157
0.5315
0.531429
0.531359
0.531288
0.531218
0.531148
0.531077
0.531007
0.530936
0.530866
0.530795
0.530725
0.530655
0.530584
0.530514
0.530444
0.530373
0.530303
0.530233
0.530162
0.530092
0.530022
0.529951
0.529881
0.529811
0.52974
0.52967
0.5296
0.52953
0.529459
0.529389
0.529319
0.529249
0.529178
0.529108
0.529038
0.528968
0.528898
0.528827
0.528757
0.528687
0.528617
0.528547
0.528477
0.528407
0.528336
0.528266
0.528196
0.528126
0.528056
0.527986
0.527916
0.527846
0.527776
0.527706
0.527635
0.527565
0.527495
0.527425
0.527355
0.527285
0.527215
0.527145
0.527075
0.527005
0.526935
0.526865
0.526795
0.526725
0.526655
0.526586
0.526516
0.526446
0.526376
0.526306
0.526236
0.526166
0.526096
0.526026
0.525956
0.525887
0.525817
0.525747
0.525677
0.525607
0.525537
0.525467
0.525398
0.525328
0.525258
0.525188
0.525118
0.525049
0.524979
0.524909
0.524839
0.52477
0.5247
0.52463
0.52456
0.524491
0.524421
0.524351
0.524282
0.524212
0.524142
0.524073
0.524003
0.523933
0.523864
0.523794
0.523724
0.523655
0.523585
0.523515
0.523446
0.523376
0.523307
0.523237
0.523168
0.523098
0.523028
0.522959
0.522889
0.52282
0.52275
0.522681
0.522611
0.522542
0.522472
0.522403
0.522333
0.522264
0.522194
0.522125
0.522055
0.521986
0.521916
0.521847
0.521778
0.521708
0.521639
0.521569
0.5215
0.521431
0.521361
0.521292
0.521222
0.521153
0.521084
0.521014
0.520945
0.520876
0.520806
0.520737
0.520668
0.520599
0.520529
0.52046
0.520391
0.520321
0.520252
0.520183
0.520114
0.520044
0.519975
0.519906
0.519837
0.519768
0.519698
0.519629
0.51956
0.519491
0.519422
0.519352
0.519283
0.519214
0.519145
0.519076
0.519007
0.518938
0.518869
0.518799
0.51873
0.518661
0.518592
0.518523
0.518454
0.518385
0.518316
0.518247
0.518178
0.518109
0.51804
0.517971
0.517902
0.517833
0.517764
0.517695
0.517626
0.517557
0.517488
0.517419
0.51735
0.517281
0.517212
0.517143
0.517074
0.517005
0.516937
0.516868
0.516799
0.51673
0.516661
0.516592
0.516523
0.516454
0.516386
0.516317
0.516248
0.516179
0.51611
0.516042
0.515973
0.515904
0.515835
0.515766
0.515698
0.515629
0.51556
0.515491
0.515423
0.515354
0.515285
0.515217
0.515148
0.515079
0.51501
0.514942
0.514873
0.514804
0.514736
0.514667
0.514598
0.51453
0.514461
0.514393
0.514324
0.514255
0.514187
0.514118
0.51405
0.513981
0.513912
0.513844
0.513775
0.513707
0.513638
0.51357
0.513501
0.513433
0.513364
0.513296
0.513227
0.513159
0.51309
0.513022
0.512953
0.512885
0.512816
0.512748
0.51268
0.512611
0.512543
0.512474
0.512406
0.512337
0.512269
0.512201
0.512132
0.512064
0.511996
0.511927
0.511859
0.511791
0.511722
0.511654
0.511586
0.511517
0.511449
0.511381
0.511312
0.511244
0.511176
0.511108
0.511039
0.510971
0.510903
0.510835
0.510766
0.510698
0.51063
0.510562
0.510494
0.510425
0.510357
0.510289
0.510221
0.510153
0.510085
0.510016
0.509948
0.50988
0.509812
0.509744
0.509676
0.509608
0.50954
0.509472
0.509403
0.509335
0.509267
0.509199
0.509131
0.509063
0.508995
0.508927
0.508859
0.508791
0.508723
0.508655
0.508587
0.508519
0.508451
0.508383
0.508315
0.508247
0.508179
0.508111
0.508044
0.507976
0.507908
0.50784
0.507772
0.507704
0.507636
0.507568
0.5075
0.507433
0.507365
0.507297
0.507229
0.507161
0.507093
0.507026
0.506958
0.50689
0.506822
0.506754
0.506687
0.506619