/*--------------------------------*- C++ -*----------------------------------*\
  =========                 |
  \\      /  F ield         | OpenFOAM: The Open Source CFD Toolbox
   \\    /   O peration     | Website:  https://openfoam.org
    \\  /    A nd           | Version:  9
     \\/     M anipulation  |
\*---------------------------------------------------------------------------*/
FoamFile
{
    format      ascii;
    class       volScalarField;
    location    "0.05";
    object      mag(U);
}
// * * * * * * * * * * * * * * * * * * * * * * * * * * * * * * * * * * * * * //

dimensions      [0 1 -1 0 0 0 0];

internalField   nonuniform List<scalar> 
1000
(
20.2574
20.4462
20.6978
20.906
21.0855
21.2619
21.4428
21.626
21.809
21.9914
22.1733
22.355
22.5365
22.7177
22.8987
23.0794
23.2598
23.4399
23.6197
23.7992
23.9784
24.1572
24.3356
24.5137
24.6914
24.8688
25.0457
25.2222
25.3983
25.574
25.7492
25.9241
26.0986
26.2725
26.4457
26.6184
26.7906
26.9623
27.1334
27.3041
27.4741
27.6436
27.8125
27.9807
28.1484
28.3154
28.4818
28.6476
28.8126
28.977
29.1408
29.3038
29.4661
29.6277
29.7885
29.9486
30.108
30.2666
30.4244
30.5814
30.7376
30.893
31.0476
31.2013
31.3543
31.5063
31.6576
31.8079
31.9575
32.1061
32.2538
32.4007
32.5467
32.6918
32.8359
32.9792
33.1216
33.263
33.4035
33.5431
33.6818
33.8195
33.9564
34.0923
34.2273
34.3614
34.4945
34.6268
34.7582
34.8886
35.0181
35.1468
35.2746
35.4015
35.5275
35.6527
35.777
35.9005
36.0231
36.145
36.266
36.3863
36.5057
36.6244
36.7424
36.8596
36.9761
37.0919
37.207
37.3214
37.4352
37.5484
37.6609
37.7728
37.8842
37.9949
38.1052
38.2149
38.3241
38.4328
38.541
38.6487
38.7561
38.863
38.9695
39.0756
39.1814
39.2868
39.3918
39.4966
39.601
39.7052
39.8091
39.9128
40.0162
40.1194
40.2223
40.3251
40.4277
40.5301
40.6324
40.7345
40.8365
40.9383
41.0401
41.1417
41.2432
41.3447
41.4461
41.5474
41.6486
41.7498
41.851
41.9521
42.0532
42.1542
42.2552
42.3563
42.4573
42.5583
42.6593
42.7602
42.8612
42.9623
43.0633
43.1643
43.2654
43.3665
43.4676
43.5687
43.6699
43.771
43.8723
43.9735
44.0748
44.1761
44.2775
44.3789
44.4804
44.5818
44.6834
44.7849
44.8866
44.9882
45.0899
45.1917
45.2935
45.3953
45.4972
45.5991
45.7011
45.8031
45.9052
46.0073
46.1095
46.2117
46.3139
46.4162
46.5186
46.621
46.7234
46.8259
46.9285
47.0311
47.1337
47.2364
47.3391
47.4419
47.5447
47.6476
47.7505
47.8535
47.9565
48.0596
48.1627
48.2658
48.369
48.4722
48.5755
48.6789
48.7823
48.8857
48.9892
49.0927
49.1962
49.2999
49.4035
49.5072
49.611
49.7147
49.8186
49.9225
50.0264
50.1304
50.2344
50.3384
50.4425
50.5467
50.6509
50.7551
50.8594
50.9637
51.0681
51.1725
51.277
51.3815
51.486
51.5906
51.6952
51.7999
51.9046
52.0094
52.1142
52.219
52.3239
52.4288
52.5338
52.6388
52.7438
52.8489
52.9541
53.0592
53.1645
53.2697
53.375
53.4804
53.5857
53.6912
53.7966
53.9021
54.0077
54.1133
54.2189
54.3246
54.4303
54.536
54.6418
54.7476
54.8535
54.9594
55.0653
55.1713
55.2773
55.3834
55.4895
55.5956
55.7018
55.808
55.9143
56.0206
56.1269
56.2333
56.3397
56.4461
56.5526
56.6591
56.7657
56.8723
56.9789
57.0856
57.1923
57.2991
57.4058
57.5127
57.6195
57.7264
57.8334
57.9403
58.0473
58.1544
58.2614
58.3686
58.4757
58.5829
58.6901
58.7974
58.9047
59.012
59.1194
59.2268
59.3342
59.4417
59.5492
59.6568
59.7643
59.872
59.9796
60.0873
60.195
60.3028
60.4106
60.5184
60.6263
60.7342
60.8421
60.9501
61.0581
61.1661
61.2742
61.3823
61.4904
61.5986
61.7068
61.8151
61.9234
62.0317
62.14
62.2484
62.3568
62.4653
62.5738
62.6823
62.7908
62.8994
63.008
63.1167
63.2254
63.3341
63.4429
63.5517
63.6605
63.7693
63.8782
63.9872
64.0961
64.2051
64.3141
64.4232
64.5323
64.6414
64.7506
64.8597
64.969
65.0782
65.1875
65.2968
65.4062
65.5156
65.625
65.7344
65.8439
65.9535
66.063
66.1726
66.2822
66.3919
66.5015
66.6112
66.721
66.8308
66.9406
67.0504
67.1603
67.2702
67.3801
67.4901
67.6001
67.7102
67.8202
67.9303
68.0405
68.1506
68.2608
68.371
68.4813
68.5916
68.7019
68.8123
68.9226
69.0331
69.1435
69.254
69.3645
69.475
69.5856
69.6962
69.8068
69.9175
70.0282
70.1389
70.2497
70.3605
70.4713
70.5821
70.693
70.8039
70.9149
71.0259
71.1369
71.2479
71.359
71.4701
71.5812
71.6924
71.8036
71.9148
72.026
72.1373
72.2486
72.36
72.4714
72.5828
72.6942
72.8057
72.9172
73.0287
73.1403
73.2519
73.3635
73.4751
73.5868
73.6985
73.8103
73.922
74.0338
74.1457
74.2575
74.3694
74.4813
74.5933
74.7053
74.8173
74.9293
75.0414
75.1535
75.2656
75.3778
75.49
75.6022
75.7144
75.8267
75.939
76.0514
76.1637
76.2761
76.3885
76.501
76.6135
76.726
76.8385
76.9511
77.0637
77.1763
77.289
77.4017
77.5144
77.6272
77.7399
77.8528
77.9656
78.0785
78.1914
78.3043
78.4172
78.5302
78.6432
78.7563
78.8693
78.9824
79.0955
79.2087
79.3219
79.4351
79.5483
79.6616
79.7749
79.8882
80.0016
80.115
80.2284
80.3418
80.4553
80.5688
80.6823
80.7959
80.9094
81.0231
81.1367
81.2504
81.3641
81.4778
81.5915
81.7053
81.8191
81.9329
82.0468
82.1607
82.2746
82.3885
82.5025
82.6165
82.7305
82.8445
82.9586
83.0727
83.1868
83.3009
83.4151
83.5293
83.6435
83.7578
83.872
83.9863
84.1007
84.215
84.3294
84.4438
84.5582
84.6727
84.7872
84.9017
85.0162
85.1308
85.2454
85.36
85.4746
85.5893
85.704
85.8187
85.9335
86.0483
86.1631
86.2779
86.3928
86.5077
86.6226
86.7375
86.8525
86.9675
87.0825
87.1976
87.3127
87.4278
87.5429
87.658
87.7732
87.8884
88.0036
88.1189
88.2341
88.3494
88.4646
88.5799
88.6952
88.8105
88.9258
89.0412
89.1565
89.2718
89.3871
89.5024
89.6177
89.733
89.8482
89.9635
90.0787
90.1939
90.309
90.4241
90.5391
90.6541
90.7691
90.8839
90.9987
91.1134
91.228
91.3426
91.457
91.5713
91.6855
91.7996
91.9135
92.0273
92.1409
92.2543
92.3676
92.4807
92.5935
92.7062
92.8186
92.9308
93.0427
93.1544
93.2657
93.3768
93.4876
93.5981
93.7082
93.8179
93.9273
94.0364
94.145
94.2532
94.361
94.4684
94.5754
94.6818
94.7878
94.8934
94.9984
95.103
95.207
95.3105
95.4135
95.5159
95.6178
95.7192
95.8201
95.9204
96.0201
96.1193
96.2179
96.3161
96.4136
96.5107
96.6072
96.7033
96.7988
96.8939
96.9885
97.0827
97.1764
97.2697
97.3627
97.4553
97.5475
97.6395
97.7311
97.8225
97.9137
98.0047
98.0956
98.1863
98.277
98.3676
98.4581
98.5487
98.6393
98.73
98.8208
98.9118
99.003
99.0944
99.186
99.2779
99.3701
99.4626
99.5555
99.6488
99.7425
99.8366
99.9312
100.026
100.122
100.218
100.314
100.412
100.509
100.607
100.706
100.805
100.905
101.006
101.107
101.208
101.311
101.413
101.517
101.621
101.725
101.83
101.935
102.041
102.148
102.255
102.362
102.47
102.579
102.688
102.797
102.907
103.017
103.128
103.239
103.35
103.462
103.574
103.687
103.8
103.913
104.026
104.14
104.254
104.368
104.483
104.598
104.713
104.828
104.943
105.059
105.175
105.291
105.407
105.524
105.64
105.757
105.874
105.991
106.108
106.225
106.342
106.46
106.577
106.695
106.812
106.93
107.047
107.165
107.282
107.4
107.517
107.634
107.751
107.867
107.984
108.1
108.216
108.331
108.447
108.561
108.675
108.789
108.901
109.014
109.125
109.235
109.345
109.453
109.561
109.667
109.772
109.876
109.978
110.079
110.179
110.276
110.372
110.467
110.559
110.65
110.738
110.825
110.91
110.992
111.073
111.151
111.227
111.302
111.374
111.444
111.512
111.579
111.643
111.706
111.767
111.827
111.885
111.941
111.997
112.052
112.106
112.159
112.211
112.263
112.315
112.367
112.419
112.471
112.524
112.576
112.63
112.684
112.739
112.795
112.853
112.911
112.97
113.031
113.093
113.157
113.221
113.288
113.355
113.424
113.495
113.567
113.641
113.716
113.792
113.87
113.949
114.029
114.111
114.194
114.279
114.364
114.451
114.539
114.628
114.719
114.81
114.903
114.997
115.091
115.187
115.283
115.381
115.48
115.579
115.679
115.781
115.883
115.985
116.089
116.194
116.299
116.405
116.512
116.62
116.728
116.837
116.947
117.057
117.168
117.28
117.393
117.506
117.62
117.734
117.849
117.965
118.081
118.198
118.315
118.433
118.551
118.671
118.79
118.91
119.031
119.152
119.274
119.396
119.519
119.642
119.766
119.89
120.015
120.14
120.266
120.392
120.519
120.646
120.774
120.902
121.03
121.159
121.288
121.418
121.548
121.679
121.809
121.941
122.073
122.205
122.337
122.47
122.604
122.737
122.871
123.006
123.141
123.276
123.412
123.548
123.684
123.821
123.958
124.095
124.233
124.371
124.509
124.648
124.787
124.926
125.066
125.206
125.346
125.487
125.628
125.769
125.911
126.053
126.195
126.338
126.481
126.624
126.767
126.911
127.055
127.199
127.344
127.489
127.634
127.779
127.925
128.071
128.217
128.364
128.511
128.658
128.805
128.953
129.101
129.249
129.397
129.546
129.695
129.844
129.994
130.143
130.293
130.444
130.594
130.745
130.896
131.047
131.198
131.35
131.502
131.654
131.806
131.959
132.112
132.265
132.418
132.572
132.725
132.879
133.034
133.188
133.343
133.497
133.652
133.808
133.963
134.119
134.275
134.434
134.696
)
;

boundaryField
{
    sides
    {
        type            calculated;
        value           nonuniform List<scalar> 2(134.696 20.2574);
    }
    empty
    {
        type            empty;
    }
}


// ************************************************************************* //
