/*--------------------------------*- C++ -*----------------------------------*\
  =========                 |
  \\      /  F ield         | OpenFOAM: The Open Source CFD Toolbox
   \\    /   O peration     | Website:  https://openfoam.org
    \\  /    A nd           | Version:  9
     \\/     M anipulation  |
\*---------------------------------------------------------------------------*/
FoamFile
{
    format      ascii;
    class       surfaceScalarField;
    location    "0.024";
    object      phi;
}
// * * * * * * * * * * * * * * * * * * * * * * * * * * * * * * * * * * * * * //

dimensions      [1 0 -1 0 0 0 0];

internalField   nonuniform List<scalar> 
999
(
17.1207
18.0606
19.0003
19.9391
20.8768
21.814
22.7515
23.6901
24.6296
25.5698
26.5103
27.4507
28.3913
29.3325
30.2739
31.2153
32.1564
33.0975
34.0384
34.9792
35.9199
36.8604
37.8009
38.7412
39.6815
40.6216
41.5616
42.5014
43.4412
44.3809
45.3204
46.2598
47.1991
48.1383
49.0773
50.0162
50.9551
51.8937
52.8323
53.7707
54.7091
55.6472
56.5853
57.5232
58.461
59.3987
60.3362
61.2737
62.2109
63.1481
64.0851
65.0219
65.9586
66.8952
67.8317
68.768
69.7041
70.6402
71.576
72.5118
73.4474
74.3828
75.3181
76.2533
77.1883
78.1232
79.058
79.9925
80.927
81.8613
82.7955
83.7295
84.6634
85.5971
86.5307
87.4641
88.3974
89.3305
90.2634
91.1963
92.1289
93.0614
93.9938
94.926
95.858
96.7898
97.7215
98.6531
99.5845
100.516
101.447
102.378
103.308
104.239
105.169
106.099
107.029
107.959
108.889
109.818
110.748
111.677
112.606
113.535
114.463
115.392
116.32
117.248
118.176
119.104
120.031
120.959
121.886
122.813
123.74
124.666
125.593
126.519
127.445
128.371
129.297
130.222
131.147
132.072
132.997
133.922
134.846
135.771
136.695
137.618
138.542
139.466
140.389
141.312
142.234
143.158
144.079
145.002
145.924
146.846
147.767
148.688
149.61
150.531
151.451
152.372
153.292
154.212
155.132
156.051
156.971
157.89
158.809
159.727
160.646
161.564
162.482
163.4
164.317
165.235
166.152
167.068
167.985
168.901
169.817
170.733
171.649
172.564
173.479
174.394
175.309
176.223
177.137
178.051
178.964
179.878
180.791
181.704
182.616
183.528
184.441
185.352
186.264
187.175
188.086
188.997
189.907
190.817
191.727
192.637
193.546
194.455
195.364
196.273
197.181
198.089
198.997
199.904
200.811
201.718
202.625
203.531
204.437
205.343
206.248
207.153
208.058
208.962
209.867
210.771
211.674
212.578
213.481
214.383
215.286
216.188
217.09
217.991
218.892
219.793
220.694
221.594
222.494
223.394
224.293
225.192
226.091
226.989
227.887
228.785
229.682
230.579
231.476
232.372
233.268
234.164
235.059
235.954
236.849
237.743
238.637
239.531
240.424
241.317
242.21
243.102
243.994
244.885
245.777
246.667
247.558
248.448
249.338
250.227
251.116
252.005
252.893
253.781
254.669
255.556
256.443
257.329
258.215
259.101
259.986
260.871
261.756
262.64
263.524
264.407
265.29
266.173
267.055
267.937
268.818
269.699
270.579
271.46
272.339
273.219
274.098
274.976
275.854
276.732
277.609
278.486
279.363
280.239
281.114
281.99
282.864
283.739
284.613
285.486
286.359
287.232
288.104
288.975
289.847
290.717
291.588
292.457
293.327
294.196
295.064
295.932
296.8
297.667
298.534
299.4
300.265
301.131
301.995
302.859
303.723
304.586
305.449
306.311
307.173
308.034
308.895
309.755
310.615
311.474
312.333
313.191
314.049
314.906
315.763
316.619
317.475
318.33
319.184
320.038
320.892
321.745
322.597
323.449
324.3
325.151
326.001
326.851
327.7
328.548
329.396
330.243
331.09
331.936
332.782
333.627
334.471
335.315
336.158
337
337.842
338.684
339.524
340.364
341.204
342.042
342.881
343.718
344.555
345.391
346.227
347.061
347.896
348.729
349.562
350.394
351.226
352.056
352.886
353.716
354.545
355.372
356.2
357.026
357.852
358.677
359.501
360.325
361.148
361.97
362.791
363.611
364.431
365.25
366.068
366.886
367.702
368.518
369.333
370.147
370.96
371.772
372.584
373.394
374.204
375.013
375.821
376.628
377.434
378.24
379.044
379.847
380.65
381.452
382.252
383.052
383.85
384.648
385.445
386.24
387.035
387.829
388.621
389.413
390.203
390.993
391.781
392.568
393.354
394.139
394.923
395.706
396.487
397.268
398.047
398.824
399.6
400.376
401.152
401.925
402.697
403.468
404.238
405.006
405.773
406.538
407.303
408.066
408.827
409.588
410.347
411.104
411.861
412.616
413.369
414.122
414.872
415.622
416.37
417.117
417.862
418.606
419.349
420.09
420.829
421.568
422.305
423.04
423.775
424.508
425.239
425.969
426.698
427.426
428.152
428.876
429.6
430.322
431.043
431.763
432.481
433.198
433.914
434.629
435.342
436.054
436.765
437.475
438.184
438.891
439.598
440.303
441.006
441.709
442.411
443.111
443.81
444.508
445.205
445.9
446.594
447.287
447.979
448.669
449.358
450.045
450.731
451.416
452.099
452.78
453.46
454.138
454.814
455.489
456.162
456.832
457.501
458.168
458.833
459.495
460.155
460.813
461.469
462.122
462.772
463.419
464.064
464.706
465.345
465.981
466.613
467.242
467.868
468.49
469.109
469.724
470.335
470.942
471.545
472.144
472.738
473.328
473.913
474.494
475.07
475.641
476.206
476.767
477.322
477.872
478.416
478.954
479.486
480.013
480.533
481.047
481.555
482.056
482.551
483.039
483.52
483.994
484.461
484.921
485.374
485.819
486.257
486.687
487.109
487.524
487.931
488.33
488.722
489.105
489.48
489.847
490.206
490.556
490.899
491.233
491.559
491.876
492.186
492.487
492.78
493.064
493.341
493.609
493.869
494.122
494.366
494.602
494.831
495.052
495.265
495.47
495.668
495.859
496.043
496.219
496.389
496.552
496.708
496.857
497
497.137
497.268
497.393
497.512
497.625
497.733
497.836
497.934
498.027
498.114
498.198
498.277
498.351
498.422
498.488
498.551
498.61
498.666
498.718
498.767
498.813
498.856
498.897
498.935
498.97
499.003
499.034
499.062
499.089
499.114
499.137
499.158
499.178
499.197
499.214
499.229
499.244
499.257
499.27
499.281
499.291
499.301
499.309
499.317
499.325
499.331
499.338
499.343
499.348
499.353
499.357
499.361
499.364
499.367
499.37
499.372
499.374
499.376
499.378
499.38
499.381
499.382
499.383
499.384
499.385
499.386
499.387
499.387
499.388
499.388
499.388
499.388
499.389
499.389
499.389
499.389
499.389
499.389
499.389
499.388
499.388
499.388
499.388
499.388
499.388
499.387
499.387
499.387
499.387
499.387
499.386
499.386
499.386
499.386
499.385
499.385
499.385
499.384
499.384
499.384
499.384
499.383
499.383
499.383
499.382
499.382
499.382
499.381
499.381
499.381
499.38
499.38
499.38
499.379
499.379
499.379
499.378
499.378
499.378
499.377
499.377
499.377
499.376
499.376
499.376
499.375
499.375
499.375
499.374
499.374
499.374
499.373
499.373
499.372
499.372
499.372
499.371
499.371
499.371
499.37
499.37
499.37
499.369
499.369
499.368
499.368
499.368
499.367
499.367
499.366
499.366
499.366
499.365
499.365
499.365
499.364
499.364
499.363
499.363
499.362
499.362
499.362
499.361
499.361
499.36
499.36
499.36
499.359
499.359
499.358
499.358
499.358
499.357
499.357
499.356
499.356
499.355
499.355
499.354
499.354
499.354
499.353
499.353
499.352
499.352
499.351
499.351
499.35
499.35
499.349
499.349
499.349
499.348
499.348
499.347
499.347
499.346
499.346
499.345
499.345
499.344
499.344
499.343
499.343
499.342
499.342
499.341
499.341
499.34
499.34
499.339
499.339
499.338
499.338
499.337
499.337
499.336
499.335
499.335
499.334
499.334
499.333
499.333
499.332
499.332
499.331
499.331
499.33
499.329
499.329
499.328
499.328
499.327
499.327
499.326
499.325
499.325
499.324
499.324
499.323
499.322
499.322
499.321
499.32
499.32
499.319
499.319
499.318
499.317
499.317
499.316
499.315
499.315
499.314
499.313
499.313
499.312
499.311
499.311
499.31
499.309
499.309
499.308
499.307
499.306
499.306
499.305
499.304
499.304
499.303
499.302
499.301
499.3
499.299
499.298
499.297
499.296
499.295
499.294
499.292
499.291
499.289
499.288
499.286
499.284
499.282
499.279
499.277
499.274
499.272
499.269
499.265
499.262
499.258
499.254
499.25
499.245
499.241
499.236
499.23
499.225
499.219
499.213
499.206
499.2
499.193
499.186
499.179
499.171
499.164
499.156
499.149
499.141
499.133
499.126
499.118
499.11
499.103
499.095
499.088
499.081
499.075
499.067
499.062
499.056
499.049
499.043
499.039
499.035
499.029
499.024
499.02
499.017
499.013
499.009
499.006
499.003
499
498.997
498.994
498.992
498.99
498.988
498.986
498.984
498.982
498.98
498.978
498.976
498.974
498.972
498.97
498.968
498.967
498.965
498.963
498.961
498.959
498.957
498.955
498.953
498.951
498.949
498.947
498.945
498.943
498.941
498.939
498.937
498.935
498.933
498.932
498.93
498.928
498.926
498.924
498.923
498.921
498.919
498.918
498.916
498.914
498.913
498.911
498.909
498.908
498.906
498.904
498.903
498.901
498.899
498.898
498.896
498.894
498.892
498.89
498.889
498.887
498.885
498.883
)
;

boundaryField
{
    sides
    {
        type            calculated;
        value           nonuniform List<scalar> 2(498.881 -16.1803);
    }
    empty
    {
        type            empty;
        value           nonuniform List<scalar> 0();
    }
}


// ************************************************************************* //
