/*--------------------------------*- C++ -*----------------------------------*\
  =========                 |
  \\      /  F ield         | OpenFOAM: The Open Source CFD Toolbox
   \\    /   O peration     | Website:  https://openfoam.org
    \\  /    A nd           | Version:  9
     \\/     M anipulation  |
\*---------------------------------------------------------------------------*/
FoamFile
{
    format      ascii;
    class       volScalarField;
    location    "0.038";
    object      ddt0(rho,K);
}
// * * * * * * * * * * * * * * * * * * * * * * * * * * * * * * * * * * * * * //

dimensions      [1 -1 -3 0 0 0 0];

internalField   nonuniform List<scalar> 
100
(
-2345.54
-5005.17
-8063.18
-10317
-13002.3
-16030.2
-19114.6
-22423.8
-26030.3
-29724.7
-33570.8
-37862.8
-42428.3
-47056.8
-51898.4
-57380.3
-62953.7
-67998
-73586
-80111.1
-86687.8
-92918.5
-98990
-105555
-113081
-120408
-128019
-134713
-141220
-148469
-154899
-161748
-168992
-176888
-185101
-195552
-205326
-213867
-228971
-241658
-249387
-255337
-265821
-272583
-274226
-277292
-286408
-302378
-321520
-337299
-347629
-353148
-354748
-355158
-358073
-365711
-377007
-389835
-401730
-412290
-422270
-429416
-435083
-440002
-441066
-434713
-415345
-370538
-257012
-125971
-1.17232e+06
-752922
-552798
-543951
-554284
-562234
-567895
-574422
-581977
-588550
-591106
-588870
-585426
-584327
-583505
-579499
-568932
-543583
-479727
-306431
-37285
-1.78322e+06
-1.13594e+06
-772734
-743043
-749755
-784722
-679710
-471502
-689578
)
;

boundaryField
{
    sides
    {
        type            calculated;
        value           nonuniform List<scalar> 2(-689578 -2345.54);
    }
    empty
    {
        type            empty;
    }
}


// ************************************************************************* //
