/*--------------------------------*- C++ -*----------------------------------*\
  =========                 |
  \\      /  F ield         | OpenFOAM: The Open Source CFD Toolbox
   \\    /   O peration     | Website:  https://openfoam.org
    \\  /    A nd           | Version:  9
     \\/     M anipulation  |
\*---------------------------------------------------------------------------*/
FoamFile
{
    format      ascii;
    class       volScalarField;
    location    "0.038";
    object      ddt0(rho);
}
// * * * * * * * * * * * * * * * * * * * * * * * * * * * * * * * * * * * * * //

dimensions      [1 -3 -1 0 0 0 0];

internalField   nonuniform List<scalar> 
100
(
-7.51037
-7.48804
-7.42101
-7.39679
-7.36378
-7.33876
-7.29612
-7.23253
-7.18771
-7.14848
-7.09484
-7.04722
-7.01975
-7.0256
-6.96913
-6.94681
-7.00186
-6.95657
-6.84243
-6.78082
-6.80018
-6.80973
-6.71415
-6.60288
-6.52917
-6.47587
-6.58549
-6.53231
-6.43189
-6.39128
-6.30915
-6.34604
-6.38331
-6.41568
-6.35872
-6.31055
-6.20342
-5.84267
-5.90775
-5.87035
-5.83563
-5.82622
-5.91826
-5.91263
-5.89411
-5.9555
-6.09388
-6.2708
-6.42902
-6.47356
-6.44388
-6.37153
-6.25956
-6.1288
-6.013
-5.94748
-5.92285
-5.95555
-6.01437
-6.06413
-6.07159
-5.97729
-5.85265
-5.71669
-5.54685
-5.26382
-4.66485
-3.38487
-0.275835
8.37538
-33.8622
-9.13421
-6.7996
-6.86225
-6.93874
-6.8542
-6.70403
-6.64869
-6.70889
-6.81169
-6.82677
-6.68515
-6.44869
-6.24625
-6.0691
-5.87504
-5.54141
-4.85873
-3.24779
0.838097
12.8629
-43.5476
-12.918
-8.0351
-8.07206
-8.37321
-9.0495
-6.65909
-3.3906
-10.5236
)
;

boundaryField
{
    sides
    {
        type            calculated;
        value           nonuniform List<scalar> 2(-10.5236 -7.51037);
    }
    empty
    {
        type            empty;
    }
}


// ************************************************************************* //
