/*--------------------------------*- C++ -*----------------------------------*\
  =========                 |
  \\      /  F ield         | OpenFOAM: The Open Source CFD Toolbox
   \\    /   O peration     | Website:  https://openfoam.org
    \\  /    A nd           | Version:  9
     \\/     M anipulation  |
\*---------------------------------------------------------------------------*/
FoamFile
{
    format      ascii;
    class       volScalarField;
    location    "0.038";
    object      p_0;
}
// * * * * * * * * * * * * * * * * * * * * * * * * * * * * * * * * * * * * * //

dimensions      [1 -1 -2 0 0 0 0];

internalField   nonuniform List<scalar> 
100
(
17536.3
17509.5
17444.9
17382.9
17335.9
17291
17245.5
17201
17157.7
17115.2
17073.9
17033.8
16995
16957.3
16921.1
16886.7
16853.7
16822.1
16792.9
16766.2
16741.3
16718.1
16697.7
16680.5
16665.6
16653.8
16644.3
16637.1
16633.1
16631.2
16631.2
16631.3
16631.8
16633.1
16636.4
16643.2
16657.4
16677.9
16715.3
16761.7
16812.9
16864.5
16920.4
16978.6
17034.4
17087
17138.2
17191
17248.5
17311.2
17378
17447.6
17518.9
17591.2
17665.4
17743.1
17825.4
17912.9
18004.9
18100.7
18200.3
18303.9
18410.4
18519.4
18629.4
18738.6
18844.5
18944.1
19029.3
19076
19201.5
19475.3
19606.6
19733.4
19862.1
19993.1
20125.5
20258.5
20391.6
20524.6
20656.8
20788
20917.9
21046.6
21173.3
21297.6
21417.4
21533.2
21639.6
21728.1
21767.3
21884.5
22226.3
22373.8
22505.7
22625
22727.2
22814.8
22832.9
22806.5
)
;

boundaryField
{
    sides
    {
        type            zeroGradient;
    }
    empty
    {
        type            empty;
    }
}


// ************************************************************************* //
