/*--------------------------------*- C++ -*----------------------------------*\
  =========                 |
  \\      /  F ield         | OpenFOAM: The Open Source CFD Toolbox
   \\    /   O peration     | Website:  https://openfoam.org
    \\  /    A nd           | Version:  9
     \\/     M anipulation  |
\*---------------------------------------------------------------------------*/
FoamFile
{
    format      ascii;
    class       surfaceScalarField;
    location    "0.038";
    object      phi_0;
}
// * * * * * * * * * * * * * * * * * * * * * * * * * * * * * * * * * * * * * //

dimensions      [1 0 -1 0 0 0 0];

internalField   nonuniform List<scalar> 
99
(
59.304
62.2992
65.2676
68.2263
71.1718
74.1073
77.0258
79.9188
82.7939
85.6533
88.4912
91.3101
94.118
96.9282
99.7159
102.495
105.295
108.078
110.815
113.527
116.247
118.971
121.657
124.298
126.91
129.5
132.134
134.747
137.32
139.876
142.4
144.939
147.492
150.058
152.602
155.126
157.607
159.944
162.307
164.656
166.99
169.32
171.688
174.053
176.41
178.792
181.23
183.738
186.31
188.899
191.477
194.026
196.529
198.981
201.386
203.765
206.134
208.516
210.922
213.348
215.776
218.167
220.508
222.795
225.014
227.119
228.985
230.339
230.45
227.099
240.644
244.298
247.018
249.763
252.538
255.28
257.962
260.621
263.305
266.029
268.76
271.434
274.014
276.512
278.94
281.29
283.506
285.45
286.749
286.414
281.268
298.687
303.855
307.069
310.298
313.647
317.267
319.93
321.287
)
;

boundaryField
{
    sides
    {
        type            calculated;
        value           nonuniform List<scalar> 2(325.496 -56.2998);
    }
    empty
    {
        type            empty;
        value           nonuniform List<scalar> 0();
    }
}


// ************************************************************************* //
