/*--------------------------------*- C++ -*----------------------------------*\
  =========                 |
  \\      /  F ield         | OpenFOAM: The Open Source CFD Toolbox
   \\    /   O peration     | Website:  https://openfoam.org
    \\  /    A nd           | Version:  9
     \\/     M anipulation  |
\*---------------------------------------------------------------------------*/
FoamFile
{
    format      ascii;
    class       volScalarField;
    location    "0.038";
    object      T;
}
// * * * * * * * * * * * * * * * * * * * * * * * * * * * * * * * * * * * * * //

dimensions      [0 0 0 1 0 0 0];

internalField   nonuniform List<scalar> 
100
(
210.398
210.271
210.145
210.022
209.933
209.842
209.729
209.653
209.605
209.549
209.507
209.49
209.468
209.404
209.349
209.302
209.196
209.031
208.927
208.884
208.815
208.678
208.548
208.491
208.481
208.475
208.432
208.333
208.303
208.306
208.335
208.363
208.365
208.347
208.342
208.357
208.412
208.525
208.671
208.845
209.032
209.186
209.374
209.606
209.833
210.026
210.195
210.363
210.56
210.799
211.067
211.337
211.594
211.832
212.073
212.344
212.661
213.01
213.362
213.7
214.033
214.384
214.77
215.19
215.612
215.997
216.326
216.609
216.866
217.066
217.408
218.476
218.939
219.314
219.666
220.053
220.518
221.031
221.534
221.992
222.392
222.781
223.194
223.659
224.123
224.582
224.978
225.326
225.606
225.879
226.02
226.237
227.348
227.88
228.237
228.624
228.826
229.14
229.133
229.362
)
;

boundaryField
{
    sides
    {
        type            zeroGradient;
    }
    empty
    {
        type            empty;
    }
}


// ************************************************************************* //
