/*--------------------------------*- C++ -*----------------------------------*\
  =========                 |
  \\      /  F ield         | OpenFOAM: The Open Source CFD Toolbox
   \\    /   O peration     | Website:  https://openfoam.org
    \\  /    A nd           | Version:  9
     \\/     M anipulation  |
\*---------------------------------------------------------------------------*/
FoamFile
{
    format      ascii;
    class       volVectorField;
    location    "0.038";
    object      U_0;
}
// * * * * * * * * * * * * * * * * * * * * * * * * * * * * * * * * * * * * * //

dimensions      [0 1 -1 0 0 0 0];

internalField   nonuniform List<vector> 
100
(
(48.5908 0 0)
(51.0453 0 0)
(54.7496 0 0)
(57.8704 0 0)
(60.5196 0 0)
(63.1849 0 0)
(65.8817 0 0)
(68.5714 0 0)
(71.2638 0 0)
(73.9528 0 0)
(76.6306 0 0)
(79.3084 0 0)
(81.9899 0 0)
(84.6581 0 0)
(87.3122 0 0)
(89.969 0 0)
(92.618 0 0)
(95.2279 0 0)
(97.8067 0 0)
(100.389 0 0)
(102.97 0 0)
(105.514 0 0)
(108.008 0 0)
(110.479 0 0)
(112.945 0 0)
(115.391 0 0)
(117.808 0 0)
(120.182 0 0)
(122.521 0 0)
(124.851 0 0)
(127.185 0 0)
(129.529 0 0)
(131.879 0 0)
(134.223 0 0)
(136.545 0 0)
(138.814 0 0)
(140.995 0 0)
(142.996 0 0)
(144.831 0 0)
(146.629 0 0)
(148.411 0 0)
(150.15 0 0)
(151.875 0 0)
(153.623 0 0)
(155.38 0 0)
(157.143 0 0)
(158.929 0 0)
(160.751 0 0)
(162.608 0 0)
(164.478 0 0)
(166.326 0 0)
(168.123 0 0)
(169.852 0 0)
(171.506 0 0)
(173.092 0 0)
(174.631 0 0)
(176.142 0 0)
(177.633 0 0)
(179.101 0 0)
(180.54 0 0)
(181.951 0 0)
(183.331 0 0)
(184.684 0 0)
(186.023 0 0)
(187.349 0 0)
(188.65 0 0)
(189.913 0 0)
(191.121 0 0)
(192.25 0 0)
(193.292 0 0)
(194.586 0 0)
(196.111 0 0)
(197.482 0 0)
(198.741 0 0)
(199.989 0 0)
(201.236 0 0)
(202.487 0 0)
(203.745 0 0)
(205.005 0 0)
(206.259 0 0)
(207.496 0 0)
(208.714 0 0)
(209.921 0 0)
(211.134 0 0)
(212.362 0 0)
(213.602 0 0)
(214.845 0 0)
(216.086 0 0)
(217.32 0 0)
(218.513 0 0)
(219.631 0 0)
(221 0 0)
(222.627 0 0)
(224.141 0 0)
(225.609 0 0)
(227.209 0 0)
(229.046 0 0)
(231.117 0 0)
(233.202 0 0)
(235.47 0 0)
)
;

boundaryField
{
    sides
    {
        type            zeroGradient;
    }
    empty
    {
        type            empty;
    }
}


// ************************************************************************* //
