/*--------------------------------*- C++ -*----------------------------------*\
  =========                 |
  \\      /  F ield         | OpenFOAM: The Open Source CFD Toolbox
   \\    /   O peration     | Website:  https://openfoam.org
    \\  /    A nd           | Version:  9
     \\/     M anipulation  |
\*---------------------------------------------------------------------------*/
FoamFile
{
    format      ascii;
    class       volScalarField;
    location    "0.036";
    object      mag(U);
}
// * * * * * * * * * * * * * * * * * * * * * * * * * * * * * * * * * * * * * //

dimensions      [0 1 -1 0 0 0 0];

internalField   nonuniform List<scalar> 
100
(
46.7045
49.5556
53.5639
56.8401
59.7184
62.6046
65.5341
68.4783
71.418
74.3479
77.2843
80.223
83.1451
86.0644
88.9888
91.8924
94.7748
97.6622
100.554
103.422
106.262
109.095
111.931
114.752
117.54
120.295
123.031
125.756
128.457
131.126
133.76
136.36
138.939
141.498
144.029
146.55
149.077
151.601
154.109
156.573
158.955
161.191
163.291
165.316
167.284
169.21
171.099
172.949
174.744
176.483
178.172
179.811
181.404
182.96
184.479
185.957
187.4
188.816
190.212
191.594
192.965
194.321
195.66
196.988
198.315
199.643
200.969
202.284
203.587
204.88
206.169
207.461
208.756
210.049
211.331
212.606
213.885
215.173
216.473
217.788
219.113
220.448
221.79
223.148
224.521
225.911
227.315
228.73
230.153
231.574
232.993
234.388
235.75
237.051
238.261
239.363
240.354
241.241
242.051
244.211
)
;

boundaryField
{
    sides
    {
        type            calculated;
        value           nonuniform List<scalar> 2(244.211 46.7045);
    }
    empty
    {
        type            empty;
    }
}


// ************************************************************************* //
