/*--------------------------------*- C++ -*----------------------------------*\
  =========                 |
  \\      /  F ield         | OpenFOAM: The Open Source CFD Toolbox
   \\    /   O peration     | Website:  https://openfoam.org
    \\  /    A nd           | Version:  9
     \\/     M anipulation  |
\*---------------------------------------------------------------------------*/
FoamFile
{
    format      ascii;
    class       volScalarField;
    location    "0.016";
    object      mag(U);
}
// * * * * * * * * * * * * * * * * * * * * * * * * * * * * * * * * * * * * * //

dimensions      [0 1 -1 0 0 0 0];

internalField   nonuniform List<scalar> 
10000
(
0.84984
1.01798
1.0863
1.18943
1.2886
1.38474
1.48168
1.5792
1.67659
1.77387
1.87115
1.96845
2.06576
2.16307
2.26037
2.35768
2.45498
2.55229
2.6496
2.74691
2.84422
2.94152
3.03883
3.13614
3.23345
3.33076
3.42808
3.52539
3.6227
3.72001
3.81733
3.91464
4.01195
4.10927
4.20659
4.3039
4.40122
4.49854
4.59585
4.69317
4.79049
4.88781
4.98513
5.08245
5.17977
5.27709
5.37442
5.47174
5.56906
5.66639
5.76371
5.86103
5.95836
6.05569
6.15301
6.25034
6.34767
6.44499
6.54232
6.63965
6.73698
6.83431
6.93164
7.02897
7.12631
7.22364
7.32097
7.4183
7.51564
7.61297
7.71031
7.80764
7.90498
8.00231
8.09965
8.19699
8.29433
8.39166
8.489
8.58634
8.68368
8.78102
8.87836
8.97571
9.07305
9.17039
9.26773
9.36508
9.46242
9.55976
9.65711
9.75446
9.8518
9.94915
10.0465
10.1438
10.2412
10.3385
10.4359
10.5332
10.6306
10.7279
10.8253
10.9226
11.02
11.1173
11.2147
11.312
11.4094
11.5068
11.6041
11.7015
11.7988
11.8962
11.9935
12.0909
12.1882
12.2856
12.383
12.4803
12.5777
12.675
12.7724
12.8698
12.9671
13.0645
13.1618
13.2592
13.3566
13.4539
13.5513
13.6487
13.746
13.8434
13.9408
14.0381
14.1355
14.2329
14.3302
14.4276
14.525
14.6223
14.7197
14.8171
14.9144
15.0118
15.1092
15.2066
15.3039
15.4013
15.4987
15.596
15.6934
15.7908
15.8882
15.9855
16.0829
16.1803
16.2777
16.375
16.4724
16.5698
16.6672
16.7646
16.8619
16.9593
17.0567
17.1541
17.2515
17.3488
17.4462
17.5436
17.641
17.7384
17.8357
17.9331
18.0305
18.1279
18.2253
18.3227
18.42
18.5174
18.6148
18.7122
18.8096
18.907
19.0044
19.1017
19.1991
19.2965
19.3939
19.4913
19.5887
19.6861
19.7835
19.8809
19.9783
20.0756
20.173
20.2704
20.3678
20.4652
20.5626
20.66
20.7574
20.8548
20.9522
21.0496
21.147
21.2444
21.3418
21.4392
21.5366
21.634
21.7314
21.8287
21.9261
22.0235
22.1209
22.2183
22.3157
22.4131
22.5105
22.6079
22.7053
22.8027
22.9001
22.9975
23.0949
23.1923
23.2898
23.3872
23.4846
23.582
23.6794
23.7768
23.8742
23.9716
24.069
24.1664
24.2638
24.3612
24.4586
24.556
24.6534
24.7508
24.8482
24.9456
25.043
25.1405
25.2379
25.3353
25.4327
25.5301
25.6275
25.7249
25.8223
25.9197
26.0171
26.1146
26.212
26.3094
26.4068
26.5042
26.6016
26.699
26.7964
26.8938
26.9913
27.0887
27.1861
27.2835
27.3809
27.4783
27.5757
27.6732
27.7706
27.868
27.9654
28.0628
28.1602
28.2577
28.3551
28.4525
28.5499
28.6473
28.7447
28.8422
28.9396
29.037
29.1344
29.2318
29.3293
29.4267
29.5241
29.6215
29.7189
29.8163
29.9138
30.0112
30.1086
30.206
30.3034
30.4009
30.4983
30.5957
30.6931
30.7906
30.888
30.9854
31.0828
31.1802
31.2777
31.3751
31.4725
31.5699
31.6674
31.7648
31.8622
31.9596
32.057
32.1545
32.2519
32.3493
32.4467
32.5442
32.6416
32.739
32.8364
32.9339
33.0313
33.1287
33.2261
33.3236
33.421
33.5184
33.6158
33.7133
33.8107
33.9081
34.0055
34.103
34.2004
34.2978
34.3953
34.4927
34.5901
34.6875
34.785
34.8824
34.9798
35.0772
35.1747
35.2721
35.3695
35.467
35.5644
35.6618
35.7592
35.8567
35.9541
36.0515
36.1489
36.2464
36.3438
36.4412
36.5387
36.6361
36.7335
36.8309
36.9284
37.0258
37.1232
37.2207
37.3181
37.4155
37.5129
37.6104
37.7078
37.8052
37.9026
38.0001
38.0975
38.1949
38.2924
38.3898
38.4872
38.5846
38.6821
38.7795
38.8769
38.9744
39.0718
39.1692
39.2666
39.3641
39.4615
39.5589
39.6563
39.7538
39.8512
39.9486
40.0461
40.1435
40.2409
40.3383
40.4358
40.5332
40.6306
40.728
40.8255
40.9229
41.0203
41.1177
41.2152
41.3126
41.41
41.5075
41.6049
41.7023
41.7997
41.8972
41.9946
42.092
42.1894
42.2869
42.3843
42.4817
42.5791
42.6765
42.774
42.8714
42.9688
43.0662
43.1637
43.2611
43.3585
43.4559
43.5534
43.6508
43.7482
43.8456
43.943
44.0405
44.1379
44.2353
44.3327
44.4301
44.5276
44.625
44.7224
44.8198
44.9172
45.0147
45.1121
45.2095
45.3069
45.4043
45.5018
45.5992
45.6966
45.794
45.8914
45.9888
46.0863
46.1837
46.2811
46.3785
46.4759
46.5733
46.6707
46.7682
46.8656
46.963
47.0604
47.1578
47.2552
47.3526
47.45
47.5474
47.6449
47.7423
47.8397
47.9371
48.0345
48.1319
48.2293
48.3267
48.4241
48.5215
48.6189
48.7163
48.8137
48.9111
49.0085
49.106
49.2034
49.3008
49.3982
49.4956
49.593
49.6904
49.7878
49.8852
49.9826
50.08
50.1774
50.2748
50.3722
50.4695
50.5669
50.6643
50.7617
50.8591
50.9565
51.0539
51.1513
51.2487
51.3461
51.4435
51.5409
51.6383
51.7357
51.833
51.9304
52.0278
52.1252
52.2226
52.32
52.4174
52.5147
52.6121
52.7095
52.8069
52.9043
53.0016
53.099
53.1964
53.2938
53.3912
53.4885
53.5859
53.6833
53.7807
53.878
53.9754
54.0728
54.1702
54.2675
54.3649
54.4623
54.5596
54.657
54.7544
54.8517
54.9491
55.0465
55.1438
55.2412
55.3385
55.4359
55.5333
55.6306
55.728
55.8253
55.9227
56.02
56.1174
56.2147
56.3121
56.4094
56.5068
56.6041
56.7015
56.7988
56.8962
56.9935
57.0909
57.1882
57.2856
57.3829
57.4802
57.5776
57.6749
57.7723
57.8696
57.9669
58.0643
58.1616
58.2589
58.3562
58.4536
58.5509
58.6482
58.7455
58.8429
58.9402
59.0375
59.1348
59.2322
59.3295
59.4268
59.5241
59.6214
59.7187
59.816
59.9133
60.0107
60.108
60.2053
60.3026
60.3999
60.4972
60.5945
60.6918
60.7891
60.8864
60.9837
61.0809
61.1782
61.2755
61.3728
61.4701
61.5674
61.6647
61.762
61.8592
61.9565
62.0538
62.1511
62.2483
62.3456
62.4429
62.5401
62.6374
62.7347
62.8319
62.9292
63.0265
63.1237
63.221
63.3182
63.4155
63.5127
63.61
63.7072
63.8045
63.9017
63.999
64.0962
64.1935
64.2907
64.3879
64.4852
64.5824
64.6796
64.7768
64.8741
64.9713
65.0685
65.1657
65.2629
65.3602
65.4574
65.5546
65.6518
65.749
65.8462
65.9434
66.0406
66.1378
66.235
66.3322
66.4294
66.5266
66.6237
66.7209
66.8181
66.9153
67.0125
67.1096
67.2068
67.304
67.4011
67.4983
67.5955
67.6926
67.7898
67.8869
67.9841
68.0812
68.1784
68.2755
68.3727
68.4698
68.5669
68.6641
68.7612
68.8583
68.9555
69.0526
69.1497
69.2468
69.3439
69.441
69.5381
69.6352
69.7323
69.8294
69.9265
70.0236
70.1207
70.2178
70.3149
70.412
70.509
70.6061
70.7032
70.8003
70.8973
70.9944
71.0914
71.1885
71.2855
71.3826
71.4796
71.5767
71.6737
71.7707
71.8678
71.9648
72.0618
72.1588
72.2558
72.3528
72.4499
72.5469
72.6439
72.7409
72.8378
72.9348
73.0318
73.1288
73.2258
73.3227
73.4197
73.5167
73.6136
73.7106
73.8075
73.9045
74.0014
74.0984
74.1953
74.2922
74.3891
74.4861
74.583
74.6799
74.7768
74.8737
74.9706
75.0675
75.1644
75.2613
75.3581
75.455
75.5519
75.6488
75.7456
75.8425
75.9393
76.0362
76.133
76.2298
76.3267
76.4235
76.5203
76.6171
76.7139
76.8107
76.9075
77.0043
77.1011
77.1979
77.2946
77.3914
77.4882
77.5849
77.6817
77.7784
77.8752
77.9719
78.0686
78.1653
78.2621
78.3588
78.4555
78.5522
78.6489
78.7455
78.8422
78.9389
79.0355
79.1322
79.2289
79.3255
79.4221
79.5188
79.6154
79.712
79.8086
79.9052
80.0018
80.0984
80.195
80.2915
80.3881
80.4847
80.5812
80.6778
80.7743
80.8708
80.9673
81.0638
81.1603
81.2568
81.3533
81.4498
81.5463
81.6427
81.7392
81.8356
81.9321
82.0285
82.1249
82.2213
82.3177
82.4141
82.5105
82.6069
82.7032
82.7996
82.8959
82.9923
83.0886
83.1849
83.2812
83.3775
83.4738
83.5701
83.6663
83.7626
83.8588
83.9551
84.0513
84.1475
84.2437
84.3399
84.4361
84.5323
84.6284
84.7246
84.8207
84.9168
85.013
85.1091
85.2052
85.3012
85.3973
85.4934
85.5894
85.6854
85.7815
85.8775
85.9735
86.0694
86.1654
86.2614
86.3573
86.4532
86.5491
86.645
86.7409
86.8368
86.9327
87.0285
87.1243
87.2202
87.316
87.4118
87.5075
87.6033
87.699
87.7948
87.8905
87.9862
88.0819
88.1775
88.2732
88.3688
88.4644
88.56
88.6556
88.7512
88.8467
88.9423
89.0378
89.1333
89.2288
89.3242
89.4197
89.5151
89.6105
89.7059
89.8013
89.8966
89.992
90.0873
90.1826
90.2779
90.3731
90.4683
90.5636
90.6588
90.7539
90.8491
90.9442
91.0393
91.1344
91.2295
91.3245
91.4195
91.5145
91.6095
91.7045
91.7994
91.8943
91.9892
92.0841
92.1789
92.2737
92.3685
92.4633
92.558
92.6527
92.7474
92.842
92.9367
93.0313
93.1258
93.2204
93.3149
93.4094
93.5039
93.5983
93.6927
93.7871
93.8814
93.9758
94.07
94.1643
94.2585
94.3527
94.4469
94.541
94.6351
94.7292
94.8232
94.9172
95.0112
95.1051
95.199
95.2929
95.3867
95.4805
95.5742
95.668
95.7616
95.8553
95.9489
96.0424
96.136
96.2295
96.3229
96.4163
96.5097
96.603
96.6963
96.7895
96.8827
96.9759
97.069
97.1621
97.2551
97.348
97.441
97.5339
97.6267
97.7195
97.8122
97.9049
97.9976
98.0901
98.1827
98.2752
98.3676
98.46
98.5523
98.6446
98.7368
98.829
98.9211
99.0132
99.1052
99.1971
99.289
99.3808
99.4726
99.5643
99.6559
99.7475
99.839
99.9304
100.022
100.113
100.204
100.296
100.387
100.478
100.569
100.66
100.75
100.841
100.932
101.023
101.113
101.204
101.294
101.384
101.474
101.565
101.655
101.745
101.835
101.924
102.014
102.104
102.193
102.283
102.372
102.461
102.551
102.64
102.729
102.818
102.907
102.995
103.084
103.172
103.261
103.349
103.437
103.525
103.613
103.701
103.789
103.877
103.964
104.052
104.139
104.226
104.313
104.4
104.487
104.574
104.661
104.747
104.834
104.92
105.006
105.092
105.178
105.263
105.349
105.434
105.52
105.605
105.69
105.775
105.86
105.944
106.029
106.113
106.197
106.281
106.365
106.448
106.532
106.615
106.699
106.782
106.864
106.947
107.03
107.112
107.194
107.276
107.358
107.44
107.521
107.602
107.684
107.765
107.845
107.926
108.006
108.086
108.166
108.246
108.326
108.405
108.484
108.563
108.642
108.721
108.799
108.877
108.955
109.033
109.111
109.188
109.265
109.342
109.419
109.495
109.572
109.648
109.724
109.799
109.875
109.95
110.025
110.099
110.174
110.248
110.322
110.396
110.469
110.543
110.616
110.689
110.761
110.833
110.906
110.977
111.049
111.12
111.192
111.263
111.333
111.404
111.474
111.544
111.614
111.683
111.752
111.821
111.89
111.958
112.027
112.095
112.162
112.23
112.297
112.364
112.431
112.498
112.564
112.63
112.696
112.762
112.827
112.892
112.957
113.022
113.086
113.15
113.214
113.278
113.342
113.405
113.468
113.531
113.594
113.656
113.718
113.78
113.842
113.904
113.965
114.026
114.087
114.148
114.209
114.269
114.329
114.389
114.449
114.509
114.568
114.628
114.687
114.746
114.804
114.863
114.921
114.98
115.038
115.096
115.153
115.211
115.268
115.326
115.383
115.44
115.497
115.553
115.61
115.667
115.723
115.779
115.835
115.891
115.947
116.003
116.058
116.114
116.169
116.224
116.279
116.334
116.389
116.444
116.499
116.554
116.608
116.663
116.717
116.771
116.826
116.88
116.934
116.988
117.042
117.096
117.149
117.203
117.257
117.31
117.364
117.418
117.471
117.524
117.578
117.631
117.684
117.737
117.79
117.843
117.897
117.95
118.002
118.055
118.108
118.161
118.214
118.267
118.319
118.372
118.425
118.477
118.53
118.583
118.635
118.688
118.74
118.793
118.845
118.898
118.95
119.003
119.055
119.107
119.16
119.212
119.265
119.317
119.369
119.421
119.474
119.526
119.578
119.631
119.683
119.735
119.787
119.839
119.892
119.944
119.996
120.048
120.1
120.153
120.205
120.257
120.309
120.361
120.413
120.465
120.518
120.57
120.622
120.674
120.726
120.778
120.83
120.882
120.934
120.986
121.039
121.091
121.143
121.195
121.247
121.299
121.351
121.403
121.455
121.507
121.559
121.611
121.663
121.716
121.768
121.82
121.872
121.924
121.976
122.028
122.08
122.132
122.184
122.236
122.288
122.34
122.392
122.444
122.496
122.549
122.601
122.653
122.705
122.757
122.809
122.861
122.913
122.965
123.017
123.069
123.121
123.173
123.225
123.277
123.329
123.381
123.433
123.485
123.537
123.59
123.642
123.694
123.746
123.798
123.85
123.902
123.954
124.006
124.058
124.11
124.162
124.214
124.266
124.318
124.37
124.422
124.474
124.526
124.578
124.631
124.683
124.735
124.787
124.839
124.891
124.943
124.995
125.047
125.099
125.151
125.203
125.255
125.307
125.359
125.411
125.463
125.515
125.567
125.619
125.671
125.724
125.776
125.828
125.88
125.932
125.984
126.036
126.088
126.14
126.192
126.244
126.296
126.348
126.4
126.452
126.504
126.556
126.608
126.66
126.712
126.765
126.817
126.869
126.921
126.973
127.025
127.077
127.129
127.181
127.233
127.285
127.337
127.389
127.441
127.493
127.545
127.597
127.649
127.701
127.753
127.805
127.858
127.91
127.962
128.014
128.066
128.118
128.17
128.222
128.274
128.326
128.378
128.43
128.482
128.534
128.586
128.638
128.69
128.742
128.794
128.846
128.899
128.951
129.003
129.055
129.107
129.159
129.211
129.263
129.315
129.367
129.419
129.471
129.523
129.575
129.627
129.679
129.731
129.783
129.835
129.887
129.939
129.992
130.044
130.096
130.148
130.2
130.252
130.304
130.356
130.408
130.46
130.512
130.564
130.616
130.668
130.72
130.772
130.824
130.876
130.928
130.98
131.033
131.085
131.137
131.189
131.241
131.293
131.345
131.397
131.449
131.501
131.553
131.605
131.657
131.709
131.761
131.813
131.865
131.917
131.969
132.021
132.074
132.126
132.178
132.23
132.282
132.334
132.386
132.438
132.49
132.542
132.594
132.646
132.698
132.75
132.802
132.854
132.906
132.958
133.01
133.062
133.115
133.167
133.219
133.271
133.323
133.375
133.427
133.479
133.531
133.583
133.635
133.687
133.739
133.791
133.843
133.895
133.947
133.999
134.051
134.103
134.155
134.208
134.26
134.312
134.364
134.416
134.468
134.52
134.572
134.624
134.676
134.728
134.78
134.832
134.884
134.936
134.988
135.04
135.092
135.144
135.196
135.249
135.301
135.353
135.405
135.457
135.509
135.561
135.613
135.665
135.717
135.769
135.821
135.873
135.925
135.977
136.029
136.081
136.133
136.185
136.237
136.29
136.342
136.394
136.446
136.498
136.55
136.602
136.654
136.706
136.758
136.81
136.862
136.914
136.966
137.018
137.07
137.122
137.174
137.226
137.278
137.331
137.383
137.435
137.487
137.539
137.591
137.643
137.695
137.747
137.799
137.851
137.903
137.955
138.007
138.059
138.111
138.163
138.215
138.267
138.319
138.372
138.424
138.476
138.528
138.58
138.632
138.684
138.736
138.788
138.84
138.892
138.944
138.996
139.048
139.1
139.152
139.204
139.256
139.308
139.36
139.413
139.465
139.517
139.569
139.621
139.673
139.725
139.777
139.829
139.881
139.933
139.985
140.037
140.089
140.141
140.193
140.245
140.297
140.349
140.401
140.454
140.506
140.558
140.61
140.662
140.714
140.766
140.818
140.87
140.922
140.974
141.026
141.078
141.13
141.182
141.234
141.286
141.338
141.39
141.442
141.495
141.547
141.599
141.651
141.703
141.755
141.807
141.859
141.911
141.963
142.015
142.067
142.119
142.171
142.223
142.275
142.327
142.379
142.431
142.483
142.536
142.588
142.64
142.692
142.744
142.796
142.848
142.9
142.952
143.004
143.056
143.108
143.16
143.212
143.264
143.316
143.368
143.42
143.472
143.524
143.577
143.629
143.681
143.733
143.785
143.837
143.889
143.941
143.993
144.045
144.097
144.149
144.201
144.253
144.305
144.357
144.409
144.461
144.513
144.565
144.618
144.67
144.722
144.774
144.826
144.878
144.93
144.982
145.034
145.086
145.138
145.19
145.242
145.294
145.346
145.398
145.45
145.502
145.554
145.606
145.659
145.711
145.763
145.815
145.867
145.919
145.971
146.023
146.075
146.127
146.179
146.231
146.283
146.335
146.387
146.439
146.491
146.543
146.595
146.647
146.7
146.752
146.804
146.856
146.908
146.96
147.012
147.064
147.116
147.168
147.22
147.272
147.324
147.376
147.428
147.48
147.532
147.584
147.636
147.688
147.741
147.793
147.845
147.897
147.949
148.001
148.053
148.105
148.157
148.209
148.261
148.313
148.365
148.417
148.469
148.521
148.573
148.625
148.677
148.729
148.781
148.834
148.886
148.938
148.99
149.042
149.094
149.146
149.198
149.25
149.302
149.354
149.406
149.458
149.51
149.562
149.614
149.666
149.718
149.77
149.822
149.875
149.927
149.979
150.031
150.083
150.135
150.187
150.239
150.291
150.343
150.395
150.447
150.499
150.551
150.603
150.655
150.707
150.759
150.811
150.863
150.916
150.968
151.02
151.072
151.124
151.176
151.228
151.28
151.332
151.384
151.436
151.488
151.54
151.592
151.644
151.696
151.748
151.8
151.852
151.904
151.957
152.009
152.061
152.113
152.165
152.217
152.269
152.321
152.373
152.425
152.477
152.529
152.581
152.633
152.685
152.737
152.789
152.841
152.893
152.945
152.997
153.05
153.102
153.154
153.206
153.258
153.31
153.362
153.414
153.466
153.518
153.57
153.622
153.674
153.726
153.778
153.83
153.882
153.934
153.986
154.038
154.091
154.143
154.195
154.247
154.299
154.351
154.403
154.455
154.507
154.559
154.611
154.663
154.715
154.767
154.819
154.871
154.923
154.975
155.027
155.079
155.132
155.184
155.236
155.288
155.34
155.392
155.444
155.496
155.548
155.6
155.652
155.704
155.756
155.808
155.86
155.912
155.964
156.016
156.068
156.12
156.172
156.225
156.277
156.329
156.381
156.433
156.485
156.537
156.589
156.641
156.693
156.745
156.797
156.849
156.901
156.953
157.005
157.057
157.109
157.161
157.213
157.265
157.318
157.37
157.422
157.474
157.526
157.578
157.63
157.682
157.734
157.786
157.838
157.89
157.942
157.994
158.046
158.098
158.15
158.202
158.254
158.306
158.359
158.411
158.463
158.515
158.567
158.619
158.671
158.723
158.775
158.827
158.879
158.931
158.983
159.035
159.087
159.139
159.191
159.243
159.295
159.347
159.399
159.452
159.504
159.556
159.608
159.66
159.712
159.764
159.816
159.868
159.92
159.972
160.024
160.076
160.128
160.18
160.232
160.284
160.336
160.388
160.44
160.492
160.545
160.597
160.649
160.701
160.753
160.805
160.857
160.909
160.961
161.013
161.065
161.117
161.169
161.221
161.273
161.325
161.377
161.429
161.481
161.533
161.585
161.638
161.69
161.742
161.794
161.846
161.898
161.95
162.002
162.054
162.106
162.158
162.21
162.262
162.314
162.366
162.418
162.47
162.522
162.574
162.626
162.678
162.731
162.783
162.835
162.887
162.939
162.991
163.043
163.095
163.147
163.199
163.251
163.303
163.355
163.407
163.459
163.511
163.563
163.615
163.667
163.719
163.771
163.824
163.876
163.928
163.98
164.032
164.084
164.136
164.188
164.24
164.292
164.344
164.396
164.448
164.5
164.552
164.604
164.656
164.708
164.76
164.812
164.864
164.917
164.969
165.021
165.073
165.125
165.177
165.229
165.281
165.333
165.385
165.437
165.489
165.541
165.593
165.645
165.697
165.749
165.801
165.853
165.905
165.957
166.009
166.062
166.114
166.166
166.218
166.27
166.322
166.374
166.426
166.478
166.53
166.582
166.634
166.686
166.738
166.79
166.842
166.894
166.946
166.998
167.05
167.102
167.155
167.207
167.259
167.311
167.363
167.415
167.467
167.519
167.571
167.623
167.675
167.727
167.779
167.831
167.883
167.935
167.987
168.039
168.091
168.143
168.195
168.247
168.3
168.352
168.404
168.456
168.508
168.56
168.612
168.664
168.716
168.768
168.82
168.872
168.924
168.976
169.028
169.08
169.132
169.184
169.236
169.288
169.34
169.392
169.445
169.497
169.549
169.601
169.653
169.705
169.757
169.809
169.861
169.913
169.965
170.017
170.069
170.121
170.173
170.225
170.277
170.329
170.381
170.433
170.485
170.537
170.59
170.642
170.694
170.746
170.798
170.85
170.902
170.954
171.006
171.058
171.11
171.162
171.214
171.266
171.318
171.37
171.422
171.474
171.526
171.578
171.63
171.682
171.734
171.787
171.839
171.891
171.943
171.995
172.047
172.099
172.151
172.203
172.255
172.307
172.359
172.411
172.463
172.515
172.567
172.619
172.671
172.723
172.775
172.827
172.879
172.932
172.984
173.036
173.088
173.14
173.192
173.244
173.296
173.348
173.4
173.452
173.504
173.556
173.608
173.66
173.712
173.764
173.816
173.868
173.92
173.972
174.024
174.076
174.129
174.181
174.233
174.285
174.337
174.389
174.441
174.493
174.545
174.597
174.649
174.701
174.753
174.805
174.857
174.909
174.961
175.013
175.065
175.117
175.169
175.221
175.273
175.326
175.378
175.43
175.482
175.534
175.586
175.638
175.69
175.742
175.794
175.846
175.898
175.95
176.002
176.054
176.106
176.158
176.21
176.262
176.314
176.366
176.418
176.47
176.523
176.575
176.627
176.679
176.731
176.783
176.835
176.887
176.939
176.991
177.043
177.095
177.147
177.199
177.251
177.303
177.355
177.407
177.459
177.511
177.563
177.615
177.667
177.72
177.772
177.824
177.876
177.928
177.98
178.032
178.084
178.136
178.188
178.24
178.292
178.344
178.396
178.448
178.5
178.552
178.604
178.656
178.708
178.76
178.812
178.864
178.916
178.969
179.021
179.073
179.125
179.177
179.229
179.281
179.333
179.385
179.437
179.489
179.541
179.593
179.645
179.697
179.749
179.801
179.853
179.905
179.957
180.009
180.061
180.113
180.165
180.218
180.27
180.322
180.374
180.426
180.478
180.53
180.582
180.634
180.686
180.738
180.79
180.842
180.894
180.946
180.998
181.05
181.102
181.154
181.206
181.258
181.31
181.362
181.414
181.466
181.519
181.571
181.623
181.675
181.727
181.779
181.831
181.883
181.935
181.987
182.039
182.091
182.143
182.195
182.247
182.299
182.351
182.403
182.455
182.507
182.559
182.611
182.663
182.715
182.767
182.82
182.872
182.924
182.976
183.028
183.08
183.132
183.184
183.236
183.288
183.34
183.392
183.444
183.496
183.548
183.6
183.652
183.704
183.756
183.808
183.86
183.912
183.964
184.016
184.068
184.121
184.173
184.225
184.277
184.329
184.381
184.433
184.485
184.537
184.589
184.641
184.693
184.745
184.797
184.849
184.901
184.953
185.005
185.057
185.109
185.161
185.213
185.265
185.317
185.369
185.421
185.474
185.526
185.578
185.63
185.682
185.734
185.786
185.838
185.89
185.942
185.994
186.046
186.098
186.15
186.202
186.254
186.306
186.358
186.41
186.462
186.514
186.566
186.618
186.67
186.722
186.774
186.827
186.879
186.931
186.983
187.035
187.087
187.139
187.191
187.243
187.295
187.347
187.399
187.451
187.503
187.555
187.607
187.659
187.711
187.763
187.815
187.867
187.919
187.971
188.023
188.075
188.127
188.179
188.232
188.284
188.336
188.388
188.44
188.492
188.544
188.596
188.648
188.7
188.752
188.804
188.856
188.908
188.96
189.012
189.064
189.116
189.168
189.22
189.272
189.324
189.376
189.428
189.48
189.532
189.584
189.637
189.689
189.741
189.793
189.845
189.897
189.949
190.001
190.053
190.105
190.157
190.209
190.261
190.313
190.365
190.417
190.469
190.521
190.573
190.625
190.677
190.729
190.781
190.833
190.885
190.937
190.989
191.041
191.093
191.146
191.198
191.25
191.302
191.354
191.406
191.458
191.51
191.562
191.614
191.666
191.718
191.77
191.822
191.874
191.926
191.978
192.03
192.082
192.134
192.186
192.238
192.29
192.342
192.394
192.446
192.498
192.55
192.602
192.655
192.707
192.759
192.811
192.863
192.915
192.967
193.019
193.071
193.123
193.175
193.227
193.279
193.331
193.383
193.435
193.487
193.539
193.591
193.643
193.695
193.747
193.799
193.851
193.903
193.955
194.007
194.059
194.111
194.163
194.216
194.268
194.32
194.372
194.424
194.476
194.528
194.58
194.632
194.684
194.736
194.788
194.84
194.892
194.944
194.996
195.048
195.1
195.152
195.204
195.256
195.308
195.36
195.412
195.464
195.516
195.568
195.62
195.672
195.724
195.776
195.829
195.881
195.933
195.985
196.037
196.089
196.141
196.193
196.245
196.297
196.349
196.401
196.453
196.505
196.557
196.609
196.661
196.713
196.765
196.817
196.869
196.921
196.973
197.025
197.077
197.129
197.181
197.233
197.285
197.337
197.389
197.441
197.493
197.546
197.598
197.65
197.702
197.754
197.806
197.858
197.91
197.962
198.014
198.066
198.118
198.17
198.222
198.274
198.326
198.378
198.43
198.482
198.534
198.586
198.638
198.69
198.742
198.794
198.846
198.898
198.95
199.002
199.054
199.106
199.158
199.21
199.262
199.315
199.367
199.419
199.471
199.523
199.575
199.627
199.679
199.731
199.783
199.835
199.887
199.939
199.991
200.043
200.095
200.147
200.199
200.251
200.303
200.355
200.407
200.459
200.511
200.563
200.615
200.667
200.719
200.771
200.823
200.875
200.927
200.979
201.031
201.083
201.135
201.188
201.24
201.292
201.344
201.396
201.448
201.5
201.552
201.604
201.656
201.708
201.76
201.812
201.864
201.916
201.968
202.02
202.072
202.124
202.176
202.228
202.28
202.332
202.384
202.436
202.488
202.54
202.592
202.644
202.696
202.748
202.8
202.852
202.904
202.956
203.008
203.06
203.112
203.164
203.217
203.269
203.321
203.373
203.425
203.477
203.529
203.581
203.633
203.685
203.737
203.789
203.841
203.893
203.945
203.997
204.049
204.101
204.153
204.205
204.257
204.309
204.361
204.413
204.465
204.517
204.569
204.621
204.673
204.725
204.777
204.829
204.881
204.933
204.985
205.037
205.089
205.141
205.193
205.245
205.297
205.349
205.401
205.454
205.506
205.558
205.61
205.662
205.714
205.766
205.818
205.87
205.922
205.974
206.026
206.078
206.13
206.182
206.234
206.286
206.338
206.39
206.442
206.494
206.546
206.598
206.65
206.702
206.754
206.806
206.858
206.91
206.962
207.014
207.066
207.118
207.17
207.222
207.274
207.326
207.378
207.43
207.482
207.534
207.586
207.638
207.69
207.742
207.794
207.846
207.898
207.951
208.003
208.055
208.107
208.159
208.211
208.263
208.315
208.367
208.419
208.471
208.523
208.575
208.627
208.679
208.731
208.783
208.835
208.887
208.939
208.991
209.043
209.095
209.147
209.199
209.251
209.303
209.355
209.407
209.459
209.511
209.563
209.615
209.667
209.719
209.771
209.823
209.875
209.927
209.979
210.031
210.083
210.135
210.187
210.239
210.291
210.343
210.395
210.447
210.499
210.551
210.603
210.655
210.707
210.759
210.811
210.863
210.916
210.968
211.02
211.072
211.124
211.176
211.228
211.28
211.332
211.384
211.436
211.488
211.54
211.592
211.644
211.696
211.748
211.8
211.852
211.904
211.956
212.008
212.06
212.112
212.164
212.216
212.268
212.32
212.372
212.424
212.476
212.528
212.58
212.632
212.684
212.736
212.788
212.84
212.892
212.944
212.996
213.048
213.1
213.152
213.204
213.256
213.308
213.36
213.412
213.464
213.516
213.568
213.62
213.672
213.724
213.776
213.828
213.88
213.932
213.984
214.036
214.088
214.14
214.192
214.244
214.296
214.348
214.4
214.452
214.504
214.556
214.608
214.66
214.712
214.764
214.816
214.868
214.92
214.972
215.024
215.076
215.129
215.181
215.233
215.285
215.337
215.389
215.441
215.493
215.545
215.597
215.649
215.701
215.753
215.805
215.857
215.909
215.961
216.013
216.065
216.117
216.169
216.221
216.273
216.325
216.377
216.429
216.481
216.533
216.585
216.637
216.689
216.741
216.793
216.845
216.897
216.949
217.001
217.053
217.105
217.157
217.209
217.261
217.313
217.365
217.417
217.469
217.521
217.573
217.625
217.677
217.729
217.781
217.833
217.885
217.937
217.989
218.041
218.093
218.145
218.197
218.249
218.301
218.353
218.405
218.457
218.509
218.561
218.613
218.665
218.717
218.769
218.821
218.873
218.925
218.977
219.029
219.081
219.133
219.185
219.237
219.289
219.341
219.393
219.445
219.497
219.549
219.601
219.653
219.705
219.757
219.809
219.861
219.913
219.965
220.017
220.069
220.121
220.173
220.225
220.277
220.329
220.381
220.433
220.485
220.537
220.589
220.641
220.693
220.745
220.797
220.849
220.901
220.953
221.005
221.057
221.109
221.161
221.213
221.265
221.317
221.369
221.421
221.473
221.525
221.577
221.629
221.681
221.733
221.785
221.837
221.889
221.941
221.993
222.045
222.097
222.149
222.201
222.253
222.305
222.357
222.409
222.461
222.513
222.565
222.617
222.669
222.721
222.773
222.825
222.877
222.929
222.981
223.033
223.085
223.137
223.189
223.241
223.293
223.345
223.397
223.449
223.501
223.553
223.605
223.657
223.709
223.761
223.813
223.865
223.917
223.969
224.021
224.073
224.125
224.177
224.229
224.281
224.333
224.385
224.437
224.489
224.541
224.593
224.645
224.697
224.749
224.801
224.853
224.905
224.957
225.008
225.06
225.112
225.164
225.216
225.268
225.32
225.372
225.424
225.476
225.528
225.58
225.632
225.684
225.736
225.788
225.84
225.892
225.944
225.996
226.048
226.1
226.152
226.204
226.256
226.308
226.36
226.412
226.464
226.516
226.568
226.62
226.672
226.724
226.776
226.828
226.88
226.932
226.984
227.036
227.088
227.14
227.192
227.244
227.296
227.348
227.4
227.452
227.504
227.556
227.608
227.66
227.712
227.764
227.816
227.868
227.92
227.972
228.024
228.076
228.128
228.18
228.232
228.284
228.336
228.388
228.439
228.491
228.543
228.595
228.647
228.699
228.751
228.803
228.855
228.907
228.959
229.011
229.063
229.115
229.167
229.219
229.271
229.323
229.375
229.427
229.479
229.531
229.583
229.635
229.687
229.739
229.791
229.843
229.895
229.947
229.999
230.051
230.103
230.155
230.207
230.259
230.311
230.363
230.415
230.467
230.519
230.571
230.623
230.674
230.726
230.778
230.83
230.882
230.934
230.986
231.038
231.09
231.142
231.194
231.246
231.298
231.35
231.402
231.454
231.506
231.558
231.61
231.662
231.714
231.766
231.818
231.87
231.922
231.974
232.026
232.078
232.13
232.182
232.234
232.286
232.338
232.39
232.441
232.493
232.545
232.597
232.649
232.701
232.753
232.805
232.857
232.909
232.961
233.013
233.065
233.117
233.169
233.221
233.273
233.325
233.377
233.429
233.481
233.533
233.585
233.637
233.689
233.741
233.793
233.845
233.897
233.948
234
234.052
234.104
234.156
234.208
234.26
234.312
234.364
234.416
234.468
234.52
234.572
234.624
234.676
234.728
234.78
234.832
234.884
234.936
234.988
235.04
235.092
235.144
235.195
235.247
235.299
235.351
235.403
235.455
235.507
235.559
235.611
235.663
235.715
235.767
235.819
235.871
235.923
235.975
236.027
236.079
236.131
236.183
236.235
236.287
236.338
236.39
236.442
236.494
236.546
236.598
236.65
236.702
236.754
236.806
236.858
236.91
236.962
237.014
237.066
237.118
237.17
237.222
237.274
237.326
237.377
237.429
237.481
237.533
237.585
237.637
237.689
237.741
237.793
237.845
237.897
237.949
238.001
238.053
238.105
238.157
238.209
238.261
238.313
238.364
238.416
238.468
238.52
238.572
238.624
238.676
238.728
238.78
238.832
238.884
238.936
238.988
239.04
239.092
239.144
239.196
239.247
239.299
239.351
239.403
239.455
239.507
239.559
239.611
239.663
239.715
239.767
239.819
239.871
239.923
239.975
240.027
240.078
240.13
240.182
240.234
240.286
240.338
240.39
240.442
240.494
240.546
240.598
240.65
240.702
240.754
240.805
240.857
240.909
240.961
241.013
241.065
241.117
241.169
241.221
241.273
241.325
241.377
241.429
241.481
241.532
241.584
241.636
241.688
241.74
241.792
241.844
241.896
241.948
242
242.052
242.104
242.156
242.208
242.259
242.311
242.363
242.415
242.467
242.519
242.571
242.623
242.675
242.727
242.779
242.831
242.882
242.934
242.986
243.038
243.09
243.142
243.194
243.246
243.298
243.35
243.402
243.454
243.505
243.557
243.609
243.661
243.713
243.765
243.817
243.869
243.921
243.973
244.025
244.076
244.128
244.18
244.232
244.284
244.336
244.388
244.44
244.492
244.544
244.596
244.647
244.699
244.751
244.803
244.855
244.907
244.959
245.011
245.063