/*--------------------------------*- C++ -*----------------------------------*\
  =========                 |
  \\      /  F ield         | OpenFOAM: The Open Source CFD Toolbox
   \\    /   O peration     | Website:  https://openfoam.org
    \\  /    A nd           | Version:  9
     \\/     M anipulation  |
\*---------------------------------------------------------------------------*/
FoamFile
{
    format      ascii;
    class       surfaceScalarField;
    location    "0.016";
    object      phi;
}
// * * * * * * * * * * * * * * * * * * * * * * * * * * * * * * * * * * * * * //

dimensions      [1 0 -1 0 0 0 0];

internalField   nonuniform List<scalar> 
9999
(
2.82326
3.11324
3.40328
3.69335
3.98343
4.27352
4.56361
4.85369
5.14378
5.43387
5.72396
6.01405
6.30413
6.59422
6.88431
7.1744
7.46448
7.75457
8.04466
8.33475
8.62483
8.91492
9.20501
9.4951
9.78518
10.0753
10.3654
10.6554
10.9455
11.2356
11.5257
11.8158
12.1059
12.396
12.686
12.9761
13.2662
13.5563
13.8464
14.1365
14.4265
14.7166
15.0067
15.2968
15.5869
15.877
16.167
16.4571
16.7472
17.0373
17.3274
17.6174
17.9075
18.1976
18.4877
18.7777
19.0678
19.3579
19.648
19.938
20.2281
20.5182
20.8082
21.0983
21.3884
21.6785
21.9685
22.2586
22.5487
22.8387
23.1288
23.4189
23.7089
23.999
24.289
24.5791
24.8692
25.1592
25.4493
25.7393
26.0294
26.3194
26.6095
26.8996
27.1896
27.4797
27.7697
28.0598
28.3498
28.6399
28.9299
29.2199
29.51
29.8
30.0901
30.3801
30.6701
30.9602
31.2502
31.5403
31.8303
32.1203
32.4104
32.7004
32.9904
33.2804
33.5705
33.8605
34.1505
34.4405
34.7306
35.0206
35.3106
35.6006
35.8906
36.1806
36.4707
36.7607
37.0507
37.3407
37.6307
37.9207
38.2107
38.5007
38.7907
39.0807
39.3707
39.6607
39.9507
40.2407
40.5307
40.8206
41.1106
41.4006
41.6906
41.9806
42.2706
42.5605
42.8505
43.1405
43.4304
43.7204
44.0104
44.3003
44.5903
44.8803
45.1702
45.4602
45.7501
46.0401
46.3301
46.62
46.91
47.1999
47.4898
47.7798
48.0697
48.3597
48.6496
48.9395
49.2295
49.5194
49.8093
50.0992
50.3892
50.6791
50.969
51.2589
51.5488
51.8387
52.1286
52.4185
52.7085
52.9984
53.2883
53.5781
53.868
54.1579
54.4478
54.7377
55.0276
55.3175
55.6074
55.8972
56.1871
56.477
56.7668
57.0567
57.3466
57.6364
57.9263
58.2161
58.506
58.7959
59.0857
59.3755
59.6654
59.9552
60.2451
60.5349
60.8247
61.1146
61.4044
61.6942
61.984
62.2738
62.5637
62.8535
63.1433
63.4331
63.7229
64.0127
64.3025
64.5923
64.8821
65.1718
65.4616
65.7514
66.0412
66.331
66.6207
66.9105
67.2003
67.49
67.7798
68.0695
68.3593
68.649
68.9388
69.2285
69.5183
69.808
70.0977
70.3875
70.6772
70.9669
71.2566
71.5463
71.8361
72.1258
72.4155
72.7052
72.9949
73.2846
73.5743
73.8639
74.1536
74.4433
74.733
75.0227
75.3123
75.602
75.8917
76.1813
76.471
76.7606
77.0503
77.3399
77.6295
77.9192
78.2088
78.4984
78.7881
79.0777
79.3673
79.6569
79.9465
80.2361
80.5257
80.8153
81.1049
81.3945
81.6841
81.9737
82.2633
82.5528
82.8424
83.132
83.4215
83.7111
84.0006
84.2902
84.5797
84.8693
85.1588
85.4483
85.7378
86.0274
86.3169
86.6064
86.8959
87.1854
87.4749
87.7644
88.0539
88.3434
88.6329
88.9223
89.2118
89.5013
89.7908
90.0802
90.3697
90.6591
90.9486
91.238
91.5274
91.8169
92.1063
92.3957
92.6851
92.9746
93.264
93.5534
93.8428
94.1322
94.4215
94.7109
95.0003
95.2897
95.5791
95.8684
96.1578
96.4471
96.7365
97.0258
97.3152
97.6045
97.8938
98.1832
98.4725
98.7618
99.0511
99.3404
99.6297
99.919
100.208
100.498
100.787
101.076
101.365
101.655
101.944
102.233
102.522
102.812
103.101
103.39
103.679
103.969
104.258
104.547
104.836
105.125
105.415
105.704
105.993
106.282
106.571
106.86
107.15
107.439
107.728
108.017
108.306
108.595
108.884
109.173
109.463
109.752
110.041
110.33
110.619
110.908
111.197
111.486
111.775
112.064
112.353
112.642
112.931
113.22
113.509
113.799
114.088
114.377
114.666
114.955
115.244
115.532
115.821
116.11
116.399
116.688
116.977
117.266
117.555
117.844
118.133
118.422
118.711
119
119.289
119.578
119.866
120.155
120.444
120.733
121.022
121.311
121.6
121.888
122.177
122.466
122.755
123.044
123.332
123.621
123.91
124.199
124.488
124.776
125.065
125.354
125.643
125.931
126.22
126.509
126.797
127.086
127.375
127.664
127.952
128.241
128.53
128.818
129.107
129.396
129.684
129.973
130.261
130.55
130.839
131.127
131.416
131.704
131.993
132.282
132.57
132.859
133.147
133.436
133.724
134.013
134.301
134.59
134.878
135.167
135.455
135.744
136.032
136.321
136.609
136.898
137.186
137.474
137.763
138.051
138.34
138.628
138.916
139.205
139.493
139.782
140.07
140.358
140.647
140.935
141.223
141.511
141.8
142.088
142.376
142.665
142.953
143.241
143.529
143.818
144.106
144.394
144.682
144.97
145.259
145.547
145.835
146.123
146.411
146.699
146.988
147.276
147.564
147.852
148.14
148.428
148.716
149.004
149.292
149.58
149.868
150.156
150.444
150.732
151.02
151.308
151.596
151.884
152.172
152.46
152.748
153.036
153.324
153.612
153.9
154.188
154.476
154.763
155.051
155.339
155.627
155.915
156.203
156.49
156.778
157.066
157.354
157.642
157.929
158.217
158.505
158.793
159.08
159.368
159.656
159.943
160.231
160.519
160.806
161.094
161.382
161.669
161.957
162.244
162.532
162.819
163.107
163.395
163.682
163.97
164.257
164.545
164.832
165.12
165.407
165.694
165.982
166.269
166.557
166.844
167.132
167.419
167.706
167.994
168.281
168.568
168.856
169.143
169.43
169.718
170.005
170.292
170.579
170.867
171.154
171.441
171.728
172.015
172.302
172.59
172.877
173.164
173.451
173.738
174.025
174.312
174.599
174.886
175.173
175.46
175.747
176.034
176.321
176.608
176.895
177.182
177.469
177.756
178.043
178.33
178.617
178.904
179.191
179.477
179.764
180.051
180.338
180.625
180.911
181.198
181.485
181.771
182.058
182.345
182.632
182.918
183.205
183.491
183.778
184.065
184.351
184.638
184.924
185.211
185.497
185.784
186.07
186.357
186.643
186.93
187.216
187.503
187.789
188.075
188.362
188.648
188.934
189.221
189.507
189.793
190.08
190.366
190.652
190.938
191.225
191.511
191.797
192.083
192.369
192.655
192.941
193.227
193.514
193.8
194.086
194.372
194.658
194.944
195.23
195.515
195.801
196.087
196.373
196.659
196.945
197.231
197.517
197.802
198.088
198.374
198.66
198.945
199.231
199.517
199.802
200.088
200.374
200.659
200.945
201.23
201.516
201.801
202.087
202.372
202.658
202.943
203.229
203.514
203.8
204.085
204.37
204.656
204.941
205.226
205.512
205.797
206.082
206.367
206.652
206.937
207.223
207.508
207.793
208.078
208.363
208.648
208.933
209.218
209.503
209.788
210.073
210.358
210.643
210.927
211.212
211.497
211.782
212.067
212.351
212.636
212.921
213.205
213.49
213.775
214.059
214.344
214.628
214.913
215.197
215.482
215.766
216.051
216.335
216.619
216.904
217.188
217.472
217.756
218.041
218.325
218.609
218.893
219.177
219.461
219.745
220.03
220.314
220.598
220.881
221.165
221.449
221.733
222.017
222.301
222.585
222.868
223.152
223.436
223.72
224.003
224.287
224.57
224.854
225.137
225.421
225.704
225.988
226.271
226.555
226.838
227.121
227.405
227.688
227.971
228.254
228.537
228.82
229.104
229.387
229.67
229.953
230.236
230.518
230.801
231.084
231.367
231.65
231.932
232.215
232.498
232.781
233.063
233.346
233.628
233.911
234.193
234.476
234.758
235.04
235.323
235.605
235.887
236.169
236.451
236.734
237.016
237.298
237.58
237.862
238.144
238.425
238.707
238.989
239.271
239.553
239.834
240.116
240.397
240.679
240.96
241.242
241.523
241.805
242.086
242.367
242.649
242.93
243.211
243.492
243.773
244.054
244.335
244.616
244.897
245.178
245.458
245.739
246.02
246.3
246.581
246.861
247.142
247.422
247.703
247.983
248.263
248.544
248.824
249.104
249.384
249.664
249.944
250.224
250.504
250.783
251.063
251.343
251.622
251.902
252.181
252.461
252.74
253.02
253.299
253.578
253.857
254.136
254.415
254.694
254.973
255.252
255.531
255.81
256.088
256.367
256.645
256.924
257.202
257.48
257.759
258.037
258.315
258.593
258.871
259.149
259.427
259.705
259.982
260.26
260.537
260.815
261.092
261.37
261.647
261.924
262.201
262.478
262.755
263.032
263.309
263.585
263.862
264.139
264.415
264.691
264.968
265.244
265.52
265.796
266.072
266.348
266.624
266.899
267.175
267.45
267.726
268.001
268.276
268.551
268.826
269.101
269.376
269.651
269.925
270.2
270.474
270.749
271.023
271.297
271.571
271.845
272.119
272.393
272.666
272.94
273.213
273.486
273.759
274.032
274.305
274.578
274.851
275.123
275.396
275.668
275.94
276.212
276.484
276.756
277.028
277.299
277.571
277.842
278.113
278.384
278.655
278.926
279.197
279.467
279.737
280.008
280.278
280.547
280.817
281.087
281.356
281.626
281.895
282.164
282.433
282.701
282.97
283.238
283.506
283.774
284.042
284.31
284.577
284.845
285.112
285.379
285.646
285.912
286.179
286.445
286.711
286.977
287.243
287.508
287.773
288.039
288.303
288.568
288.833
289.097
289.361
289.625
289.888
290.152
290.415
290.678
290.941
291.203
291.466
291.728
291.989
292.251
292.512
292.774
293.034
293.295
293.555
293.815
294.075
294.335
294.594
294.853
295.112
295.37
295.629
295.887
296.144
296.402
296.659
296.915
297.172
297.428
297.684
297.939
298.195
298.45
298.704
298.958
299.212
299.466
299.719
299.972
300.225
300.477
300.729
300.98
301.232
301.482
301.733
301.983
302.232
302.482
302.731
302.979
303.227
303.475
303.722
303.969
304.215
304.461
304.707
304.952
305.197
305.441
305.685
305.928
306.171
306.414
306.656
306.897
307.138
307.379
307.619
307.858
308.097
308.336
308.574
308.811
309.048
309.284
309.52
309.756
309.99
310.224
310.458
310.691
310.924
311.155
311.387
311.617
311.847
312.077
312.306
312.534
312.762
312.989
313.215
313.441
313.666
313.89
314.114
314.337
314.559
314.78
315.001
315.222
315.441
315.66
315.878
316.095
316.312
316.528
316.743
316.957
317.17
317.383
317.595
317.806
318.017
318.226
318.435
318.643
318.85
319.057
319.262
319.467
319.671
319.874
320.076
320.277
320.478
320.677
320.876
321.074
321.27
321.466
321.662
321.856
322.049
322.241
322.433
322.623
322.813
323.002
323.189
323.376
323.562
323.747
323.931
324.114
324.296
324.477
324.657
324.837
325.015
325.192
325.368
325.544
325.718
325.891
326.064
326.235
326.406
326.575
326.744
326.911
327.078
327.244
327.408
327.572
327.735
327.896
328.057
328.217
328.376
328.534
328.691
328.847
329.002
329.156
329.309
329.461
329.612
329.763
329.912
330.061
330.209
330.355
330.501
330.646
330.79
330.933
331.076
331.217
331.358
331.498
331.636
331.775
331.912
332.048
332.184
332.319
332.453
332.586
332.719
332.85
332.981
333.112
333.241
333.37
333.498
333.625
333.752
333.878
334.003
334.128
334.252
334.375
334.498
334.62
334.741
334.862
334.982
335.102
335.221
335.34
335.458
335.575
335.692
335.808
335.924
336.04
336.155
336.269
336.383
336.496
336.61
336.722
336.834
336.946
337.057
337.168
337.279
337.389
337.499
337.608
337.717
337.826
337.934
338.042
338.15
338.258
338.365
338.471
338.578
338.684
338.79
338.896
339.001
339.107
339.211
339.316
339.421
339.525
339.629
339.733
339.836
339.94
340.043
340.146
340.249
340.351
340.454
340.556
340.658
340.76
340.862
340.964
341.065
341.167
341.268
341.369
341.47
341.571
341.671
341.772
341.873
341.973
342.073
342.173
342.273
342.373
342.473
342.573
342.673
342.772
342.872
342.971
343.071
343.17
343.269
343.368
343.467
343.566
343.665
343.764
343.862
343.961
344.06
344.158
344.256
344.355
344.453
344.551
344.65
344.748
344.846
344.944
345.042
345.14
345.238
345.336
345.433
345.531
345.629
345.726
345.824
345.922
346.019
346.116
346.214
346.311
346.408
346.506
346.603
346.7
346.797
346.894
346.991
347.088
347.185
347.282
347.379
347.476
347.573
347.669
347.766
347.863
347.959
348.056
348.152
348.249
348.345
348.442
348.538
348.634
348.731
348.827
348.923
349.019
349.116
349.212
349.308
349.404
349.5
349.596
349.692
349.787
349.883
349.979
350.075
350.17
350.266
350.362
350.457
350.553
350.648
350.744
350.839
350.935
351.03
351.125
351.221
351.316
351.411
351.506
351.601
351.697
351.792
351.887
351.982
352.077
352.172
352.266
352.361
352.456
352.551
352.646
352.74
352.835
352.929
353.024
353.119
353.213
353.308
353.402
353.496
353.591
353.685
353.779
353.873
353.968
354.062
354.156
354.25
354.344
354.438
354.532
354.626
354.72
354.814
354.908
355.001
355.095
355.189
355.283
355.376
355.47
355.563
355.657
355.75
355.844
355.937
356.031
356.124
356.217
356.31
356.404
356.497
356.59
356.683
356.776
356.869
356.962
357.055
357.148
357.241
357.334
357.427
357.519
357.612
357.705
357.798
357.89
357.983
358.075
358.168
358.26
358.353
358.445
358.538
358.63
358.722
358.814
358.907
358.999
359.091
359.183
359.275
359.367
359.459
359.551
359.643
359.735
359.827
359.919
360.01
360.102
360.194
360.286
360.377
360.469
360.56
360.652
360.743
360.835
360.926
361.018
361.109
361.2
361.291
361.383
361.474
361.565
361.656
361.747
361.838
361.929
362.02
362.111
362.202
362.293
362.384
362.475
362.565
362.656
362.747
362.837
362.928
363.018
363.109
363.199
363.29
363.38
363.471
363.561
363.651
363.742
363.832
363.922
364.012
364.102
364.192
364.282
364.372
364.462
364.552
364.642
364.732
364.822
364.912
365.002
365.091
365.181
365.271
365.36
365.45
365.539
365.629
365.718
365.808
365.897
365.986
366.076
366.165
366.254
366.343
366.433
366.522
366.611
366.7
366.789
366.878
366.967
367.056
367.145
367.233
367.322
367.411
367.5
367.589
367.677
367.766
367.854
367.943
368.031
368.12
368.208
368.297
368.385
368.473
368.562
368.65
368.738
368.826
368.915
369.003
369.091
369.179
369.267
369.355
369.443
369.531
369.618
369.706
369.794
369.882
369.97
370.057
370.145
370.233
370.32
370.408
370.495
370.583
370.67
370.757
370.845
370.932
371.019
371.107
371.194
371.281
371.368
371.455
371.542
371.629
371.716
371.803
371.89
371.977
372.064
372.151
372.238
372.324
372.411
372.498
372.584
372.671
372.757
372.844
372.93
373.017
373.103
373.19
373.276
373.362
373.449
373.535
373.621
373.707
373.793
373.879
373.966
374.052
374.138
374.223
374.309
374.395
374.481
374.567
374.653
374.738
374.824
374.91
374.995
375.081
375.167
375.252
375.338
375.423
375.508
375.594
375.679
375.764
375.85
375.935
376.02
376.105
376.19
376.276
376.361
376.446
376.531
376.616
376.701
376.785
376.87
376.955
377.04
377.125
377.209
377.294
377.379
377.463
377.548
377.632
377.717
377.801
377.886
377.97
378.054
378.139
378.223
378.307
378.391
378.476
378.56
378.644
378.728
378.812
378.896
378.98
379.064
379.148
379.231
379.315
379.399
379.483
379.566
379.65
379.734
379.817
379.901
379.984
380.068
380.151
380.235
380.318
380.402
380.485
380.568
380.651
380.735
380.818
380.901
380.984
381.067
381.15
381.233
381.316
381.399
381.482
381.565
381.648
381.73
381.813
381.896
381.979
382.061
382.144
382.226
382.309
382.391
382.474
382.556
382.639
382.721
382.803
382.886
382.968
383.05
383.132
383.215
383.297
383.379
383.461
383.543
383.625
383.707
383.789
383.871
383.952
384.034
384.116
384.198
384.279
384.361
384.443
384.524
384.606
384.687
384.769
384.85
384.932
385.013
385.094
385.176
385.257
385.338
385.42
385.501
385.582
385.663
385.744
385.825
385.906
385.987
386.068
386.149
386.23
386.311
386.391
386.472
386.553
386.633
386.714
386.795
386.875
386.956
387.036
387.117
387.197
387.278
387.358
387.438
387.519
387.599
387.679
387.759
387.84
387.92
388
388.08
388.16
388.24
388.32
388.4
388.48
388.56
388.639
388.719
388.799
388.879
388.958
389.038
389.118
389.197
389.277
389.356
389.436
389.515
389.594
389.674
389.753
389.832
389.912
389.991
390.07
390.149
390.228
390.308
390.387
390.466
390.545
390.624
390.702
390.781
390.86
390.939
391.018
391.097
391.175
391.254
391.333
391.411
391.49
391.568
391.647
391.725
391.804
391.882
391.961
392.039
392.117
392.195
392.274
392.352
392.43
392.508
392.586
392.664
392.742
392.82
392.898
392.976
393.054
393.132
393.21
393.288
393.365
393.443
393.521
393.598
393.676
393.754
393.831
393.909
393.986
394.064
394.141
394.218
394.296
394.373
394.45
394.527
394.605
394.682
394.759
394.836
394.913
394.99
395.067
395.144
395.221
395.298
395.375
395.452
395.528
395.605
395.682
395.759
395.835
395.912
395.989
396.065
396.142
396.218
396.295
396.371
396.447
396.524
396.6
396.676
396.753
396.829
396.905
396.981
397.057
397.133
397.209
397.285
397.361
397.437
397.513
397.589
397.665
397.741
397.817
397.892
397.968
398.044
398.119
398.195
398.27
398.346
398.422
398.497
398.572
398.648
398.723
398.799
398.874
398.949
399.024
399.1
399.175
399.25
399.325
399.4
399.475
399.55
399.625
399.7
399.775
399.85
399.925
399.999
400.074
400.149
400.224
400.298
400.373
400.447
400.522
400.597
400.671
400.746
400.82
400.894
400.969
401.043
401.117
401.192
401.266
401.34
401.414
401.488
401.562
401.636
401.71
401.784
401.858
401.932
402.006
402.08
402.154
402.228
402.302
402.375
402.449
402.523
402.596
402.67
402.743
402.817
402.89
402.964
403.037
403.111
403.184
403.257
403.331
403.404
403.477
403.55
403.623
403.697
403.77
403.843
403.916
403.989
404.062
404.135
404.208
404.28
404.353
404.426
404.499
404.571
404.644
404.717
404.789
404.862
404.935
405.007
405.08
405.152
405.225
405.297
405.369
405.442
405.514
405.586
405.658
405.731
405.803
405.875
405.947
406.019
406.091
406.163
406.235
406.307
406.379
406.451
406.523
406.594
406.666
406.738
406.81
406.881
406.953
407.024
407.096
407.168
407.239
407.31
407.382
407.453
407.525
407.596
407.667
407.739
407.81
407.881
407.952
408.023
408.094
408.166
408.237
408.308
408.379
408.449
408.52
408.591
408.662
408.733
408.804
408.874
408.945
409.016
409.086
409.157
409.228
409.298
409.369
409.439
409.51
409.58
409.65
409.721
409.791
409.861
409.932
410.002
410.072
410.142
410.212
410.282
410.352
410.423
410.492
410.562
410.632
410.702
410.772
410.842
410.912
410.982
411.051
411.121
411.191
411.26
411.33
411.399
411.469
411.538
411.608
411.677
411.747
411.816
411.885
411.955
412.024
412.093
412.162
412.232
412.301
412.37
412.439
412.508
412.577
412.646
412.715
412.784
412.853
412.922
412.99
413.059
413.128
413.197
413.265
413.334
413.403
413.471
413.54
413.608
413.677
413.745
413.814
413.882
413.95
414.019
414.087
414.155
414.224
414.292
414.36
414.428
414.496
414.564
414.632
414.7
414.768
414.836
414.904
414.972
415.04
415.108
415.176
415.243
415.311
415.379
415.446
415.514
415.582
415.649
415.717
415.784
415.852
415.919
415.986
416.054
416.121
416.188
416.256
416.323
416.39
416.457
416.524
416.592
416.659
416.726
416.793
416.86
416.927
416.994
417.06
417.127
417.194
417.261
417.328
417.394
417.461
417.528
417.594
417.661
417.727
417.794
417.861
417.927
417.993
418.06
418.126
418.193
418.259
418.325
418.391
418.458
418.524
418.59
418.656
418.722
418.788
418.854
418.92
418.986
419.052
419.118
419.184
419.25
419.315
419.381
419.447
419.513
419.578
419.644
419.71
419.775
419.841
419.906
419.972
420.037
420.102
420.168
420.233
420.299
420.364
420.429
420.494
420.56
420.625
420.69
420.755
420.82
420.885
420.95
421.015
421.08
421.145
421.21
421.275
421.339
421.404
421.469
421.534
421.598
421.663
421.728
421.792
421.857
421.921
421.986
422.05
422.115
422.179
422.243
422.308
422.372
422.436
422.501
422.565
422.629
422.693
422.757
422.822
422.885
422.95
423.013
423.078
423.141
423.205
423.269
423.333
423.397
423.461
423.524
423.588
423.652
423.715
423.779
423.843
423.906
423.97
424.033
424.097
424.16
424.223
424.287
424.35
424.413
424.477
424.54
424.603
424.666
424.729
424.793
424.856
424.919
424.982
425.045
425.108
425.171
425.234
425.296
425.359
425.422
425.485
425.548
425.61
425.673
425.736
425.798
425.861
425.923
425.986
426.048
426.111
426.173
426.236
426.298
426.36
426.423
426.485
426.547
426.609
426.672
426.734
426.796
426.858
426.92
426.982
427.044
427.106
427.168
427.23
427.292
427.354
427.415
427.477
427.539
427.601
427.662
427.724
427.786
427.847
427.909
427.97
428.032
428.093
428.155
428.216
428.277
428.339
428.4
428.461
428.523
428.584
428.645
428.706
428.767
428.828
428.889
428.95
429.011
429.072
429.133
429.194
429.255
429.316
429.377
429.438
429.498
429.559
429.62
429.68
429.741
429.802
429.862
429.923
429.983
430.044
430.104
430.165
430.225
430.285
430.346
430.406
430.466
430.527
430.587
430.647
430.707
430.767
430.827
430.887
430.947
431.007
431.067
431.127
431.187
431.247
431.307
431.367
431.426
431.486
431.546
431.606
431.665
431.725
431.784
431.844
431.904
431.963
432.023
432.082
432.141
432.201
432.26
432.319
432.379
432.438
432.497
432.556
432.616
432.675
432.734
432.793
432.852
432.911
432.97
433.029
433.088
433.147
433.206
433.264
433.323
433.382
433.441
433.499
433.558
433.617
433.675
433.734
433.792
433.851
433.91
433.968
434.026
434.085
434.143
434.202
434.26
434.318
434.376
434.435
434.493
434.551
434.609
434.667
434.725
434.783
434.841
434.899
434.957
435.015
435.073
435.131
435.189
435.247
435.304
435.362
435.42
435.477
435.535
435.593
435.65
435.708
435.765
435.823
435.88
435.938
435.995
436.053
436.11
436.167
436.225
436.282
436.339
436.396
436.453
436.511
436.568
436.625
436.682
436.739
436.796
436.853
436.91
436.967
437.024
437.08
437.137
437.194
437.251
437.307
437.364
437.421
437.477
437.534
437.591
437.647
437.704
437.76
437.817
437.873
437.929
437.986
438.042
438.098
438.155
438.211
438.267
438.323
438.379
438.436
438.492
438.548
438.604
438.66
438.716
438.772
438.828
438.883
438.939
438.995
439.051
439.107
439.162
439.218
439.274
439.329
439.385
439.441
439.496
439.552
439.607
439.663
439.718
439.774
439.829
439.884
439.94
439.995
440.05
440.105
440.161
440.216
440.271
440.326
440.381
440.436
440.491
440.546
440.601
440.656
440.711
440.766
440.821
440.875
440.93
440.985
441.04
441.094
441.149
441.204
441.258
441.313
441.368
441.422
441.477
441.531
441.585
441.64
441.694
441.749
441.803
441.857
441.911
441.966
442.02
442.074
442.128
442.182
442.236
442.29
442.344
442.398
442.452
442.506
442.56
442.614
442.668
442.722
442.775
442.829
442.883
442.937
442.99
443.044
443.098
443.151
443.205
443.258
443.312
443.365
443.419
443.472
443.525
443.579
443.632
443.685
443.739
443.792
443.845
443.898
443.951
444.005
444.058
444.111
444.164
444.217
444.27
444.323
444.375
444.428
444.481
444.534
444.587
444.64
444.692
444.745
444.798
444.85
444.903
444.956
445.008
445.061
445.113
445.166
445.218
445.27
445.323
445.375
445.428
445.48
445.532
445.584
445.637
445.689
445.741
445.793
445.845
445.897
445.949
446.001
446.053
446.105
446.157
446.209
446.261
446.313
446.365
446.416
446.468
446.52
446.571
446.623
446.675
446.726
446.778
446.829
446.881
446.932
446.984
447.035
447.087
447.138
447.189
447.241
447.292
447.343
447.395
447.446
447.497
447.548
447.599
447.65
447.701
447.752
447.803
447.854
447.905
447.956
448.007
448.058
448.109
448.16
448.21
448.261
448.312
448.362
448.413
448.464
448.514
448.565
448.615
448.666
448.716
448.767
448.817
448.868
448.918
448.968
449.019
449.069
449.119
449.17
449.22
449.27
449.32
449.37
449.42
449.47
449.52
449.57
449.62
449.67
449.72
449.77
449.82
449.87
449.919
449.969
450.019
450.069
450.118
450.168
450.218
450.267
450.317
450.366
450.416
450.465
450.515
450.564
450.614
450.663
450.712
450.762
450.811
450.86
450.909
450.959
451.008
451.057
451.106
451.155
451.204
451.253
451.302
451.351
451.4
451.449
451.498
451.547
451.596
451.645
451.693
451.742
451.791
451.839
451.888
451.937
451.985
452.034
452.083
452.131
452.18
452.228
452.276
452.325
452.373
452.422
452.47
452.518
452.566
452.615
452.663
452.711
452.759
452.807
452.856
452.904
452.952
453
453.048
453.096
453.144
453.191
453.239
453.287
453.335
453.383
453.431
453.478
453.526
453.574
453.621
453.669
453.717
453.764
453.812
453.859
453.907
453.954
454.002
454.049
454.096
454.144
454.191
454.238
454.285
454.333
454.38
454.427
454.474
454.521
454.568
454.616
454.663
454.71
454.757
454.804
454.85
454.897
454.944
454.991
455.038
455.085
455.131
455.178
455.225
455.272
455.318
455.365
455.411
455.458
455.504
455.551
455.597
455.644
455.69
455.737
455.783
455.829
455.876
455.922
455.968
456.015
456.061
456.107
456.153
456.199
456.245
456.291
456.337
456.383
456.429
456.475
456.521
456.567
456.613
456.659
456.705
456.75
456.796
456.842
456.888
456.933
456.979
457.025
457.07
457.116
457.161
457.207
457.252
457.298
457.343
457.389
457.434
457.479
457.525
457.57
457.615
457.66
457.706
457.751
457.796
457.841
457.886
457.931
457.976
458.021
458.066
458.111
458.156
458.201
458.246
458.291
458.336
458.38
458.425
458.47
458.515
458.559
458.604
458.649
458.693
458.738
458.782
458.827
458.871
458.916
458.96
459.005
459.049
459.094
459.138
459.182
459.226
459.271
459.315
459.359
459.403
459.447
459.492
459.536
459.58
459.624
459.668
459.712
459.756
459.8
459.843
459.887
459.931
459.975
460.019
460.063
460.106
460.15
460.194
460.237
460.281
460.325
460.368
460.412
460.455
460.499
460.542
460.586
460.629
460.672
460.716
460.759
460.802
460.846
460.889
460.932
460.975
461.018
461.062
461.105
461.148
461.191
461.234
461.277
461.32
461.363
461.406
461.449
461.491
461.534
461.577
461.62
461.663
461.705
461.748
461.791
461.833
461.876
461.919
461.961
462.004
462.046
462.089
462.131
462.174
462.216
462.259
462.301
462.343
462.385
462.428
462.47
462.512
462.554
462.597
462.639
462.681
462.723
462.765
462.807
462.849
462.891
462.933
462.975
463.017
463.059
463.101
463.142
463.184
463.226
463.268
463.309
463.351
463.393
463.434
463.476
463.518
463.559
463.601
463.642
463.684
463.725
463.766
463.808
463.849
463.891
463.932
463.973
464.014
464.056
464.097
464.138
464.179
464.22
464.261
464.302
464.344
464.385
464.426
464.467
464.507
464.548
464.589
464.63
464.671
464.712
464.753
464.793
464.834
464.875
464.915
464.956
464.997
465.037
465.078
465.118
465.159
465.199
465.24
465.28
465.321
465.361
465.401
465.442
465.482
465.522
465.563
465.603
465.643
465.683
465.723
465.763
465.804
465.844
465.884
465.924
465.964
466.004
466.044
466.083
466.123
466.163
466.203
466.243
466.283
466.322
466.362
466.402
466.441
466.481
466.521
466.56
466.6
466.639
466.679
466.718
466.758
466.797
466.837
466.876
466.915
466.955
466.994
467.033
467.073
467.112
467.151
467.19
467.229
467.269
467.308
467.347
467.386
467.425
467.464
467.503
467.542
467.581
467.619
467.658
467.697
467.736
467.775
467.813
467.852
467.891
467.93
467.968
468.007
468.045
468.084
468.123
468.161
468.2
468.238
468.277
468.315
468.353
468.392
468.43
468.468
468.507
468.545
468.583
468.621
468.66
468.698
468.736
468.774
468.812
468.85
468.888
468.926
468.964
469.002
469.04
469.078
469.116
469.154
469.191
469.229
469.267
469.305
469.342
469.38
469.418
469.455
469.493
469.531
469.568
469.606
469.643
469.681
469.718
469.756
469.793
469.83
469.868
469.905
469.942
469.98
470.017
470.054
470.091
470.129
470.166
470.203
470.24
470.277
470.314
470.351
470.388
470.425
470.462
470.499
470.536
470.573
470.609
470.646
470.683
470.72
470.757
470.793
470.83
470.867
470.903
470.94
470.977
471.013
471.05
471.086
471.123
471.159
471.195
471.232
471.268
471.305
471.341
471.377
471.414
471.45
471.486
471.522
471.558
471.595
471.631
471.667
471.703
471.739
471.775
471.811
471.847
471.883
471.919
471.955
471.991
472.026
472.062
472.098
472.134
472.17
472.205
472.241
472.277
472.312
472.348
472.383
472.419
472.455
472.49
472.526
472.561
472.596
472.632
472.667
472.703
472.738
472.773
472.809
472.844
472.879
472.914
472.949
472.985
473.02
473.055
473.09
473.125
473.16
473.195
473.23
473.265
473.3
473.335
473.37
473.405
473.439
473.474
473.509
473.544
473.579
473.613
473.648
473.683
473.717
473.752
473.786
473.821
473.856
473.89
473.924
473.959
473.993
474.028
474.062
474.097
474.131
474.165
474.199
474.234
474.268
474.302
474.336
474.37
474.405
474.439
474.473
474.507
474.541
474.575
474.609
474.643
474.677
474.711
474.745
474.778
474.812
474.846
474.88
474.914
474.947
474.981
475.015
475.048
475.082
475.116
475.149
475.183
475.216
475.25
475.283
475.317
475.35
475.383
475.417
475.45
475.484
475.517
475.55
475.583
475.617
475.65
475.683
475.716
475.749
475.782
475.816
475.849
475.882
475.915
475.948
475.981
476.013
476.046
476.079
476.112
476.145
476.178
476.211
476.243
476.276
476.309
476.341
476.374
476.407
476.439
476.472
476.505
476.537
476.57
476.602
476.635
476.667
476.699
476.732
476.764
476.796
476.829
476.861
476.893
476.926
476.958
476.99
477.022
477.054
477.086
477.119
477.151
477.183
477.215
477.247
477.279
477.311
477.343
477.374
477.406
477.438
477.47
477.502
477.534
477.565
477.597
477.629
477.66
477.692
477.724
477.755
477.787
477.818
477.85
477.881
477.913
477.944
477.976
478.007
478.039
478.07
478.101
478.133
478.164
478.195
478.226
478.258
478.289
478.32
478.351
478.382
478.413
478.444
478.475
478.506
478.537
478.568
478.599
478.63
478.661
478.692
478.723
478.754
478.785
478.815
478.846
478.877
478.907
478.938
478.969
478.999
479.03
479.061
479.091
479.122
479.152
479.183
479.213
479.244
479.274
479.304
479.335
479.365
479.395
479.426
479.456
479.486
479.516
479.547
479.577
479.607
479.637
479.667
479.697
479.727
479.757
479.787
479.817
479.847
479.877
479.907
479.937
479.967
479.997
480.026
480.056
480.086
480.116
480.145
480.175
480.205
480.234
480.264
480.294
480.323
480.353
480.382
480.412
480.441
480.471
480.5
480.53
480.559
480.588
480.618
480.647
480.676
480.705
480.735
480.764
480.793
480.822
480.851
480.88
480.91
480.939
480.968
480.997
481.026
481.055
481.084
481.112
481.141
481.17
481.199
481.228
481.257
481.285
481.314
481.343
481.372
481.4
481.429
481.458
481.486
481.515
481.543
481.572
481.6
481.629
481.657
481.686
481.714
481.743
481.771
481.799
481.828
481.856
481.884
481.913
481.941
481.969
481.997
482.025
482.053
482.082
482.11
482.138
482.166
482.194
482.222
482.25
482.278
482.306
482.334
482.361
482.389
482.417
482.445
482.473
482.5
482.528
482.556
482.584
482.611
482.639
482.666
482.694
482.722
482.749
482.777
482.804
482.832
482.859
482.887
482.914
482.941
482.969
482.996
483.023
483.051
483.078
483.105
483.132
483.16
483.187
483.214
483.241
483.268
483.295
483.322
483.349
483.376
483.403
483.43
483.457
483.484
483.511
483.538
483.565
483.591
483.618
483.645
483.672
483.698
483.725
483.752
483.778
483.805
483.832
483.858
483.885
483.911
483.938
483.964
483.991
484.017
484.044
484.07
484.096
484.123
484.149
484.175
484.202
484.228
484.254
484.28
484.307
484.333
484.359
484.385
484.411
484.437
484.463
484.489
484.515
484.541
484.567
484.593
484.619
484.645
484.671
484.697
484.722
484.748
484.774
484.8
484.825
484.851
484.877
484.903
484.928
484.954
484.979
485.005
485.03
485.056
485.081
485.107
485.132
485.158
485.183
485.209
485.234
485.259