/*--------------------------------*- C++ -*----------------------------------*\
  =========                 |
  \\      /  F ield         | OpenFOAM: The Open Source CFD Toolbox
   \\    /   O peration     | Website:  https://openfoam.org
    \\  /    A nd           | Version:  9
     \\/     M anipulation  |
\*---------------------------------------------------------------------------*/
FoamFile
{
    format      ascii;
    class       volScalarField;
    location    "0.006";
    object      mag(U);
}
// * * * * * * * * * * * * * * * * * * * * * * * * * * * * * * * * * * * * * //

dimensions      [0 1 -1 0 0 0 0];

internalField   nonuniform List<scalar> 
100
(
6.64174e-13
5.88771e-13
5.61776e-13
5.70143e-13
4.25233e-13
3.12815e-13
1.73221e-13
2.65858e-12
1.73184e-11
1.0025e-10
5.60937e-10
3.02129e-09
1.57084e-08
7.87601e-08
3.80585e-07
1.77114e-06
7.9312e-06
3.41421e-05
0.00014113
0.000559432
0.00212325
0.00770126
0.0266344
0.0875847
0.272921
0.802695
2.22002
5.77308
14.0118
28.4881
44.8
59.78
73.6128
86.8613
99.8351
112.673
125.44
138.173
150.895
163.626
176.377
189.157
201.969
214.81
227.655
240.503
253.237
265.589
277.299
287.099
292.526
293.93
292.404
292.935
293.479
293.599
293.689
293.671
293.708
293.707
293.717
293.79
293.75
293.62
293.476
293.498
293.635
294.341
296.857
291.191
288.011
289.22
290.669
293.917
298.473
299.203
298.691
294.762
289.614
288.934
288.772
287.729
274.744
172.899
20.7664
1.47739
0.0998552
0.00670855
0.000448263
2.98081e-05
1.97274e-06
1.29971e-07
8.52737e-09
5.57413e-10
3.62657e-11
2.35886e-12
1.3914e-14
1.26503e-13
5.67023e-14
9.84819e-14
)
;

boundaryField
{
    sides
    {
        type            calculated;
        value           nonuniform List<scalar> 2(9.84819e-14 6.64174e-13);
    }
    empty
    {
        type            empty;
    }
}


// ************************************************************************* //
