/*--------------------------------*- C++ -*----------------------------------*\
  =========                 |
  \\      /  F ield         | OpenFOAM: The Open Source CFD Toolbox
   \\    /   O peration     | Website:  https://openfoam.org
    \\  /    A nd           | Version:  9
     \\/     M anipulation  |
\*---------------------------------------------------------------------------*/
FoamFile
{
    format      ascii;
    class       volScalarField;
    location    "0.006";
    object      p;
}
// * * * * * * * * * * * * * * * * * * * * * * * * * * * * * * * * * * * * * //

dimensions      [1 -1 -2 0 0 0 0];

internalField   nonuniform List<scalar> 
100
(
100000
100000
100000
100000
100000
100000
100000
100000
100000
100000
100000
100000
100000
100000
100000
100000
100000
100000
99999.9
99999.8
99999.2
99997.1
99990
99967.2
99897.9
99700
99172
97857.9
94863.9
89796.2
84384
79660.7
75499.9
71689.8
68119.4
64737.2
61517.2
58443.4
55504.3
52690.8
49996.2
47414.6
44942.2
42576.2
40313.5
38163.6
36125.7
34217.9
32532.5
31203.1
30373.7
30207
30432.6
30376.1
30317.4
30292.4
30260.1
30224.4
30225.4
30271.8
30287.2
30289
30287.7
30272.3
30246.3
30226.5
30262.6
30392.8
30681.5
30048.1
29715.6
29855.1
29991.1
30342.3
30835.1
30914.1
30866.6
30450.8
29909.2
29840.9
29827.8
29725.1
28386.1
19428.6
10890.7
10061.9
10004.2
10000.3
10000
10000
10000
10000
10000
10000
10000
10000
10000
10000
10000
10000
)
;

boundaryField
{
    sides
    {
        type            zeroGradient;
    }
    empty
    {
        type            empty;
    }
}


// ************************************************************************* //
