/*--------------------------------*- C++ -*----------------------------------*\
  =========                 |
  \\      /  F ield         | OpenFOAM: The Open Source CFD Toolbox
   \\    /   O peration     | Website:  https://openfoam.org
    \\  /    A nd           | Version:  9
     \\/     M anipulation  |
\*---------------------------------------------------------------------------*/
FoamFile
{
    format      ascii;
    class       volScalarField;
    location    "0.006";
    object      T;
}
// * * * * * * * * * * * * * * * * * * * * * * * * * * * * * * * * * * * * * //

dimensions      [0 0 0 1 0 0 0];

internalField   nonuniform List<scalar> 
100
(
348.432
348.432
348.432
348.432
348.432
348.432
348.432
348.432
348.432
348.432
348.432
348.432
348.432
348.432
348.432
348.432
348.432
348.432
348.432
348.432
348.431
348.429
348.422
348.399
348.33
348.133
347.605
346.282
343.219
337.856
331.871
326.418
321.422
316.675
312.062
307.531
303.059
298.633
294.243
289.883
285.551
281.241
276.956
272.695
268.461
264.279
260.157
256.142
252.491
249.533
247.427
247.154
247.728
247.624
247.536
247.431
247.228
246.907
246.801
246.859
247.017
247.406
248.37
250.475
254.817
263.462
280.184
310.16
352.014
380.037
391.409
396.781
399.279
401.252
402.636
402.671
402.015
399.811
397.447
396.909
396.561
395.805
390.172
350.773
286.992
279.266
278.78
278.748
278.746
278.746
278.746
278.746
278.746
278.746
278.746
278.746
278.746
278.746
278.746
278.746
)
;

boundaryField
{
    sides
    {
        type            zeroGradient;
    }
    empty
    {
        type            empty;
    }
}


// ************************************************************************* //
