/*--------------------------------*- C++ -*----------------------------------*\
  =========                 |
  \\      /  F ield         | OpenFOAM: The Open Source CFD Toolbox
   \\    /   O peration     | Website:  https://openfoam.org
    \\  /    A nd           | Version:  9
     \\/     M anipulation  |
\*---------------------------------------------------------------------------*/
FoamFile
{
    format      ascii;
    class       volScalarField;
    location    "0.04";
    object      rho;
}
// * * * * * * * * * * * * * * * * * * * * * * * * * * * * * * * * * * * * * //

dimensions      [1 -3 0 0 0 0 0];

internalField   nonuniform List<scalar> 
1000
(
0.573424
0.572857
0.572513
0.572141
0.571776
0.57141
0.571045
0.570679
0.570314
0.569949
0.569584
0.56922
0.568855
0.568491
0.568127
0.567763
0.5674
0.567036
0.566673
0.566309
0.565946
0.565584
0.565221
0.564858
0.564496
0.564134
0.563772
0.563411
0.563049
0.562688
0.562327
0.561966
0.561605
0.561244
0.560884
0.560523
0.560163
0.559803
0.559444
0.559084
0.558725
0.558366
0.558007
0.557648
0.557289
0.556931
0.556572
0.556214
0.555857
0.555499
0.555141
0.554784
0.554427
0.55407
0.553713
0.553357
0.553
0.552644
0.552288
0.551932
0.551576
0.551221
0.550865
0.55051
0.550155
0.549801
0.549446
0.549091
0.548737
0.548383
0.548029
0.547675
0.547322
0.546969
0.546615
0.546262
0.54591
0.545557
0.545205
0.544852
0.5445
0.544148
0.543797
0.543445
0.543094
0.542742
0.542391
0.542041
0.54169
0.54134
0.540989
0.540639
0.540289
0.53994
0.53959
0.539241
0.538891
0.538542
0.538194
0.537845
0.537497
0.537148
0.5368
0.536452
0.536105
0.535757
0.53541
0.535063
0.534716
0.534369
0.534022
0.533675
0.533329
0.532983
0.532637
0.532291
0.531946
0.531601
0.531255
0.53091
0.530566
0.530221
0.529876
0.529532
0.529188
0.528844
0.5285
0.528156
0.527813
0.527469
0.527126
0.526783
0.526441
0.526099
0.525755
0.52541
0.525069
0.524733
0.524396
0.52405
0.523697
0.52335
0.523027
0.522712
0.522363
0.522
0.52164
0.521307
0.521024
0.52069
0.520322
0.519953
0.519594
0.519289
0.519014
0.518659
0.518286
0.517916
0.517557
0.517266
0.516999
0.51664
0.516264
0.51589
0.515523
0.515194
0.514957
0.514632
0.514261
0.513886
0.513514
0.51315
0.51283
0.512597
0.512269
0.511899
0.511528
0.511159
0.510802
0.510506
0.510239
0.509892
0.509531
0.509174
0.508849
0.508592
0.508262
0.507896
0.507529
0.507165
0.506809
0.506506
0.506262
0.505924
0.505559
0.505192
0.504827
0.504469
0.504141
0.503902
0.503595
0.503235
0.502871
0.502509
0.502151
0.501815
0.501563
0.501269
0.500915
0.500555
0.500196
0.499843
0.499516
0.499267
0.498957
0.498603
0.498246
0.497891
0.497544
0.497246
0.496986
0.496649
0.496296
0.495942
0.495594
0.495267
0.495005
0.494694
0.494346
0.493996
0.493649
0.493313
0.493031
0.492739
0.492398
0.492052
0.491707
0.49137
0.491073
0.490785
0.490452
0.49011
0.489769
0.489436
0.489133
0.488836
0.488507
0.488171
0.487836
0.487511
0.487204
0.486892
0.486566
0.486237
0.485911
0.485592
0.485275
0.484954
0.484632
0.484309
0.483988
0.483668
0.483348
0.483028
0.482707
0.482387
0.482068
0.481748
0.481428
0.481109
0.48079
0.480471
0.480152
0.479833
0.479514
0.479196
0.478878
0.478561
0.478243
0.477925
0.477606
0.477288
0.476971
0.476656
0.47634
0.476023
0.475704
0.475386
0.47507
0.474756
0.474443
0.474127
0.473809
0.473491
0.473175
0.472862
0.472551
0.472238
0.471921
0.471603
0.471287
0.470975
0.470666
0.470355
0.470039
0.469722
0.469408
0.469097
0.468788
0.468476
0.468161
0.467846
0.467536
0.467229
0.466919
0.466603
0.466287
0.465973
0.465668
0.465367
0.465055
0.464738
0.464422
0.464109
0.463804
0.463498
0.463188
0.462878
0.462576
0.46227
0.461955
0.461639
0.461325
0.461023
0.460734
0.460424
0.460107
0.45979
0.459475
0.459167
0.458881
0.458581
0.458266
0.45795
0.457635
0.457323
0.457027
0.456741
0.456431
0.456117
0.455803
0.45549
0.455183
0.454898
0.4546
0.454289
0.453976
0.453664
0.453355
0.453057
0.452772
0.452466
0.452156
0.451845
0.451535
0.45123
0.450942
0.450647
0.45034
0.450031
0.449723
0.449416
0.449117
0.448831
0.448529
0.448223
0.447916
0.447611
0.447308
0.447017
0.446724
0.44642
0.446116
0.445812
0.445509
0.445211
0.444922
0.444625
0.444326
0.444027
0.443734
0.443443
0.443145
0.442847
0.442549
0.442253
0.441964
0.441677
0.441385
0.441093
0.440801
0.440512
0.440227
0.439949
0.439671
0.439392
0.439115
0.438841
0.438573
0.438311
0.438055
0.437801
0.437552
0.437307
0.437071
0.436846
0.43663
0.436427
0.436238
0.436063
0.435904
0.435767
0.435651
0.435554
0.435476
0.435413
0.435363
0.435325
0.435303
0.435293
0.435291
0.435292
0.435296
0.435302
0.435322
0.435358
0.435398
0.435435
0.435468
0.435494
0.435509
0.435532
0.435561
0.435591
0.435622
0.435653
0.43568
0.435704
0.435744
0.435783
0.435817
0.435842
0.435855
0.435849
0.435848
0.435847
0.435834
0.435791
0.435718
0.435631
0.435564
0.435514
0.435475
0.435444
0.435418
0.435384
0.435355
0.435342
0.435334
0.43533
0.435328
0.435324
0.435307
0.435299
0.435304
0.435314
0.435326
0.435337
0.435337
0.435337
0.435354
0.435376
0.435402
0.435425
0.435436
0.43545
0.435471
0.435491
0.435506
0.435517
0.435523
0.435523
0.435508
0.435459
0.435393
0.43535
0.435316
0.435287
0.435261
0.435238
0.435207
0.435174
0.435158
0.435149
0.435143
0.435139
0.435132
0.435117
0.435113
0.435114
0.435119
0.43512
0.435119
0.435129
0.435143
0.435157
0.435171
0.435182
0.435192
0.435209
0.435229
0.435248
0.435265
0.435276
0.435276
0.435274
0.435276
0.435276
0.435272
0.43525
0.4352
0.435158
0.435121
0.435088
0.435059
0.435033
0.435002
0.43497
0.434948
0.434924
0.43489
0.434872
0.434866
0.434864
0.434864
0.434868
0.434874
0.434879
0.434885
0.43489
0.43489
0.434863
0.434828
0.43483
0.434841
0.434855
0.434871
0.434892
0.434918
0.434937
0.434954
0.43497
0.434983
0.434987
0.434961
0.434915
0.434904
0.434892
0.434869
0.434838
0.434807
0.434774
0.434725
0.434692
0.434676
0.434665
0.434656
0.434646
0.434631
0.434598
0.434573
0.434567
0.434564
0.434563
0.434561
0.43455
0.434521
0.434514
0.434517
0.434524
0.434531
0.434537
0.434529
0.43451
0.434516
0.434529
0.434543
0.434557
0.43457
0.434581
0.434586
0.434573
0.434559
0.434557
0.434554
0.43454
0.434518
0.43449
0.434451
0.434406
0.434384
0.43437
0.434361
0.434354
0.434349
0.434344
0.43434
0.434335
0.434329
0.434316
0.434271
0.434238
0.434234
0.434236
0.434239
0.434244
0.434248
0.434246
0.434224
0.434206
0.43421
0.434219
0.434229
0.434237
0.434236
0.434209
0.434199
0.434205
0.434212
0.434217
0.434219
0.434217
0.434203
0.434167
0.434112
0.434086
0.434069
0.434054
0.434041
0.434029
0.434013
0.433977
0.433953
0.433946
0.433941
0.433937
0.433933
0.433927
0.433908
0.433881
0.433876
0.433878
0.433881
0.433885
0.433886
0.433879
0.433856
0.433853
0.43386
0.433869
0.433878
0.433886
0.433888
0.433872
0.433861
0.433864
0.433867
0.433868
0.433863
0.433838
0.433801
0.433781
0.433765
0.433752
0.43374
0.433726
0.433699
0.433668
0.433656
0.433649
0.433645
0.433641
0.433636
0.433627
0.433606
0.433588
0.433577
0.43356
0.433543
0.433541
0.433543
0.433548
0.433553
0.433558
0.433563
0.433567
0.433561
0.43352
0.433496
0.433499
0.433506
0.433513
0.433518
0.433523
0.433526
0.433529
0.433526
0.433518
0.433505
0.433492
0.43348
0.43347
0.433456
0.433416
0.43333
0.4333
0.433291
0.433286
0.433284
0.433282
0.433281
0.433281
0.433281
0.433281
0.433278
0.433262
0.433233
0.433228
0.43323
0.433233
0.433237
0.43324
0.433236
0.433213
0.433201
0.433204
0.433209
0.433213
0.433212
0.433193
0.433174
0.433171
0.433169
0.433164
0.433155
0.433137
0.4331
0.433074
0.433061
0.433051
0.433042
0.433025
0.432994
0.43298
0.432973
0.432968
0.432963
0.432957
0.432937
0.432911
0.432906
0.432906
0.432907
0.432909
0.432911
0.432913
0.432915
0.432909
0.432871
0.432827
0.432821
0.432824
0.432829
0.432834
0.43284
0.432845
0.432848
0.432843
0.432818
0.432795
0.432786
0.432779
0.432771
0.432761
0.432745
0.43271
0.432683
0.432673
0.432668
0.432665
0.432661
0.43265
0.432617
0.432597
0.432591
0.432588
0.432586
0.432584
0.432578
0.432552
0.432532
0.432529
0.432529
0.43253
0.43253
0.432524
0.432498
0.432487
0.432488
0.43249
0.432492
0.432492
0.432478
0.432451
0.432445
0.432445
0.432443
0.432439
0.432432
0.432424
0.43241
0.432374
0.432349
0.43234
0.432332
0.432326
0.432319
0.432307
0.432276
0.432259
0.432255
0.432251
0.432248
0.432243
0.432227
0.432197
0.432189
0.432188
0.432189
0.432189
0.432187
0.432175
0.432148
0.43214
0.432139
0.432138
0.43213
0.432107
0.432099
0.432099
0.432098
0.432096
0.432088
0.432062
0.432048
0.432072
0.432195
0.432718
0.434845
0.438602
0.440792
0.441751
0.442072
0.442087
0.442057
0.442059
0.442071
0.442103
0.442129
0.442128
0.442102
0.442056
0.442013
0.441977
0.441972
0.441978
0.441974
0.441969
0.441957
0.441944
0.441943
0.441949
0.441957
0.441957
0.441901
0.441827
0.441797
0.441788
0.441785
0.441786
0.441792
0.441798
0.441804
0.4418
0.441792
0.441783
0.441769
0.441728
0.441642
0.441614
0.441603
0.441595
0.441588
0.441585
0.441586
0.441592
0.441611
0.441667
0.441822
0.442333
0.443965
0.446591
0.448398
0.449181
0.449483
0.449645
0.449698
0.44971
0.449727
0.44974
0.449754
0.449778
0.449804
0.449804
0.44979
0.449745
0.449635
0.44959
0.44959
0.449594
0.449603
0.449616
0.449622
0.449626
0.449632
0.449645
0.449653
0.449653
0.449632
0.449543
0.449455
0.449442
0.449443
0.449449
0.449467
0.449507
0.449523
0.449525
0.449525
0.449523
0.44951
0.449431
0.449315
0.449288
0.449282
0.449282
0.449285
0.449299
0.449326
0.449335
0.449337
0.449338
0.449341
0.449344
0.449347
0.449348
0.449336
0.449272
0.449224
0.449218
0.44922
0.449227
0.44924
0.449247
0.449251
0.449254
0.449249
0.449229
0.449189
0.449147
0.449105
0.449091
0.44909
0.449093
0.449098
0.449105
0.449119
0.449126
0.44913
0.44913
)
;

boundaryField
{
    sides
    {
        type            calculated;
        value           nonuniform List<scalar> 2(0.44913 0.573424);
    }
    empty
    {
        type            empty;
    }
}


// ************************************************************************* //
