/*--------------------------------*- C++ -*----------------------------------*\
  =========                 |
  \\      /  F ield         | OpenFOAM: The Open Source CFD Toolbox
   \\    /   O peration     | Website:  https://openfoam.org
    \\  /    A nd           | Version:  9
     \\/     M anipulation  |
\*---------------------------------------------------------------------------*/
FoamFile
{
    format      ascii;
    class       volVectorField;
    location    "0.04";
    object      U;
}
// * * * * * * * * * * * * * * * * * * * * * * * * * * * * * * * * * * * * * //

dimensions      [0 1 -1 0 0 0 0];

internalField   nonuniform List<vector> 
1000
(
(215.27 0 0)
(215.598 0 0)
(215.789 0 0)
(215.997 0 0)
(216.202 0 0)
(216.407 0 0)
(216.611 0 0)
(216.816 0 0)
(217.021 0 0)
(217.226 0 0)
(217.431 0 0)
(217.636 0 0)
(217.84 0 0)
(218.045 0 0)
(218.25 0 0)
(218.455 0 0)
(218.66 0 0)
(218.865 0 0)
(219.069 0 0)
(219.274 0 0)
(219.479 0 0)
(219.684 0 0)
(219.889 0 0)
(220.094 0 0)
(220.299 0 0)
(220.503 0 0)
(220.708 0 0)
(220.913 0 0)
(221.118 0 0)
(221.323 0 0)
(221.527 0 0)
(221.732 0 0)
(221.937 0 0)
(222.142 0 0)
(222.347 0 0)
(222.552 0 0)
(222.756 0 0)
(222.961 0 0)
(223.166 0 0)
(223.371 0 0)
(223.576 0 0)
(223.781 0 0)
(223.985 0 0)
(224.19 0 0)
(224.395 0 0)
(224.6 0 0)
(224.805 0 0)
(225.009 0 0)
(225.214 0 0)
(225.419 0 0)
(225.624 0 0)
(225.828 0 0)
(226.033 0 0)
(226.238 0 0)
(226.443 0 0)
(226.647 0 0)
(226.852 0 0)
(227.057 0 0)
(227.262 0 0)
(227.466 0 0)
(227.671 0 0)
(227.876 0 0)
(228.081 0 0)
(228.285 0 0)
(228.49 0 0)
(228.695 0 0)
(228.899 0 0)
(229.104 0 0)
(229.309 0 0)
(229.514 0 0)
(229.718 0 0)
(229.923 0 0)
(230.128 0 0)
(230.332 0 0)
(230.537 0 0)
(230.742 0 0)
(230.947 0 0)
(231.151 0 0)
(231.356 0 0)
(231.561 0 0)
(231.765 0 0)
(231.97 0 0)
(232.175 0 0)
(232.379 0 0)
(232.584 0 0)
(232.789 0 0)
(232.993 0 0)
(233.198 0 0)
(233.403 0 0)
(233.607 0 0)
(233.812 0 0)
(234.017 0 0)
(234.221 0 0)
(234.426 0 0)
(234.631 0 0)
(234.835 0 0)
(235.04 0 0)
(235.245 0 0)
(235.449 0 0)
(235.654 0 0)
(235.858 0 0)
(236.063 0 0)
(236.268 0 0)
(236.472 0 0)
(236.677 0 0)
(236.881 0 0)
(237.086 0 0)
(237.291 0 0)
(237.495 0 0)
(237.7 0 0)
(237.904 0 0)
(238.109 0 0)
(238.314 0 0)
(238.518 0 0)
(238.723 0 0)
(238.927 0 0)
(239.132 0 0)
(239.336 0 0)
(239.541 0 0)
(239.745 0 0)
(239.95 0 0)
(240.154 0 0)
(240.359 0 0)
(240.563 0 0)
(240.768 0 0)
(240.973 0 0)
(241.177 0 0)
(241.382 0 0)
(241.586 0 0)
(241.791 0 0)
(241.995 0 0)
(242.2 0 0)
(242.405 0 0)
(242.61 0 0)
(242.813 0 0)
(243.016 0 0)
(243.221 0 0)
(243.429 0 0)
(243.637 0 0)
(243.838 0 0)
(244.036 0 0)
(244.236 0 0)
(244.452 0 0)
(244.673 0 0)
(244.873 0 0)
(245.063 0 0)
(245.254 0 0)
(245.464 0 0)
(245.703 0 0)
(245.913 0 0)
(246.1 0 0)
(246.285 0 0)
(246.476 0 0)
(246.702 0 0)
(246.947 0 0)
(247.143 0 0)
(247.326 0 0)
(247.508 0 0)
(247.699 0 0)
(247.933 0 0)
(248.183 0 0)
(248.376 0 0)
(248.557 0 0)
(248.737 0 0)
(248.92 0 0)
(249.132 0 0)
(249.398 0 0)
(249.613 0 0)
(249.796 0 0)
(249.975 0 0)
(250.156 0 0)
(250.34 0 0)
(250.557 0 0)
(250.826 0 0)
(251.037 0 0)
(251.22 0 0)
(251.401 0 0)
(251.583 0 0)
(251.773 0 0)
(252.001 0 0)
(252.25 0 0)
(252.448 0 0)
(252.634 0 0)
(252.822 0 0)
(253.034 0 0)
(253.286 0 0)
(253.494 0 0)
(253.678 0 0)
(253.861 0 0)
(254.043 0 0)
(254.231 0 0)
(254.456 0 0)
(254.717 0 0)
(254.919 0 0)
(255.103 0 0)
(255.284 0 0)
(255.467 0 0)
(255.653 0 0)
(255.861 0 0)
(256.124 0 0)
(256.347 0 0)
(256.534 0 0)
(256.717 0 0)
(256.901 0 0)
(257.086 0 0)
(257.289 0 0)
(257.542 0 0)
(257.772 0 0)
(257.961 0 0)
(258.146 0 0)
(258.33 0 0)
(258.517 0 0)
(258.724 0 0)
(258.978 0 0)
(259.196 0 0)
(259.384 0 0)
(259.569 0 0)
(259.754 0 0)
(259.946 0 0)
(260.169 0 0)
(260.418 0 0)
(260.617 0 0)
(260.804 0 0)
(260.991 0 0)
(261.179 0 0)
(261.385 0 0)
(261.63 0 0)
(261.846 0 0)
(262.037 0 0)
(262.225 0 0)
(262.414 0 0)
(262.613 0 0)
(262.844 0 0)
(263.072 0 0)
(263.266 0 0)
(263.456 0 0)
(263.647 0 0)
(263.843 0 0)
(264.065 0 0)
(264.294 0 0)
(264.493 0 0)
(264.685 0 0)
(264.878 0 0)
(265.076 0 0)
(265.293 0 0)
(265.516 0 0)
(265.716 0 0)
(265.912 0 0)
(266.108 0 0)
(266.311 0 0)
(266.525 0 0)
(266.736 0 0)
(266.938 0 0)
(267.137 0 0)
(267.339 0 0)
(267.545 0 0)
(267.752 0 0)
(267.957 0 0)
(268.16 0 0)
(268.363 0 0)
(268.568 0 0)
(268.772 0 0)
(268.977 0 0)
(269.181 0 0)
(269.385 0 0)
(269.589 0 0)
(269.793 0 0)
(269.998 0 0)
(270.202 0 0)
(270.406 0 0)
(270.61 0 0)
(270.815 0 0)
(271.019 0 0)
(271.223 0 0)
(271.427 0 0)
(271.631 0 0)
(271.836 0 0)
(272.04 0 0)
(272.245 0 0)
(272.449 0 0)
(272.652 0 0)
(272.856 0 0)
(273.06 0 0)
(273.266 0 0)
(273.471 0 0)
(273.675 0 0)
(273.878 0 0)
(274.081 0 0)
(274.285 0 0)
(274.491 0 0)
(274.697 0 0)
(274.901 0 0)
(275.103 0 0)
(275.306 0 0)
(275.509 0 0)
(275.714 0 0)
(275.921 0 0)
(276.126 0 0)
(276.329 0 0)
(276.53 0 0)
(276.733 0 0)
(276.938 0 0)
(277.145 0 0)
(277.35 0 0)
(277.553 0 0)
(277.754 0 0)
(277.957 0 0)
(278.162 0 0)
(278.369 0 0)
(278.573 0 0)
(278.775 0 0)
(278.977 0 0)
(279.182 0 0)
(279.389 0 0)
(279.594 0 0)
(279.795 0 0)
(279.995 0 0)
(280.198 0 0)
(280.406 0 0)
(280.616 0 0)
(280.819 0 0)
(281.019 0 0)
(281.218 0 0)
(281.42 0 0)
(281.627 0 0)
(281.834 0 0)
(282.038 0 0)
(282.242 0 0)
(282.451 0 0)
(282.656 0 0)
(282.856 0 0)
(283.055 0 0)
(283.255 0 0)
(283.464 0 0)
(283.681 0 0)
(283.884 0 0)
(284.082 0 0)
(284.279 0 0)
(284.477 0 0)
(284.681 0 0)
(284.9 0 0)
(285.108 0 0)
(285.307 0 0)
(285.505 0 0)
(285.702 0 0)
(285.902 0 0)
(286.113 0 0)
(286.331 0 0)
(286.532 0 0)
(286.73 0 0)
(286.928 0 0)
(287.126 0 0)
(287.33 0 0)
(287.547 0 0)
(287.756 0 0)
(287.955 0 0)
(288.154 0 0)
(288.352 0 0)
(288.552 0 0)
(288.76 0 0)
(288.977 0 0)
(289.18 0 0)
(289.378 0 0)
(289.577 0 0)
(289.776 0 0)
(289.978 0 0)
(290.192 0 0)
(290.402 0 0)
(290.602 0 0)
(290.801 0 0)
(291 0 0)
(291.2 0 0)
(291.406 0 0)
(291.62 0 0)
(291.824 0 0)
(292.023 0 0)
(292.223 0 0)
(292.422 0 0)
(292.624 0 0)
(292.834 0 0)
(293.042 0 0)
(293.243 0 0)
(293.443 0 0)
(293.643 0 0)
(293.843 0 0)
(294.046 0 0)
(294.256 0 0)
(294.459 0 0)
(294.66 0 0)
(294.862 0 0)
(295.067 0 0)
(295.272 0 0)
(295.472 0 0)
(295.671 0 0)
(295.87 0 0)
(296.069 0 0)
(296.272 0 0)
(296.475 0 0)
(296.673 0 0)
(296.868 0 0)
(297.063 0 0)
(297.257 0 0)
(297.451 0 0)
(297.648 0 0)
(297.841 0 0)
(298.03 0 0)
(298.216 0 0)
(298.399 0 0)
(298.582 0 0)
(298.762 0 0)
(298.941 0 0)
(299.115 0 0)
(299.283 0 0)
(299.446 0 0)
(299.605 0 0)
(299.759 0 0)
(299.906 0 0)
(300.044 0 0)
(300.173 0 0)
(300.287 0 0)
(300.387 0 0)
(300.475 0 0)
(300.551 0 0)
(300.612 0 0)
(300.661 0 0)
(300.697 0 0)
(300.72 0 0)
(300.729 0 0)
(300.734 0 0)
(300.733 0 0)
(300.729 0 0)
(300.721 0 0)
(300.707 0 0)
(300.683 0 0)
(300.65 0 0)
(300.615 0 0)
(300.581 0 0)
(300.549 0 0)
(300.519 0 0)
(300.486 0 0)
(300.447 0 0)
(300.416 0 0)
(300.39 0 0)
(300.365 0 0)
(300.339 0 0)
(300.309 0 0)
(300.269 0 0)
(300.221 0 0)
(300.184 0 0)
(300.152 0 0)
(300.126 0 0)
(300.104 0 0)
(300.083 0 0)
(300.058 0 0)
(300.045 0 0)
(300.041 0 0)
(300.049 0 0)
(300.076 0 0)
(300.116 0 0)
(300.15 0 0)
(300.186 0 0)
(300.219 0 0)
(300.245 0 0)
(300.265 0 0)
(300.277 0 0)
(300.276 0 0)
(300.272 0 0)
(300.275 0 0)
(300.278 0 0)
(300.278 0 0)
(300.276 0 0)
(300.27 0 0)
(300.251 0 0)
(300.236 0 0)
(300.226 0 0)
(300.216 0 0)
(300.204 0 0)
(300.189 0 0)
(300.163 0 0)
(300.134 0 0)
(300.113 0 0)
(300.093 0 0)
(300.071 0 0)
(300.046 0 0)
(300.012 0 0)
(299.983 0 0)
(299.964 0 0)
(299.95 0 0)
(299.939 0 0)
(299.931 0 0)
(299.926 0 0)
(299.924 0 0)
(299.927 0 0)
(299.929 0 0)
(299.935 0 0)
(299.958 0 0)
(299.98 0 0)
(300 0 0)
(300.016 0 0)
(300.029 0 0)
(300.031 0 0)
(300.026 0 0)
(300.029 0 0)
(300.033 0 0)
(300.035 0 0)
(300.035 0 0)
(300.03 0 0)
(300.017 0 0)
(300.01 0 0)
(300.005 0 0)
(299.998 0 0)
(299.986 0 0)
(299.968 0 0)
(299.956 0 0)
(299.944 0 0)
(299.932 0 0)
(299.918 0 0)
(299.9 0 0)
(299.876 0 0)
(299.857 0 0)
(299.838 0 0)
(299.82 0 0)
(299.802 0 0)
(299.783 0 0)
(299.761 0 0)
(299.742 0 0)
(299.732 0 0)
(299.728 0 0)
(299.725 0 0)
(299.722 0 0)
(299.72 0 0)
(299.74 0 0)
(299.764 0 0)
(299.785 0 0)
(299.802 0 0)
(299.813 0 0)
(299.816 0 0)
(299.812 0 0)
(299.812 0 0)
(299.809 0 0)
(299.795 0 0)
(299.79 0 0)
(299.791 0 0)
(299.792 0 0)
(299.793 0 0)
(299.793 0 0)
(299.793 0 0)
(299.79 0 0)
(299.786 0 0)
(299.78 0 0)
(299.768 0 0)
(299.736 0 0)
(299.695 0 0)
(299.679 0 0)
(299.668 0 0)
(299.658 0 0)
(299.648 0 0)
(299.64 0 0)
(299.635 0 0)
(299.624 0 0)
(299.612 0 0)
(299.602 0 0)
(299.591 0 0)
(299.579 0 0)
(299.549 0 0)
(299.509 0 0)
(299.501 0 0)
(299.506 0 0)
(299.522 0 0)
(299.543 0 0)
(299.562 0 0)
(299.573 0 0)
(299.566 0 0)
(299.565 0 0)
(299.57 0 0)
(299.576 0 0)
(299.581 0 0)
(299.584 0 0)
(299.583 0 0)
(299.566 0 0)
(299.554 0 0)
(299.552 0 0)
(299.551 0 0)
(299.549 0 0)
(299.544 0 0)
(299.532 0 0)
(299.505 0 0)
(299.491 0 0)
(299.484 0 0)
(299.476 0 0)
(299.468 0 0)
(299.456 0 0)
(299.433 0 0)
(299.401 0 0)
(299.386 0 0)
(299.375 0 0)
(299.364 0 0)
(299.353 0 0)
(299.343 0 0)
(299.334 0 0)
(299.322 0 0)
(299.301 0 0)
(299.283 0 0)
(299.279 0 0)
(299.28 0 0)
(299.289 0 0)
(299.304 0 0)
(299.318 0 0)
(299.321 0 0)
(299.316 0 0)
(299.323 0 0)
(299.331 0 0)
(299.337 0 0)
(299.342 0 0)
(299.347 0 0)
(299.35 0 0)
(299.354 0 0)
(299.356 0 0)
(299.357 0 0)
(299.35 0 0)
(299.317 0 0)
(299.291 0 0)
(299.285 0 0)
(299.281 0 0)
(299.277 0 0)
(299.273 0 0)
(299.266 0 0)
(299.255 0 0)
(299.227 0 0)
(299.201 0 0)
(299.189 0 0)
(299.179 0 0)
(299.169 0 0)
(299.158 0 0)
(299.14 0 0)
(299.103 0 0)
(299.08 0 0)
(299.071 0 0)
(299.065 0 0)
(299.061 0 0)
(299.058 0 0)
(299.058 0 0)
(299.061 0 0)
(299.058 0 0)
(299.043 0 0)
(299.049 0 0)
(299.058 0 0)
(299.067 0 0)
(299.075 0 0)
(299.08 0 0)
(299.079 0 0)
(299.061 0 0)
(299.049 0 0)
(299.049 0 0)
(299.05 0 0)
(299.051 0 0)
(299.051 0 0)
(299.049 0 0)
(299.034 0 0)
(299.013 0 0)
(299.006 0 0)
(299.002 0 0)
(298.998 0 0)
(298.993 0 0)
(298.986 0 0)
(298.971 0 0)
(298.944 0 0)
(298.931 0 0)
(298.923 0 0)
(298.915 0 0)
(298.907 0 0)
(298.897 0 0)
(298.884 0 0)
(298.859 0 0)
(298.839 0 0)
(298.831 0 0)
(298.826 0 0)
(298.822 0 0)
(298.819 0 0)
(298.809 0 0)
(298.8 0 0)
(298.806 0 0)
(298.815 0 0)
(298.823 0 0)
(298.829 0 0)
(298.833 0 0)
(298.826 0 0)
(298.814 0 0)
(298.815 0 0)
(298.817 0 0)
(298.819 0 0)
(298.819 0 0)
(298.819 0 0)
(298.814 0 0)
(298.8 0 0)
(298.787 0 0)
(298.779 0 0)
(298.764 0 0)
(298.747 0 0)
(298.74 0 0)
(298.736 0 0)
(298.732 0 0)
(298.728 0 0)
(298.723 0 0)
(298.718 0 0)
(298.711 0 0)
(298.695 0 0)
(298.653 0 0)
(298.623 0 0)
(298.612 0 0)
(298.606 0 0)
(298.602 0 0)
(298.598 0 0)
(298.595 0 0)
(298.594 0 0)
(298.595 0 0)
(298.598 0 0)
(298.604 0 0)
(298.614 0 0)
(298.623 0 0)
(298.631 0 0)
(298.636 0 0)
(298.636 0 0)
(298.615 0 0)
(298.56 0 0)
(298.546 0 0)
(298.547 0 0)
(298.549 0 0)
(298.551 0 0)
(298.552 0 0)
(298.552 0 0)
(298.552 0 0)
(298.552 0 0)
(298.551 0 0)
(298.547 0 0)
(298.533 0 0)
(298.508 0 0)
(298.499 0 0)
(298.494 0 0)
(298.49 0 0)
(298.485 0 0)
(298.479 0 0)
(298.468 0 0)
(298.443 0 0)
(298.425 0 0)
(298.416 0 0)
(298.409 0 0)
(298.402 0 0)
(298.393 0 0)
(298.373 0 0)
(298.355 0 0)
(298.35 0 0)
(298.349 0 0)
(298.35 0 0)
(298.352 0 0)
(298.352 0 0)
(298.34 0 0)
(298.336 0 0)
(298.339 0 0)
(298.341 0 0)
(298.341 0 0)
(298.334 0 0)
(298.316 0 0)
(298.312 0 0)
(298.312 0 0)
(298.313 0 0)
(298.313 0 0)
(298.31 0 0)
(298.296 0 0)
(298.276 0 0)
(298.27 0 0)
(298.268 0 0)
(298.266 0 0)
(298.264 0 0)
(298.262 0 0)
(298.259 0 0)
(298.254 0 0)
(298.243 0 0)
(298.208 0 0)
(298.169 0 0)
(298.158 0 0)
(298.153 0 0)
(298.148 0 0)
(298.143 0 0)
(298.139 0 0)
(298.134 0 0)
(298.129 0 0)
(298.122 0 0)
(298.102 0 0)
(298.086 0 0)
(298.086 0 0)
(298.089 0 0)
(298.092 0 0)
(298.096 0 0)
(298.095 0 0)
(298.081 0 0)
(298.071 0 0)
(298.071 0 0)
(298.072 0 0)
(298.072 0 0)
(298.071 0 0)
(298.065 0 0)
(298.044 0 0)
(298.032 0 0)
(298.031 0 0)
(298.031 0 0)
(298.03 0 0)
(298.027 0 0)
(298.02 0 0)
(297.998 0 0)
(297.981 0 0)
(297.976 0 0)
(297.972 0 0)
(297.969 0 0)
(297.964 0 0)
(297.953 0 0)
(297.927 0 0)
(297.912 0 0)
(297.906 0 0)
(297.901 0 0)
(297.896 0 0)
(297.889 0 0)
(297.874 0 0)
(297.848 0 0)
(297.839 0 0)
(297.837 0 0)
(297.837 0 0)
(297.84 0 0)
(297.844 0 0)
(297.846 0 0)
(297.843 0 0)
(297.823 0 0)
(297.812 0 0)
(297.813 0 0)
(297.815 0 0)
(297.817 0 0)
(297.817 0 0)
(297.81 0 0)
(297.788 0 0)
(297.777 0 0)
(297.774 0 0)
(297.773 0 0)
(297.773 0 0)
(297.77 0 0)
(297.759 0 0)
(297.735 0 0)
(297.726 0 0)
(297.722 0 0)
(297.719 0 0)
(297.716 0 0)
(297.712 0 0)
(297.7 0 0)
(297.677 0 0)
(297.666 0 0)
(297.658 0 0)
(297.651 0 0)
(297.638 0 0)
(297.616 0 0)
(297.604 0 0)
(297.599 0 0)
(297.596 0 0)
(297.593 0 0)
(297.588 0 0)
(297.568 0 0)
(297.547 0 0)
(297.522 0 0)
(297.429 0 0)
(297.046 0 0)
(295.491 0 0)
(292.754 0 0)
(291.154 0 0)
(290.5 0 0)
(290.25 0 0)
(290.144 0 0)
(290.126 0 0)
(290.13 0 0)
(290.134 0 0)
(290.137 0 0)
(290.122 0 0)
(290.111 0 0)
(290.099 0 0)
(290.088 0 0)
(290.081 0 0)
(290.063 0 0)
(290.052 0 0)
(290.037 0 0)
(290.026 0 0)
(290.025 0 0)
(290.025 0 0)
(290.033 0 0)
(290.04 0 0)
(290.044 0 0)
(290.042 0 0)
(290.031 0 0)
(289.989 0 0)
(289.947 0 0)
(289.935 0 0)
(289.937 0 0)
(289.939 0 0)
(289.942 0 0)
(289.945 0 0)
(289.95 0 0)
(289.959 0 0)
(289.964 0 0)
(289.969 0 0)
(289.972 0 0)
(289.969 0 0)
(289.941 0 0)
(289.881 0 0)
(289.867 0 0)
(289.87 0 0)
(289.875 0 0)
(289.881 0 0)
(289.888 0 0)
(289.892 0 0)
(289.891 0 0)
(289.881 0 0)
(289.848 0 0)
(289.74 0 0)
(289.375 0 0)
(288.204 0 0)
(286.334 0 0)
(285.062 0 0)
(284.412 0 0)
(284.053 0 0)
(283.911 0 0)
(283.853 0 0)
(283.845 0 0)
(283.842 0 0)
(283.84 0 0)
(283.84 0 0)
(283.845 0 0)
(283.86 0 0)
(283.861 0 0)
(283.861 0 0)
(283.84 0 0)
(283.767 0 0)
(283.726 0 0)
(283.717 0 0)
(283.716 0 0)
(283.722 0 0)
(283.739 0 0)
(283.752 0 0)
(283.756 0 0)
(283.758 0 0)
(283.763 0 0)
(283.762 0 0)
(283.758 0 0)
(283.745 0 0)
(283.69 0 0)
(283.631 0 0)
(283.622 0 0)
(283.621 0 0)
(283.622 0 0)
(283.632 0 0)
(283.661 0 0)
(283.676 0 0)
(283.679 0 0)
(283.679 0 0)
(283.676 0 0)
(283.664 0 0)
(283.606 0 0)
(283.526 0 0)
(283.509 0 0)
(283.506 0 0)
(283.507 0 0)
(283.509 0 0)
(283.516 0 0)
(283.533 0 0)
(283.538 0 0)
(283.539 0 0)
(283.539 0 0)
(283.539 0 0)
(283.538 0 0)
(283.536 0 0)
(283.532 0 0)
(283.518 0 0)
(283.47 0 0)
(283.433 0 0)
(283.425 0 0)
(283.422 0 0)
(283.422 0 0)
(283.424 0 0)
(283.423 0 0)
(283.42 0 0)
(283.416 0 0)
(283.408 0 0)
(283.388 0 0)
(283.355 0 0)
(283.318 0 0)
(283.282 0 0)
(283.266 0 0)
(283.259 0 0)
(283.255 0 0)
(283.253 0 0)
(283.252 0 0)
(283.255 0 0)
(283.253 0 0)
(283.251 0 0)
(283.243 0 0)
)
;

boundaryField
{
    sides
    {
        type            zeroGradient;
    }
    empty
    {
        type            empty;
    }
}


// ************************************************************************* //
