/*--------------------------------*- C++ -*----------------------------------*\
  =========                 |
  \\      /  F ield         | OpenFOAM: The Open Source CFD Toolbox
   \\    /   O peration     | Website:  https://openfoam.org
    \\  /    A nd           | Version:  9
     \\/     M anipulation  |
\*---------------------------------------------------------------------------*/
FoamFile
{
    format      ascii;
    class       volScalarField;
    location    "0.043";
    object      T;
}
// * * * * * * * * * * * * * * * * * * * * * * * * * * * * * * * * * * * * * //

dimensions      [0 0 0 1 0 0 0];

internalField   nonuniform List<scalar> 
100
(
277.553
276.537
275.918
275.255
274.605
273.953
273.302
272.652
272.002
271.353
270.704
270.057
269.41
268.763
268.118
267.473
266.828
266.185
265.542
264.9
264.258
263.618
262.978
262.338
261.7
261.062
260.426
259.79
259.154
258.52
257.886
257.254
256.623
255.992
255.364
254.739
254.119
253.508
252.914
252.349
251.836
251.395
251.058
250.829
250.685
250.591
250.512
250.429
250.346
250.285
250.247
250.218
250.198
250.173
250.141
250.097
250.048
249.998
249.953
249.915
249.877
249.834
249.785
249.722
249.663
249.616
249.581
249.574
249.575
249.578
249.576
249.567
249.557
249.546
249.53
249.525
249.526
249.527
249.523
249.509
249.48
249.432
249.404
249.405
249.477
249.924
250.743
251.223
251.482
251.753
252.253
252.747
252.963
253.045
253.053
253.05
253.031
253.013
252.992
252.968
)
;

boundaryField
{
    sides
    {
        type            zeroGradient;
    }
    empty
    {
        type            empty;
    }
}


// ************************************************************************* //
