/*--------------------------------*- C++ -*----------------------------------*\
  =========                 |
  \\      /  F ield         | OpenFOAM: The Open Source CFD Toolbox
   \\    /   O peration     | Website:  https://openfoam.org
    \\  /    A nd           | Version:  9
     \\/     M anipulation  |
\*---------------------------------------------------------------------------*/
FoamFile
{
    format      ascii;
    class       volVectorField;
    location    "0.043";
    object      U;
}
// * * * * * * * * * * * * * * * * * * * * * * * * * * * * * * * * * * * * * //

dimensions      [0 1 -1 0 0 0 0];

internalField   nonuniform List<vector> 
100
(
(221.969 0 0)
(224.992 0 0)
(226.763 0 0)
(228.674 0 0)
(230.55 0 0)
(232.435 0 0)
(234.317 0 0)
(236.2 0 0)
(238.083 0 0)
(239.965 0 0)
(241.847 0 0)
(243.729 0 0)
(245.611 0 0)
(247.492 0 0)
(249.374 0 0)
(251.254 0 0)
(253.135 0 0)
(255.015 0 0)
(256.894 0 0)
(258.773 0 0)
(260.652 0 0)
(262.53 0 0)
(264.408 0 0)
(266.284 0 0)
(268.161 0 0)
(270.036 0 0)
(271.911 0 0)
(273.784 0 0)
(275.657 0 0)
(277.529 0 0)
(279.399 0 0)
(281.268 0 0)
(283.135 0 0)
(284.999 0 0)
(286.859 0 0)
(288.711 0 0)
(290.549 0 0)
(292.357 0 0)
(294.116 0 0)
(295.78 0 0)
(297.29 0 0)
(298.557 0 0)
(299.504 0 0)
(300.109 0 0)
(300.442 0 0)
(300.616 0 0)
(300.737 0 0)
(300.869 0 0)
(300.997 0 0)
(301.054 0 0)
(301.037 0 0)
(300.976 0 0)
(300.885 0 0)
(300.798 0 0)
(300.729 0 0)
(300.687 0 0)
(300.654 0 0)
(300.601 0 0)
(300.52 0 0)
(300.414 0 0)
(300.298 0 0)
(300.192 0 0)
(300.11 0 0)
(300.074 0 0)
(300.038 0 0)
(299.987 0 0)
(299.911 0 0)
(299.818 0 0)
(299.712 0 0)
(299.607 0 0)
(299.521 0 0)
(299.469 0 0)
(299.424 0 0)
(299.376 0 0)
(299.306 0 0)
(299.211 0 0)
(299.1 0 0)
(298.98 0 0)
(298.864 0 0)
(298.775 0 0)
(298.726 0 0)
(298.724 0 0)
(298.696 0 0)
(298.588 0 0)
(298.237 0 0)
(296.686 0 0)
(293.965 0 0)
(292.306 0 0)
(291.373 0 0)
(290.414 0 0)
(288.722 0 0)
(287.027 0 0)
(286.116 0 0)
(285.741 0 0)
(285.581 0 0)
(285.503 0 0)
(285.46 0 0)
(285.368 0 0)
(285.245 0 0)
(285.102 0 0)
)
;

boundaryField
{
    sides
    {
        type            zeroGradient;
    }
    empty
    {
        type            empty;
    }
}


// ************************************************************************* //
