/*--------------------------------*- C++ -*----------------------------------*\
  =========                 |
  \\      /  F ield         | OpenFOAM: The Open Source CFD Toolbox
   \\    /   O peration     | Website:  https://openfoam.org
    \\  /    A nd           | Version:  9
     \\/     M anipulation  |
\*---------------------------------------------------------------------------*/
FoamFile
{
    format      ascii;
    class       volVectorField;
    location    "0.003";
    object      U;
}
// * * * * * * * * * * * * * * * * * * * * * * * * * * * * * * * * * * * * * //

dimensions      [0 1 -1 0 0 0 0];

internalField   nonuniform List<vector> 
1000
(
(-5.27907e-13 0 0)
(-5.26885e-13 0 0)
(-5.5743e-13 0 0)
(-5.8947e-13 0 0)
(-5.56891e-13 0 0)
(-5.09505e-13 0 0)
(-4.71668e-13 0 0)
(-4.86165e-13 0 0)
(-5.51653e-13 0 0)
(-6.14919e-13 0 0)
(-7.06155e-13 0 0)
(-7.22897e-13 0 0)
(-7.10683e-13 0 0)
(-6.53219e-13 0 0)
(-5.40184e-13 0 0)
(-5.22639e-13 0 0)
(-5.72117e-13 0 0)
(-5.84604e-13 0 0)
(-6.39809e-13 0 0)
(-6.2835e-13 0 0)
(-5.15405e-13 0 0)
(-4.41505e-13 0 0)
(-4.75423e-13 0 0)
(-5.1658e-13 0 0)
(-4.84192e-13 0 0)
(-4.99653e-13 0 0)
(-4.25341e-13 0 0)
(-3.9575e-13 0 0)
(-4.38257e-13 0 0)
(-5.04731e-13 0 0)
(-5.57048e-13 0 0)
(-5.07766e-13 0 0)
(-5.12575e-13 0 0)
(-5.44001e-13 0 0)
(-4.82732e-13 0 0)
(-5.10465e-13 0 0)
(-4.52529e-13 0 0)
(-3.48011e-13 0 0)
(-2.57362e-13 0 0)
(-2.26524e-13 0 0)
(-2.00664e-13 0 0)
(-2.35225e-13 0 0)
(-2.4089e-13 0 0)
(-2.2279e-13 0 0)
(-1.60997e-13 0 0)
(-2.13648e-13 0 0)
(-2.07128e-13 0 0)
(-2.3168e-13 0 0)
(-2.89579e-13 0 0)
(-2.54985e-13 0 0)
(-2.02235e-13 0 0)
(-1.85415e-13 0 0)
(-1.39187e-13 0 0)
(-2.1512e-13 0 0)
(-2.40505e-13 0 0)
(-2.10084e-13 0 0)
(-2.60015e-13 0 0)
(-3.05505e-13 0 0)
(-2.79483e-13 0 0)
(-2.67642e-13 0 0)
(-2.85317e-13 0 0)
(-2.53215e-13 0 0)
(-1.9923e-13 0 0)
(-1.99814e-13 0 0)
(-1.52807e-13 0 0)
(-2.60112e-13 0 0)
(-2.77863e-13 0 0)
(-2.98683e-13 0 0)
(-3.05138e-13 0 0)
(-3.10041e-13 0 0)
(-2.30411e-13 0 0)
(-1.89965e-13 0 0)
(-2.1517e-13 0 0)
(-1.90705e-13 0 0)
(-1.15133e-13 0 0)
(-7.06463e-14 0 0)
(-2.04181e-14 0 0)
(-1.66672e-14 0 0)
(-5.84971e-14 0 0)
(-1.15412e-13 0 0)
(-1.50857e-13 0 0)
(-2.18214e-13 0 0)
(-1.90861e-13 0 0)
(-8.15423e-14 0 0)
(-7.73251e-14 0 0)
(-2.80767e-14 0 0)
(-5.52349e-14 0 0)
(8.88805e-15 0 0)
(1.07226e-13 0 0)
(2.18266e-13 0 0)
(2.45419e-13 0 0)
(1.61337e-13 0 0)
(8.86901e-14 0 0)
(9.2719e-14 0 0)
(8.55031e-14 0 0)
(9.83679e-14 0 0)
(9.93985e-14 0 0)
(1.1853e-13 0 0)
(1.26525e-13 0 0)
(1.23934e-13 0 0)
(8.61433e-14 0 0)
(8.74329e-14 0 0)
(3.74623e-14 0 0)
(5.16976e-14 0 0)
(-1.89581e-14 0 0)
(-6.51448e-14 0 0)
(-3.64244e-14 0 0)
(-8.92955e-15 0 0)
(5.9051e-14 0 0)
(5.36928e-14 0 0)
(1.14157e-13 0 0)
(4.09308e-14 0 0)
(3.51677e-14 0 0)
(6.32256e-14 0 0)
(1.11494e-13 0 0)
(6.46012e-14 0 0)
(2.03999e-14 0 0)
(4.86325e-14 0 0)
(7.19359e-14 0 0)
(7.86412e-14 0 0)
(5.72511e-14 0 0)
(4.28508e-14 0 0)
(5.73925e-14 0 0)
(4.1176e-14 0 0)
(4.70088e-14 0 0)
(2.74459e-14 0 0)
(2.10539e-14 0 0)
(-7.79005e-15 0 0)
(-3.30909e-15 0 0)
(2.82779e-14 0 0)
(-3.10589e-14 0 0)
(-9.32297e-14 0 0)
(-3.82737e-14 0 0)
(-1.8929e-14 0 0)
(-1.67862e-14 0 0)
(1.77182e-14 0 0)
(1.05752e-14 0 0)
(2.28607e-14 0 0)
(-9.8081e-15 0 0)
(-6.91212e-14 0 0)
(-2.52705e-14 0 0)
(9.40938e-14 0 0)
(8.02231e-14 0 0)
(9.67748e-14 0 0)
(6.08923e-14 0 0)
(9.78864e-14 0 0)
(1.2394e-13 0 0)
(8.2613e-14 0 0)
(3.43104e-14 0 0)
(4.89975e-14 0 0)
(1.43614e-14 0 0)
(-1.73095e-14 0 0)
(-2.76606e-14 0 0)
(-5.97668e-15 0 0)
(1.66374e-14 0 0)
(4.88202e-14 0 0)
(2.65406e-14 0 0)
(4.29567e-15 0 0)
(-1.94843e-14 0 0)
(1.4585e-14 0 0)
(1.55088e-14 0 0)
(3.2214e-14 0 0)
(6.18716e-14 0 0)
(9.47322e-14 0 0)
(1.42885e-13 0 0)
(1.05163e-13 0 0)
(6.86842e-14 0 0)
(7.21423e-14 0 0)
(1.21203e-13 0 0)
(7.90335e-14 0 0)
(6.37143e-14 0 0)
(6.31596e-14 0 0)
(4.85684e-14 0 0)
(8.57085e-14 0 0)
(5.94225e-14 0 0)
(9.69484e-14 0 0)
(1.16074e-13 0 0)
(1.68991e-13 0 0)
(2.00966e-13 0 0)
(2.22649e-13 0 0)
(2.54918e-13 0 0)
(2.23992e-13 0 0)
(2.17046e-13 0 0)
(1.80276e-13 0 0)
(1.39842e-13 0 0)
(1.57725e-13 0 0)
(1.9916e-13 0 0)
(2.5405e-13 0 0)
(1.59371e-13 0 0)
(4.21733e-14 0 0)
(1.13084e-13 0 0)
(-5.68847e-14 0 0)
(-9.31934e-14 0 0)
(-7.84863e-14 0 0)
(-1.38252e-13 0 0)
(-1.85756e-13 0 0)
(-1.48023e-13 0 0)
(-1.42644e-13 0 0)
(-6.82356e-14 0 0)
(1.4218e-13 0 0)
(2.24466e-13 0 0)
(3.0411e-13 0 0)
(3.35196e-13 0 0)
(3.47297e-13 0 0)
(3.40311e-13 0 0)
(2.98577e-13 0 0)
(2.53771e-13 0 0)
(2.30667e-13 0 0)
(1.88438e-13 0 0)
(1.89272e-13 0 0)
(2.61414e-13 0 0)
(2.21282e-13 0 0)
(2.53313e-13 0 0)
(2.98478e-13 0 0)
(2.6422e-13 0 0)
(2.99732e-13 0 0)
(2.05015e-13 0 0)
(9.53088e-14 0 0)
(-1.20613e-14 0 0)
(3.59437e-14 0 0)
(1.12471e-13 0 0)
(9.28828e-14 0 0)
(4.00516e-14 0 0)
(-8.10095e-14 0 0)
(-1.43841e-13 0 0)
(-9.74666e-14 0 0)
(-2.74529e-14 0 0)
(-2.84168e-14 0 0)
(-9.15446e-16 0 0)
(3.4054e-14 0 0)
(-1.01176e-13 0 0)
(-1.45429e-13 0 0)
(-1.71419e-13 0 0)
(-2.01746e-13 0 0)
(-1.70937e-13 0 0)
(-1.64782e-13 0 0)
(-6.43223e-14 0 0)
(1.05476e-14 0 0)
(8.26088e-14 0 0)
(2.26998e-13 0 0)
(3.30831e-13 0 0)
(2.60949e-13 0 0)
(2.66769e-13 0 0)
(2.65965e-13 0 0)
(2.70005e-13 0 0)
(2.37512e-13 0 0)
(2.40534e-13 0 0)
(1.738e-13 0 0)
(1.27906e-13 0 0)
(5.00196e-14 0 0)
(2.85682e-14 0 0)
(7.98639e-14 0 0)
(9.74503e-14 0 0)
(8.15812e-14 0 0)
(1.34639e-13 0 0)
(4.90655e-14 0 0)
(-3.41061e-15 0 0)
(5.05591e-14 0 0)
(9.79967e-14 0 0)
(8.7562e-14 0 0)
(9.69031e-14 0 0)
(2.13069e-13 0 0)
(2.78627e-13 0 0)
(2.15604e-13 0 0)
(9.65062e-14 0 0)
(3.28177e-14 0 0)
(-5.97642e-14 0 0)
(-1.81584e-14 0 0)
(6.48866e-14 0 0)
(-9.09184e-14 0 0)
(-1.96837e-13 0 0)
(-1.92015e-13 0 0)
(-2.26562e-13 0 0)
(-2.29085e-13 0 0)
(-1.47461e-13 0 0)
(-1.76431e-13 0 0)
(-1.76028e-13 0 0)
(-1.51504e-13 0 0)
(-2.15002e-13 0 0)
(-1.7789e-13 0 0)
(-1.5509e-13 0 0)
(-1.47585e-13 0 0)
(-1.86654e-13 0 0)
(-8.22048e-14 0 0)
(-4.33297e-14 0 0)
(4.70417e-15 0 0)
(4.76984e-14 0 0)
(1.79911e-13 0 0)
(2.34055e-13 0 0)
(2.86048e-13 0 0)
(2.34368e-13 0 0)
(1.81431e-13 0 0)
(1.98744e-13 0 0)
(1.24365e-13 0 0)
(-5.40916e-14 0 0)
(-1.71087e-13 0 0)
(-1.46262e-13 0 0)
(-1.68329e-13 0 0)
(-1.92085e-13 0 0)
(-1.85645e-13 0 0)
(-2.45803e-13 0 0)
(-3.28128e-13 0 0)
(-3.51656e-13 0 0)
(-3.23031e-13 0 0)
(-3.47168e-13 0 0)
(-3.46533e-13 0 0)
(-3.05024e-13 0 0)
(-3.19898e-13 0 0)
(-3.51408e-13 0 0)
(-4.05233e-13 0 0)
(-2.66586e-13 0 0)
(-2.31346e-13 0 0)
(-1.94488e-13 0 0)
(-2.22661e-13 0 0)
(-1.85546e-13 0 0)
(-1.81286e-13 0 0)
(-1.46653e-13 0 0)
(-1.6065e-13 0 0)
(-1.5142e-13 0 0)
(-1.89275e-13 0 0)
(-2.43119e-13 0 0)
(-1.74414e-13 0 0)
(-1.86964e-13 0 0)
(-2.02816e-13 0 0)
(-1.61289e-13 0 0)
(-1.71224e-13 0 0)
(-1.50652e-13 0 0)
(-1.81748e-13 0 0)
(-2.23126e-13 0 0)
(-2.38801e-13 0 0)
(-2.22885e-13 0 0)
(-1.82728e-13 0 0)
(-1.74354e-13 0 0)
(-1.89438e-13 0 0)
(-1.43208e-13 0 0)
(-1.78469e-13 0 0)
(-2.24478e-13 0 0)
(-2.59917e-13 0 0)
(-2.15459e-13 0 0)
(-2.52712e-13 0 0)
(-2.88311e-13 0 0)
(-2.43839e-13 0 0)
(-2.09386e-13 0 0)
(-2.27014e-13 0 0)
(-2.14883e-13 0 0)
(-2.61094e-13 0 0)
(-1.94841e-13 0 0)
(-1.51533e-13 0 0)
(-2.58112e-13 0 0)
(-2.75946e-13 0 0)
(-2.57408e-13 0 0)
(-2.67989e-13 0 0)
(-2.36128e-13 0 0)
(-2.05225e-13 0 0)
(-1.30698e-13 0 0)
(-1.15501e-13 0 0)
(-1.5817e-13 0 0)
(-2.26346e-13 0 0)
(-2.43502e-13 0 0)
(-2.59085e-13 0 0)
(-2.60399e-13 0 0)
(-1.82592e-13 0 0)
(-6.33052e-14 0 0)
(2.06638e-13 0 0)
(9.88824e-13 0 0)
(4.19217e-12 0 0)
(1.43742e-11 0 0)
(4.58995e-11 0 0)
(1.45158e-10 0 0)
(4.52238e-10 0 0)
(1.39401e-09 0 0)
(4.24368e-09 0 0)
(1.27634e-08 0 0)
(3.79296e-08 0 0)
(1.11364e-07 0 0)
(3.2304e-07 0 0)
(9.25593e-07 0 0)
(2.61915e-06 0 0)
(7.31814e-06 0 0)
(2.01871e-05 0 0)
(5.49707e-05 0 0)
(0.000147753 0 0)
(0.000392001 0 0)
(0.00102667 0 0)
(0.0026551 0 0)
(0.00678365 0 0)
(0.0171379 0 0)
(0.0428709 0 0)
(0.106414 0 0)
(0.262923 0 0)
(0.649606 0 0)
(1.61598 0 0)
(4.09636 0 0)
(9.80713 0 0)
(16.869 0 0)
(22.242 0 0)
(26.2529 0 0)
(29.5598 0 0)
(32.5283 0 0)
(35.3467 0 0)
(38.1089 0 0)
(40.8567 0 0)
(43.605 0 0)
(46.3564 0 0)
(49.1092 0 0)
(51.8615 0 0)
(54.6116 0 0)
(57.3588 0 0)
(60.1028 0 0)
(62.8436 0 0)
(65.5814 0 0)
(68.3164 0 0)
(71.0488 0 0)
(73.7789 0 0)
(76.5069 0 0)
(79.2329 0 0)
(81.9573 0 0)
(84.6801 0 0)
(87.4015 0 0)
(90.1216 0 0)
(92.8406 0 0)
(95.5585 0 0)
(98.2755 0 0)
(100.992 0 0)
(103.707 0 0)
(106.422 0 0)
(109.136 0 0)
(111.85 0 0)
(114.563 0 0)
(117.276 0 0)
(119.988 0 0)
(122.7 0 0)
(125.413 0 0)
(128.124 0 0)
(130.836 0 0)
(133.548 0 0)
(136.26 0 0)
(138.971 0 0)
(141.683 0 0)
(144.395 0 0)
(147.107 0 0)
(149.819 0 0)
(152.531 0 0)
(155.244 0 0)
(157.957 0 0)
(160.67 0 0)
(163.383 0 0)
(166.097 0 0)
(168.811 0 0)
(171.525 0 0)
(174.24 0 0)
(176.955 0 0)
(179.671 0 0)
(182.387 0 0)
(185.103 0 0)
(187.82 0 0)
(190.537 0 0)
(193.254 0 0)
(195.972 0 0)
(198.69 0 0)
(201.409 0 0)
(204.128 0 0)
(206.847 0 0)
(209.567 0 0)
(212.287 0 0)
(215.008 0 0)
(217.728 0 0)
(220.449 0 0)
(223.17 0 0)
(225.891 0 0)
(228.612 0 0)
(231.333 0 0)
(234.054 0 0)
(236.774 0 0)
(239.494 0 0)
(242.214 0 0)
(244.933 0 0)
(247.652 0 0)
(250.369 0 0)
(253.086 0 0)
(255.801 0 0)
(258.516 0 0)
(261.228 0 0)
(263.939 0 0)
(266.647 0 0)
(269.354 0 0)
(272.056 0 0)
(274.754 0 0)
(277.442 0 0)
(280.113 0 0)
(282.745 0 0)
(285.296 0 0)
(287.684 0 0)
(289.755 0 0)
(291.357 0 0)
(292.399 0 0)
(292.921 0 0)
(293.152 0 0)
(293.279 0 0)
(293.43 0 0)
(293.586 0 0)
(293.669 0 0)
(293.685 0 0)
(293.675 0 0)
(293.66 0 0)
(293.661 0 0)
(293.662 0 0)
(293.665 0 0)
(293.672 0 0)
(293.682 0 0)
(293.681 0 0)
(293.632 0 0)
(293.524 0 0)
(293.462 0 0)
(293.442 0 0)
(293.44 0 0)
(293.456 0 0)
(293.468 0 0)
(293.471 0 0)
(293.441 0 0)
(293.363 0 0)
(293.303 0 0)
(293.279 0 0)
(293.271 0 0)
(293.273 0 0)
(293.28 0 0)
(293.282 0 0)
(293.272 0 0)
(293.218 0 0)
(293.132 0 0)
(293.07 0 0)
(293.039 0 0)
(293.028 0 0)
(293.036 0 0)
(293.092 0 0)
(293.156 0 0)
(293.19 0 0)
(293.215 0 0)
(293.244 0 0)
(293.297 0 0)
(293.358 0 0)
(293.41 0 0)
(293.442 0 0)
(293.452 0 0)
(293.426 0 0)
(293.381 0 0)
(293.368 0 0)
(293.375 0 0)
(293.41 0 0)
(293.449 0 0)
(293.477 0 0)
(293.481 0 0)
(293.426 0 0)
(293.352 0 0)
(293.323 0 0)
(293.323 0 0)
(293.335 0 0)
(293.363 0 0)
(293.383 0 0)
(293.379 0 0)
(293.303 0 0)
(293.233 0 0)
(293.209 0 0)
(293.211 0 0)
(293.223 0 0)
(293.238 0 0)
(293.242 0 0)
(293.214 0 0)
(293.109 0 0)
(293.051 0 0)
(293.061 0 0)
(293.136 0 0)
(293.209 0 0)
(293.289 0 0)
(293.362 0 0)
(293.384 0 0)
(293.319 0 0)
(293.278 0 0)
(293.294 0 0)
(293.32 0 0)
(293.351 0 0)
(293.395 0 0)
(293.454 0 0)
(293.444 0 0)
(293.382 0 0)
(293.404 0 0)
(293.569 0 0)
(294.189 0 0)
(292.304 0 0)
(288.62 0 0)
(295.296 0 0)
(299.096 0 0)
(298.568 0 0)
(292.779 0 0)
(289.932 0 0)
(289.726 0 0)
(289.823 0 0)
(290.082 0 0)
(291.177 0 0)
(294.862 0 0)
(297.272 0 0)
(297.499 0 0)
(296.909 0 0)
(294.685 0 0)
(290.757 0 0)
(289.799 0 0)
(289.655 0 0)
(289.829 0 0)
(291.202 0 0)
(295.209 0 0)
(296.603 0 0)
(296.813 0 0)
(296.619 0 0)
(294.777 0 0)
(290.778 0 0)
(289.829 0 0)
(289.855 0 0)
(290.181 0 0)
(291.569 0 0)
(295.126 0 0)
(296.463 0 0)
(296.623 0 0)
(296.334 0 0)
(295.045 0 0)
(291.533 0 0)
(290.36 0 0)
(290.273 0 0)
(290.432 0 0)
(291.608 0 0)
(294.951 0 0)
(296.151 0 0)
(296.356 0 0)
(296.248 0 0)
(295.03 0 0)
(291.651 0 0)
(290.614 0 0)
(290.526 0 0)
(290.659 0 0)
(291.621 0 0)
(294.636 0 0)
(295.91 0 0)
(296.037 0 0)
(295.834 0 0)
(294.984 0 0)
(292.194 0 0)
(290.945 0 0)
(290.79 0 0)
(290.88 0 0)
(291.523 0 0)
(294.053 0 0)
(295.542 0 0)
(295.731 0 0)
(295.67 0 0)
(295.041 0 0)
(292.476 0 0)
(291.076 0 0)
(290.887 0 0)
(290.892 0 0)
(291.367 0 0)
(293.513 0 0)
(295.229 0 0)
(295.54 0 0)
(295.517 0 0)
(295.283 0 0)
(293.43 0 0)
(275.41 0 0)
(149.663 0 0)
(14.7205 0 0)
(1.02021 0 0)
(0.0690238 0 0)
(0.00468803 0 0)
(0.000319406 0 0)
(2.17783e-05 0 0)
(1.48256e-06 0 0)
(1.00614e-07 0 0)
(6.80261e-09 0 0)
(4.58122e-10 0 0)
(3.02704e-11 0 0)
(1.60271e-12 0 0)
(-1.48e-13 0 0)
(-1.81298e-13 0 0)
(-1.03319e-13 0 0)
(-8.06009e-15 0 0)
(-1.4795e-14 0 0)
(-8.92488e-14 0 0)
(-1.85296e-13 0 0)
(-1.782e-13 0 0)
(-1.23824e-13 0 0)
(-8.25562e-14 0 0)
(8.10181e-14 0 0)
(9.2091e-14 0 0)
(5.14356e-14 0 0)
(1.08566e-13 0 0)
(2.58562e-13 0 0)
(3.13799e-13 0 0)
(2.92758e-13 0 0)
(3.05308e-13 0 0)
(3.29739e-13 0 0)
(3.83518e-13 0 0)
(3.90176e-13 0 0)
(3.06137e-13 0 0)
(3.26566e-13 0 0)
(2.89698e-13 0 0)
(2.8538e-13 0 0)
(2.21268e-13 0 0)
(1.61072e-13 0 0)
(7.29734e-14 0 0)
(-2.97975e-14 0 0)
(-1.5488e-13 0 0)
(-3.64203e-14 0 0)
(1.05771e-13 0 0)
(2.65031e-13 0 0)
(3.71377e-13 0 0)
(3.78168e-13 0 0)
(5.56219e-13 0 0)
(7.58907e-13 0 0)
(7.41382e-13 0 0)
(6.79781e-13 0 0)
(6.66266e-13 0 0)
(6.94806e-13 0 0)
(6.87954e-13 0 0)
(5.79264e-13 0 0)
(3.77406e-13 0 0)
(2.7441e-13 0 0)
(2.66836e-13 0 0)
(2.24733e-13 0 0)
(2.2709e-13 0 0)
(2.87255e-13 0 0)
(3.42001e-13 0 0)
(3.35773e-13 0 0)
(2.88948e-13 0 0)
(2.09682e-13 0 0)
(1.97427e-13 0 0)
(3.79217e-14 0 0)
(2.61229e-14 0 0)
(1.05029e-13 0 0)
(1.0811e-13 0 0)
(1.5012e-13 0 0)
(5.63692e-14 0 0)
(-6.37287e-14 0 0)
(1.15864e-15 0 0)
(-2.09652e-13 0 0)
(-4.03034e-13 0 0)
(-5.06479e-13 0 0)
(-3.7763e-13 0 0)
(-2.86235e-13 0 0)
(-3.6419e-13 0 0)
(-3.91867e-13 0 0)
(-3.10548e-13 0 0)
(-2.34684e-13 0 0)
(-2.71399e-13 0 0)
(-2.19834e-13 0 0)
(-1.94074e-13 0 0)
(-1.73775e-13 0 0)
(-1.95541e-13 0 0)
(-1.76822e-13 0 0)
(-1.56232e-13 0 0)
(-1.10222e-15 0 0)
(1.48062e-13 0 0)
(2.92995e-13 0 0)
(3.43971e-13 0 0)
(3.21276e-13 0 0)
(3.42654e-13 0 0)
(2.12373e-13 0 0)
(9.90752e-14 0 0)
(6.34839e-14 0 0)
(2.07317e-14 0 0)
(4.89837e-14 0 0)
(-6.15187e-14 0 0)
(-1.34245e-13 0 0)
(-6.10941e-14 0 0)
(1.27291e-15 0 0)
(2.17708e-14 0 0)
(-2.53049e-14 0 0)
(-1.82518e-13 0 0)
(-2.23544e-13 0 0)
(-1.60782e-13 0 0)
(-3.07695e-13 0 0)
(-3.97622e-13 0 0)
(-2.79651e-13 0 0)
(-1.08568e-13 0 0)
(-7.16692e-14 0 0)
(-4.74138e-15 0 0)
(1.25587e-14 0 0)
(-5.10854e-14 0 0)
(-9.24599e-14 0 0)
(-7.33279e-15 0 0)
(1.32692e-13 0 0)
(2.56089e-13 0 0)
(3.44028e-13 0 0)
(2.44958e-13 0 0)
(1.54033e-13 0 0)
(-2.20505e-14 0 0)
(-8.72318e-15 0 0)
(5.22286e-14 0 0)
(1.57492e-14 0 0)
(1.84844e-14 0 0)
(3.64302e-14 0 0)
(8.18856e-14 0 0)
(-1.26157e-13 0 0)
(-1.02333e-13 0 0)
(1.7888e-14 0 0)
(-2.2381e-14 0 0)
(-1.29204e-14 0 0)
(3.37561e-14 0 0)
(1.73046e-14 0 0)
(3.6891e-14 0 0)
(6.8814e-14 0 0)
(3.32679e-14 0 0)
(9.32719e-14 0 0)
(3.0081e-14 0 0)
(-9.72444e-14 0 0)
(-1.13852e-13 0 0)
(-4.66323e-14 0 0)
(-1.14862e-13 0 0)
(-1.43206e-13 0 0)
(-3.08694e-13 0 0)
(-3.95437e-13 0 0)
(-2.98791e-13 0 0)
(-3.02736e-13 0 0)
(-2.32603e-13 0 0)
(-2.40294e-13 0 0)
(-2.73697e-13 0 0)
(-1.32599e-13 0 0)
(-9.56595e-14 0 0)
(-2.30818e-13 0 0)
(-3.85122e-13 0 0)
(-5.13283e-13 0 0)
(-5.2292e-13 0 0)
(-3.65326e-13 0 0)
(-2.1069e-13 0 0)
(-1.25506e-13 0 0)
(-5.70912e-14 0 0)
(-8.41839e-14 0 0)
(-2.05705e-13 0 0)
(-2.50927e-13 0 0)
(-2.23448e-13 0 0)
(-3.70317e-13 0 0)
(-5.27923e-13 0 0)
(-4.86966e-13 0 0)
(-3.5851e-13 0 0)
(-2.78745e-13 0 0)
(-2.22851e-13 0 0)
(-1.66222e-13 0 0)
(-2.01524e-13 0 0)
(-1.79371e-13 0 0)
(-1.63412e-13 0 0)
(-1.08338e-13 0 0)
(-7.60095e-14 0 0)
(-1.13781e-13 0 0)
(-2.08025e-13 0 0)
(-2.88249e-13 0 0)
(-3.50892e-13 0 0)
(-3.01711e-13 0 0)
(-1.26118e-13 0 0)
(3.74378e-14 0 0)
(1.4033e-13 0 0)
(1.24906e-13 0 0)
(6.57765e-14 0 0)
(1.9284e-15 0 0)
(-6.88305e-14 0 0)
(-1.39892e-13 0 0)
(-7.28987e-14 0 0)
(-1.22702e-13 0 0)
(-1.30741e-13 0 0)
(-2.48135e-14 0 0)
(-4.33279e-14 0 0)
(-1.14404e-13 0 0)
(-2.08022e-13 0 0)
(-2.77676e-13 0 0)
(-1.89035e-13 0 0)
(-1.57208e-13 0 0)
(-1.90442e-13 0 0)
(-1.73766e-13 0 0)
(-2.28101e-13 0 0)
(-2.5677e-13 0 0)
(-3.3687e-13 0 0)
(-3.98295e-13 0 0)
(-3.35477e-13 0 0)
(-2.28734e-13 0 0)
(-1.40552e-13 0 0)
(-1.93012e-13 0 0)
(-2.23214e-13 0 0)
(-1.65185e-13 0 0)
(-5.3284e-14 0 0)
(1.70791e-14 0 0)
(-4.76061e-14 0 0)
(-1.03948e-13 0 0)
(-1.71241e-13 0 0)
(-1.82186e-13 0 0)
(-2.0802e-13 0 0)
(-2.23538e-13 0 0)
(-3.1037e-13 0 0)
(-2.49355e-13 0 0)
(-2.3461e-13 0 0)
(-1.71172e-13 0 0)
(-1.20961e-13 0 0)
(-1.72245e-13 0 0)
(-1.39113e-13 0 0)
(-1.70516e-13 0 0)
(-2.29031e-13 0 0)
(-1.71784e-13 0 0)
(-1.82924e-13 0 0)
(-2.48054e-13 0 0)
(-3.59838e-13 0 0)
(-5.34007e-13 0 0)
(-5.8446e-13 0 0)
(-4.41179e-13 0 0)
(-3.54761e-13 0 0)
(-2.42558e-13 0 0)
(-1.59531e-13 0 0)
(-2.25018e-13 0 0)
(-3.03515e-13 0 0)
(-3.1444e-13 0 0)
(-2.22199e-13 0 0)
(-1.87668e-13 0 0)
(-2.6492e-13 0 0)
(-3.20299e-13 0 0)
(-2.3948e-13 0 0)
(-1.58286e-13 0 0)
(-1.32489e-13 0 0)
(-1.07369e-13 0 0)
(9.22756e-15 0 0)
(-5.26658e-14 0 0)
(-2.53894e-14 0 0)
(9.42884e-15 0 0)
(4.45347e-14 0 0)
(1.85785e-13 0 0)
(1.23643e-13 0 0)
(1.26135e-13 0 0)
(1.44667e-13 0 0)
(2.93262e-13 0 0)
(4.8181e-13 0 0)
(5.70392e-13 0 0)
(4.93226e-13 0 0)
(4.36793e-13 0 0)
(3.46103e-13 0 0)
(2.26341e-13 0 0)
(1.48769e-13 0 0)
(-2.42424e-14 0 0)
(-4.82087e-14 0 0)
(-6.7684e-14 0 0)
(-3.22554e-14 0 0)
(4.01878e-14 0 0)
(1.89387e-13 0 0)
(2.64516e-13 0 0)
(1.30798e-13 0 0)
(2.06864e-13 0 0)
(1.54367e-13 0 0)
(1.23102e-13 0 0)
(1.2508e-13 0 0)
(1.27857e-13 0 0)
(1.95067e-13 0 0)
(1.96869e-13 0 0)
(1.49511e-13 0 0)
(6.18966e-14 0 0)
(2.02038e-13 0 0)
(3.07698e-13 0 0)
(2.65892e-13 0 0)
(2.80594e-13 0 0)
(2.79717e-13 0 0)
(2.2882e-13 0 0)
(1.16866e-13 0 0)
(1.62103e-14 0 0)
(4.19812e-14 0 0)
(7.50767e-14 0 0)
(1.39505e-14 0 0)
(9.96802e-14 0 0)
(8.15848e-14 0 0)
(-1.79689e-14 0 0)
(-1.16364e-13 0 0)
(-1.8308e-13 0 0)
(-2.0693e-13 0 0)
(-1.25918e-13 0 0)
(-4.70901e-14 0 0)
(-7.15825e-14 0 0)
(-1.94325e-13 0 0)
(-3.18258e-13 0 0)
(-2.18424e-13 0 0)
(-1.32638e-13 0 0)
(-1.301e-13 0 0)
(3.43781e-14 0 0)
(2.89047e-13 0 0)
(3.03822e-13 0 0)
(1.60403e-13 0 0)
(3.08938e-13 0 0)
(4.82662e-13 0 0)
(5.27586e-13 0 0)
(4.52023e-13 0 0)
(4.15003e-13 0 0)
(3.34451e-13 0 0)
(2.3063e-13 0 0)
(2.57374e-13 0 0)
(3.2974e-13 0 0)
(4.21426e-13 0 0)
(4.96395e-13 0 0)
(6.75384e-13 0 0)
(8.6727e-13 0 0)
(9.89675e-13 0 0)
(1.04098e-12 0 0)
)
;

boundaryField
{
    sides
    {
        type            zeroGradient;
    }
    empty
    {
        type            empty;
    }
}


// ************************************************************************* //
