/*--------------------------------*- C++ -*----------------------------------*\
  =========                 |
  \\      /  F ield         | OpenFOAM: The Open Source CFD Toolbox
   \\    /   O peration     | Website:  https://openfoam.org
    \\  /    A nd           | Version:  9
     \\/     M anipulation  |
\*---------------------------------------------------------------------------*/
FoamFile
{
    format      ascii;
    class       volScalarField;
    location    "0.035";
    object      mag(U);
}
// * * * * * * * * * * * * * * * * * * * * * * * * * * * * * * * * * * * * * //

dimensions      [0 1 -1 0 0 0 0];

internalField   nonuniform List<scalar> 
100
(
46.1422
49.1642
53.3188
56.6681
59.6462
62.6477
65.6953
68.758
71.8137
74.8649
77.9245
80.9763
84.0156
87.0615
90.1007
93.1139
96.1243
99.1467
102.157
105.137
108.106
111.083
114.052
116.991
119.898
122.788
125.672
128.538
131.37
134.161
136.921
139.658
142.374
145.053
147.7
150.324
152.937
155.557
158.173
160.773
163.333
165.808
168.126
170.306
172.413
174.461
176.463
178.42
180.33
182.191
183.995
185.744
187.444
189.096
190.697
192.254
193.776
195.269
196.736
198.182
199.607
201.013
202.409
203.803
205.194
206.576
207.945
209.303
210.656
212.011
213.366
214.717
216.056
217.381
218.701
220.027
221.361
222.701
224.047
225.397
226.751
228.117
229.499
230.899
232.315
233.746
235.187
236.641
238.102
239.57
241.043
242.509
243.96
245.369
246.707
247.939
249.049
250.015
250.838
252.981
)
;

boundaryField
{
    sides
    {
        type            calculated;
        value           nonuniform List<scalar> 2(252.981 46.1422);
    }
    empty
    {
        type            empty;
    }
}


// ************************************************************************* //
