/*--------------------------------*- C++ -*----------------------------------*\
  =========                 |
  \\      /  F ield         | OpenFOAM: The Open Source CFD Toolbox
   \\    /   O peration     | Website:  https://openfoam.org
    \\  /    A nd           | Version:  9
     \\/     M anipulation  |
\*---------------------------------------------------------------------------*/
FoamFile
{
    format      ascii;
    class       volScalarField;
    location    "0.04";
    object      mag(U);
}
// * * * * * * * * * * * * * * * * * * * * * * * * * * * * * * * * * * * * * //

dimensions      [0 1 -1 0 0 0 0];

internalField   nonuniform List<scalar> 
10000
(
2.88304
2.92148
2.96943
3.00816
3.03842
3.06946
3.10194
3.1357
3.17005
3.2045
3.23869
3.27256
3.30612
3.33962
3.37316
3.40674
3.44036
3.47399
3.5076
3.54116
3.57464
3.60803
3.64137
3.67467
3.70794
3.74118
3.77436
3.80748
3.84052
3.8735
3.90643
3.93931
3.97212
4.00487
4.03756
4.07017
4.10271
4.13519
4.1676
4.19995
4.23222
4.26443
4.29657
4.32863
4.36063
4.39255
4.4244
4.45617
4.48788
4.51952
4.55108
4.58258
4.614
4.64536
4.67665
4.70787
4.73903
4.77012
4.80114
4.8321
4.86299
4.89382
4.92458
4.95529
4.98593
5.01651
5.04703
5.07749
5.1079
5.13825
5.16855
5.1988
5.22901
5.25918
5.2893
5.31937
5.3494
5.37938
5.40933
5.43925
5.46913
5.49899
5.52882
5.55862
5.58842
5.61818
5.64791
5.67762
5.70733
5.73702
5.76671
5.79638
5.82604
5.8557
5.88535
5.91498
5.94461
5.97425
6.0039
6.03356
6.06324
6.09293
6.12263
6.15235
6.18208
6.21185
6.24164
6.27141
6.30121
6.33105
6.36093
6.39085
6.42081
6.4508
6.48082
6.51089
6.541
6.57115
6.60135
6.63159
6.66189
6.69223
6.72262
6.75307
6.78357
6.81412
6.84473
6.8754
6.90612
6.9369
6.96774
6.99865
7.02961
7.06063
7.09172
7.12287
7.15408
7.18535
7.21669
7.24809
7.27955
7.31107
7.34266
7.37431
7.40602
7.43779
7.46962
7.50151
7.53346
7.56546
7.59752
7.62964
7.66181
7.69404
7.72632
7.75865
7.79103
7.82345
7.85592
7.88844
7.92101
7.95364
7.98631
8.01902
8.05176
8.08453
8.11733
8.15016
8.18302
8.21592
8.24885
8.28181
8.3148
8.3478
8.38084
8.41389
8.44697
8.48005
8.51314
8.54623
8.57936
8.61253
8.6457
8.67888
8.71207
8.74526
8.77844
8.8116
8.84477
8.87794
8.91113
8.94433
8.97755
9.01073
9.04389
9.07704
9.11018
9.14333
9.17646
9.20959
9.24271
9.27581
9.30889
9.34197
9.37503
9.40807
9.4411
9.47411
9.5071
9.54006
9.57301
9.60592
9.63882
9.6717
9.70456
9.73738
9.77018
9.80294
9.83568
9.86838
9.90106
9.9337
9.96631
9.99889
10.0314
10.064
10.0964
10.1289
10.1613
10.1936
10.2259
10.2582
10.2905
10.3227
10.3548
10.387
10.419
10.4511
10.4831
10.515
10.5469
10.5788
10.6106
10.6423
10.6741
10.7057
10.7373
10.7689
10.8004
10.8319
10.8634
10.8948
10.9262
10.9575
10.9888
11.02
11.0512
11.0823
11.1134
11.1444
11.1754
11.2064
11.2373
11.2682
11.299
11.3298
11.3606
11.3913
11.422
11.4527
11.4834
11.514
11.5445
11.575
11.6054
11.6358
11.6662
11.6966
11.727
11.7574
11.7877
11.818
11.8483
11.8785
11.9088
11.939
11.9692
11.9994
12.0296
12.0598
12.0899
12.1201
12.1503
12.1804
12.2106
12.2408
12.271
12.3011
12.3313
12.3615
12.3917
12.422
12.4522
12.4825
12.5127
12.543
12.5733
12.6036
12.634
12.6644
12.6948
12.7253
12.7558
12.7863
12.8169
12.8475
12.8781
12.9088
12.9395
12.9703
13.0012
13.032
13.063
13.094
13.125
13.1561
13.1873
13.2185
13.2497
13.2811
13.3125
13.344
13.3755
13.4071
13.4388
13.4705
13.5023
13.5341
13.566
13.598
13.63
13.6621
13.6943
13.7266
13.7589
13.7913
13.8238
13.8564
13.889
13.9218
13.9546
13.9873
14.0202
14.053
14.086
14.119
14.1521
14.1852
14.2184
14.2516
14.2848
14.3181
14.3514
14.3848
14.4183
14.4518
14.4853
14.5187
14.5522
14.5856
14.6191
14.6526
14.6862
14.7198
14.7533
14.7868
14.8204
14.8539
14.8874
14.921
14.9545
14.988
15.0214
15.0549
15.0883
15.1216
15.155
15.1883
15.2215
15.2547
15.2879
15.321
15.3541
15.3872
15.4201
15.4531
15.4859
15.5188
15.5515
15.5842
15.6169
15.6495
15.682
15.7145
15.7469
15.7792
15.8115
15.8437
15.8759
15.9079
15.9399
15.9718
16.0037
16.0355
16.0673
16.0989
16.1306
16.1621
16.1936
16.2251
16.2564
16.2878
16.319
16.3502
16.3814
16.4125
16.4436
16.4746
16.5055
16.5364
16.5673
16.5981
16.6289
16.6597
16.6904
16.7211
16.7517
16.7823
16.8129
16.8435
16.874
16.9046
16.9351
16.9656
16.9961
17.0266
17.057
17.0875
17.1179
17.1483
17.1788
17.2092
17.2397
17.2701
17.3006
17.331
17.3614
17.3919
17.4224
17.4529
17.4834
17.514
17.5445
17.5751
17.6056
17.6362
17.6669
17.6975
17.7282
17.759
17.7898
17.8206
17.8514
17.8822
17.913
17.9439
17.9749
18.0058
18.0368
18.0678
18.0988
18.1298
18.1609
18.1921
18.2232
18.2544
18.2856
18.3169
18.3482
18.3795
18.4108
18.4422
18.4736
18.505
18.5364
18.5678
18.5993
18.6308
18.6623
18.6939
18.7255
18.757
18.7886
18.8202
18.8519
18.8835
18.9152
18.9469
18.9786
19.0103
19.0421
19.0738
19.1056
19.1374
19.1692
19.201
19.2328
19.2646
19.2964
19.3282
19.3601
19.392
19.4239
19.4558
19.4877
19.5196
19.5515
19.5835
19.6154
19.6474
19.6793
19.7113
19.7433
19.7753
19.8074
19.8394
19.8715
19.9035
19.9355
19.9676
19.9996
20.0317
20.0639
20.096
20.1282
20.1604
20.1926
20.2248
20.257
20.2892
20.3215
20.3537
20.386
20.4183
20.4505
20.4829
20.5152
20.5476
20.58
20.6124
20.6448
20.6772
20.7097
20.7421
20.7746
20.8071
20.8396
20.8721
20.9046
20.9372
20.9698
21.0024
21.035
21.0675
21.1001
21.1327
21.1652
21.1978
21.2304
21.263
21.2956
21.3283
21.3609
21.3935
21.426
21.4586
21.4912
21.5237
21.5563
21.5888
21.6213
21.6538
21.6862
21.7186
21.751
21.7834
21.8158
21.8481
21.8804
21.9126
21.9448
21.977
22.0092
22.0413
22.0734
22.1054
22.1374
22.1693
22.2012
22.233
22.2648
22.2965
22.3282
22.3598
22.3914
22.423
22.4545
22.486
22.5174
22.5488
22.5801
22.6114
22.6426
22.6738
22.7049
22.736
22.7671
22.7981
22.829
22.8599
22.8908
22.9216
22.9524
22.9832
23.0139
23.0446
23.0752
23.1059
23.1365
23.1671
23.1977
23.2282
23.2587
23.2892
23.3197
23.3501
23.3806
23.411
23.4415
23.4719
23.5024
23.5328
23.5632
23.5937
23.6241
23.6546
23.6851
23.7156
23.7461
23.7766
23.8071
23.8377
23.8682
23.8988
23.9295
23.9601
23.9908
24.0215
24.0522
24.083
24.1138
24.1447
24.1756
24.2066
24.2375
24.2686
24.2997
24.3308
24.362
24.3932
24.4245
24.4558
24.4871
24.5185
24.55
24.5815
24.613
24.6446
24.6763
24.7079
24.7396
24.7714
24.8032
24.8351
24.867
24.8989
24.9309
24.9629
24.995
25.0271
25.0593
25.0914
25.1236
25.1559
25.1881
25.2204
25.2526
25.285
25.3173
25.3497
25.382
25.4144
25.4468
25.4793
25.5117
25.5441
25.5766
25.6091
25.6416
25.674
25.7065
25.7391
25.7716
25.8042
25.8367
25.8692
25.9017
25.9342
25.9667
25.9992
26.0317
26.0642
26.0967
26.1292
26.1617
26.1942
26.2266
26.259
26.2915
26.3239
26.3563
26.3887
26.4211
26.4535
26.4858
26.5182
26.5505
26.5828
26.6151
26.6474
26.6796
26.7119
26.7441
26.7764
26.8086
26.8408
26.873
26.9052
26.9373
26.9694
27.0015
27.0336
27.0656
27.0977
27.1297
27.1617
27.1937
27.2257
27.2577
27.2896
27.3216
27.3535
27.3854
27.4173
27.4492
27.4811
27.5129
27.5448
27.5766
27.6084
27.6401
27.6719
27.7037
27.7354
27.7671
27.7988
27.8305
27.8622
27.8939
27.9256
27.9572
27.9889
28.0206
28.0522
28.0838
28.1154
28.147
28.1785
28.2101
28.2417
28.2733
28.3049
28.3365
28.368
28.3996
28.4311
28.4626
28.4941
28.5256
28.5572
28.5887
28.6202
28.6517
28.6832
28.7147
28.7461
28.7776
28.8091
28.8405
28.872
28.9034
28.9349
28.9663
28.9977
29.0291
29.0605
29.0919
29.1233
29.1547
29.186
29.2174
29.2487
29.2801
29.3114
29.3427
29.374
29.4053
29.4366
29.4679
29.4992
29.5305
29.5617
29.593
29.6242
29.6555
29.6867
29.7179
29.7492
29.7804
29.8116
29.8428
29.874
29.9052
29.9364
29.9676
29.9988
30.0299
30.0611
30.0923
30.1234
30.1546
30.1858
30.2169
30.2481
30.2793
30.3104
30.3416
30.3727
30.4039
30.435
30.4662
30.4973
30.5285
30.5597
30.5908
30.622
30.6531
30.6843
30.7154
30.7466
30.7778
30.809
30.8402
30.8714
30.9026
30.9338
30.965
30.9962
31.0274
31.0586
31.0898
31.121
31.1523
31.1835
31.2148
31.2461
31.2774
31.3086
31.3399
31.3712
31.4025
31.4338
31.4651
31.4965
31.5278
31.5592
31.5906
31.622
31.6534
31.6849
31.7163
31.7478
31.7793
31.8109
31.8424
31.874
31.9056
31.9372
31.9688
32.0005
32.0322
32.064
32.0957
32.1274
32.1592
32.191
32.2228
32.2547
32.2866
32.3186
32.3506
32.3826
32.4146
32.4466
32.4787
32.5109
32.543
32.5752
32.6074
32.6397
32.672
32.7043
32.7367
32.769
32.8015
32.8339
32.8664
32.8989
32.9314
32.9639
32.9965
33.0291
33.0617
33.0944
33.127
33.1597
33.1923
33.225
33.2577
33.2904
33.3231
33.3558
33.3885
33.4213
33.454
33.4867
33.5195
33.5522
33.5849
33.6176
33.6502
33.6829
33.7155
33.7482
33.7808
33.8134
33.846
33.8785
33.9111
33.9436
33.9761
34.0085
34.0409
34.0733
34.1057
34.138
34.1702
34.2025
34.2346
34.2668
34.2989
34.331
34.363
34.395
34.4269
34.4588
34.4907
34.5225
34.5543
34.586
34.6177
34.6493
34.6809
34.7124
34.7439
34.7753
34.8067
34.8381
34.8694
34.9006
34.9318
34.963
34.9941
35.0252
35.0562
35.0872
35.1182
35.1491
35.18
35.2109
35.2417
35.2724
35.3032
35.3339
35.3646
35.3952
35.4259
35.4565
35.487
35.5176
35.5481
35.5786
35.6091
35.6395
35.67
35.7004
35.7309
35.7613
35.7917
35.8221
35.8525
35.8829
35.9133
35.9437
35.9741
36.0045
36.0349
36.0654
36.0958
36.1262
36.1567
36.1872
36.2177
36.2482
36.2787
36.3093
36.3399
36.3705
36.4012
36.4318
36.4626
36.4933
36.5241
36.555
36.5858
36.6167
36.6476
36.6785
36.7095
36.7405
36.7716
36.8027
36.8338
36.865
36.8963
36.9275
36.9589
36.9902
37.0216
37.0531
37.0846
37.1161
37.1476
37.1792
37.2109
37.2425
37.2742
37.306
37.3378
37.3695
37.4014
37.4332
37.4651
37.497
37.529
37.5609
37.5929
37.625
37.657
37.6891
37.7211
37.7533
37.7854
37.8175
37.8497
37.8819
37.9141
37.9463
37.9785
38.0108
38.0431
38.0754
38.1078
38.1402
38.1726
38.205
38.2374
38.2698
38.3022
38.3347
38.3671
38.3996
38.4321
38.4647
38.4972
38.5298
38.5624
38.595
38.6276
38.6603
38.6929
38.7256
38.7583
38.791
38.8237
38.8565
38.8892
38.922
38.9548
38.9876
39.0204
39.0532
39.086
39.1189
39.1517
39.1846
39.2175
39.2503
39.2832
39.316
39.3489
39.3817
39.4146
39.4474
39.4802
39.5131
39.5459
39.5787
39.6114
39.6442
39.6769
39.7096
39.7423
39.775
39.8076
39.8402
39.8728
39.9053
39.9378
39.9703
40.0027
40.0351
40.0675
40.0998
40.1321
40.1643
40.1965
40.2286
40.2607
40.2928
40.3248
40.3568
40.3887
40.4205
40.4524
40.4841
40.5159
40.5475
40.5792
40.6108
40.6423
40.6739
40.7053
40.7368
40.7682
40.7995
40.8308
40.862
40.8932
40.9244
40.9556
40.9867
41.0178
41.0489
41.0799
41.1109
41.1419
41.1729
41.2038
41.2347
41.2656
41.2965
41.3274
41.3583
41.3891
41.42
41.4508
41.4816
41.5125
41.5433
41.5741
41.6049
41.6358
41.6666
41.6975
41.7283
41.7592
41.7901
41.821
41.8519
41.8828
41.9138
41.9447
41.9757
42.0067
42.0378
42.0689
42.1
42.1311
42.1622
42.1934
42.2246
42.2558
42.2871
42.3183
42.3496
42.381
42.4123
42.4437
42.4751
42.5066
42.538
42.5695
42.601
42.6325
42.664
42.6956
42.7271
42.7587
42.7903
42.822
42.8536
42.8853
42.9169
42.9486
42.9803
43.012
43.0437
43.0754
43.1071
43.1388
43.1705
43.2022
43.2339
43.2656
43.2973
43.329
43.3607
43.3924
43.4241
43.4558
43.4875
43.5192
43.5509
43.5826
43.6143
43.6459
43.6776
43.7093
43.7409
43.7726
43.8043
43.8359
43.8676
43.8993
43.931
43.9626
43.9943
44.026
44.0577
44.0894
44.1211
44.1528
44.1845
44.2163
44.248
44.2798
44.3115
44.3433
44.3752
44.407
44.4389
44.4708
44.5027
44.5346
44.5666
44.5985
44.6306
44.6626
44.6947
44.7268
44.7589
44.7911
44.8233
44.8555
44.8878
44.9201
44.9524
44.9848
45.0172
45.0496
45.0821
45.1146
45.1471
45.1796
45.2122
45.2447
45.2773
45.31
45.3426
45.3753
45.4079
45.4406
45.4733
45.5059
45.5386
45.5713
45.604
45.6367
45.6694
45.702
45.7347
45.7673
45.7999
45.8325
45.8651
45.8977
45.9302
45.9627
45.9952
46.0276
46.06
46.0924
46.1248
46.1571
46.1894
46.2216
46.2539
46.2861
46.3182
46.3503
46.3824
46.4145
46.4465
46.4785
46.5105
46.5424
46.5743
46.6062
46.6381
46.6699
46.7017
46.7335
46.7653
46.797
46.8288
46.8605
46.8922
46.9239
46.9556
46.9872
47.0189
47.0506
47.0823
47.1139
47.1456
47.1773
47.2089
47.2406
47.2723
47.304
47.3357
47.3674
47.3991
47.4309
47.4626
47.4944
47.5261
47.5579
47.5897
47.6215
47.6533
47.6851
47.7169
47.7487
47.7805
47.8123
47.8442
47.876
47.9079
47.9397
47.9715
48.0034
48.0352
48.067
48.0989
48.1307
48.1625
48.1943
48.2261
48.2578
48.2896
48.3213
48.3531
48.3848
48.4165
48.4482
48.4798
48.5115
48.5431
48.5748
48.6064
48.638
48.6695
48.7011
48.7327
48.7642
48.7958
48.8273
48.8588
48.8903
48.9218
48.9533
48.9848
49.0163
49.0478
49.0792
49.1107
49.1422
49.1737
49.2052
49.2367
49.2682
49.2997
49.3312
49.3627
49.3943
49.4258
49.4574
49.489
49.5206
49.5522
49.5838
49.6154
49.6471
49.6788
49.7105
49.7422
49.774
49.8057
49.8375
49.8693
49.9012
49.9331
49.9649
49.9969
50.0288
50.0608
50.0927
50.1247
50.1568
50.1888
50.2209
50.253
50.2851
50.3173
50.3494
50.3816
50.4138
50.4461
50.4783
50.5106
50.5428
50.5751
50.6074
50.6397
50.672
50.7044
50.7367
50.7691
50.8014
50.8338
50.8662
50.8986
50.9309
50.9633
50.9957
51.0281
51.0605
51.0929
51.1253
51.1577
51.1902
51.2226
51.255
51.2874
51.3198
51.3522
51.3846
51.417
51.4494
51.4818
51.5141
51.5465
51.5789
51.6112
51.6436
51.676
51.7083
51.7406
51.773
51.8053
51.8376
51.8699
51.9022
51.9345
51.9667
51.999
52.0313
52.0635
52.0957
52.1279
52.1601
52.1923
52.2245
52.2566
52.2888
52.3209
52.353
52.3851
52.4172
52.4492
52.4812
52.5133
52.5453
52.5772
52.6092
52.6411
52.6731
52.7049
52.7368
52.7687
52.8005
52.8323
52.8641
52.8959
52.9276
52.9593
52.991
53.0227
53.0544
53.086
53.1176
53.1492
53.1807
53.2123
53.2438
53.2753
53.3067
53.3382
53.3696
53.401
53.4324
53.4637
53.4951
53.5264
53.5577
53.589
53.6202
53.6515
53.6827
53.714
53.7452
53.7764
53.8076
53.8387
53.8699
53.9011
53.9322
53.9634
53.9945
54.0257
54.0568
54.0879
54.1191
54.1502
54.1813
54.2125
54.2436
54.2748
54.3059
54.3371
54.3683
54.3995
54.4307
54.4619
54.4931
54.5243
54.5556
54.5869
54.6182
54.6495
54.6808
54.7121
54.7434
54.7748
54.8062
54.8376
54.869
54.9005
54.9319
54.9634
54.9949
55.0263
55.0579
55.0894
55.1209
55.1525
55.184
55.2156
55.2472
55.2788
55.3104
55.342
55.3736
55.4053
55.4369
55.4685
55.5002
55.5319
55.5635
55.5952
55.6269
55.6586
55.6903
55.722
55.7537
55.7854
55.8172
55.8489
55.8807
55.9124
55.9442
55.976
56.0078
56.0396
56.0714
56.1033
56.1351
56.167
56.1989
56.2308
56.2627
56.2946
56.3265
56.3585
56.3905
56.4225
56.4545
56.4865
56.5185
56.5506
56.5826
56.6147
56.6468
56.6789
56.711
56.7432
56.7753
56.8074
56.8396
56.8717
56.9039
56.936
56.9682
57.0003
57.0324
57.0646
57.0967
57.1288
57.1608
57.1929
57.225
57.257
57.289
57.321
57.353
57.3849
57.4168
57.4487
57.4806
57.5124
57.5442
57.576
57.6077
57.6394
57.6711
57.7028
57.7344
57.766
57.7976
57.8291
57.8607
57.8922
57.9237
57.9551
57.9865
58.018
58.0494
58.0808
58.1121
58.1435
58.1748
58.2062
58.2375
58.2688
58.3001
58.3315
58.3628
58.3941
58.4254
58.4567
58.4881
58.5194
58.5507
58.5821
58.6135
58.6448
58.6762
58.7076
58.7391
58.7705
58.8019
58.8334
58.8648
58.8963
58.9278
58.9593
58.9908
59.0224
59.0539
59.0854
59.117
59.1485
59.18
59.2116
59.2431
59.2746
59.3061
59.3376
59.3691
59.4006
59.432
59.4634
59.4948
59.5262
59.5576
59.5889
59.6202
59.6515
59.6828
59.714
59.7452
59.7764
59.8075
59.8386
59.8697
59.9007
59.9317
59.9627
59.9936
60.0246
60.0555
60.0863
60.1171
60.1479
60.1787
60.2095
60.2402
60.2709
60.3016
60.3323
60.3629
60.3936
60.4242
60.4548
60.4855
60.5161
60.5467
60.5773
60.6078
60.6384
60.669
60.6996
60.7302
60.7609
60.7915
60.8221
60.8526
60.8832
60.9139
60.9445
60.9751
61.0058
61.0365
61.0672
61.0979
61.1286
61.1593
61.1901
61.2209
61.2517
61.2825
61.3134
61.3442
61.3751
61.4061
61.437
61.468
61.499
61.53
61.561
61.5921
61.6232
61.6543
61.6855
61.7167
61.7479
61.7791
61.8103
61.8416
61.8729
61.9042
61.9356
61.9669
61.9983
62.0297
62.0611
62.0925
62.1239
62.1554
62.1869
62.2184
62.2499
62.2815
62.313
62.3445
62.376
62.4075
62.4391
62.4706
62.5021
62.5337
62.5652
62.5967
62.6282
62.6597
62.6913
62.7228
62.7543
62.7858
62.8172
62.8487
62.8802
62.9116
62.943
62.9744
63.0058
63.0372
63.0685
63.0999
63.1312
63.1625
63.1938
63.2251
63.2564
63.2876
63.3188
63.35
63.3812
63.4124
63.4436
63.4747
63.5058
63.5369
63.568
63.5991
63.6301
63.6612
63.6922
63.7232
63.7542
63.7851
63.8161
63.847
63.8779
63.9088
63.9397
63.9706
64.0014
64.0322
64.0631
64.0939
64.1246
64.1554
64.1862
64.217
64.2477
64.2784
64.3092
64.3399
64.3706
64.4012
64.4319
64.4625
64.4931
64.5238
64.5544
64.585
64.6156
64.6462
64.6768
64.7074
64.7379
64.7685
64.7991
64.8297
64.8602
64.8908
64.9213
64.9518
64.9824
65.0129
65.0435
65.074
65.1046
65.1351
65.1657
65.1963
65.2268
65.2574
65.288
65.3185
65.3491
65.3797
65.4103
65.4409
65.4715
65.5021
65.5328
65.5634
65.594
65.6246
65.6553
65.6859
65.7165
65.7471
65.7777
65.8084
65.839
65.8697
65.9003
65.931
65.9616
65.9923
66.0229
66.0536
66.0843
66.1149
66.1456
66.1763
66.207
66.2376
66.2683
66.2989
66.3296
66.3602
66.3909
66.4216
66.4522
66.4829
66.5136
66.5443
66.575
66.6057
66.6364
66.6671
66.6978
66.7285
66.7592
66.7899
66.8206
66.8514
66.8821
66.9128
66.9436
66.9743
67.0051
67.0359
67.0666
67.0974
67.1283
67.1591
67.1899
67.2207
67.2516
67.2824
67.3133
67.3442
67.3752
67.4061
67.437
67.468
67.499
67.53
67.561
67.592
67.6231
67.6541
67.6852
67.7163
67.7474
67.7786
67.8097
67.8409
67.8721
67.9034
67.9347
67.9659
67.9971
68.0283
68.0596
68.0908
68.122
68.1532
68.1843
68.2155
68.2466
68.2777
68.3088
68.3398
68.3709
68.4019
68.4328
68.4638
68.4947
68.5255
68.5563
68.5871
68.6179
68.6486
68.6793
68.7099
68.7406
68.7712
68.8017
68.8323
68.8628
68.8933
68.9238
68.9542
68.9846
69.015
69.0453
69.0757
69.106
69.1363
69.1665
69.1968
69.227
69.2572
69.2874
69.3175
69.3477
69.3778
69.4079
69.438
69.4681
69.4982
69.5283
69.5583
69.5884
69.6185
69.6485
69.6786
69.7087
69.7387
69.7688
69.7989
69.829
69.859
69.8891
69.9191
69.9492
69.9793
70.0094
70.0395
70.0696
70.0998
70.1299
70.16
70.1901
70.2202
70.2503
70.2805
70.3106
70.3408
70.371
70.4012
70.4314
70.4616
70.4918
70.522
70.5522
70.5824
70.6127
70.6429
70.6731
70.7034
70.7336
70.7638
70.7941
70.8243
70.8545
70.8847
70.915
70.9452
70.9754
71.0056
71.0358
71.066
71.0961
71.1263
71.1565
71.1866
71.2167
71.2469
71.277
71.3071
71.3371
71.3672
71.3972
71.4273
71.4573
71.4873
71.5173
71.5472
71.5772
71.6071
71.637
71.6669
71.6968
71.7266
71.7564
71.7862
71.816
71.8458
71.8755
71.9053
71.935
71.9647
71.9944
72.0241
72.0538
72.0835
72.1131
72.1428
72.1725
72.2022
72.2319
72.2615
72.2912
72.3209
72.3506
72.3802
72.4099
72.4395
72.4692
72.4989
72.5285
72.5582
72.5879
72.6176
72.6472
72.6769
72.7066
72.7362
72.7659
72.7955
72.8251
72.8547
72.8843
72.9138
72.9434
72.9729
73.0024
73.0319
73.0613
73.0907
73.1201
73.1494
73.1788
73.208
73.2373
73.2665
73.2957
73.3248
73.3539
73.3829
73.4119
73.4409
73.4698
73.4987
73.5276
73.5564
73.5852
73.614
73.6427
73.6714
73.7001
73.7287
73.7574
73.7859
73.8145
73.8431
73.8717
73.9002
73.9287
73.9572
73.9857
74.0141
74.0426
74.0711
74.0995
74.1279
74.1564
74.1848
74.2132
74.2417
74.2701
74.2985
74.3269
74.3553
74.3837
74.4121
74.4405
74.4689
74.4973
74.5257
74.554
74.5824
74.6108
74.6391
74.6675
74.6958
74.7241
74.7524
74.7807
74.809
74.8372
74.8654
74.8937
74.9219
74.9501
74.9783
75.0064
75.0346
75.0628
75.091
75.1191
75.1473
75.1755
75.2036
75.2318
75.26
75.2881
75.3163
75.3445
75.3727
75.4009
75.4291
75.4573
75.4856
75.5139
75.5421
75.5704
75.5987
75.627
75.6553
75.6837
75.712
75.7404
75.7687
75.7971
75.8254
75.8538
75.8821
75.9104
75.9387
75.967
75.9953
76.0236
76.0518
76.0801
76.1083
76.1364
76.1646
76.1927
76.2207
76.2488
76.2768
76.3047
76.3327
76.3606
76.3885
76.4163
76.4441
76.4719
76.4997
76.5275
76.5552
76.5829
76.6106
76.6383
76.6659
76.6936
76.7212
76.7488
76.7764
76.804
76.8316
76.8591
76.8867
76.9143
76.9418
76.9693
76.9968
77.0243
77.0517
77.0792
77.1066
77.1339
77.1613
77.1886
77.2158
77.243
77.2702
77.2973
77.3244
77.3514
77.3783
77.4052
77.432
77.4587
77.4854
77.512
77.5385
77.5649
77.5913
77.6176
77.6439
77.67
77.6961
77.7222
77.7482
77.7741
77.8
77.8258
77.8516
77.8773
77.903
77.9286
77.9542
77.9797
78.0052
78.0307
78.0561
78.0814
78.1067
78.1319
78.157
78.1821
78.2071
78.232
78.2568
78.2815
78.3061
78.3306
78.3549
78.3792
78.4032
78.4272
78.4509
78.4746
78.498
78.5213
78.5444
78.5673
78.5901
78.6127
78.6351
78.6573
78.6794
78.7013
78.723
78.7446
78.766
78.7872
78.8084
78.8294
78.8503
78.871
78.8917
78.9122
78.9327
78.9531
78.9734
78.9937
79.0139
79.034
79.0541
79.0741
79.0941
79.114
79.1339
79.1537
79.1735
79.1933
79.213
79.2326
79.2522
79.2717
79.2912
79.3106
79.33
79.3493
79.3685
79.3877
79.4067
79.4257
79.4446
79.4635
79.4822
79.5009
79.5195
79.538
79.5564
79.5748
79.5931
79.6113
79.6295
79.6475
79.6656
79.6835
79.7014
79.7193
79.7371
79.7549
79.7726
79.7904
79.8081
79.8257
79.8434
79.861
79.8787
79.8963
79.914
79.9316
79.9492
79.9669
79.9846
80.0022
80.0199
80.0376
80.0554
80.0731
80.0909
80.1087
80.1266
80.1444
80.1623
80.1802
80.1981
80.2161
80.234
80.252
80.27
80.288
80.306
80.324
80.342
80.36
80.378
80.396
80.414
80.432
80.4499
80.4679
80.4858
80.5037
80.5216
80.5394
80.5573
80.5751
80.5929
80.6106
80.6284
80.6461
80.6638
80.6814
80.699
80.7167
80.7342
80.7518
80.7693
80.7868
80.8042
80.8217
80.8391
80.8565
80.8738
80.8912
80.9085
80.9257
80.943
80.9602
80.9774
80.9946
81.0117
81.0288
81.0459
81.063
81.0801
81.0971
81.1141
81.1311
81.148
81.165
81.1819
81.1988
81.2156
81.2325
81.2493
81.2661
81.2829
81.2997
81.3164
81.3331
81.3498
81.3665
81.3832
81.3998
81.4164
81.433
81.4496
81.4662
81.4827
81.4993
81.5158
81.5323
81.5487
81.5652
81.5816
81.598
81.6144
81.6308
81.6472
81.6635
81.6799
81.6962
81.7125
81.7288
81.745
81.7613
81.7775
81.7937
81.8099
81.8261
81.8423
81.8584
81.8746
81.8907
81.9068
81.9229
81.939
81.9551
81.9711
81.9872
82.0032
82.0192
82.0352
82.0512
82.0672
82.0832
82.0991
82.1151
82.131
82.147
82.1629
82.1788
82.1947
82.2106
82.2265
82.2424
82.2582
82.2741
82.2899
82.3058
82.3216
82.3374
82.3533
82.3691
82.3849
82.4007
82.4164
82.4322
82.448
82.4637
82.4795
82.4952
82.511
82.5267
82.5424
82.5581
82.5739
82.5896
82.6052
82.6209
82.6366
82.6523
82.6679
82.6836
82.6992
82.7149
82.7305
82.7461
82.7617
82.7774
82.793
82.8086
82.8242
82.8398
82.8553
82.8709
82.8865
82.9021
82.9176
82.9332
82.9487
82.9643
82.9798
82.9953
83.0109
83.0264
83.0419
83.0574
83.0729
83.0884
83.1039
83.1194
83.1349
83.1503
83.1658
83.1813
83.1967
83.2122
83.2276
83.2431
83.2585
83.2739
83.2894
83.3048
83.3202
83.3356
83.351
83.3664
83.3818
83.3971
83.4125
83.4279
83.4432
83.4586
83.474
83.4893
83.5046
83.52
83.5353
83.5507
83.566
83.5813
83.5966
83.6119
83.6273
83.6426
83.6579
83.6732
83.6885
83.7038
83.7191
83.7344
83.7497
83.765
83.7803
83.7955
83.8108
83.8261
83.8414
83.8567
83.872
83.8873
83.9025
83.9178
83.9331
83.9484
83.9637
83.979
83.9942
84.0095
84.0248
84.0401
84.0554
84.0706
84.0859
84.1012
84.1165
84.1318
84.1471
84.1624
84.1776
84.1929
84.2082
84.2235
84.2388
84.2541
84.2694
84.2847
84.3
84.3153
84.3306
84.346
84.3613
84.3766
84.3919
84.4072
84.4226
84.4379
84.4532
84.4686
84.4839
84.4993
84.5146
84.53
84.5453
84.5607
84.5761
84.5914
84.6068
84.6222
84.6376
84.653
84.6684
84.6838
84.6992
84.7146
84.73
84.7454
84.7608
84.7762
84.7916
84.807
84.8225
84.8379
84.8533
84.8687
84.8842
84.8996
84.9151
84.9305
84.9459
84.9614
84.9768
84.9923
85.0077
85.0232
85.0386
85.0541
85.0695
85.085
85.1005
85.1159
85.1314
85.1468
85.1623
85.1778
85.1932
85.2087
85.2241
85.2396
85.2551
85.2705
85.286
85.3015
85.3169
85.3324
85.3478
85.3633
85.3788
85.3942
85.4097
85.4251
85.4406
85.4561
85.4715
85.487
85.5024
85.5179
85.5333
85.5488
85.5642
85.5797
85.5951
85.6105
85.626
85.6414
85.6568
85.6723
85.6877
85.7031
85.7185
85.734
85.7494
85.7648
85.7802
85.7956
85.811
85.8265
85.8419
85.8573
85.8727
85.8881
85.9035
85.9189
85.9343
85.9497
85.9651
85.9805
85.9959
86.0113
86.0267
86.0421
86.0575
86.0728
86.0882
86.1036
86.119
86.1344
86.1498
86.1652
86.1806
86.1959
86.2113
86.2267
86.2421
86.2575
86.2729
86.2882
86.3036
86.319
86.3344
86.3498
86.3652
86.3806
86.3959
86.4113
86.4267
86.4421
86.4575
86.4729
86.4883
86.5037
86.5191
86.5345
86.5499
86.5653
86.5807
86.5961
86.6115
86.6269
86.6423
86.6577
86.6732
86.6886
86.704
86.7194
86.7348
86.7503
86.7657
86.7811
86.7965
86.812
86.8274
86.8428
86.8583
86.8737
86.8892
86.9046
86.9201
86.9355
86.951
86.9664
86.9819
86.9973
87.0128
87.0282
87.0437
87.0592
87.0746
87.0901
87.1056
87.121
87.1365
87.152
87.1675
87.1829
87.1984
87.2139
87.2293
87.2448
87.2603
87.2758
87.2912
87.3067
87.3222
87.3377
87.3532
87.3686
87.3841
87.3996
87.4151
87.4305
87.446
87.4615
87.477
87.4924
87.5079
87.5234
87.5388
87.5543
87.5698
87.5852
87.6007
87.6161
87.6316
87.6471
87.6625
87.678
87.6934
87.7088
87.7243
87.7397
87.7552
87.7706
87.786
87.8014
87.8169
87.8323
87.8477
87.8631
87.8785
87.894
87.9094
87.9248
87.9402
87.9556
87.971
87.9864
88.0018
88.0172
88.0326
88.048
88.0634
88.0788
88.0942
88.1095
88.1249
88.1403
88.1557
88.1711
88.1865
88.2018
88.2172
88.2326
88.248
88.2633
88.2787
88.2941
88.3094
88.3248
88.3402
88.3556
88.3709
88.3863
88.4017
88.417
88.4324
88.4478
88.4632
88.4785
88.4939
88.5093
88.5247
88.5401
88.5554
88.5708
88.5862
88.6016
88.617
88.6324
88.6478
88.6632
88.6786
88.694
88.7094
88.7248
88.7402
88.7556
88.771
88.7864
88.8018
88.8172
88.8326
88.848
88.8634
88.8788
88.8942
88.9096
88.925
88.9405
88.9559
88.9713
88.9867
89.0022
89.0176
89.0331
89.0485
89.064
89.0794
89.0949
89.1104
89.1258
89.1413
89.1568
89.1722
89.1877
89.2032
89.2186
89.2341
89.2496
89.2651
89.2806
89.2961
89.3116
89.3271
89.3426
89.3581
89.3736
89.3891
89.4046
89.4201
89.4356
89.4511
89.4666
89.4822
89.4977
89.5132
89.5287
89.5442
89.5597
89.5752
89.5907
89.6062
89.6217
89.6373
89.6528
89.6683
89.6838
89.6993
89.7148
89.7304
89.7459
89.7614
89.7769
89.7924
89.8079
89.8234
89.8389
89.8544
89.8699
89.8854
89.9009
89.9164
89.9319
89.9474
89.9629
89.9784
89.9939
90.0094
90.0249
90.0404
90.0559
90.0714
90.0869
90.1023
90.1178
90.1333
90.1488
90.1642
90.1797
90.1952
90.2106
90.2261
90.2416
90.257
90.2725
90.288
90.3034
90.3189
90.3343
90.3498
90.3653
90.3807
90.3962
90.4116
90.427
90.4425
90.4579
90.4733
90.4887
90.5042
90.5196
90.535
90.5504
90.5658
90.5812
90.5967
90.6121
90.6275
90.6429
90.6583
90.6737
90.6891
90.7045
90.7199
90.7354
90.7508
90.7662
90.7816
90.7971
90.8125
90.8279
90.8433
90.8588
90.8742
90.8896
90.905
90.9205
90.9359
90.9513
90.9667
90.9822
90.9976
91.013
91.0285
91.0439
91.0593
91.0748
91.0902
91.1057
91.1211
91.1366
91.152
91.1675
91.1829
91.1984
91.2138
91.2293
91.2447
91.2602
91.2756
91.2911
91.3066
91.322
91.3375
91.353
91.3685
91.384
91.3994
91.4149
91.4304
91.4459
91.4614
91.4769
91.4924
91.5079
91.5234
91.5388
91.5543
91.5698
91.5854
91.6009
91.6164
91.6319
91.6474
91.6629
91.6784
91.6939
91.7094
91.7249
91.7404
91.7559
91.7714
91.7869
91.8025
91.818
91.8335
91.849
91.8645
91.8801
91.8956
91.9111
91.9266
91.9421
91.9576
91.9731
91.9886
92.0041
92.0196
92.0351
92.0507
92.0662
92.0817
92.0972
92.1127
92.1282
92.1437
92.1592
92.1747
92.1902
92.2058
92.2213
92.2368
92.2523
92.2678
92.2833
92.2987
92.3142
92.3297
92.3452
92.3607
92.3762
92.3917
92.4072
92.4227
92.4382
92.4537
92.4691
92.4846
92.5001
92.5156
92.5311
92.5466
92.562
92.5775
92.593
92.6085
92.6239
92.6394
92.6549
92.6704
92.6859
92.7013
92.7168
92.7323
92.7478
92.7632
92.7787
92.7942
92.8097
92.8251
92.8406
92.8561
92.8716
92.8871
92.9025
92.918
92.9335
92.949
92.9644
92.9799
92.9954
93.0109
93.0264
93.0418
93.0573
93.0728
93.0883
93.1038
93.1193
93.1348
93.1503
93.1658
93.1812
93.1967
93.2122
93.2277
93.2432
93.2587
93.2742
93.2897
93.3052
93.3207
93.3362
93.3517
93.3672
93.3827
93.3983
93.4138
93.4293
93.4448
93.4603
93.4758
93.4914
93.5069
93.5224
93.538
93.5535
93.569
93.5845
93.6001
93.6156
93.6312
93.6467
93.6622
93.6778
93.6933
93.7089
93.7244
93.74
93.7555
93.7711
93.7867
93.8022
93.8178
93.8334
93.8489
93.8645
93.8801
93.8956
93.9112
93.9268
93.9423
93.9579
93.9734
93.989
94.0046
94.0201
94.0357
94.0513
94.0668
94.0824
94.098
94.1135
94.1291
94.1447
94.1602
94.1758
94.1914
94.2069
94.2225
94.238
94.2536
94.2692
94.2847
94.3003
94.3158
94.3314
94.3469
94.3625
94.378
94.3936
94.4091
94.4247
94.4402
94.4558
94.4713
94.4868
94.5024
94.5179
94.5335
94.549
94.5645
94.5801
94.5956
94.6112
94.6267
94.6423
94.6578
94.6734
94.6889
94.7044
94.72
94.7355
94.751
94.7666
94.7821
94.7976
94.8131
94.8286
94.8441
94.8596
94.8751
94.8907
94.9062
94.9217
94.9372
94.9527
94.9682
94.9837
94.9993
95.0148
95.0303
95.0458
95.0613
95.0768
95.0923
95.1079
95.1234
95.1389
95.1544
95.1699
95.1854
95.2009
95.2164
95.2319
95.2474
95.263
95.2785
95.2939
95.3094
95.3249
95.3404
95.3559
95.3714
95.3869
95.4024
95.4179
95.4334
95.4489
95.4644
95.4799
95.4954
95.5109
95.5264
95.5419
95.5575
95.573
95.5885
95.6041
95.6196
95.6351
95.6506
95.6662
95.6817
95.6972
95.7127
95.7282
95.7437
95.7592
95.7747
95.7902
95.8057
95.8212
95.8367
95.8522
95.8678
95.8833
95.8988
95.9144
95.9299
95.9455
95.961
95.9766
95.9921
96.0077
96.0232
96.0387
96.0543
96.0698
96.0854
96.1009
96.1164
96.132
96.1475
96.1631
96.1786
96.1941
96.2097
96.2252
96.2407
96.2563
96.2718
96.2873
96.3029
96.3184
96.3339
96.3495
96.365
96.3805
96.3961
96.4116
96.4271
96.4427
96.4582
96.4737
96.4892
96.5048
96.5203
96.5358
96.5514
96.5669
96.5825
96.598
96.6136
96.6291
96.6447
96.6602
96.6758
96.6913
96.7068
96.7224
96.7379
96.7534
96.7689
96.7845
96.8
96.8155
96.831
96.8466
96.8621
96.8776
96.8932
96.9087
96.9243
96.9398
96.9554
96.9709
96.9865
97.002
97.0175
97.033
97.0486
97.0641
97.0797
97.0952
97.1108
97.1263
97.1419
97.1574
97.173
97.1886
97.2041
97.2196
97.2352
97.2507
97.2662
97.2817
97.2973
97.3128
97.3283
97.3439
97.3594
97.375
97.3906
97.4062
97.4219
97.4375
97.4531
97.4687
97.4843
97.4999
97.5155
97.531
97.5466
97.5622
97.5778
97.5933
97.6089
97.6245
97.6401
97.6556
97.6712
97.6868
97.7024
97.718
97.7336
97.7493
97.7649
97.7805
97.7962
97.8119
97.8275
97.8432
97.8588
97.8744
97.89
97.9056
97.9212
97.9368
97.9524
97.968
97.9835
97.9991
98.0147
98.0303
98.0459
98.0616
98.0772
98.0929
98.1086
98.1242
98.1399
98.1556
98.1712
98.1869
98.2026
98.2183
98.234
98.2497
98.2654
98.2811
98.2968
98.3124
98.3281
98.3437
98.3593
98.3749
98.3905
98.406
98.4216
98.4371
98.4527
98.4683
98.484
98.4997
98.5154
98.5312
98.547
98.5628
98.5786
98.5944
98.6101
98.6257
98.6412
98.6566
98.672
98.6873
98.7027
98.7182
98.7336
98.7492
98.7649
98.7807
98.7966
98.8125
98.8284
98.8444
98.8602
98.8758
98.8912
98.9065
98.9216
98.9365
98.9514
98.9663
98.9812
98.9962
99.0113
99.0266