/*--------------------------------*- C++ -*----------------------------------*\
  =========                 |
  \\      /  F ield         | OpenFOAM: The Open Source CFD Toolbox
   \\    /   O peration     | Website:  https://openfoam.org
    \\  /    A nd           | Version:  9
     \\/     M anipulation  |
\*---------------------------------------------------------------------------*/
FoamFile
{
    format      ascii;
    class       surfaceScalarField;
    location    "0.04";
    object      phi;
}
// * * * * * * * * * * * * * * * * * * * * * * * * * * * * * * * * * * * * * //

dimensions      [1 0 -1 0 0 0 0];

internalField   nonuniform List<scalar> 
9999
(
2.41569
2.44376
2.47183
2.49989
2.52794
2.55598
2.584
2.61201
2.64
2.66797
2.69592
2.72385
2.75176
2.77964
2.80749
2.83531
2.8631
2.89085
2.91857
2.94626
2.97391
3.00152
3.02908
3.05661
3.08409
3.11152
3.13891
3.16626
3.19355
3.22079
3.24798
3.27512
3.3022
3.32924
3.35622
3.38314
3.41001
3.43682
3.46357
3.49026
3.51689
3.54346
3.56997
3.59642
3.62282
3.64916
3.67544
3.70166
3.72782
3.75393
3.77997
3.80595
3.83187
3.85773
3.88353
3.90927
3.93495
3.96057
3.98615
4.01167
4.03714
4.06256
4.08793
4.11326
4.13854
4.16378
4.18898
4.21413
4.23925
4.26432
4.28935
4.31435
4.33931
4.36423
4.38912
4.41397
4.4388
4.46359
4.48835
4.51309
4.53779
4.56248
4.58714
4.61178
4.6364
4.661
4.68559
4.71016
4.73472
4.75926
4.7838
4.80833
4.83285
4.85737
4.88189
4.90641
4.93093
4.95545
4.97998
5.00451
5.02906
5.05361
5.07818
5.10276
5.12735
5.15197
5.1766
5.20125
5.22593
5.25063
5.27536
5.30011
5.32489
5.34971
5.37455
5.39943
5.42434
5.44929
5.47428
5.4993
5.52437
5.54948
5.57462
5.59982
5.62505
5.65033
5.67566
5.70103
5.72646
5.75193
5.77744
5.80301
5.82863
5.8543
5.88002
5.90579
5.93161
5.95749
5.98341
6.00939
6.03542
6.0615
6.08763
6.11381
6.14004
6.16632
6.19266
6.21904
6.24546
6.27194
6.29846
6.32503
6.35165
6.3783
6.40501
6.43175
6.45853
6.48536
6.51222
6.53912
6.56605
6.59303
6.62003
6.64707
6.67414
6.70124
6.72836
6.75552
6.7827
6.8099
6.83713
6.86438
6.89166
6.91895
6.94626
6.97358
7.00093
7.02828
7.05565
7.08303
7.11043
7.13783
7.16524
7.19266
7.22008
7.24751
7.27495
7.30238
7.32982
7.35726
7.3847
7.41213
7.43957
7.467
7.49442
7.52185
7.54926
7.57667
7.60407
7.63146
7.65884
7.68621
7.71357
7.74092
7.76825
7.79557
7.82287
7.85016
7.87743
7.90468
7.93191
7.95912
7.98632
8.01349
8.04064
8.06777
8.09488
8.12196
8.14901
8.17604
8.20305
8.23002
8.25697
8.28389
8.31078
8.33764
8.36447
8.39127
8.41804
8.44477
8.47148
8.49815
8.52478
8.55138
8.57794
8.60447
8.63097
8.65742
8.68384
8.71023
8.73657
8.76288
8.78915
8.81539
8.84158
8.86773
8.89385
8.91993
8.94597
8.97197
8.99794
9.02386
9.04975
9.0756
9.10141
9.12718
9.15292
9.17862
9.20428
9.2299
9.25549
9.28105
9.30657
9.33206
9.35751
9.38293
9.40832
9.43368
9.459
9.4843
9.50957
9.53481
9.56003
9.58522
9.61038
9.63552
9.66064
9.68573
9.71081
9.73587
9.7609
9.78593
9.81093
9.83593
9.86091
9.88587
9.91083
9.93578
9.96072
9.98566
10.0106
10.0355
10.0604
10.0854
10.1103
10.1352
10.1602
10.1851
10.2101
10.235
10.26
10.285
10.31
10.335
10.36
10.385
10.4101
10.4352
10.4603
10.4855
10.5106
10.5358
10.561
10.5863
10.6116
10.6369
10.6622
10.6876
10.7131
10.7385
10.764
10.7896
10.8152
10.8408
10.8665
10.8922
10.918
10.9438
10.9697
10.9957
11.0216
11.0477
11.0738
11.0999
11.1261
11.1523
11.1787
11.205
11.2314
11.2579
11.2844
11.311
11.3376
11.3643
11.3911
11.4179
11.4447
11.4716
11.4986
11.5256
11.5527
11.5798
11.6069
11.6341
11.6614
11.6887
11.716
11.7434
11.7708
11.7982
11.8257
11.8532
11.8807
11.9083
11.9359
11.9635
11.9911
12.0187
12.0464
12.0741
12.1018
12.1294
12.1571
12.1848
12.2125
12.2402
12.2679
12.2956
12.3232
12.3509
12.3785
12.4061
12.4337
12.4613
12.4889
12.5164
12.5439
12.5713
12.5988
12.6262
12.6535
12.6808
12.7081
12.7354
12.7626
12.7897
12.8168
12.8439
12.8709
12.8979
12.9248
12.9516
12.9784
13.0052
13.0319
13.0586
13.0852
13.1117
13.1382
13.1646
13.191
13.2173
13.2436
13.2698
13.296
13.3221
13.3482
13.3742
13.4002
13.4261
13.452
13.4778
13.5036
13.5293
13.555
13.5806
13.6062
13.6318
13.6573
13.6828
13.7083
13.7337
13.7591
13.7844
13.8098
13.8351
13.8603
13.8856
13.9108
13.936
13.9612
13.9864
14.0115
14.0367
14.0618
14.0869
14.1121
14.1372
14.1623
14.1874
14.2125
14.2376
14.2627
14.2878
14.3129
14.338
14.3631
14.3883
14.4134
14.4386
14.4637
14.4889
14.5141
14.5393
14.5646
14.5898
14.6151
14.6404
14.6657
14.6911
14.7164
14.7418
14.7672
14.7927
14.8181
14.8436
14.8691
14.8947
14.9202
14.9458
14.9714
14.9971
15.0227
15.0484
15.0741
15.0999
15.1256
15.1514
15.1772
15.2031
15.2289
15.2548
15.2807
15.3066
15.3326
15.3586
15.3846
15.4106
15.4366
15.4626
15.4887
15.5148
15.5409
15.567
15.5932
15.6193
15.6455
15.6717
15.6979
15.7241
15.7503
15.7765
15.8028
15.8291
15.8554
15.8816
15.908
15.9343
15.9606
15.9869
16.0133
16.0397
16.066
16.0924
16.1188
16.1452
16.1716
16.1981
16.2245
16.251
16.2774
16.3039
16.3304
16.3569
16.3834
16.4099
16.4364
16.463
16.4895
16.5161
16.5427
16.5692
16.5958
16.6225
16.6491
16.6757
16.7024
16.729
16.7557
16.7824
16.8091
16.8358
16.8625
16.8892
16.916
16.9427
16.9695
16.9963
17.0231
17.0499
17.0767
17.1035
17.1303
17.1572
17.184
17.2109
17.2378
17.2647
17.2916
17.3184
17.3453
17.3722
17.3992
17.4261
17.453
17.4799
17.5068
17.5337
17.5606
17.5875
17.6144
17.6413
17.6682
17.6951
17.7219
17.7488
17.7756
17.8025
17.8293
17.856
17.8828
17.9096
17.9363
17.963
17.9897
18.0163
18.0429
18.0695
18.0961
18.1226
18.1491
18.1756
18.202
18.2284
18.2548
18.2811
18.3074
18.3337
18.3599
18.3861
18.4122
18.4383
18.4644
18.4904
18.5164
18.5423
18.5682
18.5941
18.6199
18.6457
18.6714
18.6971
18.7228
18.7484
18.774
18.7995
18.8251
18.8505
18.876
18.9014
18.9268
18.9521
18.9775
19.0028
19.028
19.0533
19.0785
19.1037
19.1289
19.154
19.1791
19.2043
19.2294
19.2545
19.2795
19.3046
19.3297
19.3547
19.3798
19.4048
19.4299
19.4549
19.48
19.505
19.5301
19.5552
19.5803
19.6053
19.6305
19.6556
19.6807
19.7059
19.7311
19.7562
19.7815
19.8067
19.832
19.8573
19.8826
19.908
19.9334
19.9588
19.9843
20.0097
20.0353
20.0608
20.0864
20.1121
20.1377
20.1635
20.1892
20.215
20.2408
20.2667
20.2926
20.3185
20.3445
20.3705
20.3966
20.4227
20.4489
20.475
20.5012
20.5275
20.5538
20.5801
20.6064
20.6328
20.6592
20.6857
20.7121
20.7386
20.7651
20.7917
20.8183
20.8449
20.8715
20.8981
20.9248
20.9515
20.9781
21.0049
21.0316
21.0583
21.0851
21.1118
21.1386
21.1654
21.1922
21.219
21.2458
21.2726
21.2995
21.3263
21.3531
21.3799
21.4068
21.4336
21.4604
21.4873
21.5141
21.5409
21.5678
21.5946
21.6214
21.6482
21.675
21.7018
21.7286
21.7554
21.7822
21.809
21.8358
21.8625
21.8893
21.916
21.9427
21.9694
21.9962
22.0229
22.0495
22.0762
22.1029
22.1295
22.1562
22.1828
22.2094
22.236
22.2626
22.2891
22.3157
22.3422
22.3688
22.3953
22.4218
22.4482
22.4747
22.5012
22.5276
22.554
22.5804
22.6068
22.6332
22.6596
22.6859
22.7122
22.7386
22.7649
22.7912
22.8174
22.8437
22.8699
22.8962
22.9224
22.9486
22.9748
23.001
23.0272
23.0533
23.0795
23.1056
23.1317
23.1578
23.1839
23.21
23.2361
23.2621
23.2882
23.3142
23.3403
23.3663
23.3923
23.4183
23.4443
23.4703
23.4963
23.5223
23.5482
23.5742
23.6001
23.626
23.652
23.6779
23.7038
23.7297
23.7556
23.7814
23.8073
23.8332
23.859
23.8848
23.9107
23.9365
23.9623
23.9881
24.0139
24.0397
24.0654
24.0912
24.117
24.1427
24.1684
24.1942
24.2199
24.2456
24.2713
24.297
24.3227
24.3483
24.374
24.3996
24.4253
24.4509
24.4766
24.5022
24.5278
24.5534
24.579
24.6047
24.6303
24.6559
24.6814
24.707
24.7326
24.7582
24.7838
24.8094
24.8349
24.8605
24.8861
24.9116
24.9372
24.9628
24.9883
25.0139
25.0395
25.0651
25.0906
25.1162
25.1418
25.1674
25.1929
25.2185
25.2441
25.2697
25.2953
25.3209
25.3465
25.3721
25.3977
25.4233
25.449
25.4746
25.5002
25.5259
25.5515
25.5772
25.6028
25.6285
25.6542
25.6799
25.7056
25.7313
25.757
25.7827
25.8084
25.8342
25.8599
25.8857
25.9115
25.9373
25.9631
25.9889
26.0148
26.0406
26.0665
26.0924
26.1182
26.1442
26.1701
26.196
26.222
26.248
26.274
26.3
26.3261
26.3521
26.3782
26.4043
26.4305
26.4566
26.4828
26.509
26.5352
26.5615
26.5877
26.614
26.6404
26.6667
26.6931
26.7195
26.7459
26.7724
26.7989
26.8254
26.8519
26.8784
26.905
26.9316
26.9583
26.9849
27.0116
27.0383
27.065
27.0918
27.1185
27.1453
27.1721
27.199
27.2258
27.2527
27.2796
27.3065
27.3334
27.3603
27.3872
27.4142
27.4411
27.4681
27.495
27.522
27.549
27.5759
27.6029
27.6299
27.6568
27.6838
27.7107
27.7377
27.7646
27.7915
27.8184
27.8453
27.8722
27.8991
27.9259
27.9527
27.9795
28.0063
28.0331
28.0598
28.0865
28.1132
28.1398
28.1665
28.1931
28.2196
28.2461
28.2726
28.2991
28.3255
28.3519
28.3783
28.4046
28.4309
28.4572
28.4834
28.5095
28.5357
28.5618
28.5879
28.6139
28.6399
28.6658
28.6917
28.7176
28.7434
28.7692
28.795
28.8207
28.8464
28.872
28.8976
28.9232
28.9488
28.9743
28.9998
29.0252
29.0506
29.076
29.1014
29.1267
29.152
29.1773
29.2025
29.2277
29.2529
29.2781
29.3033
29.3284
29.3535
29.3786
29.4037
29.4288
29.4538
29.4789
29.5039
29.5289
29.554
29.579
29.604
29.629
29.654
29.679
29.704
29.729
29.754
29.7791
29.8041
29.8291
29.8542
29.8793
29.9043
29.9294
29.9545
29.9797
30.0048
30.03
30.0552
30.0804
30.1056
30.1309
30.1562
30.1815
30.2068
30.2322
30.2576
30.283
30.3084
30.3339
30.3594
30.385
30.4106
30.4362
30.4618
30.4875
30.5132
30.5389
30.5647
30.5905
30.6163
30.6422
30.6681
30.694
30.7199
30.7459
30.7719
30.7979
30.824
30.8501
30.8762
30.9023
30.9285
30.9547
30.9809
31.0071
31.0333
31.0596
31.0859
31.1122
31.1386
31.1649
31.1913
31.2177
31.2441
31.2706
31.297
31.3235
31.35
31.3765
31.403
31.4295
31.4561
31.4827
31.5093
31.5359
31.5625
31.5891
31.6158
31.6425
31.6692
31.6959
31.7226
31.7493
31.7761
31.8029
31.8297
31.8565
31.8833
31.9101
31.937
31.9638
31.9907
32.0176
32.0445
32.0714
32.0984
32.1253
32.1523
32.1792
32.2062
32.2332
32.2602
32.2872
32.3141
32.3412
32.3682
32.3952
32.4222
32.4492
32.4762
32.5032
32.5302
32.5572
32.5842
32.6111
32.6381
32.665
32.692
32.7189
32.7458
32.7727
32.7995
32.8264
32.8532
32.88
32.9068
32.9335
32.9603
32.987
33.0136
33.0403
33.0669
33.0934
33.12
33.1465
33.1729
33.1994
33.2258
33.2521
33.2785
33.3048
33.331
33.3572
33.3834
33.4095
33.4357
33.4617
33.4878
33.5137
33.5397
33.5656
33.5915
33.6174
33.6432
33.669
33.6947
33.7205
33.7461
33.7718
33.7974
33.8231
33.8486
33.8742
33.8997
33.9252
33.9507
33.9762
34.0017
34.0271
34.0525
34.0779
34.1033
34.1287
34.154
34.1794
34.2047
34.2301
34.2554
34.2807
34.3061
34.3314
34.3567
34.3821
34.4074
34.4327
34.4581
34.4834
34.5088
34.5342
34.5595
34.5849
34.6103
34.6358
34.6612
34.6867
34.7121
34.7376
34.7631
34.7886
34.8142
34.8397
34.8653
34.8909
34.9165
34.9421
34.9678
34.9934
35.0191
35.0448
35.0705
35.0962
35.122
35.1478
35.1735
35.1993
35.2251
35.251
35.2768
35.3027
35.3285
35.3544
35.3803
35.4062
35.4321
35.458
35.4839
35.5098
35.5357
35.5617
35.5876
35.6135
35.6395
35.6654
35.6914
35.7173
35.7433
35.7692
35.7952
35.8212
35.8471
35.8731
35.8991
35.925
35.951
35.977
36.003
36.0289
36.0549
36.0809
36.1069
36.1329
36.1589
36.1849
36.2109
36.2369
36.2629
36.289
36.315
36.341
36.3671
36.3932
36.4192
36.4453
36.4714
36.4976
36.5237
36.5498
36.576
36.6022
36.6284
36.6546
36.6808
36.7071
36.7334
36.7597
36.786
36.8123
36.8387
36.8651
36.8915
36.918
36.9444
36.9709
36.9974
37.024
37.0505
37.0771
37.1037
37.1304
37.157
37.1837
37.2104
37.2371
37.2638
37.2906
37.3173
37.3441
37.3709
37.3977
37.4245
37.4513
37.4781
37.505
37.5318
37.5586
37.5854
37.6123
37.6391
37.6659
37.6927
37.7194
37.7462
37.773
37.7997
37.8264
37.8531
37.8798
37.9065
37.9331
37.9597
37.9863
38.0128
38.0394
38.0659
38.0924
38.1188
38.1452
38.1717
38.198
38.2244
38.2507
38.277
38.3033
38.3295
38.3557
38.3819
38.4081
38.4342
38.4604
38.4865
38.5126
38.5386
38.5647
38.5907
38.6167
38.6427
38.6687
38.6947
38.7207
38.7466
38.7726
38.7985
38.8245
38.8504
38.8763
38.9023
38.9282
38.9541
38.9801
39.006
39.0319
39.0578
39.0838
39.1097
39.1357
39.1616
39.1875
39.2135
39.2394
39.2654
39.2914
39.3173
39.3433
39.3692
39.3952
39.4212
39.4471
39.4731
39.4991
39.525
39.551
39.5769
39.6029
39.6288
39.6548
39.6807
39.7066
39.7326
39.7585
39.7844
39.8103
39.8361
39.862
39.8879
39.9137
39.9396
39.9654
39.9912
40.017
40.0429
40.0687
40.0944
40.1202
40.146
40.1718
40.1975
40.2233
40.2491
40.2748
40.3006
40.3263
40.3521
40.3778
40.4036
40.4293
40.4551
40.4808
40.5066
40.5323
40.5581
40.5839
40.6097
40.6355
40.6613
40.6871
40.7129
40.7388
40.7646
40.7905
40.8164
40.8423
40.8682
40.8941
40.9201
40.946
40.972
40.998
41.0241
41.0501
41.0762
41.1022
41.1284
41.1545
41.1806
41.2068
41.233
41.2592
41.2854
41.3117
41.3379
41.3642
41.3905
41.4168
41.4432
41.4695
41.4959
41.5223
41.5487
41.5751
41.6016
41.628
41.6545
41.6809
41.7074
41.7339
41.7604
41.7869
41.8135
41.84
41.8665
41.8931
41.9196
41.9462
41.9727
41.9993
42.0258
42.0524
42.079
42.1055
42.1321
42.1587
42.1852
42.2118
42.2384
42.2649
42.2915
42.318
42.3446
42.3711
42.3977
42.4242
42.4508
42.4773
42.5038
42.5303
42.5568
42.5833
42.6098
42.6363
42.6628
42.6893
42.7157
42.7422
42.7686
42.7951
42.8215
42.8479
42.8743
42.9007
42.927
42.9534
42.9798
43.0061
43.0324
43.0587
43.085
43.1113
43.1375
43.1638
43.19
43.2162
43.2424
43.2686
43.2947
43.3209
43.347
43.3731
43.3992
43.4252
43.4513
43.4773
43.5033
43.5293
43.5553
43.5812
43.6072
43.6331
43.659
43.6848
43.7107
43.7365
43.7624
43.7881
43.8139
43.8397
43.8654
43.8911
43.9168
43.9425
43.9682
43.9939
44.0195
44.0451
44.0707
44.0963
44.1219
44.1474
44.173
44.1985
44.224
44.2496
44.2751
44.3006
44.326
44.3515
44.377
44.4025
44.4279
44.4534
44.4788
44.5043
44.5297
44.5552
44.5806
44.6061
44.6316
44.657
44.6825
44.7079
44.7334
44.7589
44.7844
44.8099
44.8354
44.8609
44.8865
44.912
44.9376
44.9631
44.9887
45.0143
45.0399
45.0655
45.0912
45.1168
45.1425
45.1682
45.1939
45.2196
45.2453
45.271
45.2968
45.3225
45.3483
45.3741
45.3999
45.4257
45.4515
45.4774
45.5032
45.5291
45.5549
45.5808
45.6067
45.6326
45.6585
45.6844
45.7103
45.7363
45.7622
45.7881
45.8141
45.8401
45.8661
45.892
45.918
45.944
45.97
45.9961
46.0221
46.0481
46.0742
46.1003
46.1263
46.1524
46.1785
46.2046
46.2307
46.2569
46.283
46.3092
46.3353
46.3615
46.3877
46.4139
46.4401
46.4664
46.4926
46.5189
46.5451
46.5714
46.5977
46.624
46.6503
46.6766
46.7029
46.7292
46.7556
46.7819
46.8082
46.8345
46.8609
46.8872
46.9135
46.9399
46.9662
46.9925
47.0188
47.0451
47.0713
47.0976
47.1238
47.1501
47.1763
47.2025
47.2286
47.2548
47.2809
47.3071
47.3332
47.3592
47.3853
47.4113
47.4373
47.4633
47.4893
47.5152
47.5411
47.567
47.5929
47.6188
47.6446
47.6704
47.6962
47.722
47.7478
47.7735
47.7993
47.825
47.8507
47.8764
47.9021
47.9278
47.9534
47.9791
48.0047
48.0304
48.056
48.0817
48.1073
48.1329
48.1586
48.1842
48.2099
48.2355
48.2611
48.2868
48.3125
48.3381
48.3638
48.3894
48.4151
48.4408
48.4665
48.4922
48.5179
48.5436
48.5693
48.595
48.6207
48.6464
48.6721
48.6978
48.7235
48.7492
48.7749
48.8006
48.8262
48.8519
48.8776
48.9032
48.9288
48.9544
48.98
49.0056
49.0312
49.0568
49.0823
49.1078
49.1333
49.1588
49.1843
49.2097
49.2351
49.2605
49.2859
49.3113
49.3367
49.362
49.3873
49.4126
49.4379
49.4632
49.4884
49.5136
49.5389
49.5641
49.5893
49.6144
49.6396
49.6648
49.69
49.7151
49.7403
49.7654
49.7906
49.8157
49.8409
49.866
49.8912
49.9163
49.9415
49.9667
49.9918
50.017
50.0422
50.0674
50.0926
50.1178
50.143
50.1682
50.1935
50.2187
50.244
50.2693
50.2946
50.3199
50.3452
50.3706
50.3959
50.4213
50.4467
50.4721
50.4976
50.523
50.5485
50.574
50.5995
50.625
50.6506
50.6761
50.7017
50.7273
50.7529
50.7786
50.8042
50.8299
50.8556
50.8813
50.907
50.9328
50.9585
50.9843
51.0101
51.0359
51.0617
51.0875
51.1133
51.1392
51.165
51.1909
51.2168
51.2426
51.2685
51.2944
51.3203
51.3461
51.372
51.3979
51.4238
51.4497
51.4756
51.5014
51.5273
51.5532
51.579
51.6049
51.6307
51.6566
51.6824
51.7082
51.734
51.7598
51.7856
51.8114
51.8372
51.8629
51.8886
51.9144
51.9401
51.9658
51.9915
52.0171
52.0428
52.0684
52.0941
52.1197
52.1453
52.1708
52.1964
52.222
52.2475
52.273
52.2985
52.324
52.3495
52.375
52.4004
52.4258
52.4513
52.4767
52.5021
52.5274
52.5528
52.5781
52.6035
52.6288
52.6541
52.6794
52.7047
52.7299
52.7552
52.7804
52.8057
52.8309
52.8561
52.8813
52.9065
52.9317
52.9568
52.982
53.0071
53.0323
53.0574
53.0825
53.1076
53.1327
53.1578
53.1829
53.208
53.2331
53.2582
53.2832
53.3083
53.3334
53.3584
53.3835
53.4085
53.4336
53.4587
53.4837
53.5088
53.5338
53.5589
53.584
53.609
53.6341
53.6592
53.6843
53.7094
53.7345
53.7595
53.7846
53.8098
53.8349
53.86
53.8851
53.9102
53.9354
53.9605
53.9856
54.0108
54.0359
54.0611
54.0863
54.1114
54.1366
54.1618
54.187
54.2121
54.2373
54.2625
54.2877
54.3129
54.3381
54.3633
54.3886
54.4138
54.439
54.4642
54.4895
54.5147
54.5399
54.5652
54.5904
54.6157
54.6409
54.6662
54.6914
54.7167
54.742
54.7673
54.7925
54.8178
54.8431
54.8684
54.8937
54.919
54.9443
54.9696
54.995
55.0203
55.0456
55.071
55.0963
55.1217
55.1471
55.1724
55.1978
55.2232
55.2486
55.274
55.2994
55.3249
55.3503
55.3757
55.4012
55.4266
55.4521
55.4776
55.5031
55.5286
55.5541
55.5796
55.6052
55.6307
55.6563
55.6819
55.7074
55.733
55.7586
55.7842
55.8098
55.8355
55.8611
55.8867
55.9124
55.938
55.9636
55.9892
56.0149
56.0405
56.0661
56.0917
56.1173
56.1428
56.1684
56.1939
56.2194
56.2449
56.2704
56.2958
56.3212
56.3466
56.372
56.3974
56.4227
56.448
56.4733
56.4985
56.5238
56.549
56.5742
56.5993
56.6245
56.6496
56.6747
56.6998
56.7249
56.7499
56.7749
56.8
56.8249
56.8499
56.8749
56.8998
56.9248
56.9497
56.9745
56.9994
57.0243
57.0491
57.074
57.0988
57.1236
57.1484
57.1732
57.198
57.2228
57.2476
57.2724
57.2972
57.3219
57.3467
57.3715
57.3962
57.421
57.4458
57.4705
57.4953
57.5201
57.5449
57.5697
57.5944
57.6192
57.644
57.6688
57.6936
57.7185
57.7433
57.7681
57.7929
57.8178
57.8426
57.8675
57.8923
57.9172
57.942
57.9669
57.9918
58.0167
58.0416
58.0665
58.0914
58.1163
58.1412
58.1661
58.191
58.2159
58.2408
58.2657
58.2907
58.3156
58.3405
58.3654
58.3904
58.4153
58.4402
58.4651
58.49
58.515
58.5399
58.5648
58.5897
58.6146
58.6395
58.6644
58.6892
58.7141
58.739
58.7639
58.7887
58.8135
58.8384
58.8632
58.888
58.9128
58.9376
58.9624
58.9872
59.012
59.0367
59.0615
59.0863
59.111
59.1357
59.1605
59.1852
59.2099
59.2346
59.2593
59.284
59.3087
59.3334
59.3581
59.3828
59.4075
59.4322
59.4569
59.4816
59.5063
59.531
59.5557
59.5804
59.6051
59.6298
59.6545
59.6792
59.7039
59.7286
59.7533
59.7779
59.8026
59.8273
59.852
59.8767
59.9013
59.926
59.9506
59.9753
59.9999
60.0245
60.0491
60.0737
60.0982
60.1228
60.1473
60.1718
60.1963
60.2207
60.2451
60.2695
60.2939
60.3183
60.3426
60.3669
60.3912
60.4154
60.4397
60.4639
60.488
60.5122
60.5363
60.5604
60.5845
60.6086
60.6326
60.6566
60.6806
60.7046
60.7286
60.7525
60.7765
60.8004
60.8243
60.8482
60.8721
60.896
60.9199
60.9437
60.9676
60.9914
61.0153
61.0391
61.063
61.0868
61.1106
61.1345
61.1583
61.1821
61.2059
61.2297
61.2536
61.2774
61.3012
61.325
61.3488
61.3726
61.3963
61.4201
61.4439
61.4677
61.4914
61.5152
61.5389
61.5627
61.5864
61.6101
61.6338
61.6575
61.6812
61.7049
61.7286
61.7523
61.776
61.7997
61.8234
61.8471
61.8708
61.8944
61.9181
61.9418
61.9655
61.9892
62.0129
62.0366
62.0603
62.0841
62.1078
62.1316
62.1553
62.1791
62.2029
62.2267
62.2505
62.2743
62.2981
62.3219
62.3458
62.3696
62.3935
62.4173
62.4412
62.4651
62.4889
62.5128
62.5367
62.5605
62.5843
62.6082
62.632
62.6558
62.6796
62.7034
62.7272
62.7509
62.7747
62.7984
62.8221
62.8458
62.8695
62.8931
62.9168
62.9404
62.964
62.9876
63.0112
63.0348
63.0583
63.0819
63.1054
63.1289
63.1525
63.176
63.1995
63.223
63.2465
63.27
63.2935
63.317
63.3405
63.3639
63.3874
63.4108
63.4343
63.4577
63.4812
63.5046
63.528
63.5513
63.5747
63.598
63.6213
63.6446
63.6679
63.6911
63.7143
63.7374
63.7605
63.7836
63.8067
63.8297
63.8526
63.8755
63.8984
63.9212
63.944
63.9668
63.9895
64.0121
64.0347
64.0573
64.0799
64.1024
64.1248
64.1473
64.1697
64.1921
64.2144
64.2367
64.259
64.2813
64.3035
64.3257
64.3478
64.37
64.3921
64.4141
64.4362
64.4581
64.4801
64.502
64.5238
64.5455
64.5673
64.5889
64.6105
64.6319
64.6533
64.6747
64.6959
64.717
64.7381
64.759
64.7798
64.8006
64.8212
64.8417
64.8621
64.8825
64.9027
64.9228
64.9428
64.9627
64.9826
65.0023
65.022
65.0416
65.0611
65.0805
65.0999
65.1193
65.1385
65.1578
65.1769
65.1961
65.2152
65.2343
65.2533
65.2723
65.2913
65.3103
65.3292
65.3481
65.367
65.3859
65.4047
65.4235
65.4423
65.461
65.4798
65.4985
65.5171
65.5358
65.5543
65.5729
65.5914
65.6099
65.6283
65.6467
65.665
65.6833
65.7016
65.7198
65.7379
65.7561
65.7741
65.7922
65.8102
65.8282
65.8461
65.864
65.8819
65.8998
65.9176
65.9354
65.9532
65.971
65.9888
66.0065
66.0243
66.042
66.0598
66.0775
66.0953
66.113
66.1308
66.1486
66.1663
66.1841
66.2019
66.2197
66.2376
66.2554
66.2733
66.2912
66.309
66.327
66.3449
66.3628
66.3808
66.3988
66.4168
66.4348
66.4528
66.4708
66.4888
66.5068
66.5249
66.5429
66.5609
66.5789
66.597
66.615
66.633
66.651
66.669
66.687
66.705
66.7229
66.7409
66.7588
66.7767
66.7946
66.8125
66.8304
66.8483
66.8661
66.884
66.9018
66.9196
66.9374
66.9551
66.9729
66.9906
67.0084
67.0261
67.0437
67.0614
67.0791
67.0967
67.1143
67.1319
67.1495
67.1671
67.1847
67.2022
67.2197
67.2373
67.2548
67.2722
67.2897
67.3072
67.3246
67.342
67.3595
67.3769
67.3943
67.4116
67.429
67.4464
67.4637
67.481
67.4983
67.5156
67.5329
67.5502
67.5675
67.5847
67.602
67.6192
67.6365
67.6537
67.6709
67.6881
67.7053
67.7224
67.7396
67.7568
67.7739
67.791
67.8082
67.8253
67.8424
67.8595
67.8766
67.8937
67.9107
67.9278
67.9449
67.9619
67.979
67.996
68.013
68.03
68.0471
68.0641
68.0811
68.0981
68.1151
68.132
68.149
68.166
68.183
68.1999
68.2169
68.2339
68.2508
68.2678
68.2847
68.3017
68.3186
68.3355
68.3525
68.3694
68.3863
68.4033
68.4202
68.4371
68.454
68.471
68.4879
68.5048
68.5217
68.5386
68.5555
68.5724
68.5894
68.6063
68.6232
68.6401
68.657
68.6739
68.6908
68.7077
68.7246
68.7415
68.7584
68.7753
68.7922
68.8091
68.826
68.8428
68.8597
68.8766
68.8935
68.9104
68.9273
68.9441
68.961
68.9779
68.9948
69.0117
69.0285
69.0454
69.0623
69.0791
69.096
69.1129
69.1297
69.1466
69.1635
69.1803
69.1972
69.214
69.2309
69.2477
69.2646
69.2814
69.2983
69.3151
69.332
69.3488
69.3656
69.3825
69.3993
69.4161
69.433
69.4498
69.4666
69.4834
69.5002
69.517
69.5338
69.5506
69.5674
69.5842
69.601
69.6178
69.6346
69.6514
69.6682
69.685
69.7017
69.7185
69.7353
69.752
69.7688
69.7856
69.8023
69.8191
69.8358
69.8526
69.8693
69.886
69.9028
69.9195
69.9362
69.953
69.9697
69.9864
70.0032
70.0199
70.0366
70.0533
70.0701
70.0868
70.1035
70.1202
70.1369
70.1537
70.1704
70.1871
70.2038
70.2205
70.2373
70.254
70.2707
70.2874
70.3041
70.3209
70.3376
70.3543
70.371
70.3878
70.4045
70.4212
70.438
70.4547
70.4714
70.4882
70.5049
70.5217
70.5384
70.5552
70.5719
70.5887
70.6054
70.6222
70.639
70.6557
70.6725
70.6893
70.7061
70.7229
70.7397
70.7565
70.7733
70.7901
70.8069
70.8237
70.8405
70.8573
70.8742
70.891
70.9079
70.9247
70.9416
70.9584
70.9753
70.9921
71.009
71.0259
71.0428
71.0597
71.0766
71.0935
71.1104
71.1273
71.1442
71.1611
71.1781
71.195
71.212
71.2289
71.2459
71.2628
71.2798
71.2967
71.3137
71.3307
71.3477
71.3646
71.3816
71.3986
71.4156
71.4326
71.4496
71.4666
71.4836
71.5006
71.5177
71.5347
71.5517
71.5687
71.5858
71.6028
71.6198
71.6369
71.6539
71.6709
71.688
71.705
71.7221
71.7391
71.7562
71.7732
71.7903
71.8073
71.8244
71.8414
71.8585
71.8756
71.8926
71.9097
71.9267
71.9438
71.9609
71.9779
71.995
72.012
72.0291
72.0462
72.0632
72.0803
72.0973
72.1144
72.1315
72.1485
72.1656
72.1826
72.1997
72.2167
72.2338
72.2509
72.2679
72.285
72.302
72.3191
72.3361
72.3532
72.3702
72.3873
72.4043
72.4213
72.4384
72.4554
72.4725
72.4895
72.5066
72.5236
72.5406
72.5577
72.5747
72.5918
72.6088
72.6259
72.6429
72.6599
72.677
72.694
72.7111
72.7281
72.7452
72.7622
72.7793
72.7963
72.8134
72.8304
72.8475
72.8645
72.8816
72.8986
72.9157
72.9328
72.9498
72.9669
72.984
73.001
73.0181
73.0352
73.0523
73.0693
73.0864
73.1035
73.1206
73.1377
73.1548
73.1719
73.189
73.2061
73.2232
73.2403
73.2574
73.2745
73.2917
73.3088
73.3259
73.3431
73.3602
73.3773
73.3945
73.4116
73.4288
73.446
73.4631
73.4803
73.4975
73.5146
73.5318
73.549
73.5662
73.5834
73.6006
73.6178
73.635
73.6522
73.6694
73.6867
73.7039
73.7211
73.7383
73.7556
73.7728
73.7901
73.8073
73.8246
73.8418
73.8591
73.8763
73.8936
73.9109
73.9281
73.9454
73.9627
73.98
73.9972
74.0145
74.0318
74.0491
74.0664
74.0837
74.101
74.1183
74.1356
74.1529
74.1702
74.1875
74.2048
74.2221
74.2394
74.2567
74.274
74.2913
74.3086
74.3259
74.3432
74.3605
74.3778
74.3951
74.4124
74.4297
74.447
74.4643
74.4817
74.499
74.5163
74.5336
74.5509
74.5682
74.5855
74.6028
74.6201
74.6374
74.6547
74.672
74.6893
74.7066
74.7239
74.7412
74.7585
74.7758
74.7931
74.8104
74.8277
74.845
74.8623
74.8796
74.8969
74.9142
74.9315
74.9488
74.9661
74.9834
75.0006
75.0179
75.0352
75.0525
75.0698
75.0871
75.1044
75.1217
75.139
75.1563
75.1736
75.1909
75.2082
75.2255
75.2428
75.2601
75.2774
75.2947
75.312
75.3293
75.3466
75.364
75.3813
75.3986
75.4159
75.4332
75.4505
75.4679
75.4852
75.5025
75.5199
75.5372
75.5545
75.5719
75.5892
75.6066
75.6239
75.6413
75.6587
75.676
75.6934
75.7108
75.7281
75.7455
75.7629
75.7803
75.7977
75.8151
75.8325
75.8499
75.8673
75.8847
75.9021
75.9195
75.937
75.9544
75.9718
75.9893
76.0067
76.0242
76.0416
76.0591
76.0765
76.094
76.1115
76.1289
76.1464
76.1639
76.1814
76.1989
76.2164
76.2339
76.2514
76.2689
76.2864
76.3039
76.3214
76.3389
76.3565
76.374
76.3915
76.4091
76.4266
76.4442
76.4617
76.4793
76.4968
76.5144
76.5319
76.5495
76.567
76.5846
76.6022
76.6197
76.6373
76.6549
76.6725
76.69
76.7076
76.7252
76.7428
76.7604
76.7779
76.7955
76.8131
76.8307
76.8483
76.8659
76.8835
76.9011
76.9187
76.9363
76.9538
76.9714
76.989
77.0066
77.0242
77.0418
77.0594
77.077
77.0946
77.1122
77.1298
77.1474
77.165
77.1826
77.2001
77.2177
77.2353
77.2529
77.2705
77.2881
77.3057
77.3233
77.3409
77.3585
77.3761
77.3936
77.4112
77.4288
77.4464
77.464
77.4816
77.4992
77.5168
77.5343
77.5519
77.5695
77.5871
77.6047
77.6223
77.6399
77.6575
77.6751
77.6926
77.7102
77.7278
77.7454
77.763
77.7806
77.7982
77.8158
77.8334
77.851
77.8686
77.8862
77.9038
77.9214
77.939
77.9566
77.9743
77.9919
78.0095
78.0271
78.0447
78.0624
78.08
78.0976
78.1153
78.1329
78.1505
78.1682
78.1858
78.2035
78.2211
78.2388
78.2564
78.2741
78.2918
78.3094
78.3271
78.3448
78.3625
78.3801
78.3978
78.4155
78.4332
78.4509
78.4686
78.4863
78.504
78.5218
78.5395
78.5572
78.5749
78.5927
78.6104
78.6281
78.6459
78.6636
78.6814
78.6991
78.7169
78.7346
78.7524
78.7701
78.7879
78.8057
78.8235
78.8412
78.859
78.8768
78.8946
78.9124
78.9302
78.948
78.9658
78.9836
79.0014
79.0192
79.037
79.0548
79.0727
79.0905
79.1083
79.1261
79.1439
79.1618
79.1796
79.1974
79.2153
79.2331
79.2509
79.2688
79.2866
79.3044
79.3223
79.3401
79.358
79.3758
79.3937
79.4115
79.4294
79.4472
79.4651
79.4829
79.5008
79.5186
79.5365
79.5543
79.5722
79.59
79.6079
79.6257
79.6436
79.6614
79.6793
79.6972
79.715
79.7329
79.7507
79.7686
79.7865
79.8043
79.8222
79.84
79.8579
79.8758
79.8936
79.9115
79.9294
79.9472
79.9651
79.983
80.0008
80.0187
80.0366
80.0544
80.0723
80.0902
80.108
80.1259
80.1438
80.1617
80.1796
80.1974
80.2153
80.2332
80.2511
80.269
80.2869
80.3047
80.3226
80.3405
80.3584
80.3763
80.3942
80.4121
80.43
80.4479
80.4658
80.4837
80.5017
80.5196
80.5375
80.5554
80.5733
80.5913
80.6092
80.6271
80.6451
80.663
80.6809
80.6989
80.7168
80.7348
80.7527
80.7707
80.7887
80.8066
80.8246
80.8426
80.8605
80.8785
80.8965
80.9145
80.9325
80.9504
80.9684
80.9864
81.0044
81.0224
81.0405
81.0585
81.0765
81.0945
81.1125
81.1305
81.1486
81.1666
81.1846
81.2027
81.2207
81.2388
81.2568
81.2749
81.2929
81.311
81.3291
81.3471
81.3652
81.3833
81.4013
81.4194
81.4375
81.4556
81.4737
81.4917
81.5098
81.5279
81.546
81.5641
81.5822
81.6003
81.6184
81.6365
81.6546
81.6727
81.6908
81.709
81.7271
81.7452
81.7633
81.7814
81.7995
81.8177
81.8358
81.8539
81.872
81.8902
81.9083
81.9264
81.9446
81.9627
81.9808
81.999
82.0171
82.0352
82.0534
82.0715
82.0896
82.1078
82.1259
82.144
82.1622
82.1803
82.1985
82.2166
82.2348
82.2529
82.271
82.2892
82.3073
82.3255
82.3436
82.3618
82.3799
82.3981
82.4162
82.4344
82.4525
82.4707
82.4888
82.507
82.5251
82.5433
82.5614
82.5796
82.5978
82.6159
82.6341
82.6522
82.6704
82.6886
82.7067
82.7249
82.7431
82.7612
82.7794
82.7976
82.8157
82.8339
82.8521
82.8703
82.8884
82.9066
82.9248
82.943
82.9612
82.9794
82.9976
83.0157
83.0339
83.0521
83.0703
83.0885
83.1067
83.1249
83.1431
83.1614
83.1796
83.1978
83.216
83.2342
83.2524
83.2707
83.2889
83.3071
83.3253
83.3436
83.3618
83.3801
83.3983
83.4165
83.4348
83.453
83.4713
83.4895
83.5078
83.5261
83.5443
83.5626
83.5809
83.5991
83.6174
83.6357
83.654
83.6722
83.6905
83.7088
83.7271
83.7454
83.7637
83.782
83.8003
83.8186
83.8369
83.8552
83.8735
83.8918
83.9102
83.9285
83.9468
83.9651
83.9835
84.0018
84.0201
84.0385
84.0568
84.0751
84.0935
84.1118
84.1302
84.1485
84.1669
84.1852
84.2036
84.2219
84.2403
84.2586
84.277
84.2953
84.3137
84.3321
84.3504
84.3688
84.3872
84.4055
84.4239
84.4423
84.4606
84.479
84.4974
84.5158
84.5342
84.5525
84.5709
84.5893
84.6077
84.6261
84.6445
84.6628
84.6812
84.6996
84.718
84.7364
84.7548
84.7732
84.7916
84.81
84.8284
84.8468
84.8652
84.8836
84.902
84.9204
84.9388
84.9572
84.9757
84.9941
85.0125
85.0309
85.0493
85.0677
85.0862
85.1046
85.123
85.1414
85.1599
85.1783
85.1967
85.2152
85.2336
85.2521
85.2705
85.2889
85.3074
85.3258
85.3443
85.3628
85.3812
85.3997
85.4181
85.4366
85.4551
85.4735
85.492
85.5105
85.529
85.5475
85.566
85.5844
85.6029
85.6214
85.6399
85.6584
85.6769
85.6954
85.714
85.7325
85.751
85.7695
85.788
85.8066
85.8251
85.8436
85.8622
85.8807
85.8993
85.9178
85.9364
85.9549
85.9735
85.992
86.0106
86.0291
86.0477
86.0663
86.0849
86.1034
86.122
86.1406
86.1592
86.1778
86.1964
86.215
86.2336
86.2522
86.2708
86.2894
86.308
86.3266
86.3452
86.3638
86.3824
86.401
86.4197
86.4383
86.4569
86.4755
86.4942
86.5128
86.5314
86.5501
86.5687
86.5873
86.606
86.6246
86.6433
86.6619
86.6805
86.6992
86.7178
86.7365
86.7551
86.7738
86.7925
86.8111
86.8298
86.8484
86.8671
86.8857
86.9044
86.9231
86.9417
86.9604
86.9791
86.9977
87.0164
87.0351
87.0537
87.0724
87.0911
87.1098
87.1284
87.1471
87.1658
87.1845
87.2031
87.2218
87.2405
87.2592
87.2779
87.2965
87.3152
87.3339
87.3526
87.3713
87.39
87.4086
87.4273
87.446
87.4647
87.4834
87.5021
87.5208
87.5395
87.5582
87.5769
87.5956
87.6143
87.633
87.6517
87.6704