/*--------------------------------*- C++ -*----------------------------------*\
  =========                 |
  \\      /  F ield         | OpenFOAM: The Open Source CFD Toolbox
   \\    /   O peration     | Website:  https://openfoam.org
    \\  /    A nd           | Version:  9
     \\/     M anipulation  |
\*---------------------------------------------------------------------------*/
FoamFile
{
    format      ascii;
    class       volScalarField;
    location    "0.04";
    object      rho;
}
// * * * * * * * * * * * * * * * * * * * * * * * * * * * * * * * * * * * * * //

dimensions      [1 -3 0 0 0 0 0];

internalField   nonuniform List<scalar> 
10000
(
0.207045
0.207043
0.207039
0.207036
0.207033
0.207029
0.207026
0.207023
0.207019
0.207016
0.207013
0.20701
0.207006
0.207003
0.207
0.206997
0.206994
0.206991
0.206987
0.206984
0.206981
0.206978
0.206975
0.206972
0.206969
0.206966
0.206963
0.20696
0.206957
0.206954
0.206951
0.206948
0.206945
0.206942
0.206939
0.206936
0.206934
0.206931
0.206928
0.206926
0.206923
0.206919
0.206916
0.206913
0.206911
0.206908
0.206905
0.206903
0.2069
0.206898
0.206896
0.206893
0.20689
0.206888
0.206885
0.206882
0.206879
0.206875
0.206872
0.206869
0.206867
0.206864
0.206861
0.206859
0.206857
0.206855
0.206854
0.206852
0.206851
0.20685
0.206849
0.206849
0.206848
0.206847
0.206847
0.206846
0.206846
0.206845
0.206845
0.206845
0.206844
0.206844
0.206844
0.206844
0.206843
0.206843
0.206843
0.206842
0.206842
0.206842
0.206841
0.206841
0.206841
0.20684
0.20684
0.20684
0.206839
0.206839
0.206838
0.206838
0.206837
0.206837
0.206837
0.206836
0.206836
0.206835
0.206835
0.206834
0.206833
0.206833
0.206832
0.206832
0.206831
0.206831
0.20683
0.206829
0.206829
0.206828
0.206827
0.206827
0.206826
0.206825
0.206825
0.206824
0.206823
0.206822
0.206822
0.206821
0.20682
0.206819
0.206818
0.206818
0.206817
0.206816
0.206815
0.206814
0.206813
0.206813
0.206812
0.206811
0.20681
0.206809
0.206808
0.206807
0.206806
0.206806
0.206805
0.206804
0.206803
0.206802
0.206801
0.2068
0.206799
0.206799
0.206798
0.206797
0.206796
0.206795
0.206794
0.206793
0.206793
0.206792
0.206791
0.20679
0.20679
0.206789
0.206788
0.206787
0.206787
0.206786
0.206785
0.206785
0.206784
0.206784
0.206783
0.206782
0.206782
0.206781
0.206781
0.20678
0.20678
0.206779
0.206779
0.206779
0.206778
0.206778
0.206777
0.206777
0.206777
0.206776
0.206776
0.206776
0.206775
0.206775
0.206775
0.206775
0.206774
0.206774
0.206774
0.206774
0.206773
0.206773
0.206773
0.206773
0.206773
0.206772
0.206772
0.206772
0.206772
0.206772
0.206771
0.206771
0.206771
0.206771
0.20677
0.20677
0.20677
0.20677
0.206769
0.206769
0.206769
0.206769
0.206768
0.206768
0.206768
0.206767
0.206767
0.206766
0.206766
0.206766
0.206765
0.206765
0.206764
0.206764
0.206763
0.206763
0.206762
0.206762
0.206761
0.206761
0.20676
0.20676
0.206759
0.206759
0.206758
0.206757
0.206757
0.206756
0.206756
0.206755
0.206754
0.206754
0.206753
0.206752
0.206752
0.206751
0.20675
0.20675
0.206749
0.206748
0.206747
0.206747
0.206746
0.206745
0.206745
0.206744
0.206743
0.206743
0.206742
0.206741
0.206741
0.20674
0.206739
0.206739
0.206738
0.206737
0.206737
0.206736
0.206736
0.206735
0.206734
0.206734
0.206733
0.206733
0.206732
0.206732
0.206731
0.206731
0.20673
0.20673
0.206729
0.206729
0.206729
0.206728
0.206728
0.206727
0.206727
0.206727
0.206726
0.206726
0.206726
0.206725
0.206725
0.206725
0.206725
0.206724
0.206724
0.206724
0.206724
0.206723
0.206723
0.206723
0.206723
0.206723
0.206722
0.206722
0.206722
0.206722
0.206722
0.206722
0.206721
0.206721
0.206721
0.206721
0.206721
0.206721
0.20672
0.20672
0.20672
0.20672
0.20672
0.206719
0.206719
0.206719
0.206719
0.206719
0.206718
0.206718
0.206718
0.206717
0.206717
0.206717
0.206716
0.206716
0.206716
0.206715
0.206715
0.206714
0.206714
0.206714
0.206713
0.206713
0.206712
0.206711
0.206711
0.20671
0.20671
0.206709
0.206708
0.206708
0.206707
0.206706
0.206706
0.206705
0.206704
0.206703
0.206703
0.206702
0.206701
0.2067
0.206699
0.206699
0.206698
0.206697
0.206696
0.206695
0.206694
0.206693
0.206693
0.206692
0.206691
0.20669
0.206689
0.206688
0.206687
0.206686
0.206685
0.206684
0.206684
0.206683
0.206682
0.206681
0.20668
0.206679
0.206678
0.206677
0.206676
0.206676
0.206675
0.206674
0.206673
0.206672
0.206671
0.20667
0.206669
0.206669
0.206668
0.206667
0.206666
0.206665
0.206665
0.206664
0.206663
0.206662
0.206661
0.206661
0.20666
0.206659
0.206658
0.206658
0.206657
0.206656
0.206655
0.206654
0.206654
0.206653
0.206652
0.206652
0.206651
0.20665
0.206649
0.206649
0.206648
0.206647
0.206646
0.206646
0.206645
0.206644
0.206643
0.206643
0.206642
0.206641
0.206641
0.20664
0.206639
0.206638
0.206638
0.206637
0.206636
0.206635
0.206634
0.206634
0.206633
0.206632
0.206631
0.206631
0.20663
0.206629
0.206628
0.206627
0.206626
0.206626
0.206625
0.206624
0.206623
0.206622
0.206622
0.206621
0.20662
0.206619
0.206618
0.206617
0.206616
0.206616
0.206615
0.206614
0.206613
0.206612
0.206612
0.206611
0.20661
0.206609
0.206608
0.206608
0.206607
0.206606
0.206606
0.206605
0.206604
0.206604
0.206603
0.206602
0.206602
0.206601
0.206601
0.2066
0.2066
0.206599
0.206599
0.206598
0.206598
0.206598
0.206597
0.206597
0.206597
0.206596
0.206596
0.206596
0.206596
0.206596
0.206596
0.206596
0.206596
0.206596
0.206596
0.206596
0.206596
0.206596
0.206596
0.206596
0.206597
0.206597
0.206597
0.206598
0.206598
0.206598
0.206599
0.206599
0.206599
0.2066
0.2066
0.206601
0.206601
0.206602
0.206602
0.206603
0.206603
0.206604
0.206604
0.206605
0.206606
0.206606
0.206607
0.206607
0.206608
0.206608
0.206609
0.206609
0.20661
0.20661
0.206611
0.206611
0.206612
0.206612
0.206613
0.206613
0.206613
0.206614
0.206614
0.206614
0.206615
0.206615
0.206615
0.206615
0.206615
0.206615
0.206615
0.206615
0.206615
0.206615
0.206615
0.206615
0.206615
0.206614
0.206614
0.206614
0.206613
0.206613
0.206613
0.206612
0.206612
0.206611
0.20661
0.20661
0.206609
0.206608
0.206607
0.206607
0.206606
0.206605
0.206604
0.206603
0.206602
0.206601
0.2066
0.206599
0.206598
0.206596
0.206595
0.206594
0.206593
0.206592
0.206591
0.206589
0.206588
0.206587
0.206585
0.206584
0.206583
0.206582
0.20658
0.206579
0.206578
0.206576
0.206575
0.206574
0.206572
0.206571
0.20657
0.206568
0.206567
0.206566
0.206564
0.206563
0.206562
0.206561
0.206559
0.206558
0.206557
0.206556
0.206554
0.206553
0.206552
0.206551
0.20655
0.206548
0.206547
0.206546
0.206545
0.206544
0.206543
0.206542
0.206541
0.20654
0.206538
0.206537
0.206536
0.206535
0.206534
0.206533
0.206532
0.206531
0.20653
0.206529
0.206528
0.206527
0.206526
0.206525
0.206524
0.206523
0.206523
0.206522
0.206521
0.20652
0.206519
0.206518
0.206517
0.206516
0.206515
0.206514
0.206513
0.206512
0.206511
0.20651
0.206509
0.206508
0.206507
0.206506
0.206505
0.206504
0.206504
0.206503
0.206502
0.206501
0.2065
0.206499
0.206498
0.206497
0.206496
0.206495
0.206494
0.206493
0.206492
0.206491
0.20649
0.20649
0.206489
0.206488
0.206487
0.206486
0.206485
0.206484
0.206484
0.206483
0.206482
0.206481
0.206481
0.20648
0.206479
0.206479
0.206478
0.206478
0.206477
0.206476
0.206476
0.206475
0.206475
0.206474
0.206474
0.206474
0.206473
0.206473
0.206473
0.206472
0.206472
0.206472
0.206472
0.206472
0.206472
0.206471
0.206471
0.206471
0.206471
0.206471
0.206471
0.206471
0.206471
0.206472
0.206472
0.206472
0.206472
0.206472
0.206472
0.206473
0.206473
0.206473
0.206473
0.206474
0.206474
0.206474
0.206475
0.206475
0.206475
0.206476
0.206476
0.206476
0.206477
0.206477
0.206477
0.206478
0.206478
0.206479
0.206479
0.206479
0.20648
0.20648
0.20648
0.206481
0.206481
0.206482
0.206482
0.206482
0.206483
0.206483
0.206483
0.206483
0.206484
0.206484
0.206484
0.206484
0.206484
0.206484
0.206485
0.206485
0.206485
0.206485
0.206485
0.206485
0.206485
0.206485
0.206485
0.206484
0.206484
0.206484
0.206484
0.206484
0.206483
0.206483
0.206483
0.206482
0.206482
0.206481
0.206481
0.20648
0.20648
0.206479
0.206479
0.206478
0.206477
0.206476
0.206476
0.206475
0.206474
0.206473
0.206472
0.206471
0.20647
0.206469
0.206468
0.206467
0.206466
0.206465
0.206464
0.206463
0.206462
0.206461
0.206459
0.206458
0.206457
0.206456
0.206454
0.206453
0.206452
0.20645
0.206449
0.206448
0.206446
0.206445
0.206444
0.206442
0.206441
0.206439
0.206438
0.206437
0.206435
0.206434
0.206432
0.206431
0.20643
0.206428
0.206427
0.206425
0.206424
0.206422
0.206421
0.20642
0.206418
0.206417
0.206416
0.206414
0.206413
0.206411
0.20641
0.206409
0.206408
0.206406
0.206405
0.206404
0.206402
0.206401
0.2064
0.206399
0.206398
0.206396
0.206395
0.206394
0.206393
0.206392
0.206391
0.20639
0.206389
0.206388
0.206387
0.206386
0.206385
0.206384
0.206383
0.206383
0.206382
0.206381
0.20638
0.20638
0.206379
0.206378
0.206378
0.206377
0.206376
0.206376
0.206375
0.206375
0.206374
0.206374
0.206373
0.206373
0.206373
0.206372
0.206372
0.206372
0.206371
0.206371
0.206371
0.206371
0.20637
0.20637
0.20637
0.20637
0.20637
0.20637
0.206369
0.206369
0.206369
0.206369
0.206369
0.206369
0.206369
0.206369
0.206369
0.206369
0.206369
0.206369
0.206369
0.206368
0.206368
0.206368
0.206368
0.206368
0.206368
0.206368
0.206368
0.206368
0.206368
0.206368
0.206368
0.206367
0.206367
0.206367
0.206367
0.206367
0.206367
0.206367
0.206366
0.206366
0.206366
0.206366
0.206365
0.206365
0.206365
0.206365
0.206364
0.206364
0.206364
0.206363
0.206363
0.206363
0.206362
0.206362
0.206362
0.206361
0.206361
0.20636
0.20636
0.20636
0.206359
0.206359
0.206358
0.206358
0.206357
0.206357
0.206357
0.206356
0.206356
0.206355
0.206355
0.206354
0.206354
0.206353
0.206353
0.206353
0.206352
0.206352
0.206351
0.206351
0.20635
0.20635
0.206349
0.206349
0.206349
0.206348
0.206348
0.206347
0.206347
0.206346
0.206346
0.206345
0.206345
0.206345
0.206344
0.206344
0.206343
0.206343
0.206343
0.206342
0.206342
0.206341
0.206341
0.20634
0.20634
0.20634
0.206339
0.206339
0.206338
0.206338
0.206337
0.206337
0.206336
0.206336
0.206336
0.206335
0.206335
0.206334
0.206334
0.206333
0.206333
0.206332
0.206332
0.206331
0.206331
0.20633
0.20633
0.206329
0.206329
0.206328
0.206328
0.206327
0.206326
0.206326
0.206325
0.206325
0.206324
0.206323
0.206323
0.206322
0.206321
0.20632
0.20632
0.206319
0.206318
0.206317
0.206317
0.206316
0.206315
0.206314
0.206313
0.206312
0.206311
0.206311
0.20631
0.206309
0.206308
0.206307
0.206306
0.206305
0.206304
0.206303
0.206302
0.206301
0.206299
0.206298
0.206297
0.206296
0.206295
0.206294
0.206293
0.206292
0.206291
0.20629
0.206288
0.206287
0.206286
0.206285
0.206284
0.206283
0.206282
0.206281
0.20628
0.206279
0.206278
0.206277
0.206275
0.206274
0.206273
0.206272
0.206271
0.20627
0.20627
0.206269
0.206268
0.206267
0.206266
0.206265
0.206264
0.206263
0.206262
0.206262
0.206261
0.20626
0.206259
0.206258
0.206258
0.206257
0.206256
0.206255
0.206255
0.206254
0.206253
0.206253
0.206252
0.206251
0.206251
0.20625
0.206249
0.206249
0.206248
0.206247
0.206247
0.206246
0.206245
0.206245
0.206244
0.206243
0.206243
0.206242
0.206242
0.206241
0.20624
0.20624
0.206239
0.206238
0.206238
0.206237
0.206237
0.206236
0.206235
0.206235
0.206234
0.206233
0.206233
0.206232
0.206232
0.206231
0.206231
0.20623
0.206229
0.206229
0.206228
0.206228
0.206227
0.206227
0.206226
0.206226
0.206225
0.206225
0.206224
0.206224
0.206223
0.206223
0.206222
0.206222
0.206222
0.206221
0.206221
0.20622
0.20622
0.20622
0.206219
0.206219
0.206219
0.206218
0.206218
0.206218
0.206217
0.206217
0.206217
0.206217
0.206216
0.206216
0.206216
0.206215
0.206215
0.206215
0.206214
0.206214
0.206214
0.206214
0.206213
0.206213
0.206213
0.206212
0.206212
0.206211
0.206211
0.206211
0.20621
0.20621
0.206209
0.206209
0.206208
0.206208
0.206207
0.206207
0.206206
0.206206
0.206205
0.206204
0.206204
0.206203
0.206202
0.206202
0.206201
0.2062
0.206199
0.206198
0.206198
0.206197
0.206196
0.206195
0.206194
0.206193
0.206192
0.206191
0.20619
0.206188
0.206187
0.206186
0.206185
0.206184
0.206183
0.206181
0.20618
0.206179
0.206178
0.206176
0.206175
0.206174
0.206172
0.206171
0.20617
0.206168
0.206167
0.206166
0.206164
0.206163
0.206162
0.20616
0.206159
0.206158
0.206157
0.206155
0.206154
0.206153
0.206152
0.20615
0.206149
0.206148
0.206147
0.206146
0.206145
0.206144
0.206143
0.206142
0.206141
0.20614
0.206139
0.206138
0.206137
0.206136
0.206135
0.206135
0.206134
0.206133
0.206132
0.206132
0.206131
0.20613
0.20613
0.206129
0.206129
0.206128
0.206128
0.206127
0.206127
0.206126
0.206126
0.206125
0.206125
0.206124
0.206124
0.206124
0.206123
0.206123
0.206123
0.206122
0.206122
0.206122
0.206121
0.206121
0.206121
0.20612
0.20612
0.206119
0.206119
0.206119
0.206118
0.206118
0.206117
0.206117
0.206117
0.206116
0.206116
0.206115
0.206115
0.206114
0.206114
0.206113
0.206113
0.206112
0.206111
0.206111
0.20611
0.20611
0.206109
0.206108
0.206108
0.206107
0.206106
0.206105
0.206105
0.206104
0.206103
0.206103
0.206102
0.206101
0.206101
0.2061
0.206099
0.206098
0.206098
0.206097
0.206096
0.206096
0.206095
0.206094
0.206094
0.206093
0.206092
0.206092
0.206091
0.20609
0.20609
0.206089
0.206088
0.206088
0.206087
0.206086
0.206086
0.206085
0.206084
0.206084
0.206083
0.206082
0.206082
0.206081
0.20608
0.20608
0.206079
0.206078
0.206078
0.206077
0.206076
0.206075
0.206075
0.206074
0.206073
0.206072
0.206071
0.20607
0.206069
0.206068
0.206067
0.206066
0.206065
0.206064
0.206063
0.206062
0.206061
0.20606
0.206058
0.206057
0.206056
0.206055
0.206053
0.206052
0.206051
0.206049
0.206048
0.206047
0.206045
0.206044
0.206042
0.206041
0.206039
0.206038
0.206037
0.206035
0.206034
0.206032
0.206031
0.206029
0.206028
0.206026
0.206025
0.206023
0.206022
0.206021
0.206019
0.206018
0.206017
0.206015
0.206014
0.206013
0.206011
0.20601
0.206009
0.206007
0.206006
0.206005
0.206004
0.206003
0.206002
0.206001
0.205999
0.205998
0.205997
0.205996
0.205995
0.205994
0.205993
0.205992
0.205991
0.205991
0.20599
0.205989
0.205988
0.205987
0.205986
0.205985
0.205985
0.205984
0.205983
0.205982
0.205981
0.205981
0.20598
0.205979
0.205978
0.205978
0.205977
0.205976
0.205976
0.205975
0.205974
0.205973
0.205973
0.205972
0.205971
0.205971
0.20597
0.205969
0.205969
0.205968
0.205967
0.205967
0.205966
0.205965
0.205965
0.205964
0.205963
0.205963
0.205962
0.205961
0.205961
0.20596
0.205959
0.205959
0.205958
0.205957
0.205957
0.205956
0.205955
0.205955
0.205954
0.205953
0.205953
0.205952
0.205952
0.205951
0.20595
0.20595
0.205949
0.205948
0.205948
0.205947
0.205947
0.205946
0.205945
0.205945
0.205944
0.205943
0.205943
0.205942
0.205941
0.205941
0.20594
0.205939
0.205939
0.205938
0.205937
0.205937
0.205936
0.205935
0.205935
0.205934
0.205933
0.205932
0.205932
0.205931
0.20593
0.205929
0.205929
0.205928
0.205927
0.205926
0.205925
0.205925
0.205924
0.205923
0.205922
0.205921
0.20592
0.20592
0.205919
0.205918
0.205917
0.205916
0.205915
0.205914
0.205913
0.205912
0.205912
0.205911
0.20591
0.205909
0.205908
0.205907
0.205906
0.205905
0.205904
0.205903
0.205902
0.205901
0.2059
0.205899
0.205898
0.205897
0.205896
0.205895
0.205894
0.205893
0.205892
0.205892
0.205891
0.20589
0.205889
0.205888
0.205887
0.205886
0.205885
0.205884
0.205883
0.205882
0.205881
0.20588
0.205879
0.205879
0.205878
0.205877
0.205876
0.205875
0.205874
0.205873
0.205872
0.205872
0.205871
0.20587
0.205869
0.205868
0.205867
0.205866
0.205865
0.205865
0.205864
0.205863
0.205862
0.205861
0.20586
0.20586
0.205859
0.205858
0.205857
0.205856
0.205855
0.205854
0.205854
0.205853
0.205852
0.205851
0.20585
0.205849
0.205849
0.205848
0.205847
0.205846
0.205845
0.205845
0.205844
0.205843
0.205842
0.205841
0.205841
0.20584
0.205839
0.205838
0.205838
0.205837
0.205836
0.205836
0.205835
0.205834
0.205834
0.205833
0.205832
0.205832
0.205831
0.205831
0.20583
0.205829
0.205829
0.205828
0.205828
0.205827
0.205827
0.205826
0.205826
0.205825
0.205825
0.205824
0.205824
0.205823
0.205823
0.205822
0.205822
0.205821
0.205821
0.20582
0.20582
0.205819
0.205819
0.205818
0.205818
0.205817
0.205817
0.205816
0.205816
0.205815
0.205815
0.205814
0.205814
0.205813
0.205813
0.205812
0.205812
0.205811
0.20581
0.20581
0.205809
0.205809
0.205808
0.205807
0.205807
0.205806
0.205806
0.205805
0.205805
0.205804
0.205803
0.205803
0.205802
0.205802
0.205801
0.205801
0.2058
0.2058
0.205799
0.205799
0.205798
0.205798
0.205797
0.205797
0.205797
0.205796
0.205796
0.205795
0.205795
0.205794
0.205794
0.205793
0.205793
0.205793
0.205792
0.205792
0.205791
0.205791
0.20579
0.20579
0.205789
0.205789
0.205788
0.205788
0.205787
0.205786
0.205786
0.205785
0.205785
0.205784
0.205783
0.205783
0.205782
0.205781
0.20578
0.205779
0.205779
0.205778
0.205777
0.205776
0.205775
0.205774
0.205773
0.205772
0.205771
0.20577
0.205769
0.205768
0.205767
0.205766
0.205765
0.205764
0.205763
0.205762
0.205761
0.20576
0.205759
0.205757
0.205756
0.205755
0.205754
0.205753
0.205752
0.205751
0.205751
0.20575
0.205749
0.205748
0.205747
0.205746
0.205745
0.205745
0.205744
0.205743
0.205743
0.205742
0.205741
0.205741
0.20574
0.20574
0.205739
0.205739
0.205738
0.205738
0.205738
0.205737
0.205737
0.205737
0.205737
0.205736
0.205736
0.205736
0.205736
0.205736
0.205736
0.205735
0.205735
0.205735
0.205735
0.205735
0.205735
0.205735
0.205735
0.205735
0.205735
0.205735
0.205735
0.205735
0.205735
0.205736
0.205736
0.205736
0.205736
0.205736
0.205736
0.205736
0.205736
0.205736
0.205736
0.205736
0.205736
0.205736
0.205737
0.205737
0.205737
0.205737
0.205737
0.205737
0.205737
0.205737
0.205737
0.205737
0.205737
0.205737
0.205737
0.205737
0.205736
0.205736
0.205736
0.205736
0.205736
0.205736
0.205736
0.205736
0.205735
0.205735
0.205735
0.205735
0.205735
0.205735
0.205734
0.205734
0.205734
0.205734
0.205733
0.205733
0.205733
0.205733
0.205732
0.205732
0.205732
0.205732
0.205731
0.205731
0.205731
0.20573
0.20573
0.20573
0.20573
0.205729
0.205729
0.205729
0.205728
0.205728
0.205728
0.205727
0.205727
0.205727
0.205727
0.205726
0.205726
0.205726
0.205725
0.205725
0.205725
0.205724
0.205724
0.205724
0.205723
0.205723
0.205723
0.205722
0.205722
0.205722
0.205722
0.205721
0.205721
0.205721
0.20572
0.20572
0.20572
0.205719
0.205719
0.205719
0.205718
0.205718
0.205717
0.205717
0.205717
0.205716
0.205716
0.205716
0.205715
0.205715
0.205715
0.205714
0.205714
0.205714
0.205713
0.205713
0.205713
0.205712
0.205712
0.205712
0.205711
0.205711
0.205711
0.205711
0.20571
0.20571
0.20571
0.205709
0.205709
0.205709
0.205708
0.205708
0.205708
0.205708
0.205707
0.205707
0.205707
0.205706
0.205706
0.205706
0.205706
0.205705
0.205705
0.205705
0.205704
0.205704
0.205704
0.205704
0.205703
0.205703
0.205703
0.205703
0.205703
0.205702
0.205702
0.205702
0.205702
0.205702
0.205701
0.205701
0.205701
0.205701
0.205701
0.205701
0.205701
0.205701
0.2057
0.2057
0.2057
0.2057
0.2057
0.2057
0.2057
0.2057
0.2057
0.2057
0.2057
0.2057
0.2057
0.2057
0.205701
0.205701
0.205701
0.205701
0.205701
0.205701
0.205701
0.205701
0.205702
0.205702
0.205702
0.205702
0.205702
0.205702
0.205703
0.205703
0.205703
0.205703
0.205703
0.205703
0.205704
0.205704
0.205704
0.205704
0.205704
0.205705
0.205705
0.205705
0.205705
0.205705
0.205705
0.205705
0.205705
0.205706
0.205706
0.205706
0.205706
0.205706
0.205706
0.205706
0.205706
0.205706
0.205706
0.205706
0.205705
0.205705
0.205705
0.205705
0.205705
0.205705
0.205705
0.205704
0.205704
0.205704
0.205704
0.205703
0.205703
0.205703
0.205703
0.205703
0.205702
0.205702
0.205702
0.205702
0.205702
0.205702
0.205701
0.205701
0.205701
0.205701
0.205701
0.205701
0.205701
0.205701
0.205701
0.205701
0.205701
0.205701
0.205701
0.205701
0.205701
0.205701
0.205701
0.205701
0.205701
0.205701
0.205701
0.205702
0.205702
0.205702
0.205702
0.205702
0.205702
0.205702
0.205702
0.205703
0.205703
0.205703
0.205703
0.205703
0.205703
0.205704
0.205704
0.205704
0.205704
0.205704
0.205704
0.205704
0.205705
0.205705
0.205705
0.205705
0.205705
0.205705
0.205705
0.205706
0.205706
0.205706
0.205706
0.205706
0.205706
0.205706
0.205706
0.205706
0.205707
0.205707
0.205707
0.205707
0.205707
0.205707
0.205707
0.205707
0.205707
0.205707
0.205707
0.205708
0.205708
0.205708
0.205708
0.205708
0.205708
0.205708
0.205708
0.205709
0.205709
0.205709
0.205709
0.205709
0.20571
0.20571
0.20571
0.20571
0.205711
0.205711
0.205711
0.205712
0.205712
0.205712
0.205713
0.205713
0.205714
0.205714
0.205715
0.205715
0.205716
0.205716
0.205717
0.205717
0.205718
0.205719
0.205719
0.20572
0.205721
0.205721
0.205722
0.205723
0.205724
0.205725
0.205725
0.205726
0.205727
0.205728
0.205729
0.20573
0.205731
0.205732
0.205732
0.205733
0.205734
0.205735
0.205736
0.205737
0.205738
0.205739
0.20574
0.205741
0.205742
0.205743
0.205744
0.205745
0.205746
0.205747
0.205748
0.205749
0.20575
0.205751
0.205751
0.205752
0.205753
0.205754
0.205755
0.205756
0.205757
0.205758
0.205759
0.20576
0.205761
0.205762
0.205763
0.205764
0.205765
0.205766
0.205767
0.205768
0.205769
0.205771
0.205772
0.205773
0.205774
0.205775
0.205777
0.205778
0.205779
0.20578
0.205782
0.205783
0.205784
0.205786
0.205787
0.205788
0.20579
0.205791
0.205792
0.205794
0.205795
0.205797
0.205798
0.2058
0.205801
0.205803
0.205804
0.205805
0.205807
0.205808
0.20581
0.205811
0.205813
0.205814
0.205816
0.205817
0.205818
0.20582
0.205821
0.205823
0.205824
0.205826
0.205827
0.205829
0.20583
0.205831
0.205833
0.205834
0.205836
0.205837
0.205839
0.20584
0.205842
0.205843
0.205845
0.205846
0.205848
0.205849
0.205851
0.205852
0.205854
0.205855
0.205857
0.205859
0.20586
0.205862
0.205863
0.205865
0.205867
0.205868
0.20587
0.205872
0.205873
0.205875
0.205877
0.205878
0.20588
0.205882
0.205883
0.205885
0.205887
0.205888
0.20589
0.205892
0.205893
0.205895
0.205897
0.205898
0.2059
0.205902
0.205903
0.205905
0.205907
0.205908
0.20591
0.205912
0.205914
0.205915
0.205917
0.205919
0.205921
0.205923
0.205925
0.205926
0.205928
0.20593
0.205932
0.205934
0.205937
0.205939
0.205941
0.205943
0.205945
0.205947
0.20595
0.205952
0.205954
0.205957
0.205959
0.205961
0.205964
0.205966
0.205968
0.205971
0.205973
0.205976
0.205978
0.205981
0.205983
0.205986
0.205988
0.205991
0.205993
0.205996
0.205998
0.206001
0.206003
0.206006
0.206009
0.206011
0.206014
0.206016
0.206019
0.206022
0.206025
0.206027
0.20603
0.206033
0.206036
0.206039
0.206042
0.206045
0.206048
0.206051
0.206055
0.206058
0.206061
0.206064
0.206068
0.206071
0.206075
0.206078
0.206082
0.206085
0.206089
0.206093
0.206096
0.2061
0.206104
0.206107
0.206111
0.206115
0.206119
0.206123
0.206127
0.206131
0.206135
0.206139
0.206143
0.206147
0.206151
0.206155
0.206159
0.206164
0.206168
0.206173
0.206177
0.206182
0.206187
0.206192
0.206197
0.206202
0.206207
0.206212
0.206218
0.206224
0.206229
0.206235
0.206241
0.206247
0.206254
0.20626
0.206266
0.206273
0.20628
0.206287
0.206294
0.206301
0.206308
0.206315
0.206322
0.20633
0.206337
0.206345
0.206352
0.20636
0.206368
0.206375
0.206383
0.206391
0.206399
0.206407
0.206415
0.206423
0.206431
0.206439
0.206447
0.206455
0.206463
0.206471
0.206479
0.206488
0.206496
0.206505
0.206513
0.206522
0.20653
0.206539
0.206548
0.206556
0.206565
0.206574
0.206583
0.206592
0.206602
0.206611
0.20662
0.206629
0.206639
0.206648
0.206658
0.206667
0.206677
0.206687
0.206696
0.206706
0.206716
0.206726
0.206735
0.206745
0.206755
0.206765
0.206775
0.206785
0.206795
0.206805
0.206815
0.206824
0.206834
0.206844
0.206854
0.206864
0.206874
0.206884
0.206894
0.206903
0.206913
0.206923
0.206933
0.206943
0.206952
0.206962
0.206972
0.206982
0.206991
0.207001
0.207011
0.20702
0.20703
0.20704
0.20705
0.207059
0.207069
0.207079
0.207089
0.207098
0.207108
0.207118
0.207128
0.207138
0.207147
0.207157
0.207167
0.207177
0.207187
0.207197
0.207207
0.207217
0.207227
0.207237
0.207246
0.207256
0.207267
0.207277
0.207287
0.207297
0.207307
0.207317
0.207327
0.207337
0.207347
0.207357
0.207368
0.207378
0.207388
0.207398
0.207408
0.207419
0.207429
0.207439
0.207449
0.20746
0.20747
0.20748
0.207491
0.207501
0.207511
0.207522
0.207532
0.207543
0.207553
0.207563
0.207574
0.207584
0.207595
0.207605
0.207616
0.207626
0.207637
0.207647
0.207658
0.207668
0.207679
0.207689
0.2077
0.20771
0.207721
0.207732
0.207742
0.207753
0.207763
0.207774
0.207785
0.207795
0.207806
0.207817
0.207828
0.207838
0.207849
0.20786
0.207871
0.207881
0.207892
0.207903
0.207914
0.207925
0.207936
0.207947
0.207957
0.207968
0.207979
0.20799
0.208001
0.208012
0.208023
0.208034
0.208045
0.208056
0.208067
0.208078
0.20809
0.208101
0.208112
0.208123
0.208134
0.208145
0.208156
0.208168
0.208179
0.20819
0.208201
0.208212
0.208224
0.208235
0.208246
0.208257
0.208269
0.20828
0.208291
0.208303
0.208314
0.208326
0.208337
0.208348
0.20836
0.208371
0.208383
0.208394
0.208405
0.208417
0.208428
0.20844
0.208451
0.208463
0.208474
0.208486
0.208497
0.208509
0.20852
0.208532
0.208544
0.208555
0.208567
0.208578
0.20859
0.208602
0.208613
0.208625
0.208636
0.208648
0.20866
0.208671
0.208683
0.208695
0.208706
0.208718
0.20873
0.208741
0.208753
0.208765
0.208776
0.208788
0.2088
0.208811
0.208823
0.208835
0.208846
0.208858
0.20887
0.208882
0.208893
0.208905
0.208917
0.208928
0.20894
0.208952
0.208963
0.208975
0.208987
0.208999
0.20901
0.209022
0.209034
0.209045
0.209057
0.209069
0.20908
0.209092
0.209104
0.209116
0.209127
0.209139
0.209151
0.209162
0.209174
0.209186
0.209198
0.209209
0.209221
0.209233
0.209244
0.209256
0.209268
0.209279
0.209291
0.209303
0.209314
0.209326
0.209338
0.20935
0.209361
0.209373
0.209385
0.209396
0.209408
0.20942
0.209431
0.209443
0.209455
0.209466
0.209478
0.20949
0.209501
0.209513
0.209525
0.209536
0.209548
0.20956
0.209571
0.209583
0.209595
0.209607
0.209618
0.20963
0.209642
0.209653
0.209665
0.209677
0.209688
0.2097
0.209712
0.209724
0.209735
0.209747
0.209759
0.20977
0.209782
0.209794
0.209806
0.209817
0.209829
0.209841
0.209852
0.209864
0.209876
0.209888
0.209899
0.209911
0.209923
0.209935
0.209946
0.209958
0.20997
0.209982
0.209993
0.210005
0.210017
0.210029
0.210041
0.210052
0.210064
0.210076
0.210088
0.2101
0.210111
0.210123
0.210135
0.210147
0.210159
0.21017
0.210182
0.210194
0.210206
0.210218
0.210229
0.210241
0.210253
0.210265
0.210277
0.210288
0.2103
0.210312
0.210324
0.210336
0.210348
0.210359
0.210371
0.210383
0.210395
0.210407
0.210419
0.21043
0.210442
0.210454
0.210466
0.210478
0.21049
0.210501
0.210513
0.210525
0.210537
0.210549
0.210561
0.210572
0.210584
0.210596
0.210608
0.21062
0.210632
0.210643
0.210655
0.210667
0.210679
0.210691
0.210702
0.210714
0.210726
0.210738
0.21075
0.210761
0.210773
0.210785
0.210797
0.210809
0.21082
0.210832
0.210844
0.210856
0.210868
0.210879
0.210891
0.210903
0.210915
0.210927
0.210938
0.21095
0.210962
0.210974
0.210985
0.210997
0.211009
0.211021
0.211033
0.211044
0.211056
0.211068
0.21108
0.211091
0.211103
0.211115
0.211127
0.211138
0.21115
0.211162
0.211174
0.211186
0.211197
0.211209
0.211221
0.211233
0.211244
0.211256
0.211268
0.21128
0.211291
0.211303
0.211315
0.211327
0.211338
0.21135
0.211362
0.211374
0.211386
0.211397
0.211409
0.211421
0.211433
0.211444
0.211456
0.211468
0.21148
0.211492
0.211503
0.211515
0.211527
0.211539
0.211551
0.211562
0.211574
0.211586
0.211598
0.21161
0.211621
0.211633
0.211645
0.211657
0.211669
0.211681
0.211692
0.211704
0.211716
0.211728
0.21174
0.211752
0.211764
0.211775
0.211787
0.211799
0.211811
0.211823
0.211835
0.211847
0.211859
0.21187
0.211882
0.211894
0.211906
0.211918
0.21193
0.211942
0.211954
0.211966
0.211978
0.211989
0.212001
0.212013
0.212025
0.212037
0.212049
0.212061
0.212073
0.212085
0.212097
0.212109
0.212121
0.212132
0.212144
0.212156
0.212168
0.21218
0.212192
0.212204
0.212216
0.212228
0.21224
0.212252
0.212264
0.212276
0.212288
0.2123
0.212312
0.212323
0.212335
0.212347
0.212359
0.212371
0.212383
0.212395
0.212407
0.212419
0.212431
0.212443
0.212455
0.212467
0.212479
0.212491
0.212503
0.212515
0.212527
0.212538
0.21255
0.212562
0.212574
0.212586
0.212598
0.21261
0.212622
0.212634
0.212646
0.212658
0.21267
0.212682
0.212694
0.212705
0.212717
0.212729
0.212741
0.212753
0.212765
0.212777
0.212789
0.212801
0.212813
0.212825
0.212837
0.212849
0.21286
0.212872
0.212884
0.212896
0.212908
0.21292
0.212932
0.212944
0.212956
0.212968
0.21298
0.212992
0.213004
0.213015
0.213027
0.213039
0.213051
0.213063
0.213075
0.213087
0.213099
0.213111
0.213123
0.213135
0.213147
0.213159
0.213171
0.213182
0.213194
0.213206
0.213218
0.21323
0.213242
0.213254
0.213266
0.213278
0.21329
0.213302
0.213314
0.213326
0.213338
0.21335
0.213362
0.213374
0.213386
0.213398
0.21341
0.213421
0.213433
0.213445
0.213457
0.213469
0.213481
0.213493
0.213505
0.213517
0.213529
0.213541
0.213553
0.213565
0.213577
0.213589
0.213601
0.213613
0.213625
0.213637
0.213649
0.213661
0.213673
0.213685
0.213697
0.213709
0.213721
0.213733
0.213745
0.213757
0.213769
0.213781
0.213793
0.213805
0.213817
0.213829
0.213841
0.213853
0.213865
0.213877
0.213889
0.213901
0.213913
0.213926
0.213937
0.21395
0.213961
0.213974
0.213985
0.213998
0.214009
0.214022
0.214033
0.214046
0.214057
0.21407
0.214081
0.214094
0.214105
0.214118
0.214129
0.214142
0.214153
0.214166
0.214177
0.21419
0.214201
0.214214
0.214225
0.214238
0.214249
0.214262
0.214273
0.214286
0.214297
0.214311
0.214321
0.214335
0.214345
0.214359
0.214369
0.214383
0.214393
0.214407
0.214417
0.214431
0.214441
0.214455
0.214465
0.214479
0.214489
0.214503
0.214513
0.214527
0.214537
0.214551
0.214561
0.214575
0.214585
0.214599
0.214609
0.214623
0.214633
0.214647
0.214657
0.214671
0.214682
0.214695
0.214706
0.214719
0.21473
0.214743
0.214754
0.214767
0.214778
0.214791
0.214802
0.214816
0.214826
0.21484
0.21485
0.214864
0.214874
0.214888
0.214898
0.214912
0.214922
0.214936
0.214947
0.21496
0.214971
0.214984
0.214995
0.215008
0.215019
0.215033
0.215043
0.215057
0.215067
0.215081
0.215091
0.215105
0.215116
0.215129
0.21514
0.215154
0.215164
0.215178
0.215188
0.215202
0.215212
0.215226
0.215237
0.21525
0.215261
0.215274
0.215285
0.215298
0.21531
0.215323
0.215334
0.215347
0.215358
0.215371
0.215382
0.215395
0.215407
0.215419
0.215431
0.215444
0.215455
0.215468
0.21548
0.215492
0.215504
0.215516
0.215528
0.21554
0.215552
0.215565
0.215577
0.215589
0.215601
0.215613
0.215625
0.215637
0.215649
0.215662
0.215674
0.215686
0.215698
0.21571
0.215722
0.215734
0.215747
0.215759
0.215771
0.215783
0.215795
0.215807
0.215819
0.215831
0.215844
0.215856
0.215868
0.21588
0.215892
0.215904
0.215916
0.215928
0.21594
0.215953
0.215965
0.215977
0.215989
0.216001
0.216013
0.216025
0.216037
0.21605
0.216062
0.216074
0.216086