/*--------------------------------*- C++ -*----------------------------------*\
  =========                 |
  \\      /  F ield         | OpenFOAM: The Open Source CFD Toolbox
   \\    /   O peration     | Website:  https://openfoam.org
    \\  /    A nd           | Version:  9
     \\/     M anipulation  |
\*---------------------------------------------------------------------------*/
FoamFile
{
    format      ascii;
    class       volScalarField;
    location    "0.04";
    object      T;
}
// * * * * * * * * * * * * * * * * * * * * * * * * * * * * * * * * * * * * * //

dimensions      [0 0 0 1 0 0 0];

internalField   nonuniform List<scalar> 
10000
(
185.223
185.224
185.227
185.229
185.231
185.234
185.236
185.239
185.241
185.244
185.246
185.249
185.251
185.254
185.256
185.258
185.261
185.263
185.266
185.268
185.271
185.273
185.276
185.278
185.281
185.283
185.286
185.288
185.29
185.293
185.295
185.298
185.301
185.303
185.305
185.308
185.31
185.312
185.315
185.317
185.32
185.322
185.325
185.327
185.33
185.332
185.334
185.336
185.338
185.341
185.343
185.345
185.347
185.349
185.352
185.355
185.357
185.36
185.363
185.365
185.368
185.37
185.372
185.374
185.375
185.377
185.378
185.379
185.38
185.381
185.381
185.382
185.382
185.382
185.383
185.383
185.383
185.383
185.383
185.383
185.383
185.383
185.383
185.383
185.383
185.383
185.383
185.382
185.382
185.382
185.382
185.382
185.382
185.382
185.382
185.381
185.381
185.381
185.381
185.381
185.381
185.38
185.38
185.38
185.38
185.38
185.38
185.379
185.379
185.379
185.379
185.379
185.378
185.378
185.378
185.378
185.377
185.377
185.377
185.377
185.377
185.376
185.376
185.376
185.375
185.375
185.375
185.375
185.374
185.374
185.374
185.374
185.373
185.373
185.373
185.372
185.372
185.372
185.371
185.371
185.371
185.37
185.37
185.37
185.369
185.369
185.369
185.369
185.368
185.368
185.368
185.367
185.367
185.367
185.366
185.366
185.366
185.365
185.365
185.365
185.365
185.364
185.364
185.364
185.363
185.363
185.363
185.363
185.362
185.362
185.362
185.362
185.361
185.361
185.361
185.361
185.361
185.36
185.36
185.36
185.36
185.36
185.36
185.359
185.359
185.359
185.359
185.359
185.359
185.359
185.359
185.358
185.358
185.358
185.358
185.358
185.358
185.358
185.358
185.358
185.358
185.358
185.357
185.357
185.357
185.357
185.357
185.357
185.357
185.357
185.357
185.357
185.357
185.357
185.357
185.356
185.356
185.356
185.356
185.356
185.356
185.356
185.356
185.356
185.355
185.355
185.355
185.355
185.355
185.355
185.355
185.355
185.354
185.354
185.354
185.354
185.354
185.353
185.353
185.353
185.353
185.353
185.353
185.352
185.352
185.352
185.352
185.351
185.351
185.351
185.351
185.35
185.35
185.35
185.35
185.35
185.349
185.349
185.349
185.349
185.348
185.348
185.348
185.348
185.347
185.347
185.347
185.347
185.346
185.346
185.346
185.346
185.345
185.345
185.345
185.345
185.344
185.344
185.344
185.344
185.344
185.343
185.343
185.343
185.343
185.343
185.342
185.342
185.342
185.342
185.342
185.342
185.341
185.341
185.341
185.341
185.341
185.341
185.341
185.341
185.34
185.34
185.34
185.34
185.34
185.34
185.34
185.34
185.34
185.34
185.34
185.339
185.339
185.339
185.339
185.339
185.339
185.339
185.339
185.339
185.339
185.339
185.339
185.339
185.339
185.339
185.339
185.338
185.338
185.338
185.338
185.338
185.338
185.338
185.338
185.338
185.338
185.338
185.338
185.337
185.337
185.337
185.337
185.337
185.337
185.337
185.337
185.336
185.336
185.336
185.336
185.336
185.336
185.335
185.335
185.335
185.335
185.334
185.334
185.334
185.334
185.333
185.333
185.333
185.333
185.332
185.332
185.332
185.332
185.331
185.331
185.331
185.33
185.33
185.33
185.329
185.329
185.329
185.329
185.328
185.328
185.328
185.327
185.327
185.327
185.326
185.326
185.326
185.325
185.325
185.325
185.324
185.324
185.324
185.323
185.323
185.323
185.322
185.322
185.322
185.321
185.321
185.321
185.321
185.32
185.32
185.32
185.319
185.319
185.319
185.318
185.318
185.318
185.318
185.317
185.317
185.317
185.316
185.316
185.316
185.316
185.315
185.315
185.315
185.315
185.314
185.314
185.314
185.314
185.313
185.313
185.313
185.312
185.312
185.312
185.312
185.311
185.311
185.311
185.311
185.31
185.31
185.31
185.31
185.309
185.309
185.309
185.308
185.308
185.308
185.308
185.307
185.307
185.307
185.307
185.306
185.306
185.306
185.305
185.305
185.305
185.304
185.304
185.304
185.304
185.303
185.303
185.303
185.302
185.302
185.302
185.301
185.301
185.301
185.301
185.3
185.3
185.3
185.299
185.299
185.299
185.299
185.298
185.298
185.298
185.298
185.297
185.297
185.297
185.297
185.296
185.296
185.296
185.296
185.295
185.295
185.295
185.295
185.295
185.295
185.294
185.294
185.294
185.294
185.294
185.294
185.294
185.294
185.294
185.294
185.294
185.294
185.294
185.294
185.294
185.294
185.294
185.294
185.294
185.294
185.294
185.294
185.294
185.294
185.294
185.295
185.295
185.295
185.295
185.295
185.295
185.296
185.296
185.296
185.296
185.296
185.296
185.297
185.297
185.297
185.297
185.297
185.298
185.298
185.298
185.298
185.298
185.299
185.299
185.299
185.299
185.299
185.3
185.3
185.3
185.3
185.3
185.3
185.3
185.3
185.301
185.301
185.301
185.301
185.301
185.301
185.301
185.301
185.301
185.301
185.301
185.301
185.301
185.3
185.3
185.3
185.3
185.3
185.3
185.3
185.299
185.299
185.299
185.299
185.298
185.298
185.298
185.298
185.297
185.297
185.297
185.296
185.296
185.296
185.295
185.295
185.294
185.294
185.294
185.293
185.293
185.292
185.292
185.291
185.291
185.29
185.29
185.29
185.289
185.289
185.288
185.288
185.287
185.287
185.286
185.286
185.285
185.285
185.284
185.284
185.283
185.283
185.282
185.282
185.282
185.281
185.281
185.28
185.28
185.279
185.279
185.278
185.278
185.278
185.277
185.277
185.276
185.276
185.275
185.275
185.275
185.274
185.274
185.273
185.273
185.273
185.272
185.272
185.272
185.271
185.271
185.271
185.27
185.27
185.269
185.269
185.269
185.268
185.268
185.268
185.267
185.267
185.267
185.266
185.266
185.266
185.265
185.265
185.265
185.264
185.264
185.264
185.263
185.263
185.263
185.262
185.262
185.262
185.261
185.261
185.261
185.26
185.26
185.26
185.259
185.259
185.258
185.258
185.258
185.257
185.257
185.257
185.256
185.256
185.256
185.256
185.255
185.255
185.255
185.254
185.254
185.254
185.253
185.253
185.253
185.253
185.252
185.252
185.252
185.252
185.251
185.251
185.251
185.251
185.251
185.25
185.25
185.25
185.25
185.25
185.25
185.25
185.249
185.249
185.249
185.249
185.249
185.249
185.249
185.249
185.249
185.249
185.249
185.249
185.249
185.249
185.249
185.249
185.249
185.249
185.249
185.249
185.249
185.249
185.25
185.25
185.25
185.25
185.25
185.25
185.25
185.25
185.25
185.251
185.251
185.251
185.251
185.251
185.251
185.251
185.251
185.252
185.252
185.252
185.252
185.252
185.252
185.252
185.253
185.253
185.253
185.253
185.253
185.253
185.253
185.253
185.253
185.253
185.254
185.254
185.254
185.254
185.254
185.254
185.254
185.254
185.254
185.254
185.254
185.254
185.254
185.254
185.254
185.254
185.253
185.253
185.253
185.253
185.253
185.253
185.253
185.253
185.252
185.252
185.252
185.252
185.252
185.251
185.251
185.251
185.251
185.25
185.25
185.25
185.249
185.249
185.249
185.248
185.248
185.248
185.247
185.247
185.246
185.246
185.246
185.245
185.245
185.244
185.244
185.243
185.243
185.242
185.242
185.241
185.241
185.24
185.24
185.24
185.239
185.239
185.238
185.238
185.237
185.236
185.236
185.235
185.235
185.234
185.234
185.233
185.233
185.232
185.232
185.231
185.231
185.23
185.23
185.229
185.229
185.228
185.228
185.227
185.227
185.226
185.226
185.226
185.225
185.225
185.224
185.224
185.223
185.223
185.222
185.222
185.222
185.221
185.221
185.22
185.22
185.22
185.219
185.219
185.219
185.218
185.218
185.218
185.217
185.217
185.217
185.217
185.216
185.216
185.216
185.215
185.215
185.215
185.215
185.215
185.214
185.214
185.214
185.214
185.214
185.214
185.213
185.213
185.213
185.213
185.213
185.213
185.213
185.213
185.213
185.213
185.213
185.212
185.212
185.212
185.212
185.212
185.212
185.212
185.212
185.212
185.212
185.212
185.212
185.212
185.212
185.212
185.212
185.212
185.212
185.212
185.212
185.212
185.212
185.212
185.212
185.212
185.212
185.212
185.212
185.212
185.212
185.212
185.211
185.211
185.211
185.211
185.211
185.211
185.211
185.211
185.211
185.211
185.211
185.211
185.21
185.21
185.21
185.21
185.21
185.21
185.21
185.21
185.209
185.209
185.209
185.209
185.209
185.209
185.209
185.208
185.208
185.208
185.208
185.208
185.208
185.208
185.207
185.207
185.207
185.207
185.207
185.207
185.206
185.206
185.206
185.206
185.206
185.206
185.205
185.205
185.205
185.205
185.205
185.205
185.204
185.204
185.204
185.204
185.204
185.204
185.204
185.203
185.203
185.203
185.203
185.203
185.203
185.202
185.202
185.202
185.202
185.202
185.202
185.202
185.201
185.201
185.201
185.201
185.201
185.201
185.2
185.2
185.2
185.2
185.2
185.2
185.199
185.199
185.199
185.199
185.199
185.199
185.198
185.198
185.198
185.198
185.198
185.197
185.197
185.197
185.197
185.197
185.196
185.196
185.196
185.196
185.195
185.195
185.195
185.195
185.194
185.194
185.194
185.194
185.193
185.193
185.193
185.192
185.192
185.192
185.191
185.191
185.191
185.19
185.19
185.19
185.189
185.189
185.189
185.188
185.188
185.188
185.187
185.187
185.186
185.186
185.186
185.185
185.185
185.184
185.184
185.184
185.183
185.183
185.182
185.182
185.182
185.181
185.181
185.18
185.18
185.18
185.179
185.179
185.179
185.178
185.178
185.177
185.177
185.177
185.176
185.176
185.176
185.175
185.175
185.175
185.174
185.174
185.174
185.173
185.173
185.173
185.173
185.172
185.172
185.172
185.172
185.171
185.171
185.171
185.171
185.17
185.17
185.17
185.17
185.169
185.169
185.169
185.169
185.168
185.168
185.168
185.168
185.167
185.167
185.167
185.167
185.167
185.166
185.166
185.166
185.166
185.165
185.165
185.165
185.165
185.164
185.164
185.164
185.164
185.164
185.163
185.163
185.163
185.163
185.163
185.162
185.162
185.162
185.162
185.162
185.161
185.161
185.161
185.161
185.161
185.16
185.16
185.16
185.16
185.16
185.16
185.159
185.159
185.159
185.159
185.159
185.159
185.159
185.158
185.158
185.158
185.158
185.158
185.158
185.158
185.158
185.158
185.157
185.157
185.157
185.157
185.157
185.157
185.157
185.157
185.157
185.156
185.156
185.156
185.156
185.156
185.156
185.156
185.156
185.155
185.155
185.155
185.155
185.155
185.155
185.155
185.154
185.154
185.154
185.154
185.154
185.153
185.153
185.153
185.153
185.152
185.152
185.152
185.152
185.151
185.151
185.151
185.15
185.15
185.15
185.149
185.149
185.149
185.148
185.148
185.148
185.147
185.147
185.146
185.146
185.145
185.145
185.145
185.144
185.144
185.143
185.143
185.142
185.142
185.141
185.141
185.14
185.14
185.139
185.139
185.139
185.138
185.138
185.137
185.137
185.136
185.136
185.135
185.135
185.134
185.134
185.133
185.133
185.133
185.132
185.132
185.131
185.131
185.131
185.13
185.13
185.13
185.129
185.129
185.129
185.128
185.128
185.128
185.127
185.127
185.127
185.127
185.126
185.126
185.126
185.126
185.126
185.125
185.125
185.125
185.125
185.125
185.125
185.124
185.124
185.124
185.124
185.124
185.124
185.124
185.123
185.123
185.123
185.123
185.123
185.123
185.123
185.123
185.122
185.122
185.122
185.122
185.122
185.122
185.122
185.121
185.121
185.121
185.121
185.121
185.121
185.12
185.12
185.12
185.12
185.12
185.119
185.119
185.119
185.119
185.119
185.118
185.118
185.118
185.118
185.117
185.117
185.117
185.117
185.116
185.116
185.116
185.116
185.115
185.115
185.115
185.115
185.114
185.114
185.114
185.113
185.113
185.113
185.113
185.113
185.112
185.112
185.112
185.112
185.111
185.111
185.111
185.111
185.11
185.11
185.11
185.11
185.11
185.109
185.109
185.109
185.109
185.108
185.108
185.108
185.108
185.107
185.107
185.107
185.106
185.106
185.106
185.106
185.105
185.105
185.105
185.104
185.104
185.104
185.103
185.103
185.102
185.102
185.102
185.101
185.101
185.1
185.1
185.099
185.099
185.099
185.098
185.098
185.097
185.097
185.096
185.096
185.095
185.095
185.094
185.094
185.093
185.092
185.092
185.091
185.091
185.09
185.09
185.089
185.089
185.088
185.088
185.087
185.087
185.086
185.086
185.085
185.085
185.084
185.084
185.083
185.083
185.082
185.082
185.082
185.081
185.081
185.08
185.08
185.08
185.079
185.079
185.078
185.078
185.078
185.077
185.077
185.077
185.076
185.076
185.076
185.075
185.075
185.075
185.074
185.074
185.074
185.073
185.073
185.073
185.073
185.072
185.072
185.072
185.072
185.071
185.071
185.071
185.071
185.07
185.07
185.07
185.069
185.069
185.069
185.069
185.069
185.068
185.068
185.068
185.068
185.067
185.067
185.067
185.067
185.066
185.066
185.066
185.066
185.065
185.065
185.065
185.065
185.064
185.064
185.064
185.064
185.063
185.063
185.063
185.063
185.063
185.062
185.062
185.062
185.062
185.061
185.061
185.061
185.061
185.061
185.06
185.06
185.06
185.06
185.059
185.059
185.059
185.059
185.058
185.058
185.058
185.058
185.058
185.057
185.057
185.057
185.057
185.056
185.056
185.056
185.056
185.055
185.055
185.055
185.054
185.054
185.054
185.054
185.053
185.053
185.053
185.052
185.052
185.052
185.052
185.051
185.051
185.051
185.05
185.05
185.05
185.049
185.049
185.049
185.048
185.048
185.048
185.047
185.047
185.047
185.046
185.046
185.046
185.045
185.045
185.045
185.044
185.044
185.044
185.043
185.043
185.043
185.042
185.042
185.042
185.041
185.041
185.041
185.04
185.04
185.04
185.039
185.039
185.039
185.038
185.038
185.038
185.037
185.037
185.037
185.036
185.036
185.036
185.035
185.035
185.035
185.034
185.034
185.034
185.033
185.033
185.033
185.032
185.032
185.032
185.031
185.031
185.031
185.031
185.03
185.03
185.03
185.029
185.029
185.029
185.028
185.028
185.028
185.028
185.027
185.027
185.027
185.026
185.026
185.026
185.025
185.025
185.025
185.024
185.024
185.024
185.024
185.023
185.023
185.023
185.022
185.022
185.022
185.022
185.021
185.021
185.021
185.021
185.02
185.02
185.02
185.02
185.019
185.019
185.019
185.019
185.018
185.018
185.018
185.018
185.018
185.017
185.017
185.017
185.017
185.017
185.017
185.016
185.016
185.016
185.016
185.016
185.015
185.015
185.015
185.015
185.015
185.015
185.014
185.014
185.014
185.014
185.014
185.014
185.013
185.013
185.013
185.013
185.013
185.012
185.012
185.012
185.012
185.012
185.011
185.011
185.011
185.011
185.011
185.01
185.01
185.01
185.01
185.01
185.009
185.009
185.009
185.009
185.009
185.008
185.008
185.008
185.008
185.008
185.007
185.007
185.007
185.007
185.007
185.007
185.006
185.006
185.006
185.006
185.006
185.006
185.005
185.005
185.005
185.005
185.005
185.005
185.004
185.004
185.004
185.004
185.004
185.004
185.003
185.003
185.003
185.003
185.003
185.002
185.002
185.002
185.002
185.001
185.001
185.001
185.001
185
185
185
185
184.999
184.999
184.999
184.998
184.998
184.998
184.997
184.997
184.997
184.996
184.996
184.995
184.995
184.995
184.994
184.994
184.993
184.993
184.993
184.992
184.992
184.992
184.991
184.991
184.99
184.99
184.99
184.989
184.989
184.989
184.988
184.988
184.988
184.988
184.987
184.987
184.987
184.987
184.986
184.986
184.986
184.986
184.986
184.985
184.985
184.985
184.985
184.985
184.985
184.985
184.985
184.984
184.984
184.984
184.984
184.984
184.984
184.984
184.984
184.984
184.984
184.984
184.984
184.984
184.984
184.984
184.984
184.984
184.984
184.984
184.984
184.984
184.984
184.984
184.984
184.984
184.984
184.984
184.984
184.984
184.984
184.984
184.984
184.984
184.984
184.984
184.984
184.984
184.984
184.984
184.984
184.984
184.984
184.984
184.984
184.984
184.984
184.984
184.984
184.984
184.984
184.984
184.984
184.984
184.984
184.984
184.984
184.984
184.984
184.984
184.984
184.984
184.984
184.984
184.984
184.983
184.983
184.983
184.983
184.983
184.983
184.983
184.983
184.983
184.983
184.983
184.982
184.982
184.982
184.982
184.982
184.982
184.982
184.982
184.982
184.981
184.981
184.981
184.981
184.981
184.981
184.981
184.981
184.981
184.98
184.98
184.98
184.98
184.98
184.98
184.98
184.98
184.98
184.979
184.979
184.979
184.979
184.979
184.979
184.979
184.979
184.979
184.978
184.978
184.978
184.978
184.978
184.978
184.978
184.978
184.977
184.977
184.977
184.977
184.977
184.977
184.977
184.977
184.976
184.976
184.976
184.976
184.976
184.976
184.976
184.976
184.976
184.975
184.975
184.975
184.975
184.975
184.975
184.975
184.975
184.974
184.974
184.974
184.974
184.974
184.974
184.974
184.974
184.974
184.974
184.973
184.973
184.973
184.973
184.973
184.973
184.973
184.973
184.973
184.973
184.973
184.972
184.972
184.972
184.972
184.972
184.972
184.972
184.972
184.972
184.972
184.972
184.972
184.972
184.972
184.972
184.971
184.971
184.971
184.971
184.971
184.971
184.971
184.971
184.971
184.971
184.971
184.971
184.971
184.971
184.971
184.971
184.971
184.971
184.972
184.972
184.972
184.972
184.972
184.972
184.972
184.972
184.972
184.972
184.972
184.972
184.972
184.972
184.972
184.972
184.972
184.973
184.973
184.973
184.973
184.973
184.973
184.973
184.973
184.973
184.973
184.973
184.973
184.973
184.973
184.973
184.973
184.973
184.973
184.973
184.973
184.973
184.973
184.973
184.973
184.973
184.973
184.973
184.973
184.973
184.973
184.973
184.973
184.973
184.973
184.973
184.973
184.973
184.972
184.972
184.972
184.972
184.972
184.972
184.972
184.972
184.972
184.972
184.972
184.972
184.972
184.972
184.972
184.972
184.972
184.972
184.972
184.972
184.972
184.972
184.972
184.972
184.972
184.972
184.972
184.972
184.972
184.972
184.972
184.972
184.972
184.972
184.972
184.972
184.972
184.972
184.972
184.972
184.972
184.972
184.972
184.972
184.972
184.973
184.973
184.973
184.973
184.973
184.973
184.973
184.973
184.973
184.973
184.973
184.973
184.973
184.973
184.973
184.973
184.973
184.973
184.973
184.973
184.974
184.974
184.974
184.974
184.974
184.974
184.974
184.974
184.974
184.974
184.974
184.974
184.974
184.974
184.974
184.974
184.974
184.974
184.974
184.974
184.974
184.974
184.974
184.974
184.975
184.975
184.975
184.975
184.975
184.975
184.975
184.975
184.975
184.975
184.975
184.976
184.976
184.976
184.976
184.976
184.976
184.977
184.977
184.977
184.977
184.977
184.978
184.978
184.978
184.978
184.978
184.979
184.979
184.979
184.98
184.98
184.98
184.98
184.981
184.981
184.981
184.982
184.982
184.982
184.983
184.983
184.983
184.984
184.984
184.984
184.985
184.985
184.985
184.986
184.986
184.986
184.987
184.987
184.987
184.988
184.988
184.989
184.989
184.989
184.99
184.99
184.99
184.991
184.991
184.991
184.992
184.992
184.992
184.993
184.993
184.993
184.994
184.994
184.994
184.995
184.995
184.996
184.996
184.996
184.997
184.997
184.998
184.998
184.998
184.999
184.999
185
185
185.001
185.001
185.002
185.002
185.003
185.003
185.004
185.004
185.005
185.005
185.006
185.006
185.007
185.007
185.008
185.008
185.009
185.009
185.01
185.01
185.011
185.011
185.012
185.012
185.013
185.014
185.014
185.015
185.015
185.016
185.016
185.017
185.017
185.018
185.018
185.019
185.019
185.02
185.02
185.021
185.021
185.022
185.022
185.023
185.023
185.024
185.025
185.025
185.026
185.026
185.027
185.027
185.028
185.028
185.029
185.03
185.03
185.031
185.031
185.032
185.033
185.033
185.034
185.034
185.035
185.036
185.036
185.037
185.037
185.038
185.039
185.039
185.04
185.04
185.041
185.042
185.042
185.043
185.043
185.044
185.045
185.045
185.046
185.046
185.047
185.048
185.048
185.049
185.05
185.05
185.051
185.052
185.052
185.053
185.054
185.054
185.055
185.056
185.057
185.057
185.058
185.059
185.06
185.061
185.061
185.062
185.063
185.064
185.065
185.066
185.066
185.067
185.068
185.069
185.07
185.071
185.072
185.073
185.073
185.074
185.075
185.076
185.077
185.078
185.079
185.08
185.081
185.082
185.083
185.083
185.084
185.085
185.086
185.087
185.088
185.089
185.09
185.091
185.092
185.094
185.095
185.096
185.097
185.098
185.099
185.1
185.102
185.103
185.104
185.105
185.106
185.108
185.109
185.11
185.112
185.113
185.114
185.116
185.117
185.118
185.12
185.121
185.122
185.124
185.125
185.127
185.128
185.129
185.131
185.132
185.134
185.135
185.137
185.138
185.14
185.142
185.143
185.145
185.147
185.149
185.15
185.152
185.154
185.156
185.158
185.16
185.162
185.164
185.166
185.169
185.171
185.173
185.175
185.178
185.18
185.183
185.185
185.188
185.19
185.193
185.196
185.198
185.201
185.204
185.206
185.209
185.212
185.215
185.217
185.22
185.223
185.226
185.229
185.232
185.235
185.237
185.24
185.243
185.246
185.249
185.252
185.255
185.258
185.261
185.264
185.267
185.27
185.274
185.277
185.28
185.283
185.286
185.29
185.293
185.296
185.299
185.303
185.306
185.309
185.313
185.316
185.32
185.323
185.327
185.33
185.334
185.337
185.341
185.344
185.348
185.351
185.355
185.358
185.362
185.366
185.369
185.373
185.376
185.38
185.383
185.387
185.39
185.394
185.398
185.401
185.405
185.408
185.412
185.415
185.419
185.422
185.426
185.429
185.433
185.436
185.44
185.443
185.447
185.45
185.454
185.457
185.461
185.464
185.468
185.471
185.475
185.478
185.482
185.485
185.489
185.492
185.496
185.499
185.503
185.506
185.51
185.514
185.517
185.521
185.524
185.528
185.531
185.535
185.539
185.542
185.546
185.55
185.553
185.557
185.56
185.564
185.568
185.571
185.575
185.579
185.582
185.586
185.59
185.593
185.597
185.601
185.604
185.608
185.612
185.616
185.619
185.623
185.627
185.63
185.634
185.638
185.642
185.645
185.649
185.653
185.657
185.66
185.664
185.668
185.672
185.675
185.679
185.683
185.687
185.691
185.694
185.698
185.702
185.706
185.71
185.713
185.717
185.721
185.725
185.729
185.733
185.736
185.74
185.744
185.748
185.752
185.756
185.76
185.763
185.767
185.771
185.775
185.779
185.783
185.787
185.791
185.795
185.799
185.803
185.806
185.81
185.814
185.818
185.822
185.826
185.83
185.834
185.838
185.842
185.846
185.85
185.854
185.858
185.862
185.866
185.87
185.874
185.878
185.882
185.886
185.89
185.894
185.898
185.903
185.907
185.911
185.915
185.919
185.923
185.927
185.931
185.935
185.939
185.943
185.947
185.952
185.956
185.96
185.964
185.968
185.972
185.976
185.98
185.984
185.989
185.993
185.997
186.001
186.005
186.009
186.013
186.018
186.022
186.026
186.03
186.034
186.038
186.043
186.047
186.051
186.055
186.059
186.063
186.068
186.072
186.076
186.08
186.084
186.088
186.093
186.097
186.101
186.105
186.109
186.114
186.118
186.122
186.126
186.13
186.134
186.139
186.143
186.147
186.151
186.155
186.16
186.164
186.168
186.172
186.176
186.18
186.185
186.189
186.193
186.197
186.201
186.206
186.21
186.214
186.218
186.222
186.226
186.231
186.235
186.239
186.243
186.247
186.252
186.256
186.26
186.264
186.268
186.272
186.277
186.281
186.285
186.289
186.293
186.297
186.302
186.306
186.31
186.314
186.318
186.322
186.327
186.331
186.335
186.339
186.343
186.347
186.352
186.356
186.36
186.364
186.368
186.372
186.377
186.381
186.385
186.389
186.393
186.397
186.402
186.406
186.41
186.414
186.418
186.422
186.427
186.431
186.435
186.439
186.443
186.448
186.452
186.456
186.46
186.464
186.468
186.473
186.477
186.481
186.485
186.489
186.494
186.498
186.502
186.506
186.51
186.515
186.519
186.523
186.527
186.531
186.536
186.54
186.544
186.548
186.552
186.557
186.561
186.565
186.569
186.573
186.577
186.582
186.586
186.59
186.594
186.599
186.603
186.607
186.611
186.615
186.62
186.624
186.628
186.632
186.636
186.641
186.645
186.649
186.653
186.658
186.662
186.666
186.67
186.674
186.678
186.683
186.687
186.691
186.695
186.7
186.704
186.708
186.712
186.716
186.721
186.725
186.729
186.733
186.737
186.742
186.746
186.75
186.754
186.758
186.763
186.767
186.771
186.775
186.779
186.784
186.788
186.792
186.796
186.8
186.805
186.809
186.813
186.817
186.821
186.826
186.83
186.834
186.838
186.842
186.846
186.851
186.855
186.859
186.863
186.867
186.872
186.876
186.88
186.884
186.888
186.892
186.897
186.901
186.905
186.909
186.913
186.918
186.922
186.926
186.93
186.934
186.938
186.943
186.947
186.951
186.955
186.959
186.963
186.968
186.972
186.976
186.98
186.984
186.989
186.993
186.997
187.001
187.005
187.009
187.014
187.018
187.022
187.026
187.03
187.035
187.039
187.043
187.047
187.051
187.055
187.06
187.064
187.068
187.072
187.076
187.081
187.085
187.089
187.093
187.097
187.102
187.106
187.11
187.114
187.118
187.123
187.127
187.131
187.135
187.139
187.144
187.148
187.152
187.156
187.16
187.165
187.169
187.173
187.177
187.181
187.186
187.19
187.194
187.198
187.203
187.207
187.211
187.215
187.219
187.224
187.228
187.232
187.236
187.24
187.245
187.249
187.253
187.257
187.262
187.266
187.27
187.274
187.278
187.283
187.287
187.291
187.295
187.3
187.304
187.308
187.312
187.317
187.321
187.325
187.329
187.333
187.338
187.342
187.346
187.35
187.355
187.359
187.363
187.367
187.371
187.376
187.38
187.384
187.388
187.393
187.397
187.401
187.405
187.409
187.414
187.418
187.422
187.426
187.431
187.435
187.439
187.443
187.447
187.452
187.456
187.46
187.464
187.469
187.473
187.477
187.481
187.485
187.49
187.494
187.498
187.502
187.506
187.511
187.515
187.519
187.523
187.528
187.532
187.536
187.54
187.544
187.549
187.553
187.557
187.561
187.565
187.57
187.574
187.578
187.582
187.587
187.591
187.595
187.599
187.603
187.608
187.612
187.616
187.62
187.624
187.629
187.633
187.637
187.641
187.645
187.65
187.654
187.658
187.662
187.667
187.671
187.675
187.679
187.683
187.688
187.692
187.696
187.7
187.705
187.709
187.713
187.717
187.721
187.726
187.73
187.734
187.738
187.743
187.747
187.751
187.755
187.759
187.764
187.768
187.772
187.776
187.781
187.785
187.789
187.793
187.797
187.802
187.806
187.81
187.814
187.819
187.823
187.827
187.831
187.835
187.84
187.844
187.848
187.852
187.857
187.861
187.865
187.869
187.874
187.878
187.882
187.886
187.891
187.895
187.899
187.903
187.908
187.911
187.916
187.92
187.925
187.928
187.933
187.937
187.942
187.945
187.95
187.954
187.959
187.962
187.967
187.97
187.976
187.979
187.984
187.987
187.993
187.996
188.001
188.004
188.01
188.013
188.018
188.021
188.027
188.029
188.035
188.038
188.044
188.046
188.052
188.055
188.06
188.063
188.069
188.072
188.077
188.08
188.086
188.089
188.094
188.097
188.103
188.106
188.111
188.114
188.12
188.122
188.128
188.131
188.137
188.139
188.145
188.148
188.153
188.156
188.162
188.165
188.17
188.173
188.179
188.182
188.187
188.19
188.196
188.199
188.204
188.207
188.213
188.216
188.221
188.224
188.23
188.232
188.238
188.241
188.247
188.249
188.255
188.258
188.264
188.266
188.272
188.275
188.28
188.283
188.289
188.292
188.297
188.3
188.306
188.309
188.314
188.317
188.323
188.326
188.331
188.334
188.34
188.343
188.348
188.351
188.357
188.36
188.365
188.368
188.374
188.377
188.382
188.385
188.391
188.394
188.399
188.403
188.407
188.411
188.416
188.42
188.424
188.428
188.433
188.437
188.441
188.445
188.45
188.454
188.458
188.462
188.467
188.471
188.475
188.479
188.484
188.488
188.492
188.496
188.501
188.505
188.509
188.514
188.518
188.522
188.526
188.531
188.535
188.539
188.543
188.548
188.552
188.556
188.56
188.565
188.569
188.573
188.577
188.582
188.586
188.59
188.594
188.599
188.603
188.607
188.611
188.616
188.62
188.624
188.628
188.632
188.637
188.641
188.645
188.649
188.654
188.658
188.662
188.666
188.671
188.675
188.679
188.683
188.688
188.692
188.696
188.7
188.705
188.709
188.713
188.717
188.722
188.726
188.73
188.734
188.739
188.743
188.747
188.751
188.756
188.76
188.764
188.768
188.773
188.777
188.781
188.785
188.789
188.794
188.798
188.802
188.806
188.811
188.815
188.819
188.823
188.828
188.832
188.836
188.84
188.845
188.849
188.853
188.857
188.862
188.866
188.87
188.874
188.879
188.883
188.887
188.891
188.896
188.9
188.904
188.908
188.913
188.917
188.921
188.926
188.93
188.934
188.938
188.943
188.947
188.951
188.955
188.96
188.964
188.968
188.972
188.977
188.981
188.985
188.989
188.994
188.998
189.002
189.006
189.011
189.015
189.019
189.023
189.028
189.032
189.036
189.04
189.045
189.049
189.053
189.058
189.062
189.066
189.07
189.075
189.079
189.083
189.087
189.092
189.096
189.1
189.104
189.109
189.113
189.117
189.121
189.126
189.13
189.134
189.138
189.143
189.147
189.151
189.156
189.16
189.164
189.168
189.173
189.177
189.181
189.185
189.19
189.194
189.198
189.202
189.207
189.211
189.215
189.219
189.224
189.228
189.232
189.236
189.241
189.245
189.249
189.253
189.258
189.262
189.266
189.27
189.275
189.279
189.283
189.287
189.292
189.296
189.3
189.304
189.309
189.313
189.317
189.322
189.326
189.33
189.334
189.339
189.343
189.347
189.351
189.356
189.36
189.364
189.368
189.373
189.377
189.381
189.385
189.39
189.394
189.398
189.403
189.407
189.411
189.415
189.42
189.424
189.428
189.432
189.437
189.441
189.445
189.45
189.454
189.458
189.462
189.467
189.471
189.475
189.479
189.484
189.488
189.492
189.497
189.501
189.505
189.509
189.514
189.518
189.522
189.527
189.531
189.535
189.539
189.544
189.548
189.552
189.557
189.561
189.565
189.569
189.574
189.578
189.582
189.587
189.591
189.595
189.599
189.604
189.608
189.612
189.617
189.621
189.625
189.629
189.634
189.638
189.642
189.647
189.651
189.655
189.659
189.664
189.668
189.672
189.677
189.681
189.685
189.689
189.694
189.698
189.702
189.707
189.711
189.715
189.719
189.724
189.728
189.732
189.737
189.741
189.745
189.749
189.754
189.758
189.762
189.767
189.771
189.775
189.779
189.784
189.788
189.792
189.797
189.801
189.805
189.809
189.814
189.818
189.822
189.827
189.831
189.835
189.839
189.844
189.848
189.852
189.857
189.861
189.865
189.869
189.874
189.878
189.882
189.887
189.891
189.895
189.899
189.904
189.908
189.912
189.916
189.921
189.925
189.929
189.934
189.938
189.942
189.946
189.951
189.955
189.959
189.964
189.968
189.972
189.976
189.981
189.985
189.989
189.994
189.998
190.002
190.006
190.011
190.015
190.019
190.023
190.028
190.032
190.036
190.041
190.045
190.049
190.053
190.058
190.062
190.066
190.071
190.075
190.079
190.083
190.088
190.092
190.096
190.101
190.105
190.109
190.113
190.118
190.122
190.126
190.131
190.135
190.139
190.143
190.148
190.152
190.156
190.161
190.165
190.169
190.173
190.178
190.182
190.186
190.191
190.195
190.199
190.203
190.208
190.212
190.216
190.221
190.225
190.229
190.233
190.238
190.242
190.246
190.251
190.255
190.259
190.263
190.268
190.272
190.276
190.281
190.285
190.289
190.293
190.298
190.302
190.306
190.311
190.315
190.319
190.323
190.328
190.332
190.336
190.341
190.345
190.349
190.353
190.358
190.362
190.366
190.371
190.375
190.379
190.384
190.388
190.392
190.396
190.401
190.405
190.409
190.413
190.418
190.422
190.426
190.431
190.435
190.439
190.444
190.448
190.452