/*--------------------------------*- C++ -*----------------------------------*\
  =========                 |
  \\      /  F ield         | OpenFOAM: The Open Source CFD Toolbox
   \\    /   O peration     | Website:  https://openfoam.org
    \\  /    A nd           | Version:  9
     \\/     M anipulation  |
\*---------------------------------------------------------------------------*/
FoamFile
{
    format      ascii;
    class       volScalarField;
    location    "0.044";
    object      p;
}
// * * * * * * * * * * * * * * * * * * * * * * * * * * * * * * * * * * * * * //

dimensions      [1 -1 -2 0 0 0 0];

internalField   nonuniform List<scalar> 
100
(
14266.9
14250.1
14207.4
14161.8
14128.2
14098.9
14070.1
14041.7
14014.3
13988.4
13963.8
13940.6
13918.7
13898.2
13879.1
13861.6
13845.5
13830.9
13818
13806.6
13796.3
13788.3
13781.5
13776.5
13773.7
13772.2
13772.3
13772.8
13773.9
13776.1
13780.9
13791.2
13812
13840.6
13872.7
13907.2
13943.8
13982.5
14023.6
14067.2
14113.6
14163
14215.4
14270.8
14329
14389.8
14453.1
14518.6
14586.3
14656.1
14727.6
14800.6
14875.3
14951.6
15029.2
15108.1
15188.4
15270.2
15353.1
15437.4
15522.9
15609.8
15697.7
15787.1
15877.2
15968.8
16060.5
16153.7
16246.8
16341.6
16435.7
16531.3
16625.9
16722
16816.7
16913.1
17008.7
17105.9
17202.2
17300.1
17398.3
17499.5
17602.2
17708.3
17817.8
17933.7
18053.2
18180
18311.1
18450.3
18591.6
18737.2
18882
19028.3
19169.1
19308.4
19441.1
19571.3
19694.8
19818.4
)
;

boundaryField
{
    sides
    {
        type            zeroGradient;
    }
    empty
    {
        type            empty;
    }
}


// ************************************************************************* //
