/*--------------------------------*- C++ -*----------------------------------*\
  =========                 |
  \\      /  F ield         | OpenFOAM: The Open Source CFD Toolbox
   \\    /   O peration     | Website:  https://openfoam.org
    \\  /    A nd           | Version:  9
     \\/     M anipulation  |
\*---------------------------------------------------------------------------*/
FoamFile
{
    format      ascii;
    class       surfaceScalarField;
    location    "0.044";
    object      phi;
}
// * * * * * * * * * * * * * * * * * * * * * * * * * * * * * * * * * * * * * //

dimensions      [1 0 -1 0 0 0 0];

internalField   nonuniform List<scalar> 
99
(
52.2894
54.3825
56.4574
58.5211
60.5752
62.6133
64.6398
66.6604
68.6686
70.6581
72.6321
74.5921
76.5358
78.4627
80.3712
82.2687
84.1596
86.0391
87.9095
89.7753
91.6495
93.5255
95.3778
97.2087
99.0319
100.861
102.703
104.532
106.338
108.113
109.885
111.632
113.288
114.938
116.557
118.161
119.754
121.348
122.938
124.529
126.117
127.682
129.231
130.779
132.325
133.871
135.431
136.997
138.55
140.093
141.65
143.226
144.808
146.401
148.01
149.625
151.232
152.846
154.481
156.142
157.826
159.526
161.221
162.915
164.604
166.328
168.083
169.882
171.67
173.449
175.232
177.042
178.898
180.802
182.734
184.66
186.559
188.459
190.403
192.403
194.449
196.504
198.552
200.527
202.477
204.439
206.425
208.44
210.46
212.486
214.518
216.507
218.517
220.579
222.715
224.916
227.179
229.494
231.859
)
;

boundaryField
{
    sides
    {
        type            calculated;
        value           nonuniform List<scalar> 2(234.241 -50.1913);
    }
    empty
    {
        type            empty;
        value           nonuniform List<scalar> 0();
    }
}


// ************************************************************************* //
