/*--------------------------------*- C++ -*----------------------------------*\
  =========                 |
  \\      /  F ield         | OpenFOAM: The Open Source CFD Toolbox
   \\    /   O peration     | Website:  https://openfoam.org
    \\  /    A nd           | Version:  9
     \\/     M anipulation  |
\*---------------------------------------------------------------------------*/
FoamFile
{
    format      ascii;
    class       volScalarField;
    location    "0.044";
    object      T;
}
// * * * * * * * * * * * * * * * * * * * * * * * * * * * * * * * * * * * * * //

dimensions      [0 0 0 1 0 0 0];

internalField   nonuniform List<scalar> 
100
(
198.241
198.152
198.022
197.927
197.844
197.782
197.74
197.676
197.6
197.549
197.519
197.488
197.473
197.476
197.49
197.514
197.529
197.545
197.562
197.569
197.554
197.499
197.476
197.48
197.489
197.478
197.436
197.42
197.424
197.445
197.484
197.529
197.607
197.7
197.811
197.954
198.126
198.298
198.473
198.646
198.802
198.982
199.212
199.451
199.691
199.95
200.202
200.436
200.689
200.987
201.296
201.582
201.868
202.17
202.462
202.752
203.07
203.417
203.756
204.087
204.393
204.708
205.011
205.38
205.722
206.145
206.438
206.824
207.051
207.512
207.803
208.3
208.571
209
209.212
209.623
209.902
210.412
210.729
211.186
211.413
211.807
212.038
212.525
212.869
213.465
213.797
214.363
214.658
215.237
215.55
216.204
216.581
217.278
217.616
218.23
218.508
219.088
219.286
219.91
)
;

boundaryField
{
    sides
    {
        type            zeroGradient;
    }
    empty
    {
        type            empty;
    }
}


// ************************************************************************* //
