/*--------------------------------*- C++ -*----------------------------------*\
  =========                 |
  \\      /  F ield         | OpenFOAM: The Open Source CFD Toolbox
   \\    /   O peration     | Website:  https://openfoam.org
    \\  /    A nd           | Version:  9
     \\/     M anipulation  |
\*---------------------------------------------------------------------------*/
FoamFile
{
    format      ascii;
    class       volScalarField;
    location    "0.05";
    object      mag(U);
}
// * * * * * * * * * * * * * * * * * * * * * * * * * * * * * * * * * * * * * //

dimensions      [0 1 -1 0 0 0 0];

internalField   nonuniform List<scalar> 
1000
(
19.311
19.4518
19.6899
19.9383
20.0972
20.2523
20.4153
20.5888
20.7686
20.9506
21.1313
21.3114
21.4928
21.6757
21.8598
22.0443
22.2289
22.4132
22.5969
22.7796
22.9599
23.1355
23.3086
23.4815
23.6541
23.8265
23.9984
24.1705
24.3425
24.5151
24.6874
24.8598
25.0323
25.2041
25.3768
25.5487
25.7213
25.8935
26.0649
26.2378
26.4084
26.5804
26.7526
26.9221
27.0947
27.2644
27.434
27.6054
27.7722
27.9425
28.1102
28.276
28.446
28.6085
28.7754
28.9427
29.1011
29.2666
29.4248
29.5808
29.7455
29.8982
30.0567
30.2164
30.3637
30.5229
30.6735
30.82
30.9778
31.1203
31.2698
31.4199
31.5576
31.7097
31.8497
31.9894
32.1411
32.2692
32.4096
32.5612
32.682
32.8208
32.9761
33.0932
33.2226
33.386
33.5146
33.6196
33.7761
33.9452
34.0478
34.1461
34.3209
34.5075
34.6472
34.7702
34.8578
34.9253
35.0601
35.2303
35.3403
35.4025
35.4984
35.6466
35.755
35.8125
35.9123
36.0676
36.1553
36.1891
36.3436
36.559
36.5954
36.5878
36.8163
37.1078
37.1197
37.0226
37.1681
37.4541
37.519
37.4524
37.5787
37.8807
38.109
38.2684
38.4209
38.5745
38.7329
38.9003
39.0815
39.2153
39.1335
38.9535
38.9768
39.2631
39.5847
39.7667
39.9154
40.0581
40.1966
40.3315
40.4633
40.5926
40.7206
40.8483
40.9762
41.1054
41.2374
41.3744
41.5206
41.6813
41.7977
41.6973
41.4986
41.4517
41.6345
41.9437
42.1312
42.248
42.3575
42.4661
42.5745
42.6826
42.7904
42.898
43.0054
43.1124
43.2188
43.3244
43.4295
43.5346
43.6398
43.7447
43.8492
43.9532
44.0569
44.1606
44.2642
44.3675
44.4706
44.5734
44.6761
44.7785
44.8806
44.9823
45.0837
45.1853
45.287
45.3887
45.4899
45.5907
45.6915
45.7924
45.8935
45.9943
46.0947
46.1951
46.2959
46.3971
46.4985
46.5994
46.6996
46.7995
46.8996
47.0001
47.1008
47.2012
47.3012
47.4004
47.4991
47.598
47.6973
47.7969
47.8965
47.9958
48.0948
48.1942
48.2945
48.3956
48.4976
48.5994
48.6983
48.7904
48.8739
48.9509
49.0254
49.1008
49.1781
49.259
49.3457
49.4414
49.5492
49.6699
49.8017
49.9409
50.0839
50.2271
50.3684
50.5073
50.6433
50.7754
50.9021
51.023
51.1386
51.2503
51.3597
51.4682
51.5765
51.6845
51.7916
51.8981
52.0041
52.1099
52.2156
52.321
52.4265
52.5326
52.6392
52.746
52.8531
52.9605
53.0683
53.1764
53.2848
53.3936
53.5028
53.612
53.7213
53.8311
53.9413
54.0509
54.1594
54.2674
54.3772
54.4895
54.6016
54.7106
54.8155
54.9173
55.0183
55.1214
55.23
55.346
55.4687
55.5945
55.7192
55.8408
55.959
56.0744
56.1882
56.3016
56.415
56.5283
56.642
56.7568
56.8721
56.9888
57.1091
57.2346
57.3667
57.5085
57.666
57.8247
57.8079
57.6049
57.4866
57.5289
57.7685
58.0436
58.1535
58.1448
58.2334
58.5402
58.7149
58.6358
58.6644
59.0488
59.384
59.3499
59.2012
59.2635
59.5892
59.8875
60.0358
60.1595
60.2787
60.3953
60.5104
60.6244
60.7376
60.8498
60.9606
61.0698
61.1777
61.2854
61.3935
61.5019
61.6105
61.7196
61.8297
61.9402
62.0501
62.1591
62.2678
62.3762
62.4842
62.5907
62.6959
62.8011
62.9066
63.0124
63.1173
63.2202
63.3225
63.4253
63.5298
63.6366
63.7454
63.8535
63.9592
64.0613
64.1586
64.2525
64.3463
64.4444
64.5507
64.6653
64.785
64.9063
65.0268
65.1462
65.2647
65.3816
65.4963
65.6087
65.72
65.8318
65.9452
66.0596
66.1738
66.2869
66.399
66.5098
66.6201
66.7305
66.8423
66.9555
67.0689
67.1819
67.2938
67.4048
67.516
67.6291
67.7445
67.8609
67.9769
68.0913
68.2033
68.3129
68.4208
68.5282
68.6356
68.7433
68.8503
68.9537
69.0517
69.1469
69.2449
69.3476
69.4528
69.5596
69.6697
69.7878
69.9184
70.0607
70.1498
70.0384
69.8611
69.8502
69.8829
69.9315
70.1017
70.2798
70.3628
70.42
70.4495
70.465
70.5762
70.7307
70.785
70.8003
70.9164
71.0862
71.1595
71.1595
71.2182
71.3956
71.5197
71.5704
71.6153
71.6555
71.6844
71.6851
71.653
71.7211
71.8767
71.9455
71.9399
71.9011
71.9711
72.1195
72.1717
72.1479
72.1109
72.2057
72.3495
72.3814
72.3459
72.3035
72.4002
72.54
72.5622
72.5138
72.47
72.5721
72.7004
72.7021
72.6297
72.6142
72.7376
72.8209
72.7796
72.6946
72.7476
72.8832
72.8986
72.8216
72.7338
72.8133
72.9491
72.9517
72.8886
72.7634
72.7286
72.8659
72.9547
72.9211
72.8465
72.7224
72.6416
72.7281
72.8074
72.7284
72.6239
72.6859
72.7917
72.7403
72.5822
72.5543
72.6865
72.7143
72.6037
72.4202
72.2702
72.372
72.57
72.5917
72.5497
72.4926
72.4176
72.2931
72.1139
72.1257
72.2976
72.3129
72.1883
71.9835
71.8133
71.8503
71.8794
71.7122
71.4923
71.2931
71.0833
70.8648
70.6649
70.5399
70.4404
70.2899
70.0813
70.1096
70.2792
70.2445
70.0926
69.9246
69.7516
69.559
69.3221
69.0252
68.9049
68.9519
68.8533
68.5615
68.3476
68.3575
68.3204
68.0638
67.808
67.796
67.8078
67.6012
67.3127
67.2543
67.3186
67.2016
66.9272
66.7248
66.7672
66.7934
66.6068
66.3315
66.2648
66.3579
66.2922
66.0543
65.8308
65.8483
65.8993
65.7308
65.465
65.3955
65.4414
65.3052
65.0484
64.9908
65.0289
64.8879
64.6253
64.5518
64.6287
64.572
64.3947
64.1586
63.9745
64.015
64.0714
63.9462
63.7211
63.5931
63.6694
63.7011
63.5594
63.3518
63.332
63.4538
63.4397
63.3071
63.1096
63.0592
63.1941
63.2349
63.1423
62.9928
62.8254
62.8406
62.9479
62.8948
62.7321
62.715
62.8309
62.8315
62.7027
62.579
62.6446
62.7501
62.7032
62.5642
62.4989
62.6086
62.6854
62.625
62.4963
62.4764
62.6042
62.6572
62.5862
62.4895
62.5524
62.6918
62.7018
62.6239
62.5844
62.7085
62.8314
62.8265
62.7585
62.7724
62.9318
63.0398
63.043
62.9974
63.0437
63.223
63.3372
63.3637
63.3472
63.4064
63.6031
63.758
63.8328
63.8681
63.9492
64.1551
64.3378
64.4419
64.5043
64.6056
64.8219
65.0157
65.1337
65.1986
65.3442
65.5768
65.7605
65.88
65.9642
66.155
66.3907
66.5721
66.6762
66.8151
67.0327
67.258
67.4242
67.5094
67.6936
67.9393
68.164
68.3277
68.4483
68.6288
68.8847
69.1145
69.2268
69.3575
69.5634
69.8358
70.082
70.2183
70.3085
70.491
70.7944
71.0167
71.1601
71.2265
71.4125
71.7094
71.9254
72.0813
72.1495
72.3092
72.6037
72.8475
72.9445
72.9934
73.1981
73.4997
73.6731
73.7011
73.7867
74.0777
74.3456
74.3962
74.3777
74.5761
74.9254
75.0851
75.0418
75.0853
75.4308
75.7685
75.789
75.6995
75.9141
76.3693
76.5662
76.4604
76.4614
76.8733
77.3045
77.3104
77.1585
77.3688
77.9026
78.161
78.0304
77.9724
78.3947
78.9232
78.9805
78.7962
78.9348
79.5022
79.9011
79.8154
79.6708
80.0166
80.6394
80.8553
80.6871
80.6732
81.1832
81.7665
81.8176
81.6222
81.7774
82.3992
82.8665
82.8007
82.6346
82.9568
83.6319
83.9503
83.8069
83.7197
84.1764
84.8506
85.0308
84.8428
84.8569
85.4105
86.0405
86.1076
85.8984
86.0074
86.6278
87.2064
87.202
86.9848
87.1609
87.8203
88.3556
88.311
88.0943
88.3027
88.9808
89.5083
89.4562
89.2374
89.4386
90.1218
90.6865
90.661
90.4375
90.5793
91.2317
91.8877
91.9491
91.728
91.7484
92.2985
93.0572
93.3175
93.1451
93.0139
93.3325
94.0853
94.6632
94.6547
94.4451
94.5669
95.166
95.8392
96.2824
96.5864
96.5004
96.2592
96.2752
96.6565
97.4396
98.0183
98.0032
97.7673
97.8566
98.4789
99.2126
99.3633
99.1513
99.1263
99.6586
100.426
100.679
100.49
100.408
100.892
101.656
101.935
101.757
101.683
102.181
102.929
103.159
102.968
102.943
103.496
104.224
104.375
104.167
104.21
104.82
105.502
105.57
105.352
105.481
106.149
106.765
106.759
106.542
106.746
107.455
108.017
107.965
107.746
107.971
108.694
109.269
109.223
108.988
109.141
109.821
110.504
110.559
110.314
110.304
110.83
111.624
111.936
111.754
111.571
111.81
112.538
113.213
113.265
113.019
112.962
113.346
114.14
114.68
114.628
114.396
114.404
114.801
115.597
116.145
116.102
115.872
115.87
116.19
116.942
117.599
117.707
117.512
117.459
117.557
117.712
118.284
119.098
119.454
119.298
119.081
119.155
119.678
120.498
120.905
120.763
120.51
120.619
121.242
122.024
122.241
122.011
121.847
122.179
122.961
123.52
123.449
123.181
123.292
123.947
124.678
124.782
124.525
124.478
124.999
125.792
126.071
125.863
125.702
126.073
126.866
127.35
127.234
126.99
127.148
127.835
128.569
128.671
128.419
128.338
128.754
129.551
130.001
129.923
129.786
129.851
130.005
130.573
131.398
131.744
131.583
131.394
131.475
131.979
132.817
133.285
133.172
132.908
132.98
133.568
134.392
134.687
134.483
134.299
134.638
135.436
135.974
135.885
135.646
135.864
136.605
137.232
137.206
136.966
137.068
137.719
138.516
138.698
138.492
138.395
138.626
139.345
140.166
140.282
140.044
139.958
140.136
140.888
141.825
141.664
)
;

boundaryField
{
    sides
    {
        type            calculated;
        value           nonuniform List<scalar> 2(141.664 19.311);
    }
    empty
    {
        type            empty;
    }
}


// ************************************************************************* //
