/*--------------------------------*- C++ -*----------------------------------*\
  =========                 |
  \\      /  F ield         | OpenFOAM: The Open Source CFD Toolbox
   \\    /   O peration     | Website:  https://openfoam.org
    \\  /    A nd           | Version:  9
     \\/     M anipulation  |
\*---------------------------------------------------------------------------*/
FoamFile
{
    format      ascii;
    class       volScalarField;
    location    "0.05";
    object      T;
}
// * * * * * * * * * * * * * * * * * * * * * * * * * * * * * * * * * * * * * //

dimensions      [0 0 0 1 0 0 0];

internalField   nonuniform List<scalar> 
1000
(
173.224
173.221
173.219
173.215
173.213
173.211
173.21
173.208
173.207
173.206
173.205
173.204
173.204
173.203
173.203
173.202
173.202
173.201
173.201
173.202
173.203
173.206
173.209
173.213
173.216
173.221
173.224
173.229
173.233
173.237
173.241
173.245
173.249
173.252
173.258
173.261
173.266
173.271
173.275
173.281
173.284
173.289
173.295
173.298
173.306
173.31
173.315
173.323
173.326
173.335
173.34
173.345
173.356
173.359
173.368
173.379
173.381
173.395
173.401
173.405
173.422
173.424
173.434
173.448
173.449
173.468
173.476
173.48
173.502
173.504
173.518
173.534
173.535
173.558
173.564
173.57
173.594
173.593
173.605
173.627
173.624
173.635
173.661
173.659
173.661
173.697
173.703
173.689
173.721
173.751
173.748
173.73
173.779
173.812
173.825
173.837
173.837
173.811
173.838
173.879
173.888
173.869
173.87
173.913
173.923
173.904
173.909
173.959
173.963
173.918
173.964
174.047
174.016
173.938
174.038
174.154
174.113
173.998
174.042
174.177
174.16
174.06
174.083
174.224
174.268
174.299
174.331
174.363
174.398
174.437
174.482
174.533
174.448
174.325
174.29
174.43
174.532
174.57
174.602
174.632
174.662
174.692
174.721
174.749
174.778
174.807
174.837
174.869
174.901
174.937
174.976
175.022
175.075
174.99
174.864
174.826
174.881
175.033
175.072
175.1
175.126
175.153
175.179
175.206
175.233
175.26
175.287
175.313
175.34
175.368
175.395
175.422
175.449
175.477
175.505
175.532
175.56
175.588
175.616
175.644
175.672
175.7
175.728
175.756
175.785
175.814
175.842
175.871
175.899
175.928
175.957
175.985
176.014
176.043
176.072
176.1
176.129
176.158
176.187
176.216
176.245
176.273
176.302
176.331
176.36
176.39
176.419
176.448
176.477
176.506
176.535
176.564
176.593
176.622
176.651
176.679
176.708
176.737
176.766
176.794
176.821
176.848
176.876
176.904
176.934
176.963
176.99
177.016
177.039
177.062
177.086
177.113
177.144
177.177
177.213
177.251
177.29
177.329
177.367
177.404
177.44
177.474
177.507
177.54
177.573
177.605
177.637
177.667
177.697
177.726
177.756
177.785
177.814
177.843
177.872
177.901
177.929
177.958
177.986
178.015
178.043
178.072
178.1
178.129
178.157
178.186
178.214
178.243
178.271
178.3
178.329
178.358
178.386
178.413
178.442
178.471
178.5
178.529
178.555
178.581
178.607
178.633
178.661
178.691
178.723
178.756
178.789
178.82
178.851
178.881
178.911
178.941
178.971
179.001
179.031
179.061
179.092
179.125
179.159
179.195
179.234
179.278
179.329
179.391
179.393
179.193
179.148
179.117
179.249
179.358
179.386
179.333
179.308
179.518
179.571
179.454
179.387
179.65
179.785
179.711
179.586
179.559
179.773
179.867
179.905
179.938
179.971
180.003
180.035
180.066
180.097
180.127
180.158
180.188
180.219
180.249
180.279
180.309
180.338
180.368
180.397
180.427
180.457
180.487
180.517
180.547
180.577
180.606
180.636
180.666
180.696
180.726
180.756
180.786
180.816
180.845
180.874
180.905
180.936
180.968
180.999
181.028
181.056
181.083
181.111
181.14
181.171
181.205
181.24
181.275
181.311
181.346
181.38
181.415
181.449
181.483
181.516
181.55
181.585
181.62
181.654
181.689
181.724
181.759
181.793
181.828
181.864
181.901
181.937
181.974
182.01
182.046
182.084
182.122
182.16
182.199
182.238
182.277
182.315
182.353
182.39
182.428
182.465
182.502
182.539
182.577
182.618
182.66
182.703
182.746
182.789
182.834
182.88
182.928
182.983
183.044
183.106
183.012
182.895
182.901
182.923
182.902
183.03
183.109
183.14
183.164
183.18
183.161
183.231
183.321
183.34
183.321
183.392
183.494
183.522
183.516
183.521
183.699
183.761
183.804
183.846
183.885
183.921
183.944
183.928
183.981
184.122
184.164
184.187
184.169
184.237
184.374
184.415
184.433
184.409
184.523
184.64
184.68
184.697
184.672
184.799
184.916
184.956
184.971
184.947
185.093
185.201
185.237
185.24
185.235
185.418
185.489
185.515
185.492
185.586
185.745
185.791
185.811
185.782
185.928
186.075
186.126
186.159
186.157
186.157
186.39
186.479
186.528
186.561
186.573
186.553
186.743
186.844
186.87
186.845
186.999
187.144
187.189
187.186
187.238
187.505
187.597
187.648
187.672
187.638
187.835
188.045
188.126
188.196
188.265
188.329
188.377
188.374
188.472
188.76
188.847
188.897
188.918
188.883
189.157
189.354
189.445
189.52
189.6
189.664
189.702
189.758
189.841
189.926
189.988
189.986
190.153
190.469
190.575
190.66
190.742
190.821
190.891
190.941
190.943
191.007
191.299
191.378
191.399
191.391
191.67
191.795
191.829
191.808
192.045
192.219
192.268
192.253
192.392
192.648
192.72
192.746
192.731
193.013
193.163
193.216
193.211
193.305
193.591
193.673
193.707
193.684
193.912
194.091
194.14
194.128
194.234
194.466
194.516
194.497
194.624
194.832
194.88
194.865
194.945
195.199
195.272
195.316
195.336
195.309
195.533
195.678
195.726
195.735
195.726
195.977
196.08
196.119
196.101
196.186
196.424
196.492
196.53
196.525
196.553
196.816
196.9
196.946
196.974
196.95
197.063
197.246
197.289
197.276
197.333
197.543
197.599
197.619
197.589
197.753
197.887
197.927
197.931
197.918
198.123
198.208
198.241
198.233
198.248
198.448
198.508
198.531
198.504
198.612
198.758
198.798
198.807
198.785
198.955
199.045
199.077
199.073
199.075
199.255
199.315
199.343
199.333
199.346
199.515
199.565
199.591
199.586
199.583
199.734
199.777
199.797
199.791
199.775
199.9
199.943
199.962
199.953
199.937
200.049
200.086
200.105
200.09
200.086
200.18
200.222
200.23
200.198
200.234
200.308
200.339
200.335
200.292
200.358
200.434
200.445
200.426
200.408
200.49
200.533
200.538
200.48
200.5
200.609
200.644
200.639
200.569
200.611
200.715
200.724
200.721
200.659
200.696
200.799
200.813
200.817
200.762
200.777
200.866
200.907
200.918
200.851
200.844
200.972
201.024
201
200.911
200.969
201.098
201.122
201.034
200.994
201.155
201.233
201.195
201.079
201.155
201.337
201.368
201.226
201.161
201.381
201.503
201.435
201.255
201.323
201.593
201.637
201.415
201.316
201.577
201.757
201.657
201.422
201.46
201.802
201.871
201.609
201.467
201.706
201.957
201.893
201.599
201.567
201.941
202.079
201.847
201.634
201.749
202.111
202.144
201.811
201.684
201.972
202.233
202.138
201.815
201.768
202.165
202.33
202.091
201.842
201.898
202.311
202.388
202.048
201.87
202.058
202.41
202.407
202.026
201.903
202.206
202.484
202.388
202.022
201.938
202.312
202.539
202.362
202.025
201.968
202.38
202.574
202.346
202.031
201.983
202.409
202.595
202.351
202.038
201.98
202.404
202.607
202.394
202.057
201.967
202.35
202.608
202.5
202.101
201.978
202.21
202.589
202.638
202.216
202.042
202.013
202.49
202.677
202.473
202.125
202.028
202.348
202.59
202.676
202.779
202.511
202.171
202.065
202.062
202.565
202.745
202.542
202.161
202.047
202.378
202.71
202.677
202.219
202.074
202.286
202.697
202.732
202.274
202.095
202.255
202.692
202.737
202.285
202.1
202.29
202.706
202.714
202.252
202.093
202.356
202.727
202.676
202.215
202.086
202.431
202.746
202.61
202.182
202.088
202.509
202.766
202.536
202.16
202.098
202.567
202.781
202.492
202.147
202.09
202.572
202.789
202.517
202.152
202.053
202.481
202.77
202.646
202.18
202.041
202.242
202.699
202.777
202.311
202.085
202.006
202.489
202.75
202.631
202.163
202.032
202.047
202.597
202.773
202.504
202.141
202.026
202.048
202.604
202.783
202.532
202.162
202.052
202.01
202.533
202.756
202.724
202.261
202.156
202.076
201.961
202.204
202.684
202.795
202.367
202.095
201.975
202.151
202.669
202.799
202.397
202.075
201.951
202.301
202.708
202.747
202.215
202.015
202.002
202.569
202.77
202.474
202.072
201.953
202.371
202.726
202.658
202.129
201.972
202.189
202.68
202.74
202.22
202
202.029
202.603
202.769
202.38
202.042
201.932
202.386
202.729
202.662
202.127
201.973
202.035
202.606
202.739
202.368
202.129
202.039
201.924
202.154
202.667
202.77
202.296
202.048
201.925
202.057
202.63
202.786
202.411
202.026
201.892
202.175
202.666
202.745
202.207
201.953
201.945
202.537
202.732
202.359
201.975
201.903
202.449
202.705
202.412
201.99
201.856
202.238
202.656
202.649
202.099
201.905
201.824
202.329
202.644
202.622
202.095
201.875
201.834
202.368
202.478
202.425
)
;

boundaryField
{
    sides
    {
        type            zeroGradient;
    }
    empty
    {
        type            empty;
    }
}


// ************************************************************************* //
