/*--------------------------------*- C++ -*----------------------------------*\
  =========                 |
  \\      /  F ield         | OpenFOAM: The Open Source CFD Toolbox
   \\    /   O peration     | Website:  https://openfoam.org
    \\  /    A nd           | Version:  9
     \\/     M anipulation  |
\*---------------------------------------------------------------------------*/
FoamFile
{
    format      ascii;
    class       surfaceScalarField;
    location    "0.031";
    object      phi;
}
// * * * * * * * * * * * * * * * * * * * * * * * * * * * * * * * * * * * * * //

dimensions      [1 0 -1 0 0 0 0];

internalField   nonuniform List<scalar> 
99
(
66.7364
71.6164
76.4578
81.2728
86.0584
90.8144
95.5475
100.274
104.984
109.702
114.391
119.055
123.725
128.355
132.949
137.553
142.136
146.652
151.148
155.669
160.169
164.589
168.966
173.366
177.792
182.166
186.443
190.685
194.959
199.266
203.515
207.664
211.772
215.889
220.051
224.148
228.173
232.152
236.104
240.077
244.094
248.088
252.072
256.008
259.904
263.783
267.569
271.374
275.176
278.952
282.673
286.392
290.173
293.966
297.72
301.45
305.183
308.972
312.852
316.766
320.619
324.409
328.239
332.193
336.273
340.411
344.504
348.523
352.544
356.675
360.959
365.322
369.664
373.967
378.259
382.575
386.971
391.47
396.015
400.548
405.065
409.568
414.057
418.55
423.071
427.621
432.17
436.682
441.113
445.452
449.686
453.847
457.902
461.855
465.612
469.168
472.425
475.51
478.235
)
;

boundaryField
{
    sides
    {
        type            calculated;
        value           nonuniform List<scalar> 2(480.647 -61.8349);
    }
    empty
    {
        type            empty;
        value           nonuniform List<scalar> 0();
    }
}


// ************************************************************************* //
