/*--------------------------------*- C++ -*----------------------------------*\
  =========                 |
  \\      /  F ield         | OpenFOAM: The Open Source CFD Toolbox
   \\    /   O peration     | Website:  https://openfoam.org
    \\  /    A nd           | Version:  9
     \\/     M anipulation  |
\*---------------------------------------------------------------------------*/
FoamFile
{
    format      ascii;
    class       volScalarField;
    location    "0.042";
    object      rho;
}
// * * * * * * * * * * * * * * * * * * * * * * * * * * * * * * * * * * * * * //

dimensions      [1 -3 0 0 0 0 0];

internalField   nonuniform List<scalar> 
10000
(
0.194719
0.194716
0.194713
0.19471
0.194707
0.194704
0.194701
0.194698
0.194696
0.194693
0.19469
0.194687
0.194684
0.194681
0.194678
0.194675
0.194673
0.19467
0.194667
0.194664
0.194661
0.194659
0.194656
0.194653
0.19465
0.194647
0.194645
0.194642
0.194639
0.194636
0.194633
0.19463
0.194627
0.194625
0.194622
0.194619
0.194616
0.194613
0.19461
0.194607
0.194604
0.194601
0.194599
0.194596
0.194593
0.19459
0.194587
0.194584
0.194581
0.194578
0.194575
0.194571
0.194568
0.194565
0.194562
0.194559
0.194556
0.194553
0.19455
0.194548
0.194545
0.194541
0.194538
0.194535
0.194531
0.194528
0.194524
0.19452
0.194517
0.194513
0.19451
0.194506
0.194503
0.1945
0.194498
0.194495
0.194493
0.194491
0.194489
0.194487
0.194485
0.194483
0.194482
0.19448
0.194479
0.194478
0.194476
0.194475
0.194474
0.194473
0.194472
0.194471
0.19447
0.194469
0.194468
0.194467
0.194466
0.194465
0.194464
0.194463
0.194462
0.194462
0.194461
0.19446
0.19446
0.194459
0.194458
0.194458
0.194457
0.194457
0.194456
0.194456
0.194455
0.194455
0.194454
0.194454
0.194454
0.194453
0.194453
0.194453
0.194453
0.194452
0.194452
0.194452
0.194452
0.194452
0.194452
0.194452
0.194452
0.194452
0.194452
0.194452
0.194453
0.194453
0.194453
0.194453
0.194453
0.194453
0.194454
0.194454
0.194454
0.194455
0.194455
0.194455
0.194456
0.194456
0.194456
0.194457
0.194457
0.194457
0.194458
0.194458
0.194458
0.194459
0.194459
0.194459
0.19446
0.19446
0.19446
0.19446
0.194461
0.194461
0.194461
0.194461
0.194462
0.194462
0.194462
0.194462
0.194462
0.194462
0.194462
0.194463
0.194463
0.194463
0.194463
0.194462
0.194462
0.194462
0.194462
0.194462
0.194462
0.194462
0.194461
0.194461
0.194461
0.19446
0.19446
0.19446
0.194459
0.194459
0.194458
0.194458
0.194457
0.194457
0.194456
0.194456
0.194455
0.194454
0.194454
0.194453
0.194452
0.194452
0.194451
0.19445
0.194449
0.194449
0.194448
0.194447
0.194446
0.194445
0.194444
0.194444
0.194443
0.194442
0.194441
0.19444
0.194439
0.194438
0.194437
0.194437
0.194436
0.194435
0.194434
0.194433
0.194432
0.194431
0.19443
0.194429
0.194428
0.194428
0.194427
0.194426
0.194425
0.194424
0.194423
0.194422
0.194422
0.194421
0.19442
0.194419
0.194418
0.194418
0.194417
0.194416
0.194415
0.194414
0.194414
0.194413
0.194412
0.194412
0.194411
0.19441
0.19441
0.194409
0.194408
0.194408
0.194407
0.194406
0.194406
0.194405
0.194405
0.194404
0.194404
0.194403
0.194403
0.194402
0.194402
0.194401
0.194401
0.1944
0.1944
0.194399
0.194399
0.194398
0.194398
0.194397
0.194397
0.194397
0.194396
0.194396
0.194395
0.194395
0.194395
0.194394
0.194394
0.194394
0.194393
0.194393
0.194393
0.194392
0.194392
0.194391
0.194391
0.194391
0.19439
0.19439
0.19439
0.194389
0.194389
0.194389
0.194388
0.194388
0.194388
0.194387
0.194387
0.194387
0.194386
0.194386
0.194385
0.194385
0.194385
0.194384
0.194384
0.194384
0.194383
0.194383
0.194382
0.194382
0.194382
0.194381
0.194381
0.19438
0.19438
0.19438
0.194379
0.194379
0.194379
0.194378
0.194378
0.194377
0.194377
0.194377
0.194376
0.194376
0.194375
0.194375
0.194375
0.194374
0.194374
0.194374
0.194373
0.194373
0.194373
0.194372
0.194372
0.194372
0.194371
0.194371
0.194371
0.19437
0.19437
0.19437
0.194369
0.194369
0.194369
0.194369
0.194368
0.194368
0.194368
0.194368
0.194367
0.194367
0.194367
0.194367
0.194367
0.194367
0.194366
0.194366
0.194366
0.194366
0.194366
0.194366
0.194366
0.194365
0.194365
0.194365
0.194365
0.194365
0.194365
0.194365
0.194365
0.194365
0.194365
0.194365
0.194365
0.194365
0.194365
0.194365
0.194365
0.194365
0.194365
0.194365
0.194364
0.194364
0.194364
0.194364
0.194364
0.194364
0.194364
0.194364
0.194364
0.194364
0.194364
0.194364
0.194364
0.194364
0.194364
0.194364
0.194363
0.194363
0.194363
0.194363
0.194363
0.194363
0.194362
0.194362
0.194362
0.194362
0.194361
0.194361
0.194361
0.19436
0.19436
0.19436
0.194359
0.194359
0.194358
0.194358
0.194357
0.194357
0.194356
0.194356
0.194355
0.194354
0.194354
0.194353
0.194352
0.194352
0.194351
0.19435
0.194349
0.194349
0.194348
0.194347
0.194346
0.194345
0.194344
0.194343
0.194342
0.194341
0.19434
0.194339
0.194338
0.194337
0.194336
0.194335
0.194333
0.194332
0.194331
0.19433
0.194329
0.194328
0.194326
0.194325
0.194324
0.194323
0.194321
0.19432
0.194319
0.194317
0.194316
0.194315
0.194314
0.194312
0.194311
0.19431
0.194308
0.194307
0.194306
0.194305
0.194303
0.194302
0.194301
0.1943
0.194298
0.194297
0.194296
0.194295
0.194294
0.194293
0.194291
0.19429
0.194289
0.194288
0.194287
0.194286
0.194285
0.194284
0.194283
0.194282
0.194281
0.194281
0.19428
0.194279
0.194278
0.194277
0.194277
0.194276
0.194275
0.194275
0.194274
0.194274
0.194273
0.194273
0.194272
0.194272
0.194271
0.194271
0.194271
0.19427
0.19427
0.19427
0.19427
0.19427
0.19427
0.194269
0.194269
0.194269
0.194269
0.194269
0.194269
0.194269
0.19427
0.19427
0.19427
0.19427
0.19427
0.19427
0.194271
0.194271
0.194271
0.194272
0.194272
0.194272
0.194273
0.194273
0.194273
0.194274
0.194274
0.194275
0.194275
0.194276
0.194276
0.194277
0.194277
0.194278
0.194278
0.194279
0.194279
0.19428
0.19428
0.194281
0.194281
0.194282
0.194282
0.194283
0.194283
0.194284
0.194284
0.194285
0.194285
0.194286
0.194286
0.194287
0.194287
0.194287
0.194288
0.194288
0.194288
0.194289
0.194289
0.194289
0.19429
0.19429
0.19429
0.19429
0.19429
0.194291
0.194291
0.194291
0.194291
0.194291
0.194291
0.194291
0.194291
0.194291
0.194291
0.194291
0.194291
0.19429
0.19429
0.19429
0.19429
0.19429
0.194289
0.194289
0.194289
0.194288
0.194288
0.194287
0.194287
0.194287
0.194286
0.194286
0.194285
0.194285
0.194284
0.194283
0.194283
0.194282
0.194281
0.194281
0.19428
0.194279
0.194279
0.194278
0.194277
0.194276
0.194275
0.194274
0.194274
0.194273
0.194272
0.194271
0.19427
0.194269
0.194268
0.194267
0.194266
0.194265
0.194264
0.194263
0.194261
0.19426
0.194259
0.194258
0.194257
0.194256
0.194254
0.194253
0.194252
0.194251
0.194249
0.194248
0.194247
0.194245
0.194244
0.194243
0.194241
0.19424
0.194239
0.194237
0.194236
0.194234
0.194233
0.194232
0.19423
0.194229
0.194227
0.194226
0.194224
0.194223
0.194222
0.19422
0.194219
0.194217
0.194216
0.194215
0.194213
0.194212
0.194211
0.194209
0.194208
0.194207
0.194205
0.194204
0.194203
0.194201
0.1942
0.194199
0.194198
0.194197
0.194195
0.194194
0.194193
0.194192
0.194191
0.19419
0.194189
0.194188
0.194187
0.194186
0.194185
0.194184
0.194184
0.194183
0.194182
0.194181
0.194181
0.19418
0.194179
0.194179
0.194178
0.194177
0.194177
0.194176
0.194176
0.194175
0.194175
0.194174
0.194174
0.194174
0.194173
0.194173
0.194173
0.194173
0.194172
0.194172
0.194172
0.194172
0.194172
0.194171
0.194171
0.194171
0.194171
0.194171
0.194171
0.194171
0.194171
0.194171
0.194171
0.194171
0.194171
0.194171
0.194171
0.194171
0.194171
0.194171
0.194171
0.194171
0.194171
0.194171
0.194171
0.194171
0.194171
0.194171
0.194171
0.194172
0.194172
0.194172
0.194172
0.194172
0.194172
0.194172
0.194172
0.194172
0.194172
0.194172
0.194171
0.194171
0.194171
0.194171
0.194171
0.194171
0.194171
0.194171
0.194171
0.194171
0.19417
0.19417
0.19417
0.19417
0.19417
0.19417
0.194169
0.194169
0.194169
0.194169
0.194168
0.194168
0.194168
0.194168
0.194167
0.194167
0.194167
0.194167
0.194166
0.194166
0.194166
0.194165
0.194165
0.194165
0.194164
0.194164
0.194164
0.194163
0.194163
0.194163
0.194162
0.194162
0.194161
0.194161
0.194161
0.19416
0.19416
0.194159
0.194159
0.194159
0.194158
0.194158
0.194157
0.194157
0.194156
0.194156
0.194155
0.194155
0.194154
0.194154
0.194153
0.194153
0.194152
0.194152
0.194151
0.19415
0.19415
0.194149
0.194149
0.194148
0.194147
0.194146
0.194146
0.194145
0.194144
0.194143
0.194143
0.194142
0.194141
0.19414
0.194139
0.194138
0.194138
0.194137
0.194136
0.194135
0.194134
0.194133
0.194132
0.194131
0.19413
0.194129
0.194128
0.194126
0.194125
0.194124
0.194123
0.194122
0.194121
0.19412
0.194118
0.194117
0.194116
0.194115
0.194114
0.194112
0.194111
0.19411
0.194109
0.194108
0.194106
0.194105
0.194104
0.194103
0.194101
0.1941
0.194099
0.194098
0.194097
0.194096
0.194095
0.194093
0.194092
0.194091
0.19409
0.194089
0.194088
0.194087
0.194086
0.194085
0.194084
0.194083
0.194082
0.194082
0.194081
0.19408
0.194079
0.194078
0.194078
0.194077
0.194076
0.194075
0.194075
0.194074
0.194073
0.194073
0.194072
0.194071
0.194071
0.19407
0.19407
0.194069
0.194069
0.194068
0.194068
0.194067
0.194067
0.194066
0.194066
0.194065
0.194065
0.194064
0.194064
0.194064
0.194063
0.194063
0.194062
0.194062
0.194062
0.194061
0.194061
0.19406
0.19406
0.194059
0.194059
0.194059
0.194058
0.194058
0.194057
0.194057
0.194056
0.194056
0.194056
0.194055
0.194055
0.194054
0.194054
0.194053
0.194053
0.194052
0.194052
0.194052
0.194051
0.194051
0.19405
0.19405
0.194049
0.194049
0.194048
0.194048
0.194047
0.194047
0.194047
0.194046
0.194046
0.194045
0.194045
0.194044
0.194044
0.194043
0.194043
0.194043
0.194042
0.194042
0.194041
0.194041
0.19404
0.19404
0.194039
0.194039
0.194038
0.194038
0.194037
0.194037
0.194036
0.194036
0.194035
0.194035
0.194034
0.194034
0.194033
0.194033
0.194032
0.194032
0.194031
0.19403
0.19403
0.194029
0.194028
0.194028
0.194027
0.194026
0.194026
0.194025
0.194024
0.194023
0.194023
0.194022
0.194021
0.19402
0.194019
0.194019
0.194018
0.194017
0.194016
0.194015
0.194014
0.194013
0.194012
0.194011
0.19401
0.194009
0.194008
0.194007
0.194006
0.194005
0.194004
0.194003
0.194002
0.194001
0.194
0.193998
0.193997
0.193996
0.193995
0.193994
0.193993
0.193991
0.19399
0.193989
0.193988
0.193987
0.193986
0.193984
0.193983
0.193982
0.193981
0.19398
0.193978
0.193977
0.193976
0.193975
0.193974
0.193972
0.193971
0.19397
0.193969
0.193968
0.193967
0.193966
0.193964
0.193963
0.193962
0.193961
0.19396
0.193959
0.193958
0.193957
0.193956
0.193955
0.193954
0.193953
0.193952
0.193951
0.19395
0.193949
0.193948
0.193947
0.193946
0.193945
0.193944
0.193943
0.193942
0.193942
0.193941
0.19394
0.193939
0.193938
0.193938
0.193937
0.193936
0.193936
0.193935
0.193934
0.193934
0.193933
0.193932
0.193932
0.193931
0.193931
0.19393
0.19393
0.193929
0.193929
0.193928
0.193928
0.193927
0.193927
0.193927
0.193926
0.193926
0.193925
0.193925
0.193925
0.193925
0.193924
0.193924
0.193924
0.193924
0.193923
0.193923
0.193923
0.193923
0.193923
0.193923
0.193923
0.193923
0.193923
0.193923
0.193922
0.193922
0.193922
0.193922
0.193922
0.193922
0.193922
0.193923
0.193923
0.193923
0.193923
0.193923
0.193923
0.193923
0.193923
0.193923
0.193923
0.193923
0.193923
0.193923
0.193923
0.193924
0.193924
0.193924
0.193924
0.193924
0.193924
0.193924
0.193924
0.193924
0.193924
0.193924
0.193924
0.193924
0.193924
0.193924
0.193924
0.193924
0.193924
0.193924
0.193923
0.193923
0.193923
0.193923
0.193923
0.193923
0.193922
0.193922
0.193922
0.193922
0.193921
0.193921
0.193921
0.19392
0.19392
0.19392
0.193919
0.193919
0.193918
0.193918
0.193917
0.193917
0.193916
0.193916
0.193915
0.193915
0.193914
0.193913
0.193913
0.193912
0.193911
0.193911
0.19391
0.193909
0.193909
0.193908
0.193907
0.193906
0.193906
0.193905
0.193904
0.193903
0.193902
0.193901
0.193901
0.1939
0.193899
0.193898
0.193897
0.193896
0.193895
0.193894
0.193893
0.193892
0.193891
0.19389
0.193889
0.193888
0.193887
0.193886
0.193885
0.193884
0.193883
0.193882
0.193881
0.193879
0.193878
0.193877
0.193876
0.193875
0.193874
0.193873
0.193871
0.19387
0.193869
0.193868
0.193867
0.193865
0.193864
0.193863
0.193862
0.193861
0.19386
0.193858
0.193857
0.193856
0.193855
0.193854
0.193853
0.193852
0.19385
0.193849
0.193848
0.193847
0.193846
0.193845
0.193844
0.193843
0.193842
0.193841
0.19384
0.193839
0.193838
0.193838
0.193837
0.193836
0.193835
0.193834
0.193833
0.193833
0.193832
0.193831
0.19383
0.19383
0.193829
0.193828
0.193828
0.193827
0.193827
0.193826
0.193825
0.193825
0.193824
0.193824
0.193823
0.193823
0.193822
0.193822
0.193821
0.193821
0.19382
0.19382
0.19382
0.193819
0.193819
0.193818
0.193818
0.193818
0.193817
0.193817
0.193816
0.193816
0.193816
0.193815
0.193815
0.193815
0.193814
0.193814
0.193814
0.193813
0.193813
0.193813
0.193812
0.193812
0.193812
0.193811
0.193811
0.193811
0.193811
0.19381
0.19381
0.19381
0.19381
0.19381
0.193809
0.193809
0.193809
0.193809
0.193809
0.193809
0.193809
0.193809
0.193809
0.193809
0.193809
0.193809
0.193809
0.193809
0.193809
0.19381
0.19381
0.19381
0.19381
0.19381
0.193811
0.193811
0.193811
0.193812
0.193812
0.193812
0.193813
0.193813
0.193813
0.193814
0.193814
0.193815
0.193815
0.193815
0.193816
0.193816
0.193817
0.193817
0.193818
0.193818
0.193819
0.193819
0.19382
0.19382
0.193821
0.193821
0.193822
0.193822
0.193823
0.193823
0.193823
0.193824
0.193824
0.193825
0.193825
0.193825
0.193826
0.193826
0.193827
0.193827
0.193827
0.193827
0.193828
0.193828
0.193828
0.193828
0.193829
0.193829
0.193829
0.193829
0.193829
0.193829
0.193829
0.193829
0.193829
0.193829
0.193829
0.193829
0.193829
0.193829
0.193829
0.193829
0.193828
0.193828
0.193828
0.193828
0.193827
0.193827
0.193827
0.193826
0.193826
0.193825
0.193825
0.193825
0.193824
0.193824
0.193823
0.193823
0.193822
0.193821
0.193821
0.19382
0.19382
0.193819
0.193818
0.193818
0.193817
0.193816
0.193816
0.193815
0.193814
0.193814
0.193813
0.193812
0.193811
0.193811
0.19381
0.193809
0.193809
0.193808
0.193807
0.193806
0.193806
0.193805
0.193804
0.193803
0.193803
0.193802
0.193801
0.1938
0.1938
0.193799
0.193798
0.193797
0.193797
0.193796
0.193795
0.193794
0.193794
0.193793
0.193792
0.193792
0.193791
0.19379
0.19379
0.193789
0.193789
0.193788
0.193787
0.193787
0.193786
0.193786
0.193785
0.193784
0.193784
0.193783
0.193783
0.193782
0.193782
0.193781
0.193781
0.193781
0.19378
0.19378
0.193779
0.193779
0.193779
0.193778
0.193778
0.193778
0.193777
0.193777
0.193777
0.193776
0.193776
0.193776
0.193776
0.193776
0.193775
0.193775
0.193775
0.193775
0.193775
0.193775
0.193775
0.193774
0.193774
0.193774
0.193774
0.193774
0.193774
0.193774
0.193774
0.193774
0.193774
0.193775
0.193775
0.193775
0.193775
0.193775
0.193775
0.193775
0.193775
0.193776
0.193776
0.193776
0.193776
0.193776
0.193777
0.193777
0.193777
0.193777
0.193778
0.193778
0.193778
0.193779
0.193779
0.193779
0.19378
0.19378
0.19378
0.193781
0.193781
0.193781
0.193782
0.193782
0.193783
0.193783
0.193783
0.193784
0.193784
0.193785
0.193785
0.193786
0.193786
0.193787
0.193787
0.193788
0.193788
0.193789
0.193789
0.19379
0.19379
0.193791
0.193791
0.193792
0.193792
0.193793
0.193793
0.193794
0.193794
0.193795
0.193795
0.193796
0.193796
0.193797
0.193797
0.193798
0.193798
0.193799
0.193799
0.1938
0.1938
0.1938
0.193801
0.193801
0.193802
0.193802
0.193802
0.193803
0.193803
0.193803
0.193803
0.193804
0.193804
0.193804
0.193804
0.193805
0.193805
0.193805
0.193805
0.193805
0.193805
0.193805
0.193805
0.193805
0.193805
0.193805
0.193805
0.193805
0.193805
0.193805
0.193805
0.193805
0.193804
0.193804
0.193804
0.193804
0.193804
0.193804
0.193803
0.193803
0.193803
0.193803
0.193802
0.193802
0.193802
0.193802
0.193801
0.193801
0.193801
0.193801
0.1938
0.1938
0.1938
0.193799
0.193799
0.193799
0.193799
0.193799
0.193798
0.193798
0.193798
0.193798
0.193797
0.193797
0.193797
0.193797
0.193797
0.193796
0.193796
0.193796
0.193796
0.193796
0.193796
0.193795
0.193795
0.193795
0.193795
0.193795
0.193795
0.193795
0.193794
0.193794
0.193794
0.193794
0.193794
0.193794
0.193794
0.193794
0.193794
0.193794
0.193793
0.193793
0.193793
0.193793
0.193793
0.193793
0.193793
0.193793
0.193793
0.193793
0.193793
0.193793
0.193793
0.193793
0.193793
0.193793
0.193793
0.193793
0.193793
0.193793
0.193793
0.193793
0.193793
0.193793
0.193793
0.193793
0.193793
0.193793
0.193793
0.193793
0.193793
0.193793
0.193794
0.193794
0.193794
0.193794
0.193794
0.193794
0.193794
0.193795
0.193795
0.193795
0.193795
0.193796
0.193796
0.193796
0.193797
0.193797
0.193797
0.193798
0.193798
0.193798
0.193799
0.193799
0.1938
0.1938
0.193801
0.193801
0.193802
0.193803
0.193803
0.193804
0.193805
0.193805
0.193806
0.193807
0.193807
0.193808
0.193809
0.19381
0.193811
0.193811
0.193812
0.193813
0.193814
0.193815
0.193816
0.193817
0.193818
0.193819
0.19382
0.193821
0.193822
0.193823
0.193824
0.193825
0.193826
0.193827
0.193828
0.19383
0.193831
0.193832
0.193833
0.193834
0.193835
0.193836
0.193837
0.193839
0.19384
0.193841
0.193842
0.193843
0.193844
0.193845
0.193847
0.193848
0.193849
0.19385
0.193851
0.193852
0.193853
0.193855
0.193856
0.193857
0.193858
0.193859
0.19386
0.193861
0.193863
0.193864
0.193865
0.193866
0.193867
0.193868
0.19387
0.193871
0.193872
0.193873
0.193875
0.193876
0.193877
0.193878
0.19388
0.193881
0.193882
0.193883
0.193885
0.193886
0.193887
0.193888
0.19389
0.193891
0.193892
0.193894
0.193895
0.193896
0.193898
0.193899
0.1939
0.193902
0.193903
0.193904
0.193905
0.193907
0.193908
0.193909
0.193911
0.193912
0.193913
0.193914
0.193916
0.193917
0.193918
0.193919
0.193921
0.193922
0.193923
0.193924
0.193926
0.193927
0.193928
0.193929
0.19393
0.193932
0.193933
0.193934
0.193935
0.193936
0.193937
0.193939
0.19394
0.193941
0.193942
0.193943
0.193945
0.193946
0.193947
0.193948
0.193949
0.193951
0.193952
0.193953
0.193954
0.193955
0.193957
0.193958
0.193959
0.19396
0.193962
0.193963
0.193964
0.193965
0.193967
0.193968
0.193969
0.19397
0.193972
0.193973
0.193974
0.193975
0.193977
0.193978
0.193979
0.19398
0.193982
0.193983
0.193984
0.193986
0.193987
0.193988
0.19399
0.193991
0.193992
0.193994
0.193995
0.193997
0.193998
0.193999
0.194001
0.194002
0.194004
0.194005
0.194007
0.194008
0.19401
0.194012
0.194013
0.194015
0.194017
0.194018
0.19402
0.194022
0.194024
0.194026
0.194027
0.194029
0.194031
0.194033
0.194035
0.194037
0.194039
0.194041
0.194043
0.194045
0.194048
0.19405
0.194052
0.194054
0.194056
0.194058
0.194061
0.194063
0.194065
0.194068
0.19407
0.194072
0.194075
0.194077
0.194079
0.194082
0.194084
0.194087
0.194089
0.194092
0.194095
0.194097
0.1941
0.194102
0.194105
0.194108
0.194111
0.194114
0.194116
0.194119
0.194122
0.194125
0.194128
0.194131
0.194134
0.194137
0.194141
0.194144
0.194147
0.19415
0.194153
0.194157
0.19416
0.194164
0.194167
0.19417
0.194174
0.194178
0.194181
0.194185
0.194188
0.194192
0.194196
0.194199
0.194203
0.194207
0.194211
0.194215
0.194219
0.194223
0.194227
0.194231
0.194235
0.194239
0.194243
0.194248
0.194252
0.194256
0.194261
0.194265
0.19427
0.194275
0.19428
0.194284
0.194289
0.194294
0.1943
0.194305
0.19431
0.194315
0.194321
0.194326
0.194332
0.194338
0.194344
0.19435
0.194355
0.194362
0.194368
0.194374
0.19438
0.194386
0.194393
0.194399
0.194406
0.194412
0.194419
0.194426
0.194432
0.194439
0.194446
0.194453
0.19446
0.194467
0.194474
0.194481
0.194488
0.194495
0.194502
0.194509
0.194516
0.194523
0.194531
0.194538
0.194545
0.194553
0.19456
0.194568
0.194575
0.194583
0.19459
0.194598
0.194606
0.194613
0.194621
0.194629
0.194637
0.194645
0.194653
0.194661
0.194669
0.194677
0.194685
0.194693
0.194701
0.194709
0.194718
0.194726
0.194734
0.194743
0.194751
0.194759
0.194768
0.194776
0.194785
0.194793
0.194802
0.19481
0.194819
0.194827
0.194836
0.194844
0.194853
0.194862
0.19487
0.194879
0.194887
0.194896
0.194904
0.194913
0.194922
0.19493
0.194939
0.194947
0.194956
0.194964
0.194973
0.194982
0.19499
0.194999
0.195007
0.195016
0.195024
0.195033
0.195042
0.19505
0.195059
0.195067
0.195076
0.195085
0.195093
0.195102
0.195111
0.19512
0.195128
0.195137
0.195146
0.195155
0.195164
0.195172
0.195181
0.19519
0.195199
0.195208
0.195217
0.195226
0.195235
0.195244
0.195253
0.195262
0.195271
0.19528
0.195289
0.195299
0.195308
0.195317
0.195326
0.195336
0.195345
0.195354
0.195364
0.195373
0.195382
0.195392
0.195401
0.19541
0.19542
0.195429
0.195439
0.195448
0.195458
0.195467
0.195477
0.195487
0.195496
0.195506
0.195515
0.195525
0.195535
0.195544
0.195554
0.195564
0.195573
0.195583
0.195593
0.195603
0.195612
0.195622
0.195632
0.195642
0.195651
0.195661
0.195671
0.195681
0.195691
0.195701
0.195711
0.19572
0.19573
0.19574
0.19575
0.19576
0.19577
0.19578
0.19579
0.1958
0.19581
0.19582
0.19583
0.19584
0.19585
0.19586
0.19587
0.19588
0.19589
0.1959
0.19591
0.19592
0.19593
0.19594
0.19595
0.19596
0.19597
0.19598
0.19599
0.196
0.19601
0.19602
0.19603
0.196041
0.196051
0.196061
0.196071
0.196081
0.196091
0.196101
0.196111
0.196121
0.196131
0.196141
0.196152
0.196162
0.196172
0.196182
0.196192
0.196202
0.196212
0.196222
0.196232
0.196243
0.196253
0.196263
0.196273
0.196283
0.196293
0.196303
0.196314
0.196324
0.196334
0.196344
0.196354
0.196364
0.196374
0.196385
0.196395
0.196405
0.196415
0.196425
0.196436
0.196446
0.196456
0.196466
0.196476
0.196487
0.196497
0.196507
0.196517
0.196527
0.196538
0.196548
0.196558
0.196568
0.196579
0.196589
0.196599
0.196609
0.19662
0.19663
0.19664
0.196651
0.196661
0.196671
0.196681
0.196692
0.196702
0.196712
0.196723
0.196733
0.196743
0.196754
0.196764
0.196774
0.196785
0.196795
0.196806
0.196816
0.196826
0.196837
0.196847
0.196858
0.196868
0.196879
0.196889
0.1969
0.19691
0.196921
0.196931
0.196942
0.196952
0.196963
0.196973
0.196984
0.196994
0.197005
0.197015
0.197026
0.197037
0.197047
0.197058
0.197068
0.197079
0.19709
0.1971
0.197111
0.197122
0.197132
0.197143
0.197154
0.197164
0.197175
0.197186
0.197196
0.197207
0.197218
0.197228
0.197239
0.19725
0.197261
0.197271
0.197282
0.197293
0.197304
0.197314
0.197325
0.197336
0.197347
0.197358
0.197368
0.197379
0.19739
0.197401
0.197411
0.197422
0.197433
0.197444
0.197455
0.197466
0.197476
0.197487
0.197498
0.197509
0.19752
0.197531
0.197541
0.197552
0.197563
0.197574
0.197585
0.197595
0.197606
0.197617
0.197628
0.197639
0.19765
0.19766
0.197671
0.197682
0.197693
0.197704
0.197714
0.197725
0.197736
0.197747
0.197758
0.197768
0.197779
0.19779
0.197801
0.197812
0.197822
0.197833
0.197844
0.197855
0.197865
0.197876
0.197887
0.197897
0.197908
0.197919
0.19793
0.19794
0.197951
0.197962
0.197972
0.197983
0.197994
0.198004
0.198015
0.198026
0.198036
0.198047
0.198058
0.198068
0.198079
0.19809
0.1981
0.198111
0.198121
0.198132
0.198143
0.198153
0.198164
0.198174
0.198185
0.198195
0.198206
0.198217
0.198227
0.198238
0.198248
0.198259
0.198269
0.19828
0.19829
0.198301
0.198311
0.198322
0.198332
0.198343
0.198353
0.198364
0.198374
0.198385
0.198395
0.198406
0.198416
0.198427
0.198437
0.198448
0.198458
0.198469
0.198479
0.19849
0.1985
0.198511
0.198521
0.198532
0.198542
0.198553
0.198563
0.198574
0.198584
0.198594
0.198605
0.198615
0.198626
0.198636
0.198647
0.198657
0.198668
0.198678
0.198689
0.1987
0.19871
0.198721
0.198731
0.198742
0.198752
0.198763
0.198773
0.198784
0.198794
0.198805
0.198815
0.198826
0.198837
0.198847
0.198858
0.198868
0.198879
0.19889
0.1989
0.198911
0.198921
0.198932
0.198943
0.198953
0.198964
0.198975
0.198985
0.198996
0.199007
0.199017
0.199028
0.199039
0.19905
0.19906
0.199071
0.199082
0.199092
0.199103
0.199114
0.199125
0.199135
0.199146
0.199157
0.199168
0.199178
0.199189
0.1992
0.199211
0.199222
0.199232
0.199243
0.199254
0.199265
0.199276
0.199287
0.199297
0.199308
0.199319
0.19933
0.199341
0.199352
0.199363
0.199373
0.199384
0.199395
0.199406
0.199417
0.199428
0.199439
0.199449
0.19946
0.199471
0.199482
0.199493
0.199504
0.199515
0.199526
0.199537
0.199547
0.199558
0.199569
0.19958
0.199591
0.199602
0.199613
0.199624
0.199635
0.199645
0.199656
0.199667
0.199678
0.199689
0.1997
0.199711
0.199721
0.199732
0.199743
0.199754
0.199765
0.199776
0.199787
0.199797
0.199808
0.199819
0.19983
0.199841
0.199852
0.199862
0.199873
0.199884
0.199895
0.199906
0.199916
0.199927
0.199938
0.199949
0.19996
0.19997
0.199981
0.199992
0.200003
0.200013
0.200024
0.200035
0.200046
0.200056
0.200067
0.200078
0.200089
0.200099
0.20011
0.200121
0.200131
0.200142
0.200153
0.200164
0.200174
0.200185
0.200196
0.200206
0.200217
0.200228
0.200238
0.200249
0.20026
0.20027
0.200281
0.200292
0.200302
0.200313
0.200324
0.200334
0.200345
0.200356
0.200366
0.200377
0.200388
0.200398
0.200409
0.20042
0.20043
0.200441
0.200452
0.200462
0.200473
0.200484
0.200494
0.200505
0.200516
0.200526
0.200537
0.200548
0.200558
0.200569
0.20058
0.20059
0.200601
0.200612
0.200623
0.200633
0.200644
0.200655
0.200665
0.200676
0.200687
0.200697
0.200708
0.200719
0.20073
0.20074
0.200751
0.200762
0.200773
0.200783
0.200794
0.200805
0.200816
0.200826
0.200837
0.200848
0.200859
0.20087
0.20088
0.200891
0.200902
0.200913
0.200924
0.200934
0.200945
0.200956
0.200967
0.200978
0.200989
0.200999
0.20101
0.201021
0.201032
0.201043
0.201054
0.201065
0.201076
0.201086
0.201097
0.201108
0.201119
0.20113
0.201141
0.201152
0.201163
0.201174
0.201185
0.201195
0.201206
0.201217
0.201228
0.201239
0.20125
0.201261
0.201272
0.201283
0.201294
0.201305
0.201316
0.201327
0.201338
0.201349
0.20136
0.201371
0.201382
0.201393
0.201403
0.201414
0.201425
0.201436
0.201447
0.201458
0.201469
0.20148
0.201491
0.201502
0.201513
0.201524
0.201535
0.201546
0.201557
0.201568
0.201579
0.20159
0.201601
0.201612
0.201623
0.201633
0.201644
0.201655
0.201666
0.201677
0.201688
0.201699
0.20171
0.201721
0.201732
0.201743
0.201754
0.201764
0.201775
0.201786
0.201797
0.201808
0.201819
0.20183
0.201841
0.201852
0.201862
0.201873
0.201884
0.201895
0.201906
0.201917
0.201928
0.201939
0.201949
0.20196
0.201971
0.201982
0.201993
0.202004
0.202014
0.202025
0.202036
0.202047
0.202058
0.202069
0.202079
0.20209
0.202101
0.202112
0.202123
0.202133
0.202144
0.202155
0.202166
0.202177
0.202188
0.202198
0.202209
0.20222
0.202231
0.202242
0.202252
0.202263
0.202274
0.202285
0.202296
0.202306
0.202317
0.202328
0.202339
0.20235
0.20236
0.202371
0.202382
0.202393
0.202404
0.202415
0.202425
0.202436
0.202447
0.202458
0.202469
0.202479
0.20249
0.202501
0.202512
0.202523
0.202534
0.202545
0.202555
0.202566
0.202577
0.202588
0.202599
0.20261
0.202621
0.202631
0.202642
0.202653
0.202664
0.202675
0.202686
0.202697
0.202708
0.202719
0.20273
0.20274
0.202751
0.202762
0.202773
0.202784
0.202795
0.202806
0.202817
0.202828
0.202839
0.20285
0.202861
0.202872
0.202883
0.202894
0.202905
0.202916
0.202927
0.202938
0.202949
0.20296
0.202971
0.202982
0.202993
0.203004
0.203015
0.203026
0.203037
0.203048
0.203059
0.20307
0.203081
0.203092
0.203103
0.203114
0.203125
0.203136
0.203147
0.203158
0.203169
0.20318
0.203191
0.203202
0.203213
0.203224
0.203235
0.203247
0.203258
0.203269
0.20328
0.203291
0.203302
0.203313
0.203324
0.203335
0.203346
0.203357
0.203368
0.203379
0.20339
0.203401
0.203412
0.203423
0.203434
0.203445
0.203456
0.203468
0.203479
0.20349
0.203501
0.203512
0.203523
0.203534
0.203545
0.203556
0.203567
0.203578
0.203589
0.2036
0.203611
0.203622
0.203633
0.203644
0.203655
0.203666
0.203677
0.203688
0.203699
0.20371
0.203721
0.203732
0.203742
0.203754
0.203764
0.203776
0.203786
0.203798
0.203808
0.20382
0.20383
0.203842
0.203852
0.203863
0.203874
0.203885
0.203896
0.203907
0.203917
0.203929
0.203939
0.203951
0.203961
0.203973
0.203983
0.203995
0.204005
0.204017
0.204026
0.204039
0.204048
0.204061
0.20407
0.204082
0.204092
0.204104
0.204114
0.204126
0.204135
0.204148
0.204157
0.20417
0.204179
0.204191
0.204201
0.204213
0.204223
0.204235
0.204245
0.204257
0.204266
0.204279
0.204288
0.204301
0.20431
0.204323
0.204332
0.204344
0.204354
0.204366
0.204376
0.204388
0.204398
0.20441
0.20442
0.204432
0.204442
0.204454
0.204463
0.204476
0.204485
0.204498
0.204507
0.20452
0.204529
0.204542
0.204551
0.204564
0.204573
0.204586
0.204595
0.204608
0.204617
0.20463
0.204639
0.204652
0.204662
0.204674
0.204684
0.204696
0.204706
0.204718
0.204728
0.20474
0.20475
0.204762
0.204772
0.204785
0.204794
0.204807
0.204816
0.204829
0.204839
0.204851
0.204861
0.204873
0.204883
0.204896
0.204905
0.204918
0.204927
0.20494
0.20495
0.204962
0.204972
0.204984
0.204994
0.205007
0.205016
0.205029
0.205039
0.205051
0.205061
0.205073
0.205084
0.205095
0.205106
0.205118
0.205128
0.20514
0.205151
0.205162
0.205173
0.205184
0.205195
0.205207
0.205217
0.205229
0.20524
0.205251
0.205262
0.205273
0.205284
0.205296
0.205307
0.205318
0.205329
0.20534
0.205351
0.205362
0.205373
0.205385
0.205396
0.205407
0.205418
0.205429
0.20544
0.205451
0.205462
0.205474
0.205485
0.205496
0.205507
0.205518
0.205529
0.20554
0.205551
0.205562
0.205574
0.205585
0.205596
0.205607
0.205618
0.205629
0.20564
0.205651
0.205662
0.205673
0.205684
0.205696
0.205707
0.205718
0.205729
0.20574
0.205751
0.205762
0.205773
0.205784
0.205795
0.205806
0.205817
0.205828
0.20584
0.205851
0.205862
0.205873
0.205884
0.205895
0.205906
0.205917
0.205928
0.205939
0.20595
0.205961
0.205972
0.205983
0.205994
0.206006
0.206017
0.206028
0.206039
0.20605
0.206061
0.206072
0.206083
0.206094
0.206105
0.206116
0.206127
0.206138
0.206149
0.206161
0.206172
0.206183
0.206194
0.206205
0.206216
0.206227
0.206238
0.206249
0.20626
0.206272
0.206283
0.206294
0.206305
0.206316
0.206327
0.206338
0.206349
0.206361
0.206372
0.206383
0.206394
0.206405
0.206416
0.206427
0.206439
0.20645
0.206461
0.206472
0.206483
0.206494
0.206506
0.206517
0.206528
0.206539
0.20655
0.206562
0.206573
0.206584
0.206595
0.206606
0.206617
0.206629
0.20664
0.206651
0.206662
0.206674
0.206685
0.206696
0.206707
0.206718
0.20673
0.206741
0.206752
0.206763
0.206774
0.206786
0.206797
0.206808
0.206819
0.206831
0.206842
0.206853
0.206864
0.206876
0.206887
0.206898
0.206909
0.20692
0.206932
0.206943
0.206954
0.206965
0.206977
0.206988
0.206999
0.20701
0.207021
0.207033
0.207044
0.207055
0.207066
0.207078
0.207089
0.2071
0.207111
0.207122
0.207134
0.207145
0.207156
0.207167
0.207178
0.20719
0.207201
0.207212
0.207223
0.207234
0.207246
0.207257
0.207268
0.207279
0.20729
0.207302
0.207313
0.207324
0.207335
0.207346
0.207357
0.207369
0.20738
0.207391
0.207402
0.207413
0.207425
0.207436
0.207447
0.207458
0.207469
0.20748
0.207491
0.207503
0.207514
0.207525
0.207536
0.207547
0.207558
0.20757
0.207581
0.207592
0.207603
0.207614
0.207625
0.207636
0.207648
0.207659
0.20767
0.207681
0.207692
0.207703