/*--------------------------------*- C++ -*----------------------------------*\
  =========                 |
  \\      /  F ield         | OpenFOAM: The Open Source CFD Toolbox
   \\    /   O peration     | Website:  https://openfoam.org
    \\  /    A nd           | Version:  9
     \\/     M anipulation  |
\*---------------------------------------------------------------------------*/
FoamFile
{
    format      ascii;
    class       volScalarField;
    location    "0.022";
    object      mag(U);
}
// * * * * * * * * * * * * * * * * * * * * * * * * * * * * * * * * * * * * * //

dimensions      [0 1 -1 0 0 0 0];

internalField   nonuniform List<scalar> 
100
(
28.3047
35.4734
42.405
47.3968
53.1169
58.7497
64.357
69.9799
75.6348
81.2661
86.9466
92.5884
98.2619
103.95
109.611
115.314
120.966
126.699
132.36
138.014
143.777
149.433
155.041
160.757
166.495
172.049
177.644
183.368
188.957
194.432
199.959
205.588
210.998
216.298
221.617
227.022
232.196
237.132
242.041
246.946
251.68
256.103
260.296
264.335
268.173
271.755
274.994
277.923
280.592
282.949
285.02
286.83
288.28
289.497
290.492
291.103
291.54
291.929
292.16
292.31
292.409
292.46
292.489
292.516
292.545
292.58
292.625
292.62
292.595
292.551
292.533
292.525
292.498
292.446
292.39
292.334
292.274
292.206
292.125
292.027
291.908
291.775
291.647
291.502
291.308
291.045
290.643
289.964
288.721
286.299
281.443
271.617
251.5
217.762
181.115
190.29
205.706
216.986
222.865
223.221
)
;

boundaryField
{
    sides
    {
        type            calculated;
        value           nonuniform List<scalar> 2(223.221 28.3047);
    }
    empty
    {
        type            empty;
    }
}


// ************************************************************************* //
