/*--------------------------------*- C++ -*----------------------------------*\
  =========                 |
  \\      /  F ield         | OpenFOAM: The Open Source CFD Toolbox
   \\    /   O peration     | Website:  https://openfoam.org
    \\  /    A nd           | Version:  9
     \\/     M anipulation  |
\*---------------------------------------------------------------------------*/
FoamFile
{
    format      ascii;
    class       surfaceScalarField;
    location    "0.022";
    object      phi;
}
// * * * * * * * * * * * * * * * * * * * * * * * * * * * * * * * * * * * * * //

dimensions      [1 0 -1 0 0 0 0];

internalField   nonuniform List<scalar> 
99
(
69.4568
80.5933
91.7507
102.851
113.936
124.973
135.952
146.875
157.744
168.549
179.307
189.989
200.613
211.187
221.682
232.114
242.456
252.775
262.981
273.072
283.182
293.174
302.964
312.792
322.597
332.137
341.512
350.989
360.33
369.31
378.15
387.166
395.919
404.185
412.211
420.488
428.538
435.87
442.715
449.503
456.334
462.511
467.814
472.49
476.904
481.193
484.997
487.858
489.89
491.43
493.361
495.21
496.285
496.857
497.084
496.851
497.376
497.924
498.021
498.02
497.85
497.609
497.397
497.473
497.368
497.082
497.95
497.866
497.597
497.026
496.06
496.369
498.123
497.887
497.558
497.217
496.867
496.43
495.731
494.408
490.706
490.951
497.45
497.211
496.829
496.302
495.423
493.834
490.804
484.628
482.685
497.435
490.027
469.262
469.163
468.344
469.704
473.4
476.386
)
;

boundaryField
{
    sides
    {
        type            calculated;
        value           nonuniform List<scalar> 2(474.551 -58.1811);
    }
    empty
    {
        type            empty;
        value           nonuniform List<scalar> 0();
    }
}


// ************************************************************************* //
