/*--------------------------------*- C++ -*----------------------------------*\
  =========                 |
  \\      /  F ield         | OpenFOAM: The Open Source CFD Toolbox
   \\    /   O peration     | Website:  https://openfoam.org
    \\  /    A nd           | Version:  9
     \\/     M anipulation  |
\*---------------------------------------------------------------------------*/
FoamFile
{
    format      ascii;
    class       volScalarField;
    location    "0.007";
    object      ddt0(p);
}
// * * * * * * * * * * * * * * * * * * * * * * * * * * * * * * * * * * * * * //

dimensions      [1 -1 -3 0 0 0 0];

internalField   nonuniform List<scalar> 
10000
(
-0.000128019
8.36178e-05
9.3026e-06
-0.000143228
2.63531e-05
-0.000114848
-0.000124775
1.33545e-05
-6.75377e-05
-5.26882e-05
-9.40175e-05
9.60345e-05
4.51544e-05
6.04485e-05
3.7101e-05
0.000115617
5.42502e-05
-8.52324e-06
7.76212e-05
-0.000124315
0.000119524
5.16161e-05
3.54342e-05
7.37212e-05
-1.55316e-05
0.000149804
-2.83643e-05
3.59816e-05
9.41447e-05
1.47838e-05
-0.000125943
-2.51629e-06
2.28022e-06
0.000186997
-4.87721e-05
-7.50339e-05
6.62434e-05
-2.6973e-05
-2.29255e-05
5.41178e-05
-3.04902e-05
6.184e-06
3.43639e-05
2.45384e-05
-8.50922e-05
7.98708e-05
1.59519e-05
-5.18295e-05
-1.57955e-05
-5.3977e-05
-6.23958e-05
-2.43493e-05
-3.22318e-06
1.9226e-05
0.000126167
8.38569e-06
3.46919e-05
-3.7713e-05
8.68914e-05
9.5657e-08
0.000117089
6.59664e-05
-9.14261e-05
-3.86944e-05
-6.90658e-05
3.51937e-05
-4.71464e-05
-4.11451e-05
0.000141915
0.000108464
2.5785e-05
3.94982e-05
-5.2871e-06
-8.04804e-05
2.6265e-05
-1.86774e-06
-2.58514e-05
-3.14054e-05
5.34758e-05
-0.00023203
-0.000125566
-6.38924e-05
-0.000105945
6.72114e-05
-1.81618e-06
-0.000163505
9.408e-05
0.000177204
8.70709e-06
5.05696e-05
6.34503e-05
1.77149e-05
0.000146364
-9.0163e-05
-2.5187e-05
-4.73394e-05
8.78698e-05
4.76125e-05
3.70921e-05
-4.71551e-05
-0.000123257
-3.0642e-07
-0.00010304
-6.02311e-05
-0.000106895
-0.000143488
-5.5284e-05
2.28016e-05
-8.50119e-05
-0.000130656
-0.000151217
-0.000282269
-4.69028e-05
-0.000112685
0.000144882
4.61021e-05
-4.02694e-05
6.57647e-06
1.43682e-05
1.35329e-06
9.56169e-05
0.000105368
1.55072e-05
0.000123077
-3.29858e-05
-5.95229e-05
-8.86245e-05
0.000240079
3.90051e-05
0.000174494
0.000209779
0.000361531
-6.69898e-06
4.79635e-05
8.73108e-05
2.44514e-05
0.000109719
0.000105548
-0.000171272
-6.44021e-05
-4.66152e-05
5.55076e-05
-0.000116349
-5.50694e-05
-3.64565e-05
-6.22943e-05
-0.000107342
4.49759e-05
-1.90465e-05
-7.87656e-05
0.000116152
-2.77371e-05
3.01742e-06
1.29795e-05
5.95168e-05
5.05132e-05
-0.000123692
-6.29395e-05
3.36557e-05
-9.37715e-05
-2.47561e-05
0.000114922
0.000118291
-4.37561e-05
-2.95405e-06
-8.65971e-06
0.000127716
-9.312e-05
2.8992e-05
-5.49396e-05
0.000144138
-1.565e-05
6.5552e-05
-2.4192e-05
-4.78177e-05
2.00838e-05
0.00014027
0.000132188
0.000111878
2.75886e-05
0.000318225
3.9689e-05
-9.21318e-05
0.000110969
6.9751e-05
0.000147097
2.93607e-05
6.0917e-05
-0.000119357
3.51617e-05
-7.18657e-05
3.79691e-06
-2.05134e-05
-7.73966e-05
-1.63735e-05
0.000123717
-0.000160985
2.39291e-05
-7.78811e-05
-9.01705e-05
-0.000151505
-0.000174373
9.60379e-05
-0.000171556
4.06679e-05
-0.000104906
-5.53299e-05
-0.000192365
-3.15305e-05
-0.000154295
-2.57165e-05
5.31282e-05
7.23146e-05
0.00014263
-6.19385e-05
0.000136052
3.69813e-05
2.2375e-06
5.73821e-05
0.000119485
0.000100247
3.15555e-05
0.000138788
-1.49384e-05
4.79074e-05
4.24378e-05
0.000115392
0.00010331
-2.94212e-05
-6.04694e-06
8.34845e-05
0.000104239
5.21477e-05
0.000168859
3.18402e-05
4.65742e-05
-8.54483e-06
-5.95428e-05
2.15104e-05
-2.9615e-05
2.2126e-05
0.000154405
3.1355e-05
7.78833e-05
0.000150561
1.13773e-05
7.14653e-05
7.62236e-06
-1.05707e-05
-8.86039e-05
-0.000109877
2.4512e-05
-9.03944e-05
-6.83743e-05
7.09564e-05
5.58864e-05
-6.25946e-05
-0.000223346
5.61057e-05
-7.97031e-05
-0.000218034
-0.000168833
2.60325e-05
-0.000137625
5.46764e-06
1.81689e-05
2.5312e-05
5.36958e-06
-0.000215403
7.21794e-06
3.40847e-05
0.000156227
-1.86168e-05
-6.97808e-05
6.544e-05
2.26086e-05
4.76344e-05
0.00010835
9.30664e-05
0.000161505
-0.000112394
8.55164e-05
6.04487e-05
7.64706e-06
-0.000188026
9.19736e-05
-0.000104513
-5.04414e-05
1.02333e-05
-4.64951e-05
-5.98738e-05
-0.000145483
-4.19706e-05
-8.5849e-05
-2.39098e-05
-8.30975e-05
-6.64526e-05
7.41749e-05
0.000153183
-1.47228e-05
1.8061e-05
6.92622e-05
-3.5375e-06
-6.8427e-05
-0.000129346
1.20541e-05
7.46615e-05
-8.04482e-05
-5.37733e-05
-1.3884e-05
-6.51856e-06
0.000121181
0.000133923
-2.50722e-05
-3.33529e-05
-6.76477e-06
-0.000124245
2.20474e-05
-9.97954e-05
2.04146e-05
6.03681e-06
2.01836e-05
3.52207e-05
2.96527e-05
-4.40693e-05
4.18996e-05
-7.53343e-05
-0.000168851
3.87887e-05
-2.2318e-05
2.64466e-06
4.99726e-05
9.95657e-05
0.000105161
7.91899e-05
2.06927e-05
4.01318e-05
9.02806e-05
5.98495e-05
-6.55656e-06
-1.85707e-05
-4.8149e-05
3.1387e-05
-8.03627e-05
4.20814e-05
8.72911e-06
-2.37698e-05
8.09137e-05
0.000215939
7.10092e-05
3.86014e-05
-3.47673e-05
0.000128506
-8.47176e-05
6.18773e-05
-0.000269238
-6.00439e-05
0.000105994
-9.62437e-05
1.23796e-05
0.000127238
-2.79671e-05
-8.66917e-06
5.72402e-05
0.000105724
0.000142804
-4.48076e-06
8.08307e-05
-6.14698e-06
5.00076e-05
0.000143172
-2.57586e-05
-0.000157351
5.08569e-05
-0.000183242
-7.26798e-05
-4.59481e-05
-0.000171843
-8.27845e-06
6.77101e-05
1.12905e-05
0.000100124
1.06532e-05
-8.33546e-05
-7.46862e-05
-6.77113e-05
-0.000152309
1.90339e-05
-8.70422e-05
2.7551e-05
1.1643e-05
-0.000104765
-0.000173204
-5.20497e-05
0.000196139
0.000105395
1.39906e-05
0.000124546
6.41666e-05
-3.39581e-05
-4.8141e-06
0.000231763
4.62221e-06
-0.000110111
-5.6998e-05
-9.41672e-06
-0.000145056
-8.98482e-05
6.15939e-05
-1.15828e-05
6.8301e-06
7.52519e-05
2.36702e-06
-5.17723e-05
-0.000141496
5.73461e-05
-9.28173e-05
-5.70203e-08
-3.29593e-05
0.00010579
6.03506e-06
9.75208e-05
5.64837e-05
0.000149856
1.63875e-06
-3.89336e-05
4.74554e-05
-2.16534e-05
-2.84081e-05
7.169e-05
8.26093e-05
4.60918e-05
0.000127532
0.000134063
6.5461e-05
-3.45098e-05
0.000104787
3.00346e-05
0.00017392
0.0001164
6.12575e-05
5.33701e-05
-9.25398e-05
2.38988e-05
5.98375e-05
-0.000128704
7.85501e-05
4.52244e-05
-7.24479e-05
5.96097e-05
1.9719e-05
-6.61704e-05
-2.73849e-05
4.55591e-05
-3.10768e-05
7.01598e-06
5.88008e-05
-8.76307e-05
9.06053e-05
-2.9475e-05
-5.14681e-05
1.03743e-05
-0.00010766
-7.08892e-06
6.58024e-05
5.84738e-06
-0.000133766
-0.000194952
-9.53358e-05
1.75833e-05
-0.000123117
-0.000124489
-7.12406e-05
-0.000127788
-9.11639e-05
8.34948e-05
-0.000144186
-8.1752e-05
-0.00011061
-7.0354e-05
0.000102417
-3.04423e-05
1.18251e-05
7.49237e-05
-1.61663e-05
3.68492e-05
8.30986e-05
7.07349e-05
0.000105212
1.98345e-05
0.000263029
-3.45265e-05
0.000156856
-6.53389e-05
6.88672e-06
0.000123402
-6.29622e-05
-6.03143e-05
-0.000150277
-0.000171293
5.50747e-05
-5.02266e-05
-2.41368e-05
-2.06647e-05
-9.62779e-05
5.71295e-05
9.44043e-05
-0.000129426
-2.74487e-05
-2.89466e-05
-9.38483e-05
-0.000173884
3.40843e-05
1.83867e-05
-4.34334e-05
-0.000109021
-9.76005e-05
-0.000176953
-0.000218201
-0.000106658
-5.21323e-05
-5.03918e-05
3.66757e-05
2.23565e-05
-6.37327e-05
-0.000143364
-0.000102882
-7.87642e-05
-1.36436e-05
4.58355e-05
3.7894e-05
-0.000161617
0.000263216
4.52171e-05
6.86973e-05
0.000160236
2.18922e-06
3.57609e-05
-5.00656e-05
0.000140637
2.94721e-05
2.92273e-05
-1.29187e-05
-0.000105098
-0.00014384
-5.79498e-05
-0.00013298
-9.91149e-05
-0.000120108
-3.96885e-05
-7.88206e-05
-3.71797e-05
-0.000244417
5.77707e-05
-7.3008e-05
-8.22441e-06
-0.000194325
-0.000198859
-9.19035e-05
-6.98904e-05
-4.39519e-06
8.22106e-05
-6.43579e-05
-3.07868e-05
-4.1305e-06
-6.33974e-05
-3.7413e-05
-7.1515e-05
-5.74214e-05
-9.49556e-06
0.000154044
8.14671e-05
0.000189871
9.7365e-05
7.71604e-05
9.93303e-05
0.000110966
9.23673e-05
9.70829e-05
3.45043e-05
0.000115294
0.000137193
5.10747e-05
0.000213117
3.53333e-05
-8.09665e-05
-7.60817e-05
2.62035e-05
6.9388e-05
0.000141399
-2.19882e-05
-1.39862e-05
0.000123756
-8.71255e-05
9.31737e-05
0.000120964
-4.41775e-05
6.26795e-05
3.18994e-05
5.63637e-06
8.99894e-05
-4.03993e-05
-5.49048e-06
-0.000204332
3.79686e-05
2.92137e-05
8.91892e-05
-0.000114704
8.2897e-05
-1.23006e-05
1.44755e-06
1.00316e-05
-9.48221e-05
-7.7151e-06
-0.000236387
-3.6411e-05
-0.00015396
-0.000101156
-0.00017811
-0.000139556
-0.000173522
-4.75142e-05
-4.3036e-05
1.72115e-05
4.9698e-05
9.73859e-05
3.01345e-05
7.1392e-05
4.45799e-05
-6.97817e-06
-0.000103281
5.19353e-05
8.72703e-05
-1.84385e-05
0.000129945
-0.000102879
-1.11192e-05
2.4721e-05
-6.29823e-05
3.61814e-05
4.53962e-05
1.33591e-05
1.16806e-05
6.47031e-05
0.000236881
6.91384e-05
3.93443e-05
-0.00016447
3.10098e-05
0.000107059
5.17125e-05
-5.31974e-05
-5.84355e-05
7.41922e-05
6.27262e-05
-4.92403e-05
0.000198588
0.000162882
0.000113132
-0.000188706
0.000161228
2.07197e-05
7.71791e-05
1.95442e-05
0.000105369
-0.000201989
0.000124442
-0.000132997
-0.000154568
-0.000100099
-5.98596e-05
2.22705e-05
2.06782e-06
-1.7231e-05
-0.00015104
-4.36787e-05
-7.14698e-05
-6.6751e-05
-0.000149902
-0.000253975
-7.84509e-05
-8.49369e-05
-0.000232622
-5.14763e-06
-9.06004e-05
-1.52371e-05
-1.4882e-05
-4.12578e-05
-0.000108687
6.38007e-05
0.000108829
5.60225e-05
0.000164738
5.19072e-06
0.000133381
0.000146621
0.000183613
0.000227728
0.000180907
-7.76184e-05
0.000161942
0.000163849
-4.67499e-05
-0.000101277
0.000131063
5.66065e-05
-4.45874e-05
4.4842e-05
-5.33582e-06
0.000127508
-6.28841e-05
5.3957e-05
0.000124095
-5.06045e-06
-5.76537e-05
4.17481e-05
-4.05087e-05
-0.000135523
-0.000122509
-8.49182e-05
-6.34528e-05
-8.48064e-05
-4.20012e-05
3.37845e-06
-0.000115674
1.72488e-05
1.99728e-05
-1.09547e-05
0.000244512
-9.62173e-06
0.000157142
-4.02282e-05
1.21208e-05
2.16298e-05
3.61031e-05
0.000159365
-2.38207e-05
0.000144648
-9.91982e-05
1.56392e-05
8.49775e-05
-3.36344e-05
-5.80545e-05
-1.11693e-05
4.82665e-05
0.000122757
0.000218043
0.000179061
1.12887e-05
4.4864e-06
4.56445e-05
5.66986e-05
-0.000110221
-0.000150001
3.99814e-06
-6.55169e-05
4.91638e-05
-0.000114899
2.73365e-05
-0.00011826
-0.000200336
-9.55365e-05
-0.000149877
-0.000177503
1.22996e-05
4.57395e-05
1.564e-05
-1.42307e-05
-5.24331e-05
-9.05904e-05
-7.84218e-05
1.88059e-05
-0.000189497
-8.31541e-05
-2.9959e-05
-0.000164565
-0.000105001
-1.40016e-05
0.000122365
-7.09614e-05
7.89628e-06
-8.2612e-05
1.32426e-05
6.2526e-05
4.02844e-05
2.21074e-05
-0.000118533
0.000116682
-7.98832e-06
0.000163228
1.33104e-05
-6.62832e-06
-2.63874e-05
-2.012e-05
5.73122e-05
5.83321e-06
-7.77171e-05
7.95554e-05
-1.97058e-05
-0.000156233
-5.44426e-05
-4.58658e-05
3.06668e-05
0.000115526
9.84428e-05
0.000211603
-7.70806e-05
6.69679e-05
7.56081e-05
5.91123e-05
0.000180333
-8.30718e-05
2.16086e-05
-0.000109114
2.8719e-05
1.79523e-05
-0.000141318
-6.78942e-05
-0.000134799
9.30581e-05
1.78233e-05
-1.08462e-05
6.51384e-05
0.00012176
-2.42915e-05
7.96212e-05
9.6177e-05
-4.55761e-06
-5.6909e-05
-5.64474e-05
-0.000145542
-1.71777e-05
7.15709e-05
0.000123939
3.21464e-05
-6.50893e-06
5.48541e-06
-2.41206e-06
0.000108434
-0.000100897
-3.10462e-05
5.89921e-05
-4.53539e-06
1.76534e-05
4.73048e-05
-0.00020824
-5.51899e-05
-8.30034e-05
-9.25969e-06
-0.000239457
-0.000247264
-0.000240582
3.64017e-05
-8.41263e-05
-8.947e-05
0.000109086
-5.86989e-05
4.24812e-05
-3.56733e-05
-5.83963e-05
1.93122e-05
-3.07998e-05
5.49135e-05
0.000126813
7.96272e-05
0.000109443
6.81113e-05
1.09891e-05
-5.62287e-05
-3.54118e-05
3.40181e-05
3.59248e-05
5.12186e-05
-1.06225e-06
0.000127127
0.000121191
7.36013e-06
6.66034e-05
5.43418e-05
-9.43671e-05
-0.000138058
4.08165e-05
-9.84465e-05
0.000189055
8.74918e-05
2.63437e-05
-0.000136718
-0.000199843
6.56237e-05
-0.000129572
-4.22403e-05
8.23875e-05
-3.16873e-05
0.000102186
5.96586e-05
-8.98258e-05
7.87966e-05
1.22203e-05
-9.46493e-05
-1.47202e-06
-2.08436e-05
0.000194466
0.000128426
-6.39779e-05
-7.54311e-06
8.51322e-05
0.00012624
-1.43568e-06
0.000121007
9.50706e-05
0.000127655
-0.000185942
-5.51216e-05
-8.13478e-05
2.29564e-07
2.48028e-06
-2.40185e-05
5.27872e-06
5.81995e-05
-3.40023e-07
3.90839e-05
3.53751e-05
-1.4716e-06
-0.000113871
9.06045e-05
-3.30676e-05
-5.93106e-05
0.000226596
-5.80312e-08
8.25197e-05
2.42769e-05
-3.78899e-06
0.000252409
-3.65606e-06
6.31308e-05
-8.27674e-06
-3.13083e-05
9.26331e-05
4.69465e-05
-0.000101185
-0.000100969
-7.01004e-05
-0.000194113
-3.89917e-05
-0.000168214
-9.73769e-05
-0.000184168
-0.000169937
-7.02139e-05
-0.000115104
-2.81727e-05
-7.70903e-05
6.35163e-05
0.000141261
-0.000148097
-0.000101016
-0.000173948
-4.8823e-05
-0.000226439
5.22712e-05
-0.000103546
-6.93214e-06
-7.85433e-05
5.75398e-05
3.41289e-06
9.52223e-05
0.000117229
-4.86931e-06
-2.82625e-06
-2.95582e-05
5.00757e-05
0.000131007
0.000178339
1.82647e-05
9.42055e-05
0.000116458
0.000110385
3.61607e-05
-2.98598e-05
-1.05592e-05
4.67696e-05
0.000224689
-4.50947e-05
5.30247e-05
-1.41669e-05
2.55831e-05
3.98261e-05
6.50654e-05
0.000154767
1.98026e-05
4.21664e-05
-5.42163e-06
0.000103352
2.17468e-05
-4.90181e-05
-4.25907e-05
9.38807e-05
-7.19066e-05
-1.5648e-05
0.000202912
0.000163319
-0.000113662
-6.66168e-05
-0.000211815
-6.86399e-05
7.97014e-05
-0.000120491
-5.76971e-05
-8.54666e-05
6.76017e-06
6.5698e-05
-0.000177341
-8.23007e-05
-7.0569e-05
-5.06743e-05
-1.95387e-05
-1.27396e-05
-4.41716e-07
3.66485e-05
-6.2789e-05
1.41894e-05
-0.000110195
6.01686e-05
0.000165678
2.87916e-05
-5.31539e-05
-1.77329e-05
8.97896e-05
-0.00033121
-7.32312e-05
-3.72127e-05
1.8084e-05
-0.000154294
1.16233e-05
-5.04719e-06
9.909e-06
-4.51669e-05
-6.81928e-05
-0.00022656
-9.99595e-05
-7.11499e-05
-6.59221e-05
-1.29093e-05
8.49338e-05
1.98627e-05
-1.94474e-05
-3.90281e-06
-1.72708e-05
-5.68687e-05
-2.51693e-05
2.97727e-05
0.00010489
-5.97604e-05
3.44594e-05
3.34333e-05
0.000146539
0.000155787
2.60178e-05
0.000204089
-3.76029e-05
-0.000176967
4.46225e-05
0.000197605
0.000101775
2.03681e-05
-2.29154e-05
0.000101357
-1.354e-05
2.08771e-05
-7.39006e-05
7.90918e-05
0.000138
0.00010369
2.22614e-05
-2.01876e-05
-8.92842e-05
-3.15716e-05
-2.77627e-05
-1.12429e-05
-1.62123e-05
-5.56092e-05
0.000163697
-0.000149276
-0.000102916
-1.94216e-05
-0.000277056
-0.000112666
-6.33739e-05
-3.62352e-05
2.38148e-05
-0.000182843
8.4993e-05
-9.21706e-05
-7.418e-05
-1.56616e-05
7.88066e-05
0.000160126
0.000180691
8.0877e-05
0.000212575
0.000240048
8.96093e-05
1.06899e-05
3.05044e-05
-0.000104251
-4.88609e-05
4.56334e-05
6.29846e-05
-1.82624e-05
5.70476e-05
4.82937e-05
8.05078e-05
1.19322e-05
-3.36385e-05
5.96383e-05
-0.000167043
-0.000190112
2.22173e-05
6.99e-05
-3.26923e-05
-8.33228e-05
-3.34046e-05
8.26274e-05
-2.22942e-05
-0.000138104
5.18341e-05
8.45482e-05
4.68397e-05
6.84359e-05
-7.60523e-05
-4.05005e-05
-9.8673e-05
7.64943e-05
-7.37813e-05
-4.06773e-05
-1.15579e-07
-9.41533e-05
-0.000127879
-1.23968e-05
8.71653e-05
9.23192e-05
7.31525e-05
-0.000166736
4.81908e-05
-0.000109853
-9.60953e-05
-0.000102384
-6.80149e-05
5.12251e-05
-9.99201e-05
-2.59923e-05
3.60972e-05
5.69275e-06
-0.000217983
-0.000179258
-0.000221687
-0.000129664
-4.2617e-05
7.87881e-05
-0.000118449
-8.92046e-05
3.21268e-05
-2.45038e-05
-2.52739e-06
-9.53205e-06
-1.08236e-05
6.21415e-05
0.000115496
-7.9163e-06
-4.20092e-05
-3.22109e-05
-3.17285e-06
2.09412e-06
-6.64845e-05
8.98236e-05
8.60868e-05
-9.71366e-05
1.4691e-05
0.000202397
0.000180099
0.000181914
0.00013195
1.24632e-05
0.000333842
0.000203444
0.000150758
2.91646e-05
4.21325e-05
1.88692e-05
-3.40337e-05
0.000222652
2.58938e-05
-7.03771e-05
-2.16752e-05
-0.000132656
9.9015e-06
5.73521e-05
-2.55391e-05
-1.26316e-05
9.39524e-05
-0.000250797
-5.49038e-05
-4.62128e-05
-5.15518e-05
-0.000136811
0.000145415
-1.1978e-06
-0.00021258
-0.000221277
2.19287e-05
-0.000183175
4.78296e-05
-1.12777e-05
-2.40122e-05
-4.55416e-05
0.000219979
-4.93256e-05
-8.89064e-05
-3.42302e-05
4.41677e-05
-6.01208e-05
-1.29927e-05
0.000113223
-2.73176e-05
0.00015272
-3.77391e-05
-5.80953e-05
-3.82447e-05
-9.22599e-05
-6.4147e-05
-3.22064e-05
0.000198478
6.60903e-05
0.000223905
-2.1209e-05
-0.000174849
6.84789e-05
9.65452e-05
-6.54015e-05
2.51147e-05
-1.19978e-05
-0.000160095
-4.00724e-05
0.000138045
1.94222e-06
-0.000161721
-5.50213e-05
-8.61597e-05
-4.962e-05
-0.000115003
3.35218e-05
0.000107257
-9.29328e-05
2.1005e-05
0.00012692
0.000125607
3.54067e-05
3.84263e-05
-5.68336e-05
0.000105249
0.000115874
-0.000178703
-5.7669e-05
-4.46394e-05
-3.96558e-05
-9.64383e-05
-2.9349e-05
-0.000189215
4.86117e-05
-9.88216e-05
6.40371e-05
-9.92646e-05
-0.000118025
-8.67951e-05
-8.19236e-05
-9.13386e-05
-0.00011269
4.91494e-05
-2.60916e-05
1.31255e-05
-5.57273e-05
-3.88393e-05
0.000102233
6.15765e-07
3.13564e-05
9.74899e-05
7.39338e-05
0.000186058
-3.64124e-05
8.85718e-05
0.000110675
0.000112396
8.91559e-05
8.30401e-05
5.02828e-05
5.27247e-05
3.25153e-05
-5.0911e-05
7.33917e-05
7.38753e-05
8.03769e-05
-3.32698e-05
-3.07596e-05
-0.00014724
1.92139e-05
0.000132385
-0.000146898
7.72095e-05
-3.11944e-05
-9.24529e-05
-1.22451e-05
-3.0596e-05
-2.80319e-05
-7.39256e-05
-5.95226e-05
0.000293846
0.000141084
-8.22203e-05
7.13318e-05
6.39288e-06
0.000165096
-0.000181551
-2.70007e-05
4.14379e-05
-8.72762e-05
0.00016222
1.10177e-05
-1.61318e-05
3.75945e-05
1.60903e-05
-1.62504e-05
-7.92689e-05
-4.52676e-05
2.54295e-05
3.21757e-05
-4.47046e-06
6.19519e-05
0.000157692
-2.86353e-06
8.55486e-05
-6.0818e-05
-8.08453e-05
6.70253e-05
-1.45706e-05
-0.000291918
-0.000260246
-0.000177592
-8.70023e-05
1.36755e-05
-0.000104506
-0.000112518
-2.16184e-06
2.48529e-05
-2.6777e-05
0.000104273
1.99256e-05
7.46109e-05
4.03007e-05
-2.6771e-05
2.45023e-05
1.09639e-05
-6.85259e-06
0.000169466
0.000276719
0.000182764
3.74994e-05
-1.36816e-05
-1.68611e-05
-2.23605e-05
-0.000149977
-8.08291e-05
6.54016e-05
-5.44226e-07
-6.08008e-05
9.4285e-06
7.51566e-05
-4.34564e-05
1.20237e-05
-0.000114107
0.000200401
-6.99651e-05
3.86818e-05
-3.83776e-05
9.61588e-05
4.80798e-07
-8.3676e-05
-1.04397e-05
-2.62825e-05
-6.05794e-05
-9.54622e-05
6.55079e-05
-7.03058e-05
5.72958e-05
-7.97029e-05
-0.000117227
-0.00015037
-9.53235e-05
-8.06842e-05
3.5642e-05
4.94206e-05
4.14059e-05
-3.33433e-05
9.9336e-06
-2.32951e-05
-6.0445e-05
5.87736e-05
-2.4176e-05
4.98616e-05
0.000134012
0.000204967
0.000105493
-2.13191e-05
5.07145e-05
0.000162197
9.05223e-05
0.000157291
-6.7499e-05
-2.63211e-05
-2.58847e-05
6.46237e-05
5.02901e-06
-2.13137e-05
3.85225e-05
-9.4234e-05
2.65901e-05
-7.1063e-05
-0.0001414
-9.25627e-05
-5.76501e-05
-4.52355e-05
-0.000163472
-6.6013e-05
-4.69578e-05
-4.64823e-05
0.000174764
7.6695e-05
-1.40904e-05
-5.46396e-05
-1.01125e-05
0.000118027
6.01545e-05
0.000205581
-5.78382e-05
0.000110318
-3.69126e-05
0.000129075
0.000216197
3.65864e-05
4.72046e-06
0.000167158
6.34388e-05
-3.8856e-05
-8.49865e-05
-2.23662e-05
-4.30225e-05
-4.41039e-05
0.000194946
-3.50197e-05
0.000209397
-0.000120029
9.70917e-05
3.41321e-05
-4.00141e-05
-0.000306008
-0.000176764
-3.31584e-05
-0.000148129
5.54183e-05
-3.76327e-05
-0.000190539
2.88066e-05
-9.19767e-05
-4.75873e-05
-7.56415e-05
4.42325e-05
-5.86858e-06
2.40462e-05
-4.14136e-06
-0.000125463
0.000172514
-4.07381e-07
-0.000112536
2.26802e-05
0.000150836
0.000105158
6.2935e-05
-5.66791e-05
-0.000153365
-7.05982e-05
-4.38948e-05
-0.000102322
0.000179263
6.21967e-06
8.69793e-05
1.45796e-05
0.000153383
1.52609e-05
0.000123382
-9.59624e-06
2.16752e-05
-3.8683e-05
-5.05123e-05
-2.76931e-05
-0.000227768
4.41748e-05
-8.01854e-07
-0.000108607
0.000140419
5.78302e-06
6.05166e-05
-5.75672e-05
-6.82814e-05
-1.80356e-05
-5.80462e-05
2.46652e-05
-2.29557e-07
0.000135799
-6.64126e-05
-1.38023e-05
-2.92808e-05
-0.000121802
-2.78643e-05
-3.54281e-05
5.05985e-05
4.74283e-05
9.99248e-05
1.29772e-06
-4.82746e-05
4.19898e-05
0.000140403
-1.06312e-05
-3.95619e-05
4.8164e-05
-9.56792e-07
-8.73483e-05
-4.88409e-05
-2.94202e-05
0.000113518
-9.22647e-05
-8.59205e-06
-0.00016255
-0.000150284
-6.00458e-05
-2.25536e-05
2.92719e-05
0.000107673
3.52696e-05
8.34365e-05
5.88135e-05
0.000140722
8.50979e-05
2.67872e-05
-0.000179487
-5.73349e-05
4.64058e-05
0.000162026
7.86046e-05
6.40391e-05
4.52782e-05
4.80028e-05
0.000193202
-2.70586e-05
6.86423e-05
-0.000116693
3.80466e-05
0.000141082
0.000204841
9.49475e-05
-0.000111951
-8.38085e-05
5.80804e-05
-4.76557e-05
-6.84667e-06
-7.66868e-05
0.000157181
-0.000107073
4.89645e-05
4.746e-05
-4.6945e-05
0.000122352
-0.000119812
-0.000145135
0.000155959
5.4221e-05
-7.87384e-05
2.49493e-05
-1.31404e-05
5.60009e-05
7.70616e-05
-2.1857e-05
-0.000230912
0.000138006
-3.09553e-06
-0.00015486
-7.35232e-05
-0.000144203
-0.000230569
2.38436e-05
-6.81867e-05
-5.928e-05
6.99431e-05
-7.82971e-05
-0.000111987
-1.10276e-05
1.67658e-05
-1.8342e-05
-1.55407e-05
4.06988e-05
-4.62818e-05
3.56327e-05
-3.53673e-05
-2.60072e-05
2.15321e-05
7.10328e-05
3.07329e-06
0.000152026
4.4098e-05
5.14419e-05
0.00019967
-1.56094e-06
0.000276678
0.000104869
0.000101395
-1.61653e-05
0.000103782
0.000160634
2.12532e-05
0.00015994
-4.93203e-05
0.000219266
0.000123798
-0.000184829
7.01905e-05
-3.92771e-06
2.77967e-05
-4.19614e-05
0.000216715
0.000113172
-9.65189e-05
-0.000222418
-0.000184154
-0.000174606
-9.94335e-05
-3.70046e-06
-0.000160505
6.97902e-05
-5.51154e-06
-4.59349e-05
0.00012257
-0.000113913
-2.7184e-05
-1.69529e-05
0.000121692
-4.34526e-05
-0.000157675
9.14321e-06
-9.02148e-05
6.81708e-05
-3.15557e-05
9.62863e-06
3.21615e-05
-0.00023094
-3.8829e-05
-0.000113669
-0.000131319
1.16406e-06
-2.63024e-05
-5.01087e-05
1.69498e-05
8.36464e-05
-0.000138325
-5.43945e-05
1.27669e-05
5.26196e-05
1.34905e-05
0.000132211
-0.000128666
-4.76738e-05
2.23531e-05
0.000189166
0.000189004
0.000182242
1.84885e-05
-6.39577e-05
1.48763e-05
-5.38024e-05
2.60544e-05
0.000160163
0.000125907
-0.000181454
0.000214243
0.000151827
-7.37049e-05
8.25803e-06
-0.000162366
-4.98528e-05
2.86906e-05
2.08033e-05
-7.46524e-05
4.817e-05
-8.30734e-06
-3.9844e-05
6.94255e-05
-6.24425e-05
7.03212e-05
-6.72306e-05
-5.75522e-05
2.58373e-06
-2.65932e-05
-7.29075e-05
-0.000127695
-7.83589e-06
2.91791e-05
-4.12515e-05
-1.4538e-05
-8.41867e-05
-9.09504e-05
-0.0001067
-4.49328e-05
5.20032e-05
-9.45064e-06
1.45347e-05
-1.86082e-05
1.29947e-05
-0.000129412
6.23661e-07
-5.24606e-05
-0.000114076
-4.18959e-05
-5.03194e-05
6.4354e-05
5.38907e-05
-2.67994e-05
-8.15109e-05
-0.000148942
6.05276e-05
-7.02265e-05
0.000172534
-7.929e-05
0.000139967
5.46079e-05
0.000157112
8.33502e-05
0.000136342
2.802e-07
0.000130865
2.54158e-05
0.000124202
1.58471e-05
6.89782e-05
0.000146015
-5.87354e-06
-9.19412e-05
-0.00014906
4.68421e-05
-0.000104828
0.000129872
4.99623e-06
-0.000269299
-4.52354e-05
2.9308e-05
0.000125809
-4.527e-05
2.8248e-05
-2.59933e-05
0.000180201
-7.45428e-06
-4.06847e-05
7.20619e-06
-1.18906e-05
2.27306e-05
-0.000250185
0.000118131
2.35014e-05
-1.80684e-05
-0.000161253
-4.54417e-05
-0.000125463
-0.000100127
5.23153e-05
7.31427e-05
7.07632e-05
7.18537e-05
-2.98627e-05
-1.92874e-07
7.17206e-05
-1.43753e-05
-1.36848e-05
6.57304e-05
5.39024e-05
-4.18248e-05
-4.59291e-05
-3.00163e-05
4.14725e-05
-2.63929e-05
6.21794e-05
0.000106603
-4.85942e-05
7.60772e-05
-0.000156179
-2.20944e-05
7.25112e-06
-6.33616e-05
-3.64528e-05
9.89224e-05
1.61011e-05
-0.00013945
-1.93209e-05
3.71216e-05
-0.000160618
-9.76011e-05
-6.57369e-05
-0.000129328
0.000130778
5.27764e-05
2.52128e-05
7.4072e-05
-0.000127328
-5.07672e-05
1.32794e-05
2.40229e-05
3.03776e-05
-8.21984e-05
4.63644e-06
-0.00011315
-3.46549e-05
3.55757e-05
-2.93867e-05
4.76427e-05
4.58796e-05
-6.59518e-05
-1.47526e-05
4.96488e-05
-6.74037e-05
-8.43465e-05
-4.69887e-05
-4.55686e-06
3.61958e-05
-9.24972e-05
0.000125926
-0.000102957
6.32798e-05
4.33761e-05
6.54765e-05
-2.77164e-05
-2.51749e-05
5.76175e-05
4.57212e-05
-0.000131954
0.000110271
8.28814e-05
-6.84999e-05
4.60716e-05
-0.000139157
-0.000102949
4.2478e-05
-2.17482e-05
-4.25598e-05
-0.000121571
-7.74861e-05
-4.16165e-05
-9.60011e-05
-3.88227e-05
-0.000100568
-5.69603e-05
0.000120739
8.98526e-05
7.48229e-05
-4.06253e-05
5.91332e-05
-1.01725e-05
-1.27098e-05
6.82402e-05
-1.31789e-06
-2.23825e-05
2.38369e-05
0.000168688
-4.74732e-05
1.90255e-05
9.08841e-05
0.000193944
0.000105632
2.70604e-05
-1.05079e-05
2.98379e-05
-2.65657e-05
2.82764e-05
-3.09426e-05
-0.000106887
-9.81324e-05
7.49294e-06
-1.71917e-05
-0.000210804
8.23537e-05
-1.96729e-05
-0.000264371
-7.12296e-06
-6.64243e-05
-2.79214e-05
2.40665e-05
-5.54195e-05
0.000136236
0.000168195
1.51615e-05
2.18655e-05
-7.14553e-05
8.66891e-05
-0.000108761
2.0994e-05
-9.1456e-05
-5.19647e-05
0.000110039
7.52903e-05
0.000197796
0.000186946
-4.3567e-05
-3.5033e-06
5.96743e-05
-1.21676e-05
-9.97338e-05
1.93491e-05
-9.51088e-05
-5.76414e-05
-1.041e-06
-5.74043e-05
-6.62333e-05
-4.11362e-05
-8.88263e-06
9.55699e-06
2.36203e-05
-3.63943e-05
-0.000199312
-0.000229355
1.09167e-05
-0.000111151
3.27967e-05
1.91467e-05
-8.21885e-06
1.4804e-06
-7.71304e-05
-3.03466e-05
0.000100932
-0.000201033
1.56954e-05
5.74241e-05
0.000151512
-0.000141841
5.45938e-06
0.000115715
0.00010943
9.17456e-05
2.45578e-05
-9.84833e-05
-1.5851e-05
-6.64552e-05
-5.70418e-05
-0.000272252
-4.45721e-05
-7.4331e-05
-7.06374e-05
-0.000208665
-4.60849e-05
-8.30229e-05
-8.60769e-05
-2.84741e-05
1.64687e-05
-5.64735e-06
-8.54182e-06
-1.24485e-05
7.78845e-05
-5.23447e-06
0.000161596
6.62367e-05
-9.29461e-05
4.51492e-05
0.000126259
8.87858e-05
6.32884e-05
2.60634e-05
-9.7532e-06
3.51978e-05
-8.2082e-05
-0.000123313
7.05599e-07
-3.92076e-05
7.08322e-05
0.000111584
4.89139e-05
-9.27493e-05
-0.000156527
-0.000171786
-1.48414e-05
-9.54989e-05
-2.74511e-05
-2.80982e-05
3.98175e-06
-0.000124858
-2.53968e-05
3.21114e-05
-2.30139e-06
4.07032e-05
1.77599e-05
7.7121e-05
3.67324e-05
-1.79809e-05
0.000152565
9.90696e-05
-5.19861e-05
-4.85965e-05
-6.23829e-05
5.3745e-05
0.000103011
-4.49692e-05
9.26321e-05
6.07742e-05
3.45438e-05
8.36211e-06
0.000128532
2.16381e-05
-1.0834e-05
-3.21255e-05
2.69481e-05
-4.83862e-05
-3.16746e-05
-1.48751e-06
7.26632e-05
6.98663e-05
0.000137984
-0.000135202
2.9755e-05
5.03007e-05
-8.79066e-05
0.000112662
6.86971e-05
0.000185916
-3.55791e-05
1.30932e-05
-6.79106e-05
1.61141e-05
-4.95888e-05
3.43416e-05
-6.84769e-06
4.58233e-07
-3.88319e-05
-2.1164e-05
9.23977e-05
-0.000114089
4.94411e-05
7.9898e-05
-1.98983e-05
-1.40757e-06
2.40819e-05
-4.79219e-05
3.93329e-05
9.36812e-05
-3.26682e-05
3.0868e-05
-8.77019e-05
-9.65009e-05
0.000106815
1.72648e-05
-4.29435e-05
-7.65722e-06
8.70996e-05
-2.95082e-05
0.000127589
1.25263e-05
6.31626e-05
-6.56649e-05
-0.000151344
1.12279e-05
-6.8799e-05
-6.9669e-05
-1.7693e-05
2.55288e-05
-9.74696e-05
-6.40016e-05
8.06888e-05
-3.61806e-05
-7.08469e-05
-1.5179e-05
-5.12898e-05
-8.35347e-05
-0.000123896
-6.69258e-05
9.06982e-05
0.000110449
0.000174673
3.54424e-05
-5.37929e-05
7.70717e-05
0.00025587
5.42747e-05
7.77699e-05
9.39691e-05
-1.48861e-05
-0.000144992
-5.84988e-05
-5.21544e-05
-5.21675e-05
-5.94542e-05
-0.000105933
-5.42587e-05
0.000200311
-4.18514e-05
9.70275e-05
3.87551e-05
8.73863e-05
-0.000156072
2.30318e-05
8.01444e-06
7.48256e-05
-7.31124e-05
-1.75447e-05
-7.96661e-05
-6.66636e-05
1.39904e-05
8.25745e-05
1.18958e-05
6.97733e-05
7.67918e-05
0.000217806
-1.81834e-06
0.000103698
3.1511e-05
9.74982e-05
0.000124553
3.54564e-05
0.000229321
9.88401e-05
6.62579e-05
7.48802e-05
7.30476e-05
0.000137325
7.08911e-05
0.000120721
5.62597e-07
5.97259e-05
0.000136014
9.84716e-05
0.000115468
-4.55107e-05
-2.07625e-05
-9.97578e-05
4.40468e-05
9.14701e-05
-4.90476e-05
0.000156978
-3.47408e-05
2.20755e-05
6.24469e-05
0.000145311
0.000278886
7.43526e-05
-3.66803e-05
0.000123728
5.3198e-05
1.95885e-05
5.02542e-05
0.000170646
4.13117e-05
6.36739e-05
-3.80412e-05
0.000160776
6.56533e-05
-8.88301e-06
-6.58757e-05
-2.65155e-05
-4.42733e-05
5.11081e-05
1.12143e-06
-1.66371e-05
0.000130668
-5.35135e-05
2.28957e-05
0.000225843
0.000109737
-9.46162e-06
-2.25494e-05
-5.19003e-06
-8.84702e-05
-5.84005e-05
-6.96687e-05
-9.23662e-05
-5.55765e-05
-0.000120555
-0.000140213
6.80526e-05
-0.000235033
-0.000134864
-2.03769e-05
-8.16109e-05
-5.89714e-05
-0.000260895
-7.09546e-05
-2.48341e-05
-0.000155352
6.43878e-05
5.31254e-05
-0.000112179
-0.00014883
-5.73016e-05
-0.000108601
2.45929e-05
-0.00011893
2.25091e-05
-7.26846e-05
-2.26139e-05
0.000106744
8.93804e-05
-0.000146364
-1.2439e-05
-9.09079e-05
0.000144876
-6.73137e-05
1.41428e-05
6.67877e-05
-5.12029e-05
0.000121547
6.54554e-05
8.84942e-05
8.6062e-05
3.76139e-05
9.48659e-05
0.000103546
-3.96401e-06
0.000223277
-7.67078e-05
-2.19575e-05
0.000162487
7.04485e-05
4.71051e-06
-1.59702e-05
-2.47922e-05
2.0264e-05
-0.00015225
0.000127379
2.74536e-05
0.000159871
6.26364e-05
7.61636e-05
4.36111e-05
5.08539e-05
0.000170202
5.96035e-05
4.70383e-05
0.000107566
-8.51082e-05
-6.2014e-05
-0.000101328
0.000118305
-8.35813e-05
7.43221e-05
-0.000180001
-0.000147886
1.42699e-05
-0.000292664
-0.000202278
-0.000266913
-8.27225e-05
-7.01962e-05
-3.29139e-05
-0.000173386
-0.000331997
-0.000234625
-0.000458218
-0.000381762
-0.000599099
-0.000656845
-0.00118762
-0.00161627
-0.00242588
-0.00334661
-0.00461854
-0.00652384
-0.00918847
-0.0127961
-0.0176897
-0.0247432
-0.0345949
-0.0477727
-0.0660898
-0.0916722
-0.126209
-0.173965
-0.239356
-0.328378
-0.449723
-0.614961
-0.839161
-1.14275
-1.5532
-2.10706
-2.85244
-3.85386
-5.19634
-6.99244
-9.38966
-12.5825
-16.8263
-22.4535
-29.8991
-39.7278
-52.6734
-69.6846
-91.9859
-121.154
-159.21
-208.744
-273.06
-356.363
-463.985
-602.674
-780.939
-1009.47
-1301.68
-1674.29
-2148.15
-2749.08
-3509.04
-4467.37
-5672.35
-7182.99
-9071.16
-11424
-14346.8
-17966.1
-22433.4
-27929.2
-34667.8
-42901.8
-52927.7
-65091.9
-79796.3
-97504.7
-118749
-144134
-174346
-210153
-252411
-302065
-360146
-427772
-506140
-596513
-700209
-818579
-952986
-1.10477e+06
-1.27523e+06
-1.46556e+06
-1.67683e+06
-1.90993e+06
-2.16553e+06
-2.44405e+06
-2.74559e+06
-3.0699e+06
-3.4164e+06
-3.7841e+06
-4.17163e+06
-4.57724e+06
-4.99883e+06
-5.43396e+06
-5.87994e+06
-6.33386e+06
-6.79265e+06
-7.2532e+06
-7.7124e+06
-8.16721e+06
-8.61477e+06
-9.05242e+06
-9.47777e+06
-9.88876e+06
-1.02836e+07
-1.0661e+07
-1.10199e+07
-1.13594e+07
-1.16794e+07
-1.19795e+07
-1.226e+07
-1.25213e+07
-1.27637e+07
-1.29881e+07