/*--------------------------------*- C++ -*----------------------------------*\
  =========                 |
  \\      /  F ield         | OpenFOAM: The Open Source CFD Toolbox
   \\    /   O peration     | Website:  https://openfoam.org
    \\  /    A nd           | Version:  9
     \\/     M anipulation  |
\*---------------------------------------------------------------------------*/
FoamFile
{
    format      ascii;
    class       volScalarField;
    location    "0.007";
    object      ddt0(rho,K);
}
// * * * * * * * * * * * * * * * * * * * * * * * * * * * * * * * * * * * * * //

dimensions      [1 -1 -3 0 0 0 0];

internalField   nonuniform List<scalar> 
10000
(
-1.38182e-19
-4.09058e-19
-1.39491e-18
-1.79532e-18
-1.03398e-18
-3.59928e-19
7.46482e-19
5.53507e-19
-1.16873e-18
-2.56364e-18
-2.65343e-18
-1.14212e-18
-1.43736e-18
-2.48268e-18
-2.49701e-18
-3.32054e-18
-3.11718e-18
-2.04584e-18
-1.36018e-18
-1.26816e-18
-8.67295e-19
9.28361e-19
5.07366e-19
2.7683e-19
-1.42613e-19
-1.37161e-18
-1.38538e-18
1.60674e-19
4.85266e-19
4.92507e-19
8.26878e-19
1.64009e-19
3.26444e-19
2.27106e-18
1.68109e-18
-3.52052e-19
-1.30643e-18
6.31001e-22
1.84803e-19
-5.30051e-19
-1.24747e-18
3.26904e-19
2.53696e-18
4.82196e-19
6.4755e-19
3.31103e-18
3.11257e-18
1.42342e-18
2.21848e-18
2.21744e-18
4.77388e-19
1.52534e-19
1.32855e-18
6.30969e-19
1.78114e-19
8.77154e-19
1.65351e-18
1.78893e-18
7.53317e-19
-1.29735e-18
-1.60227e-18
4.19836e-19
-5.85992e-23
-2.1795e-19
4.30966e-19
-1.26242e-18
-1.29838e-18
-1.72434e-18
-1.34994e-18
-2.56636e-18
-5.73163e-18
-5.05777e-18
-2.0781e-18
-1.53945e-18
-3.44629e-18
-4.61385e-18
-5.59133e-18
-3.52344e-18
-2.2765e-18
-3.85578e-18
-1.44993e-18
6.80616e-19
2.54015e-21
3.92993e-22
-2.22498e-18
-2.51534e-18
-1.44782e-18
-8.50109e-19
-4.33521e-19
2.10697e-19
2.39591e-18
3.91081e-18
2.67762e-18
2.28176e-19
4.75249e-19
4.6106e-19
1.61547e-18
5.06767e-18
5.70675e-18
1.73258e-18
7.09248e-19
2.12884e-18
1.56175e-18
1.3417e-18
-1.24557e-18
-1.99133e-18
-2.72194e-18
-2.79855e-18
-4.8563e-19
-8.00274e-19
4.36325e-19
1.50611e-18
9.48275e-19
2.32709e-19
3.25919e-19
-8.26583e-19
-1.10091e-19
9.64287e-19
5.83592e-19
1.51545e-18
1.09329e-19
-1.60381e-18
-7.54116e-19
6.83778e-19
-1.34368e-19
-9.36147e-19
-1.17666e-18
-1.67882e-18
-1.57162e-19
1.63755e-18
-5.18425e-19
-4.80608e-18
-4.77382e-18
-4.15376e-19
4.28532e-19
4.45204e-19
1.1186e-18
-2.2404e-19
-1.71302e-18
-3.22895e-18
-2.8161e-18
-5.67282e-19
7.34404e-21
-1.0645e-18
-3.21666e-18
-2.95507e-18
-8.55273e-19
-8.52058e-19
-8.32138e-19
4.97428e-19
3.40613e-19
1.59915e-18
3.29935e-18
1.45021e-18
-2.83372e-18
-3.3928e-18
-1.48295e-18
-2.17936e-18
-1.16824e-18
1.53633e-18
1.46266e-18
1.89963e-18
1.65298e-18
8.91813e-19
1.84007e-18
5.25893e-19
6.65584e-19
3.27654e-18
2.4781e-18
4.2579e-18
3.67947e-18
2.02312e-18
4.42043e-18
5.66966e-18
2.63808e-18
5.53137e-19
-1.26295e-18
-4.65178e-22
1.02227e-18
1.126e-18
2.0441e-18
-7.34308e-19
-3.4876e-18
-3.67371e-18
-4.81264e-19
-2.44844e-18
-4.84904e-18
-2.51477e-18
-4.76745e-19
1.43014e-18
-5.77669e-22
-1.68353e-18
1.38411e-18
3.06115e-18
4.41484e-19
-1.16557e-18
-2.48744e-18
4.35343e-19
2.03641e-18
8.19961e-19
1.35114e-18
-7.39044e-19
-2.56848e-18
-2.48384e-18
-1.38518e-18
8.77562e-19
1.0178e-18
4.74583e-19
5.27025e-22
1.94937e-19
-3.59641e-19
-1.55143e-18
-1.26447e-18
-8.31402e-19
6.22266e-19
1.09052e-18
-4.69536e-19
-3.73863e-19
-2.50666e-19
-8.24891e-19
-1.35459e-19
4.30926e-19
-4.5072e-19
-1.91154e-18
-1.28235e-18
-3.31412e-19
-1.89831e-18
-1.78893e-19
1.04864e-18
1.06134e-18
8.86186e-19
1.50241e-18
2.90949e-18
1.06105e-18
4.44409e-19
1.55586e-18
1.60076e-18
9.20059e-19
-4.67619e-22
-1.18363e-21
1.32408e-18
-4.53564e-19
1.69446e-18
3.61939e-18
2.04252e-18
1.27083e-18
5.18451e-19
-2.34208e-18
-2.05436e-18
-5.02695e-19
-2.9662e-18
-3.38417e-18
1.17522e-18
1.36581e-18
-1.87274e-18
-2.46757e-18
-1.60835e-18
8.50462e-19
6.10199e-19
-6.00466e-19
-2.49689e-18
-3.19337e-18
1.36598e-21
2.27502e-18
8.50966e-19
1.8479e-18
2.94539e-18
1.77465e-18
4.72188e-19
-7.50458e-19
-6.10563e-19
-4.61125e-19
-2.13028e-18
-9.86888e-19
8.2761e-19
4.1494e-22
-1.0369e-18
-2.71996e-18
-5.80717e-19
3.1961e-18
2.87146e-18
1.59836e-18
4.02785e-18
3.94293e-18
2.08276e-18
1.76769e-18
9.8039e-19
1.49954e-18
2.75466e-18
3.94364e-18
3.24712e-18
3.2192e-18
3.36522e-18
2.02836e-18
2.07917e-18
3.25439e-18
1.84908e-18
-1.3451e-18
-1.89791e-18
-5.29184e-19
1.88217e-19
-3.75136e-19
-3.37762e-18
-3.49774e-18
-1.55446e-18
-3.27477e-18
-3.46075e-18
6.05325e-19
-4.28516e-19
-1.26904e-18
2.76188e-18
1.24118e-18
-1.56206e-18
1.29481e-18
6.61637e-19
-1.89429e-18
-2.13939e-19
4.01657e-19
-1.00918e-18
7.32129e-19
1.88302e-18
1.71841e-19
-1.39066e-18
-6.80765e-19
2.11566e-18
3.19936e-18
2.83797e-18
1.10396e-18
3.10982e-19
1.31254e-18
2.38565e-18
1.74033e-18
-2.06611e-18
-2.13929e-18
-8.08805e-19
-1.84578e-18
-2.91385e-18
-5.90533e-19
7.49333e-19
-6.07119e-19
-3.1972e-19
6.35688e-19
-4.9273e-19
-3.40149e-18
-4.22378e-18
-2.72106e-18
-3.04168e-18
-1.57286e-18
-7.18194e-19
-2.66593e-18
-5.76173e-18
-4.01417e-18
8.1533e-19
1.59893e-18
2.01725e-19
5.82008e-23
1.85853e-19
1.70833e-18
9.14851e-19
9.23078e-19
2.36064e-18
2.54685e-18
2.26348e-18
2.70905e-18
1.62859e-18
-6.30212e-19
-6.68206e-19
-1.67505e-18
-1.17021e-18
2.38819e-19
-9.60979e-19
-5.62988e-18
-5.20141e-18
-2.61351e-18
6.80668e-19
-3.70119e-21
-3.32866e-18
-1.99954e-18
-1.17623e-18
-2.60677e-18
-2.41548e-18
-3.94837e-19
1.57379e-18
4.0549e-18
2.43756e-18
3.63509e-18
5.70036e-18
3.77868e-18
3.59169e-19
2.60553e-18
3.24055e-18
2.83566e-18
2.66594e-18
2.87888e-18
1.40632e-18
1.68046e-19
1.40795e-18
-3.80378e-19
-1.93417e-18
-1.96927e-18
-2.10667e-18
-2.89355e-18
-4.02182e-18
-5.81038e-18
-5.45134e-18
-3.96139e-18
-2.93149e-18
-3.05463e-18
-2.54646e-18
-1.39014e-18
-6.0853e-23
1.4604e-18
2.73024e-18
2.89547e-18
1.40506e-18
5.32299e-19
1.67427e-19
1.9263e-18
2.13722e-18
1.56063e-18
1.28896e-18
1.43729e-18
3.41625e-18
4.33075e-18
4.40738e-18
5.39875e-18
3.97898e-18
2.30495e-18
2.47478e-18
3.42847e-18
1.99383e-18
1.03316e-18
-3.40939e-19
-1.44372e-18
-2.77132e-18
-2.81344e-18
-2.59167e-18
-5.95857e-18
-3.94099e-18
-2.40049e-18
-8.8627e-19
3.67156e-18
1.38071e-18
-4.62362e-18
-2.84922e-18
7.2584e-19
2.25855e-19
-2.36241e-19
-4.63041e-19
-2.56317e-18
-1.62593e-18
1.92343e-18
-1.3116e-22
-4.73517e-19
-1.15953e-18
-1.4456e-18
3.0322e-18
4.30156e-18
5.41493e-23
-1.42061e-18
2.29113e-19
6.96055e-19
-1.36874e-18
4.45202e-19
2.71909e-18
3.24123e-18
1.14773e-18
2.21514e-19
8.39643e-19
6.01506e-19
3.73777e-19
3.64908e-19
3.62086e-19
5.32625e-19
-6.47905e-19
-9.76427e-19
-3.39704e-21
-3.00471e-18
-5.21478e-18
-3.34517e-18
-4.01588e-19
1.16927e-18
8.79563e-19
1.30816e-18
2.16019e-18
1.00872e-18
-1.73915e-19
7.25377e-19
1.45637e-18
2.88393e-18
2.35171e-18
4.79591e-22
-2.17777e-18
-6.66131e-19
-6.42492e-19
-5.76878e-18
-7.9376e-18
-4.9862e-18
-2.5992e-18
-3.17658e-18
-1.71554e-18
3.3795e-19
-7.63907e-22
1.49428e-18
2.2694e-18
8.24252e-19
2.2921e-18
2.50107e-18
1.59653e-19
4.80236e-19
1.97811e-18
3.3974e-18
3.72421e-18
1.76054e-18
2.19857e-21
3.75773e-19
1.3008e-18
5.21774e-19
-3.70081e-19
-3.7241e-19
-1.94376e-19
-4.4289e-19
-1.90632e-19
-7.91566e-19
-1.33829e-18
-1.04059e-18
-6.30616e-19
-5.23447e-19
6.79179e-22
1.03307e-18
1.26766e-18
7.72959e-19
-2.46271e-19
-1.83179e-18
-2.74066e-18
-2.3341e-18
-2.56213e-18
-1.95392e-18
-1.63634e-18
-3.57116e-18
-3.21203e-18
-3.24168e-19
-8.40178e-19
6.5087e-19
9.82972e-19
-7.74069e-19
-1.55877e-19
2.92378e-19
7.15207e-19
7.85926e-19
1.38603e-19
2.45646e-19
6.24025e-19
4.1179e-19
1.18929e-18
1.89367e-18
1.93329e-18
1.34304e-18
1.03894e-18
5.06751e-19
5.76976e-19
3.17252e-19
3.11567e-21
-6.39986e-20
5.81478e-20
3.12951e-19
3.4148e-21
-5.1638e-20
4.46994e-20
2.59235e-19
4.47798e-19
-1.39e-19
-6.40601e-19
-9.16269e-19
-2.07081e-18
-1.43249e-18
-2.40342e-19
-9.15506e-19
-1.08779e-18
-7.07823e-19
-8.68387e-19
-1.32026e-18
1.39278e-18
3.20206e-18
2.16567e-18
8.22717e-19
6.65975e-19
-1.63258e-19
6.87953e-19
1.24353e-18
1.28574e-18
1.44525e-18
1.9753e-18
1.68269e-18
9.52129e-19
1.1766e-18
9.80407e-19
8.08686e-19
-1.18707e-18
8.11019e-19
-4.26106e-19
-3.04574e-18
-2.76541e-18
-2.51174e-18
-3.17173e-18
-3.49429e-18
-4.19781e-19
6.27838e-19
4.03632e-19
1.66893e-18
7.98554e-19
1.26691e-18
1.00773e-18
-2.0573e-19
9.49737e-19
2.88738e-18
3.36731e-19
1.68724e-19
1.19543e-18
8.45816e-19
5.72555e-19
-4.35846e-19
-1.92506e-19
1.88095e-19
-5.45383e-19
9.68321e-20
9.50486e-20
-2.14439e-19
4.49749e-19
1.74512e-21
-3.39269e-19
-4.74599e-19
-1.28133e-18
-9.36092e-19
1.06943e-18
1.72275e-18
1.03414e-18
1.68727e-18
2.05725e-18
2.04179e-18
1.92541e-18
1.27106e-18
1.01327e-18
1.7678e-18
2.07542e-18
2.37524e-18
-6.50799e-19
-1.66304e-18
4.94994e-19
1.53873e-18
8.62416e-19
-1.36806e-18
-1.52321e-18
9.96807e-19
-8.25627e-22
-3.72169e-18
-4.09661e-18
-4.70047e-18
-3.51821e-18
-2.05747e-19
-1.05407e-18
-6.66647e-19
4.44115e-19
-3.36884e-18
-5.03904e-18
-2.48717e-18
4.37293e-19
-1.33235e-18
-2.09904e-18
-6.15752e-19
-1.52244e-21
1.31224e-18
1.73462e-18
1.29937e-18
1.49603e-23
-1.52491e-19
8.13934e-19
1.38417e-18
1.60073e-18
8.71126e-19
-2.30166e-19
7.25746e-19
2.98915e-19
-2.61735e-19
3.46e-19
1.68602e-19
6.99362e-19
4.16959e-19
1.10255e-21
-2.49847e-19
-7.40108e-19
-9.87968e-20
-5.12004e-19
-3.28975e-19
8.38365e-19
1.37814e-19
-8.25981e-19
-4.56275e-19
-3.16064e-19
-1.67356e-18
-2.02105e-18
-5.61916e-19
-9.76957e-19
-1.98872e-18
-3.93297e-18
-3.87001e-18
-2.03068e-19
-8.06799e-19
-2.5029e-18
-4.62825e-18
-5.07308e-18
-2.31945e-18
1.96516e-19
1.93446e-19
7.16841e-19
2.20208e-18
1.53115e-18
1.6399e-19
-1.4835e-19
-5.58547e-19
6.82161e-19
1.27902e-18
1.14076e-18
2.64581e-18
3.62893e-18
2.18003e-18
8.81073e-19
2.62241e-18
3.22264e-18
1.20901e-18
3.74427e-19
1.49443e-18
1.2405e-18
5.52427e-19
1.69936e-18
7.93757e-19
5.17948e-19
1.60651e-18
-9.27303e-19
-2.01372e-18
-2.63773e-18
-5.32977e-18
-3.54599e-18
-9.65072e-19
-2.25089e-18
-2.98165e-18
-4.7389e-19
7.27753e-19
1.82802e-18
2.51306e-19
-2.92459e-18
-1.55798e-18
-1.60804e-18
-2.28383e-18
1.04709e-18
2.85805e-18
5.03963e-19
-7.51345e-19
1.23726e-18
-1.38465e-18
-2.2607e-19
2.06283e-19
-1.12132e-22
2.00364e-18
1.36126e-18
2.2567e-18
2.1687e-18
-6.99457e-19
7.37605e-19
1.68028e-18
-3.51316e-19
-6.5297e-19
-3.28325e-19
1.49205e-19
1.09946e-18
-2.93317e-19
-1.01528e-18
-6.57369e-19
5.8429e-22
1.70154e-18
2.18581e-18
6.25404e-19
-2.63542e-19
7.6263e-19
1.24011e-18
1.39176e-18
2.44881e-18
2.93367e-18
1.96758e-18
-9.40613e-19
-4.3514e-19
8.31324e-19
-4.22777e-19
-4.19104e-19
1.28059e-21
-2.94662e-19
-1.317e-18
-2.19421e-18
-1.4833e-18
-1.37199e-21
6.48962e-19
8.88588e-19
2.35836e-18
2.04005e-18
-4.44333e-19
-2.6241e-18
-1.11567e-18
-1.32161e-18
-2.60363e-18
-2.45652e-18
-5.06528e-18
-4.24974e-18
-2.10162e-18
-1.11263e-18
-5.76598e-19
3.79757e-19
-7.67756e-19
-1.27461e-18
1.48745e-21
-1.04573e-18
1.77181e-19
3.52747e-19
-1.23807e-18
-1.07775e-18
-1.82837e-19
-1.85088e-18
-1.76361e-18
1.9884e-19
-9.86905e-19
-1.93256e-19
1.80204e-19
-8.95371e-19
-3.13758e-18
-1.27404e-18
1.46693e-18
5.81701e-19
1.40403e-18
2.4316e-18
-4.06435e-19
-1.00531e-18
2.0283e-19
1.62965e-18
1.80981e-18
6.13493e-19
-1.26088e-18
-1.02762e-18
1.97815e-19
-3.02321e-21
1.35351e-18
1.69067e-18
-6.74131e-19
-1.84616e-18
-1.40155e-18
3.97703e-19
5.84353e-19
-4.66946e-19
-2.33786e-19
-1.19246e-19
-1.26094e-19
1.56524e-18
5.80893e-19
-7.93356e-19
-2.31566e-19
-5.05738e-19
-1.86776e-18
-1.31253e-18
1.12861e-21
6.0189e-19
1.46337e-18
1.01407e-18
-2.9576e-19
-1.45583e-19
1.36715e-18
-6.01094e-19
-2.35131e-18
-1.30512e-18
-1.37779e-18
-1.87215e-18
-2.1337e-18
5.13826e-19
1.32872e-18
4.88257e-19
1.30377e-18
1.67721e-18
2.22362e-18
2.62588e-18
1.75701e-18
2.98403e-18
3.96726e-18
3.84021e-18
1.84807e-18
7.7786e-19
9.02243e-19
8.36176e-19
1.17021e-18
1.3271e-18
1.21618e-18
4.58957e-19
1.16547e-18
2.46868e-18
1.73735e-18
8.1574e-19
-2.78751e-19
-2.33336e-18
-3.1667e-18
-3.49111e-18
-2.6123e-18
-2.9973e-18
-5.36563e-18
-5.19855e-18
-3.61057e-18
-2.25777e-18
-1.09956e-18
-1.9098e-18
-3.42576e-18
-2.16144e-18
-1.64728e-18
-2.31466e-18
-1.10814e-18
-1.54066e-19
9.33373e-19
1.6323e-19
1.64548e-19
-4.84862e-19
-7.97835e-19
6.64064e-19
1.1587e-18
2.08527e-18
9.31011e-19
2.65967e-18
3.77013e-18
1.8503e-18
-2.11486e-19
2.23049e-19
2.28643e-18
1.14792e-18
6.82674e-19
4.38195e-18
7.70624e-18
6.92885e-18
1.56216e-18
-1.78056e-21
1.17466e-18
-5.87418e-19
-8.66711e-19
1.03567e-18
6.17079e-19
2.97227e-19
-4.00132e-19
-9.15174e-19
-1.74231e-18
-2.00997e-18
-6.31326e-19
-5.54361e-19
-5.06931e-19
-1.9541e-19
-8.02148e-20
-6.25809e-19
-4.44316e-19
-6.76533e-19
-1.22493e-18
-5.52678e-19
1.69727e-19
-5.48187e-20
-1.66834e-19
2.83735e-19
5.77247e-19
-6.76899e-20
-1.43047e-21
5.4832e-19
1.61615e-19
-3.41371e-19
-4.93924e-19
-1.82386e-18
-7.1126e-19
-3.935e-19
-1.41447e-19
4.63347e-19
-1.96107e-18
-6.7488e-19
1.00123e-18
1.83217e-19
3.66854e-19
1.80541e-19
-1.97476e-18
-2.34433e-18
-3.67834e-19
5.53076e-19
-1.84742e-19
-1.91531e-18
-9.18974e-19
1.08939e-18
-3.9126e-24
-1.22392e-22
-3.77012e-19
-7.39617e-19
-5.42582e-22
2.01038e-18
4.01847e-18
3.40969e-18
3.27089e-18
5.10538e-18
4.92578e-18
3.05357e-18
2.21617e-18
3.83774e-18
2.88616e-18
-1.74833e-19
-2.27562e-18
-2.46166e-18
-1.1711e-18
1.57268e-21
2.95047e-19
-5.41978e-19
2.82236e-19
-2.60246e-19
-4.05116e-19
5.2426e-19
-8.08101e-19
-3.07563e-18
-2.63807e-18
-1.26172e-18
-1.2544e-18
-2.34771e-18
-4.36599e-18
-4.97804e-18
-3.84527e-18
-1.31418e-18
1.51499e-19
-4.19178e-19
-4.21772e-19
5.42707e-19
1.16377e-18
1.23429e-18
1.28066e-18
1.43509e-18
1.42795e-18
1.28147e-18
2.18312e-18
1.77274e-18
1.39987e-18
5.93949e-19
4.2402e-19
6.63342e-19
8.33535e-20
-2.1877e-19
7.48309e-20
2.71961e-19
8.38238e-19
8.46561e-19
4.85789e-19
3.12443e-19
5.13088e-19
8.78684e-19
6.20698e-19
8.78774e-20
2.89267e-19
-5.78212e-19
-9.89751e-19
-1.43495e-18
-1.40287e-18
-1.10963e-18
-1.49699e-18
-1.26517e-18
2.21607e-21
6.14136e-19
-1.13814e-18
-1.48687e-18
3.38724e-19
3.36294e-19
8.89637e-19
1.69344e-18
7.29287e-22
-3.33694e-18
-8.71687e-19
4.06053e-18
2.36949e-18
-1.65558e-18
5.23643e-19
2.80143e-18
1.83444e-18
1.44825e-18
1.1683e-18
1.10297e-18
1.81279e-18
1.95431e-18
1.14052e-18
3.9501e-19
6.51781e-19
-6.4678e-19
-1.29424e-18
2.40842e-19
9.22756e-19
-6.26532e-19
-9.48303e-19
6.3168e-19
8.31621e-19
1.27403e-18
1.67901e-18
-4.21892e-19
-1.82467e-18
-1.77599e-18
-2.35831e-18
-1.50738e-18
-2.851e-18
-3.90405e-18
-2.61844e-18
-1.57887e-18
-2.58329e-18
-8.33455e-19
-1.50372e-19
-1.0522e-18
-6.58162e-19
4.72196e-19
-1.64162e-19
-4.60569e-19
-2.48723e-18
-2.63942e-18
1.13673e-18
-9.92077e-19
-1.24942e-18
1.70753e-18
1.32461e-18
-9.69042e-19
-1.57578e-19
2.97165e-18
2.24894e-18
1.51728e-18
2.50616e-18
3.40187e-18
3.80727e-18
3.1179e-18
3.96924e-18
5.4135e-18
2.60822e-18
-1.24156e-18
-1.66799e-19
6.39931e-19
-7.85532e-19
-4.69273e-19
2.9895e-19
1.57591e-19
-8.64392e-19
-2.01154e-18
-4.04094e-19
1.35528e-19
5.96693e-19
2.07359e-18
9.58308e-19
-3.60028e-19
-9.0784e-19
-4.78212e-19
-1.15395e-18
-1.24704e-18
-7.77003e-19
-4.42971e-19
-7.39573e-20
-6.88893e-19
-1.15339e-19
4.64668e-19
2.13043e-19
-2.30202e-19
-6.29171e-19
-1.1248e-19
-1.91971e-19
-6.5671e-19
-7.55371e-19
-8.65132e-19
-3.69666e-19
-1.20041e-19
-3.88073e-19
-9.331e-19
-1.74193e-18
-1.25168e-18
-1.41384e-19
-7.71794e-20
-7.19165e-20
1.43105e-19
2.01749e-21
4.24703e-19
1.36584e-18
1.03404e-18
5.9309e-19
6.5646e-19
1.99584e-18
2.32304e-18
5.04757e-19
1.70192e-18
3.53993e-18
3.76093e-18
4.23763e-18
4.13261e-18
3.3536e-18
1.75461e-18
4.97761e-19
1.21811e-18
3.48706e-19
-8.91774e-19
5.35793e-19
3.21088e-18
1.72122e-18
1.49847e-18
4.56032e-19
-1.67393e-18
2.74828e-19
1.14553e-18
1.09997e-18
1.45702e-18
7.31e-19
-1.03601e-18
-1.41192e-18
9.54394e-22
-3.56468e-19
-1.15069e-18
-1.75881e-18
-2.23024e-18
-2.23848e-18
-5.05332e-19
4.72394e-19
9.05767e-19
9.72551e-19
1.59265e-18
2.12763e-18
1.81568e-18
3.93385e-19
-1.56702e-18
-2.84256e-19
-1.46013e-19
-1.92168e-18
-1.33073e-19
8.62358e-19
1.2122e-18
6.91829e-19
-1.56729e-19
-6.29375e-19
-1.33863e-18
-2.71773e-18
-4.24619e-18
-1.97964e-18
-1.13396e-18
-1.81163e-18
-6.21981e-19
7.49085e-19
1.40464e-19
-8.48847e-19
-1.30597e-19
6.38167e-19
1.92112e-18
2.47402e-18
1.08985e-18
3.95779e-19
-2.93671e-19
2.07786e-19
1.11829e-18
9.90929e-19
-2.88282e-19
-1.06778e-19
9.88154e-19
1.0356e-18
6.83537e-19
1.15091e-18
1.21561e-19
-4.70198e-19
-6.69609e-19
-1.02317e-18
-1.29954e-21
-1.07464e-19
-4.84112e-19
-6.62012e-19
-2.64457e-19
-5.50659e-19
-8.95873e-19
-9.31505e-19
-6.42708e-19
-3.42977e-19
-7.08296e-19
-5.92321e-19
-3.39131e-19
-1.069e-19
2.47429e-19
-2.42863e-19
-3.33125e-19
-4.33618e-20
-1.63809e-19
-1.93749e-19
-1.39425e-19
-1.08289e-18
-1.1659e-18
-6.24878e-19
-7.3066e-19
-1.06569e-18
-2.10415e-19
1.34427e-18
1.26142e-18
8.02522e-19
9.70386e-19
1.25036e-18
3.34004e-18
2.92561e-18
1.40876e-18
2.10484e-18
2.47526e-18
3.24978e-18
2.88586e-18
1.93581e-18
9.7317e-19
2.84872e-19
-2.84718e-19
1.53224e-19
2.84095e-19
4.26036e-19
-9.74288e-19
-1.81487e-18
-1.33801e-19
-1.34416e-19
-1.13291e-18
8.09469e-22
9.33572e-19
-9.07592e-19
-1.03593e-18
-1.55486e-18
-4.63785e-19
1.52746e-19
-8.64266e-19
-1.12439e-18
-1.02217e-18
-1.33642e-18
-2.7242e-18
-3.56331e-18
-1.52902e-18
-6.18477e-19
-1.55645e-18
-6.74207e-19
1.71949e-18
1.98486e-18
1.34916e-18
1.69111e-18
2.29606e-18
2.40025e-18
1.43766e-18
3.39675e-18
2.42883e-18
1.35067e-18
1.34637e-18
-6.41124e-19
-2.40342e-18
-2.26267e-18
7.08649e-19
1.4018e-18
-3.45988e-19
-3.28029e-19
4.81314e-19
-6.57763e-22
-2.67521e-19
-3.77427e-19
-5.46981e-19
-6.62951e-19
-1.84713e-18
-1.66156e-18
-6.0718e-19
-3.22042e-19
-5.46995e-19
-1.45448e-18
-1.22408e-18
-1.43561e-19
7.86935e-19
2.31306e-18
3.62589e-18
3.09296e-18
1.9728e-18
1.2695e-18
9.83499e-19
5.49016e-19
-5.36755e-19
1.0686e-18
2.13791e-18
2.66832e-19
-9.32238e-19
-1.11769e-18
7.62591e-19
1.1273e-18
-9.85643e-19
-9.96053e-19
-6.32828e-19
1.28559e-18
1.24718e-18
-1.54168e-18
-1.46942e-18
-4.67892e-19
-4.26103e-19
-3.02083e-19
-3.02661e-19
-5.8877e-19
-1.02583e-21
-5.61346e-19
-1.07946e-18
8.34542e-20
7.44401e-20
-1.48511e-19
-9.43423e-19
-7.06218e-19
3.14195e-19
8.14755e-19
4.71915e-19
4.39594e-19
3.47022e-19
1.9343e-19
3.74193e-19
3.03021e-19
2.7479e-19
1.18785e-18
1.22515e-18
-1.01374e-19
-4.51375e-19
-1.11245e-18
-1.23742e-19
2.26289e-19
-2.47556e-19
3.35021e-19
6.42467e-19
4.72794e-19
-1.06049e-18
-1.94855e-18
-1.69911e-18
-9.48422e-19
-6.58992e-19
-7.25089e-19
-2.3839e-18
-2.14804e-18
-1.52552e-18
-1.45125e-18
-8.52406e-19
-8.88416e-20
7.23265e-19
9.18767e-19
1.37205e-18
4.75066e-19
-3.63102e-19
-1.19551e-19
-6.17762e-19
-1.6854e-18
-1.84752e-18
2.74896e-19
8.58246e-19
5.76545e-19
-2.39027e-22
1.61243e-19
1.90814e-18
2.47547e-18
7.02871e-19
-8.81449e-19
-1.09011e-18
-1.65044e-18
-6.95468e-19
3.39714e-19
3.3034e-19
-2.48329e-21
1.26005e-18
1.55297e-18
3.51364e-18
6.1692e-18
4.31429e-18
3.20326e-18
4.81495e-18
3.23305e-18
1.73963e-18
1.18705e-18
8.22134e-19
5.0206e-19
-1.27306e-19
2.25259e-19
1.18996e-19
-4.01824e-19
-6.61105e-19
-8.32046e-19
6.92816e-19
-2.08601e-19
-1.9321e-18
-1.16839e-18
-5.46237e-19
-5.23873e-19
-9.75423e-19
-1.04151e-18
-4.40213e-19
-1.03354e-19
-2.29681e-19
-3.08635e-19
-2.23315e-22
2.73584e-19
-5.44166e-19
-8.3231e-19
-5.12469e-19
7.47393e-20
2.60777e-19
-1.73418e-19
2.03718e-19
1.93688e-19
-3.22121e-19
-4.94725e-19
-2.17862e-19
1.28323e-18
7.54031e-19
-1.27505e-18
-9.55755e-19
-7.16522e-19
-5.18939e-19
1.01659e-19
-1.19656e-18
-1.0321e-18
2.27647e-19
-3.41939e-19
-5.13306e-19
-8.26863e-19
-8.70057e-19
1.39755e-21
-1.54908e-19
-5.95417e-19
-6.42216e-22
-4.87401e-19
-2.93983e-19
1.43139e-19
-6.50998e-20
-5.18111e-19
-1.77992e-19
-4.77693e-19
-7.50644e-19
-1.66792e-21
-4.3379e-22
-1.61291e-19
-8.01625e-20
5.31504e-19
8.69447e-19
7.53805e-19
5.67693e-19
2.89808e-19
5.53083e-19
9.29814e-19
1.02708e-18
9.15864e-19
4.00316e-19
4.73665e-19
7.38298e-19
8.11907e-19
9.82609e-19
1.59446e-18
1.23077e-18
-9.53218e-20
-5.13983e-19
-1.00804e-18
-4.36719e-19
1.33056e-18
1.50523e-18
9.7036e-19
1.31175e-18
9.81293e-19
-7.21732e-19
-1.67448e-18
-1.00614e-21
5.4382e-19
6.78451e-19
1.13802e-21
-1.29427e-19
3.87344e-19
4.71111e-19
3.57872e-21
3.51403e-19
6.99415e-19
-7.08009e-19
-1.77251e-18
-8.42208e-19
-1.6686e-18
-1.63244e-18
-1.07928e-18
-1.21117e-18
4.84603e-19
-3.28156e-23
-2.94571e-18
-1.80901e-18
6.16152e-22
1.29649e-18
-1.09919e-21
-2.01081e-18
-6.39374e-19
-3.19619e-19
-9.6763e-19
-1.55635e-19
2.58936e-18
1.91229e-18
-5.29549e-19
-1.40588e-18
-1.76565e-19
1.50079e-18
8.40523e-19
-2.97301e-19
-8.59487e-19
-1.27795e-18
-1.17217e-18
-1.08392e-18
-6.95062e-19
-6.37697e-19
-1.32015e-18
-8.12972e-19
-9.42643e-19
-9.66681e-19
-1.04124e-18
-8.27752e-19
-7.06409e-19
-3.43409e-19
-2.67503e-19
-9.17201e-19
-3.78415e-19
6.5596e-19
-3.61381e-19
-1.35699e-18
-9.38301e-19
3.84472e-19
5.11422e-19
6.25942e-19
5.58279e-19
-1.19475e-19
-8.24264e-19
-1.56542e-18
1.52835e-19
1.54717e-19
-6.70129e-19
-5.20492e-19
1.80948e-19
7.45618e-19
2.08778e-18
3.78819e-19
8.07261e-19
6.13602e-19
-1.61995e-18
2.01076e-19
1.19987e-18
9.80507e-19
9.70493e-19
-9.70196e-19
-9.52162e-19
8.76605e-19
1.46948e-18
2.49953e-18
2.65797e-18
2.32024e-18
1.89461e-18
1.46445e-18
1.03132e-18
6.99368e-19
1.51517e-18
1.61898e-18
9.71484e-19
1.13859e-18
5.99723e-19
1.01381e-18
1.64616e-18
5.85634e-19
-4.93937e-19
-1.14865e-21
1.21498e-21
1.27607e-19
-6.14463e-19
-1.13359e-18
5.20617e-19
2.93692e-19
-7.87036e-19
-5.4173e-19
-6.79797e-19
-1.39704e-18
-1.35313e-18
-1.10427e-18
-8.9617e-19
-1.13671e-18
-1.15789e-18
-1.64438e-18
-1.51799e-18
1.77809e-19
8.75946e-19
-3.83346e-19
-4.79238e-19
-4.16634e-19
-1.14417e-19
-8.98974e-19
-1.99564e-18
-2.88139e-19
-1.43409e-19
-5.90902e-19
7.11424e-19
1.29212e-18
1.05451e-18
1.82693e-18
3.27033e-18
1.36862e-18
-2.95608e-19
2.92721e-19
-7.08613e-19
-1.08759e-18
1.38096e-19
-4.21456e-19
1.35416e-19
4.06147e-19
-3.62923e-19
-2.46446e-19
2.28993e-19
-2.48801e-19
-1.11472e-18
4.95407e-19
1.23258e-18
9.10152e-19
9.74328e-19
8.74812e-19
1.42575e-18
1.01538e-18
8.44514e-19
1.63944e-18
1.20098e-18
6.94829e-19
-2.57362e-22
2.18954e-19
4.33809e-19
2.36506e-19
9.78863e-20
-1.19226e-19
2.4944e-19
2.49008e-19
3.02568e-19
3.15116e-19
-7.51242e-20
-3.37053e-19
-3.1058e-19
-4.59036e-19
-8.60915e-19
-1.10831e-18
-6.74059e-19
-7.10752e-19
-1.11522e-18
-8.78481e-19
-4.79346e-19
-9.2729e-19
-9.03413e-19
-1.28545e-18
-7.72448e-19
-1.68114e-19
-1.00821e-18
-1.66185e-18
-1.93436e-18
-9.3353e-19
-6.57271e-19
-4.93121e-19
8.53306e-19
1.49498e-18
7.28562e-19
2.68345e-19
1.14782e-18
1.89239e-18
2.12802e-18
1.98118e-18
6.27435e-22
-2.32078e-18
-1.61169e-18
4.77572e-19
1.99425e-18
7.39959e-19
-1.25955e-19
-1.28454e-19
-3.95207e-19
2.15746e-21
1.06183e-18
2.07137e-18
2.29184e-18
1.23277e-18
1.48955e-19
2.45867e-21
1.79977e-18
2.08851e-18
1.61073e-18
1.02901e-18
7.09847e-19
1.15862e-18
7.10457e-19
-8.4522e-20
1.65121e-19
-2.56391e-19
-7.98276e-19
-1.81915e-19
-7.99117e-19
-7.7151e-19
-7.94383e-19
-9.7781e-19
-1.01223e-19
2.83582e-19
5.74371e-19
4.94227e-19
3.02728e-19
5.79382e-19
5.79047e-19
9.37208e-19
1.956e-18
1.09766e-18
9.8741e-20
6.69677e-19
9.12402e-20
9.51641e-20
-1.73637e-19
-4.60396e-19
-4.58499e-19
4.93453e-19
2.71943e-19
-1.74212e-19
4.28323e-19
-1.72863e-19
-5.74316e-19
-5.66723e-19
-5.99324e-20
5.46857e-22
3.09192e-19
7.97723e-19
8.5601e-19
2.56778e-19
-4.47887e-19
-4.92868e-19
-1.67824e-19
-1.13946e-19
-3.92917e-19
-5.27446e-20
1.37009e-19
2.72433e-19
2.47734e-19
-2.05462e-19
-2.64072e-19
-5.28197e-20
-3.3689e-19
-4.66815e-19
-1.24323e-19
-3.53888e-19
-6.24592e-19
-6.0694e-19
-4.45976e-19
-4.63298e-19
-5.31755e-19
-8.35505e-19
-3.21087e-19
1.67701e-21
-4.78534e-19
7.03737e-19
1.47676e-18
2.65804e-19
-4.57879e-19
7.68468e-19
1.23069e-18
-5.96573e-19
-1.05805e-18
-5.21453e-19
-1.00207e-19
8.38754e-19
5.44424e-19
1.7513e-19
-6.41227e-19
-5.6501e-19
5.43853e-19
8.2178e-19
8.86554e-19
9.01629e-19
3.08148e-19
2.61513e-19
1.94613e-19
-3.09098e-19
7.74715e-20
3.75285e-19
8.28448e-19
7.90216e-19
1.39518e-18
1.41537e-18
1.13256e-18
4.15794e-19
-2.77232e-19
-7.34894e-19
-1.01832e-18
-1.0463e-18
-1.93307e-18
-2.34073e-18
-1.419e-18
-1.26046e-18
-2.28203e-18
-1.48585e-18
-1.79439e-18
-3.79547e-18
-3.13973e-18
-5.03423e-19
9.83962e-19
-1.80003e-21
-8.76813e-19
-1.27216e-18
-1.27541e-18
-1.00138e-18
-5.16812e-19
8.30718e-19
6.17306e-19
-3.70226e-19
2.66145e-19
-8.46768e-20
-1.60644e-19
7.64817e-20
4.14125e-19
1.50309e-18
1.78257e-18
1.35281e-18
9.14012e-19
6.14122e-19
-6.39642e-19
-6.25821e-19
-5.15284e-19
-8.71941e-19
-9.26774e-19
-2.04292e-18
-2.41974e-18
-1.18187e-18
6.45192e-19
7.13951e-19
9.30985e-19
1.22791e-18
7.73655e-19
9.17844e-19
1.18121e-18
1.49299e-18
1.18672e-18
1.42989e-18
1.47119e-18
5.26962e-19
-8.32282e-20
8.09903e-19
1.30164e-18
8.85487e-19
3.67786e-19
6.96115e-19
4.77236e-19
1.66757e-19
6.67099e-19
4.72686e-19
5.7037e-19
3.33868e-19
-4.00412e-19
-5.36111e-19
-5.64839e-19
-5.82176e-19
-2.62991e-19
6.51215e-20
-5.80675e-19
-5.79259e-19
-9.50594e-19
-2.0516e-18
-1.01291e-18
-6.4415e-19
-1.17282e-18
-5.75406e-19
-1.10105e-19
2.05479e-19
1.65246e-19
7.71519e-20
3.87968e-19
7.37668e-19
1.99138e-19
7.57088e-20
1.77421e-20
-6.36802e-20
-9.71003e-21
-8.85473e-21
-1.79301e-21
4.8044e-21
-8.83698e-22
2.1775e-20
-3.69546e-20
1.09986e-20
1.06196e-19
1.20462e-19
2.79468e-19
3.26473e-19
6.87458e-20
2.5514e-19
6.9622e-19
1.05251e-19
-6.09446e-20
6.1314e-20
-3.05685e-19
-6.05804e-19
-8.07946e-19
-3.66925e-19
-1.68916e-19
-7.23788e-19
-1.41781e-18
-1.03811e-18
-5.14092e-19
-4.24214e-19
3.10225e-22
1.96078e-19
2.68121e-19
3.62712e-19
1.57779e-19
-1.20244e-20
2.43285e-20
3.89722e-20
3.57591e-20
-6.37257e-20
-1.62155e-19
6.1273e-20
1.51055e-19
1.43149e-19
2.55025e-19
2.83467e-19
1.16084e-19
-4.2041e-19
-4.1691e-19
2.79109e-19
8.04085e-20
-1.75037e-19
2.06589e-19
-2.91828e-19
-6.37464e-19
-1.13115e-18
-2.123e-18
-1.1032e-18
-1.40805e-18
-1.72813e-18
-2.00488e-18
-1.8727e-18
-1.60456e-18
-2.00854e-18
-3.11611e-19
1.60227e-19
-1.57627e-18
-1.47438e-18
-5.9803e-19
7.54899e-19
7.57779e-22
-9.07452e-19
1.53388e-19
1.14531e-18
1.00239e-18
4.62964e-19
1.50512e-18
2.70877e-19
-2.38359e-18
-1.25986e-18
-7.50754e-19
-1.62284e-18
2.39327e-19
8.2628e-19
-2.34421e-19
-1.14925e-19
3.45187e-19
1.14848e-19
7.72182e-19
2.01115e-18
1.83866e-18
1.68861e-18
2.76281e-18
2.19151e-18
9.71213e-19
9.63576e-19
1.81447e-18
1.71382e-18
1.13466e-18
1.45949e-18
1.16562e-18
8.877e-20
-8.38395e-19
-9.86353e-19
-1.18202e-18
-9.26536e-19
-9.5363e-19
-8.62022e-19
-1.01023e-18
-1.73238e-18
-1.26721e-18
-6.14117e-19
-9.348e-19
-1.28466e-18
-1.0727e-18
-3.51787e-19
-6.88055e-19
-7.48112e-19
-1.39295e-19
2.25151e-19
2.66821e-19
1.94615e-19
2.7942e-19
1.64715e-19
3.32153e-19
3.03391e-19
4.30604e-19
3.39525e-19
2.75873e-19
-3.9048e-21
5.5909e-19
1.40467e-18
1.75935e-18
1.45861e-18
1.15888e-18
7.84107e-19
2.52821e-19
-1.95059e-22
-5.20927e-20
-3.71604e-19
-5.12205e-19
-2.12125e-21
-4.08833e-19
-7.95038e-19
-1.19515e-18
-1.14334e-18
-3.45308e-19
-9.15247e-20
-1.42191e-19
-2.90286e-19
-1.24022e-19
3.77251e-20
-4.37007e-19
-1.45385e-19
2.75544e-20
-4.0606e-20
-1.01663e-19
-4.65066e-19
-4.11624e-19
-1.68985e-19
-5.40042e-19
-5.38291e-19
-3.4862e-19
-4.07669e-19
-1.03365e-18
-5.30682e-19
1.03733e-18
1.45427e-18
9.88522e-19
9.96109e-19
-2.61015e-19
-1.14701e-18
-1.91751e-18
-1.04401e-18
-1.31657e-18
-1.95655e-18
-3.17464e-19
-3.848e-22
-2.53972e-18
-2.60345e-18
1.41927e-18
4.41887e-18
3.46633e-18
1.25362e-18
3.93978e-18
5.65565e-18
4.83135e-18
4.74939e-18
4.28564e-18
4.74866e-18
3.02639e-18
1.12111e-18
1.83181e-18
2.60371e-18
2.67539e-18
3.47184e-18
1.72806e-18
1.26524e-18
2.28581e-18
1.53299e-18
1.17753e-18
-7.49553e-19
-3.2555e-18
-1.53297e-18
-2.05255e-18
-3.36663e-18
-3.08689e-18
-3.93537e-18
-2.73043e-19
5.40868e-19
5.45943e-19
-5.45582e-19
1.79755e-18
5.38216e-18
5.05898e-18
7.37443e-18
6.22701e-18
3.88809e-18
2.39219e-18
1.62157e-18
-8.09243e-19
-1.80135e-18
-2.46849e-19
1.40285e-18
2.05138e-18
-6.35112e-19
-2.31206e-18
-2.31684e-18
3.92754e-19
-1.08014e-21
-3.47038e-18
-2.05653e-18
-1.84037e-18
-2.05054e-18
-4.60133e-19
-1.41681e-19
-3.86298e-21
2.64504e-19
1.23393e-19
-1.43431e-18
-2.07037e-18
-8.57592e-19
-1.15209e-18
-1.034e-18
8.11664e-20
-3.5315e-19
-9.52071e-19
-1.63845e-18
-1.24529e-18
-5.30689e-19
-3.40879e-19
-8.00274e-20
5.96111e-19
7.56994e-19
3.77043e-19
-3.99196e-19
-1.41293e-18
-1.9335e-18
-1.26376e-18
3.03453e-22
1.90897e-19
1.08159e-18
1.24305e-18
1.04158e-18
1.90459e-18
2.18286e-18
2.31908e-18
3.16364e-18
2.12796e-18
2.64957e-18
1.37384e-18
1.16797e-18
2.56134e-18
1.96324e-18
8.19826e-19
4.46202e-19
7.55601e-19
-6.50223e-19
-3.16758e-19
-1.18807e-18
-3.58321e-19
-5.77283e-19
-2.37038e-18
-8.49457e-19
2.19886e-19
-2.01572e-18
-2.85014e-18
-3.8765e-18
-4.63829e-18
-2.38085e-18
-2.817e-18
-1.62221e-18
-3.93468e-19
-2.82493e-18
-2.02609e-18
-1.38455e-18
-3.19548e-18
-2.17494e-18
-1.98285e-18
-3.0758e-18
-3.70839e-18
-3.00077e-18
-2.53671e-18
-1.62962e-18
2.13738e-18
7.4102e-18
2.02444e-17
5.04236e-17
1.14911e-16
2.4975e-16
5.26043e-16
1.08279e-15
2.21279e-15
4.44657e-15
8.83651e-15
1.74994e-14
3.43861e-14
6.71977e-14
1.3062e-13
2.52558e-13
4.86339e-13
9.32205e-13
1.77972e-12
3.38591e-12
6.41662e-12
1.21117e-11
2.27739e-11
4.2653e-11
7.95874e-11
1.47933e-10
2.7389e-10
5.05117e-10
9.27849e-10
1.69763e-09
3.09365e-09
5.61493e-09
1.01498e-08
1.82721e-08
3.2759e-08
5.84878e-08
1.03987e-07
1.84099e-07
3.24541e-07
5.69661e-07
9.95578e-07
1.73232e-06
3.00092e-06
5.17533e-06
8.88504e-06
1.51844e-05
2.58306e-05
4.37368e-05
7.37079e-05
0.000123627
0.000206359
0.000342782
0.000566599
0.000931899
0.00152501
0.0024829
0.00402163
0.00647995
0.0103857
0.0165566
0.0262504
0.0413908
0.064899
0.101182
0.156842
0.241702
0.370265
0.563794
0.853223
1.2832
1.91766
2.84738
4.20021
6.15457
8.95726
12.9465
18.5813
26.4785
37.4586
52.6013
73.3118
101.398
139.16
189.485
255.955
342.95
455.761
600.677
785.069
1017.44
1307.43
1665.8
2104.32
2635.63
3273.02
4030.15
4920.73
5958.13
7154.99
8522.85
10071.7
11809.8
13743.2
15875.6
18208.5
20740.9
23469.6
26389
29492
32769.7
36211.8
39807.3
43544.6
47411.6
51396.1
55486.4
59671.2
63939.7
68282.2
72689.6
77153.6
81666.8