/*--------------------------------*- C++ -*----------------------------------*\
  =========                 |
  \\      /  F ield         | OpenFOAM: The Open Source CFD Toolbox
   \\    /   O peration     | Website:  https://openfoam.org
    \\  /    A nd           | Version:  9
     \\/     M anipulation  |
\*---------------------------------------------------------------------------*/
FoamFile
{
    format      ascii;
    class       volScalarField;
    location    "0.007";
    object      p_0;
}
// * * * * * * * * * * * * * * * * * * * * * * * * * * * * * * * * * * * * * //

dimensions      [1 -1 -2 0 0 0 0];

internalField   nonuniform List<scalar> 
10000
(
100000
100000
100000
100000
100000
100000
100000
100000
100000
100000
100000
100000
100000
100000
100000
100000
100000
100000
100000
100000
100000
100000
100000
100000
100000
100000
100000
100000
100000
100000
100000
100000
100000
100000
100000
100000
100000
100000
100000
100000
100000
100000
100000
100000
100000
100000
100000
100000
100000
100000
100000
100000
100000
100000
100000
100000
100000
100000
100000
100000
100000
100000
100000
100000
100000
100000
100000
100000
100000
100000
100000
100000
100000
100000
100000
100000
100000
100000
100000
100000
100000
100000
100000
100000
100000
100000
100000
100000
100000
100000
100000
100000
100000
100000
100000
100000
100000
100000
100000
100000
100000
100000
100000
100000
100000
100000
100000
100000
100000
100000
100000
100000
100000
100000
100000
100000
100000
100000
100000
100000
100000
100000
100000
100000
100000
100000
100000
100000
100000
100000
100000
100000
100000
100000
100000
100000
100000
100000
100000
100000
100000
100000
100000
100000
100000
100000
100000
100000
100000
100000
100000
100000
100000
100000
100000
100000
100000
100000
100000
100000
100000
100000
100000
100000
100000
100000
100000
100000
100000
100000
100000
100000
100000
100000
100000
100000
100000
100000
100000
100000
100000
100000
100000
100000
100000
100000
100000
100000
100000
100000
100000
100000
100000
100000
100000
100000
100000
100000
100000
100000
100000
100000
100000
100000
100000
100000
100000
100000
100000
100000
100000
100000
100000
100000
100000
100000
100000
100000
100000
100000
100000
100000
100000
100000
100000
100000
100000
100000
100000
100000
100000
100000
100000
100000
100000
100000
100000
100000
100000
100000
100000
100000
100000
100000
100000
100000
100000
100000
100000
100000
100000
100000
100000
100000
100000
100000
100000
100000
100000
100000
100000
100000
100000
100000
100000
100000
100000
100000
100000
100000
100000
100000
100000
100000
100000
100000
100000
100000
100000
100000
100000
100000
100000
100000
100000
100000
100000
100000
100000
100000
100000
100000
100000
100000
100000
100000
100000
100000
100000
100000
100000
100000
100000
100000
100000
100000
100000
100000
100000
100000
100000
100000
100000
100000
100000
100000
100000
100000
100000
100000
100000
100000
100000
100000
100000
100000
100000
100000
100000
100000
100000
100000
100000
100000
100000
100000
100000
100000
100000
100000
100000
100000
100000
100000
100000
100000
100000
100000
100000
100000
100000
100000
100000
100000
100000
100000
100000
100000
100000
100000
100000
100000
100000
100000
100000
100000
100000
100000
100000
100000
100000
100000
100000
100000
100000
100000
100000
100000
100000
100000
100000
100000
100000
100000
100000
100000
100000
100000
100000
100000
100000
100000
100000
100000
100000
100000
100000
100000
100000
100000
100000
100000
100000
100000
100000
100000
100000
100000
100000
100000
100000
100000
100000
100000
100000
100000
100000
100000
100000
100000
100000
100000
100000
100000
100000
100000
100000
100000
100000
100000
100000
100000
100000
100000
100000
100000
100000
100000
100000
100000
100000
100000
100000
100000
100000
100000
100000
100000
100000
100000
100000
100000
100000
100000
100000
100000
100000
100000
100000
100000
100000
100000
100000
100000
100000
100000
100000
100000
100000
100000
100000
100000
100000
100000
100000
100000
100000
100000
100000
100000
100000
100000
100000
100000
100000
100000
100000
100000
100000
100000
100000
100000
100000
100000
100000
100000
100000
100000
100000
100000
100000
100000
100000
100000
100000
100000
100000
100000
100000
100000
100000
100000
100000
100000
100000
100000
100000
100000
100000
100000
100000
100000
100000
100000
100000
100000
100000
100000
100000
100000
100000
100000
100000
100000
100000
100000
100000
100000
100000
100000
100000
100000
100000
100000
100000
100000
100000
100000
100000
100000
100000
100000
100000
100000
100000
100000
100000
100000
100000
100000
100000
100000
100000
100000
100000
100000
100000
100000
100000
100000
100000
100000
100000
100000
100000
100000
100000
100000
100000
100000
100000
100000
100000
100000
100000
100000
100000
100000
100000
100000
100000
100000
100000
100000
100000
100000
100000
100000
100000
100000
100000
100000
100000
100000
100000
100000
100000
100000
100000
100000
100000
100000
100000
100000
100000
100000
100000
100000
100000
100000
100000
100000
100000
100000
100000
100000
100000
100000
100000
100000
100000
100000
100000
100000
100000
100000
100000
100000
100000
100000
100000
100000
100000
100000
100000
100000
100000
100000
100000
100000
100000
100000
100000
100000
100000
100000
100000
100000
100000
100000
100000
100000
100000
100000
100000
100000
100000
100000
100000
100000
100000
100000
100000
100000
100000
100000
100000
100000
100000
100000
100000
100000
100000
100000
100000
100000
100000
100000
100000
100000
100000
100000
100000
100000
100000
100000
100000
100000
100000
100000
100000
100000
100000
100000
100000
100000
100000
100000
100000
100000
100000
100000
100000
100000
100000
100000
100000
100000
100000
100000
100000
100000
100000
100000
100000
100000
100000
100000
100000
100000
100000
100000
100000
100000
100000
100000
100000
100000
100000
100000
100000
100000
100000
100000
100000
100000
100000
100000
100000
100000
100000
100000
100000
100000
100000
100000
100000
100000
100000
100000
100000
100000
100000
100000
100000
100000
100000
100000
100000
100000
100000
100000
100000
100000
100000
100000
100000
100000
100000
100000
100000
100000
100000
100000
100000
100000
100000
100000
100000
100000
100000
100000
100000
100000
100000
100000
100000
100000
100000
100000
100000
100000
100000
100000
100000
100000
100000
100000
100000
100000
100000
100000
100000
100000
100000
100000
100000
100000
100000
100000
100000
100000
100000
100000
100000
100000
100000
100000
100000
100000
100000
100000
100000
100000
100000
100000
100000
100000
100000
100000
100000
100000
100000
100000
100000
100000
100000
100000
100000
100000
100000
100000
100000
100000
100000
100000
100000
100000
100000
100000
100000
100000
100000
100000
100000
100000
100000
100000
100000
100000
100000
100000
100000
100000
100000
100000
100000
100000
100000
100000
100000
100000
100000
100000
100000
100000
100000
100000
100000
100000
100000
100000
100000
100000
100000
100000
100000
100000
100000
100000
100000
100000
100000
100000
100000
100000
100000
100000
100000
100000
100000
100000
100000
100000
100000
100000
100000
100000
100000
100000
100000
100000
100000
100000
100000
100000
100000
100000
100000
100000
100000
100000
100000
100000
100000
100000
100000
100000
100000
100000
100000
100000
100000
100000
100000
100000
100000
100000
100000
100000
100000
100000
100000
100000
100000
100000
100000
100000
100000
100000
100000
100000
100000
100000
100000
100000
100000
100000
100000
100000
100000
100000
100000
100000
100000
100000
100000
100000
100000
100000
100000
100000
100000
100000
100000
100000
100000
100000
100000
100000
100000
100000
100000
100000
100000
100000
100000
100000
100000
100000
100000
100000
100000
100000
100000
100000
100000
100000
100000
100000
100000
100000
100000
100000
100000
100000
100000
100000
100000
100000
100000
100000
100000
100000
100000
100000
100000
100000
100000
100000
100000
100000
100000
100000
100000
100000
100000
100000
100000
100000
100000
100000
100000
100000
100000
100000
100000
100000
100000
100000
100000
100000
100000
100000
100000
100000
100000
100000
100000
100000
100000
100000
100000
100000
100000
100000
100000
100000
100000
100000
100000
100000
100000
100000
100000
100000
100000
100000
100000
100000
100000
100000
100000
100000
100000
100000
100000
100000
100000
100000
100000
100000
100000
100000
100000
100000
100000
100000
100000
100000
100000
100000
100000
100000
100000
100000
100000
100000
100000
100000
100000
100000
100000
100000
100000
100000
100000
100000
100000
100000
100000
100000
100000
100000
100000
100000
100000
100000
100000
100000
100000
100000
100000
100000
100000
100000
100000
100000
100000
100000
100000
100000
100000
100000
100000
100000
100000
100000
100000
100000
100000
100000
100000
100000
100000
100000
100000
100000
100000
100000
100000
100000
100000
100000
100000
100000
100000
100000
100000
100000
100000
100000
100000
100000
100000
100000
100000
100000
100000
100000
100000
100000
100000
100000
100000
100000
100000
100000
100000
100000
100000
100000
100000
100000
100000
100000
100000
100000
100000
100000
100000
100000
100000
100000
100000
100000
100000
100000
100000
100000
100000
100000
100000
100000
100000
100000
100000
100000
100000
100000
100000
100000
100000
100000
100000
100000
100000
100000
100000
100000
100000
100000
100000
100000
100000
100000
100000
100000
100000
100000
100000
100000
100000
100000
100000
100000
100000
100000
100000
100000
100000
100000
100000
100000
100000
100000
100000
100000
100000
100000
100000
100000
100000
100000
100000
100000
100000
100000
100000
100000
100000
100000
100000
100000
100000
100000
100000
100000
100000
100000
100000
100000
100000
100000
100000
100000
100000
100000
100000
100000
100000
100000
100000
100000
100000
100000
100000
100000
100000
100000
100000
100000
100000
100000
100000
100000
100000
100000
100000
100000
100000
100000
100000
100000
100000
100000
100000
100000
100000
100000
100000
100000
100000
100000
100000
100000
100000
100000
100000
100000
100000
100000
100000
100000
100000
100000
100000
100000
100000
100000
100000
100000
100000
100000
100000
100000
100000
100000
100000
100000
100000
100000
100000
100000
100000
100000
100000
100000
100000
100000
100000
100000
100000
100000
100000
100000
100000
100000
100000
100000
100000
100000
100000
100000
100000
100000
100000
100000
100000
100000
100000
100000
100000
100000
100000
100000
100000
100000
100000
100000
100000
100000
100000
100000
100000
100000
100000
100000
100000
100000
100000
100000
100000
100000
100000
100000
100000
100000
100000
100000
100000
100000
100000
100000
100000
100000
100000
100000
100000
100000
100000
100000
100000
100000
100000
100000
100000
100000
100000
100000
100000
100000
100000
100000
100000
100000
100000
100000
100000
100000
100000
100000
100000
100000
100000
100000
100000
100000
100000
100000
100000
100000
100000
100000
100000
100000
100000
100000
100000
100000
100000
100000
100000
100000
100000
100000
100000
100000
100000
100000
100000
100000
100000
100000
100000
100000
100000
100000
100000
100000
100000
100000
100000
100000
100000
100000
100000
100000
100000
100000
100000
100000
100000
100000
100000
100000
100000
100000
100000
100000
100000
100000
100000
100000
100000
100000
100000
100000
100000
100000
100000
100000
100000
100000
100000
100000
100000
100000
100000
100000
100000
100000
100000
100000
100000
100000
100000
100000
100000
100000
100000
100000
100000
100000
100000
100000
100000
100000
100000
100000
100000
100000
100000
100000
100000
100000
100000
100000
100000
100000
100000
100000
100000
100000
100000
100000
100000
100000
100000
100000
100000
100000
100000
100000
100000
100000
100000
100000
100000
100000
100000
100000
100000
100000
100000
100000
100000
100000
100000
100000
100000
100000
100000
100000
100000
100000
100000
100000
100000
100000
100000
100000
100000
100000
100000
100000
100000
100000
100000
100000
100000
100000
100000
100000
100000
100000
100000
100000
100000
100000
100000
100000
100000
100000
100000
100000
100000
100000
100000
100000
100000
100000
100000
100000
100000
100000
100000
100000
100000
100000
100000
100000
100000
100000
100000
100000
100000
100000
100000
100000
100000
100000
100000
100000
100000
100000
100000
100000
100000
100000
100000
100000
100000
100000
100000
100000
100000
100000
100000
100000
100000
100000
100000
100000
100000
100000
100000
100000
100000
100000
100000
100000
100000
100000
100000
100000
100000
100000
100000
100000
100000
100000
100000
100000
100000
100000
100000
100000
100000
100000
100000
100000
100000
100000
100000
100000
100000
100000
100000
100000
100000
100000
100000
100000
100000
100000
100000
100000
100000
100000
100000
100000
100000
100000
100000
100000
100000
100000
100000
100000
100000
100000
100000
100000
100000
100000
100000
100000
100000
100000
100000
100000
100000
100000
100000
100000
100000
100000
100000
100000
100000
100000
100000
100000
100000
100000
100000
100000
100000
100000
100000
100000
100000
100000
100000
100000
100000
100000
100000
100000
100000
100000
100000
100000
100000
100000
100000
100000
100000
100000
100000
100000
100000
100000
100000
100000
100000
100000
100000
100000
100000
100000
100000
100000
100000
100000
100000
100000
100000
100000
100000
100000
100000
100000
100000
100000
100000
100000
100000
100000
100000
100000
100000
100000
100000
100000
100000
100000
100000
100000
100000
100000
100000
100000
100000
100000
100000
100000
100000
100000
100000
100000
100000
100000
100000
100000
100000
100000
100000
100000
100000
100000
100000
100000
100000
100000
100000
100000
100000
100000
100000
100000
100000
100000
100000
100000
100000
100000
100000
100000
100000
100000
100000
100000
100000
100000
100000
100000
100000
100000
100000
100000
100000
100000
100000
100000
100000
100000
100000
100000
100000
100000
100000
100000
100000
100000
100000
100000
100000
100000
100000
100000
100000
100000
100000
100000
100000
100000
100000
100000
100000
100000
100000
100000
100000
100000
100000
100000
100000
100000
100000
100000
100000
100000
100000
100000
100000
100000
100000
100000
100000
100000
100000
100000
100000
100000
100000
100000
100000
100000
100000
100000
100000
100000
100000
100000
100000
100000
100000
100000
100000
100000
100000
100000
100000
100000
100000
100000
100000
100000
100000
100000
100000
100000
100000
100000
100000
100000
100000
100000
100000
100000
100000
100000
100000
100000
100000
100000
100000
100000
100000
100000
100000
100000
100000
100000
100000
100000
100000
100000
100000
100000
100000
100000
100000
100000
100000
100000
100000
100000
100000
100000
100000
100000
100000
100000
100000
100000
100000
100000
100000
100000
100000
100000
100000
100000
100000
100000
100000
100000
100000
100000
100000
100000
100000
100000
100000
100000
100000
100000
100000
100000
100000
100000
100000
100000
100000
100000
100000
100000
100000
100000
100000
100000
100000
100000
100000
100000
100000
100000
100000
100000
100000
100000
100000
100000
100000
100000
100000
100000
100000
100000
100000
100000
100000
100000
100000
100000
100000
100000
100000
100000
100000
100000
100000
100000
100000
100000
100000
100000
100000
100000
100000
100000
100000
100000
100000
100000
100000
100000
100000
100000
100000
100000
100000
100000
100000
100000
100000
100000
100000
100000
100000
100000
100000
100000
100000
100000
100000
100000
100000
100000
100000
100000
100000
100000
100000
100000
100000
100000
100000
100000
100000
100000
100000
100000
100000
100000
100000
100000
100000
100000
100000
100000
100000
100000
100000
100000
100000
100000
100000
100000
100000
100000
100000
100000
100000
100000
100000
100000
100000
100000
100000
100000
100000
100000
100000
100000
100000
100000
100000
100000
100000
100000
100000
100000
100000
100000
100000
100000
100000
100000
100000
100000
100000
100000
100000
100000
100000
100000
100000
100000
100000
100000
100000
100000
100000
100000
100000
100000
100000
100000
100000
100000
100000
100000
100000
100000
100000
100000
100000
100000
100000
100000
100000
100000
100000
100000
100000
100000
100000
100000
100000
100000
100000
100000
100000
100000
100000
100000
100000
100000
100000
100000
100000
100000
100000
100000
100000
100000
100000
100000
100000
100000
100000
100000
100000
100000
100000
100000
100000
100000
100000
100000
100000
100000
100000
100000
100000
100000
100000
100000
100000
100000
100000
100000
100000
100000
100000
100000
100000
100000
100000
100000
100000
100000
100000
100000
100000
100000
100000
100000
100000
100000
100000
100000
100000
100000
100000
100000
100000
100000
100000
100000
100000
100000
100000
100000
100000
100000
100000
100000
100000
100000
100000
100000
100000
100000
100000
100000
100000
100000
100000
100000
100000
100000
100000
100000
100000
100000
100000
100000
100000
100000
100000
100000
100000
100000
100000
100000
100000
100000
100000
100000
100000
100000
100000
100000
100000
100000
100000
100000
100000
100000
100000
100000
100000
100000
100000
100000
100000
99999.9
99999.9
99999.9
99999.9
99999.8
99999.8
99999.7
99999.7
99999.6
99999.5
99999.4
99999.2
99999
99998.8
99998.5
99998.1
99997.7
99997.2
99996.6
99995.9
99995
99993.9
99992.7
99991.2
99989.5
99987.5
99985.1
99982.4
99979.2
99975.6
99971.4
99966.6
99961.2
99955
99948.1
99940.4
99931.7
99922.1
99911.5
99899.8
99887
99873.1
99858
99841.7
99824.2
99805.4
99785.4
99764.2
99741.7
99718.1
99693.3
99667.4
99640.4
99612.4
99583.4
99553.4
99522.5
99490.8
99458.4
99425.1
99391.2
99356.7
99321.6
99285.9
99249.7
99213.1
99176
99138.5
99100.7
99062.6
99024.1
98985.4
98946.4
98907.1
98867.7
98828
98788.2
98748.2
98708
98667.7
98627.3
98586.7
98546
98505.3
98464.4
98423.4
98382.4
98341.2
98300
98258.8
98217.4
98176.1
98134.6
98093.2
98051.6
98010.1
97968.5
97926.8
97885.2
97843.5
97801.7
97760
97718.2
97676.4
97634.6
97592.7
97550.9
97509
97467.1
97425.2
97383.3
97341.4
97299.5
97257.6
97215.6
97173.7
97131.7
97089.7
97047.8
97005.8
96963.8
96921.8
96879.9
96837.9
96795.9
96753.9
96711.9
96669.9
96627.9
96586
96544
96502
96460
96418
96376.1
96334.1
96292.1
96250.1
96208.2
96166.2
96124.2
96082.3
96040.3
95998.4
95956.4
95914.5
95872.6
95830.6
95788.7
95746.8
95704.9
95663
95621.1
95579.2
95537.3
95495.4
95453.5
95411.6
95369.8
95327.9
95286.1
95244.2
95202.4
95160.5
95118.7
95076.9
95035.1
94993.3
94951.5
94909.7
94867.9
94826.1
94784.4
94742.6
94700.9
94659.1
94617.4
94575.7
94534
94492.2
94450.5
94408.9
94367.2
94325.5
94283.8
94242.2
94200.5
94158.9
94117.3
94075.7
94034.1
93992.5
93950.9
93909.3
93867.7
93826.2
93784.6
93743.1
93701.6
93660.1
93618.6
93577.1
93535.6
93494.1
93452.6
93411.2
93369.7
93328.3
93286.9
93245.5
93204.1
93162.7
93121.3
93080
93038.6
92997.3
92955.9
92914.6
92873.3
92832
92790.7
92749.5
92708.2
92667
92625.7
92584.5
92543.3
92502.1
92460.9
92419.7
92378.6
92337.4
92296.3
92255.2
92214.1
92173
92131.9
92090.8
92049.7
92008.7
91967.6
91926.6
91885.6
91844.6
91803.6
91762.7
91721.7
91680.7
91639.8
91598.9
91558
91517.1
91476.2
91435.3
91394.5
91353.6
91312.8
91272
91231.2
91190.4
91149.6
91108.9
91068.1
91027.4
90986.7
90946
90905.3
90864.6
90823.9
90783.3
90742.6
90702
90661.4
90620.8
90580.2
90539.7
90499.1
90458.6
90418
90377.5
90337
90296.5
90256
90215.6
90175.1
90134.7
90094.3
90053.9
90013.5
89973.1
89932.8
89892.4
89852.1
89811.8
89771.4
89731.2
89690.9
89650.6
89610.4
89570.1
89529.9
89489.7
89449.5
89409.3
89369.2
89329
89288.9
89248.8
89208.6
89168.6
89128.5
89088.4
89048.4
89008.3
88968.3
88928.3
88888.3
88848.3
88808.3
88768.4
88728.5
88688.5
88648.6
88608.7
88568.9
88529
88489.1
88449.3
88409.5
88369.7
88329.9
88290.1
88250.3
88210.6
88170.8
88131.1
88091.4
88051.7
88012
87972.4
87932.7
87893.1
87853.5
87813.9
87774.3
87734.7
87695.1
87655.6
87616
87576.5
87537
87497.5
87458.1
87418.6
87379.1
87339.7
87300.3
87260.9
87221.5
87182.1
87142.8
87103.4
87064.1
87024.8
86985.5
86946.2
86906.9
86867.6
86828.4
86789.2
86749.9
86710.7
86671.6
86632.4
86593.2
86554.1
86515
86475.8
86436.7
86397.7
86358.6
86319.5
86280.5
86241.5
86202.4
86163.4
86124.5
86085.5
86046.5
86007.6
85968.7
85929.8
85890.9
85852
85813.1
85774.3
85735.4
85696.6
85657.8
85619
85580.2
85541.4
85502.7
85464
85425.2
85386.5
85347.8
85309.1
85270.5
85231.8
85193.2
85154.6
85116
85077.4
85038.8
85000.2
84961.7
84923.1
84884.6
84846.1
84807.6
84769.2
84730.7
84692.2
84653.8
84615.4
84577
84538.6
84500.2
84461.9
84423.5
84385.2
84346.9
84308.6
84270.3
84232
84193.7
84155.5
84117.3
84079.1
84040.9
84002.7
83964.5
83926.3
83888.2
83850.1
83811.9
83773.8
83735.8
83697.7
83659.6
83621.6
83583.6
83545.6
83507.6
83469.6
83431.6
83393.6
83355.7
83317.8
83279.9
83242
83204.1
83166.2
83128.4
83090.5
83052.7
83014.9
82977.1
82939.3
82901.5
82863.8
82826
82788.3
82750.6
82712.9
82675.2
82637.6
82599.9
82562.3
82524.6
82487
82449.4
82411.9
82374.3
82336.7
82299.2
82261.7
82224.2
82186.7
82149.2
82111.7
82074.3
82036.8
81999.4
81962
81924.6
81887.2
81849.9
81812.5
81775.2
81737.8
81700.5
81663.2
81626
81588.7
81551.4
81514.2
81477
81439.8
81402.6
81365.4
81328.2
81291.1
81253.9
81216.8
81179.7
81142.6
81105.5
81068.5
81031.4
80994.4
80957.4
80920.4
80883.4
80846.4
80809.4
80772.5
80735.5
80698.6
80661.7
80624.8
80587.9
80551
80514.2
80477.4
80440.5
80403.7
80366.9
80330.2
80293.4
80256.6
80219.9
80183.2
80146.5
80109.8
80073.1
80036.4
79999.8
79963.1
79926.5
79889.9
79853.3
79816.7
79780.1
79743.6
79707
79670.5
79634
79597.5
79561
79524.6
79488.1
79451.7
79415.2
79378.8
79342.4
79306
79269.7
79233.3
79197
79160.6
79124.3
79088
79051.7
79015.5
78979.2
78943
78906.7
78870.5
78834.3
78798.1
78762
78725.8
78689.7
78653.5
78617.4
78581.3
78545.2
78509.1
78473.1
78437
78401
78365
78329
78293
78257
78221
78185.1
78149.2
78113.2
78077.3
78041.4
78005.6
77969.7
77933.9
77898
77862.2
77826.4
77790.6
77754.8
77719
77683.3
77647.5
77611.8
77576.1
77540.4
77504.7
77469.1
77433.4
77397.8
77362.1
77326.5
77290.9
77255.3
77219.8
77184.2
77148.7
77113.1
77077.6
77042.1
77006.6
76971.1
76935.7
76900.2
76864.8
76829.4
76794
76758.6
76723.2
76687.8
76652.5
76617.2
76581.8
76546.5
76511.2
76476
76440.7
76405.4
76370.2
76335
76299.8
76264.6
76229.4
76194.2
76159
76123.9
76088.8
76053.7
76018.6
75983.5
75948.4
75913.3
75878.3
75843.3
75808.2
75773.2
75738.2
75703.3
75668.3
75633.4
75598.4
75563.5
75528.6
75493.7
75458.8
75423.9
75389.1
75354.2
75319.4
75284.6
75249.8
75215
75180.2
75145.5
75110.7
75076
75041.3
75006.6
74971.9
74937.2
74902.6
74867.9
74833.3
74798.7
74764
74729.4
74694.9
74660.3
74625.7
74591.2
74556.7
74522.2
74487.7
74453.2
74418.7
74384.2
74349.8
74315.4
74281
74246.6
74212.2
74177.8
74143.4
74109.1
74074.7
74040.4
74006.1
73971.8
73937.5
73903.3
73869
73834.8
73800.5
73766.3
73732.1
73697.9
73663.7
73629.6
73595.4
73561.3
73527.2
73493.1
73459
73424.9
73390.8
73356.8
73322.7
73288.7
73254.7
73220.7
73186.7
73152.8
73118.8
73084.8
73050.9
73017
72983.1
72949.2
72915.3
72881.5
72847.6
72813.8
72779.9
72746.1
72712.3
72678.6
72644.8
72611
72577.3
72543.5
72509.8
72476.1
72442.4
72408.8
72375.1
72341.4
72307.8
72274.2
72240.6
72207
72173.4
72139.8
72106.3
72072.7
72039.2
72005.7
71972.2
71938.7
71905.2
71871.7
71838.3
71804.8
71771.4
71738
71704.6
71671.2
71637.9
71604.5
71571.2
71537.8
71504.5
71471.2
71437.9
71404.6
71371.4
71338.1
71304.9
71271.6
71238.4
71205.2
71172
71138.9
71105.7
71072.6
71039.4
71006.3
70973.2
70940.1
70907
70874
70840.9
70807.9
70774.8
70741.8
70708.8
70675.8
70642.9
70609.9
70577
70544
70511.1
70478.2
70445.3
70412.4
70379.5
70346.7
70313.8
70281
70248.2
70215.4
70182.6
70149.8
70117
70084.3
70051.5
70018.8
69986.1
69953.4
69920.7
69888
69855.4
69822.7
69790.1
69757.5
69724.9
69692.3
69659.7
69627.1
69594.6
69562
69529.5
69497
69464.5
69432
69399.5
69367
69334.6
69302.1
69269.7
69237.3
69204.9
69172.5
69140.1
69107.8
69075.4
69043.1
69010.8
68978.4
68946.2
68913.9
68881.6
68849.3
68817.1
68784.9
68752.6
68720.4
68688.2
68656.1
68623.9
68591.7
68559.6
68527.5
68495.3
68463.2
68431.1
68399.1
68367
68334.9
68302.9
68270.9
68238.9
68206.9
68174.9
68142.9
68110.9
68079
68047
68015.1
67983.2
67951.3
67919.4
67887.6
67855.7
67823.8
67792
67760.2
67728.4
67696.6
67664.8
67633
67601.3
67569.5
67537.8
67506.1
67474.4
67442.7
67411
67379.3
67347.7
67316
67284.4
67252.8
67221.2
67189.6
67158
67126.4
67094.9
67063.3
67031.8
67000.3
66968.8
66937.3
66905.8
66874.3
66842.9
66811.4
66780
66748.6
66717.2
66685.8
66654.4
66623.1
66591.7
66560.4
66529
66497.7
66466.4
66435.1
66403.9
66372.6
66341.4
66310.1
66278.9
66247.7
66216.5
66185.3
66154.1
66122.9
66091.8
66060.7
66029.5
65998.4
65967.3
65936.2
65905.2
65874.1
65843
65812
65781
65750
65719
65688
65657
65626
65595.1
65564.1
65533.2
65502.3
65471.4
65440.5
65409.6
65378.8
65347.9
65317.1
65286.3
65255.5
65224.7
65193.9
65163.1
65132.3
65101.6
65070.8
65040.1
65009.4
64978.7
64948
64917.3
64886.7
64856
64825.4
64794.8
64764.1
64733.5
64702.9
64672.4
64641.8
64611.3
64580.7
64550.2
64519.7
64489.2
64458.7
64428.2
64397.7
64367.3
64336.8
64306.4
64276
64245.6
64215.2
64184.8
64154.4
64124.1
64093.8
64063.4
64033.1
64002.8
63972.5
63942.2
63912
63881.7
63851.5
63821.2
63791
63760.8
63730.6
63700.4
63670.2
63640.1
63609.9
63579.8
63549.7
63519.6
63489.5
63459.4
63429.3
63399.3
63369.2
63339.2
63309.1
63279.1
63249.1
63219.1
63189.2
63159.2
63129.3
63099.3
63069.4
63039.5
63009.6
62979.7
62949.8
62919.9
62890.1
62860.2
62830.4
62800.6
62770.8
62741
62711.2
62681.4
62651.7
62621.9
62592.2
62562.5
62532.8
62503.1
62473.4
62443.7
62414.1
62384.4
62354.8
62325.2
62295.5
62265.9
62236.4
62206.8
62177.2
62147.7
62118.1
62088.6
62059.1
62029.6
62000.1
61970.6
61941.1
61911.7
61882.2
61852.8
61823.4
61794
61764.6
61735.2
61705.8
61676.5
61647.1
61617.8
61588.5
61559.1
61529.9
61500.6
61471.3
61442
61412.8
61383.5
61354.3
61325.1
61295.9
61266.7
61237.5
61208.3
61179.2
61150
61120.9
61091.8
61062.7
61033.6
61004.5
60975.4
60946.4
60917.3
60888.3
60859.2
60830.2
60801.2
60772.2
60743.3
60714.3
60685.3
60656.4
60627.5
60598.5
60569.6
60540.7
60511.9
60483
60454.1
60425.3
60396.4
60367.6
60338.8
60310
60281.2
60252.4
60223.7
60194.9
60166.2
60137.4
60108.7
60080
60051.3
60022.6
59994
59965.3
59936.7
59908
59879.4
59850.8
59822.2
59793.6
59765
59736.5
59707.9
59679.4
59650.8
59622.3
59593.8
59565.3
59536.8
59508.3
59479.9
59451.4
59423
59394.6
59366.2
59337.8
59309.4
59281
59252.6
59224.3
59195.9
59167.6
59139.3
59111
59082.7
59054.4
59026.1
58997.8
58969.6
58941.3
58913.1
58884.9
58856.7
58828.5
58800.3
58772.1
58744
58715.8
58687.7
58659.6
58631.5
58603.4
58575.3
58547.2
58519.1
58491.1
58463
58435
58407
58379
58351
58323
58295
58267.1
58239.1
58211.2
58183.2
58155.3
58127.4
58099.5
58071.7
58043.8
58015.9
57988.1
57960.2
57932.4
57904.6
57876.8
57849
57821.2
57793.5
57765.7
57738
57710.2
57682.5
57654.8
57627.1
57599.4
57571.7
57544.1
57516.4
57488.8
57461.2
57433.5
57405.9
57378.3
57350.7
57323.2
57295.6
57268.1
57240.5
57213
57185.5
57158
57130.5
57103
57075.5
57048.1
57020.6
56993.2
56965.8
56938.3
56910.9
56883.6
56856.2
56828.8
56801.4
56774.1
56746.8
56719.4
56692.1
56664.8
56637.5
56610.3
56583
56555.7
56528.5
56501.3
56474
56446.8
56419.6
56392.4
56365.3
56338.1
56310.9
56283.8
56256.7
56229.6
56202.4
56175.3
56148.3
56121.2
56094.1
56067.1
56040
56013
55986
55959
55932
55905
55878
55851
55824.1
55797.1
55770.2
55743.3
55716.4
55689.5
55662.6
55635.7
55608.9
55582
55555.2
55528.3
55501.5
55474.7
55447.9
55421.1
55394.4
55367.6
55340.8
55314.1
55287.4
55260.7
55233.9
55207.3
55180.6
55153.9
55127.2
55100.6
55073.9
55047.3
55020.7
54994.1
54967.5
54940.9
54914.3
54887.8
54861.2
54834.7
54808.1
54781.6
54755.1
54728.6
54702.1
54675.6
54649.2
54622.7
54596.3
54569.9
54543.4
54517
54490.6
54464.2
54437.9
54411.5
54385.1
54358.8
54332.5
54306.1
54279.8
54253.5
54227.2
54201
54174.7
54148.4
54122.2
54096
54069.7
54043.5
54017.3
53991.1
53965
53938.8
53912.6
53886.5
53860.3
53834.2
53808.1
53782
53755.9
53729.8
53703.8
53677.7
53651.7
53625.6
53599.6
53573.6
53547.6
53521.6
53495.6
53469.6
53443.7
53417.7
53391.8
53365.8
53339.9
53314
53288.1
53262.2
53236.3
53210.5
53184.6
53158.8
53133
53107.1
53081.3
53055.5
53029.7
53004
52978.2
52952.4
52926.7
52901
52875.2
52849.5
52823.8
52798.1
52772.4
52746.8
52721.1
52695.5
52669.8
52644.2
52618.6
52593
52567.4
52541.8
52516.2
52490.7
52465.1
52439.6
52414
52388.5
52363
52337.5
52312
52286.5
52261.1
52235.6
52210.2
52184.7
52159.3
52133.9
52108.5
52083.1
52057.7
52032.3
52007
51981.6
51956.3
51931
51905.6
51880.3
51855
51829.8
51804.5
51779.2
51754
51728.7
51703.5
51678.3
51653.1
51627.8
51602.7
51577.5
51552.3
51527.2
51502
51476.9
51451.7
51426.6
51401.5
51376.4
51351.3
51326.3
51301.2
51276.1
51251.1
51226.1
51201
51176
51151
51126
51101.1
51076.1
51051.1
51026.2
51001.3
50976.3
50951.4
50926.5
50901.6
50876.7
50851.8
50827
50802.1
50777.3
50752.5
50727.6
50702.8
50678
50653.2
50628.4
50603.7
50578.9
50554.2
50529.4
50504.7
50480
50455.3
50430.6
50405.9
50381.2
50356.5
50331.9
50307.2
50282.6
50258
50233.4
50208.8
50184.2
50159.6
50135
50110.5
50085.9
50061.4
50036.8
50012.3
49987.8
49963.3
49938.8
49914.3
49889.9
49865.4
49841
49816.5
49792.1
49767.7
49743.3
49718.9
49694.5
49670.1
49645.7
49621.4
49597
49572.7
49548.4
49524.1
49499.8
49475.5
49451.2
49426.9
49402.7
49378.4
49354.2
49329.9
49305.7
49281.5
49257.3
49233.1
49208.9
49184.8
49160.6
49136.4
49112.3
49088.2
49064.1
49039.9
49015.9
48991.8
48967.7
48943.6
48919.6
48895.5
48871.5
48847.4
48823.4
48799.4
48775.4
48751.4
48727.5
48703.5
48679.5
48655.6
48631.7
48607.7
48583.8
48559.9
48536
48512.1
48488.3
48464.4
48440.5
48416.7
48392.9
48369
48345.2
48321.4
48297.6
48273.8
48250.1
48226.3
48202.5
48178.8
48155.1
48131.3
48107.6
48083.9
48060.2
48036.6
48012.9
47989.2
47965.6
47941.9
47918.3
47894.7
47871.1
47847.5
47823.9
47800.3
47776.7
47753.1
47729.6
47706.1
47682.5
47659
47635.5
47612
47588.5
47565
47541.5
47518.1
47494.6
47471.2
47447.8
47424.3
47400.9
47377.5
47354.1
47330.7
47307.4
47284
47260.7
47237.3
47214
47190.7
47167.3
47144
47120.8
47097.5
47074.2
47050.9
47027.7
47004.4
46981.2
46958
46934.8
46911.6
46888.4
46865.2
46842
46818.9
46795.7
46772.6
46749.4
46726.3
46703.2
46680.1
46657
46633.9
46610.8