/*--------------------------------*- C++ -*----------------------------------*\
  =========                 |
  \\      /  F ield         | OpenFOAM: The Open Source CFD Toolbox
   \\    /   O peration     | Website:  https://openfoam.org
    \\  /    A nd           | Version:  9
     \\/     M anipulation  |
\*---------------------------------------------------------------------------*/
FoamFile
{
    format      ascii;
    class       surfaceScalarField;
    location    "0.007";
    object      phi;
}
// * * * * * * * * * * * * * * * * * * * * * * * * * * * * * * * * * * * * * //

dimensions      [1 0 -1 0 0 0 0];

internalField   nonuniform List<scalar> 
9999
(
-3.67493e-11
-3.79146e-11
-3.58966e-11
-3.48166e-11
-3.33955e-11
-3.43334e-11
-3.22871e-11
-3.18892e-11
-2.89333e-11
-2.84217e-11
-2.69722e-11
-2.74269e-11
-2.88196e-11
-3.01554e-11
-3.0866e-11
-3.12639e-11
-3.1207e-11
-3.02691e-11
-2.96438e-11
-2.76827e-11
-3.10934e-11
-3.40208e-11
-3.66924e-11
-3.9222e-11
-4.02736e-11
-4.1581e-11
-4.30873e-11
-4.46789e-11
-4.49916e-11
-4.59011e-11
-4.49347e-11
-4.40821e-11
-4.6299e-11
-5.07328e-11
-5.0818e-11
-4.87148e-11
-5.02496e-11
-5.14433e-11
-4.93969e-11
-4.8658e-11
-4.5759e-11
-4.6299e-11
-4.56453e-11
-4.42526e-11
-4.34284e-11
-4.47073e-11
-4.52189e-11
-4.43947e-11
-4.26326e-11
-4.26894e-11
-4.30589e-11
-4.40821e-11
-4.50484e-11
-4.5361e-11
-4.94822e-11
-4.98233e-11
-4.98801e-11
-5.16707e-11
-5.03917e-11
-5.24096e-11
-5.61613e-11
-5.90887e-11
-5.95151e-11
-5.96856e-11
-5.77813e-11
-5.78666e-11
-5.87761e-11
-5.92308e-11
-6.19877e-11
-6.58531e-11
-6.75584e-11
-6.92353e-11
-7.04858e-11
-7.02585e-11
-7.05427e-11
-7.03437e-11
-6.9889e-11
-6.81268e-11
-6.81553e-11
-6.44604e-11
-6.48015e-11
-6.19025e-11
-6.07656e-11
-5.95151e-11
-5.88045e-11
-5.60192e-11
-5.65592e-11
-5.87477e-11
-5.89182e-11
-5.99698e-11
-6.03109e-11
-6.05951e-11
-6.3892e-11
-6.47447e-11
-6.44604e-11
-6.32667e-11
-6.54268e-11
-6.69615e-11
-6.82974e-11
-6.72458e-11
-6.50004e-11
-6.43183e-11
-6.14762e-11
-5.91456e-11
-5.51097e-11
-5.17559e-11
-4.73506e-11
-4.57305e-11
-4.41958e-11
-4.15525e-11
-3.93641e-11
-3.58682e-11
-3.23723e-11
-3.12639e-11
-3.11502e-11
-3.00702e-11
-3.31681e-11
-3.20028e-11
-3.32534e-11
-3.12923e-11
-3.07807e-11
-3.34524e-11
-3.64082e-11
-3.86251e-11
-3.61524e-11
-3.61808e-11
-3.54987e-11
-4.04441e-11
-4.556e-11
-4.6299e-11
-4.82885e-11
-5.38023e-11
-5.56781e-11
-5.83782e-11
-5.95719e-11
-6.23572e-11
-6.17604e-11
-6.03677e-11
-5.62466e-11
-5.16422e-11
-5.07043e-11
-5.10454e-11
-4.94254e-11
-4.62705e-11
-4.55032e-11
-4.71232e-11
-4.66684e-11
-4.55316e-11
-4.53042e-11
-4.59579e-11
-4.80327e-11
-4.86011e-11
-5.0278e-11
-4.91127e-11
-4.85159e-11
-5.10738e-11
-5.02212e-11
-4.68674e-11
-4.59579e-11
-4.68674e-11
-4.62705e-11
-4.74358e-11
-4.75779e-11
-4.7379e-11
-4.78622e-11
-4.65263e-11
-4.76916e-11
-4.60432e-11
-4.43379e-11
-4.5759e-11
-4.46221e-11
-4.5759e-11
-4.8459e-11
-4.87432e-11
-4.8118e-11
-4.94538e-11
-5.24665e-11
-5.74119e-11
-5.86056e-11
-6.21583e-11
-6.59668e-11
-6.42899e-11
-6.39488e-11
-6.55405e-11
-6.65068e-11
-6.5512e-11
-6.63078e-11
-6.72742e-11
-6.46594e-11
-6.63078e-11
-6.55689e-11
-6.49152e-11
-6.4631e-11
-6.31246e-11
-6.24993e-11
-6.32383e-11
-5.9174e-11
-5.92308e-11
-5.59623e-11
-5.50529e-11
-5.22391e-11
-4.79474e-11
-4.55316e-11
-4.25757e-11
-4.14389e-11
-3.81135e-11
-3.46176e-11
-2.91607e-11
-2.67448e-11
-2.63753e-11
-2.46416e-11
-2.58638e-11
-2.73417e-11
-2.79385e-11
-3.06386e-11
-3.10934e-11
-3.39639e-11
-3.36797e-11
-3.6124e-11
-3.7204e-11
-3.83977e-11
-4.02167e-11
-4.30873e-11
-4.25189e-11
-4.46505e-11
-4.62705e-11
-4.72085e-11
-5.01359e-11
-4.78053e-11
-4.92832e-11
-4.95675e-11
-5.30633e-11
-5.66729e-11
-5.95719e-11
-6.11351e-11
-6.30109e-11
-6.38636e-11
-6.16751e-11
-6.05951e-11
-6.05951e-11
-6.15898e-11
-6.39204e-11
-6.76437e-11
-6.90079e-11
-7.04858e-11
-7.05711e-11
-7.09974e-11
-7.02869e-11
-6.96332e-11
-6.85247e-11
-6.56257e-11
-6.54836e-11
-6.42046e-11
-6.26414e-11
-6.21867e-11
-6.24709e-11
-6.07088e-11
-5.71276e-11
-5.48539e-11
-5.42286e-11
-4.94538e-11
-4.718e-11
-5.03917e-11
-4.73221e-11
-4.70664e-11
-4.65263e-11
-4.51053e-11
-4.46221e-11
-4.17799e-11
-4.1581e-11
-4.14673e-11
-4.36842e-11
-4.37694e-11
-4.56737e-11
-4.59295e-11
-4.61284e-11
-4.79474e-11
-5.03064e-11
-5.47686e-11
-5.67866e-11
-5.53086e-11
-5.69003e-11
-6.17035e-11
-5.94866e-11
-5.59339e-11
-5.40865e-11
-5.40865e-11
-5.08749e-11
-5.24381e-11
-5.27791e-11
-5.23812e-11
-4.95959e-11
-4.85727e-11
-4.78906e-11
-4.82601e-11
-4.79758e-11
-4.60716e-11
-4.55884e-11
-4.74074e-11
-4.89422e-11
-5.15286e-11
-5.24949e-11
-5.25233e-11
-5.2637e-11
-5.32623e-11
-5.19833e-11
-5.55929e-11
-5.77245e-11
-5.75255e-11
-5.83782e-11
-5.8634e-11
-5.81508e-11
-6.06235e-11
-6.05667e-11
-5.90319e-11
-5.70992e-11
-5.78382e-11
-5.42855e-11
-5.27507e-11
-5.18412e-11
-5.04201e-11
-4.71232e-11
-4.63558e-11
-4.76348e-11
-4.87432e-11
-4.664e-11
-4.59579e-11
-4.23199e-11
-4.20926e-11
-4.0842e-11
-4.1382e-11
-4.20926e-11
-4.07567e-11
-4.32578e-11
-4.28884e-11
-4.1382e-11
-3.96767e-11
-4.2121e-11
-4.02451e-11
-4.22631e-11
-4.43094e-11
-4.43094e-11
-4.43094e-11
-4.19504e-11
-4.43947e-11
-4.58442e-11
-4.60147e-11
-4.88001e-11
-5.00506e-11
-5.18412e-11
-5.29212e-11
-5.48823e-11
-5.71276e-11
-5.42286e-11
-5.55929e-11
-5.15854e-11
-5.25517e-11
-5.21254e-11
-5.03348e-11
-5.06191e-11
-5.05906e-11
-5.13296e-11
-5.30918e-11
-5.58487e-11
-5.57634e-11
-6.02256e-11
-6.25278e-11
-6.51141e-11
-6.44036e-11
-6.60521e-11
-6.62226e-11
-6.37215e-11
-6.34657e-11
-6.37215e-11
-6.0794e-11
-5.6815e-11
-5.52518e-11
-5.40865e-11
-5.33191e-11
-5.45128e-11
-5.46834e-11
-5.38591e-11
-5.58487e-11
-5.49107e-11
-5.34897e-11
-5.52234e-11
-5.28075e-11
-5.15286e-11
-5.03064e-11
-5.25517e-11
-5.00222e-11
-4.73221e-11
-4.4281e-11
-4.43947e-11
-4.39684e-11
-4.76348e-11
-5.04201e-11
-5.21254e-11
-5.3376e-11
-5.19833e-11
-5.32623e-11
-5.70708e-11
-5.55929e-11
-5.17844e-11
-5.10738e-11
-4.99085e-11
-4.89422e-11
-4.60147e-11
-4.61569e-11
-4.70948e-11
-4.9539e-11
-5.07043e-11
-5.12159e-11
-4.93401e-11
-4.85443e-11
-4.82885e-11
-4.58442e-11
-4.35989e-11
-4.29168e-11
-4.43947e-11
-4.43663e-11
-4.47642e-11
-4.43094e-11
-4.62421e-11
-4.82601e-11
-4.89422e-11
-4.68958e-11
-4.4281e-11
-4.43947e-11
-4.66684e-11
-4.72369e-11
-4.73506e-11
-4.72085e-11
-5.00506e-11
-4.92264e-11
-5.27223e-11
-5.46265e-11
-5.41434e-11
-5.88614e-11
-5.94014e-11
-6.20446e-11
-6.45741e-11
-6.45173e-11
-6.42046e-11
-6.6791e-11
-6.35794e-11
-6.30962e-11
-6.46878e-11
-6.29257e-11
-6.25278e-11
-6.55405e-11
-6.59952e-11
-6.48299e-11
-6.44604e-11
-6.38636e-11
-6.48299e-11
-6.645e-11
-6.50573e-11
-6.54836e-11
-6.28972e-11
-6.42331e-11
-6.23288e-11
-6.09361e-11
-6.15046e-11
-6.42899e-11
-6.42331e-11
-6.2272e-11
-5.90035e-11
-5.67582e-11
-5.2836e-11
-5.05054e-11
-4.99085e-11
-4.8999e-11
-4.72653e-11
-4.30873e-11
-4.41673e-11
-4.04441e-11
-3.68914e-11
-3.72609e-11
-3.66072e-11
-3.95914e-11
-4.02736e-11
-4.30305e-11
-4.67821e-11
-4.63842e-11
-4.65548e-11
-4.80611e-11
-5.04485e-11
-5.19265e-11
-5.38876e-11
-5.74971e-11
-5.90603e-11
-6.01972e-11
-6.05951e-11
-5.77245e-11
-5.61613e-11
-5.47118e-11
-5.2836e-11
-4.84022e-11
-4.60716e-11
-4.70379e-11
-4.49063e-11
-4.47073e-11
-4.68958e-11
-4.45368e-11
-4.57021e-11
-4.66116e-11
-4.50768e-11
-4.34568e-11
-4.38263e-11
-4.21494e-11
-4.10694e-11
-3.89377e-11
-3.62945e-11
-3.4845e-11
-3.42482e-11
-3.16902e-11
-2.68585e-11
-2.44995e-11
-2.58922e-11
-2.52953e-11
-2.51532e-11
-2.49258e-11
-2.44427e-11
-2.52385e-11
-2.42721e-11
-2.36184e-11
-2.54659e-11
-2.61196e-11
-2.86491e-11
-3.0326e-11
-3.24007e-11
-3.40492e-11
-3.29692e-11
-3.45608e-11
-3.60103e-11
-3.78293e-11
-3.90514e-11
-3.9222e-11
-4.05009e-11
-4.41105e-11
-4.51621e-11
-4.48779e-11
-4.60432e-11
-4.30589e-11
-4.20641e-11
-4.20641e-11
-3.93641e-11
-3.81135e-11
-3.80282e-11
-3.51292e-11
-3.53282e-11
-3.10934e-11
-2.91607e-11
-2.87912e-11
-2.73985e-11
-2.37321e-11
-2.09752e-11
-1.83888e-11
-1.90994e-11
-1.96394e-11
-1.78773e-11
-1.75078e-11
-1.64562e-11
-1.6172e-11
-1.42961e-11
-1.4893e-11
-1.2534e-11
-1.33866e-11
-1.52625e-11
-1.71383e-11
-2.00657e-11
-2.36184e-11
-2.51816e-11
-2.66311e-11
-3.21165e-11
-3.37934e-11
-3.60103e-11
-3.81704e-11
-3.8483e-11
-3.93641e-11
-4.0842e-11
-4.448e-11
-4.64411e-11
-4.61569e-11
-4.556e-11
-4.62137e-11
-4.502e-11
-4.93117e-11
-4.98233e-11
-5.09033e-11
-4.93117e-11
-5.14717e-11
-5.1358e-11
-5.43992e-11
-5.41434e-11
-5.45128e-11
-5.43707e-11
-5.48539e-11
-5.73266e-11
-5.86908e-11
-5.83498e-11
-5.67013e-11
-5.41718e-11
-5.43992e-11
-5.65308e-11
-5.81224e-11
-5.57918e-11
-5.66729e-11
-5.65024e-11
-5.7554e-11
-5.65308e-11
-5.58487e-11
-5.35749e-11
-5.18696e-11
-4.89706e-11
-4.49347e-11
-4.43663e-11
-4.07567e-11
-3.5044e-11
-3.07807e-11
-2.71143e-11
-2.69722e-11
-2.48974e-11
-2.52385e-11
-2.73701e-11
-2.71712e-11
-3.04965e-11
-3.20313e-11
-3.22018e-11
-3.13776e-11
-3.34808e-11
-3.53282e-11
-3.70903e-11
-3.75451e-11
-3.58966e-11
-3.62945e-11
-3.62945e-11
-3.55556e-11
-3.67777e-11
-3.53282e-11
-3.55271e-11
-3.60671e-11
-4.03304e-11
-4.26894e-11
-4.4821e-11
-4.41673e-11
-4.52474e-11
-4.61853e-11
-4.83453e-11
-4.75211e-11
-4.5759e-11
-4.60147e-11
-4.65832e-11
-4.59863e-11
-4.65548e-11
-5.1557e-11
-5.32339e-11
-5.67582e-11
-5.76961e-11
-5.83213e-11
-6.11067e-11
-6.05098e-11
-6.05098e-11
-6.20162e-11
-6.01972e-11
-6.11635e-11
-5.8094e-11
-5.69855e-11
-5.43139e-11
-5.26086e-11
-5.24665e-11
-5.26654e-11
-5.04485e-11
-4.53042e-11
-4.34852e-11
-4.4281e-11
-4.20926e-11
-3.78009e-11
-3.24292e-11
-2.97291e-11
-2.87343e-11
-2.49258e-11
-2.38458e-11
-2.33911e-11
-2.36753e-11
-2.45279e-11
-2.3249e-11
-2.27658e-11
-2.305e-11
-2.71427e-11
-2.71712e-11
-2.80238e-11
-3.1207e-11
-3.5925e-11
-3.65503e-11
-3.95062e-11
-4.23483e-11
-4.49631e-11
-4.44516e-11
-4.88853e-11
-5.26938e-11
-5.35181e-11
-5.4257e-11
-5.73266e-11
-5.6815e-11
-5.59623e-11
-5.31486e-11
-5.20686e-11
-5.14433e-11
-5.18128e-11
-5.36033e-11
-5.39728e-11
-5.10738e-11
-5.05338e-11
-4.92264e-11
-4.63558e-11
-4.27463e-11
-3.97335e-11
-3.73461e-11
-3.74882e-11
-3.52998e-11
-3.35092e-11
-3.3765e-11
-3.19176e-11
-3.10365e-11
-3.05533e-11
-3.24576e-11
-3.41629e-11
-3.36513e-11
-3.43334e-11
-3.70335e-11
-3.73177e-11
-4.09557e-11
-4.36273e-11
-4.56168e-11
-4.83169e-11
-5.07896e-11
-4.95959e-11
-5.04201e-11
-5.05906e-11
-5.1898e-11
-5.23812e-11
-5.38023e-11
-5.6076e-11
-6.13909e-11
-6.64784e-11
-6.91784e-11
-7.11395e-11
-7.023e-11
-7.08269e-11
-7.32143e-11
-7.08553e-11
-7.01448e-11
-6.86668e-11
-6.82689e-11
-6.82974e-11
-6.83542e-11
-6.63078e-11
-6.19877e-11
-6.00551e-11
-5.68718e-11
-5.81792e-11
-5.38876e-11
-5.30633e-11
-5.38876e-11
-5.1358e-11
-4.8459e-11
-4.97096e-11
-4.71516e-11
-4.62421e-11
-4.52474e-11
-4.22062e-11
-4.18368e-11
-4.27747e-11
-3.9023e-11
-3.83977e-11
-3.58398e-11
-3.76303e-11
-3.7204e-11
-3.76588e-11
-3.41345e-11
-3.59535e-11
-3.7204e-11
-3.67493e-11
-3.70619e-11
-3.72324e-11
-4.00746e-11
-3.71472e-11
-3.74882e-11
-3.99325e-11
-3.89662e-11
-3.79146e-11
-3.87672e-11
-4.10694e-11
-3.99893e-11
-3.86819e-11
-4.00746e-11
-3.93925e-11
-3.70619e-11
-3.49871e-11
-3.54987e-11
-3.85967e-11
-3.99609e-11
-4.05862e-11
-4.22915e-11
-4.42526e-11
-4.54747e-11
-4.75495e-11
-4.71232e-11
-4.85727e-11
-5.01359e-11
-5.17559e-11
-5.09601e-11
-5.29212e-11
-5.31202e-11
-5.0278e-11
-5.01359e-11
-4.87148e-11
-4.75495e-11
-4.93117e-11
-4.78337e-11
-4.85443e-11
-4.96811e-11
-5.07896e-11
-5.05338e-11
-5.46834e-11
-5.38876e-11
-5.39444e-11
-5.1358e-11
-4.9539e-11
-4.88569e-11
-4.93685e-11
-5.01075e-11
-5.14149e-11
-5.42855e-11
-5.66445e-11
-5.53939e-11
-5.58487e-11
-5.46265e-11
-5.5735e-11
-5.60192e-11
-5.56213e-11
-5.61329e-11
-5.72413e-11
-5.48823e-11
-5.44276e-11
-5.34044e-11
-5.44276e-11
-4.86011e-11
-4.38831e-11
-3.91367e-11
-3.7744e-11
-3.47598e-11
-3.10934e-11
-3.15197e-11
-3.23439e-11
-3.23723e-11
-3.47882e-11
-3.35945e-11
-3.00417e-11
-3.11218e-11
-3.28839e-11
-3.54419e-11
-3.7204e-11
-4.0643e-11
-4.05578e-11
-4.1581e-11
-4.02736e-11
-3.97904e-11
-3.99893e-11
-4.00746e-11
-4.27747e-11
-4.06146e-11
-4.2661e-11
-4.57874e-11
-4.61569e-11
-4.69811e-11
-4.76348e-11
-4.65548e-11
-4.52474e-11
-4.49063e-11
-4.47073e-11
-4.80327e-11
-4.80611e-11
-4.72085e-11
-4.24905e-11
-4.12399e-11
-3.90799e-11
-3.66072e-11
-3.47029e-11
-3.62661e-11
-3.64082e-11
-4.00746e-11
-4.10409e-11
-4.12683e-11
-4.22062e-11
-4.18936e-11
-3.85967e-11
-3.88525e-11
-3.64366e-11
-3.89093e-11
-3.79146e-11
-3.90514e-11
-3.73745e-11
-3.97904e-11
-4.30873e-11
-4.55316e-11
-4.81464e-11
-5.04485e-11
-5.14433e-11
-5.05054e-11
-4.83453e-11
-4.68674e-11
-4.45084e-11
-4.59011e-11
-4.18652e-11
-4.18936e-11
-4.26041e-11
-4.19504e-11
-4.41105e-11
-4.45652e-11
-4.56453e-11
-4.20073e-11
-4.5361e-11
-4.5361e-11
-4.67253e-11
-5.08464e-11
-5.09885e-11
-5.51665e-11
-5.56213e-11
-5.6815e-11
-6.01972e-11
-6.27836e-11
-6.32667e-11
-6.30678e-11
-6.17604e-11
-6.645e-11
-6.73879e-11
-6.47162e-11
-5.88329e-11
-5.7355e-11
-5.40012e-11
-4.98801e-11
-4.78053e-11
-4.51905e-11
-4.14389e-11
-3.88525e-11
-3.60387e-11
-3.32534e-11
-3.05818e-11
-3.04681e-11
-2.92744e-11
-2.86207e-11
-2.77112e-11
-2.38174e-11
-2.16858e-11
-1.87583e-11
-1.64277e-11
-1.58025e-11
-1.56319e-11
-1.64277e-11
-1.58593e-11
-1.49498e-11
-1.45519e-11
-1.81046e-11
-1.87867e-11
-1.87867e-11
-1.84457e-11
-2.07478e-11
-2.17426e-11
-2.55511e-11
-2.80238e-11
-2.92175e-11
-3.45892e-11
-3.73177e-11
-4.14104e-11
-4.3201e-11
-4.51053e-11
-4.59295e-11
-4.85159e-11
-5.1898e-11
-5.04201e-11
-4.88001e-11
-4.8658e-11
-4.89422e-11
-5.08464e-11
-5.01643e-11
-5.23528e-11
-4.99369e-11
-5.08464e-11
-5.07612e-11
-5.11591e-11
-5.02496e-11
-5.16422e-11
-4.98801e-11
-5.11591e-11
-5.15854e-11
-5.50244e-11
-5.85771e-11
-6.09077e-11
-5.99982e-11
-5.84635e-11
-5.64455e-11
-5.52234e-11
-5.41149e-11
-5.03917e-11
-4.80611e-11
-4.46789e-11
-4.5361e-11
-4.2661e-11
-4.09557e-11
-3.81135e-11
-3.87104e-11
-3.73461e-11
-3.59535e-11
-3.6863e-11
-3.64651e-11
-3.51292e-11
-3.62661e-11
-3.78293e-11
-3.78861e-11
-3.79146e-11
-4.10409e-11
-4.11262e-11
-4.47642e-11
-4.35989e-11
-4.45652e-11
-3.86251e-11
-3.83693e-11
-3.81135e-11
-3.75735e-11
-3.47313e-11
-3.52429e-11
-3.53282e-11
-3.33955e-11
-3.13776e-11
-3.03544e-11
-2.77396e-11
-2.53237e-11
-2.6148e-11
-2.32774e-11
-2.16573e-11
-2.24532e-11
-1.98668e-11
-2.11742e-11
-1.90141e-11
-1.99236e-11
-1.87583e-11
-1.75362e-11
-1.65414e-11
-1.92131e-11
-2.05205e-11
-2.21689e-11
-2.197e-11
-2.59206e-11
-2.64606e-11
-2.52669e-11
-2.8308e-11
-2.8507e-11
-2.60343e-11
-2.74838e-11
-3.12355e-11
-3.62377e-11
-4.10694e-11
-4.394e-11
-4.38831e-11
-4.53895e-11
-4.68958e-11
-4.78622e-11
-4.98517e-11
-5.50244e-11
-5.60476e-11
-5.71276e-11
-5.8634e-11
-5.6275e-11
-5.23812e-11
-4.84306e-11
-4.75495e-11
-4.56168e-11
-4.59863e-11
-4.52758e-11
-4.43663e-11
-4.45368e-11
-4.49347e-11
-4.05009e-11
-3.80567e-11
-3.56124e-11
-3.59535e-11
-3.46176e-11
-3.41913e-11
-3.2685e-11
-3.10081e-11
-2.70006e-11
-2.93028e-11
-3.06954e-11
-3.42482e-11
-3.79146e-11
-3.93072e-11
-3.9023e-11
-4.06715e-11
-4.08988e-11
-4.17231e-11
-4.14957e-11
-3.63798e-11
-3.44187e-11
-3.65503e-11
-3.75735e-11
-3.89093e-11
-4.01315e-11
-4.11546e-11
-4.29736e-11
-4.394e-11
-4.46789e-11
-4.33147e-11
-4.22915e-11
-4.01883e-11
-4.33715e-11
-4.61853e-11
-4.28884e-11
-4.34852e-11
-4.22347e-11
-4.21778e-11
-4.34568e-11
-4.43947e-11
-4.71232e-11
-5.07612e-11
-5.3177e-11
-5.45697e-11
-5.54223e-11
-5.45981e-11
-5.14149e-11
-5.29212e-11
-5.12159e-11
-4.80043e-11
-4.53895e-11
-4.54463e-11
-4.27178e-11
-4.31157e-11
-4.16378e-11
-4.16662e-11
-4.23768e-11
-3.78293e-11
-3.78009e-11
-3.7204e-11
-3.4504e-11
-3.34808e-11
-3.4845e-11
-3.27987e-11
-3.14628e-11
-3.11502e-11
-3.26281e-11
-3.03544e-11
-2.85354e-11
-2.45848e-11
-2.23963e-11
-1.79909e-11
-1.55183e-11
-1.6712e-11
-1.55467e-11
-1.49214e-11
-1.53193e-11
-1.53477e-11
-1.4694e-11
-1.30456e-11
-1.2534e-11
-1.43245e-11
-1.54898e-11
-1.70814e-11
-1.54898e-11
-1.48646e-11
-1.56035e-11
-1.51203e-11
-1.79057e-11
-2.0151e-11
-2.18279e-11
-1.92983e-11
-1.95541e-11
-2.10889e-11
-2.63753e-11
-2.95586e-11
-3.28271e-11
-3.4305e-11
-3.79714e-11
-4.23483e-11
-4.40821e-11
-4.60432e-11
-4.95106e-11
-4.99938e-11
-5.10454e-11
-5.28644e-11
-5.33475e-11
-5.01927e-11
-4.74358e-11
-4.61e-11
-4.85443e-11
-4.87432e-11
-4.87432e-11
-5.10738e-11
-5.12443e-11
-4.62137e-11
-4.51621e-11
-4.03304e-11
-4.03872e-11
-3.82272e-11
-3.92788e-11
-4.01599e-11
-3.6664e-11
-3.42766e-11
-3.26565e-11
-3.33671e-11
-3.39924e-11
-3.35376e-11
-3.28271e-11
-3.28271e-11
-3.46176e-11
-3.29692e-11
-3.40492e-11
-3.3566e-11
-3.58114e-11
-3.32818e-11
-3.46461e-11
-3.49019e-11
-3.62377e-11
-3.76872e-11
-3.83409e-11
-4.02451e-11
-3.82556e-11
-3.61808e-11
-3.56408e-11
-3.47882e-11
-3.84546e-11
-4.06146e-11
-4.34284e-11
-4.47642e-11
-4.43094e-11
-4.3201e-11
-4.5361e-11
-4.43663e-11
-4.35136e-11
-4.39115e-11
-4.21494e-11
-4.01883e-11
-3.86535e-11
-3.70051e-11
-3.56692e-11
-3.42197e-11
-3.37081e-11
-2.99849e-11
-2.75122e-11
-2.70006e-11
-2.77112e-11
-2.77964e-11
-2.70006e-11
-2.72564e-11
-2.71712e-11
-3.01554e-11
-3.15765e-11
-3.18039e-11
-3.37366e-11
-3.51577e-11
-3.21165e-11
-3.15481e-11
-2.95586e-11
-3.05249e-11
-2.97007e-11
-2.82512e-11
-2.51248e-11
-2.50111e-11
-2.41585e-11
-2.41016e-11
-2.06342e-11
-1.98668e-11
-1.85025e-11
-1.64562e-11
-1.35572e-11
-1.37277e-11
-1.33014e-11
-1.43814e-11
-1.38982e-11
-1.19371e-11
-1.09424e-11
-1.22213e-11
-1.17097e-11
-1.31593e-11
-1.23634e-11
-1.15676e-11
-1.54046e-11
-1.71667e-11
-1.99236e-11
-2.62901e-11
-3.14913e-11
-3.49871e-11
-3.5925e-11
-3.76303e-11
-3.85683e-11
-3.91367e-11
-4.37979e-11
-4.25757e-11
-4.45652e-11
-4.52758e-11
-4.66116e-11
-4.49916e-11
-4.22062e-11
-4.00178e-11
-3.87956e-11
-3.83409e-11
-4.13536e-11
-4.07283e-11
-3.85683e-11
-3.90514e-11
-3.6664e-11
-3.71188e-11
-3.63514e-11
-3.68914e-11
-4.11262e-11
-4.394e-11
-4.22915e-11
-3.9762e-11
-4.16378e-11
-4.18652e-11
-4.24052e-11
-4.00178e-11
-3.85967e-11
-3.8483e-11
-4.04725e-11
-4.03588e-11
-3.95062e-11
-3.98472e-11
-4.24052e-11
-4.17515e-11
-4.36842e-11
-4.52474e-11
-4.31726e-11
-4.20641e-11
-4.17231e-11
-4.34284e-11
-4.41958e-11
-4.40252e-11
-4.58158e-11
-4.76916e-11
-4.46505e-11
-4.76348e-11
-4.56168e-11
-4.06999e-11
-3.59819e-11
-3.44187e-11
-3.29692e-11
-3.23155e-11
-3.08091e-11
-2.76259e-11
-2.70006e-11
-2.48122e-11
-2.47269e-11
-2.52385e-11
-2.467e-11
-2.62617e-11
-2.46985e-11
-2.64322e-11
-2.88765e-11
-2.97007e-11
-2.8848e-11
-3.28555e-11
-3.94209e-11
-4.09841e-11
-4.3741e-11
-4.49063e-11
-4.73221e-11
-4.40536e-11
-4.02167e-11
-3.95062e-11
-3.82556e-11
-3.69198e-11
-3.67777e-11
-3.74882e-11
-3.71472e-11
-3.65787e-11
-3.53282e-11
-3.33102e-11
-3.63798e-11
-3.41061e-11
-3.30544e-11
-3.41061e-11
-3.46745e-11
-3.64366e-11
-3.27134e-11
-3.20028e-11
-3.27134e-11
-3.04681e-11
-2.73417e-11
-2.82512e-11
-2.64038e-11
-2.75691e-11
-2.77396e-11
-2.34195e-11
-2.36469e-11
-2.09184e-11
-1.97247e-11
-2.05489e-11
-1.94404e-11
-1.98668e-11
-2.17995e-11
-2.21121e-11
-1.90994e-11
-1.89573e-11
-1.77351e-11
-1.96394e-11
-2.08047e-11
-2.32774e-11
-2.4869e-11
-2.83364e-11
-2.79954e-11
-2.94165e-11
-3.04397e-11
-3.13491e-11
-3.3765e-11
-3.12355e-11
-3.22302e-11
-3.37366e-11
-3.38218e-11
-3.50724e-11
-3.34808e-11
-3.39639e-11
-3.29123e-11
-3.43903e-11
-3.50724e-11
-3.27418e-11
-2.78249e-11
-2.81091e-11
-2.7228e-11
-2.53806e-11
-2.45279e-11
-2.46985e-11
-2.49258e-11
-2.92459e-11
-3.35376e-11
-3.25997e-11
-3.30829e-11
-3.35092e-11
-3.40492e-11
-3.47882e-11
-3.62093e-11
-3.89093e-11
-3.98472e-11
-4.02736e-11
-4.20926e-11
-4.718e-11
-4.92264e-11
-4.9198e-11
-4.82885e-11
-4.89138e-11
-4.97948e-11
-4.85443e-11
-4.74074e-11
-4.58726e-11
-4.51053e-11
-4.73221e-11
-4.85159e-11
-4.85443e-11
-4.9539e-11
-5.01075e-11
-4.88285e-11
-4.87148e-11
-4.53895e-11
-4.07567e-11
-3.92788e-11
-3.64651e-11
-3.63514e-11
-3.55556e-11
-3.25713e-11
-3.23155e-11
-2.96723e-11
-2.86775e-11
-2.87059e-11
-3.04681e-11
-3.08091e-11
-2.91891e-11
-2.83649e-11
-2.71143e-11
-2.95017e-11
-2.89617e-11
-2.66027e-11
-2.73701e-11
-2.9587e-11
-2.9786e-11
-2.99565e-11
-2.87628e-11
-2.75691e-11
-2.44142e-11
-2.25384e-11
-2.06626e-11
-2.25668e-11
-2.197e-11
-2.45564e-11
-2.49827e-11
-2.81375e-11
-2.77396e-11
-2.81943e-11
-2.76827e-11
-2.98996e-11
-3.11218e-11
-2.87628e-11
-2.86207e-11
-2.81375e-11
-2.68301e-11
-2.95302e-11
-2.85638e-11
-2.99565e-11
-3.13491e-11
-3.18892e-11
-2.86207e-11
-2.8507e-11
-2.53806e-11
-2.33058e-11
-2.41016e-11
-2.14015e-11
-2.20268e-11
-2.13731e-11
-2.07478e-11
-2.02931e-11
-1.83036e-11
-1.76215e-11
-1.60298e-11
-1.75646e-11
-1.77351e-11
-1.98952e-11
-2.12026e-11
-1.99805e-11
-2.25953e-11
-2.33342e-11
-2.47553e-11
-2.54943e-11
-2.65743e-11
-2.69154e-11
-2.57216e-11
-2.61764e-11
-2.6148e-11
-2.76259e-11
-2.87343e-11
-2.70006e-11
-2.54943e-11
-2.57501e-11
-2.47553e-11
-2.60059e-11
-2.75406e-11
-2.59774e-11
-2.71996e-11
-2.73701e-11
-2.76543e-11
-3.13491e-11
-3.52713e-11
-3.47882e-11
-3.20313e-11
-3.00417e-11
-3.15481e-11
-3.37081e-11
-3.49587e-11
-3.68914e-11
-3.76588e-11
-3.81704e-11
-3.58398e-11
-3.56408e-11
-3.44755e-11
-3.22871e-11
-3.17186e-11
-3.5584e-11
-3.93641e-11
-3.91651e-11
-3.82272e-11
-4.0103e-11
-4.03588e-11
-4.11546e-11
-4.14673e-11
-4.20357e-11
-4.48495e-11
-4.27178e-11
-4.38263e-11
-4.55884e-11
-4.53895e-11
-4.64979e-11
-4.35989e-11
-4.23768e-11
-4.43947e-11
-4.41105e-11
-4.31726e-11
-4.40252e-11
-4.556e-11
-4.58726e-11
-4.81464e-11
-4.80043e-11
-4.66116e-11
-4.68106e-11
-4.34568e-11
-3.94209e-11
-3.73461e-11
-3.25144e-11
-2.86775e-11
-2.6688e-11
-2.48974e-11
-2.13163e-11
-2.21405e-11
-2.30216e-11
-2.17142e-11
-2.29932e-11
-2.16858e-11
-2.35048e-11
-2.28795e-11
-2.44427e-11
-2.30216e-11
-2.37037e-11
-2.49258e-11
-2.39311e-11
-2.41016e-11
-2.42437e-11
-2.6148e-11
-2.75122e-11
-2.87059e-11
-3.01554e-11
-3.14628e-11
-3.54134e-11
-3.74598e-11
-4.05009e-11
-4.24336e-11
-4.394e-11
-4.5759e-11
-4.92264e-11
-5.02496e-11
-5.28644e-11
-5.18696e-11
-5.35181e-11
-5.72129e-11
-5.45981e-11
-5.52802e-11
-5.60192e-11
-5.46834e-11
-5.32907e-11
-5.4257e-11
-5.21538e-11
-5.11307e-11
-4.72369e-11
-4.13536e-11
-3.8284e-11
-3.64366e-11
-3.35376e-11
-3.0127e-11
-2.95017e-11
-2.78533e-11
-2.75406e-11
-3.05533e-11
-2.98428e-11
-3.1406e-11
-3.22302e-11
-3.41913e-11
-3.44471e-11
-3.2486e-11
-3.31397e-11
-3.44471e-11
-3.53566e-11
-3.39355e-11
-3.47029e-11
-3.34239e-11
-3.09228e-11
-2.90186e-11
-2.42153e-11
-2.41016e-11
-2.37605e-11
-2.39879e-11
-2.30216e-11
-2.10321e-11
-2.1771e-11
-1.94973e-11
-1.86446e-11
-1.7252e-11
-1.91847e-11
-2.18563e-11
-2.52953e-11
-2.54659e-11
-2.57785e-11
-2.71143e-11
-2.9388e-11
-3.3566e-11
-3.47313e-11
-3.7744e-11
-3.96767e-11
-3.95062e-11
-3.96767e-11
-3.9222e-11
-4.0302e-11
-4.30305e-11
-4.16378e-11
-4.28599e-11
-4.14673e-11
-3.97904e-11
-4.00746e-11
-3.69482e-11
-3.68914e-11
-3.8284e-11
-3.80282e-11
-3.73745e-11
-3.49019e-11
-3.34524e-11
-3.18607e-11
-3.31681e-11
-3.39355e-11
-3.33387e-11
-3.33955e-11
-3.12639e-11
-3.11218e-11
-2.99565e-11
-3.0866e-11
-3.18039e-11
-2.99281e-11
-3.02691e-11
-2.6688e-11
-2.43574e-11
-2.16005e-11
-1.93836e-11
-1.86162e-11
-1.54046e-11
-1.4893e-11
-1.5234e-11
-1.49782e-11
-1.61435e-11
-1.46088e-11
-1.40687e-11
-1.21361e-11
-1.13118e-11
-8.896e-12
-7.9865e-12
-8.83915e-12
-9.77707e-12
-1.19087e-11
-1.26477e-11
-1.21361e-11
-9.6918e-12
-1.15108e-11
-1.3074e-11
-1.56035e-11
-1.81046e-11
-1.80478e-11
-2.14868e-11
-2.30216e-11
-2.76259e-11
-2.90754e-11
-2.9587e-11
-3.09797e-11
-3.12923e-11
-3.41913e-11
-3.4504e-11
-3.46745e-11
-3.45608e-11
-3.64935e-11
-3.56977e-11
-3.38787e-11
-3.25713e-11
-3.21734e-11
-3.12923e-11
-3.14628e-11
-3.12355e-11
-3.4504e-11
-3.46745e-11
-3.44755e-11
-3.47882e-11
-3.5584e-11
-3.66356e-11
-4.07852e-11
-4.21778e-11
-4.1382e-11
-4.34568e-11
-4.1581e-11
-3.96767e-11
-3.64082e-11
-3.69198e-11
-3.58398e-11
-3.38503e-11
-2.96723e-11
-2.77396e-11
-2.59774e-11
-2.44142e-11
-2.25668e-11
-2.34195e-11
-2.305e-11
-2.47269e-11
-2.47553e-11
-2.39595e-11
-2.73985e-11
-2.56364e-11
-2.73417e-11
-2.69722e-11
-2.62332e-11
-2.71427e-11
-2.75122e-11
-2.70575e-11
-2.75975e-11
-2.58069e-11
-2.70859e-11
-2.9047e-11
-2.62901e-11
-2.73133e-11
-2.57501e-11
-2.54659e-11
-2.50964e-11
-2.42721e-11
-2.46132e-11
-2.59206e-11
-2.74838e-11
-2.34195e-11
-2.40163e-11
-2.45848e-11
-2.1231e-11
-1.86446e-11
-1.7792e-11
-1.76783e-11
-1.69962e-11
-1.87299e-11
-1.88152e-11
-1.94404e-11
-1.58309e-11
-1.54614e-11
-1.59162e-11
-1.56035e-11
-1.5234e-11
-1.4353e-11
-1.42109e-11
-1.26192e-11
-1.3415e-11
-1.41256e-11
-1.34435e-11
-1.44098e-11
-1.49214e-11
-1.42677e-11
-1.62856e-11
-1.8531e-11
-1.8332e-11
-1.90425e-11
-1.71099e-11
-1.70814e-11
-1.76783e-11
-1.88152e-11
-2.10036e-11
-2.19131e-11
-2.10036e-11
-2.29932e-11
-2.54659e-11
-2.48974e-11
-2.40163e-11
-2.60911e-11
-2.7228e-11
-2.67164e-11
-2.6688e-11
-2.93596e-11
-2.68869e-11
-2.67448e-11
-2.5949e-11
-2.44142e-11
-2.50395e-11
-2.23963e-11
-2.143e-11
-2.13447e-11
-2.18847e-11
-2.25953e-11
-2.14015e-11
-1.99236e-11
-1.82183e-11
-1.6712e-11
-1.87867e-11
-2.14015e-11
-2.07478e-11
-2.0691e-11
-2.18563e-11
-2.44995e-11
-2.44711e-11
-2.41869e-11
-2.37605e-11
-2.5608e-11
-2.50395e-11
-2.84217e-11
-2.87343e-11
-3.10365e-11
-3.3566e-11
-3.67493e-11
-3.79714e-11
-3.84546e-11
-4.09273e-11
-4.08704e-11
-4.24905e-11
-4.49916e-11
-4.6299e-11
-4.30873e-11
-3.94493e-11
-3.96199e-11
-3.67777e-11
-3.31966e-11
-3.46176e-11
-3.46745e-11
-3.18039e-11
-2.61196e-11
-2.42437e-11
-2.41016e-11
-2.29363e-11
-2.15437e-11
-2.16289e-11
-2.47837e-11
-2.50964e-11
-2.45848e-11
-2.359e-11
-2.44995e-11
-2.31637e-11
-2.0691e-11
-1.90994e-11
-1.76215e-11
-1.9611e-11
-1.97247e-11
-2.10889e-11
-2.38742e-11
-2.62617e-11
-2.69722e-11
-2.73985e-11
-2.75122e-11
-2.76827e-11
-2.77964e-11
-2.69154e-11
-2.74269e-11
-2.69438e-11
-2.68017e-11
-2.59206e-11
-2.60627e-11
-2.39027e-11
-2.37605e-11
-2.54659e-11
-2.41016e-11
-2.13731e-11
-1.86446e-11
-1.93836e-11
-1.69393e-11
-1.60014e-11
-1.63709e-11
-1.66551e-11
-1.7053e-11
-1.64846e-11
-1.69678e-11
-1.67972e-11
-1.49498e-11
-1.50067e-11
-1.90994e-11
-2.13447e-11
-2.17426e-11
-2.55795e-11
-2.87912e-11
-3.19744e-11
-3.55271e-11
-3.54134e-11
-3.35945e-11
-2.99281e-11
-2.92744e-11
-2.59206e-11
-2.13163e-11
-1.97531e-11
-1.73372e-11
-1.45235e-11
-8.49809e-12
-6.50857e-12
-3.80851e-12
-1.76215e-12
-6.53699e-13
-3.41061e-13
-3.97904e-13
-3.41061e-13
9.09495e-13
1.13687e-13
-1.36424e-12
-2.81375e-12
-4.29168e-12
-4.83169e-12
-7.50333e-12
-8.46967e-12
-9.89075e-12
-1.29319e-11
-1.59446e-11
-1.54614e-11
-1.77067e-11
-1.62856e-11
-1.66267e-11
-1.50351e-11
-1.47509e-11
-1.39835e-11
-1.61151e-11
-1.57456e-11
-1.41824e-11
-1.39266e-11
-1.21361e-11
-1.01181e-11
-9.20863e-12
-8.41283e-12
-8.3844e-12
-6.33804e-12
-3.95062e-12
-3.09797e-12
-4.14957e-12
-4.23483e-12
-5.25802e-12
-6.62226e-12
-9.06653e-12
-8.29914e-12
-9.0381e-12
-1.22782e-11
-1.53477e-11
-1.63141e-11
-1.59446e-11
-1.54046e-11
-1.79909e-11
-2.10036e-11
-2.23395e-11
-2.63753e-11
-2.81943e-11
-2.6688e-11
-2.95302e-11
-3.23439e-11
-3.32818e-11
-3.38218e-11
-3.35376e-11
-3.49019e-11
-3.40492e-11
-3.44471e-11
-3.51008e-11
-3.91083e-11
-4.46789e-11
-4.38263e-11
-4.11546e-11
-3.96199e-11
-4.08704e-11
-4.22915e-11
-4.08704e-11
-4.10409e-11
-4.47926e-11
-4.51337e-11
-4.53895e-11
-4.11831e-11
-4.04725e-11
-3.51008e-11
-3.45608e-11
-3.42482e-11
-3.18607e-11
-3.16618e-11
-3.33671e-11
-3.24007e-11
-3.11502e-11
-3.14913e-11
-3.1406e-11
-3.08376e-11
-3.05533e-11
-2.96438e-11
-2.97575e-11
-3.06386e-11
-3.07523e-11
-2.85638e-11
-2.71143e-11
-2.61196e-11
-2.53522e-11
-2.35048e-11
-2.39311e-11
-2.42721e-11
-2.46985e-11
-2.29363e-11
-2.44711e-11
-2.53237e-11
-2.54659e-11
-2.68869e-11
-2.58638e-11
-2.3789e-11
-2.31921e-11
-2.20837e-11
-2.12594e-11
-1.96678e-11
-1.75646e-11
-1.41256e-11
-1.63141e-11
-1.57172e-11
-1.32161e-11
-1.17382e-11
-1.17097e-11
-1.09992e-11
-8.46967e-12
-6.90648e-12
-4.718e-12
-5.76961e-12
-6.87805e-12
-8.6402e-12
-1.00329e-11
-1.04876e-11
-1.05729e-11
-1.36993e-11
-1.60583e-11
-1.83888e-11
-1.92983e-11
-1.89573e-11
-1.86731e-11
-1.77636e-11
-1.55183e-11
-1.46656e-11
-1.36708e-11
-1.13403e-11
-1.07434e-11
-1.31877e-11
-1.29603e-11
-1.42393e-11
-1.35572e-11
-1.47509e-11
-1.46656e-11
-1.26192e-11
-1.1255e-11
-9.43601e-12
-1.15108e-11
-9.06653e-12
-5.59908e-12
-6.59384e-12
-5.76961e-12
-6.70752e-12
-6.9349e-12
-7.53175e-12
-1.15108e-11
-1.25056e-11
-1.54898e-11
-1.75078e-11
-1.85594e-11
-1.89289e-11
-2.23963e-11
-2.62617e-11
-3.1207e-11
-3.28271e-11
-3.49303e-11
-3.4504e-11
-3.73461e-11
-3.98757e-11
-4.02451e-11
-4.00746e-11
-3.93356e-11
-4.16094e-11
-4.5361e-11
-4.718e-11
-4.94538e-11
-4.93685e-11
-5.03917e-11
-4.88853e-11
-4.89138e-11
-5.07896e-11
-5.47686e-11
-5.5735e-11
-5.36318e-11
-5.37455e-11
-5.64739e-11
-5.90603e-11
-6.08225e-11
-6.18172e-11
-6.4972e-11
-6.65921e-11
-6.81553e-11
-6.83258e-11
-6.92921e-11
-7.09406e-11
-6.96616e-11
-6.76721e-11
-6.645e-11
-6.71605e-11
-6.94627e-11
-6.90363e-11
-6.9889e-11
-7.00879e-11
-7.10259e-11
-7.21059e-11
-7.58007e-11
-7.46354e-11
-7.56017e-11
-7.23901e-11
-7.07985e-11
-7.22196e-11
-7.44649e-11
-7.57439e-11
-7.55733e-11
-7.57723e-11
-7.36975e-11
-7.39249e-11
-7.21343e-11
-6.8809e-11
-6.68479e-11
-6.40057e-11
-6.01972e-11
-5.74403e-11
-5.46265e-11
-5.18128e-11
-5.34328e-11
-4.86295e-11
-4.78622e-11
-4.57874e-11
-4.34284e-11
-4.27178e-11
-4.06999e-11
-3.72893e-11
-3.59819e-11
-3.60103e-11
-3.3026e-11
-2.87343e-11
-2.81943e-11
-2.7228e-11
-2.35616e-11
-2.33342e-11
-2.36184e-11
-2.24816e-11
-2.35332e-11
-2.31068e-11
-2.35332e-11
-2.15721e-11
-1.87015e-11
-2.1771e-11
-2.24532e-11
-2.19416e-11
-2.17995e-11
-1.97815e-11
-2.18279e-11
-2.58922e-11
-2.77112e-11
-2.80806e-11
-2.78533e-11
-2.96723e-11
-3.09797e-11
-3.17186e-11
-3.4504e-11
-3.54987e-11
-3.61808e-11
-3.7943e-11
-3.82272e-11
-3.91367e-11
-3.86535e-11
-4.11831e-11
-4.00462e-11
-3.84546e-11
-3.88809e-11
-4.16662e-11
-4.3201e-11
-4.34e-11
-4.43379e-11
-4.74927e-11
-5.12443e-11
-5.18696e-11
-5.63602e-11
-5.8634e-11
-6.15614e-11
-5.87761e-11
-6.00551e-11
-5.61613e-11
-5.81508e-11
-5.86056e-11
-5.68434e-11
-5.48823e-11
-5.26654e-11
-4.99085e-11
-4.92548e-11
-4.49063e-11
-4.04157e-11
-3.71472e-11
-3.3026e-11
-2.83649e-11
-2.54659e-11
-1.81046e-11
-8.35598e-12
5.05906e-12
1.97531e-11
3.68061e-11
6.30394e-11
1.00897e-10
1.53022e-10
2.27658e-10
3.3387e-10
4.83681e-10
6.94342e-10
9.88877e-10