/*--------------------------------*- C++ -*----------------------------------*\
  =========                 |
  \\      /  F ield         | OpenFOAM: The Open Source CFD Toolbox
   \\    /   O peration     | Website:  https://openfoam.org
    \\  /    A nd           | Version:  9
     \\/     M anipulation  |
\*---------------------------------------------------------------------------*/
FoamFile
{
    format      ascii;
    class       volVectorField;
    location    "0.007";
    object      U_0;
}
// * * * * * * * * * * * * * * * * * * * * * * * * * * * * * * * * * * * * * //

dimensions      [0 1 -1 0 0 0 0];

internalField   nonuniform List<vector> 
10000
(
(-9.48865e-12 0 0)
(-9.38578e-12 0 0)
(-9.56543e-12 0 0)
(-8.79845e-12 0 0)
(-8.89518e-12 0 0)
(-8.25488e-12 0 0)
(-8.52129e-12 0 0)
(-7.62378e-12 0 0)
(-8.00459e-12 0 0)
(-7.3282e-12 0 0)
(-7.61304e-12 0 0)
(-6.54509e-12 0 0)
(-7.57311e-12 0 0)
(-7.40881e-12 0 0)
(-8.16812e-12 0 0)
(-8.14355e-12 0 0)
(-8.22417e-12 0 0)
(-7.81188e-12 0 0)
(-7.78501e-12 0 0)
(-7.24528e-12 0 0)
(-7.46563e-12 0 0)
(-8.02609e-12 0 0)
(-8.73933e-12 0 0)
(-9.4756e-12 0 0)
(-9.83107e-12 0 0)
(-1.05067e-11 0 0)
(-1.05796e-11 0 0)
(-1.10357e-11 0 0)
(-1.11677e-11 0 0)
(-1.12192e-11 0 0)
(-1.13505e-11 0 0)
(-1.11815e-11 0 0)
(-1.1233e-11 0 0)
(-1.19885e-11 0 0)
(-1.2833e-11 0 0)
(-1.21505e-11 0 0)
(-1.28414e-11 0 0)
(-1.25013e-11 0 0)
(-1.28153e-11 0 0)
(-1.22011e-11 0 0)
(-1.22288e-11 0 0)
(-1.12038e-11 0 0)
(-1.16245e-11 0 0)
(-1.09927e-11 0 0)
(-1.10879e-11 0 0)
(-1.03654e-11 0 0)
(-1.12614e-11 0 0)
(-1.08714e-11 0 0)
(-1.08944e-11 0 0)
(-1.01658e-11 0 0)
(-1.09343e-11 0 0)
(-1.05543e-11 0 0)
(-1.14034e-11 0 0)
(-1.08545e-11 0 0)
(-1.22096e-11 0 0)
(-1.20875e-11 0 0)
(-1.26288e-11 0 0)
(-1.23009e-11 0 0)
(-1.29551e-11 0 0)
(-1.27316e-11 0 0)
(-1.37528e-11 0 0)
(-1.43478e-11 0 0)
(-1.50395e-11 0 0)
(-1.49151e-11 0 0)
(-1.48069e-11 0 0)
(-1.44683e-11 0 0)
(-1.48184e-11 0 0)
(-1.48176e-11 0 0)
(-1.54602e-11 0 0)
(-1.60199e-11 0 0)
(-1.70948e-11 0 0)
(-1.73512e-11 0 0)
(-1.78372e-11 0 0)
(-1.76261e-11 0 0)
(-1.81858e-11 0 0)
(-1.76222e-11 0 0)
(-1.82694e-11 0 0)
(-1.73028e-11 0 0)
(-1.73627e-11 0 0)
(-1.65504e-11 0 0)
(-1.66195e-11 0 0)
(-1.56023e-11 0 0)
(-1.56453e-11 0 0)
(-1.48645e-11 0 0)
(-1.52545e-11 0 0)
(-1.44291e-11 0 0)
(-1.42787e-11 0 0)
(-1.45712e-11 0 0)
(-1.48852e-11 0 0)
(-1.46679e-11 0 0)
(-1.49781e-11 0 0)
(-1.49443e-11 0 0)
(-1.53213e-11 0 0)
(-1.61412e-11 0 0)
(-1.62218e-11 0 0)
(-1.59593e-11 0 0)
(-1.58741e-11 0 0)
(-1.65865e-11 0 0)
(-1.63393e-11 0 0)
(-1.6975e-11 0 0)
(-1.64337e-11 0 0)
(-1.62464e-11 0 0)
(-1.53412e-11 0 0)
(-1.53481e-11 0 0)
(-1.42572e-11 0 0)
(-1.36936e-11 0 0)
(-1.24806e-11 0 0)
(-1.19846e-11 0 0)
(-1.11071e-11 0 0)
(-1.09604e-11 0 0)
(-9.9424e-12 0 0)
(-9.43491e-12 0 0)
(-8.15046e-12 0 0)
(-7.98002e-12 0 0)
(-7.4257e-12 0 0)
(-8.11515e-12 0 0)
(-7.59231e-12 0 0)
(-8.27407e-12 0 0)
(-7.97388e-12 0 0)
(-8.02071e-12 0 0)
(-7.54931e-12 0 0)
(-8.45603e-12 0 0)
(-8.6257e-12 0 0)
(-9.40343e-12 0 0)
(-9.37196e-12 0 0)
(-9.16543e-12 0 0)
(-9.03338e-12 0 0)
(-9.62301e-12 0 0)
(-1.07946e-11 0 0)
(-1.12506e-11 0 0)
(-1.19163e-11 0 0)
(-1.317e-11 0 0)
(-1.42211e-11 0 0)
(-1.43969e-11 0 0)
(-1.47339e-11 0 0)
(-1.53543e-11 0 0)
(-1.53988e-11 0 0)
(-1.5557e-11 0 0)
(-1.46863e-11 0 0)
(-1.3881e-11 0 0)
(-1.29113e-11 0 0)
(-1.29666e-11 0 0)
(-1.22825e-11 0 0)
(-1.22073e-11 0 0)
(-1.16115e-11 0 0)
(-1.19332e-11 0 0)
(-1.17627e-11 0 0)
(-1.17482e-11 0 0)
(-1.14203e-11 0 0)
(-1.1408e-11 0 0)
(-1.1656e-11 0 0)
(-1.22057e-11 0 0)
(-1.1947e-11 0 0)
(-1.2446e-11 0 0)
(-1.21819e-11 0 0)
(-1.29389e-11 0 0)
(-1.27025e-11 0 0)
(-1.24821e-11 0 0)
(-1.14848e-11 0 0)
(-1.17389e-11 0 0)
(-1.11846e-11 0 0)
(-1.1871e-11 0 0)
(-1.13528e-11 0 0)
(-1.22188e-11 0 0)
(-1.14917e-11 0 0)
(-1.2043e-11 0 0)
(-1.14526e-11 0 0)
(-1.18449e-11 0 0)
(-1.06549e-11 0 0)
(-1.12714e-11 0 0)
(-1.05558e-11 0 0)
(-1.15723e-11 0 0)
(-1.08422e-11 0 0)
(-1.21996e-11 0 0)
(-1.13405e-11 0 0)
(-1.26994e-11 0 0)
(-1.23892e-11 0 0)
(-1.43032e-11 0 0)
(-1.40422e-11 0 0)
(-1.54932e-11 0 0)
(-1.559e-11 0 0)
(-1.68107e-11 0 0)
(-1.59746e-11 0 0)
(-1.68353e-11 0 0)
(-1.6519e-11 0 0)
(-1.68153e-11 0 0)
(-1.66441e-11 0 0)
(-1.72529e-11 0 0)
(-1.63808e-11 0 0)
(-1.6413e-11 0 0)
(-1.64982e-11 0 0)
(-1.65174e-11 0 0)
(-1.58441e-11 0 0)
(-1.62042e-11 0 0)
(-1.52445e-11 0 0)
(-1.60222e-11 0 0)
(-1.55385e-11 0 0)
(-1.50549e-11 0 0)
(-1.39854e-11 0 0)
(-1.40568e-11 0 0)
(-1.32483e-11 0 0)
(-1.27109e-11 0 0)
(-1.17666e-11 0 0)
(-1.1365e-11 0 0)
(-1.05796e-11 0 0)
(-1.00161e-11 0 0)
(-8.77004e-12 0 0)
(-8.11975e-12 0 0)
(-6.81227e-12 0 0)
(-6.81304e-12 0 0)
(-6.30709e-12 0 0)
(-6.65334e-12 0 0)
(-6.69787e-12 0 0)
(-7.10785e-12 0 0)
(-7.17925e-12 0 0)
(-7.5163e-12 0 0)
(-8.09442e-12 0 0)
(-8.56889e-12 0 0)
(-8.60574e-12 0 0)
(-9.42109e-12 0 0)
(-9.32819e-12 0 0)
(-9.87714e-12 0 0)
(-1.03194e-11 0 0)
(-1.09282e-11 0 0)
(-1.10249e-11 0 0)
(-1.14794e-11 0 0)
(-1.18334e-11 0 0)
(-1.22748e-11 0 0)
(-1.20077e-11 0 0)
(-1.21758e-11 0 0)
(-1.21458e-11 0 0)
(-1.29197e-11 0 0)
(-1.33458e-11 0 0)
(-1.45965e-11 0 0)
(-1.51716e-11 0 0)
(-1.53121e-11 0 0)
(-1.57059e-11 0 0)
(-1.58218e-11 0 0)
(-1.52291e-11 0 0)
(-1.52361e-11 0 0)
(-1.51585e-11 0 0)
(-1.56222e-11 0 0)
(-1.65957e-11 0 0)
(-1.65988e-11 0 0)
(-1.7537e-11 0 0)
(-1.74556e-11 0 0)
(-1.77174e-11 0 0)
(-1.78802e-11 0 0)
(-1.76476e-11 0 0)
(-1.7256e-11 0 0)
(-1.6975e-11 0 0)
(-1.66096e-11 0 0)
(-1.61574e-11 0 0)
(-1.56184e-11 0 0)
(-1.61013e-11 0 0)
(-1.54288e-11 0 0)
(-1.57589e-11 0 0)
(-1.4618e-11 0 0)
(-1.39831e-11 0 0)
(-1.3762e-11 0 0)
(-1.31823e-11 0 0)
(-1.22172e-11 0 0)
(-1.22533e-11 0 0)
(-1.20176e-11 0 0)
(-1.17228e-11 0 0)
(-1.15792e-11 0 0)
(-1.12315e-11 0 0)
(-1.10687e-11 0 0)
(-1.0803e-11 0 0)
(-1.03769e-11 0 0)
(-1.05013e-11 0 0)
(-1.05819e-11 0 0)
(-1.12345e-11 0 0)
(-1.13105e-11 0 0)
(-1.14088e-11 0 0)
(-1.14802e-11 0 0)
(-1.18863e-11 0 0)
(-1.24591e-11 0 0)
(-1.32222e-11 0 0)
(-1.37113e-11 0 0)
(-1.40744e-11 0 0)
(-1.37589e-11 0 0)
(-1.45873e-11 0 0)
(-1.50172e-11 0 0)
(-1.43432e-11 0 0)
(-1.3504e-11 0 0)
(-1.34733e-11 0 0)
(-1.29128e-11 0 0)
(-1.26311e-11 0 0)
(-1.29105e-11 0 0)
(-1.3084e-11 0 0)
(-1.2304e-11 0 0)
(-1.2195e-11 0 0)
(-1.16307e-11 0 0)
(-1.18933e-11 0 0)
(-1.1772e-11 0 0)
(-1.15501e-11 0 0)
(-1.15723e-11 0 0)
(-1.18549e-11 0 0)
(-1.20407e-11 0 0)
(-1.28299e-11 0 0)
(-1.28944e-11 0 0)
(-1.3633e-11 0 0)
(-1.33405e-11 0 0)
(-1.33804e-11 0 0)
(-1.3246e-11 0 0)
(-1.39754e-11 0 0)
(-1.39247e-11 0 0)
(-1.47032e-11 0 0)
(-1.44752e-11 0 0)
(-1.46142e-11 0 0)
(-1.42618e-11 0 0)
(-1.53213e-11 0 0)
(-1.48376e-11 0 0)
(-1.51355e-11 0 0)
(-1.44744e-11 0 0)
(-1.46526e-11 0 0)
(-1.38295e-11 0 0)
(-1.39071e-11 0 0)
(-1.25758e-11 0 0)
(-1.29428e-11 0 0)
(-1.19547e-11 0 0)
(-1.19585e-11 0 0)
(-1.16752e-11 0 0)
(-1.21052e-11 0 0)
(-1.15754e-11 0 0)
(-1.14572e-11 0 0)
(-1.08414e-11 0 0)
(-1.07078e-11 0 0)
(-1.00322e-11 0 0)
(-1.02679e-11 0 0)
(-9.98232e-12 0 0)
(-1.09067e-11 0 0)
(-1.04829e-11 0 0)
(-1.11063e-11 0 0)
(-1.05635e-11 0 0)
(-1.05397e-11 0 0)
(-1.01366e-11 0 0)
(-1.0271e-11 0 0)
(-1.04284e-11 0 0)
(-1.09835e-11 0 0)
(-1.08545e-11 0 0)
(-1.12821e-11 0 0)
(-1.11148e-11 0 0)
(-1.11639e-11 0 0)
(-1.16783e-11 0 0)
(-1.16123e-11 0 0)
(-1.20821e-11 0 0)
(-1.22587e-11 0 0)
(-1.30648e-11 0 0)
(-1.36353e-11 0 0)
(-1.37919e-11 0 0)
(-1.40345e-11 0 0)
(-1.37589e-11 0 0)
(-1.37858e-11 0 0)
(-1.34495e-11 0 0)
(-1.29535e-11 0 0)
(-1.30372e-11 0 0)
(-1.26126e-11 0 0)
(-1.27002e-11 0 0)
(-1.24844e-11 0 0)
(-1.25067e-11 0 0)
(-1.29658e-11 0 0)
(-1.3309e-11 0 0)
(-1.39992e-11 0 0)
(-1.44622e-11 0 0)
(-1.53082e-11 0 0)
(-1.64153e-11 0 0)
(-1.60952e-11 0 0)
(-1.65934e-11 0 0)
(-1.64821e-11 0 0)
(-1.67961e-11 0 0)
(-1.62487e-11 0 0)
(-1.63117e-11 0 0)
(-1.55877e-11 0 0)
(-1.45144e-11 0 0)
(-1.42894e-11 0 0)
(-1.37374e-11 0 0)
(-1.34986e-11 0 0)
(-1.37581e-11 0 0)
(-1.38165e-11 0 0)
(-1.36092e-11 0 0)
(-1.34671e-11 0 0)
(-1.39385e-11 0 0)
(-1.28929e-11 0 0)
(-1.38579e-11 0 0)
(-1.26518e-11 0 0)
(-1.29904e-11 0 0)
(-1.24583e-11 0 0)
(-1.2813e-11 0 0)
(-1.23624e-11 0 0)
(-1.21789e-11 0 0)
(-1.07938e-11 0 0)
(-1.10349e-11 0 0)
(-1.07616e-11 0 0)
(-1.15171e-11 0 0)
(-1.20814e-11 0 0)
(-1.29819e-11 0 0)
(-1.32783e-11 0 0)
(-1.35109e-11 0 0)
(-1.31754e-11 0 0)
(-1.41881e-11 0 0)
(-1.44998e-11 0 0)
(-1.3752e-11 0 0)
(-1.33881e-11 0 0)
(-1.29451e-11 0 0)
(-1.25827e-11 0 0)
(-1.23562e-11 0 0)
(-1.16714e-11 0 0)
(-1.19293e-11 0 0)
(-1.19908e-11 0 0)
(-1.25481e-11 0 0)
(-1.24852e-11 0 0)
(-1.24345e-11 0 0)
(-1.20959e-11 0 0)
(-1.21888e-11 0 0)
(-1.159e-11 0 0)
(-1.10472e-11 0 0)
(-1.05228e-11 0 0)
(-1.07255e-11 0 0)
(-1.10894e-11 0 0)
(-1.0995e-11 0 0)
(-1.0694e-11 0 0)
(-1.1038e-11 0 0)
(-1.11915e-11 0 0)
(-1.19954e-11 0 0)
(-1.14019e-11 0 0)
(-1.13182e-11 0 0)
(-1.06549e-11 0 0)
(-1.12399e-11 0 0)
(-1.14119e-11 0 0)
(-1.18764e-11 0 0)
(-1.17566e-11 0 0)
(-1.23815e-11 0 0)
(-1.26702e-11 0 0)
(-1.29113e-11 0 0)
(-1.36783e-11 0 0)
(-1.41021e-11 0 0)
(-1.42664e-11 0 0)
(-1.49696e-11 0 0)
(-1.52714e-11 0 0)
(-1.57458e-11 0 0)
(-1.58295e-11 0 0)
(-1.67316e-11 0 0)
(-1.62894e-11 0 0)
(-1.66234e-11 0 0)
(-1.56599e-11 0 0)
(-1.61113e-11 0 0)
(-1.59646e-11 0 0)
(-1.60422e-11 0 0)
(-1.59416e-11 0 0)
(-1.65228e-11 0 0)
(-1.63309e-11 0 0)
(-1.62495e-11 0 0)
(-1.59347e-11 0 0)
(-1.65612e-11 0 0)
(-1.60291e-11 0 0)
(-1.64399e-11 0 0)
(-1.61627e-11 0 0)
(-1.62625e-11 0 0)
(-1.5871e-11 0 0)
(-1.59455e-11 0 0)
(-1.56499e-11 0 0)
(-1.51931e-11 0 0)
(-1.55984e-11 0 0)
(-1.58764e-11 0 0)
(-1.57927e-11 0 0)
(-1.51931e-11 0 0)
(-1.44576e-11 0 0)
(-1.37497e-11 0 0)
(-1.28668e-11 0 0)
(-1.25535e-11 0 0)
(-1.24437e-11 0 0)
(-1.22103e-11 0 0)
(-1.11577e-11 0 0)
(-1.11716e-11 0 0)
(-1.03862e-11 0 0)
(-1.03347e-11 0 0)
(-9.40881e-12 0 0)
(-1.0013e-11 0 0)
(-9.2399e-12 0 0)
(-1.0046e-11 0 0)
(-1.01113e-11 0 0)
(-1.12353e-11 0 0)
(-1.1405e-11 0 0)
(-1.157e-11 0 0)
(-1.1808e-11 0 0)
(-1.2423e-11 0 0)
(-1.24898e-11 0 0)
(-1.32361e-11 0 0)
(-1.34833e-11 0 0)
(-1.49228e-11 0 0)
(-1.49919e-11 0 0)
(-1.5279e-11 0 0)
(-1.48414e-11 0 0)
(-1.46426e-11 0 0)
(-1.43178e-11 0 0)
(-1.42349e-11 0 0)
(-1.27731e-11 0 0)
(-1.21735e-11 0 0)
(-1.17827e-11 0 0)
(-1.15977e-11 0 0)
(-1.11155e-11 0 0)
(-1.14111e-11 0 0)
(-1.11647e-11 0 0)
(-1.13067e-11 0 0)
(-1.12376e-11 0 0)
(-1.14787e-11 0 0)
(-1.0919e-11 0 0)
(-1.10802e-11 0 0)
(-1.04207e-11 0 0)
(-1.01835e-11 0 0)
(-9.4994e-12 0 0)
(-9.30439e-12 0 0)
(-8.82532e-12 0 0)
(-8.62954e-12 0 0)
(-8.11438e-12 0 0)
(-7.18616e-12 0 0)
(-6.40229e-12 0 0)
(-6.40229e-12 0 0)
(-6.63645e-12 0 0)
(-6.10287e-12 0 0)
(-6.62187e-12 0 0)
(-6.0069e-12 0 0)
(-6.56582e-12 0 0)
(-6.47983e-12 0 0)
(-6.20421e-12 0 0)
(-5.99308e-12 0 0)
(-6.68098e-12 0 0)
(-6.48137e-12 0 0)
(-7.24682e-12 0 0)
(-7.60996e-12 0 0)
(-8.48904e-12 0 0)
(-8.37465e-12 0 0)
(-8.9996e-12 0 0)
(-8.90593e-12 0 0)
(-9.73741e-12 0 0)
(-9.59307e-12 0 0)
(-1.0185e-11 0 0)
(-1.02311e-11 0 0)
(-1.10203e-11 0 0)
(-1.11148e-11 0 0)
(-1.15439e-11 0 0)
(-1.11608e-11 0 0)
(-1.12345e-11 0 0)
(-1.06541e-11 0 0)
(-1.06411e-11 0 0)
(-1.00299e-11 0 0)
(-9.84796e-12 0 0)
(-9.03184e-12 0 0)
(-9.5186e-12 0 0)
(-8.38847e-12 0 0)
(-8.68175e-12 0 0)
(-7.03261e-12 0 0)
(-7.3996e-12 0 0)
(-6.51361e-12 0 0)
(-6.31707e-12 0 0)
(-5.14164e-12 0 0)
(-4.7831e-12 0 0)
(-4.37158e-12 0 0)
(-4.96275e-12 0 0)
(-4.39308e-12 0 0)
(-4.52206e-12 0 0)
(-4.23723e-12 0 0)
(-4.09212e-12 0 0)
(-3.61995e-12 0 0)
(-3.77811e-12 0 0)
(-3.42034e-12 0 0)
(-3.04184e-12 0 0)
(-3.53934e-12 0 0)
(-3.86871e-12 0 0)
(-4.69634e-12 0 0)
(-5.51093e-12 0 0)
(-6.30478e-12 0 0)
(-6.79e-12 0 0)
(-7.5662e-12 0 0)
(-8.27714e-12 0 0)
(-8.96889e-12 0 0)
(-9.34739e-12 0 0)
(-9.72052e-12 0 0)
(-9.95315e-12 0 0)
(-1.00691e-11 0 0)
(-1.06526e-11 0 0)
(-1.10065e-11 0 0)
(-1.14341e-11 0 0)
(-1.12629e-11 0 0)
(-1.14894e-11 0 0)
(-1.13704e-11 0 0)
(-1.18242e-11 0 0)
(-1.21904e-11 0 0)
(-1.26134e-11 0 0)
(-1.2446e-11 0 0)
(-1.23378e-11 0 0)
(-1.28476e-11 0 0)
(-1.31232e-11 0 0)
(-1.35101e-11 0 0)
(-1.34664e-11 0 0)
(-1.3947e-11 0 0)
(-1.36e-11 0 0)
(-1.39178e-11 0 0)
(-1.46741e-11 0 0)
(-1.4932e-11 0 0)
(-1.45896e-11 0 0)
(-1.43639e-11 0 0)
(-1.36552e-11 0 0)
(-1.41213e-11 0 0)
(-1.43892e-11 0 0)
(-1.43769e-11 0 0)
(-1.39025e-11 0 0)
(-1.43278e-11 0 0)
(-1.37574e-11 0 0)
(-1.45167e-11 0 0)
(-1.38019e-11 0 0)
(-1.39524e-11 0 0)
(-1.30718e-11 0 0)
(-1.24199e-11 0 0)
(-1.15247e-11 0 0)
(-1.15316e-11 0 0)
(-1.02434e-11 0 0)
(-9.68827e-12 0 0)
(-7.84259e-12 0 0)
(-7.53319e-12 0 0)
(-6.61419e-12 0 0)
(-6.59423e-12 0 0)
(-6.27024e-12 0 0)
(-6.71784e-12 0 0)
(-6.58655e-12 0 0)
(-7.38041e-12 0 0)
(-7.71131e-12 0 0)
(-8.12513e-12 0 0)
(-7.7735e-12 0 0)
(-8.21111e-12 0 0)
(-8.7923e-12 0 0)
(-9.15084e-12 0 0)
(-9.19307e-12 0 0)
(-9.09326e-12 0 0)
(-8.91591e-12 0 0)
(-8.89595e-12 0 0)
(-8.86063e-12 0 0)
(-8.77311e-12 0 0)
(-8.82378e-12 0 0)
(-8.74854e-12 0 0)
(-8.72628e-12 0 0)
(-9.36274e-12 0 0)
(-1.02019e-11 0 0)
(-1.0866e-11 0 0)
(-1.11869e-11 0 0)
(-1.14326e-11 0 0)
(-1.13213e-11 0 0)
(-1.17896e-11 0 0)
(-1.18395e-11 0 0)
(-1.17251e-11 0 0)
(-1.16737e-11 0 0)
(-1.1395e-11 0 0)
(-1.17359e-11 0 0)
(-1.16391e-11 0 0)
(-1.28138e-11 0 0)
(-1.34403e-11 0 0)
(-1.41796e-11 0 0)
(-1.42149e-11 0 0)
(-1.45489e-11 0 0)
(-1.52353e-11 0 0)
(-1.51861e-11 0 0)
(-1.54203e-11 0 0)
(-1.57167e-11 0 0)
(-1.55385e-11 0 0)
(-1.50111e-11 0 0)
(-1.52414e-11 0 0)
(-1.44376e-11 0 0)
(-1.40683e-11 0 0)
(-1.34495e-11 0 0)
(-1.28906e-11 0 0)
(-1.32345e-11 0 0)
(-1.27516e-11 0 0)
(-1.20637e-11 0 0)
(-1.09036e-11 0 0)
(-1.11977e-11 0 0)
(-1.05505e-11 0 0)
(-1.00038e-11 0 0)
(-8.56505e-12 0 0)
(-7.93472e-12 0 0)
(-7.114e-12 0 0)
(-6.87906e-12 0 0)
(-6.04528e-12 0 0)
(-5.94548e-12 0 0)
(-5.80651e-12 0 0)
(-5.99154e-12 0 0)
(-5.71285e-12 0 0)
(-5.84951e-12 0 0)
(-5.65143e-12 0 0)
(-6.3424e-12 0 0)
(-6.97964e-12 0 0)
(-7.00728e-12 0 0)
(-7.50401e-12 0 0)
(-8.22263e-12 0 0)
(-9.18309e-12 0 0)
(-9.49403e-12 0 0)
(-1.04506e-11 0 0)
(-1.08737e-11 0 0)
(-1.14986e-11 0 0)
(-1.16e-11 0 0)
(-1.28061e-11 0 0)
(-1.34188e-11 0 0)
(-1.3679e-11 0 0)
(-1.42372e-11 0 0)
(-1.47478e-11 0 0)
(-1.40253e-11 0 0)
(-1.38495e-11 0 0)
(-1.3233e-11 0 0)
(-1.32361e-11 0 0)
(-1.34027e-11 0 0)
(-1.32921e-11 0 0)
(-1.35447e-11 0 0)
(-1.32453e-11 0 0)
(-1.23424e-11 0 0)
(-1.2608e-11 0 0)
(-1.16952e-11 0 0)
(-1.12253e-11 0 0)
(-1.02764e-11 0 0)
(-9.65526e-12 0 0)
(-9.38885e-12 0 0)
(-8.79307e-12 0 0)
(-8.73395e-12 0 0)
(-7.90017e-12 0 0)
(-7.8019e-12 0 0)
(-7.50555e-12 0 0)
(-7.58847e-12 0 0)
(-7.53626e-12 0 0)
(-7.93165e-12 0 0)
(-8.28252e-12 0 0)
(-8.5566e-12 0 0)
(-8.54509e-12 0 0)
(-9.44873e-12 0 0)
(-9.52704e-12 0 0)
(-1.06311e-11 0 0)
(-1.09205e-11 0 0)
(-1.18242e-11 0 0)
(-1.22572e-11 0 0)
(-1.27401e-11 0 0)
(-1.25988e-11 0 0)
(-1.29481e-11 0 0)
(-1.30449e-11 0 0)
(-1.35447e-11 0 0)
(-1.31923e-11 0 0)
(-1.40215e-11 0 0)
(-1.46549e-11 0 0)
(-1.63009e-11 0 0)
(-1.66157e-11 0 0)
(-1.79232e-11 0 0)
(-1.72061e-11 0 0)
(-1.82518e-11 0 0)
(-1.7838e-11 0 0)
(-1.83923e-11 0 0)
(-1.74288e-11 0 0)
(-1.79877e-11 0 0)
(-1.64076e-11 0 0)
(-1.72867e-11 0 0)
(-1.71316e-11 0 0)
(-1.69742e-11 0 0)
(-1.58541e-11 0 0)
(-1.56376e-11 0 0)
(-1.42449e-11 0 0)
(-1.46602e-11 0 0)
(-1.37888e-11 0 0)
(-1.33865e-11 0 0)
(-1.2929e-11 0 0)
(-1.35409e-11 0 0)
(-1.20913e-11 0 0)
(-1.26633e-11 0 0)
(-1.15424e-11 0 0)
(-1.21067e-11 0 0)
(-1.11869e-11 0 0)
(-1.12752e-11 0 0)
(-1.02411e-11 0 0)
(-1.07677e-11 0 0)
(-1.01082e-11 0 0)
(-9.99691e-12 0 0)
(-9.10785e-12 0 0)
(-9.4234e-12 0 0)
(-8.99115e-12 0 0)
(-9.40727e-12 0 0)
(-8.60113e-12 0 0)
(-9.08712e-12 0 0)
(-8.7401e-12 0 0)
(-9.46332e-12 0 0)
(-8.69096e-12 0 0)
(-9.37196e-12 0 0)
(-9.15468e-12 0 0)
(-9.66217e-12 0 0)
(-9.26754e-12 0 0)
(-9.98386e-12 0 0)
(-9.52781e-12 0 0)
(-9.66293e-12 0 0)
(-9.63376e-12 0 0)
(-1.00215e-11 0 0)
(-1.01082e-11 0 0)
(-1.00837e-11 0 0)
(-1.00307e-11 0 0)
(-1.01412e-11 0 0)
(-9.55468e-12 0 0)
(-8.93664e-12 0 0)
(-8.7186e-12 0 0)
(-9.02954e-12 0 0)
(-9.3781e-12 0 0)
(-1.01804e-11 0 0)
(-1.05911e-11 0 0)
(-1.09451e-11 0 0)
(-1.1375e-11 0 0)
(-1.19048e-11 0 0)
(-1.20798e-11 0 0)
(-1.2403e-11 0 0)
(-1.26679e-11 0 0)
(-1.31316e-11 0 0)
(-1.27178e-11 0 0)
(-1.32368e-11 0 0)
(-1.30418e-11 0 0)
(-1.32e-11 0 0)
(-1.25205e-11 0 0)
(-1.26034e-11 0 0)
(-1.19885e-11 0 0)
(-1.23194e-11 0 0)
(-1.21812e-11 0 0)
(-1.21996e-11 0 0)
(-1.23017e-11 0 0)
(-1.27639e-11 0 0)
(-1.2724e-11 0 0)
(-1.34457e-11 0 0)
(-1.35815e-11 0 0)
(-1.35424e-11 0 0)
(-1.33251e-11 0 0)
(-1.26472e-11 0 0)
(-1.23171e-11 0 0)
(-1.26848e-11 0 0)
(-1.24913e-11 0 0)
(-1.26503e-11 0 0)
(-1.32898e-11 0 0)
(-1.37881e-11 0 0)
(-1.39501e-11 0 0)
(-1.40245e-11 0 0)
(-1.38195e-11 0 0)
(-1.37489e-11 0 0)
(-1.40069e-11 0 0)
(-1.38249e-11 0 0)
(-1.40123e-11 0 0)
(-1.44099e-11 0 0)
(-1.41259e-11 0 0)
(-1.35524e-11 0 0)
(-1.36975e-11 0 0)
(-1.32767e-11 0 0)
(-1.28913e-11 0 0)
(-1.15662e-11 0 0)
(-1.06149e-11 0 0)
(-9.63837e-12 0 0)
(-9.09633e-12 0 0)
(-8.02532e-12 0 0)
(-7.99231e-12 0 0)
(-8.02916e-12 0 0)
(-8.13204e-12 0 0)
(-8.45296e-12 0 0)
(-8.2687e-12 0 0)
(-8.00305e-12 0 0)
(-7.77964e-12 0 0)
(-7.97158e-12 0 0)
(-8.66332e-12 0 0)
(-9.16236e-12 0 0)
(-9.99614e-12 0 0)
(-1.01965e-11 0 0)
(-1.03148e-11 0 0)
(-1.00691e-11 0 0)
(-9.95852e-12 0 0)
(-1.00791e-11 0 0)
(-1.00361e-11 0 0)
(-1.04184e-11 0 0)
(-1.03263e-11 0 0)
(-1.07816e-11 0 0)
(-1.12146e-11 0 0)
(-1.18126e-11 0 0)
(-1.17021e-11 0 0)
(-1.22126e-11 0 0)
(-1.17512e-11 0 0)
(-1.14464e-11 0 0)
(-1.11677e-11 0 0)
(-1.12207e-11 0 0)
(-1.1557e-11 0 0)
(-1.17551e-11 0 0)
(-1.19386e-11 0 0)
(-1.09666e-11 0 0)
(-1.02771e-11 0 0)
(-9.42723e-12 0 0)
(-9.1209e-12 0 0)
(-8.48827e-12 0 0)
(-8.92205e-12 0 0)
(-8.86447e-12 0 0)
(-9.60075e-12 0 0)
(-1.00391e-11 0 0)
(-1.01635e-11 0 0)
(-1.04184e-11 0 0)
(-1.04238e-11 0 0)
(-1.00614e-11 0 0)
(-9.4518e-12 0 0)
(-9.20228e-12 0 0)
(-9.38194e-12 0 0)
(-9.62685e-12 0 0)
(-9.98616e-12 0 0)
(-9.88942e-12 0 0)
(-1.00192e-11 0 0)
(-1.05328e-11 0 0)
(-1.14295e-11 0 0)
(-1.22856e-11 0 0)
(-1.27386e-11 0 0)
(-1.30119e-11 0 0)
(-1.29052e-11 0 0)
(-1.26011e-11 0 0)
(-1.19647e-11 0 0)
(-1.17497e-11 0 0)
(-1.14387e-11 0 0)
(-1.13159e-11 0 0)
(-1.05919e-11 0 0)
(-1.0843e-11 0 0)
(-1.05535e-11 0 0)
(-1.06802e-11 0 0)
(-1.10649e-11 0 0)
(-1.13059e-11 0 0)
(-1.10556e-11 0 0)
(-1.09604e-11 0 0)
(-1.13942e-11 0 0)
(-1.14027e-11 0 0)
(-1.19593e-11 0 0)
(-1.27293e-11 0 0)
(-1.30679e-11 0 0)
(-1.36245e-11 0 0)
(-1.41313e-11 0 0)
(-1.44192e-11 0 0)
(-1.5514e-11 0 0)
(-1.57067e-11 0 0)
(-1.57781e-11 0 0)
(-1.56099e-11 0 0)
(-1.5871e-11 0 0)
(-1.60222e-11 0 0)
(-1.64291e-11 0 0)
(-1.52975e-11 0 0)
(-1.46894e-11 0 0)
(-1.3408e-11 0 0)
(-1.34994e-11 0 0)
(-1.19086e-11 0 0)
(-1.18764e-11 0 0)
(-1.05482e-11 0 0)
(-1.02119e-11 0 0)
(-9.18846e-12 0 0)
(-8.9543e-12 0 0)
(-8.00305e-12 0 0)
(-8.14739e-12 0 0)
(-7.24068e-12 0 0)
(-7.60536e-12 0 0)
(-6.93434e-12 0 0)
(-6.64336e-12 0 0)
(-5.50632e-12 0 0)
(-5.34356e-12 0 0)
(-4.36621e-12 0 0)
(-4.26256e-12 0 0)
(-4.20037e-12 0 0)
(-4.22725e-12 0 0)
(-3.84491e-12 0 0)
(-3.80652e-12 0 0)
(-3.82801e-12 0 0)
(-3.90402e-12 0 0)
(-4.40153e-12 0 0)
(-4.76237e-12 0 0)
(-4.58041e-12 0 0)
(-4.70018e-12 0 0)
(-5.38348e-12 0 0)
(-5.85565e-12 0 0)
(-6.78847e-12 0 0)
(-7.34509e-12 0 0)
(-8.10824e-12 0 0)
(-9.03568e-12 0 0)
(-9.83875e-12 0 0)
(-1.05988e-11 0 0)
(-1.1213e-11 0 0)
(-1.1603e-11 0 0)
(-1.15117e-11 0 0)
(-1.27347e-11 0 0)
(-1.26771e-11 0 0)
(-1.25528e-11 0 0)
(-1.23439e-11 0 0)
(-1.24015e-11 0 0)
(-1.25881e-11 0 0)
(-1.26341e-11 0 0)
(-1.26979e-11 0 0)
(-1.31316e-11 0 0)
(-1.2638e-11 0 0)
(-1.24744e-11 0 0)
(-1.29535e-11 0 0)
(-1.25597e-11 0 0)
(-1.29382e-11 0 0)
(-1.2704e-11 0 0)
(-1.27278e-11 0 0)
(-1.25781e-11 0 0)
(-1.31808e-11 0 0)
(-1.38203e-11 0 0)
(-1.4965e-11 0 0)
(-1.45742e-11 0 0)
(-1.47278e-11 0 0)
(-1.39946e-11 0 0)
(-1.39063e-11 0 0)
(-1.318e-11 0 0)
(-1.32215e-11 0 0)
(-1.20783e-11 0 0)
(-1.20368e-11 0 0)
(-1.12921e-11 0 0)
(-1.14702e-11 0 0)
(-1.0218e-11 0 0)
(-1.01612e-11 0 0)
(-9.3781e-12 0 0)
(-9.68674e-12 0 0)
(-9.04336e-12 0 0)
(-9.22532e-12 0 0)
(-8.95814e-12 0 0)
(-9.17311e-12 0 0)
(-9.17388e-12 0 0)
(-9.54009e-12 0 0)
(-9.67522e-12 0 0)
(-9.60228e-12 0 0)
(-1.00806e-11 0 0)
(-1.06963e-11 0 0)
(-1.13666e-11 0 0)
(-1.14863e-11 0 0)
(-1.12652e-11 0 0)
(-1.04161e-11 0 0)
(-9.64144e-12 0 0)
(-9.64067e-12 0 0)
(-9.35199e-12 0 0)
(-8.89441e-12 0 0)
(-8.51591e-12 0 0)
(-8.81457e-12 0 0)
(-8.19499e-12 0 0)
(-8.18808e-12 0 0)
(-7.32743e-12 0 0)
(-7.14164e-12 0 0)
(-6.11208e-12 0 0)
(-6.41688e-12 0 0)
(-5.85181e-12 0 0)
(-5.83722e-12 0 0)
(-5.05795e-12 0 0)
(-5.63838e-12 0 0)
(-5.01726e-12 0 0)
(-5.13473e-12 0 0)
(-4.66947e-12 0 0)
(-4.78233e-12 0 0)
(-4.16966e-12 0 0)
(-4.18963e-12 0 0)
(-4.28329e-12 0 0)
(-5.02801e-12 0 0)
(-5.05181e-12 0 0)
(-5.3497e-12 0 0)
(-6.06832e-12 0 0)
(-6.5067e-12 0 0)
(-6.62801e-12 0 0)
(-6.78693e-12 0 0)
(-7.53626e-12 0 0)
(-6.88674e-12 0 0)
(-6.99807e-12 0 0)
(-7.38271e-12 0 0)
(-8.66102e-12 0 0)
(-9.68597e-12 0 0)
(-1.05919e-11 0 0)
(-1.11792e-11 0 0)
(-1.13451e-11 0 0)
(-1.16483e-11 0 0)
(-1.16123e-11 0 0)
(-1.2248e-11 0 0)
(-1.29282e-11 0 0)
(-1.40767e-11 0 0)
(-1.42963e-11 0 0)
(-1.48706e-11 0 0)
(-1.39531e-11 0 0)
(-1.35631e-11 0 0)
(-1.26372e-11 0 0)
(-1.19915e-11 0 0)
(-1.13482e-11 0 0)
(-1.14917e-11 0 0)
(-1.10387e-11 0 0)
(-1.14318e-11 0 0)
(-1.08706e-11 0 0)
(-1.12944e-11 0 0)
(-1.03324e-11 0 0)
(-9.828e-12 0 0)
(-9.06716e-12 0 0)
(-8.94355e-12 0 0)
(-8.87445e-12 0 0)
(-8.88674e-12 0 0)
(-8.24259e-12 0 0)
(-7.93933e-12 0 0)
(-7.16006e-12 0 0)
(-7.26831e-12 0 0)
(-7.28137e-12 0 0)
(-8.14969e-12 0 0)
(-8.72704e-12 0 0)
(-9.61764e-12 0 0)
(-9.69211e-12 0 0)
(-1.04399e-11 0 0)
(-1.01627e-11 0 0)
(-1.07816e-11 0 0)
(-1.03386e-11 0 0)
(-1.03132e-11 0 0)
(-8.94509e-12 0 0)
(-9.48942e-12 0 0)
(-9.00958e-12 0 0)
(-1.04453e-11 0 0)
(-9.51629e-12 0 0)
(-1.05389e-11 0 0)
(-1.03032e-11 0 0)
(-1.13182e-11 0 0)
(-1.07739e-11 0 0)
(-1.13489e-11 0 0)
(-1.05451e-11 0 0)
(-1.06787e-11 0 0)
(-1.06863e-11 0 0)
(-1.11547e-11 0 0)
(-1.13029e-11 0 0)
(-1.07478e-11 0 0)
(-1.06672e-11 0 0)
(-1.01566e-11 0 0)
(-1.10403e-11 0 0)
(-1.08453e-11 0 0)
(-1.1385e-11 0 0)
(-1.19009e-11 0 0)
(-1.30441e-11 0 0)
(-1.317e-11 0 0)
(-1.37696e-11 0 0)
(-1.30925e-11 0 0)
(-1.34042e-11 0 0)
(-1.24153e-11 0 0)
(-1.28407e-11 0 0)
(-1.19455e-11 0 0)
(-1.21635e-11 0 0)
(-1.13044e-11 0 0)
(-1.10288e-11 0 0)
(-1.07785e-11 0 0)
(-1.07647e-11 0 0)
(-1.03432e-11 0 0)
(-1.07002e-11 0 0)
(-9.88789e-12 0 0)
(-9.88482e-12 0 0)
(-9.25449e-12 0 0)
(-9.24835e-12 0 0)
(-8.22954e-12 0 0)
(-8.38693e-12 0 0)
(-8.2449e-12 0 0)
(-8.25488e-12 0 0)
(-7.80113e-12 0 0)
(-8.23338e-12 0 0)
(-7.90248e-12 0 0)
(-7.76351e-12 0 0)
(-6.66333e-12 0 0)
(-6.10287e-12 0 0)
(-5.04644e-12 0 0)
(-4.314e-12 0 0)
(-3.9378e-12 0 0)
(-4.00767e-12 0 0)
(-3.64836e-12 0 0)
(-3.94395e-12 0 0)
(-3.92014e-12 0 0)
(-3.82801e-12 0 0)
(-3.3021e-12 0 0)
(-3.48176e-12 0 0)
(-3.4664e-12 0 0)
(-3.94011e-12 0 0)
(-4.23492e-12 0 0)
(-4.03991e-12 0 0)
(-3.81957e-12 0 0)
(-3.99769e-12 0 0)
(-4.43147e-12 0 0)
(-4.29558e-12 0 0)
(-4.91515e-12 0 0)
(-5.30978e-12 0 0)
(-5.04644e-12 0 0)
(-4.93819e-12 0 0)
(-4.90901e-12 0 0)
(-5.82955e-12 0 0)
(-6.70095e-12 0 0)
(-7.8948e-12 0 0)
(-8.17119e-12 0 0)
(-9.04643e-12 0 0)
(-9.77119e-12 0 0)
(-1.06326e-11 0 0)
(-1.14741e-11 0 0)
(-1.17244e-11 0 0)
(-1.21666e-11 0 0)
(-1.23562e-11 0 0)
(-1.26418e-11 0 0)
(-1.28959e-11 0 0)
(-1.28e-11 0 0)
(-1.20453e-11 0 0)
(-1.14303e-11 0 0)
(-1.1957e-11 0 0)
(-1.20867e-11 0 0)
(-1.22733e-11 0 0)
(-1.2291e-11 0 0)
(-1.29604e-11 0 0)
(-1.18265e-11 0 0)
(-1.14764e-11 0 0)
(-1.04821e-11 0 0)
(-1.04622e-11 0 0)
(-9.55545e-12 0 0)
(-9.8495e-12 0 0)
(-9.42647e-12 0 0)
(-9.98923e-12 0 0)
(-8.38232e-12 0 0)
(-8.88059e-12 0 0)
(-8.09135e-12 0 0)
(-8.87676e-12 0 0)
(-8.13818e-12 0 0)
(-8.79921e-12 0 0)
(-8.07599e-12 0 0)
(-8.99422e-12 0 0)
(-8.51207e-12 0 0)
(-8.66332e-12 0 0)
(-8.11207e-12 0 0)
(-8.87906e-12 0 0)
(-8.34701e-12 0 0)
(-8.42916e-12 0 0)
(-8.13204e-12 0 0)
(-8.91821e-12 0 0)
(-9.00881e-12 0 0)
(-9.77656e-12 0 0)
(-9.78731e-12 0 0)
(-1.00138e-11 0 0)
(-9.41802e-12 0 0)
(-9.15315e-12 0 0)
(-8.44144e-12 0 0)
(-9.29595e-12 0 0)
(-9.54854e-12 0 0)
(-1.0889e-11 0 0)
(-1.08591e-11 0 0)
(-1.15063e-11 0 0)
(-1.09996e-11 0 0)
(-1.16529e-11 0 0)
(-1.13151e-11 0 0)
(-1.1157e-11 0 0)
(-1.13151e-11 0 0)
(-1.06979e-11 0 0)
(-1.02863e-11 0 0)
(-9.67906e-12 0 0)
(-9.7566e-12 0 0)
(-8.93434e-12 0 0)
(-8.79768e-12 0 0)
(-8.25564e-12 0 0)
(-7.73971e-12 0 0)
(-6.8092e-12 0 0)
(-6.8138e-12 0 0)
(-6.7163e-12 0 0)
(-7.17772e-12 0 0)
(-6.42302e-12 0 0)
(-6.8307e-12 0 0)
(-6.61419e-12 0 0)
(-7.38041e-12 0 0)
(-7.53089e-12 0 0)
(-7.91707e-12 0 0)
(-7.85027e-12 0 0)
(-8.74163e-12 0 0)
(-8.271e-12 0 0)
(-8.07906e-12 0 0)
(-7.64912e-12 0 0)
(-7.80113e-12 0 0)
(-7.42494e-12 0 0)
(-7.40267e-12 0 0)
(-6.62801e-12 0 0)
(-6.52513e-12 0 0)
(-6.0307e-12 0 0)
(-6.33549e-12 0 0)
(-5.56851e-12 0 0)
(-5.33435e-12 0 0)
(-4.90517e-12 0 0)
(-4.70939e-12 0 0)
(-3.73665e-12 0 0)
(-3.71592e-12 0 0)
(-3.33051e-12 0 0)
(-3.66064e-12 0 0)
(-3.39347e-12 0 0)
(-3.33128e-12 0 0)
(-2.89212e-12 0 0)
(-2.94663e-12 0 0)
(-2.87216e-12 0 0)
(-3.30287e-12 0 0)
(-3.06948e-12 0 0)
(-3.39731e-12 0 0)
(-3.61688e-12 0 0)
(-4.26256e-12 0 0)
(-4.59039e-12 0 0)
(-6.10056e-12 0 0)
(-7.22762e-12 0 0)
(-8.38463e-12 0 0)
(-8.6756e-12 0 0)
(-9.1923e-12 0 0)
(-9.52858e-12 0 0)
(-9.54317e-12 0 0)
(-9.97925e-12 0 0)
(-1.06196e-11 0 0)
(-1.07762e-11 0 0)
(-1.10917e-11 0 0)
(-1.13397e-11 0 0)
(-1.11885e-11 0 0)
(-1.04376e-11 0 0)
(-1.02817e-11 0 0)
(-9.5209e-12 0 0)
(-9.79576e-12 0 0)
(-9.7804e-12 0 0)
(-1.05911e-11 0 0)
(-9.75199e-12 0 0)
(-9.78194e-12 0 0)
(-9.55929e-12 0 0)
(-9.57848e-12 0 0)
(-9.13165e-12 0 0)
(-9.25526e-12 0 0)
(-9.73434e-12 0 0)
(-1.07869e-11 0 0)
(-1.06802e-11 0 0)
(-1.03908e-11 0 0)
(-1.01428e-11 0 0)
(-1.06741e-11 0 0)
(-1.05896e-11 0 0)
(-1.03063e-11 0 0)
(-9.88789e-12 0 0)
(-9.6614e-12 0 0)
(-1.00622e-11 0 0)
(-1.01858e-11 0 0)
(-1.03938e-11 0 0)
(-1.01873e-11 0 0)
(-1.05282e-11 0 0)
(-1.06618e-11 0 0)
(-1.07178e-11 0 0)
(-1.14863e-11 0 0)
(-1.07255e-11 0 0)
(-1.05006e-11 0 0)
(-1.03094e-11 0 0)
(-1.05804e-11 0 0)
(-1.05082e-11 0 0)
(-1.09965e-11 0 0)
(-1.09589e-11 0 0)
(-1.16706e-11 0 0)
(-1.11286e-11 0 0)
(-1.16437e-11 0 0)
(-1.14687e-11 0 0)
(-1.10119e-11 0 0)
(-9.71591e-12 0 0)
(-9.17618e-12 0 0)
(-8.17119e-12 0 0)
(-8.04221e-12 0 0)
(-7.95622e-12 0 0)
(-7.4019e-12 0 0)
(-6.63185e-12 0 0)
(-6.52052e-12 0 0)
(-6.10363e-12 0 0)
(-6.47523e-12 0 0)
(-6.27024e-12 0 0)
(-6.54739e-12 0 0)
(-6.65104e-12 0 0)
(-6.69634e-12 0 0)
(-6.99269e-12 0 0)
(-7.37273e-12 0 0)
(-7.48866e-12 0 0)
(-7.71899e-12 0 0)
(-9.32512e-12 0 0)
(-1.00798e-11 0 0)
(-1.07816e-11 0 0)
(-1.05666e-11 0 0)
(-1.13505e-11 0 0)
(-1.11885e-11 0 0)
(-1.04422e-11 0 0)
(-9.7113e-12 0 0)
(-9.6591e-12 0 0)
(-9.4472e-12 0 0)
(-9.24681e-12 0 0)
(-9.17848e-12 0 0)
(-9.18155e-12 0 0)
(-9.19077e-12 0 0)
(-9.15084e-12 0 0)
(-8.56658e-12 0 0)
(-8.7401e-12 0 0)
(-8.58808e-12 0 0)
(-8.44989e-12 0 0)
(-8.58194e-12 0 0)
(-8.67023e-12 0 0)
(-8.82916e-12 0 0)
(-8.58885e-12 0 0)
(-8.16351e-12 0 0)
(-8.38232e-12 0 0)
(-8.01457e-12 0 0)
(-7.34355e-12 0 0)
(-6.87676e-12 0 0)
(-6.96428e-12 0 0)
(-6.75162e-12 0 0)
(-7.1186e-12 0 0)
(-6.40152e-12 0 0)
(-6.18732e-12 0 0)
(-5.51477e-12 0 0)
(-5.06947e-12 0 0)
(-5.03185e-12 0 0)
(-5.3996e-12 0 0)
(-4.83914e-12 0 0)
(-5.40651e-12 0 0)
(-5.0879e-12 0 0)
(-5.38502e-12 0 0)
(-4.32782e-12 0 0)
(-4.77926e-12 0 0)
(-4.43531e-12 0 0)
(-5.15162e-12 0 0)
(-5.22379e-12 0 0)
(-6.30325e-12 0 0)
(-6.27024e-12 0 0)
(-7.02801e-12 0 0)
(-6.98732e-12 0 0)
(-7.73664e-12 0 0)
(-7.61764e-12 0 0)
(-8.57733e-12 0 0)
(-7.72513e-12 0 0)
(-8.51822e-12 0 0)
(-7.68827e-12 0 0)
(-8.83453e-12 0 0)
(-8.13434e-12 0 0)
(-9.10631e-12 0 0)
(-8.35238e-12 0 0)
(-8.97349e-12 0 0)
(-8.15123e-12 0 0)
(-9.04259e-12 0 0)
(-8.30478e-12 0 0)
(-8.19729e-12 0 0)
(-7.03799e-12 0 0)
(-7.44874e-12 0 0)
(-6.63876e-12 0 0)
(-6.53127e-12 0 0)
(-6.05373e-12 0 0)
(-6.21035e-12 0 0)
(-6.34164e-12 0 0)
(-7.80881e-12 0 0)
(-8.18501e-12 0 0)
(-8.32781e-12 0 0)
(-8.28559e-12 0 0)
(-8.46601e-12 0 0)
(-8.89365e-12 0 0)
(-9.06025e-12 0 0)
(-9.45334e-12 0 0)
(-9.81188e-12 0 0)
(-9.9209e-12 0 0)
(-1.03278e-11 0 0)
(-1.11746e-11 0 0)
(-1.18856e-11 0 0)
(-1.21712e-11 0 0)
(-1.21313e-11 0 0)
(-1.21489e-11 0 0)
(-1.24844e-11 0 0)
(-1.25927e-11 0 0)
(-1.19601e-11 0 0)
(-1.16706e-11 0 0)
(-1.14664e-11 0 0)
(-1.11155e-11 0 0)
(-1.23877e-11 0 0)
(-1.1848e-11 0 0)
(-1.20714e-11 0 0)
(-1.18149e-11 0 0)
(-1.2314e-11 0 0)
(-1.15601e-11 0 0)
(-1.17965e-11 0 0)
(-1.01397e-11 0 0)
(-9.99e-12 0 0)
(-9.06946e-12 0 0)
(-9.41111e-12 0 0)
(-8.59346e-12 0 0)
(-8.83223e-12 0 0)
(-7.74662e-12 0 0)
(-8.17657e-12 0 0)
(-6.91284e-12 0 0)
(-7.56851e-12 0 0)
(-7.15929e-12 0 0)
(-7.95238e-12 0 0)
(-7.20536e-12 0 0)
(-7.79039e-12 0 0)
(-6.69096e-12 0 0)
(-7.53242e-12 0 0)
(-7.16774e-12 0 0)
(-7.46563e-12 0 0)
(-6.52283e-12 0 0)
(-7.58386e-12 0 0)
(-7.07484e-12 0 0)
(-7.89096e-12 0 0)
(-7.05181e-12 0 0)
(-7.41035e-12 0 0)
(-6.2664e-12 0 0)
(-6.23415e-12 0 0)
(-5.23223e-12 0 0)
(-5.85411e-12 0 0)
(-5.2522e-12 0 0)
(-5.94548e-12 0 0)
(-5.92168e-12 0 0)
(-6.95891e-12 0 0)
(-6.60114e-12 0 0)
(-7.38041e-12 0 0)
(-6.78847e-12 0 0)
(-7.51169e-12 0 0)
(-7.34202e-12 0 0)
(-7.40574e-12 0 0)
(-7.28904e-12 0 0)
(-7.29749e-12 0 0)
(-7.0211e-12 0 0)
(-7.10939e-12 0 0)
(-7.2353e-12 0 0)
(-7.47945e-12 0 0)
(-7.86639e-12 0 0)
(-7.83415e-12 0 0)
(-7.81803e-12 0 0)
(-7.05795e-12 0 0)
(-7.10018e-12 0 0)
(-5.98463e-12 0 0)
(-6.16352e-12 0 0)
(-5.41112e-12 0 0)
(-5.81035e-12 0 0)
(-5.22225e-12 0 0)
(-5.59922e-12 0 0)
(-5.04567e-12 0 0)
(-4.95277e-12 0 0)
(-4.4783e-12 0 0)
(-4.44606e-12 0 0)
(-4.06141e-12 0 0)
(-4.70863e-12 0 0)
(-4.68559e-12 0 0)
(-5.34663e-12 0 0)
(-4.85757e-12 0 0)
(-5.58617e-12 0 0)
(-5.56467e-12 0 0)
(-6.07062e-12 0 0)
(-5.97695e-12 0 0)
(-6.48751e-12 0 0)
(-6.50824e-12 0 0)
(-6.53665e-12 0 0)
(-6.35469e-12 0 0)
(-6.41457e-12 0 0)
(-6.42993e-12 0 0)
(-6.97657e-12 0 0)
(-6.90824e-12 0 0)
(-6.50824e-12 0 0)
(-6.34164e-12 0 0)
(-6.21035e-12 0 0)
(-6.14509e-12 0 0)
(-6.44682e-12 0 0)
(-6.51131e-12 0 0)
(-6.47599e-12 0 0)
(-7.06563e-12 0 0)
(-6.92513e-12 0 0)
(-7.51092e-12 0 0)
(-8.31169e-12 0 0)
(-8.54585e-12 0 0)