/*--------------------------------*- C++ -*----------------------------------*\
  =========                 |
  \\      /  F ield         | OpenFOAM: The Open Source CFD Toolbox
   \\    /   O peration     | Website:  https://openfoam.org
    \\  /    A nd           | Version:  9
     \\/     M anipulation  |
\*---------------------------------------------------------------------------*/
FoamFile
{
    format      ascii;
    class       volScalarField;
    location    "0.046";
    object      T;
}
// * * * * * * * * * * * * * * * * * * * * * * * * * * * * * * * * * * * * * //

dimensions      [0 0 0 1 0 0 0];

internalField   nonuniform List<scalar> 
10000
(
173.633
173.634
173.635
173.637
173.639
173.641
173.642
173.644
173.646
173.648
173.65
173.651
173.653
173.655
173.657
173.659
173.66
173.662
173.664
173.666
173.667
173.669
173.671
173.673
173.675
173.676
173.678
173.68
173.682
173.684
173.685
173.687
173.689
173.691
173.692
173.694
173.696
173.698
173.7
173.701
173.703
173.705
173.707
173.708
173.71
173.712
173.714
173.716
173.717
173.719
173.721
173.723
173.724
173.726
173.728
173.73
173.732
173.733
173.735
173.737
173.739
173.74
173.742
173.744
173.746
173.747
173.749
173.751
173.753
173.755
173.756
173.758
173.76
173.762
173.763
173.765
173.767
173.769
173.77
173.772
173.774
173.776
173.777
173.779
173.781
173.783
173.784
173.786
173.788
173.79
173.791
173.793
173.795
173.797
173.798
173.8
173.802
173.804
173.805
173.807
173.809
173.811
173.812
173.814
173.816
173.817
173.819
173.821
173.823
173.824
173.826
173.828
173.83
173.831
173.833
173.835
173.836
173.838
173.84
173.842
173.843
173.845
173.847
173.848
173.85
173.852
173.853
173.855
173.857
173.858
173.86
173.862
173.864
173.866
173.867
173.869
173.871
173.872
173.874
173.875
173.877
173.879
173.88
173.882
173.884
173.885
173.887
173.889
173.891
173.893
173.894
173.896
173.897
173.899
173.901
173.902
173.904
173.905
173.907
173.908
173.91
173.912
173.913
173.915
173.917
173.919
173.921
173.922
173.924
173.926
173.927
173.929
173.93
173.932
173.933
173.934
173.936
173.937
173.938
173.94
173.941
173.943
173.944
173.946
173.948
173.949
173.951
173.953
173.955
173.957
173.959
173.961
173.963
173.964
173.966
173.968
173.969
173.971
173.972
173.974
173.975
173.976
173.977
173.978
173.979
173.979
173.98
173.98
173.981
173.981
173.981
173.981
173.981
173.981
173.981
173.981
173.981
173.981
173.981
173.981
173.981
173.981
173.981
173.981
173.981
173.98
173.98
173.98
173.98
173.979
173.979
173.979
173.979
173.978
173.978
173.978
173.977
173.977
173.977
173.977
173.976
173.976
173.976
173.975
173.975
173.975
173.975
173.974
173.974
173.974
173.973
173.973
173.973
173.973
173.972
173.972
173.972
173.971
173.971
173.971
173.971
173.97
173.97
173.97
173.969
173.969
173.969
173.969
173.968
173.968
173.968
173.967
173.967
173.967
173.967
173.966
173.966
173.966
173.966
173.965
173.965
173.965
173.964
173.964
173.964
173.964
173.963
173.963
173.963
173.962
173.962
173.962
173.962
173.961
173.961
173.961
173.961
173.96
173.96
173.96
173.959
173.959
173.959
173.959
173.958
173.958
173.958
173.958
173.957
173.957
173.957
173.956
173.956
173.956
173.956
173.955
173.955
173.955
173.955
173.954
173.954
173.954
173.953
173.953
173.953
173.953
173.952
173.952
173.952
173.952
173.951
173.951
173.951
173.95
173.95
173.95
173.95
173.949
173.949
173.949
173.949
173.948
173.948
173.948
173.948
173.947
173.947
173.947
173.946
173.946
173.946
173.946
173.945
173.945
173.945
173.945
173.944
173.944
173.944
173.944
173.943
173.943
173.943
173.942
173.942
173.942
173.942
173.941
173.941
173.941
173.941
173.94
173.94
173.94
173.94
173.939
173.939
173.939
173.939
173.938
173.938
173.938
173.938
173.937
173.937
173.937
173.936
173.936
173.936
173.936
173.935
173.935
173.935
173.935
173.934
173.934
173.934
173.934
173.933
173.933
173.933
173.933
173.932
173.932
173.932
173.932
173.931
173.931
173.931
173.931
173.93
173.93
173.93
173.93
173.929
173.929
173.929
173.929
173.928
173.928
173.928
173.928
173.927
173.927
173.927
173.927
173.926
173.926
173.926
173.926
173.925
173.925
173.925
173.925
173.924
173.924
173.924
173.924
173.923
173.923
173.923
173.923
173.922
173.922
173.922
173.922
173.921
173.921
173.921
173.921
173.92
173.92
173.92
173.92
173.92
173.919
173.919
173.919
173.919
173.918
173.918
173.918
173.918
173.917
173.917
173.917
173.917
173.916
173.916
173.916
173.916
173.915
173.915
173.915
173.915
173.914
173.914
173.914
173.914
173.913
173.913
173.913
173.913
173.913
173.912
173.912
173.912
173.912
173.911
173.911
173.911
173.911
173.911
173.91
173.91
173.91
173.91
173.909
173.909
173.909
173.909
173.908
173.908
173.908
173.908
173.908
173.907
173.907
173.907
173.907
173.906
173.906
173.906
173.906
173.906
173.905
173.905
173.905
173.905
173.904
173.904
173.904
173.904
173.904
173.903
173.903
173.903
173.903
173.902
173.902
173.902
173.902
173.902
173.901
173.901
173.901
173.901
173.9
173.9
173.9
173.9
173.9
173.899
173.899
173.899
173.899
173.899
173.898
173.898
173.898
173.898
173.898
173.897
173.897
173.897
173.897
173.896
173.896
173.896
173.896
173.896
173.895
173.895
173.895
173.895
173.895
173.894
173.894
173.894
173.894
173.894
173.893
173.893
173.893
173.893
173.893
173.892
173.892
173.892
173.892
173.892
173.891
173.891
173.891
173.891
173.891
173.89
173.89
173.89
173.89
173.89
173.889
173.889
173.889
173.889
173.889
173.889
173.888
173.888
173.888
173.888
173.888
173.887
173.887
173.887
173.887
173.887
173.886
173.886
173.886
173.886
173.886
173.886
173.885
173.885
173.885
173.885
173.885
173.884
173.884
173.884
173.884
173.884
173.884
173.883
173.883
173.883
173.883
173.883
173.882
173.882
173.882
173.882
173.882
173.882
173.881
173.881
173.881
173.881
173.881
173.881
173.88
173.88
173.88
173.88
173.88
173.88
173.879
173.879
173.879
173.879
173.879
173.879
173.878
173.878
173.878
173.878
173.878
173.878
173.878
173.877
173.877
173.877
173.877
173.877
173.877
173.876
173.876
173.876
173.876
173.876
173.876
173.876
173.875
173.875
173.875
173.875
173.875
173.875
173.875
173.874
173.874
173.874
173.874
173.874
173.874
173.874
173.873
173.873
173.873
173.873
173.873
173.873
173.873
173.872
173.872
173.872
173.872
173.872
173.872
173.872
173.872
173.871
173.871
173.871
173.871
173.871
173.871
173.871
173.871
173.87
173.87
173.87
173.87
173.87
173.87
173.87
173.87
173.869
173.869
173.869
173.869
173.869
173.869
173.869
173.869
173.869
173.868
173.868
173.868
173.868
173.868
173.868
173.868
173.868
173.868
173.867
173.867
173.867
173.867
173.867
173.867
173.867
173.867
173.867
173.867
173.866
173.866
173.866
173.866
173.866
173.866
173.866
173.866
173.866
173.866
173.866
173.866
173.865
173.865
173.865
173.865
173.865
173.865
173.865
173.865
173.865
173.865
173.865
173.865
173.865
173.864
173.864
173.864
173.864
173.864
173.864
173.864
173.864
173.864
173.864
173.864
173.864
173.864
173.864
173.864
173.864
173.863
173.863
173.863
173.863
173.863
173.863
173.863
173.863
173.863
173.863
173.863
173.863
173.863
173.863
173.863
173.863
173.863
173.863
173.863
173.863
173.863
173.863
173.863
173.863
173.863
173.863
173.863
173.863
173.862
173.862
173.862
173.862
173.862
173.862
173.862
173.862
173.862
173.862
173.862
173.862
173.862
173.862
173.862
173.862
173.862
173.862
173.862
173.862
173.862
173.862
173.862
173.862
173.862
173.862
173.862
173.862
173.862
173.862
173.862
173.862
173.863
173.863
173.863
173.863
173.863
173.863
173.863
173.863
173.863
173.863
173.863
173.863
173.863
173.863
173.863
173.863
173.863
173.863
173.863
173.863
173.863
173.863
173.863
173.863
173.864
173.864
173.864
173.864
173.864
173.864
173.864
173.864
173.864
173.864
173.864
173.864
173.864
173.864
173.865
173.865
173.865
173.865
173.865
173.865
173.865
173.865
173.865
173.865
173.865
173.866
173.866
173.866
173.866
173.866
173.866
173.866
173.866
173.866
173.867
173.867
173.867
173.867
173.867
173.867
173.867
173.868
173.868
173.868
173.868
173.868
173.868
173.868
173.869
173.869
173.869
173.869
173.869
173.869
173.869
173.87
173.87
173.87
173.87
173.87
173.87
173.871
173.871
173.871
173.871
173.871
173.872
173.872
173.872
173.872
173.872
173.873
173.873
173.873
173.873
173.873
173.874
173.874
173.874
173.874
173.875
173.875
173.875
173.875
173.875
173.876
173.876
173.876
173.876
173.877
173.877
173.877
173.877
173.878
173.878
173.878
173.878
173.879
173.879
173.879
173.88
173.88
173.88
173.88
173.881
173.881
173.881
173.882
173.882
173.882
173.882
173.883
173.883
173.883
173.884
173.884
173.884
173.885
173.885
173.885
173.886
173.886
173.886
173.887
173.887
173.887
173.888
173.888
173.889
173.889
173.889
173.89
173.89
173.89
173.891
173.891
173.892
173.892
173.892
173.893
173.893
173.894
173.894
173.894
173.895
173.895
173.896
173.896
173.897
173.897
173.897
173.898
173.898
173.899
173.899
173.9
173.9
173.901
173.901
173.902
173.902
173.903
173.903
173.904
173.904
173.905
173.905
173.906
173.906
173.907
173.907
173.908
173.908
173.909
173.909
173.91
173.91
173.911
173.911
173.912
173.912
173.913
173.914
173.914
173.915
173.915
173.916
173.917
173.917
173.918
173.918
173.919
173.92
173.92
173.921
173.921
173.922
173.923
173.923
173.924
173.925
173.925
173.926
173.927
173.927
173.928
173.929
173.929
173.93
173.931
173.932
173.932
173.933
173.934
173.934
173.935
173.936
173.937
173.937
173.938
173.939
173.94
173.94
173.941
173.942
173.943
173.944
173.944
173.945
173.946
173.947
173.948
173.948
173.949
173.95
173.951
173.952
173.953
173.953
173.954
173.955
173.956
173.957
173.958
173.959
173.96
173.961
173.962
173.962
173.963
173.964
173.965
173.966
173.967
173.968
173.969
173.97
173.971
173.972
173.973
173.974
173.975
173.976
173.977
173.978
173.979
173.98
173.981
173.982
173.983
173.984
173.985
173.987
173.988
173.989
173.99
173.991
173.992
173.993
173.994
173.995
173.997
173.998
173.999
174
174.001
174.002
174.004
174.005
174.006
174.007
174.008
174.01
174.011
174.012
174.013
174.015
174.016
174.017
174.018
174.02
174.021
174.022
174.024
174.025
174.026
174.028
174.029
174.03
174.032
174.033
174.034
174.036
174.037
174.039
174.04
174.041
174.043
174.044
174.046
174.047
174.049
174.05
174.052
174.053
174.055
174.056
174.058
174.059
174.061
174.062
174.064
174.065
174.067
174.068
174.07
174.072
174.073
174.075
174.076
174.078
174.08
174.081
174.083
174.085
174.086
174.088
174.09
174.091
174.093
174.095
174.097
174.098
174.1
174.102
174.104
174.105
174.107
174.109
174.111
174.113
174.114
174.116
174.118
174.12
174.122
174.124
174.125
174.127
174.129
174.131
174.133
174.135
174.137
174.139
174.141
174.143
174.145
174.147
174.149
174.151
174.153
174.155
174.157
174.159
174.161
174.163
174.165
174.167
174.169
174.171
174.173
174.175
174.177
174.18
174.182
174.184
174.186
174.188
174.19
174.193
174.195
174.197
174.199
174.201
174.204
174.206
174.208
174.21
174.213
174.215
174.217
174.22
174.222
174.224
174.226
174.229
174.231
174.233
174.236
174.238
174.241
174.243
174.245
174.248
174.25
174.253
174.255
174.258
174.26
174.262
174.265
174.267
174.27
174.272
174.275
174.277
174.28
174.282
174.285
174.288
174.29
174.293
174.295
174.298
174.3
174.303
174.306
174.308
174.311
174.313
174.316
174.319
174.321
174.324
174.327
174.329
174.332
174.335
174.337
174.34
174.343
174.346
174.348
174.351
174.354
174.357
174.359
174.362
174.365
174.368
174.37
174.373
174.376
174.379
174.382
174.385
174.387
174.39
174.393
174.396
174.399
174.402
174.405
174.407
174.41
174.413
174.416
174.419
174.422
174.425
174.428
174.431
174.434
174.437
174.44
174.442
174.445
174.448
174.451
174.454
174.457
174.46
174.463
174.466
174.469
174.472
174.475
174.478
174.481
174.484
174.487
174.491
174.494
174.497
174.5
174.503
174.506
174.509
174.512
174.515
174.518
174.521
174.524
174.527
174.531
174.534
174.537
174.54
174.543
174.546
174.549
174.552
174.556
174.559
174.562
174.565
174.568
174.571
174.574
174.578
174.581
174.584
174.587
174.59
174.593
174.597
174.6
174.603
174.606
174.609
174.613
174.616
174.619
174.622
174.625
174.629
174.632
174.635
174.638
174.642
174.645
174.648
174.651
174.654
174.658
174.661
174.664
174.667
174.671
174.674
174.677
174.68
174.684
174.687
174.69
174.693
174.697
174.7
174.703
174.707
174.71
174.713
174.716
174.72
174.723
174.726
174.729
174.733
174.736
174.739
174.743
174.746
174.749
174.752
174.756
174.759
174.762
174.766
174.769
174.772
174.776
174.779
174.782
174.785
174.789
174.792
174.795
174.799
174.802
174.805
174.809
174.812
174.815
174.819
174.822
174.825
174.829
174.832
174.835
174.839
174.842
174.845
174.849
174.852
174.855
174.859
174.862
174.865
174.869
174.872
174.875
174.879
174.882
174.885
174.889
174.892
174.895
174.899
174.902
174.905
174.909
174.912
174.915
174.919
174.922
174.925
174.929
174.932
174.935
174.939
174.942
174.945
174.949
174.952
174.955
174.959
174.962
174.965
174.969
174.972
174.975
174.979
174.982
174.985
174.989
174.992
174.996
174.999
175.002
175.006
175.009
175.012
175.016
175.019
175.022
175.026
175.029
175.032
175.036
175.039
175.043
175.046
175.049
175.053
175.056
175.059
175.063
175.066
175.069
175.073
175.076
175.079
175.083
175.086
175.09
175.093
175.096
175.1
175.103
175.106
175.11
175.113
175.116
175.12
175.123
175.126
175.13
175.133
175.137
175.14
175.143
175.147
175.15
175.153
175.157
175.16
175.163
175.167
175.17
175.174
175.177
175.18
175.184
175.187
175.19
175.194
175.197
175.2
175.204
175.207
175.211
175.214
175.217
175.221
175.224
175.227
175.231
175.234
175.238
175.241
175.244
175.248
175.251
175.254
175.258
175.261
175.264
175.268
175.271
175.275
175.278
175.281
175.285
175.288
175.291
175.295
175.298
175.302
175.305
175.308
175.312
175.315
175.318
175.322
175.325
175.328
175.332
175.335
175.339
175.342
175.345
175.349
175.352
175.355
175.359
175.362
175.366
175.369
175.372
175.376
175.379
175.382
175.386
175.389
175.393
175.396
175.399
175.403
175.406
175.409
175.413
175.416
175.42
175.423
175.426
175.43
175.433
175.436
175.44
175.443
175.447
175.45
175.453
175.457
175.46
175.463
175.467
175.47
175.474
175.477
175.48
175.484
175.487
175.49
175.494
175.497
175.501
175.504
175.507
175.511
175.514
175.517
175.521
175.524
175.528
175.531
175.534
175.538
175.541
175.544
175.548
175.551
175.555
175.558
175.561
175.565
175.568
175.571
175.575
175.578
175.582
175.585
175.588
175.592
175.595
175.598
175.602
175.605
175.609
175.612
175.615
175.619
175.622
175.626
175.629
175.632
175.636
175.639
175.642
175.646
175.649
175.653
175.656
175.659
175.663
175.666
175.669
175.673
175.676
175.68
175.683
175.686
175.69
175.693
175.697
175.7
175.703
175.707
175.71
175.713
175.717
175.72
175.724
175.727
175.73
175.734
175.737
175.74
175.744
175.747
175.751
175.754
175.757
175.761
175.764
175.768
175.771
175.774
175.778
175.781
175.784
175.788
175.791
175.795
175.798
175.801
175.805
175.808
175.812
175.815
175.818
175.822
175.825
175.829
175.832
175.835
175.839
175.842
175.845
175.849
175.852
175.856
175.859
175.862
175.866
175.869
175.873
175.876
175.879
175.883
175.886
175.889
175.893
175.896
175.9
175.903
175.906
175.91
175.913
175.917
175.92
175.923
175.927
175.93
175.934
175.937
175.94
175.944
175.947
175.95
175.954
175.957
175.961
175.964
175.967
175.971
175.974
175.978
175.981
175.984
175.988
175.991
175.995
175.998
176.001
176.005
176.008
176.012
176.015
176.018
176.022
176.025
176.029
176.032
176.035
176.039
176.042
176.045
176.049
176.052
176.056
176.059
176.062
176.066
176.069
176.073
176.076
176.079
176.083
176.086
176.09
176.093
176.096
176.1
176.103
176.107
176.11
176.113
176.117
176.12
176.124
176.127
176.13
176.134
176.137
176.141
176.144
176.147
176.151
176.154
176.158
176.161
176.164
176.168
176.171
176.174
176.178
176.181
176.185
176.188
176.191
176.195
176.198
176.202
176.205
176.208
176.212
176.215
176.219
176.222
176.225
176.229
176.232
176.236
176.239
176.242
176.246
176.249
176.253
176.256
176.259
176.263
176.266
176.27
176.273
176.276
176.28
176.283
176.287
176.29
176.293
176.297
176.3
176.304
176.307
176.31
176.314
176.317
176.321
176.324
176.327
176.331
176.334
176.338
176.341
176.344
176.348
176.351
176.355
176.358
176.362
176.365
176.368
176.372
176.375
176.379
176.382
176.385
176.389
176.392
176.396
176.399
176.402
176.406
176.409
176.413
176.416
176.419
176.423
176.426
176.43
176.433
176.436
176.44
176.443
176.447
176.45
176.453
176.457
176.46
176.464
176.467
176.47
176.474
176.477
176.481
176.484
176.487
176.491
176.494
176.498
176.501
176.505
176.508
176.511
176.515
176.518
176.522
176.525
176.528
176.532
176.535
176.539
176.542
176.545
176.549
176.552
176.556
176.559
176.562
176.566
176.569
176.573
176.576
176.58
176.583
176.586
176.59
176.593
176.597
176.6
176.603
176.607
176.61
176.614
176.617
176.62
176.624
176.627
176.631
176.634
176.638
176.641
176.644
176.648
176.651
176.655
176.658
176.661
176.665
176.668
176.672
176.675
176.678
176.682
176.685
176.689
176.692
176.696
176.699
176.702
176.706
176.709
176.713
176.716
176.719
176.723
176.726
176.73
176.733
176.736
176.74
176.743
176.747
176.75
176.754
176.757
176.76
176.764
176.767
176.771
176.774
176.777
176.781
176.784
176.788
176.791
176.795
176.798
176.801
176.805
176.808
176.812
176.815
176.818
176.822
176.825
176.829
176.832
176.836
176.839
176.842
176.846
176.849
176.853
176.856
176.859
176.863
176.866
176.87
176.873
176.877
176.88
176.883
176.887
176.89
176.894
176.897
176.9
176.904
176.907
176.911
176.914
176.918
176.921
176.924
176.928
176.931
176.935
176.938
176.942
176.945
176.948
176.952
176.955
176.959
176.962
176.965
176.969
176.972
176.976
176.979
176.983
176.986
176.989
176.993
176.996
177
177.003
177.007
177.01
177.013
177.017
177.02
177.024
177.027
177.03
177.034
177.037
177.041
177.044
177.048
177.051
177.054
177.058
177.061
177.065
177.068
177.072
177.075
177.078
177.082
177.085
177.089
177.092
177.096
177.099
177.102
177.106
177.109
177.113
177.116
177.12
177.123
177.126
177.13
177.133
177.137
177.14
177.144
177.147
177.15
177.154
177.157
177.161
177.164
177.168
177.171
177.174
177.178
177.181
177.185
177.188
177.191
177.195
177.198
177.202
177.205
177.209
177.212
177.215
177.219
177.222
177.226
177.229
177.233
177.236
177.24
177.243
177.246
177.25
177.253
177.257
177.26
177.264
177.267
177.27
177.274
177.277
177.281
177.284
177.288
177.291
177.294
177.298
177.301
177.305
177.308
177.312
177.315
177.318
177.322
177.325
177.329
177.332
177.336
177.339
177.342
177.346
177.349
177.353
177.356
177.36
177.363
177.366
177.37
177.373
177.377
177.38
177.384
177.387
177.39
177.394
177.397
177.401
177.404
177.408
177.411
177.415
177.418
177.421
177.425
177.428
177.432
177.435
177.439
177.442
177.445
177.449
177.452
177.456
177.459
177.463
177.466
177.47
177.473
177.476
177.48
177.483
177.487
177.49
177.493
177.497
177.5
177.504
177.507
177.511
177.514
177.518
177.521
177.525
177.528
177.531
177.535
177.538
177.542
177.545
177.548
177.552
177.555
177.559
177.562
177.566
177.569
177.573
177.576
177.58
177.583
177.587
177.59
177.593
177.597
177.6
177.603
177.607
177.61
177.614
177.617
177.621
177.624
177.628
177.631
177.635
177.638
177.642
177.645
177.648
177.652
177.655
177.658
177.662
177.665
177.669
177.672
177.676
177.679
177.683
177.686
177.69
177.693
177.697
177.7
177.704
177.707
177.71
177.714
177.717
177.72
177.724
177.727
177.731
177.734
177.738
177.741
177.745
177.748
177.752
177.755
177.759
177.762
177.766
177.769
177.773
177.775
177.779
177.782
177.786
177.789
177.793
177.796
177.8
177.803
177.807
177.81
177.814
177.817
177.821
177.824
177.828
177.831
177.835
177.837
177.842
177.844
177.848
177.851
177.855
177.858
177.862
177.865
177.869
177.872
177.876
177.879
177.883
177.886
177.89
177.893
177.897
177.899
177.904
177.906
177.911
177.913
177.917
177.92
177.924
177.927
177.931
177.934
177.938
177.941
177.945
177.948
177.952
177.955
177.959
177.961
177.966
177.968
177.973
177.975
177.98
177.982
177.987
177.989
177.993
177.996
178
178.003
178.007
178.01
178.014
178.017
178.021
178.023
178.028
178.03
178.035
178.037
178.042
178.044
178.049
178.051
178.056
178.058
178.063
178.065
178.07
178.072
178.076
178.079
178.083
178.086
178.09
178.093
178.097
178.099
178.104
178.106
178.111
178.113
178.118
178.12
178.125
178.127
178.132
178.134
178.138
178.141
178.145
178.148
178.152
178.155
178.159
178.162
178.166
178.169
178.173
178.176
178.18
178.183
178.187
178.19
178.193
178.197
178.2
178.204
178.207
178.211
178.214
178.218
178.221
178.224
178.228
178.231
178.235
178.238
178.242
178.245
178.249
178.252
178.256
178.259
178.263
178.266
178.269
178.273
178.276
178.28
178.283
178.287
178.29
178.294
178.297
178.301
178.304
178.307
178.311
178.314
178.318
178.321
178.325
178.328
178.332
178.335
178.339
178.342
178.346
178.349
178.352
178.356
178.359
178.363
178.366
178.37
178.373
178.377
178.38
178.384
178.387
178.391
178.394
178.398
178.401
178.404
178.408
178.411
178.415
178.418
178.422
178.425
178.429
178.432
178.436
178.439
178.443
178.446
178.449
178.453
178.456
178.46
178.463
178.467
178.47
178.474
178.477
178.481
178.484
178.488
178.491
178.495
178.498
178.501
178.505
178.508
178.512
178.515
178.519
178.522
178.526
178.529
178.533
178.536
178.54
178.543
178.547
178.55
178.553
178.557
178.56
178.564
178.567
178.571
178.574
178.578
178.581
178.585
178.588
178.592
178.595
178.599
178.602
178.606
178.609
178.612
178.616
178.619
178.623
178.626
178.63
178.633
178.637
178.64
178.644
178.647
178.651
178.654
178.658
178.661
178.665
178.668
178.671
178.675
178.678
178.682
178.685
178.689
178.692
178.696
178.699
178.703
178.706
178.71
178.713
178.717
178.72
178.724
178.727
178.73
178.734
178.737
178.741
178.744
178.748
178.751
178.755
178.758
178.762
178.765
178.769
178.772
178.776
178.779
178.783
178.786
178.79
178.793
178.796
178.8
178.803
178.807
178.81
178.814
178.817
178.821
178.824
178.828
178.831
178.835
178.838
178.842
178.845
178.849
178.852
178.856
178.859
178.863
178.866
178.869
178.873
178.876
178.88
178.883
178.887
178.89
178.894
178.897
178.901
178.904
178.908
178.911
178.915
178.918
178.922
178.925
178.929
178.932
178.936
178.939
178.943
178.946
178.949
178.953
178.956
178.96
178.963
178.967
178.97
178.974
178.977
178.981
178.984
178.988
178.991
178.995
178.998
179.002
179.005
179.009
179.012
179.016
179.019
179.023
179.026
179.03
179.033
179.037
179.04
179.043
179.047
179.05
179.054
179.057
179.061
179.064
179.068
179.071
179.075
179.078
179.082
179.085
179.089
179.092
179.096
179.099
179.103
179.106
179.11
179.113
179.117
179.12
179.124
179.127
179.131
179.134
179.138
179.141
179.144
179.148
179.151
179.155
179.158
179.162
179.165
179.169
179.172
179.176
179.179
179.183
179.186
179.19
179.193
179.197
179.2
179.204
179.207
179.211
179.214
179.218
179.221
179.225
179.228
179.232
179.235
179.239
179.242
179.246
179.249
179.253
179.256
179.26
179.263
179.267
179.27
179.273
179.277
179.28
179.284
179.287
179.291
179.294
179.298
179.301
179.305
179.308
179.312
179.315
179.319
179.322
179.326
179.329
179.333
179.336
179.34
179.343
179.347
179.35
179.354
179.357
179.361
179.364
179.368
179.371
179.375
179.378
179.382
179.385
179.389
179.392
179.396
179.399
179.403
179.406
179.41
179.413
179.417
179.42
179.424
179.427
179.431
179.434
179.438
179.441
179.445
179.448
179.452
179.455
179.459
179.462
179.466
179.469
179.472
179.476
179.479
179.483
179.486
179.49
179.493
179.497
179.5
179.504
179.507
179.511
179.514
179.518
179.521
179.525
179.528
179.532
179.535
179.539
179.542
179.546
179.549
179.553
179.556
179.56
179.563
179.567
179.57
179.574
179.577
179.581
179.584
179.588
179.591
179.595
179.598
179.602
179.605
179.609
179.612
179.616
179.619
179.623
179.626
179.63
179.633
179.637
179.64
179.644
179.647
179.651
179.654
179.658
179.661
179.665
179.668
179.672
179.675
179.679
179.682
179.686
179.689
179.693
179.696
179.7
179.703
179.707
179.71
179.714
179.717
179.721
179.724
179.728
179.731
179.735
179.738
179.742
179.745
179.749
179.752
179.756
179.759
179.763
179.766
179.77
179.773
179.777
179.78
179.784
179.787
179.791
179.794
179.798
179.801
179.805
179.808
179.812
179.815
179.819
179.822
179.826
179.829
179.833
179.836
179.84
179.843
179.847
179.85
179.854
179.857
179.861
179.864
179.868
179.871
179.875
179.878
179.882
179.885
179.889
179.892
179.896
179.9
179.903
179.907
179.91
179.914
179.917
179.921
179.924
179.928
179.931
179.935
179.938
179.942
179.945
179.949
179.952
179.956
179.959
179.963
179.966
179.97
179.973
179.977
179.98
179.984
179.987
179.991
179.994
179.998
180.001
180.005
180.008
180.012
180.015
180.019
180.022
180.026
180.029
180.033
180.036
180.04
180.043
180.047
180.05
180.054
180.057
180.061
180.064
180.068
180.071
180.075
180.078
180.082
180.085
180.089
180.092
180.096
180.1
180.103
180.107
180.11
180.114
180.117
180.121
180.124
180.128
180.131
180.135
180.138
180.142
180.145
180.149
180.152
180.156
180.159
180.163
180.166
180.17
180.173
180.177
180.18
180.184
180.187
180.191
180.194
180.198
180.201
180.205
180.208
180.212
180.215
180.219
180.223
180.226
180.23
180.233
180.237
180.24
180.244
180.247
180.251
180.254
180.258
180.261
180.265
180.268
180.272
180.275
180.279
180.282
180.286
180.289
180.293
180.296
180.3
180.303
180.307
180.31
180.314
180.317
180.321
180.324
180.328
180.331
180.335
180.338
180.342
180.345
180.35
180.352
180.357
180.359
180.364
180.366
180.371
180.373
180.378
180.38
180.385
180.387
180.392
180.394
180.399
180.401
180.406
180.408
180.413
180.415
180.42
180.422
180.427
180.429
180.434
180.437
180.441
180.444
180.448
180.451
180.455
180.458
180.462
180.465
180.469
180.472
180.476
180.479
180.483
180.486
180.491
180.493
180.498
180.5
180.505
180.507
180.512
180.514
180.519
180.521
180.526
180.528
180.533
180.535
180.54
180.542
180.547
180.549
180.554
180.556
180.561
180.563
180.568
180.57
180.575
180.577
180.582
180.585
180.589
180.592
180.596
180.599
180.603
180.606
180.61
180.613
180.617
180.62
180.624
180.627
180.632
180.634
180.639
180.641
180.646
180.648
180.653
180.655
180.66
180.662
180.667
180.669
180.674
180.676
180.681
180.683
180.688
180.691
180.695
180.698
180.702
180.705
180.709
180.712
180.716
180.719
180.723
180.726
180.73
180.734
180.737
180.741
180.743
180.748
180.75
180.755
180.757
180.762
180.764
180.769
180.772
180.776
180.779
180.783
180.786
180.79
180.793
180.797
180.8
180.804
180.807
180.812
180.814
180.819
180.821
180.826
180.828
180.833
180.835
180.84
180.842
180.847
180.849
180.854
180.856
180.861
180.863
180.868
180.87
180.875
180.877
180.882
180.885
180.889
180.892
180.896
180.899
180.903
180.906
180.91
180.913
180.918
180.92
180.925
180.927
180.932
180.934
180.939
180.941
180.946
180.948
180.953
180.955
180.96
180.962
180.967
180.969
180.974
180.976
180.981
180.984
180.988
180.991
180.995
180.998
181.002
181.005
181.009
181.012
181.017
181.019
181.024
181.026
181.031
181.033
181.038
181.04
181.045
181.047
181.052
181.054
181.059
181.061
181.066
181.068
181.073
181.076
181.08
181.083
181.087
181.09
181.094
181.097
181.101
181.104
181.109
181.111
181.116
181.118
181.123
181.125
181.13
181.132
181.137
181.139
181.144
181.146
181.151
181.153
181.158
181.16
181.165
181.168
181.172
181.175
181.179
181.182
181.186
181.189
181.194
181.196
181.201
181.203
181.208
181.21
181.215
181.217
181.222
181.224
181.229
181.231
181.236
181.238
181.243
181.246
181.25
181.253
181.257
181.26
181.264
181.267
181.272
181.274
181.279
181.281
181.286
181.288
181.293
181.295
181.3
181.302
181.307
181.309
181.314
181.316
181.321
181.324
181.328
181.331
181.335
181.338
181.342
181.345
181.35
181.352
181.357
181.359
181.364
181.366
181.371
181.373
181.378
181.38
181.385
181.387
181.392
181.394
181.399
181.402
181.406
181.409
181.413
181.416
181.42
181.423
181.428
181.43
181.435
181.437
181.442
181.444
181.449
181.451
181.456
181.458
181.463
181.465
181.47
181.473
181.477
181.48
181.484
181.487
181.491
181.494
181.499
181.501
181.506
181.508
181.513
181.515
181.52
181.522
181.527
181.529
181.534
181.536
181.541
181.544
181.548
181.551
181.555
181.558
181.562
181.565
181.57
181.572
181.577
181.579
181.584
181.586
181.591
181.593
181.598
181.6
181.605
181.607
181.612
181.615
181.619
181.622
181.626
181.629
181.634
181.636
181.641
181.643
181.648
181.65
181.655
181.657
181.662
181.664
181.669
181.671
181.676
181.679
181.683
181.686
181.69
181.693
181.698
181.7
181.705
181.707
181.712
181.714
181.719
181.721
181.726
181.728
181.733
181.735
181.74
181.743
181.747
181.75
181.754
181.757
181.762
181.764
181.769
181.771
181.776
181.778
181.783
181.785
181.79
181.792
181.797
181.8
181.804
181.807
181.811
181.814
181.818
181.821
181.826
181.828
181.833
181.835
181.84
181.842
181.847
181.849
181.854
181.856
181.861
181.864
181.868
181.871
181.875
181.878
181.883
181.885
181.89
181.892
181.897
181.899
181.904
181.906
181.911
181.913
181.918
181.921
181.925
181.928
181.932
181.935
181.94
181.942
181.947
181.949
181.954
181.956
181.961
181.963
181.968
181.97
181.975
181.978
181.982
181.985
181.989
181.992
181.997
181.999
182.004
182.006
182.011
182.013
182.018
182.02
182.025
182.027
182.032
182.035
182.039
182.042
182.046
182.049
182.054
182.056
182.061
182.063
182.068
182.07
182.075
182.077
182.082
182.085
182.089
182.092
182.096
182.099
182.104
182.106
182.111
182.113
182.118
182.12
182.125
182.127
182.132
182.134
182.139
182.142
182.146
182.149
182.154
182.156
182.161
182.163
182.168
182.17
182.175
182.177
182.182
182.184
182.189
182.192
182.196
182.199
182.203
182.206
182.211
182.213
182.218
182.22
182.225
182.227
182.232
182.234
182.239
182.242
182.246
182.249
182.253
182.256
182.261
182.263
182.268
182.27
182.275
182.277
182.282
182.284
182.289
182.292
182.296
182.299
182.303
182.306
182.311
182.313
182.318
182.32
182.325
182.327
182.332
182.334
182.339
182.342
182.346
182.349
182.353
182.356
182.361
182.363
182.368
182.37
182.375
182.377
182.382
182.384
182.389
182.392
182.396
182.399
182.404
182.406
182.411
182.413
182.418
182.42
182.425
182.427
182.432
182.435
182.439
182.442
182.446
182.449
182.454
182.456
182.461
182.463
182.468
182.47
182.475
182.477
182.482
182.485
182.489
182.492
182.497
182.499
182.504
182.506
182.511
182.513
182.518
182.52
182.525
182.528
182.532
182.535
182.539
182.542
182.547
182.549
182.554
182.556