/*--------------------------------*- C++ -*----------------------------------*\
  =========                 |
  \\      /  F ield         | OpenFOAM: The Open Source CFD Toolbox
   \\    /   O peration     | Website:  https://openfoam.org
    \\  /    A nd           | Version:  9
     \\/     M anipulation  |
\*---------------------------------------------------------------------------*/
FoamFile
{
    format      ascii;
    class       volScalarField;
    location    "0.021";
    object      T;
}
// * * * * * * * * * * * * * * * * * * * * * * * * * * * * * * * * * * * * * //

dimensions      [0 0 0 1 0 0 0];

internalField   nonuniform List<scalar> 
1000
(
308.282
308.061
307.927
307.783
307.641
307.498
307.356
307.214
307.072
306.929
306.787
306.645
306.503
306.361
306.219
306.077
305.935
305.793
305.651
305.509
305.367
305.225
305.083
304.941
304.799
304.658
304.516
304.374
304.232
304.091
303.949
303.807
303.666
303.524
303.382
303.241
303.099
302.957
302.816
302.674
302.533
302.391
302.249
302.108
301.966
301.824
301.682
301.54
301.398
301.255
301.113
300.97
300.827
300.684
300.541
300.397
300.253
300.109
299.964
299.821
299.678
299.535
299.393
299.252
299.111
298.971
298.831
298.691
298.552
298.412
298.273
298.133
297.994
297.855
297.715
297.576
297.436
297.297
297.157
297.018
296.878
296.738
296.599
296.46
296.321
296.183
296.044
295.906
295.767
295.629
295.49
295.351
295.213
295.074
294.935
294.796
294.657
294.519
294.38
294.241
294.103
293.964
293.825
293.687
293.548
293.41
293.272
293.133
292.995
292.857
292.718
292.58
292.442
292.303
292.165
292.027
291.889
291.752
291.614
291.476
291.339
291.201
291.064
290.926
290.788
290.65
290.513
290.375
290.238
290.101
289.964
289.827
289.689
289.552
289.415
289.278
289.142
289.005
288.866
288.727
288.589
288.453
288.318
288.184
288.048
287.908
287.766
287.625
287.488
287.356
287.226
287.093
286.954
286.811
286.668
286.529
286.396
286.266
286.135
285.999
285.859
285.718
285.579
285.445
285.313
285.181
285.045
284.905
284.763
284.624
284.492
284.368
284.24
284.099
283.949
283.797
283.655
283.55
283.469
283.327
283.159
282.991
282.828
282.678
282.615
282.563
282.405
282.226
282.039
281.867
281.71
281.615
281.614
281.485
281.304
281.097
280.912
280.755
280.649
280.676
280.577
280.401
280.186
279.977
279.807
279.655
279.581
279.613
279.496
279.319
279.104
278.908
278.743
278.593
278.535
278.535
278.395
278.217
278.023
277.851
277.687
277.533
277.416
277.432
277.348
277.184
277.008
276.842
276.679
276.518
276.365
276.226
276.197
276.155
276.002
275.827
275.646
275.48
275.318
275.159
275.013
274.948
274.98
274.863
274.693
274.479
274.263
274.095
273.94
273.798
273.759
273.786
273.658
273.485
273.257
273.046
272.882
272.735
272.644
272.679
272.585
272.421
272.217
272.009
271.848
271.704
271.64
271.62
271.481
271.311
271.12
270.958
270.814
270.744
270.702
270.559
270.392
270.192
270.017
269.868
269.742
269.744
269.697
269.546
269.371
269.153
268.974
268.818
268.667
268.528
268.459
268.523
268.442
268.286
268.099
267.857
267.675
267.52
267.371
267.232
267.159
267.198
267.098
266.941
266.745
266.53
266.37
266.224
266.097
266.042
265.942
265.802
265.663
265.56
265.5
265.368
265.212
265.017
264.796
264.636
264.496
264.402
264.466
264.428
264.285
264.112
263.843
263.588
263.427
263.284
263.156
263.143
263.249
263.163
263.013
262.824
262.526
262.308
262.158
262.026
261.976
262.034
261.937
261.786
261.592
261.347
261.181
261.043
260.945
261
260.973
260.835
260.667
260.386
260.052
259.875
259.735
259.616
259.629
259.827
259.782
259.644
259.478
259.202
258.813
258.614
258.47
258.341
258.283
258.43
258.435
258.304
258.152
257.926
257.6
257.412
257.271
257.143
257.097
257.179
257.102
256.962
256.798
256.546
256.333
256.188
256.057
255.971
255.999
255.917
255.779
255.62
255.402
255.226
255.088
254.961
254.898
254.866
254.743
254.603
254.435
254.261
254.121
253.989
253.885
253.822
253.703
253.568
253.423
253.274
253.137
253.006
252.894
252.805
252.679
252.545
252.408
252.271
252.138
252.01
251.907
251.801
251.671
251.538
251.403
251.271
251.14
251.02
250.922
250.8
250.669
250.536
250.405
250.274
250.148
250.043
249.931
249.803
249.673
249.543
249.415
249.289
249.179
249.074
248.952
248.829
248.708
248.589
248.476
248.375
248.288
248.189
248.093
248.002
247.919
247.845
247.788
247.744
247.7
247.663
247.632
247.61
247.597
247.594
247.594
247.591
247.588
247.584
247.584
247.586
247.594
247.605
247.618
247.627
247.635
247.642
247.649
247.657
247.664
247.672
247.679
247.688
247.695
247.702
247.708
247.715
247.724
247.735
247.747
247.757
247.763
247.766
247.767
247.766
247.764
247.756
247.74
247.722
247.706
247.694
247.684
247.677
247.673
247.67
247.669
247.668
247.667
247.667
247.665
247.664
247.664
247.665
247.668
247.672
247.677
247.681
247.683
247.687
247.69
247.696
247.702
247.709
247.716
247.723
247.729
247.735
247.739
247.742
247.743
247.743
247.741
247.737
247.726
247.715
247.708
247.702
247.697
247.692
247.688
247.683
247.68
247.678
247.678
247.678
247.677
247.677
247.676
247.677
247.677
247.678
247.679
247.681
247.685
247.689
247.693
247.696
247.698
247.701
247.704
247.709
247.716
247.722
247.727
247.73
247.732
247.733
247.732
247.732
247.73
247.725
247.716
247.706
247.699
247.693
247.69
247.687
247.685
247.683
247.681
247.68
247.678
247.678
247.677
247.676
247.676
247.677
247.678
247.679
247.68
247.681
247.683
247.687
247.691
247.694
247.697
247.699
247.701
247.705
247.709
247.715
247.721
247.724
247.725
247.726
247.727
247.726
247.724
247.719
247.711
247.704
247.697
247.693
247.689
247.687
247.685
247.684
247.683
247.681
247.68
247.679
247.678
247.678
247.677
247.678
247.679
247.681
247.682
247.683
247.684
247.685
247.689
247.693
247.696
247.698
247.701
247.703
247.705
247.709
247.714
247.717
247.72
247.72
247.72
247.719
247.715
247.71
247.706
247.702
247.697
247.693
247.689
247.686
247.685
247.684
247.683
247.682
247.681
247.68
247.68
247.68
247.679
247.679
247.68
247.681
247.683
247.684
247.686
247.688
247.689
247.691
247.694
247.696
247.698
247.7
247.703
247.706
247.71
247.712
247.713
247.714
247.715
247.714
247.709
247.704
247.7
247.695
247.692
247.69
247.688
247.686
247.686
247.686
247.684
247.682
247.681
247.68
247.68
247.679
247.679
247.679
247.68
247.682
247.684
247.685
247.687
247.687
247.688
247.689
247.692
247.695
247.697
247.698
247.7
247.702
247.705
247.709
247.71
247.71
247.709
247.707
247.702
247.696
247.694
247.693
247.691
247.69
247.687
247.685
247.682
247.682
247.682
247.683
247.683
247.682
247.68
247.679
247.678
247.679
247.68
247.682
247.686
247.688
247.688
247.687
247.687
247.687
247.688
247.691
247.696
247.698
247.7
247.702
247.702
247.702
247.702
247.702
247.702
247.701
247.698
247.693
247.688
247.684
247.684
247.684
247.685
247.685
247.684
247.681
247.678
247.676
247.677
247.677
247.679
247.68
247.679
247.679
247.678
247.677
247.679
247.682
247.684
247.685
247.686
247.687
247.687
247.688
247.691
247.695
247.696
247.695
247.695
247.695
247.694
247.694
247.695
247.694
247.693
247.69
247.685
247.682
247.68
247.68
247.68
247.68
247.68
247.678
247.676
247.674
247.674
247.675
247.678
247.68
247.68
247.679
247.677
247.676
247.676
247.678
247.682
247.685
247.687
247.687
247.686
247.685
247.686
247.69
247.694
247.694
247.695
247.694
247.691
247.689
247.689
247.689
247.689
247.688
247.685
247.68
247.677
247.676
247.677
247.679
247.68
247.68
247.678
247.675
247.673
247.673
247.674
247.678
247.678
247.678
247.677
247.674
247.673
247.672
247.675
247.679
247.682
247.683
247.682
247.681
247.68
247.679
247.682
247.684
247.684
247.684
247.68
247.675
247.674
247.675
247.675
247.675
247.675
247.672
247.667
247.664
247.664
247.665
247.668
247.669
247.669
247.667
247.664
247.662
247.663
247.666
247.67
247.672
247.671
247.669
247.665
247.663
247.665
247.67
247.675
247.678
247.678
247.676
247.674
247.671
247.672
247.676
247.677
247.678
247.677
247.672
247.669
247.669
247.669
247.67
247.669
247.665
247.663
247.675
247.753
248.126
248.984
249.674
249.855
249.912
249.99
250.025
250.026
250.015
249.989
249.965
249.965
249.975
249.997
250.007
250.004
249.991
249.974
249.972
249.976
249.99
249.998
249.996
249.989
249.974
249.968
249.971
249.979
249.993
249.996
249.993
249.986
249.972
249.97
249.972
249.978
249.981
249.98
249.973
249.963
249.961
249.967
249.973
249.979
249.981
249.977
249.967
249.955
249.953
249.954
249.959
249.961
249.959
249.954
249.952
249.948
249.948
249.952
249.957
249.959
249.954
249.951
249.943
249.935
249.933
249.942
249.99
250.185
250.744
251.337
251.662
251.73
251.781
251.824
251.838
251.833
251.819
251.805
251.806
251.811
251.822
251.831
251.829
)
;

boundaryField
{
    sides
    {
        type            zeroGradient;
    }
    empty
    {
        type            empty;
    }
}


// ************************************************************************* //
