/*--------------------------------*- C++ -*----------------------------------*\
  =========                 |
  \\      /  F ield         | OpenFOAM: The Open Source CFD Toolbox
   \\    /   O peration     | Website:  https://openfoam.org
    \\  /    A nd           | Version:  9
     \\/     M anipulation  |
\*---------------------------------------------------------------------------*/
FoamFile
{
    format      ascii;
    class       volScalarField;
    location    "0.033";
    object      ddt0(p);
}
// * * * * * * * * * * * * * * * * * * * * * * * * * * * * * * * * * * * * * //

dimensions      [1 -1 -3 0 0 0 0];

internalField   nonuniform List<scalar> 
1000
(
-889390
-889152
-888905
-888688
-888484
-888284
-888088
-887896
-887702
-887506
-887309
-887104
-886887
-886667
-886454
-886249
-886049
-885846
-885642
-885449
-885257
-885051
-884834
-884610
-884396
-884202
-883999
-883782
-883579
-883381
-883182
-882975
-882734
-882513
-882325
-882116
-881908
-881696
-881489
-881269
-881071
-880834
-880632
-880444
-880222
-879982
-879761
-879559
-879349
-879132
-878923
-878721
-878508
-878279
-878048
-877825
-877606
-877388
-877174
-876966
-876760
-876549
-876329
-876102
-875872
-875644
-875421
-875197
-874977
-874764
-874547
-874332
-874111
-873882
-873658
-873432
-873207
-872979
-872760
-872535
-872310
-872087
-871864
-871637
-871403
-871175
-870945
-870716
-870493
-870265
-870040
-869814
-869584
-869356
-869121
-868884
-868654
-868419
-868186
-867959
-867726
-867495
-867268
-867032
-866797
-866565
-866324
-866085
-865851
-865610
-865369
-865138
-864901
-864661
-864429
-864193
-863948
-863710
-863473
-863225
-862982
-862745
-862500
-862253
-862016
-861773
-861523
-861280
-861039
-860789
-860540
-860299
-860053
-859800
-859555
-859312
-859060
-858807
-858562
-858312
-858053
-857800
-857551
-857294
-857035
-856784
-856534
-856276
-856019
-855769
-855516
-855254
-854994
-854740
-854480
-854212
-853950
-853693
-853429
-853159
-852897
-852639
-852374
-852104
-851841
-851580
-851312
-851038
-850770
-850506
-850234
-849956
-849683
-849416
-849142
-848861
-848585
-848314
-848039
-847756
-847475
-847200
-846923
-846638
-846352
-846073
-845794
-845506
-845216
-844931
-844648
-844359
-844064
-843772
-843484
-843193
-842895
-842596
-842303
-842011
-841711
-841407
-841107
-840812
-840511
-840203
-839895
-839591
-839287
-838976
-838660
-838346
-838036
-837723
-837402
-837080
-836761
-836444
-836122
-835793
-835464
-835140
-834814
-834481
-834143
-833805
-833472
-833136
-832793
-832444
-832098
-831756
-831410
-831057
-830700
-830345
-829993
-829638
-829274
-828908
-828544
-828182
-827815
-827441
-827064
-826689
-826317
-825939
-825554
-825165
-824778
-824393
-824003
-823605
-823202
-822799
-822398
-821993
-821580
-821160
-820740
-820321
-819899
-819468
-819031
-818591
-818151
-817710
-817260
-816802
-816339
-815876
-815411
-814939
-814457
-813969
-813479
-812987
-812491
-811985
-811470
-810951
-810430
-809906
-809373
-808830
-808280
-807727
-807171
-806607
-806032
-805447
-804856
-804261
-803660
-803049
-802425
-801792
-801153
-800509
-799856
-799190
-798517
-797820
-797132
-796485
-795592
-795121
-794366
-793316
-792783
-791993
-790921
-790815
-789027
-788946
-787897
-787114
-785859
-785636
-783897
-783729
-782603
-781579
-780589
-780122
-777914
-779105
-776766
-775943
-775498
-774666
-774537
-772692
-773351
-772262
-768685
-766835
-766557
-764578
-763091
-762194
-760837
-759331
-758123
-756883
-755528
-754192
-752809
-751354
-749974
-748668
-747275
-745748
-744169
-742596
-741021
-739417
-737763
-736074
-734387
-732722
-731074
-729422
-727744
-726025
-724259
-722449
-720603
-718738
-716867
-714998
-713132
-711265
-709399
-707532
-705666
-703798
-701922
-700035
-698136
-696228
-694316
-692410
-690515
-688639
-686786
-684961
-683164
-681395
-679654
-677936
-676239
-674564
-672913
-671293
-669711
-668176
-666694
-665265
-663893
-662578
-661318
-660111
-658958
-657856
-656805
-655807
-654865
-653985
-653171
-652426
-651753
-651150
-650617
-650153
-649757
-649425
-649154
-648940
-648780
-648673
-648619
-648622
-648682
-648800
-648975
-649206
-649491
-649827
-650211
-650637
-651101
-651597
-652122
-652678
-653264
-653881
-654531
-655214
-655928
-656672
-657442
-658238
-659054
-659886
-660729
-661581
-662440
-663307
-664186
-665077
-665980
-666897
-667826
-668768
-669722
-670686
-671657
-672630
-673603
-674577
-675550
-676525
-677503
-678486
-679475
-680470
-681470
-682477
-683490
-684507
-685527
-686545
-687562
-688575
-689588
-690601
-691616
-692633
-693654
-694678
-695707
-696741
-697780
-698822
-699866
-700909
-701951
-702991
-704031
-705072
-706114
-707159
-708205
-709255
-710309
-711367
-712429
-713494
-714560
-715625
-716689
-717752
-718814
-719877
-720941
-722005
-723072
-724140
-725212
-726287
-727367
-728450
-729534
-730618
-731702
-732785
-733868
-734953
-736037
-737123
-738209
-739296
-740387
-741481
-742578
-743677
-744778
-745879
-746979
-748079
-749179
-750279
-751380
-752481
-753583
-754686
-755792
-756902
-758016
-759133
-760252
-761371
-762491
-763611
-764733
-765856
-766979
-768102
-769225
-770350
-771477
-772608
-773741
-774877
-776013
-777150
-778288
-779427
-780567
-781708
-782848
-783988
-785128
-786271
-787417
-788566
-789717
-790870
-792024
-793180
-794339
-795499
-796660
-797822
-798983
-800143
-801305
-802469
-803636
-804805
-805975
-807147
-808321
-809497
-810677
-811858
-813041
-814223
-815406
-816589
-817773
-818960
-820149
-821339
-822529
-823721
-824914
-826110
-827309
-828510
-829713
-830915
-832118
-833323
-834530
-835739
-836951
-838164
-839378
-840593
-841811
-843032
-844255
-845479
-846704
-847929
-849154
-850380
-851609
-852838
-854069
-855301
-856533
-857768
-859005
-860245
-861488
-862734
-863980
-865228
-866478
-867729
-868983
-870238
-871495
-872752
-874010
-875269
-876530
-877794
-879059
-880326
-881594
-882863
-884133
-885405
-886680
-887956
-889234
-890514
-891795
-893078
-894363
-895650
-896940
-898231
-899524
-900818
-902113
-903409
-904706
-906005
-907304
-908605
-909907
-911210
-912515
-913821
-915131
-916442
-917757
-919073
-920391
-921711
-923033
-924356
-925682
-927009
-928338
-929668
-931000
-932332
-933667
-935004
-936343
-937683
-939025
-940370
-941715
-943063
-944411
-945762
-947114
-948467
-949822
-951178
-952536
-953894
-955256
-956617
-957982
-959347
-960716
-962085
-963457
-964830
-966204
-967583
-968958
-970341
-971720
-973105
-974489
-975875
-977265
-978652
-980047
-981437
-982835
-984228
-985629
-987027
-988428
-989833
-991234
-992643
-994045
-995459
-996863
-998279
-999689
-1.0011e+06
-1.00252e+06
-1.00393e+06
-1.00536e+06
-1.00677e+06
-1.0082e+06
-1.00961e+06
-1.01104e+06
-1.01246e+06
-1.01389e+06
-1.01532e+06
-1.01674e+06
-1.01817e+06
-1.01959e+06
-1.02103e+06
-1.02245e+06
-1.02389e+06
-1.02532e+06
-1.02675e+06
-1.02818e+06
-1.02961e+06
-1.03105e+06
-1.03247e+06
-1.03391e+06
-1.03534e+06
-1.03678e+06
-1.03821e+06
-1.03964e+06
-1.04107e+06
-1.0425e+06
-1.04393e+06
-1.04536e+06
-1.04679e+06
-1.04821e+06
-1.04964e+06
-1.05106e+06
-1.05248e+06
-1.0539e+06
-1.05531e+06
-1.05673e+06
-1.05813e+06
-1.05954e+06
-1.06094e+06
-1.06234e+06
-1.06374e+06
-1.06513e+06
-1.06651e+06
-1.0679e+06
-1.06927e+06
-1.07064e+06
-1.07201e+06
-1.07337e+06
-1.07472e+06
-1.07606e+06
-1.0774e+06
-1.07872e+06
-1.08005e+06
-1.08136e+06
-1.08266e+06
-1.08396e+06
-1.08524e+06
-1.08652e+06
-1.08777e+06
-1.08904e+06
-1.09027e+06
-1.09151e+06
-1.09272e+06
-1.09393e+06
-1.09513e+06
-1.09631e+06
-1.09749e+06
-1.09864e+06
-1.09978e+06
-1.10091e+06
-1.10203e+06
-1.10313e+06
-1.10422e+06
-1.10529e+06
-1.10634e+06
-1.1074e+06
-1.10841e+06
-1.10943e+06
-1.11043e+06
-1.1114e+06
-1.11237e+06
-1.11333e+06
-1.11426e+06
-1.11517e+06
-1.1161e+06
-1.11698e+06
-1.11786e+06
-1.11875e+06
-1.11958e+06
-1.12044e+06
-1.12128e+06
-1.1221e+06
-1.12291e+06
-1.12374e+06
-1.12453e+06
-1.12533e+06
-1.12614e+06
-1.12691e+06
-1.12771e+06
-1.1285e+06
-1.12928e+06
-1.13007e+06
-1.13087e+06
-1.13166e+06
-1.13247e+06
-1.13328e+06
-1.1341e+06
-1.13493e+06
-1.13578e+06
-1.13664e+06
-1.1375e+06
-1.1384e+06
-1.13931e+06
-1.14022e+06
-1.14119e+06
-1.14217e+06
-1.14317e+06
-1.1442e+06
-1.14527e+06
-1.14636e+06
-1.14749e+06
-1.14867e+06
-1.14987e+06
-1.15112e+06
-1.15242e+06
-1.15376e+06
-1.15513e+06
-1.15657e+06
-1.15805e+06
-1.15958e+06
-1.16115e+06
-1.16279e+06
-1.16448e+06
-1.16621e+06
-1.168e+06
-1.16986e+06
-1.17175e+06
-1.1737e+06
-1.17571e+06
-1.17778e+06
-1.17989e+06
-1.18206e+06
-1.18429e+06
-1.18657e+06
-1.18888e+06
-1.19127e+06
-1.19371e+06
-1.19617e+06
-1.1987e+06
-1.20128e+06
-1.20388e+06
-1.20654e+06
-1.20925e+06
-1.21198e+06
-1.21476e+06
-1.21757e+06
-1.22041e+06
-1.22328e+06
-1.22618e+06
-1.2291e+06
-1.23205e+06
-1.23502e+06
-1.23801e+06
-1.24101e+06
-1.24402e+06
-1.24704e+06
-1.25007e+06
-1.2531e+06
-1.25613e+06
-1.25917e+06
-1.26219e+06
-1.2652e+06
-1.26821e+06
-1.27121e+06
-1.27419e+06
-1.27714e+06
-1.28008e+06
-1.28301e+06
-1.28592e+06
-1.2888e+06
-1.29164e+06
-1.29448e+06
-1.29732e+06
-1.30011e+06
-1.30285e+06
-1.30559e+06
-1.30833e+06
-1.31105e+06
-1.3137e+06
-1.31633e+06
-1.31896e+06
-1.32157e+06
-1.32414e+06
-1.32666e+06
-1.32917e+06
-1.33165e+06
-1.3341e+06
-1.33652e+06
-1.3389e+06
-1.34125e+06
-1.34357e+06
-1.34587e+06
-1.34813e+06
-1.35037e+06
-1.35256e+06
-1.35476e+06
-1.35691e+06
-1.35906e+06
-1.36117e+06
-1.36327e+06
-1.36535e+06
-1.36742e+06
-1.36946e+06
-1.3715e+06
-1.37351e+06
-1.37553e+06
-1.37751e+06
-1.3795e+06
-1.38146e+06
-1.38343e+06
-1.38538e+06
-1.38729e+06
-1.38926e+06
-1.39113e+06
-1.3933e+06
-1.39481e+06
-1.39669e+06
-1.39873e+06
-1.40045e+06
-1.40259e+06
-1.40396e+06
-1.40592e+06
-1.40775e+06
-1.40944e+06
-1.41108e+06
-1.41269e+06
-1.41436e+06
-1.41573e+06
-1.41702e+06
-1.41824e+06
-1.41948e+06
-1.41981e+06
-1.42075e+06
-1.41945e+06
-1.41956e+06
-1.41867e+06
-1.41696e+06
-1.41388e+06
-1.41045e+06
-1.40726e+06
-1.40202e+06
-1.397e+06
-1.39258e+06
-1.38725e+06
-1.38331e+06
-1.3798e+06
-1.37643e+06
-1.37522e+06
-1.37459e+06
-1.37553e+06
-1.37832e+06
-1.38124e+06
-1.38531e+06
)
;

boundaryField
{
    sides
    {
        type            calculated;
        value           nonuniform List<scalar> 2(-1.38531e+06 -889390);
    }
    empty
    {
        type            empty;
    }
}


// ************************************************************************* //
