/*--------------------------------*- C++ -*----------------------------------*\
  =========                 |
  \\      /  F ield         | OpenFOAM: The Open Source CFD Toolbox
   \\    /   O peration     | Website:  https://openfoam.org
    \\  /    A nd           | Version:  9
     \\/     M anipulation  |
\*---------------------------------------------------------------------------*/
FoamFile
{
    format      ascii;
    class       volVectorField;
    location    "0.033";
    object      ddtCorrDdt0(rho,U);
}
// * * * * * * * * * * * * * * * * * * * * * * * * * * * * * * * * * * * * * //

dimensions      [1 -2 -2 0 0 0 0];

internalField   nonuniform List<vector> 
1000
(
(-45.5597 0 0)
(-55.5989 0 0)
(-65.2192 0 0)
(-73.0129 0 0)
(-80.455 0 0)
(-88.072 0 0)
(-95.7818 0 0)
(-103.52 0 0)
(-111.308 0 0)
(-119.125 0 0)
(-126.897 0 0)
(-134.588 0 0)
(-142.22 0 0)
(-149.847 0 0)
(-157.53 0 0)
(-165.299 0 0)
(-173.14 0 0)
(-181.003 0 0)
(-188.801 0 0)
(-196.448 0 0)
(-203.95 0 0)
(-211.38 0 0)
(-218.815 0 0)
(-226.323 0 0)
(-233.936 0 0)
(-241.685 0 0)
(-249.621 0 0)
(-257.719 0 0)
(-265.884 0 0)
(-274.065 0 0)
(-282.222 0 0)
(-290.339 0 0)
(-298.397 0 0)
(-306.286 0 0)
(-314.003 0 0)
(-321.788 0 0)
(-329.635 0 0)
(-337.582 0 0)
(-346.087 0 0)
(-354.104 0 0)
(-361.908 0 0)
(-369.623 0 0)
(-377.398 0 0)
(-385.213 0 0)
(-392.931 0 0)
(-400.589 0 0)
(-408.307 0 0)
(-416.086 0 0)
(-423.844 0 0)
(-431.572 0 0)
(-439.323 0 0)
(-447.095 0 0)
(-454.832 0 0)
(-462.524 0 0)
(-470.216 0 0)
(-477.935 0 0)
(-485.667 0 0)
(-493.392 0 0)
(-501.129 0 0)
(-508.884 0 0)
(-516.65 0 0)
(-524.374 0 0)
(-532.109 0 0)
(-539.788 0 0)
(-547.553 0 0)
(-555.17 0 0)
(-562.967 0 0)
(-570.525 0 0)
(-578.41 0 0)
(-585.982 0 0)
(-593.82 0 0)
(-601.516 0 0)
(-609.196 0 0)
(-616.913 0 0)
(-624.627 0 0)
(-632.339 0 0)
(-639.919 0 0)
(-647.87 0 0)
(-655.174 0 0)
(-663.374 0 0)
(-670.602 0 0)
(-678.595 0 0)
(-686.323 0 0)
(-693.633 0 0)
(-701.927 0 0)
(-708.976 0 0)
(-716.987 0 0)
(-724.841 0 0)
(-731.901 0 0)
(-740.373 0 0)
(-747.619 0 0)
(-755.098 0 0)
(-763.574 0 0)
(-770.403 0 0)
(-778.32 0 0)
(-786.575 0 0)
(-793.212 0 0)
(-801.479 0 0)
(-809.556 0 0)
(-816.113 0 0)
(-824.6 0 0)
(-832.608 0 0)
(-839.056 0 0)
(-847.623 0 0)
(-855.721 0 0)
(-861.981 0 0)
(-870.479 0 0)
(-878.854 0 0)
(-884.934 0 0)
(-893.161 0 0)
(-901.999 0 0)
(-908.051 0 0)
(-915.729 0 0)
(-925.071 0 0)
(-931.431 0 0)
(-938.264 0 0)
(-947.855 0 0)
(-955.012 0 0)
(-960.945 0 0)
(-970.199 0 0)
(-978.572 0 0)
(-984.084 0 0)
(-992.219 0 0)
(-1001.74 0 0)
(-1007.81 0 0)
(-1014.37 0 0)
(-1024.15 0 0)
(-1031.77 0 0)
(-1037.23 0 0)
(-1045.91 0 0)
(-1055.21 0 0)
(-1061.03 0 0)
(-1067.77 0 0)
(-1077.57 0 0)
(-1085.17 0 0)
(-1090.64 0 0)
(-1099.11 0 0)
(-1108.55 0 0)
(-1114.66 0 0)
(-1120.98 0 0)
(-1130.52 0 0)
(-1138.81 0 0)
(-1144.23 0 0)
(-1151.79 0 0)
(-1161.63 0 0)
(-1168.67 0 0)
(-1174.13 0 0)
(-1182.83 0 0)
(-1192.41 0 0)
(-1198.48 0 0)
(-1204.33 0 0)
(-1213.86 0 0)
(-1222.95 0 0)
(-1228.32 0 0)
(-1234.66 0 0)
(-1244.68 0 0)
(-1253.35 0 0)
(-1258.28 0 0)
(-1264.95 0 0)
(-1275.33 0 0)
(-1283.72 0 0)
(-1288.42 0 0)
(-1295.21 0 0)
(-1305.8 0 0)
(-1314.22 0 0)
(-1318.74 0 0)
(-1325.38 0 0)
(-1336.06 0 0)
(-1344.73 0 0)
(-1349.24 0 0)
(-1355.5 0 0)
(-1366.06 0 0)
(-1375.19 0 0)
(-1379.93 0 0)
(-1385.66 0 0)
(-1395.83 0 0)
(-1405.55 0 0)
(-1410.78 0 0)
(-1415.93 0 0)
(-1425.47 0 0)
(-1435.74 0 0)
(-1441.7 0 0)
(-1446.35 0 0)
(-1455.04 0 0)
(-1465.73 0 0)
(-1472.7 0 0)
(-1476.98 0 0)
(-1484.5 0 0)
(-1495.42 0 0)
(-1503.76 0 0)
(-1508.02 0 0)
(-1513.95 0 0)
(-1524.53 0 0)
(-1534.6 0 0)
(-1539.72 0 0)
(-1543.93 0 0)
(-1552.96 0 0)
(-1564.44 0 0)
(-1571.79 0 0)
(-1575.26 0 0)
(-1581.56 0 0)
(-1592.81 0 0)
(-1602.99 0 0)
(-1607.83 0 0)
(-1611.73 0 0)
(-1620.58 0 0)
(-1632.22 0 0)
(-1640.1 0 0)
(-1643.77 0 0)
(-1649.48 0 0)
(-1660.1 0 0)
(-1670.64 0 0)
(-1676.35 0 0)
(-1680.19 0 0)
(-1688.08 0 0)
(-1699.49 0 0)
(-1708.31 0 0)
(-1712.43 0 0)
(-1717.12 0 0)
(-1726.92 0 0)
(-1738.55 0 0)
(-1745.74 0 0)
(-1748.78 0 0)
(-1754.36 0 0)
(-1765.57 0 0)
(-1777.15 0 0)
(-1783.13 0 0)
(-1785.66 0 0)
(-1791.93 0 0)
(-1803.82 0 0)
(-1815.13 0 0)
(-1820.51 0 0)
(-1823.1 0 0)
(-1829.92 0 0)
(-1841.89 0 0)
(-1852.65 0 0)
(-1857.74 0 0)
(-1860.76 0 0)
(-1868.18 0 0)
(-1880.15 0 0)
(-1890.35 0 0)
(-1894.96 0 0)
(-1898.1 0 0)
(-1906.06 0 0)
(-1918.52 0 0)
(-1928.78 0 0)
(-1932.94 0 0)
(-1935.4 0 0)
(-1943.12 0 0)
(-1956.16 0 0)
(-1967.43 0 0)
(-1972.01 0 0)
(-1973.72 0 0)
(-1980.17 0 0)
(-1992.86 0 0)
(-2005.18 0 0)
(-2011.13 0 0)
(-2012.97 0 0)
(-2018.24 0 0)
(-2029.85 0 0)
(-2042.47 0 0)
(-2049.56 0 0)
(-2051.85 0 0)
(-2056.44 0 0)
(-2067.34 0 0)
(-2080.48 0 0)
(-2088.61 0 0)
(-2090.92 0 0)
(-2094.03 0 0)
(-2103.76 0 0)
(-2117.82 0 0)
(-2128.34 0 0)
(-2131.81 0 0)
(-2133.13 0 0)
(-2139.94 0 0)
(-2153.23 0 0)
(-2166.2 0 0)
(-2172.71 0 0)
(-2174.3 0 0)
(-2178.41 0 0)
(-2189.18 0 0)
(-2202.72 0 0)
(-2211.92 0 0)
(-2215.07 0 0)
(-2217.79 0 0)
(-2226.23 0 0)
(-2239.67 0 0)
(-2251.36 0 0)
(-2256.52 0 0)
(-2257.95 0 0)
(-2262.98 0 0)
(-2274.92 0 0)
(-2289.21 0 0)
(-2298.64 0 0)
(-2301.42 0 0)
(-2303.11 0 0)
(-2310.51 0 0)
(-2323.92 0 0)
(-2337.08 0 0)
(-2344.26 0 0)
(-2346.45 0 0)
(-2350.16 0 0)
(-2360.13 0 0)
(-2373.94 0 0)
(-2384.85 0 0)
(-2389.64 0 0)
(-2391.55 0 0)
(-2397.42 0 0)
(-2409.29 0 0)
(-2424.72 0 0)
(-2433.41 0 0)
(-2437.11 0 0)
(-2439.25 0 0)
(-2446.34 0 0)
(-2455.14 0 0)
(-2474.05 0 0)
(-2482.73 0 0)
(-2485.79 0 0)
(-2488.98 0 0)
(-2496.6 0 0)
(-2505.22 0 0)
(-2523.4 0 0)
(-2530.6 0 0)
(-2534.11 0 0)
(-2539.03 0 0)
(-2547.83 0 0)
(-2552.99 0 0)
(-2570.92 0 0)
(-2582.34 0 0)
(-2584.42 0 0)
(-2591.48 0 0)
(-2594.83 0 0)
(-2602.78 0 0)
(-2610.23 0 0)
(-2625.25 0 0)
(-2637.5 0 0)
(-2642.27 0 0)
(-2649.55 0 0)
(-2660.47 0 0)
(-2669.72 0 0)
(-2679.43 0 0)
(-2690.17 0 0)
(-2697.66 0 0)
(-2703.64 0 0)
(-2711.94 0 0)
(-2722.24 0 0)
(-2733.1 0 0)
(-2743 0 0)
(-2750.61 0 0)
(-2756.87 0 0)
(-2764.76 0 0)
(-2775.2 0 0)
(-2786.96 0 0)
(-2797.7 0 0)
(-2806.02 0 0)
(-2813.19 0 0)
(-2821.09 0 0)
(-2830.67 0 0)
(-2841.29 0 0)
(-2851.67 0 0)
(-2860.42 0 0)
(-2867.8 0 0)
(-2875.97 0 0)
(-2886.4 0 0)
(-2898.3 0 0)
(-2909.78 0 0)
(-2919.67 0 0)
(-2927.32 0 0)
(-2934.42 0 0)
(-2943.21 0 0)
(-2953.99 0 0)
(-2965.28 0 0)
(-2975.73 0 0)
(-2984.6 0 0)
(-2992.38 0 0)
(-3001.35 0 0)
(-3012.43 0 0)
(-3024.24 0 0)
(-3035.24 0 0)
(-3044.5 0 0)
(-3051.88 0 0)
(-3059.49 0 0)
(-3069.54 0 0)
(-3081.22 0 0)
(-3092.44 0 0)
(-3102.52 0 0)
(-3111.12 0 0)
(-3118.63 0 0)
(-3127.42 0 0)
(-3138.53 0 0)
(-3149.97 0 0)
(-3160.12 0 0)
(-3168.82 0 0)
(-3176.29 0 0)
(-3183.82 0 0)
(-3193.62 0 0)
(-3205.29 0 0)
(-3216.06 0 0)
(-3224.92 0 0)
(-3232.65 0 0)
(-3240.17 0 0)
(-3248.31 0 0)
(-3257.98 0 0)
(-3268.71 0 0)
(-3278.61 0 0)
(-3286.44 0 0)
(-3292.9 0 0)
(-3299.91 0 0)
(-3308.68 0 0)
(-3318.83 0 0)
(-3328.74 0 0)
(-3336.92 0 0)
(-3343.41 0 0)
(-3349.43 0 0)
(-3356.45 0 0)
(-3365.07 0 0)
(-3374.52 0 0)
(-3383.46 0 0)
(-3390.77 0 0)
(-3396.51 0 0)
(-3402.15 0 0)
(-3409.31 0 0)
(-3418.29 0 0)
(-3427.37 0 0)
(-3434.75 0 0)
(-3440.32 0 0)
(-3445.35 0 0)
(-3451.12 0 0)
(-3458.32 0 0)
(-3466.8 0 0)
(-3475.18 0 0)
(-3481.91 0 0)
(-3486.8 0 0)
(-3491.54 0 0)
(-3497.75 0 0)
(-3505.36 0 0)
(-3513.38 0 0)
(-3520.81 0 0)
(-3526.87 0 0)
(-3531.45 0 0)
(-3535.9 0 0)
(-3541.92 0 0)
(-3549.76 0 0)
(-3557.96 0 0)
(-3564.85 0 0)
(-3570.03 0 0)
(-3574.35 0 0)
(-3579.25 0 0)
(-3585.88 0 0)
(-3594.04 0 0)
(-3601.95 0 0)
(-3608.05 0 0)
(-3612.48 0 0)
(-3616.75 0 0)
(-3622.36 0 0)
(-3629.68 0 0)
(-3637.69 0 0)
(-3644.84 0 0)
(-3650.46 0 0)
(-3655.13 0 0)
(-3660.02 0 0)
(-3665.97 0 0)
(-3673.17 0 0)
(-3680.97 0 0)
(-3688.2 0 0)
(-3693.83 0 0)
(-3698.29 0 0)
(-3703.05 0 0)
(-3709.35 0 0)
(-3717.07 0 0)
(-3725.07 0 0)
(-3732.13 0 0)
(-3737.47 0 0)
(-3741.78 0 0)
(-3746.66 0 0)
(-3753.28 0 0)
(-3761.29 0 0)
(-3769 0 0)
(-3775.33 0 0)
(-3780.39 0 0)
(-3785.11 0 0)
(-3790.51 0 0)
(-3797.18 0 0)
(-3805.04 0 0)
(-3812.97 0 0)
(-3819.72 0 0)
(-3824.86 0 0)
(-3829.53 0 0)
(-3835.24 0 0)
(-3842.65 0 0)
(-3850.94 0 0)
(-3858.56 0 0)
(-3864.61 0 0)
(-3869.47 0 0)
(-3874.5 0 0)
(-3880.76 0 0)
(-3888.36 0 0)
(-3896.46 0 0)
(-3903.93 0 0)
(-3910.07 0 0)
(-3915.13 0 0)
(-3920.24 0 0)
(-3926.62 0 0)
(-3934.43 0 0)
(-3942.77 0 0)
(-3950.23 0 0)
(-3956.11 0 0)
(-3960.99 0 0)
(-3966.15 0 0)
(-3972.74 0 0)
(-3980.8 0 0)
(-3989.18 0 0)
(-3996.56 0 0)
(-4002.32 0 0)
(-4007.19 0 0)
(-4012.61 0 0)
(-4019.61 0 0)
(-4027.85 0 0)
(-4036.11 0 0)
(-4043.3 0 0)
(-4049.09 0 0)
(-4054.37 0 0)
(-4060.09 0 0)
(-4066.93 0 0)
(-4074.83 0 0)
(-4083.09 0 0)
(-4090.7 0 0)
(-4096.97 0 0)
(-4102.26 0 0)
(-4107.65 0 0)
(-4114.45 0 0)
(-4122.81 0 0)
(-4131.67 0 0)
(-4139.24 0 0)
(-4144.88 0 0)
(-4149.54 0 0)
(-4155.04 0 0)
(-4162.66 0 0)
(-4171.77 0 0)
(-4180.62 0 0)
(-4187.55 0 0)
(-4192.68 0 0)
(-4197.41 0 0)
(-4203.59 0 0)
(-4211.88 0 0)
(-4221.18 0 0)
(-4229.73 0 0)
(-4236.28 0 0)
(-4241.2 0 0)
(-4246.23 0 0)
(-4253.02 0 0)
(-4261.78 0 0)
(-4271.05 0 0)
(-4279.07 0 0)
(-4285.02 0 0)
(-4289.9 0 0)
(-4295.59 0 0)
(-4303.24 0 0)
(-4312.46 0 0)
(-4321.45 0 0)
(-4328.8 0 0)
(-4334.32 0 0)
(-4339.42 0 0)
(-4345.82 0 0)
(-4354.09 0 0)
(-4363.32 0 0)
(-4371.79 0 0)
(-4378.5 0 0)
(-4383.98 0 0)
(-4389.68 0 0)
(-4396.92 0 0)
(-4405.74 0 0)
(-4414.8 0 0)
(-4422.7 0 0)
(-4428.86 0 0)
(-4434.31 0 0)
(-4440.44 0 0)
(-4448.32 0 0)
(-4457.47 0 0)
(-4466.47 0 0)
(-4474.04 0 0)
(-4479.93 0 0)
(-4485.45 0 0)
(-4492.02 0 0)
(-4500.49 0 0)
(-4509.99 0 0)
(-4518.86 0 0)
(-4525.85 0 0)
(-4531.28 0 0)
(-4536.72 0 0)
(-4543.82 0 0)
(-4553.01 0 0)
(-4562.92 0 0)
(-4571.74 0 0)
(-4578.33 0 0)
(-4583.42 0 0)
(-4589 0 0)
(-4596.58 0 0)
(-4606.2 0 0)
(-4616.17 0 0)
(-4624.61 0 0)
(-4630.76 0 0)
(-4635.84 0 0)
(-4641.87 0 0)
(-4650.04 0 0)
(-4660.08 0 0)
(-4669.91 0 0)
(-4677.97 0 0)
(-4683.98 0 0)
(-4689.23 0 0)
(-4695.81 0 0)
(-4704.41 0 0)
(-4714.42 0 0)
(-4723.87 0 0)
(-4731.49 0 0)
(-4737.38 0 0)
(-4743.07 0 0)
(-4750.17 0 0)
(-4759.12 0 0)
(-4769.03 0 0)
(-4778.11 0 0)
(-4785.59 0 0)
(-4791.69 0 0)
(-4797.92 0 0)
(-4805.51 0 0)
(-4814.62 0 0)
(-4824.22 0 0)
(-4833 0 0)
(-4840.29 0 0)
(-4846.57 0 0)
(-4853.17 0 0)
(-4860.92 0 0)
(-4869.99 0 0)
(-4879.35 0 0)
(-4888.03 0 0)
(-4895.58 0 0)
(-4902.4 0 0)
(-4909.38 0 0)
(-4917.34 0 0)
(-4926.27 0 0)
(-4935.49 0 0)
(-4944.18 0 0)
(-4951.9 0 0)
(-4958.95 0 0)
(-4966.01 0 0)
(-4973.87 0 0)
(-4982.48 0 0)
(-4991.6 0 0)
(-5000.35 0 0)
(-5008.4 0 0)
(-5015.87 0 0)
(-5023.16 0 0)
(-5031.1 0 0)
(-5039.63 0 0)
(-5048.69 0 0)
(-5057.58 0 0)
(-5065.85 0 0)
(-5073.62 0 0)
(-5081.04 0 0)
(-5088.89 0 0)
(-5097.24 0 0)
(-5106.15 0 0)
(-5115.13 0 0)
(-5123.6 0 0)
(-5131.79 0 0)
(-5139.33 0 0)
(-5147.29 0 0)
(-5155.31 0 0)
(-5164.08 0 0)
(-5173.03 0 0)
(-5181.83 0 0)
(-5190.53 0 0)
(-5198.32 0 0)
(-5206.45 0 0)
(-5214.25 0 0)
(-5222.8 0 0)
(-5231.56 0 0)
(-5240.43 0 0)
(-5249.38 0 0)
(-5257.69 0 0)
(-5266.03 0 0)
(-5274.11 0 0)
(-5282.3 0 0)
(-5291.12 0 0)
(-5299.68 0 0)
(-5309.01 0 0)
(-5317.49 0 0)
(-5326.3 0 0)
(-5334.58 0 0)
(-5342.77 0 0)
(-5351.51 0 0)
(-5359.68 0 0)
(-5369.1 0 0)
(-5377.33 0 0)
(-5386.9 0 0)
(-5394.99 0 0)
(-5404.07 0 0)
(-5412.39 0 0)
(-5420.93 0 0)
(-5429.95 0 0)
(-5438.14 0 0)
(-5447.92 0 0)
(-5455.56 0 0)
(-5465.86 0 0)
(-5473.17 0 0)
(-5483.19 0 0)
(-5491.33 0 0)
(-5499.88 0 0)
(-5509.97 0 0)
(-5516.61 0 0)
(-5528.53 0 0)
(-5534.22 0 0)
(-5546.15 0 0)
(-5552.98 0 0)
(-5562.81 0 0)
(-5572.25 0 0)
(-5579.36 0 0)
(-5591.2 0 0)
(-5596.54 0 0)
(-5609.59 0 0)
(-5614.5 0 0)
(-5627.18 0 0)
(-5633.72 0 0)
(-5643.87 0 0)
(-5653.72 0 0)
(-5660.4 0 0)
(-5673.46 0 0)
(-5677.28 0 0)
(-5692.62 0 0)
(-5695.07 0 0)
(-5710.46 0 0)
(-5714.97 0 0)
(-5726.26 0 0)
(-5736.6 0 0)
(-5741.69 0 0)
(-5757.47 0 0)
(-5758.58 0 0)
(-5776.93 0 0)
(-5776.43 0 0)
(-5795.33 0 0)
(-5796.33 0 0)
(-5810.75 0 0)
(-5819.68 0 0)
(-5824.51 0 0)
(-5842.19 0 0)
(-5841.35 0 0)
(-5860.94 0 0)
(-5861.15 0 0)
(-5878.08 0 0)
(-5881.74 0 0)
(-5894.63 0 0)
(-5903.08 0 0)
(-5910.89 0 0)
(-5924.61 0 0)
(-5927.44 0 0)
(-5945.09 0 0)
(-5946.29 0 0)
(-5962.12 0 0)
(-5968.4 0 0)
(-5978.27 0 0)
(-5988.45 0 0)
(-5998.27 0 0)
(-6006.62 0 0)
(-6016.51 0 0)
(-6029.11 0 0)
(-6031.73 0 0)
(-6050.65 0 0)
(-6051.03 0 0)
(-6068.16 0 0)
(-6072.37 0 0)
(-6084.95 0 0)
(-6095.2 0 0)
(-6100.13 0 0)
(-6117.78 0 0)
(-6119.4 0 0)
(-6134.87 0 0)
(-6141.68 0 0)
(-6154.34 0 0)
(-6158.57 0 0)
(-6176.67 0 0)
(-6178.52 0 0)
(-6192.51 0 0)
(-6202.79 0 0)
(-6209.43 0 0)
(-6223.41 0 0)
(-6228.33 0 0)
(-6246.03 0 0)
(-6244.48 0 0)
(-6268.79 0 0)
(-6264.59 0 0)
(-6285.76 0 0)
(-6289.93 0 0)
(-6300.22 0 0)
(-6314.7 0 0)
(-6317.29 0 0)
(-6337.14 0 0)
(-6335.49 0 0)
(-6359.13 0 0)
(-6356.29 0 0)
(-6375.02 0 0)
(-6385.25 0 0)
(-6386.67 0 0)
(-6410.69 0 0)
(-6409.02 0 0)
(-6425.08 0 0)
(-6436.07 0 0)
(-6444.59 0 0)
(-6452.08 0 0)
(-6472.91 0 0)
(-6471.87 0 0)
(-6483.26 0 0)
(-6511.46 0 0)
(-6491.78 0 0)
(-6527.85 0 0)
(-6532.93 0 0)
(-6530.26 0 0)
(-6557.52 0 0)
(-6562.92 0 0)
(-6569.2 0 0)
(-6579.36 0 0)
(-6607.72 0 0)
(-6591 0 0)
(-6618.17 0 0)
(-6639.69 0 0)
(-6619.95 0 0)
(-6658.21 0 0)
(-6663.11 0 0)
(-6663.29 0 0)
(-6682.92 0 0)
(-6700.95 0 0)
(-6695.25 0 0)
(-6716.96 0 0)
(-6733.64 0 0)
(-6728.05 0 0)
(-6755.03 0 0)
(-6760.15 0 0)
(-6768.72 0 0)
(-6784.74 0 0)
(-6794.91 0 0)
(-6804.53 0 0)
(-6815.74 0 0)
(-6830.87 0 0)
(-6838.56 0 0)
(-6849.14 0 0)
(-6865.57 0 0)
(-6874.06 0 0)
(-6879.63 0 0)
(-6905.14 0 0)
(-6906.39 0 0)
(-6911.97 0 0)
(-6942.23 0 0)
(-6940.27 0 0)
(-6950.35 0 0)
(-6967.77 0 0)
(-6982.45 0 0)
(-6985.1 0 0)
(-6999.27 0 0)
(-7017.21 0 0)
(-7020.31 0 0)
(-7035.75 0 0)
(-7048.86 0 0)
(-7057.86 0 0)
(-7066.56 0 0)
(-7084.5 0 0)
(-7094.27 0 0)
(-7101.82 0 0)
(-7113.06 0 0)
(-7131.15 0 0)
(-7140.63 0 0)
(-7142.81 0 0)
(-7164.75 0 0)
(-7175.21 0 0)
(-7180.51 0 0)
(-7195.33 0 0)
(-7208.13 0 0)
(-7218.2 0 0)
(-7226.16 0 0)
(-7240.97 0 0)
(-7255.42 0 0)
(-7259.76 0 0)
(-7268.85 0 0)
(-7293.1 0 0)
(-7296.07 0 0)
(-7296.39 0 0)
(-7327.17 0 0)
(-7333.47 0 0)
(-7328.34 0 0)
(-7354.45 0 0)
(-7369.33 0 0)
(-7368.71 0 0)
(-7381.62 0 0)
(-7395.64 0 0)
(-7406.4 0 0)
(-7419.46 0 0)
(-7427.1 0 0)
(-7433.48 0 0)
(-7448.78 0 0)
(-7465.04 0 0)
(-7471.95 0 0)
(-7476.68 0 0)
(-7489.98 0 0)
(-7506.55 0 0)
(-7515.38 0 0)
(-7521.68 0 0)
(-7535.08 0 0)
(-7547.42 0 0)
(-7553.58 0 0)
(-7565.44 0 0)
(-7582.92 0 0)
(-7591.79 0 0)
(-7594.03 0 0)
(-7603.8 0 0)
(-7622.92 0 0)
(-7640.75 0 0)
(-7645.89 0 0)
(-7640.77 0 0)
(-7651.65 0 0)
(-7686.72 0 0)
(-7705.32 0 0)
(-7686.77 0 0)
(-7680.52 0 0)
(-7719.94 0 0)
(-7755.77 0 0)
(-7745.78 0 0)
(-7726.69 0 0)
(-7746.88 0 0)
(-7785.49 0 0)
(-7800.16 0 0)
(-7789.62 0 0)
(-7790.6 0 0)
(-7809.73 0 0)
(-7834.31 0 0)
(-7843.16 0 0)
(-7850.55 0 0)
(-7851.82 0 0)
(-7866.95 0 0)
(-7878.28 0 0)
(-7901.66 0 0)
(-7903.05 0 0)
(-7913.62 0 0)
(-7915.76 0 0)
(-7942 0 0)
(-7945.29 0 0)
(-7964.12 0 0)
(-7963.02 0 0)
(-7985.37 0 0)
(-7985.1 0 0)
(-8004.9 0 0)
(-8010 0 0)
(-8032.02 0 0)
(-8033.11 0 0)
(-8048.6 0 0)
(-8048.78 0 0)
(-8073.99 0 0)
(-8079.43 0 0)
(-8100.93 0 0)
(-8098.56 0 0)
(-8104.27 0 0)
(-8120.35 0 0)
(-8140.66 0 0)
(-8159.57 0 0)
(-8163.77 0 0)
(-8160.16 0 0)
(-8166.74 0 0)
(-8189.47 0 0)
(-8212.1 0 0)
(-8226.38 0 0)
(-8227.47 0 0)
(-8230 0 0)
(-8237.93 0 0)
(-8254.62 0 0)
(-8274.83 0 0)
(-8292.78 0 0)
(-8300.22 0 0)
(-8299.3 0 0)
(-8303 0 0)
(-8319.84 0 0)
(-8343.56 0 0)
(-8361.4 0 0)
(-8375.81 0 0)
(-8374.08 0 0)
(-8373.15 0 0)
(-8390.01 0 0)
(-8417.03 0 0)
(-8435.63 0 0)
(-8457.81 0 0)
(-8471.89 0 0)
(-8474.63 0 0)
(-8479.8 0 0)
(-8492.55 0 0)
(-8509.3 0 0)
(-8538.12 0 0)
(-8557.28 0 0)
(-8572.33 0 0)
(-8581.18 0 0)
(-8582.39 0 0)
(-8590.32 0 0)
(-8600.56 0 0)
(-8617.38 0 0)
(-8640.09 0 0)
)
;

boundaryField
{
    sides
    {
        type            calculated;
        value           nonuniform List<vector> 2((-8640.09 0 0) (-45.5597 0 0));
    }
    empty
    {
        type            empty;
    }
}


// ************************************************************************* //
