/*--------------------------------*- C++ -*----------------------------------*\
  =========                 |
  \\      /  F ield         | OpenFOAM: The Open Source CFD Toolbox
   \\    /   O peration     | Website:  https://openfoam.org
    \\  /    A nd           | Version:  9
     \\/     M anipulation  |
\*---------------------------------------------------------------------------*/
FoamFile
{
    format      ascii;
    class       surfaceScalarField;
    location    "0.033";
    object      ddtCorrDdt0(phi);
}
// * * * * * * * * * * * * * * * * * * * * * * * * * * * * * * * * * * * * * //

dimensions      [1 0 -2 0 0 0 0];

internalField   nonuniform List<scalar> 
999
(
-213.035
-244.133
-275.263
-306.397
-337.461
-368.325
-399.057
-429.942
-461.124
-492.366
-523.374
-554.087
-584.584
-615.069
-645.824
-676.944
-708.361
-739.857
-770.933
-801.297
-831.18
-860.871
-890.642
-920.764
-951.262
-982.385
-1014.42
-1046.95
-1079.6
-1112.35
-1144.91
-1177.41
-1209.59
-1240.67
-1271.44
-1302.89
-1334.17
-1367.06
-1400.3
-1432.17
-1463.17
-1493.99
-1525.34
-1556.47
-1587.1
-1617.78
-1648.85
-1679.97
-1710.9
-1741.82
-1772.9
-1803.97
-1834.8
-1865.52
-1896.34
-1927.27
-1958.18
-1989.08
-2020.06
-2051.14
-2082.13
-2113.02
-2143.84
-2174.74
-2205.53
-2236.33
-2267.01
-2297.92
-2328.82
-2359.67
-2390.72
-2421.47
-2452.27
-2483.13
-2513.99
-2544.56
-2575.62
-2606.13
-2637.16
-2668
-2698.42
-2729.9
-2759.98
-2791.15
-2821.87
-2851.96
-2883.69
-2913.54
-2944.57
-2976.05
-3005.48
-3037.37
-3068.04
-3097.48
-3129.81
-3159.66
-3189.39
-3222.1
-3251.42
-3281.42
-3314.45
-3343.42
-3373.35
-3406.72
-3435.51
-3464.91
-3498.68
-3527.7
-3556.18
-3590.31
-3620.22
-3647.57
-3681.56
-3713.13
-3739.45
-3772.17
-3805.83
-3832.03
-3862.22
-3897.57
-3925.47
-3952.58
-3987.87
-4019.26
-4044.42
-4076.95
-4111.92
-4138.15
-4166.22
-4202.19
-4232.63
-4257.64
-4290.57
-4325.55
-4351.78
-4379.47
-4415.29
-4446.58
-4471.36
-4502.91
-4538.7
-4566.24
-4592.01
-4626.75
-4660.71
-4685.71
-4713.84
-4750.44
-4781.94
-4805.7
-4836.26
-4873.62
-4902.74
-4926.01
-4958.55
-4996.08
-5023.44
-5046.47
-5080.43
-5118.16
-5144.49
-5167.25
-5201.87
-5240.09
-5266.12
-5288.25
-5322.74
-5361.63
-5388.15
-5409.51
-5442.97
-5482.52
-5510.45
-5531.22
-5562.83
-5602.74
-5632.84
-5653.5
-5682.68
-5722.37
-5755.05
-5776.24
-5802.7
-5841.45
-5876.99
-5899.54
-5922.92
-5959.72
-5998.45
-6023.78
-6043.96
-6076.8
-6118.25
-6148.85
-6167.41
-6193.66
-6234.71
-6272.62
-6294.32
-6313.61
-6348.56
-6391.61
-6421.86
-6439.25
-6464.51
-6505.48
-6544.75
-6567.94
-6586.51
-6618.99
-6661.46
-6694.16
-6713.21
-6736.46
-6775.02
-6815.67
-6841.68
-6859.17
-6887.95
-6930.87
-6968.73
-6989.24
-7006.28
-7039.69
-7085.4
-7120.76
-7137.77
-7155.14
-7191.33
-7237.87
-7271.49
-7287.4
-7305.98
-7343.46
-7389.09
-7420.98
-7437.14
-7457.82
-7496.53
-7541.03
-7570.82
-7586.26
-7608.25
-7649.02
-7694.63
-7723.65
-7736.82
-7756.95
-7798.38
-7847.2
-7879.13
-7891.65
-7907.71
-7945.87
-7996.06
-8032.84
-8048.42
-8062.42
-8096.02
-8144.57
-8184.22
-8203.03
-8216.61
-8247.42
-8295.56
-8338.32
-8359.29
-8369.97
-8395.43
-8443.01
-8492.39
-8520.53
-8530.05
-8546.09
-8586.16
-8638.81
-8678.01
-8694.24
-8705.46
-8735.04
-8783.69
-8829.38
-8854.21
-8865.83
-8887.94
-8931.66
-8982.09
-9015.97
-9029.14
-9041.86
-9075.63
-9128.15
-9175.81
-9200.35
-9209.2
-9227.18
-9268.72
-9321.99
-9362.86
-9381.63
-9393.3
-9420.48
-9467.98
-9517.9
-9548.68
-9562.69
-9579.27
-9610.27
-9670.62
-9716.28
-9738.86
-9756.07
-9769.35
-9802.71
-9857.89
-9916.39
-9933.74
-9952
-9971.47
-10001
-10058.7
-10110
-10125.9
-10150.6
-10169
-10208.2
-10238.8
-10313.6
-10332.5
-10350.9
-10375.1
-10403.5
-10422.7
-10447.3
-10580.6
-10554.3
-10581.7
-10619.9
-10662.5
-10695.9
-10738.8
-10777
-10802
-10830.6
-10868.6
-10910.7
-10952.2
-10987.6
-11015.1
-11043
-11079.8
-11124.6
-11169.5
-11207.5
-11238.4
-11268.6
-11303.6
-11344.1
-11386
-11424.2
-11456.4
-11487.5
-11524.7
-11569.4
-11616.2
-11659
-11694.2
-11723.6
-11755.3
-11794.4
-11838.6
-11882.1
-11920.7
-11954
-11987.5
-12027.6
-12073.3
-12119
-12159.6
-12192.9
-12222.8
-12258.1
-12301.5
-12347.3
-12390
-12427.3
-12459.5
-12492.1
-12531.9
-12577
-12620.2
-12657.9
-12690.3
-12720.3
-12754.9
-12797.8
-12842.7
-12882
-12915.2
-12945.6
-12976.9
-13012.6
-13053.4
-13094.6
-13130.1
-13158.7
-13185.6
-13217.2
-13255
-13295.1
-13331.3
-13360.7
-13385.7
-13411.7
-13443
-13479.1
-13515.9
-13548.5
-13574.6
-13597.3
-13622.9
-13655.2
-13691.3
-13724.2
-13750.2
-13771.3
-13792.9
-13818.8
-13850.2
-13883.9
-13914.2
-13937.4
-13956.7
-13978.6
-14006.2
-14037.5
-14068.4
-14095.4
-14116.6
-14134.7
-14155.6
-14183.3
-14215.4
-14245.6
-14269.8
-14288.8
-14307.2
-14330.2
-14359.8
-14392
-14420
-14441.1
-14458.4
-14478.2
-14504
-14534.7
-14565.1
-14590.6
-14611.2
-14630.3
-14652
-14678.3
-14708.2
-14738.3
-14764.1
-14784.2
-14802.7
-14824.8
-14852.8
-14884.2
-14914.4
-14939.2
-14958.5
-14976.9
-14999.9
-15029.1
-15060.6
-15088.7
-15111.5
-15131
-15151.2
-15175.3
-15204.4
-15236
-15265.4
-15289.2
-15308.8
-15329.5
-15355.8
-15387.2
-15419
-15446.3
-15468.2
-15487.9
-15510.5
-15538.2
-15569.6
-15600.8
-15628
-15650.4
-15670.7
-15693.7
-15722.1
-15754.4
-15786
-15812.7
-15834.2
-15854.3
-15877.8
-15907.1
-15939.9
-15971.5
-15997.8
-16019
-16039.6
-16064.4
-16094.9
-16127.9
-16158.8
-16184.8
-16206.9
-16228.9
-16254
-16283.5
-16315.8
-16347.6
-16375.3
-16398.5
-16419.8
-16444.2
-16474.5
-16508.9
-16541.8
-16568.3
-16588.9
-16609.2
-16635.4
-16668.8
-16704.8
-16736.3
-16760.5
-16780.2
-16802
-16830.9
-16866.1
-16901.8
-16932
-16955
-16974.9
-16998.5
-17029.6
-17065.6
-17100.2
-17128.2
-17149.9
-17171
-17197.6
-17231.4
-17267.8
-17300.5
-17326.3
-17347.5
-17370.5
-17399.8
-17434.8
-17470.2
-17500.6
-17525
-17547.3
-17573.2
-17605.3
-17641.1
-17675
-17703.2
-17726.4
-17749.5
-17777.5
-17811.5
-17847.9
-17881
-17908
-17930.8
-17954.9
-17985
-18020.9
-18057.7
-18089.4
-18114.3
-18136
-18161.1
-18193.6
-18231.8
-18269.3
-18300.2
-18323.5
-18344.8
-18371.1
-18405.5
-18444.7
-18481.6
-18510.8
-18533.2
-18555.4
-18583.8
-18620.2
-18660
-18695.8
-18723.9
-18746.5
-18770.1
-18800.4
-18837.6
-18876.6
-18910.7
-18937.8
-18960.9
-18986.5
-19018.5
-19056.3
-19094.3
-19127.4
-19154.6
-19179.2
-19206.8
-19240.2
-19277.7
-19314.4
-19346.6
-19373.7
-19399.5
-19428.2
-19461.8
-19498.7
-19534.8
-19567.2
-19596
-19623.6
-19653.4
-19687.2
-19723.5
-19759.3
-19792.2
-19821.7
-19849.9
-19879.7
-19912.7
-19948.1
-19983.9
-20017.5
-20048.5
-20078.1
-20108.5
-20141.4
-20176.6
-20212.5
-20246.9
-20278.9
-20309.3
-20339.8
-20372.3
-20406.8
-20442.5
-20477.5
-20510.8
-20542.2
-20573.2
-20605.2
-20638.8
-20674.2
-20709.7
-20744.7
-20777.7
-20809.5
-20841.4
-20874.1
-20908.7
-20944
-20979.6
-21014.2
-21047.4
-21080.3
-21112.8
-21146.8
-21181.6
-21217.4
-21253
-21287.6
-21321.8
-21354.7
-21388.5
-21422.4
-21457.6
-21492.9
-21528.4
-21563.8
-21598.1
-21632.9
-21666.6
-21701.7
-21736.2
-21772.1
-21807
-21842.8
-21878.1
-21912.7
-21949
-21982.4
-22019.7
-22053.2
-22090.3
-22125.5
-22160.7
-22198.3
-22231.6
-22270.1
-22303.2
-22341.1
-22375.5
-22412.2
-22448.2
-22483.3
-22521.8
-22555.2
-22595.2
-22628.2
-22667.7
-22701.5
-22739.8
-22775.4
-22811
-22850.9
-22882.5
-22925.7
-22956.6
-22998.3
-23032.1
-23071
-23106.7
-23143.5
-23183.3
-23214.1
-23260.8
-23288.4
-23333.4
-23367.1
-23404.6
-23444.2
-23478.4
-23519.6
-23552.7
-23595.4
-23627.9
-23671
-23704.1
-23745
-23782.8
-23816.8
-23861
-23893.3
-23933.4
-23973.4
-24009.8
-24046.2
-24091.2
-24121.7
-24164.8
-24203.4
-24238.4
-24281.1
-24314.6
-24360.3
-24390.7
-24435.8
-24474.4
-24508.5
-24553.1
-24592
-24625.8
-24670.5
-24710.4
-24742
-24790.6
-24824.5
-24865.7
-24903.5
-24948.7
-24981
-25026.5
-25066.8
-25100.7
-25151.4
-25180.3
-25229.8
-25264
-25308.8
-25345.3
-25389.2
-25430.9
-25462.6
-25520.5
-25543.8
-25594.7
-25639.4
-25668.2
-25722.3
-25761.3
-25793.3
-25849.9
-25889.6
-25910.2
-25989.4
-26006.5
-26039.2
-26121.6
-26126.4
-26175.5
-26240.9
-26264.3
-26297.1
-26374.1
-26397.5
-26418.3
-26515.7
-26519.3
-26556.2
-26642.6
-26652.8
-26692.4
-26767.7
-26792.4
-26824.4
-26901.2
-26923.4
-26966.1
-27030.3
-27057.7
-27106.9
-27159.3
-27198.9
-27240.5
-27293.2
-27338.9
-27375.4
-27429.4
-27479.3
-27507.4
-27569.5
-27623.1
-27636.7
-27708.3
-27765
-27781.2
-27836.2
-27900.4
-27935.1
-27968.7
-28032.9
-28075.1
-28112.1
-28169.2
-28213.4
-28248.8
-28302.1
-28357.5
-28392.2
-28429.7
-28488.4
-28543.6
-28566.9
-28615.1
-28679.9
-28711.5
-28751.7
-28806.9
-28852.7
-28888.7
-28934.2
-28992.8
-29030.4
-29057.2
-29123.9
-29178.4
-29184.9
-29247.1
-29321.3
-29323.7
-29365.5
-29447.6
-29476.2
-29500.7
-29554.5
-29604.1
-29651.8
-29693.2
-29721.2
-29764.5
-29827.6
-29874
-29897.3
-29933.3
-29993.1
-30043.9
-30074.2
-30113.5
-30165
-30202
-30238
-30296.7
-30349.5
-30371.7
-30395.6
-30453.4
-30527.4
-30573.4
-30573.4
-30584.8
-30676.6
-30784.2
-30784.4
-30734.6
-30800.7
-30951.4
-31003.4
-30945.1
-30947
-31064.6
-31171.4
-31179.7
-31160.5
-31200.6
-31288
-31355
-31387.5
-31404.8
-31437.5
-31490.4
-31559.9
-31609.5
-31633.4
-31658.8
-31715.5
-31774.6
-31818.8
-31854.3
-31896.8
-31941
-31980
-32029.8
-32084
-32130.3
-32163.4
-32194.8
-32245.5
-32306.8
-32360.7
-32399.1
-32405.7
-32448.9
-32523.3
-32597.7
-32649.1
-32647.8
-32652.9
-32712.4
-32803.7
-32876.1
-32909
-32913.9
-32936.3
-32984.9
-33059.6
-33133.6
-33187.6
-33198.1
-33205.1
-33244.2
-33329.3
-33405.1
-33475.8
-33505.5
-33484.8
-33531.7
-33612.2
-33702
-33793.8
-33853.9
-33894.8
-33914.2
-33938.4
-34008.3
-34096.3
-34187.1
-34266
-34304.4
-34326.6
-34348.7
-34376.7
-34435.6
-34506
)
;

boundaryField
{
    sides
    {
        type            calculated;
        value           nonuniform List<scalar> 2(-34563.9 181.988);
    }
    empty
    {
        type            empty;
        value           nonuniform List<scalar> 0();
    }
}


// ************************************************************************* //
