/*--------------------------------*- C++ -*----------------------------------*\
  =========                 |
  \\      /  F ield         | OpenFOAM: The Open Source CFD Toolbox
   \\    /   O peration     | Website:  https://openfoam.org
    \\  /    A nd           | Version:  9
     \\/     M anipulation  |
\*---------------------------------------------------------------------------*/
FoamFile
{
    format      ascii;
    class       surfaceScalarField;
    location    "0.033";
    object      phi;
}
// * * * * * * * * * * * * * * * * * * * * * * * * * * * * * * * * * * * * * //

dimensions      [1 0 -1 0 0 0 0];

internalField   nonuniform List<scalar> 
999
(
20.424
20.8414
21.2586
21.6755
22.0922
22.5088
22.925
23.341
23.7567
24.1724
24.588
25.0035
25.4185
25.833
26.2472
26.6612
27.0754
27.4897
27.9041
28.3182
28.732
29.1451
29.5575
29.9693
30.3807
30.7921
31.2037
31.6157
32.0284
32.4416
32.8555
33.2697
33.6842
34.0988
34.5133
34.9278
35.3422
35.757
36.1726
36.5885
37.0043
37.4202
37.8359
38.2516
38.6671
39.0826
39.498
39.9133
40.3285
40.7436
41.1587
41.5737
41.9886
42.4034
42.8181
43.2327
43.6473
44.0618
44.4762
44.8905
45.3047
45.7189
46.133
46.547
46.9609
47.3747
47.7885
48.2021
48.6157
49.0292
49.4426
49.856
50.2692
50.6824
51.0955
51.5085
51.9214
52.3343
52.7469
53.1598
53.5722
53.9847
54.3973
54.8094
55.2219
55.6338
56.0459
56.4581
56.8697
57.2818
57.6935
58.1049
58.5168
58.9281
59.3393
59.751
60.1619
60.573
60.9844
61.3949
61.8059
62.217
62.6272
63.0379
63.4489
63.8587
64.2691
64.6799
65.0895
65.4994
65.9101
66.3196
66.7289
67.1393
67.5489
67.9577
68.3676
68.7773
69.1858
69.5951
70.0049
70.4132
70.8217
71.2313
71.6399
72.0477
72.4566
72.8656
73.2732
73.6811
74.0901
74.498
74.9051
75.3134
75.7218
76.1287
76.5359
76.9442
77.3515
77.758
78.1654
78.5732
78.9796
79.3859
79.7933
80.2004
80.6062
81.0123
81.4196
81.826
82.2312
82.6373
83.0442
83.4499
83.8547
84.2606
84.6671
85.0722
85.4766
85.8822
86.2884
86.6929
87.0968
87.5021
87.9079
88.3121
88.7155
89.1203
89.5257
89.9295
90.3325
90.7367
91.1417
91.5454
91.9478
92.3514
92.7559
93.1594
93.5615
93.9643
94.3683
94.7717
95.1734
95.5755
95.9789
96.3821
96.7836
97.1849
97.5875
97.9906
98.3921
98.7926
99.1942
99.597
99.9987
100.399
100.799
101.201
101.603
102.003
102.403
102.803
103.205
103.606
104.005
104.404
104.805
105.206
105.605
106.003
106.402
106.803
107.203
107.601
107.999
108.398
108.798
109.196
109.593
109.991
110.39
110.789
111.186
111.582
111.98
112.379
112.777
113.173
113.569
113.965
114.364
114.761
115.156
115.551
115.947
116.345
116.741
117.136
117.53
117.926
118.322
118.718
119.111
119.505
119.9
120.296
120.691
121.083
121.476
121.87
122.265
122.659
123.051
123.443
123.835
124.23
124.624
125.015
125.406
125.797
126.19
126.583
126.974
127.364
127.754
128.146
128.538
128.929
129.317
129.706
130.097
130.488
130.879
131.266
131.654
132.042
132.432
132.822
133.21
133.596
133.983
134.371
134.76
135.147
135.533
135.918
136.304
136.692
137.079
137.463
137.847
138.231
138.617
139.003
139.388
139.77
140.152
140.535
140.919
141.303
141.686
142.066
142.447
142.829
143.211
143.593
143.973
144.351
144.73
145.11
145.491
145.871
146.248
146.624
147
147.379
147.757
148.134
148.509
148.884
149.257
149.634
150.009
150.383
150.756
151.128
151.499
151.872
152.245
152.616
152.987
153.357
153.727
154.096
154.466
154.836
155.204
155.571
155.936
156.302
156.667
157.032
157.396
157.758
158.12
158.482
158.844
159.205
159.565
159.924
160.282
160.639
160.997
161.354
161.71
162.065
162.418
162.771
163.124
163.476
163.827
164.177
164.526
164.874
165.222
165.569
165.915
166.261
166.605
166.947
167.289
167.631
167.971
168.311
168.65
168.987
169.323
169.659
169.995
170.329
170.662
170.993
171.324
171.654
171.983
172.312
172.64
172.966
173.291
173.615
173.94
174.263
174.585
174.906
175.226
175.545
175.864
176.182
176.5
176.816
177.132
177.446
177.76
178.074
178.388
178.701
179.013
179.324
179.634
179.945
180.255
180.565
180.875
181.183
181.492
181.799
182.108
182.416
182.724
183.031
183.338
183.645
183.952
184.259
184.567
184.874
185.181
185.487
185.794
186.101
186.409
186.717
187.024
187.332
187.639
187.947
188.255
188.564
188.874
189.183
189.492
189.801
190.11
190.421
190.732
191.043
191.354
191.664
191.976
192.288
192.601
192.914
193.227
193.54
193.854
194.168
194.482
194.798
195.113
195.429
195.745
196.061
196.377
196.695
197.013
197.331
197.65
197.968
198.287
198.606
198.926
199.247
199.568
199.889
200.21
200.532
200.854
201.177
201.501
201.824
202.148
202.472
202.796
203.121
203.446
203.773
204.099
204.426
204.752
205.079
205.407
205.736
206.065
206.394
206.723
207.053
207.383
207.714
208.046
208.378
208.71
209.042
209.374
209.707
210.041
210.376
210.71
211.045
211.38
211.716
212.052
212.388
212.726
213.064
213.401
213.739
214.077
214.416
214.756
215.096
215.437
215.778
216.118
216.46
216.801
217.144
217.487
217.831
218.174
218.518
218.862
219.207
219.553
219.899
220.246
220.592
220.939
221.286
221.634
221.982
222.332
222.681
223.03
223.38
223.73
224.081
224.433
224.785
225.137
225.489
225.842
226.195
226.549
226.904
227.259
227.614
227.97
228.325
228.682
229.039
229.397
229.755
230.113
230.471
230.83
231.189
231.55
231.91
232.271
232.632
232.993
233.355
233.718
234.082
234.445
234.809
235.173
235.537
235.902
236.268
236.635
237.002
237.368
237.735
238.103
238.471
238.841
239.21
239.58
239.949
240.319
240.69
241.062
241.434
241.807
242.18
242.552
242.925
243.299
243.674
244.05
244.426
244.801
245.177
245.553
245.931
246.309
246.687
247.066
247.445
247.824
248.204
248.584
248.965
249.347
249.729
250.111
250.493
250.876
251.26
251.644
252.029
252.414
252.799
253.185
253.571
253.958
254.346
254.734
255.122
255.51
255.899
256.289
256.679
257.07
257.461
257.852
258.244
258.636
259.029
259.422
259.816
260.211
260.606
261.001
261.396
261.792
262.189
262.586
262.984
263.382
263.78
264.179
264.578
264.978
265.379
265.78
266.181
266.583
266.985
267.388
267.791
268.195
268.599
269.004
269.409
269.815
270.221
270.627
271.034
271.442
271.85
272.259
272.668
273.077
273.487
273.897
274.308
274.72
275.132
275.544
275.957
276.37
276.784
277.198
277.613
278.029
278.444
278.861
279.278
279.695
280.113
280.531
280.95
281.369
281.789
282.209
282.63
283.051
283.473
283.895
284.318
284.741
285.165
285.589
286.014
286.439
286.865
287.291
287.717
288.145
288.572
289.001
289.43
289.859
290.289
290.719
291.15
291.581
292.013
292.445
292.878
293.311
293.745
294.18
294.615
295.05
295.486
295.923
296.359
296.797
297.235
297.673
298.113
298.552
298.993
299.432
299.874
300.315
300.758
301.2
301.644
302.088
302.531
302.977
303.421
303.868
304.314
304.761
305.208
305.656
306.104
306.553
307.003
307.452
307.903
308.354
308.806
309.258
309.71
310.163
310.617
311.071
311.525
311.981
312.436
312.892
313.348
313.806
314.263
314.721
315.18
315.639
316.099
316.559
317.02
317.48
317.942
318.404
318.867
319.33
319.793
320.257
320.721
321.187
321.652
322.118
322.583
323.051
323.518
323.986
324.454
324.922
325.392
325.86
326.331
326.8
327.272
327.742
328.214
328.686
329.157
329.631
330.104
330.577
331.051
331.525
331.999
332.475
332.95
333.424
333.902
334.376
334.854
335.331
335.807
336.285
336.763
337.24
337.717
338.198
338.675
339.154
339.635
340.112
340.593
341.073
341.552
342.032
342.514
342.994
343.474
343.957
344.437
344.919
345.401
345.882
346.364
346.847
347.329
347.812
348.295
348.778
349.26
349.744
350.228
350.711
351.196
351.68
352.163
352.649
353.134
353.619
354.104
354.591
355.076
355.562
356.049
356.536
357.023
357.511
357.999
358.487
358.976
359.466
359.955
360.445
360.936
361.428
361.919
362.411
362.905
363.398
363.892
364.387
364.882
365.378
365.875
366.373
366.871
367.369
367.87
368.371
368.871
369.374
369.879
370.381
370.886
371.394
371.9
372.408
372.917
373.427
373.938
374.45
374.963
375.476
375.992
376.509
377.026
377.544
378.063
378.584
379.106
379.628
380.153
380.677
381.203
381.731
382.26
382.788
383.317
383.849
384.383
384.917
385.45
385.984
386.522
387.063
387.601
388.137
388.677
389.222
389.767
390.308
390.849
391.396
391.946
392.493
393.039
393.587
394.138
394.69
395.243
395.794
396.347
396.901
397.458
398.014
398.57
399.126
399.685
400.244
400.805
401.364
401.926
402.487
403.05
403.613
404.178
404.743
405.309
405.873
406.441
407.008
407.577
408.146
408.714
409.283
409.854
410.427
411.001
411.572
412.143
412.716
413.292
413.869
414.445
415.021
415.596
416.173
416.751
417.331
417.912
418.491
419.069
419.648
420.228
420.81
421.393
421.974
422.552
423.129
423.708
424.285
424.863
425.439
426.012
426.581
427.147
427.711
428.275
428.838
429.4
429.961
430.519
431.078
431.637
432.197
)
;

boundaryField
{
    sides
    {
        type            calculated;
        value           nonuniform List<scalar> 2(432.76 -20.0065);
    }
    empty
    {
        type            empty;
        value           nonuniform List<scalar> 0();
    }
}


// ************************************************************************* //
