/*--------------------------------*- C++ -*----------------------------------*\
  =========                 |
  \\      /  F ield         | OpenFOAM: The Open Source CFD Toolbox
   \\    /   O peration     | Website:  https://openfoam.org
    \\  /    A nd           | Version:  9
     \\/     M anipulation  |
\*---------------------------------------------------------------------------*/
FoamFile
{
    format      ascii;
    class       surfaceScalarField;
    location    "0.018";
    object      phi;
}
// * * * * * * * * * * * * * * * * * * * * * * * * * * * * * * * * * * * * * //

dimensions      [1 0 -1 0 0 0 0];

internalField   nonuniform List<scalar> 
99
(
84.7164
102.341
120.013
137.609
155.095
172.464
189.705
206.799
223.727
240.464
256.984
273.255
289.241
304.897
320.182
335.016
349.388
363.104
376.27
388.608
399.896
410.596
420.04
428.839
436.365
442.912
449.194
454.402
458.715
463.076
466.985
469.957
472.832
475.984
478.621
480.521
482.501
484.865
486.892
488.155
489.249
490.791
492.472
493.56
493.98
494.427
495.421
496.591
497.145
496.949
496.755
497.165
497.967
498.353
498.131
497.643
497.165
497.508
497.949
498.024
497.914
497.609
497.341
497.146
497.194
497.273
497.3
497.28
497.079
496.861
496.774
496.695
496.794
496.796
496.733
496.5
496.156
495.758
495.789
495.686
495.525
495.67
495.332
495.008
494.876
494.855
494.773
494.541
494.141
493.609
493.159
492.902
492.908
492.98
492.939
492.713
492.024
489.321
480.649
)
;

boundaryField
{
    sides
    {
        type            calculated;
        value           nonuniform List<scalar> 2(454.193 -66.9117);
    }
    empty
    {
        type            empty;
        value           nonuniform List<scalar> 0();
    }
}


// ************************************************************************* //
