/*--------------------------------*- C++ -*----------------------------------*\
  =========                 |
  \\      /  F ield         | OpenFOAM: The Open Source CFD Toolbox
   \\    /   O peration     | Website:  https://openfoam.org
    \\  /    A nd           | Version:  9
     \\/     M anipulation  |
\*---------------------------------------------------------------------------*/
FoamFile
{
    format      ascii;
    class       volVectorField;
    location    "0.018";
    object      U;
}
// * * * * * * * * * * * * * * * * * * * * * * * * * * * * * * * * * * * * * //

dimensions      [0 1 -1 0 0 0 0];

internalField   nonuniform List<vector> 
100
(
(25.3135 0 0)
(35.0319 0 0)
(42.1261 0 0)
(48.844 0 0)
(55.7338 0 0)
(62.6442 0 0)
(69.556 0 0)
(76.4734 0 0)
(83.3911 0 0)
(90.3017 0 0)
(97.1981 0 0)
(104.072 0 0)
(110.915 0 0)
(117.716 0 0)
(124.463 0 0)
(131.14 0 0)
(137.739 0 0)
(144.223 0 0)
(150.603 0 0)
(156.825 0 0)
(162.844 0 0)
(168.677 0 0)
(174.326 0 0)
(179.772 0 0)
(184.96 0 0)
(189.955 0 0)
(194.784 0 0)
(199.423 0 0)
(203.924 0 0)
(208.313 0 0)
(212.588 0 0)
(216.776 0 0)
(220.9 0 0)
(224.957 0 0)
(228.951 0 0)
(232.891 0 0)
(236.775 0 0)
(240.595 0 0)
(244.35 0 0)
(248.039 0 0)
(251.652 0 0)
(255.176 0 0)
(258.606 0 0)
(261.939 0 0)
(265.161 0 0)
(268.254 0 0)
(271.204 0 0)
(274.008 0 0)
(276.656 0 0)
(279.129 0 0)
(281.409 0 0)
(283.484 0 0)
(285.353 0 0)
(287.014 0 0)
(288.452 0 0)
(289.688 0 0)
(290.672 0 0)
(291.454 0 0)
(292.124 0 0)
(292.624 0 0)
(292.989 0 0)
(293.253 0 0)
(293.419 0 0)
(293.498 0 0)
(293.528 0 0)
(293.554 0 0)
(293.569 0 0)
(293.583 0 0)
(293.591 0 0)
(293.589 0 0)
(293.58 0 0)
(293.57 0 0)
(293.56 0 0)
(293.55 0 0)
(293.533 0 0)
(293.504 0 0)
(293.458 0 0)
(293.386 0 0)
(293.291 0 0)
(293.172 0 0)
(293.006 0 0)
(292.811 0 0)
(292.605 0 0)
(292.384 0 0)
(292.173 0 0)
(291.993 0 0)
(291.851 0 0)
(291.736 0 0)
(291.638 0 0)
(291.553 0 0)
(291.485 0 0)
(291.445 0 0)
(291.452 0 0)
(291.492 0 0)
(291.515 0 0)
(291.525 0 0)
(291.569 0 0)
(291.68 0 0)
(292.099 0 0)
(292.367 0 0)
)
;

boundaryField
{
    sides
    {
        type            zeroGradient;
    }
    empty
    {
        type            empty;
    }
}


// ************************************************************************* //
