/*--------------------------------*- C++ -*----------------------------------*\
  =========                 |
  \\      /  F ield         | OpenFOAM: The Open Source CFD Toolbox
   \\    /   O peration     | Website:  https://openfoam.org
    \\  /    A nd           | Version:  9
     \\/     M anipulation  |
\*---------------------------------------------------------------------------*/
FoamFile
{
    format      ascii;
    class       volScalarField;
    location    "0.042";
    object      p;
}
// * * * * * * * * * * * * * * * * * * * * * * * * * * * * * * * * * * * * * //

dimensions      [1 -1 -2 0 0 0 0];

internalField   nonuniform List<scalar> 
10000
(
10338.7
10338.7
10338.6
10338.5
10338.5
10338.4
10338.3
10338.3
10338.2
10338.1
10338.1
10338
10337.9
10337.9
10337.8
10337.7
10337.7
10337.6
10337.5
10337.5
10337.4
10337.4
10337.3
10337.2
10337.2
10337.1
10337
10337
10336.9
10336.8
10336.8
10336.7
10336.6
10336.6
10336.5
10336.4
10336.4
10336.3
10336.2
10336.2
10336.1
10336
10336
10335.9
10335.8
10335.8
10335.7
10335.6
10335.6
10335.5
10335.4
10335.4
10335.3
10335.2
10335.2
10335.1
10335.1
10335
10334.9
10334.9
10334.8
10334.7
10334.7
10334.6
10334.5
10334.5
10334.4
10334.3
10334.3
10334.2
10334.1
10334.1
10334
10333.9
10333.9
10333.8
10333.7
10333.7
10333.6
10333.5
10333.5
10333.4
10333.3
10333.3
10333.2
10333.1
10333.1
10333
10332.9
10332.9
10332.8
10332.7
10332.7
10332.6
10332.5
10332.5
10332.4
10332.4
10332.3
10332.2
10332.2
10332.1
10332
10332
10331.9
10331.8
10331.8
10331.7
10331.6
10331.6
10331.5
10331.4
10331.4
10331.3
10331.2
10331.2
10331.1
10331
10331
10330.9
10330.8
10330.8
10330.7
10330.6
10330.6
10330.5
10330.4
10330.4
10330.3
10330.2
10330.2
10330.1
10330
10330
10329.9
10329.8
10329.8
10329.7
10329.6
10329.6
10329.5
10329.4
10329.4
10329.3
10329.3
10329.2
10329.1
10329.1
10329
10328.9
10328.9
10328.8
10328.7
10328.7
10328.6
10328.5
10328.5
10328.4
10328.3
10328.3
10328.2
10328.1
10328.1
10328
10327.9
10327.9
10327.8
10327.7
10327.7
10327.6
10327.5
10327.5
10327.4
10327.3
10327.3
10327.2
10327.1
10327.1
10327
10326.9
10326.9
10326.8
10326.7
10326.7
10326.6
10326.5
10326.5
10326.4
10326.3
10326.3
10326.2
10326.1
10326.1
10326
10325.9
10325.9
10325.8
10325.8
10325.7
10325.6
10325.6
10325.5
10325.4
10325.4
10325.3
10325.2
10325.2
10325.1
10325
10325
10324.9
10324.8
10324.8
10324.7
10324.6
10324.6
10324.5
10324.4
10324.4
10324.3
10324.2
10324.2
10324.1
10324
10324
10323.9
10323.8
10323.8
10323.7
10323.6
10323.6
10323.5
10323.4
10323.4
10323.3
10323.2
10323.2
10323.1
10323
10323
10322.9
10322.8
10322.8
10322.7
10322.6
10322.6
10322.5
10322.4
10322.4
10322.3
10322.2
10322.2
10322.1
10322
10322
10321.9
10321.8
10321.8
10321.7
10321.6
10321.6
10321.5
10321.4
10321.4
10321.3
10321.2
10321.2
10321.1
10321.1
10321
10320.9
10320.9
10320.8
10320.7
10320.7
10320.6
10320.5
10320.5
10320.4
10320.3
10320.3
10320.2
10320.1
10320.1
10320
10319.9
10319.9
10319.8
10319.7
10319.7
10319.6
10319.5
10319.5
10319.4
10319.3
10319.3
10319.2
10319.1
10319.1
10319
10318.9
10318.9
10318.8
10318.7
10318.7
10318.6
10318.5
10318.5
10318.4
10318.3
10318.3
10318.2
10318.1
10318.1
10318
10317.9
10317.9
10317.8
10317.7
10317.7
10317.6
10317.5
10317.5
10317.4
10317.3
10317.3
10317.2
10317.1
10317.1
10317
10316.9
10316.9
10316.8
10316.7
10316.7
10316.6
10316.5
10316.5
10316.4
10316.3
10316.3
10316.2
10316.1
10316.1
10316
10315.9
10315.9
10315.8
10315.7
10315.7
10315.6
10315.5
10315.5
10315.4
10315.3
10315.3
10315.2
10315.1
10315.1
10315
10314.9
10314.9
10314.8
10314.7
10314.7
10314.6
10314.5
10314.5
10314.4
10314.3
10314.3
10314.2
10314.1
10314.1
10314
10313.9
10313.9
10313.8
10313.7
10313.7
10313.6
10313.5
10313.5
10313.4
10313.3
10313.3
10313.2
10313.1
10313.1
10313
10312.9
10312.9
10312.8
10312.7
10312.7
10312.6
10312.5
10312.5
10312.4
10312.3
10312.3
10312.2
10312.1
10312.1
10312
10311.9
10311.9
10311.8
10311.7
10311.7
10311.6
10311.5
10311.5
10311.4
10311.3
10311.3
10311.2
10311.1
10311.1
10311
10310.9
10310.9
10310.8
10310.7
10310.7
10310.6
10310.5
10310.5
10310.4
10310.3
10310.3
10310.2
10310.1
10310.1
10310
10309.9
10309.9
10309.8
10309.7
10309.7
10309.6
10309.5
10309.5
10309.4
10309.3
10309.3
10309.2
10309.1
10309.1
10309
10308.9
10308.9
10308.8
10308.7
10308.7
10308.6
10308.6
10308.5
10308.4
10308.4
10308.3
10308.2
10308.2
10308.1
10308
10308
10307.9
10307.8
10307.8
10307.7
10307.6
10307.6
10307.5
10307.4
10307.4
10307.3
10307.2
10307.2
10307.1
10307
10306.9
10306.9
10306.8
10306.7
10306.7
10306.6
10306.5
10306.5
10306.4
10306.3
10306.3
10306.2
10306.1
10306.1
10306
10305.9
10305.9
10305.8
10305.7
10305.7
10305.6
10305.5
10305.5
10305.4
10305.3
10305.3
10305.2
10305.1
10305.1
10305
10304.9
10304.9
10304.8
10304.7
10304.7
10304.6
10304.5
10304.5
10304.4
10304.3
10304.3
10304.2
10304.1
10304.1
10304
10303.9
10303.9
10303.8
10303.7
10303.7
10303.6
10303.5
10303.5
10303.4
10303.3
10303.3
10303.2
10303.1
10303.1
10303
10302.9
10302.9
10302.8
10302.7
10302.7
10302.6
10302.5
10302.5
10302.4
10302.3
10302.3
10302.2
10302.1
10302.1
10302
10301.9
10301.9
10301.8
10301.7
10301.7
10301.6
10301.5
10301.5
10301.4
10301.3
10301.3
10301.2
10301.1
10301.1
10301
10300.9
10300.9
10300.8
10300.7
10300.7
10300.6
10300.5
10300.5
10300.4
10300.3
10300.3
10300.2
10300.1
10300.1
10300
10299.9
10299.9
10299.8
10299.7
10299.7
10299.6
10299.5
10299.5
10299.4
10299.3
10299.3
10299.2
10299.1
10299.1
10299
10298.9
10298.9
10298.8
10298.7
10298.7
10298.6
10298.5
10298.5
10298.4
10298.3
10298.3
10298.2
10298.1
10298.1
10298
10297.9
10297.9
10297.8
10297.7
10297.7
10297.6
10297.5
10297.5
10297.4
10297.3
10297.3
10297.2
10297.1
10297.1
10297
10296.9
10296.9
10296.8
10296.7
10296.7
10296.6
10296.5
10296.5
10296.4
10296.3
10296.3
10296.2
10296.1
10296.1
10296
10295.9
10295.9
10295.8
10295.7
10295.7
10295.6
10295.5
10295.5
10295.4
10295.3
10295.3
10295.2
10295.1
10295.1
10295
10294.9
10294.9
10294.8
10294.7
10294.7
10294.6
10294.5
10294.5
10294.4
10294.3
10294.3
10294.2
10294.1
10294.1
10294
10293.9
10293.9
10293.8
10293.7
10293.7
10293.6
10293.5
10293.5
10293.4
10293.3
10293.3
10293.2
10293.1
10293.1
10293
10292.9
10292.9
10292.8
10292.7
10292.7
10292.6
10292.5
10292.5
10292.4
10292.3
10292.3
10292.2
10292.1
10292.1
10292
10291.9
10291.9
10291.8
10291.7
10291.7
10291.6
10291.5
10291.5
10291.4
10291.3
10291.3
10291.2
10291.1
10291.1
10291
10290.9
10290.9
10290.8
10290.7
10290.7
10290.6
10290.5
10290.5
10290.4
10290.3
10290.3
10290.2
10290.1
10290.1
10290
10289.9
10289.9
10289.8
10289.7
10289.7
10289.6
10289.5
10289.5
10289.4
10289.3
10289.3
10289.2
10289.1
10289.1
10289
10288.9
10288.9
10288.8
10288.7
10288.7
10288.6
10288.5
10288.5
10288.4
10288.3
10288.3
10288.2
10288.1
10288.1
10288
10288
10287.9
10287.8
10287.8
10287.7
10287.6
10287.6
10287.5
10287.4
10287.4
10287.3
10287.2
10287.2
10287.1
10287
10287
10286.9
10286.8
10286.8
10286.7
10286.6
10286.6
10286.5
10286.4
10286.4
10286.3
10286.2
10286.2
10286.1
10286
10286
10285.9
10285.8
10285.8
10285.7
10285.6
10285.6
10285.5
10285.4
10285.4
10285.3
10285.2
10285.2
10285.1
10285
10285
10284.9
10284.8
10284.8
10284.7
10284.6
10284.6
10284.5
10284.4
10284.4
10284.3
10284.2
10284.2
10284.1
10284
10284
10283.9
10283.8
10283.8
10283.7
10283.6
10283.6
10283.5
10283.4
10283.4
10283.3
10283.2
10283.2
10283.1
10283
10283
10282.9
10282.8
10282.8
10282.7
10282.6
10282.6
10282.5
10282.5
10282.4
10282.3
10282.3
10282.2
10282.1
10282.1
10282
10281.9
10281.9
10281.8
10281.7
10281.7
10281.6
10281.5
10281.5
10281.4
10281.3
10281.3
10281.2
10281.1
10281.1
10281
10280.9
10280.9
10280.8
10280.7
10280.7
10280.6
10280.5
10280.5
10280.4
10280.3
10280.3
10280.2
10280.1
10280.1
10280
10279.9
10279.9
10279.8
10279.7
10279.7
10279.6
10279.5
10279.5
10279.4
10279.4
10279.3
10279.2
10279.2
10279.1
10279
10279
10278.9
10278.8
10278.8
10278.7
10278.6
10278.6
10278.5
10278.4
10278.4
10278.3
10278.2
10278.2
10278.1
10278
10278
10277.9
10277.8
10277.8
10277.7
10277.6
10277.6
10277.5
10277.4
10277.4
10277.3
10277.3
10277.2
10277.1
10277.1
10277
10276.9
10276.9
10276.8
10276.7
10276.7
10276.6
10276.5
10276.5
10276.4
10276.3
10276.3
10276.2
10276.1
10276.1
10276
10275.9
10275.9
10275.8
10275.7
10275.7
10275.6
10275.6
10275.5
10275.4
10275.4
10275.3
10275.2
10275.2
10275.1
10275
10275
10274.9
10274.8
10274.8
10274.7
10274.6
10274.6
10274.5
10274.4
10274.4
10274.3
10274.2
10274.2
10274.1
10274.1
10274
10273.9
10273.9
10273.8
10273.7
10273.7
10273.6
10273.5
10273.5
10273.4
10273.3
10273.3
10273.2
10273.1
10273.1
10273
10273
10272.9
10272.8
10272.8
10272.7
10272.6
10272.6
10272.5
10272.4
10272.4
10272.3
10272.2
10272.2
10272.1
10272
10272
10271.9
10271.9
10271.8
10271.7
10271.7
10271.6
10271.5
10271.5
10271.4
10271.3
10271.3
10271.2
10271.1
10271.1
10271
10270.9
10270.9
10270.8
10270.8
10270.7
10270.6
10270.6
10270.5
10270.4
10270.4
10270.3
10270.2
10270.2
10270.1
10270
10270
10269.9
10269.9
10269.8
10269.7
10269.7
10269.6
10269.5
10269.5
10269.4
10269.3
10269.3
10269.2
10269.1
10269.1
10269
10269
10268.9
10268.8
10268.8
10268.7
10268.6
10268.6
10268.5
10268.4
10268.4
10268.3
10268.3
10268.2
10268.1
10268.1
10268
10267.9
10267.9
10267.8
10267.7
10267.7
10267.6
10267.6
10267.5
10267.4
10267.4
10267.3
10267.2
10267.2
10267.1
10267
10267
10266.9
10266.9
10266.8
10266.7
10266.7
10266.6
10266.5
10266.5
10266.4
10266.3
10266.3
10266.2
10266.2
10266.1
10266
10266
10265.9
10265.8
10265.8
10265.7
10265.7
10265.6
10265.5
10265.5
10265.4
10265.3
10265.3
10265.2
10265.1
10265.1
10265
10265
10264.9
10264.8
10264.8
10264.7
10264.6
10264.6
10264.5
10264.5
10264.4
10264.3
10264.3
10264.2
10264.1
10264.1
10264
10264
10263.9
10263.8
10263.8
10263.7
10263.6
10263.6
10263.5
10263.5
10263.4
10263.3
10263.3
10263.2
10263.1
10263.1
10263
10263
10262.9
10262.8
10262.8
10262.7
10262.6
10262.6
10262.5
10262.5
10262.4
10262.3
10262.3
10262.2
10262.2
10262.1
10262
10262
10261.9
10261.8
10261.8
10261.7
10261.7
10261.6
10261.5
10261.5
10261.4
10261.4
10261.3
10261.2
10261.2
10261.1
10261
10261
10260.9
10260.9
10260.8
10260.7
10260.7
10260.6
10260.6
10260.5
10260.4
10260.4
10260.3
10260.2
10260.2
10260.1
10260.1
10260
10259.9
10259.9
10259.8
10259.8
10259.7
10259.6
10259.6
10259.5
10259.5
10259.4
10259.3
10259.3
10259.2
10259.2
10259.1
10259
10259
10258.9
10258.9
10258.8
10258.7
10258.7
10258.6
10258.6
10258.5
10258.4
10258.4
10258.3
10258.3
10258.2
10258.1
10258.1
10258
10258
10257.9
10257.8
10257.8
10257.7
10257.7
10257.6
10257.5
10257.5
10257.4
10257.4
10257.3
10257.2
10257.2
10257.1
10257.1
10257
10256.9
10256.9
10256.8
10256.8
10256.7
10256.6
10256.6
10256.5
10256.5
10256.4
10256.3
10256.3
10256.2
10256.2
10256.1
10256.1
10256
10255.9
10255.9
10255.8
10255.8
10255.7
10255.6
10255.6
10255.5
10255.5
10255.4
10255.4
10255.3
10255.2
10255.2
10255.1
10255.1
10255
10254.9
10254.9
10254.8
10254.8
10254.7
10254.7
10254.6
10254.5
10254.5
10254.4
10254.4
10254.3
10254.3
10254.2
10254.1
10254.1
10254
10254
10253.9
10253.9
10253.8
10253.7
10253.7
10253.6
10253.6
10253.5
10253.5
10253.4
10253.3
10253.3
10253.2
10253.2
10253.1
10253.1
10253
10252.9
10252.9
10252.8
10252.8
10252.7
10252.7
10252.6
10252.5
10252.5
10252.4
10252.4
10252.3
10252.3
10252.2
10252.2
10252.1
10252
10252
10251.9
10251.9
10251.8
10251.8
10251.7
10251.7
10251.6
10251.5
10251.5
10251.4
10251.4
10251.3
10251.3
10251.2
10251.2
10251.1
10251.1
10251
10250.9
10250.9
10250.8
10250.8
10250.7
10250.7
10250.6
10250.6
10250.5
10250.5
10250.4
10250.3
10250.3
10250.2
10250.2
10250.1
10250.1
10250
10250
10249.9
10249.9
10249.8
10249.8
10249.7
10249.6
10249.6
10249.5
10249.5
10249.4
10249.4
10249.3
10249.3
10249.2
10249.2
10249.1
10249.1
10249
10249
10248.9
10248.9
10248.8
10248.8
10248.7
10248.6
10248.6
10248.5
10248.5
10248.4
10248.4
10248.3
10248.3
10248.2
10248.2
10248.1
10248.1
10248
10248
10247.9
10247.9
10247.8
10247.8
10247.7
10247.7
10247.6
10247.6
10247.5
10247.5
10247.4
10247.4
10247.3
10247.3
10247.2
10247.2
10247.1
10247.1
10247
10247
10246.9
10246.9
10246.8
10246.8
10246.7
10246.7
10246.6
10246.6
10246.5
10246.5
10246.4
10246.4
10246.3
10246.3
10246.2
10246.2
10246.1
10246.1
10246
10246
10245.9
10245.9
10245.8
10245.8
10245.8
10245.7
10245.7
10245.6
10245.6
10245.5
10245.5
10245.4
10245.4
10245.3
10245.3
10245.2
10245.2
10245.1
10245.1
10245.1
10245
10245
10244.9
10244.9
10244.8
10244.8
10244.7
10244.7
10244.6
10244.6
10244.5
10244.5
10244.5
10244.4
10244.4
10244.3
10244.3
10244.2
10244.2
10244.1
10244.1
10244.1
10244
10244
10243.9
10243.9
10243.8
10243.8
10243.8
10243.7
10243.7
10243.6
10243.6
10243.5
10243.5
10243.4
10243.4
10243.4
10243.3
10243.3
10243.2
10243.2
10243.2
10243.1
10243.1
10243
10243
10242.9
10242.9
10242.9
10242.8
10242.8
10242.7
10242.7
10242.7
10242.6
10242.6
10242.5
10242.5
10242.5
10242.4
10242.4
10242.3
10242.3
10242.3
10242.2
10242.2
10242.1
10242.1
10242.1
10242
10242
10242
10241.9
10241.9
10241.8
10241.8
10241.8
10241.7
10241.7
10241.7
10241.6
10241.6
10241.5
10241.5
10241.5
10241.4
10241.4
10241.4
10241.3
10241.3
10241.3
10241.2
10241.2
10241.1
10241.1
10241.1
10241
10241
10241
10240.9
10240.9
10240.9
10240.8
10240.8
10240.8
10240.7
10240.7
10240.7
10240.6
10240.6
10240.6
10240.5
10240.5
10240.5
10240.4
10240.4
10240.4
10240.3
10240.3
10240.3
10240.3
10240.2
10240.2
10240.2
10240.1
10240.1
10240.1
10240
10240
10240
10240
10239.9
10239.9
10239.9
10239.8
10239.8
10239.8
10239.8
10239.7
10239.7
10239.7
10239.6
10239.6
10239.6
10239.6
10239.5
10239.5
10239.5
10239.5
10239.4
10239.4
10239.4
10239.4
10239.3
10239.3
10239.3
10239.3
10239.2
10239.2
10239.2
10239.2
10239.1
10239.1
10239.1
10239.1
10239
10239
10239
10239
10239
10238.9
10238.9
10238.9
10238.9
10238.9
10238.8
10238.8
10238.8
10238.8
10238.8
10238.7
10238.7
10238.7
10238.7
10238.7
10238.6
10238.6
10238.6
10238.6
10238.6
10238.6
10238.5
10238.5
10238.5
10238.5
10238.5
10238.5
10238.4
10238.4
10238.4
10238.4
10238.4
10238.4
10238.4
10238.3
10238.3
10238.3
10238.3
10238.3
10238.3
10238.3
10238.3
10238.2
10238.2
10238.2
10238.2
10238.2
10238.2
10238.2
10238.2
10238.2
10238.2
10238.1
10238.1
10238.1
10238.1
10238.1
10238.1
10238.1
10238.1
10238.1
10238.1
10238.1
10238.1
10238.1
10238.1
10238.1
10238
10238
10238
10238
10238
10238
10238
10238
10238
10238
10238
10238
10238
10238
10238
10238
10238
10238
10238
10238
10238
10238
10238
10238
10238
10238
10238.1
10238.1
10238.1
10238.1
10238.1
10238.1
10238.1
10238.1
10238.1
10238.1
10238.1
10238.1
10238.1
10238.1
10238.2
10238.2
10238.2
10238.2
10238.2
10238.2
10238.2
10238.2
10238.2
10238.3
10238.3
10238.3
10238.3
10238.3
10238.3
10238.3
10238.4
10238.4
10238.4
10238.4
10238.4
10238.4
10238.5
10238.5
10238.5
10238.5
10238.5
10238.6
10238.6
10238.6
10238.6
10238.7
10238.7
10238.7
10238.7
10238.8
10238.8
10238.8
10238.8
10238.9
10238.9
10238.9
10238.9
10239
10239
10239
10239.1
10239.1
10239.1
10239.1
10239.2
10239.2
10239.2
10239.3
10239.3
10239.3
10239.4
10239.4
10239.5
10239.5
10239.5
10239.6
10239.6
10239.6
10239.7
10239.7
10239.8
10239.8
10239.8
10239.9
10239.9
10240
10240
10240.1
10240.1
10240.2
10240.2
10240.2
10240.3
10240.3
10240.4
10240.4
10240.5
10240.5
10240.6
10240.6
10240.7
10240.8
10240.8
10240.9
10240.9
10241
10241
10241.1
10241.1
10241.2
10241.3
10241.3
10241.4
10241.4
10241.5
10241.6
10241.6
10241.7
10241.8
10241.8
10241.9
10242
10242
10242.1
10242.2
10242.2
10242.3
10242.4
10242.4
10242.5
10242.6
10242.7
10242.7
10242.8
10242.9
10243
10243.1
10243.1
10243.2
10243.3
10243.4
10243.5
10243.5
10243.6
10243.7
10243.8
10243.9
10244
10244.1
10244.1
10244.2
10244.3
10244.4
10244.5
10244.6
10244.7
10244.8
10244.9
10245
10245.1
10245.2
10245.3
10245.4
10245.5
10245.6
10245.7
10245.8
10245.9
10246
10246.1
10246.2
10246.3
10246.4
10246.5
10246.7
10246.8
10246.9
10247
10247.1
10247.2
10247.4
10247.5
10247.6
10247.7
10247.8
10248
10248.1
10248.2
10248.3
10248.5
10248.6
10248.7
10248.9
10249
10249.1
10249.3
10249.4
10249.5
10249.7
10249.8
10249.9
10250.1
10250.2
10250.4
10250.5
10250.7
10250.8
10251
10251.1
10251.3
10251.4
10251.6
10251.7
10251.9
10252
10252.2
10252.3
10252.5
10252.7
10252.8
10253
10253.2
10253.3
10253.5
10253.7
10253.8
10254
10254.2
10254.3
10254.5
10254.7
10254.9
10255.1
10255.2
10255.4
10255.6
10255.8
10256
10256.2
10256.4
10256.6
10256.7
10256.9
10257.1
10257.3
10257.5
10257.7
10257.9
10258.1
10258.3
10258.5
10258.8
10259
10259.2
10259.4
10259.6
10259.8
10260
10260.3
10260.5
10260.7
10260.9
10261.1
10261.4
10261.6
10261.8
10262.1
10262.3
10262.5
10262.8
10263
10263.2
10263.5
10263.7
10264
10264.2
10264.5
10264.7
10265
10265.2
10265.5
10265.7
10266
10266.3
10266.5
10266.8
10267
10267.3
10267.6
10267.9
10268.1
10268.4
10268.7
10269
10269.2
10269.5
10269.8
10270.1
10270.4
10270.7
10271
10271.3
10271.6
10271.9
10272.2
10272.5
10272.8
10273.1
10273.4
10273.7
10274
10274.3
10274.6
10274.9
10275.3
10275.6
10275.9
10276.2
10276.6
10276.9
10277.2
10277.6
10277.9
10278.2
10278.6
10278.9
10279.3
10279.6
10279.9
10280.3
10280.7
10281
10281.4
10281.7
10282.1
10282.4
10282.8
10283.2
10283.5
10283.9
10284.3
10284.7
10285
10285.4
10285.8
10286.2
10286.6
10287
10287.4
10287.8
10288.2
10288.6
10289
10289.4
10289.8
10290.2
10290.6
10291
10291.4
10291.8
10292.2
10292.7
10293.1
10293.5
10293.9
10294.4
10294.8
10295.2
10295.7
10296.1
10296.5
10297
10297.4
10297.9
10298.3
10298.8
10299.2
10299.7
10300.2
10300.6
10301.1
10301.5
10302
10302.5
10303
10303.4
10303.9
10304.4
10304.9
10305.4
10305.8
10306.3
10306.8
10307.3
10307.8
10308.3
10308.8
10309.3
10309.8
10310.3
10310.8
10311.3
10311.9
10312.4
10312.9
10313.4
10313.9
10314.5
10315
10315.5
10316
10316.6
10317.1
10317.7
10318.2
10318.7
10319.3
10319.8
10320.4
10320.9
10321.5
10322
10322.6
10323.2
10323.7
10324.3
10324.8
10325.4
10326
10326.6
10327.1
10327.7
10328.3
10328.9
10329.4
10330
10330.6
10331.2
10331.8
10332.4
10333
10333.6
10334.2
10334.8
10335.4
10336
10336.6
10337.2
10337.8
10338.4
10339
10339.6
10340.3
10340.9
10341.5
10342.1
10342.7
10343.4
10344
10344.6
10345.3
10345.9
10346.5
10347.2
10347.8
10348.4
10349.1
10349.7
10350.4
10351
10351.7
10352.3
10353
10353.6
10354.3
10354.9
10355.6
10356.3
10356.9
10357.6
10358.2
10358.9
10359.6
10360.2
10360.9
10361.6
10362.3
10362.9
10363.6
10364.3
10365
10365.6
10366.3
10367
10367.7
10368.4
10369
10369.7
10370.4
10371.1
10371.8
10372.5
10373.2
10373.9
10374.6
10375.3
10376
10376.7
10377.4
10378.1
10378.8
10379.5
10380.2
10380.9
10381.6
10382.3
10383
10383.7
10384.4
10385.1
10385.9
10386.6
10387.3
10388
10388.7
10389.4
10390.1
10390.9
10391.6
10392.3
10393
10393.7
10394.5
10395.2
10395.9
10396.6
10397.4
10398.1
10398.8
10399.6
10400.3
10401
10401.7
10402.5
10403.2
10403.9
10404.7
10405.4
10406.1
10406.9
10407.6
10408.3
10409.1
10409.8
10410.6
10411.3
10412
10412.8
10413.5
10414.3
10415
10415.7
10416.5
10417.2
10418
10418.7
10419.5
10420.2
10420.9
10421.7
10422.4
10423.2
10423.9
10424.7
10425.4
10426.2
10426.9
10427.7
10428.4
10429.2
10429.9
10430.7
10431.4
10432.2
10432.9
10433.7
10434.4
10435.2
10435.9
10436.7
10437.4
10438.2
10438.9
10439.7
10440.5
10441.2
10442
10442.7
10443.5
10444.2
10445
10445.7
10446.5
10447.3
10448
10448.8
10449.5
10450.3
10451
10451.8
10452.6
10453.3
10454.1
10454.8
10455.6
10456.4
10457.1
10457.9
10458.6
10459.4
10460.2
10460.9
10461.7
10462.4
10463.2
10464
10464.7
10465.5
10466.2
10467
10467.8
10468.5
10469.3
10470.1
10470.8
10471.6
10472.4
10473.1
10473.9
10474.6
10475.4
10476.2
10476.9
10477.7
10478.5
10479.2
10480
10480.8
10481.5
10482.3
10483.1
10483.8
10484.6
10485.3
10486.1
10486.9
10487.6
10488.4
10489.2
10489.9
10490.7
10491.5
10492.2
10493
10493.8
10494.5
10495.3
10496.1
10496.8
10497.6
10498.4
10499.1
10499.9
10500.7
10501.4
10502.2
10503
10503.7
10504.5
10505.3
10506.1
10506.8
10507.6
10508.4
10509.1
10509.9
10510.7
10511.4
10512.2
10513
10513.7
10514.5
10515.3
10516
10516.8
10517.6
10518.4
10519.1
10519.9
10520.7
10521.4
10522.2
10523
10523.7
10524.5
10525.3
10526
10526.8
10527.6
10528.4
10529.1
10529.9
10530.7
10531.4
10532.2
10533
10533.8
10534.5
10535.3
10536.1
10536.8
10537.6
10538.4
10539.2
10539.9
10540.7
10541.5
10542.2
10543
10543.8
10544.6
10545.3
10546.1
10546.9
10547.6
10548.4
10549.2
10550
10550.7
10551.5
10552.3
10553
10553.8
10554.6
10555.4
10556.1
10556.9
10557.7
10558.5
10559.2
10560
10560.8
10561.6
10562.3
10563.1
10563.9
10564.6
10565.4
10566.2
10567
10567.7
10568.5
10569.3
10570.1
10570.8
10571.6
10572.4
10573.2
10573.9
10574.7
10575.5
10576.3
10577
10577.8
10578.6
10579.4
10580.1
10580.9
10581.7
10582.5
10583.2
10584
10584.8
10585.6
10586.3
10587.1
10587.9
10588.7
10589.4
10590.2
10591
10591.8
10592.5
10593.3
10594.1
10594.9
10595.6
10596.4
10597.2
10598
10598.7
10599.5
10600.3
10601.1
10601.8
10602.6
10603.4
10604.2
10605
10605.7
10606.5
10607.3
10608.1
10608.8
10609.6
10610.4
10611.2
10612
10612.7
10613.5
10614.3
10615.1
10615.8
10616.6
10617.4
10618.2
10619
10619.7
10620.5
10621.3
10622.1
10622.8
10623.6
10624.4
10625.2
10626
10626.7
10627.5
10628.3
10629.1
10629.9
10630.6
10631.4
10632.2
10633
10633.7
10634.5
10635.3
10636.1
10636.9
10637.6
10638.4
10639.2
10640
10640.8
10641.5
10642.3
10643.1
10643.9
10644.7
10645.4
10646.2
10647
10647.8
10648.6
10649.3
10650.1
10650.9
10651.7
10652.5
10653.3
10654
10654.8
10655.6
10656.4
10657.2
10657.9
10658.7
10659.5
10660.3
10661.1
10661.8
10662.6
10663.4
10664.2
10665
10665.8
10666.5
10667.3
10668.1
10668.9
10669.7
10670.4
10671.2
10672
10672.8
10673.6
10674.4
10675.1
10675.9
10676.7
10677.5
10678.3
10679.1
10679.8
10680.6
10681.4
10682.2
10683
10683.8
10684.5
10685.3
10686.1
10686.9
10687.7
10688.5
10689.2
10690
10690.8
10691.6
10692.4
10693.2
10693.9
10694.7
10695.5
10696.3
10697.1
10697.9
10698.7
10699.4
10700.2
10701
10701.8
10702.6
10703.4
10704.1
10704.9
10705.7
10706.5
10707.3
10708.1
10708.9
10709.6
10710.4
10711.2
10712
10712.8
10713.6
10714.4
10715.1
10715.9
10716.7
10717.5
10718.3
10719.1
10719.9
10720.7
10721.4
10722.2
10723
10723.8
10724.6
10725.4
10726.2
10726.9
10727.7
10728.5
10729.3
10730.1
10730.9
10731.7
10732.5
10733.2
10734
10734.8
10735.6
10736.4
10737.2
10738
10738.8
10739.5
10740.3
10741.1
10741.9
10742.7
10743.5
10744.3
10745.1
10745.9
10746.6
10747.4
10748.2
10749
10749.8
10750.6
10751.4
10752.2
10753
10753.7
10754.5
10755.3
10756.1
10756.9
10757.7
10758.5
10759.3
10760.1
10760.9
10761.6
10762.4
10763.2
10764
10764.8
10765.6
10766.4
10767.2
10768
10768.8
10769.5
10770.3
10771.1
10771.9
10772.7
10773.5
10774.3
10775.1
10775.9
10776.7
10777.5
10778.2
10779
10779.8
10780.6
10781.4
10782.2
10783
10783.8
10784.6
10785.4
10786.2
10787
10787.7
10788.5
10789.3
10790.1
10790.9
10791.7
10792.5
10793.3
10794.1
10794.9
10795.7
10796.5
10797.3
10798
10798.8
10799.6
10800.4
10801.2
10802
10802.8
10803.6
10804.4
10805.2
10806
10806.8
10807.6
10808.4
10809.2
10809.9
10810.7
10811.5
10812.3
10813.1
10813.9
10814.7
10815.5
10816.3
10817.1
10817.9
10818.7
10819.5
10820.3
10821.1
10821.9
10822.7
10823.5
10824.3
10825
10825.8
10826.6
10827.4
10828.2
10829
10829.8
10830.6
10831.4
10832.2
10833
10833.8
10834.6
10835.4
10836.2
10837
10837.8
10838.6
10839.4
10840.2
10841
10841.8
10842.6
10843.4
10844.1
10844.9
10845.7
10846.5
10847.3
10848.1
10848.9
10849.7
10850.5
10851.3
10852.1
10852.9
10853.7
10854.5
10855.3
10856.1
10856.9
10857.7
10858.5
10859.3
10860.1
10860.9
10861.7
10862.5
10863.3
10864.1
10864.9
10865.7
10866.5
10867.3
10868.1
10868.9
10869.7
10870.5
10871.3
10872.1
10872.9
10873.7
10874.5
10875.3
10876.1
10876.9
10877.7
10878.5
10879.3
10880.1
10880.9
10881.7
10882.5
10883.3
10884.1
10884.9
10885.7
10886.5
10887.3
10888.1
10888.9
10889.7
10890.5
10891.3
10892.1
10892.9
10893.7
10894.5
10895.3
10896.1
10896.9
10897.7
10898.5
10899.3
10900.1
10900.9
10901.7
10902.5
10903.3
10904.1
10904.9
10905.7
10906.5
10907.3
10908.1
10908.9
10909.7
10910.5
10911.3
10912.1
10912.9
10913.7
10914.5
10915.3
10916.1
10916.9
10917.7
10918.5
10919.3
10920.1
10920.9
10921.7
10922.5
10923.3
10924.1
10925
10925.8
10926.6
10927.4
10928.2
10929
10929.8
10930.6
10931.4
10932.2
10933
10933.8
10934.6
10935.4
10936.2
10937
10937.8
10938.6
10939.4
10940.2
10941
10941.8
10942.6
10943.4
10944.3
10945.1
10945.9
10946.7
10947.5
10948.3
10949.1
10949.9
10950.7
10951.5
10952.3
10953.1
10953.9
10954.7
10955.5
10956.3
10957.1
10957.9
10958.8
10959.6
10960.4
10961.2
10962
10962.8
10963.6
10964.4
10965.2
10966
10966.8
10967.6
10968.4
10969.2
10970
10970.8
10971.7
10972.5
10973.3
10974.1
10974.9
10975.7
10976.5
10977.3
10978.1
10978.9
10979.7
10980.5
10981.3
10982.2
10983
10983.8
10984.6
10985.4
10986.2
10987
10987.8
10988.6
10989.4
10990.2
10991
10991.9
10992.7
10993.5
10994.3
10995.1
10995.9
10996.7
10997.5
10998.3
10999.1
10999.9
11000.8
11001.6
11002.4
11003.2
11004
11004.8
11005.6
11006.4
11007.2
11008
11008.9
11009.7
11010.5
11011.3
11012.1
11012.9
11013.7
11014.5
11015.3
11016.2
11017
11017.8
11018.6
11019.4
11020.2
11021
11021.8
11022.6
11023.5
11024.3
11025.1
11025.9
11026.7
11027.5
11028.3
11029.1
11029.9
11030.8
11031.6
11032.4
11033.2
11034
11034.8
11035.6
11036.4
11037.3
11038.1
11038.9
11039.7
11040.5
11041.3
11042.1
11042.9
11043.8
11044.6
11045.4
11046.2
11047
11047.8
11048.6
11049.5
11050.3
11051.1
11051.9
11052.7
11053.5
11054.3
11055.1
11056
11056.8
11057.6
11058.4
11059.2
11060
11060.8
11061.7
11062.5
11063.3
11064.1
11064.9
11065.7
11066.6
11067.4
11068.2
11069
11069.8
11070.6
11071.4
11072.3
11073.1
11073.9
11074.7
11075.5
11076.3
11077.2
11078
11078.8
11079.6
11080.4
11081.2
11082
11082.9
11083.7
11084.5
11085.3
11086.1
11086.9
11087.8
11088.6
11089.4
11090.2
11091
11091.8
11092.7
11093.5
11094.3
11095.1
11095.9
11096.7
11097.6
11098.4
11099.2
11100
11100.8
11101.7
11102.5
11103.3
11104.1
11104.9
11105.7
11106.6
11107.4
11108.2
11109
11109.8
11110.7
11111.5
11112.3
11113.1
11113.9
11114.7
11115.6
11116.4
11117.2
11118
11118.8
11119.7
11120.5
11121.3
11122.1
11122.9
11123.8
11124.6
11125.4
11126.2
11127
11127.9
11128.7
11129.5
11130.3
11131.1
11132
11132.8
11133.6
11134.4
11135.2
11136.1
11136.9
11137.7
11138.5
11139.3
11140.2
11141
11141.8
11142.6
11143.5
11144.3
11145.1
11145.9
11146.7
11147.6
11148.4
11149.2
11150
11150.8
11151.7
11152.5
11153.3
11154.1
11155
11155.8
11156.6
11157.4
11158.2
11159.1
11159.9
11160.7
11161.5
11162.4
11163.2
11164
11164.8
11165.6
11166.5
11167.3
11168.1
11168.9
11169.8
11170.6
11171.4
11172.2
11173.1
11173.9
11174.7
11175.5
11176.4
11177.2
11178
11178.8
11179.6
11180.5
11181.3
11182.1
11182.9
11183.8
11184.6
11185.4
11186.2
11187.1
11187.9
11188.7
11189.5
11190.4
11191.2
11192
11192.8
11193.7
11194.5
11195.3
11196.1
11197
11197.8
11198.6
11199.5
11200.3
11201.1
11201.9
11202.8
11203.6
11204.4
11205.2
11206.1
11206.9
11207.7
11208.5
11209.4
11210.2
11211
11211.8
11212.7
11213.5
11214.3
11215.2
11216
11216.8
11217.6
11218.5
11219.3
11220.1
11220.9
11221.8
11222.6
11223.4
11224.3
11225.1
11225.9
11226.7
11227.6
11228.4
11229.2
11230.1
11230.9
11231.7
11232.5
11233.4
11234.2
11235
11235.9
11236.7
11237.5
11238.3
11239.2
11240
11240.8
11241.7
11242.5
11243.3
11244.1
11245
11245.8
11246.6
11247.5
11248.3
11249.1
11250
11250.8
11251.6
11252.4
11253.3
11254.1
11254.9
11255.8
11256.6
11257.4
11258.3
11259.1
11259.9
11260.7
11261.6
11262.4
11263.2
11264.1
11264.9
11265.7
11266.6
11267.4
11268.2
11269.1
11269.9
11270.7
11271.6
11272.4
11273.2
11274.1
11274.9
11275.7
11276.5
11277.4
11278.2
11279
11279.9
11280.7
11281.5
11282.4
11283.2
11284
11284.9
11285.7
11286.5
11287.4
11288.2
11289
11289.9
11290.7
11291.5
11292.4
11293.2
11294
11294.9
11295.7
11296.5
11297.4
11298.2
11299
11299.9
11300.7
11301.5
11302.4
11303.2
11304
11304.9
11305.7
11306.5
11307.4
11308.2
11309.1
11309.9
11310.7
11311.6
11312.4
11313.2
11314.1
11314.9
11315.7
11316.6
11317.4
11318.2
11319.1
11319.9
11320.7
11321.6
11322.4
11323.3
11324.1
11324.9
11325.8
11326.6
11327.4
11328.3
11329.1
11329.9
11330.8
11331.6
11332.5
11333.3
11334.1
11335
11335.8
11336.6
11337.5
11338.3
11339.1
11340
11340.8
11341.7
11342.5
11343.3
11344.2
11345
11345.8
11346.7
11347.5
11348.4
11349.2
11350
11350.9
11351.7
11352.6
11353.4
11354.2
11355.1
11355.9
11356.7
11357.6
11358.4
11359.3
11360.1
11360.9
11361.8
11362.6
11363.5
11364.3
11365.1
11366
11366.8
11367.7
11368.5
11369.3
11370.2
11371
11371.9
11372.7
11373.5
11374.4
11375.2
11376.1
11376.9
11377.7
11378.6
11379.4
11380.3
11381.1
11381.9
11382.8
11383.6
11384.5
11385.3
11386.1
11387
11387.8
11388.7
11389.5
11390.3
11391.2
11392
11392.9
11393.7
11394.6
11395.4
11396.2
11397.1
11397.9
11398.8
11399.6
11400.4
11401.3
11402.1
11403
11403.8
11404.7
11405.5
11406.3
11407.2
11408
11408.9
11409.7
11410.6
11411.4
11412.2
11413.1
11413.9
11414.8
11415.6
11416.5
11417.3
11418.1
11419
11419.8
11420.7
11421.5
11422.4
11423.2
11424.1
11424.9
11425.7
11426.6
11427.4
11428.3
11429.1
11430
11430.8
11431.7
11432.5
11433.3
11434.2
11435
11435.9
11436.7
11437.6
11438.4
11439.3
11440.1
11440.9
11441.8
11442.6
11443.5
11444.3
11445.2
11446
11446.9
11447.7
11448.6
11449.4
11450.3
11451.1
11451.9
11452.8
11453.6
11454.5
11455.3
11456.2
11457
11457.9
11458.7
11459.6
11460.4
11461.3
11462.1
11463
11463.8
11464.6
11465.5
11466.3
11467.2
11468
11468.9
11469.7
11470.6
11471.4
11472.3
11473.1
11474
11474.8
11475.7
11476.5
11477.4
11478.2
11479.1
11479.9
11480.8
11481.6
11482.5
11483.3
11484.2
11485
11485.9
11486.7
11487.6
11488.4
11489.3
11490.1
11491
11491.8
11492.6
11493.5
11494.3
11495.2
11496
11496.9
11497.7
11498.6
11499.4
11500.3
11501.1
11502
11502.9
11503.7
11504.6
11505.4
11506.3
11507.1
11508
11508.8
11509.7
11510.5
11511.4
11512.2
11513.1
11513.9
11514.8
11515.6
11516.5
11517.3
11518.2
11519
11519.9
11520.7
11521.6
11522.4
11523.3
11524.1
11525
11525.8
11526.7
11527.5
11528.4
11529.2
11530.1
11531
11531.8
11532.7
11533.5
11534.4
11535.2
11536.1
11536.9
11537.8
11538.6
11539.5
11540.3
11541.2
11542
11542.9
11543.8
11544.6
11545.5
11546.3
11547.2
11548
11548.9
11549.7
11550.6
11551.4
11552.3
11553.1
11554
11554.9
11555.7
11556.6
11557.4
11558.3
11559.1
11560
11560.8
11561.7
11562.6
11563.4
11564.3
11565.1
11566
11566.8
11567.7
11568.5
11569.4
11570.3
11571.1
11572
11572.8
11573.7
11574.5
11575.4
11576.2
11577.1
11578
11578.8
11579.7
11580.5
11581.4
11582.2
11583.1
11584
11584.8
11585.7
11586.5
11587.4
11588.2
11589.1
11590
11590.8
11591.7
11592.5
11593.4
11594.2
11595.1
11596
11596.8
11597.7
11598.5