/*--------------------------------*- C++ -*----------------------------------*\
  =========                 |
  \\      /  F ield         | OpenFOAM: The Open Source CFD Toolbox
   \\    /   O peration     | Website:  https://openfoam.org
    \\  /    A nd           | Version:  9
     \\/     M anipulation  |
\*---------------------------------------------------------------------------*/
FoamFile
{
    format      ascii;
    class       volScalarField;
    location    "0.037";
    object      ddt0(rho,e);
}
// * * * * * * * * * * * * * * * * * * * * * * * * * * * * * * * * * * * * * //

dimensions      [1 -1 -3 0 0 0 0];

internalField   nonuniform List<scalar> 
10000
(
822564
822517
822444
822374
822299
822223
822152
822086
822014
821933
821856
821793
821732
821655
821567
821490
821433
821380
821306
821210
821121
821063
821024
820967
820875
820765
820680
820638
820613
820559
820455
820330
820235
820197
820192
820163
820071
819930
819796
819724
819722
819741
819713
819603
819435
819278
819197
819207
819259
819274
819195
819022
818816
818661
818614
818668
818758
818797
818722
818531
818286
818076
817977
818010
818134
818261
818302
818202
817973
817680
817419
817273
817279
817416
817609
817762
817793
817664
817392
817046
816720
816501
816443
816550
816773
817032
817232
817300
817196
816929
816548
816135
815777
815547
815489
815606
815862
816193
816518
816759
816856
816778
816525
816132
815658
815172
814746
814440
814295
814328
814528
814863
815284
815731
816145
816471
816666
816704
816573
816281
815852
815318
814722
814109
813522
813002
812586
812299
812160
812178
812353
812679
813143
813728
814414
815178
815996
816847
817706
818553
819366
820127
820818
821426
821941
822355
822662
822871
822991
823037
823041
823058
823105
823244
823664
824658
824837
824892
824925
824943
824952
824952
824949
824944
824936
824928
824922
824915
824908
824900
824894
824889
824885
824881
824878
824875
824872
824869
824867
824865
824862
824860
824858
824857
824854
824852
824850
824848
824847
824845
824842
824840
824837
824835
824833
824831
824830
824828
824826
824824
824822
824820
824818
824817
824815
824813
824811
824809
824807
824805
824804
824802
824800
824797
824795
824793
824790
824788
824786
824784
824783
824781
824779
824777
824775
824773
824771
824769
824767
824765
824763
824761
824759
824757
824755
824753
824751
824749
824746
824744
824742
824740
824738
824736
824734
824732
824730
824728
824726
824724
824722
824719
824717
824715
824713
824711
824709
824707
824705
824703
824701
824699
824696
824694
824692
824690
824688
824686
824683
824681
824679
824677
824675
824673
824671
824669
824666
824664
824662
824660
824658
824656
824654
824651
824649
824647
824645
824642
824640
824638
824636
824634
824632
824629
824627
824625
824623
824621
824619
824616
824614
824612
824610
824607
824605
824603
824601
824598
824596
824594
824591
824589
824587
824584
824582
824580
824578
824576
824574
824571
824569
824567
824565
824562
824560
824558
824556
824553
824551
824549
824546
824544
824541
824539
824536
824534
824532
824529
824527
824525
824523
824520
824518
824516
824514
824511
824509
824507
824504
824502
824500
824498
824495
824493
824490
824488
824485
824483
824480
824478
824475
824473
824470
824468
824466
824463
824461
824459
824456
824454
824452
824449
824447
824445
824442
824440
824438
824435
824433
824430
824428
824425
824422
824420
824417
824415
824412
824410
824407
824405
824402
824400
824398
824395
824393
824390
824388
824386
824383
824381
824378
824376
824373
824371
824368
824366
824363
824360
824358
824355
824353
824350
824347
824345
824342
824340
824337
824335
824332
824330
824327
824325
824322
824320
824317
824315
824312
824310
824307
824305
824302
824299
824297
824294
824291
824289
824286
824283
824281
824278
824275
824273
824270
824268
824265
824262
824260
824257
824255
824252
824249
824247
824244
824242
824239
824236
824234
824231
824228
824225
824223
824220
824217
824215
824212
824209
824207
824204
824201
824198
824196
824193
824190
824188
824185
824182
824180
824177
824174
824171
824169
824166
824163
824160
824158
824155
824152
824150
824147
824144
824141
824138
824136
824133
824130
824127
824125
824122
824119
824116
824114
824111
824108
824105
824102
824099
824097
824094
824091
824088
824085
824082
824080
824077
824074
824071
824069
824066
824063
824060
824057
824054
824052
824049
824046
824043
824040
824037
824034
824031
824029
824026
824023
824020
824017
824014
824011
824008
824005
824002
823999
823997
823994
823991
823988
823985
823982
823979
823977
823974
823971
823968
823965
823962
823959
823956
823953
823950
823947
823944
823941
823938
823935
823932
823929
823926
823923
823920
823917
823914
823911
823908
823905
823902
823899
823896
823893
823890
823887
823884
823881
823878
823875
823872
823869
823866
823863
823860
823856
823853
823850
823847
823844
823841
823838
823835
823832
823829
823826
823823
823820
823817
823814
823811
823808
823805
823802
823799
823795
823792
823789
823786
823782
823779
823776
823773
823770
823767
823764
823760
823757
823754
823751
823748
823745
823741
823739
823734
823734
823726
823730
823718
823726
823708
823725
823695
823726
823680
823730
823661
823737
823639
823746
823618
823752
823602
823750
823599
823730
823619
823683
823662
823644
823653
823655
823640
823638
823646
823636
823631
823626
823631
823618
823632
823587
823667
823525
823726
823448
823786
823386
823812
823378
823770
823448
823647
823591
823472
823753
823314
823858
823256
823827
823355
823640
823585
823374
823820
823187
823893
823223
823720
823485
823387
823798
823132
823911
823167
823699
823495
823302
823846
823055
823897
823195
823564
823620
823128
823926
823015
823779
823368
823286
823838
822953
823901
823165
823442
823710
822955
823950
823025
823557
823596
822973
823961
822936
823621
823519
822978
823961
822881
823639
823485
822952
823963
822851
823612
823500
822892
823970
822850
823532
823572
822801
823969
822895
823386
823694
822700
823927
823014
823171
823839
822635
823803
823220
822916
823954
822667
823569
823478
822704
823950
822821
823281
823695
822597
823827
823062
822968
823857
822611
823566
823385
822684
823889
822803
823172
823712
822540
823690
823188
822742
823882
822678
823241
823643
822487
823710
823135
822696
823883
822648
823162
823686
822423
823628
823233
822542
823876
822742
822922
823814
822410
823387
823486
822349
823755
823026
822553
823905
822592
822932
823806
822305
823362
823504
822230
823721
823085
822370
823923
822652
822681
823924
822301
823082
823732
822106
823479
823393
822098
823784
822987
822262
823943
822596
822547
823943
822283
822887
823803
822084
823220
823564
822010
823502
823266
822052
823706
822950
822186
823820
822652
822385
823842
822398
822617
823784
822205
822854
823664
822078
823074
823504
822010
823264
823326
821987
823420
823147
821997
823540
822977
822029
823628
822821
822074
823690
822679
822126
823731
822554
822180
823756
822445
822231
823768
822354
822275
823770
822280
822310
823764
822223
822338
823752
822176
822358
823740
822138
822367
823730
822108
822364
823724
822088
822347
823723
822079
822315
823724
822083
822267
823726
822101
822203
823730
822135
822123
823734
822185
822027
823733
822257
821917
823720
822355
821799
823686
822479
821682
823624
822625
821574
823528
822794
821486
823392
822973
821427
823219
823155
821406
823009
823331
821431
822766
823485
821509
822499
823602
821646
822222
823664
821840
821954
823657
822083
821716
823575
822360
821527
823415
822654
821404
823181
822938
821365
822890
823186
821414
822560
823376
821556
822212
823479
821789
821879
823475
822097
821597
823352
822449
821400
823112
822807
821323
822771
823121
821385
822363
823340
821594
821940
823414
821934
821568
823311
822357
821314
823032
822796
821232
822604
823164
821360
822094
823371
821692
821607
823346
822171
821255
823067
822695
821134
822576
823129
821294
821984
823346
821705
821443
823266
822268
821108
822882
822827
821092
822286
823205
821410
821650
823275
821968
821171
822994
822593
821014
822434
823070
821241
821768
823227
821782
821222
822995
822445
820997
822440
822976
821187
821759
823163
821724
821203
822924
822398
820988
822343
822933
821205
821646
823093
821773
821114
822794
822454
820974
822149
822945
821293
821436
823002
821939
820978
822570
822612
820999
821835
822976
821496
821152
822822
822228
820873
822196
822812
821159
821406
822915
821864
820886
822449
822590
820943
821653
822906
821553
820978
822603
822352
820835
821844
822835
821320
821083
822684
822129
820795
821978
822730
821168
821166
822707
821954
820780
822060
822617
821074
821221
822685
821838
820768
822091
822528
821015
821244
822637
821772
820755
822067
822474
820982
821222
822582
821751
820736
821991
822453
820990
821149
822515
821777
820717
821870
822445
821042
821038
822420
821846
820705
821710
822434
821137
820916
822285
821944
820715
821519
822409
821265
820800
822109
822056
820762
821298
822360
821426
820703
821886
822164
820863
821057
822265
821624
820642
821610
822245
821038
820814
822087
821854
820661
821276
822250
821302
820628
821790
822061
820810
820931
822120
821617
820574
821395
822159
821094
820660
821825
821897
820706
820982
822068
821451
820558
821414
822033
820997
820669
821785
821766
820662
820984
821967
821366
820544
821362
821931
820950
820652
821685
821692
820650
820914
821869
821332
820521
821249
821857
820964
820572
821555
821677
820661
820778
821747
821386
820490
821060
821800
821045
820474
821342
821707
820740
820585
821572
821493
820521
820789
821694
821221
820407
821037
821698
820934
820415
821265
821601
820677
820518
821444
821416
820494
820679
821547
821185
820391
820876
821558
820949
820370
821066
821494
820727
820429
821217
821366
820549
820536
821326
821190
820429
820674
821375
820999
820361
820827
821364
820809
820348
820964
821310
820631
820384
821079
821214
820484
820446
821168
821088
820372
820531
821217
820954
820289
820626
821232
820816
820243
820713
821221
820681
820226
820791
821179
820566
820229
820858
821114
820465
820255
820901
821038
820378
820295
820929
820948
820313
820337
820943
820851
820263
820385
820937
820758
820223
820435
820920
820664
820197
820477
820897
820571
820180
820517
820864
820487
820163
820555
820828
820409
820150
820579
820796
820336
820138
820594
820762
820278
820121
820602
820725
820230
820106
820597
820693
820188
820094
820581
820658
820158
820079
820562
820618
820134
820068
820535
820580
820111
820061
820504
820540
820090
820052
820477
820496
820072
820041
820449
820456
820048
820033
820419
820421
820023
820017
820394
820386
820001
819995
820369
820358
819977
819971
820339
820337
819953
819942
820309
820317
819936
819905
820277
820302
819921
819867
820236
820292
819911
819828
820188
820281
819910
819787
820137
820265
819916
819751
820078
820247
819924
819723
820012
820222
819936
819701
819949
820184
819948
819687
819889
820141
819953
819681
819832
820096
819951
819676
819783
820047
819947
819669
819739
820000
819939
819662
819692
819956
819929
819656
819645
819908
819925
819651
819598
819852
819920
819654
819551
819791
819908
819668
819510
819722
819888
819686
819481
819646
819859
819706
819466
819570
819812
819727
819463
819500
819749
819738
819476
819441
819678
819732
819498
819398
819602
819710
819517
819372
819528
819677
819529
819356
819462
819634
819537
819344
819404
819586
819539
819336
819346
819537
819538
819334
819288
819478
819538
819343
819236
819402
819529
819367
819200
819316
819494
819399
819188
819232
819434
819420
819202
819162
819356
819420
819231
819115
819267
819395
819262
819097
819180
819344
819281
819101
819112
819276
819282
819111
819063
819205
819266
819122
819026
819136
819237
819134
818999
819066
819198
819145
818988
818995
819142
819150
818994
818937
819069
819141
819011
818898
818987
819110
819033
818881
818909
819053
819048
818887
818843
818976
819041
818912
818801
818890
819005
818936
818790
818811
818944
818944
818801
818750
818867
818929
818820
818717
818786
818890
818834
818707
818715
818830
818835
818711
818663
818757
818816
818721
818629
818686
818777
818730
818611
818618
818722
818732
818613
818558
818651
818717
818630
818522
818567
818674
818648
818519
818491
818600
818645
818540
818447
818510
818607
818562
818441
818431
818535
818561
818458
818386
818450
818525
818472
818373
818380
818463
818466
818373
818333
818396
818439
818373
818302
818333
818397
818370
818281
818273
818345
818361
818276
818219
818276
818338
818287
818189
818196
818283
818295
818195
818132
818198
818270
818219
818113
818111
818201
818223
818131
818059
818110
818182
818149
818054
818038
818108
818133
818064
818003
818034
818085
818058
817990
817981
818029
818034
817976
817939
817975
818006
817962
817902
817912
817968
817958
817882
817848
817900
817945
817891
817810
817815
817889
817900
817815
817755
817798
817865
817836
817745
817720
817783
817820
817762
817690
817699
817758
817758
817691
817652
817683
817718
817685
817631
817627
817662
817660
817611
817586
817609
817628
817591
817546
817553
817589
817578
817519
817493
817529
817559
817517
817451
817452
817505
817517
817450
817394
817419
817475
817462
817385
817348
817389
817434
817398
817327
817312
817358
817380
817332
817278
817282
817320
817317
817269
817238
817255
817273
817249
817211
817205
817225
817218
817180
817159
817175
817188
817157
817115
817114
817144
817144
817093
817055
817072
817109
817092
817031
817002
817034
817067
817035
816973
816955
816994
817016
816976
816920
816914
816952
816959
816916
816871
816876
816904
816897
816856
816828
816839
816851
816832
816798
816789
816801
816796
816765
816741
816750
816761
816739
816700
816688
816710
816716
816681
816638
816637
816666
816667
816623
816580
816588
816618
816614
816565
816528
816540
816566
816555
816508
816480
816492
816511
816493
816453
816435
816446
816453
816429
816398
816390
816399
816393
816364
816343
816345
816351
816332
816300
816288
816300
816302
816272
816237
816232
816251
816251
816214
816177
816176
816199
816196
816158
816120
816121
816142
816138
816101
816067
816068
816083
816076
816043
816016
816017
816023
816011
815982
815966
815967
815964
815944
815920
815914
815917
815907
815878
815857
815858
815866
815851
815815
815793
815800
815812
815794
815755
815731
815739
815753
815736
815698
815672
815679
815689
815675
815640
815617
815619
815624
815610
815581
815563
815562
815560
815543
815519
815508
815506
815497
815474
815454
815450
815450
815437
815407
815388
815388
815393
815376
815344
815322
815324
815331
815316
815282
815258
815259
815266
815253
815221
815196
815195
815199
815187
815158
815136
815131
815132
815119
815093
815075
815069
815066
815050
815026
815011
815007
815001
814981
814958
814945
814944
814936
814913
814889
814878
814879
814871
814847
814820
814810
814812
814805
814781
814752
814740
814742
814738
814714
814685
814671
814671
814667
814646
814619
814603
814600
814595
814576
814552
814536
814531
814521
814503
814481
814469
814463
814450
814429
814408
814399
814394
814381
814357
814334
814325
814322
814311
814285
814261
814250
814249
814239
814215
814189
814175
814173
814165
814144
814117
814101
814096
814089
814070
814045
814028
814020
814012
813993
813971
813954
813945
813934
813915
813894
813879
813870
813858
813838
813816
813801
813794
813782
813761
813736
813721
813715
813705
813685
813658
813641
813633
813626
813607
813581
813561
813551
813545
813528
813503
813481
813470
813461
813447
813424
813401
813387
813378
813364
813342
813321
813306
813294
813279
813258
813239
813224
813212
813195
813173
813153
813140
813129
813112
813088
813065
813052
813043
813030
813005
812979
812962
812953
812943
812922
812896
812874
812862
812853
812836
812812
812788
812772
812760
812745
812724
812702
812684
812669
812652
812632
812613
812596
812581
812561
812539
812519
812504
812491
812472
812447
812423
812408
812397
812382
812357
812330
812311
812298
812287
812266
812240
812215
812199
812188
812171
812148
812122
812103
812087
812071
812051
812028
812008
811989
811971
811949
811929
811910
811893
811872
811848
811826
811808
811794
811775
811750
811723
811702
811688
811674
811653
811624
811598
811580
811567
811550
811525
811498
811474
811458
811442
811422
811396
811372
811350
811332
811312
811290
811268
811246
811224
811200
811178
811157
811139
811119
811094
811066
811042
811025
811009
810988
810959
810930
810907
810891
810875
810852
810823
810794
810773
810755
810737
810712
810684
810658
810636
810616
810594
810570
810545
810520
810496
810472
810449
810427
810405
810380
810352
810325
810301
810282
810262
810236
810205
810176
810153
810135
810115
810088
810056
810027
810004
809985
809963
809935
809905
809877
809853
809831
809807
809781
809753
809725
809698
809673
809648
809624
809599
809571
809541
809511
809486
809464
809441
809412
809379
809348
809323
809302
809279
809249
809216
809184
809158
809135
809111
809082
809049
809018
808991
808965
808939
808911
808880
808850
808820
808792
808763
808736
808708
808679
808647
808614
808585
808559
808533
808503
808469
808434
808404
808378
808353
808322
808288
808252
808221
808194
808167
808137
808102
808068
808036
808006
807977
807946
807913
807880
807847
807814
807782
807751
807720
807689
807654
807619
807584
807553
807523
807492
807457
807420
807383
807351
807321
807290
807255
807217
807179
807145
807114
807082
807047
807010
806972
806937
806903
806869
806834
806798
806761
806724
806687
806651
806616
806581
806545
806507
806468
806429
806393
806359
806323
806285
806244
806203
806166
806131
806095
806056
806015
805974
805935
805898
805860
805821
805780
805739
805699
805660
805620
805580
805540
805500
805459
805417
805375
805334
805294
805254
805212
805168
805124
805082
805042
805002
804959
804914
804868
804825
804783
804742
804699
804654
804608
804563
804519
804475
804431
804386
804341
804295
804250
804203
804157
804111
804066
804021
803973
803925
803877
803830
803784
803738
803690
803640
803590
803542
803495
803447
803398
803348
803297
803248
803199
803149
803099
803047
802997
802946
802895
802843
802791
802740
802688
802637
802584
802530
802476
802424
802371
802319
802264
802209
802154
802099
802046
801992
801936
801880
801823
801767
801711
801655
801598
801541
801484
801427
801369
801310
801251
801192
801135
801077
801017
800956
800895
800834
800775
800716
800655
800593
800530
800467
800406
800344
800282
800219
800155
800091
800027
799963
799898
799834
799769
799704
799638
799571
799503
799437
799371
799305
799238
799170
799099
799030
798961
798893
798825
798756
798684
798612
798541
798470
798399
798328
798256
798183
798109
798035
797960
797887
797813
797740
797665
797588
797511
797433
797357
797282
797206
797128
797048
796968
796888
796809
796731
796653
796572
796490
796407
796324
796242
796161
796079
795996
795911
795826
795740
795654
795569
795484
795399
795312
795223
795133
795044
794956
794869
794781
794690
794598
794504
794412
794321
794231
794139
794045
793949
793853
793757
793662
793567
793472
793376
793277
793177
793077
792978
792879
792781
792681
792580
792476
792371
792267
792165
792063
791960
791854
791747
791638
791530
791423
791317
791210
791100
790989
790877
790765
790653
790542
790430
790317
790203
790086
789969
789851
789735
789620
789503
789384
789263
789140
789018
788897
788777
788655
788532
788406
788279
788152
788025
787900
787773
787644
787514
787382
787250
787118
786986
786854
786721
786586
786449
786311
786172
786034
785897
785758
785618
785476
785332
785187
785043
784899
784755
784609
784461
784311
784160
784009
783859
783708
783556
783402
783245
783088
782930
782773
782615
782456
782295
782133
781968
781802
781637
781471
781305
781137
780967
780795
780621
780447
780273
780098
779922
779744
779563
779381
779198
779000
779003
778889
778791
778740
778376
778215
777933
777742
777507
777318
777104
776909
776702
776504
776301
776105
775905
775706
775503
775300
775095
774889
774683
774476
774269
774059
773848
773635
773419
773204
772987
772770
772551
772331
772109
771883
771657
771431
771203
770975
770745
770512
770279
770042
769804
769567
769327
769087
768845
768599
768353
768105
767855
767606
767354
767100
766845
766587
766327
766067
765805
765541
765277
765010
764741
764471
764198
763923
763648
763371
763092
762812
762529
762243
761956
761668
761377
761087
760794
760498
760200
759900
759598
759294
758990
758684
758374
758063
757750
757434
757117
756798
756477
756154
755830
755502
755172
754840
754507
754171
753833
753494
753152
752807
752460
752112
751761
751407
751053
750696
750335
749973
749608
749242
748872
748501
748128
747752
747373
746992
746609
746223
745835
745445
745053
744657
744258
743857
743455
743049
742642
742233
741820
741403
740984
740563
740140
739715
739287
738856
738422
737985
737544
737103
736659
736212
735761
735310
734855
734395
733934
733471
733004
732534
732062
731589
731112
730630
730144
729658
729169
728678
728183
727685
727185
726681
726173
725662
725149
724635
724117
723596
723071
722543
722012
721478
720941
720402
719861
719316
718767
718215
717659
717101
716540
715976
715410
714841
714268
713692
713112
712528
711943
711355
710764
710170
709573
708972
708367
707760
707149
706537
705921
705303
704680
704055
703426
702795
702159
701522
700882
700239
699593
698943
698290
697633
696975
696314
695649
694982
694311
693639
692962
692283
691600
690915
690228
689537
688845
688148
687449
686746
686042
685335
684625
683913
683197
682480
681759
681036
680311
679581
678851
678118
677383
676645
675904
675162
674416
673669
672920
672168
671414
670657
669899
669139
668376
667612
666845
666078
665307
664535
663762
662986
662209
661430
660649
659868
659085
658300
657513
656725
655937
655146
654355
653563
652769
651975
651178
650383
649585
648787
647989
647188
646389
645588
644787
643986
643184
642381
641580
640776
639974
639172
638368
637567
636764
635962
635162
634359
633559
632759
631958
631160
630362
629565
628769
627973
627180
626386
625593
624804
624014
623227
622442
621656
620874
620092
619312
618535
617760
616987
616217
615448
614680
613917
613153
612394
611639
610884
610135
609386
608640
607899
607158
606422
605689
604960
604234
603512
602793
602076
601364
600654
599950
599250
598553
597862
597173
596488
595808
595130
594458
593791
593128
592471
591818
591169
590523
589883
589246
588616
587990
587370
586756
586146
585541
584939
584343
583751
583167
582588
582014
581447
580884
580325
579771
579223
578680
578145
577615
577091
576572
576060
575550
575047
574549
574057
573572
573093
572621
572152
571691
571232
570781
570334
569894
569462
569034
568614
568197
567786
567380
566980
566586
566197
565817
565441
565070
564705
564346
563990
563640
563299
562961
562630
562304
561984
561667
561357
561052
560751
560458
560169
559887
559608
559336
559067
558802
558544
558291
558043
557801
557564
557330
557102
556877
556657
556441
556232
556027
555827
555632
555440
555252
555068
554888
554713
554542
554377
554215
554057
553905
553752
553606
553461
553322
553187
553056
552931
552805
552687
552567
552453
552340
552234
552130
552029
551934
551838
551748
551657
551572
551489
551408
551333
551258
551189
551119
551054
550989
550927
550869
550812
550760
550708
550661
550613
550569
550525
550484
550446
550409
550377
550344
550315
550286
550260
550233
550210
550189
550168
550153
550136
550122
550108
550096
550085
550075
550068
550062
550059
550055
550054
550053
550052
550052
550055
550059
550064
550070
550079
550087
550095
550105
550115
550126
550139
550153
550168
550184
550200
550216
550234
550251
550270
550290
550310
550333
550354
550377
550399
550422
550446
550470
550496
550521
550549
550576
550603
550630
550658
550686
550714
550744
550774
550805
550835
550866
550897
550928
550959
550991
551024
551057
551090
551124
551158
551192
551224
551259
551293
551328
551363
551398
551435
551470
551505
551541
551578
551613
551649
551686
551724
551760
551798
551834
551872
551909
551946
551984
552022
552060
552098
552136
552174
552213
552250
552289
552327
552366
552405
552443
552482
552521
552560
552598
552638
552676
552716
552755
552794
552834
552873
552912
552951
552992
553031
553070
553109
553149
553189
553228
553268
553307
553348
553387
553427
553466
553506
553547
553586
553626
553665
553706
553746
553786
553825
553865
553906
553946
553985
554024
554066
554105
554145
554185
554225
554266
554305
554345
554384
554425
554465
554506
554546
554585
554626
554665
554706
554745
554785
554826
554866
554907
554946
554986
555026
555067
555106
555146
555187
555227
555268
555306
555347
555386
555427
555468
555508
555547
555587
555628
555668
555708
555747
555787
555828
555868
555909
555948
555988
556028
556068
556108
556148
556188
556228
556269
556309
556350
556388
556428
556468
556508
556548
556589
556629
556669
556710
556750
556789
556829
556868
556908
556948
556989
557030
557070
557110
557149
557190
557229
557269
557308
557349
557390
557430
557471
557510
557550
557589
557628
557668
557709
557749
557790
557830
557870
557910
557949
557989
558028
558068
558109
558149
558189
558230
558270
558310
558349
558388
558428
558468
558508
558549
558590
558630
558670
558709
558748
558788
558827
558868
558908
558949
558990
559029
559069
559108
559148
559187
559227
559267
559308
559349
559389
559429
559468
559508
559546
559587
559626
559667
559708
559749
559789
559828
559867
559907
559946
559985
560026
560066
560108
560147
560188
560227
560267
560306
560345
560384
560424
560466
560506
560547
560587
560626
560666
560704
560744
560783
560824
560864
560905
560945
560986
561025
561064
561103
561142
561182
561222
561263
561303
561344
561383
561424
561462
561502
561540
561580
561621
561661
561702
561742
561782
561821
561861
561899
561939
561978
562019
562059
562100
562140
562179
562219
562258
562298
562337
562376
562417
562457
562498
562537
562577
562616
562656
562695
562735
562774
562814
562855
562894
562935
562974
563015
563053
563093
563132
563172
563212
563252
563292
563332
563372
563411
563451
563489
563530
563568
563610
563648
563690
563729
563769
563808
563848
563887
563926
563966
564006
564046
564086
564126
564165
564205
564244
564284
564323
564363
564403
564442
564483
564523
564563
564601
564641
564680
564720
564760
564800
564840
564880
564920
564959
564999
565038
565077
565117
565157
565196
565236
565276
565316
565356
565396
565435
565474
565513
565553
565593
565633
565673
565712
565753
565792
565832
565871
565910
565951
565989
566030
566069
566110
566149
566189
566228
566268
566307
566347
566387
566426
566466
566506
566546
566586
566625
566665
566704
566744
566784
566823
566863
566903
566943
566982
567023
567062
567102
567141
567180
567220
567260
567300
567340
567379
567419
567459
567499
567538
567578
567617
567657
567697
567736
567777
567816
567857
567896
567936
567975
568015
568055
568094
568134
568174
568214
568254
568294
568333
568374
568412
568452
568492
568532
568572
568611
568652
568691
568732
568771
568811
568850
568890
568929
568969
569010
569049
569090
569129
569170
569209
569249
569289
569328
569368
569407
569448
569488
569528
569568
569608
569648
569687
569727
569767
569807
569846
569886
569926
569966
570006
570047
570086
570126
570165
570205
570245
570284
570325
570365
570406
570445
570485
570525
570564
570605
570644
570684
570723
570764
570804
570845
570885
570924
570965
571003
571044
571083
571124
571163
571204
571244
571284
571324
571364
571404
571443
571484
571523
571563
571603
571643
571684
571724
571764
571804
571844
571883
571923
571962
572003
572043
572083
572124
572163
572204
572243
572283
572323
572363
572402
572442
572483
572523
572564
572604
572644
572684
572723
572763
572803
572842
572883
572923
572964
573004
573044
573084
573124
573164
573203
573243
573283
573323
573363
573403
573444
573484
573525
573564
573604
573644
573683
573723
573763
573803
573844
573884
573925
573964
574005
574044
574084
574124
574164
574204
574244
574284
574324
574365
574404
574445
574484
574525
574565
574605
574644
574684
574725
574764
574805
574845
574885
574925
574965
575005
575045
575084
575125
575165
575205
575245
575285
575324
575364
575405
575444
575485
575525
575565
575605
575645
575685
575724
575764
575804
575844
575884
575924
575964
576005
576044
576084
576124
576164
576204
576243
576284
576323
576365
576404
576445
576484
576524
576564
576604
576644
576683
576723
576763
576803
576844
576883
576924
576963
577004
577043
577083
577123
577162
577202
577242
577283
577322
577363
577402
577443
577482
577522
577561
577601
577640
577681
577720
577761
577801
577841
577881
577920
577961
577999
578040
578079
578119
578158
578199
578238
578279
578318
578359
578398
578438
578477
578517
578557
578596
578637
578676
578717
578756
578796
578835
578875
578914
578954
578994
579033
579073
579113
579153
579193
579233
579272
579312
579351
579391
579430
579470
579510
579549
579589
579629
579669
579709
579748
579788
579827
579867
579906
579946
579985
580025
580065
580105
580145
580184
580224
580263
580303
580342
580381
580421
580460
580500
580539
580580
580619
580659
580698
580738
580777
580816
580856
580895
580935
580974
581014
581054
581093
581133
581172
581212
581251
581290
581329
581369
581408
581447
581487
581527
581567
581606
581646
581685
581724
581764
581802
581842
581881
581920
581960
581999
582039
582078
582118
582157
582197
582236
582275
582314
582353
582393
582432
582472
582510
582551
582589
582630
582669
582708
582747
582786
582826
582864
582905
582943
582983
583021
583062
583100
583140
583180
583218
583259
583296
583337
583375
583416
583454
583494
583533
583572
583613
583651
583691
583729
583769
583808
583848
583886
583926
583966
584005
584045
584083
584123
584162
584202
584240
584280
584319
584358
584397
584437
584477
584516
584556
584595
584635
584674
584713
584752
584792
584831
584870
584909
584949
584988
585028
585068
585107
585147
585186
585225
585264
585304
585343
585382
585422
585461
585501
585540
585579
585619
585658
585698
585737
585777
585816
585855
585895
585934
585974
586013
586053
586092
586132
586171
586211
586250
586290
586329
586369
586408
586447
586487
586526
586566
586604
586645
586683
586723
586762
586802
586841
586881
586921
586960
587001
587039
587080
587118
587158
587197
587236
587276
587315
587355
587394
587434
587473
587513
587552
587592
587631
587671
587710