/*--------------------------------*- C++ -*----------------------------------*\
  =========                 |
  \\      /  F ield         | OpenFOAM: The Open Source CFD Toolbox
   \\    /   O peration     | Website:  https://openfoam.org
    \\  /    A nd           | Version:  9
     \\/     M anipulation  |
\*---------------------------------------------------------------------------*/
FoamFile
{
    format      ascii;
    class       volScalarField;
    location    "0.037";
    object      ddt0(p);
}
// * * * * * * * * * * * * * * * * * * * * * * * * * * * * * * * * * * * * * //

dimensions      [1 -1 -3 0 0 0 0];

internalField   nonuniform List<scalar> 
10000
(
-620398
-620392
-620386
-620381
-620376
-620371
-620366
-620361
-620356
-620351
-620346
-620341
-620336
-620331
-620326
-620321
-620316
-620311
-620306
-620301
-620296
-620291
-620286
-620281
-620276
-620271
-620266
-620260
-620255
-620250
-620245
-620240
-620235
-620230
-620225
-620220
-620214
-620209
-620204
-620199
-620194
-620189
-620184
-620179
-620174
-620169
-620164
-620159
-620154
-620149
-620143
-620138
-620133
-620128
-620123
-620118
-620112
-620107
-620102
-620097
-620092
-620087
-620081
-620076
-620071
-620066
-620061
-620056
-620051
-620046
-620040
-620035
-620030
-620025
-620019
-620014
-620009
-620004
-619999
-619994
-619989
-619983
-619978
-619973
-619968
-619962
-619957
-619952
-619947
-619942
-619937
-619931
-619926
-619921
-619916
-619910
-619905
-619899
-619894
-619889
-619884
-619879
-619874
-619868
-619863
-619858
-619853
-619847
-619842
-619837
-619832
-619826
-619821
-619816
-619811
-619806
-619801
-619795
-619790
-619784
-619778
-619772
-619767
-619763
-619758
-619752
-619747
-619742
-619737
-619731
-619726
-619721
-619715
-619710
-619705
-619699
-619694
-619689
-619684
-619679
-619674
-619668
-619661
-619655
-619650
-619646
-619640
-619634
-619630
-619624
-619619
-619613
-619608
-619603
-619597
-619593
-619587
-619582
-619576
-619570
-619566
-619560
-619554
-619550
-619543
-619538
-619533
-619528
-619522
-619516
-619510
-619504
-619499
-619494
-619489
-619484
-619478
-619473
-619468
-619462
-619457
-619451
-619446
-619441
-619435
-619429
-619424
-619419
-619414
-619408
-619402
-619396
-619390
-619385
-619379
-619374
-619368
-619363
-619358
-619352
-619347
-619341
-619336
-619330
-619325
-619320
-619314
-619309
-619303
-619298
-619292
-619287
-619281
-619276
-619270
-619264
-619258
-619253
-619247
-619242
-619236
-619231
-619225
-619219
-619214
-619208
-619203
-619197
-619192
-619186
-619181
-619175
-619170
-619164
-619159
-619153
-619148
-619142
-619136
-619130
-619124
-619119
-619113
-619108
-619102
-619097
-619091
-619085
-619080
-619074
-619069
-619063
-619057
-619052
-619046
-619040
-619035
-619030
-619024
-619018
-619012
-619007
-619001
-618995
-618989
-618984
-618978
-618972
-618967
-618961
-618956
-618950
-618944
-618939
-618933
-618927
-618921
-618916
-618910
-618904
-618899
-618893
-618887
-618882
-618876
-618870
-618864
-618858
-618853
-618847
-618841
-618836
-618830
-618824
-618819
-618813
-618807
-618801
-618796
-618790
-618784
-618778
-618773
-618767
-618761
-618755
-618750
-618744
-618738
-618732
-618726
-618720
-618714
-618709
-618703
-618697
-618692
-618686
-618680
-618674
-618669
-618663
-618657
-618651
-618645
-618640
-618634
-618628
-618622
-618616
-618610
-618604
-618598
-618592
-618587
-618581
-618575
-618569
-618563
-618557
-618552
-618546
-618540
-618534
-618528
-618522
-618517
-618511
-618505
-618499
-618493
-618487
-618482
-618476
-618470
-618464
-618458
-618452
-618446
-618440
-618434
-618428
-618422
-618416
-618410
-618404
-618398
-618392
-618387
-618381
-618375
-618369
-618363
-618357
-618351
-618345
-618339
-618334
-618328
-618322
-618315
-618309
-618303
-618297
-618291
-618285
-618279
-618273
-618267
-618261
-618255
-618249
-618243
-618237
-618231
-618225
-618220
-618214
-618208
-618202
-618196
-618190
-618184
-618178
-618172
-618166
-618159
-618153
-618147
-618141
-618135
-618129
-618123
-618117
-618111
-618105
-618099
-618093
-618087
-618081
-618075
-618069
-618063
-618057
-618051
-618045
-618039
-618032
-618026
-618020
-618014
-618008
-618002
-617996
-617989
-617983
-617977
-617971
-617965
-617959
-617953
-617947
-617940
-617934
-617928
-617922
-617916
-617910
-617904
-617898
-617892
-617885
-617879
-617873
-617867
-617861
-617855
-617848
-617842
-617836
-617830
-617824
-617817
-617811
-617805
-617799
-617793
-617787
-617780
-617774
-617768
-617762
-617756
-617749
-617743
-617737
-617731
-617725
-617718
-617712
-617706
-617700
-617693
-617687
-617681
-617675
-617668
-617662
-617656
-617650
-617643
-617637
-617631
-617625
-617618
-617612
-617606
-617600
-617593
-617587
-617581
-617575
-617568
-617562
-617556
-617549
-617543
-617537
-617530
-617524
-617518
-617511
-617505
-617499
-617493
-617486
-617480
-617474
-617467
-617461
-617455
-617448
-617442
-617436
-617429
-617423
-617417
-617410
-617404
-617398
-617391
-617385
-617378
-617372
-617366
-617359
-617353
-617346
-617340
-617334
-617327
-617321
-617315
-617308
-617302
-617296
-617289
-617283
-617277
-617270
-617264
-617257
-617251
-617244
-617238
-617231
-617225
-617219
-617212
-617206
-617199
-617193
-617186
-617180
-617173
-617167
-617160
-617154
-617147
-617141
-617135
-617128
-617122
-617115
-617109
-617103
-617096
-617090
-617083
-617077
-617070
-617063
-617057
-617050
-617044
-617037
-617031
-617024
-617018
-617011
-617005
-616998
-616992
-616985
-616978
-616972
-616965
-616959
-616952
-616946
-616939
-616933
-616926
-616920
-616913
-616907
-616900
-616894
-616887
-616880
-616874
-616867
-616860
-616854
-616847
-616841
-616834
-616827
-616821
-616814
-616808
-616801
-616794
-616788
-616781
-616775
-616768
-616761
-616755
-616748
-616742
-616735
-616728
-616722
-616715
-616709
-616702
-616695
-616689
-616682
-616675
-616668
-616661
-616655
-616648
-616641
-616635
-616628
-616622
-616615
-616608
-616602
-616595
-616588
-616581
-616575
-616568
-616561
-616555
-616548
-616541
-616535
-616528
-616521
-616514
-616508
-616501
-616494
-616487
-616480
-616474
-616467
-616461
-616453
-616447
-616440
-616433
-616427
-616420
-616413
-616406
-616399
-616393
-616386
-616379
-616372
-616366
-616359
-616352
-616345
-616339
-616332
-616324
-616318
-616310
-616305
-616297
-616290
-616284
-616278
-616270
-616264
-616256
-616250
-616243
-616236
-616229
-616223
-616216
-616209
-616202
-616195
-616188
-616181
-616174
-616168
-616161
-616154
-616147
-616140
-616133
-616126
-616119
-616112
-616105
-616098
-616091
-616085
-616078
-616071
-616064
-616057
-616050
-616044
-616036
-616030
-616023
-616016
-616008
-616001
-615995
-615988
-615981
-615974
-615967
-615960
-615953
-615946
-615939
-615932
-615925
-615918
-615910
-615903
-615898
-615892
-615883
-615877
-615869
-615863
-615855
-615848
-615841
-615835
-615827
-615820
-615814
-615805
-615799
-615793
-615785
-615777
-615770
-615764
-615758
-615750
-615742
-615736
-615729
-615721
-615715
-615707
-615700
-615693
-615686
-615679
-615672
-615665
-615658
-615651
-615644
-615637
-615629
-615622
-615615
-615608
-615601
-615594
-615587
-615580
-615573
-615565
-615558
-615551
-615544
-615537
-615530
-615523
-615515
-615508
-615501
-615494
-615487
-615480
-615472
-615466
-615458
-615451
-615444
-615437
-615430
-615423
-615415
-615408
-615401
-615394
-615387
-615379
-615372
-615365
-615358
-615350
-615343
-615336
-615329
-615321
-615314
-615307
-615300
-615292
-615285
-615278
-615271
-615264
-615257
-615249
-615242
-615235
-615227
-615220
-615213
-615206
-615198
-615191
-615184
-615176
-615169
-615162
-615154
-615147
-615140
-615133
-615125
-615118
-615111
-615103
-615096
-615089
-615081
-615074
-615067
-615059
-615052
-615045
-615038
-615030
-615023
-615015
-615008
-615001
-614993
-614986
-614979
-614971
-614964
-614956
-614949
-614942
-614934
-614927
-614919
-614912
-614905
-614897
-614890
-614882
-614875
-614868
-614860
-614853
-614845
-614838
-614831
-614823
-614816
-614808
-614801
-614793
-614786
-614778
-614771
-614764
-614756
-614749
-614741
-614734
-614726
-614719
-614711
-614704
-614696
-614689
-614681
-614674
-614666
-614659
-614651
-614644
-614636
-614629
-614621
-614614
-614606
-614599
-614591
-614584
-614576
-614569
-614561
-614553
-614546
-614538
-614531
-614523
-614516
-614508
-614500
-614493
-614485
-614478
-614470
-614463
-614455
-614447
-614440
-614432
-614425
-614417
-614409
-614402
-614394
-614387
-614379
-614371
-614364
-614356
-614349
-614341
-614333
-614326
-614318
-614310
-614303
-614295
-614287
-614280
-614272
-614264
-614257
-614249
-614241
-614234
-614226
-614218
-614211
-614203
-614195
-614187
-614180
-614172
-614164
-614157
-614149
-614141
-614133
-614126
-614118
-614110
-614102
-614095
-614087
-614079
-614071
-614064
-614056
-614048
-614040
-614033
-614025
-614017
-614009
-614002
-613994
-613986
-613978
-613970
-613963
-613955
-613947
-613939
-613931
-613924
-613916
-613908
-613900
-613892
-613884
-613877
-613869
-613861
-613853
-613845
-613837
-613830
-613822
-613814
-613806
-613798
-613790
-613782
-613775
-613767
-613759
-613751
-613743
-613735
-613727
-613719
-613711
-613704
-613696
-613688
-613680
-613672
-613664
-613656
-613648
-613640
-613632
-613624
-613616
-613608
-613600
-613592
-613584
-613576
-613568
-613560
-613552
-613545
-613537
-613529
-613521
-613513
-613505
-613497
-613489
-613481
-613473
-613465
-613457
-613449
-613441
-613433
-613425
-613416
-613408
-613400
-613392
-613384
-613376
-613368
-613360
-613352
-613344
-613336
-613328
-613320
-613312
-613304
-613296
-613288
-613279
-613271
-613263
-613255
-613247
-613239
-613231
-613223
-613215
-613207
-613198
-613190
-613182
-613174
-613166
-613158
-613150
-613141
-613133
-613125
-613117
-613109
-613101
-613092
-613084
-613076
-613068
-613060
-613051
-613043
-613035
-613027
-613019
-613011
-613002
-612994
-612986
-612978
-612969
-612961
-612953
-612945
-612936
-612928
-612920
-612912
-612903
-612895
-612887
-612879
-612870
-612862
-612854
-612845
-612837
-612829
-612821
-612812
-612804
-612796
-612787
-612779
-612771
-612763
-612754
-612746
-612738
-612729
-612721
-612713
-612704
-612696
-612688
-612679
-612671
-612662
-612654
-612646
-612637
-612629
-612621
-612612
-612604
-612595
-612587
-612579
-612570
-612562
-612553
-612545
-612537
-612528
-612520
-612511
-612503
-612494
-612486
-612478
-612469
-612461
-612452
-612444
-612435
-612427
-612418
-612410
-612401
-612393
-612384
-612376
-612367
-612359
-612350
-612342
-612333
-612325
-612316
-612308
-612299
-612291
-612282
-612274
-612265
-612257
-612248
-612239
-612231
-612222
-612214
-612205
-612197
-612188
-612179
-612171
-612162
-612154
-612145
-612137
-612128
-612119
-612111
-612102
-612094
-612085
-612076
-612068
-612059
-612050
-612042
-612033
-612024
-612016
-612007
-611998
-611990
-611981
-611972
-611964
-611955
-611946
-611938
-611929
-611920
-611912
-611903
-611894
-611885
-611877
-611868
-611859
-611850
-611842
-611833
-611824
-611815
-611807
-611798
-611789
-611780
-611772
-611763
-611754
-611745
-611737
-611728
-611719
-611710
-611701
-611693
-611684
-611675
-611666
-611657
-611649
-611640
-611631
-611622
-611613
-611604
-611595
-611587
-611578
-611569
-611560
-611551
-611542
-611533
-611524
-611516
-611507
-611498
-611489
-611480
-611471
-611462
-611453
-611444
-611435
-611426
-611418
-611409
-611400
-611391
-611382
-611373
-611364
-611355
-611346
-611337
-611328
-611319
-611310
-611301
-611292
-611283
-611274
-611265
-611256
-611247
-611238
-611229
-611220
-611211
-611202
-611193
-611184
-611175
-611165
-611156
-611147
-611138
-611129
-611120
-611111
-611102
-611093
-611084
-611075
-611066
-611056
-611047
-611038
-611029
-611020
-611011
-611002
-610992
-610983
-610974
-610965
-610956
-610947
-610937
-610928
-610919
-610910
-610901
-610892
-610882
-610873
-610864
-610855
-610846
-610836
-610827
-610818
-610809
-610799
-610790
-610781
-610772
-610762
-610753
-610744
-610735
-610725
-610716
-610707
-610697
-610688
-610679
-610669
-610660
-610651
-610641
-610632
-610623
-610613
-610604
-610595
-610585
-610576
-610567
-610557
-610548
-610539
-610529
-610520
-610511
-610501
-610492
-610482
-610473
-610464
-610454
-610445
-610435
-610426
-610416
-610407
-610397
-610388
-610379
-610369
-610360
-610350
-610341
-610331
-610322
-610312
-610303
-610293
-610284
-610274
-610265
-610255
-610246
-610236
-610227
-610217
-610207
-610198
-610188
-610179
-610169
-610160
-610150
-610140
-610131
-610121
-610112
-610102
-610092
-610083
-610073
-610064
-610054
-610044
-610035
-610025
-610015
-610006
-609996
-609986
-609977
-609967
-609957
-609948
-609938
-609928
-609919
-609909
-609899
-609889
-609880
-609870
-609860
-609851
-609841
-609831
-609821
-609812
-609802
-609792
-609782
-609772
-609763
-609753
-609743
-609733
-609723
-609714
-609704
-609694
-609684
-609674
-609664
-609655
-609645
-609635
-609625
-609615
-609605
-609595
-609585
-609576
-609566
-609556
-609546
-609536
-609526
-609516
-609506
-609496
-609486
-609476
-609466
-609456
-609446
-609436
-609426
-609417
-609407
-609397
-609387
-609377
-609367
-609356
-609346
-609336
-609326
-609316
-609306
-609296
-609286
-609276
-609266
-609256
-609246
-609236
-609226
-609216
-609205
-609195
-609185
-609175
-609165
-609155
-609145
-609135
-609124
-609114
-609104
-609094
-609084
-609074
-609063
-609053
-609043
-609033
-609023
-609012
-609002
-608992
-608982
-608971
-608961
-608951
-608941
-608930
-608920
-608910
-608899
-608889
-608879
-608869
-608858
-608848
-608838
-608827
-608817
-608807
-608796
-608786
-608775
-608765
-608755
-608744
-608734
-608724
-608713
-608703
-608692
-608682
-608671
-608661
-608651
-608640
-608630
-608619
-608609
-608598
-608588
-608577
-608567
-608556
-608546
-608535
-608525
-608514
-608504
-608493
-608483
-608472
-608461
-608451
-608440
-608430
-608419
-608409
-608398
-608387
-608377
-608366
-608355
-608345
-608334
-608323
-608313
-608302
-608291
-608281
-608270
-608259
-608249
-608238
-608227
-608217
-608206
-608195
-608184
-608174
-608163
-608152
-608141
-608131
-608120
-608109
-608098
-608087
-608077
-608066
-608055
-608044
-608033
-608022
-608011
-608001
-607990
-607979
-607968
-607957
-607946
-607935
-607924
-607913
-607902
-607892
-607881
-607870
-607859
-607848
-607837
-607826
-607815
-607804
-607793
-607782
-607771
-607760
-607749
-607738
-607727
-607715
-607704
-607693
-607682
-607671
-607660
-607649
-607638
-607627
-607615
-607604
-607593
-607582
-607571
-607560
-607548
-607537
-607526
-607515
-607504
-607492
-607481
-607470
-607459
-607447
-607436
-607425
-607414
-607402
-607391
-607380
-607368
-607357
-607346
-607334
-607323
-607312
-607300
-607289
-607278
-607266
-607255
-607243
-607232
-607221
-607209
-607198
-607186
-607175
-607163
-607152
-607140
-607129
-607117
-607106
-607094
-607083
-607071
-607060
-607048
-607037
-607025
-607013
-607002
-606990
-606979
-606967
-606955
-606944
-606932
-606920
-606909
-606897
-606885
-606874
-606862
-606850
-606839
-606827
-606815
-606803
-606792
-606780
-606768
-606756
-606744
-606733
-606721
-606709
-606697
-606685
-606673
-606662
-606650
-606638
-606626
-606614
-606602
-606590
-606578
-606566
-606554
-606542
-606530
-606518
-606506
-606494
-606482
-606470
-606458
-606446
-606434
-606422
-606410
-606398
-606386
-606374
-606362
-606350
-606338
-606325
-606313
-606301
-606289
-606277
-606264
-606252
-606240
-606228
-606216
-606203
-606191
-606179
-606167
-606154
-606142
-606130
-606117
-606105
-606093
-606080
-606068
-606055
-606043
-606031
-606018
-606006
-605993
-605981
-605969
-605956
-605944
-605931
-605919
-605906
-605894
-605881
-605868
-605856
-605843
-605831
-605818
-605806
-605793
-605780
-605768
-605755
-605742
-605730
-605717
-605704
-605691
-605679
-605666
-605653
-605641
-605628
-605615
-605602
-605589
-605577
-605564
-605551
-605538
-605525
-605512
-605499
-605486
-605473
-605461
-605448
-605435
-605422
-605409
-605396
-605383
-605370
-605357
-605344
-605331
-605317
-605304
-605291
-605278
-605265
-605252
-605239
-605226
-605212
-605199
-605186
-605173
-605159
-605146
-605133
-605120
-605106
-605093
-605080
-605066
-605053
-605040
-605026
-605013
-605000
-604986
-604973
-604959
-604946
-604932
-604919
-604905
-604892
-604878
-604865
-604851
-604838
-604824
-604810
-604797
-604783
-604770
-604756
-604742
-604729
-604715
-604701
-604687
-604674
-604660
-604646
-604632
-604618
-604605
-604591
-604577
-604563
-604549
-604535
-604521
-604507
-604493
-604480
-604466
-604452
-604438
-604423
-604409
-604395
-604381
-604367
-604353
-604339
-604325
-604311
-604296
-604282
-604268
-604254
-604240
-604225
-604211
-604197
-604182
-604168
-604154
-604139
-604125
-604111
-604096
-604082
-604067
-604053
-604038
-604024
-604009
-603995
-603980
-603966
-603951
-603937
-603922
-603907
-603893
-603878
-603863
-603849
-603834
-603819
-603804
-603789
-603775
-603760
-603745
-603730
-603715
-603700
-603685
-603671
-603656
-603641
-603626
-603611
-603596
-603580
-603565
-603550
-603535
-603520
-603505
-603490
-603475
-603459
-603444
-603429
-603414
-603398
-603383
-603368
-603352
-603337
-603321
-603306
-603291
-603275
-603260
-603244
-603229
-603213
-603198
-603182
-603166
-603151
-603135
-603119
-603104
-603088
-603072
-603056
-603041
-603025
-603009
-602993
-602977
-602961
-602946
-602930
-602914
-602898
-602882
-602866
-602850
-602833
-602817
-602801
-602785
-602769
-602753
-602736
-602720
-602704
-602688
-602671
-602655
-602639
-602622
-602606
-602589
-602573
-602556
-602540
-602523
-602507
-602490
-602474
-602457
-602440
-602424
-602407
-602390
-602373
-602357
-602340
-602323
-602306
-602289
-602272
-602255
-602238
-602221
-602204
-602187
-602170
-602153
-602136
-602119
-602102
-602084
-602067
-602050
-602032
-602015
-601998
-601980
-601963
-601945
-601928
-601911
-601893
-601875
-601858
-601840
-601823
-601805
-601787
-601769
-601752
-601734
-601716
-601698
-601680
-601662
-601644
-601626
-601608
-601590
-601572
-601554
-601536
-601518
-601500
-601481
-601463
-601445
-601427
-601408
-601390
-601371
-601353
-601334
-601316
-601297
-601279
-601260
-601241
-601223
-601204
-601185
-601166
-601148
-601129
-601110
-601091
-601072
-601053
-601034
-601015
-600996
-600976
-600957
-600938
-600919
-600900
-600880
-600861
-600841
-600822
-600803
-600783
-600763
-600744
-600724
-600705
-600685
-600665
-600645
-600626
-600606
-600586
-600566
-600546
-600526
-600506
-600486
-600466
-600445
-600425
-600405
-600385
-600364
-600344
-600323
-600303
-600283
-600262
-600241
-600221
-600200
-600179
-600159
-600138
-600117
-600096
-600075
-600054
-600033
-600012
-599991
-599970
-599949
-599927
-599906
-599885
-599863
-599842
-599821
-599799
-599777
-599756
-599734
-599712
-599691
-599669
-599647
-599625
-599603
-599581
-599559
-599537
-599515
-599493
-599471
-599448
-599426
-599404
-599381
-599359
-599336
-599313
-599291
-599268
-599245
-599223
-599200
-599177
-599154
-599131
-599108
-599085
-599061
-599038
-599015
-598992
-598968
-598945
-598921
-598898
-598874
-598850
-598827
-598803
-598779
-598755
-598731
-598707
-598683
-598659
-598635
-598610
-598586
-598562
-598537
-598513
-598488
-598464
-598439
-598414
-598389
-598364
-598340
-598315
-598289
-598264
-598239
-598214
-598189
-598163
-598138
-598112
-598087
-598061
-598035
-598009
-597984
-597958
-597932
-597906
-597880
-597853
-597827
-597801
-597774
-597748
-597721
-597695
-597668
-597641
-597614
-597588
-597561
-597533
-597506
-597479
-597452
-597425
-597397
-597370
-597342
-597314
-597287
-597259
-597231
-597203
-597175
-597147
-597119
-597090
-597062
-597033
-597005
-596976
-596948
-596919
-596890
-596861
-596832
-596803
-596774
-596744
-596715
-596686
-596656
-596626
-596597
-596567
-596537
-596507
-596477
-596447
-596416
-596386
-596356
-596325
-596294
-596264
-596233
-596202
-596171
-596140
-596109
-596077
-596046
-596015
-595983
-595951
-595920
-595888
-595856
-595824
-595791
-595759
-595727
-595694
-595662
-595629
-595596
-595563
-595530
-595497
-595464
-595431
-595397
-595364
-595330
-595296
-595262
-595228
-595194
-595160
-595126
-595091
-595057
-595022
-594987
-594952
-594917
-594882
-594847
-594811
-594776
-594740
-594704
-594669
-594633
-594596
-594560
-594524
-594487
-594451
-594414
-594377
-594340
-594303
-594266
-594228
-594191
-594153
-594115
-594077
-594039
-594001
-593963
-593924
-593886
-593847
-593808
-593769
-593730
-593691
-593651
-593611
-593572
-593532
-593492
-593452
-593411
-593371
-593330
-593289
-593248
-593207
-593166
-593125
-593083
-593041
-593000
-592957
-592915
-592873
-592830
-592788
-592745
-592702
-592659
-592615
-592572
-592528
-592484
-592440
-592396
-592352
-592307
-592263
-592218
-592173
-592127
-592082
-592036
-591991
-591945
-591898
-591852
-591806
-591759
-591712
-591665
-591618
-591570
-591522
-591475
-591427
-591378
-591330
-591281
-591232
-591183
-591134
-591085
-591035
-590985
-590935
-590885
-590834
-590783
-590733
-590681
-590630
-590578
-590527
-590475
-590422
-590370
-590317
-590264
-590211
-590158
-590104
-590050
-589996
-589942
-589887
-589833
-589778
-589722
-589667
-589611
-589555
-589499
-589442
-589386
-589329
-589271
-589214
-589156
-589098
-589040
-588981
-588922
-588863
-588804
-588744
-588684
-588624
-588564
-588503
-588442
-588381
-588319
-588257
-588195
-588133
-588070
-588007
-587944
-587880
-587816
-587752
-587687
-587623
-587557
-587492
-587426
-587360
-587294
-587227
-587160
-587093
-587025
-586957
-586889
-586820
-586751
-586682
-586612
-586542
-586472
-586401
-586330
-586259
-586187
-586115
-586043
-585970
-585897
-585823
-585749
-585675
-585600
-585526
-585450
-585374
-585298
-585222
-585145
-585068
-584990
-584912
-584833
-584754
-584675
-584595
-584515
-584435
-584354
-584273
-584191
-584109
-584026
-583943
-583859
-583775
-583691
-583606
-583521
-583435
-583349
-583263
-583175
-583088
-583000
-582911
-582822
-582733
-582643
-582553
-582462
-582371
-582279
-582186
-582093
-582000
-581906
-581812
-581717
-581621
-581525
-581429
-581332
-581234
-581136
-581038
-580938
-580839
-580738
-580638
-580536
-580434
-580332
-580228
-580125
-580020
-579915
-579810
-579704
-579597
-579490
-579382
-579273
-579164
-579054
-578943
-578832
-578720
-578608
-578495
-578381
-578266
-578151
-578035
-577919
-577801
-577683
-577565
-577445
-577325
-577204
-577082
-576960
-576836
-576712
-576587
-576461
-576335
-576207
-576079
-575950
-575820
-575688
-575557
-575424
-575290
-575155
-575014
-575014
-574931
-574840
-574829
-574548
-574425
-574219
-574079
-573906
-573766
-573607
-573464
-573312
-573167
-573019
-572874
-572726
-572578
-572429
-572280
-572130
-571979
-571828
-571675
-571521
-571367
-571212
-571056
-570899
-570740
-570581
-570421
-570260
-570098
-569935
-569770
-569605
-569439
-569272
-569104
-568934
-568764
-568592
-568420
-568247
-568072
-567896
-567719
-567542
-567363
-567182
-567001
-566819
-566635
-566451
-566265
-566078
-565890
-565701
-565510
-565319
-565126
-564932
-564737
-564540
-564343
-564144
-563944
-563742
-563540
-563336
-563130
-562924
-562716
-562507
-562297
-562085
-561872
-561658
-561442
-561225
-561007
-560787
-560566
-560343
-560119
-559894
-559667
-559439
-559210
-558979
-558746
-558512
-558277
-558040
-557802
-557562
-557320
-557078
-556833
-556587
-556340
-556091
-555840
-555588
-555335
-555079
-554823
-554564
-554304
-554042
-553779
-553514
-553248
-552979
-552709
-552438
-552164
-551889
-551613
-551334
-551054
-550772
-550489
-550203
-549916
-549627
-549336
-549044
-548750
-548453
-548156
-547856
-547554
-547251
-546945
-546638
-546329
-546018
-545705
-545391
-545074
-544756
-544435
-544113
-543788
-543462
-543134
-542804
-542471
-542137
-541801
-541463
-541123
-540780
-540436
-540090
-539742
-539391
-539039
-538684
-538328
-537969
-537608
-537246
-536881
-536514
-536145
-535773
-535400
-535024
-534647
-534267
-533885
-533501
-533115
-532727
-532336
-531943
-531549
-531152
-530752
-530351
-529947
-529542
-529134
-528724
-528311
-527897
-527480
-527061
-526640
-526216
-525791
-525363
-524933
-524501
-524067
-523630
-523191
-522750
-522307
-521862
-521414
-520964
-520512
-520058
-519602
-519143
-518683
-518220
-517755
-517288
-516818
-516347
-515873
-515397
-514919
-514439
-513957
-513473
-512987
-512498
-512008
-511515
-511021
-510524
-510026
-509525
-509022
-508518
-508011
-507503
-506992
-506480
-505965
-505449
-504931
-504411
-503890
-503366
-502841
-502313
-501785
-501254
-500722
-500188
-499652
-499115
-498576
-498035
-497493
-496949
-496404
-495857
-495309
-494760
-494209
-493657
-493103
-492548
-491992
-491434
-490876
-490316
-489755
-489193
-488629
-488065
-487500
-486934
-486367
-485799
-485230
-484660
-484090
-483518
-482947
-482374
-481801
-481227
-480653
-480079
-479504
-478928
-478353
-477777
-477200
-476624
-476047
-475471
-474894
-474317
-473741
-473164
-472588
-472011
-471436
-470860
-470285
-469710
-469136
-468562
-467989
-467416
-466844
-466273
-465703
-465133
-464565
-463997
-463431
-462865
-462301
-461738
-461176
-460615
-460056
-459499
-458942
-458388
-457834
-457283
-456733
-456185
-455639
-455095
-454552
-454012
-453474
-452938
-452404
-451872
-451342
-450815
-450290
-449768
-449248
-448731
-448216
-447704
-447195
-446688
-446184
-445684
-445186
-444691
-444199
-443710
-443224
-442741
-442262
-441785
-441312
-440843
-440377
-439914
-439454
-438999
-438546
-438098
-437652
-437211
-436773
-436339
-435909
-435483
-435060
-434641
-434226
-433815
-433409
-433006
-432607
-432212
-431821
-431434
-431051
-430673
-430298
-429928
-429562
-429200
-428842
-428489
-428140
-427795
-427454
-427118
-426786
-426458
-426134
-425815
-425500
-425189
-424883
-424581
-424283
-423990
-423701
-423416
-423135
-422859
-422587
-422320
-422056
-421797
-421542
-421291
-421045
-420803
-420565
-420331
-420101
-419875
-419654
-419437
-419223
-419014
-418809
-418608
-418411
-418217
-418028
-417843
-417661
-417484
-417310
-417140
-416974
-416812
-416653
-416498
-416346
-416199
-416054
-415914
-415777
-415643
-415513
-415386
-415263
-415143
-415026
-414913
-414803
-414696
-414592
-414491
-414394
-414299
-414208
-414119
-414034
-413951
-413871
-413794
-413720
-413649
-413580
-413514
-413451
-413390
-413332
-413276
-413223
-413172
-413124
-413078
-413034
-412993
-412954
-412917
-412882
-412850
-412819
-412791
-412765
-412740
-412718
-412697
-412679
-412662
-412648
-412635
-412623
-412614
-412606
-412600
-412595
-412592
-412591
-412591
-412593
-412596
-412601
-412607
-412614
-412623
-412633
-412644
-412657
-412671
-412686
-412702
-412720
-412738
-412758
-412779
-412800
-412823
-412847
-412872
-412898
-412925
-412952
-412981
-413010
-413041
-413072
-413104
-413136
-413170
-413204
-413239
-413275
-413311
-413348
-413386
-413424
-413463
-413503
-413543
-413584
-413625
-413667
-413710
-413752
-413796
-413840
-413884
-413929
-413974
-414020
-414066
-414113
-414160
-414207
-414255
-414303
-414351
-414400
-414449
-414498
-414548
-414598
-414649
-414699
-414750
-414801
-414853
-414904
-414956
-415008
-415061
-415113
-415166
-415219
-415272
-415326
-415379
-415433
-415487
-415541
-415595
-415650
-415704
-415759
-415814
-415869
-415924
-415980
-416035
-416090
-416146
-416202
-416258
-416314
-416370
-416426
-416482
-416538
-416595
-416651
-416708
-416765
-416821
-416878
-416935
-416992
-417049
-417106
-417163
-417221
-417278
-417335
-417393
-417450
-417507
-417565
-417622
-417680
-417738
-417795
-417853
-417911
-417969
-418027
-418084
-418142
-418200
-418258
-418316
-418374
-418432
-418490
-418548
-418607
-418665
-418723
-418781
-418839
-418897
-418956
-419014
-419072
-419131
-419189
-419247
-419306
-419364
-419422
-419481
-419539
-419598
-419656
-419714
-419773
-419831
-419890
-419948
-420007
-420065
-420124
-420182
-420241
-420300
-420358
-420417
-420475
-420534
-420593
-420651
-420710
-420768
-420827
-420886
-420944
-421003
-421062
-421120
-421179
-421238
-421296
-421355
-421414
-421473
-421531
-421590
-421649
-421708
-421766
-421825
-421884
-421943
-422001
-422060
-422119
-422178
-422237
-422296
-422354
-422413
-422472
-422531
-422590
-422649
-422707
-422766
-422825
-422884
-422943
-423002
-423061
-423120
-423179
-423238
-423296
-423355
-423414
-423473
-423532
-423591
-423650
-423709
-423768
-423827
-423886
-423945
-424004
-424063
-424122
-424181
-424240
-424299
-424358
-424417
-424476
-424535
-424595
-424654
-424713
-424772
-424831
-424890
-424949
-425008
-425067
-425126
-425186
-425245
-425304
-425363
-425422
-425481
-425541
-425600
-425659
-425718
-425777
-425837
-425896
-425955
-426014
-426073
-426133
-426192
-426251
-426310
-426370
-426429
-426488
-426548
-426607
-426666
-426725
-426785
-426844
-426903
-426963
-427022
-427081
-427141
-427200
-427259
-427319
-427378
-427438
-427497
-427556
-427616
-427675
-427735
-427794
-427853
-427913
-427972
-428032
-428091
-428151
-428210
-428270
-428329
-428389
-428448
-428508
-428567
-428627
-428686
-428746
-428805
-428865
-428924
-428984
-429043
-429103
-429162
-429222
-429281
-429341
-429401
-429460
-429520
-429579
-429639
-429699
-429758
-429818
-429878
-429937
-429997
-430056
-430116
-430176
-430235
-430295
-430355
-430414
-430474
-430534
-430594
-430653
-430713
-430773
-430832
-430892
-430952
-431012
-431071
-431131
-431191
-431251
-431310
-431370
-431430
-431490
-431550
-431609
-431669
-431729
-431789
-431849
-431908
-431968
-432028
-432088
-432148
-432208
-432268
-432327
-432387
-432447
-432507
-432567
-432627
-432687
-432747
-432807
-432867
-432927
-432986
-433046
-433106
-433166
-433226
-433286
-433346
-433406
-433466
-433526
-433586
-433646
-433706
-433766
-433826
-433886
-433946
-434006
-434066
-434126
-434187
-434247
-434307
-434367
-434427
-434487
-434547
-434607
-434667
-434727
-434788
-434848
-434908
-434968
-435028
-435088
-435148
-435209
-435269
-435329
-435389
-435449
-435510
-435570
-435630
-435690
-435751
-435811
-435871
-435931
-435992
-436052
-436112
-436173
-436233
-436293
-436354
-436414
-436474
-436535
-436595
-436655
-436716
-436776
-436836
-436897
-436957
-437018
-437078
-437138
-437199
-437259
-437320
-437380
-437441
-437501
-437562
-437622
-437683
-437743
-437804
-437864
-437925
-437985
-438046
-438106
-438167
-438228
-438288
-438349
-438409
-438470
-438531
-438591
-438652
-438713
-438773