/*--------------------------------*- C++ -*----------------------------------*\
  =========                 |
  \\      /  F ield         | OpenFOAM: The Open Source CFD Toolbox
   \\    /   O peration     | Website:  https://openfoam.org
    \\  /    A nd           | Version:  9
     \\/     M anipulation  |
\*---------------------------------------------------------------------------*/
FoamFile
{
    format      ascii;
    class       volVectorField;
    location    "0.037";
    object      ddtCorrDdt0(rho,U);
}
// * * * * * * * * * * * * * * * * * * * * * * * * * * * * * * * * * * * * * //

dimensions      [1 -2 -2 0 0 0 0];

internalField   nonuniform List<vector> 
10000
(
(-9.63808 0 0)
(-10.3113 0 0)
(-10.9675 0 0)
(-11.5021 0 0)
(-12.005 0 0)
(-12.5198 0 0)
(-13.0447 0 0)
(-13.571 0 0)
(-14.0957 0 0)
(-14.6195 0 0)
(-15.1438 0 0)
(-15.6687 0 0)
(-16.1936 0 0)
(-16.7179 0 0)
(-17.2417 0 0)
(-17.7656 0 0)
(-18.2899 0 0)
(-18.8142 0 0)
(-19.3381 0 0)
(-19.8618 0 0)
(-20.3859 0 0)
(-20.9108 0 0)
(-21.4363 0 0)
(-21.9615 0 0)
(-22.486 0 0)
(-23.0102 0 0)
(-23.535 0 0)
(-24.0605 0 0)
(-24.5859 0 0)
(-25.11 0 0)
(-25.6325 0 0)
(-26.1546 0 0)
(-26.6777 0 0)
(-27.2024 0 0)
(-27.7279 0 0)
(-28.2527 0 0)
(-28.7759 0 0)
(-29.2979 0 0)
(-29.8201 0 0)
(-30.3438 0 0)
(-30.8692 0 0)
(-31.3948 0 0)
(-31.9188 0 0)
(-32.4407 0 0)
(-32.9615 0 0)
(-33.4832 0 0)
(-34.0075 0 0)
(-34.5343 0 0)
(-35.0621 0 0)
(-35.5888 0 0)
(-36.1128 0 0)
(-36.6341 0 0)
(-37.1542 0 0)
(-37.6754 0 0)
(-38.1994 0 0)
(-38.7259 0 0)
(-39.2533 0 0)
(-39.7791 0 0)
(-40.3018 0 0)
(-40.8213 0 0)
(-41.3394 0 0)
(-41.8588 0 0)
(-42.3817 0 0)
(-42.9083 0 0)
(-43.4371 0 0)
(-43.9652 0 0)
(-44.4903 0 0)
(-45.0113 0 0)
(-45.5288 0 0)
(-46.0451 0 0)
(-46.563 0 0)
(-47.0851 0 0)
(-47.6123 0 0)
(-48.1435 0 0)
(-48.6757 0 0)
(-49.2056 0 0)
(-49.7309 0 0)
(-50.2508 0 0)
(-50.7664 0 0)
(-51.2803 0 0)
(-51.7956 0 0)
(-52.3145 0 0)
(-52.8382 0 0)
(-53.3665 0 0)
(-53.8983 0 0)
(-54.4312 0 0)
(-54.9621 0 0)
(-55.4883 0 0)
(-56.0086 0 0)
(-56.5238 0 0)
(-57.0355 0 0)
(-57.5463 0 0)
(-58.0589 0 0)
(-58.5763 0 0)
(-59.1001 0 0)
(-59.6303 0 0)
(-60.1655 0 0)
(-60.7029 0 0)
(-61.2394 0 0)
(-61.7718 0 0)
(-62.2984 0 0)
(-62.8192 0 0)
(-63.3349 0 0)
(-63.8462 0 0)
(-64.3546 0 0)
(-64.8622 0 0)
(-65.3718 0 0)
(-65.8863 0 0)
(-66.4065 0 0)
(-66.9326 0 0)
(-67.4642 0 0)
(-68.0008 0 0)
(-68.5403 0 0)
(-69.0801 0 0)
(-69.6183 0 0)
(-70.1532 0 0)
(-70.6833 0 0)
(-71.208 0 0)
(-71.7278 0 0)
(-72.2429 0 0)
(-72.7529 0 0)
(-73.2581 0 0)
(-73.7598 0 0)
(-74.2604 0 0)
(-74.7633 0 0)
(-75.2698 0 0)
(-75.7795 0 0)
(-76.293 0 0)
(-76.8125 0 0)
(-77.3385 0 0)
(-77.8699 0 0)
(-78.4064 0 0)
(-78.9487 0 0)
(-79.4956 0 0)
(-80.0458 0 0)
(-80.5995 0 0)
(-81.1553 0 0)
(-81.7116 0 0)
(-82.2682 0 0)
(-82.824 0 0)
(-83.3792 0 0)
(-83.9351 0 0)
(-84.4902 0 0)
(-85.0405 0 0)
(-85.5831 0 0)
(-86.122 0 0)
(-86.6603 0 0)
(-87.1933 0 0)
(-87.7219 0 0)
(-88.2494 0 0)
(-88.7746 0 0)
(-89.3008 0 0)
(-89.8283 0 0)
(-90.3588 0 0)
(-90.8995 0 0)
(-91.4665 0 0)
(-91.9996 0 0)
(-92.526 0 0)
(-93.0525 0 0)
(-93.5782 0 0)
(-94.1046 0 0)
(-94.6282 0 0)
(-95.1536 0 0)
(-95.68 0 0)
(-96.2029 0 0)
(-96.7267 0 0)
(-97.2545 0 0)
(-97.7805 0 0)
(-98.3026 0 0)
(-98.8243 0 0)
(-99.3471 0 0)
(-99.8721 0 0)
(-100.399 0 0)
(-100.924 0 0)
(-101.45 0 0)
(-101.976 0 0)
(-102.501 0 0)
(-103.026 0 0)
(-103.552 0 0)
(-104.077 0 0)
(-104.602 0 0)
(-105.127 0 0)
(-105.652 0 0)
(-106.178 0 0)
(-106.703 0 0)
(-107.227 0 0)
(-107.751 0 0)
(-108.277 0 0)
(-108.804 0 0)
(-109.328 0 0)
(-109.852 0 0)
(-110.376 0 0)
(-110.899 0 0)
(-111.423 0 0)
(-111.948 0 0)
(-112.473 0 0)
(-112.999 0 0)
(-113.524 0 0)
(-114.049 0 0)
(-114.574 0 0)
(-115.1 0 0)
(-115.624 0 0)
(-116.149 0 0)
(-116.675 0 0)
(-117.201 0 0)
(-117.726 0 0)
(-118.251 0 0)
(-118.775 0 0)
(-119.3 0 0)
(-119.826 0 0)
(-120.352 0 0)
(-120.877 0 0)
(-121.402 0 0)
(-121.926 0 0)
(-122.449 0 0)
(-122.973 0 0)
(-123.497 0 0)
(-124.022 0 0)
(-124.547 0 0)
(-125.072 0 0)
(-125.597 0 0)
(-126.122 0 0)
(-126.647 0 0)
(-127.172 0 0)
(-127.697 0 0)
(-128.222 0 0)
(-128.747 0 0)
(-129.272 0 0)
(-129.797 0 0)
(-130.321 0 0)
(-130.846 0 0)
(-131.372 0 0)
(-131.897 0 0)
(-132.423 0 0)
(-132.948 0 0)
(-133.473 0 0)
(-133.997 0 0)
(-134.521 0 0)
(-135.045 0 0)
(-135.569 0 0)
(-136.094 0 0)
(-136.618 0 0)
(-137.143 0 0)
(-137.668 0 0)
(-138.193 0 0)
(-138.718 0 0)
(-139.243 0 0)
(-139.768 0 0)
(-140.293 0 0)
(-140.818 0 0)
(-141.342 0 0)
(-141.867 0 0)
(-142.391 0 0)
(-142.916 0 0)
(-143.441 0 0)
(-143.967 0 0)
(-144.492 0 0)
(-145.017 0 0)
(-145.542 0 0)
(-146.067 0 0)
(-146.591 0 0)
(-147.115 0 0)
(-147.639 0 0)
(-148.164 0 0)
(-148.688 0 0)
(-149.213 0 0)
(-149.738 0 0)
(-150.263 0 0)
(-150.787 0 0)
(-151.312 0 0)
(-151.837 0 0)
(-152.362 0 0)
(-152.887 0 0)
(-153.412 0 0)
(-153.936 0 0)
(-154.46 0 0)
(-154.985 0 0)
(-155.51 0 0)
(-156.035 0 0)
(-156.56 0 0)
(-157.084 0 0)
(-157.609 0 0)
(-158.134 0 0)
(-158.658 0 0)
(-159.183 0 0)
(-159.707 0 0)
(-160.231 0 0)
(-160.756 0 0)
(-161.281 0 0)
(-161.805 0 0)
(-162.33 0 0)
(-162.855 0 0)
(-163.38 0 0)
(-163.904 0 0)
(-164.429 0 0)
(-164.954 0 0)
(-165.479 0 0)
(-166.003 0 0)
(-166.528 0 0)
(-167.052 0 0)
(-167.577 0 0)
(-168.102 0 0)
(-168.626 0 0)
(-169.151 0 0)
(-169.676 0 0)
(-170.2 0 0)
(-170.724 0 0)
(-171.249 0 0)
(-171.773 0 0)
(-172.297 0 0)
(-172.821 0 0)
(-173.346 0 0)
(-173.87 0 0)
(-174.395 0 0)
(-174.92 0 0)
(-175.445 0 0)
(-175.97 0 0)
(-176.494 0 0)
(-177.019 0 0)
(-177.544 0 0)
(-178.068 0 0)
(-178.593 0 0)
(-179.117 0 0)
(-179.642 0 0)
(-180.166 0 0)
(-180.691 0 0)
(-181.216 0 0)
(-181.741 0 0)
(-182.265 0 0)
(-182.789 0 0)
(-183.314 0 0)
(-183.838 0 0)
(-184.362 0 0)
(-184.886 0 0)
(-185.41 0 0)
(-185.934 0 0)
(-186.458 0 0)
(-186.983 0 0)
(-187.507 0 0)
(-188.032 0 0)
(-188.557 0 0)
(-189.082 0 0)
(-189.607 0 0)
(-190.131 0 0)
(-190.656 0 0)
(-191.18 0 0)
(-191.705 0 0)
(-192.229 0 0)
(-192.754 0 0)
(-193.279 0 0)
(-193.803 0 0)
(-194.328 0 0)
(-194.852 0 0)
(-195.376 0 0)
(-195.901 0 0)
(-196.425 0 0)
(-196.949 0 0)
(-197.473 0 0)
(-197.997 0 0)
(-198.521 0 0)
(-199.045 0 0)
(-199.569 0 0)
(-200.093 0 0)
(-200.618 0 0)
(-201.142 0 0)
(-201.667 0 0)
(-202.192 0 0)
(-202.716 0 0)
(-203.241 0 0)
(-203.765 0 0)
(-204.29 0 0)
(-204.814 0 0)
(-205.339 0 0)
(-205.864 0 0)
(-206.388 0 0)
(-206.913 0 0)
(-207.437 0 0)
(-207.962 0 0)
(-208.486 0 0)
(-209.01 0 0)
(-209.534 0 0)
(-210.058 0 0)
(-210.582 0 0)
(-211.106 0 0)
(-211.629 0 0)
(-212.153 0 0)
(-212.678 0 0)
(-213.202 0 0)
(-213.726 0 0)
(-214.25 0 0)
(-214.775 0 0)
(-215.299 0 0)
(-215.824 0 0)
(-216.348 0 0)
(-216.872 0 0)
(-217.397 0 0)
(-217.922 0 0)
(-218.446 0 0)
(-218.971 0 0)
(-219.495 0 0)
(-220.02 0 0)
(-220.544 0 0)
(-221.068 0 0)
(-221.593 0 0)
(-222.117 0 0)
(-222.641 0 0)
(-223.164 0 0)
(-223.688 0 0)
(-224.212 0 0)
(-224.736 0 0)
(-225.26 0 0)
(-225.784 0 0)
(-226.308 0 0)
(-226.832 0 0)
(-227.357 0 0)
(-227.881 0 0)
(-228.405 0 0)
(-228.929 0 0)
(-229.453 0 0)
(-229.978 0 0)
(-230.502 0 0)
(-231.026 0 0)
(-231.551 0 0)
(-232.075 0 0)
(-232.6 0 0)
(-233.124 0 0)
(-233.648 0 0)
(-234.173 0 0)
(-234.697 0 0)
(-235.221 0 0)
(-235.745 0 0)
(-236.269 0 0)
(-236.793 0 0)
(-237.316 0 0)
(-237.84 0 0)
(-238.364 0 0)
(-238.888 0 0)
(-239.412 0 0)
(-239.936 0 0)
(-240.46 0 0)
(-240.984 0 0)
(-241.508 0 0)
(-242.033 0 0)
(-242.557 0 0)
(-243.081 0 0)
(-243.605 0 0)
(-244.129 0 0)
(-244.653 0 0)
(-245.178 0 0)
(-245.702 0 0)
(-246.226 0 0)
(-246.75 0 0)
(-247.275 0 0)
(-247.799 0 0)
(-248.323 0 0)
(-248.846 0 0)
(-249.37 0 0)
(-249.894 0 0)
(-250.418 0 0)
(-250.942 0 0)
(-251.466 0 0)
(-251.99 0 0)
(-252.514 0 0)
(-253.038 0 0)
(-253.562 0 0)
(-254.086 0 0)
(-254.61 0 0)
(-255.134 0 0)
(-255.658 0 0)
(-256.182 0 0)
(-256.706 0 0)
(-257.23 0 0)
(-257.754 0 0)
(-258.278 0 0)
(-258.802 0 0)
(-259.326 0 0)
(-259.85 0 0)
(-260.374 0 0)
(-260.898 0 0)
(-261.422 0 0)
(-261.946 0 0)
(-262.47 0 0)
(-262.993 0 0)
(-263.517 0 0)
(-264.041 0 0)
(-264.565 0 0)
(-265.089 0 0)
(-265.613 0 0)
(-266.137 0 0)
(-266.661 0 0)
(-267.185 0 0)
(-267.709 0 0)
(-268.233 0 0)
(-268.757 0 0)
(-269.281 0 0)
(-269.804 0 0)
(-270.328 0 0)
(-270.852 0 0)
(-271.376 0 0)
(-271.9 0 0)
(-272.424 0 0)
(-272.948 0 0)
(-273.471 0 0)
(-273.995 0 0)
(-274.519 0 0)
(-275.043 0 0)
(-275.566 0 0)
(-276.09 0 0)
(-276.614 0 0)
(-277.138 0 0)
(-277.662 0 0)
(-278.185 0 0)
(-278.709 0 0)
(-279.233 0 0)
(-279.757 0 0)
(-280.281 0 0)
(-280.805 0 0)
(-281.329 0 0)
(-281.852 0 0)
(-282.376 0 0)
(-282.9 0 0)
(-283.424 0 0)
(-283.948 0 0)
(-284.472 0 0)
(-284.996 0 0)
(-285.52 0 0)
(-286.043 0 0)
(-286.567 0 0)
(-287.09 0 0)
(-287.614 0 0)
(-288.137 0 0)
(-288.661 0 0)
(-289.184 0 0)
(-289.708 0 0)
(-290.232 0 0)
(-290.756 0 0)
(-291.279 0 0)
(-291.803 0 0)
(-292.327 0 0)
(-292.851 0 0)
(-293.375 0 0)
(-293.898 0 0)
(-294.422 0 0)
(-294.946 0 0)
(-295.469 0 0)
(-295.993 0 0)
(-296.517 0 0)
(-297.041 0 0)
(-297.565 0 0)
(-298.089 0 0)
(-298.613 0 0)
(-299.136 0 0)
(-299.66 0 0)
(-300.184 0 0)
(-300.707 0 0)
(-301.23 0 0)
(-301.754 0 0)
(-302.277 0 0)
(-302.8 0 0)
(-303.324 0 0)
(-303.847 0 0)
(-304.371 0 0)
(-304.894 0 0)
(-305.418 0 0)
(-305.942 0 0)
(-306.465 0 0)
(-306.989 0 0)
(-307.513 0 0)
(-308.037 0 0)
(-308.56 0 0)
(-309.084 0 0)
(-309.608 0 0)
(-310.131 0 0)
(-310.655 0 0)
(-311.179 0 0)
(-311.702 0 0)
(-312.226 0 0)
(-312.75 0 0)
(-313.273 0 0)
(-313.797 0 0)
(-314.321 0 0)
(-314.844 0 0)
(-315.368 0 0)
(-315.891 0 0)
(-316.414 0 0)
(-316.937 0 0)
(-317.46 0 0)
(-317.984 0 0)
(-318.507 0 0)
(-319.03 0 0)
(-319.554 0 0)
(-320.077 0 0)
(-320.601 0 0)
(-321.124 0 0)
(-321.648 0 0)
(-322.172 0 0)
(-322.696 0 0)
(-323.219 0 0)
(-323.743 0 0)
(-324.267 0 0)
(-324.79 0 0)
(-325.314 0 0)
(-325.837 0 0)
(-326.361 0 0)
(-326.884 0 0)
(-327.407 0 0)
(-327.931 0 0)
(-328.454 0 0)
(-328.978 0 0)
(-329.501 0 0)
(-330.025 0 0)
(-330.548 0 0)
(-331.071 0 0)
(-331.594 0 0)
(-332.118 0 0)
(-332.641 0 0)
(-333.164 0 0)
(-333.687 0 0)
(-334.21 0 0)
(-334.734 0 0)
(-335.257 0 0)
(-335.78 0 0)
(-336.304 0 0)
(-336.827 0 0)
(-337.351 0 0)
(-337.875 0 0)
(-338.399 0 0)
(-338.922 0 0)
(-339.446 0 0)
(-339.969 0 0)
(-340.493 0 0)
(-341.015 0 0)
(-341.54 0 0)
(-342.061 0 0)
(-342.586 0 0)
(-343.107 0 0)
(-343.633 0 0)
(-344.152 0 0)
(-344.681 0 0)
(-345.198 0 0)
(-345.729 0 0)
(-346.244 0 0)
(-346.777 0 0)
(-347.288 0 0)
(-347.824 0 0)
(-348.334 0 0)
(-348.871 0 0)
(-349.38 0 0)
(-349.916 0 0)
(-350.429 0 0)
(-350.959 0 0)
(-351.48 0 0)
(-352.003 0 0)
(-352.528 0 0)
(-353.051 0 0)
(-353.573 0 0)
(-354.097 0 0)
(-354.621 0 0)
(-355.144 0 0)
(-355.667 0 0)
(-356.19 0 0)
(-356.714 0 0)
(-357.236 0 0)
(-357.761 0 0)
(-358.28 0 0)
(-358.812 0 0)
(-359.321 0 0)
(-359.864 0 0)
(-360.36 0 0)
(-360.917 0 0)
(-361.401 0 0)
(-361.966 0 0)
(-362.446 0 0)
(-363.009 0 0)
(-363.5 0 0)
(-364.044 0 0)
(-364.561 0 0)
(-365.073 0 0)
(-365.625 0 0)
(-366.105 0 0)
(-366.683 0 0)
(-367.146 0 0)
(-367.728 0 0)
(-368.203 0 0)
(-368.754 0 0)
(-369.272 0 0)
(-369.775 0 0)
(-370.344 0 0)
(-370.804 0 0)
(-371.399 0 0)
(-371.853 0 0)
(-372.427 0 0)
(-372.926 0 0)
(-373.44 0 0)
(-374.005 0 0)
(-374.462 0 0)
(-375.063 0 0)
(-375.51 0 0)
(-376.089 0 0)
(-376.592 0 0)
(-377.095 0 0)
(-377.674 0 0)
(-378.116 0 0)
(-378.727 0 0)
(-379.178 0 0)
(-379.738 0 0)
(-380.267 0 0)
(-380.741 0 0)
(-381.348 0 0)
(-381.776 0 0)
(-382.379 0 0)
(-382.859 0 0)
(-383.374 0 0)
(-383.954 0 0)
(-384.385 0 0)
(-385.007 0 0)
(-385.454 0 0)
(-386.006 0 0)
(-386.557 0 0)
(-387.002 0 0)
(-387.63 0 0)
(-388.056 0 0)
(-388.635 0 0)
(-389.163 0 0)
(-389.621 0 0)
(-390.248 0 0)
(-390.663 0 0)
(-391.258 0 0)
(-391.77 0 0)
(-392.237 0 0)
(-392.865 0 0)
(-393.273 0 0)
(-393.878 0 0)
(-394.384 0 0)
(-394.85 0 0)
(-395.482 0 0)
(-395.886 0 0)
(-396.492 0 0)
(-397.002 0 0)
(-397.461 0 0)
(-398.1 0 0)
(-398.501 0 0)
(-399.097 0 0)
(-399.625 0 0)
(-400.067 0 0)
(-400.715 0 0)
(-401.122 0 0)
(-401.699 0 0)
(-402.254 0 0)
(-402.67 0 0)
(-403.326 0 0)
(-403.751 0 0)
(-404.295 0 0)
(-404.891 0 0)
(-405.279 0 0)
(-405.928 0 0)
(-406.39 0 0)
(-406.882 0 0)
(-407.515 0 0)
(-407.9 0 0)
(-408.522 0 0)
(-409.032 0 0)
(-409.472 0 0)
(-410.134 0 0)
(-410.532 0 0)
(-411.105 0 0)
(-411.675 0 0)
(-412.074 0 0)
(-412.735 0 0)
(-413.175 0 0)
(-413.686 0 0)
(-414.304 0 0)
(-414.691 0 0)
(-415.323 0 0)
(-415.827 0 0)
(-416.272 0 0)
(-416.927 0 0)
(-417.329 0 0)
(-417.894 0 0)
(-418.477 0 0)
(-418.869 0 0)
(-419.521 0 0)
(-419.987 0 0)
(-420.461 0 0)
(-421.113 0 0)
(-421.5 0 0)
(-422.087 0 0)
(-422.654 0 0)
(-423.048 0 0)
(-423.71 0 0)
(-424.167 0 0)
(-424.64 0 0)
(-425.297 0 0)
(-425.68 0 0)
(-426.263 0 0)
(-426.845 0 0)
(-427.225 0 0)
(-427.885 0 0)
(-428.362 0 0)
(-428.807 0 0)
(-429.482 0 0)
(-429.874 0 0)
(-430.419 0 0)
(-431.043 0 0)
(-431.405 0 0)
(-432.041 0 0)
(-432.575 0 0)
(-432.967 0 0)
(-433.653 0 0)
(-434.091 0 0)
(-434.561 0 0)
(-435.239 0 0)
(-435.61 0 0)
(-436.173 0 0)
(-436.796 0 0)
(-437.146 0 0)
(-437.792 0 0)
(-438.331 0 0)
(-438.707 0 0)
(-439.404 0 0)
(-439.852 0 0)
(-440.292 0 0)
(-440.996 0 0)
(-441.37 0 0)
(-441.897 0 0)
(-442.564 0 0)
(-442.897 0 0)
(-443.512 0 0)
(-444.11 0 0)
(-444.443 0 0)
(-445.128 0 0)
(-445.639 0 0)
(-446.01 0 0)
(-446.732 0 0)
(-447.16 0 0)
(-447.598 0 0)
(-448.319 0 0)
(-448.682 0 0)
(-449.201 0 0)
(-449.889 0 0)
(-450.214 0 0)
(-450.81 0 0)
(-451.441 0 0)
(-451.76 0 0)
(-452.419 0 0)
(-452.982 0 0)
(-453.32 0 0)
(-454.021 0 0)
(-454.515 0 0)
(-454.893 0 0)
(-455.614 0 0)
(-456.046 0 0)
(-456.478 0 0)
(-457.197 0 0)
(-457.578 0 0)
(-458.07 0 0)
(-458.767 0 0)
(-459.115 0 0)
(-459.666 0 0)
(-460.329 0 0)
(-460.66 0 0)
(-461.263 0 0)
(-461.883 0 0)
(-462.213 0 0)
(-462.858 0 0)
(-463.432 0 0)
(-463.774 0 0)
(-464.45 0 0)
(-464.979 0 0)
(-465.339 0 0)
(-466.037 0 0)
(-466.526 0 0)
(-466.909 0 0)
(-467.621 0 0)
(-468.074 0 0)
(-468.481 0 0)
(-469.2 0 0)
(-469.623 0 0)
(-470.055 0 0)
(-470.776 0 0)
(-471.173 0 0)
(-471.629 0 0)
(-472.35 0 0)
(-472.726 0 0)
(-473.204 0 0)
(-473.921 0 0)
(-474.281 0 0)
(-474.778 0 0)
(-475.491 0 0)
(-475.837 0 0)
(-476.351 0 0)
(-477.059 0 0)
(-477.396 0 0)
(-477.924 0 0)
(-478.627 0 0)
(-478.957 0 0)
(-479.495 0 0)
(-480.194 0 0)
(-480.519 0 0)
(-481.066 0 0)
(-481.761 0 0)
(-482.082 0 0)
(-482.635 0 0)
(-483.328 0 0)
(-483.646 0 0)
(-484.202 0 0)
(-484.896 0 0)
(-485.212 0 0)
(-485.768 0 0)
(-486.464 0 0)
(-486.778 0 0)
(-487.332 0 0)
(-488.033 0 0)
(-488.346 0 0)
(-488.894 0 0)
(-489.601 0 0)
(-489.916 0 0)
(-490.453 0 0)
(-491.17 0 0)
(-491.488 0 0)
(-492.011 0 0)
(-492.738 0 0)
(-493.062 0 0)
(-493.566 0 0)
(-494.306 0 0)
(-494.639 0 0)
(-495.119 0 0)
(-495.873 0 0)
(-496.219 0 0)
(-496.672 0 0)
(-497.437 0 0)
(-497.803 0 0)
(-498.224 0 0)
(-498.997 0 0)
(-499.389 0 0)
(-499.777 0 0)
(-500.553 0 0)
(-500.979 0 0)
(-501.333 0 0)
(-502.104 0 0)
(-502.57 0 0)
(-502.893 0 0)
(-503.649 0 0)
(-504.162 0 0)
(-504.457 0 0)
(-505.189 0 0)
(-505.752 0 0)
(-506.027 0 0)
(-506.725 0 0)
(-507.34 0 0)
(-507.604 0 0)
(-508.258 0 0)
(-508.924 0 0)
(-509.189 0 0)
(-509.789 0 0)
(-510.5 0 0)
(-510.782 0 0)
(-511.321 0 0)
(-512.067 0 0)
(-512.381 0 0)
(-512.857 0 0)
(-513.625 0 0)
(-513.985 0 0)
(-514.398 0 0)
(-515.171 0 0)
(-515.592 0 0)
(-515.949 0 0)
(-516.708 0 0)
(-517.197 0 0)
(-517.51 0 0)
(-518.237 0 0)
(-518.797 0 0)
(-519.083 0 0)
(-519.76 0 0)
(-520.391 0 0)
(-520.669 0 0)
(-521.281 0 0)
(-521.972 0 0)
(-522.267 0 0)
(-522.803 0 0)
(-523.54 0 0)
(-523.876 0 0)
(-524.332 0 0)
(-525.091 0 0)
(-525.491 0 0)
(-525.872 0 0)
(-526.627 0 0)
(-527.106 0 0)
(-527.429 0 0)
(-528.148 0 0)
(-528.716 0 0)
(-529.003 0 0)
(-529.66 0 0)
(-530.313 0 0)
(-530.598 0 0)
(-531.169 0 0)
(-531.891 0 0)
(-532.211 0 0)
(-532.685 0 0)
(-533.445 0 0)
(-533.835 0 0)
(-534.216 0 0)
(-534.974 0 0)
(-535.463 0 0)
(-535.771 0 0)
(-536.483 0 0)
(-537.081 0 0)
(-537.355 0 0)
(-537.98 0 0)
(-538.677 0 0)
(-538.968 0 0)
(-539.48 0 0)
(-540.242 0 0)
(-540.601 0 0)
(-540.997 0 0)
(-541.771 0 0)
(-542.24 0 0)
(-542.547 0 0)
(-543.27 0 0)
(-543.868 0 0)
(-544.135 0 0)
(-544.754 0 0)
(-545.465 0 0)
(-545.758 0 0)
(-546.245 0 0)
(-547.022 0 0)
(-547.403 0 0)
(-547.764 0 0)
(-548.535 0 0)
(-549.048 0 0)
(-549.328 0 0)
(-550.019 0 0)
(-550.669 0 0)
(-550.938 0 0)
(-551.496 0 0)
(-552.246 0 0)
(-552.583 0 0)
(-552.995 0 0)
(-553.774 0 0)
(-554.238 0 0)
(-554.538 0 0)
(-555.262 0 0)
(-555.873 0 0)
(-556.136 0 0)
(-556.735 0 0)
(-557.463 0 0)
(-557.779 0 0)
(-558.223 0 0)
(-558.998 0 0)
(-559.44 0 0)
(-559.757 0 0)
(-560.486 0 0)
(-561.083 0 0)
(-561.35 0 0)
(-561.955 0 0)
(-562.677 0 0)
(-562.992 0 0)
(-563.441 0 0)
(-564.21 0 0)
(-564.655 0 0)
(-564.975 0 0)
(-565.693 0 0)
(-566.299 0 0)
(-566.572 0 0)
(-567.159 0 0)
(-567.889 0 0)
(-568.22 0 0)
(-568.648 0 0)
(-569.413 0 0)
(-569.885 0 0)
(-570.194 0 0)
(-570.887 0 0)
(-571.523 0 0)
(-571.806 0 0)
(-572.35 0 0)
(-573.099 0 0)
(-573.466 0 0)
(-573.849 0 0)
(-574.603 0 0)
(-575.13 0 0)
(-575.417 0 0)
(-576.063 0 0)
(-576.75 0 0)
(-577.055 0 0)
(-577.528 0 0)
(-578.295 0 0)
(-578.728 0 0)
(-579.052 0 0)
(-579.769 0 0)
(-580.381 0 0)
(-580.66 0 0)
(-581.219 0 0)
(-581.963 0 0)
(-582.329 0 0)
(-582.708 0 0)
(-583.461 0 0)
(-584.003 0 0)
(-584.282 0 0)
(-584.91 0 0)
(-585.616 0 0)
(-585.937 0 0)
(-586.376 0 0)
(-587.139 0 0)
(-587.622 0 0)
(-587.92 0 0)
(-588.593 0 0)
(-589.261 0 0)
(-589.557 0 0)
(-590.045 0 0)
(-590.806 0 0)
(-591.243 0 0)
(-591.567 0 0)
(-592.267 0 0)
(-592.9 0 0)
(-593.188 0 0)
(-593.711 0 0)
(-594.463 0 0)
(-594.871 0 0)
(-595.218 0 0)
(-595.933 0 0)
(-596.537 0 0)
(-596.827 0 0)
(-597.372 0 0)
(-598.114 0 0)
(-598.507 0 0)
(-598.869 0 0)
(-599.591 0 0)
(-600.178 0 0)
(-600.471 0 0)
(-601.029 0 0)
(-601.761 0 0)
(-602.151 0 0)
(-602.519 0 0)
(-603.241 0 0)
(-603.824 0 0)
(-604.119 0 0)
(-604.679 0 0)
(-605.407 0 0)
(-605.802 0 0)
(-606.17 0 0)
(-606.884 0 0)
(-607.475 0 0)
(-607.773 0 0)
(-608.321 0 0)
(-609.051 0 0)
(-609.459 0 0)
(-609.819 0 0)
(-610.519 0 0)
(-611.128 0 0)
(-611.434 0 0)
(-611.956 0 0)
(-612.69 0 0)
(-613.123 0 0)
(-613.469 0 0)
(-614.147 0 0)
(-614.779 0 0)
(-615.101 0 0)
(-615.589 0 0)
(-616.323 0 0)
(-616.791 0 0)
(-617.123 0 0)
(-617.77 0 0)
(-618.429 0 0)
(-618.773 0 0)
(-619.224 0 0)
(-619.949 0 0)
(-620.462 0 0)
(-620.783 0 0)
(-621.389 0 0)
(-622.076 0 0)
(-622.451 0 0)
(-622.861 0 0)
(-623.568 0 0)
(-624.132 0 0)
(-624.45 0 0)
(-625.004 0 0)
(-625.714 0 0)
(-626.135 0 0)
(-626.503 0 0)
(-627.177 0 0)
(-627.798 0 0)
(-628.13 0 0)
(-628.617 0 0)
(-629.34 0 0)
(-629.824 0 0)
(-630.158 0 0)
(-630.777 0 0)
(-631.452 0 0)
(-631.824 0 0)
(-632.239 0 0)
(-632.946 0 0)
(-633.509 0 0)
(-633.833 0 0)
(-634.375 0 0)
(-635.085 0 0)
(-635.526 0 0)
(-635.882 0 0)
(-636.535 0 0)
(-637.178 0 0)
(-637.53 0 0)
(-637.983 0 0)
(-638.691 0 0)
(-639.223 0 0)
(-639.555 0 0)
(-640.121 0 0)
(-640.817 0 0)
(-641.239 0 0)
(-641.618 0 0)
(-642.278 0 0)
(-642.898 0 0)
(-643.253 0 0)
(-643.723 0 0)
(-644.424 0 0)
(-644.942 0 0)
(-645.286 0 0)
(-645.86 0 0)
(-646.54 0 0)
(-646.964 0 0)
(-647.354 0 0)
(-648.008 0 0)
(-648.621 0 0)
(-648.984 0 0)
(-649.458 0 0)
(-650.147 0 0)
(-650.669 0 0)
(-651.022 0 0)
(-651.587 0 0)
(-652.263 0 0)
(-652.697 0 0)
(-653.087 0 0)
(-653.728 0 0)
(-654.348 0 0)
(-654.724 0 0)
(-655.182 0 0)
(-655.865 0 0)
(-656.406 0 0)
(-656.761 0 0)
(-657.303 0 0)
(-657.983 0 0)
(-658.445 0 0)
(-658.82 0 0)
(-659.435 0 0)
(-660.078 0 0)
(-660.475 0 0)
(-660.904 0 0)
(-661.568 0 0)
(-662.149 0 0)
(-662.511 0 0)
(-663.008 0 0)
(-663.693 0 0)
(-664.201 0 0)
(-664.562 0 0)
(-665.128 0 0)
(-665.799 0 0)
(-666.242 0 0)
(-666.629 0 0)
(-667.256 0 0)
(-667.887 0 0)
(-668.281 0 0)
(-668.717 0 0)
(-669.38 0 0)
(-669.957 0 0)
(-670.324 0 0)
(-670.82 0 0)
(-671.496 0 0)
(-672.012 0 0)
(-672.38 0 0)
(-672.933 0 0)
(-673.6 0 0)
(-674.06 0 0)
(-674.449 0 0)
(-675.053 0 0)
(-675.688 0 0)
(-676.107 0 0)
(-676.532 0 0)
(-677.171 0 0)
(-677.764 0 0)
(-678.156 0 0)
(-678.628 0 0)
(-679.282 0 0)
(-679.829 0 0)
(-680.212 0 0)
(-680.732 0 0)
(-681.387 0 0)
(-681.885 0 0)
(-682.278 0 0)
(-682.842 0 0)
(-683.482 0 0)
(-683.939 0 0)
(-684.353 0 0)
(-684.954 0 0)
(-685.566 0 0)
(-685.993 0 0)
(-686.437 0 0)
(-687.063 0 0)
(-687.643 0 0)
(-688.049 0 0)
(-688.529 0 0)
(-689.169 0 0)
(-689.713 0 0)
(-690.11 0 0)
(-690.625 0 0)
(-691.27 0 0)
(-691.777 0 0)
(-692.176 0 0)
(-692.726 0 0)
(-693.365 0 0)
(-693.84 0 0)
(-694.248 0 0)
(-694.828 0 0)
(-695.453 0 0)
(-695.903 0 0)
(-696.326 0 0)
(-696.929 0 0)
(-697.538 0 0)
(-697.966 0 0)
(-698.409 0 0)
(-699.028 0 0)
(-699.617 0 0)
(-700.032 0 0)
(-700.496 0 0)
(-701.126 0 0)
(-701.691 0 0)
(-702.1 0 0)
(-702.586 0 0)
(-703.22 0 0)
(-703.764 0 0)
(-704.171 0 0)
(-704.678 0 0)
(-705.31 0 0)
(-705.835 0 0)
(-706.245 0 0)
(-706.771 0 0)
(-707.398 0 0)
(-707.903 0 0)
(-708.322 0 0)
(-708.865 0 0)
(-709.483 0 0)
(-709.973 0 0)
(-710.401 0 0)
(-710.96 0 0)
(-711.566 0 0)
(-712.042 0 0)
(-712.482 0 0)
(-713.053 0 0)
(-713.648 0 0)
(-714.112 0 0)
(-714.565 0 0)
(-715.146 0 0)
(-715.728 0 0)
(-716.183 0 0)
(-716.648 0 0)
(-717.238 0 0)
(-717.808 0 0)
(-718.255 0 0)
(-718.731 0 0)
(-719.329 0 0)
(-719.888 0 0)
(-720.328 0 0)
(-720.814 0 0)
(-721.417 0 0)
(-721.968 0 0)
(-722.403 0 0)
(-722.897 0 0)
(-723.504 0 0)
(-724.047 0 0)
(-724.48 0 0)
(-724.98 0 0)
(-725.589 0 0)
(-726.127 0 0)
(-726.558 0 0)
(-727.063 0 0)
(-727.672 0 0)
(-728.206 0 0)
(-728.638 0 0)
(-729.146 0 0)
(-729.754 0 0)
(-730.285 0 0)
(-730.719 0 0)
(-731.229 0 0)
(-731.835 0 0)
(-732.364 0 0)
(-732.801 0 0)
(-733.314 0 0)
(-733.915 0 0)
(-734.443 0 0)
(-734.883 0 0)
(-735.398 0 0)
(-735.996 0 0)
(-736.521 0 0)
(-736.965 0 0)
(-737.481 0 0)
(-738.076 0 0)
(-738.599 0 0)
(-739.046 0 0)
(-739.565 0 0)
(-740.157 0 0)
(-740.678 0 0)
(-741.127 0 0)
(-741.648 0 0)
(-742.238 0 0)
(-742.757 0 0)
(-743.208 0 0)
(-743.729 0 0)
(-744.319 0 0)
(-744.838 0 0)
(-745.289 0 0)
(-745.81 0 0)
(-746.399 0 0)
(-746.919 0 0)
(-747.37 0 0)
(-747.89 0 0)
(-748.479 0 0)
(-749.001 0 0)
(-749.453 0 0)
(-749.969 0 0)
(-750.559 0 0)
(-751.084 0 0)
(-751.536 0 0)
(-752.047 0 0)
(-752.637 0 0)
(-753.168 0 0)
(-753.619 0 0)
(-754.126 0 0)
(-754.714 0 0)
(-755.252 0 0)
(-755.705 0 0)
(-756.203 0 0)
(-756.79 0 0)
(-757.335 0 0)
(-757.791 0 0)
(-758.282 0 0)
(-758.864 0 0)
(-759.417 0 0)
(-759.878 0 0)
(-760.362 0 0)
(-760.937 0 0)
(-761.498 0 0)
(-761.965 0 0)
(-762.443 0 0)
(-763.011 0 0)
(-763.576 0 0)
(-764.053 0 0)
(-764.526 0 0)
(-765.085 0 0)
(-765.654 0 0)
(-766.14 0 0)
(-766.61 0 0)
(-767.16 0 0)
(-767.731 0 0)
(-768.225 0 0)
(-768.695 0 0)
(-769.236 0 0)
(-769.807 0 0)
(-770.31 0 0)
(-770.779 0 0)
(-771.313 0 0)
(-771.884 0 0)
(-772.394 0 0)
(-772.863 0 0)
(-773.39 0 0)
(-773.961 0 0)
(-774.478 0 0)
(-774.947 0 0)
(-775.467 0 0)
(-776.038 0 0)
(-776.562 0 0)
(-777.032 0 0)
(-777.543 0 0)
(-778.113 0 0)
(-778.647 0 0)
(-779.118 0 0)
(-779.619 0 0)
(-780.187 0 0)
(-780.73 0 0)
(-781.206 0 0)
(-781.697 0 0)
(-782.259 0 0)
(-782.812 0 0)
(-783.294 0 0)
(-783.777 0 0)
(-784.33 0 0)
(-784.892 0 0)
(-785.384 0 0)
(-785.859 0 0)
(-786.401 0 0)
(-786.969 0 0)
(-787.474 0 0)
(-787.944 0 0)
(-788.473 0 0)
(-789.042 0 0)
(-789.561 0 0)
(-790.032 0 0)
(-790.547 0 0)
(-791.114 0 0)
(-791.646 0 0)
(-792.122 0 0)
(-792.624 0 0)
(-793.185 0 0)
(-793.727 0 0)
(-794.211 0 0)
(-794.705 0 0)
(-795.256 0 0)
(-795.807 0 0)
(-796.299 0 0)
(-796.787 0 0)
(-797.329 0 0)
(-797.884 0 0)
(-798.386 0 0)
(-798.87 0 0)
(-799.403 0 0)
(-799.96 0 0)
(-800.472 0 0)
(-800.954 0 0)
(-801.478 0 0)
(-802.036 0 0)
(-802.558 0 0)
(-803.039 0 0)
(-803.552 0 0)
(-804.111 0 0)
(-804.644 0 0)
(-805.127 0 0)
(-805.627 0 0)
(-806.181 0 0)
(-806.728 0 0)
(-807.217 0 0)
(-807.706 0 0)
(-808.25 0 0)
(-808.807 0 0)
(-809.309 0 0)
(-809.789 0 0)
(-810.319 0 0)
(-810.881 0 0)
(-811.399 0 0)
(-811.878 0 0)
(-812.391 0 0)
(-812.951 0 0)
(-813.485 0 0)
(-813.969 0 0)
(-814.468 0 0)
(-815.019 0 0)
(-815.566 0 0)
(-816.061 0 0)
(-816.55 0 0)
(-817.088 0 0)
(-817.642 0 0)
(-818.151 0 0)
(-818.636 0 0)
(-819.16 0 0)
(-819.714 0 0)
(-820.237 0 0)
(-820.724 0 0)
(-821.236 0 0)
(-821.786 0 0)
(-822.319 0 0)
(-822.812 0 0)
(-823.314 0 0)
(-823.858 0 0)
(-824.4 0 0)
(-824.9 0 0)
(-825.395 0 0)
(-825.93 0 0)
(-826.478 0 0)
(-826.989 0 0)
(-827.479 0 0)
(-828.002 0 0)
(-828.553 0 0)
(-829.076 0 0)
(-829.566 0 0)
(-830.076 0 0)
(-830.624 0 0)
(-831.16 0 0)
(-831.655 0 0)
(-832.154 0 0)
(-832.694 0 0)
(-833.24 0 0)
(-833.746 0 0)
(-834.237 0 0)
(-834.764 0 0)
(-835.315 0 0)
(-835.835 0 0)
(-836.324 0 0)
(-836.837 0 0)
(-837.385 0 0)
(-837.92 0 0)
(-838.415 0 0)
(-838.914 0 0)
(-839.454 0 0)
(-839.999 0 0)
(-840.506 0 0)
(-840.998 0 0)
(-841.524 0 0)
(-842.073 0 0)
(-842.594 0 0)
(-843.087 0 0)
(-843.598 0 0)
(-844.144 0 0)
(-844.678 0 0)
(-845.177 0 0)
(-845.677 0 0)
(-846.213 0 0)
(-846.756 0 0)
(-847.266 0 0)
(-847.762 0 0)
(-848.285 0 0)
(-848.83 0 0)
(-849.353 0 0)
(-849.849 0 0)
(-850.361 0 0)
(-850.902 0 0)
(-851.436 0 0)
(-851.938 0 0)
(-852.44 0 0)
(-852.974 0 0)
(-853.514 0 0)
(-854.026 0 0)
(-854.523 0 0)
(-855.046 0 0)
(-855.59 0 0)
(-856.113 0 0)
(-856.61 0 0)
(-857.121 0 0)
(-857.662 0 0)
(-858.197 0 0)
(-858.701 0 0)
(-859.2 0 0)
(-859.731 0 0)
(-860.275 0 0)
(-860.791 0 0)
(-861.286 0 0)
(-861.802 0 0)
(-862.346 0 0)
(-862.878 0 0)
(-863.377 0 0)
(-863.88 0 0)
(-864.414 0 0)
(-864.957 0 0)
(-865.469 0 0)
(-865.965 0 0)
(-866.485 0 0)
(-867.029 0 0)
(-867.556 0 0)
(-868.056 0 0)
(-868.563 0 0)
(-869.098 0 0)
(-869.635 0 0)
(-870.146 0 0)
(-870.647 0 0)
(-871.17 0 0)
(-871.71 0 0)
(-872.232 0 0)
(-872.734 0 0)
(-873.248 0 0)
(-873.783 0 0)
(-874.314 0 0)
(-874.822 0 0)
(-875.329 0 0)
(-875.857 0 0)
(-876.392 0 0)
(-876.908 0 0)
(-877.412 0 0)
(-877.932 0 0)
(-878.469 0 0)
(-878.994 0 0)
(-879.498 0 0)
(-880.008 0 0)
(-880.542 0 0)
(-881.077 0 0)
(-881.588 0 0)
(-882.089 0 0)
(-882.612 0 0)
(-883.153 0 0)
(-883.677 0 0)
(-884.178 0 0)
(-884.686 0 0)
(-885.222 0 0)
(-885.76 0 0)
(-886.271 0 0)
(-886.77 0 0)
(-887.292 0 0)
(-887.833 0 0)
(-888.36 0 0)
(-888.862 0 0)
(-889.368 0 0)
(-889.901 0 0)
(-890.439 0 0)
(-890.954 0 0)
(-891.455 0 0)
(-891.974 0 0)
(-892.511 0 0)
(-893.039 0 0)
(-893.546 0 0)
(-894.055 0 0)
(-894.584 0 0)
(-895.117 0 0)
(-895.633 0 0)
(-896.14 0 0)
(-896.66 0 0)
(-897.193 0 0)
(-897.716 0 0)
(-898.225 0 0)
(-898.74 0 0)
(-899.27 0 0)
(-899.799 0 0)
(-900.311 0 0)
(-900.82 0 0)
(-901.344 0 0)
(-901.879 0 0)
(-902.399 0 0)
(-902.904 0 0)
(-903.419 0 0)
(-903.953 0 0)
(-904.485 0 0)
(-904.995 0 0)
(-905.5 0 0)
(-906.023 0 0)
(-906.561 0 0)
(-907.086 0 0)
(-907.59 0 0)
(-908.099 0 0)
(-908.631 0 0)
(-909.168 0 0)
(-909.683 0 0)
(-910.186 0 0)
(-910.703 0 0)
(-911.239 0 0)
(-911.769 0 0)
(-912.279 0 0)
(-912.785 0 0)
(-913.31 0 0)
(-913.845 0 0)
(-914.367 0 0)
(-914.875 0 0)
(-915.389 0 0)
(-915.918 0 0)
(-916.448 0 0)
(-916.963 0 0)
(-917.474 0 0)
(-917.995 0 0)
(-918.526 0 0)
(-919.047 0 0)
(-919.559 0 0)
(-920.076 0 0)
(-920.604 0 0)
(-921.13 0 0)
(-921.644 0 0)
(-922.157 0 0)
(-922.681 0 0)
(-923.211 0 0)
(-923.732 0 0)
(-924.241 0 0)
(-924.758 0 0)
(-925.288 0 0)
(-925.818 0 0)
(-926.331 0 0)
(-926.839 0 0)
(-927.361 0 0)
(-927.896 0 0)
(-928.421 0 0)
(-928.929 0 0)
(-929.439 0 0)
(-929.967 0 0)
(-930.502 0 0)
(-931.022 0 0)
(-931.528 0 0)
(-932.042 0 0)
(-932.574 0 0)
(-933.107 0 0)
(-933.621 0 0)
(-934.128 0 0)
(-934.648 0 0)
(-935.181 0 0)
(-935.708 0 0)
(-936.22 0 0)
(-936.731 0 0)
(-937.255 0 0)
(-937.786 0 0)
(-938.308 0 0)
(-938.82 0 0)
(-939.336 0 0)
(-939.862 0 0)
(-940.39 0 0)
(-940.907 0 0)
(-941.421 0 0)
(-941.943 0 0)
(-942.47 0 0)
(-942.991 0 0)
(-943.506 0 0)
(-944.024 0 0)
(-944.55 0 0)
(-945.076 0 0)
(-945.592 0 0)
(-946.106 0 0)
(-946.628 0 0)
(-947.158 0 0)
(-947.681 0 0)
(-948.193 0 0)
(-948.707 0 0)
(-949.234 0 0)
(-949.766 0 0)
(-950.285 0 0)
(-950.794 0 0)
(-951.311 0 0)
(-951.841 0 0)
(-952.372 0 0)
(-952.888 0 0)
(-953.397 0 0)
(-953.916 0 0)
(-954.448 0 0)
(-954.976 0 0)
(-955.49 0 0)
(-956 0 0)
(-956.522 0 0)
(-957.054 0 0)
(-957.579 0 0)
(-958.093 0 0)
(-958.606 0 0)
(-959.13 0 0)
(-959.66 0 0)
(-960.181 0 0)
(-960.695 0 0)
(-961.212 0 0)
(-961.738 0 0)
(-962.264 0 0)
(-962.783 0 0)
(-963.299 0 0)
(-963.82 0 0)
(-964.347 0 0)
(-964.869 0 0)
(-965.385 0 0)
(-965.903 0 0)
(-966.429 0 0)
(-966.955 0 0)
(-967.473 0 0)
(-967.988 0 0)
(-968.509 0 0)
(-969.037 0 0)
(-969.562 0 0)
(-970.078 0 0)
(-970.591 0 0)
(-971.115 0 0)
(-971.645 0 0)
(-972.169 0 0)
(-972.683 0 0)
(-973.196 0 0)
(-973.722 0 0)
(-974.253 0 0)
(-974.775 0 0)
(-975.288 0 0)
(-975.803 0 0)
(-976.329 0 0)
(-976.859 0 0)
(-977.381 0 0)
(-977.894 0 0)
(-978.411 0 0)
(-978.938 0 0)
(-979.466 0 0)
(-979.986 0 0)
(-980.5 0 0)
(-981.02 0 0)
(-981.546 0 0)
(-982.072 0 0)
(-982.59 0 0)
(-983.107 0 0)
(-983.629 0 0)
(-984.155 0 0)
(-984.678 0 0)
(-985.196 0 0)
(-985.715 0 0)
(-986.239 0 0)
(-986.765 0 0)
(-987.285 0 0)
(-987.801 0 0)
(-988.322 0 0)
(-988.85 0 0)
(-989.374 0 0)
(-989.892 0 0)
(-990.408 0 0)
(-990.931 0 0)
(-991.46 0 0)
(-991.984 0 0)
(-992.499 0 0)
(-993.015 0 0)
(-993.539 0 0)
(-994.069 0 0)
(-994.593 0 0)
(-995.108 0 0)
(-995.624 0 0)
(-996.148 0 0)
(-996.678 0 0)
(-997.201 0 0)
(-997.717 0 0)
(-998.234 0 0)
(-998.759 0 0)
(-999.287 0 0)
(-999.81 0 0)
(-1000.33 0 0)
(-1000.84 0 0)
(-1001.37 0 0)
(-1001.9 0 0)
(-1002.42 0 0)
(-1002.94 0 0)
(-1003.46 0 0)
(-1003.98 0 0)
(-1004.51 0 0)
(-1005.03 0 0)
(-1005.54 0 0)
(-1006.07 0 0)
(-1006.59 0 0)
(-1007.12 0 0)
(-1007.63 0 0)
(-1008.15 0 0)
(-1008.68 0 0)
(-1009.21 0 0)
(-1009.73 0 0)
(-1010.24 0 0)
(-1010.76 0 0)
(-1011.29 0 0)
(-1011.82 0 0)
(-1012.34 0 0)
(-1012.86 0 0)
(-1013.38 0 0)
(-1013.9 0 0)
(-1014.43 0 0)
(-1014.95 0 0)
(-1015.47 0 0)
(-1015.99 0 0)
(-1016.51 0 0)
(-1017.04 0 0)
(-1017.56 0 0)
(-1018.08 0 0)
(-1018.6 0 0)
(-1019.13 0 0)
(-1019.65 0 0)
(-1020.18 0 0)
(-1020.69 0 0)
(-1021.22 0 0)
(-1021.74 0 0)
(-1022.27 0 0)
(-1022.79 0 0)
(-1023.31 0 0)
(-1023.83 0 0)
(-1024.36 0 0)
(-1024.88 0 0)
(-1025.4 0 0)
(-1025.92 0 0)
(-1026.44 0 0)
(-1026.97 0 0)
(-1027.49 0 0)
(-1028.01 0 0)
(-1028.53 0 0)
(-1029.06 0 0)
(-1029.59 0 0)
(-1030.11 0 0)
(-1030.63 0 0)
(-1031.15 0 0)
(-1031.67 0 0)
(-1032.2 0 0)
(-1032.72 0 0)
(-1033.24 0 0)
(-1033.76 0 0)
(-1034.29 0 0)
(-1034.82 0 0)
(-1035.34 0 0)
(-1035.86 0 0)
(-1036.38 0 0)
(-1036.9 0 0)
(-1037.43 0 0)
(-1037.96 0 0)