/*--------------------------------*- C++ -*----------------------------------*\
  =========                 |
  \\      /  F ield         | OpenFOAM: The Open Source CFD Toolbox
   \\    /   O peration     | Website:  https://openfoam.org
    \\  /    A nd           | Version:  9
     \\/     M anipulation  |
\*---------------------------------------------------------------------------*/
FoamFile
{
    format      ascii;
    class       surfaceScalarField;
    location    "0.037";
    object      ddtCorrDdt0(phi);
}
// * * * * * * * * * * * * * * * * * * * * * * * * * * * * * * * * * * * * * //

dimensions      [1 0 -2 0 0 0 0];

internalField   nonuniform List<scalar> 
9999
(
-40.6476
-42.7488
-44.8495
-46.9493
-49.048
-51.1455
-53.2423
-55.3384
-57.4342
-59.5309
-61.6297
-63.7298
-65.8285
-67.9247
-70.0196
-72.1154
-74.2127
-76.3097
-78.405
-80.4999
-82.5973
-84.6982
-86.8003
-88.9004
-90.9977
-93.0949
-95.1949
-97.297
-99.3968
-101.491
-103.579
-105.668
-107.763
-109.864
-111.966
-114.063
-116.153
-118.241
-120.331
-122.429
-124.531
-126.632
-128.725
-130.81
-132.893
-134.984
-137.085
-139.195
-141.305
-143.409
-145.501
-147.583
-149.664
-151.751
-153.851
-155.959
-158.068
-160.168
-162.253
-164.328
-166.401
-168.483
-170.58
-172.691
-174.806
-176.915
-179.009
-181.088
-183.155
-185.221
-187.298
-189.394
-191.51
-193.638
-195.764
-197.878
-199.971
-202.043
-204.101
-206.158
-208.224
-210.306
-212.407
-214.526
-216.656
-218.787
-220.905
-223.001
-225.074
-227.128
-229.173
-231.217
-233.273
-235.352
-237.457
-239.587
-241.732
-243.882
-246.023
-248.144
-250.241
-252.316
-254.373
-256.413
-258.444
-260.475
-262.52
-264.587
-266.677
-268.788
-270.923
-273.075
-275.235
-277.392
-279.54
-281.673
-283.786
-285.877
-287.95
-290.004
-292.036
-294.05
-296.052
-298.056
-300.075
-302.107
-304.149
-306.211
-308.3
-310.414
-312.545
-314.699
-316.878
-319.07
-321.275
-323.496
-325.719
-327.945
-330.171
-332.391
-334.613
-336.84
-339.057
-341.245
-343.4
-345.559
-347.711
-349.827
-351.941
-354.051
-356.147
-358.259
-360.366
-362.51
-364.719
-366.934
-369.046
-371.165
-373.257
-375.369
-377.468
-379.559
-381.671
-383.77
-385.855
-387.961
-390.076
-392.169
-394.254
-396.342
-398.437
-400.542
-402.647
-404.747
-406.852
-408.956
-411.053
-413.154
-415.26
-417.36
-419.457
-421.558
-423.662
-425.763
-427.859
-429.955
-432.056
-434.163
-436.266
-438.362
-440.457
-442.55
-444.644
-446.742
-448.843
-450.945
-453.045
-455.145
-457.247
-459.349
-461.449
-463.548
-465.649
-467.752
-469.854
-471.954
-474.052
-476.151
-478.253
-480.356
-482.458
-484.559
-486.655
-488.75
-490.845
-492.941
-495.039
-497.137
-499.237
-501.338
-503.439
-505.539
-507.638
-509.737
-511.837
-513.938
-516.038
-518.138
-520.237
-522.336
-524.436
-526.538
-528.642
-530.743
-532.843
-534.941
-537.038
-539.134
-541.23
-543.326
-545.424
-547.524
-549.624
-551.724
-553.824
-555.923
-558.022
-560.122
-562.222
-564.321
-566.419
-568.516
-570.615
-572.715
-574.816
-576.917
-579.019
-581.119
-583.218
-585.316
-587.413
-589.51
-591.607
-593.705
-595.803
-597.902
-600.001
-602.1
-604.199
-606.299
-608.399
-610.499
-612.598
-614.696
-616.793
-618.891
-620.989
-623.089
-625.188
-627.288
-629.388
-631.487
-633.585
-635.683
-637.78
-639.877
-641.975
-644.074
-646.172
-648.271
-650.37
-652.469
-654.568
-656.668
-658.767
-660.866
-662.964
-665.062
-667.16
-669.258
-671.357
-673.456
-675.555
-677.654
-679.752
-681.85
-683.946
-686.043
-688.14
-690.237
-692.335
-694.433
-696.531
-698.63
-700.729
-702.829
-704.928
-707.028
-709.126
-711.225
-713.323
-715.421
-717.519
-719.617
-721.715
-723.814
-725.913
-728.012
-730.109
-732.206
-734.303
-736.399
-738.495
-740.591
-742.687
-744.784
-746.882
-748.98
-751.079
-753.178
-755.278
-757.377
-759.476
-761.575
-763.673
-765.771
-767.869
-769.967
-772.065
-774.164
-776.262
-778.36
-780.458
-782.555
-784.651
-786.747
-788.843
-790.939
-793.035
-795.131
-797.227
-799.324
-801.422
-803.52
-805.618
-807.717
-809.816
-811.914
-814.012
-816.111
-818.209
-820.307
-822.406
-824.504
-826.602
-828.7
-830.798
-832.895
-834.991
-837.087
-839.183
-841.279
-843.374
-845.47
-847.566
-849.662
-851.759
-853.856
-855.953
-858.051
-860.148
-862.246
-864.344
-866.441
-868.539
-870.637
-872.736
-874.834
-876.932
-879.03
-881.128
-883.225
-885.322
-887.419
-889.515
-891.61
-893.706
-895.801
-897.897
-899.993
-902.089
-904.185
-906.281
-908.378
-910.475
-912.571
-914.668
-916.765
-918.862
-920.96
-923.057
-925.155
-927.253
-929.35
-931.448
-933.545
-935.643
-937.739
-939.835
-941.931
-944.027
-946.123
-948.218
-950.314
-952.41
-954.506
-956.602
-958.698
-960.794
-962.89
-964.986
-967.082
-969.178
-971.275
-973.371
-975.468
-977.565
-979.663
-981.76
-983.857
-985.954
-988.05
-990.147
-992.243
-994.338
-996.434
-998.529
-1000.62
-1002.72
-1004.82
-1006.91
-1009.01
-1011.1
-1013.2
-1015.3
-1017.39
-1019.49
-1021.58
-1023.68
-1025.78
-1027.87
-1029.97
-1032.06
-1034.16
-1036.26
-1038.35
-1040.45
-1042.54
-1044.64
-1046.74
-1048.83
-1050.93
-1053.02
-1055.12
-1057.21
-1059.31
-1061.4
-1063.5
-1065.6
-1067.69
-1069.79
-1071.88
-1073.98
-1076.07
-1078.17
-1080.27
-1082.36
-1084.46
-1086.55
-1088.65
-1090.74
-1092.84
-1094.93
-1097.03
-1099.12
-1101.22
-1103.31
-1105.41
-1107.5
-1109.6
-1111.69
-1113.79
-1115.88
-1117.98
-1120.08
-1122.17
-1124.27
-1126.36
-1128.46
-1130.55
-1132.65
-1134.75
-1136.84
-1138.94
-1141.03
-1143.13
-1145.22
-1147.31
-1149.41
-1151.5
-1153.6
-1155.69
-1157.79
-1159.88
-1161.97
-1164.07
-1166.17
-1168.26
-1170.36
-1172.45
-1174.55
-1176.64
-1178.74
-1180.83
-1182.93
-1185.02
-1187.12
-1189.21
-1191.31
-1193.4
-1195.5
-1197.59
-1199.69
-1201.78
-1203.88
-1205.97
-1208.06
-1210.16
-1212.25
-1214.34
-1216.44
-1218.53
-1220.62
-1222.72
-1224.81
-1226.91
-1229
-1231.1
-1233.19
-1235.29
-1237.38
-1239.48
-1241.57
-1243.67
-1245.76
-1247.86
-1249.95
-1252.05
-1254.14
-1256.24
-1258.33
-1260.42
-1262.52
-1264.61
-1266.7
-1268.8
-1270.89
-1272.98
-1275.07
-1277.17
-1279.26
-1281.36
-1283.45
-1285.55
-1287.64
-1289.74
-1291.83
-1293.93
-1296.02
-1298.11
-1300.21
-1302.3
-1304.4
-1306.49
-1308.58
-1310.68
-1312.77
-1314.86
-1316.96
-1319.05
-1321.15
-1323.24
-1325.33
-1327.42
-1329.52
-1331.61
-1333.7
-1335.79
-1337.89
-1339.98
-1342.07
-1344.17
-1346.26
-1348.36
-1350.45
-1352.55
-1354.64
-1356.74
-1358.83
-1360.92
-1363.02
-1365.11
-1367.2
-1369.3
-1371.39
-1373.48
-1375.57
-1377.67
-1379.76
-1381.85
-1383.95
-1386.04
-1388.13
-1390.22
-1392.32
-1394.41
-1396.5
-1398.59
-1400.69
-1402.78
-1404.88
-1406.96
-1409.06
-1411.16
-1413.25
-1415.34
-1417.44
-1419.53
-1421.62
-1423.71
-1425.81
-1427.9
-1429.99
-1432.08
-1434.18
-1436.27
-1438.37
-1440.45
-1442.55
-1444.64
-1446.73
-1448.82
-1450.91
-1453.02
-1455.09
-1457.21
-1459.27
-1461.4
-1463.46
-1465.58
-1467.66
-1469.75
-1471.86
-1473.91
-1476.05
-1478.1
-1480.24
-1482.3
-1484.41
-1486.5
-1488.55
-1490.71
-1492.73
-1494.89
-1496.94
-1499.05
-1501.14
-1503.2
-1505.36
-1507.37
-1509.54
-1511.58
-1513.68
-1515.81
-1517.83
-1520.01
-1522.02
-1524.18
-1526.25
-1528.31
-1530.48
-1532.46
-1534.66
-1536.68
-1538.78
-1540.92
-1542.92
-1545.13
-1547.12
-1549.26
-1551.37
-1553.38
-1555.6
-1557.57
-1559.74
-1561.82
-1563.84
-1566.05
-1568.01
-1570.21
-1572.28
-1574.3
-1576.53
-1578.47
-1580.66
-1582.74
-1584.76
-1586.99
-1588.93
-1591.12
-1593.2
-1595.19
-1597.44
-1599.39
-1601.56
-1603.67
-1605.64
-1607.91
-1609.85
-1611.99
-1614.15
-1616.09
-1618.38
-1620.35
-1622.4
-1624.64
-1626.54
-1628.8
-1630.81
-1632.86
-1635.09
-1637.02
-1639.2
-1641.34
-1643.26
-1645.57
-1647.5
-1649.61
-1651.83
-1653.73
-1655.97
-1657.99
-1660.03
-1662.3
-1664.2
-1666.4
-1668.51
-1670.45
-1672.74
-1674.69
-1676.78
-1679.01
-1680.89
-1683.15
-1685.23
-1687.17
-1689.48
-1691.41
-1693.52
-1695.76
-1697.61
-1699.87
-1701.95
-1703.88
-1706.22
-1708.14
-1710.22
-1712.5
-1714.34
-1716.58
-1718.71
-1720.59
-1722.92
-1724.9
-1726.89
-1729.23
-1731.08
-1733.24
-1735.49
-1737.3
-1739.6
-1741.7
-1743.56
-1745.94
-1747.89
-1749.88
-1752.25
-1754.08
-1756.22
-1758.51
-1760.29
-1762.58
-1764.73
-1766.53
-1768.92
-1770.92
-1772.82
-1775.24
-1777.11
-1779.14
-1781.54
-1783.3
-1785.48
-1787.78
-1789.52
-1791.83
-1794
-1795.77
-1798.18
-1800.21
-1802.05
-1804.5
-1806.4
-1808.36
-1810.8
-1812.6
-1814.68
-1817.07
-1818.82
-1821.01
-1823.32
-1825.05
-1827.35
-1829.55
-1831.3
-1833.67
-1835.77
-1837.56
-1839.99
-1841.98
-1843.85
-1846.29
-1848.19
-1850.14
-1852.58
-1854.41
-1856.45
-1858.86
-1860.64
-1862.75
-1865.13
-1866.87
-1869.06
-1871.39
-1873.11
-1875.36
-1877.65
-1879.36
-1881.66
-1883.9
-1885.61
-1887.96
-1890.15
-1891.86
-1894.25
-1896.41
-1898.12
-1900.54
-1902.66
-1904.38
-1906.82
-1908.91
-1910.64
-1913.1
-1915.17
-1916.9
-1919.38
-1921.43
-1923.17
-1925.65
-1927.69
-1929.43
-1931.92
-1933.95
-1935.7
-1938.2
-1940.22
-1941.96
-1944.46
-1946.49
-1948.22
-1950.73
-1952.76
-1954.48
-1956.99
-1959.04
-1960.74
-1963.24
-1965.32
-1967
-1969.5
-1971.6
-1973.26
-1975.74
-1977.89
-1979.52
-1981.98
-1984.19
-1985.78
-1988.21
-1990.48
-1992.05
-1994.44
-1996.78
-1998.33
-2000.66
-2003.07
-2004.63
-2006.87
-2009.35
-2010.93
-2013.08
-2015.62
-2017.24
-2019.29
-2021.88
-2023.56
-2025.5
-2028.13
-2029.89
-2031.72
-2034.36
-2036.23
-2037.95
-2040.58
-2042.57
-2044.2
-2046.77
-2048.9
-2050.48
-2052.96
-2055.22
-2056.77
-2059.14
-2061.53
-2063.08
-2065.31
-2067.81
-2069.42
-2071.49
-2074.07
-2075.76
-2077.69
-2080.3
-2082.12
-2083.9
-2086.51
-2088.48
-2090.14
-2092.68
-2094.83
-2096.42
-2098.84
-2101.17
-2102.73
-2105
-2107.47
-2109.07
-2111.15
-2113.73
-2115.44
-2117.32
-2119.95
-2121.83
-2123.53
-2126.12
-2128.21
-2129.79
-2132.26
-2134.56
-2136.1
-2138.38
-2140.87
-2142.47
-2144.51
-2147.13
-2148.88
-2150.67
-2153.31
-2155.29
-2156.89
-2159.44
-2161.69
-2163.2
-2165.53
-2168.02
-2169.58
-2171.63
-2174.27
-2176.01
-2177.78
-2180.44
-2182.45
-2184.01
-2186.53
-2188.85
-2190.34
-2192.6
-2195.17
-2196.75
-2198.69
-2201.37
-2203.22
-2204.87
-2207.48
-2209.66
-2211.16
-2213.54
-2216.03
-2217.56
-2219.6
-2222.27
-2224.02
-2225.74
-2228.39
-2230.49
-2232.01
-2234.44
-2236.88
-2238.4
-2240.48
-2243.14
-2244.87
-2246.61
-2249.26
-2251.34
-2252.87
-2255.3
-2257.73
-2259.26
-2261.33
-2263.98
-2265.74
-2267.46
-2270.09
-2272.22
-2273.74
-2276.12
-2278.6
-2280.16
-2282.16
-2284.82
-2286.66
-2288.31
-2290.9
-2293.13
-2294.63
-2296.9
-2299.47
-2301.1
-2302.96
-2305.62
-2307.61
-2309.17
-2311.64
-2314.05
-2315.56
-2317.64
-2320.3
-2322.08
-2323.76
-2326.36
-2328.59
-2330.07
-2332.34
-2334.93
-2336.57
-2338.38
-2341.05
-2343.11
-2344.63
-2347.03
-2349.52
-2351.09
-2353.02
-2355.71
-2357.64
-2359.2
-2361.7
-2364.1
-2365.62
-2367.66
-2370.33
-2372.18
-2373.8
-2376.35
-2378.67
-2380.18
-2382.3
-2384.94
-2386.73
-2388.4
-2390.97
-2393.25
-2394.75
-2396.92
-2399.54
-2401.3
-2403
-2405.58
-2407.83
-2409.34
-2411.52
-2414.13
-2415.89
-2417.59
-2420.17
-2422.42
-2423.94
-2426.1
-2428.72
-2430.5
-2432.19
-2434.74
-2437.02
-2438.56
-2440.67
-2443.29
-2445.13
-2446.78
-2449.29
-2451.63
-2453.19
-2455.23
-2457.85
-2459.76
-2461.38
-2463.82
-2466.23
-2467.83
-2469.78
-2472.4
-2474.41
-2475.99
-2478.34
-2480.82
-2482.49
-2484.34
-2486.93
-2489.06
-2490.62
-2492.86
-2495.4
-2497.17
-2498.91
-2501.43
-2503.7
-2505.28
-2507.36
-2509.95
-2511.86
-2513.49
-2515.91
-2518.33
-2519.96
-2521.87
-2524.46
-2526.55
-2528.13
-2530.37
-2532.91
-2534.69
-2536.41
-2538.92
-2541.22
-2542.82
-2544.83
-2547.43
-2549.42
-2551.03
-2553.35
-2555.83
-2557.56
-2559.35
-2561.88
-2564.11
-2565.71
-2567.79
-2570.35
-2572.3
-2573.95
-2576.29
-2578.73
-2580.46
-2582.29
-2584.8
-2587.01
-2588.64
-2590.72
-2593.26
-2595.21
-2596.88
-2599.21
-2601.63
-2603.38
-2605.22
-2607.7
-2609.92
-2611.57
-2613.63
-2616.15
-2618.15
-2619.81
-2622.09
-2624.54
-2626.34
-2628.13
-2630.57
-2632.86
-2634.53
-2636.51
-2639.03
-2641.11
-2642.76
-2644.94
-2647.44
-2649.32
-2651.04
-2653.4
-2655.79
-2657.53
-2659.38
-2661.85
-2664.08
-2665.74
-2667.77
-2670.28
-2672.34
-2674
-2676.19
-2678.67
-2680.56
-2682.29
-2684.63
-2687.02
-2688.79
-2690.63
-2693.07
-2695.32
-2697.02
-2699
-2701.48
-2703.59
-2705.28
-2707.4
-2709.87
-2711.84
-2713.57
-2715.82
-2718.22
-2720.08
-2721.89
-2724.24
-2726.55
-2728.33
-2730.24
-2732.65
-2734.84
-2736.58
-2738.61
-2741.04
-2743.12
-2744.86
-2747
-2749.41
-2751.39
-2753.15
-2755.39
-2757.76
-2759.65
-2761.47
-2763.79
-2766.1
-2767.91
-2769.8
-2772.18
-2774.41
-2776.18
-2778.15
-2780.56
-2782.71
-2784.46
-2786.51
-2788.93
-2791.01
-2792.75
-2794.87
-2797.29
-2799.3
-2801.05
-2803.24
-2805.64
-2807.58
-2809.37
-2811.61
-2813.97
-2815.87
-2817.7
-2819.98
-2822.29
-2824.16
-2826.03
-2828.34
-2830.6
-2832.45
-2834.37
-2836.7
-2838.91
-2840.75
-2842.72
-2845.05
-2847.22
-2849.05
-2851.07
-2853.4
-2855.52
-2857.35
-2859.42
-2861.75
-2863.82
-2865.66
-2867.77
-2870.09
-2872.13
-2873.97
-2876.12
-2878.43
-2880.43
-2882.28
-2884.46
-2886.77
-2888.74
-2890.6
-2892.8
-2895.1
-2897.06
-2898.92
-2901.14
-2903.43
-2905.37
-2907.24
-2909.47
-2911.76
-2913.69
-2915.57
-2917.8
-2920.08
-2922.01
-2923.9
-2926.13
-2928.4
-2930.33
-2932.23
-2934.46
-2936.72
-2938.65
-2940.56
-2942.79
-2945.03
-2946.97
-2948.89
-2951.11
-2953.35
-2955.29
-2957.22
-2959.44
-2961.67
-2963.61
-2965.55
-2967.77
-2969.99
-2971.93
-2973.87
-2976.09
-2978.31
-2980.25
-2982.2
-2984.42
-2986.64
-2988.58
-2990.52
-2992.74
-2994.96
-2996.91
-2998.84
-3001.05
-3003.29
-3005.24
-3007.17
-3009.37
-3011.61
-3013.58
-3015.49
-3017.68
-3019.93
-3021.91
-3023.82
-3025.99
-3028.25
-3030.25
-3032.15
-3034.29
-3036.56
-3038.59
-3040.48
-3042.6
-3044.87
-3046.93
-3048.82
-3050.91
-3053.17
-3055.26
-3057.16
-3059.22
-3061.48
-3063.59
-3065.5
-3067.54
-3069.78
-3071.91
-3073.84
-3075.86
-3078.09
-3080.23
-3082.18
-3084.18
-3086.39
-3088.56
-3090.51
-3092.51
-3094.7
-3096.88
-3098.85
-3100.83
-3103.01
-3105.2
-3107.19
-3109.15
-3111.31
-3113.52
-3115.53
-3117.47
-3119.61
-3121.83
-3123.87
-3125.81
-3127.91
-3130.14
-3132.21
-3134.14
-3136.21
-3138.44
-3140.55
-3142.49
-3144.52
-3146.74
-3148.89
-3150.84
-3152.83
-3155.03
-3157.21
-3159.19
-3161.16
-3163.32
-3165.52
-3167.54
-3169.49
-3171.62
-3173.83
-3175.88
-3177.83
-3179.92
-3182.13
-3184.21
-3186.17
-3188.23
-3190.43
-3192.54
-3194.51
-3196.55
-3198.73
-3200.87
-3202.85
-3204.86
-3207.03
-3209.19
-3211.19
-3213.18
-3215.32
-3217.51
-3219.54
-3221.51
-3223.62
-3225.82
-3227.89
-3229.85
-3231.91
-3234.11
-3236.23
-3238.2
-3240.22
-3242.4
-3244.56
-3246.55
-3248.54
-3250.68
-3252.87
-3254.91
-3256.87
-3258.97
-3261.17
-3263.25
-3265.22
-3267.27
-3269.46
-3271.58
-3273.57
-3275.59
-3277.75
-3279.9
-3281.92
-3283.92
-3286.04
-3288.21
-3290.26
-3292.25
-3294.34
-3296.52
-3298.6
-3300.59
-3302.65
-3304.82
-3306.93
-3308.93
-3310.96
-3313.11
-3315.26
-3317.28
-3319.28
-3321.4
-3323.57
-3325.63
-3327.62
-3329.7
-3331.87
-3333.97
-3335.97
-3338
-3340.16
-3342.3
-3344.32
-3346.32
-3348.44
-3350.61
-3352.67
-3354.66
-3356.74
-3358.91
-3361.01
-3363.01
-3365.04
-3367.19
-3369.33
-3371.36
-3373.37
-3375.48
-3377.64
-3379.71
-3381.71
-3383.78
-3385.94
-3388.05
-3390.06
-3392.09
-3394.23
-3396.37
-3398.4
-3400.42
-3402.53
-3404.68
-3406.75
-3408.76
-3410.83
-3412.98
-3415.08
-3417.1
-3419.14
-3421.27
-3423.41
-3425.45
-3427.46
-3429.56
-3431.72
-3433.8
-3435.8
-3437.86
-3440.01
-3442.13
-3444.15
-3446.18
-3448.3
-3450.45
-3452.51
-3454.51
-3456.59
-3458.74
-3460.85
-3462.87
-3464.9
-3467.03
-3469.17
-3471.22
-3473.24
-3475.32
-3477.47
-3479.56
-3481.59
-3483.63
-3485.76
-3487.88
-3489.93
-3491.96
-3494.06
-3496.19
-3498.27
-3500.3
-3502.37
-3504.5
-3506.6
-3508.64
-3510.69
-3512.8
-3514.93
-3516.98
-3519.01
-3521.1
-3523.24
-3525.33
-3527.35
-3529.4
-3531.53
-3533.66
-3535.71
-3537.73
-3539.82
-3541.96
-3544.06
-3546.08
-3548.12
-3550.25
-3552.39
-3554.44
-3556.46
-3558.54
-3560.68
-3562.79
-3564.82
-3566.86
-3568.97
-3571.1
-3573.17
-3575.2
-3577.28
-3579.4
-3581.5
-3583.55
-3585.6
-3587.71
-3589.82
-3591.88
-3593.93
-3596.02
-3598.14
-3600.22
-3602.26
-3604.33
-3606.45
-3608.56
-3610.61
-3612.65
-3614.74
-3616.88
-3618.96
-3620.99
-3623.05
-3625.17
-3627.3
-3629.35
-3631.38
-3633.46
-3635.6
-3637.7
-3639.74
-3641.78
-3643.88
-3646.02
-3648.1
-3650.13
-3652.19
-3654.31
-3656.43
-3658.49
-3660.53
-3662.61
-3664.73
-3666.82
-3668.87
-3670.94
-3673.04
-3675.15
-3677.21
-3679.27
-3681.36
-3683.47
-3685.55
-3687.6
-3689.68
-3691.78
-3693.89
-3695.95
-3698
-3700.09
-3702.21
-3704.3
-3706.34
-3708.4
-3710.51
-3712.63
-3714.7
-3716.74
-3718.81
-3720.94
-3723.05
-3725.1
-3727.14
-3729.23
-3731.36
-3733.46
-3735.5
-3737.55
-3739.66
-3741.78
-3743.86
-3745.9
-3747.97
-3750.08
-3752.19
-3754.26
-3756.31
-3758.4
-3760.5
-3762.59
-3764.66
-3766.73
-3768.83
-3770.92
-3772.99
-3775.06
-3777.15
-3779.25
-3781.34
-3783.4
-3785.47
-3787.57
-3789.68
-3791.75
-3793.8
-3795.88
-3798
-3800.1
-3802.16
-3804.21
-3806.3
-3808.43
-3810.52
-3812.57
-3814.63
-3816.73
-3818.85
-3820.93
-3822.98
-3825.05
-3827.15
-3829.27
-3831.34
-3833.4
-3835.47
-3837.58
-3839.68
-3841.75
-3843.82
-3845.9
-3848.01
-3850.1
-3852.16
-3854.24
-3856.33
-3858.43
-3860.51
-3862.58
-3864.66
-3866.77
-3868.86
-3870.92
-3872.99
-3875.09
-3877.2
-3879.28
-3881.34
-3883.41
-3885.52
-3887.63
-3889.7
-3891.76
-3893.84
-3895.95
-3898.06
-3900.13
-3902.18
-3904.27
-3906.38
-3908.48
-3910.55
-3912.61
-3914.7
-3916.81
-3918.9
-3920.97
-3923.04
-3925.13
-3927.24
-3929.33
-3931.4
-3933.47
-3935.57
-3937.67
-3939.75
-3941.82
-3943.91
-3946.01
-3948.1
-3950.17
-3952.25
-3954.34
-3956.45
-3958.53
-3960.6
-3962.68
-3964.78
-3966.89
-3968.97
-3971.03
-3973.11
-3975.22
-3977.32
-3979.4
-3981.46
-3983.54
-3985.65
-3987.76
-3989.84
-3991.9
-3993.98
-3996.09
-3998.19
-4000.27
-4002.34
-4004.43
-4006.53
-4008.63
-4010.71
-4012.78
-4014.88
-4016.97
-4019.06
-4021.14
-4023.23
-4025.32
-4027.42
-4029.5
-4031.58
-4033.67
-4035.77
-4037.87
-4039.94
-4042.02
-4044.11
-4046.22
-4048.32
-4050.39
-4052.46
-4054.55
-4056.67
-4058.77
-4060.84
-4062.91
-4065
-4067.11
-4069.21
-4071.29
-4073.36
-4075.46
-4077.56
-4079.66
-4081.74
-4083.82
-4085.91
-4088.01
-4090.11
-4092.19
-4094.27
-4096.37
-4098.47
-4100.56
-4102.64
-4104.73
-4106.83
-4108.93
-4111.01
-4113.09
-4115.19
-4117.29
-4119.39
-4121.47
-4123.55
-4125.64
-4127.75
-4129.85
-4131.93
-4134.01
-4136.1
-4138.21
-4140.31
-4142.4
-4144.47
-4146.57
-4148.67
-4150.78
-4152.86
-4154.94
-4157.04
-4159.14
-4161.24
-4163.33
-4165.41
-4167.51
-4169.61
-4171.71
-4173.79
-4175.88
-4177.98
-4180.08
-4182.18
-4184.26
-4186.35
-4188.46
-4190.56
-4192.65
-4194.74
-4196.83
-4198.93
-4201.04
-4203.13
-4205.21
-4207.3
-4209.41
-4211.52
-4213.61
-4215.69
-4217.78
-4219.89
-4222
-4224.09
-4226.18
-4228.27
-4230.37
-4232.48
-4234.58
-4236.66
-4238.75
-4240.86
-4242.96
-4245.06
-4247.15
-4249.24
-4251.35
-4253.45
-4255.55
-4257.64
-4259.74
-4261.84
-4263.95
-4266.04
-4268.13
-4270.23
-4272.34
-4274.44
-4276.54
-4278.63
-4280.73
-4282.84
-4284.94
-4287.04
-4289.13
-4291.23
-4293.33
-4295.44
-4297.54
-4299.63
-4301.73
-4303.84
-4305.95
-4308.05
-4310.14
-4312.24
-4314.34
-4316.45
-4318.56
-4320.65
-4322.75
-4324.85
-4326.96
-4329.07
-4331.17
-4333.27
-4335.37
-4337.48
-4339.58
-4341.68
-4343.78
-4345.89
-4348
-4350.1
-4352.2
-4354.3
-4356.41
-4358.52
-4360.63
-4362.73
-4364.83
-4366.94
-4369.05
-4371.16
-4373.26
-4375.35
-4377.46
-4379.58
-4381.69
-4383.79
-4385.89
-4388
-4390.11
-4392.22
-4394.33
-4396.43
-4398.53
-4400.65
-4402.76
-4404.87
-4406.97
-4409.08
-4411.19
-4413.3
-4415.41
-4417.52
-4419.62
-4421.74
-4423.85
-4425.96
-4428.07
-4430.18
-4432.29
-4434.4
-4436.51
-4438.62
-4440.73
-4442.85
-4444.96
-4447.07
-4449.18
-4451.29
-4453.41
-4455.53
-4457.64
-4459.74
-4461.85
-4463.97
-4466.09
-4468.21
-4470.32
-4472.42
-4474.54
-4476.66
-4478.78
-4480.89
-4483
-4485.11
-4487.23
-4489.35
-4491.47
-4493.58
-4495.7
-4497.82
-4499.94
-4502.05
-4504.17
-4506.29
-4508.41
-4510.53
-4512.64
-4514.76
-4516.88
-4519
-4521.12
-4523.24
-4525.35
-4527.47
-4529.6
-4531.72
-4533.84
-4535.96
-4538.07
-4540.2
-4542.33
-4544.45
-4546.57
-4548.68
-4550.81
-4552.93
-4555.06
-4557.19
-4559.3
-4561.42
-4563.55
-4565.68
-4567.8
-4569.93
-4572.05
-4574.18
-4576.3
-4578.43
-4580.55
-4582.68
-4584.81
-4586.94
-4589.06
-4591.19
-4593.31
-4595.45
-4597.58
-4599.71
-4601.83
-4603.95
-4606.09
-4608.22
-4610.36
-4612.48
-4614.61
-4616.73
-4618.87
-4621.01
-4623.14
-4625.27
-4627.39
-4629.53
-4631.67
-4633.8
-4635.93
-4638.06
-4640.2
-4642.33
-4644.47
-4646.61
-4648.74
-4650.88
-4653.01
-4655.15
-4657.28
-4659.42
-4661.56
-4663.7
-4665.84
-4667.97
-4670.1
-4672.25
-4674.39
-4676.53
-4678.67
-4680.8
-4682.94
-4685.09
-4687.23
-4689.38
-4691.52
-4693.65
-4695.79
-4697.94
-4700.09
-4702.23
-4704.38
-4706.52
-4708.66
-4710.81
-4712.96
-4715.1
-4717.25
-4719.39
-4721.54
-4723.69
-4725.83
-4727.98
-4730.13
-4732.28
-4734.43
-4736.58
-4738.72
-4740.88
-4743.04
-4745.19
-4747.34
-4749.48
-4751.63
-4753.79
-4755.95
-4758.1
-4760.25
-4762.4
-4764.56
-4766.72
-4768.88
-4771.03
-4773.19
-4775.34
-4777.5
-4779.66
-4781.82
-4783.98
-4786.14
-4788.29
-4790.45
-4792.61
-4794.78
-4796.94
-4799.1
-4801.27
-4803.43
-4805.59
-4807.75
-4809.92
-4812.09
-4814.25
-4816.41
-4818.57
-4820.74
-4822.91
-4825.09
-4827.25
-4829.42
-4831.58
-4833.75
-4835.92
-4838.1
-4840.27
-4842.44
-4844.61
-4846.78
-4848.96
-4851.13
-4853.31
-4855.48
-4857.66
-4859.83
-4862.01
-4864.18
-4866.36
-4868.54
-4870.72
-4872.9
-4875.08
-4877.25
-4879.44
-4881.62
-4883.81
-4885.99
-4888.16
-4890.35
-4892.53
-4894.72
-4896.91
-4899.09
-4901.28
-4903.46
-4905.65
-4907.84
-4910.03
-4912.22
-4914.41
-4916.6
-4918.79
-4920.98
-4923.18
-4925.37
-4927.56
-4929.76
-4931.95
-4934.15
-4936.35
-4938.54
-4940.74
-4942.94
-4945.14
-4947.34
-4949.54
-4951.74
-4953.95
-4956.15
-4958.35
-4960.55
-4962.75
-4964.96
-4967.17
-4969.38
-4971.58
-4973.79
-4975.99
-4978.21
-4980.42
-4982.63
-4984.84
-4987.05
-4989.26
-4991.48
-4993.7
-4995.91
-4998.13
-5000.35
-5002.56
-5004.78
-5007
-5009.22
-5011.44
-5013.67
-5015.89
-5018.11
-5020.33
-5022.56
-5024.79
-5027.01
-5029.24
-5031.47
-5033.69
-5035.92
-5038.16
-5040.39
-5042.63
-5044.86
-5047.09
-5049.32
-5051.56
-5053.8
-5056.04
-5058.28
-5060.51
-5062.75
-5065
-5067.24
-5069.48
-5071.73
-5073.97
-5076.22
-5078.46
-5080.71
-5082.96
-5085.21
-5087.46
-5089.72
-5091.97
-5094.22
-5096.47
-5098.73
-5100.99
-5103.25
-5105.51
-5107.76
-5110.02
-5112.29
-5114.55
-5116.82
-5119.08
-5121.35
-5123.61
-5125.88
-5128.15
-5130.42
-5132.69
-5134.97
-5137.24
-5139.52
-5141.79
-5144.07
-5146.35
-5148.63
-5150.91
-5153.19
-5155.47
-5157.75
-5160.04
-5162.33
-5164.62
-5166.9
-5169.19
-5171.48
-5173.77
-5176.07
-5178.37
-5180.66
-5182.96
-5185.26
-5187.56
-5189.86
-5192.16
-5194.46
-5196.77
-5199.08
-5201.38
-5203.69
-5206
-5208.31
-5210.63
-5212.94
-5215.26
-5217.58
-5219.89
-5222.21
-5224.53
-5226.86
-5229.18
-5231.51
-5233.83
-5236.16
-5238.49
-5240.82
-5243.16
-5245.49
-5247.83
-5250.16
-5252.5
-5254.84
-5257.19
-5259.53
-5261.87
-5264.22
-5266.57
-5268.92
-5271.27
-5273.62
-5275.98
-5278.33
-5280.69
-5283.05
-5285.41
-5287.77
-5290.14
-5292.5
-5294.87
-5297.24
-5299.61
-5301.98
-5304.36
-5306.73
-5309.11
-5311.49
-5313.88
-5316.26
-5318.64
-5321.03
-5323.42
-5325.81
-5328.2
-5330.6
-5333
-5335.39
-5337.79
-5340.19
-5342.6
-5345
-5347.41
-5349.82
-5352.24
-5354.65
-5357.06
-5359.48
-5361.9
-5364.33
-5366.75
-5369.18
-5371.6
-5374.03
-5376.46
-5378.9
-5381.34
-5383.78
-5386.22
-5388.66
-5391.1
-5393.55
-5396
-5398.45
-5400.91
-5403.37
-5405.83
-5408.28
-5410.75
-5413.21
-5415.68
-5418.15
-5420.63
-5423.1
-5425.58
-5428.06
-5430.54
-5433.03
-5435.52
-5438.01
-5440.5
-5442.99
-5445.49
-5447.99
-5450.49
-5453
-5455.51
-5458.02
-5460.53
-5463.05
-5465.57
-5468.09
-5470.61
-5473.14
-5475.67
-5478.2
-5480.74
-5483.27
-5485.81
-5488.36
-5490.91
-5493.46
-5496.01
-5498.56
-5501.12
-5503.68
-5506.25
-5508.82
-5511.39
-5513.96
-5516.54
-5519.11
-5521.7
-5524.29
-5526.88
-5529.47
-5532.07
-5534.66
-5537.26
-5539.87
-5542.48
-5545.09
-5547.71
-5550.33
-5552.95
-5555.57
-5558.2
-5560.83
-5563.47
-5566.11
-5568.76
-5571.4
-5574.05
-5576.7
-5579.36
-5582.02
-5584.69
-5587.36
-5590.03
-5592.71
-5595.39
-5598.07
-5600.76
-5603.45
-5606.15
-5608.85
-5611.55
-5614.26
-5616.97
-5619.68
-5622.41
-5625.13
-5627.86
-5630.59
-5633.33
-5636.07
-5638.81
-5641.56
-5644.32
-5647.08
-5649.84
-5652.61
-5655.38
-5658.15
-5660.93
-5663.72
-5666.51
-5669.31
-5672.11
-5674.91
-5677.72
-5680.53
-5683.35
-5686.17
-5689
-5691.84
-5694.67
-5697.51
-5700.36
-5703.22
-5706.08
-5708.94
-5711.81
-5714.68
-5717.56
-5720.45
-5723.34
-5726.24
-5729.14
-5732.05
-5734.96
-5737.87
-5740.8
-5743.73
-5746.66
-5749.61
-5752.56
-5755.51
-5758.47
-5761.43
-5764.4
-5767.38
-5770.37
-5773.36
-5776.36
-5779.36
-5782.37
-5785.39
-5788.41
-5791.45
-5794.49
-5797.54
-5800.59
-5803.65
-5806.72
-5809.79
-5812.88
-5815.97
-5819.07
-5822.18
-5825.3
-5828.42
-5831.56
-5834.73
-5836.07
-5837.68
-5841.68
-5845.05
-5847.7
-5852.19
-5855.01
-5858.72
-5861.83
-5865.26
-5868.45
-5871.73
-5874.93
-5878.18
-5881.41
-5884.66
-5887.9
-5891.14
-5894.39
-5897.64
-5900.91
-5904.19
-5907.46
-5910.75
-5914.04
-5917.35
-5920.66
-5923.98
-5927.31
-5930.64
-5933.99
-5937.35
-5940.71
-5944.08
-5947.46
-5950.84
-5954.24
-5957.65
-5961.07
-5964.49
-5967.93
-5971.37
-5974.82
-5978.29
-5981.76
-5985.24
-5988.73
-5992.23
-5995.74
-5999.26
-6002.78
-6006.32
-6009.87
-6013.43
-6017
-6020.58
-6024.17
-6027.76
-6031.37
-6034.99
-6038.62
-6042.26
-6045.91
-6049.57
-6053.25
-6056.93
-6060.62
-6064.32
-6068.04
-6071.77
-6075.5
-6079.25
-6083.01
-6086.78
-6090.56
-6094.36
-6098.16
-6101.98
-6105.81
-6109.65
-6113.5
-6117.36
-6121.24
-6125.12
-6129.02
-6132.94
-6136.86
-6140.8
-6144.74
-6148.71
-6152.68
-6156.67
-6160.66
-6164.68
-6168.7
-6172.74
-6176.79
-6180.85
-6184.93
-6189.02
-6193.12
-6197.24
-6201.37
-6205.51
-6209.67
-6213.84
-6218.03
-6222.23
-6226.44
-6230.67
-6234.91
-6239.16
-6243.43
-6247.71
-6252.01
-6256.33
-6260.65
-6265
-6269.35
-6273.72
-6278.11
-6282.51
-6286.93
-6291.36
-6295.81
-6300.27
-6304.75
-6309.24
-6313.75
-6318.27
-6322.81
-6327.37
-6331.94
-6336.53
-6341.13
-6345.75
-6350.38
-6355.04
-6359.71
-6364.39
-6369.09
-6373.81
-6378.54
-6383.29
-6388.06
-6392.85
-6397.65
-6402.47
-6407.3
-6412.16
-6417.03
-6421.91
-6426.82
-6431.74
-6436.68
-6441.64
-6446.61
-6451.6
-6456.61
-6461.64
-6466.68
-6471.75
-6476.83
-6481.93
-6487.04
-6492.18
-6497.33
-6502.5
-6507.69
-6512.9
-6518.12
-6523.37
-6528.63
-6533.91
-6539.21
-6544.53
-6549.87
-6555.22
-6560.6
-6565.99
-6571.4
-6576.83
-6582.28
-6587.75
-6593.23
-6598.74
-6604.26
-6609.81
-6615.37
-6620.95
-6626.55
-6632.16
-6637.8
-6643.46
-6649.13
-6654.83
-6660.54
-6666.27
-6672.02
-6677.79
-6683.58
-6689.38
-6695.21
-6701.05
-6706.92
-6712.8
-6718.7
-6724.62
-6730.55
-6736.51
-6742.48
-6748.48
-6754.49
-6760.52
-6766.56
-6772.63
-6778.71
-6784.81
-6790.93
-6797.07
-6803.22
-6809.4
-6815.59
-6821.79
-6828.02
-6834.26
-6840.52
-6846.8
-6853.09
-6859.4
-6865.73
-6872.07
-6878.43
-6884.81
-6891.2
-6897.61
-6904.03
-6910.47
-6916.93
-6923.4
-6929.88
-6936.38
-6942.9
-6949.43
-6955.98
-6962.53
-6969.11
-6975.69
-6982.29
-6988.91
-6995.53
-7002.17
-7008.82
-7015.49
-7022.16
-7028.85
-7035.55
-7042.26
-7048.98
-7055.72
-7062.46
-7069.21
-7075.98
-7082.75
-7089.53
-7096.33
-7103.13
-7109.94
-7116.76
-7123.58
-7130.41
-7137.25
-7144.1
-7150.95
-7157.81
-7164.68
-7171.55
-7178.42
-7185.3
-7192.19
-7199.08
-7205.97
-7212.86
-7219.76
-7226.66
-7233.56
-7240.46
-7247.37
-7254.27
-7261.18
-7268.08
-7274.99
-7281.89
-7288.79
-7295.69
-7302.59
-7309.48
-7316.38
-7323.26
-7330.14
-7337.02
-7343.9
-7350.76
-7357.62
-7364.48
-7371.33
-7378.17
-7385
-7391.82
-7398.64
-7405.44
-7412.24
-7419.02
-7425.8
-7432.56
-7439.31
-7446.05
-7452.77
-7459.48
-7466.18
-7472.87
-7479.54
-7486.19
-7492.83
-7499.45
-7506.05
-7512.63
-7519.2
-7525.75
-7532.29
-7538.8
-7545.29
-7551.76
-7558.22
-7564.64
-7571.05
-7577.44
-7583.8
-7590.15
-7596.46
-7602.76
-7609.02
-7615.27
-7621.48
-7627.68
-7633.84
-7639.99
-7646.1
-7652.19
-7658.24
-7664.27
-7670.27
-7676.24
-7682.19
-7688.1
-7693.99
-7699.84
-7705.66
-7711.45
-7717.21
-7722.93
-7728.63
-7734.29
-7739.92
-7745.52
-7751.08
-7756.61
-7762.11
-7767.57
-7772.99
-7778.39
-7783.75
-7789.07
-7794.36
-7799.61
-7804.83
-7810.01
-7815.15
-7820.26
-7825.33
-7830.36
-7835.36
-7840.33
-7845.25
-7850.14
-7854.99
-7859.8
-7864.57
-7869.31
-7874.02
-7878.68
-7883.31
-7887.9
-7892.45
-7896.96
-7901.43
-7905.87
-7910.27
-7914.64
-7918.97
-7923.25
-7927.5
-7931.72
-7935.89
-7940.03
-7944.13
-7948.2
-7952.23
-7956.22
-7960.18
-7964.09
-7967.97
-7971.82
-7975.63
-7979.41
-7983.15
-7986.85
-7990.52
-7994.15
-7997.75
-8001.31
-8004.84
-8008.33
-8011.79
-8015.22
-8018.61
-8021.98
-8025.3
-8028.59
-8031.85
-8035.08
-8038.28
-8041.45
-8044.58
-8047.69
-8050.76
-8053.8
-8056.81
-8059.79
-8062.74
-8065.67
-8068.56
-8071.43
-8074.27
-8077.07
-8079.85
-8082.6
-8085.33
-8088.03
-8090.71
-8093.35
-8095.98
-8098.57
-8101.14
-8103.69
-8106.21
-8108.7
-8111.18
-8113.63
-8116.06
-8118.46
-8120.84
-8123.2
-8125.54
-8127.86
-8130.15
-8132.43
-8134.68
-8136.92
-8139.13
-8141.33
-8143.5
-8145.66
-8147.8
-8149.92
-8152.02
-8154.11
-8156.17
-8158.23
-8160.26
-8162.28
-8164.28
-8166.26
-8168.23
-8170.19
-8172.13
-8174.06
-8175.97
-8177.87
-8179.75
-8181.63
-8183.48
-8185.33
-8187.16
-8188.98
-8190.79
-8192.59
-8194.37
-8196.15
-8197.91
-8199.66
-8201.4
-8203.14
-8204.86
-8206.57
-8208.27
-8209.96
-8211.64
-8213.32
-8214.98
-8216.64
-8218.29
-8219.93
-8221.56
-8223.19
-8224.8
-8226.41
-8228.02
-8229.61
-8231.2
-8232.79
-8234.36
-8235.93
-8237.49
-8239.05
-8240.6
-8242.15
-8243.69
-8245.22
-8246.76
-8248.28
-8249.8
-8251.32
-8252.83
-8254.33
-8255.83
-8257.33
-8258.83
-8260.32
-8261.8
-8263.29
-8264.76
-8266.24
-8267.71
-8269.18
-8270.64
-8272.11
-8273.57
-8275.02
-8276.48
-8277.93
-8279.37
-8280.82
-8282.26
-8283.7
-8285.14
-8286.58
-8288.01
-8289.45
-8290.88
-8292.3
-8293.73
-8295.15
-8296.58
-8298
-8299.42
-8300.84
-8302.25
-8303.67
-8305.08
-8306.49
-8307.9
-8309.31
-8310.72
-8312.13
-8313.54
-8314.94
-8316.35
-8317.75
-8319.15
-8320.56
-8321.96
-8323.36
-8324.76
-8326.16
-8327.56
-8328.95
-8330.35
-8331.75
-8333.14
-8334.54
-8335.93
-8337.33
-8338.72
-8340.11
-8341.51
-8342.9
-8344.29
-8345.68
-8347.08
-8348.47
-8349.86