/*--------------------------------*- C++ -*----------------------------------*\
  =========                 |
  \\      /  F ield         | OpenFOAM: The Open Source CFD Toolbox
   \\    /   O peration     | Website:  https://openfoam.org
    \\  /    A nd           | Version:  9
     \\/     M anipulation  |
\*---------------------------------------------------------------------------*/
FoamFile
{
    format      ascii;
    class       volScalarField;
    location    "0.037";
    object      p_0;
}
// * * * * * * * * * * * * * * * * * * * * * * * * * * * * * * * * * * * * * //

dimensions      [1 -1 -2 0 0 0 0];

internalField   nonuniform List<scalar> 
10000
(
13030.7
13030.6
13030.4
13030.3
13030.2
13030.1
13030
13029.9
13029.8
13029.7
13029.6
13029.5
13029.4
13029.3
13029.2
13029.1
13029
13028.9
13028.8
13028.7
13028.6
13028.5
13028.4
13028.3
13028.2
13028.1
13028
13027.9
13027.8
13027.7
13027.6
13027.5
13027.4
13027.3
13027.2
13027.1
13027
13026.9
13026.8
13026.7
13026.6
13026.5
13026.4
13026.3
13026.2
13026.1
13026
13025.9
13025.8
13025.7
13025.6
13025.5
13025.4
13025.3
13025.2
13025.1
13025
13024.9
13024.8
13024.7
13024.6
13024.5
13024.4
13024.3
13024.2
13024.1
13024
13023.9
13023.8
13023.7
13023.6
13023.5
13023.4
13023.3
13023.2
13023.1
13023
13022.9
13022.8
13022.7
13022.6
13022.5
13022.4
13022.3
13022.2
13022.1
13022
13021.9
13021.8
13021.7
13021.5
13021.4
13021.3
13021.2
13021.1
13021
13020.9
13020.8
13020.7
13020.6
13020.5
13020.4
13020.3
13020.2
13020.1
13020
13019.9
13019.8
13019.7
13019.6
13019.5
13019.4
13019.3
13019.2
13019.1
13019
13018.9
13018.8
13018.7
13018.6
13018.5
13018.4
13018.3
13018.2
13018.1
13018
13017.9
13017.8
13017.7
13017.6
13017.5
13017.4
13017.3
13017.2
13017.1
13017
13016.9
13016.8
13016.7
13016.6
13016.5
13016.4
13016.3
13016.2
13016.1
13016
13015.9
13015.7
13015.6
13015.5
13015.4
13015.3
13015.2
13015.1
13015
13014.9
13014.8
13014.7
13014.6
13014.5
13014.4
13014.3
13014.2
13014.1
13014
13013.9
13013.8
13013.7
13013.6
13013.5
13013.4
13013.3
13013.2
13013.1
13013
13012.9
13012.8
13012.7
13012.6
13012.5
13012.4
13012.3
13012.2
13012.1
13012
13011.9
13011.8
13011.7
13011.5
13011.4
13011.3
13011.2
13011.1
13011
13010.9
13010.8
13010.7
13010.6
13010.5
13010.4
13010.3
13010.2
13010.1
13010
13009.9
13009.8
13009.7
13009.6
13009.5
13009.4
13009.3
13009.2
13009.1
13009
13008.9
13008.8
13008.7
13008.6
13008.5
13008.4
13008.3
13008.2
13008.1
13007.9
13007.8
13007.7
13007.6
13007.5
13007.4
13007.3
13007.2
13007.1
13007
13006.9
13006.8
13006.7
13006.6
13006.5
13006.4
13006.3
13006.2
13006.1
13006
13005.9
13005.8
13005.7
13005.6
13005.5
13005.4
13005.3
13005.2
13005.1
13005
13004.8
13004.7
13004.6
13004.5
13004.4
13004.3
13004.2
13004.1
13004
13003.9
13003.8
13003.7
13003.6
13003.5
13003.4
13003.3
13003.2
13003.1
13003
13002.9
13002.8
13002.7
13002.6
13002.5
13002.4
13002.3
13002.2
13002
13001.9
13001.8
13001.7
13001.6
13001.5
13001.4
13001.3
13001.2
13001.1
13001
13000.9
13000.8
13000.7
13000.6
13000.5
13000.4
13000.3
13000.2
13000.1
13000
12999.9
12999.8
12999.7
12999.5
12999.4
12999.3
12999.2
12999.1
12999
12998.9
12998.8
12998.7
12998.6
12998.5
12998.4
12998.3
12998.2
12998.1
12998
12997.9
12997.8
12997.7
12997.6
12997.5
12997.4
12997.3
12997.1
12997
12996.9
12996.8
12996.7
12996.6
12996.5
12996.4
12996.3
12996.2
12996.1
12996
12995.9
12995.8
12995.7
12995.6
12995.5
12995.4
12995.3
12995.2
12995.1
12995
12994.8
12994.7
12994.6
12994.5
12994.4
12994.3
12994.2
12994.1
12994
12993.9
12993.8
12993.7
12993.6
12993.5
12993.4
12993.3
12993.2
12993.1
12993
12992.9
12992.7
12992.6
12992.5
12992.4
12992.3
12992.2
12992.1
12992
12991.9
12991.8
12991.7
12991.6
12991.5
12991.4
12991.3
12991.2
12991.1
12991
12990.9
12990.7
12990.6
12990.5
12990.4
12990.3
12990.2
12990.1
12990
12989.9
12989.8
12989.7
12989.6
12989.5
12989.4
12989.3
12989.2
12989.1
12989
12988.8
12988.7
12988.6
12988.5
12988.4
12988.3
12988.2
12988.1
12988
12987.9
12987.8
12987.7
12987.6
12987.5
12987.4
12987.3
12987.2
12987.1
12986.9
12986.8
12986.7
12986.6
12986.5
12986.4
12986.3
12986.2
12986.1
12986
12985.9
12985.8
12985.7
12985.6
12985.5
12985.4
12985.2
12985.1
12985
12984.9
12984.8
12984.7
12984.6
12984.5
12984.4
12984.3
12984.2
12984.1
12984
12983.9
12983.8
12983.7
12983.6
12983.4
12983.3
12983.2
12983.1
12983
12982.9
12982.8
12982.7
12982.6
12982.5
12982.4
12982.3
12982.2
12982.1
12982
12981.8
12981.7
12981.6
12981.5
12981.4
12981.3
12981.2
12981.1
12981
12980.9
12980.8
12980.7
12980.6
12980.5
12980.4
12980.2
12980.1
12980
12979.9
12979.8
12979.7
12979.6
12979.5
12979.4
12979.3
12979.2
12979.1
12979
12978.9
12978.8
12978.6
12978.5
12978.4
12978.3
12978.2
12978.1
12978
12977.9
12977.8
12977.7
12977.6
12977.5
12977.4
12977.3
12977.1
12977
12976.9
12976.8
12976.7
12976.6
12976.5
12976.4
12976.3
12976.2
12976.1
12976
12975.9
12975.8
12975.6
12975.5
12975.4
12975.3
12975.2
12975.1
12975
12974.9
12974.8
12974.7
12974.6
12974.5
12974.4
12974.3
12974.1
12974
12973.9
12973.8
12973.7
12973.6
12973.5
12973.4
12973.3
12973.2
12973.1
12973
12972.9
12972.7
12972.6
12972.5
12972.4
12972.3
12972.2
12972.1
12972
12971.9
12971.8
12971.7
12971.6
12971.5
12971.3
12971.2
12971.1
12971
12970.9
12970.8
12970.7
12970.6
12970.5
12970.4
12970.3
12970.2
12970.1
12969.9
12969.8
12969.7
12969.6
12969.5
12969.4
12969.3
12969.2
12969.1
12969
12968.9
12968.8
12968.6
12968.5
12968.4
12968.3
12968.2
12968.1
12968
12967.9
12967.8
12967.7
12967.6
12967.5
12967.3
12967.2
12967.1
12967
12966.9
12966.8
12966.7
12966.6
12966.5
12966.4
12966.3
12966.2
12966
12965.9
12965.8
12965.7
12965.6
12965.5
12965.4
12965.3
12965.2
12965.1
12965
12964.9
12964.7
12964.6
12964.5
12964.4
12964.3
12964.2
12964.1
12964
12963.9
12963.8
12963.7
12963.5
12963.4
12963.3
12963.2
12963.1
12963
12962.9
12962.8
12962.7
12962.6
12962.5
12962.3
12962.2
12962.1
12962
12961.9
12961.8
12961.7
12961.6
12961.5
12961.4
12961.3
12961.1
12961
12960.9
12960.8
12960.7
12960.6
12960.5
12960.4
12960.3
12960.2
12960.1
12959.9
12959.8
12959.7
12959.6
12959.5
12959.4
12959.3
12959.2
12959.1
12959
12958.9
12958.7
12958.6
12958.5
12958.4
12958.3
12958.2
12958.1
12958
12957.9
12957.8
12957.6
12957.5
12957.4
12957.3
12957.2
12957.1
12957
12956.9
12956.8
12956.7
12956.6
12956.4
12956.3
12956.2
12956.1
12956
12955.9
12955.8
12955.7
12955.6
12955.5
12955.3
12955.2
12955.1
12955
12954.9
12954.8
12954.7
12954.6
12954.5
12954.4
12954.2
12954.1
12954
12953.9
12953.8
12953.7
12953.6
12953.5
12953.4
12953.3
12953.1
12953
12952.9
12952.8
12952.7
12952.6
12952.5
12952.4
12952.3
12952.2
12952
12951.9
12951.8
12951.7
12951.6
12951.5
12951.4
12951.3
12951.2
12951.1
12950.9
12950.8
12950.7
12950.6
12950.5
12950.4
12950.3
12950.2
12950.1
12949.9
12949.8
12949.7
12949.6
12949.5
12949.4
12949.3
12949.2
12949.1
12949
12948.8
12948.7
12948.6
12948.5
12948.4
12948.3
12948.2
12948.1
12948
12947.8
12947.7
12947.6
12947.5
12947.4
12947.3
12947.2
12947.1
12947
12946.8
12946.7
12946.6
12946.5
12946.4
12946.3
12946.2
12946.1
12946
12945.9
12945.7
12945.6
12945.5
12945.4
12945.3
12945.2
12945.1
12945
12944.9
12944.7
12944.6
12944.5
12944.4
12944.3
12944.2
12944.1
12944
12943.9
12943.7
12943.6
12943.5
12943.4
12943.3
12943.2
12943.1
12943
12942.8
12942.7
12942.6
12942.5
12942.4
12942.3
12942.2
12942.1
12942
12941.8
12941.7
12941.6
12941.5
12941.4
12941.3
12941.2
12941.1
12941
12940.8
12940.7
12940.6
12940.5
12940.4
12940.3
12940.2
12940.1
12939.9
12939.8
12939.7
12939.6
12939.5
12939.4
12939.3
12939.2
12939.1
12938.9
12938.8
12938.7
12938.6
12938.5
12938.4
12938.3
12938.2
12938
12937.9
12937.8
12937.7
12937.6
12937.5
12937.4
12937.3
12937.2
12937
12936.9
12936.8
12936.7
12936.6
12936.5
12936.4
12936.3
12936.1
12936
12935.9
12935.8
12935.7
12935.6
12935.5
12935.4
12935.2
12935.1
12935
12934.9
12934.8
12934.7
12934.6
12934.5
12934.3
12934.2
12934.1
12934
12933.9
12933.8
12933.7
12933.6
12933.4
12933.3
12933.2
12933.1
12933
12932.9
12932.8
12932.7
12932.5
12932.4
12932.3
12932.2
12932.1
12932
12931.9
12931.8
12931.6
12931.5
12931.4
12931.3
12931.2
12931.1
12931
12930.9
12930.7
12930.6
12930.5
12930.4
12930.3
12930.2
12930.1
12930
12929.8
12929.7
12929.6
12929.5
12929.4
12929.3
12929.2
12929.1
12928.9
12928.8
12928.7
12928.6
12928.5
12928.4
12928.3
12928.1
12928
12927.9
12927.8
12927.7
12927.6
12927.5
12927.4
12927.2
12927.1
12927
12926.9
12926.8
12926.7
12926.6
12926.5
12926.3
12926.2
12926.1
12926
12925.9
12925.8
12925.7
12925.5
12925.4
12925.3
12925.2
12925.1
12925
12924.9
12924.7
12924.6
12924.5
12924.4
12924.3
12924.2
12924.1
12924
12923.8
12923.7
12923.6
12923.5
12923.4
12923.3
12923.2
12923
12922.9
12922.8
12922.7
12922.6
12922.5
12922.4
12922.3
12922.1
12922
12921.9
12921.8
12921.7
12921.6
12921.5
12921.3
12921.2
12921.1
12921
12920.9
12920.8
12920.7
12920.5
12920.4
12920.3
12920.2
12920.1
12920
12919.9
12919.7
12919.6
12919.5
12919.4
12919.3
12919.2
12919.1
12918.9
12918.8
12918.7
12918.6
12918.5
12918.4
12918.3
12918.1
12918
12917.9
12917.8
12917.7
12917.6
12917.5
12917.3
12917.2
12917.1
12917
12916.9
12916.8
12916.7
12916.5
12916.4
12916.3
12916.2
12916.1
12916
12915.9
12915.7
12915.6
12915.5
12915.4
12915.3
12915.2
12915.1
12914.9
12914.8
12914.7
12914.6
12914.5
12914.4
12914.3
12914.1
12914
12913.9
12913.8
12913.7
12913.6
12913.5
12913.3
12913.2
12913.1
12913
12912.9
12912.8
12912.7
12912.5
12912.4
12912.3
12912.2
12912.1
12912
12911.8
12911.7
12911.6
12911.5
12911.4
12911.3
12911.2
12911
12910.9
12910.8
12910.7
12910.6
12910.5
12910.4
12910.2
12910.1
12910
12909.9
12909.8
12909.7
12909.5
12909.4
12909.3
12909.2
12909.1
12909
12908.9
12908.7
12908.6
12908.5
12908.4
12908.3
12908.2
12908
12907.9
12907.8
12907.7
12907.6
12907.5
12907.4
12907.2
12907.1
12907
12906.9
12906.8
12906.7
12906.5
12906.4
12906.3
12906.2
12906.1
12906
12905.9
12905.7
12905.6
12905.5
12905.4
12905.3
12905.2
12905
12904.9
12904.8
12904.7
12904.6
12904.5
12904.4
12904.2
12904.1
12904
12903.9
12903.8
12903.7
12903.5
12903.4
12903.3
12903.2
12903.1
12903
12902.8
12902.7
12902.6
12902.5
12902.4
12902.3
12902.2
12902
12901.9
12901.8
12901.7
12901.6
12901.5
12901.3
12901.2
12901.1
12901
12900.9
12900.8
12900.6
12900.5
12900.4
12900.3
12900.2
12900.1
12899.9
12899.8
12899.7
12899.6
12899.5
12899.4
12899.2
12899.1
12899
12898.9
12898.8
12898.7
12898.6
12898.4
12898.3
12898.2
12898.1
12898
12897.9
12897.7
12897.6
12897.5
12897.4
12897.3
12897.2
12897
12896.9
12896.8
12896.7
12896.6
12896.5
12896.3
12896.2
12896.1
12896
12895.9
12895.8
12895.6
12895.5
12895.4
12895.3
12895.2
12895.1
12894.9
12894.8
12894.7
12894.6
12894.5
12894.4
12894.2
12894.1
12894
12893.9
12893.8
12893.7
12893.5
12893.4
12893.3
12893.2
12893.1
12893
12892.8
12892.7
12892.6
12892.5
12892.4
12892.3
12892.1
12892
12891.9
12891.8
12891.7
12891.6
12891.4
12891.3
12891.2
12891.1
12891
12890.9
12890.7
12890.6
12890.5
12890.4
12890.3
12890.1
12890
12889.9
12889.8
12889.7
12889.6
12889.4
12889.3
12889.2
12889.1
12889
12888.9
12888.7
12888.6
12888.5
12888.4
12888.3
12888.2
12888
12887.9
12887.8
12887.7
12887.6
12887.5
12887.3
12887.2
12887.1
12887
12886.9
12886.7
12886.6
12886.5
12886.4
12886.3
12886.2
12886
12885.9
12885.8
12885.7
12885.6
12885.5
12885.3
12885.2
12885.1
12885
12884.9
12884.7
12884.6
12884.5
12884.4
12884.3
12884.2
12884
12883.9
12883.8
12883.7
12883.6
12883.5
12883.3
12883.2
12883.1
12883
12882.9
12882.7
12882.6
12882.5
12882.4
12882.3
12882.2
12882
12881.9
12881.8
12881.7
12881.6
12881.5
12881.3
12881.2
12881.1
12881
12880.9
12880.7
12880.6
12880.5
12880.4
12880.3
12880.2
12880
12879.9
12879.8
12879.7
12879.6
12879.4
12879.3
12879.2
12879.1
12879
12878.9
12878.7
12878.6
12878.5
12878.4
12878.3
12878.1
12878
12877.9
12877.8
12877.7
12877.6
12877.4
12877.3
12877.2
12877.1
12877
12876.8
12876.7
12876.6
12876.5
12876.4
12876.3
12876.1
12876
12875.9
12875.8
12875.7
12875.5
12875.4
12875.3
12875.2
12875.1
12875
12874.8
12874.7
12874.6
12874.5
12874.4
12874.2
12874.1
12874
12873.9
12873.8
12873.6
12873.5
12873.4
12873.3
12873.2
12873.1
12872.9
12872.8
12872.7
12872.6
12872.5
12872.3
12872.2
12872.1
12872
12871.9
12871.7
12871.6
12871.5
12871.4
12871.3
12871.2
12871
12870.9
12870.8
12870.7
12870.6
12870.4
12870.3
12870.2
12870.1
12870
12869.8
12869.7
12869.6
12869.5
12869.4
12869.3
12869.1
12869
12868.9
12868.8
12868.7
12868.5
12868.4
12868.3
12868.2
12868.1
12867.9
12867.8
12867.7
12867.6
12867.5
12867.3
12867.2
12867.1
12867
12866.9
12866.8
12866.6
12866.5
12866.4
12866.3
12866.2
12866
12865.9
12865.8
12865.7
12865.6
12865.4
12865.3
12865.2
12865.1
12865
12864.8
12864.7
12864.6
12864.5
12864.4
12864.3
12864.1
12864
12863.9
12863.8
12863.7
12863.5
12863.4
12863.3
12863.2
12863.1
12862.9
12862.8
12862.7
12862.6
12862.5
12862.3
12862.2
12862.1
12862
12861.9
12861.7
12861.6
12861.5
12861.4
12861.3
12861.1
12861
12860.9
12860.8
12860.7
12860.5
12860.4
12860.3
12860.2
12860.1
12860
12859.8
12859.7
12859.6
12859.5
12859.4
12859.2
12859.1
12859
12858.9
12858.8
12858.6
12858.5
12858.4
12858.3
12858.2
12858
12857.9
12857.8
12857.7
12857.6
12857.4
12857.3
12857.2
12857.1
12857
12856.8
12856.7
12856.6
12856.5
12856.4
12856.2
12856.1
12856
12855.9
12855.8
12855.6
12855.5
12855.4
12855.3
12855.2
12855
12854.9
12854.8
12854.7
12854.6
12854.4
12854.3
12854.2
12854.1
12854
12853.8
12853.7
12853.6
12853.5
12853.4
12853.2
12853.1
12853
12852.9
12852.8
12852.6
12852.5
12852.4
12852.3
12852.2
12852
12851.9
12851.8
12851.7
12851.6
12851.4
12851.3
12851.2
12851.1
12851
12850.8
12850.7
12850.6
12850.5
12850.4
12850.2
12850.1
12850
12849.9
12849.8
12849.6
12849.5
12849.4
12849.3
12849.2
12849
12848.9
12848.8
12848.7
12848.6
12848.4
12848.3
12848.2
12848.1
12848
12847.8
12847.7
12847.6
12847.5
12847.4
12847.2
12847.1
12847
12846.9
12846.8
12846.6
12846.5
12846.4
12846.3
12846.2
12846
12845.9
12845.8
12845.7
12845.6
12845.4
12845.3
12845.2
12845.1
12845
12844.8
12844.7
12844.6
12844.5
12844.4
12844.2
12844.1
12844
12843.9
12843.7
12843.6
12843.5
12843.4
12843.3
12843.1
12843
12842.9
12842.8
12842.7
12842.5
12842.4
12842.3
12842.2
12842.1
12841.9
12841.8
12841.7
12841.6
12841.5
12841.3
12841.2
12841.1
12841
12840.9
12840.7
12840.6
12840.5
12840.4
12840.3
12840.1
12840
12839.9
12839.8
12839.7
12839.5
12839.4
12839.3
12839.2
12839.1
12838.9
12838.8
12838.7
12838.6
12838.4
12838.3
12838.2
12838.1
12838
12837.8
12837.7
12837.6
12837.5
12837.4
12837.2
12837.1
12837
12836.9
12836.8
12836.6
12836.5
12836.4
12836.3
12836.2
12836
12835.9
12835.8
12835.7
12835.6
12835.4
12835.3
12835.2
12835.1
12834.9
12834.8
12834.7
12834.6
12834.5
12834.3
12834.2
12834.1
12834
12833.9
12833.7
12833.6
12833.5
12833.4
12833.3
12833.1
12833
12832.9
12832.8
12832.7
12832.5
12832.4
12832.3
12832.2
12832.1
12831.9
12831.8
12831.7
12831.6
12831.5
12831.3
12831.2
12831.1
12831
12830.8
12830.7
12830.6
12830.5
12830.4
12830.2
12830.1
12830
12829.9
12829.8
12829.6
12829.5
12829.4
12829.3
12829.2
12829
12828.9
12828.8
12828.7
12828.6
12828.4
12828.3
12828.2
12828.1
12828
12827.8
12827.7
12827.6
12827.5
12827.3
12827.2
12827.1
12827
12826.9
12826.7
12826.6
12826.5
12826.4
12826.3
12826.1
12826
12825.9
12825.8
12825.7
12825.5
12825.4
12825.3
12825.2
12825.1
12824.9
12824.8
12824.7
12824.6
12824.5
12824.3
12824.2
12824.1
12824
12823.8
12823.7
12823.6
12823.5
12823.4
12823.2
12823.1
12823
12822.9
12822.8
12822.6
12822.5
12822.4
12822.3
12822.2
12822
12821.9
12821.8
12821.7
12821.6
12821.4
12821.3
12821.2
12821.1
12821
12820.8
12820.7
12820.6
12820.5
12820.4
12820.2
12820.1
12820
12819.9
12819.7
12819.6
12819.5
12819.4
12819.3
12819.1
12819
12818.9
12818.8
12818.7
12818.5
12818.4
12818.3
12818.2
12818.1
12817.9
12817.8
12817.7
12817.6
12817.5
12817.3
12817.2
12817.1
12817
12816.9
12816.7
12816.6
12816.5
12816.4
12816.3
12816.1
12816
12815.9
12815.8
12815.7
12815.5
12815.4
12815.3
12815.2
12815.1
12814.9
12814.8
12814.7
12814.6
12814.5
12814.3
12814.2
12814.1
12814
12813.9
12813.7
12813.6
12813.5
12813.4
12813.2
12813.1
12813
12812.9
12812.8
12812.6
12812.5
12812.4
12812.3
12812.2
12812
12811.9
12811.8
12811.7
12811.6
12811.4
12811.3
12811.2
12811.1
12811
12810.8
12810.7
12810.6
12810.5
12810.4
12810.2
12810.1
12810
12809.9
12809.8
12809.6
12809.5
12809.4
12809.3
12809.2
12809
12808.9
12808.8
12808.7
12808.6
12808.4
12808.3
12808.2
12808.1
12808
12807.9
12807.7
12807.6
12807.5
12807.4
12807.3
12807.1
12807
12806.9
12806.8
12806.7
12806.5
12806.4
12806.3
12806.2
12806.1
12805.9
12805.8
12805.7
12805.6
12805.5
12805.3
12805.2
12805.1
12805
12804.9
12804.7
12804.6
12804.5
12804.4
12804.3
12804.1
12804
12803.9
12803.8
12803.7
12803.5
12803.4
12803.3
12803.2
12803.1
12803
12802.8
12802.7
12802.6
12802.5
12802.4
12802.2
12802.1
12802
12801.9
12801.8
12801.6
12801.5
12801.4
12801.3
12801.2
12801
12800.9
12800.8
12800.7
12800.6
12800.5
12800.3
12800.2
12800.1
12800
12799.9
12799.7
12799.6
12799.5
12799.4
12799.3
12799.1
12799
12798.9
12798.8
12798.7
12798.6
12798.4
12798.3
12798.2
12798.1
12798
12797.8
12797.7
12797.6
12797.5
12797.4
12797.2
12797.1
12797
12796.9
12796.8
12796.7
12796.5
12796.4
12796.3
12796.2
12796.1
12795.9
12795.8
12795.7
12795.6
12795.5
12795.4
12795.2
12795.1
12795
12794.9
12794.8
12794.7
12794.5
12794.4
12794.3
12794.2
12794.1
12793.9
12793.8
12793.7
12793.6
12793.5
12793.4
12793.2
12793.1
12793
12792.9
12792.8
12792.7
12792.5
12792.4
12792.3
12792.2
12792.1
12791.9
12791.8
12791.7
12791.6
12791.5
12791.4
12791.2
12791.1
12791
12790.9
12790.8
12790.7
12790.5
12790.4
12790.3
12790.2
12790.1
12790
12789.8
12789.7
12789.6
12789.5
12789.4
12789.3
12789.1
12789
12788.9
12788.8
12788.7
12788.6
12788.4
12788.3
12788.2
12788.1
12788
12787.9
12787.7
12787.6
12787.5
12787.4
12787.3
12787.2
12787
12786.9
12786.8
12786.7
12786.6
12786.5
12786.4
12786.2
12786.1
12786
12785.9
12785.8
12785.7
12785.5
12785.4
12785.3
12785.2
12785.1
12785
12784.8
12784.7
12784.6
12784.5
12784.4
12784.3
12784.2
12784
12783.9
12783.8
12783.7
12783.6
12783.5
12783.4
12783.2
12783.1
12783
12782.9
12782.8
12782.7
12782.6
12782.4
12782.3
12782.2
12782.1
12782
12781.9
12781.8
12781.6
12781.5
12781.4
12781.3
12781.2
12781.1
12781
12780.8
12780.7
12780.6
12780.5
12780.4
12780.3
12780.2
12780
12779.9
12779.8
12779.7
12779.6
12779.5
12779.4
12779.3
12779.1
12779
12778.9
12778.8
12778.7
12778.6
12778.5
12778.3
12778.2
12778.1
12778
12777.9
12777.8
12777.7
12777.6
12777.4
12777.3
12777.2
12777.1
12777
12776.9
12776.8
12776.7
12776.5
12776.4
12776.3
12776.2
12776.1
12776
12775.9
12775.8
12775.7
12775.5
12775.4
12775.3
12775.2
12775.1
12775
12774.9
12774.8
12774.7
12774.5
12774.4
12774.3
12774.2
12774.1
12774
12773.9
12773.8
12773.7
12773.5
12773.4
12773.3
12773.2
12773.1
12773
12772.9
12772.8
12772.7
12772.6
12772.5
12772.3
12772.2
12772.1
12772
12771.9
12771.8
12771.7
12771.6
12771.5
12771.4
12771.2
12771.1
12771
12770.9
12770.8
12770.7
12770.6
12770.5
12770.4
12770.3
12770.2
12770.1
12769.9
12769.8
12769.7
12769.6
12769.5
12769.4
12769.3
12769.2
12769.1
12769
12768.9
12768.8
12768.7
12768.6
12768.4
12768.3
12768.2
12768.1
12768
12767.9
12767.8
12767.7
12767.6
12767.5
12767.4
12767.3
12767.2
12767.1
12767
12766.9
12766.7
12766.6
12766.5
12766.4
12766.3
12766.2
12766.1
12766
12765.9
12765.8
12765.7
12765.6
12765.5
12765.4
12765.3
12765.2
12765.1
12765
12764.9
12764.8
12764.7
12764.6
12764.4
12764.3
12764.2
12764.1
12764
12763.9
12763.8
12763.7
12763.6
12763.5
12763.4
12763.3
12763.2
12763.1
12763
12762.9
12762.8
12762.7
12762.6
12762.5
12762.4
12762.3
12762.2
12762.1
12762
12761.9
12761.8
12761.7
12761.6
12761.5
12761.4
12761.3
12761.2
12761.1
12761
12760.9
12760.8
12760.7
12760.6
12760.5
12760.4
12760.3
12760.2
12760.1
12760
12759.9
12759.8
12759.7
12759.6
12759.5
12759.4
12759.3
12759.2
12759.1
12759
12758.9
12758.8
12758.7
12758.6
12758.5
12758.4
12758.4
12758.3
12758.2
12758.1
12758
12757.9
12757.8
12757.7
12757.6
12757.5
12757.4
12757.3
12757.2
12757.1
12757
12756.9
12756.8
12756.7
12756.6
12756.5
12756.5
12756.4
12756.3
12756.2
12756.1
12756
12755.9
12755.8
12755.7
12755.6
12755.5
12755.4
12755.3
12755.3
12755.2
12755.1
12755
12754.9
12754.8
12754.7
12754.6
12754.5
12754.4
12754.4
12754.3
12754.2
12754.1
12754
12753.9
12753.8
12753.7
12753.6
12753.6
12753.5
12753.4
12753.3
12753.2
12753.1
12753
12752.9
12752.9
12752.8
12752.7
12752.6
12752.5
12752.4
12752.3
12752.3
12752.2
12752.1
12752
12751.9
12751.8
12751.8
12751.7
12751.6
12751.5
12751.4
12751.3
12751.3
12751.2
12751.1
12751
12750.9
12750.8
12750.8
12750.7
12750.6
12750.5
12750.4
12750.4
12750.3
12750.2
12750.1
12750
12750
12749.9
12749.8
12749.7
12749.7
12749.6
12749.5
12749.4
12749.3
12749.3
12749.2
12749.1
12749
12749
12748.9
12748.8
12748.7
12748.7
12748.6
12748.5
12748.4
12748.4
12748.3
12748.2
12748.1
12748.1
12748
12747.9
12747.9
12747.8
12747.7
12747.6
12747.6
12747.5
12747.4
12747.4
12747.3
12747.2
12747.2
12747.1
12747
12747
12746.9
12746.8
12746.7
12746.7
12746.6
12746.5
12746.5
12746.4
12746.4
12746.3
12746.2
12746.2
12746.1
12746
12746
12745.9
12745.8
12745.8
12745.7
12745.7
12745.6
12745.5
12745.5
12745.4
12745.4
12745.3
12745.2
12745.2
12745.1
12745.1
12745
12744.9
12744.9
12744.8
12744.8
12744.7
12744.7
12744.6
12744.5
12744.5
12744.4
12744.4
12744.3
12744.3
12744.2
12744.2
12744.1
12744.1
12744
12744
12743.9
12743.9
12743.8
12743.8
12743.7
12743.7
12743.6
12743.6
12743.5
12743.5
12743.4
12743.4
12743.4
12743.3
12743.3
12743.2
12743.2
12743.1
12743.1
12743
12743
12743
12742.9
12742.9
12742.8
12742.8
12742.8
12742.7
12742.7
12742.7
12742.6
12742.6
12742.5
12742.5
12742.5
12742.4
12742.4
12742.4
12742.3
12742.3
12742.3
12742.2
12742.2
12742.2
12742.2
12742.1
12742.1
12742.1
12742
12742
12742
12742
12741.9
12741.9
12741.9
12741.9
12741.8
12741.8
12741.8
12741.8
12741.8
12741.7
12741.7
12741.7
12741.7
12741.7
12741.7
12741.6
12741.6
12741.6
12741.6
12741.6
12741.6
12741.6
12741.5
12741.5
12741.5
12741.5
12741.5
12741.5
12741.5
12741.5
12741.5
12741.5
12741.5
12741.5
12741.5
12741.5
12741.4
12741.4
12741.4
12741.4
12741.4
12741.4
12741.4
12741.5
12741.5
12741.5
12741.5
12741.5
12741.5
12741.5
12741.5
12741.5
12741.5
12741.5
12741.5
12741.5
12741.6
12741.6
12741.6
12741.6
12741.6
12741.6
12741.7
12741.7
12741.7
12741.7
12741.7
12741.8
12741.8
12741.8
12741.8
12741.9
12741.9
12741.9
12741.9
12742
12742
12742
12742.1
12742.1
12742.1
12742.2
12742.2
12742.2
12742.3
12742.3
12742.4
12742.4
12742.4
12742.5
12742.5
12742.6
12742.6
12742.7
12742.7
12742.8
12742.8
12742.9
12742.9
12743
12743
12743.1
12743.1
12743.2
12743.3
12743.3
12743.4
12743.4
12743.5
12743.6
12743.6
12743.7
12743.8
12743.8
12743.9
12744
12744.1
12744.1
12744.2
12744.3
12744.4
12744.4
12744.5
12744.6
12744.7
12744.8
12744.9
12745
12745
12745.1
12745.2
12745.3
12745.4
12745.5
12745.6
12745.7
12745.8
12745.9
12746
12746.1
12746.2
12746.3
12746.4
12746.5
12746.6
12746.8
12746.9
12747
12747.1
12747.2
12747.3
12747.5
12747.6
12747.7
12747.8
12748
12748.1
12748.2
12748.4
12748.5
12748.6
12748.8
12748.9
12749.1
12749.2
12749.3
12749.5
12749.6
12749.8
12749.9
12750.1
12750.2
12750.4
12750.6
12750.7
12750.9
12751.1
12751.2
12751.4
12751.6
12751.7
12751.9
12752.1
12752.3
12752.4
12752.6
12752.8
12753
12753.2
12753.4
12753.5
12753.7
12753.9
12754.1
12754.3
12754.5
12754.7
12754.9
12755.1
12755.4
12755.6
12755.8
12756
12756.2
12756.4
12756.7
12756.9
12757.1
12757.3
12757.6
12757.8
12758
12758.3
12758.5
12758.8
12759
12759.2
12759.5
12759.7
12760
12760.3
12760.5
12760.8
12761
12761.3
12761.6
12761.8
12762.1
12762.4
12762.7
12763
12763.2
12763.5
12763.8
12764.1
12764.4
12764.7
12765
12765.3
12765.6
12765.9
12766.2
12766.5
12766.9
12767.2
12767.5
12767.8
12768.1
12768.5
12768.8
12769.1
12769.5
12769.8
12770.2
12770.5
12770.9
12771.2
12771.6
12771.9
12772.3
12772.6
12773
12773.4
12773.8
12774.1
12774.5
12774.9
12775.3
12775.7
12776.1
12776.5
12776.8
12777.2
12777.7
12778.1
12778.5
12778.9
12779.3
12779.7
12780.1
12780.6
12781
12781.4
12781.9
12782.3
12782.7
12783.2
12783.6
12784.1
12784.5
12785
12785.5
12785.9
12786.4
12786.9
12787.3
12787.8
12788.3
12788.8
12789.3
12789.8
12790.3
12790.8
12791.3
12791.8
12792.3
12792.8
12793.3
12793.8
12794.4
12794.9
12795.4
12796
12796.5
12797
12797.6
12798.1
12798.7
12799.2
12799.8
12800.4
12800.9
12801.5
12802.1
12802.6
12803.2
12803.8
12804.4
12805
12805.6
12806.2
12806.8
12807.4
12808
12808.6
12809.2
12809.9
12810.5
12811.1
12811.7
12812.4
12813
12813.7
12814.3
12815
12815.6
12816.3
12816.9
12817.6
12818.3
12818.9
12819.6
12820.3
12821
12821.6
12822.3
12823
12823.7
12824.4
12825.1
12825.8
12826.5
12827.3
12828
12828.7
12829.4
12830.2
12830.9
12831.6
12832.4
12833.1
12833.8
12834.6
12835.3
12836.1
12836.9
12837.6
12838.4
12839.2
12839.9
12840.7
12841.5
12842.3
12843.1
12843.8
12844.6
12845.4
12846.2
12847
12847.8
12848.6
12849.5
12850.3
12851.1
12851.9
12852.7
12853.6
12854.4
12855.2
12856.1
12856.9
12857.7
12858.6
12859.4
12860.3
12861.1
12862
12862.8
12863.7
12864.6
12865.4
12866.3
12867.2
12868.1
12868.9
12869.8
12870.7
12871.6
12872.5
12873.4
12874.3
12875.2
12876.1
12877
12877.9
12878.8
12879.7
12880.6
12881.5
12882.4
12883.3
12884.3
12885.2
12886.1
12887
12888
12888.9
12889.8
12890.8
12891.7
12892.6
12893.6
12894.5
12895.5
12896.4
12897.4
12898.3
12899.3
12900.2
12901.2
12902.1
12903.1
12904.1
12905
12906
12907
12907.9
12908.9
12909.9
12910.8
12911.8
12912.8
12913.8
12914.8
12915.7
12916.7
12917.7
12918.7
12919.7
12920.7
12921.7
12922.6
12923.6
12924.6
12925.6
12926.6
12927.6
12928.6
12929.6
12930.6
12931.6
12932.6
12933.6
12934.6
12935.7
12936.7
12937.7
12938.7
12939.7
12940.7
12941.7
12942.7
12943.7
12944.8
12945.8
12946.8
12947.8
12948.8
12949.9
12950.9
12951.9
12952.9
12953.9
12955
12956
12957
12958
12959.1
12960.1
12961.1
12962.2
12963.2
12964.2
12965.3
12966.3
12967.3
12968.4
12969.4
12970.4
12971.5
12972.5
12973.5
12974.6
12975.6
12976.6
12977.7
12978.7
12979.8
12980.8
12981.8
12982.9
12983.9
12985
12986
12987
12988.1
12989.1
12990.2
12991.2
12992.3
12993.3
12994.3
12995.4
12996.4
12997.5
12998.5
12999.6
13000.6
13001.7
13002.7
13003.8
13004.8
13005.9
13006.9
13007.9
13009
13010
13011.1
13012.1
13013.2
13014.2
13015.3
13016.3
13017.4
13018.4
13019.5
13020.6
13021.6
13022.7
13023.7
13024.8
13025.8
13026.9
13027.9
13029
13030
13031.1
13032.1
13033.2
13034.2
13035.3
13036.3
13037.4
13038.5
13039.5
13040.6
13041.6
13042.7
13043.7
13044.8
13045.8
13046.9
13048
13049
13050.1
13051.1
13052.2
13053.2
13054.3
13055.4
13056.4
13057.5
13058.5
13059.6
13060.6
13061.7
13062.8
13063.8
13064.9
13065.9
13067
13068
13069.1
13070.2
13071.2
13072.3
13073.3
13074.4
13075.5
13076.5
13077.6
13078.6
13079.7
13080.8
13081.8
13082.9
13083.9
13085
13086.1
13087.1
13088.2
13089.2
13090.3
13091.4
13092.4
13093.5
13094.5
13095.6
13096.7
13097.7
13098.8
13099.9
13100.9
13102
13103
13104.1
13105.2
13106.2
13107.3
13108.4
13109.4
13110.5
13111.5
13112.6
13113.7
13114.7
13115.8
13116.9
13117.9
13119
13120
13121.1
13122.2
13123.2
13124.3
13125.4
13126.4
13127.5
13128.6
13129.6
13130.7
13131.8
13132.8
13133.9
13135
13136
13137.1
13138.1
13139.2
13140.3
13141.3
13142.4
13143.5
13144.5
13145.6
13146.7
13147.7
13148.8
13149.9
13150.9
13152
13153.1
13154.1
13155.2
13156.3
13157.3
13158.4
13159.5
13160.5
13161.6
13162.7
13163.7
13164.8
13165.9
13166.9
13168
13169.1
13170.1
13171.2
13172.3
13173.4
13174.4
13175.5
13176.6
13177.6
13178.7
13179.8
13180.8
13181.9
13183
13184
13185.1
13186.2
13187.3
13188.3
13189.4
13190.5
13191.5
13192.6
13193.7
13194.7
13195.8
13196.9
13198
13199
13200.1
13201.2
13202.2
13203.3
13204.4
13205.5
13206.5
13207.6
13208.7
13209.7
13210.8
13211.9
13213
13214
13215.1
13216.2
13217.2
13218.3
13219.4
13220.5
13221.5
13222.6
13223.7
13224.8
13225.8
13226.9
13228
13229
13230.1
13231.2
13232.3
13233.3
13234.4
13235.5
13236.6
13237.6
13238.7
13239.8
13240.9
13241.9
13243
13244.1
13245.2
13246.2
13247.3
13248.4
13249.5
13250.5
13251.6
13252.7
13253.8
13254.8
13255.9
13257
13258.1
13259.1
13260.2
13261.3
13262.4
13263.4
13264.5
13265.6
13266.7
13267.8
13268.8
13269.9
13271
13272.1
13273.1
13274.2
13275.3
13276.4
13277.4
13278.5
13279.6
13280.7
13281.8
13282.8
13283.9
13285
13286.1
13287.2
13288.2
13289.3
13290.4
13291.5
13292.5
13293.6
13294.7
13295.8
13296.9
13297.9
13299
13300.1
13301.2
13302.3
13303.3
13304.4
13305.5
13306.6
13307.7
13308.7
13309.8
13310.9
13312
13313.1
13314.2
13315.2
13316.3
13317.4
13318.5
13319.6
13320.6
13321.7
13322.8
13323.9
13325
13326
13327.1
13328.2
13329.3
13330.4
13331.5
13332.5
13333.6
13334.7
13335.8
13336.9
13338
13339
13340.1
13341.2
13342.3
13343.4
13344.5
13345.5
13346.6
13347.7
13348.8
13349.9
13351
13352
13353.1
13354.2
13355.3
13356.4
13357.5
13358.6
13359.6
13360.7
13361.8
13362.9
13364
13365.1
13366.2
13367.2
13368.3
13369.4
13370.5
13371.6
13372.7
13373.8
13374.8
13375.9
13377
13378.1
13379.2
13380.3
13381.4
13382.5
13383.5
13384.6
13385.7
13386.8
13387.9
13389
13390.1
13391.2
13392.2
13393.3
13394.4
13395.5
13396.6
13397.7
13398.8
13399.9
13401
13402
13403.1
13404.2
13405.3
13406.4
13407.5
13408.6
13409.7
13410.8
13411.8
13412.9
13414
13415.1
13416.2
13417.3
13418.4
13419.5
13420.6
13421.7
13422.7
13423.8
13424.9
13426
13427.1
13428.2
13429.3
13430.4
13431.5
13432.6
13433.7
13434.8
13435.8
13436.9
13438
13439.1
13440.2
13441.3
13442.4
13443.5
13444.6
13445.7
13446.8
13447.9
13449
13450.1
13451.1
13452.2
13453.3
13454.4
13455.5
13456.6
13457.7
13458.8
13459.9
13461
13462.1
13463.2
13464.3
13465.4
13466.5
13467.6
13468.7
13469.7
13470.8
13471.9
13473
13474.1
13475.2
13476.3
13477.4
13478.5
13479.6
13480.7
13481.8
13482.9
13484
13485.1
13486.2
13487.3
13488.4
13489.5
13490.6
13491.7
13492.8
13493.9
13495
13496.1
13497.2
13498.3
13499.4
13500.5
13501.5
13502.6
13503.7
13504.8
13505.9
13507
13508.1
13509.2
13510.3
13511.4
13512.5
13513.6
13514.7
13515.8
13516.9
13518
13519.1
13520.2
13521.3
13522.4
13523.5
13524.6
13525.7
13526.8
13527.9
13529
13530.1
13531.2
13532.3
13533.4
13534.5
13535.6
13536.7
13537.8
13538.9
13540
13541.1
13542.2
13543.3
13544.4
13545.5
13546.6
13547.8
13548.9
13550
13551.1
13552.2
13553.3
13554.4
13555.5
13556.6
13557.7
13558.8
13559.9
13561
13562.1
13563.2
13564.3
13565.4
13566.5
13567.6
13568.7
13569.8
13570.9
13572
13573.1
13574.2
13575.3
13576.4
13577.5
13578.7
13579.8
13580.9
13582
13583.1
13584.2
13585.3
13586.4
13587.5
13588.6
13589.7
13590.8
13591.9
13593
13594.1
13595.2
13596.3
13597.4