/*--------------------------------*- C++ -*----------------------------------*\
  =========                 |
  \\      /  F ield         | OpenFOAM: The Open Source CFD Toolbox
   \\    /   O peration     | Website:  https://openfoam.org
    \\  /    A nd           | Version:  9
     \\/     M anipulation  |
\*---------------------------------------------------------------------------*/
FoamFile
{
    format      ascii;
    class       volVectorField;
    location    "0.017";
    object      U;
}
// * * * * * * * * * * * * * * * * * * * * * * * * * * * * * * * * * * * * * //

dimensions      [0 1 -1 0 0 0 0];

internalField   nonuniform List<vector> 
100
(
(22.7112 0 0)
(33.3976 0 0)
(40.587 0 0)
(47.738 0 0)
(55.0644 0 0)
(62.3739 0 0)
(69.6668 0 0)
(76.9405 0 0)
(84.1816 0 0)
(91.3753 0 0)
(98.5054 0 0)
(105.554 0 0)
(112.498 0 0)
(119.313 0 0)
(125.971 0 0)
(132.441 0 0)
(138.697 0 0)
(144.718 0 0)
(150.501 0 0)
(156.039 0 0)
(161.366 0 0)
(166.483 0 0)
(171.43 0 0)
(176.24 0 0)
(180.938 0 0)
(185.561 0 0)
(190.097 0 0)
(194.583 0 0)
(199.037 0 0)
(203.438 0 0)
(207.804 0 0)
(212.145 0 0)
(216.443 0 0)
(220.696 0 0)
(224.914 0 0)
(229.087 0 0)
(233.202 0 0)
(237.262 0 0)
(241.262 0 0)
(245.19 0 0)
(249.035 0 0)
(252.796 0 0)
(256.463 0 0)
(260.021 0 0)
(263.452 0 0)
(266.754 0 0)
(269.918 0 0)
(272.924 0 0)
(275.75 0 0)
(278.381 0 0)
(280.815 0 0)
(283.038 0 0)
(285.043 0 0)
(286.803 0 0)
(288.301 0 0)
(289.584 0 0)
(290.662 0 0)
(291.512 0 0)
(292.178 0 0)
(292.697 0 0)
(293.009 0 0)
(293.207 0 0)
(293.39 0 0)
(293.507 0 0)
(293.58 0 0)
(293.618 0 0)
(293.615 0 0)
(293.606 0 0)
(293.599 0 0)
(293.593 0 0)
(293.588 0 0)
(293.585 0 0)
(293.582 0 0)
(293.573 0 0)
(293.547 0 0)
(293.511 0 0)
(293.46 0 0)
(293.387 0 0)
(293.292 0 0)
(293.172 0 0)
(293.033 0 0)
(292.891 0 0)
(292.732 0 0)
(292.513 0 0)
(292.261 0 0)
(292.055 0 0)
(291.929 0 0)
(291.872 0 0)
(291.858 0 0)
(291.819 0 0)
(291.743 0 0)
(291.648 0 0)
(291.547 0 0)
(291.484 0 0)
(291.49 0 0)
(291.593 0 0)
(291.817 0 0)
(291.804 0 0)
(291.472 0 0)
(291.277 0 0)
)
;

boundaryField
{
    sides
    {
        type            zeroGradient;
    }
    empty
    {
        type            empty;
    }
}


// ************************************************************************* //
