/*--------------------------------*- C++ -*----------------------------------*\
  =========                 |
  \\      /  F ield         | OpenFOAM: The Open Source CFD Toolbox
   \\    /   O peration     | Website:  https://openfoam.org
    \\  /    A nd           | Version:  9
     \\/     M anipulation  |
\*---------------------------------------------------------------------------*/
FoamFile
{
    format      ascii;
    class       volScalarField;
    location    "0.007";
    object      ddt0(rho,e);
}
// * * * * * * * * * * * * * * * * * * * * * * * * * * * * * * * * * * * * * //

dimensions      [1 -1 -3 0 0 0 0];

internalField   nonuniform List<scalar> 
100
(
-0.00241228
-0.0111637
-0.0413476
-0.150089
-0.529323
-1.81286
-6.02322
-19.3896
-60.4004
-181.797
-527.852
-1475.69
-3963.83
-10203.9
-25097
-58750.1
-130240
-271602
-528690
-948723
-1.46333e+06
-1.95472e+06
-2.39616e+06
-2.6853e+06
-2.7795e+06
-2.6907e+06
-2.4689e+06
-2.17137e+06
-1.84343e+06
-1.51432e+06
-1.20031e+06
-911067
-647327
-424169
-194175
-112091
248096
-32521.9
474763
578611
-307674
998744
891311
-624883
156709
1.60266e+06
639998
-1.07501e+06
-747417
1.15999e+06
1.51306e+06
-132194
-1.31102e+06
-1.40073e+06
110193
1.27773e+06
174956
-279586
-883904
-1.11063e+06
-428013
-106619
134026
23378.5
-32665.9
-656634
-2.85442e+06
-1.04189e+07
-3.26598e+07
-3.62826e+07
-2.35186e+07
-1.45196e+07
-8.09004e+06
-4.57827e+06
-2.48252e+06
-1.71829e+06
567288
241216
182219
1.76711e+06
197550
-747248
2.07489e+06
16824
-586202
-1.19086e+06
1.68208e+06
8.16913e+06
7.20614e+06
2.91519e+07
1.90556e+06
-320447
-70904.3
-10280.2
-1429.26
-196.302
-27.0001
-3.70385
-0.509668
-0.060868
)
;

boundaryField
{
    sides
    {
        type            calculated;
        value           nonuniform List<scalar> 2(-0.060868 -0.00241228);
    }
    empty
    {
        type            empty;
    }
}


// ************************************************************************* //
