/*--------------------------------*- C++ -*----------------------------------*\
  =========                 |
  \\      /  F ield         | OpenFOAM: The Open Source CFD Toolbox
   \\    /   O peration     | Website:  https://openfoam.org
    \\  /    A nd           | Version:  9
     \\/     M anipulation  |
\*---------------------------------------------------------------------------*/
FoamFile
{
    format      ascii;
    class       volScalarField;
    location    "0.007";
    object      ddt0(rho);
}
// * * * * * * * * * * * * * * * * * * * * * * * * * * * * * * * * * * * * * //

dimensions      [1 -3 -1 0 0 0 0];

internalField   nonuniform List<scalar> 
100
(
-4.77049e-08
-2.20846e-07
-8.18187e-07
-2.97012e-06
-1.04748e-05
-3.58751e-05
-0.000119195
-0.000383705
-0.00119527
-0.0035976
-0.0104458
-0.0292031
-0.078445
-0.201958
-0.496859
-1.16388
-2.5841
-5.40716
-10.5951
-19.2408
-30.2739
-41.6527
-53.1747
-62.8576
-69.5391
-72.9445
-73.5639
-72.1966
-69.58
-66.2425
-62.5174
-58.6004
-54.6155
-50.6084
-46.7473
-42.6299
-39.5414
-34.6319
-32.5036
-29.163
-23.0428
-24.1213
-20.762
-13.1098
-13.246
-15.7629
-10.4116
-2.84229
-2.03207
-7.55875
-7.32927
-0.422705
3.30244
5.89119
-1.33711
-3.40749
0.250737
0.923189
4.338
3.24909
1.20195
0.86035
-0.25593
0.163038
-0.378076
2.19716
9.41708
33.7609
113.936
118.083
75.1306
48.6625
33.274
16.5387
6.04007
-4.56421
8.67362
0.909885
-5.22745
3.76861
-3.89442
-9.77744
21.5998
1.78689
-3.65073
-10.4943
19.8273
62.5166
83.1193
452.192
124.239
26.7167
3.8404
0.530886
0.0733486
0.0100655
0.00138429
0.000189892
2.61301e-05
3.12036e-06
)
;

boundaryField
{
    sides
    {
        type            calculated;
        value           nonuniform List<scalar> 2(3.12036e-06 -4.77049e-08);
    }
    empty
    {
        type            empty;
    }
}


// ************************************************************************* //
