/*--------------------------------*- C++ -*----------------------------------*\
  =========                 |
  \\      /  F ield         | OpenFOAM: The Open Source CFD Toolbox
   \\    /   O peration     | Website:  https://openfoam.org
    \\  /    A nd           | Version:  9
     \\/     M anipulation  |
\*---------------------------------------------------------------------------*/
FoamFile
{
    format      ascii;
    class       volScalarField;
    location    "0.007";
    object      p;
}
// * * * * * * * * * * * * * * * * * * * * * * * * * * * * * * * * * * * * * //

dimensions      [1 -1 -2 0 0 0 0];

internalField   nonuniform List<scalar> 
100
(
100000
100000
100000
100000
100000
100000
100000
100000
100000
99999.9
99999.7
99999
99997.3
99992.8
99981.2
99953.3
99889.3
99750.5
99467.7
98931.1
98015.2
96675.1
94878.6
92646.6
90057.9
87221
84242.7
81207.9
78175.8
75183.4
72253.7
69400.1
66632.1
63953
61370.6
58877.3
56494.4
54186
52009.9
49898.2
47908.2
46015.2
44211.8
42515.8
40926.2
39440.6
38062.2
36791.3
35622.3
34589.8
33671.1
32859.8
32178.5
31596.8
31129
30826.5
30546.7
30398
30285
30223.8
30219.3
30207.6
30206.7
30207.3
30208.7
30216.8
30219.8
30224.7
30253.6
30201.2
30218.2
30243
30226.4
30189.5
30174.4
30213.1
30233.1
30146
30129.1
30128.9
30040.9
30078.1
30021.2
29832.1
29769
29724.5
29626.4
28913.7
26965.1
20373.4
11900
10313.1
10044
10006.1
10000.8
10000.1
10000
10000
10000
10000
)
;

boundaryField
{
    sides
    {
        type            zeroGradient;
    }
    empty
    {
        type            empty;
    }
}


// ************************************************************************* //
