/*--------------------------------*- C++ -*----------------------------------*\
  =========                 |
  \\      /  F ield         | OpenFOAM: The Open Source CFD Toolbox
   \\    /   O peration     | Website:  https://openfoam.org
    \\  /    A nd           | Version:  9
     \\/     M anipulation  |
\*---------------------------------------------------------------------------*/
FoamFile
{
    format      ascii;
    class       surfaceScalarField;
    location    "0.007";
    object      phi;
}
// * * * * * * * * * * * * * * * * * * * * * * * * * * * * * * * * * * * * * //

dimensions      [1 0 -1 0 0 0 0];

internalField   nonuniform List<scalar> 
99
(
3.23507e-08
1.26382e-07
4.74048e-07
1.73372e-06
6.16788e-06
2.13253e-05
7.15877e-05
0.00023307
0.000735092
0.00224301
0.00661213
0.0188006
0.0514683
0.135379
0.341321
0.822517
1.88803
4.11113
8.45385
16.3095
28.5763
45.4013
66.8109
92.0477
119.903
149.073
178.456
207.273
235.033
261.454
286.386
309.754
331.532
351.711
370.352
387.348
403.118
416.925
429.882
441.523
450.703
460.311
468.615
473.848
479.096
485.38
489.577
490.73
491.494
494.471
497.425
497.641
496.342
493.979
494.421
495.817
495.726
495.389
493.68
492.354
491.912
491.516
491.606
491.553
491.643
490.892
487.279
473.964
429.973
381.715
351.39
331.87
318.231
311.428
308.396
310.468
308.029
306.759
308.726
308.062
308.247
313.089
304.791
303.394
304.415
307.781
305.469
279.724
244.297
66.6755
13.8252
1.98949
0.275268
0.0379891
0.0052146
0.000717008
9.83816e-05
1.35186e-05
1.84072e-06
)
;

boundaryField
{
    sides
    {
        type            calculated;
        value           nonuniform List<scalar> 2(4.46236e-07 -1.20101e-08);
    }
    empty
    {
        type            empty;
        value           nonuniform List<scalar> 0();
    }
}


// ************************************************************************* //
