/*--------------------------------*- C++ -*----------------------------------*\
  =========                 |
  \\      /  F ield         | OpenFOAM: The Open Source CFD Toolbox
   \\    /   O peration     | Website:  https://openfoam.org
    \\  /    A nd           | Version:  9
     \\/     M anipulation  |
\*---------------------------------------------------------------------------*/
FoamFile
{
    format      ascii;
    class       volVectorField;
    location    "0.007";
    object      U_0;
}
// * * * * * * * * * * * * * * * * * * * * * * * * * * * * * * * * * * * * * //

dimensions      [0 1 -1 0 0 0 0];

internalField   nonuniform List<vector> 
100
(
(2.91923e-09 0 0)
(1.36161e-08 0 0)
(5.15818e-08 0 0)
(1.92587e-07 0 0)
(6.99451e-07 0 0)
(2.47046e-06 0 0)
(8.47624e-06 0 0)
(2.82254e-05 0 0)
(9.11078e-05 0 0)
(0.000284746 0 0)
(0.000860436 0 0)
(0.00251024 0 0)
(0.00705804 0 0)
(0.0190901 0 0)
(0.0495562 0 0)
(0.123147 0 0)
(0.292012 0 0)
(0.658238 0 0)
(1.40438 0 0)
(2.81478 0 0)
(5.1951 0 0)
(8.75384 0 0)
(13.6124 0 0)
(19.7874 0 0)
(27.1451 0 0)
(35.4553 0 0)
(44.4649 0 0)
(53.9553 0 0)
(63.7648 0 0)
(73.783 0 0)
(83.9385 0 0)
(94.1801 0 0)
(104.476 0 0)
(114.79 0 0)
(125.118 0 0)
(135.396 0 0)
(145.686 0 0)
(155.839 0 0)
(165.984 0 0)
(175.992 0 0)
(185.825 0 0)
(195.6 0 0)
(205.118 0 0)
(214.4 0 0)
(223.476 0 0)
(232.216 0 0)
(240.567 0 0)
(248.546 0 0)
(256.01 0 0)
(262.876 0 0)
(269.177 0 0)
(274.803 0 0)
(279.797 0 0)
(283.883 0 0)
(287.031 0 0)
(289.666 0 0)
(291.608 0 0)
(292.933 0 0)
(293.699 0 0)
(293.938 0 0)
(294.023 0 0)
(294.043 0 0)
(294.078 0 0)
(294.193 0 0)
(294.357 0 0)
(294.531 0 0)
(294.682 0 0)
(294.877 0 0)
(294.919 0 0)
(294.533 0 0)
(293.919 0 0)
(293.323 0 0)
(292.777 0 0)
(292.309 0 0)
(291.955 0 0)
(291.699 0 0)
(291.344 0 0)
(290.841 0 0)
(290.384 0 0)
(289.874 0 0)
(289.255 0 0)
(288.629 0 0)
(287.704 0 0)
(286.486 0 0)
(285.246 0 0)
(283.661 0 0)
(280.433 0 0)
(272.228 0 0)
(246.952 0 0)
(167.546 0 0)
(48.1157 0 0)
(7.198 0 0)
(1.01668 0 0)
(0.140921 0 0)
(0.0193387 0 0)
(0.00266087 0 0)
(0.000364969 0 0)
(5.01517e-05 0 0)
(6.89931e-06 0 0)
(8.50183e-07 0 0)
)
;

boundaryField
{
    sides
    {
        type            zeroGradient;
    }
    empty
    {
        type            empty;
    }
}


// ************************************************************************* //
