/*--------------------------------*- C++ -*----------------------------------*\
  =========                 |
  \\      /  F ield         | OpenFOAM: The Open Source CFD Toolbox
   \\    /   O peration     | Website:  https://openfoam.org
    \\  /    A nd           | Version:  9
     \\/     M anipulation  |
\*---------------------------------------------------------------------------*/
FoamFile
{
    format      ascii;
    class       volScalarField;
    location    "0.006";
    object      mag(U);
}
// * * * * * * * * * * * * * * * * * * * * * * * * * * * * * * * * * * * * * //

dimensions      [0 1 -1 0 0 0 0];

internalField   nonuniform List<scalar> 
1000
(
6.42862e-12
6.00632e-12
7.63499e-12
7.42858e-12
6.49062e-12
7.12298e-12
6.40528e-12
8.58244e-12
7.14267e-12
9.91353e-12
6.84363e-12
7.6277e-12
5.71312e-12
6.78528e-12
4.43308e-12
5.66644e-12
5.95016e-12
7.1135e-12
6.26379e-12
6.76121e-12
5.80866e-12
6.36444e-12
7.99311e-12
6.49645e-12
6.32214e-12
6.72402e-12
6.85749e-12
6.61315e-12
6.75903e-12
6.18939e-12
7.6948e-12
5.75396e-12
7.82244e-12
6.28494e-12
7.16893e-12
5.42356e-12
5.6358e-12
5.47534e-12
6.15074e-12
4.80141e-12
6.53876e-12
4.79849e-12
5.27331e-12
5.61319e-12
5.93484e-12
4.7168e-12
5.30686e-12
4.73285e-12
3.88022e-12
4.63584e-12
5.7773e-12
4.26241e-12
4.68398e-12
5.49139e-12
5.4097e-12
4.50383e-12
4.16613e-12
4.88018e-12
3.53086e-12
6.21492e-12
2.45577e-12
3.10928e-12
2.32011e-12
2.99623e-12
7.01649e-13
1.31359e-12
8.47522e-13
3.15523e-12
2.17351e-12
1.48134e-12
1.33838e-12
1.28076e-12
4.41266e-13
4.07715e-13
9.90478e-13
1.26472e-12
1.40476e-12
4.27408e-13
5.3973e-13
1.75412e-12
1.90291e-12
3.2712e-12
1.67754e-12
1.92844e-12
1.06633e-12
7.71668e-13
2.08307e-12
2.09401e-12
2.65926e-12
5.27914e-12
3.54982e-12
5.64018e-12
4.62563e-12
5.18943e-12
2.57685e-12
5.27769e-12
4.4411e-12
6.5869e-12
6.20908e-12
7.66271e-12
7.3148e-12
6.47968e-12
5.65477e-12
4.07569e-12
4.9327e-12
4.94364e-12
5.89035e-12
6.65473e-12
6.40601e-12
5.76855e-12
7.06828e-12
6.32505e-12
7.0938e-12
7.16164e-12
6.65254e-12
6.15292e-12
6.51688e-12
6.39872e-12
7.60655e-12
7.95227e-12
7.83703e-12
6.75392e-12
6.4578e-12
5.32728e-12
5.28133e-12
6.54824e-12
6.61461e-12
5.84878e-12
4.96625e-12
5.41772e-12
4.975e-12
4.59427e-12
4.1975e-12
2.89193e-12
3.88897e-12
3.3456e-12
2.98237e-12
3.68256e-12
1.458e-12
2.39669e-12
2.8861e-12
3.00936e-12
3.0327e-12
4.1975e-12
4.28356e-12
3.20994e-12
2.75992e-12
4.02318e-12
4.7241e-12
5.67008e-12
5.30613e-12
5.48045e-12
6.12448e-12
6.32141e-12
5.7598e-12
6.76486e-12
6.59492e-12
7.31407e-12
5.66644e-12
5.15807e-12
3.88824e-12
3.39374e-12
2.86786e-12
2.77086e-12
2.65489e-12
3.22525e-12
3.54763e-12
3.87147e-12
5.04939e-12
4.09466e-12
3.82625e-12
2.36533e-12
2.25374e-12
1.39017e-12
1.69796e-12
9.90478e-13
1.52948e-12
2.26395e-12
2.86568e-12
1.97293e-12
1.79205e-12
2.25884e-12
3.27339e-12
2.47109e-12
3.51919e-12
3.18441e-12
1.93792e-12
3.42802e-13
7.65833e-13
9.59844e-13
3.42729e-12
2.4638e-12
4.65043e-12
3.95097e-12
4.22375e-12
4.06986e-12
5.05961e-12
5.16099e-12
4.80652e-12
3.85032e-12
3.61109e-12
2.39305e-12
3.6884e-12
2.8985e-12
6.24336e-13
1.18814e-12
4.95968e-14
1.80007e-12
1.49009e-12
4.46007e-12
3.87876e-12
5.03554e-12
5.37688e-12
5.03262e-12
3.81166e-12
4.99396e-12
3.43312e-12
5.43085e-12
3.70809e-12
9.73338e-12
1.76171e-11
3.6116e-11
6.79447e-11
1.37552e-10
2.76213e-10
5.59126e-10
1.1226e-09
2.23797e-09
4.42487e-09
8.68795e-09
1.69368e-08
3.27779e-08
6.29729e-08
1.20085e-07
2.27282e-07
4.26903e-07
7.95687e-07
1.47147e-06
2.69962e-06
4.91294e-06
8.86774e-06
1.58729e-05
2.81712e-05
4.95675e-05
8.64491e-05
0.000149425
0.000255921
0.000434237
0.000729795
0.0012146
0.00200138
0.00326423
0.00526839
0.00841203
0.0132838
0.0207396
0.0320033
0.0487913
0.0734644
0.109199
0.160169
0.231715
0.330475
0.464424
0.642774
0.875668
1.17358
1.5463
2.00132
2.5412
3.16191
3.85559
4.61475
5.43346
6.30657
7.22908
8.1961
9.20292
10.2451
11.3184
12.4193
13.5443
14.6906
15.8557
17.0374
18.2337
19.443
20.664
21.8953
23.1359
24.385
25.6416
26.9052
28.175
29.4506
30.7315
32.0172
33.3073
34.6016
35.8997
37.2014
38.5064
39.8144
41.1253
42.4389
43.755
45.0735
46.3942
47.7169
49.0417
50.3683
51.6967
53.0267
54.3583
55.6914
57.0259
58.3618
59.699
61.0373
62.3769
63.7175
65.0592
66.4019
67.7455
69.0901
70.4355
71.7818
73.1289
74.4768
75.8254
77.1747
78.5247
79.8754
81.2267
82.5785
83.931
85.284
86.6375
87.9916
89.3461
90.7012
92.0566
93.4125
94.7689
96.1256
97.4828
98.8403
100.198
101.556
102.915
104.274
105.633
106.992
108.352
109.712
111.072
112.433
113.794
115.155
116.516
117.878
119.239
120.601
121.963
123.325
124.688
126.05
127.413
128.776
130.139
131.502
132.865
134.228
135.591
136.955
138.318
139.682
141.046
142.409
143.773
145.137
146.501
147.864
149.228
150.592
151.956
153.319
154.683
156.046
157.41
158.773
160.137
161.5
162.863
164.227
165.59
166.953
168.316
169.679
171.041
172.404
173.766
175.128
176.491
177.852
179.215
180.576
181.936
183.298
184.658
186.019
187.38
188.738
190.098
191.458
192.815
194.174
195.532
196.888
198.245
199.602
200.957
202.312
203.667
205.02
206.373
207.727
209.078
210.428
211.779
213.128
214.475
215.822
217.169
218.513
219.857
221.2
222.541
223.88
225.219
226.555
227.89
229.223
230.556
231.885
233.212
234.539
235.861
237.183
238.499
239.816
241.128
242.439
243.744
245.048
246.346
247.643
248.932
250.221
251.501
252.781
254.05
255.319
256.576
257.832
259.077
260.317
261.547
262.771
263.985
265.189
266.384
267.564
268.738
269.892
271.039
272.166
273.282
274.377
275.457
276.515
277.555
278.572
279.57
280.54
281.486
282.401
283.288
284.141
284.964
285.75
286.505
287.222
287.907
288.552
289.161
289.728
290.256
290.74
291.186
291.588
291.956
292.281
292.578
292.839
293.075
293.28
293.463
293.622
293.765
293.884
293.993
294.08
294.159
294.218
294.257
294.28
294.291
294.291
294.284
294.261
294.209
294.103
293.952
293.786
293.62
293.481
293.371
293.293
293.244
293.237
293.239
293.243
293.252
293.267
293.293
293.329
293.367
293.402
293.434
293.457
293.474
293.479
293.478
293.476
293.475
293.473
293.472
293.471
293.47
293.47
293.471
293.471
293.472
293.472
293.472
293.471
293.471
293.471
293.47
293.469
293.468
293.467
293.467
293.466
293.467
293.467
293.468
293.468
293.468
293.468
293.468
293.467
293.466
293.464
293.463
293.463
293.464
293.465
293.465
293.466
293.467
293.468
293.468
293.47
293.473
293.473
293.472
293.474
293.478
293.478
293.476
293.475
293.479
293.486
293.487
293.485
293.487
293.494
293.497
293.492
293.487
293.488
293.499
293.51
293.507
293.497
293.497
293.51
293.521
293.512
293.498
293.496
293.512
293.53
293.526
293.512
293.512
293.526
293.535
293.529
293.522
293.529
293.541
293.542
293.539
293.541
293.547
293.548
293.547
293.551
293.557
293.557
293.557
293.563
293.567
293.565
293.568
293.576
293.575
293.569
293.577
293.588
293.581
293.568
293.58
293.603
293.593
293.568
293.587
293.637
293.62
293.552
293.558
293.637
293.651
293.574
293.537
293.616
293.71
293.644
293.519
293.562
293.697
293.669
293.517
293.482
293.6
293.718
293.683
293.647
293.838
294.026
293.942
293.637
293.369
293.404
293.541
293.494
293.38
293.395
293.489
293.571
293.595
293.554
293.514
293.544
293.581
293.575
293.57
293.59
293.603
293.594
293.597
293.611
293.589
293.55
293.562
293.586
293.536
293.492
293.558
293.603
293.511
293.457
293.556
293.616
293.518
293.454
293.546
293.618
293.536
293.471
293.566
293.64
293.537
293.463
293.588
293.677
293.557
293.467
293.588
293.712
293.643
293.513
293.502
293.562
293.585
293.54
293.496
293.507
293.531
293.522
293.505
293.526
293.559
293.555
293.543
293.565
293.592
293.567
293.527
293.542
293.568
293.529
293.475
293.486
293.515
293.487
293.441
293.471
293.525
293.498
293.448
293.48
293.546
293.535
293.471
293.439
293.453
293.466
293.444
293.405
293.384
293.381
293.385
293.386
293.382
293.375
293.358
293.326
293.285
293.274
293.276
293.278
293.282
293.272
293.235
293.172
293.079
293.036
293.036
293.057
293.077
293.075
293.069
293.054
292.988
292.847
292.706
292.685
292.686
292.692
292.717
292.701
292.604
292.454
292.271
292.16
292.134
292.163
292.212
292.181
292.074
291.969
291.857
291.683
291.469
291.252
290.961
290.594
290.529
290.585
290.672
290.611
290.457
290.345
290.162
289.783
289.321
288.898
288.402
287.739
287.195
286.962
286.775
286.512
286.223
285.79
284.618
281.78
275.627
261.22
214.685
101.843
19.4968
3.08383
0.454709
0.0666807
0.00976464
0.00142871
0.000208919
3.05466e-05
4.46561e-06
6.52949e-07
9.54786e-08
1.39616e-08
2.03959e-09
2.95985e-10
4.07657e-11
3.67819e-12
2.95466e-12
2.90798e-12
3.82771e-12
2.75919e-12
4.42725e-13
1.53896e-13
1.10645e-12
1.07144e-12
1.67754e-12
1.33547e-12
2.80514e-12
6.40383e-13
5.7474e-13
1.47697e-12
2.92913e-12
4.18583e-12
6.20107e-12
3.24714e-12
2.92986e-12
1.61409e-12
1.86207e-12
5.95163e-13
1.85259e-12
7.95009e-14
6.31631e-13
1.45144e-12
2.84161e-12
3.98234e-13
7.58541e-14
7.35201e-13
1.13927e-12
6.37466e-13
1.15969e-13
1.85915e-12
7.53435e-13
3.33904e-12
3.16107e-12
5.73646e-12
6.3236e-12
8.60798e-12
6.05228e-12
5.9261e-12
4.80725e-12
5.95527e-12
4.91155e-12
5.00637e-12
4.64241e-12
2.218e-12
1.27931e-12
6.17773e-13
7.4833e-13
1.72276e-12
2.65125e-12
1.7213e-12
5.1909e-12
2.0838e-12
3.09835e-12
8.84721e-13
1.3785e-12
1.73297e-12
3.46814e-12
1.43102e-12
5.77658e-13
1.87082e-12
5.1413e-12
3.61984e-12
3.00718e-12
3.57098e-12
4.62345e-12
5.46514e-12
3.48126e-12
2.78691e-12
2.94153e-12
3.5046e-12
3.00645e-12
2.75409e-12
2.47401e-12
1.09259e-12
7.95009e-13
1.39309e-13
8.48253e-13
1.20856e-12
6.30172e-13
2.56518e-12
3.66142e-13
2.59654e-13
9.59116e-13
3.72779e-12
3.83501e-12
1.65931e-12
2.28437e-12
9.42341e-13
8.18349e-13
8.67946e-14
1.53313e-12
1.47988e-12
5.10556e-13
6.54241e-13
2.9408e-12
1.52729e-12
7.0238e-13
1.05466e-12
1.77747e-12
3.2486e-12
4.57021e-12
3.97869e-12
5.638e-12
5.8889e-12
7.27324e-12
7.09527e-12
8.15358e-12
5.32437e-12
6.11209e-12
5.21132e-12
6.5023e-12
7.09381e-12
7.4585e-12
7.63646e-12
7.98875e-12
7.79911e-12
6.45708e-12
5.797e-12
6.7532e-12
8.46065e-12
5.4294e-12
5.43815e-12
6.90637e-12
6.15658e-12
5.54756e-12
5.23247e-12
3.73071e-12
4.36599e-12
3.72706e-12
3.45647e-12
2.00576e-12
4.71681e-12
3.50315e-12
4.57021e-12
3.48564e-12
6.22222e-12
3.50169e-12
5.04065e-12
3.65412e-12
4.73723e-12
5.40898e-12
4.62637e-12
3.89773e-12
5.12817e-12
5.81256e-12
)
;

boundaryField
{
    sides
    {
        type            calculated;
        value           nonuniform List<scalar> 2(5.81256e-12 6.42862e-12);
    }
    empty
    {
        type            empty;
    }
}


// ************************************************************************* //
