/*--------------------------------*- C++ -*----------------------------------*\
  =========                 |
  \\      /  F ield         | OpenFOAM: The Open Source CFD Toolbox
   \\    /   O peration     | Website:  https://openfoam.org
    \\  /    A nd           | Version:  9
     \\/     M anipulation  |
\*---------------------------------------------------------------------------*/
FoamFile
{
    format      ascii;
    class       volScalarField;
    location    "0.006";
    object      p;
}
// * * * * * * * * * * * * * * * * * * * * * * * * * * * * * * * * * * * * * //

dimensions      [1 -1 -2 0 0 0 0];

internalField   nonuniform List<scalar> 
1000
(
100000
100000
100000
100000
100000
100000
100000
100000
100000
100000
100000
100000
100000
100000
100000
100000
100000
100000
100000
100000
100000
100000
100000
100000
100000
100000
100000
100000
100000
100000
100000
100000
100000
100000
100000
100000
100000
100000
100000
100000
100000
100000
100000
100000
100000
100000
100000
100000
100000
100000
100000
100000
100000
100000
100000
100000
100000
100000
100000
100000
100000
100000
100000
100000
100000
100000
100000
100000
100000
100000
100000
100000
100000
100000
100000
100000
100000
100000
100000
100000
100000
100000
100000
100000
100000
100000
100000
100000
100000
100000
100000
100000
100000
100000
100000
100000
100000
100000
100000
100000
100000
100000
100000
100000
100000
100000
100000
100000
100000
100000
100000
100000
100000
100000
100000
100000
100000
100000
100000
100000
100000
100000
100000
100000
100000
100000
100000
100000
100000
100000
100000
100000
100000
100000
100000
100000
100000
100000
100000
100000
100000
100000
100000
100000
100000
100000
100000
100000
100000
100000
100000
100000
100000
100000
100000
100000
100000
100000
100000
100000
100000
100000
100000
100000
100000
100000
100000
100000
100000
100000
100000
100000
100000
100000
100000
100000
100000
100000
100000
100000
100000
100000
100000
100000
100000
100000
100000
100000
100000
100000
100000
100000
100000
100000
100000
100000
100000
100000
100000
100000
100000
100000
100000
100000
100000
100000
100000
100000
100000
100000
100000
100000
100000
100000
100000
100000
100000
100000
100000
100000
100000
100000
100000
100000
100000
100000
100000
100000
100000
100000
100000
100000
100000
100000
100000
100000
100000
100000
100000
100000
100000
100000
100000
100000
100000
99999.9
99999.9
99999.8
99999.7
99999.6
99999.3
99998.8
99998.1
99996.9
99995.1
99992.3
99988.1
99981.9
99972.8
99959.5
99940.5
99913.9
99877.2
99827.4
99760.9
99674.2
99563.2
99424.3
99254.5
99053
98821.5
98563.5
98282.1
97979.5
97657.8
97318.9
96964.9
96597.5
96218.6
95829.7
95432.3
95027.7
94617
94201.1
93781.1
93357.4
92930.9
92502
92071.2
91639
91205.5
90771.3
90336.4
89901.2
89465.9
89030.6
88595.5
88160.8
87726.5
87292.8
86859.7
86427.5
85996
85565.5
85136
84707.5
84280.1
83853.8
83428.8
83004.9
82582.3
82161
81741.1
81322.5
80905.2
80489.4
80075
79662
79250.5
78840.5
78431.9
78024.9
77619.3
77215.3
76812.8
76411.9
76012.5
75614.7
75218.4
74823.7
74430.6
74039
73649
73260.6
72873.8
72488.6
72105
71723
71342.5
70963.7
70586.5
70210.8
69836.8
69464.3
69093.4
68724.2
68356.5
67990.4
67625.9
67263
66901.7
66542
66183.8
65827.2
65472.3
65118.8
64767
64416.7
64068
63720.8
63375.3
63031.2
62688.8
62347.8
62008.5
61670.6
61334.3
60999.6
60666.4
60334.7
60004.5
59675.9
59348.8
59023.2
58699.1
58376.5
58055.4
57735.8
57417.8
57101.2
56786.1
56472.5
56160.4
55849.8
55540.6
55233
54926.8
54622
54318.7
54016.9
53716.5
53417.6
53120.2
52824.1
52529.6
52236.3
51944.7
51654.1
51365.4
51077.6
50791.8
50506.9
50223.9
49941.9
49661.3
49382.3
49104.3
48828.2
48553.3
48279.6
48007.6
47736.7
47467.3
47199.4
46932.6
46667.3
46403.5
46140.8
45879.7
45619.9
45361.4
45104.3
44848.6
44594.2
44341.2
44089.6
43839.3
43590.3
43342.8
43096.6
42851.7
42608.3
42366.2
42125.5
41886.2
41648.2
41411.6
41176.4
40942.6
40710.2
40479.2
40249.6
40021.4
39794.6
39569.3
39345.4
39122.9
38901.9
38682.5
38464.5
38248
38033
37819.5
37607.7
37397.4
37188.7
36981.6
36776.2
36572.5
36370.5
36170.3
35971.8
35775.2
35580.5
35387.7
35196.8
35008
34821.3
34636.8
34454.4
34274.3
34096.7
33921.5
33748.9
33579
33411.9
33247.6
33086.4
32928.4
32773.6
32622.3
32474.6
32330.3
32189.9
32053.4
31921.3
31793.9
31671.2
31553.3
31440.6
31332.9
31230.1
31132.5
31040
30953
30871.4
30795.3
30725.3
30660.9
30602.5
30549.5
30501.7
30459.2
30421
30387.2
30357.1
30330.7
30307.9
30287.3
30270.1
30254.6
30242
30231.1
30221.4
30215.7
30209.8
30208.1
30208.1
30208.6
30209.9
30212.8
30218.6
30230.1
30252
30275
30295.8
30313.2
30326.9
30336.4
30341.5
30342.4
30342.3
30341.9
30341.2
30339.7
30336.9
30332.5
30327.2
30322.7
30318.6
30316.1
30313.9
30313.3
30313.4
30313.4
30313.4
30313.3
30313.3
30313.3
30313.2
30313.3
30313.2
30313.5
30313.8
30313.8
30313.8
30313.8
30313.8
30313.8
30313.7
30313.6
30313.6
30313.7
30313.5
30313.4
30313.5
30313.7
30313.8
30313.7
30313.5
30313.5
30313.5
30313.3
30313.4
30313.4
30313
30312.9
30313
30313
30312.4
30312.6
30313.1
30312.4
30311.8
30312.6
30313.2
30311.9
30311.1
30311.7
30313
30311.7
30309.6
30308.8
30310.6
30313.1
30311.6
30309.1
30308.9
30312.3
30312.4
30307.6
30305.4
30304.5
30310.7
30314.3
30309
30304.1
30303.2
30311
30314.3
30305.5
30299.5
30297.7
30307.5
30314.1
30307.8
30300.5
30300
30308.9
30310.7
30303.6
30300.7
30304.4
30309
30307.3
30304.3
30304.9
30307.3
30305.7
30303.5
30305.4
30307.1
30304.9
30303.9
30306.5
30306.7
30303.1
30303.8
30309
30305.9
30299.1
30302.2
30311.2
30305.4
30295
30301.1
30314.5
30302.2
30288.7
30302.8
30322.8
30299.6
30277.5
30285.5
30328.8
30325.3
30265.3
30256
30330.8
30350.8
30272.3
30243.2
30290.3
30351.1
30314.1
30230
30230.1
30353.9
30364.9
30258.5
30238.7
30282
30307.8
30342.7
30273.8
30222.7
30287
30344.7
30306.5
30270.1
30280.9
30308.9
30319.1
30323
30295.7
30285.1
30300.6
30307.6
30298.9
30295.6
30301.8
30302.4
30294.3
30296.8
30306.6
30299.3
30288.3
30301.6
30314.5
30290.9
30275.3
30311
30325.4
30278.4
30265
30315.7
30329.3
30280.1
30265.7
30311.4
30328.2
30283.7
30264.5
30314.2
30335.5
30280.4
30259.1
30321.7
30343.7
30278.7
30255.1
30314.8
30345.2
30308.1
30274.8
30279.4
30310.5
30315.1
30299.7
30291.7
30302
30310
30303.3
30295.2
30303.4
30310.9
30302.2
30295
30304.2
30314.1
30301.5
30290.9
30304.6
30316.8
30302.3
30289.3
30304.4
30317.4
30304.2
30287.6
30305.8
30322.9
30305.8
30287.3
30304.6
30325.3
30315
30294.3
30291.6
30307.1
30312.9
30309.5
30302.3
30301.4
30304.5
30305.6
30305.3
30303.6
30303.9
30303.8
30302.1
30302.7
30303.8
30301.5
30298.9
30299.6
30298.1
30294.4
30295.1
30296.5
30293.4
30289.4
30290.9
30291.1
30282
30281
30285
30279.8
30273.5
30277.9
30283.4
30271.3
30263.1
30269.5
30269.9
30252.6
30251
30262.6
30258.8
30238.5
30237
30243.8
30228.9
30208.4
30210
30218.9
30205.2
30193.6
30193.9
30201.2
30186.2
30155.9
30144.2
30149.4
30092.9
30062.7
30064.5
30077.5
30036.2
30013.3
30016.6
30022.3
29980.3
29958
29959.5
29941.1
29855.8
29820.6
29791.8
29749.7
29510.6
28957.8
27928.1
25225.1
14414.7
10775.7
10116.5
10017.2
10002.5
10000.4
10000.1
10000
10000
10000
10000
10000
10000
10000
10000
10000
10000
10000
10000
10000
10000
10000
10000
10000
10000
10000
10000
10000
10000
10000
10000
10000
10000
10000
10000
10000
10000
10000
10000
10000
10000
10000
10000
10000
10000
10000
10000
10000
10000
10000
10000
10000
10000
10000
10000
10000
10000
10000
10000
10000
10000
10000
10000
10000
10000
10000
10000
10000
10000
10000
10000
10000
10000
10000
10000
10000
10000
10000
10000
10000
10000
10000
10000
10000
10000
10000
10000
10000
10000
10000
10000
10000
10000
10000
10000
10000
10000
10000
10000
10000
10000
10000
10000
10000
10000
10000
10000
10000
10000
10000
10000
10000
10000
10000
10000
10000
10000
10000
10000
10000
10000
10000
10000
10000
10000
10000
10000
10000
10000
10000
10000
10000
10000
10000
10000
10000
10000
10000
10000
10000
10000
10000
10000
10000
10000
10000
10000
10000
10000
10000
10000
10000
10000
10000
10000
10000
10000
10000
10000
10000
10000
10000
10000
10000
10000
10000
)
;

boundaryField
{
    sides
    {
        type            zeroGradient;
    }
    empty
    {
        type            empty;
    }
}


// ************************************************************************* //
