/*--------------------------------*- C++ -*----------------------------------*\
  =========                 |
  \\      /  F ield         | OpenFOAM: The Open Source CFD Toolbox
   \\    /   O peration     | Website:  https://openfoam.org
    \\  /    A nd           | Version:  9
     \\/     M anipulation  |
\*---------------------------------------------------------------------------*/
FoamFile
{
    format      ascii;
    class       volScalarField;
    location    "0.023";
    object      p;
}
// * * * * * * * * * * * * * * * * * * * * * * * * * * * * * * * * * * * * * //

dimensions      [1 -1 -2 0 0 0 0];

internalField   nonuniform List<scalar> 
10000
(
31348.1
31347.8
31347.6
31347.5
31347.3
31347.1
31346.9
31346.8
31346.6
31346.4
31346.2
31346.1
31345.9
31345.7
31345.5
31345.3
31345.2
31345
31344.8
31344.6
31344.5
31344.3
31344.1
31343.9
31343.7
31343.6
31343.4
31343.2
31343
31342.8
31342.6
31342.5
31342.3
31342.1
31341.9
31341.7
31341.6
31341.4
31341.2
31341
31340.8
31340.6
31340.5
31340.3
31340.1
31339.9
31339.7
31339.5
31339.4
31339.2
31339
31338.8
31338.6
31338.4
31338.2
31338.1
31337.9
31337.7
31337.5
31337.3
31337.1
31336.9
31336.8
31336.6
31336.4
31336.2
31336
31335.8
31335.6
31335.4
31335.3
31335.1
31334.9
31334.7
31334.5
31334.3
31334.1
31333.9
31333.7
31333.6
31333.4
31333.2
31333
31332.8
31332.6
31332.4
31332.2
31332
31331.8
31331.7
31331.5
31331.3
31331.1
31330.9
31330.7
31330.5
31330.3
31330.1
31329.9
31329.7
31329.5
31329.3
31329.1
31329
31328.8
31328.6
31328.4
31328.2
31328
31327.8
31327.6
31327.4
31327.2
31327
31326.8
31326.6
31326.4
31326.2
31326
31325.8
31325.6
31325.4
31325.2
31325
31324.8
31324.6
31324.4
31324.2
31324
31323.8
31323.6
31323.4
31323.2
31323
31322.8
31322.6
31322.4
31322.2
31322
31321.8
31321.6
31321.4
31321.2
31321
31320.8
31320.6
31320.4
31320.2
31320
31319.8
31319.6
31319.4
31319.2
31319
31318.8
31318.6
31318.4
31318.2
31318
31317.8
31317.6
31317.4
31317.2
31317
31316.8
31316.6
31316.4
31316.2
31316
31315.8
31315.5
31315.3
31315.1
31314.9
31314.7
31314.5
31314.3
31314.1
31313.9
31313.7
31313.5
31313.3
31313.1
31312.8
31312.6
31312.4
31312.2
31312
31311.8
31311.6
31311.4
31311.2
31311
31310.8
31310.5
31310.3
31310.1
31309.9
31309.7
31309.5
31309.3
31309.1
31308.9
31308.6
31308.4
31308.2
31308
31307.8
31307.6
31307.4
31307.2
31306.9
31306.7
31306.5
31306.3
31306.1
31305.9
31305.7
31305.4
31305.2
31305
31304.8
31304.6
31304.4
31304.2
31303.9
31303.7
31303.5
31303.3
31303.1
31302.9
31302.6
31302.4
31302.2
31302
31301.8
31301.5
31301.3
31301.1
31300.9
31300.7
31300.5
31300.2
31300
31299.8
31299.6
31299.4
31299.1
31298.9
31298.7
31298.5
31298.3
31298
31297.8
31297.6
31297.4
31297.2
31296.9
31296.7
31296.5
31296.3
31296
31295.8
31295.6
31295.4
31295.2
31294.9
31294.7
31294.5
31294.3
31294
31293.8
31293.6
31293.4
31293.1
31292.9
31292.7
31292.5
31292.2
31292
31291.8
31291.6
31291.3
31291.1
31290.9
31290.7
31290.4
31290.2
31290
31289.7
31289.5
31289.3
31289.1
31288.8
31288.6
31288.4
31288.1
31287.9
31287.7
31287.5
31287.2
31287
31286.8
31286.5
31286.3
31286.1
31285.8
31285.6
31285.4
31285.2
31284.9
31284.7
31284.5
31284.2
31284
31283.8
31283.5
31283.3
31283.1
31282.8
31282.6
31282.4
31282.1
31281.9
31281.7
31281.4
31281.2
31281
31280.7
31280.5
31280.3
31280
31279.8
31279.6
31279.3
31279.1
31278.8
31278.6
31278.4
31278.1
31277.9
31277.7
31277.4
31277.2
31277
31276.7
31276.5
31276.2
31276
31275.8
31275.5
31275.3
31275
31274.8
31274.6
31274.3
31274.1
31273.8
31273.6
31273.4
31273.1
31272.9
31272.6
31272.4
31272.2
31271.9
31271.7
31271.4
31271.2
31271
31270.7
31270.5
31270.2
31270
31269.7
31269.5
31269.3
31269
31268.8
31268.5
31268.3
31268
31267.8
31267.5
31267.3
31267.1
31266.8
31266.6
31266.3
31266.1
31265.8
31265.6
31265.3
31265.1
31264.8
31264.6
31264.3
31264.1
31263.9
31263.6
31263.4
31263.1
31262.9
31262.6
31262.4
31262.1
31261.9
31261.6
31261.4
31261.1
31260.9
31260.6
31260.4
31260.1
31259.9
31259.6
31259.4
31259.1
31258.9
31258.6
31258.4
31258.1
31257.9
31257.6
31257.4
31257.1
31256.9
31256.6
31256.3
31256.1
31255.8
31255.6
31255.3
31255.1
31254.8
31254.6
31254.3
31254.1
31253.8
31253.6
31253.3
31253
31252.8
31252.5
31252.3
31252
31251.8
31251.5
31251.3
31251
31250.7
31250.5
31250.2
31250
31249.7
31249.5
31249.2
31248.9
31248.7
31248.4
31248.2
31247.9
31247.6
31247.4
31247.1
31246.9
31246.6
31246.3
31246.1
31245.8
31245.6
31245.3
31245
31244.8
31244.5
31244.3
31244
31243.7
31243.5
31243.2
31242.9
31242.7
31242.4
31242.2
31241.9
31241.6
31241.4
31241.1
31240.8
31240.6
31240.3
31240
31239.8
31239.5
31239.3
31239
31238.7
31238.5
31238.2
31237.9
31237.7
31237.4
31237.1
31236.9
31236.6
31236.3
31236.1
31235.8
31235.5
31235.3
31235
31234.7
31234.5
31234.2
31233.9
31233.6
31233.4
31233.1
31232.8
31232.6
31232.3
31232
31231.8
31231.5
31231.2
31230.9
31230.7
31230.4
31230.1
31229.9
31229.6
31229.3
31229
31228.8
31228.5
31228.2
31228
31227.7
31227.4
31227.1
31226.9
31226.6
31226.3
31226
31225.8
31225.5
31225.2
31224.9
31224.7
31224.4
31224.1
31223.8
31223.6
31223.3
31223
31222.7
31222.5
31222.2
31221.9
31221.6
31221.4
31221.1
31220.8
31220.5
31220.2
31220
31219.7
31219.4
31219.1
31218.9
31218.6
31218.3
31218
31217.7
31217.5
31217.2
31216.9
31216.6
31216.3
31216.1
31215.8
31215.5
31215.2
31214.9
31214.6
31214.4
31214.1
31213.8
31213.5
31213.2
31213
31212.7
31212.4
31212.1
31211.8
31211.5
31211.3
31211
31210.7
31210.4
31210.1
31209.8
31209.5
31209.3
31209
31208.7
31208.4
31208.1
31207.8
31207.5
31207.3
31207
31206.7
31206.4
31206.1
31205.8
31205.5
31205.2
31205
31204.7
31204.4
31204.1
31203.8
31203.5
31203.2
31202.9
31202.6
31202.4
31202.1
31201.8
31201.5
31201.2
31200.9
31200.6
31200.3
31200
31199.7
31199.5
31199.2
31198.9
31198.6
31198.3
31198
31197.7
31197.4
31197.1
31196.8
31196.5
31196.2
31195.9
31195.6
31195.4
31195.1
31194.8
31194.5
31194.2
31193.9
31193.6
31193.3
31193
31192.7
31192.4
31192.1
31191.8
31191.5
31191.2
31190.9
31190.6
31190.3
31190
31189.7
31189.4
31189.1
31188.8
31188.5
31188.2
31187.9
31187.6
31187.3
31187
31186.7
31186.4
31186.1
31185.8
31185.5
31185.2
31184.9
31184.6
31184.3
31184
31183.7
31183.4
31183.1
31182.8
31182.5
31182.2
31181.9
31181.6
31181.3
31181
31180.7
31180.4
31180.1
31179.8
31179.5
31179.2
31178.9
31178.6
31178.3
31178
31177.7
31177.4
31177.1
31176.7
31176.4
31176.1
31175.8
31175.5
31175.2
31174.9
31174.6
31174.3
31174
31173.7
31173.4
31173.1
31172.8
31172.4
31172.1
31171.8
31171.5
31171.2
31170.9
31170.6
31170.3
31170
31169.7
31169.4
31169
31168.7
31168.4
31168.1
31167.8
31167.5
31167.2
31166.9
31166.6
31166.2
31165.9
31165.6
31165.3
31165
31164.7
31164.4
31164.1
31163.7
31163.4
31163.1
31162.8
31162.5
31162.2
31161.9
31161.5
31161.2
31160.9
31160.6
31160.3
31160
31159.6
31159.3
31159
31158.7
31158.4
31158.1
31157.7
31157.4
31157.1
31156.8
31156.5
31156.2
31155.8
31155.5
31155.2
31154.9
31154.6
31154.2
31153.9
31153.6
31153.3
31153
31152.6
31152.3
31152
31151.7
31151.4
31151
31150.7
31150.4
31150.1
31149.8
31149.4
31149.1
31148.8
31148.5
31148.1
31147.8
31147.5
31147.2
31146.8
31146.5
31146.2
31145.9
31145.6
31145.2
31144.9
31144.6
31144.3
31143.9
31143.6
31143.3
31142.9
31142.6
31142.3
31142
31141.6
31141.3
31141
31140.7
31140.3
31140
31139.7
31139.4
31139
31138.7
31138.4
31138
31137.7
31137.4
31137.1
31136.7
31136.4
31136.1
31135.7
31135.4
31135.1
31134.7
31134.4
31134.1
31133.7
31133.4
31133.1
31132.8
31132.4
31132.1
31131.8
31131.4
31131.1
31130.8
31130.4
31130.1
31129.8
31129.4
31129.1
31128.8
31128.4
31128.1
31127.8
31127.4
31127.1
31126.8
31126.4
31126.1
31125.7
31125.4
31125.1
31124.7
31124.4
31124.1
31123.7
31123.4
31123.1
31122.7
31122.4
31122
31121.7
31121.4
31121
31120.7
31120.3
31120
31119.7
31119.3
31119
31118.7
31118.3
31118
31117.6
31117.3
31116.9
31116.6
31116.3
31115.9
31115.6
31115.2
31114.9
31114.6
31114.2
31113.9
31113.5
31113.2
31112.8
31112.5
31112.2
31111.8
31111.5
31111.1
31110.8
31110.4
31110.1
31109.8
31109.4
31109.1
31108.7
31108.4
31108
31107.7
31107.3
31107
31106.6
31106.3
31105.9
31105.6
31105.3
31104.9
31104.6
31104.2
31103.9
31103.5
31103.2
31102.8
31102.5
31102.1
31101.8
31101.4
31101.1
31100.7
31100.4
31100
31099.7
31099.3
31099
31098.6
31098.3
31097.9
31097.6
31097.2
31096.9
31096.5
31096.2
31095.8
31095.5
31095.1
31094.8
31094.4
31094
31093.7
31093.3
31093
31092.6
31092.3
31091.9
31091.6
31091.2
31090.9
31090.5
31090.1
31089.8
31089.4
31089.1
31088.7
31088.4
31088
31087.7
31087.3
31086.9
31086.6
31086.2
31085.9
31085.5
31085.2
31084.8
31084.4
31084.1
31083.7
31083.4
31083
31082.6
31082.3
31081.9
31081.6
31081.2
31080.8
31080.5
31080.1
31079.8
31079.4
31079
31078.7
31078.3
31078
31077.6
31077.2
31076.9
31076.5
31076.1
31075.8
31075.4
31075.1
31074.7
31074.3
31074
31073.6
31073.2
31072.9
31072.5
31072.1
31071.8
31071.4
31071
31070.7
31070.3
31069.9
31069.6
31069.2
31068.8
31068.5
31068.1
31067.7
31067.4
31067
31066.6
31066.3
31065.9
31065.5
31065.2
31064.8
31064.4
31064.1
31063.7
31063.3
31063
31062.6
31062.2
31061.8
31061.5
31061.1
31060.7
31060.4
31060
31059.6
31059.3
31058.9
31058.5
31058.1
31057.8
31057.4
31057
31056.6
31056.3
31055.9
31055.5
31055.2
31054.8
31054.4
31054
31053.7
31053.3
31052.9
31052.5
31052.2
31051.8
31051.4
31051
31050.7
31050.3
31049.9
31049.5
31049.1
31048.8
31048.4
31048
31047.6
31047.3
31046.9
31046.5
31046.1
31045.7
31045.4
31045
31044.6
31044.2
31043.9
31043.5
31043.1
31042.7
31042.3
31042
31041.6
31041.2
31040.8
31040.4
31040
31039.7
31039.3
31038.9
31038.5
31038.1
31037.8
31037.4
31037
31036.6
31036.2
31035.8
31035.5
31035.1
31034.7
31034.3
31033.9
31033.5
31033.2
31032.8
31032.4
31032
31031.6
31031.2
31030.8
31030.5
31030.1
31029.7
31029.3
31028.9
31028.5
31028.1
31027.7
31027.4
31027
31026.6
31026.2
31025.8
31025.4
31025
31024.6
31024.2
31023.9
31023.5
31023.1
31022.7
31022.3
31021.9
31021.5
31021.1
31020.7
31020.3
31020
31019.6
31019.2
31018.8
31018.4
31018
31017.6
31017.2
31016.8
31016.4
31016
31015.6
31015.2
31014.8
31014.5
31014.1
31013.7
31013.3
31012.9
31012.5
31012.1
31011.7
31011.3
31010.9
31010.5
31010.1
31009.7
31009.3
31008.9
31008.5
31008.1
31007.7
31007.3
31006.9
31006.5
31006.1
31005.7
31005.3
31004.9
31004.5
31004.1
31003.7
31003.3
31002.9
31002.5
31002.1
31001.7
31001.3
31000.9
31000.5
31000.1
30999.7
30999.3
30998.9
30998.5
30998.1
30997.7
30997.3
30996.9
30996.5
30996.1
30995.7
30995.3
30994.9
30994.5
30994.1
30993.7
30993.3
30992.9
30992.5
30992.1
30991.7
30991.3
30990.9
30990.5
30990.1
30989.6
30989.2
30988.8
30988.4
30988
30987.6
30987.2
30986.8
30986.4
30986
30985.6
30985.2
30984.8
30984.4
30983.9
30983.5
30983.1
30982.7
30982.3
30981.9
30981.5
30981.1
30980.7
30980.3
30979.8
30979.4
30979
30978.6
30978.2
30977.8
30977.4
30977
30976.6
30976.1
30975.7
30975.3
30974.9
30974.5
30974.1
30973.7
30973.2
30972.8
30972.4
30972
30971.6
30971.2
30970.8
30970.3
30969.9
30969.5
30969.1
30968.7
30968.3
30967.9
30967.4
30967
30966.6
30966.2
30965.8
30965.3
30964.9
30964.5
30964.1
30963.7
30963.3
30962.8
30962.4
30962
30961.6
30961.2
30960.7
30960.3
30959.9
30959.5
30959.1
30958.6
30958.2
30957.8
30957.4
30957
30956.5
30956.1
30955.7
30955.3
30954.8
30954.4
30954
30953.6
30953.2
30952.7
30952.3
30951.9
30951.5
30951
30950.6
30950.2
30949.8
30949.3
30948.9
30948.5
30948.1
30947.6
30947.2
30946.8
30946.4
30945.9
30945.5
30945.1
30944.7
30944.2
30943.8
30943.4
30942.9
30942.5
30942.1
30941.7
30941.2
30940.8
30940.4
30939.9
30939.5
30939.1
30938.7
30938.2
30937.8
30937.4
30936.9
30936.5
30936.1
30935.6
30935.2
30934.8
30934.3
30933.9
30933.5
30933.1
30932.6
30932.2
30931.8
30931.3
30930.9
30930.5
30930
30929.6
30929.2
30928.7
30928.3
30927.9
30927.4
30927
30926.5
30926.1
30925.7
30925.2
30924.8
30924.4
30923.9
30923.5
30923.1
30922.6
30922.2
30921.7
30921.3
30920.9
30920.4
30920
30919.6
30919.1
30918.7
30918.2
30917.8
30917.4
30916.9
30916.5
30916
30915.6
30915.2
30914.7
30914.3
30913.8
30913.4
30913
30912.5
30912.1
30911.6
30911.2
30910.8
30910.3
30909.9
30909.4
30909
30908.5
30908.1
30907.7
30907.2
30906.8
30906.3
30905.9
30905.4
30905
30904.5
30904.1
30903.7
30903.2
30902.8
30902.3
30901.9
30901.4
30901
30900.5
30900.1
30899.6
30899.2
30898.7
30898.3
30897.8
30897.4
30896.9
30896.5
30896.1
30895.6
30895.2
30894.7
30894.3
30893.8
30893.4
30892.9
30892.5
30892
30891.6
30891.1
30890.7
30890.2
30889.7
30889.3
30888.8
30888.4
30887.9
30887.5
30887
30886.6
30886.1
30885.7
30885.2
30884.8
30884.3
30883.9
30883.4
30883
30882.5
30882
30881.6
30881.1
30880.7
30880.2
30879.8
30879.3
30878.9
30878.4
30877.9
30877.5
30877
30876.6
30876.1
30875.7
30875.2
30874.7
30874.3
30873.8
30873.4
30872.9
30872.5
30872
30871.5
30871.1
30870.6
30870.2
30869.7
30869.2
30868.8
30868.3
30867.9
30867.4
30866.9
30866.5
30866
30865.5
30865.1
30864.6
30864.2
30863.7
30863.2
30862.8
30862.3
30861.8
30861.4
30860.9
30860.5
30860
30859.5
30859.1
30858.6
30858.1
30857.7
30857.2
30856.7
30856.3
30855.8
30855.3
30854.9
30854.4
30853.9
30853.5
30853
30852.5
30852.1
30851.6
30851.1
30850.7
30850.2
30849.7
30849.3
30848.8
30848.3
30847.9
30847.4
30846.9
30846.4
30846
30845.5
30845
30844.6
30844.1
30843.6
30843.2
30842.7
30842.2
30841.7
30841.3
30840.8
30840.3
30839.9
30839.4
30838.9
30838.4
30838
30837.5
30837
30836.5
30836.1
30835.6
30835.1
30834.6
30834.2
30833.7
30833.2
30832.7
30832.3
30831.8
30831.3
30830.8
30830.4
30829.9
30829.4
30828.9
30828.5
30828
30827.5
30827
30826.5
30826.1
30825.6
30825.1
30824.6
30824.1
30823.7
30823.2
30822.7
30822.2
30821.8
30821.3
30820.8
30820.3
30819.8
30819.3
30818.9
30818.4
30817.9
30817.4
30816.9
30816.5
30816
30815.5
30815
30814.5
30814
30813.6
30813.1
30812.6
30812.1
30811.6
30811.1
30810.7
30810.2
30809.7
30809.2
30808.7
30808.2
30807.7
30807.3
30806.8
30806.3
30805.8
30805.3
30804.8
30804.3
30803.9
30803.4
30802.9
30802.4
30801.9
30801.4
30800.9
30800.4
30799.9
30799.5
30799
30798.5
30798
30797.5
30797
30796.5
30796
30795.5
30795
30794.6
30794.1
30793.6
30793.1
30792.6
30792.1
30791.6
30791.1
30790.6
30790.1
30789.6
30789.1
30788.7
30788.2
30787.7
30787.2
30786.7
30786.2
30785.7
30785.2
30784.7
30784.2
30783.7
30783.2
30782.7
30782.2
30781.7
30781.2
30780.7
30780.2
30779.7
30779.2
30778.7
30778.2
30777.7
30777.2
30776.8
30776.3
30775.8
30775.3
30774.8
30774.3
30773.8
30773.3
30772.8
30772.3
30771.8
30771.3
30770.8
30770.3
30769.8
30769.3
30768.8
30768.3
30767.8
30767.3
30766.7
30766.2
30765.7
30765.2
30764.7
30764.2
30763.7
30763.2
30762.7
30762.2
30761.7
30761.2
30760.7
30760.2
30759.7
30759.2
30758.7
30758.2
30757.7
30757.2
30756.7
30756.2
30755.7
30755.1
30754.6
30754.1
30753.6
30753.1
30752.6
30752.1
30751.6
30751.1
30750.6
30750.1
30749.6
30749.1
30748.5
30748
30747.5
30747
30746.5
30746
30745.5
30745
30744.5
30744
30743.4
30742.9
30742.4
30741.9
30741.4
30740.9
30740.4
30739.9
30739.3
30738.8
30738.3
30737.8
30737.3
30736.8
30736.3
30735.8
30735.2
30734.7
30734.2
30733.7
30733.2
30732.7
30732.1
30731.6
30731.1
30730.6
30730.1
30729.6
30729.1
30728.5
30728
30727.5
30727
30726.5
30725.9
30725.4
30724.9
30724.4
30723.9
30723.4
30722.8
30722.3
30721.8
30721.3
30720.8
30720.2
30719.7
30719.2
30718.7
30718.2
30717.6
30717.1
30716.6
30716.1
30715.6
30715
30714.5
30714
30713.5
30712.9
30712.4
30711.9
30711.4
30710.8
30710.3
30709.8
30709.3
30708.7
30708.2
30707.7
30707.2
30706.7
30706.1
30705.6
30705.1
30704.5
30704
30703.5
30703
30702.4
30701.9
30701.4
30700.9
30700.3
30699.8
30699.3
30698.7
30698.2
30697.7
30697.2
30696.6
30696.1
30695.6
30695
30694.5
30694
30693.5
30692.9
30692.4
30691.9
30691.3
30690.8
30690.3
30689.7
30689.2
30688.7
30688.1
30687.6
30687.1
30686.5
30686
30685.5
30685
30684.4
30683.9
30683.3
30682.8
30682.3
30681.7
30681.2
30680.7
30680.1
30679.6
30679.1
30678.5
30678
30677.5
30676.9
30676.4
30675.9
30675.3
30674.8
30674.2
30673.7
30673.2
30672.6
30672.1
30671.6
30671
30670.5
30669.9
30669.4
30668.9
30668.3
30667.8
30667.2
30666.7
30666.2
30665.6
30665.1
30664.5
30664
30663.5
30662.9
30662.4
30661.8
30661.3
30660.8
30660.2
30659.7
30659.1
30658.6
30658
30657.5
30656.9
30656.4
30655.9
30655.3
30654.8
30654.2
30653.7
30653.1
30652.6
30652
30651.5
30651
30650.4
30649.9
30649.3
30648.8
30648.2
30647.7
30647.1
30646.6
30646
30645.5
30644.9
30644.4
30643.8
30643.3
30642.7
30642.2
30641.7
30641.1
30640.6
30640
30639.5
30638.9
30638.4
30637.8
30637.3
30636.7
30636.1
30635.6
30635
30634.5
30633.9
30633.4
30632.8
30632.3
30631.7
30631.2
30630.6
30630.1
30629.5
30629
30628.4
30627.9
30627.3
30626.8
30626.2
30625.6
30625.1
30624.5
30624
30623.4
30622.9
30622.3
30621.8
30621.2
30620.6
30620.1
30619.5
30619
30618.4
30617.9
30617.3
30616.7
30616.2
30615.6
30615.1
30614.5
30613.9
30613.4
30612.8
30612.3
30611.7
30611.1
30610.6
30610
30609.5
30608.9
30608.3
30607.8
30607.2
30606.7
30606.1
30605.5
30605
30604.4
30603.8
30603.3
30602.7
30602.2
30601.6
30601
30600.5
30599.9
30599.3
30598.8
30598.2
30597.6
30597.1
30596.5
30596
30595.4
30594.8
30594.3
30593.7
30593.1
30592.6
30592
30591.4
30590.9
30590.3
30589.7
30589.2
30588.6
30588
30587.4
30586.9
30586.3
30585.7
30585.2
30584.6
30584
30583.5
30582.9
30582.3
30581.8
30581.2
30580.6
30580
30579.5
30578.9
30578.3
30577.8
30577.2
30576.6
30576
30575.5
30574.9
30574.3
30573.7
30573.2
30572.6
30572
30571.5
30570.9
30570.3
30569.7
30569.2
30568.6
30568
30567.4
30566.9
30566.3
30565.7
30565.1
30564.6
30564
30563.4
30562.8
30562.2
30561.7
30561.1
30560.5
30559.9
30559.4
30558.8
30558.2
30557.6
30557
30556.5
30555.9
30555.3
30554.7
30554.1
30553.6
30553
30552.4
30551.8
30551.2
30550.7
30550.1
30549.5
30548.9
30548.3
30547.8
30547.2
30546.6
30546
30545.4
30544.8
30544.3
30543.7
30543.1
30542.5
30541.9
30541.3
30540.8
30540.2
30539.6
30539
30538.4
30537.8
30537.2
30536.7
30536.1
30535.5
30534.9
30534.3
30533.7
30533.1
30532.6
30532
30531.4
30530.8
30530.2
30529.6
30529
30528.4
30527.8
30527.3
30526.7
30526.1
30525.5
30524.9
30524.3
30523.7
30523.1
30522.5
30521.9
30521.4
30520.8
30520.2
30519.6
30519
30518.4
30517.8
30517.2
30516.6
30516
30515.4
30514.8
30514.2
30513.7
30513.1
30512.5
30511.9
30511.3
30510.7
30510.1
30509.5
30508.9
30508.3
30507.7
30507.1
30506.5
30505.9
30505.3
30504.7
30504.1
30503.5
30502.9
30502.3
30501.7
30501.1
30500.5
30499.9
30499.3
30498.8
30498.2
30497.6
30497
30496.4
30495.8
30495.2
30494.6
30494
30493.4
30492.8
30492.2
30491.6
30491
30490.3
30489.7
30489.1
30488.5
30487.9
30487.3
30486.7
30486.1
30485.5
30484.9
30484.3
30483.7
30483.1
30482.5
30481.9
30481.3
30480.7
30480.1
30479.5
30478.9
30478.3
30477.7
30477.1
30476.5
30475.9
30475.3
30474.6
30474
30473.4
30472.8
30472.2
30471.6
30471
30470.4
30469.8
30469.2
30468.6
30468
30467.3
30466.7
30466.1
30465.5
30464.9
30464.3
30463.7
30463.1
30462.5
30461.9
30461.2
30460.6
30460
30459.4
30458.8
30458.2
30457.6
30457
30456.4
30455.7
30455.1
30454.5
30453.9
30453.3
30452.7
30452.1
30451.4
30450.8
30450.2
30449.6
30449
30448.4
30447.8
30447.1
30446.5
30445.9
30445.3
30444.7
30444.1
30443.4
30442.8
30442.2
30441.6
30441
30440.4
30439.7
30439.1
30438.5
30437.9
30437.3
30436.6
30436
30435.4
30434.8
30434.2
30433.5
30432.9
30432.3
30431.7
30431.1
30430.4
30429.8
30429.2
30428.6
30428
30427.3
30426.7
30426.1
30425.5
30424.8
30424.2
30423.6
30423
30422.4
30421.7
30421.1
30420.5
30419.9
30419.2
30418.6
30418
30417.4
30416.7
30416.1
30415.5
30414.9
30414.2
30413.6
30413
30412.4
30411.7
30411.1
30410.5
30409.8
30409.2
30408.6
30408
30407.3
30406.7
30406.1
30405.4
30404.8
30404.2
30403.6
30402.9
30402.3
30401.7
30401
30400.4
30399.8
30399.1
30398.5
30397.9
30397.3
30396.6
30396
30395.4
30394.7
30394.1
30393.5
30392.8
30392.2
30391.6
30390.9
30390.3
30389.7
30389
30388.4
30387.8
30387.1
30386.5
30385.9
30385.2
30384.6
30383.9
30383.3
30382.7
30382
30381.4
30380.8
30380.1
30379.5
30378.9
30378.2
30377.6
30376.9
30376.3
30375.7
30375
30374.4
30373.7
30373.1
30372.5
30371.8
30371.2
30370.5
30369.9
30369.3
30368.6
30368
30367.3
30366.7
30366.1
30365.4
30364.8
30364.1
30363.5
30362.9
30362.2
30361.6
30360.9
30360.3
30359.6
30359
30358.4
30357.7
30357.1
30356.4
30355.8
30355.1
30354.5
30353.8
30353.2
30352.5
30351.9
30351.3
30350.6
30350
30349.3
30348.7
30348
30347.4
30346.7
30346.1
30345.4
30344.8
30344.1
30343.5
30342.8
30342.2
30341.5
30340.9
30340.2
30339.6
30338.9
30338.3
30337.6
30337
30336.3
30335.7
30335
30334.4
30333.7
30333.1
30332.4
30331.8
30331.1
30330.5
30329.8
30329.2
30328.5
30327.9
30327.2
30326.6
30325.9
30325.3
30324.6
30323.9
30323.3
30322.6
30322
30321.3
30320.7
30320
30319.4
30318.7
30318.1
30317.4
30316.7
30316.1
30315.4
30314.8
30314.1
30313.5
30312.8
30312.1
30311.5
30310.8
30310.2
30309.5
30308.8
30308.2
30307.5
30306.9
30306.2
30305.5
30304.9
30304.2
30303.6
30302.9
30302.2
30301.6
30300.9
30300.3
30299.6
30298.9
30298.3
30297.6
30297
30296.3
30295.6
30295
30294.3
30293.6
30293
30292.3
30291.6
30291
30290.3
30289.7
30289
30288.3
30287.7
30287
30286.3
30285.7
30285
30284.3
30283.7
30283
30282.3
30281.7
30281
30280.3
30279.7
30279
30278.3
30277.7
30277
30276.3
30275.6
30275
30274.3
30273.6
30273
30272.3
30271.6
30271
30270.3
30269.6
30268.9
30268.3
30267.6
30266.9
30266.3
30265.6
30264.9
30264.2
30263.6
30262.9
30262.2
30261.6
30260.9
30260.2
30259.5
30258.9
30258.2
30257.5
30256.8
30256.2
30255.5
30254.8
30254.1
30253.5
30252.8
30252.1
30251.4
30250.8
30250.1
30249.4
30248.7
30248
30247.4
30246.7
30246
30245.3
30244.7
30244
30243.3
30242.6
30241.9
30241.3
30240.6
30239.9
30239.2
30238.5
30237.9
30237.2
30236.5
30235.8
30235.1
30234.5
30233.8
30233.1
30232.4
30231.7
30231.1
30230.4
30229.7
30229
30228.3
30227.6
30227
30226.3
30225.6
30224.9
30224.2
30223.5
30222.9
30222.2
30221.5
30220.8
30220.1
30219.4
30218.7
30218.1
30217.4
30216.7
30216
30215.3
30214.6
30213.9
30213.3
30212.6
30211.9
30211.2
30210.5
30209.8
30209.1
30208.4
30207.7
30207.1
30206.4
30205.7
30205
30204.3
30203.6
30202.9
30202.2
30201.5
30200.8
30200.2
30199.5
30198.8
30198.1
30197.4
30196.7
30196
30195.3
30194.6
30193.9
30193.2
30192.5
30191.8
30191.2
30190.5
30189.8
30189.1
30188.4
30187.7
30187
30186.3
30185.6
30184.9
30184.2
30183.5
30182.8
30182.1
30181.4
30180.7
30180
30179.3
30178.6
30177.9
30177.2
30176.5
30175.8
30175.1
30174.4
30173.7
30173
30172.3
30171.7
30171
30170.3
30169.6
30168.9
30168.2
30167.5
30166.7
30166
30165.3
30164.6
30163.9
30163.2
30162.5
30161.8
30161.1
30160.4
30159.7
30159
30158.3
30157.6
30156.9
30156.2
30155.5
30154.8
30154.1
30153.4
30152.7
30152
30151.3
30150.6
30149.9
30149.2
30148.5
30147.8
30147.1
30146.3
30145.6
30144.9
30144.2
30143.5
30142.8
30142.1
30141.4
30140.7
30140
30139.3
30138.6
30137.9
30137.1
30136.4
30135.7
30135
30134.3
30133.6
30132.9
30132.2
30131.5
30130.8
30130
30129.3
30128.6
30127.9
30127.2
30126.5
30125.8
30125.1
30124.3
30123.6
30122.9
30122.2
30121.5
30120.8
30120.1
30119.4
30118.6
30117.9
30117.2
30116.5
30115.8
30115.1
30114.3
30113.6
30112.9
30112.2
30111.5
30110.8
30110.1
30109.3
30108.6
30107.9
30107.2
30106.5
30105.7
30105
30104.3
30103.6
30102.9
30102.2
30101.4
30100.7
30100
30099.3
30098.6
30097.8
30097.1
30096.4
30095.7
30095
30094.2
30093.5
30092.8
30092.1
30091.3
30090.6
30089.9
30089.2
30088.5
30087.7
30087
30086.3
30085.6
30084.8
30084.1
30083.4
30082.7
30081.9
30081.2
30080.5
30079.8
30079
30078.3
30077.6
30076.9
30076.1
30075.4
30074.7
30074
30073.2
30072.5
30071.8
30071.1
30070.3
30069.6
30068.9
30068.1
30067.4
30066.7
30066
30065.2
30064.5
30063.8
30063
30062.3
30061.6
30060.9
30060.1
30059.4
30058.7
30057.9
30057.2
30056.5
30055.7
30055
30054.3
30053.5
30052.8
30052.1
30051.3
30050.6
30049.9
30049.1
30048.4
30047.7
30046.9
30046.2
30045.5
30044.7
30044
30043.3
30042.5
30041.8
30041.1
30040.3
30039.6
30038.9
30038.1
30037.4
30036.7
30035.9
30035.2
30034.4
30033.7
30033
30032.2
30031.5
30030.7
30030
30029.3
30028.5
30027.8
30027.1
30026.3
30025.6
30024.8
30024.1
30023.4
30022.6
30021.9
30021.1
30020.4
30019.7
30018.9
30018.2
30017.4
30016.7
30015.9
30015.2
30014.5
30013.7
30013
30012.2
30011.5
30010.7
30010
30009.3
30008.5
30007.8
30007
30006.3
30005.5
30004.8
30004
30003.3
30002.5
30001.8
30001.1
30000.3
29999.6
29998.8
29998.1
29997.3
29996.6
29995.8
29995.1
29994.3
29993.6
29992.8
29992.1
29991.3
29990.6
29989.8
29989.1
29988.3
29987.6
29986.8
29986.1
29985.3
29984.6
29983.8
29983.1
29982.3
29981.6
29980.8
29980.1
29979.3
29978.6
29977.8
29977.1
29976.3
29975.6
29974.8
29974.1
29973.3
29972.6
29971.8
29971
29970.3
29969.5
29968.8
29968
29967.3
29966.5
29965.8
29965
29964.3
29963.5
29962.7
29962
29961.2
29960.5
29959.7
29959
29958.2
29957.4
29956.7
29955.9
29955.2
29954.4
29953.6
29952.9
29952.1
29951.4
29950.6
29949.9
29949.1
29948.3
29947.6
29946.8
29946.1
29945.3
29944.5
29943.8
29943
29942.2
29941.5
29940.7
29940
29939.2
29938.4
29937.7
29936.9
29936.1
29935.4
29934.6
29933.9
29933.1
29932.3
29931.6
29930.8
29930
29929.3
29928.5
29927.7
29927
29926.2
29925.4
29924.7
29923.9
29923.1
29922.4
29921.6
29920.8
29920.1
29919.3
29918.5
29917.8
29917
29916.2
29915.5
29914.7
29913.9
29913.2
29912.4
29911.6
29910.9
29910.1
29909.3
29908.5
29907.8
29907
29906.2
29905.5
29904.7
29903.9
29903.1
29902.4
29901.6
29900.8
29900.1
29899.3
29898.5
29897.7
29897
29896.2
29895.4
29894.6
29893.9
29893.1
29892.3
29891.5
29890.8
29890
29889.2
29888.4
29887.7
29886.9
29886.1
29885.3
29884.6
29883.8
29883
29882.2
29881.5
29880.7
29879.9
29879.1
29878.3
29877.6
29876.8
29876
29875.2
29874.5
29873.7
29872.9
29872.1
29871.3
29870.6
29869.8
29869
29868.2
29867.4
29866.7
29865.9
29865.1
29864.3
29863.5
29862.8
29862
29861.2
29860.4
29859.6
29858.8
29858.1
29857.3
29856.5
29855.7
29854.9
29854.1
29853.4
29852.6
29851.8
29851
29850.2
29849.4
29848.6
29847.9
29847.1
29846.3
29845.5
29844.7
29843.9
29843.1
29842.4
29841.6
29840.8
29840
29839.2
29838.4
29837.6
29836.8
29836.1
29835.3
29834.5
29833.7
29832.9
29832.1
29831.3
29830.5
29829.7
29829
29828.2
29827.4
29826.6
29825.8
29825
29824.2
29823.4
29822.6
29821.8
29821
29820.2
29819.5
29818.7
29817.9
29817.1
29816.3
29815.5
29814.7
29813.9
29813.1
29812.3
29811.5
29810.7
29809.9
29809.1
29808.3
29807.5
29806.7
29806
29805.2
29804.4
29803.6
29802.8
29802
29801.2
29800.4
29799.6
29798.8
29798
29797.2
29796.4
29795.6
29794.8
29794
29793.2
29792.4
29791.6
29790.8
29790
29789.2
29788.4
29787.6
29786.8
29786
29785.2
29784.4
29783.6
29782.8
29782
29781.2
29780.4
29779.6
29778.8
29778
29777.2
29776.4
29775.6
29774.8
29774
29773.2
29772.4
29771.6
29770.8
29769.9
29769.1
29768.3
29767.5
29766.7
29765.9
29765.1
29764.3
29763.5
29762.7
29761.9
29761.1
29760.3
29759.5
29758.7
29757.9
29757.1
29756.2
29755.4
29754.6
29753.8
29753
29752.2
29751.4
29750.6
29749.8
29749
29748.2
29747.3
29746.5
29745.7
29744.9
29744.1
29743.3
29742.5
29741.7
29740.9
29740
29739.2
29738.4
29737.6
29736.8
29736
29735.2
29734.4
29733.6
29732.7
29731.9
29731.1
29730.3
29729.5
29728.7
29727.9
29727
29726.2
29725.4
29724.6
29723.8
29723
29722.2
29721.3
29720.5
29719.7
29718.9
29718.1
29717.3
29716.4
29715.6
29714.8
29714
29713.2
29712.3
29711.5
29710.7
29709.9
29709.1
29708.3
29707.4
29706.6
29705.8
29705
29704.2
29703.3
29702.5
29701.7
29700.9
29700.1
29699.2
29698.4
29697.6
29696.8
29696
29695.1
29694.3
29693.5
29692.7
29691.8
29691
29690.2
29689.4
29688.5
29687.7
29686.9
29686.1
29685.3
29684.4
29683.6
29682.8
29682
29681.1
29680.3
29679.5
29678.7
29677.8
29677
29676.2
29675.3
29674.5
29673.7
29672.9
29672
29671.2
29670.4
29669.6
29668.7
29667.9
29667.1
29666.2
29665.4
29664.6
29663.8
29662.9
29662.1
29661.3
29660.4
29659.6
29658.8
29658
29657.1
29656.3
29655.5
29654.6
29653.8
29653
29652.1
29651.3
29650.5
29649.6
29648.8
29648
29647.1
29646.3
29645.5
29644.6
29643.8
29643
29642.1
29641.3
29640.5
29639.6
29638.8
29638
29637.1
29636.3
29635.5
29634.6
29633.8
29633
29632.1
29631.3
29630.5
29629.6
29628.8
29627.9
29627.1
29626.3
29625.4
29624.6
29623.8
29622.9
29622.1
29621.2
29620.4
29619.6
29618.7
29617.9
29617
29616.2
29615.4
29614.5
29613.7
29612.8
29612
29611.2
29610.3
29609.5
29608.6
29607.8
29607
29606.1
29605.3
29604.4
29603.6
29602.8
29601.9
29601.1
29600.2
29599.4
29598.5
29597.7
29596.9
29596
29595.2
29594.3
29593.5
29592.6
29591.8
29590.9
29590.1
29589.3
29588.4
29587.6
29586.7
29585.9
29585
29584.2
29583.3
29582.5
29581.6
29580.8
29579.9
29579.1
29578.3
29577.4
29576.6
29575.7
29574.9
29574
29573.2
29572.3
29571.5
29570.6
29569.8
29568.9
29568.1
29567.2
29566.4
29565.5
29564.7
29563.8
29563
29562.1
29561.3
29560.4
29559.6
29558.7
29557.9
29557
29556.2
29555.3
29554.5
29553.6
29552.7
29551.9
29551
29550.2
29549.3
29548.5
29547.6
29546.8
29545.9
29545.1
29544.2
29543.4
29542.5
29541.6
29540.8
29539.9
29539.1
29538.2
29537.4
29536.5
29535.7
29534.8
29533.9
29533.1
29532.2
29531.4
29530.5
29529.7
29528.8
29527.9
29527.1
29526.2
29525.4
29524.5
29523.6
29522.8
29521.9
29521.1
29520.2
29519.4
29518.5
29517.6
29516.8
29515.9
29515.1
29514.2
29513.3
29512.5
29511.6
29510.8
29509.9
29509
29508.2
29507.3
29506.4
29505.6
29504.7
29503.9
29503
29502.1
29501.3
29500.4
29499.5
29498.7
29497.8
29496.9
29496.1
29495.2
29494.4
29493.5
29492.6
29491.8
29490.9
29490
29489.2
29488.3
29487.4
29486.6
29485.7
29484.8
29484
29483.1
29482.2
29481.4
29480.5
29479.6
29478.8
29477.9
29477
29476.2
29475.3
29474.4
29473.6
29472.7
29471.8
29471
29470.1
29469.2
29468.4
29467.5
29466.6
29465.7
29464.9
29464
29463.1
29462.3
29461.4
29460.5
29459.6
29458.8
29457.9
29457
29456.2
29455.3
29454.4
29453.5
29452.7
29451.8
29450.9
29450.1
29449.2
29448.3
29447.4
29446.6
29445.7
29444.8
29443.9
29443.1
29442.2
29441.3
29440.5
29439.6
29438.7
29437.8
29437
29436.1
29435.2
29434.3
29433.5
29432.6
29431.7
29430.8
29429.9
29429.1
29428.2
29427.3
29426.4
29425.6
29424.7
29423.8
29422.9
29422.1
29421.2
29420.3
29419.4
29418.5
29417.7
29416.8
29415.9
29415
29414.2
29413.3
29412.4
29411.5
29410.6
29409.8
29408.9
29408
29407.1
29406.2
29405.4
29404.5
29403.6
29402.7
29401.8
29400.9
29400.1
29399.2
29398.3
29397.4
29396.5
29395.7
29394.8
29393.9
29393
29392.1
29391.2
29390.4
29389.5
29388.6
29387.7
29386.8
29385.9
29385.1
29384.2
29383.3
29382.4
29381.5
29380.6
29379.8
29378.9
29378
29377.1
29376.2
29375.3
29374.5
29373.6
29372.7
29371.8
29370.9
29370
29369.1
29368.2
29367.4
29366.5
29365.6
29364.7
29363.8
29362.9
29362
29361.2
29360.3
29359.4
29358.5
29357.6
29356.7
29355.8
29354.9
29354.1
29353.2
29352.3
29351.4
29350.5
29349.6
29348.7
29347.8
29346.9
29346.1
29345.2