/*--------------------------------*- C++ -*----------------------------------*\
  =========                 |
  \\      /  F ield         | OpenFOAM: The Open Source CFD Toolbox
   \\    /   O peration     | Website:  https://openfoam.org
    \\  /    A nd           | Version:  9
     \\/     M anipulation  |
\*---------------------------------------------------------------------------*/
FoamFile
{
    format      ascii;
    class       volScalarField;
    location    "0.023";
    object      T;
}
// * * * * * * * * * * * * * * * * * * * * * * * * * * * * * * * * * * * * * //

dimensions      [0 0 0 1 0 0 0];

internalField   nonuniform List<scalar> 
10000
(
249.862
249.866
249.872
249.878
249.884
249.891
249.898
249.904
249.91
249.915
249.921
249.927
249.934
249.941
249.948
249.954
249.959
249.964
249.966
249.968
249.969
249.97
249.97
249.97
249.97
249.97
249.97
249.97
249.969
249.969
249.968
249.968
249.967
249.967
249.966
249.966
249.966
249.965
249.965
249.964
249.964
249.964
249.963
249.963
249.962
249.962
249.961
249.961
249.961
249.96
249.96
249.959
249.959
249.958
249.958
249.958
249.957
249.957
249.956
249.956
249.956
249.955
249.955
249.954
249.954
249.953
249.953
249.953
249.952
249.952
249.951
249.951
249.95
249.95
249.949
249.949
249.949
249.948
249.948
249.947
249.947
249.946
249.946
249.946
249.945
249.945
249.944
249.944
249.943
249.943
249.943
249.942
249.942
249.941
249.941
249.94
249.94
249.939
249.939
249.939
249.938
249.938
249.937
249.937
249.936
249.936
249.935
249.935
249.935
249.934
249.934
249.933
249.933
249.932
249.932
249.931
249.931
249.93
249.93
249.93
249.929
249.929
249.928
249.928
249.927
249.927
249.926
249.926
249.925
249.925
249.925
249.924
249.924
249.923
249.923
249.922
249.922
249.921
249.921
249.92
249.92
249.92
249.919
249.919
249.918
249.918
249.917
249.917
249.916
249.916
249.915
249.915
249.914
249.914
249.914
249.913
249.913
249.912
249.912
249.911
249.911
249.91
249.91
249.909
249.909
249.908
249.908
249.907
249.907
249.906
249.906
249.906
249.905
249.905
249.904
249.904
249.903
249.903
249.902
249.902
249.901
249.901
249.9
249.9
249.899
249.899
249.898
249.898
249.897
249.897
249.896
249.896
249.896
249.895
249.895
249.894
249.894
249.893
249.893
249.892
249.892
249.891
249.891
249.89
249.89
249.889
249.889
249.888
249.888
249.887
249.887
249.886
249.886
249.885
249.885
249.884
249.884
249.883
249.883
249.882
249.882
249.881
249.881
249.88
249.88
249.879
249.879
249.878
249.878
249.877
249.877
249.876
249.876
249.875
249.875
249.874
249.874
249.873
249.873
249.872
249.872
249.871
249.871
249.87
249.87
249.869
249.869
249.868
249.868
249.867
249.867
249.866
249.866
249.865
249.865
249.864
249.864
249.863
249.863
249.862
249.862
249.861
249.861
249.86
249.86
249.859
249.859
249.858
249.858
249.857
249.857
249.856
249.856
249.855
249.855
249.854
249.854
249.853
249.853
249.852
249.852
249.851
249.851
249.85
249.849
249.849
249.848
249.848
249.847
249.847
249.846
249.846
249.845
249.845
249.844
249.844
249.843
249.843
249.842
249.842
249.841
249.841
249.84
249.84
249.839
249.838
249.838
249.837
249.837
249.836
249.836
249.835
249.835
249.834
249.834
249.833
249.833
249.832
249.832
249.831
249.83
249.83
249.829
249.829
249.828
249.828
249.827
249.827
249.826
249.826
249.825
249.825
249.824
249.824
249.823
249.822
249.822
249.821
249.821
249.82
249.82
249.819
249.819
249.818
249.818
249.817
249.816
249.816
249.815
249.815
249.814
249.814
249.813
249.813
249.812
249.812
249.811
249.81
249.81
249.809
249.809
249.808
249.808
249.807
249.807
249.806
249.805
249.805
249.804
249.804
249.803
249.803
249.802
249.802
249.801
249.8
249.8
249.799
249.799
249.798
249.798
249.797
249.797
249.796
249.795
249.795
249.794
249.794
249.793
249.793
249.792
249.791
249.791
249.79
249.79
249.789
249.789
249.788
249.788
249.787
249.786
249.786
249.785
249.785
249.784
249.784
249.783
249.782
249.782
249.781
249.781
249.78
249.78
249.779
249.778
249.778
249.777
249.777
249.776
249.775
249.775
249.774
249.774
249.773
249.773
249.772
249.771
249.771
249.77
249.77
249.769
249.769
249.768
249.767
249.767
249.766
249.766
249.765
249.764
249.764
249.763
249.763
249.762
249.762
249.761
249.76
249.76
249.759
249.759
249.758
249.757
249.757
249.756
249.756
249.755
249.754
249.754
249.753
249.753
249.752
249.752
249.751
249.75
249.75
249.749
249.749
249.748
249.747
249.747
249.746
249.746
249.745
249.744
249.744
249.743
249.743
249.742
249.741
249.741
249.74
249.74
249.739
249.738
249.738
249.737
249.737
249.736
249.735
249.735
249.734
249.734
249.733
249.732
249.732
249.731
249.73
249.73
249.729
249.729
249.728
249.727
249.727
249.726
249.726
249.725
249.724
249.724
249.723
249.723
249.722
249.721
249.721
249.72
249.719
249.719
249.718
249.718
249.717
249.716
249.716
249.715
249.715
249.714
249.713
249.713
249.712
249.711
249.711
249.71
249.71
249.709
249.708
249.708
249.707
249.706
249.706
249.705
249.705
249.704
249.703
249.703
249.702
249.701
249.701
249.7
249.7
249.699
249.698
249.698
249.697
249.696
249.696
249.695
249.694
249.694
249.693
249.693
249.692
249.691
249.691
249.69
249.689
249.689
249.688
249.687
249.687
249.686
249.686
249.685
249.684
249.684
249.683
249.682
249.682
249.681
249.68
249.68
249.679
249.679
249.678
249.677
249.677
249.676
249.675
249.675
249.674
249.673
249.673
249.672
249.671
249.671
249.67
249.669
249.669
249.668
249.667
249.667
249.666
249.666
249.665
249.664
249.664
249.663
249.662
249.662
249.661
249.66
249.66
249.659
249.658
249.658
249.657
249.656
249.656
249.655
249.654
249.654
249.653
249.652
249.652
249.651
249.65
249.65
249.649
249.648
249.648
249.647
249.646
249.646
249.645
249.644
249.644
249.643
249.642
249.642
249.641
249.64
249.64
249.639
249.638
249.638
249.637
249.636
249.636
249.635
249.634
249.634
249.633
249.632
249.632
249.631
249.63
249.63
249.629
249.628
249.628
249.627
249.626
249.626
249.625
249.624
249.624
249.623
249.622
249.622
249.621
249.62
249.619
249.619
249.618
249.617
249.617
249.616
249.615
249.615
249.614
249.613
249.613
249.612
249.611
249.611
249.61
249.609
249.609
249.608
249.607
249.606
249.606
249.605
249.604
249.604
249.603
249.602
249.602
249.601
249.6
249.6
249.599
249.598
249.597
249.597
249.596
249.595
249.595
249.594
249.593
249.593
249.592
249.591
249.59
249.59
249.589
249.588
249.588
249.587
249.586
249.586
249.585
249.584
249.583
249.583
249.582
249.581
249.581
249.58
249.579
249.578
249.578
249.577
249.576
249.576
249.575
249.574
249.574
249.573
249.572
249.571
249.571
249.57
249.569
249.569
249.568
249.567
249.566
249.566
249.565
249.564
249.564
249.563
249.562
249.561
249.561
249.56
249.559
249.559
249.558
249.557
249.556
249.556
249.555
249.554
249.553
249.553
249.552
249.551
249.551
249.55
249.549
249.548
249.548
249.547
249.546
249.545
249.545
249.544
249.543
249.543
249.542
249.541
249.54
249.54
249.539
249.538
249.537
249.537
249.536
249.535
249.535
249.534
249.533
249.532
249.532
249.531
249.53
249.529
249.529
249.528
249.527
249.526
249.526
249.525
249.524
249.523
249.523
249.522
249.521
249.52
249.52
249.519
249.518
249.518
249.517
249.516
249.515
249.515
249.514
249.513
249.512
249.512
249.511
249.51
249.509
249.509
249.508
249.507
249.506
249.506
249.505
249.504
249.503
249.503
249.502
249.501
249.5
249.5
249.499
249.498
249.497
249.496
249.496
249.495
249.494
249.493
249.493
249.492
249.491
249.49
249.49
249.489
249.488
249.487
249.487
249.486
249.485
249.484
249.484
249.483
249.482
249.481
249.481
249.48
249.479
249.478
249.477
249.477
249.476
249.475
249.474
249.474
249.473
249.472
249.471
249.471
249.47
249.469
249.468
249.467
249.467
249.466
249.465
249.464
249.464
249.463
249.462
249.461
249.46
249.46
249.459
249.458
249.457
249.457
249.456
249.455
249.454
249.453
249.453
249.452
249.451
249.45
249.45
249.449
249.448
249.447
249.446
249.446
249.445
249.444
249.443
249.442
249.442
249.441
249.44
249.439
249.439
249.438
249.437
249.436
249.435
249.435
249.434
249.433
249.432
249.431
249.431
249.43
249.429
249.428
249.427
249.427
249.426
249.425
249.424
249.423
249.423
249.422
249.421
249.42
249.419
249.419
249.418
249.417
249.416
249.415
249.415
249.414
249.413
249.412
249.411
249.411
249.41
249.409
249.408
249.407
249.407
249.406
249.405
249.404
249.403
249.403
249.402
249.401
249.4
249.399
249.398
249.398
249.397
249.396
249.395
249.394
249.394
249.393
249.392
249.391
249.39
249.39
249.389
249.388
249.387
249.386
249.385
249.385
249.384
249.383
249.382
249.381
249.381
249.38
249.379
249.378
249.377
249.376
249.376
249.375
249.374
249.373
249.372
249.371
249.371
249.37
249.369
249.368
249.367
249.366
249.366
249.365
249.364
249.363
249.362
249.361
249.361
249.36
249.359
249.358
249.357
249.357
249.356
249.355
249.354
249.353
249.352
249.351
249.351
249.35
249.349
249.348
249.347
249.346
249.346
249.345
249.344
249.343
249.342
249.341
249.341
249.34
249.339
249.338
249.337
249.336
249.336
249.335
249.334
249.333
249.332
249.331
249.33
249.33
249.329
249.328
249.327
249.326
249.325
249.324
249.324
249.323
249.322
249.321
249.32
249.319
249.319
249.318
249.317
249.316
249.315
249.314
249.313
249.313
249.312
249.311
249.31
249.309
249.308
249.307
249.306
249.306
249.305
249.304
249.303
249.302
249.301
249.3
249.3
249.299
249.298
249.297
249.296
249.295
249.294
249.294
249.293
249.292
249.291
249.29
249.289
249.288
249.287
249.287
249.286
249.285
249.284
249.283
249.282
249.281
249.28
249.28
249.279
249.278
249.277
249.276
249.275
249.274
249.273
249.273
249.272
249.271
249.27
249.269
249.268
249.267
249.266
249.266
249.265
249.264
249.263
249.262
249.261
249.26
249.259
249.258
249.258
249.257
249.256
249.255
249.254
249.253
249.252
249.251
249.25
249.25
249.249
249.248
249.247
249.246
249.245
249.244
249.243
249.242
249.242
249.241
249.24
249.239
249.238
249.237
249.236
249.235
249.234
249.234
249.233
249.232
249.231
249.23
249.229
249.228
249.227
249.226
249.225
249.225
249.224
249.223
249.222
249.221
249.22
249.219
249.218
249.217
249.216
249.215
249.215
249.214
249.213
249.212
249.211
249.21
249.209
249.208
249.207
249.206
249.205
249.205
249.204
249.203
249.202
249.201
249.2
249.199
249.198
249.197
249.196
249.195
249.194
249.194
249.193
249.192
249.191
249.19
249.189
249.188
249.187
249.186
249.185
249.184
249.183
249.183
249.182
249.181
249.18
249.179
249.178
249.177
249.176
249.175
249.174
249.173
249.172
249.171
249.17
249.17
249.169
249.168
249.167
249.166
249.165
249.164
249.163
249.162
249.161
249.16
249.159
249.158
249.157
249.156
249.156
249.155
249.154
249.153
249.152
249.151
249.15
249.149
249.148
249.147
249.146
249.145
249.144
249.143
249.142
249.141
249.141
249.14
249.139
249.138
249.137
249.136
249.135
249.134
249.133
249.132
249.131
249.13
249.129
249.128
249.127
249.126
249.125
249.124
249.123
249.122
249.122
249.121
249.12
249.119
249.118
249.117
249.116
249.115
249.114
249.113
249.112
249.111
249.11
249.109
249.108
249.107
249.106
249.105
249.104
249.103
249.102
249.101
249.1
249.1
249.099
249.098
249.097
249.096
249.095
249.094
249.093
249.092
249.091
249.09
249.089
249.088
249.087
249.086
249.085
249.084
249.083
249.082
249.081
249.08
249.079
249.078
249.077
249.076
249.075
249.074
249.073
249.073
249.071
249.071
249.069
249.069
249.067
249.067
249.065
249.065
249.063
249.063
249.061
249.061
249.059
249.059
249.058
249.057
249.056
249.055
249.054
249.053
249.052
249.051
249.05
249.049
249.048
249.047
249.046
249.045
249.044
249.043
249.042
249.041
249.04
249.039
249.038
249.037
249.036
249.035
249.034
249.033
249.032
249.031
249.03
249.029
249.028
249.027
249.026
249.025
249.024
249.023
249.022
249.021
249.02
249.019
249.018
249.017
249.016
249.015
249.014
249.013
249.012
249.011
249.01
249.009
249.008
249.007
249.006
249.005
249.004
249.003
249.002
249.001
249
248.999
248.998
248.997
248.996
248.995
248.994
248.993
248.992
248.991
248.99
248.989
248.988
248.987
248.986
248.985
248.984
248.983
248.982
248.981
248.98
248.979
248.978
248.977
248.976
248.975
248.973
248.972
248.971
248.97
248.969
248.968
248.967
248.966
248.965
248.964
248.963
248.962
248.961
248.96
248.959
248.958
248.957
248.956
248.955
248.954
248.953
248.952
248.951
248.95
248.949
248.948
248.947
248.946
248.945
248.944
248.943
248.942
248.941
248.94
248.939
248.937
248.936
248.935
248.934
248.933
248.932
248.931
248.93
248.929
248.928
248.927
248.926
248.925
248.924
248.923
248.922
248.921
248.92
248.919
248.918
248.917
248.916
248.915
248.913
248.912
248.911
248.91
248.909
248.908
248.907
248.906
248.905
248.904
248.903
248.902
248.901
248.9
248.899
248.898
248.897
248.896
248.895
248.893
248.892
248.891
248.89
248.889
248.888
248.887
248.886
248.885
248.884
248.883
248.882
248.881
248.88
248.879
248.878
248.877
248.875
248.874
248.873
248.872
248.871
248.87
248.869
248.868
248.867
248.866
248.865
248.864
248.863
248.862
248.861
248.859
248.858
248.857
248.856
248.855
248.854
248.853
248.852
248.851
248.85
248.849
248.848
248.847
248.845
248.844
248.843
248.842
248.841
248.84
248.839
248.838
248.837
248.836
248.835
248.834
248.833
248.831
248.83
248.829
248.828
248.827
248.826
248.825
248.824
248.823
248.822
248.821
248.819
248.818
248.817
248.816
248.815
248.814
248.813
248.812
248.811
248.81
248.809
248.807
248.806
248.805
248.804
248.803
248.802
248.801
248.8
248.799
248.798
248.797
248.795
248.794
248.793
248.792
248.791
248.79
248.789
248.788
248.787
248.785
248.784
248.783
248.782
248.781
248.78
248.779
248.778
248.777
248.776
248.774
248.773
248.772
248.771
248.77
248.769
248.768
248.767
248.766
248.764
248.763
248.762
248.761
248.76
248.759
248.758
248.757
248.756
248.754
248.753
248.752
248.751
248.75
248.749
248.748
248.747
248.745
248.744
248.743
248.742
248.741
248.74
248.739
248.738
248.737
248.735
248.734
248.733
248.732
248.731
248.73
248.729
248.728
248.726
248.725
248.724
248.723
248.722
248.721
248.72
248.718
248.717
248.716
248.715
248.714
248.713
248.712
248.711
248.709
248.708
248.707
248.706
248.705
248.704
248.703
248.701
248.7
248.699
248.698
248.697
248.696
248.695
248.693
248.692
248.691
248.69
248.689
248.688
248.687
248.685
248.684
248.683
248.682
248.681
248.68
248.679
248.677
248.676
248.675
248.674
248.673
248.672
248.671
248.669
248.668
248.667
248.666
248.665
248.664
248.662
248.661
248.66
248.659
248.658
248.657
248.656
248.654
248.653
248.652
248.651
248.65
248.649
248.647
248.646
248.645
248.644
248.643
248.642
248.64
248.639
248.638
248.637
248.636
248.635
248.633
248.632
248.631
248.63
248.629
248.628
248.626
248.625
248.624
248.623
248.622
248.621
248.619
248.618
248.617
248.616
248.615
248.614
248.612
248.611
248.61
248.609
248.608
248.607
248.605
248.604
248.603
248.602
248.601
248.599
248.598
248.597
248.596
248.595
248.594
248.592
248.591
248.59
248.589
248.588
248.586
248.585
248.584
248.583
248.582
248.581
248.579
248.578
248.577
248.576
248.575
248.573
248.572
248.571
248.57
248.569
248.567
248.566
248.565
248.564
248.563
248.561
248.56
248.559
248.558
248.557
248.556
248.554
248.553
248.552
248.551
248.55
248.548
248.547
248.546
248.545
248.544
248.542
248.541
248.54
248.539
248.538
248.536
248.535
248.534
248.533
248.531
248.53
248.529
248.528
248.527
248.525
248.524
248.523
248.522
248.521
248.519
248.518
248.517
248.516
248.515
248.513
248.512
248.511
248.51
248.508
248.507
248.506
248.505
248.504
248.502
248.501
248.5
248.499
248.498
248.496
248.495
248.494
248.493
248.491
248.49
248.489
248.488
248.487
248.485
248.484
248.483
248.482
248.48
248.479
248.478
248.477
248.476
248.474
248.473
248.472
248.471
248.469
248.468
248.467
248.466
248.464
248.463
248.462
248.461
248.46
248.458
248.457
248.456
248.455
248.453
248.452
248.451
248.45
248.448
248.447
248.446
248.445
248.443
248.442
248.441
248.44
248.438
248.437
248.436
248.435
248.433
248.432
248.431
248.43
248.429
248.427
248.426
248.425
248.424
248.422
248.421
248.42
248.419
248.417
248.416
248.415
248.414
248.412
248.411
248.41
248.409
248.407
248.406
248.405
248.403
248.402
248.401
248.4
248.398
248.397
248.396
248.395
248.393
248.392
248.391
248.39
248.388
248.387
248.386
248.385
248.383
248.382
248.381
248.38
248.378
248.377
248.376
248.374
248.373
248.372
248.371
248.369
248.368
248.367
248.366
248.364
248.363
248.362
248.361
248.359
248.358
248.357
248.355
248.354
248.353
248.352
248.35
248.349
248.348
248.347
248.345
248.344
248.343
248.341
248.34
248.339
248.338
248.336
248.335
248.334
248.332
248.331
248.33
248.329
248.327
248.326
248.325
248.323
248.322
248.321
248.32
248.318
248.317
248.316
248.314
248.313
248.312
248.311
248.309
248.308
248.307
248.305
248.304
248.303
248.302
248.3
248.299
248.298
248.296
248.295
248.294
248.292
248.291
248.29
248.289
248.287
248.286
248.285
248.283
248.282
248.281
248.279
248.278
248.277
248.276
248.274
248.273
248.272
248.27
248.269
248.268
248.266
248.265
248.264
248.263
248.261
248.26
248.259
248.257
248.256
248.255
248.253
248.252
248.251
248.249
248.248
248.247
248.245
248.244
248.243
248.242
248.24
248.239
248.238
248.236
248.235
248.234
248.232
248.231
248.23
248.228
248.227
248.226
248.224
248.223
248.222
248.22
248.219
248.218
248.216
248.215
248.214
248.212
248.211
248.21
248.209
248.207
248.206
248.205
248.203
248.202
248.201
248.199
248.198
248.197
248.195
248.194
248.193
248.191
248.19
248.189
248.187
248.186
248.185
248.183
248.182
248.181
248.179
248.178
248.177
248.175
248.174
248.172
248.171
248.17
248.168
248.167
248.166
248.164
248.163
248.162
248.16
248.159
248.158
248.156
248.155
248.154
248.152
248.151
248.15
248.148
248.147
248.146
248.144
248.143
248.142
248.14
248.139
248.137
248.136
248.135
248.133
248.132
248.131
248.129
248.128
248.127
248.125
248.124
248.123
248.121
248.12
248.119
248.117
248.116
248.114
248.113
248.112
248.11
248.109
248.108
248.106
248.105
248.104
248.102
248.101
248.099
248.098
248.097
248.095
248.094
248.093
248.091
248.09
248.088
248.087
248.086
248.084
248.083
248.082
248.08
248.079
248.078
248.076
248.075
248.073
248.072
248.071
248.069
248.068
248.066
248.065
248.064
248.062
248.061
248.06
248.058
248.057
248.055
248.054
248.053
248.051
248.05
248.049
248.047
248.046
248.044
248.043
248.042
248.04
248.039
248.037
248.036
248.035
248.033
248.032
248.031
248.029
248.028
248.026
248.025
248.024
248.022
248.021
248.019
248.018
248.017
248.015
248.014
248.012
248.011
248.01
248.008
248.007
248.005
248.004
248.003
248.001
248
247.998
247.997
247.996
247.994
247.993
247.991
247.99
247.989
247.987
247.986
247.984
247.983
247.982
247.98
247.979
247.977
247.976
247.975
247.973
247.972
247.97
247.969
247.967
247.966
247.965
247.963
247.962
247.96
247.959
247.958
247.956
247.955
247.953
247.952
247.95
247.949
247.948
247.946
247.945
247.943
247.942
247.941
247.939
247.938
247.936
247.935
247.933
247.932
247.931
247.929
247.928
247.926
247.925
247.923
247.922
247.921
247.919
247.918
247.916
247.915
247.913
247.912
247.911
247.909
247.908
247.906
247.905
247.903
247.902
247.901
247.899
247.898
247.896
247.895
247.893
247.892
247.891
247.889
247.888
247.886
247.885
247.883
247.882
247.88
247.879
247.878
247.876
247.875
247.873
247.872
247.87
247.869
247.867
247.866
247.865
247.863
247.862
247.86
247.859
247.857
247.856
247.854
247.853
247.851
247.85
247.849
247.847
247.846
247.844
247.843
247.841
247.84
247.838
247.837
247.836
247.834
247.833
247.831
247.83
247.828
247.827
247.825
247.824
247.822
247.821
247.819
247.818
247.817
247.815
247.814
247.812
247.811
247.809
247.808
247.806
247.805
247.803
247.802
247.8
247.799
247.797
247.796
247.795
247.793
247.792
247.79
247.789
247.787
247.786
247.784
247.783
247.781
247.78
247.778
247.777
247.775
247.774
247.772
247.771
247.769
247.768
247.767
247.765
247.764
247.762
247.761
247.759
247.758
247.756
247.755
247.753
247.752
247.75
247.749
247.747
247.746
247.744
247.743
247.741
247.74
247.738
247.737
247.735
247.734
247.732
247.731
247.729
247.728
247.726
247.725
247.723
247.722
247.72
247.719
247.717
247.716
247.714
247.713
247.711
247.71
247.708
247.707
247.705
247.704
247.702
247.701
247.699
247.698
247.696
247.695
247.693
247.692
247.69
247.689
247.687
247.686
247.684
247.683
247.681
247.68
247.678
247.677
247.675
247.674
247.672
247.671
247.669
247.668
247.666
247.665
247.663
247.662
247.66
247.659
247.657
247.656
247.654
247.653
247.651
247.65
247.648
247.647
247.645
247.644
247.642
247.64
247.639
247.637
247.636
247.634
247.633
247.631
247.63
247.628
247.627
247.625
247.624
247.622
247.621
247.619
247.618
247.616
247.615
247.613
247.612
247.61
247.608
247.607
247.605
247.604
247.602
247.601
247.599
247.598
247.596
247.595
247.593
247.592
247.59
247.589
247.587
247.585
247.584
247.582
247.581
247.579
247.578
247.576
247.575
247.573
247.572
247.57
247.568
247.567
247.565
247.564
247.562
247.561
247.559
247.558
247.556
247.555
247.553
247.551
247.55
247.548
247.547
247.545
247.544
247.542
247.541
247.539
247.538
247.536
247.534
247.533
247.531
247.53
247.528
247.527
247.525
247.524
247.522
247.52
247.519
247.517
247.516
247.514
247.513
247.511
247.509
247.508
247.506
247.505
247.503
247.502
247.5
247.499
247.497
247.495
247.494
247.492
247.491
247.489
247.488
247.486
247.484
247.483
247.481
247.48
247.478
247.477
247.475
247.473
247.472
247.47
247.469
247.467
247.466
247.464
247.462
247.461
247.459
247.458
247.456
247.454
247.453
247.451
247.45
247.448
247.447
247.445
247.443
247.442
247.44
247.439
247.437
247.436
247.434
247.432
247.431
247.429
247.428
247.426
247.424
247.423
247.421
247.42
247.418
247.416
247.415
247.413
247.412
247.41
247.408
247.407
247.405
247.404
247.402
247.401
247.399
247.397
247.396
247.394
247.393
247.391
247.389
247.388
247.386
247.385
247.383
247.381
247.38
247.378
247.377
247.375
247.373
247.372
247.37
247.368
247.367
247.365
247.364
247.362
247.36
247.359
247.357
247.356
247.354
247.352
247.351
247.349
247.348
247.346
247.344
247.343
247.341
247.339
247.338
247.336
247.335
247.333
247.331
247.33
247.328
247.327
247.325
247.323
247.322
247.32
247.318
247.317
247.315
247.314
247.312
247.31
247.309
247.307
247.305
247.304
247.302
247.301
247.299
247.297
247.296
247.294
247.292
247.291
247.289
247.288
247.286
247.284
247.283
247.281
247.279
247.278
247.276
247.275
247.273
247.271
247.27
247.268
247.266
247.265
247.263
247.261
247.26
247.258
247.256
247.255
247.253
247.252
247.25
247.248
247.247
247.245
247.243
247.242
247.24
247.238
247.237
247.235
247.233
247.232
247.23
247.229
247.227
247.225
247.224
247.222
247.22
247.219
247.217
247.215
247.214
247.212
247.21
247.209
247.207
247.205
247.204
247.202
247.2
247.199
247.197
247.195
247.194
247.192
247.19
247.189
247.187
247.186
247.184
247.182
247.181
247.179
247.177
247.176
247.174
247.172
247.171
247.169
247.167
247.166
247.164
247.162
247.161
247.159
247.157
247.156
247.154
247.152
247.151
247.149
247.147
247.145
247.144
247.142
247.14
247.139
247.137
247.135
247.134
247.132
247.13
247.129
247.127
247.125
247.124
247.122
247.12
247.119
247.117
247.115
247.114
247.112
247.11
247.109
247.107
247.105
247.104
247.102
247.1
247.098
247.097
247.095
247.093
247.092
247.09
247.088
247.087
247.085
247.083
247.082
247.08
247.078
247.076
247.075
247.073
247.071
247.07
247.068
247.066
247.065
247.063
247.061
247.06
247.058
247.056
247.054
247.053
247.051
247.049
247.048
247.046
247.044
247.042
247.041
247.039
247.037
247.036
247.034
247.032
247.031
247.029
247.027
247.025
247.024
247.022
247.02
247.019
247.017
247.015
247.013
247.012
247.01
247.008
247.007
247.005
247.003
247.001
247
246.998
246.996
246.995
246.993
246.991
246.989
246.988
246.986
246.984
246.983
246.981
246.979
246.977
246.976
246.974
246.972
246.971
246.969
246.967
246.965
246.964
246.962
246.96
246.958
246.957
246.955
246.953
246.952
246.95
246.948
246.946
246.945
246.943
246.941
246.939
246.938
246.936
246.934
246.932
246.931
246.929
246.927
246.926
246.924
246.922
246.92
246.919
246.917
246.915
246.913
246.912
246.91
246.908
246.906
246.905
246.903
246.901
246.899
246.898
246.896
246.894
246.892
246.891
246.889
246.887
246.885
246.884
246.882
246.88
246.878
246.877
246.875
246.873
246.871
246.87
246.868
246.866
246.864
246.863
246.861
246.859
246.857
246.856
246.854
246.852
246.85
246.849
246.847
246.845
246.843
246.842
246.84
246.838
246.836
246.835
246.833
246.831
246.829
246.827
246.826
246.824
246.822
246.82
246.819
246.817
246.815
246.813
246.812
246.81
246.808
246.806
246.804
246.803
246.801
246.799
246.797
246.796
246.794
246.792
246.79
246.788
246.787
246.785
246.783
246.781
246.78
246.778
246.776
246.774
246.772
246.771
246.769
246.767
246.765
246.764
246.762
246.76
246.758
246.756
246.755
246.753
246.751
246.749
246.748
246.746
246.744
246.742
246.74
246.739
246.737
246.735
246.733
246.731
246.73
246.728
246.726
246.724
246.722
246.721
246.719
246.717
246.715
246.713
246.712
246.71
246.708
246.706
246.704
246.703
246.701
246.699
246.697
246.695
246.694
246.692
246.69
246.688
246.686
246.685
246.683
246.681
246.679
246.677
246.676
246.674
246.672
246.67
246.668
246.667
246.665
246.663
246.661
246.659
246.658
246.656
246.654
246.652
246.65
246.648
246.647
246.645
246.643
246.641
246.639
246.638
246.636
246.634
246.632
246.63
246.628
246.627
246.625
246.623
246.621
246.619
246.618
246.616
246.614
246.612
246.61
246.608
246.607
246.605
246.603
246.601
246.599
246.597
246.596
246.594
246.592
246.59
246.588
246.586
246.585
246.583
246.581
246.579
246.577
246.575
246.574
246.572
246.57
246.568
246.566
246.564
246.563
246.561
246.559
246.557
246.555
246.553
246.552
246.55
246.548
246.546
246.544
246.542
246.541
246.539
246.537
246.535
246.533
246.531
246.529
246.528
246.526
246.524
246.522
246.52
246.518
246.517
246.515
246.513
246.511
246.509
246.507
246.505
246.504
246.502
246.5
246.498
246.496
246.494
246.492
246.491
246.489
246.487
246.485
246.483
246.481
246.479
246.478
246.476
246.474
246.472
246.47
246.468
246.466
246.465
246.463
246.461
246.459
246.457
246.455
246.453
246.451
246.45
246.448
246.446
246.444
246.442
246.44
246.438
246.436
246.435
246.433
246.431
246.429
246.427
246.425
246.423
246.422
246.42
246.418
246.416
246.414
246.412
246.41
246.408
246.406
246.405
246.403
246.401
246.399
246.397
246.395
246.393
246.391
246.39
246.388
246.386
246.384
246.382
246.38
246.378
246.376
246.374
246.373
246.371
246.369
246.367
246.365
246.363
246.361
246.359
246.357
246.356
246.354
246.352
246.35
246.348
246.346
246.344
246.342
246.34
246.339
246.337
246.335
246.333
246.331
246.329
246.327
246.325
246.323
246.321
246.32
246.318
246.316
246.314
246.312
246.31
246.308
246.306
246.304
246.302
246.3
246.299
246.297
246.295
246.293
246.291
246.289
246.287
246.285
246.283
246.281
246.279
246.278
246.276
246.274
246.272
246.27
246.268
246.266
246.264
246.262
246.26
246.258
246.256
246.255
246.253
246.251
246.249
246.247
246.245
246.243
246.241
246.239
246.237
246.235
246.233
246.232
246.23
246.228
246.226
246.224
246.222
246.22
246.218
246.216
246.214
246.212
246.21
246.208
246.206
246.205
246.203
246.201
246.199
246.197
246.195
246.193
246.191
246.189
246.187
246.185
246.183
246.181
246.179
246.177
246.175
246.174
246.172
246.17
246.168
246.166
246.164
246.162
246.16
246.158
246.156
246.154
246.152
246.15
246.148
246.146
246.144
246.142
246.141
246.139
246.137
246.135
246.133
246.131
246.129
246.127
246.125
246.123
246.121
246.119
246.117
246.115
246.113
246.111
246.109
246.107
246.105
246.103
246.101
246.1
246.098
246.096
246.094
246.092
246.09
246.088
246.086
246.084
246.082
246.08
246.078
246.076
246.074
246.072
246.07
246.068
246.066
246.064
246.062
246.06
246.058
246.056
246.054
246.052
246.05
246.048
246.046
246.045
246.043
246.041
246.039
246.037
246.035
246.033
246.031
246.029
246.027
246.025
246.023
246.021
246.019
246.017
246.015
246.013
246.011
246.009
246.007
246.005
246.003
246.001
245.999
245.997
245.995
245.993
245.991
245.989
245.987
245.985
245.983
245.981
245.979
245.977
245.975
245.973
245.971
245.969
245.967
245.965
245.963
245.961
245.959
245.957
245.955
245.953
245.951
245.949
245.947
245.945
245.943
245.941
245.939
245.937
245.935
245.933
245.931
245.929
245.927
245.925
245.923
245.921
245.919
245.917
245.915
245.913
245.911
245.909
245.907
245.905
245.903
245.901
245.899
245.897
245.895
245.893
245.891
245.889
245.887
245.885
245.883
245.881
245.879
245.877
245.875
245.873
245.871
245.869
245.867
245.865
245.863
245.861
245.859
245.857
245.855
245.853
245.851
245.849
245.847
245.845
245.843
245.841
245.839
245.837
245.835
245.833
245.831
245.829
245.827
245.825
245.823
245.821
245.819
245.817
245.815
245.813
245.811
245.809
245.807
245.805
245.803
245.801
245.799
245.797
245.795
245.792
245.79
245.788
245.786
245.784
245.782
245.78
245.778
245.776
245.774
245.772
245.77
245.768
245.766
245.764
245.762
245.76
245.758
245.756
245.754
245.752
245.75
245.748
245.746
245.744
245.742
245.74
245.738
245.735
245.733
245.731
245.729
245.727
245.725
245.723
245.721
245.719
245.717
245.715
245.713
245.711
245.709
245.707
245.705
245.703
245.701
245.699
245.697
245.695
245.692
245.69
245.688
245.686
245.684
245.682
245.68
245.678
245.676
245.674
245.672
245.67
245.668
245.666
245.664
245.662
245.66
245.658
245.655
245.653
245.651
245.649
245.647
245.645
245.643
245.641
245.639
245.637
245.635
245.633
245.631
245.629
245.627
245.625
245.622
245.62
245.618
245.616
245.614
245.612
245.61
245.608
245.606
245.604
245.602
245.6
245.598
245.596
245.593
245.591
245.589
245.587
245.585
245.583
245.581
245.579
245.577
245.575
245.573
245.571
245.569
245.567
245.564
245.562
245.56
245.558
245.556
245.554
245.552
245.55
245.548
245.546
245.544
245.542
245.539
245.537
245.535
245.533
245.531
245.529
245.527
245.525
245.523
245.521
245.519
245.517
245.514
245.512
245.51
245.508
245.506
245.504
245.502
245.5
245.498
245.496
245.494
245.491
245.489
245.487
245.485
245.483
245.481
245.479
245.477
245.475
245.473
245.47
245.468
245.466
245.464
245.462
245.46
245.458
245.456
245.454
245.452
245.449
245.447
245.445
245.443
245.441
245.439
245.437
245.435
245.433
245.431
245.428
245.426
245.424
245.422
245.42
245.418
245.416
245.414
245.412
245.409
245.407
245.405
245.403
245.401
245.399
245.397
245.395
245.393
245.39
245.388
245.386
245.384
245.382