/*--------------------------------*- C++ -*----------------------------------*\
  =========                 |
  \\      /  F ield         | OpenFOAM: The Open Source CFD Toolbox
   \\    /   O peration     | Website:  https://openfoam.org
    \\  /    A nd           | Version:  9
     \\/     M anipulation  |
\*---------------------------------------------------------------------------*/
FoamFile
{
    format      ascii;
    class       volVectorField;
    location    "0.023";
    object      U;
}
// * * * * * * * * * * * * * * * * * * * * * * * * * * * * * * * * * * * * * //

dimensions      [0 1 -1 0 0 0 0];

internalField   nonuniform List<vector> 
10000
(
(2.63671 0 0)
(2.72301 0 0)
(2.79296 0 0)
(2.85235 0 0)
(2.91147 0 0)
(2.97228 0 0)
(3.03374 0 0)
(3.0951 0 0)
(3.15629 0 0)
(3.21744 0 0)
(3.27859 0 0)
(3.33976 0 0)
(3.40095 0 0)
(3.46214 0 0)
(3.52333 0 0)
(3.58453 0 0)
(3.64574 0 0)
(3.70694 0 0)
(3.76813 0 0)
(3.82933 0 0)
(3.89051 0 0)
(3.9517 0 0)
(4.01289 0 0)
(4.07407 0 0)
(4.13525 0 0)
(4.19644 0 0)
(4.25762 0 0)
(4.31881 0 0)
(4.37999 0 0)
(4.44118 0 0)
(4.50236 0 0)
(4.56355 0 0)
(4.62473 0 0)
(4.68592 0 0)
(4.7471 0 0)
(4.80829 0 0)
(4.86948 0 0)
(4.93067 0 0)
(4.99185 0 0)
(5.05304 0 0)
(5.11423 0 0)
(5.17542 0 0)
(5.23661 0 0)
(5.2978 0 0)
(5.35899 0 0)
(5.42018 0 0)
(5.48137 0 0)
(5.54256 0 0)
(5.60375 0 0)
(5.66494 0 0)
(5.72614 0 0)
(5.78733 0 0)
(5.84852 0 0)
(5.90971 0 0)
(5.97091 0 0)
(6.0321 0 0)
(6.0933 0 0)
(6.15449 0 0)
(6.21568 0 0)
(6.27688 0 0)
(6.33808 0 0)
(6.39927 0 0)
(6.46047 0 0)
(6.52166 0 0)
(6.58286 0 0)
(6.64406 0 0)
(6.70526 0 0)
(6.76646 0 0)
(6.82765 0 0)
(6.88885 0 0)
(6.95005 0 0)
(7.01125 0 0)
(7.07245 0 0)
(7.13365 0 0)
(7.19485 0 0)
(7.25605 0 0)
(7.31726 0 0)
(7.37846 0 0)
(7.43966 0 0)
(7.50086 0 0)
(7.56206 0 0)
(7.62327 0 0)
(7.68447 0 0)
(7.74568 0 0)
(7.80688 0 0)
(7.86808 0 0)
(7.92929 0 0)
(7.99049 0 0)
(8.0517 0 0)
(8.11291 0 0)
(8.17411 0 0)
(8.23532 0 0)
(8.29653 0 0)
(8.35773 0 0)
(8.41894 0 0)
(8.48015 0 0)
(8.54136 0 0)
(8.60257 0 0)
(8.66378 0 0)
(8.72499 0 0)
(8.7862 0 0)
(8.84741 0 0)
(8.90862 0 0)
(8.96983 0 0)
(9.03104 0 0)
(9.09225 0 0)
(9.15347 0 0)
(9.21468 0 0)
(9.27589 0 0)
(9.3371 0 0)
(9.39832 0 0)
(9.45953 0 0)
(9.52075 0 0)
(9.58196 0 0)
(9.64318 0 0)
(9.70439 0 0)
(9.76561 0 0)
(9.82682 0 0)
(9.88804 0 0)
(9.94926 0 0)
(10.0105 0 0)
(10.0717 0 0)
(10.1329 0 0)
(10.1941 0 0)
(10.2553 0 0)
(10.3166 0 0)
(10.3778 0 0)
(10.439 0 0)
(10.5002 0 0)
(10.5614 0 0)
(10.6227 0 0)
(10.6839 0 0)
(10.7451 0 0)
(10.8063 0 0)
(10.8676 0 0)
(10.9288 0 0)
(10.99 0 0)
(11.0512 0 0)
(11.1124 0 0)
(11.1737 0 0)
(11.2349 0 0)
(11.2961 0 0)
(11.3573 0 0)
(11.4186 0 0)
(11.4798 0 0)
(11.541 0 0)
(11.6023 0 0)
(11.6635 0 0)
(11.7247 0 0)
(11.7859 0 0)
(11.8472 0 0)
(11.9084 0 0)
(11.9696 0 0)
(12.0308 0 0)
(12.0921 0 0)
(12.1533 0 0)
(12.2145 0 0)
(12.2758 0 0)
(12.337 0 0)
(12.3982 0 0)
(12.4595 0 0)
(12.5207 0 0)
(12.5819 0 0)
(12.6432 0 0)
(12.7044 0 0)
(12.7656 0 0)
(12.8269 0 0)
(12.8881 0 0)
(12.9493 0 0)
(13.0106 0 0)
(13.0718 0 0)
(13.133 0 0)
(13.1943 0 0)
(13.2555 0 0)
(13.3167 0 0)
(13.378 0 0)
(13.4392 0 0)
(13.5005 0 0)
(13.5617 0 0)
(13.6229 0 0)
(13.6842 0 0)
(13.7454 0 0)
(13.8066 0 0)
(13.8679 0 0)
(13.9291 0 0)
(13.9904 0 0)
(14.0516 0 0)
(14.1129 0 0)
(14.1741 0 0)
(14.2353 0 0)
(14.2966 0 0)
(14.3578 0 0)
(14.4191 0 0)
(14.4803 0 0)
(14.5416 0 0)
(14.6028 0 0)
(14.664 0 0)
(14.7253 0 0)
(14.7865 0 0)
(14.8478 0 0)
(14.909 0 0)
(14.9703 0 0)
(15.0315 0 0)
(15.0928 0 0)
(15.154 0 0)
(15.2153 0 0)
(15.2765 0 0)
(15.3378 0 0)
(15.399 0 0)
(15.4603 0 0)
(15.5215 0 0)
(15.5828 0 0)
(15.644 0 0)
(15.7053 0 0)
(15.7665 0 0)
(15.8278 0 0)
(15.889 0 0)
(15.9503 0 0)
(16.0115 0 0)
(16.0728 0 0)
(16.134 0 0)
(16.1953 0 0)
(16.2565 0 0)
(16.3178 0 0)
(16.379 0 0)
(16.4403 0 0)
(16.5015 0 0)
(16.5628 0 0)
(16.6241 0 0)
(16.6853 0 0)
(16.7466 0 0)
(16.8078 0 0)
(16.8691 0 0)
(16.9303 0 0)
(16.9916 0 0)
(17.0529 0 0)
(17.1141 0 0)
(17.1754 0 0)
(17.2366 0 0)
(17.2979 0 0)
(17.3592 0 0)
(17.4204 0 0)
(17.4817 0 0)
(17.5429 0 0)
(17.6042 0 0)
(17.6655 0 0)
(17.7267 0 0)
(17.788 0 0)
(17.8493 0 0)
(17.9105 0 0)
(17.9718 0 0)
(18.033 0 0)
(18.0943 0 0)
(18.1556 0 0)
(18.2168 0 0)
(18.2781 0 0)
(18.3394 0 0)
(18.4006 0 0)
(18.4619 0 0)
(18.5232 0 0)
(18.5844 0 0)
(18.6457 0 0)
(18.707 0 0)
(18.7682 0 0)
(18.8295 0 0)
(18.8908 0 0)
(18.9521 0 0)
(19.0133 0 0)
(19.0746 0 0)
(19.1359 0 0)
(19.1971 0 0)
(19.2584 0 0)
(19.3197 0 0)
(19.3809 0 0)
(19.4422 0 0)
(19.5035 0 0)
(19.5648 0 0)
(19.626 0 0)
(19.6873 0 0)
(19.7486 0 0)
(19.8099 0 0)
(19.8711 0 0)
(19.9324 0 0)
(19.9937 0 0)
(20.055 0 0)
(20.1162 0 0)
(20.1775 0 0)
(20.2388 0 0)
(20.3001 0 0)
(20.3614 0 0)
(20.4226 0 0)
(20.4839 0 0)
(20.5452 0 0)
(20.6065 0 0)
(20.6677 0 0)
(20.729 0 0)
(20.7903 0 0)
(20.8516 0 0)
(20.9129 0 0)
(20.9741 0 0)
(21.0354 0 0)
(21.0967 0 0)
(21.158 0 0)
(21.2193 0 0)
(21.2806 0 0)
(21.3418 0 0)
(21.4031 0 0)
(21.4644 0 0)
(21.5257 0 0)
(21.587 0 0)
(21.6483 0 0)
(21.7096 0 0)
(21.7708 0 0)
(21.8321 0 0)
(21.8934 0 0)
(21.9547 0 0)
(22.016 0 0)
(22.0773 0 0)
(22.1386 0 0)
(22.1998 0 0)
(22.2611 0 0)
(22.3224 0 0)
(22.3837 0 0)
(22.445 0 0)
(22.5063 0 0)
(22.5676 0 0)
(22.6289 0 0)
(22.6902 0 0)
(22.7515 0 0)
(22.8128 0 0)
(22.874 0 0)
(22.9353 0 0)
(22.9966 0 0)
(23.0579 0 0)
(23.1192 0 0)
(23.1805 0 0)
(23.2418 0 0)
(23.3031 0 0)
(23.3644 0 0)
(23.4257 0 0)
(23.487 0 0)
(23.5483 0 0)
(23.6096 0 0)
(23.6709 0 0)
(23.7322 0 0)
(23.7935 0 0)
(23.8548 0 0)
(23.9161 0 0)
(23.9774 0 0)
(24.0387 0 0)
(24.1 0 0)
(24.1613 0 0)
(24.2226 0 0)
(24.2839 0 0)
(24.3452 0 0)
(24.4065 0 0)
(24.4678 0 0)
(24.5291 0 0)
(24.5904 0 0)
(24.6517 0 0)
(24.713 0 0)
(24.7743 0 0)
(24.8356 0 0)
(24.8969 0 0)
(24.9582 0 0)
(25.0195 0 0)
(25.0808 0 0)
(25.1421 0 0)
(25.2034 0 0)
(25.2647 0 0)
(25.326 0 0)
(25.3873 0 0)
(25.4486 0 0)
(25.51 0 0)
(25.5713 0 0)
(25.6326 0 0)
(25.6939 0 0)
(25.7552 0 0)
(25.8165 0 0)
(25.8778 0 0)
(25.9391 0 0)
(26.0004 0 0)
(26.0617 0 0)
(26.123 0 0)
(26.1844 0 0)
(26.2457 0 0)
(26.307 0 0)
(26.3683 0 0)
(26.4296 0 0)
(26.4909 0 0)
(26.5522 0 0)
(26.6135 0 0)
(26.6749 0 0)
(26.7362 0 0)
(26.7975 0 0)
(26.8588 0 0)
(26.9201 0 0)
(26.9814 0 0)
(27.0428 0 0)
(27.1041 0 0)
(27.1654 0 0)
(27.2267 0 0)
(27.288 0 0)
(27.3493 0 0)
(27.4107 0 0)
(27.472 0 0)
(27.5333 0 0)
(27.5946 0 0)
(27.6559 0 0)
(27.7173 0 0)
(27.7786 0 0)
(27.8399 0 0)
(27.9012 0 0)
(27.9625 0 0)
(28.0239 0 0)
(28.0852 0 0)
(28.1465 0 0)
(28.2078 0 0)
(28.2692 0 0)
(28.3305 0 0)
(28.3918 0 0)
(28.4531 0 0)
(28.5145 0 0)
(28.5758 0 0)
(28.6371 0 0)
(28.6984 0 0)
(28.7598 0 0)
(28.8211 0 0)
(28.8824 0 0)
(28.9437 0 0)
(29.0051 0 0)
(29.0664 0 0)
(29.1277 0 0)
(29.189 0 0)
(29.2504 0 0)
(29.3117 0 0)
(29.373 0 0)
(29.4344 0 0)
(29.4957 0 0)
(29.557 0 0)
(29.6184 0 0)
(29.6797 0 0)
(29.741 0 0)
(29.8024 0 0)
(29.8637 0 0)
(29.925 0 0)
(29.9864 0 0)
(30.0477 0 0)
(30.109 0 0)
(30.1704 0 0)
(30.2317 0 0)
(30.293 0 0)
(30.3544 0 0)
(30.4157 0 0)
(30.477 0 0)
(30.5384 0 0)
(30.5997 0 0)
(30.661 0 0)
(30.7224 0 0)
(30.7837 0 0)
(30.8451 0 0)
(30.9064 0 0)
(30.9677 0 0)
(31.0291 0 0)
(31.0904 0 0)
(31.1518 0 0)
(31.2131 0 0)
(31.2744 0 0)
(31.3358 0 0)
(31.3971 0 0)
(31.4585 0 0)
(31.5198 0 0)
(31.5811 0 0)
(31.6425 0 0)
(31.7038 0 0)
(31.7652 0 0)
(31.8265 0 0)
(31.8879 0 0)
(31.9492 0 0)
(32.0105 0 0)
(32.0719 0 0)
(32.1332 0 0)
(32.1946 0 0)
(32.2559 0 0)
(32.3173 0 0)
(32.3786 0 0)
(32.44 0 0)
(32.5013 0 0)
(32.5627 0 0)
(32.624 0 0)
(32.6854 0 0)
(32.7467 0 0)
(32.8081 0 0)
(32.8694 0 0)
(32.9308 0 0)
(32.9921 0 0)
(33.0535 0 0)
(33.1148 0 0)
(33.1762 0 0)
(33.2375 0 0)
(33.2989 0 0)
(33.3602 0 0)
(33.4216 0 0)
(33.4829 0 0)
(33.5443 0 0)
(33.6056 0 0)
(33.667 0 0)
(33.7283 0 0)
(33.7897 0 0)
(33.8511 0 0)
(33.9124 0 0)
(33.9738 0 0)
(34.0351 0 0)
(34.0965 0 0)
(34.1578 0 0)
(34.2192 0 0)
(34.2805 0 0)
(34.3419 0 0)
(34.4033 0 0)
(34.4646 0 0)
(34.526 0 0)
(34.5873 0 0)
(34.6487 0 0)
(34.7101 0 0)
(34.7714 0 0)
(34.8328 0 0)
(34.8941 0 0)
(34.9555 0 0)
(35.0169 0 0)
(35.0782 0 0)
(35.1396 0 0)
(35.201 0 0)
(35.2623 0 0)
(35.3237 0 0)
(35.385 0 0)
(35.4464 0 0)
(35.5078 0 0)
(35.5691 0 0)
(35.6305 0 0)
(35.6919 0 0)
(35.7532 0 0)
(35.8146 0 0)
(35.876 0 0)
(35.9373 0 0)
(35.9987 0 0)
(36.0601 0 0)
(36.1214 0 0)
(36.1828 0 0)
(36.2442 0 0)
(36.3055 0 0)
(36.3669 0 0)
(36.4283 0 0)
(36.4897 0 0)
(36.551 0 0)
(36.6124 0 0)
(36.6738 0 0)
(36.7351 0 0)
(36.7965 0 0)
(36.8579 0 0)
(36.9193 0 0)
(36.9806 0 0)
(37.042 0 0)
(37.1034 0 0)
(37.1648 0 0)
(37.2261 0 0)
(37.2875 0 0)
(37.3489 0 0)
(37.4103 0 0)
(37.4716 0 0)
(37.533 0 0)
(37.5944 0 0)
(37.6558 0 0)
(37.7171 0 0)
(37.7785 0 0)
(37.8399 0 0)
(37.9013 0 0)
(37.9626 0 0)
(38.024 0 0)
(38.0854 0 0)
(38.1468 0 0)
(38.2082 0 0)
(38.2695 0 0)
(38.3309 0 0)
(38.3923 0 0)
(38.4537 0 0)
(38.5151 0 0)
(38.5765 0 0)
(38.6378 0 0)
(38.6992 0 0)
(38.7606 0 0)
(38.822 0 0)
(38.8834 0 0)
(38.9448 0 0)
(39.0061 0 0)
(39.0675 0 0)
(39.1289 0 0)
(39.1903 0 0)
(39.2517 0 0)
(39.3131 0 0)
(39.3745 0 0)
(39.4358 0 0)
(39.4972 0 0)
(39.5586 0 0)
(39.62 0 0)
(39.6814 0 0)
(39.7428 0 0)
(39.8042 0 0)
(39.8656 0 0)
(39.9269 0 0)
(39.9883 0 0)
(40.0497 0 0)
(40.1111 0 0)
(40.1725 0 0)
(40.2339 0 0)
(40.2953 0 0)
(40.3567 0 0)
(40.4181 0 0)
(40.4795 0 0)
(40.5409 0 0)
(40.6023 0 0)
(40.6637 0 0)
(40.725 0 0)
(40.7864 0 0)
(40.8478 0 0)
(40.9092 0 0)
(40.9706 0 0)
(41.032 0 0)
(41.0934 0 0)
(41.1548 0 0)
(41.2162 0 0)
(41.2776 0 0)
(41.339 0 0)
(41.4004 0 0)
(41.4618 0 0)
(41.5232 0 0)
(41.5846 0 0)
(41.646 0 0)
(41.7074 0 0)
(41.7688 0 0)
(41.8302 0 0)
(41.8916 0 0)
(41.953 0 0)
(42.0144 0 0)
(42.0758 0 0)
(42.1372 0 0)
(42.1986 0 0)
(42.26 0 0)
(42.3214 0 0)
(42.3828 0 0)
(42.4442 0 0)
(42.5056 0 0)
(42.567 0 0)
(42.6284 0 0)
(42.6898 0 0)
(42.7512 0 0)
(42.8127 0 0)
(42.8741 0 0)
(42.9355 0 0)
(42.9969 0 0)
(43.0583 0 0)
(43.1197 0 0)
(43.1811 0 0)
(43.2425 0 0)
(43.3039 0 0)
(43.3653 0 0)
(43.4267 0 0)
(43.4881 0 0)
(43.5496 0 0)
(43.611 0 0)
(43.6724 0 0)
(43.7338 0 0)
(43.7952 0 0)
(43.8566 0 0)
(43.918 0 0)
(43.9794 0 0)
(44.0408 0 0)
(44.1023 0 0)
(44.1637 0 0)
(44.2251 0 0)
(44.2865 0 0)
(44.3479 0 0)
(44.4093 0 0)
(44.4707 0 0)
(44.5322 0 0)
(44.5936 0 0)
(44.655 0 0)
(44.7164 0 0)
(44.7778 0 0)
(44.8392 0 0)
(44.9007 0 0)
(44.9621 0 0)
(45.0235 0 0)
(45.0849 0 0)
(45.1463 0 0)
(45.2078 0 0)
(45.2692 0 0)
(45.3306 0 0)
(45.392 0 0)
(45.4534 0 0)
(45.5149 0 0)
(45.5763 0 0)
(45.6377 0 0)
(45.6991 0 0)
(45.7605 0 0)
(45.822 0 0)
(45.8834 0 0)
(45.9448 0 0)
(46.0062 0 0)
(46.0677 0 0)
(46.1291 0 0)
(46.1905 0 0)
(46.2519 0 0)
(46.3134 0 0)
(46.3748 0 0)
(46.4362 0 0)
(46.4976 0 0)
(46.5591 0 0)
(46.6205 0 0)
(46.6819 0 0)
(46.7434 0 0)
(46.8048 0 0)
(46.8662 0 0)
(46.9276 0 0)
(46.9891 0 0)
(47.0505 0 0)
(47.1119 0 0)
(47.1734 0 0)
(47.2348 0 0)
(47.2962 0 0)
(47.3577 0 0)
(47.4191 0 0)
(47.4805 0 0)
(47.542 0 0)
(47.6034 0 0)
(47.6648 0 0)
(47.7263 0 0)
(47.7877 0 0)
(47.8491 0 0)
(47.9106 0 0)
(47.972 0 0)
(48.0334 0 0)
(48.0949 0 0)
(48.1563 0 0)
(48.2177 0 0)
(48.2792 0 0)
(48.3406 0 0)
(48.402 0 0)
(48.4635 0 0)
(48.5249 0 0)
(48.5864 0 0)
(48.6478 0 0)
(48.7092 0 0)
(48.7707 0 0)
(48.8321 0 0)
(48.8936 0 0)
(48.955 0 0)
(49.0164 0 0)
(49.0779 0 0)
(49.1393 0 0)
(49.2008 0 0)
(49.2622 0 0)
(49.3236 0 0)
(49.3851 0 0)
(49.4465 0 0)
(49.508 0 0)
(49.5694 0 0)
(49.6309 0 0)
(49.6923 0 0)
(49.7538 0 0)
(49.8152 0 0)
(49.8766 0 0)
(49.9381 0 0)
(49.9995 0 0)
(50.061 0 0)
(50.1224 0 0)
(50.1839 0 0)
(50.2453 0 0)
(50.3068 0 0)
(50.3682 0 0)
(50.4297 0 0)
(50.4911 0 0)
(50.5526 0 0)
(50.614 0 0)
(50.6755 0 0)
(50.7369 0 0)
(50.7984 0 0)
(50.8598 0 0)
(50.9213 0 0)
(50.9827 0 0)
(51.0442 0 0)
(51.1056 0 0)
(51.1671 0 0)
(51.2285 0 0)
(51.29 0 0)
(51.3514 0 0)
(51.4129 0 0)
(51.4744 0 0)
(51.5358 0 0)
(51.5973 0 0)
(51.6587 0 0)
(51.7202 0 0)
(51.7816 0 0)
(51.8431 0 0)
(51.9045 0 0)
(51.966 0 0)
(52.0275 0 0)
(52.0889 0 0)
(52.1504 0 0)
(52.2118 0 0)
(52.2733 0 0)
(52.3348 0 0)
(52.3962 0 0)
(52.4577 0 0)
(52.5191 0 0)
(52.5806 0 0)
(52.6421 0 0)
(52.7035 0 0)
(52.765 0 0)
(52.8264 0 0)
(52.8879 0 0)
(52.9494 0 0)
(53.0108 0 0)
(53.0723 0 0)
(53.1338 0 0)
(53.1952 0 0)
(53.2567 0 0)
(53.3181 0 0)
(53.3796 0 0)
(53.4411 0 0)
(53.5025 0 0)
(53.564 0 0)
(53.6255 0 0)
(53.6869 0 0)
(53.7484 0 0)
(53.8099 0 0)
(53.8713 0 0)
(53.9328 0 0)
(53.9943 0 0)
(54.0557 0 0)
(54.1172 0 0)
(54.1787 0 0)
(54.2402 0 0)
(54.3016 0 0)
(54.3631 0 0)
(54.4246 0 0)
(54.486 0 0)
(54.5475 0 0)
(54.609 0 0)
(54.6705 0 0)
(54.7319 0 0)
(54.7934 0 0)
(54.8549 0 0)
(54.9163 0 0)
(54.9778 0 0)
(55.0393 0 0)
(55.1008 0 0)
(55.1622 0 0)
(55.2237 0 0)
(55.2852 0 0)
(55.3467 0 0)
(55.4081 0 0)
(55.4696 0 0)
(55.5311 0 0)
(55.5926 0 0)
(55.6541 0 0)
(55.7155 0 0)
(55.777 0 0)
(55.8385 0 0)
(55.9 0 0)
(55.9615 0 0)
(56.0229 0 0)
(56.0844 0 0)
(56.1459 0 0)
(56.2074 0 0)
(56.2689 0 0)
(56.3303 0 0)
(56.3918 0 0)
(56.4533 0 0)
(56.5148 0 0)
(56.5763 0 0)
(56.6378 0 0)
(56.6992 0 0)
(56.7607 0 0)
(56.8222 0 0)
(56.8837 0 0)
(56.9452 0 0)
(57.0067 0 0)
(57.0681 0 0)
(57.1296 0 0)
(57.1911 0 0)
(57.2526 0 0)
(57.3141 0 0)
(57.3756 0 0)
(57.4371 0 0)
(57.4986 0 0)
(57.56 0 0)
(57.6215 0 0)
(57.683 0 0)
(57.7445 0 0)
(57.806 0 0)
(57.8675 0 0)
(57.929 0 0)
(57.9905 0 0)
(58.052 0 0)
(58.1135 0 0)
(58.1749 0 0)
(58.2364 0 0)
(58.2979 0 0)
(58.3594 0 0)
(58.4209 0 0)
(58.4824 0 0)
(58.5439 0 0)
(58.6054 0 0)
(58.6669 0 0)
(58.7284 0 0)
(58.7899 0 0)
(58.8514 0 0)
(58.9129 0 0)
(58.9744 0 0)
(59.0359 0 0)
(59.0974 0 0)
(59.1589 0 0)
(59.2204 0 0)
(59.2819 0 0)
(59.3434 0 0)
(59.4049 0 0)
(59.4664 0 0)
(59.5279 0 0)
(59.5894 0 0)
(59.6509 0 0)
(59.7124 0 0)
(59.7739 0 0)
(59.8354 0 0)
(59.8969 0 0)
(59.9584 0 0)
(60.0199 0 0)
(60.0814 0 0)
(60.1429 0 0)
(60.2044 0 0)
(60.2659 0 0)
(60.3274 0 0)
(60.3889 0 0)
(60.4504 0 0)
(60.5119 0 0)
(60.5734 0 0)
(60.6349 0 0)
(60.6964 0 0)
(60.7579 0 0)
(60.8194 0 0)
(60.8809 0 0)
(60.9424 0 0)
(61.0039 0 0)
(61.0655 0 0)
(61.127 0 0)
(61.1885 0 0)
(61.25 0 0)
(61.3115 0 0)
(61.373 0 0)
(61.4345 0 0)
(61.496 0 0)
(61.5575 0 0)
(61.619 0 0)
(61.6806 0 0)
(61.7421 0 0)
(61.8036 0 0)
(61.8651 0 0)
(61.9266 0 0)
(61.9881 0 0)
(62.0496 0 0)
(62.1111 0 0)
(62.1727 0 0)
(62.2342 0 0)
(62.2957 0 0)
(62.3572 0 0)
(62.4187 0 0)
(62.4802 0 0)
(62.5417 0 0)
(62.6033 0 0)
(62.6648 0 0)
(62.7263 0 0)
(62.7878 0 0)
(62.8493 0 0)
(62.9109 0 0)
(62.9724 0 0)
(63.0339 0 0)
(63.0954 0 0)
(63.1569 0 0)
(63.2184 0 0)
(63.28 0 0)
(63.3415 0 0)
(63.403 0 0)
(63.4645 0 0)
(63.5261 0 0)
(63.5876 0 0)
(63.6491 0 0)
(63.7106 0 0)
(63.7721 0 0)
(63.8337 0 0)
(63.8952 0 0)
(63.9567 0 0)
(64.0182 0 0)
(64.0798 0 0)
(64.1413 0 0)
(64.2028 0 0)
(64.2643 0 0)
(64.3259 0 0)
(64.3874 0 0)
(64.4489 0 0)
(64.5104 0 0)
(64.572 0 0)
(64.6335 0 0)
(64.695 0 0)
(64.7566 0 0)
(64.8181 0 0)
(64.8796 0 0)
(64.9411 0 0)
(65.0027 0 0)
(65.0642 0 0)
(65.1257 0 0)
(65.1873 0 0)
(65.2488 0 0)
(65.3103 0 0)
(65.3719 0 0)
(65.4334 0 0)
(65.4949 0 0)
(65.5565 0 0)
(65.618 0 0)
(65.6795 0 0)
(65.7411 0 0)
(65.8026 0 0)
(65.8641 0 0)
(65.9257 0 0)
(65.9872 0 0)
(66.0487 0 0)
(66.1103 0 0)
(66.1718 0 0)
(66.2333 0 0)
(66.2949 0 0)
(66.3564 0 0)
(66.4179 0 0)
(66.4795 0 0)
(66.541 0 0)
(66.6026 0 0)
(66.6641 0 0)
(66.7256 0 0)
(66.7872 0 0)
(66.8487 0 0)
(66.9103 0 0)
(66.9718 0 0)
(67.0333 0 0)
(67.0949 0 0)
(67.1564 0 0)
(67.218 0 0)
(67.2795 0 0)
(67.3411 0 0)
(67.4026 0 0)
(67.4641 0 0)
(67.5257 0 0)
(67.5872 0 0)
(67.6488 0 0)
(67.7103 0 0)
(67.7719 0 0)
(67.8334 0 0)
(67.895 0 0)
(67.9565 0 0)
(68.018 0 0)
(68.0796 0 0)
(68.1411 0 0)
(68.2027 0 0)
(68.2642 0 0)
(68.3258 0 0)
(68.3873 0 0)
(68.4489 0 0)
(68.5104 0 0)
(68.572 0 0)
(68.6335 0 0)
(68.6951 0 0)
(68.7566 0 0)
(68.8182 0 0)
(68.8797 0 0)
(68.9413 0 0)
(69.0028 0 0)
(69.0644 0 0)
(69.1259 0 0)
(69.1875 0 0)
(69.249 0 0)
(69.3106 0 0)
(69.3722 0 0)
(69.4337 0 0)
(69.4953 0 0)
(69.5568 0 0)
(69.6184 0 0)
(69.6799 0 0)
(69.7415 0 0)
(69.803 0 0)
(69.8646 0 0)
(69.9262 0 0)
(69.9877 0 0)
(70.0493 0 0)
(70.1108 0 0)
(70.1724 0 0)
(70.2339 0 0)
(70.2955 0 0)
(70.3571 0 0)
(70.4186 0 0)
(70.4802 0 0)
(70.5417 0 0)
(70.6033 0 0)
(70.6649 0 0)
(70.7264 0 0)
(70.788 0 0)
(70.8495 0 0)
(70.9111 0 0)
(70.9727 0 0)
(71.0342 0 0)
(71.0958 0 0)
(71.1574 0 0)
(71.2189 0 0)
(71.2805 0 0)
(71.3421 0 0)
(71.4036 0 0)
(71.4652 0 0)
(71.5268 0 0)
(71.5883 0 0)
(71.6499 0 0)
(71.7115 0 0)
(71.773 0 0)
(71.8346 0 0)
(71.8962 0 0)
(71.9577 0 0)
(72.0193 0 0)
(72.0809 0 0)
(72.1424 0 0)
(72.204 0 0)
(72.2656 0 0)
(72.3271 0 0)
(72.3887 0 0)
(72.4503 0 0)
(72.5118 0 0)
(72.5734 0 0)
(72.635 0 0)
(72.6966 0 0)
(72.7581 0 0)
(72.8197 0 0)
(72.8813 0 0)
(72.9429 0 0)
(73.0044 0 0)
(73.066 0 0)
(73.1276 0 0)
(73.1892 0 0)
(73.2507 0 0)
(73.3123 0 0)
(73.3739 0 0)
(73.4355 0 0)
(73.497 0 0)
(73.5586 0 0)
(73.6202 0 0)
(73.6818 0 0)
(73.7433 0 0)
(73.8049 0 0)
(73.8665 0 0)
(73.9281 0 0)
(73.9897 0 0)
(74.0512 0 0)
(74.1128 0 0)
(74.1744 0 0)
(74.236 0 0)
(74.2976 0 0)
(74.3591 0 0)
(74.4207 0 0)
(74.4823 0 0)
(74.5439 0 0)
(74.6055 0 0)
(74.6671 0 0)
(74.7286 0 0)
(74.7902 0 0)
(74.8518 0 0)
(74.9134 0 0)
(74.975 0 0)
(75.0366 0 0)
(75.0981 0 0)
(75.1597 0 0)
(75.2213 0 0)
(75.2829 0 0)
(75.3445 0 0)
(75.4061 0 0)
(75.4677 0 0)
(75.5293 0 0)
(75.5908 0 0)
(75.6524 0 0)
(75.714 0 0)
(75.7756 0 0)
(75.8372 0 0)
(75.8988 0 0)
(75.9604 0 0)
(76.022 0 0)
(76.0836 0 0)
(76.1451 0 0)
(76.2067 0 0)
(76.2683 0 0)
(76.3299 0 0)
(76.3915 0 0)
(76.4531 0 0)
(76.5147 0 0)
(76.5763 0 0)
(76.6379 0 0)
(76.6995 0 0)
(76.7611 0 0)
(76.8227 0 0)
(76.8843 0 0)
(76.9459 0 0)
(77.0075 0 0)
(77.0691 0 0)
(77.1307 0 0)
(77.1923 0 0)
(77.2538 0 0)
(77.3154 0 0)
(77.377 0 0)
(77.4386 0 0)
(77.5002 0 0)
(77.5618 0 0)
(77.6234 0 0)
(77.685 0 0)
(77.7466 0 0)
(77.8082 0 0)
(77.8698 0 0)
(77.9314 0 0)
(77.993 0 0)
(78.0546 0 0)
(78.1162 0 0)
(78.1778 0 0)
(78.2395 0 0)
(78.3011 0 0)
(78.3627 0 0)
(78.4243 0 0)
(78.4859 0 0)
(78.5475 0 0)
(78.6091 0 0)
(78.6707 0 0)
(78.7323 0 0)
(78.7939 0 0)
(78.8555 0 0)
(78.9171 0 0)
(78.9787 0 0)
(79.0403 0 0)
(79.1019 0 0)
(79.1635 0 0)
(79.2251 0 0)
(79.2867 0 0)
(79.3484 0 0)
(79.41 0 0)
(79.4716 0 0)
(79.5332 0 0)
(79.5948 0 0)
(79.6564 0 0)
(79.718 0 0)
(79.7796 0 0)
(79.8412 0 0)
(79.9029 0 0)
(79.9645 0 0)
(80.0261 0 0)
(80.0877 0 0)
(80.1493 0 0)
(80.2109 0 0)
(80.2725 0 0)
(80.3341 0 0)
(80.3958 0 0)
(80.4574 0 0)
(80.519 0 0)
(80.5806 0 0)
(80.6422 0 0)
(80.7038 0 0)
(80.7655 0 0)
(80.8271 0 0)
(80.8887 0 0)
(80.9503 0 0)
(81.0119 0 0)
(81.0735 0 0)
(81.1352 0 0)
(81.1968 0 0)
(81.2584 0 0)
(81.32 0 0)
(81.3816 0 0)
(81.4433 0 0)
(81.5049 0 0)
(81.5665 0 0)
(81.6281 0 0)
(81.6897 0 0)
(81.7514 0 0)
(81.813 0 0)
(81.8746 0 0)
(81.9362 0 0)
(81.9979 0 0)
(82.0595 0 0)
(82.1211 0 0)
(82.1827 0 0)
(82.2444 0 0)
(82.306 0 0)
(82.3676 0 0)
(82.4292 0 0)
(82.4909 0 0)
(82.5525 0 0)
(82.6141 0 0)
(82.6757 0 0)
(82.7374 0 0)
(82.799 0 0)
(82.8606 0 0)
(82.9222 0 0)
(82.9839 0 0)
(83.0455 0 0)
(83.1071 0 0)
(83.1688 0 0)
(83.2304 0 0)
(83.292 0 0)
(83.3537 0 0)
(83.4153 0 0)
(83.4769 0 0)
(83.5385 0 0)
(83.6002 0 0)
(83.6618 0 0)
(83.7234 0 0)
(83.7851 0 0)
(83.8467 0 0)
(83.9083 0 0)
(83.97 0 0)
(84.0316 0 0)
(84.0932 0 0)
(84.1549 0 0)
(84.2165 0 0)
(84.2782 0 0)
(84.3398 0 0)
(84.4014 0 0)
(84.4631 0 0)
(84.5247 0 0)
(84.5863 0 0)
(84.648 0 0)
(84.7096 0 0)
(84.7713 0 0)
(84.8329 0 0)
(84.8945 0 0)
(84.9562 0 0)
(85.0178 0 0)
(85.0795 0 0)
(85.1411 0 0)
(85.2027 0 0)
(85.2644 0 0)
(85.326 0 0)
(85.3877 0 0)
(85.4493 0 0)
(85.5109 0 0)
(85.5726 0 0)
(85.6342 0 0)
(85.6959 0 0)
(85.7575 0 0)
(85.8192 0 0)
(85.8808 0 0)
(85.9425 0 0)
(86.0041 0 0)
(86.0657 0 0)
(86.1274 0 0)
(86.189 0 0)
(86.2507 0 0)
(86.3123 0 0)
(86.374 0 0)
(86.4356 0 0)
(86.4973 0 0)
(86.5589 0 0)
(86.6206 0 0)
(86.6822 0 0)
(86.7439 0 0)
(86.8055 0 0)
(86.8672 0 0)
(86.9288 0 0)
(86.9905 0 0)
(87.0521 0 0)
(87.1138 0 0)
(87.1754 0 0)
(87.2371 0 0)
(87.2987 0 0)
(87.3604 0 0)
(87.422 0 0)
(87.4837 0 0)
(87.5453 0 0)
(87.607 0 0)
(87.6686 0 0)
(87.7303 0 0)
(87.792 0 0)
(87.8536 0 0)
(87.9153 0 0)
(87.9769 0 0)
(88.0386 0 0)
(88.1002 0 0)
(88.1619 0 0)
(88.2236 0 0)
(88.2852 0 0)
(88.3469 0 0)
(88.4085 0 0)
(88.4702 0 0)
(88.5318 0 0)
(88.5935 0 0)
(88.6552 0 0)
(88.7168 0 0)
(88.7785 0 0)
(88.8401 0 0)
(88.9018 0 0)
(88.9635 0 0)
(89.0251 0 0)
(89.0868 0 0)
(89.1485 0 0)
(89.2101 0 0)
(89.2718 0 0)
(89.3334 0 0)
(89.3951 0 0)
(89.4568 0 0)
(89.5184 0 0)
(89.5801 0 0)
(89.6418 0 0)
(89.7034 0 0)
(89.7651 0 0)
(89.8268 0 0)
(89.8884 0 0)
(89.9501 0 0)
(90.0118 0 0)
(90.0734 0 0)
(90.1351 0 0)
(90.1968 0 0)
(90.2584 0 0)
(90.3201 0 0)
(90.3818 0 0)
(90.4434 0 0)
(90.5051 0 0)
(90.5668 0 0)
(90.6285 0 0)
(90.6901 0 0)
(90.7518 0 0)
(90.8135 0 0)
(90.8751 0 0)
(90.9368 0 0)
(90.9985 0 0)
(91.0602 0 0)
(91.1218 0 0)
(91.1835 0 0)
(91.2452 0 0)
(91.3069 0 0)
(91.3685 0 0)
(91.4302 0 0)
(91.4919 0 0)
(91.5536 0 0)
(91.6152 0 0)
(91.6769 0 0)
(91.7386 0 0)
(91.8003 0 0)
(91.8619 0 0)
(91.9236 0 0)
(91.9853 0 0)
(92.047 0 0)
(92.1087 0 0)
(92.1703 0 0)
(92.232 0 0)
(92.2937 0 0)
(92.3554 0 0)
(92.4171 0 0)
(92.4787 0 0)
(92.5404 0 0)
(92.6021 0 0)
(92.6638 0 0)
(92.7255 0 0)
(92.7871 0 0)
(92.8488 0 0)
(92.9105 0 0)
(92.9722 0 0)
(93.0339 0 0)
(93.0956 0 0)
(93.1572 0 0)
(93.2189 0 0)
(93.2806 0 0)
(93.3423 0 0)
(93.404 0 0)
(93.4657 0 0)
(93.5274 0 0)
(93.589 0 0)
(93.6507 0 0)
(93.7124 0 0)
(93.7741 0 0)
(93.8358 0 0)
(93.8975 0 0)
(93.9592 0 0)
(94.0209 0 0)
(94.0826 0 0)
(94.1442 0 0)
(94.2059 0 0)
(94.2676 0 0)
(94.3293 0 0)
(94.391 0 0)
(94.4527 0 0)
(94.5144 0 0)
(94.5761 0 0)
(94.6378 0 0)
(94.6995 0 0)
(94.7612 0 0)
(94.8229 0 0)
(94.8846 0 0)
(94.9462 0 0)
(95.0079 0 0)
(95.0696 0 0)
(95.1313 0 0)
(95.193 0 0)
(95.2547 0 0)
(95.3164 0 0)
(95.3781 0 0)
(95.4398 0 0)
(95.5015 0 0)
(95.5632 0 0)
(95.6249 0 0)
(95.6866 0 0)
(95.7483 0 0)
(95.81 0 0)
(95.8717 0 0)
(95.9334 0 0)
(95.9951 0 0)
(96.0568 0 0)
(96.1185 0 0)
(96.1802 0 0)
(96.2419 0 0)
(96.3036 0 0)
(96.3653 0 0)
(96.427 0 0)
(96.4887 0 0)
(96.5504 0 0)
(96.6121 0 0)
(96.6738 0 0)
(96.7355 0 0)
(96.7972 0 0)
(96.8589 0 0)
(96.9206 0 0)
(96.9823 0 0)
(97.0441 0 0)
(97.1058 0 0)
(97.1675 0 0)
(97.2292 0 0)
(97.2909 0 0)
(97.3526 0 0)
(97.4143 0 0)
(97.476 0 0)
(97.5377 0 0)
(97.5994 0 0)
(97.6611 0 0)
(97.7228 0 0)
(97.7846 0 0)
(97.8463 0 0)
(97.908 0 0)
(97.9697 0 0)
(98.0314 0 0)
(98.0931 0 0)
(98.1548 0 0)
(98.2165 0 0)
(98.2782 0 0)
(98.34 0 0)
(98.4017 0 0)
(98.4634 0 0)
(98.5251 0 0)
(98.5868 0 0)
(98.6485 0 0)
(98.7102 0 0)
(98.772 0 0)
(98.8337 0 0)
(98.8954 0 0)
(98.9571 0 0)
(99.0188 0 0)
(99.0805 0 0)
(99.1423 0 0)
(99.204 0 0)
(99.2657 0 0)
(99.3274 0 0)
(99.3891 0 0)
(99.4508 0 0)
(99.5126 0 0)
(99.5743 0 0)
(99.636 0 0)
(99.6977 0 0)
(99.7594 0 0)
(99.8212 0 0)
(99.8829 0 0)
(99.9446 0 0)
(100.006 0 0)
(100.068 0 0)
(100.13 0 0)
(100.192 0 0)
(100.253 0 0)
(100.315 0 0)
(100.377 0 0)
(100.438 0 0)
(100.5 0 0)
(100.562 0 0)
(100.624 0 0)
(100.685 0 0)
(100.747 0 0)
(100.809 0 0)
(100.87 0 0)
(100.932 0 0)
(100.994 0 0)
(101.056 0 0)
(101.117 0 0)
(101.179 0 0)
(101.241 0 0)
(101.303 0 0)
(101.364 0 0)
(101.426 0 0)
(101.488 0 0)
(101.549 0 0)
(101.611 0 0)
(101.673 0 0)
(101.735 0 0)
(101.796 0 0)
(101.858 0 0)
(101.92 0 0)
(101.982 0 0)
(102.043 0 0)
(102.105 0 0)
(102.167 0 0)
(102.229 0 0)
(102.29 0 0)
(102.352 0 0)
(102.414 0 0)
(102.475 0 0)
(102.537 0 0)
(102.599 0 0)
(102.661 0 0)
(102.722 0 0)
(102.784 0 0)
(102.846 0 0)
(102.908 0 0)
(102.969 0 0)
(103.031 0 0)
(103.093 0 0)
(103.155 0 0)
(103.216 0 0)
(103.278 0 0)
(103.34 0 0)
(103.402 0 0)
(103.463 0 0)
(103.525 0 0)
(103.587 0 0)
(103.649 0 0)
(103.71 0 0)
(103.772 0 0)
(103.834 0 0)
(103.896 0 0)
(103.957 0 0)
(104.019 0 0)
(104.081 0 0)
(104.142 0 0)
(104.204 0 0)
(104.266 0 0)
(104.328 0 0)
(104.389 0 0)
(104.451 0 0)
(104.513 0 0)
(104.575 0 0)
(104.636 0 0)
(104.698 0 0)
(104.76 0 0)
(104.822 0 0)
(104.883 0 0)
(104.945 0 0)
(105.007 0 0)
(105.069 0 0)
(105.13 0 0)
(105.192 0 0)
(105.254 0 0)
(105.316 0 0)
(105.377 0 0)
(105.439 0 0)
(105.501 0 0)
(105.563 0 0)
(105.624 0 0)
(105.686 0 0)
(105.748 0 0)
(105.81 0 0)
(105.871 0 0)
(105.933 0 0)
(105.995 0 0)
(106.057 0 0)
(106.119 0 0)
(106.18 0 0)
(106.242 0 0)
(106.304 0 0)
(106.366 0 0)
(106.427 0 0)
(106.489 0 0)
(106.551 0 0)
(106.613 0 0)
(106.674 0 0)
(106.736 0 0)
(106.798 0 0)
(106.86 0 0)
(106.921 0 0)
(106.983 0 0)
(107.045 0 0)
(107.107 0 0)
(107.168 0 0)
(107.23 0 0)
(107.292 0 0)
(107.354 0 0)
(107.415 0 0)
(107.477 0 0)
(107.539 0 0)
(107.601 0 0)
(107.663 0 0)
(107.724 0 0)
(107.786 0 0)
(107.848 0 0)
(107.91 0 0)
(107.971 0 0)
(108.033 0 0)
(108.095 0 0)
(108.157 0 0)
(108.218 0 0)
(108.28 0 0)
(108.342 0 0)
(108.404 0 0)
(108.465 0 0)
(108.527 0 0)
(108.589 0 0)
(108.651 0 0)
(108.713 0 0)
(108.774 0 0)
(108.836 0 0)
(108.898 0 0)
(108.96 0 0)
(109.021 0 0)
(109.083 0 0)
(109.145 0 0)
(109.207 0 0)
(109.268 0 0)
(109.33 0 0)
(109.392 0 0)
(109.454 0 0)
(109.516 0 0)
(109.577 0 0)
(109.639 0 0)
(109.701 0 0)
(109.763 0 0)
(109.824 0 0)
(109.886 0 0)
(109.948 0 0)
(110.01 0 0)
(110.072 0 0)
(110.133 0 0)
(110.195 0 0)
(110.257 0 0)
(110.319 0 0)
(110.38 0 0)
(110.442 0 0)
(110.504 0 0)
(110.566 0 0)
(110.628 0 0)
(110.689 0 0)
(110.751 0 0)
(110.813 0 0)
(110.875 0 0)
(110.936 0 0)
(110.998 0 0)
(111.06 0 0)
(111.122 0 0)
(111.184 0 0)
(111.245 0 0)
(111.307 0 0)
(111.369 0 0)
(111.431 0 0)
(111.493 0 0)
(111.554 0 0)
(111.616 0 0)
(111.678 0 0)
(111.74 0 0)
(111.801 0 0)
(111.863 0 0)
(111.925 0 0)
(111.987 0 0)
(112.049 0 0)
(112.11 0 0)
(112.172 0 0)
(112.234 0 0)
(112.296 0 0)
(112.358 0 0)
(112.419 0 0)
(112.481 0 0)
(112.543 0 0)
(112.605 0 0)
(112.667 0 0)
(112.728 0 0)
(112.79 0 0)
(112.852 0 0)
(112.914 0 0)
(112.976 0 0)
(113.037 0 0)
(113.099 0 0)
(113.161 0 0)
(113.223 0 0)
(113.284 0 0)
(113.346 0 0)
(113.408 0 0)
(113.47 0 0)
(113.532 0 0)
(113.593 0 0)
(113.655 0 0)
(113.717 0 0)
(113.779 0 0)
(113.841 0 0)
(113.902 0 0)
(113.964 0 0)
(114.026 0 0)
(114.088 0 0)
(114.15 0 0)
(114.211 0 0)
(114.273 0 0)
(114.335 0 0)
(114.397 0 0)
(114.459 0 0)
(114.52 0 0)
(114.582 0 0)
(114.644 0 0)
(114.706 0 0)
(114.768 0 0)
(114.829 0 0)
(114.891 0 0)
(114.953 0 0)
(115.015 0 0)
(115.077 0 0)
(115.138 0 0)
(115.2 0 0)
(115.262 0 0)
(115.324 0 0)
(115.386 0 0)
(115.448 0 0)
(115.509 0 0)
(115.571 0 0)
(115.633 0 0)
(115.695 0 0)
(115.757 0 0)
(115.818 0 0)
(115.88 0 0)
(115.942 0 0)
(116.004 0 0)
(116.066 0 0)
(116.127 0 0)
(116.189 0 0)
(116.251 0 0)
(116.313 0 0)
(116.375 0 0)
(116.436 0 0)
(116.498 0 0)
(116.56 0 0)
(116.622 0 0)
(116.684 0 0)
(116.746 0 0)
(116.807 0 0)
(116.869 0 0)
(116.931 0 0)
(116.993 0 0)
(117.055 0 0)
(117.116 0 0)
(117.178 0 0)
(117.24 0 0)
(117.302 0 0)
(117.364 0 0)
(117.426 0 0)
(117.487 0 0)
(117.549 0 0)
(117.611 0 0)
(117.673 0 0)
(117.735 0 0)
(117.796 0 0)
(117.858 0 0)
(117.92 0 0)
(117.982 0 0)
(118.044 0 0)
(118.106 0 0)
(118.167 0 0)
(118.229 0 0)
(118.291 0 0)
(118.353 0 0)
(118.415 0 0)
(118.476 0 0)
(118.538 0 0)
(118.6 0 0)
(118.662 0 0)
(118.724 0 0)
(118.786 0 0)
(118.847 0 0)
(118.909 0 0)
(118.971 0 0)
(119.033 0 0)
(119.095 0 0)
(119.157 0 0)
(119.218 0 0)
(119.28 0 0)
(119.342 0 0)
(119.404 0 0)
(119.466 0 0)
(119.528 0 0)
(119.589 0 0)
(119.651 0 0)
(119.713 0 0)
(119.775 0 0)
(119.837 0 0)
(119.899 0 0)
(119.96 0 0)
(120.022 0 0)
(120.084 0 0)
(120.146 0 0)
(120.208 0 0)
(120.27 0 0)
(120.331 0 0)
(120.393 0 0)
(120.455 0 0)
(120.517 0 0)
(120.579 0 0)
(120.641 0 0)
(120.702 0 0)
(120.764 0 0)
(120.826 0 0)
(120.888 0 0)
(120.95 0 0)
(121.012 0 0)
(121.073 0 0)
(121.135 0 0)
(121.197 0 0)
(121.259 0 0)
(121.321 0 0)
(121.383 0 0)
(121.444 0 0)
(121.506 0 0)
(121.568 0 0)
(121.63 0 0)
(121.692 0 0)
(121.754 0 0)
(121.815 0 0)
(121.877 0 0)
(121.939 0 0)
(122.001 0 0)
(122.063 0 0)
(122.125 0 0)
(122.187 0 0)
(122.248 0 0)
(122.31 0 0)
(122.372 0 0)
(122.434 0 0)
(122.496 0 0)
(122.558 0 0)
(122.619 0 0)
(122.681 0 0)
(122.743 0 0)
(122.805 0 0)
(122.867 0 0)
(122.929 0 0)
(122.991 0 0)
(123.052 0 0)
(123.114 0 0)
(123.176 0 0)
(123.238 0 0)
(123.3 0 0)
(123.362 0 0)
(123.424 0 0)
(123.485 0 0)
(123.547 0 0)
(123.609 0 0)
(123.671 0 0)
(123.733 0 0)
(123.795 0 0)
(123.856 0 0)
(123.918 0 0)
(123.98 0 0)
(124.042 0 0)
(124.104 0 0)
(124.166 0 0)
(124.228 0 0)
(124.289 0 0)
(124.351 0 0)
(124.413 0 0)
(124.475 0 0)
(124.537 0 0)
(124.599 0 0)
(124.661 0 0)
(124.722 0 0)
(124.784 0 0)
(124.846 0 0)
(124.908 0 0)
(124.97 0 0)
(125.032 0 0)
(125.094 0 0)
(125.155 0 0)
(125.217 0 0)
(125.279 0 0)
(125.341 0 0)
(125.403 0 0)
(125.465 0 0)
(125.527 0 0)
(125.589 0 0)
(125.65 0 0)
(125.712 0 0)
(125.774 0 0)
(125.836 0 0)
(125.898 0 0)
(125.96 0 0)
(126.022 0 0)
(126.083 0 0)
(126.145 0 0)
(126.207 0 0)
(126.269 0 0)
(126.331 0 0)
(126.393 0 0)
(126.455 0 0)
(126.517 0 0)
(126.578 0 0)
(126.64 0 0)
(126.702 0 0)
(126.764 0 0)
(126.826 0 0)
(126.888 0 0)
(126.95 0 0)
(127.011 0 0)
(127.073 0 0)
(127.135 0 0)
(127.197 0 0)
(127.259 0 0)
(127.321 0 0)
(127.383 0 0)
(127.445 0 0)
(127.506 0 0)
(127.568 0 0)
(127.63 0 0)
(127.692 0 0)
(127.754 0 0)
(127.816 0 0)
(127.878 0 0)
(127.94 0 0)
(128.001 0 0)
(128.063 0 0)
(128.125 0 0)
(128.187 0 0)
(128.249 0 0)
(128.311 0 0)
(128.373 0 0)
(128.435 0 0)
(128.496 0 0)
(128.558 0 0)
(128.62 0 0)
(128.682 0 0)
(128.744 0 0)
(128.806 0 0)
(128.868 0 0)
(128.93 0 0)
(128.992 0 0)
(129.053 0 0)
(129.115 0 0)
(129.177 0 0)
(129.239 0 0)
(129.301 0 0)
(129.363 0 0)
(129.425 0 0)
(129.487 0 0)
(129.548 0 0)
(129.61 0 0)
(129.672 0 0)
(129.734 0 0)
(129.796 0 0)
(129.858 0 0)
(129.92 0 0)
(129.982 0 0)
(130.044 0 0)
(130.105 0 0)
(130.167 0 0)
(130.229 0 0)
(130.291 0 0)
(130.353 0 0)
(130.415 0 0)
(130.477 0 0)
(130.539 0 0)
(130.601 0 0)
(130.662 0 0)
(130.724 0 0)
(130.786 0 0)
(130.848 0 0)
(130.91 0 0)
(130.972 0 0)
(131.034 0 0)
(131.096 0 0)
(131.158 0 0)
(131.22 0 0)
(131.281 0 0)
(131.343 0 0)
(131.405 0 0)
(131.467 0 0)
(131.529 0 0)
(131.591 0 0)
(131.653 0 0)
(131.715 0 0)
(131.777 0 0)
(131.838 0 0)
(131.9 0 0)
(131.962 0 0)
(132.024 0 0)
(132.086 0 0)
(132.148 0 0)
(132.21 0 0)
(132.272 0 0)
(132.334 0 0)
(132.396 0 0)
(132.457 0 0)
(132.519 0 0)