/*--------------------------------*- C++ -*----------------------------------*\
  =========                 |
  \\      /  F ield         | OpenFOAM: The Open Source CFD Toolbox
   \\    /   O peration     | Website:  https://openfoam.org
    \\  /    A nd           | Version:  9
     \\/     M anipulation  |
\*---------------------------------------------------------------------------*/
FoamFile
{
    format      ascii;
    class       volScalarField;
    location    "0.036";
    object      p;
}
// * * * * * * * * * * * * * * * * * * * * * * * * * * * * * * * * * * * * * //

dimensions      [1 -1 -2 0 0 0 0];

internalField   nonuniform List<scalar> 
10000
(
47639.5
47632.2
47627.8
47623
47618.3
47613.5
47608.8
47604.1
47599.4
47594.7
47590
47585.3
47580.7
47576
47571.3
47566.6
47561.9
47557.2
47552.5
47547.8
47543.1
47538.4
47533.7
47529
47524.3
47519.6
47514.9
47510.3
47505.6
47500.9
47496.2
47491.5
47486.8
47482.1
47477.4
47472.7
47468
47463.3
47458.6
47454
47449.3
47444.6
47439.9
47435.2
47430.5
47425.9
47421.2
47416.5
47411.8
47407.1
47402.4
47397.7
47393
47388.4
47383.7
47379
47374.3
47369.6
47364.9
47360.2
47355.6
47350.9
47346.2
47341.5
47336.8
47332.2
47327.5
47322.8
47318.1
47313.4
47308.8
47304.1
47299.4
47294.7
47290.1
47285.4
47280.7
47276.1
47271.4
47266.7
47261.9
47257.3
47252.6
47248
47243.4
47238.7
47234
47229.3
47224.6
47220
47215.3
47210.7
47206
47201.3
47196.6
47191.9
47187.3
47182.6
47177.9
47173.3
47168.6
47163.9
47159.3
47154.6
47150
47145.3
47140.6
47136
47131.3
47126.6
47121.9
47117.3
47112.7
47108.1
47103.5
47098.8
47094.1
47089.3
47084.7
47080
47075.4
47070.8
47066.2
47061.5
47056.8
47052.1
47047.4
47042.8
47038.1
47033.5
47028.8
47024.2
47019.6
47014.9
47010.2
47005.5
47000.9
46996.3
46991.8
46987.2
46982.5
46977.6
46972.9
46968.2
46963.7
46959.4
46954.9
46950.2
46945.2
46940.3
46935.5
46930.9
46926.6
46922.4
46917.9
46913
46908
46903.1
46898.3
46893.7
46889.5
46885.4
46880.8
46875.8
46870.7
46865.7
46861
46856.6
46852.8
46848.6
46843.6
46838.5
46833.3
46828.4
46824
46820.3
46816.4
46811.5
46806.2
46800.9
46795.8
46791
46787.1
46783.7
46779.5
46774.4
46769.1
46763.8
46758.8
46754
46749.9
46746.4
46742.3
46737.3
46732.1
46726.9
46721.8
46717.1
46713.3
46710.2
46705.6
46700.3
46694.8
46689.5
46684.5
46680.3
46677.7
46673.7
46668.3
46662.8
46657.3
46652
46647.3
46644.4
46641.4
46636.2
46630.6
46625
46619.6
46614.8
46611.6
46609.1
46604.2
46598.6
46592.9
46587.4
46582.1
46577.5
46575.1
46572.7
46567.7
46562
46556.3
46550.8
46545.5
46540.9
46538.5
46535.7
46530.5
46524.8
46519.2
46513.7
46508.8
46505.5
46502.9
46498
46492.4
46486.9
46481.5
46476.8
46474.1
46471
46465.8
46460.1
46454.4
46448.9
46443.7
46439.5
46437.8
46434.5
46429.1
46423.3
46417.4
46411.9
46406.5
46402
46399.9
46397.6
46392.5
46386.8
46381
46375.5
46370.3
46366.3
46364.2
46360.2
46354.7
46349.1
46343.6
46338.4
46334.4
46332.4
46328.5
46323
46317.2
46311.5
46305.9
46300.7
46296.5
46294.9
46292.1
46286.8
46281
46274.9
46269.2
46263.7
46258.7
46255.2
46255.1
46252.4
46246.9
46240.8
46234.5
46228.9
46223.6
46218.8
46216.1
46213.7
46208.6
46203
46197.4
46192
46187
46183.6
46181.1
46176.3
46170.7
46165.1
46159.6
46154.3
46149.7
46147.4
46145.1
46140
46134.4
46128.4
46122.8
46117.4
46112.6
46109.5
46108
46103.7
46098.1
46092.6
46087.2
46082.3
46078.9
46075.1
46069.8
46064.3
46059
46054.1
46050.9
46048.5
46043.7
46038.1
46032.2
46026.2
46020.6
46015.2
46010.4
46007.3
46008.5
46007.1
46001.9
45995.9
45988.7
45982.2
45976.5
45971.1
45966
45962
45960.8
45958
45952.7
45946.9
45941
45935.5
45930.2
45925.7
45923.5
45921
45915.9
45910.3
45904.8
45899.3
45894.4
45890.8
45888.7
45884.2
45878.7
45873.2
45867.8
45862.7
45858.6
45856.2
45851.8
45846.4
45840.8
45835.3
45830
45825.3
45822.5
45820.5
45815.7
45810.1
45803.9
45797.6
45792
45786.6
45781.7
45778.2
45779
45779.3
45774.7
45768.8
45761.8
45754.4
45748.5
45743
45737.7
45733.1
45730.7
45730.5
45726.5
45720.9
45714.9
45709.1
45703.8
45698.8
45695.2
45692.6
45688
45682.5
45677.1
45671.7
45666.9
45663.7
45660.9
45656
45650.5
45644.9
45639.5
45634.4
45630.2
45628.3
45625.2
45619.9
45614.3
45608.6
45603.1
45597.9
45593.5
45591.5
45589.1
45584
45578.5
45572.8
45567.3
45562.1
45557.7
45555.1
45551.4
45546.1
45540.5
45534.8
45529.3
45524
45519.3
45516.8
45518.1
45516
45510.6
45504.5
45497.3
45491.1
45485.6
45480.5
45476
45473.8
45471
45465.9
45460.3
45454.7
45449.3
45444.2
45439.9
45437.8
45434.5
45429.2
45423.7
45418.1
45412.7
45407.7
45403.6
45402
45399.1
45393.9
45388.4
45382.9
45377.6
45372.7
45369.4
45366.8
45362
45356.7
45351.3
45346.2
45341.9
45338.7
45334.1
45328.8
45323.3
45318
45312.9
45308.5
45306.5
45304.3
45299.3
45293.8
45288
45282.6
45277.4
45272.7
45269.8
45267.2
45262.3
45256.9
45251.4
45246
45240.9
45236.5
45234.2
45231
45225.9
45220.3
45214.5
45209
45203.7
45198.8
45195.2
45195.1
45192.7
45187.4
45181.7
45176.1
45170.8
45166.1
45163.1
45161
45156.3
45150.8
45144.8
45138.8
45133.3
45128.2
45123.6
45121.4
45119.9
45115.2
45109.7
45104
45098.6
45093.3
45088.6
45085.2
45081.4
45076.3
45070.8
45065.2
45059.7
45054.4
45049.6
45045.9
45046.2
45047
45042.8
45037.1
45030.3
45023.1
45017.3
45012
45007.1
45003.3
45002.2
44998.9
44993.5
44987.8
44981.7
44976.2
44971
44966.3
44963.5
44963.4
44959.9
44954.5
44948.4
44942.1
44936.7
44931.5
44926.9
44924.5
44922.9
44918.3
44912.8
44907.2
44901.8
44896.6
44891.5
44886.9
44882.2
44877.1
44871.9
44867
44862.9
44862
44861.8
44857.4
44851.9
44845.5
44839.6
44834.2
44829.2
44824.9
44822.7
44819.5
44814.3
44808.9
44803.5
44798.2
44793.3
44789.1
44786.7
44782.7
44777.5
44772.1
44766.8
44761.6
44756.8
44753.5
44751.8
44747.7
44742.4
44736.9
44731.5
44726.2
44721.4
44717.8
44715.7
44711.6
44706.3
44700.8
44695.5
44690.3
44685.5
44682.3
44681.1
44677.2
44671.8
44666
44659.5
44653.7
44648.4
44643.3
44638.9
44636.8
44638.2
44636
44630.8
44624.9
44618
44611.8
44606.4
44601.1
44595.9
44590.7
44585.8
44581.8
44580.3
44579.7
44575.3
44569.9
44564.3
44558.7
44553.4
44548.1
44542.9
44537.9
44533.6
44531.5
44529
44524
44518.7
44513.1
44507.9
44502.8
44498.4
44496.7
44496
44491.6
44486.1
44479.5
44472.4
44466.7
44461.5
44456.8
44453.5
44454
44451.9
44446.7
44440.8
44433.8
44427.7
44422.4
44417.4
44413.4
44412.4
44411.1
44406.2
44400.6
44393.9
44387.5
44382.2
44377.1
44372.9
44371.3
44371.1
44366.9
44361.4
44355.3
44349.5
44344.3
44339.4
44335.7
44334.6
44331.5
44326.3
44320.5
44313.9
44308
44302.7
44297.8
44293.9
44293
44291.1
44286.1
44280.5
44274
44268
44262.7
44257.8
44253.9
44253.1
44251.9
44247
44241.4
44235.1
44229.3
44224.1
44219.2
44215.4
44213.6
44209.9
44204.7
44199
44192.8
44187.2
44182
44177.3
44173.9
44174.7
44175
44170.6
44165
44158
44149.7
44143.3
44138
44133.1
44128.9
44127.7
44130.5
44129
44124
44118.1
44110.4
44101.2
44094.7
44089.3
44084.1
44079.1
44074.8
44072.6
44074.9
44074.7
44070
44064.4
44057.4
44049
44042.4
44037.1
44031.9
44026.8
44022.3
44019.4
44020.8
44020.6
44016.1
44010.5
44003.9
43996.9
43991.3
43986.1
43981.2
43977
43975.1
43972.6
43967.7
43962.5
43957.2
43952
43947.1
43943
43940.5
43936.8
43931.8
43926.6
43921.4
43916.3
43911.6
43908
43905
43900.4
43895.2
43889.9
43884.6
43879.4
43874.4
43870.1
43868.1
43868.3
43864.6
43859.3
43853.3
43846.8
43841.3
43836.2
43831.5
43828.4
43828.8
43826.8
43821.7
43816
43809.1
43802.4
43797
43791.8
43786.7
43781.5
43776.5
43771.7
43767.9
43767.4
43768.7
43765.3
43760
43753.9
43746.9
43741
43735.8
43730.8
43726.5
43724.7
43725.2
43721.7
43716.4
43710.2
43702.7
43696.5
43691.3
43686.4
43682.2
43680.6
43681.8
43678.8
43673.6
43667.6
43660.1
43653.3
43647.9
43642.8
43637.7
43632.8
43628.7
43627
43628.2
43625.3
43620.2
43614.3
43607.5
43601.5
43596.3
43591.3
43586.6
43583.1
43581
43576.9
43571.8
43566.5
43561.2
43556.1
43551.1
43546.8
43544.6
43546.4
43545.1
43540.2
43534.6
43527.7
43520.9
43515.4
43510.3
43505.3
43500.7
43496.6
43492
43486.9
43481.9
43476.9
43472.3
43468.9
43469.1
43468.1
43463.4
43458
43451.8
43446
43440.9
43436
43431.6
43429
43426.3
43421.5
43416.4
43411
43405.8
43400.7
43395.7
43391.1
43387.8
43386.7
43383.3
43378.3
43373
43367.4
43362.2
43357
43352
43346.9
43342
43337.7
43335.3
43335.8
43332.8
43327.7
43322
43315.7
43310.3
43305.2
43300.6
43297
43296.2
43293.3
43288.2
43282.6
43275.8
43268.7
43263.2
43258.1
43253.1
43248.6
43245.3
43246.2
43247.8
43244.2
43238.9
43232.8
43225.1
43218.4
43213.1
43208.1
43203.4
43200
43200.1
43199.2
43194.6
43189.2
43183.1
43177.5
43172.4
43167.5
43163.3
43160.5
43156.6
43151.6
43146.4
43140.5
43134.1
43128.6
43123.6
43118.8
43114.8
43113.7
43116.2
43114.3
43109.4
43103.7
43096.5
43088.9
43083.2
43078.2
43073.3
43069.1
43067.1
43066.3
43062.2
43057.1
43051.4
43045.7
43040.6
43035.7
43031.6
43030.1
43031.1
43027.9
43022.8
43016.8
43009.3
43002.7
42997.5
42992.5
42987.9
42984.5
42982.8
42979.1
42974.1
42968.8
42963.3
42958.1
42953.1
42948.6
42945.2
42945.4
42944.6
42940.1
42934.7
42928.4
42922
42916.7
42911.8
42907.3
42904.1
42904
42901.6
42896.6
42891.2
42885.3
42880
42874.9
42870.1
42865.7
42861.9
42857.3
42852.3
42847.2
42842
42836.8
42831.8
42826.8
42822
42817.9
42816.2
42818.2
42816.5
42811.7
42806.2
42799.7
42793.4
42788.3
42783.3
42778.7
42775.2
42772.8
42768.6
42763.6
42758.3
42752.6
42747.1
42742
42737.2
42732.9
42730.5
42731.8
42730
42725.1
42719.6
42712.6
42705.2
42699.6
42694.6
42689.8
42685.7
42684.1
42685.7
42683.3
42678.4
42672.8
42665.6
42658.1
42652.5
42647.4
42642.5
42638
42634.4
42634.4
42634.5
42630.4
42625.2
42619.1
42611.6
42605.2
42600.1
42595.1
42590.3
42586.2
42584
42585.3
42583.3
42578.5
42573
42566.6
42560.8
42555.7
42550.8
42546.3
42543.2
42541.2
42537.1
42532.1
42527
42521.9
42517
42512.3
42508.3
42506.9
42506
42501.7
42496.5
42490.3
42483.2
42477.5
42472.5
42467.7
42463.7
42462.1
42462.5
42459
42453.9
42448.2
42441.5
42435.9
42431
42426.2
42422.2
42420.8
42420.1
42415.9
42410.7
42404.8
42398.2
42392.8
42387.9
42383.2
42379.4
42378.5
42377.4
42372.9
42367.8
42362
42356.6
42351.6
42346.9
42342.7
42340.2
42337
42332.2
42327.1
42321.6
42315.9
42310.8
42305.9
42301.5
42298.4
42299.1
42298.2
42293.7
42288.4
42282.1
42275.4
42270
42265.1
42260.6
42256.9
42256.6
42256.3
42252.1
42246.9
42240.7
42232.4
42225.4
42220.1
42215.2
42210.3
42205.7
42201.7
42200.4
42203.2
42202.5
42198
42192.8
42186.5
42179
42173.1
42168.1
42163.2
42158.5
42154
42150
42145.6
42140.8
42135.9
42131.1
42126.7
42123.2
42123.4
42126
42123.4
42118.5
42113
42106
42098.9
42093.5
42088.5
42083.7
42079.1
42075.2
42071.4
42066.8
42061.9
42057
42052.1
42047.4
42043.3
42041
42042.1
42040.2
42035.5
42030.2
42023.5
42016.1
42010.4
42005.4
42000.6
41996
41992.1
41990.8
41991.2
41987.8
41982.8
41977.2
41970.2
41963.8
41958.7
41953.8
41949
41944.7
41941.6
41942.3
41942.2
41938
41932.9
41926.8
41919.3
41913.1
41908.1
41903.3
41898.9
41895.8
41896.2
41895.2
41890.8
41885.6
41879.2
41871.7
41865.9
41861
41856.3
41852.2
41850.2
41852
41850.6
41845.9
41840.6
41833.9
41826
41820.1
41815.2
41810.4
41806.2
41803.4
41804.2
41802.7
41798
41792.8
41786.2
41778.7
41773
41768.2
41763.5
41759.4
41757.5
41759
41757
41752.2
41746.9
41740
41732
41726.1
41721.2
41716.5
41712.2
41709.4
41710.5
41710.2
41705.9
41700.8
41695
41688.9
41683.8
41679
41674.4
41670.8
41669
41665.6
41660.9
41655.8
41650
41644
41639
41634.2
41629.7
41626.3
41626.3
41626.3
41622.2
41617.2
41611.3
41604.4
41598.8
41594
41589.3
41585.2
41583.1
41584.3
41582.1
41577.4
41572.1
41565.7
41559.5
41554.4
41549.6
41544.9
41540.5
41536.5
41532
41527.2
41522.3
41517.4
41512.5
41507.7
41502.9
41498.5
41495
41494.7
41496
41492.7
41487.8
41482.3
41475.7
41469.7
41464.7
41460
41455.4
41451.5
41448.9
41445.3
41440.6
41435.8
41430.9
41426.1
41421.4
41416.9
41413.3
41412.5
41412.2
41408.1
41403.2
41397.7
41392.2
41387.3
41382.5
41377.9
41373.7
41369.6
41365
41360.2
41355.4
41350.6
41345.8
41341.2
41337.1
41334.7
41336.3
41335.7
41331.4
41326.3
41320.3
41312.8
41306.6
41301.6
41296.8
41292.1
41287.5
41283.2
41279
41274.4
41269.7
41265
41260.5
41256.5
41254.4
41256
41254.6
41250.1
41245
41239
41232.8
41227.7
41222.9
41218.3
41214.3
41211.6
41208.7
41204.2
41199.4
41194.4
41189.4
41184.7
41180
41175.7
41172.5
41172.8
41172.3
41168.1
41163.2
41157.6
41152
41147
41142.3
41137.7
41133.4
41129.7
41125.6
41121
41116.3
41111.6
41107.1
41103
41099.2
41094.7
41090
41085.2
41080.3
41075
41069.8
41065
41060.3
41055.7
41051.5
41048.9
41050.6
41053.5
41050.7
41045.9
41040.6
41033.6
41024.4
41017.7
41012.7
41008
41003.4
40999.4
40997.3
40999.5
40999.6
40995.5
40990.5
40984.8
40977.3
40970.3
40965.1
40960.4
40955.6
40950.9
40946.2
40941.5
40936.9
40932.8
40929.9
40931
40932.4
40929
40924.2
40918.7
40911.6
40903.2
40897.2
40892.4
40887.6
40883
40878.3
40874.1
40870.9
40871.3
40873.6
40870.9
40866.1
40860.9
40854
40845.4
40839.1
40834.2
40829.5
40825
40821.3
40820.2
40822.9
40821.9
40817.5
40812.5
40806.5
40799
40792.9
40788
40783.3
40778.7
40774.5
40771.3
40768.2
40763.9
40759.2
40754.6
40749.9
40745.5
40741.6
40739.1
40735.6
40731
40726.3
40721.5
40716.8
40712.2
40707.6
40703.6
40701.3
40702.2
40700.1
40695.6
40690.6
40684.9
40679.2
40674.4
40669.7
40665.2
40661
40657.7
40653.7
40649.1
40644.5
40639.8
40635.2
40630.9
40627.4
40627
40626.5
40622.5
40617.6
40612.1
40604.8
40597.7
40592.5
40587.8
40583.1
40578.5
40573.9
40569.8
40566.8
40567.6
40569.6
40566.6
40561.9
40556.6
40550
40541.2
40534.6
40529.6
40525
40520.3
40515.7
40511.1
40506.7
40503
40501.8
40505.3
40505.9
40502.1
40497.3
40491.9
40485
40478.4
40473.4
40468.7
40464.1
40459.6
40455.6
40451.9
40447.5
40442.9
40438.3
40433.6
40429
40424.5
40420.6
40418.6
40419.6
40417.4
40412.9
40407.9
40402.2
40396.4
40391.6
40387
40382.4
40378.2
40374.2
40369.7
40365.1
40360.3
40355.3
40350.2
40345.4
40340.8
40336.5
40332.9
40332
40335
40334
40329.7
40324.8
40318.7
40310
40301.1
40295.4
40290.7
40286.1
40281.6
40277.7
40275.3
40277.1
40277.2
40273.2
40268.4
40262.9
40256
40249.7
40244.8
40240.3
40235.9
40232.1
40230.9
40232
40229.3
40224.7
40219.5
40213
40205.5
40200
40195.3
40190.8
40186.6
40183.6
40184.2
40184.3
40180.4
40175.7
40170.2
40162.9
40155.7
40150.5
40145.9
40141.4
40137.2
40134.3
40135.2
40136
40132.5
40127.8
40122.7
40116.6
40111
40106.2
40101.6
40097
40092.4
40087.9
40083.3
40078.9
40074.5
40070.2
40066
40062.6
40061.5
40063.1
40060.6
40056.1
40051.2
40045.2
40037.7
40031.7
40026.9
40022.3
40017.7
40013.2
40008.6
40004.2
40000.1
39997.1
39997.2
39996
39991.8
39987.2
39982.5
39977.7
39972.9
39967.9
39962.7
39957.8
39953.1
39948.6
39944
39939.4
39934.9
39930.3
39925.9
39922
39919.6
39920.4
39918.6
39914.2
39909.4
39903.7
39897.2
39891.9
39887.2
39882.7
39878.5
39875.3
39875.2
39875.2
39871.5
39866.8
39861.6
39855
39848.8
39844
39839.4
39835
39831
39828.4
39828.6
39826.3
39821.8
39817.1
39812.1
39807.4
39802.9
39798.3
39794
39789.6
39785.1
39780.5
39775.9
39771.2
39766.6
39762
39757.6
39753.7
39751.4
39752.4
39750.9
39746.5
39741.8
39736.2
39729.7
39724.5
39719.9
39715.4
39711.3
39708.4
39707.8
39705.2
39700.7
39695.9
39690
39682
39675.2
39670.3
39665.7
39661.2
39657.1
39653.8
39653.9
39657.6
39656.4
39652.2
39647.4
39641.8
39634.3
39627.2
39622.1
39617.6
39613.1
39608.9
39605.5
39604.9
39605.9
39602.8
39598.2
39593.3
39587.6
39582.1
39577.4
39572.9
39568.4
39564.3
39560.4
39556.2
39551.7
39547.1
39542.4
39537.3
39531.9
39527.2
39522.6
39518.1
39513.7
39509.3
39505.4
39503.1
39505.2
39507.6
39504.7
39500.2
39495.2
39489.2
39481.4
39475.5
39470.7
39466.3
39461.8
39457.7
39454.3
39450.9
39446.6
39442.1
39437.5
39432.5
39426.9
39421.9
39417.4
39412.9
39408.6
39405
39403.5
39406.6
39407.6
39403.9
39399.3
39394.2
39387.4
39378.7
39372.6
39367.9
39363.4
39359
39355
39352.2
39352.6
39351.5
39347.4
39342.7
39337.4
39330.8
39325
39320.4
39315.9
39311.7
39308.1
39307
39308
39305.2
39300.7
39295.8
39289.7
39282.3
39276.6
39272
39267.6
39263.3
39259.7
39258.2
39258.9
39256
39251.5
39246.7
39240.8
39234.4
39229.3
39224.8
39220.4
39216.3
39213
39212.4
39211.3
39207.3
39202.7
39197.8
39192.7
39188.1
39183.7
39179.3
39175.3
39172.3
39169.2
39165
39160.5
39156
39151.3
39146.4
39141.8
39137.4
39132.9
39128.5
39124.1
39119.9
39116.2
39114.5
39116.7
39116.2
39112.2
39107.6
39102.5
39095.9
39088.2
39082.7
39078.1
39073.7
39069.2
39064.8
39060.4
39056.2
39052.4
39050.5
39051.1
39048.6
39044.2
39039.5
39034.1
39027.6
39022.3
39017.7
39013.3
39008.9
39004.6
39000.9
38998.9
38999.1
38996.1
38991.7
38986.9
38981.4
38975.1
38970
38965.6
38961.2
38957.1
38953.8
38953.4
38954.4
38951.4
38947
38942.3
38936.8
38930.9
38926.1
38921.6
38917.2
38912.8
38908.3
38903.9
38899.5
38895
38890.6
38886.2
38881.9
38877.7
38874.2
38873
38874.4
38872
38867.7
38863.1
38857.9
38852.3
38847.6
38843.2
38838.8
38834.4
38830.2
38826.1
38821.8
38817.4
38813
38808.7
38804.3
38800
38796
38792.9
38792.7
38791.6
38787.6
38783.1
38778.2
38772
38765.5
38760.5
38756.1
38751.7
38747.3
38743
38739
38735.8
38735.5
38736
38732.7
38728.2
38723.5
38717.8
38711.2
38706
38701.5
38697.1
38692.8
38688.6
38685.1
38683.8
38683.7
38680.3
38675.9
38671.2
38666
38660.9
38656.4
38652.1
38647.9
38644
38641.3
38638.8
38634.7
38630.4
38626
38621.6
38617.2
38612.9
38608.7
38604.9
38601.9
38598.2
38593.9
38589.5
38585.1
38580.8
38576.4
38572.1
38567.9
38564.4
38562.8
38562.5
38559.2
38554.8
38550.2
38544.9
38539.3
38534.6
38530.2
38525.8
38521.4
38517.1
38512.7
38508.4
38504.2
38500.2
38497.2
38496.4
38493.9
38489.7
38485.3
38480.7
38475.8
38471
38466.5
38462.2
38457.9
38453.7
38450.2
38448.8
38448.8
38445.5
38441.2
38436.5
38431.2
38425.8
38421.3
38416.9
38412.6
38408.5
38404.7
38400.7
38396.4
38392.1
38387.7
38383.2
38378.8
38374.5
38370.2
38366.2
38363
38362.6
38362.2
38358.5
38354.1
38349.3
38343.4
38337.4
38332.7
38328.3
38324.1
38320.2
38317.4
38317.9
38317.9
38314.3
38309.9
38305.1
38299.2
38291.8
38286.2
38281.7
38277.4
38273
38268.7
38264.4
38260.1
38255.8
38251.7
38248
38245.9
38247
38245.8
38241.7
38237.3
38232.4
38226.3
38220.3
38215.7
38211.3
38207.1
38203.1
38199.8
38199.1
38197.9
38194
38189.6
38184.9
38179.2
38173.8
38169.3
38165
38160.8
38157
38154.5
38154.6
38152.5
38148.3
38143.9
38139
38133.2
38127.8
38123.4
38119.1
38114.8
38110.5
38106.4
38102.9
38100.8
38098.5
38094.5
38090.2
38085.8
38081.3
38076.7
38072.3
38068
38063.8
38059.5
38055.5
38052.1
38050.9
38051.3
38048.3
38044
38039.5
38034.5
38028.7
38023.7
38019.2
38014.9
38010.7
38006.4
38002
37997.7
37993.1
37988.7
37984.4
37980.1
37975.8
37971.6
37967.6
37964.2
37963.2
37963.3
37960.2
37955.9
37951.3
37945.9
37939.2
37933.7
37929.3
37925
37920.9
37917.2
37915.2
37916.8
37916.3
37912.5
37908.2
37903.3
37897.1
37889.7
37884.4
37879.9
37875.7
37871.5
37867.8
37865.5
37866.2
37864.7
37860.7
37856.3
37851.4
37845.2
37838.8
37834.1
37829.8
37825.6
37821.5
37818.1
37816.8
37816.8
37813.6
37809.3
37804.8
37799.8
37794.8
37790.4
37786.2
37782.1
37778.3
37775.8
37774.6
37771.2
37767
37762.6
37757.8
37751.9
37746
37741.4
37737.1
37732.9
37728.7
37724.5
37720.4
37717
37715.5
37717.4
37716.5
37712.6
37708.2
37703.6
37697.9
37691.4
37686.4
37682.1
37677.8
37673.6
37669.4
37665.1
37660.9
37656.7
37652.5
37648.3
37644.2
37640.3
37636.9
37635.2
37636.4
37634.9
37630.9
37626.6
37621.9
37616.1
37608.2
37601.9
37597.3
37593
37588.8
37584.6
37580.4
37576.2
37572.1
37568.5
37566.5
37568.7
37570.8
37567.9
37563.8
37559.3
37554.2
37547
37537.9
37532
37527.5
37523.3
37519
37514.9
37510.7
37506.8
37503.5
37502.8
37505.7
37504.9
37501.1
37496.8
37492.1
37486.3
37478.5
37472.5
37468
37463.8
37459.6
37455.6
37452.1
37450.3
37451.4
37449.5
37445.5
37441.2
37436.6
37431.1
37425.7
37421.2
37417
37412.8
37408.6
37404.4
37400.1
37395.7
37391.4
37387.2
37383
37378.9
37374.7
37370.8
37367.5
37366.5
37367.8
37365.4
37361.3
37357
37352.2
37346.3
37341
37336.6
37332.4
37328.3
37324.5
37321.7
37321.6
37320.2
37316.4
37312.1
37307.5
37301.7
37293.8
37287.5
37282.9
37278.7
37274.5
37270.3
37266.2
37262
37257.8
37253.7
37249.6
37245.8
37242.9
37243.2
37246
37244.1
37240.1
37235.8
37231.1
37225
37217.7
37212.4
37208
37203.9
37199.8
37195.9
37192.8
37192.2
37192.8
37189.8
37185.6
37181.3
37176.3
37169.9
37163.6
37158.9
37154.7
37150.6
37146.4
37142.3
37138.2
37134.4
37131.5
37131.5
37133.6
37131.5
37127.4
37123.2
37118.5
37112.5
37104.4
37098.2
37093.7
37089.5
37085.3
37081.2
37077
37072.9
37068.8
37064.6
37060.5
37056.6
37053.2
37051.9
37053.9
37052.8
37049
37044.7
37040.1
37034.3
37026.1
37019.4
37014.7
37010.6
37006.5
37002.5
36999.1
36997.6
37000.7
37002.8
36999.9
36995.8
36991.5
36986.5
36979.4
36969.4
36962.5
36957.8
36953.6
36949.5
36945.4
36941.3
36937.3
36933.7
36931.3
36932.9
36936.1
36934
36930
36925.8
36921.1
36915.3
36907.9
36902.5
36898.2
36894
36890
36886
36882.4
36879.6
36876.4
36872.4
36868.3
36864.1
36859.7
36854.9
36850.1
36845.9
36841.8
36837.7
36833.6
36829.9
36827.2
36827.6
36827.8
36824.6
36820.4
36816.1
36811.3
36805.4
36800.3
36796.1
36792
36787.9
36784.1
36780.9
36779.1
36776.1
36772.1
36768
36763.8
36759.4
36755.1
36751
36746.9
36742.9
36739.3
36736.7
36734.3
36730.6
36726.5
36722.4
36718
36712.9
36707.4
36702.9
36698.7
36694.6
36690.6
36686.6
36683
36680.5
36680.9
36680.2
36676.5
36672.4
36668.1
36663.1
36657.3
36652.5
36648.4
36644.3
36640.3
36636.6
36634
36633.9
36631.9
36628
36623.9
36619.5
36614.2
36607.3
36601.8
36597.4
36593.3
36589.2
36585.2
36581.1
36577.1
36573.4
36570.6
36570.7
36574
36572.8
36569.1
36564.9
36560.6
36555.4
36548
36538.8
36533.1
36528.7
36524.6
36520.6
36516.5
36512.5
36508.4
36504.3
36500.3
36496.4
36492.8
36490.4
36491.7
36493.3
36490.6
36486.6
36482.4
36477.7
36471.8
36464.8
36459.8
36455.6
36451.6
36447.6
36443.9
36441
36440.9
36441.6
36438.7
36434.7
36430.5
36425.8
36419.7
36412
36406.6
36402.3
36398.2
36394.2
36390.2
36386.1
36382.1
36378.1
36374.1
36370.6
36368.1
36368.8
36368.7
36365.3
36361.2
36357
36352.4
36347.3
36342.8
36338.8
36334.8
36330.9
36327.4
36325.1
36322.8
36319.1
36315
36310.9
36306.3
36300.6
36293.7
36288.7
36284.5
36280.5
36276.5
36272.6
36269.2
36267.5
36268.7
36267.4
36263.7
36259.6
36255.3
36250.3
36244.2
36239.2
36235.1
36231
36227.1
36223.3
36220.1
36219.2
36218.8
36215.6
36211.6
36207.5
36203.1
36198.5
36194.4
36190.3
36186.3
36182.4
36178.6
36174.8
36170.8
36166.8
36162.7
36158.5
36154.2
36150.1
36146.1
36142.1
36138.2
36134.7
36132
36128.9
36125
36121
36117
36112.7
36108
36103.7
36099.7
36095.7
36091.8
36088.5
36086.7
36087.3
36085.1
36081.2
36077.1
36072.7
36067.3
36061.2
36056.6
36052.5
36048.5
36044.7
36041.2
36039.1
36040.1
36039.3
36035.8
36031.8
36027.6
36022.8
36016.4
36009.9
36005.4
36001.3
35997.3
35993.3
35989.3
35985.4
35981.8
35978.8
35977.6
35975.2
35971.4
35967.4
35963.3
35958.9
35953.8
35948.9
35944.7
35940.7
35936.7
35932.9
35929.5
35927.4
35926.8
35923.9
35920
35916
35911.8
35907
35902.3
35898.2
35894.2
35890.3
35886.6
35883.5
35881.8
35879.2
35875.4
35871.4
35867.4
35863
35858.4
35854.2
35850.2
35846.3
35842.5
35839.1
35837.2
35836.3
35833.1
35829.2
35825.2
35821.1
35816.7
35811.7
35807.1
35803
35799
35795
35791
35786.8
35782.2
35777.7
35773.6
35769.7
35765.7
35761.8
35757.9
35754.2
35751.2
35750.5
35751.6
35749.1
35745.3
35741.3
35737.1
35732.2
35726.9
35722.5
35718.5
35714.6
35710.8
35707.2
35704.6
35703
35699.8
35695.9
35691.9
35687.8
35683.2
35677.4
35671.8
35667.5
35663.5
35659.6
35655.6
35651.7
35647.8
35644.1
35641
35639.8
35641.7
35640.6
35637
35633
35628.9
35624.2
35617.8
35610.2
35605.2
35601.1
35597.2
35593.3
35589.5
35586
35583.7
35582.3
35579.1
35575.2
35571.3
35567.2
35563
35558.9
35554.9
35551
35547.1
35543.5
35540.7
35538.6
35535.3
35531.4
35527.5
35523.5
35519.5
35515.6
35511.7
35507.8
35504
35500.8
35499.2
35497.6
35494.1
35490.2
35486.2
35481.9
35476.6
35470.8
35466.4
35462.5
35458.6
35454.8
35451.4
35449.4
35449.6
35447.5
35443.7
35439.8
35435.7
35431.1
35426.2
35421.9
35418
35414.1
35410.2
35406.5
35403
35399.2
35395.3
35391.4
35387.4
35383.1
35378.4
35374.2
35370.3
35366.4
35362.6
35359.1
35356.7
35356.8
35355.4
35351.8
35347.9
35343.8
35339.3
35333.9
35329
35325
35321.1
35317.3
35313.6
35310.6
35309.2
35307.3
35303.7
35299.8
35295.8
35291.4
35286
35279.8
35275.2
35271.2
35267.3
35263.5
35259.8
35256.8
35255.7
35257.8
35256.7
35253.2
35249.3
35245.2
35240.8
35235
35227.1
35221.3
35217
35213.1
35209.2
35205.4
35201.5
35197.6
35193.8
35190.2
35187.1
35186.1
35186.5
35183.8
35180
35176.1
35172.1
35167.5
35162.5
35158.2
35154.3
35150.4
35146.6
35142.9
35139.7
35137.4
35134.4
35130.7
35126.9
35123
35119.2
35115.3
35111.5
35107.7
35104.2
35101.5
35099.3
35095.9
35092.1
35088.2
35084.3
35080.1
35075.3
35069.9
35065.6
35061.7
35057.9
35054.1
35050.4
35047.1
35045.2
35044.7
35041.8
35038.1
35034.2
35030.3
35026.2
35021.6
35017.2
35013.3
35009.5
35005.6
35001.8
34997.9
34994.1
34990.2
34986.4
34982.6
34978.9
34975.6
34973.6
34972.3
34969.2
34965.4
34961.6
34957.7
34953.6
34949.2
34943.5
34938
34933.8
34929.9
34926.1
34922.3
34918.7
34915.7
34914.8
34916.3
34914.5
34910.9
34907
34903.1
34899
34894.1
34888.3
34883.7
34879.8
34875.9
34872.1
34868.2
34864.4
34860.6
34856.8
34852.9
34849.1
34845.3
34841.6
34838.1
34835.3
34833.8
34831
34827.4
34823.5
34819.7
34815.8
34811.8
34807.8
34803.9
34800.1
34796.4
34792.7
34789.6
34787.9
34786.2
34782.8
34779
34775.2
34771.4
34767.6
34763.8
34759.9
34756.1
34752
34747.5
34741.7
34735.6
34731.3
34727.4
34723.5
34719.7
34715.9
34712.2
34708.4
34705
34702.5
34702.8
34703.6
34700.8
34697.1
34693.2
34689.2
34684.6
34678.7
34673.2
34669.1
34665.2
34661.5
34657.7
34654.3
34651.6
34650.8
34648.8
34645.2
34641.4
34637.6
34633.7
34629.6
34625.7
34621.9
34618.1
34614.4
34610.9
34607.8
34604.3
34600.5
34596.7
34592.9
34588.8
34584.1
34578.8
34574.6
34570.7
34566.9
34563.2
34559.6
34556.6
34555.4
34554.6
34551.5
34547.8
34544
34540.1
34535.9
34531.5
34527.6
34523.8
34520.1
34516.4
34512.8
34509.8
34506.8
34503.2
34499.5
34495.7
34491.9
34488.2
34484.4
34480.6
34476.9
34473.2
34469.9
34467.6
34465.9
34462.7
34459
34455.3
34451.5
34447.7
34444
34440.2
34436.4
34432.6
34428.8
34425
34421
34416.4
34410.6
34405
34400.9
34397.1
34393.3
34389.6
34385.9
34382.4
34379.7
34379.4
34381.5
34379.7
34376.1
34372.3
34368.5
34364.3
34358.9
34352.1
34347
34343
34339.3
34335.5
34331.9
34328.5
34326.1
34325.6
34323.5
34319.9
34316.2
34312.4
34308.5
34304.6
34300.7
34297
34293.3
34289.7
34286.5
34284.2
34281.6
34278
34274.3
34270.5
34266.5
34262
34255.7
34248.7
34244.2
34240.3
34236.5
34232.8
34229.1
34225.4
34222.1
34219.6
34220
34221.9
34219.8
34216.2
34212.4
34208.6
34204.6
34199.8
34193.8
34188.8
34184.8
34181
34177.3
34173.6
34169.8
34166.1
34162.4
34158.6
34154.9
34151.2
34147.5
34143.7
34140
34136.4
34133
34130.6
34130.9
34131.7
34129
34125.4
34121.6
34117.8
34113.5
34108
34099.6
34092.6
34088.2
34084.4
34080.7
34077
34073.3
34069.6
34065.9
34062.5
34059.9
34059.7
34060.7
34058.1
34054.5
34050.8
34047
34043
34038.2
34033.4
34029.5
34025.8
34022.1
34018.4
34015
34012.4
34010.3
34007
34003.3
33999.6
33995.8
33991.7
33986.7
33981.2
33976.9
33973.2
33969.5
33965.8
33962.3
33959.3
33958
33958.3
33955.9
33952.3
33948.6
33944.8
33940.7
33935.7
33930.2
33926.1
33922.3
33918.6
33915
33911.5
33908.6
33907.7
33907.5
33904.5
33900.9
33897.2
33893.4
33889.3
33884.2
33877.4
33872.2
33868.2
33864.4
33860.7
33857.1
33853.4
33849.7
33846
33842.4
33838.7
33835.3
33832.4
33831.6
33832.2
33829.8
33826.2
33822.5
33818.7
33814.6
33809.4
33802.2
33796.4
33792.3
33788.6
33784.9
33781.3
33777.9
33775.3
33775.1
33776.4
33774
33770.5
33766.8
33763.1
33759
33754.1
33748.2
33743.8
33740
33736.3
33732.7
33729.1
33725.7
33723
33720.2
33716.8
33713.1
33709.4
33705.7
33702
33698.2
33694.5
33690.9
33687.3
33683.7
33680.6
33678.4
33675.8
33672.4
33668.7
33665.1
33661.4
33657.6
33653.9
33650.3
33646.6
33643
33639.5
33636.4
33634.1
33631.3
33627.8
33624.2
33620.5
33616.9
33613.2
33609.3
33605.3
33601.4
33597.8
33594.1
33590.4
33586.8
33583.1
33579.3
33575.1
33569.9
33564.6
33560.6
33556.9
33553.2
33549.6
33546.1
33542.8
33540.6
33541.4
33541.6
33538.6
33535.1
33531.4
33527.7
33523.6
33518.4
33512.5
33508.1
33504.4
33500.8
33497.2
33493.6
33490.4
33488.3
33487.1
33484.3
33480.7
33477.1
33473.5
33469.8
33466.2
33462.6
33458.9
33455.3
33451.8
33448.6
33445.5
33442.1
33438.5
33434.8
33431.2
33427.4
33423.2
33418.7
33414.8
33411.2
33407.6
33404
33400.5
33397.4
33394.9
33391.8
33388.2
33384.6
33381
33377.2
33373.1
33368.8
33365
33361.4
33357.8
33354.3
33351
33348.6
33348.1
33346.3
33342.9
33339.3
33335.6
33331.8
33327.4
33322
33317.3
33313.5
33309.9
33306.3
33302.8
33299.7
33297.8
33297.7
33295.4
33291.9
33288.3
33284.7
33280.9
33276.6
33270.8
33264.9
33260.7
33257
33253.4
33249.8
33246.2
33242.6
33239.1
33235.9
33233.4
33233
33231.4
33228.1
33224.6
33221
33217.4
33213.7
33209.8
33205.1
33200.4
33196.6
33192.9
33189.3
33185.7
33182.1
33178.5
33175
33171.4
33167.8
33164.2
33160.8
33157.7
33155.7
33156
33154.6
33151.3
33147.7
33144.1
33140.5
33136.7
33132.2
33125.9
33118.7
33114
33110.3
33106.6
33103.1
33099.5
33095.9
33092.3
33088.8
33085.3
33082
33079.3
33078.7
33078.9
33076.3
33072.8
33069.3
33065.7
33061.9
33057.7
33052.7
33048.2
33044.5
33040.9
33037.3
33033.8
33030.4
33027.6
33026.1
33023.9
33020.5
33017
33013.4
33009.9
33006.3
33002.7
32999.1
32995.5
32991.8
32988.1
32984.5
32980.9
32977.3
32973.6
32969.5
32964.3
32958.8
32954.7
32951.1
32947.5
32944
32940.5
32937.2
32934.5
32933.8
32934.8
32932.7
32929.3
32925.8
32922.2
32918.5
32914.3
32908.9
32903.1
32899
32895.4
32891.9
32888.3
32884.8
32881.5
32878.6
32876.5
32873.7
32870.3
32866.8
32863.2
32859.7
32856.1
32852.6
32849.1
32845.8
32842.8
32839.8
32836.4
32832.9
32829.4
32825.8
32822.3
32818.7
32815.2
32811.7
32808.3
32805.2
32802
32798.5
32795
32791.4
32787.9
32784.3
32780.8
32777.3
32773.7
32770.2
32766.8
32763.5
32760.9
32759
32756.1
32752.7
32749.2
32745.7
32742.1
32738.6
32735.1
32731.5
32727.7
32723.3
32717.8
32713.2
32709.5
32705.9
32702.4
32698.9
32695.4
32691.9
32688.4
32685.1
32682.4
32681.5
32682.3
32680.1
32676.7
32673.2
32669.7
32666.1
32662.4
32658.4
32653.2
32647.5
32643.2
32639.6
32636
32632.4
32628.7
32624.8
32620.7
32617
32613.4
32609.9
32606.4
32602.9
32599.4
32595.9
32592.5
32589.2
32586.6
32586.1
32588
32586.5
32583.3
32579.8
32576.3
32572.8
32569.2
32565.2
32560.2
32552.7
32545.9
32541.7
32538.1
32534.6
32531.1
32527.6
32524.1
32520.6
32517.1
32513.6
32510.1
32506.8
32504
32502.8