/*--------------------------------*- C++ -*----------------------------------*\
  =========                 |
  \\      /  F ield         | OpenFOAM: The Open Source CFD Toolbox
   \\    /   O peration     | Website:  https://openfoam.org
    \\  /    A nd           | Version:  9
     \\/     M anipulation  |
\*---------------------------------------------------------------------------*/
FoamFile
{
    format      ascii;
    class       volScalarField;
    location    "0.018";
    object      mag(U);
}
// * * * * * * * * * * * * * * * * * * * * * * * * * * * * * * * * * * * * * //

dimensions      [0 1 -1 0 0 0 0];

internalField   nonuniform List<scalar> 
10000
(
81.0416
81.1043
81.2729
81.5532
81.765
81.8904
81.9604
81.9985
82.0255
82.038
82.0412
82.0457
82.0527
82.0595
82.0654
82.0771
82.1089
82.1918
82.3154
82.406
82.4562
82.4915
82.5101
82.516
82.5197
82.5297
82.5391
82.5436
82.5471
82.5595
82.6021
82.7211
82.91
83.0539
83.134
83.1864
83.2281
83.2498
83.2559
83.2582
83.2683
83.2838
83.2953
83.3027
83.3177
83.3641
83.4949
83.6801
83.8195
83.897
83.9264
83.9413
83.9692
84.0066
84.0325
84.0325
84.0183
84.0162
84.0219
84.0369
84.0515
84.0737
84.1429
84.2831
84.4122
84.4928
84.5298
84.5517
84.586
84.6234
84.6521
84.6692
84.6997
84.7512
84.8238
84.9032
84.9646
85.0027
85.0365
85.0824
85.1494
85.215
85.2573
85.2812
85.3062
85.346
85.4169
85.4879
85.5272
85.5423
85.5597
85.5858
85.6535
85.7374
85.798
85.8156
85.8299
85.8503
85.914
86.0067
86.0813
86.1044
86.1163
86.1353
86.1756
86.236
86.2896
86.3242
86.3541
86.4175
86.5075
86.5812
86.6018
86.6074
86.6199
86.6612
86.754
86.8448
86.8906
86.8974
86.9044
86.9297
87.0115
87.1106
87.1814
87.196
87.1948
87.2047
87.2486
87.3458
87.4431
87.4998
87.5059
87.4942
87.4984
87.5154
87.5686
87.6687
87.768
87.8337
87.857
87.8879
87.9393
87.9851
88.0053
88.0211
88.0455
88.1233
88.2209
88.2917
88.3081
88.3146
88.3331
88.4044
88.4972
88.5606
88.5729
88.5781
88.5959
88.662
88.7615
88.8439
88.8762
88.8934
88.9323
88.9824
89.0127
89.0293
89.046
89.1012
89.2011
89.2907
89.3298
89.3337
89.3392
89.366
89.4496
89.5447
89.6056
89.6151
89.6164
89.6322
89.6983
89.8044
89.8937
89.9271
89.9191
89.8938
89.8983
89.9339
90.0262
90.1619
90.26
90.3063
90.3089
90.3004
90.3109
90.3446
90.4313
90.5225
90.5724
90.5866
90.6049
90.6751
90.7621
90.8116
90.8208
90.8295
90.862
90.9488
91.0398
91.0854
91.0924
91.0989
91.1338
91.2266
91.334
91.4059
91.4185
91.3958
91.3779
91.3887
91.444
91.5539
91.6934
91.7827
91.8139
91.8089
91.7935
91.8032
91.841
91.9345
92.0407
92.1122
92.1283
92.1295
92.1416
92.1893
92.2855
92.3755
92.4145
92.4199
92.4267
92.4602
92.5326
92.6016
92.6204
92.6167
92.6212
92.662
92.7603
92.9037
93.0018
93.0441
93.0409
93.0137
93.0143
93.0384
93.1187
93.2385
93.3339
93.3757
93.3759
93.3701
93.3838
93.4465
93.5609
93.6679
93.7276
93.7336
93.7129
93.7111
93.7344
93.8149
93.9405
94.0413
94.092
94.095
94.0805
94.087
94.1168
94.2041
94.3119
94.3923
94.4154
94.4181
94.4286
94.4682
94.5579
94.6471
94.6865
94.6978
94.7127
94.756
94.8152
94.8523
94.8626
94.8688
94.8879
94.9644
95.096
95.2268
95.3001
95.3146
95.2885
95.2518
95.2566
95.2938
95.3885
95.5401
95.6551
95.7145
95.7201
95.6913
95.6744
95.6867
95.7418
95.8512
95.9777
96.0582
96.08
96.0694
96.0591
96.0722
96.1284
96.2372
96.3483
96.4156
96.4286
96.4202
96.4257
96.4498
96.5271
96.6283
96.7041
96.7248
96.7331
96.7503
96.8153
96.9054
96.9669
96.98
96.9872
97.0092
97.0696
97.1385
97.1696
97.1777
97.1864
97.2265
97.3238
97.4667
97.5651
97.6072
97.6039
97.5709
97.5656
97.5832
97.6498
97.7671
97.8804
97.9469
97.9609
97.9607
97.9727
98.0159
98.1102
98.2025
98.2453
98.2467
98.2417
98.2561
98.3192
98.4348
98.5452
98.6081
98.6175
98.6009
98.5996
98.619
98.6881
98.8018
98.8986
98.9455
98.9518
98.9534
98.9695
99.0258
99.123
99.2085
99.2402
99.2506
99.2652
99.2915
99.3284
99.3622
99.3867
99.4288
99.5236
99.6698
99.7755
99.8265
99.8264
99.7784
99.7309
99.7365
99.7696
99.8621
100.021
100.181
100.265
100.29
100.276
100.226
100.214
100.229
100.288
100.4
100.537
100.623
100.651
100.645
100.632
100.643
100.685
100.781
100.89
100.961
100.976
100.965
100.961
100.977
101.026
101.111
101.184
101.208
101.223
101.282
101.4
101.539
101.622
101.645
101.622
101.557
101.537
101.552
101.611
101.727
101.91
102.029
102.088
102.095
102.062
102.018
102.023
102.045
102.121
102.247
102.37
102.441
102.458
102.453
102.458
102.478
102.546
102.641
102.713
102.732
102.741
102.761
102.83
102.921
102.981
102.991
102.982
102.989
103.012
103.081
103.18
103.262
103.302
103.357
103.458
103.577
103.655
103.674
103.646
103.555
103.505
103.515
103.539
103.619
103.758
103.978
104.11
104.176
104.189
104.158
104.089
104.073
104.088
104.14
104.248
104.416
104.527
104.581
104.586
104.552
104.521
104.531
104.566
104.656
104.798
104.907
104.963
104.972
104.959
104.962
104.982
105.045
105.135
105.2
105.215
105.213
105.225
105.257
105.344
105.452
105.533
105.562
105.582
105.649
105.736
105.784
105.785
105.763
105.766
105.8
105.892
106.039
106.152
106.209
106.215
106.185
106.162
106.174
106.215
106.31
106.436
106.524
106.555
106.556
106.56
106.585
106.667
106.798
106.902
106.952
106.951
106.907
106.874
106.885
106.929
107.031
107.199
107.323
107.386
107.397
107.363
107.3
107.292
107.309
107.356
107.457
107.601
107.7
107.744
107.756
107.769
107.807
107.897
107.99
108.034
108.03
107.986
107.972
107.989
108.06
108.19
108.389
108.504
108.557
108.562
108.513
108.434
108.424
108.441
108.503
108.622
108.815
108.943
109.006
109.017
108.984
108.918
108.908
108.925
108.981
109.092
109.26
109.367
109.418
109.424
109.399
109.386
109.402
109.437
109.525
109.624
109.684
109.696
109.686
109.693
109.722
109.807
109.944
110.065
110.133
110.152
110.149
110.135
110.141
110.16
110.183
110.207
110.279
110.405
110.602
110.723
110.781
110.788
110.743
110.636
110.596
110.608
110.646
110.741
110.912
111.11
111.207
111.246
111.244
111.188
111.131
111.136
111.159
111.235
111.37
111.548
111.646
111.686
111.685
111.626
111.543
111.53
111.549
111.579
111.667
111.817
112.037
112.154
112.21
112.218
112.177
112.093
112.073
112.089
112.139
112.246
112.438
112.61
112.693
112.719
112.703
112.622
112.554
112.558
112.581
112.656
112.79
112.991
113.105
113.158
113.165
113.125
113.067
113.067
113.088
113.158
113.285
113.445
113.537
113.57
113.562
113.493
113.424
113.425
113.445
113.507
113.627
113.843
114.023
114.107
114.135
114.124
114.05
113.981
113.984
114.006
114.077
114.206
114.418
114.55
114.614
114.626
114.59
114.489
114.441
114.453
114.484
114.572
114.729
114.937
115.042
115.089
115.092
115.044
114.979
114.979
114.999
115.067
115.192
115.368
115.47
115.513
115.513
115.452
115.354
115.336
115.353
115.397
115.498
115.684
115.917
116.026
116.077
116.082
116.036
115.944
115.921
115.937
115.98
116.08
116.259
116.432
116.518
116.545
116.533
116.455
116.387
116.391
116.414
116.488
116.622
116.834
116.96
117.019
117.03
116.995
116.916
116.896
116.913
116.958
117.059
117.225
117.346
117.405
117.414
117.375
117.293
117.276
117.293
117.346
117.458
117.667
117.886
117.985
118.024
118.024
117.961
117.847
117.816
117.832
117.865
117.956
118.117
118.321
118.424
118.467
118.47
118.419
118.347
118.343
118.362
118.421
118.537
118.725
118.85
118.91
118.923
118.893
118.835
118.829
118.848
118.898
119.002
119.133
119.217
119.245
119.24
119.225
119.238
119.281
119.381
119.555
119.693
119.762
119.779
119.757
119.677
119.634
119.645
119.668
119.709
119.804
119.972
120.148
120.237
120.269
120.266
120.215
120.18
120.193
120.224
120.308
120.448
120.569
120.631
120.643
120.613
120.563
120.567
120.591
120.667
120.804
121.02
121.146
121.206
121.221
121.196
121.12
121.084
121.096
121.119
121.144
121.179
121.267
121.416
121.599
121.695
121.734
121.736
121.692
121.65
121.66
121.686
121.762
121.893
122.018
122.086
122.102
122.078
122.03
122.033
122.058
122.137
122.279
122.501
122.626
122.685
122.697
122.662
122.55
122.475
122.477
122.499
122.532
122.619
122.772
123.029
123.186
123.259
123.28
123.262
123.166
123.059
123.049
123.068
123.114
123.218
123.406
123.596
123.687
123.72
123.715
123.643
123.548
123.538
123.557
123.607
123.716
123.919
124.16
124.267
124.316
124.325
124.285
124.171
124.103
124.107
124.13
124.154
124.208
124.315
124.51
124.706
124.799
124.834
124.835
124.778
124.701
124.696
124.716
124.768
124.876
125.073
125.251
125.335
125.365
125.36
125.292
125.186
125.163
125.18
125.205
125.231
125.292
125.409
125.627
125.872
125.979
126.028
126.035
125.991
125.845
125.728
125.719
125.739
125.775
125.867
126.034
126.317
126.489
126.566
126.591
126.578
126.491
126.384
126.372
126.391
126.436
126.537
126.724
126.917
127.009
127.042
127.037
126.959
126.818
126.779
126.794
126.827
126.917
127.081
127.362
127.531
127.606
127.63
127.614
127.515
127.391
127.373
127.392
127.436
127.539
127.733
128.016
128.152
128.216
128.231
128.201
128.07
127.91
127.881
127.898
127.927
128.009
128.156
128.411
128.577
128.653
128.677
128.667
128.6
128.551
128.562
128.585
128.652
128.774
128.928
129.018
129.051
129.049
129.01
129
129.018
129.069
129.174
129.339
129.448
129.498
129.507
129.472
129.426
129.433
129.457
129.524
129.646
129.78
129.856
129.879
129.871
129.849
129.861
129.893
129.98
130.127
130.252
130.314
130.329
130.299
130.231
130.222
130.243
130.3
130.417
130.626
130.786
130.86
130.883
130.866
130.774
130.689
130.689
130.711
130.769
130.884
131.096
131.277
131.361
131.39
131.385
131.316
131.232
131.227
131.249
131.289
131.381
131.537
131.664
131.728
131.746
131.735
131.725
131.742
131.785
131.882
132.023
132.12
132.16
132.163
132.125
132.108
132.126
132.174
132.277
132.454
132.582
132.644
132.658
132.627
132.535
132.499
132.515
132.55
132.639
132.802
133.028
133.14
133.19
133.201
133.162
133.067
133.036
133.053
133.083
133.163
133.303
133.454
133.535
133.562
133.554
133.506
133.492
133.512
133.56
133.665
133.85
133.997
134.067
134.088
134.069
133.989
133.946
133.96
133.99
134.072
134.22
134.425
134.531
134.577
134.585
134.539
134.449
134.432
134.451
134.492
134.588
134.763
134.957
135.05
135.086
135.088
135.031
134.943
134.932
134.953
134.989
135.076
135.228
135.373
135.448
135.472
135.469
135.457
135.473
135.507
135.594
135.731
135.836
135.883
135.89
135.847
135.791
135.797
135.822
135.892
136.022
136.227
136.346
136.401
136.414
136.381
136.306
136.291
136.312
136.355
136.454
136.633
136.798
136.878
136.905
136.896
136.825
136.767
136.777
136.802
136.873
137.004
137.206
137.32
137.372
137.382
137.338
137.208
137.141
137.151
137.177
137.25
137.387
137.654
137.887
137.983
138.021
138.026
137.969
137.823
137.753
137.761
137.785
137.841
137.954
138.162
138.348
138.433
138.464
138.463
138.405
138.347
138.354
138.378
138.441
138.562
138.763
138.893
138.953
138.97
138.943
138.847
138.795
138.808
138.833
138.902
139.029
139.215
139.322
139.368
139.377
139.335
139.265
139.262
139.284
139.34
139.453
139.666
139.852
139.936
139.966
139.962
139.887
139.774
139.756
139.777
139.815
139.907
140.077
140.31
140.422
140.472
140.484
140.448
140.342
140.296
140.311
140.338
140.409
140.542
140.761
140.896
140.958
140.976
140.956
140.872
140.829
140.844
140.871
140.942
141.073
141.273
141.388
141.44
141.454
141.425
141.363
141.357
141.379
141.423
141.519
141.685
141.814
141.877
141.896
141.877
141.806
141.778
141.797
141.824
141.89
142.011
142.164
142.253
142.288
142.301
142.309
142.332
142.379
142.475
142.576
142.628
142.64
142.616
142.601
142.62
142.667
142.768
142.952
143.1
143.17
143.192
143.174
143.077
142.99
142.992
143.016
143.072
143.185
143.405
143.636
143.736
143.777
143.786
143.739
143.618
143.566
143.58
143.605
143.662
143.773
143.953
144.069
144.123
144.138
144.111
144.058
144.06
144.083
144.142
144.259
144.472
144.636
144.71
144.735
144.724
144.637
144.533
144.525
144.548
144.591
144.688
144.873
145.103
145.209
145.255
145.266
145.226
145.112
145.063
145.078
145.105
145.172
145.298
145.524
145.679
145.75
145.774
145.764
145.68
145.588
145.585
145.609
145.647
145.738
145.904
146.115
146.218
146.262
146.275
146.247
146.197
146.199
146.224
146.258
146.339
146.459
146.554
146.594
146.605
146.602
146.62
146.654
146.739
146.882
147.002
147.059
147.076
147.053
146.993
146.987
147.01
147.051
147.143
147.293
147.403
147.454
147.468
147.448
147.426
147.444
147.476
147.56
147.709
147.868
147.948
147.977
147.973
147.91
147.863
147.877
147.905
147.977
148.113
148.339
148.473
148.533
148.552
148.528
148.416
148.315
148.313
148.337
148.382
148.482
148.673
148.902
149.006
149.05
149.06
149.017
148.889
148.825
148.837
148.864
148.928
149.052
149.301
149.555
149.659
149.703
149.715
149.673
149.524
149.406
149.401
149.425
149.462
149.55
149.715
149.982
150.127
150.193
150.215
150.203
150.117
150.028
150.028
150.052
150.093
150.185
150.356
150.54
150.628
150.662
150.666
150.61
150.522
150.514
150.537
150.577
150.67
150.844
151.064
151.168
151.212
151.224
151.187
151.086
151.05
151.069
151.097
151.162
151.286
151.49
151.617
151.675
151.695
151.678
151.613
151.593
151.615
151.646
151.723
151.862
152.03
152.118
152.153
152.159
152.118
152.08
152.094
152.12
152.175
152.284
152.437
152.532
152.57
152.58
152.553
152.537
152.558
152.59
152.668
152.81
152.993
153.088
153.128
153.139
153.104
153.02
152.998
153.018
153.047
153.076
153.132
153.239
153.413
153.533
153.59
153.61
153.598
153.57
153.582
153.609
153.67
153.787
153.949
154.044
154.082
154.089
154.039
153.961
153.958
153.982
154.028
154.126
154.315
154.521
154.615
154.654
154.663
154.618
154.518
154.495
154.517
154.547
154.62
154.754
154.958
155.07
155.121
155.137
155.112
155.038
155.02
155.043
155.076
155.156
155.303
155.489
155.584
155.623
155.633
155.592
155.524
155.524
155.549
155.594
155.691
155.873
156.041
156.119
156.149
156.147
156.075
155.953
155.932
155.954
155.985
156.059
156.198
156.461
156.654
156.737
156.77
156.777
156.731
156.631
156.605
156.624
156.653
156.685
156.752
156.869
156.984
157.046
157.071
157.088
157.113
157.162
157.264
157.401
157.486
157.519
157.52
157.464
157.415
157.428
157.456
157.517
157.636
157.839
157.972
158.032
158.054
158.042
157.971
157.936
157.955
157.983
158.043
158.159
158.341
158.452
158.502
158.52
158.499
158.448
158.45
158.475
158.515
158.603
158.759
158.892
158.956
158.981
158.976
158.944
158.95
158.976
159.021
159.117
159.249
159.337
159.371
159.376
159.329
159.29
159.306
159.335
159.406
159.539
159.775
159.926
159.993
160.018
160.011
159.928
159.822
159.813
159.838
159.869
159.939
160.07
160.272
160.387
160.439
160.458
160.441
160.388
160.383
160.408
160.441
160.519
160.656
160.785
160.85
160.875
160.868
160.83
160.832
160.858
160.904
161.001
161.176
161.313
161.378
161.402
161.392
161.318
161.269
161.284
161.312
161.368
161.479
161.68
161.83
161.898
161.924
161.92
161.857
161.805
161.817
161.845
161.894
161.993
162.172
162.313
162.379
162.405
162.4
162.343
162.315
162.335
162.364
162.428
162.548
162.725
162.83
162.874
162.89
162.865
162.811
162.814
162.84
162.881
162.97
163.129
163.273
163.343
163.37
163.368
163.319
163.296
163.318
163.348
163.413
163.536
163.7
163.791
163.829
163.841
163.81
163.777
163.793
163.821
163.876
163.983
164.144
164.246
164.29
164.307
164.285
164.25
164.264
164.292
164.342
164.443
164.596
164.698
164.742
164.758
164.739
164.716
164.735
164.764
164.823
164.938
165.084
165.169
165.203
165.212
165.179
165.158
165.179
165.209
165.273
165.394
165.553
165.642
165.679
165.691
165.663
165.636
165.654
165.683
165.727
165.82
165.959
166.058
166.102
166.121
166.124
166.14
166.169
166.213
166.298
166.383
166.421
166.436
166.44
166.462
166.494
166.568
166.696
166.811
166.867
166.889
166.88
166.852
166.865
166.893
166.934
167.022
167.153
167.249
167.29
167.309
167.318
167.343
167.375
167.448
167.564
167.658
167.698
167.712
167.677
167.622
167.628
167.656
167.69
167.77
167.915
168.13
168.241
168.291
168.31
168.29
168.185
168.102
168.107
168.135
168.17
168.249
168.395
168.644
168.79
168.855
168.882
168.883
168.825
168.757
168.761
168.788
168.819
168.87
168.97
169.123
169.227
169.273
169.294
169.297
169.311
169.339
169.376
169.453
169.546
169.597
169.619
169.622
169.637
169.666
169.72
169.825
169.956
170.031
170.061
170.066
170.035
170.034
170.061
170.097
170.18
170.325
170.452
170.513
170.538
170.533
170.487
170.481
170.507
170.542
170.62
170.765
170.931
171.015
171.05
171.06
171.019
170.954
170.957
170.985
171.018
171.09
171.222
171.395
171.487
171.526
171.545
171.548
171.567
171.597
171.653
171.76
171.875
171.934
171.957
171.939
171.821
171.685
171.673
171.698
171.733
171.811
171.96
172.277
172.578
172.689
172.739
172.76
172.745
172.633
172.449
172.404
172.422
172.453
172.49
172.573
172.727
172.987
173.134
173.198
173.226
173.227
173.164
173.076
173.073
173.1
173.131
173.195
173.315
173.513
173.633
173.688
173.711
173.703
173.643
173.62
173.643
173.673
173.729
173.837
174.01
174.121
174.171
174.192
174.179
174.126
174.124
174.151
174.185
174.261
174.401
174.568
174.654
174.69
174.702
174.664
174.601
174.604
174.633
174.669
174.75
174.899
175.085
175.176
175.215
175.231
175.201
175.132
175.127
175.154
175.187
175.258
175.391
175.576
175.676
175.718
175.737
175.713
175.639
175.626
175.652
175.684
175.751
175.879
176.089
176.212
176.266
176.29
176.279
176.193
176.12
176.128
176.158
176.196
176.281
176.443
176.69
176.815
176.87
176.895
176.888
176.8
176.686
176.676
176.703
176.733
176.788
176.894
177.103
177.311
177.402
177.441
177.46
177.437
177.356
177.327
177.348
177.38
177.414
177.483
177.608
177.758
177.839
177.874
177.891
177.888
177.904
177.934
177.968
178.037
178.128
178.181
178.207
178.219
178.24
178.271
178.329
178.441
178.583
178.662
178.695
178.705
178.664
178.62
178.635
178.665
178.708
178.797
178.961
179.106
179.175
179.205
179.212
179.177
179.16
179.184
179.215
179.266
179.367
179.509
179.597
179.635
179.65
179.625
179.596
179.615
179.645
179.695
179.794
179.971
180.105
180.166
180.194
180.194
180.142
180.109
180.129
180.16
180.201
180.286
180.442
180.592
180.664
180.696
180.708
180.681
180.656
180.674
180.705
180.738
180.778
180.856
180.965
181.044
181.081
181.111
181.168
181.272
181.371
181.417
181.435
181.408
181.331
181.32
181.347
181.381
181.454
181.591
181.825
181.962
182.022
182.05
182.05
181.984
181.898
181.899
181.928
181.961
182.023
182.14
182.333
182.452
182.506
182.531
182.526
182.467
182.444
182.467
182.499
182.555
182.665
182.872
183.033
183.104
183.135
183.142
183.085
182.956
182.921
182.943
182.975
183.022
183.119
183.311
183.561
183.672
183.721
183.745
183.735
183.643
183.534
183.529
183.556
183.588
183.641
183.745
183.949
184.15
184.237
184.276
184.295
184.275
184.208
184.198
184.224
184.256
184.305
184.4
184.54
184.632
184.671
184.689
184.662
184.596
184.595
184.624
184.66
184.738
184.885
185.149
185.306
185.373
185.404
185.411
185.353
185.202
185.145
185.162
185.193
185.228
185.299
185.431
185.674
185.834
185.903
185.935
185.947
185.909
185.835
185.832
185.86
185.893
185.94
186.032
186.188
186.301
186.354
186.38
186.381
186.358
186.372
186.403
186.441
186.52
186.657
186.776
186.832
186.859
186.856
186.804
186.788
186.814
186.846
186.905
187.019
187.223
187.362
187.423
187.452
187.456
187.394
187.3
187.296
187.324
187.357
187.411
187.517
187.714
187.872
187.943
187.975
187.987
187.951
187.897
187.907
187.938
187.972
188.039
188.163
188.333
188.426
188.467
188.488
188.47
188.41
188.406
188.434
188.467
188.525
188.635
188.821
188.941
188.996
189.023
189.024
188.975
188.951
188.974
189.007
189.048
189.133
189.281
189.41
189.471
189.5
189.507
189.472
189.459
189.485
189.517
189.564
189.657
189.81
189.921
189.973
189.999
190
189.974
189.984
190.015
190.048
190.105
190.211
190.329
190.393
190.424
190.436
190.432
190.452
190.484
190.524
190.605
190.73
190.827
190.87
190.894
190.895
190.896
190.924
190.957
190.999
191.081
191.183
191.242
191.273
191.294
191.321
191.353
191.401
191.486
191.57
191.61
191.632
191.635
191.654
191.685
191.727
191.813
191.943
192.036
192.078
192.1
192.09
192.072
192.093
192.125
192.167
192.252
192.397
192.514
192.569
192.598
192.603
192.58
192.588
192.619
192.652
192.708
192.813
192.954
193.037
193.075
193.098
193.093
193.078
193.098
193.13
193.164
193.198
193.231
193.265
193.299
193.349
193.443
193.621
193.782
193.854
193.888
193.904
193.869
193.766
193.736
193.759
193.792
193.833
193.917
194.077
194.301
194.41
194.458
194.485
194.483
194.415
194.351
194.363
194.395
194.429
194.484
194.589
194.773
194.9
194.958
194.988
194.997
194.967
194.957
194.984
195.018
195.06
195.146
195.272
195.362
195.402
195.422
195.403
195.347
195.351
195.381
195.416
195.484
195.611
195.828
195.958
196.015
196.045
196.05
195.992
195.911
195.914
195.945
195.979
196.038
196.151
196.375
196.565
196.645
196.682
196.701
196.676
196.545
196.427
196.427
196.456
196.49
196.533
196.619
196.786
197.073
197.228
197.294
197.327
197.343
197.309
197.195
197.148
197.167
197.2
197.235
197.287
197.385
197.566
197.71
197.775
197.808
197.824
197.8
197.772
197.792
197.825
197.86
197.92
198.029
198.157
198.225
198.259
198.276
198.269
198.281
198.313
198.348
198.412
198.528
198.654
198.72
198.752
198.765
198.733
198.706
198.728
198.761
198.798
198.864
198.986
199.123
199.194
199.228
199.248
199.251
199.269
199.303
199.338
199.402
199.51
199.61
199.659
199.686
199.691
199.684
199.707
199.74
199.778
199.847
199.955
200.04
200.08
200.105
200.115
200.137
200.171
200.213
200.296
200.429
200.529
200.575
200.601
200.596
200.549
200.548
200.578
200.612
200.663
200.76
200.916
201.021
201.068
201.096
201.096
201.062
201.066
201.097
201.132
201.19
201.303
201.487
201.6
201.651
201.68
201.681
201.612
201.524
201.527
201.558
201.592
201.644
201.743
201.942
202.159
202.252
202.294
202.321
202.317
202.243
202.172
202.182
202.214
202.249
202.291
202.373
202.523
202.67
202.74
202.776
202.796
202.786
202.782
202.81
202.844
202.886
202.969
203.1
203.201
203.247
203.274
203.272
203.22
203.207
203.235
203.269
203.313
203.397
203.554
203.71
203.782
203.818
203.839
203.823
203.789
203.804
203.837
203.872
203.923
204.02
204.164
204.256
204.298
204.325
204.327
204.31
204.328
204.362
204.397
204.449
204.544
204.658
204.721
204.755
204.776
204.79
204.821
204.856
204.902
204.99
205.097
205.156
205.188
205.202
205.188
205.199
205.232
205.267
205.325
205.432
205.562
205.632
205.667
205.687
205.676
205.676
205.706
205.741
205.787
205.877
206.017
206.112
206.156
206.183
206.18
206.139
206.141
206.172
206.207
206.259
206.357
206.532
206.658
206.715
206.747
206.759
206.719
206.666
206.68
206.712
206.748
206.801
206.9
207.076
207.202
207.259
207.291
207.306
207.273
207.236
207.254
207.288
207.323
207.378
207.481
207.645
207.751
207.799
207.829
207.837
207.807
207.802
207.831
207.867
207.904
207.969
208.084
208.195
208.251
208.283
208.301
208.307
208.334
208.369
208.409
208.482
208.595
208.683
208.725
208.752
208.751
208.733
208.754
208.788
208.824
208.881
208.985
209.105
209.169
209.204
209.224
209.231
209.256
209.291
209.329
209.399
209.52
209.629
209.682
209.713
209.725
209.713
209.729
209.763
209.799
209.856
209.959
210.075
210.135
210.168
210.18
210.136
210.048
210.044
210.074
210.11
210.152
210.233
210.389
210.671
210.831
210.898
210.933
210.954
210.934
210.819
210.735
210.745
210.778
210.814
210.859
210.943
211.109
211.346
211.458
211.508
211.54
211.551
211.5
211.383
211.36
211.386
211.422
211.459
211.52
211.634
211.852
212.011
212.079
212.115
212.137
212.122
212.039
212.008
212.032
212.067
212.104
212.159
212.261
212.451
212.597
212.662
212.697
212.719
212.703
212.624
212.599
212.624
212.659
212.695
212.732
212.772
212.84
212.966
213.19
213.331
213.392
213.427
213.448
213.428
213.337
213.305
213.329
213.364
213.401
213.453
213.55
213.727
213.867
213.93
213.965
213.986
213.966
213.906
213.908
213.939
213.976
214.017
214.093
214.234
214.395
214.473
214.512
214.538
214.535
214.49
214.49
214.521
214.558
214.598
214.67
214.798
214.929
214.992
215.027
215.048
215.037
215.032
215.061
215.097
215.139
215.219
215.366
215.519
215.589
215.626
215.648
215.628
215.508
215.414
215.422
215.454
215.491
215.533
215.61
215.759
216.059
216.271
216.352
216.393
216.422
216.423
216.344
216.185
216.15
216.174
216.21
216.247
216.294
216.381
216.555
216.796
216.906
216.957
216.99
217.007
216.974
216.895
216.891
216.922
216.958
216.995
217.052
217.155
217.303
217.39
217.432
217.461
217.465
217.429
217.428
217.459
217.496
217.538
217.616
217.761
217.91
217.98
218.018
218.042
218.031
217.972
217.967
217.997
218.034
218.075
218.15
218.292
218.483
218.576
218.62
218.651
218.658
218.605
218.547
218.561
218.595
218.632
218.678
218.762
218.923
219.088
219.162
219.201
219.228
219.225
219.165
219.146
219.174
219.21
219.248
219.31
219.425
219.612
219.724
219.775
219.808
219.823
219.785
219.71
219.712
219.743
219.78
219.82
219.89
220.021
220.214
220.315
220.362
220.395
220.409
220.375
220.338
220.358
220.394
220.431
220.476
220.56
220.702
220.815
220.868
220.902
220.92
220.896
220.871
220.895
220.931
220.969
221.025
221.129
221.301
221.411
221.461
221.494
221.51
221.477
221.427
221.442
221.477
221.514
221.559
221.641
221.795
221.954
222.026
222.065
222.093
222.093
222.037
222.018
222.045
222.081
222.119
222.167
222.256
222.414
222.542
222.601
222.637
222.662
222.658
222.645
222.67
222.706
222.743
222.784
222.849
222.946
223.015
223.053
223.083
223.103
223.134
223.171
223.211
223.278
223.403
223.548
223.62
223.659
223.688
223.69
223.631
223.592
223.614
223.649
223.687
223.724
223.761
223.799
223.839
223.897
224.004
224.207
224.364
224.432
224.47
224.498
224.497
224.426
224.367
224.384
224.419
224.456
224.497
224.566
224.695
224.869
224.957
225.001
225.033
225.047
225.017
225.005
225.034
225.071
225.109
225.163
225.261
225.407
225.497
225.54
225.573
225.584
225.551
225.54
225.569
225.606
225.645
225.703
225.812
225.977
226.074
226.12
226.154
226.169
226.139
226.112
226.136
226.173
226.211
226.257
226.341
226.489
226.608
226.665
226.7
226.724
226.715
226.692
226.713
226.749
226.788
226.831
226.907
227.034
227.138
227.188
227.223
227.244
227.232
227.231
227.262
227.299
227.338
227.392
227.49
227.624
227.701
227.742
227.774
227.788
227.788
227.815
227.851
227.89
227.931
227.998
228.091
228.151
228.189
228.221
228.25
228.286
228.324
228.367
228.438
228.525
228.576
228.612
228.636
228.644
228.669
228.706
228.744
228.791
228.875
228.994
229.068
229.108
229.141
229.162
229.189
229.226
229.264
229.308
229.37
229.435
229.478
229.516
229.551
229.588
229.626
229.665
229.709
229.758
229.8
229.838
229.876
229.914
229.952
229.991
230.041
230.131
230.286
230.402
230.456
230.491
230.514
230.494
230.412
230.394
230.423
230.461
230.5
230.551
230.645
230.825
230.984
231.054
231.093
231.125
231.133
231.09
231.064
231.09
231.126
231.165
231.205
231.267
231.377
231.507
231.575
231.614
231.646
231.658
231.663
231.693
231.731
231.77
231.818
231.903
232.012
232.076
232.114
232.143
232.15
232.155
232.187
232.225
232.264
232.318
232.414
232.528
232.589
232.627
232.656
232.662
232.668
232.7
232.738
232.778
232.838
232.947
233.089
233.165
233.206
233.239
233.253
233.223
233.208
233.235
233.273
233.311
233.35
233.389
233.432
233.5
233.621
233.748
233.81
233.849
233.878
233.881
233.838
233.834
233.866
233.905
233.945
234.004
234.112
234.312
234.45
234.511
234.549
234.578
234.577
234.501
234.434
234.449
234.485
234.523
234.563
234.618
234.717
234.904
235.048
235.111
235.15
235.181
235.189
235.149
235.138
235.168
235.206
235.246
235.291
235.371
235.512
235.637
235.696
235.734
235.763
235.766
235.728
235.733
235.767
235.805
235.845
235.894
235.981
236.113
236.201
236.246
236.281
236.303
236.301
236.317
236.352
236.391
236.432
236.49
236.593
236.701
236.757
236.794
236.823
236.826
236.822
236.851
236.889
236.929
236.975
237.053
237.171
237.252
237.294
237.329
237.349
237.352
237.378
237.415
237.455
237.5
237.577
237.698
237.786
237.831
237.866
237.886
237.867
237.856
237.885
237.923
237.962
238.01
238.093
238.24
238.357
238.412
238.45
238.479
238.482
238.457
238.473
238.509
238.548
238.588
238.639
238.727
238.867
238.96
239.007
239.044
239.075
239.094
239.122
239.158
239.197
239.236
239.274
239.309
239.336
239.336
239.331
239.359
239.397
239.437
239.48
239.552
239.688
239.912
240.032
240.087
240.125
240.154
240.155
240.077
239.996
240.007
240.041
240.08
240.12
240.162
240.226
240.343
240.528
240.634
240.684
240.722
240.753
240.764
240.77
240.801
240.839
240.878
240.919
240.964
241.012
241.054
241.093
241.133
241.172
241.212
241.252
241.3
241.382
241.509
241.598
241.643
241.679
241.702
241.686
241.648
241.667
241.703
241.743
241.786
241.853
241.98
242.156
242.245
242.29
242.326
242.349
242.33
242.261
242.259
242.292
242.331
242.371
242.424
242.515
242.698
242.87
242.943
242.985
243.02
243.038
243.004
242.896
242.873
242.902
242.941
242.981
243.023
243.088
243.208
243.413
243.535
243.59
243.629
243.66
243.667
243.613
243.573
243.597
243.634
243.674
243.716
243.779
243.894
244.083
244.192
244.243
244.282
244.311
244.311
244.242
244.203
244.227
244.265
244.305
244.347
244.409
244.523
244.719
244.838
244.893
244.931
244.963
244.972
244.921
244.882
244.906
244.943
244.983
245.024
245.076
245.165
245.332
245.474
245.538
245.578
245.614
245.635
245.616
245.584
245.605
245.642
245.681
245.721
245.761
245.801
245.841
245.882
245.929
246.008
246.152
246.293
246.359
246.4
246.436
246.457
246.435
246.379
246.389
246.424
246.464
246.504
246.545
246.59
246.662
246.797
246.966
247.047
247.091
247.129
247.156
247.148
247.083
247.071
247.102
247.141
247.182
247.223
247.28
247.381
247.561
247.686
247.743
247.784
247.821
247.849
247.851
247.841
247.867
247.904
247.944
247.984
248.024
248.064
248.104
248.144
248.184
248.225
248.266
248.319
248.408
248.537
248.615
248.659
248.697
248.724
248.723
248.719
248.75
248.789
248.83
248.873
248.938
249.05
249.162
249.218
249.258
249.292
249.306
249.281
249.283
249.317
249.357
249.397
249.441
249.506
249.62
249.734
249.792
249.833
249.868
249.891
249.902
249.933
249.973
250.013
250.056
250.111
250.187
250.244
250.285
250.324
250.359
250.392
250.431
250.471
250.514
250.573
250.677
250.795
250.855
250.896
250.931
250.948
250.923
250.913
250.944
250.983
251.024
251.068
251.135
251.256
251.39
251.455
251.497
251.534
251.558
251.546
251.533
251.562
251.601
251.642
251.683
251.735
251.823
251.94
252.007
252.049
252.086
252.114
252.124
252.151
252.19
252.231
252.273
252.329