/*--------------------------------*- C++ -*----------------------------------*\
  =========                 |
  \\      /  F ield         | OpenFOAM: The Open Source CFD Toolbox
   \\    /   O peration     | Website:  https://openfoam.org
    \\  /    A nd           | Version:  9
     \\/     M anipulation  |
\*---------------------------------------------------------------------------*/
FoamFile
{
    format      ascii;
    class       volScalarField;
    location    "0.018";
    object      p;
}
// * * * * * * * * * * * * * * * * * * * * * * * * * * * * * * * * * * * * * //

dimensions      [1 -1 -2 0 0 0 0];

internalField   nonuniform List<scalar> 
10000
(
73905.3
73887.1
73838.4
73757.5
73696.2
73660.8
73640.2
73628.2
73622.9
73619.2
73616.2
73614.5
73614.5
73613.6
73611.2
73606.6
73597
73573.8
73539.7
73513.6
73496.9
73488.7
73483.6
73478.7
73475.6
73475.4
73475.7
73473.5
73468.8
73461.4
73446.3
73410.5
73355.7
73313.6
73286.5
73272.1
73266.5
73261.4
73255.3
73251
73248.6
73249.7
73248.8
73244.5
73236.4
73220.3
73182.7
73133.6
73101.1
73079.6
73061.1
73049.6
73043.6
73045.4
73043.4
73037.5
73030.6
73028.2
73030.1
73032.8
73030.5
73021.8
72996.6
72950.6
72910.8
72886.5
72868.6
72858.2
72854
72855.1
72851
72840.5
72824.1
72804.6
72787.7
72776
72761.2
72742
72723.4
72708.5
72700.1
72693
72678.1
72659.5
72642.1
72628.7
72623.9
72620.6
72605.2
72584.8
72565.3
72549.3
72541.1
72542.3
72531.5
72510.3
72489
72471
72460.4
72463.1
72456.5
72435.8
72413.3
72393.4
72377.8
72369.3
72358.2
72341.7
72326.2
72316.1
72318.2
72311
72290
72265.5
72245.3
72229.9
72229.3
72231.5
72215.2
72191.3
72168.3
72150.8
72144.9
72150.7
72141.7
72119.6
72093.1
72072.5
72057.4
72057.8
72063
72049.4
72025.6
71996.1
71972
71953.3
71940.3
71941.9
71947.1
71937.4
71918.6
71900.8
71890.2
71876.6
71856.2
71835.4
71818.1
71811.2
71816.3
71807.6
71786.1
71762.3
71744.1
71735.2
71738.9
71727.6
71705.3
71681.2
71662.9
71652.8
71656.9
71654.2
71635.9
71615.9
71600.1
71589.3
71571.3
71550.4
71531.9
71519.2
71522.1
71523.2
71505.7
71481.3
71458.3
71441.2
71436.2
71440.8
71428.6
71405.7
71380.4
71361.7
71351.4
71356.8
71356.7
71337.5
71310
71277
71254.7
71238.2
71237.1
71249.3
71253.9
71237.6
71213.1
71184.9
71163.9
71147.7
71144.8
71147.1
71132.8
71111.2
71093.2
71084.6
71085.7
71070.8
71047.8
71026.1
71009.7
71006.9
71008.9
70992.9
70969.3
70947.3
70930.9
70929
70937.1
70928.3
70905.8
70873.9
70843.2
70823.9
70810.3
70815.3
70830.2
70829.7
70810.4
70783.7
70753.7
70732.9
70717.1
70715.6
70723.1
70714.4
70693
70667.6
70647.9
70633.7
70635
70635.7
70618.3
70594.2
70572.1
70555
70550.9
70542.4
70521.5
70494.7
70472.8
70456.8
70457.7
70472.2
70475.9
70458.5
70432.5
70399.2
70374.8
70357.5
70351.3
70359.7
70362.5
70345.4
70320.4
70293
70274.3
70262.9
70268.5
70276.3
70263.4
70239.7
70208.3
70183.2
70165.8
70159.8
70168.8
70174.4
70159.1
70134.8
70105
70082.7
70066.2
70062
70069.4
70064.2
70044.1
70019.2
69998.7
69983.2
69982.3
69982.5
69965.6
69943
69923.3
69908.1
69900.3
69883.2
69861
69837.4
69819.8
69811.9
69822.5
69836.7
69828.4
69806.4
69773.8
69738.3
69716.5
69700.4
69699.9
69715.4
69725.5
69712.5
69688.9
69655.5
69625.5
69606.7
69593.4
69597.7
69610.1
69604.8
69584.3
69556.2
69528
69509.3
69496.5
69500.4
69509.2
69499
69477.2
69449.5
69426.6
69409.7
69402.6
69408.2
69401.3
69381.3
69358.3
69340.5
69330.1
69332.6
69320.9
69299.4
69276.4
69258.4
69248.8
69242.7
69224.5
69201.6
69181
69165.3
69165.8
69180.1
69183.7
69166.7
69141.2
69106.7
69080.5
69062.9
69052.7
69058.9
69068.3
69058
69036.6
69011.2
68991.6
68977
68977.2
68978.9
68962.4
68938.1
68911.4
68893.2
68882.1
68887.8
68896.5
68884.8
68862.3
68832.5
68807.5
68790.1
68781
68786.9
68790.6
68775.1
68752
68727.4
68709.3
68697
68699.8
68697.7
68679.5
68657.1
68636.6
68618.3
68603.4
68587.4
68570.6
68555.9
68555.8
68569.9
68576.9
68561.8
68537.2
68499
68461.3
68439.5
68423.6
68421.4
68439.4
68460.5
68456.8
68437
68408.7
68369.8
68342
68324.1
68311.8
68317.1
68331.5
68328.7
68309.6
68283.3
68254.7
68235.2
68220.3
68219.9
68227.8
68218.9
68197.9
68169.7
68144
68125.8
68112.1
68112.2
68105.2
68085.9
68068
68055.7
68062.2
68077.8
68073.3
68053.1
68023
67980
67950.2
67932.3
67919.9
67926.9
67950.2
67961.1
67948.5
67925.7
67891.8
67855.3
67832.5
67815.9
67808.2
67817.2
67829
67820.2
67799.6
67773.3
67750.3
67733.3
67723.7
67727.4
67719.3
67699.4
67677.3
67660.2
67651.1
67653.8
67641.6
67619.7
67592.1
67570.2
67553.5
67544.6
67548
67543.8
67531
67519.5
67521
67531.3
67525
67504.3
67472.7
67423.1
67385.6
67364.2
67348
67340.9
67354.6
67387.4
67402
67391.5
67369.7
67337.3
67293.8
67265.3
67247.4
67234
67238.4
67257.7
67266
67252.2
67229.2
67195.2
67162.5
67142.3
67126.8
67124.7
67137.4
67145.3
67132.1
67110.1
67081.7
67058.5
67041.5
67031
67033.2
67022.8
67002.1
66977.1
66957
66941.5
66937.7
66944.4
66940.1
66922.4
66905.5
66896.6
66897
66882
66858.4
66827.7
66805.7
66790.1
66788.4
66802.6
66811.4
66798.3
66775.8
66743.1
66712.6
66693.5
66678.7
66678.1
66689.1
66687.3
66669.3
66645.4
66622.6
66606.3
66601.1
66611.1
66617
66602.2
66578.3
66541.7
66508.8
66489.7
66475.3
66477.2
66496.3
66508.5
66497.2
66475.4
66442.6
66401.1
66375
66357.5
66343.7
66345.6
66359.7
66363
66347.9
66326.8
66307.6
66292.7
66291.4
66293.2
66277.3
66252.7
66216.6
66188.9
66172
66162.4
66173.5
66200.8
66210
66196.2
66173.1
66136.4
66091
66064.5
66047.6
66036.3
66044
66069.6
66082.6
66071.5
66049.9
66017.3
65975.4
65949.1
65932
65919.6
65924.9
65944
65950.8
65936.7
65914.4
65883.3
65855.9
65837.4
65822.7
65819.8
65824.6
65812.9
65791.9
65765.2
65743.9
65728.3
65724
65735.5
65746.4
65737.2
65717.6
65693
65664.8
65642.5
65623.7
65605.8
65590.4
65581.4
65591.3
65617.8
65628.8
65616.3
65594
65558.6
65506.1
65472.2
65453.1
65438.4
65437.3
65458.2
65486.8
65489
65472.5
65448.3
65409.7
65370.8
65348.7
65332.9
65325.3
65337.1
65360.2
65362.8
65346.4
65322.3
65283.3
65237.1
65210.7
65192.4
65177.5
65173.1
65189.5
65221.8
65231.6
65218.7
65196.7
65162.6
65116.3
65087.7
65070.2
65057
65060.5
65085.8
65109.3
65105.1
65086.3
65058.8
65013.5
64972.2
64950
64934.3
64926.2
64938.2
64965.5
64974.1
64960.6
64938.5
64904.5
64865.4
64842.2
64826.2
64817.1
64826.3
64845.6
64845.3
64827.8
64802.4
64760.7
64718.8
64695.9
64679.7
64668.8
64676.3
64707.4
64732.8
64729.4
64711.1
64684.8
64641.7
64600.3
64577.8
64562
64553
64563.7
64593.4
64607.2
64596.5
64575.4
64543
64492.5
64457
64437.3
64422.4
64418.7
64436.1
64465.9
64471.3
64456.6
64433.8
64397.9
64357.3
64333.9
64317.9
64308.2
64317.2
64339.3
64343.3
64327.7
64304.1
64265.1
64215.9
64188.2
64170.8
64157.1
64158.1
64182.8
64218.6
64225.5
64211.5
64189.3
64154.1
64106.3
64077.4
64059.8
64045.9
64046.8
64068.7
64092.1
64088.7
64070.6
64044.3
64000.6
63959.6
63937.6
63922.2
63914.1
63925.9
63955.5
63967.1
63955.5
63934.4
63902.4
63858.1
63830
63812.8
63799.3
63801
63819.1
63829.6
63817.7
63796.5
63763.3
63718.5
63691
63674.4
63661.9
63666.5
63696.3
63729.8
63732.1
63716.1
63692.6
63653.6
63600.4
63569.7
63551.5
63537.1
63534.2
63552.2
63581.3
63585.2
63570.1
63547.5
63511.2
63469.2
63445.3
63429.3
63418
63424.3
63447.8
63459.3
63448
63427.6
63397.1
63358.5
63334.1
63317.7
63305.1
63307.2
63319.4
63315.9
63298.4
63274.2
63246.8
63228.8
63215.1
63216.4
63236.1
63251.1
63242.2
63222.7
63194.2
63150.3
63116.3
63096.4
63080.1
63066.5
63065.8
63084.8
63108.1
63106.5
63089.5
63065.9
63029.4
62997.7
62978.7
62964.1
62959.9
62971.7
62982
62971.2
62950.9
62920.3
62884.5
62862.8
62847.7
62840.2
62852.5
62882.8
62894.4
62883.4
62863.5
62834.6
62791.8
62759.7
62739.8
62722.7
62706.4
62692.8
62689.2
62704
62727.9
62729.3
62713.6
62691.3
62656.8
62623.2
62603.3
62588.4
62581.7
62591.1
62602.7
62593.4
62574
62545
62509.9
62488.3
62473.3
62466.6
62480.1
62511.8
62523
62511.5
62491
62459.8
62408
62366.1
62344.3
62327.5
62313.5
62309.3
62325.5
62365.6
62385.1
62377.8
62359.2
62331.9
62284.8
62234.9
62209.8
62193.5
62180.6
62182.4
62206.1
62232.8
62231.5
62214.9
62190.9
62150.3
62103.2
62078.1
62062
62049.6
62052.9
62081.1
62118
62123.8
62110.1
62089.1
62056.8
62004.8
61965
61943.6
61926.5
61911.4
61899.8
61903.1
61928.3
61955.9
61955.8
61939.7
61917.1
61880.2
61837.8
61814.2
61798.4
61786.2
61789.9
61815.3
61839.1
61835.7
61818.7
61794.7
61755.1
61705.6
61677.4
61659
61642.4
61627.8
61617.6
61623.5
61655
61692.9
61698.4
61684.7
61663.6
61630.1
61570.9
61519
61494.6
61478
61464.3
61461.7
61481
61527.2
61549.8
61543.9
61526.2
61500.5
61456.3
61406.7
61381.4
61365.2
61352.3
61353.4
61376.5
61403.4
61402.5
61386.1
61362.2
61320.6
61262.6
61230.7
61212.8
61198.9
61195.5
61214.1
61259.5
61281.5
61275.1
61257.1
61230.7
61183.9
61130.3
61103.7
61087.4
61074.5
61075.6
61101.5
61147.3
61161.3
61151.2
61131.9
61102.1
61047.2
60985
60955.7
60938
60924
60918.4
60932.7
60971.7
60992.7
60986.5
60969
60944.2
60904.8
60870.4
60850.9
60836.2
60827.1
60834.5
60851.7
60850.2
60834
60811.6
60779.1
60754.2
60738.4
60726.2
60729.3
60747
60753.2
60740.1
60719.8
60688.7
60654.9
60634.7
60620.1
60611.2
60618.2
60631.3
60625
60607.7
60583.4
60555.4
60536.9
60523.1
60519.8
60532.9
60543.8
60533.6
60514.5
60485.2
60445.9
60421.7
60406.4
60395.6
60401.6
60429.2
60448.8
60442
60424.3
60398.2
60353.1
60310.1
60288.3
60273.4
60262.5
60268.2
60296.7
60320.9
60317.2
60300.7
60277.2
60238.1
60195.2
60172.3
60156.4
60143.3
60142.3
60157.2
60168.5
60158.9
60140.9
60115.9
60091.2
60074.8
60061.9
60061.9
60075.1
60076.7
60061.8
60040.7
60008.9
59982.8
59966.8
59954.5
59956.8
59976.6
59988.3
59977.9
59958.9
59929.6
59884.5
59854
59836.7
59823.3
59820.3
59838.2
59870.4
59877
59864.2
59844.3
59813.2
59767.5
59738.3
59721
59707.2
59701.7
59713.1
59730
59725.3
59708.6
59685
59650.7
59625.6
59610
59597.9
59600.4
59622
59638.2
59630.2
59612.4
59586.2
59544.2
59512.1
59494.1
59480.4
59475.3
59489.3
59516.8
59521.4
59507.8
59487.5
59454.8
59410.5
59384.6
59368.6
59355.7
59355.1
59375.1
59401.2
59400.9
59385.6
59364.1
59328.6
59284.9
59260.6
59244.5
59231.3
59228.3
59242.3
59257.8
59251.3
59234.7
59211.9
59186.8
59169.7
59156.4
59153.3
59164.6
59169
59155.7
59135.6
59103.3
59067.7
59047.6
59033.5
59025.2
59035
59061.5
59070.2
59058.5
59039.4
59010.1
58969.6
58944.6
58929
58916.6
58917.1
58937.4
58957.5
58952.4
58935.9
58912.2
58873
58837.4
58818.2
58804.3
58796.3
58806.2
58832.1
58839.4
58827
58807.3
58775.4
58722.1
58684.6
58665.7
58651.9
58644.3
58655.3
58696.3
58731.4
58732.2
58717.5
58696.8
58661.8
58604.9
58566.4
58547.2
58532.8
58522.1
58526.7
58553.7
58578.3
58575.1
58559.4
58537.6
58501.9
58466.3
58446.7
58432.5
58423.1
58430.2
58455.5
58466.9
58456.6
58438.4
58410.7
58365.7
58331.9
58313.6
58299.9
58291.6
58300.2
58322.9
58327.3
58314.1
58294.5
58263.2
58224.5
58202.5
58187.9
58177.2
58181.9
58209.7
58234.4
58230.9
58215.1
58192.6
58153.4
58104.7
58079.3
58063.6
58050.9
58048.8
58067.8
58100.8
58107.2
58094.9
58075.9
58046.1
57999
57966.8
57949.2
57935.6
57928
57938
57967.3
57979.8
57970.2
57952.5
57926.3
57884.7
57853.2
57835.6
57822.1
57814.3
57823.9
57849.1
57856.3
57844.4
57825.9
57798
57761.2
57738.7
57723.8
57711.6
57711.7
57728.4
57739.8
57730.3
57712.8
57687.3
57648.6
57620.8
57604.1
57590.5
57581.9
57588.5
57604.6
57603.2
57588.6
57570
57550.6
57535.9
57524.4
57524.9
57528.4
57516.6
57498.2
57470.9
57446
57430.7
57418.8
57420.3
57441
57457
57449.3
57432.3
57407.1
57362.7
57320.9
57300.5
57286.3
57275.8
57280.4
57310
57343.5
57345.3
57331.6
57312.1
57280.4
57230.3
57197
57179.2
57165.4
57155.1
57159.6
57179.6
57187.2
57175.8
57157.8
57130.5
57096.3
57075.8
57061.8
57051.8
57057.6
57085
57104.2
57097.7
57081.5
57057.9
57016.2
56970.6
56948
56933.2
56921.2
56921
56942.7
56975.2
56979.3
56966.4
56947.5
56917.3
56869.2
56836.8
56819.4
56806.1
56797.7
56806.1
56836.1
56853.4
56846.2
56829.8
56806.3
56765.6
56722.9
56701.4
56686.6
56674.3
56672.1
56689.5
56717.7
56720.6
56707.6
56689.3
56661.7
56628.6
56608.4
56593.6
56581
56576.3
56584.3
56584.7
56571
56552.7
56530.7
56514.4
56501.7
56498.2
56510
56518.4
56507.9
56490.5
56464.2
56428.7
56406.6
56392
56379.9
56378.8
56392
56397.8
56386.1
56368.4
56342.4
56316.3
56300
56287.3
56283.1
56296.1
56313.8
56309.2
56293.8
56272
56236.3
56204.5
56187
56174
56166.8
56177.4
56207.4
56219.2
56209.4
56192.2
56166.1
56119.2
56074.9
56053.9
56039.7
56028.1
56028.7
56051.4
56083.6
56086.6
56073.7
56055
56024.4
55973.7
55938.5
55920.7
55907.4
55898.6
55906
55941.5
55979.3
55982.4
55969.5
55951
55920.9
55865.7
55817.8
55796.2
55781.5
55769.4
55766.4
55783.6
55822.7
55837.2
55828.7
55812.5
55789
55748.3
55707.1
55686.6
55672.3
55660.4
55659
55676.6
55699.5
55697.5
55683.1
55663.2
55629.7
55588.4
55566.2
55551.7
55539.7
55538.3
55557.1
55586.8
55589.9
55577.1
55559
55530
55485.8
55457.3
55441
55428.1
55419.8
55427.4
55452.4
55462.2
55452.2
55435.5
55411.2
55375.2
55350.5
55335.1
55322.5
55316.7
55327.3
55346.4
55344.4
55330.2
55311.1
55281
55251.5
55234.2
55221
55211
55214.4
55229.5
55229.7
55216.1
55198
55170.8
55146.6
55131.2
55118.7
55113.3
55124.7
55146.6
55147
55133.5
55115.4
55087
55047
55021.7
55005.8
54991.5
54978.8
54969
54972.2
54990.6
54998.7
54988.5
54972.2
54949.1
54921.9
54904.4
54891.3
54882.3
54887.8
54905.1
54905.1
54891.4
54872.5
54840.9
54802.4
54781.5
54767.6
54756.4
54756.8
54778.3
54805.5
54805.4
54791.8
54773.3
54742.8
54699.6
54674.2
54658.9
54646.5
54639.7
54649.6
54674.7
54680.5
54669.2
54652.1
54626.3
54588.7
54564.6
54549.7
54537.5
54532.6
54544.9
54567.5
54567.7
54554.3
54536.1
54506.5
54470.6
54450.5
54436.8
54425.6
54425.8
54445.2
54464.5
54459.7
54445
54424.2
54387.7
54339.9
54315
54299.9
54287.6
54281.2
54292.1
54329.2
54354
54350.5
54336.4
54317.6
54287.3
54244.1
54218
54202.2
54188.4
54176.2
54168.8
54174.2
54181.3
54172.6
54157.6
54141
54127.5
54116.8
54118.2
54130.2
54127.1
54112.9
54093
54060.2
54028.9
54011.9
53999.1
53990.3
53996.4
54020.5
54031.5
54022.3
54006.4
53983.6
53947.2
53919.4
53903.4
53890.8
53881.9
53887.2
53907.2
53912.6
53901.3
53884.8
53860.1
53828.2
53808.5
53794.8
53783.2
53781.2
53794.8
53806
53797.8
53782.6
53761.5
53733.8
53715.2
53701.8
53690.8
53690.4
53701.2
53698.9
53685.2
53666.2
53635.5
53606.6
53590.4
53578.1
53571
53580.4
53611.3
53626.5
53618.9
53603.7
53582
53543.7
53499.9
53478.1
53463.7
53451.6
53444.6
53453.4
53477.5
53483.8
53473
53456.9
53433.3
53400.9
53380
53365.9
53354
53349
53358.6
53368.9
53360.8
53345.7
53324.4
53295.5
53276.1
53262.8
53251.9
53252.4
53270
53282.1
53273.9
53258.6
53236.6
53200
53169.4
53152.9
53140.3
53130.8
53134.8
53157.9
53172.7
53165.4
53150.6
53129.9
53095.7
53064.2
53047.3
53034.4
53024
53025.1
53043.5
53056.3
53048.5
53033.6
53012.8
52980.1
52954
52938.7
52926.5
52918.2
52924.2
52943.7
52946.5
52934.6
52918.1
52892.7
52860.7
52841.6
52828.2
52817
52815
52829.4
52842.8
52835.8
52821.2
52801.2
52770.2
52745.5
52730.6
52718.4
52710.6
52717.1
52734.2
52733.3
52720.3
52703.1
52676.4
52649.2
52633.1
52620.6
52610.9
52613.7
52629.7
52631.9
52620
52603.7
52579
52551.5
52534.9
52522.2
52512
52513.1
52527.5
52529.6
52517.7
52501.4
52477.3
52452.4
52436.9
52424.6
52415.9
52420.3
52434.1
52431.1
52417.7
52399.9
52372.6
52348.4
52333.5
52321.5
52313.5
52319.5
52335.4
52333.9
52320.9
52303.9
52278
52252.2
52236.6
52223.9
52213.2
52212.1
52223.6
52225
52213.2
52197.8
52178.3
52162.3
52149.5
52138.9
52137.9
52135.6
52122.9
52106.6
52087.5
52072.9
52061.2
52055.5
52063.3
52069.6
52059.9
52044.8
52023.4
51997.5
51980.8
51967.8
51956.9
51954.6
51964.3
51964.7
51952.7
51937.2
51919.4
51905.3
51893.6
51887.7
51894.1
51894.1
51881.7
51865
51838
51806.3
51788.2
51775
51763.6
51758.8
51770.6
51797.1
51802
51791.2
51775.5
51751.8
51709.7
51672.2
51654.2
51641
51629.7
51624.7
51636.7
51669.7
51683
51675.3
51661.1
51641.9
51610
51575.6
51557.2
51543.7
51531.6
51521.9
51523
51536.9
51539.5
51528.4
51513.5
51494.4
51477.8
51464.8
51453.7
51449.9
51450.7
51440.4
51425.6
51406.6
51390.5
51378.3
51368.9
51371.3
51381.3
51376
51362.4
51344.1
51317.8
51298.3
51285
51274
51270.5
51281.6
51290.7
51282.3
51267.8
51247.5
51218
51197.6
51184.1
51172.9
51168.1
51179
51196.7
51193.6
51180.6
51163.4
51135.5
51102.1
51083.5
51070.3
51059
51052.8
51061.3
51079.6
51079
51066.8
51051.5
51032.5
51017.5
51005.6
50996.7
50999.7
51005.9
50997.1
50982.1
50959.2
50915.1
50866.9
50845.4
50831.9
50820.7
50815.8
50828
50874.8
50919.3
50923.9
50913.4
50898.3
50875.8
50833.2
50774.9
50746.5
50731.3
50718.7
50708
50704.1
50717.6
50752.4
50765.6
50758
50744.1
50725.2
50692.7
50654.7
50635
50621.7
50610.2
50602.5
50608.5
50630.5
50637.7
50628.1
50613.5
50592.8
50560.6
50536.8
50522.6
50510.9
50501.9
50505
50522.4
50527
50516.6
50501.7
50479.8
50449.4
50429.9
50416.7
50405.6
50400.4
50410.2
50427.8
50425.2
50412.6
50396
50369.1
50336.4
50318.2
50305.4
50294.6
50290.4
50302.4
50323.3
50322.4
50310.3
50294.4
50269.2
50235.4
50215.5
50202.4
50191.2
50184.9
50193.3
50213.8
50215.1
50203.6
50188.2
50164.3
50129.6
50108
50094.5
50083.3
50076.3
50084
50108.3
50115.9
50106.4
50091.9
50070.9
50033.8
49999.4
49982.5
49970
49959.5
49956.3
49971
50003.2
50011.1
50001.8
49987.6
49967.1
49930
49887.1
49866.4
49853
49841.5
49832.5
49835
49858.7
49884.4
49883.2
49871.4
49856.1
49832.8
49796.6
49771.7
49757.4
49745
49734.1
49727.7
49734.4
49748.1
49744.4
49732
49716.6
49697
49681.3
49668.8
49657.9
49652.3
49652.5
49643.2
49629.6
49613
49598.6
49587.1
49578.8
49582.5
49594.4
49590.3
49577.7
49560.7
49533.3
49505.3
49489.8
49477.8
49467.6
49466.1
49480.4
49493.2
49486.7
49473.6
49456.4
49430.1
49407.8
49394.1
49382.5
49373.3
49374.3
49386.1
49384.3
49372.3
49356.7
49332.6
49307.8
49293
49281.4
49271.9
49272.9
49290.2
49300.1
49292.1
49278.6
49260.2
49230.5
49204.9
49190.3
49178.4
49168.2
49165.6
49178.4
49191.9
49186.3
49173.6
49157.5
49133
49109
49094.2
49081.9
49070.1
49059.9
49055.8
49060.6
49056.9
49045.3
49033.9
49025.5
49028.4
49029.9
49019.2
49004.1
48980
48945.3
48924.7
48911.9
48901.1
48895.3
48904.7
48933.4
48943.8
48935.7
48922.3
48903.8
48871.5
48835.4
48817.2
48804.5
48793.5
48785.9
48791
48811.6
48818.1
48808.7
48794.9
48775.5
48744.7
48721.4
48707.7
48696.5
48688
48691.4
48714.2
48730
48724.1
48711.4
48694.1
48664.2
48619.1
48593.7
48579.7
48568.2
48558.8
48558.8
48579.1
48611.5
48615.6
48605.6
48591.7
48571.3
48534.1
48493.2
48473.9
48461.1
48449.9
48441.1
48443
48465.2
48488.7
48486.8
48475.2
48460.4
48438
48405.6
48385.2
48372.3
48360.9
48351.6
48351.4
48362.4
48361.6
48350.1
48335.2
48311.3
48279.4
48260.9
48248.6
48238.1
48233.4
48244.9
48279
48293.7
48287.1
48274.3
48257.2
48227.3
48178.3
48148.6
48133.7
48121.7
48111.3
48105.2
48113.6
48143.2
48158.6
48152.5
48140.1
48124
48098
48064.4
48045.6
48033
48021.8
48012.4
48011.8
48024.7
48029.8
48020.5
48007.2
47989.1
47965.9
47950.5
47938.7
47928.5
47924.6
47933.8
47940.1
47931.4
47918.1
47899.5
47870.4
47848.9
47836
47825.1
47817.2
47821.4
47843.5
47854.2
47846.6
47833.7
47816.1
47785.5
47748.3
47729.4
47716.8
47706
47697.4
47699.8
47720.4
47735.1
47729.3
47717
47701.2
47675.7
47646.6
47630.4
47618.4
47608
47601.3
47607.6
47624.4
47623.9
47612.8
47598.6
47577
47546.5
47527.6
47515.2
47504.4
47496.3
47499.8
47518.5
47525
47516.2
47503.1
47485.3
47457
47434.1
47420.7
47409.4
47399.6
47396.9
47408.2
47416.7
47409
47396.4
47379.7
47354.2
47333.6
47320.7
47309.6
47300.3
47299.6
47312.3
47316.6
47307.2
47294.1
47276.4
47252.8
47236.7
47224.8
47214.1
47206.2
47208.6
47215
47208
47195.7
47180
47160.8
47146.9
47135.5
47125.7
47122.1
47129.8
47130.2
47119.7
47106.4
47088.3
47070.5
47057.9
47046.8
47037.2
47034.5
47037.3
47029.6
47017.5
47003.4
46990.7
46979.7
46970.6
46969.8
46967.4
46956.4
46942.8
46925.2
46910.9
46899.6
46889.9
46887.4
46896.1
46895.8
46885
46871.4
46851.3
46829.5
46815.9
46804.7
46795.1
46792.6
46803.2
46809
46800.4
46787.7
46771
46748.1
46731.9
46720
46709.5
46701.4
46703.4
46714.4
46711.6
46700.4
46686.9
46668
46646.9
46632.9
46621.3
46609.9
46598.4
46587
46575.7
46565
46556.3
46556.1
46572.5
46587.4
46582.3
46570.6
46555.5
46531.1
46492.8
46469.1
46456
46444.9
46435.3
46432.3
46445.5
46472
46475.2
46465.7
46452.8
46434.7
46403.4
46373.1
46357.7
46346.1
46335.7
46327.6
46329.9
46347.7
46355.4
46347.5
46335.2
46319.3
46295.4
46275.7
46263.2
46252.3
46243
46240.4
46248.5
46247.1
46236.3
46222.4
46200.9
46172.2
46155.2
46143.5
46133.4
46127.1
46134
46158.3
46166.5
46158.4
46146.1
46129.4
46100.3
46066.8
46049.8
46038.1
46027.8
46020.3
46024.1
46049.1
46069.6
46066.1
46055
46040.7
46018.2
45975.1
45934.7
45917
45905
45894.3
45885
45882.6
45897.4
45934.5
45947.9
45941.5
45929.8
45915
45891.1
45851.2
45824.5
45810.7
45799.4
45789
45780.6
45781.4
45798.2
45809.5
45803
45791.3
45776.8
45754.4
45731.3
45717.7
45706.5
45696.4
45689.1
45692.1
45700.2
45694.4
45683
45668.7
45649.4
45634.3
45622.9
45612.9
45606.2
45610.7
45618.5
45612
45600.3
45585.2
45561.4
45538.6
45525.3
45514.3
45504.5
45498.3
45503.8
45513.6
45508.4
45497.1
45483.5
45466.1
45452.2
45441.1
45431.2
45424.6
45428.3
45429.8
45420.5
45408.2
45391.5
45372.4
45359.4
45348.5
45338.8
45333.2
45337.3
45335.3
45324.8
45312.1
45296.2
45283.1
45272.4
45263.1
45260.2
45269
45270.3
45260.5
45247.8
45229.5
45203
45185.3
45173.7
45163.4
45155
45155.3
45168.3
45170.6
45161.2
45148.8
45131.6
45107.3
45090.8
45079.4
45069.3
45062
45065.5
45083.5
45087.9
45079
45066.7
45049.7
45019
44984.9
44968.3
44956.8
44946.6
44938.4
44939.1
44959.1
44983.9
44983.4
44973.3
44960.7
44942.8
44911.1
44880.3
44865.1
44853.8
44843.4
44834.3
44831.3
44842
44853.8
44848.4
44837.3
44823.9
44804.5
44786.4
44774.4
44763.9
44754.9
44751.8
44760.2
44761.6
44752.1
44739.7
44722.1
44694.8
44675.2
44663.2
44652.8
44643.8
44641.3
44653.5
44666.7
44661.8
44650.9
44637.5
44617.3
44593.3
44579
44568
44557.9
44549.8
44550
44560.8
44560.2
44550.2
44538
44521
44500.4
44486.8
44475.9
44465.9
44457.8
44458.1
44463.1
44456.6
44445.5
44432.1
44417.6
44406.1
44395.9
44387.3
44386.2
44389.6
44382.3
44370.9
44356.3
44336.2
44321.3
44310.4
44300.5
44293.2
44295.7
44303.9
44298.6
44287.7
44274.3
44254.9
44237.8
44226.3
44216.1
44207.6
44206.3
44216.2
44216.3
44206.5
44194.3
44176.8
44151.7
44135.1
44123.9
44113.9
44105.8
44106.6
44122.1
44129.1
44121.5
44110
44095.2
44070.7
44043.7
44029.2
44018.3
44008.5
44000.5
44001.5
44017.1
44024.1
44016.6
44005.3
43990.9
43967.7
43943.6
43930
43919.3
43909.6
43901.9
43903.4
43917.5
43919.9
43910.9
43899.3
43884
43861.1
43843.3
43831.7
43821.3
43812
43805.9
43810.1
43814.3
43806.6
43795.4
43781.6
43765.7
43753.8
43743.5
43734.3
43729.6
43734.7
43733.2
43723.3
43711.2
43694.1
43673.8
43660.6
43650.1
43640.5
43633.3
43635.3
43641.4
43635
43624.2
43611.2
43595.3
43583
43572.6
43563.4
43558.2
43563.9
43567.4
43559.1
43547.8
43533.3
43513.9
43500
43489.4
43479.8
43472.5
43474.5
43479.6
43472.6
43461.5
43446.9
43421.9
43388.7
43371.3
43360
43349.9
43341.2
43338
43350
43384.5
43397.9
43392.2
43381.6
43368.4
43347.9
43309.8
43277.6
43262.8
43252.1
43242.1
43233.6
43231.2
43244.8
43271.8
43275.4
43267
43255.7
43240.8
43214.9
43176.5
43155.5
43143.6
43133.3
43124
43117.4
43121.4
43144.1
43157.3
43151.9
43141.4
43128.5
43109
43076.9
43054.5
43042.3
43032
43022.5
43015.1
43016.6
43034.4
43045.2
43039.1
43028.5
43015.6
42996.1
42964.8
42943.6
42931.5
42921.1
42910.9
42901
42892.1
42886.6
42892.8
42916.8
42926.4
42919.8
42909.2
42896.1
42875.9
42842.6
42820.1
42807.9
42797.6
42788.1
42780.4
42780.7
42796.3
42805.8
42799.4
42788.9
42775.9
42755.7
42728
42711.8
42701
42691
42682.3
42678.3
42687.1
42700.7
42697.1
42687.1
42675.2
42658
42633.1
42616.6
42605.7
42595.8
42586.9
42582.2
42589
42596.6
42590.4
42579.9
42567.2
42548.5
42531
42519.7
42509.8
42501.2
42497.9
42507.8
42519.7
42514.8
42504.6
42491.9
42471.8
42433.5
42400
42385
42374.4
42364.6
42356.1
42352.3
42362.5
42399.5
42422.2
42419.5
42409.8
42398.2
42381.8
42351.2
42306.1
42283.5
42271.3
42261.2
42251.7
42243.6
42241.9
42256.5
42283.8
42287.1
42278.9
42268.1
42254.5
42232.2
42201.5
42184.4
42173.4
42163.5
42154.3
42147.2
42148.8
42159.8
42158.2
42148.7
42137.5
42121.8
42098.6
42082.2
42071.4
42061.7
42053.2
42049.7
42058.9
42070.2
42065.3
42055.2
42043.1
42024.8
41997.6
41980.4
41969.5
41959.8
41951.2
41947.1
41955.9
41974.3
41974
41964.9
41953.9
41938.8
41912.9
41886
41872.4
41862.1
41852.7
41844.5
41842.3
41854.5
41868.4
41864.3
41854.5
41842.8
41826
41798.9
41779.2
41767.9
41758
41749.1
41742.8
41746.7
41764.1
41767.6
41759.5
41748.8
41735.2
41712.3
41682.4
41666.5
41655.9
41646.3
41637.6
41632.6
41639.5
41658.1
41659.3
41650.7
41640.1
41626.3
41603.9
41581.1
41568.5
41558.4
41549.1
41541
41538.6
41547.9
41551.9
41544.2
41533.7
41520.6
41500
41479.4
41467.4
41457.6
41448.6
41441.6
41443.4
41458.1
41461.1
41453
41442.4
41429
41406.9
41382
41368.5
41358.4
41349
41340.9
41338.3
41349.1
41361.8
41357.5
41347.8
41336.4
41320.3
41294.2
41274.5
41263.2
41253.5
41244.3
41236.5
41235.3
41247.1
41253.9
41247.2
41237.2
41225.4
41208.5
41190
41178.3
41168.4
41159
41150.4
41145.1
41146.6
41141.7
41132.1
41121.1
41108.5
41097.8
41088.2
41079.6
41074.4
41080
41090.2
41085.8
41076.3
41065.1
41049.4
41022.9
41000
40987.8
40977.9
40968.3
40958.7
40949.1
40939.7
40931
40924.5
40926.8
40946
40958.2
40953.1
40943.4
40932.1
40916
40887.5
40861.1
40848.1
40838.2
40828.8
40820.4
40815.4
40821.7
40836.7
40835.6
40826.7
40816.2
40802.5
40781.3
40763.2
40752.3
40742.7
40733.8
40726.7
40727.2
40737.6
40736.6
40727.7
40717.2
40703.3
40681.4
40663.5
40652.7
40643.2
40634.4
40628
40630.5
40644
40644.4
40635.9
40625.6
40612.4
40591.2
40570.5
40558.8
40549.2
40540.1
40532.4
40530.2
40540.1
40545.2
40538.2
40528.3
40516.5
40498.9
40478.9
40466.9
40457.2
40448
40440
40436.3
40442.8
40445
40437.1
40427.1
40414.8
40396.8
40380.8
40370.3
40360.8
40352.1
40345.1
40345.7
40353.7
40350.5
40341.3
40330.9
40317.5
40301.6
40290.3
40280.8
40271.6
40263.3
40258.5
40259
40252.9
40243.4
40233
40222.1
40212.4
40203.3
40195.2
40191.4
40190.5
40182.8
40173
40161.5
40147
40135.4
40125.9
40117
40109.4
40107.4
40112.7
40108.9
40099.8
40089.5
40077.3
40066.2
40056.7
40047.6
40039.3
40034.1
40029.4
40020.8
40011.4
40001.7
39992.1
39982.8
39973.8
39965.5
39958.1
39949.4
39940.2
39930.8
39921.5
39912.3
39903.5
39896.3
39895.3
39906.5
39910.7
39903.4
39893.7
39881.7
39862.8
39832.8
39814.3
39803.6
39794.3
39785.6
39778.5
39778.2
39793.1
39805.4
39800.8
39791.6
39781.1
39767
39743.8
39723.7
39712.5
39703.1
39694
39685.8
39679.9
39682.9
39690
39685.1
39675.9
39665.5
39651.9
39637.1
39626.7
39617.5
39608.7
39601.3
39599.7
39603.1
39597.5
39588.1
39577.5
39563
39548.2
39538
39528.8
39520.3
39513.6
39514.1
39518.2
39512.2
39502.9
39492.2
39477.5
39463
39452.9
39443.8
39435.5
39429.4
39432
39441.2
39437.8
39428.9
39418.8
39405.6
39384.9
39366.8
39356
39346.7
39337.6
39328.6
39319.7
39311.8
39307
39312
39318.4
39312.7
39303.4
39292.8
39277.8
39254.8
39238.9
39228.8
39219.8
39211.5
39205.3
39207.9
39226.1
39234.3
39228.3
39219
39208.3
39192.8
39164.4
39137.7
39124.9
39115.4
39106.4
39098
39091.4
39092.3
39108.1
39117.3
39111.7
39102.7
39092.3
39078.3
39056.1
39038.9
39028.5
39019.5
39010.8
39003.3
39000.4
39008.9
39014.7
39008.5
38999.3
38988.7
38973.7
38951.9
38937.4
38927.7
38918.7
38910.2
38903
38901.5
38909
38907.8
38899.5
38889.9
38878.3
38862.4
38849.7
38840.3
38831.4
38823.2
38817.2
38819
38821.9
38815.2
38806
38795.4
38780.4
38764.5
38754.1
38745.1
38736.4
38729
38726
38731
38728.5
38720
38710.4
38698.4
38683.5
38672.5
38663.5
38654.8
38647.3
38644.1
38649.6
38648.4
38640.2
38630.7
38618.7
38600.2
38582.9
38572.5
38563.6
38555.1
38547.8
38545.7
38555
38559.3
38552.6
38543.5
38533.1
38518.3
38498.8
38486.2
38476.9
38468.1
38459.8
38452.9
38451.7
38460.2
38460
38452.1
38443
38432.9
38420.8
38410.1
38400.9
38392
38383.1
38374.1
38364.7
38353.9
38338.7
38322.5
38312.1
38303.2
38294.6
38287
38282.9
38290
38312.1
38316.8
38310
38301
38290.5
38275.5
38247.5
38218.9
38205.7
38196.3
38187.5
38178.9
38171.1
38165.8
38169.7
38185.5
38187.5
38180.2
38171.2
38161.2
38147.9
38133.5
38123.5
38114.7
38106
38097.5
38089.7
38082.5
38074.2
38065.5
38056.8
38048.1
38039.5
38031.2
38024.1
38021.8
38028.1
38027.1
38019.1
38009.9
37998.6
37980.9
37959.6
37947.5
37938.5
37930
37922.3
37917.6
37923.1
37937.4
37936.4
37928.4
37919.2
37907.9
37889.8
37863.3
37848
37838.4
37829.8
37821.6
37814.9
37814.5
37829
37842.7
37839
37830.6
37821.2
37809.1
37788.6
37755.9
37737.4
37727.1
37718.4
37709.9
37702.2
37697.1
37701.5
37720.2
37725.1
37718.5
37709.7
37699.8
37686
37662.1
37640.7
37629.7
37620.8
37612.4
37604.7
37599.3
37602.9
37619
37621.6
37614.5
37605.6
37595.4
37580.5
37554.3
37533
37522.1
37513.3
37504.8
37497.1
37491.7
37495.1
37512.2
37516.6
37510
37501.3
37491.5
37478
37454.8
37433.7
37422.6
37413.8
37405.4
37397.3
37390.7
37389.7
37401.9
37410.4
37405.2
37396.7
37387.5
37376.1
37358.1
37338
37326.6
37317.7
37309.2
37300.7
37292.2
37283.8
37275.4
37267.3
37260.3
37257.5
37265.9
37274.3
37269.4
37261
37251.9
37240.5
37222.1
37198.2
37185.1
37176
37167.5
37159.1
37150.9
37143.7
37139.8
37146.6
37159.5
37157.2
37149.3
37140.4
37129.9
37114.1
37088.7
37072.1
37062.3
37053.8
37045.5
37037.8
37031.7
37032.8
37047
37052.5
37046.5
37038
37029.2
37018.9
37004.5
36988
36977.5
36968.8
36960.3
36951.9
36943.5
36935.2
36926.8
36918.4
36910.1
36901.8
36894
36887.6
36886.8
36893.2
36890.5
36882.5
36873.8
36863.5
36848.6
36833.2
36823.4
36815
36806.8
36799.4
36794.4
36797.9
36801.1
36794.9
36786.5
36777.1
36764.8
36746.1
36731.8
36722.5
36714.2
36706
36698.6
36693.8
36697.3
36701.1
36695.2
36686.8
36677.8
36666.8
36653.9
36644.3
36635.9
36627.7
36620
36614
36611.4
36605.6
36597.5
36589
36579.8
36570.4
36562
36553.8
36546.3
36540.7
36542.6
36546.8
36541.3
36533
36523.9
36512.1
36493.4
36477.3
36467.7
36459.4
36451.3
36444
36439.5
36444.1
36451
36446.3
36438.1
36429.3
36418.6
36402.2
36385.6
36375.6
36367.3
36359.1
36351.4
36345
36344
36348.2
36343.8
36335.7
36327.1
36316.9
36304
36293.8
36285.4
36277.3
36269.7
36263.7
36263.9
36265
36258.4
36250.1
36240.9
36228.8
36211.7
36199.7
36191.1
36183
36175.2
36168.6
36167
36175
36176
36169
36160.7
36151.5
36139.5
36122.8
36110.8
36102.1
36094
36086
36078.5
36072.9
36073.7
36074.3
36067.6
36059.4
36050.7
36040.8
36031.7
36023.5
36015.6
36008.2
36002.7
36003.8
36003
35995.9
35987.6
35978.3
35965.6
35944.5