/*--------------------------------*- C++ -*----------------------------------*\
  =========                 |
  \\      /  F ield         | OpenFOAM: The Open Source CFD Toolbox
   \\    /   O peration     | Website:  https://openfoam.org
    \\  /    A nd           | Version:  9
     \\/     M anipulation  |
\*---------------------------------------------------------------------------*/
FoamFile
{
    format      ascii;
    class       volScalarField;
    location    "0.018";
    object      rho;
}
// * * * * * * * * * * * * * * * * * * * * * * * * * * * * * * * * * * * * * //

dimensions      [1 -3 0 0 0 0 0];

internalField   nonuniform List<scalar> 
10000
(
0.805432
0.805291
0.804911
0.804282
0.803804
0.803529
0.803368
0.803275
0.803233
0.803204
0.803181
0.803168
0.803168
0.803161
0.803142
0.803107
0.803031
0.802851
0.802585
0.802382
0.802252
0.802188
0.802148
0.80211
0.802086
0.802084
0.802087
0.80207
0.802033
0.801975
0.801858
0.801579
0.801151
0.800823
0.800612
0.800499
0.800456
0.800416
0.800368
0.800335
0.800316
0.800325
0.800318
0.800284
0.800222
0.800096
0.799803
0.799419
0.799166
0.798998
0.798854
0.798764
0.798717
0.798732
0.798716
0.79867
0.798615
0.798597
0.798612
0.798633
0.798615
0.798548
0.798351
0.797992
0.797681
0.797491
0.797351
0.79727
0.797237
0.797246
0.797214
0.797132
0.797004
0.796851
0.796719
0.796628
0.796513
0.796363
0.796217
0.7961
0.796035
0.79598
0.795863
0.795718
0.795582
0.795477
0.79544
0.795414
0.795294
0.795134
0.794981
0.794856
0.794793
0.794802
0.794717
0.794552
0.794385
0.794244
0.794161
0.794182
0.794131
0.793969
0.793793
0.793638
0.793515
0.793449
0.793362
0.793233
0.793112
0.793033
0.793049
0.792993
0.792828
0.792637
0.792478
0.792358
0.792353
0.79237
0.792243
0.792056
0.791876
0.791739
0.791693
0.791738
0.791667
0.791494
0.791287
0.791126
0.791007
0.79101
0.791051
0.790945
0.790758
0.790527
0.790338
0.790192
0.790089
0.790103
0.790143
0.790067
0.789919
0.78978
0.789697
0.78959
0.78943
0.789268
0.789132
0.789077
0.789118
0.789049
0.788881
0.788694
0.788552
0.788482
0.788511
0.788423
0.788247
0.788058
0.787915
0.787836
0.787868
0.787847
0.787703
0.787546
0.787422
0.787337
0.787196
0.787032
0.786887
0.786788
0.78681
0.786819
0.786682
0.78649
0.78631
0.786176
0.786137
0.786173
0.786077
0.785898
0.785699
0.785552
0.785471
0.785514
0.785514
0.785363
0.785147
0.784888
0.784712
0.784583
0.784574
0.784671
0.784708
0.78458
0.784387
0.784166
0.784001
0.783874
0.783851
0.78387
0.783758
0.783589
0.783447
0.78338
0.783389
0.783272
0.783092
0.782922
0.782793
0.782771
0.782788
0.782663
0.782478
0.782305
0.782177
0.782163
0.782227
0.782159
0.781983
0.781732
0.781491
0.78134
0.781233
0.781274
0.781392
0.781389
0.781238
0.781028
0.780793
0.78063
0.780506
0.780494
0.780554
0.780486
0.780318
0.780118
0.779963
0.779852
0.779862
0.779868
0.779731
0.779542
0.779367
0.779233
0.779201
0.779134
0.778969
0.778757
0.778585
0.778458
0.778466
0.77858
0.778609
0.778472
0.778267
0.778004
0.777811
0.777675
0.777626
0.777692
0.777714
0.777579
0.777381
0.777165
0.777018
0.776928
0.776972
0.777033
0.776932
0.776745
0.776497
0.776298
0.776161
0.776113
0.776184
0.776229
0.776108
0.775916
0.775681
0.775504
0.775373
0.77534
0.775399
0.775358
0.775199
0.775002
0.77484
0.774718
0.77471
0.774712
0.774578
0.7744
0.774244
0.774124
0.774062
0.773927
0.773752
0.773565
0.773425
0.773363
0.773447
0.773559
0.773493
0.773319
0.773062
0.772781
0.772608
0.77248
0.772477
0.772599
0.772679
0.772576
0.77239
0.772125
0.771888
0.771739
0.771634
0.771667
0.771765
0.771723
0.771562
0.771339
0.771115
0.770968
0.770866
0.770897
0.770967
0.770886
0.770713
0.770493
0.770312
0.770178
0.770122
0.770167
0.770112
0.769953
0.769771
0.769629
0.769548
0.769567
0.769475
0.769304
0.769122
0.768979
0.768903
0.768855
0.76871
0.768528
0.768365
0.76824
0.768245
0.768357
0.768386
0.768251
0.768049
0.767776
0.767568
0.767428
0.767347
0.767397
0.767471
0.767389
0.76722
0.767018
0.766862
0.766746
0.766748
0.766761
0.76663
0.766437
0.766225
0.76608
0.765993
0.766038
0.766107
0.766014
0.765836
0.765599
0.7654
0.765262
0.765189
0.765237
0.765266
0.765143
0.764959
0.764764
0.76462
0.764522
0.764545
0.764527
0.764383
0.764205
0.764042
0.763897
0.763778
0.763651
0.763517
0.7634
0.7634
0.763512
0.763567
0.763447
0.763252
0.762947
0.762648
0.762475
0.762348
0.762331
0.762474
0.762642
0.762612
0.762454
0.762229
0.76192
0.761698
0.761556
0.761458
0.7615
0.761614
0.761592
0.76144
0.761231
0.761004
0.760848
0.76073
0.760726
0.760789
0.760718
0.760551
0.760327
0.760121
0.759976
0.759867
0.759868
0.759812
0.759659
0.759516
0.759418
0.75947
0.759594
0.759559
0.759397
0.759157
0.758815
0.758578
0.758435
0.758336
0.758391
0.758577
0.758664
0.758564
0.758382
0.758112
0.75782
0.757638
0.757506
0.757445
0.757516
0.75761
0.75754
0.757376
0.757166
0.756982
0.756847
0.756771
0.7568
0.756735
0.756577
0.7564
0.756263
0.756191
0.756212
0.756115
0.75594
0.75572
0.755545
0.755412
0.75534
0.755367
0.755334
0.755232
0.75514
0.755152
0.755234
0.755184
0.755019
0.754766
0.75437
0.75407
0.753899
0.75377
0.753713
0.753823
0.754085
0.754201
0.754117
0.753943
0.753684
0.753336
0.753108
0.752966
0.752858
0.752894
0.753047
0.753114
0.753004
0.75282
0.752548
0.752286
0.752124
0.752
0.751984
0.752086
0.752149
0.752043
0.751867
0.75164
0.751454
0.751318
0.751234
0.751252
0.751168
0.751003
0.750803
0.750642
0.750518
0.750487
0.750541
0.750507
0.750365
0.750229
0.750158
0.750162
0.750041
0.749852
0.749606
0.74943
0.749305
0.749291
0.749405
0.749476
0.749371
0.74919
0.748928
0.748684
0.748531
0.748412
0.748407
0.748496
0.748482
0.748337
0.748146
0.747963
0.747832
0.74779
0.74787
0.747918
0.747799
0.747607
0.747314
0.74705
0.746897
0.746781
0.746797
0.746949
0.747047
0.746957
0.746782
0.746519
0.746186
0.745976
0.745835
0.745725
0.74574
0.745853
0.74588
0.745758
0.745589
0.745435
0.745316
0.745305
0.74532
0.745192
0.744994
0.744704
0.744482
0.744346
0.744269
0.744358
0.744577
0.744651
0.744541
0.744355
0.74406
0.743695
0.743482
0.743346
0.743255
0.743317
0.743523
0.743628
0.743539
0.743365
0.743103
0.742766
0.742555
0.742417
0.742317
0.74236
0.742514
0.742568
0.742455
0.742276
0.742025
0.741805
0.741656
0.741538
0.741514
0.741553
0.741459
0.74129
0.741075
0.740904
0.740779
0.740744
0.740836
0.740924
0.74085
0.740692
0.740494
0.740267
0.740087
0.739936
0.739792
0.739668
0.739595
0.739675
0.739889
0.739977
0.739876
0.739697
0.739412
0.738989
0.738715
0.738562
0.738443
0.738435
0.738603
0.738833
0.738851
0.738718
0.738523
0.738212
0.737899
0.73772
0.737593
0.737531
0.737626
0.737813
0.737834
0.737702
0.737508
0.737193
0.73682
0.736607
0.73646
0.736339
0.736304
0.736437
0.736697
0.736776
0.736672
0.736494
0.736219
0.735846
0.735614
0.735474
0.735367
0.735395
0.7356
0.735789
0.735755
0.735603
0.735382
0.735016
0.734682
0.734503
0.734376
0.734311
0.734407
0.734628
0.734697
0.734589
0.73441
0.734135
0.73382
0.733632
0.733503
0.733429
0.733504
0.73366
0.733657
0.733515
0.733311
0.732973
0.732635
0.732449
0.732318
0.73223
0.732291
0.732543
0.732748
0.73272
0.732572
0.73236
0.732011
0.731676
0.731494
0.731367
0.731294
0.73138
0.731621
0.731732
0.731646
0.731475
0.731213
0.730804
0.730517
0.730358
0.730237
0.730206
0.730347
0.730589
0.730633
0.730513
0.730329
0.730038
0.729709
0.72952
0.729391
0.729312
0.729385
0.729564
0.729596
0.72947
0.729279
0.728963
0.728564
0.72834
0.728199
0.728088
0.728096
0.728296
0.728586
0.728642
0.728529
0.728349
0.728064
0.727676
0.727441
0.727299
0.727187
0.727194
0.727371
0.727561
0.727533
0.727387
0.727173
0.726819
0.726486
0.726308
0.726183
0.726117
0.726213
0.726453
0.726547
0.726453
0.726282
0.726022
0.725663
0.725435
0.725295
0.725185
0.725199
0.725346
0.725431
0.725335
0.725163
0.724894
0.724529
0.724307
0.724171
0.72407
0.724108
0.72435
0.724621
0.72464
0.72451
0.72432
0.724002
0.723571
0.723321
0.723173
0.723056
0.723032
0.723179
0.723415
0.723447
0.723324
0.72314
0.722845
0.722504
0.722309
0.722179
0.722087
0.722139
0.72233
0.722423
0.722332
0.722166
0.721918
0.721603
0.721405
0.721271
0.721169
0.721186
0.721285
0.721257
0.721115
0.720918
0.720695
0.720548
0.720437
0.720447
0.720608
0.72073
0.720658
0.720499
0.720267
0.719909
0.719632
0.71947
0.719337
0.719227
0.719221
0.719376
0.719566
0.719553
0.719415
0.719222
0.718924
0.718666
0.718512
0.718393
0.718359
0.718455
0.718539
0.71845
0.718285
0.718036
0.717744
0.717567
0.717444
0.717383
0.717483
0.71773
0.717825
0.717735
0.717573
0.717337
0.716988
0.716726
0.716564
0.716424
0.716292
0.716181
0.716151
0.716272
0.716467
0.716479
0.71635
0.716168
0.715887
0.715613
0.715451
0.715329
0.715274
0.715351
0.715446
0.71537
0.715211
0.714974
0.714688
0.714511
0.714389
0.714334
0.714444
0.714704
0.714795
0.714701
0.714534
0.714278
0.713855
0.713513
0.713335
0.713198
0.713084
0.713049
0.713182
0.713509
0.713669
0.713609
0.713457
0.713234
0.712848
0.712441
0.712236
0.712102
0.711997
0.712011
0.712206
0.712423
0.712413
0.712277
0.712081
0.711749
0.711364
0.711158
0.711027
0.710926
0.710952
0.711183
0.711484
0.711532
0.711421
0.711249
0.710984
0.710558
0.710233
0.710057
0.709918
0.709794
0.709699
0.709726
0.709933
0.710159
0.710158
0.710026
0.709841
0.709539
0.709192
0.708998
0.708868
0.708769
0.708799
0.709007
0.709202
0.709174
0.709035
0.708839
0.708514
0.708108
0.707877
0.707726
0.70759
0.70747
0.707387
0.707435
0.707694
0.708004
0.708049
0.707937
0.707764
0.70749
0.707004
0.706578
0.706378
0.706242
0.706129
0.706108
0.706267
0.706645
0.706831
0.706783
0.706637
0.706426
0.706064
0.705657
0.705449
0.705316
0.70521
0.705219
0.705409
0.70563
0.705622
0.705487
0.705292
0.70495
0.704474
0.704211
0.704064
0.70395
0.703923
0.704076
0.704448
0.704629
0.704576
0.704429
0.704212
0.703827
0.703387
0.703168
0.703034
0.702928
0.702937
0.70315
0.703527
0.703641
0.703559
0.7034
0.703155
0.702704
0.702192
0.701952
0.701806
0.701691
0.701645
0.701762
0.702083
0.702256
0.702205
0.702061
0.701857
0.701533
0.70125
0.701089
0.700969
0.700894
0.700954
0.701096
0.701083
0.70095
0.700766
0.700499
0.700293
0.700163
0.700063
0.700089
0.700235
0.700285
0.700178
0.700011
0.699754
0.699476
0.699309
0.699189
0.699116
0.699174
0.699281
0.69923
0.699087
0.698887
0.698656
0.698504
0.69839
0.698363
0.69847
0.698561
0.698477
0.698319
0.698078
0.697754
0.697554
0.697428
0.697339
0.697388
0.697616
0.697777
0.697722
0.697576
0.69736
0.696989
0.696634
0.696454
0.696331
0.696241
0.696288
0.696523
0.696723
0.696693
0.696556
0.696363
0.69604
0.695685
0.695496
0.695366
0.695258
0.695249
0.695372
0.695466
0.695386
0.695237
0.695031
0.694827
0.694692
0.694585
0.694585
0.694694
0.694707
0.694584
0.69441
0.694147
0.693932
0.6938
0.693698
0.693717
0.693881
0.693977
0.693891
0.693734
0.693492
0.693119
0.692867
0.692724
0.692613
0.692588
0.692737
0.693002
0.693057
0.692951
0.692787
0.69253
0.692152
0.69191
0.691767
0.691653
0.691607
0.691702
0.691842
0.691803
0.691665
0.69147
0.691186
0.690978
0.690849
0.690748
0.690769
0.690948
0.691082
0.691016
0.690869
0.690652
0.690304
0.690038
0.68989
0.689776
0.689733
0.689849
0.690077
0.690115
0.690003
0.689834
0.689564
0.689197
0.688982
0.68885
0.688743
0.688737
0.688903
0.68912
0.689117
0.68899
0.688812
0.688518
0.688155
0.687954
0.687821
0.687712
0.687687
0.687802
0.687931
0.687878
0.687739
0.687551
0.687342
0.6872
0.68709
0.687064
0.687158
0.687195
0.687084
0.686917
0.68665
0.686354
0.686187
0.68607
0.686002
0.686083
0.686303
0.686375
0.686278
0.68612
0.685876
0.68554
0.685333
0.685203
0.6851
0.685104
0.685272
0.685439
0.685397
0.68526
0.685063
0.684738
0.684442
0.684283
0.684167
0.6841
0.684183
0.684398
0.684458
0.684355
0.684192
0.683927
0.683484
0.683172
0.683015
0.6829
0.682837
0.682929
0.68327
0.683561
0.683568
0.683446
0.683273
0.682983
0.682509
0.682189
0.682029
0.68191
0.68182
0.681859
0.682083
0.682288
0.682262
0.682131
0.681949
0.681653
0.681356
0.681193
0.681075
0.680996
0.681056
0.681266
0.681361
0.681276
0.681124
0.680894
0.680519
0.680237
0.680085
0.679971
0.679901
0.679973
0.680162
0.680199
0.680089
0.679925
0.679665
0.679343
0.679159
0.679038
0.678948
0.678988
0.67922
0.679425
0.679396
0.679264
0.679076
0.67875
0.678344
0.678132
0.678001
0.677895
0.677878
0.678036
0.678311
0.678365
0.678263
0.678104
0.677855
0.677462
0.677193
0.677047
0.676934
0.67687
0.676954
0.677198
0.677302
0.677222
0.677074
0.676856
0.676508
0.676245
0.676099
0.675986
0.675921
0.676001
0.676212
0.676271
0.676172
0.676018
0.675785
0.675478
0.67529
0.675165
0.675063
0.675064
0.675203
0.675299
0.67522
0.675073
0.67486
0.674536
0.674305
0.674164
0.674051
0.673979
0.674034
0.674169
0.674157
0.674035
0.67388
0.673717
0.673595
0.673498
0.673502
0.673532
0.673433
0.673279
0.673051
0.672843
0.672714
0.672615
0.672628
0.672801
0.672935
0.67287
0.672728
0.672517
0.672145
0.671796
0.671625
0.671507
0.671419
0.671457
0.671705
0.671985
0.672001
0.671886
0.671723
0.671457
0.671037
0.670759
0.67061
0.670494
0.670408
0.670446
0.670613
0.670677
0.670581
0.67043
0.670201
0.669915
0.669743
0.669626
0.669542
0.669591
0.66982
0.669981
0.669927
0.669791
0.669593
0.669244
0.668861
0.668672
0.668548
0.668447
0.668446
0.668627
0.6689
0.668934
0.668826
0.668668
0.668414
0.668011
0.667739
0.667593
0.667481
0.667411
0.667481
0.667733
0.667879
0.667818
0.66768
0.667483
0.667141
0.666783
0.666602
0.666478
0.666375
0.666356
0.666503
0.666739
0.666764
0.666655
0.666501
0.66627
0.665991
0.665822
0.665697
0.665591
0.665552
0.665619
0.665623
0.665508
0.665354
0.665169
0.665032
0.664925
0.664895
0.664995
0.665065
0.664978
0.664831
0.66461
0.664312
0.664126
0.664003
0.663901
0.663892
0.664003
0.664051
0.663953
0.663804
0.663585
0.663366
0.663229
0.663122
0.663086
0.663196
0.663345
0.663306
0.663177
0.662993
0.662693
0.662425
0.662278
0.662168
0.662108
0.662197
0.66245
0.662549
0.662467
0.662322
0.662102
0.661707
0.661334
0.661157
0.661037
0.66094
0.660945
0.661136
0.661407
0.661433
0.661324
0.661166
0.660909
0.660482
0.660185
0.660035
0.659922
0.659849
0.659911
0.66021
0.660529
0.660555
0.660446
0.66029
0.660036
0.659571
0.659167
0.658985
0.658861
0.658759
0.658733
0.658878
0.659208
0.65933
0.659259
0.659122
0.658925
0.658581
0.658234
0.65806
0.65794
0.657839
0.657827
0.657976
0.658169
0.658152
0.658031
0.657862
0.65758
0.657232
0.657044
0.656921
0.65682
0.656808
0.656967
0.657218
0.657244
0.657136
0.656983
0.656738
0.656365
0.656124
0.655986
0.655877
0.655807
0.655871
0.656082
0.656165
0.65608
0.65594
0.655734
0.65543
0.655221
0.655091
0.654985
0.654936
0.655025
0.655186
0.65517
0.65505
0.654888
0.654633
0.654384
0.654238
0.654126
0.654041
0.65407
0.654198
0.6542
0.654085
0.653931
0.653701
0.653497
0.653366
0.65326
0.653214
0.653311
0.653496
0.6535
0.653386
0.653233
0.652992
0.652653
0.652439
0.652304
0.652183
0.652075
0.651992
0.65202
0.652176
0.652245
0.652158
0.65202
0.651824
0.651594
0.651445
0.651335
0.651258
0.651305
0.651451
0.651451
0.651335
0.651175
0.650907
0.650581
0.650404
0.650286
0.650191
0.650194
0.650376
0.650607
0.650606
0.650491
0.650334
0.650076
0.649709
0.649494
0.649364
0.649258
0.649201
0.649285
0.649498
0.649547
0.649451
0.649306
0.649087
0.648768
0.648564
0.648437
0.648334
0.648292
0.648396
0.648588
0.64859
0.648476
0.648322
0.648071
0.647766
0.647594
0.647478
0.647383
0.647385
0.647549
0.647714
0.647673
0.647548
0.647371
0.647061
0.646655
0.646443
0.646315
0.64621
0.646156
0.646248
0.646564
0.646775
0.646745
0.646626
0.646466
0.646207
0.64584
0.645619
0.645485
0.645367
0.645263
0.6452
0.645246
0.645307
0.645232
0.645105
0.644963
0.644848
0.644757
0.644769
0.644872
0.644845
0.644725
0.644556
0.644276
0.64401
0.643865
0.643756
0.643681
0.643733
0.643938
0.644031
0.643953
0.643818
0.643624
0.643314
0.643077
0.642941
0.642833
0.642757
0.642803
0.642973
0.643019
0.642923
0.642782
0.642572
0.6423
0.642132
0.642015
0.641917
0.641899
0.642016
0.642111
0.642041
0.641911
0.641731
0.641496
0.641337
0.641223
0.641129
0.641125
0.641218
0.641198
0.641081
0.640919
0.640657
0.640411
0.640272
0.640167
0.640107
0.640187
0.640451
0.64058
0.640515
0.640386
0.640201
0.639874
0.6395
0.639314
0.639191
0.639088
0.639028
0.639103
0.639309
0.639362
0.63927
0.639132
0.638932
0.638655
0.638476
0.638356
0.638254
0.638212
0.638293
0.638381
0.638312
0.638183
0.638001
0.637754
0.637588
0.637474
0.637382
0.637386
0.637536
0.637639
0.637569
0.637438
0.637251
0.636938
0.636676
0.636535
0.636427
0.636346
0.63638
0.636578
0.636704
0.636642
0.636515
0.636338
0.636045
0.635776
0.635632
0.635521
0.635432
0.635441
0.635599
0.635708
0.635642
0.635514
0.635336
0.635056
0.634833
0.634702
0.634597
0.634526
0.634578
0.634745
0.634769
0.634667
0.634525
0.634308
0.634034
0.63387
0.633756
0.633659
0.633643
0.633766
0.633881
0.633821
0.633696
0.633524
0.633258
0.633047
0.632919
0.632815
0.632748
0.632804
0.63295
0.632942
0.632831
0.632683
0.632454
0.632221
0.632083
0.631975
0.631892
0.631916
0.632054
0.632073
0.631971
0.631831
0.631619
0.631383
0.63124
0.631131
0.631044
0.631054
0.631177
0.631195
0.631093
0.630953
0.630746
0.630532
0.630399
0.630294
0.630219
0.630257
0.630375
0.630349
0.630234
0.630082
0.629847
0.629639
0.629511
0.629408
0.629339
0.629391
0.629528
0.629515
0.629403
0.629257
0.629035
0.628813
0.628678
0.628569
0.628477
0.628468
0.628566
0.628579
0.628478
0.628345
0.628177
0.62804
0.62793
0.627839
0.62783
0.62781
0.627701
0.627561
0.627396
0.627271
0.62717
0.627121
0.627188
0.627242
0.627159
0.627029
0.626845
0.626622
0.626478
0.626367
0.626273
0.626253
0.626336
0.62634
0.626237
0.626103
0.62595
0.625828
0.625728
0.625677
0.625732
0.625732
0.625625
0.625481
0.625249
0.624975
0.62482
0.624706
0.624608
0.624566
0.624668
0.624897
0.624939
0.624845
0.62471
0.624506
0.624143
0.62382
0.623664
0.623551
0.623453
0.623411
0.623514
0.623798
0.623913
0.623847
0.623724
0.623559
0.623284
0.622987
0.622828
0.622711
0.622607
0.622523
0.622533
0.622653
0.622676
0.62258
0.622451
0.622286
0.622143
0.622031
0.621935
0.621902
0.621909
0.62182
0.621692
0.621528
0.621389
0.621284
0.621202
0.621223
0.62131
0.621264
0.621146
0.620988
0.620762
0.620593
0.620478
0.620383
0.620352
0.620448
0.620527
0.620454
0.620329
0.620153
0.619899
0.619722
0.619606
0.619509
0.619468
0.619562
0.619714
0.619688
0.619576
0.619427
0.619185
0.618896
0.618736
0.618622
0.618524
0.61847
0.618544
0.618702
0.618697
0.618591
0.618459
0.618295
0.618165
0.618062
0.617985
0.61801
0.618064
0.617988
0.617858
0.61766
0.617278
0.616861
0.616674
0.616557
0.61646
0.616418
0.616524
0.61693
0.617315
0.617355
0.617264
0.617133
0.616938
0.616569
0.616064
0.615818
0.615686
0.615577
0.615484
0.61545
0.615567
0.615869
0.615983
0.615917
0.615797
0.615633
0.615351
0.615022
0.614851
0.614735
0.614636
0.614569
0.614621
0.614812
0.614874
0.614791
0.614665
0.614485
0.614206
0.614
0.613876
0.613775
0.613696
0.613723
0.613875
0.613915
0.613824
0.613695
0.613505
0.61324
0.613071
0.612957
0.612861
0.612815
0.6129
0.613053
0.61303
0.612921
0.612777
0.612543
0.61226
0.612102
0.61199
0.611896
0.61186
0.611964
0.612146
0.612138
0.612032
0.611894
0.611675
0.611381
0.611209
0.611095
0.610998
0.610943
0.611016
0.611194
0.611205
0.611105
0.610972
0.610763
0.610462
0.610274
0.610156
0.610059
0.609998
0.610065
0.610277
0.610342
0.61026
0.610134
0.609952
0.609629
0.609329
0.609182
0.609073
0.608981
0.608954
0.609082
0.609362
0.609431
0.60935
0.609226
0.609048
0.608725
0.608352
0.608171
0.608055
0.607954
0.607876
0.607898
0.608104
0.608328
0.608318
0.608214
0.608081
0.607878
0.607563
0.607346
0.607221
0.607113
0.607019
0.606962
0.607021
0.60714
0.607108
0.607
0.606866
0.606695
0.606558
0.606449
0.606354
0.606305
0.606307
0.606226
0.606107
0.605963
0.605837
0.605737
0.605664
0.605696
0.605801
0.605765
0.605654
0.605506
0.605267
0.605023
0.604888
0.604783
0.604694
0.60468
0.604806
0.604917
0.60486
0.604746
0.604595
0.604366
0.604171
0.604051
0.60395
0.60387
0.603879
0.603982
0.603966
0.603861
0.603725
0.603515
0.603297
0.603169
0.603067
0.602984
0.602993
0.603144
0.603231
0.603161
0.603043
0.602882
0.602622
0.602398
0.602271
0.602167
0.602077
0.602055
0.602166
0.602285
0.602235
0.602125
0.601983
0.60177
0.601559
0.60143
0.601322
0.601219
0.60113
0.601094
0.601136
0.601103
0.601002
0.600902
0.600828
0.600854
0.600867
0.600773
0.600642
0.600431
0.600127
0.599947
0.599834
0.599739
0.599688
0.599771
0.600023
0.600114
0.600043
0.599925
0.599763
0.599481
0.599164
0.599004
0.598893
0.598797
0.59873
0.598775
0.598956
0.599012
0.59893
0.598809
0.598639
0.598369
0.598164
0.598045
0.597947
0.597872
0.597902
0.598102
0.59824
0.598189
0.598077
0.597925
0.597663
0.597267
0.597044
0.596922
0.596821
0.596738
0.596738
0.596916
0.597201
0.597237
0.597149
0.597027
0.596848
0.596521
0.596163
0.595993
0.59588
0.595783
0.595705
0.595722
0.595916
0.596123
0.596106
0.596004
0.595875
0.595677
0.595394
0.595214
0.5951
0.595001
0.594918
0.594917
0.595014
0.595007
0.594906
0.594774
0.594565
0.594284
0.594121
0.594013
0.593921
0.59388
0.59398
0.59428
0.59441
0.594352
0.59424
0.594088
0.593826
0.593395
0.593133
0.593002
0.592897
0.592805
0.592752
0.592826
0.593087
0.593221
0.593168
0.593059
0.592917
0.592688
0.592393
0.592228
0.592117
0.592018
0.591935
0.591929
0.592043
0.592089
0.592007
0.59189
0.59173
0.591526
0.59139
0.591286
0.591196
0.591161
0.591242
0.591298
0.591222
0.591104
0.59094
0.590684
0.590495
0.590381
0.590285
0.590215
0.590252
0.590447
0.590541
0.590474
0.590361
0.590206
0.589936
0.589607
0.589441
0.58933
0.589234
0.589159
0.58918
0.589362
0.589491
0.58944
0.589332
0.589192
0.588967
0.58871
0.588568
0.588462
0.58837
0.588311
0.588367
0.588515
0.58851
0.588412
0.588287
0.588096
0.587827
0.58766
0.58755
0.587455
0.587384
0.587414
0.58758
0.587637
0.587559
0.587444
0.587286
0.587037
0.586835
0.586716
0.586616
0.58653
0.586506
0.586606
0.586681
0.586613
0.586501
0.586354
0.586129
0.585946
0.585832
0.585734
0.585652
0.585646
0.585757
0.585795
0.585713
0.585597
0.58544
0.585231
0.585089
0.584984
0.58489
0.584819
0.58484
0.584897
0.584835
0.584726
0.584587
0.584418
0.584295
0.584194
0.584107
0.584075
0.584143
0.584147
0.584054
0.583936
0.583776
0.583618
0.583507
0.583408
0.583323
0.583299
0.583324
0.583256
0.583148
0.583024
0.582911
0.582814
0.582733
0.582726
0.582705
0.582608
0.582487
0.582331
0.582204
0.582104
0.582018
0.581996
0.582073
0.58207
0.581975
0.581854
0.581676
0.581483
0.581362
0.581263
0.581178
0.581155
0.58125
0.5813
0.581224
0.581112
0.580963
0.580761
0.580617
0.580511
0.580418
0.580346
0.580364
0.580461
0.580436
0.580337
0.580217
0.580049
0.579862
0.579738
0.579635
0.579534
0.579432
0.579331
0.57923
0.579135
0.579058
0.579056
0.579202
0.579334
0.579288
0.579184
0.579051
0.578834
0.578493
0.578283
0.578166
0.578068
0.577983
0.577956
0.578074
0.578309
0.578338
0.578253
0.578138
0.577978
0.577699
0.57743
0.577293
0.577189
0.577097
0.577025
0.577045
0.577203
0.577273
0.577202
0.577093
0.576951
0.576738
0.576563
0.576452
0.576355
0.576272
0.576249
0.576321
0.576309
0.576212
0.576089
0.575898
0.575642
0.575491
0.575386
0.575297
0.57524
0.575302
0.575518
0.575591
0.575519
0.575409
0.575261
0.575002
0.574703
0.574552
0.574448
0.574356
0.574289
0.574323
0.574545
0.574728
0.574697
0.574598
0.574471
0.57427
0.573886
0.573525
0.573368
0.573261
0.573165
0.573083
0.573061
0.573193
0.573524
0.573643
0.573587
0.573483
0.57335
0.573137
0.572781
0.572543
0.572419
0.572319
0.572226
0.572151
0.572158
0.572308
0.572409
0.572351
0.572247
0.572117
0.571917
0.571711
0.571589
0.571489
0.571399
0.571334
0.571361
0.571433
0.571382
0.571279
0.571152
0.57098
0.570845
0.570743
0.570654
0.570594
0.570634
0.570703
0.570645
0.570541
0.570406
0.570193
0.569989
0.569871
0.569772
0.569684
0.569629
0.569678
0.569766
0.569719
0.569619
0.569496
0.569341
0.569217
0.569118
0.569029
0.56897
0.569003
0.569017
0.568933
0.568823
0.568674
0.568503
0.568387
0.568289
0.568202
0.568152
0.568189
0.568171
0.568077
0.567963
0.567821
0.567704
0.567608
0.567524
0.567499
0.567578
0.567589
0.567501
0.567388
0.567224
0.566986
0.566828
0.566724
0.566631
0.566556
0.566559
0.566676
0.566696
0.566612
0.566501
0.566347
0.566129
0.565981
0.565879
0.565788
0.565723
0.565754
0.565915
0.565955
0.565875
0.565765
0.565612
0.565337
0.565031
0.564882
0.564779
0.564688
0.564614
0.56462
0.5648
0.565022
0.565017
0.564927
0.564814
0.564654
0.564369
0.564093
0.563956
0.563855
0.563761
0.56368
0.563653
0.563749
0.563854
0.563806
0.563707
0.563586
0.563412
0.563249
0.563142
0.563048
0.562966
0.562939
0.563014
0.563027
0.562941
0.56283
0.562672
0.562427
0.56225
0.562142
0.562049
0.561968
0.561946
0.562055
0.562174
0.56213
0.562032
0.561911
0.56173
0.561514
0.561385
0.561286
0.561196
0.561122
0.561124
0.561222
0.561217
0.561126
0.561017
0.560864
0.560678
0.560556
0.560458
0.560368
0.560295
0.560297
0.560342
0.560284
0.560184
0.560064
0.559933
0.55983
0.559738
0.559661
0.55965
0.559681
0.559615
0.559512
0.559381
0.5592
0.559066
0.558967
0.558879
0.558813
0.558836
0.558909
0.558862
0.558763
0.558642
0.558468
0.558313
0.55821
0.558118
0.558041
0.55803
0.558119
0.55812
0.558032
0.557921
0.557763
0.557537
0.557387
0.557286
0.557196
0.557123
0.55713
0.55727
0.557333
0.557264
0.557161
0.557028
0.556807
0.556563
0.556432
0.556334
0.556245
0.556173
0.556182
0.556323
0.556386
0.556318
0.556216
0.556086
0.555877
0.555659
0.555537
0.55544
0.555352
0.555283
0.555296
0.555423
0.555445
0.555364
0.555259
0.555121
0.554914
0.554753
0.554648
0.554554
0.55447
0.554415
0.554453
0.554491
0.554421
0.55432
0.554196
0.554051
0.553944
0.553851
0.553768
0.553725
0.553771
0.553758
0.553668
0.553559
0.553404
0.55322
0.553101
0.553006
0.552919
0.552854
0.552872
0.552927
0.55287
0.552772
0.552654
0.55251
0.552398
0.552305
0.552221
0.552174
0.552226
0.552257
0.552183
0.55208
0.551948
0.551773
0.551647
0.551551
0.551464
0.551399
0.551417
0.551462
0.551399
0.551298
0.551166
0.55094
0.550639
0.550481
0.550379
0.550287
0.550208
0.550179
0.550288
0.5506
0.550723
0.550671
0.550574
0.550455
0.550269
0.549924
0.549631
0.549498
0.5494
0.54931
0.549233
0.549211
0.549334
0.549579
0.549612
0.549535
0.549433
0.549298
0.549063
0.548714
0.548524
0.548416
0.548323
0.548238
0.548178
0.548214
0.54842
0.54854
0.548491
0.548395
0.548279
0.548102
0.54781
0.547607
0.547496
0.547402
0.547316
0.547248
0.547262
0.547424
0.547522
0.547466
0.54737
0.547254
0.547076
0.546792
0.546599
0.546489
0.546395
0.546302
0.546211
0.546131
0.546081
0.546137
0.546355
0.546443
0.546383
0.546286
0.546168
0.545983
0.54568
0.545476
0.545365
0.545271
0.545185
0.545115
0.545118
0.545259
0.545346
0.545288
0.545192
0.545074
0.54489
0.544638
0.54449
0.544392
0.544301
0.544222
0.544185
0.544265
0.544389
0.544356
0.544265
0.544157
0.544
0.543774
0.543623
0.543524
0.543434
0.543353
0.54331
0.543371
0.543441
0.543384
0.543289
0.543173
0.543002
0.542843
0.54274
0.54265
0.542572
0.542541
0.542632
0.54274
0.542696
0.542602
0.542486
0.542304
0.541954
0.541648
0.541512
0.541415
0.541326
0.541248
0.541213
0.541306
0.541644
0.541851
0.541826
0.541738
0.541632
0.541483
0.541204
0.540792
0.540585
0.540474
0.540382
0.540294
0.540221
0.540206
0.540339
0.540588
0.540618
0.540543
0.540445
0.54032
0.540117
0.539837
0.53968
0.53958
0.539489
0.539405
0.53934
0.539355
0.539456
0.539441
0.539354
0.539251
0.539108
0.538896
0.538746
0.538647
0.538558
0.538481
0.538448
0.538533
0.538636
0.538591
0.538499
0.538388
0.538221
0.537972
0.537814
0.537715
0.537626
0.537547
0.53751
0.53759
0.537759
0.537756
0.537673
0.537572
0.537435
0.537197
0.536951
0.536826
0.536732
0.536645
0.53657
0.536551
0.536662
0.536789
0.536752
0.536662
0.536556
0.536401
0.536153
0.535973
0.535869
0.535778
0.535697
0.535639
0.535674
0.535834
0.535866
0.535792
0.535694
0.535569
0.53536
0.535086
0.53494
0.534843
0.534754
0.534675
0.534629
0.534692
0.534862
0.534874
0.534795
0.534697
0.534571
0.534366
0.534156
0.53404
0.533949
0.533862
0.533788
0.533766
0.533852
0.533888
0.533818
0.533721
0.533602
0.533412
0.533223
0.533113
0.533023
0.53294
0.532876
0.532893
0.533027
0.533055
0.53298
0.532884
0.532761
0.532558
0.532328
0.532205
0.532112
0.532026
0.531951
0.531927
0.532026
0.532143
0.532104
0.532015
0.53191
0.531762
0.531521
0.531341
0.531237
0.531148
0.531063
0.530992
0.53098
0.531089
0.531151
0.53109
0.530997
0.530889
0.530734
0.530564
0.530456
0.530365
0.530278
0.530199
0.53015
0.530164
0.530119
0.530031
0.52993
0.529813
0.529715
0.529627
0.529548
0.5295
0.529551
0.529645
0.529605
0.529517
0.529414
0.52927
0.529025
0.528815
0.528702
0.528611
0.528522
0.528434
0.528346
0.528259
0.528179
0.528119
0.52814
0.528317
0.52843
0.528382
0.528293
0.528189
0.528041
0.527778
0.527535
0.527415
0.527323
0.527236
0.527159
0.527113
0.527171
0.52731
0.527299
0.527217
0.52712
0.526994
0.526799
0.526632
0.526531
0.526442
0.526361
0.526295
0.5263
0.526395
0.526386
0.526304
0.526207
0.526078
0.525877
0.525712
0.525612
0.525524
0.525443
0.525384
0.525407
0.525531
0.525535
0.525457
0.525361
0.52524
0.525044
0.524853
0.524745
0.524656
0.524572
0.5245
0.52448
0.524572
0.524619
0.524554
0.524463
0.524354
0.524191
0.524006
0.523895
0.523806
0.523721
0.523646
0.523612
0.523672
0.523692
0.523619
0.523527
0.523414
0.523247
0.523098
0.523001
0.522914
0.522833
0.522768
0.522774
0.522848
0.522818
0.522733
0.522637
0.522513
0.522365
0.522261
0.522173
0.522088
0.522011
0.521967
0.521971
0.521915
0.521827
0.52173
0.521629
0.52154
0.521455
0.52138
0.521345
0.521337
0.521265
0.521175
0.521068
0.520933
0.520826
0.520738
0.520656
0.520585
0.520566
0.520616
0.520581
0.520496
0.520401
0.520287
0.520184
0.520097
0.520012
0.519935
0.519888
0.519843
0.519763
0.519676
0.519586
0.519498
0.519412
0.519328
0.519251
0.519182
0.519102
0.519016
0.518929
0.518842
0.518757
0.518676
0.518608
0.518599
0.518703
0.518742
0.518675
0.518584
0.518473
0.518297
0.518019
0.517847
0.517748
0.517661
0.517581
0.517515
0.517512
0.51765
0.517764
0.517721
0.517636
0.517539
0.517407
0.517192
0.517005
0.516901
0.516814
0.516729
0.516652
0.516598
0.516626
0.516692
0.516646
0.516561
0.516464
0.516338
0.5162
0.516103
0.516017
0.515936
0.515867
0.515852
0.515884
0.515831
0.515744
0.515645
0.515511
0.515373
0.515278
0.515193
0.515114
0.515051
0.515055
0.515094
0.515038
0.514951
0.514851
0.514714
0.514579
0.514486
0.514401
0.514323
0.514267
0.514291
0.514377
0.514345
0.514262