/*--------------------------------*- C++ -*----------------------------------*\
  =========                 |
  \\      /  F ield         | OpenFOAM: The Open Source CFD Toolbox
   \\    /   O peration     | Website:  https://openfoam.org
    \\  /    A nd           | Version:  9
     \\/     M anipulation  |
\*---------------------------------------------------------------------------*/
FoamFile
{
    format      ascii;
    class       volScalarField;
    location    "0.018";
    object      T;
}
// * * * * * * * * * * * * * * * * * * * * * * * * * * * * * * * * * * * * * //

dimensions      [0 0 0 1 0 0 0];

internalField   nonuniform List<scalar> 
10000
(
319.603
319.58
319.52
319.42
319.344
319.3
319.275
319.26
319.253
319.249
319.245
319.243
319.243
319.242
319.239
319.233
319.221
319.192
319.15
319.118
319.097
319.087
319.08
319.074
319.07
319.07
319.07
319.067
319.062
319.052
319.034
318.989
318.921
318.869
318.835
318.817
318.81
318.804
318.796
318.791
318.788
318.789
318.788
318.783
318.772
318.752
318.706
318.644
318.604
318.577
318.554
318.54
318.532
318.534
318.532
318.524
318.516
318.513
318.515
318.518
318.515
318.505
318.473
318.416
318.366
318.336
318.313
318.3
318.295
318.296
318.291
318.278
318.258
318.233
318.212
318.197
318.179
318.155
318.132
318.113
318.102
318.093
318.075
318.051
318.03
318.013
318.007
318.003
317.983
317.958
317.933
317.913
317.903
317.904
317.891
317.864
317.837
317.815
317.801
317.805
317.796
317.771
317.742
317.717
317.698
317.687
317.673
317.652
317.633
317.62
317.623
317.614
317.587
317.556
317.531
317.512
317.511
317.514
317.493
317.463
317.434
317.412
317.405
317.412
317.4
317.373
317.339
317.313
317.294
317.295
317.301
317.284
317.254
317.217
317.186
317.163
317.146
317.149
317.155
317.143
317.119
317.097
317.083
317.066
317.04
317.014
316.992
316.983
316.99
316.979
316.952
316.921
316.898
316.887
316.892
316.878
316.849
316.819
316.796
316.783
316.788
316.785
316.761
316.736
316.716
316.702
316.679
316.653
316.629
316.613
316.617
316.618
316.596
316.565
316.536
316.514
316.508
316.514
316.498
316.469
316.437
316.413
316.4
316.407
316.406
316.382
316.347
316.305
316.276
316.255
316.254
316.269
316.275
316.254
316.223
316.187
316.16
316.14
316.136
316.138
316.12
316.092
316.069
316.058
316.059
316.04
316.011
315.983
315.962
315.958
315.96
315.94
315.909
315.881
315.86
315.857
315.867
315.856
315.827
315.786
315.746
315.721
315.704
315.71
315.728
315.727
315.702
315.668
315.629
315.603
315.582
315.58
315.589
315.578
315.55
315.518
315.493
315.474
315.476
315.477
315.454
315.423
315.395
315.373
315.368
315.357
315.33
315.296
315.268
315.247
315.249
315.267
315.272
315.25
315.216
315.174
315.142
315.12
315.112
315.123
315.127
315.105
315.073
315.038
315.014
314.999
315.006
315.016
315
314.969
314.929
314.897
314.875
314.867
314.878
314.886
314.866
314.835
314.797
314.768
314.747
314.741
314.751
314.744
314.718
314.687
314.66
314.64
314.639
314.639
314.618
314.589
314.563
314.544
314.534
314.512
314.483
314.453
314.43
314.42
314.434
314.452
314.441
314.413
314.371
314.325
314.297
314.276
314.276
314.296
314.309
314.292
314.262
314.218
314.18
314.156
314.138
314.144
314.16
314.153
314.127
314.09
314.054
314.03
314.013
314.018
314.03
314.017
313.988
313.953
313.923
313.901
313.892
313.899
313.89
313.864
313.835
313.812
313.798
313.801
313.786
313.758
313.729
313.705
313.693
313.685
313.662
313.632
313.605
313.585
313.586
313.604
313.609
313.587
313.554
313.509
313.475
313.452
313.439
313.447
313.459
313.446
313.418
313.385
313.36
313.341
313.341
313.343
313.322
313.29
313.255
313.232
313.217
313.225
313.236
313.221
313.192
313.153
313.12
313.098
313.086
313.094
313.098
313.078
313.048
313.016
312.992
312.976
312.98
312.977
312.954
312.925
312.898
312.874
312.855
312.834
312.812
312.793
312.793
312.811
312.82
312.8
312.768
312.718
312.669
312.641
312.62
312.617
312.641
312.668
312.663
312.637
312.6
312.55
312.513
312.49
312.474
312.481
312.5
312.496
312.471
312.437
312.399
312.374
312.354
312.354
312.364
312.352
312.325
312.288
312.254
312.23
312.212
312.213
312.203
312.178
312.155
312.139
312.147
312.168
312.162
312.135
312.096
312.039
312
311.977
311.96
311.97
312
312.015
311.998
311.968
311.924
311.876
311.846
311.824
311.814
311.826
311.841
311.829
311.802
311.768
311.738
311.715
311.703
311.708
311.697
311.671
311.642
311.619
311.607
311.611
311.595
311.566
311.529
311.501
311.479
311.467
311.471
311.466
311.449
311.434
311.436
311.449
311.441
311.414
311.372
311.307
311.257
311.229
311.207
311.198
311.216
311.259
311.279
311.265
311.236
311.193
311.136
311.098
311.075
311.057
311.063
311.088
311.099
311.081
311.05
311.005
310.962
310.935
310.915
310.912
310.929
310.939
310.922
310.893
310.855
310.824
310.802
310.788
310.791
310.777
310.75
310.717
310.69
310.669
310.664
310.673
310.668
310.644
310.622
310.61
310.61
310.59
310.559
310.518
310.489
310.468
310.466
310.485
310.497
310.479
310.449
310.406
310.365
310.34
310.32
310.32
310.334
310.332
310.308
310.276
310.246
310.224
310.217
310.23
310.238
310.219
310.187
310.138
310.094
310.069
310.05
310.052
310.077
310.094
310.079
310.05
310.006
309.951
309.916
309.892
309.874
309.876
309.895
309.9
309.879
309.851
309.826
309.806
309.804
309.807
309.785
309.752
309.704
309.667
309.644
309.632
309.646
309.683
309.695
309.677
309.646
309.597
309.536
309.501
309.478
309.463
309.473
309.507
309.525
309.51
309.481
309.437
309.381
309.346
309.323
309.306
309.314
309.339
309.348
309.329
309.299
309.258
309.221
309.196
309.176
309.172
309.179
309.163
309.135
309.099
309.071
309.05
309.044
309.059
309.074
309.062
309.035
309.002
308.964
308.934
308.909
308.885
308.864
308.852
308.865
308.901
308.916
308.899
308.869
308.821
308.751
308.705
308.679
308.659
308.658
308.686
308.725
308.728
308.705
308.673
308.621
308.568
308.538
308.517
308.507
308.523
308.554
308.557
308.535
308.503
308.45
308.388
308.352
308.327
308.307
308.301
308.323
308.367
308.38
308.363
308.333
308.287
308.224
308.186
308.162
308.144
308.149
308.183
308.215
308.209
308.184
308.147
308.085
308.029
307.999
307.978
307.967
307.983
308.02
308.032
308.014
307.984
307.938
307.885
307.853
307.831
307.819
307.831
307.858
307.857
307.833
307.799
307.742
307.686
307.654
307.632
307.617
307.628
307.67
307.705
307.7
307.675
307.639
307.581
307.524
307.494
307.472
307.46
307.475
307.515
307.534
307.519
307.49
307.446
307.378
307.329
307.302
307.282
307.277
307.301
307.341
307.349
307.329
307.298
307.249
307.193
307.161
307.14
307.126
307.139
307.169
307.174
307.153
307.121
307.067
307
306.962
306.939
306.92
306.921
306.955
307.004
307.013
306.994
306.964
306.916
306.85
306.811
306.787
306.768
306.769
306.799
306.831
306.826
306.801
306.765
306.706
306.649
306.619
306.598
306.587
306.603
306.644
306.66
306.644
306.615
306.571
306.51
306.472
306.448
306.43
306.432
306.457
306.471
306.455
306.426
306.38
306.319
306.281
306.258
306.241
306.247
306.288
306.334
306.337
306.315
306.283
306.229
306.156
306.114
306.089
306.069
306.065
306.09
306.13
306.135
306.115
306.083
306.033
305.976
305.943
305.921
305.905
305.914
305.946
305.962
305.946
305.918
305.876
305.823
305.789
305.767
305.749
305.752
305.769
305.764
305.74
305.707
305.669
305.644
305.625
305.627
305.654
305.675
305.662
305.636
305.596
305.535
305.488
305.461
305.438
305.419
305.419
305.445
305.477
305.475
305.451
305.419
305.368
305.324
305.298
305.278
305.272
305.288
305.302
305.287
305.259
305.217
305.167
305.137
305.116
305.106
305.123
305.165
305.181
305.166
305.138
305.098
305.039
304.994
304.967
304.943
304.92
304.901
304.896
304.917
304.95
304.952
304.93
304.899
304.851
304.804
304.777
304.756
304.747
304.76
304.776
304.763
304.736
304.696
304.647
304.617
304.596
304.586
304.605
304.649
304.665
304.649
304.62
304.577
304.505
304.446
304.416
304.392
304.373
304.367
304.39
304.446
304.473
304.463
304.437
304.399
304.333
304.263
304.228
304.205
304.187
304.19
304.223
304.26
304.258
304.235
304.202
304.145
304.079
304.044
304.021
304.004
304.008
304.048
304.099
304.108
304.089
304.059
304.014
303.941
303.885
303.855
303.831
303.81
303.794
303.799
303.834
303.873
303.872
303.85
303.818
303.766
303.707
303.674
303.651
303.634
303.64
303.675
303.709
303.704
303.68
303.646
303.591
303.521
303.481
303.456
303.432
303.412
303.397
303.406
303.45
303.503
303.511
303.492
303.462
303.415
303.332
303.258
303.224
303.201
303.181
303.178
303.205
303.27
303.302
303.294
303.269
303.232
303.17
303.1
303.065
303.042
303.023
303.025
303.058
303.096
303.094
303.071
303.037
302.979
302.897
302.852
302.826
302.807
302.802
302.828
302.892
302.923
302.914
302.889
302.852
302.785
302.71
302.672
302.649
302.631
302.632
302.669
302.734
302.753
302.739
302.712
302.67
302.592
302.504
302.462
302.437
302.417
302.409
302.43
302.485
302.515
302.506
302.481
302.446
302.39
302.341
302.314
302.293
302.28
302.29
302.315
302.312
302.29
302.258
302.212
302.176
302.154
302.136
302.141
302.166
302.175
302.156
302.127
302.083
302.035
302.006
301.985
301.973
301.983
302.001
301.992
301.968
301.933
301.893
301.867
301.847
301.842
301.861
301.877
301.862
301.835
301.793
301.737
301.703
301.681
301.665
301.674
301.713
301.741
301.732
301.706
301.669
301.605
301.543
301.512
301.491
301.475
301.483
301.524
301.559
301.553
301.53
301.496
301.44
301.379
301.346
301.323
301.305
301.303
301.324
301.341
301.327
301.301
301.265
301.23
301.206
301.188
301.188
301.207
301.209
301.188
301.157
301.112
301.074
301.052
301.034
301.037
301.066
301.082
301.067
301.04
300.998
300.933
300.89
300.865
300.845
300.841
300.867
300.913
300.923
300.904
300.876
300.831
300.765
300.723
300.698
300.679
300.671
300.687
300.711
300.705
300.681
300.647
300.597
300.561
300.538
300.521
300.525
300.556
300.579
300.568
300.542
300.504
300.444
300.397
300.371
300.352
300.344
300.364
300.404
300.411
300.391
300.362
300.315
300.251
300.213
300.19
300.172
300.171
300.2
300.237
300.237
300.215
300.184
300.132
300.069
300.034
300.011
299.992
299.987
300.007
300.03
300.021
299.996
299.964
299.927
299.902
299.883
299.879
299.895
299.901
299.882
299.853
299.806
299.754
299.725
299.705
299.693
299.707
299.746
299.758
299.741
299.713
299.671
299.612
299.576
299.553
299.535
299.536
299.565
299.594
299.587
299.563
299.529
299.472
299.42
299.392
299.372
299.36
299.375
299.412
299.423
299.405
299.376
299.33
299.252
299.197
299.17
299.15
299.139
299.155
299.215
299.266
299.267
299.246
299.215
299.164
299.081
299.025
298.997
298.976
298.96
298.967
299.007
299.042
299.038
299.015
298.983
298.931
298.879
298.85
298.83
298.816
298.826
298.863
298.88
298.865
298.838
298.798
298.732
298.682
298.656
298.636
298.623
298.636
298.669
298.676
298.656
298.628
298.582
298.525
298.493
298.472
298.456
298.463
298.504
298.54
298.535
298.511
298.478
298.421
298.35
298.312
298.289
298.27
298.267
298.295
298.344
298.353
298.335
298.307
298.263
298.194
298.147
298.121
298.101
298.09
298.105
298.148
298.166
298.152
298.126
298.087
298.026
297.98
297.954
297.934
297.923
297.937
297.974
297.984
297.967
297.94
297.899
297.844
297.811
297.789
297.771
297.771
297.796
297.813
297.799
297.773
297.735
297.678
297.637
297.613
297.593
297.58
297.59
297.613
297.611
297.59
297.562
297.534
297.512
297.495
297.496
297.501
297.483
297.456
297.416
297.379
297.356
297.339
297.341
297.372
297.395
297.384
297.359
297.321
297.256
297.194
297.163
297.142
297.127
297.134
297.178
297.227
297.23
297.21
297.181
297.134
297.059
297.01
296.984
296.963
296.948
296.954
296.984
296.995
296.978
296.952
296.911
296.86
296.83
296.809
296.794
296.803
296.844
296.872
296.863
296.838
296.803
296.741
296.673
296.64
296.618
296.6
296.6
296.632
296.68
296.686
296.667
296.639
296.594
296.522
296.474
296.448
296.428
296.416
296.428
296.473
296.499
296.488
296.464
296.429
296.368
296.304
296.272
296.25
296.232
296.228
296.254
296.296
296.301
296.281
296.254
296.213
296.163
296.133
296.111
296.092
296.085
296.097
296.098
296.077
296.05
296.017
295.992
295.973
295.968
295.986
295.998
295.983
295.957
295.917
295.864
295.831
295.809
295.791
295.789
295.809
295.818
295.8
295.774
295.735
295.696
295.671
295.652
295.646
295.665
295.692
295.685
295.662
295.629
295.575
295.528
295.501
295.482
295.471
295.487
295.532
295.55
295.535
295.509
295.47
295.399
295.333
295.301
295.28
295.262
295.263
295.297
295.346
295.35
295.331
295.303
295.257
295.18
295.127
295.1
295.08
295.067
295.078
295.132
295.189
295.193
295.174
295.146
295.101
295.017
294.945
294.912
294.89
294.872
294.867
294.893
294.952
294.974
294.962
294.937
294.902
294.84
294.778
294.747
294.725
294.707
294.705
294.732
294.766
294.763
294.741
294.711
294.661
294.598
294.564
294.542
294.524
294.522
294.551
294.596
294.6
294.581
294.554
294.51
294.443
294.399
294.375
294.355
294.342
294.354
294.392
294.407
294.392
294.366
294.329
294.275
294.237
294.214
294.195
294.186
294.202
294.231
294.228
294.206
294.177
294.132
294.087
294.06
294.04
294.025
294.03
294.053
294.054
294.033
294.005
293.964
293.927
293.903
293.885
293.876
293.894
293.927
293.928
293.907
293.88
293.836
293.775
293.737
293.712
293.691
293.671
293.656
293.661
293.689
293.702
293.686
293.661
293.626
293.584
293.557
293.537
293.524
293.532
293.558
293.558
293.538
293.509
293.46
293.402
293.369
293.348
293.331
293.332
293.365
293.406
293.406
293.385
293.357
293.31
293.244
293.205
293.182
293.163
293.152
293.167
293.206
293.215
293.197
293.171
293.132
293.074
293.037
293.014
292.995
292.988
293.007
293.041
293.042
293.021
292.993
292.948
292.893
292.862
292.841
292.823
292.824
292.854
292.883
292.876
292.853
292.821
292.765
292.692
292.653
292.63
292.611
292.601
292.618
292.675
292.713
292.708
292.686
292.657
292.611
292.544
292.504
292.479
292.458
292.439
292.428
292.436
292.447
292.434
292.411
292.385
292.364
292.348
292.35
292.368
292.364
292.342
292.311
292.26
292.212
292.185
292.166
292.152
292.162
292.199
292.216
292.202
292.177
292.142
292.086
292.042
292.018
291.998
291.984
291.993
292.024
292.032
292.014
291.989
291.951
291.901
291.871
291.849
291.831
291.828
291.849
291.867
291.854
291.83
291.798
291.755
291.726
291.705
291.688
291.687
291.704
291.701
291.679
291.65
291.602
291.557
291.532
291.513
291.502
291.516
291.565
291.588
291.576
291.553
291.519
291.459
291.391
291.357
291.335
291.316
291.305
291.319
291.356
291.366
291.349
291.324
291.288
291.237
291.204
291.182
291.164
291.156
291.171
291.187
291.175
291.151
291.118
291.073
291.042
291.021
291.005
291.005
291.033
291.052
291.039
291.015
290.981
290.923
290.876
290.85
290.83
290.815
290.821
290.858
290.881
290.869
290.846
290.814
290.76
290.711
290.685
290.664
290.648
290.65
290.679
290.699
290.686
290.663
290.63
290.579
290.538
290.514
290.495
290.482
290.492
290.522
290.527
290.508
290.482
290.442
290.392
290.362
290.341
290.323
290.32
290.343
290.364
290.353
290.33
290.298
290.25
290.211
290.187
290.168
290.156
290.166
290.193
290.192
290.171
290.144
290.102
290.059
290.034
290.014
289.999
290.003
290.029
290.032
290.013
289.988
289.949
289.905
289.879
289.859
289.843
289.845
289.867
289.871
289.852
289.826
289.788
289.749
289.725
289.705
289.691
289.698
289.72
289.715
289.694
289.666
289.623
289.585
289.561
289.542
289.53
289.539
289.564
289.562
289.541
289.514
289.473
289.433
289.408
289.388
289.371
289.369
289.387
289.389
289.371
289.346
289.315
289.29
289.27
289.253
289.251
289.248
289.228
289.202
289.171
289.148
289.13
289.121
289.133
289.143
289.128
289.104
289.07
289.029
289.002
288.981
288.964
288.96
288.976
288.976
288.957
288.933
288.904
288.882
288.863
288.854
288.864
288.864
288.844
288.818
288.775
288.724
288.696
288.674
288.656
288.649
288.668
288.71
288.718
288.7
288.675
288.638
288.57
288.511
288.482
288.461
288.443
288.435
288.454
288.506
288.528
288.516
288.493
288.462
288.411
288.356
288.327
288.305
288.286
288.27
288.272
288.294
288.299
288.281
288.257
288.226
288.2
288.179
288.161
288.155
288.157
288.14
288.116
288.086
288.06
288.041
288.025
288.029
288.045
288.037
288.015
287.986
287.944
287.912
287.891
287.873
287.868
287.885
287.9
287.887
287.863
287.831
287.783
287.751
287.729
287.711
287.703
287.721
287.749
287.744
287.723
287.696
287.651
287.597
287.567
287.546
287.528
287.518
287.532
287.561
287.56
287.54
287.516
287.485
287.461
287.442
287.428
287.432
287.442
287.428
287.404
287.367
287.296
287.218
287.183
287.162
287.144
287.136
287.155
287.231
287.303
287.31
287.293
287.269
287.233
287.164
287.07
287.024
286.999
286.979
286.961
286.955
286.977
287.033
287.055
287.042
287.02
286.989
286.937
286.875
286.843
286.822
286.803
286.791
286.8
286.836
286.848
286.832
286.809
286.775
286.723
286.684
286.661
286.642
286.628
286.633
286.661
286.668
286.652
286.627
286.592
286.542
286.511
286.489
286.471
286.463
286.479
286.507
286.503
286.483
286.456
286.412
286.359
286.329
286.309
286.291
286.284
286.304
286.338
286.336
286.316
286.291
286.25
286.194
286.162
286.141
286.123
286.112
286.126
286.159
286.161
286.143
286.118
286.079
286.022
285.987
285.965
285.947
285.935
285.948
285.987
286
285.984
285.961
285.926
285.866
285.81
285.782
285.762
285.744
285.739
285.763
285.816
285.829
285.814
285.79
285.757
285.696
285.626
285.592
285.57
285.551
285.537
285.541
285.58
285.621
285.62
285.6
285.575
285.537
285.478
285.437
285.413
285.393
285.375
285.365
285.376
285.398
285.392
285.372
285.347
285.314
285.289
285.268
285.25
285.241
285.242
285.226
285.204
285.177
285.153
285.134
285.12
285.126
285.146
285.139
285.118
285.091
285.046
285
284.974
284.954
284.937
284.935
284.959
284.98
284.969
284.947
284.919
284.876
284.839
284.816
284.797
284.782
284.784
284.803
284.8
284.78
284.755
284.715
284.674
284.65
284.63
284.615
284.616
284.645
284.661
284.648
284.626
284.595
284.546
284.504
284.48
284.46
284.443
284.439
284.46
284.483
284.473
284.452
284.426
284.385
284.346
284.321
284.301
284.281
284.264
284.257
284.265
284.259
284.24
284.221
284.207
284.212
284.215
284.197
284.172
284.132
284.074
284.04
284.019
284.001
283.991
284.007
284.055
284.072
284.058
284.036
284.006
283.952
283.892
283.862
283.841
283.822
283.81
283.818
283.852
283.863
283.848
283.825
283.792
283.741
283.702
283.68
283.661
283.647
283.652
283.69
283.717
283.707
283.686
283.657
283.607
283.532
283.49
283.466
283.447
283.431
283.431
283.465
283.519
283.526
283.51
283.486
283.452
283.39
283.322
283.29
283.268
283.25
283.235
283.238
283.275
283.314
283.311
283.292
283.267
283.23
283.176
283.142
283.12
283.101
283.085
283.085
283.103
283.102
283.083
283.058
283.018
282.964
282.933
282.913
282.895
282.887
282.907
282.964
282.988
282.977
282.956
282.927
282.877
282.795
282.745
282.72
282.7
282.682
282.672
282.686
282.736
282.762
282.752
282.731
282.704
282.66
282.604
282.572
282.551
282.532
282.516
282.515
282.537
282.546
282.53
282.508
282.477
282.438
282.412
282.392
282.375
282.368
282.384
282.395
282.38
282.357
282.326
282.277
282.241
282.219
282.201
282.187
282.194
282.232
282.25
282.237
282.215
282.186
282.134
282.071
282.039
282.018
282
281.985
281.989
282.024
282.049
282.039
282.018
281.992
281.948
281.899
281.872
281.852
281.834
281.823
281.833
281.862
281.861
281.842
281.818
281.781
281.73
281.698
281.677
281.659
281.645
281.651
281.682
281.693
281.678
281.656
281.626
281.578
281.539
281.517
281.497
281.481
281.476
281.495
281.51
281.497
281.475
281.447
281.404
281.369
281.347
281.328
281.312
281.311
281.332
281.34
281.324
281.302
281.271
281.231
281.204
281.184
281.166
281.152
281.156
281.167
281.155
281.134
281.107
281.075
281.051
281.032
281.015
281.009
281.022
281.023
281.005
280.982
280.951
280.921
280.899
280.88
280.864
280.859
280.864
280.851
280.83
280.806
280.785
280.766
280.75
280.749
280.745
280.726
280.703
280.673
280.648
280.629
280.612
280.608
280.623
280.622
280.604
280.581
280.546
280.509
280.486
280.467
280.45
280.446
280.464
280.474
280.459
280.437
280.409
280.37
280.342
280.321
280.303
280.289
280.293
280.312
280.307
280.288
280.265
280.232
280.196
280.172
280.152
280.132
280.113
280.093
280.074
280.055
280.04
280.04
280.068
280.094
280.085
280.065
280.039
279.997
279.931
279.89
279.868
279.849
279.832
279.827
279.85
279.895
279.901
279.884
279.862
279.831
279.777
279.725
279.698
279.678
279.66
279.646
279.65
279.681
279.694
279.681
279.66
279.632
279.591
279.557
279.535
279.516
279.5
279.496
279.51
279.507
279.489
279.465
279.428
279.378
279.349
279.328
279.311
279.3
279.312
279.354
279.368
279.354
279.333
279.304
279.254
279.195
279.166
279.146
279.128
279.115
279.121
279.165
279.2
279.194
279.175
279.15
279.111
279.037
278.966
278.936
278.915
278.896
278.88
278.876
278.902
278.966
278.989
278.978
278.958
278.932
278.891
278.821
278.775
278.751
278.731
278.713
278.699
278.7
278.729
278.749
278.738
278.717
278.692
278.653
278.613
278.589
278.57
278.552
278.539
278.545
278.559
278.549
278.529
278.504
278.47
278.444
278.424
278.406
278.395
278.403
278.416
278.405
278.384
278.358
278.316
278.277
278.254
278.234
278.217
278.206
278.216
278.233
278.224
278.204
278.18
278.15
278.126
278.106
278.089
278.077
278.084
278.087
278.07
278.049
278.02
277.986
277.963
277.944
277.927
277.917
277.925
277.921
277.903
277.88
277.852
277.83
277.811
277.794
277.789
277.805
277.807
277.79
277.768
277.736
277.689
277.658
277.637
277.619
277.605
277.605
277.628
277.632
277.616
277.594
277.564
277.521
277.492
277.472
277.454
277.441
277.447
277.479
277.487
277.471
277.449
277.419
277.365
277.305
277.276
277.256
277.238
277.223
277.225
277.26
277.304
277.303
277.285
277.263
277.231
277.175
277.121
277.094
277.074
277.056
277.04
277.034
277.053
277.074
277.065
277.045
277.021
276.987
276.955
276.934
276.915
276.899
276.894
276.909
276.911
276.894
276.873
276.841
276.793
276.758
276.737
276.719
276.703
276.698
276.72
276.743
276.735
276.715
276.692
276.656
276.613
276.588
276.568
276.55
276.536
276.536
276.556
276.555
276.537
276.515
276.485
276.448
276.424
276.405
276.387
276.373
276.373
276.382
276.371
276.351
276.327
276.301
276.281
276.263
276.248
276.245
276.251
276.239
276.218
276.192
276.157
276.13
276.11
276.093
276.08
276.084
276.099
276.09
276.07
276.046
276.012
275.981
275.961
275.943
275.927
275.925
275.943
275.943
275.925
275.904
275.872
275.828
275.798
275.778
275.76
275.746
275.747
275.775
275.787
275.774
275.753
275.727
275.683
275.635
275.609
275.589
275.571
275.557
275.559
275.587
275.6
275.586
275.566
275.54
275.499
275.455
275.431
275.412
275.394
275.381
275.383
275.409
275.413
275.397
275.376
275.349
275.307
275.275
275.255
275.236
275.219
275.208
275.216
275.223
275.21
275.19
275.165
275.136
275.115
275.096
275.08
275.071
275.08
275.078
275.06
275.038
275.007
274.971
274.947
274.928
274.911
274.898
274.902
274.913
274.901
274.882
274.858
274.829
274.807
274.789
274.772
274.763
274.773
274.779
274.764
274.744
274.718
274.683
274.658
274.639
274.621
274.608
274.612
274.621
274.608
274.588
274.562
274.517
274.457
274.425
274.405
274.387
274.371
274.365
274.387
274.449
274.473
274.463
274.444
274.42
274.383
274.314
274.256
274.229
274.209
274.191
274.176
274.172
274.196
274.245
274.252
274.236
274.216
274.189
274.142
274.072
274.034
274.013
273.994
273.977
273.965
273.972
274.013
274.037
274.028
274.008
273.985
273.95
273.891
273.851
273.829
273.81
273.793
273.779
273.782
273.814
273.834
273.823
273.803
273.78
273.745
273.688
273.649
273.627
273.608
273.589
273.571
273.555
273.545
273.556
273.6
273.618
273.606
273.586
273.562
273.525
273.465
273.424
273.401
273.383
273.365
273.351
273.352
273.38
273.398
273.386
273.367
273.343
273.306
273.256
273.226
273.206
273.188
273.172
273.165
273.181
273.206
273.199
273.181
273.159
273.127
273.082
273.052
273.032
273.014
272.997
272.989
273.001
273.015
273.004
272.984
272.961
272.927
272.895
272.874
272.856
272.84
272.834
272.852
272.874
272.865
272.846
272.823
272.786
272.716
272.654
272.627
272.607
272.589
272.573
272.566
272.585
272.653
272.695
272.69
272.672
272.651
272.621
272.565
272.482
272.44
272.418
272.399
272.381
272.366
272.363
272.39
272.44
272.447
272.431
272.412
272.387
272.346
272.289
272.257
272.237
272.219
272.202
272.189
272.192
272.212
272.209
272.192
272.171
272.142
272.099
272.069
272.049
272.031
272.015
272.009
272.026
272.046
272.037
272.019
271.996
271.963
271.912
271.88
271.86
271.842
271.826
271.819
271.835
271.869
271.869
271.852
271.831
271.803
271.755
271.706
271.68
271.661
271.644
271.628
271.624
271.647
271.673
271.665
271.647
271.625
271.594
271.544
271.507
271.486
271.468
271.451
271.44
271.447
271.479
271.486
271.471
271.451
271.425
271.383
271.327
271.298
271.278
271.26
271.244
271.235
271.247
271.282
271.284
271.268
271.249
271.223
271.181
271.139
271.115
271.096
271.079
271.064
271.059
271.077
271.084
271.07
271.05
271.026
270.987
270.949
270.927
270.908
270.891
270.878
270.882
270.909
270.915
270.9
270.88
270.855
270.814
270.767
270.742
270.723
270.705
270.69
270.685
270.705
270.729
270.721
270.703
270.682
270.651
270.603
270.566
270.545
270.526
270.509
270.495
270.492
270.514
270.527
270.515
270.496
270.474
270.442
270.407
270.385
270.367
270.349
270.333
270.323
270.326
270.317
270.298
270.278
270.254
270.234
270.216
270.2
270.19
270.201
270.22
270.212
270.194
270.173
270.143
270.093
270.05
270.027
270.008
269.99
269.972
269.954
269.937
269.92
269.908
269.912
269.948
269.971
269.962
269.944
269.922
269.892
269.838
269.788
269.764
269.745
269.727
269.711
269.702
269.714
269.742
269.74
269.723
269.703
269.678
269.638
269.603
269.583
269.565
269.548
269.534
269.535
269.555
269.553
269.536
269.516
269.49
269.449
269.415
269.394
269.376
269.36
269.347
269.352
269.378
269.379
269.362
269.343
269.318
269.278
269.239
269.216
269.198
269.181
269.166
269.162
269.181
269.19
269.177
269.158
269.136
269.103
269.065
269.042
269.023
269.006
268.991
268.984
268.996
269
268.985
268.966
268.943
268.909
268.878
268.858
268.84
268.823
268.81
268.811
268.827
268.82
268.803
268.783
268.757
268.727
268.706
268.687
268.67
268.654
268.645
268.646
268.634
268.616
268.596
268.575
268.557
268.54
268.524
268.517
268.515
268.5
268.482
268.46
268.432
268.41
268.392
268.375
268.36
268.356
268.367
268.359
268.342
268.322
268.299
268.278
268.259
268.242
268.226
268.216
268.207
268.191
268.173
268.154
268.136
268.118
268.101
268.085
268.071
268.054
268.036
268.018
268
267.983
267.966
267.952
267.95
267.972
267.98
267.966
267.947
267.924
267.888
267.83
267.794
267.774
267.756
267.739
267.726
267.725
267.754
267.777
267.768
267.751
267.731
267.703
267.659
267.62
267.599
267.581
267.563
267.547
267.536
267.542
267.555
267.546
267.528
267.508
267.482
267.453
267.433
267.415
267.398
267.384
267.381
267.388
267.377
267.359
267.338
267.31
267.282
267.262
267.244
267.228
267.215
267.216
267.224
267.212
267.194
267.173
267.145
267.117
267.097
267.08
267.064
267.052
267.057
267.075
267.068
267.051
267.031
267.006
266.966
266.931
266.91
266.892
266.874
266.857
266.839
266.824
266.815
266.824
266.837
266.826
266.808
266.787
266.758
266.713
266.682
266.663
266.645
266.629
266.617
266.622
266.658
266.674
266.662
266.644
266.623
266.593
266.538
266.486
266.461
266.442
266.425
266.409
266.396
266.397
266.428
266.446
266.435
266.417
266.397
266.37
266.327
266.293
266.273
266.255
266.238
266.224
266.218
266.235
266.246
266.234
266.216
266.195
266.166
266.124
266.095
266.076
266.059
266.042
266.028
266.025
266.04
266.037
266.021
266.002
265.98
265.948
265.924
265.905
265.888
265.872
265.86
265.864
265.869
265.856
265.838
265.817
265.788
265.757
265.736
265.719
265.702
265.687
265.681
265.691
265.686
265.67
265.651
265.627
265.598
265.576
265.559
265.542
265.527
265.521
265.532
265.529
265.513
265.494
265.471
265.434
265.4
265.38
265.362
265.346
265.331
265.327
265.345
265.354
265.341
265.323
265.302
265.273
265.235
265.21
265.192
265.175
265.158
265.144
265.142
265.159
265.158
265.143
265.125
265.105
265.081
265.06
265.042
265.024
265.007
264.989
264.971
264.949
264.919
264.887
264.867
264.849
264.832
264.817
264.809
264.823
264.867
264.876
264.863
264.845
264.824
264.794
264.739
264.682
264.656
264.637
264.62
264.603
264.588
264.577
264.585
264.616
264.62
264.606
264.588
264.568
264.542
264.513
264.493
264.476
264.459
264.442
264.426
264.412
264.395
264.378
264.361
264.344
264.327
264.31
264.296
264.291
264.304
264.302
264.286
264.268
264.245
264.21
264.168
264.144
264.126
264.109
264.094
264.084
264.095
264.124
264.122
264.106
264.087
264.065
264.029
263.976
263.946
263.926
263.909
263.893
263.88
263.879
263.908
263.935
263.928
263.911
263.892
263.868
263.827
263.762
263.725
263.704
263.687
263.67
263.655
263.644
263.653
263.69
263.7
263.687
263.67
263.65
263.622
263.574
263.532
263.509
263.492
263.475
263.459
263.449
263.456
263.488
263.493
263.479
263.461
263.441
263.411
263.358
263.316
263.294
263.276
263.259
263.244
263.233
263.24
263.274
263.283
263.27
263.252
263.232
263.205
263.159
263.116
263.094
263.077
263.06
263.043
263.03
263.028
263.053
263.07
263.059
263.042
263.024
263.001
262.964
262.924
262.901
262.883
262.866
262.849
262.832
262.815
262.798
262.782
262.767
262.762
262.779
262.796
262.786
262.769
262.75
262.728
262.691
262.642
262.616
262.597
262.58
262.563
262.547
262.532
262.524
262.538
262.564
262.56
262.543
262.526
262.504
262.472
262.421
262.387
262.368
262.35
262.334
262.318
262.306
262.308
262.337
262.348
262.336
262.319
262.301
262.28
262.251
262.217
262.196
262.178
262.161
262.144
262.127
262.11
262.093
262.076
262.059
262.042
262.027
262.014
262.012
262.025
262.019
262.003
261.985
261.965
261.934
261.903
261.883
261.866
261.849
261.834
261.824
261.831
261.838
261.825
261.808
261.789
261.764
261.726
261.697
261.678
261.661
261.644
261.629
261.619
261.626
261.634
261.622
261.605
261.587
261.564
261.538
261.518
261.501
261.485
261.469
261.456
261.451
261.439
261.423
261.406
261.387
261.368
261.35
261.334
261.318
261.307
261.311
261.319
261.308
261.291
261.273
261.248
261.21
261.177
261.157
261.14
261.124
261.109
261.1
261.109
261.123
261.114
261.097
261.079
261.057
261.023
260.989
260.969
260.952
260.935
260.919
260.906
260.904
260.913
260.904
260.887
260.869
260.848
260.822
260.801
260.784
260.767
260.751
260.739
260.74
260.742
260.728
260.711
260.692