/*--------------------------------*- C++ -*----------------------------------*\
  =========                 |
  \\      /  F ield         | OpenFOAM: The Open Source CFD Toolbox
   \\    /   O peration     | Website:  https://openfoam.org
    \\  /    A nd           | Version:  9
     \\/     M anipulation  |
\*---------------------------------------------------------------------------*/
FoamFile
{
    format      ascii;
    class       volVectorField;
    location    "0.018";
    object      U;
}
// * * * * * * * * * * * * * * * * * * * * * * * * * * * * * * * * * * * * * //

dimensions      [0 1 -1 0 0 0 0];

internalField   nonuniform List<vector> 
10000
(
(81.0416 0 0)
(81.1043 0 0)
(81.2729 0 0)
(81.5532 0 0)
(81.765 0 0)
(81.8904 0 0)
(81.9604 0 0)
(81.9985 0 0)
(82.0255 0 0)
(82.038 0 0)
(82.0412 0 0)
(82.0457 0 0)
(82.0527 0 0)
(82.0595 0 0)
(82.0654 0 0)
(82.0771 0 0)
(82.1089 0 0)
(82.1918 0 0)
(82.3154 0 0)
(82.406 0 0)
(82.4562 0 0)
(82.4915 0 0)
(82.5101 0 0)
(82.516 0 0)
(82.5197 0 0)
(82.5297 0 0)
(82.5391 0 0)
(82.5436 0 0)
(82.5471 0 0)
(82.5595 0 0)
(82.6021 0 0)
(82.7211 0 0)
(82.91 0 0)
(83.0539 0 0)
(83.134 0 0)
(83.1864 0 0)
(83.2281 0 0)
(83.2498 0 0)
(83.2559 0 0)
(83.2582 0 0)
(83.2683 0 0)
(83.2838 0 0)
(83.2953 0 0)
(83.3027 0 0)
(83.3177 0 0)
(83.3641 0 0)
(83.4949 0 0)
(83.6801 0 0)
(83.8195 0 0)
(83.897 0 0)
(83.9264 0 0)
(83.9413 0 0)
(83.9692 0 0)
(84.0066 0 0)
(84.0325 0 0)
(84.0325 0 0)
(84.0183 0 0)
(84.0162 0 0)
(84.0219 0 0)
(84.0369 0 0)
(84.0515 0 0)
(84.0737 0 0)
(84.1429 0 0)
(84.2831 0 0)
(84.4122 0 0)
(84.4928 0 0)
(84.5298 0 0)
(84.5517 0 0)
(84.586 0 0)
(84.6234 0 0)
(84.6521 0 0)
(84.6692 0 0)
(84.6997 0 0)
(84.7512 0 0)
(84.8238 0 0)
(84.9032 0 0)
(84.9646 0 0)
(85.0027 0 0)
(85.0365 0 0)
(85.0824 0 0)
(85.1494 0 0)
(85.215 0 0)
(85.2573 0 0)
(85.2812 0 0)
(85.3062 0 0)
(85.346 0 0)
(85.4169 0 0)
(85.4879 0 0)
(85.5272 0 0)
(85.5423 0 0)
(85.5597 0 0)
(85.5858 0 0)
(85.6535 0 0)
(85.7374 0 0)
(85.798 0 0)
(85.8156 0 0)
(85.8299 0 0)
(85.8503 0 0)
(85.914 0 0)
(86.0067 0 0)
(86.0813 0 0)
(86.1044 0 0)
(86.1163 0 0)
(86.1353 0 0)
(86.1756 0 0)
(86.236 0 0)
(86.2896 0 0)
(86.3242 0 0)
(86.3541 0 0)
(86.4175 0 0)
(86.5075 0 0)
(86.5812 0 0)
(86.6018 0 0)
(86.6074 0 0)
(86.6199 0 0)
(86.6612 0 0)
(86.754 0 0)
(86.8448 0 0)
(86.8906 0 0)
(86.8974 0 0)
(86.9044 0 0)
(86.9297 0 0)
(87.0115 0 0)
(87.1106 0 0)
(87.1814 0 0)
(87.196 0 0)
(87.1948 0 0)
(87.2047 0 0)
(87.2486 0 0)
(87.3458 0 0)
(87.4431 0 0)
(87.4998 0 0)
(87.5059 0 0)
(87.4942 0 0)
(87.4984 0 0)
(87.5154 0 0)
(87.5686 0 0)
(87.6687 0 0)
(87.768 0 0)
(87.8337 0 0)
(87.857 0 0)
(87.8879 0 0)
(87.9393 0 0)
(87.9851 0 0)
(88.0053 0 0)
(88.0211 0 0)
(88.0455 0 0)
(88.1233 0 0)
(88.2209 0 0)
(88.2917 0 0)
(88.3081 0 0)
(88.3146 0 0)
(88.3331 0 0)
(88.4044 0 0)
(88.4972 0 0)
(88.5606 0 0)
(88.5729 0 0)
(88.5781 0 0)
(88.5959 0 0)
(88.662 0 0)
(88.7615 0 0)
(88.8439 0 0)
(88.8762 0 0)
(88.8934 0 0)
(88.9323 0 0)
(88.9824 0 0)
(89.0127 0 0)
(89.0293 0 0)
(89.046 0 0)
(89.1012 0 0)
(89.2011 0 0)
(89.2907 0 0)
(89.3298 0 0)
(89.3337 0 0)
(89.3392 0 0)
(89.366 0 0)
(89.4496 0 0)
(89.5447 0 0)
(89.6056 0 0)
(89.6151 0 0)
(89.6164 0 0)
(89.6322 0 0)
(89.6983 0 0)
(89.8044 0 0)
(89.8937 0 0)
(89.9271 0 0)
(89.9191 0 0)
(89.8938 0 0)
(89.8983 0 0)
(89.9339 0 0)
(90.0262 0 0)
(90.1619 0 0)
(90.26 0 0)
(90.3063 0 0)
(90.3089 0 0)
(90.3004 0 0)
(90.3109 0 0)
(90.3446 0 0)
(90.4313 0 0)
(90.5225 0 0)
(90.5724 0 0)
(90.5866 0 0)
(90.6049 0 0)
(90.6751 0 0)
(90.7621 0 0)
(90.8116 0 0)
(90.8208 0 0)
(90.8295 0 0)
(90.862 0 0)
(90.9488 0 0)
(91.0398 0 0)
(91.0854 0 0)
(91.0924 0 0)
(91.0989 0 0)
(91.1338 0 0)
(91.2266 0 0)
(91.334 0 0)
(91.4059 0 0)
(91.4185 0 0)
(91.3958 0 0)
(91.3779 0 0)
(91.3887 0 0)
(91.444 0 0)
(91.5539 0 0)
(91.6934 0 0)
(91.7827 0 0)
(91.8139 0 0)
(91.8089 0 0)
(91.7935 0 0)
(91.8032 0 0)
(91.841 0 0)
(91.9345 0 0)
(92.0407 0 0)
(92.1122 0 0)
(92.1283 0 0)
(92.1295 0 0)
(92.1416 0 0)
(92.1893 0 0)
(92.2855 0 0)
(92.3755 0 0)
(92.4145 0 0)
(92.4199 0 0)
(92.4267 0 0)
(92.4602 0 0)
(92.5326 0 0)
(92.6016 0 0)
(92.6204 0 0)
(92.6167 0 0)
(92.6212 0 0)
(92.662 0 0)
(92.7603 0 0)
(92.9037 0 0)
(93.0018 0 0)
(93.0441 0 0)
(93.0409 0 0)
(93.0137 0 0)
(93.0143 0 0)
(93.0384 0 0)
(93.1187 0 0)
(93.2385 0 0)
(93.3339 0 0)
(93.3757 0 0)
(93.3759 0 0)
(93.3701 0 0)
(93.3838 0 0)
(93.4465 0 0)
(93.5609 0 0)
(93.6679 0 0)
(93.7276 0 0)
(93.7336 0 0)
(93.7129 0 0)
(93.7111 0 0)
(93.7344 0 0)
(93.8149 0 0)
(93.9405 0 0)
(94.0413 0 0)
(94.092 0 0)
(94.095 0 0)
(94.0805 0 0)
(94.087 0 0)
(94.1168 0 0)
(94.2041 0 0)
(94.3119 0 0)
(94.3923 0 0)
(94.4154 0 0)
(94.4181 0 0)
(94.4286 0 0)
(94.4682 0 0)
(94.5579 0 0)
(94.6471 0 0)
(94.6865 0 0)
(94.6978 0 0)
(94.7127 0 0)
(94.756 0 0)
(94.8152 0 0)
(94.8523 0 0)
(94.8626 0 0)
(94.8688 0 0)
(94.8879 0 0)
(94.9644 0 0)
(95.096 0 0)
(95.2268 0 0)
(95.3001 0 0)
(95.3146 0 0)
(95.2885 0 0)
(95.2518 0 0)
(95.2566 0 0)
(95.2938 0 0)
(95.3885 0 0)
(95.5401 0 0)
(95.6551 0 0)
(95.7145 0 0)
(95.7201 0 0)
(95.6913 0 0)
(95.6744 0 0)
(95.6867 0 0)
(95.7418 0 0)
(95.8512 0 0)
(95.9777 0 0)
(96.0582 0 0)
(96.08 0 0)
(96.0694 0 0)
(96.0591 0 0)
(96.0722 0 0)
(96.1284 0 0)
(96.2372 0 0)
(96.3483 0 0)
(96.4156 0 0)
(96.4286 0 0)
(96.4202 0 0)
(96.4257 0 0)
(96.4498 0 0)
(96.5271 0 0)
(96.6283 0 0)
(96.7041 0 0)
(96.7248 0 0)
(96.7331 0 0)
(96.7503 0 0)
(96.8153 0 0)
(96.9054 0 0)
(96.9669 0 0)
(96.98 0 0)
(96.9872 0 0)
(97.0092 0 0)
(97.0696 0 0)
(97.1385 0 0)
(97.1696 0 0)
(97.1777 0 0)
(97.1864 0 0)
(97.2265 0 0)
(97.3238 0 0)
(97.4667 0 0)
(97.5651 0 0)
(97.6072 0 0)
(97.6039 0 0)
(97.5709 0 0)
(97.5656 0 0)
(97.5832 0 0)
(97.6498 0 0)
(97.7671 0 0)
(97.8804 0 0)
(97.9469 0 0)
(97.9609 0 0)
(97.9607 0 0)
(97.9727 0 0)
(98.0159 0 0)
(98.1102 0 0)
(98.2025 0 0)
(98.2453 0 0)
(98.2467 0 0)
(98.2417 0 0)
(98.2561 0 0)
(98.3192 0 0)
(98.4348 0 0)
(98.5452 0 0)
(98.6081 0 0)
(98.6175 0 0)
(98.6009 0 0)
(98.5996 0 0)
(98.619 0 0)
(98.6881 0 0)
(98.8018 0 0)
(98.8986 0 0)
(98.9455 0 0)
(98.9518 0 0)
(98.9534 0 0)
(98.9695 0 0)
(99.0258 0 0)
(99.123 0 0)
(99.2085 0 0)
(99.2402 0 0)
(99.2506 0 0)
(99.2652 0 0)
(99.2915 0 0)
(99.3284 0 0)
(99.3622 0 0)
(99.3867 0 0)
(99.4288 0 0)
(99.5236 0 0)
(99.6698 0 0)
(99.7755 0 0)
(99.8265 0 0)
(99.8264 0 0)
(99.7784 0 0)
(99.7309 0 0)
(99.7365 0 0)
(99.7696 0 0)
(99.8621 0 0)
(100.021 0 0)
(100.181 0 0)
(100.265 0 0)
(100.29 0 0)
(100.276 0 0)
(100.226 0 0)
(100.214 0 0)
(100.229 0 0)
(100.288 0 0)
(100.4 0 0)
(100.537 0 0)
(100.623 0 0)
(100.651 0 0)
(100.645 0 0)
(100.632 0 0)
(100.643 0 0)
(100.685 0 0)
(100.781 0 0)
(100.89 0 0)
(100.961 0 0)
(100.976 0 0)
(100.965 0 0)
(100.961 0 0)
(100.977 0 0)
(101.026 0 0)
(101.111 0 0)
(101.184 0 0)
(101.208 0 0)
(101.223 0 0)
(101.282 0 0)
(101.4 0 0)
(101.539 0 0)
(101.622 0 0)
(101.645 0 0)
(101.622 0 0)
(101.557 0 0)
(101.537 0 0)
(101.552 0 0)
(101.611 0 0)
(101.727 0 0)
(101.91 0 0)
(102.029 0 0)
(102.088 0 0)
(102.095 0 0)
(102.062 0 0)
(102.018 0 0)
(102.023 0 0)
(102.045 0 0)
(102.121 0 0)
(102.247 0 0)
(102.37 0 0)
(102.441 0 0)
(102.458 0 0)
(102.453 0 0)
(102.458 0 0)
(102.478 0 0)
(102.546 0 0)
(102.641 0 0)
(102.713 0 0)
(102.732 0 0)
(102.741 0 0)
(102.761 0 0)
(102.83 0 0)
(102.921 0 0)
(102.981 0 0)
(102.991 0 0)
(102.982 0 0)
(102.989 0 0)
(103.012 0 0)
(103.081 0 0)
(103.18 0 0)
(103.262 0 0)
(103.302 0 0)
(103.357 0 0)
(103.458 0 0)
(103.577 0 0)
(103.655 0 0)
(103.674 0 0)
(103.646 0 0)
(103.555 0 0)
(103.505 0 0)
(103.515 0 0)
(103.539 0 0)
(103.619 0 0)
(103.758 0 0)
(103.978 0 0)
(104.11 0 0)
(104.176 0 0)
(104.189 0 0)
(104.158 0 0)
(104.089 0 0)
(104.073 0 0)
(104.088 0 0)
(104.14 0 0)
(104.248 0 0)
(104.416 0 0)
(104.527 0 0)
(104.581 0 0)
(104.586 0 0)
(104.552 0 0)
(104.521 0 0)
(104.531 0 0)
(104.566 0 0)
(104.656 0 0)
(104.798 0 0)
(104.907 0 0)
(104.963 0 0)
(104.972 0 0)
(104.959 0 0)
(104.962 0 0)
(104.982 0 0)
(105.045 0 0)
(105.135 0 0)
(105.2 0 0)
(105.215 0 0)
(105.213 0 0)
(105.225 0 0)
(105.257 0 0)
(105.344 0 0)
(105.452 0 0)
(105.533 0 0)
(105.562 0 0)
(105.582 0 0)
(105.649 0 0)
(105.736 0 0)
(105.784 0 0)
(105.785 0 0)
(105.763 0 0)
(105.766 0 0)
(105.8 0 0)
(105.892 0 0)
(106.039 0 0)
(106.152 0 0)
(106.209 0 0)
(106.215 0 0)
(106.185 0 0)
(106.162 0 0)
(106.174 0 0)
(106.215 0 0)
(106.31 0 0)
(106.436 0 0)
(106.524 0 0)
(106.555 0 0)
(106.556 0 0)
(106.56 0 0)
(106.585 0 0)
(106.667 0 0)
(106.798 0 0)
(106.902 0 0)
(106.952 0 0)
(106.951 0 0)
(106.907 0 0)
(106.874 0 0)
(106.885 0 0)
(106.929 0 0)
(107.031 0 0)
(107.199 0 0)
(107.323 0 0)
(107.386 0 0)
(107.397 0 0)
(107.363 0 0)
(107.3 0 0)
(107.292 0 0)
(107.309 0 0)
(107.356 0 0)
(107.457 0 0)
(107.601 0 0)
(107.7 0 0)
(107.744 0 0)
(107.756 0 0)
(107.769 0 0)
(107.807 0 0)
(107.897 0 0)
(107.99 0 0)
(108.034 0 0)
(108.03 0 0)
(107.986 0 0)
(107.972 0 0)
(107.989 0 0)
(108.06 0 0)
(108.19 0 0)
(108.389 0 0)
(108.504 0 0)
(108.557 0 0)
(108.562 0 0)
(108.513 0 0)
(108.434 0 0)
(108.424 0 0)
(108.441 0 0)
(108.503 0 0)
(108.622 0 0)
(108.815 0 0)
(108.943 0 0)
(109.006 0 0)
(109.017 0 0)
(108.984 0 0)
(108.918 0 0)
(108.908 0 0)
(108.925 0 0)
(108.981 0 0)
(109.092 0 0)
(109.26 0 0)
(109.367 0 0)
(109.418 0 0)
(109.424 0 0)
(109.399 0 0)
(109.386 0 0)
(109.402 0 0)
(109.437 0 0)
(109.525 0 0)
(109.624 0 0)
(109.684 0 0)
(109.696 0 0)
(109.686 0 0)
(109.693 0 0)
(109.722 0 0)
(109.807 0 0)
(109.944 0 0)
(110.065 0 0)
(110.133 0 0)
(110.152 0 0)
(110.149 0 0)
(110.135 0 0)
(110.141 0 0)
(110.16 0 0)
(110.183 0 0)
(110.207 0 0)
(110.279 0 0)
(110.405 0 0)
(110.602 0 0)
(110.723 0 0)
(110.781 0 0)
(110.788 0 0)
(110.743 0 0)
(110.636 0 0)
(110.596 0 0)
(110.608 0 0)
(110.646 0 0)
(110.741 0 0)
(110.912 0 0)
(111.11 0 0)
(111.207 0 0)
(111.246 0 0)
(111.244 0 0)
(111.188 0 0)
(111.131 0 0)
(111.136 0 0)
(111.159 0 0)
(111.235 0 0)
(111.37 0 0)
(111.548 0 0)
(111.646 0 0)
(111.686 0 0)
(111.685 0 0)
(111.626 0 0)
(111.543 0 0)
(111.53 0 0)
(111.549 0 0)
(111.579 0 0)
(111.667 0 0)
(111.817 0 0)
(112.037 0 0)
(112.154 0 0)
(112.21 0 0)
(112.218 0 0)
(112.177 0 0)
(112.093 0 0)
(112.073 0 0)
(112.089 0 0)
(112.139 0 0)
(112.246 0 0)
(112.438 0 0)
(112.61 0 0)
(112.693 0 0)
(112.719 0 0)
(112.703 0 0)
(112.622 0 0)
(112.554 0 0)
(112.558 0 0)
(112.581 0 0)
(112.656 0 0)
(112.79 0 0)
(112.991 0 0)
(113.105 0 0)
(113.158 0 0)
(113.165 0 0)
(113.125 0 0)
(113.067 0 0)
(113.067 0 0)
(113.088 0 0)
(113.158 0 0)
(113.285 0 0)
(113.445 0 0)
(113.537 0 0)
(113.57 0 0)
(113.562 0 0)
(113.493 0 0)
(113.424 0 0)
(113.425 0 0)
(113.445 0 0)
(113.507 0 0)
(113.627 0 0)
(113.843 0 0)
(114.023 0 0)
(114.107 0 0)
(114.135 0 0)
(114.124 0 0)
(114.05 0 0)
(113.981 0 0)
(113.984 0 0)
(114.006 0 0)
(114.077 0 0)
(114.206 0 0)
(114.418 0 0)
(114.55 0 0)
(114.614 0 0)
(114.626 0 0)
(114.59 0 0)
(114.489 0 0)
(114.441 0 0)
(114.453 0 0)
(114.484 0 0)
(114.572 0 0)
(114.729 0 0)
(114.937 0 0)
(115.042 0 0)
(115.089 0 0)
(115.092 0 0)
(115.044 0 0)
(114.979 0 0)
(114.979 0 0)
(114.999 0 0)
(115.067 0 0)
(115.192 0 0)
(115.368 0 0)
(115.47 0 0)
(115.513 0 0)
(115.513 0 0)
(115.452 0 0)
(115.354 0 0)
(115.336 0 0)
(115.353 0 0)
(115.397 0 0)
(115.498 0 0)
(115.684 0 0)
(115.917 0 0)
(116.026 0 0)
(116.077 0 0)
(116.082 0 0)
(116.036 0 0)
(115.944 0 0)
(115.921 0 0)
(115.937 0 0)
(115.98 0 0)
(116.08 0 0)
(116.259 0 0)
(116.432 0 0)
(116.518 0 0)
(116.545 0 0)
(116.533 0 0)
(116.455 0 0)
(116.387 0 0)
(116.391 0 0)
(116.414 0 0)
(116.488 0 0)
(116.622 0 0)
(116.834 0 0)
(116.96 0 0)
(117.019 0 0)
(117.03 0 0)
(116.995 0 0)
(116.916 0 0)
(116.896 0 0)
(116.913 0 0)
(116.958 0 0)
(117.059 0 0)
(117.225 0 0)
(117.346 0 0)
(117.405 0 0)
(117.414 0 0)
(117.375 0 0)
(117.293 0 0)
(117.276 0 0)
(117.293 0 0)
(117.346 0 0)
(117.458 0 0)
(117.667 0 0)
(117.886 0 0)
(117.985 0 0)
(118.024 0 0)
(118.024 0 0)
(117.961 0 0)
(117.847 0 0)
(117.816 0 0)
(117.832 0 0)
(117.865 0 0)
(117.956 0 0)
(118.117 0 0)
(118.321 0 0)
(118.424 0 0)
(118.467 0 0)
(118.47 0 0)
(118.419 0 0)
(118.347 0 0)
(118.343 0 0)
(118.362 0 0)
(118.421 0 0)
(118.537 0 0)
(118.725 0 0)
(118.85 0 0)
(118.91 0 0)
(118.923 0 0)
(118.893 0 0)
(118.835 0 0)
(118.829 0 0)
(118.848 0 0)
(118.898 0 0)
(119.002 0 0)
(119.133 0 0)
(119.217 0 0)
(119.245 0 0)
(119.24 0 0)
(119.225 0 0)
(119.238 0 0)
(119.281 0 0)
(119.381 0 0)
(119.555 0 0)
(119.693 0 0)
(119.762 0 0)
(119.779 0 0)
(119.757 0 0)
(119.677 0 0)
(119.634 0 0)
(119.645 0 0)
(119.668 0 0)
(119.709 0 0)
(119.804 0 0)
(119.972 0 0)
(120.148 0 0)
(120.237 0 0)
(120.269 0 0)
(120.266 0 0)
(120.215 0 0)
(120.18 0 0)
(120.193 0 0)
(120.224 0 0)
(120.308 0 0)
(120.448 0 0)
(120.569 0 0)
(120.631 0 0)
(120.643 0 0)
(120.613 0 0)
(120.563 0 0)
(120.567 0 0)
(120.591 0 0)
(120.667 0 0)
(120.804 0 0)
(121.02 0 0)
(121.146 0 0)
(121.206 0 0)
(121.221 0 0)
(121.196 0 0)
(121.12 0 0)
(121.084 0 0)
(121.096 0 0)
(121.119 0 0)
(121.144 0 0)
(121.179 0 0)
(121.267 0 0)
(121.416 0 0)
(121.599 0 0)
(121.695 0 0)
(121.734 0 0)
(121.736 0 0)
(121.692 0 0)
(121.65 0 0)
(121.66 0 0)
(121.686 0 0)
(121.762 0 0)
(121.893 0 0)
(122.018 0 0)
(122.086 0 0)
(122.102 0 0)
(122.078 0 0)
(122.03 0 0)
(122.033 0 0)
(122.058 0 0)
(122.137 0 0)
(122.279 0 0)
(122.501 0 0)
(122.626 0 0)
(122.685 0 0)
(122.697 0 0)
(122.662 0 0)
(122.55 0 0)
(122.475 0 0)
(122.477 0 0)
(122.499 0 0)
(122.532 0 0)
(122.619 0 0)
(122.772 0 0)
(123.029 0 0)
(123.186 0 0)
(123.259 0 0)
(123.28 0 0)
(123.262 0 0)
(123.166 0 0)
(123.059 0 0)
(123.049 0 0)
(123.068 0 0)
(123.114 0 0)
(123.218 0 0)
(123.406 0 0)
(123.596 0 0)
(123.687 0 0)
(123.72 0 0)
(123.715 0 0)
(123.643 0 0)
(123.548 0 0)
(123.538 0 0)
(123.557 0 0)
(123.607 0 0)
(123.716 0 0)
(123.919 0 0)
(124.16 0 0)
(124.267 0 0)
(124.316 0 0)
(124.325 0 0)
(124.285 0 0)
(124.171 0 0)
(124.103 0 0)
(124.107 0 0)
(124.13 0 0)
(124.154 0 0)
(124.208 0 0)
(124.315 0 0)
(124.51 0 0)
(124.706 0 0)
(124.799 0 0)
(124.834 0 0)
(124.835 0 0)
(124.778 0 0)
(124.701 0 0)
(124.696 0 0)
(124.716 0 0)
(124.768 0 0)
(124.876 0 0)
(125.073 0 0)
(125.251 0 0)
(125.335 0 0)
(125.365 0 0)
(125.36 0 0)
(125.292 0 0)
(125.186 0 0)
(125.163 0 0)
(125.18 0 0)
(125.205 0 0)
(125.231 0 0)
(125.292 0 0)
(125.409 0 0)
(125.627 0 0)
(125.872 0 0)
(125.979 0 0)
(126.028 0 0)
(126.035 0 0)
(125.991 0 0)
(125.845 0 0)
(125.728 0 0)
(125.719 0 0)
(125.739 0 0)
(125.775 0 0)
(125.867 0 0)
(126.034 0 0)
(126.317 0 0)
(126.489 0 0)
(126.566 0 0)
(126.591 0 0)
(126.578 0 0)
(126.491 0 0)
(126.384 0 0)
(126.372 0 0)
(126.391 0 0)
(126.436 0 0)
(126.537 0 0)
(126.724 0 0)
(126.917 0 0)
(127.009 0 0)
(127.042 0 0)
(127.037 0 0)
(126.959 0 0)
(126.818 0 0)
(126.779 0 0)
(126.794 0 0)
(126.827 0 0)
(126.917 0 0)
(127.081 0 0)
(127.362 0 0)
(127.531 0 0)
(127.606 0 0)
(127.63 0 0)
(127.614 0 0)
(127.515 0 0)
(127.391 0 0)
(127.373 0 0)
(127.392 0 0)
(127.436 0 0)
(127.539 0 0)
(127.733 0 0)
(128.016 0 0)
(128.152 0 0)
(128.216 0 0)
(128.231 0 0)
(128.201 0 0)
(128.07 0 0)
(127.91 0 0)
(127.881 0 0)
(127.898 0 0)
(127.927 0 0)
(128.009 0 0)
(128.156 0 0)
(128.411 0 0)
(128.577 0 0)
(128.653 0 0)
(128.677 0 0)
(128.667 0 0)
(128.6 0 0)
(128.551 0 0)
(128.562 0 0)
(128.585 0 0)
(128.652 0 0)
(128.774 0 0)
(128.928 0 0)
(129.018 0 0)
(129.051 0 0)
(129.049 0 0)
(129.01 0 0)
(129 0 0)
(129.018 0 0)
(129.069 0 0)
(129.174 0 0)
(129.339 0 0)
(129.448 0 0)
(129.498 0 0)
(129.507 0 0)
(129.472 0 0)
(129.426 0 0)
(129.433 0 0)
(129.457 0 0)
(129.524 0 0)
(129.646 0 0)
(129.78 0 0)
(129.856 0 0)
(129.879 0 0)
(129.871 0 0)
(129.849 0 0)
(129.861 0 0)
(129.893 0 0)
(129.98 0 0)
(130.127 0 0)
(130.252 0 0)
(130.314 0 0)
(130.329 0 0)
(130.299 0 0)
(130.231 0 0)
(130.222 0 0)
(130.243 0 0)
(130.3 0 0)
(130.417 0 0)
(130.626 0 0)
(130.786 0 0)
(130.86 0 0)
(130.883 0 0)
(130.866 0 0)
(130.774 0 0)
(130.689 0 0)
(130.689 0 0)
(130.711 0 0)
(130.769 0 0)
(130.884 0 0)
(131.096 0 0)
(131.277 0 0)
(131.361 0 0)
(131.39 0 0)
(131.385 0 0)
(131.316 0 0)
(131.232 0 0)
(131.227 0 0)
(131.249 0 0)
(131.289 0 0)
(131.381 0 0)
(131.537 0 0)
(131.664 0 0)
(131.728 0 0)
(131.746 0 0)
(131.735 0 0)
(131.725 0 0)
(131.742 0 0)
(131.785 0 0)
(131.882 0 0)
(132.023 0 0)
(132.12 0 0)
(132.16 0 0)
(132.163 0 0)
(132.125 0 0)
(132.108 0 0)
(132.126 0 0)
(132.174 0 0)
(132.277 0 0)
(132.454 0 0)
(132.582 0 0)
(132.644 0 0)
(132.658 0 0)
(132.627 0 0)
(132.535 0 0)
(132.499 0 0)
(132.515 0 0)
(132.55 0 0)
(132.639 0 0)
(132.802 0 0)
(133.028 0 0)
(133.14 0 0)
(133.19 0 0)
(133.201 0 0)
(133.162 0 0)
(133.067 0 0)
(133.036 0 0)
(133.053 0 0)
(133.083 0 0)
(133.163 0 0)
(133.303 0 0)
(133.454 0 0)
(133.535 0 0)
(133.562 0 0)
(133.554 0 0)
(133.506 0 0)
(133.492 0 0)
(133.512 0 0)
(133.56 0 0)
(133.665 0 0)
(133.85 0 0)
(133.997 0 0)
(134.067 0 0)
(134.088 0 0)
(134.069 0 0)
(133.989 0 0)
(133.946 0 0)
(133.96 0 0)
(133.99 0 0)
(134.072 0 0)
(134.22 0 0)
(134.425 0 0)
(134.531 0 0)
(134.577 0 0)
(134.585 0 0)
(134.539 0 0)
(134.449 0 0)
(134.432 0 0)
(134.451 0 0)
(134.492 0 0)
(134.588 0 0)
(134.763 0 0)
(134.957 0 0)
(135.05 0 0)
(135.086 0 0)
(135.088 0 0)
(135.031 0 0)
(134.943 0 0)
(134.932 0 0)
(134.953 0 0)
(134.989 0 0)
(135.076 0 0)
(135.228 0 0)
(135.373 0 0)
(135.448 0 0)
(135.472 0 0)
(135.469 0 0)
(135.457 0 0)
(135.473 0 0)
(135.507 0 0)
(135.594 0 0)
(135.731 0 0)
(135.836 0 0)
(135.883 0 0)
(135.89 0 0)
(135.847 0 0)
(135.791 0 0)
(135.797 0 0)
(135.822 0 0)
(135.892 0 0)
(136.022 0 0)
(136.227 0 0)
(136.346 0 0)
(136.401 0 0)
(136.414 0 0)
(136.381 0 0)
(136.306 0 0)
(136.291 0 0)
(136.312 0 0)
(136.355 0 0)
(136.454 0 0)
(136.633 0 0)
(136.798 0 0)
(136.878 0 0)
(136.905 0 0)
(136.896 0 0)
(136.825 0 0)
(136.767 0 0)
(136.777 0 0)
(136.802 0 0)
(136.873 0 0)
(137.004 0 0)
(137.206 0 0)
(137.32 0 0)
(137.372 0 0)
(137.382 0 0)
(137.338 0 0)
(137.208 0 0)
(137.141 0 0)
(137.151 0 0)
(137.177 0 0)
(137.25 0 0)
(137.387 0 0)
(137.654 0 0)
(137.887 0 0)
(137.983 0 0)
(138.021 0 0)
(138.026 0 0)
(137.969 0 0)
(137.823 0 0)
(137.753 0 0)
(137.761 0 0)
(137.785 0 0)
(137.841 0 0)
(137.954 0 0)
(138.162 0 0)
(138.348 0 0)
(138.433 0 0)
(138.464 0 0)
(138.463 0 0)
(138.405 0 0)
(138.347 0 0)
(138.354 0 0)
(138.378 0 0)
(138.441 0 0)
(138.562 0 0)
(138.763 0 0)
(138.893 0 0)
(138.953 0 0)
(138.97 0 0)
(138.943 0 0)
(138.847 0 0)
(138.795 0 0)
(138.808 0 0)
(138.833 0 0)
(138.902 0 0)
(139.029 0 0)
(139.215 0 0)
(139.322 0 0)
(139.368 0 0)
(139.377 0 0)
(139.335 0 0)
(139.265 0 0)
(139.262 0 0)
(139.284 0 0)
(139.34 0 0)
(139.453 0 0)
(139.666 0 0)
(139.852 0 0)
(139.936 0 0)
(139.966 0 0)
(139.962 0 0)
(139.887 0 0)
(139.774 0 0)
(139.756 0 0)
(139.777 0 0)
(139.815 0 0)
(139.907 0 0)
(140.077 0 0)
(140.31 0 0)
(140.422 0 0)
(140.472 0 0)
(140.484 0 0)
(140.448 0 0)
(140.342 0 0)
(140.296 0 0)
(140.311 0 0)
(140.338 0 0)
(140.409 0 0)
(140.542 0 0)
(140.761 0 0)
(140.896 0 0)
(140.958 0 0)
(140.976 0 0)
(140.956 0 0)
(140.872 0 0)
(140.829 0 0)
(140.844 0 0)
(140.871 0 0)
(140.942 0 0)
(141.073 0 0)
(141.273 0 0)
(141.388 0 0)
(141.44 0 0)
(141.454 0 0)
(141.425 0 0)
(141.363 0 0)
(141.357 0 0)
(141.379 0 0)
(141.423 0 0)
(141.519 0 0)
(141.685 0 0)
(141.814 0 0)
(141.877 0 0)
(141.896 0 0)
(141.877 0 0)
(141.806 0 0)
(141.778 0 0)
(141.797 0 0)
(141.824 0 0)
(141.89 0 0)
(142.011 0 0)
(142.164 0 0)
(142.253 0 0)
(142.288 0 0)
(142.301 0 0)
(142.309 0 0)
(142.332 0 0)
(142.379 0 0)
(142.475 0 0)
(142.576 0 0)
(142.628 0 0)
(142.64 0 0)
(142.616 0 0)
(142.601 0 0)
(142.62 0 0)
(142.667 0 0)
(142.768 0 0)
(142.952 0 0)
(143.1 0 0)
(143.17 0 0)
(143.192 0 0)
(143.174 0 0)
(143.077 0 0)
(142.99 0 0)
(142.992 0 0)
(143.016 0 0)
(143.072 0 0)
(143.185 0 0)
(143.405 0 0)
(143.636 0 0)
(143.736 0 0)
(143.777 0 0)
(143.786 0 0)
(143.739 0 0)
(143.618 0 0)
(143.566 0 0)
(143.58 0 0)
(143.605 0 0)
(143.662 0 0)
(143.773 0 0)
(143.953 0 0)
(144.069 0 0)
(144.123 0 0)
(144.138 0 0)
(144.111 0 0)
(144.058 0 0)
(144.06 0 0)
(144.083 0 0)
(144.142 0 0)
(144.259 0 0)
(144.472 0 0)
(144.636 0 0)
(144.71 0 0)
(144.735 0 0)
(144.724 0 0)
(144.637 0 0)
(144.533 0 0)
(144.525 0 0)
(144.548 0 0)
(144.591 0 0)
(144.688 0 0)
(144.873 0 0)
(145.103 0 0)
(145.209 0 0)
(145.255 0 0)
(145.266 0 0)
(145.226 0 0)
(145.112 0 0)
(145.063 0 0)
(145.078 0 0)
(145.105 0 0)
(145.172 0 0)
(145.298 0 0)
(145.524 0 0)
(145.679 0 0)
(145.75 0 0)
(145.774 0 0)
(145.764 0 0)
(145.68 0 0)
(145.588 0 0)
(145.585 0 0)
(145.609 0 0)
(145.647 0 0)
(145.738 0 0)
(145.904 0 0)
(146.115 0 0)
(146.218 0 0)
(146.262 0 0)
(146.275 0 0)
(146.247 0 0)
(146.197 0 0)
(146.199 0 0)
(146.224 0 0)
(146.258 0 0)
(146.339 0 0)
(146.459 0 0)
(146.554 0 0)
(146.594 0 0)
(146.605 0 0)
(146.602 0 0)
(146.62 0 0)
(146.654 0 0)
(146.739 0 0)
(146.882 0 0)
(147.002 0 0)
(147.059 0 0)
(147.076 0 0)
(147.053 0 0)
(146.993 0 0)
(146.987 0 0)
(147.01 0 0)
(147.051 0 0)
(147.143 0 0)
(147.293 0 0)
(147.403 0 0)
(147.454 0 0)
(147.468 0 0)
(147.448 0 0)
(147.426 0 0)
(147.444 0 0)
(147.476 0 0)
(147.56 0 0)
(147.709 0 0)
(147.868 0 0)
(147.948 0 0)
(147.977 0 0)
(147.973 0 0)
(147.91 0 0)
(147.863 0 0)
(147.877 0 0)
(147.905 0 0)
(147.977 0 0)
(148.113 0 0)
(148.339 0 0)
(148.473 0 0)
(148.533 0 0)
(148.552 0 0)
(148.528 0 0)
(148.416 0 0)
(148.315 0 0)
(148.313 0 0)
(148.337 0 0)
(148.382 0 0)
(148.482 0 0)
(148.673 0 0)
(148.902 0 0)
(149.006 0 0)
(149.05 0 0)
(149.06 0 0)
(149.017 0 0)
(148.889 0 0)
(148.825 0 0)
(148.837 0 0)
(148.864 0 0)
(148.928 0 0)
(149.052 0 0)
(149.301 0 0)
(149.555 0 0)
(149.659 0 0)
(149.703 0 0)
(149.715 0 0)
(149.673 0 0)
(149.524 0 0)
(149.406 0 0)
(149.401 0 0)
(149.425 0 0)
(149.462 0 0)
(149.55 0 0)
(149.715 0 0)
(149.982 0 0)
(150.127 0 0)
(150.193 0 0)
(150.215 0 0)
(150.203 0 0)
(150.117 0 0)
(150.028 0 0)
(150.028 0 0)
(150.052 0 0)
(150.093 0 0)
(150.185 0 0)
(150.356 0 0)
(150.54 0 0)
(150.628 0 0)
(150.662 0 0)
(150.666 0 0)
(150.61 0 0)
(150.522 0 0)
(150.514 0 0)
(150.537 0 0)
(150.577 0 0)
(150.67 0 0)
(150.844 0 0)
(151.064 0 0)
(151.168 0 0)
(151.212 0 0)
(151.224 0 0)
(151.187 0 0)
(151.086 0 0)
(151.05 0 0)
(151.069 0 0)
(151.097 0 0)
(151.162 0 0)
(151.286 0 0)
(151.49 0 0)
(151.617 0 0)
(151.675 0 0)
(151.695 0 0)
(151.678 0 0)
(151.613 0 0)
(151.593 0 0)
(151.615 0 0)
(151.646 0 0)
(151.723 0 0)
(151.862 0 0)
(152.03 0 0)
(152.118 0 0)
(152.153 0 0)
(152.159 0 0)
(152.118 0 0)
(152.08 0 0)
(152.094 0 0)
(152.12 0 0)
(152.175 0 0)
(152.284 0 0)
(152.437 0 0)
(152.532 0 0)
(152.57 0 0)
(152.58 0 0)
(152.553 0 0)
(152.537 0 0)
(152.558 0 0)
(152.59 0 0)
(152.668 0 0)
(152.81 0 0)
(152.993 0 0)
(153.088 0 0)
(153.128 0 0)
(153.139 0 0)
(153.104 0 0)
(153.02 0 0)
(152.998 0 0)
(153.018 0 0)
(153.047 0 0)
(153.076 0 0)
(153.132 0 0)
(153.239 0 0)
(153.413 0 0)
(153.533 0 0)
(153.59 0 0)
(153.61 0 0)
(153.598 0 0)
(153.57 0 0)
(153.582 0 0)
(153.609 0 0)
(153.67 0 0)
(153.787 0 0)
(153.949 0 0)
(154.044 0 0)
(154.082 0 0)
(154.089 0 0)
(154.039 0 0)
(153.961 0 0)
(153.958 0 0)
(153.982 0 0)
(154.028 0 0)
(154.126 0 0)
(154.315 0 0)
(154.521 0 0)
(154.615 0 0)
(154.654 0 0)
(154.663 0 0)
(154.618 0 0)
(154.518 0 0)
(154.495 0 0)
(154.517 0 0)
(154.547 0 0)
(154.62 0 0)
(154.754 0 0)
(154.958 0 0)
(155.07 0 0)
(155.121 0 0)
(155.137 0 0)
(155.112 0 0)
(155.038 0 0)
(155.02 0 0)
(155.043 0 0)
(155.076 0 0)
(155.156 0 0)
(155.303 0 0)
(155.489 0 0)
(155.584 0 0)
(155.623 0 0)
(155.633 0 0)
(155.592 0 0)
(155.524 0 0)
(155.524 0 0)
(155.549 0 0)
(155.594 0 0)
(155.691 0 0)
(155.873 0 0)
(156.041 0 0)
(156.119 0 0)
(156.149 0 0)
(156.147 0 0)
(156.075 0 0)
(155.953 0 0)
(155.932 0 0)
(155.954 0 0)
(155.985 0 0)
(156.059 0 0)
(156.198 0 0)
(156.461 0 0)
(156.654 0 0)
(156.737 0 0)
(156.77 0 0)
(156.777 0 0)
(156.731 0 0)
(156.631 0 0)
(156.605 0 0)
(156.624 0 0)
(156.653 0 0)
(156.685 0 0)
(156.752 0 0)
(156.869 0 0)
(156.984 0 0)
(157.046 0 0)
(157.071 0 0)
(157.088 0 0)
(157.113 0 0)
(157.162 0 0)
(157.264 0 0)
(157.401 0 0)
(157.486 0 0)
(157.519 0 0)
(157.52 0 0)
(157.464 0 0)
(157.415 0 0)
(157.428 0 0)
(157.456 0 0)
(157.517 0 0)
(157.636 0 0)
(157.839 0 0)
(157.972 0 0)
(158.032 0 0)
(158.054 0 0)
(158.042 0 0)
(157.971 0 0)
(157.936 0 0)
(157.955 0 0)
(157.983 0 0)
(158.043 0 0)
(158.159 0 0)
(158.341 0 0)
(158.452 0 0)
(158.502 0 0)
(158.52 0 0)
(158.499 0 0)
(158.448 0 0)
(158.45 0 0)
(158.475 0 0)
(158.515 0 0)
(158.603 0 0)
(158.759 0 0)
(158.892 0 0)
(158.956 0 0)
(158.981 0 0)
(158.976 0 0)
(158.944 0 0)
(158.95 0 0)
(158.976 0 0)
(159.021 0 0)
(159.117 0 0)
(159.249 0 0)
(159.337 0 0)
(159.371 0 0)
(159.376 0 0)
(159.329 0 0)
(159.29 0 0)
(159.306 0 0)
(159.335 0 0)
(159.406 0 0)
(159.539 0 0)
(159.775 0 0)
(159.926 0 0)
(159.993 0 0)
(160.018 0 0)
(160.011 0 0)
(159.928 0 0)
(159.822 0 0)
(159.813 0 0)
(159.838 0 0)
(159.869 0 0)
(159.939 0 0)
(160.07 0 0)
(160.272 0 0)
(160.387 0 0)
(160.439 0 0)
(160.458 0 0)
(160.441 0 0)
(160.388 0 0)
(160.383 0 0)
(160.408 0 0)
(160.441 0 0)
(160.519 0 0)
(160.656 0 0)
(160.785 0 0)
(160.85 0 0)
(160.875 0 0)
(160.868 0 0)
(160.83 0 0)
(160.832 0 0)
(160.858 0 0)
(160.904 0 0)
(161.001 0 0)
(161.176 0 0)
(161.313 0 0)
(161.378 0 0)
(161.402 0 0)
(161.392 0 0)
(161.318 0 0)
(161.269 0 0)
(161.284 0 0)
(161.312 0 0)
(161.368 0 0)
(161.479 0 0)
(161.68 0 0)
(161.83 0 0)
(161.898 0 0)
(161.924 0 0)
(161.92 0 0)
(161.857 0 0)
(161.805 0 0)
(161.817 0 0)
(161.845 0 0)
(161.894 0 0)
(161.993 0 0)
(162.172 0 0)
(162.313 0 0)
(162.379 0 0)
(162.405 0 0)
(162.4 0 0)
(162.343 0 0)
(162.315 0 0)
(162.335 0 0)
(162.364 0 0)
(162.428 0 0)
(162.548 0 0)
(162.725 0 0)
(162.83 0 0)
(162.874 0 0)
(162.89 0 0)
(162.865 0 0)
(162.811 0 0)
(162.814 0 0)
(162.84 0 0)
(162.881 0 0)
(162.97 0 0)
(163.129 0 0)
(163.273 0 0)
(163.343 0 0)
(163.37 0 0)
(163.368 0 0)
(163.319 0 0)
(163.296 0 0)
(163.318 0 0)
(163.348 0 0)
(163.413 0 0)
(163.536 0 0)
(163.7 0 0)
(163.791 0 0)
(163.829 0 0)
(163.841 0 0)
(163.81 0 0)
(163.777 0 0)
(163.793 0 0)
(163.821 0 0)
(163.876 0 0)
(163.983 0 0)
(164.144 0 0)
(164.246 0 0)
(164.29 0 0)
(164.307 0 0)
(164.285 0 0)
(164.25 0 0)
(164.264 0 0)
(164.292 0 0)
(164.342 0 0)
(164.443 0 0)
(164.596 0 0)
(164.698 0 0)
(164.742 0 0)
(164.758 0 0)
(164.739 0 0)
(164.716 0 0)
(164.735 0 0)
(164.764 0 0)
(164.823 0 0)
(164.938 0 0)
(165.084 0 0)
(165.169 0 0)
(165.203 0 0)
(165.212 0 0)
(165.179 0 0)
(165.158 0 0)
(165.179 0 0)
(165.209 0 0)
(165.273 0 0)
(165.394 0 0)
(165.553 0 0)
(165.642 0 0)
(165.679 0 0)
(165.691 0 0)
(165.663 0 0)
(165.636 0 0)
(165.654 0 0)
(165.683 0 0)
(165.727 0 0)
(165.82 0 0)
(165.959 0 0)
(166.058 0 0)
(166.102 0 0)
(166.121 0 0)
(166.124 0 0)
(166.14 0 0)
(166.169 0 0)
(166.213 0 0)
(166.298 0 0)
(166.383 0 0)
(166.421 0 0)
(166.436 0 0)
(166.44 0 0)
(166.462 0 0)
(166.494 0 0)
(166.568 0 0)
(166.696 0 0)
(166.811 0 0)
(166.867 0 0)
(166.889 0 0)
(166.88 0 0)
(166.852 0 0)
(166.865 0 0)
(166.893 0 0)
(166.934 0 0)
(167.022 0 0)
(167.153 0 0)
(167.249 0 0)
(167.29 0 0)
(167.309 0 0)
(167.318 0 0)
(167.343 0 0)
(167.375 0 0)
(167.448 0 0)
(167.564 0 0)
(167.658 0 0)
(167.698 0 0)
(167.712 0 0)
(167.677 0 0)
(167.622 0 0)
(167.628 0 0)
(167.656 0 0)
(167.69 0 0)
(167.77 0 0)
(167.915 0 0)
(168.13 0 0)
(168.241 0 0)
(168.291 0 0)
(168.31 0 0)
(168.29 0 0)
(168.185 0 0)
(168.102 0 0)
(168.107 0 0)
(168.135 0 0)
(168.17 0 0)
(168.249 0 0)
(168.395 0 0)
(168.644 0 0)
(168.79 0 0)
(168.855 0 0)
(168.882 0 0)
(168.883 0 0)
(168.825 0 0)
(168.757 0 0)
(168.761 0 0)
(168.788 0 0)
(168.819 0 0)
(168.87 0 0)
(168.97 0 0)
(169.123 0 0)
(169.227 0 0)
(169.273 0 0)
(169.294 0 0)
(169.297 0 0)
(169.311 0 0)
(169.339 0 0)
(169.376 0 0)
(169.453 0 0)
(169.546 0 0)
(169.597 0 0)
(169.619 0 0)
(169.622 0 0)
(169.637 0 0)
(169.666 0 0)
(169.72 0 0)
(169.825 0 0)
(169.956 0 0)
(170.031 0 0)
(170.061 0 0)
(170.066 0 0)
(170.035 0 0)
(170.034 0 0)
(170.061 0 0)
(170.097 0 0)
(170.18 0 0)
(170.325 0 0)
(170.452 0 0)
(170.513 0 0)
(170.538 0 0)
(170.533 0 0)
(170.487 0 0)
(170.481 0 0)
(170.507 0 0)
(170.542 0 0)
(170.62 0 0)
(170.765 0 0)
(170.931 0 0)
(171.015 0 0)
(171.05 0 0)
(171.06 0 0)
(171.019 0 0)
(170.954 0 0)
(170.957 0 0)
(170.985 0 0)
(171.018 0 0)
(171.09 0 0)
(171.222 0 0)
(171.395 0 0)
(171.487 0 0)
(171.526 0 0)
(171.545 0 0)
(171.548 0 0)
(171.567 0 0)
(171.597 0 0)
(171.653 0 0)
(171.76 0 0)
(171.875 0 0)
(171.934 0 0)
(171.957 0 0)
(171.939 0 0)
(171.821 0 0)
(171.685 0 0)
(171.673 0 0)
(171.698 0 0)
(171.733 0 0)
(171.811 0 0)
(171.96 0 0)
(172.277 0 0)
(172.578 0 0)
(172.689 0 0)
(172.739 0 0)
(172.76 0 0)
(172.745 0 0)
(172.633 0 0)
(172.449 0 0)
(172.404 0 0)
(172.422 0 0)
(172.453 0 0)
(172.49 0 0)
(172.573 0 0)
(172.727 0 0)
(172.987 0 0)
(173.134 0 0)
(173.198 0 0)
(173.226 0 0)
(173.227 0 0)
(173.164 0 0)
(173.076 0 0)
(173.073 0 0)
(173.1 0 0)
(173.131 0 0)
(173.195 0 0)
(173.315 0 0)
(173.513 0 0)
(173.633 0 0)
(173.688 0 0)
(173.711 0 0)
(173.703 0 0)
(173.643 0 0)
(173.62 0 0)
(173.643 0 0)
(173.673 0 0)
(173.729 0 0)
(173.837 0 0)
(174.01 0 0)
(174.121 0 0)
(174.171 0 0)
(174.192 0 0)
(174.179 0 0)
(174.126 0 0)
(174.124 0 0)
(174.151 0 0)
(174.185 0 0)
(174.261 0 0)
(174.401 0 0)
(174.568 0 0)
(174.654 0 0)
(174.69 0 0)
(174.702 0 0)
(174.664 0 0)
(174.601 0 0)
(174.604 0 0)
(174.633 0 0)
(174.669 0 0)
(174.75 0 0)
(174.899 0 0)
(175.085 0 0)
(175.176 0 0)
(175.215 0 0)
(175.231 0 0)
(175.201 0 0)
(175.132 0 0)
(175.127 0 0)
(175.154 0 0)
(175.187 0 0)
(175.258 0 0)
(175.391 0 0)
(175.576 0 0)
(175.676 0 0)
(175.718 0 0)
(175.737 0 0)
(175.713 0 0)
(175.639 0 0)
(175.626 0 0)
(175.652 0 0)
(175.684 0 0)
(175.751 0 0)
(175.879 0 0)
(176.089 0 0)
(176.212 0 0)
(176.266 0 0)
(176.29 0 0)
(176.279 0 0)
(176.193 0 0)
(176.12 0 0)
(176.128 0 0)
(176.158 0 0)
(176.196 0 0)
(176.281 0 0)
(176.443 0 0)
(176.69 0 0)
(176.815 0 0)
(176.87 0 0)
(176.895 0 0)
(176.888 0 0)
(176.8 0 0)
(176.686 0 0)
(176.676 0 0)
(176.703 0 0)
(176.733 0 0)
(176.788 0 0)
(176.894 0 0)
(177.103 0 0)
(177.311 0 0)
(177.402 0 0)
(177.441 0 0)
(177.46 0 0)
(177.437 0 0)
(177.356 0 0)
(177.327 0 0)
(177.348 0 0)
(177.38 0 0)
(177.414 0 0)
(177.483 0 0)
(177.608 0 0)
(177.758 0 0)
(177.839 0 0)
(177.874 0 0)
(177.891 0 0)
(177.888 0 0)
(177.904 0 0)
(177.934 0 0)
(177.968 0 0)
(178.037 0 0)
(178.128 0 0)