/*--------------------------------*- C++ -*----------------------------------*\
  =========                 |
  \\      /  F ield         | OpenFOAM: The Open Source CFD Toolbox
   \\    /   O peration     | Website:  https://openfoam.org
    \\  /    A nd           | Version:  9
     \\/     M anipulation  |
\*---------------------------------------------------------------------------*/
FoamFile
{
    format      ascii;
    class       volScalarField;
    location    "0.042";
    object      mag(U);
}
// * * * * * * * * * * * * * * * * * * * * * * * * * * * * * * * * * * * * * //

dimensions      [0 1 -1 0 0 0 0];

internalField   nonuniform List<scalar> 
100
(
219.529
222.624
224.435
226.39
228.309
230.237
232.163
234.089
236.015
237.941
239.867
241.792
243.717
245.642
247.566
249.49
251.414
253.338
255.261
257.183
259.105
261.026
262.947
264.867
266.787
268.706
270.624
272.541
274.457
276.371
278.285
280.197
282.107
284.015
285.919
287.816
289.7
291.558
293.371
295.095
296.679
298.023
299.05
299.721
300.093
300.283
300.402
300.527
300.662
300.732
300.723
300.666
300.576
300.484
300.41
300.361
300.329
300.276
300.198
300.093
299.977
299.863
299.771
299.729
299.692
299.642
299.573
299.479
299.371
299.262
299.171
299.113
299.062
299.011
298.945
298.855
298.74
298.613
298.49
298.392
298.333
298.326
298.327
298.238
297.986
296.815
294.084
292.152
291.162
290.334
288.912
287.033
285.907
285.408
285.204
285.097
285.028
284.909
284.805
284.701
)
;

boundaryField
{
    sides
    {
        type            calculated;
        value           nonuniform List<scalar> 2(284.701 219.529);
    }
    empty
    {
        type            empty;
    }
}


// ************************************************************************* //
