/*--------------------------------*- C++ -*----------------------------------*\
  =========                 |
  \\      /  F ield         | OpenFOAM: The Open Source CFD Toolbox
   \\    /   O peration     | Website:  https://openfoam.org
    \\  /    A nd           | Version:  9
     \\/     M anipulation  |
\*---------------------------------------------------------------------------*/
FoamFile
{
    format      ascii;
    class       volScalarField;
    location    "0.042";
    object      T;
}
// * * * * * * * * * * * * * * * * * * * * * * * * * * * * * * * * * * * * * //

dimensions      [0 0 0 1 0 0 0];

internalField   nonuniform List<scalar> 
100
(
278.209
277.167
276.533
275.854
275.187
274.519
273.852
273.185
272.519
271.854
271.189
270.526
269.862
269.2
268.538
267.877
267.217
266.557
265.898
265.24
264.583
263.926
263.27
262.615
261.961
261.307
260.655
260.003
259.352
258.702
258.052
257.404
256.757
256.11
255.466
254.824
254.187
253.558
252.945
252.358
251.82
251.352
250.986
250.733
250.575
250.472
250.39
250.304
250.215
250.143
250.098
250.057
250.027
249.994
249.952
249.899
249.838
249.775
249.722
249.682
249.647
249.607
249.577
249.535
249.504
249.477
249.474
249.478
249.488
249.495
249.491
249.475
249.455
249.434
249.419
249.409
249.395
249.385
249.382
249.374
249.357
249.326
249.298
249.276
249.314
249.637
250.445
251.018
251.294
251.521
251.932
252.477
252.803
252.889
252.91
252.909
252.89
252.87
252.855
252.835
)
;

boundaryField
{
    sides
    {
        type            zeroGradient;
    }
    empty
    {
        type            empty;
    }
}


// ************************************************************************* //
