/*--------------------------------*- C++ -*----------------------------------*\
  =========                 |
  \\      /  F ield         | OpenFOAM: The Open Source CFD Toolbox
   \\    /   O peration     | Website:  https://openfoam.org
    \\  /    A nd           | Version:  9
     \\/     M anipulation  |
\*---------------------------------------------------------------------------*/
FoamFile
{
    format      ascii;
    class       volVectorField;
    location    "0.042";
    object      U;
}
// * * * * * * * * * * * * * * * * * * * * * * * * * * * * * * * * * * * * * //

dimensions      [0 1 -1 0 0 0 0];

internalField   nonuniform List<vector> 
100
(
(219.529 0 0)
(222.624 0 0)
(224.435 0 0)
(226.39 0 0)
(228.309 0 0)
(230.237 0 0)
(232.163 0 0)
(234.089 0 0)
(236.015 0 0)
(237.941 0 0)
(239.867 0 0)
(241.792 0 0)
(243.717 0 0)
(245.642 0 0)
(247.566 0 0)
(249.49 0 0)
(251.414 0 0)
(253.338 0 0)
(255.261 0 0)
(257.183 0 0)
(259.105 0 0)
(261.026 0 0)
(262.947 0 0)
(264.867 0 0)
(266.787 0 0)
(268.706 0 0)
(270.624 0 0)
(272.541 0 0)
(274.457 0 0)
(276.371 0 0)
(278.285 0 0)
(280.197 0 0)
(282.107 0 0)
(284.015 0 0)
(285.919 0 0)
(287.816 0 0)
(289.7 0 0)
(291.558 0 0)
(293.371 0 0)
(295.095 0 0)
(296.679 0 0)
(298.023 0 0)
(299.05 0 0)
(299.721 0 0)
(300.093 0 0)
(300.283 0 0)
(300.402 0 0)
(300.527 0 0)
(300.662 0 0)
(300.732 0 0)
(300.723 0 0)
(300.666 0 0)
(300.576 0 0)
(300.484 0 0)
(300.41 0 0)
(300.361 0 0)
(300.329 0 0)
(300.276 0 0)
(300.198 0 0)
(300.093 0 0)
(299.977 0 0)
(299.863 0 0)
(299.771 0 0)
(299.729 0 0)
(299.692 0 0)
(299.642 0 0)
(299.573 0 0)
(299.479 0 0)
(299.371 0 0)
(299.262 0 0)
(299.171 0 0)
(299.113 0 0)
(299.062 0 0)
(299.011 0 0)
(298.945 0 0)
(298.855 0 0)
(298.74 0 0)
(298.613 0 0)
(298.49 0 0)
(298.392 0 0)
(298.333 0 0)
(298.326 0 0)
(298.327 0 0)
(298.238 0 0)
(297.986 0 0)
(296.815 0 0)
(294.084 0 0)
(292.152 0 0)
(291.162 0 0)
(290.334 0 0)
(288.912 0 0)
(287.033 0 0)
(285.907 0 0)
(285.408 0 0)
(285.204 0 0)
(285.097 0 0)
(285.028 0 0)
(284.909 0 0)
(284.805 0 0)
(284.701 0 0)
)
;

boundaryField
{
    sides
    {
        type            zeroGradient;
    }
    empty
    {
        type            empty;
    }
}


// ************************************************************************* //
