/*--------------------------------*- C++ -*----------------------------------*\
  =========                 |
  \\      /  F ield         | OpenFOAM: The Open Source CFD Toolbox
   \\    /   O peration     | Website:  https://openfoam.org
    \\  /    A nd           | Version:  9
     \\/     M anipulation  |
\*---------------------------------------------------------------------------*/
FoamFile
{
    format      ascii;
    class       surfaceScalarField;
    location    "0.008";
    object      phi;
}
// * * * * * * * * * * * * * * * * * * * * * * * * * * * * * * * * * * * * * //

dimensions      [1 0 -1 0 0 0 0];

internalField   nonuniform List<scalar> 
999
(
-2.42508e-11
-2.79101e-11
-2.98357e-11
-3.1477e-11
-3.41061e-11
-3.67706e-11
-3.71543e-11
-3.83551e-11
-3.70903e-11
-3.63158e-11
-3.70051e-11
-3.9492e-11
-3.78293e-11
-3.39355e-11
-3.04965e-11
-3.10081e-11
-3.1747e-11
-2.77041e-11
-2.60201e-11
-2.97007e-11
-2.70717e-11
-2.69367e-11
-2.62759e-11
-2.4464e-11
-2.4265e-11
-2.78675e-11
-2.86704e-11
-2.84643e-11
-2.50679e-11
-2.40661e-11
-2.47979e-11
-2.41656e-11
-2.27871e-11
-2.17639e-11
-1.89218e-11
-1.52269e-11
-1.16245e-11
-1.13971e-11
-1.25553e-11
-1.0175e-11
-1.15463e-11
-1.17168e-11
-1.26406e-11
-1.004e-11
-1.031e-11
-5.69855e-12
-2.76401e-12
2.13873e-12
1.0445e-11
1.20224e-11
8.64731e-12
1.25837e-11
1.57314e-11
1.47296e-11
5.05196e-12
2.92033e-12
6.50857e-12
9.47153e-12
3.72324e-12
2.13873e-12
8.78941e-12
7.68807e-12
5.35039e-12
1.53477e-12
1.20792e-12
2.49401e-12
-2.06768e-12
-9.45022e-13
1.78346e-12
4.02878e-12
1.04379e-11
1.48006e-11
1.59446e-11
1.84315e-11
1.79341e-11
1.40901e-11
1.55964e-11
1.30811e-11
1.06866e-11
7.78044e-12
4.77485e-12
3.89377e-12
9.8197e-12
1.08002e-11
7.41096e-12
9.76286e-12
1.18021e-11
1.3813e-11
9.87654e-12
1.13047e-11
1.26903e-11
1.28395e-11
1.29674e-11
1.74154e-11
2.23892e-11
2.49187e-11
2.53237e-11
2.65175e-11
2.70717e-11
2.50253e-11
2.51887e-11
2.68869e-11
2.79101e-11
3.11786e-11
2.95017e-11
2.5004e-11
2.12736e-11
1.82467e-11
2.1096e-11
2.2311e-11
2.21192e-11
1.88223e-11
1.66622e-11
1.33653e-11
1.44809e-11
1.25766e-11
9.20153e-12
5.98988e-12
7.99361e-12
1.21929e-11
1.2534e-11
7.63123e-12
8.10019e-12
4.49063e-12
3.87246e-12
3.18323e-12
-3.19744e-13
-2.33058e-12
-3.6664e-12
-3.82983e-12
-1.62714e-12
4.1922e-13
1.91136e-12
2.28084e-12
9.49285e-12
1.56533e-11
2.05702e-11
2.93383e-11
4.41034e-11
7.46851e-11
1.29496e-10
2.29534e-10
4.2553e-10
7.95396e-10
1.49279e-09
2.80183e-09
5.24477e-09
9.78303e-09
1.8152e-08
3.34869e-08
6.1416e-08
1.11977e-07
2.02934e-07
3.65519e-07
6.54259e-07
1.16369e-06
2.05657e-06
3.61096e-06
6.29852e-06
1.09132e-05
1.87809e-05
3.20991e-05
5.44796e-05
9.18102e-05
0.000153608
0.000255125
0.000420582
0.000688098
0.0011171
0.00179933
0.00287503
0.0045563
0.00716056
0.0111575
0.017234
0.0263825
0.0400184
0.0601333
0.0894898
0.131862
0.192322
0.27757
0.396288
0.559501
0.78089
1.07702
1.46737
1.97412
2.6216
3.43518
4.43968
5.657
7.10272
8.78073
10.6769
12.7665
15.0265
17.4389
19.9883
22.6607
25.4426
28.3214
31.285
34.3221
37.4226
40.5773
43.7778
47.0168
50.2879
53.5854
56.9043
60.2403
63.5897
66.949
70.3154
73.6864
77.0597
80.4333
83.8056
87.1748
90.5398
93.8992
97.2521
100.597
103.934
107.262
110.579
113.886
117.182
120.466
123.738
126.998
130.244
133.477
136.697
139.903
143.094
146.271
149.434
152.581
155.714
158.831
161.933
165.02
168.091
171.146
174.185
177.209
180.216
183.208
186.183
189.142
192.085
195.012
197.922
200.816
203.693
206.554
209.399
212.227
215.039
217.834
220.613
223.375
226.12
228.85
231.562
234.259
236.938
239.602
242.248
244.879
247.493
250.09
252.672
255.236
257.785
260.317
262.833
265.333
267.816
270.284
272.735
275.17
277.589
279.992
282.378
284.749
287.104
289.443
291.766
294.074
296.365
298.641
300.901
303.145
305.374
307.587
309.785
311.967
314.134
316.285
318.421
320.541
322.646
324.736
326.811
328.871
330.915
332.945
334.959
336.959
338.943
340.913
342.868
344.808
346.733
348.644
350.54
352.422
354.289
356.141
357.979
359.803
361.612
363.407
365.187
366.954
368.706
370.444
372.168
373.878
375.575
377.257
378.925
380.58
382.22
383.847
385.461
387.06
388.647
390.219
391.778
393.324
394.856
396.375
397.88
399.373
400.852
402.318
403.771
405.211
406.637
408.051
409.452
410.84
412.216
413.576
414.93
416.261
417.595
418.895
420.209
421.481
422.769
424.025
425.27
426.526
427.721
428.973
430.137
431.35
432.528
433.666
434.863
435.964
437.109
438.247
439.308
440.442
441.517
442.558
443.662
444.686
445.705
446.773
447.757
448.747
449.779
450.731
451.684
452.682
453.608
454.519
455.482
456.389
457.256
458.178
459.072
459.901
460.772
461.652
462.458
463.269
464.124
464.925
465.684
466.488
467.289
468.023
468.759
469.536
470.275
470.962
471.677
472.412
473.094
473.746
474.431
475.121
475.757
476.372
477.022
477.67
478.263
478.842
479.453
480.06
480.618
481.158
481.725
482.296
482.823
483.322
483.843
484.378
484.878
485.34
485.812
486.307
486.782
487.216
487.639
488.084
488.534
488.946
489.328
489.721
490.132
490.527
490.885
491.226
491.584
491.953
492.297
492.606
492.908
493.229
493.553
493.85
494.115
494.378
494.657
494.938
495.193
495.418
495.637
495.873
496.113
496.328
496.514
496.692
496.882
497.079
497.262
497.415
497.549
497.694
497.851
497.998
498.118
498.219
498.319
498.431
498.546
498.642
498.713
498.77
498.836
498.916
498.989
499.04
499.07
499.099
499.145
499.2
499.238
499.253
499.259
499.269
499.292
499.318
499.331
499.324
499.308
499.305
499.321
499.337
499.337
499.315
499.295
499.295
499.308
499.315
499.301
499.289
499.265
499.258
499.262
499.266
499.27
499.267
499.252
499.23
499.224
499.223
499.232
499.235
499.228
499.215
499.212
499.217
499.223
499.224
499.223
499.219
499.215
499.214
499.216
499.221
499.216
499.207
499.198
499.202
499.204
499.205
499.205
499.202
499.195
499.192
499.191
499.189
499.187
499.196
499.195
499.193
499.19
499.188
499.189
499.185
499.178
499.176
499.175
499.172
499.167
499.169
499.168
499.16
499.157
499.157
499.153
499.157
499.158
499.142
499.138
499.132
499.127
499.127
499.147
499.146
499.117
499.106
499.136
499.161
499.144
499.11
499.103
499.115
499.131
499.101
499.083
499.103
499.129
499.078
499.049
499.066
499.129
499.106
499.036
499.024
499.105
499.131
499.035
499.003
499.011
499.127
499.104
498.937
498.898
498.948
499.134
499.123
498.958
498.925
498.964
499.079
499.068
498.999
498.996
499.042
499.003
498.941
498.968
499.034
498.988
498.937
498.948
498.984
498.959
498.959
499.039
498.994
498.907
498.91
498.995
498.954
498.858
498.888
499.003
498.941
498.813
498.843
499.044
498.948
498.644
498.749
499.323
499.087
498.079
497.849
497.724
497.572
497.432
498.902
499.382
499.162
498.477
498.382
498.707
498.869
498.824
498.693
498.672
498.732
498.701
498.62
498.709
498.77
498.527
498.458
498.68
498.749
498.411
498.348
498.778
498.737
498.15
498.207
498.958
498.724
497.835
497.972
498.918
498.845
497.862
497.647
498.399
498.765
498.332
497.81
497.71
498.368
498.507
497.984
497.706
497.968
498.385
497.91
497.394
498.098
498.597
496.87
496.5
499.412
499.433
494.888
494.286
499.526
501.042
496.218
493.704
495.936
499.998
498.6
494.466
493.881
498.455
499.269
494.26
492.35
496.783
499.06
495.107
492.483
492.878
497.188
497.51
492.318
486.201
477.494
456.075
432.556
408.914
389.893
377.644
365.586
351.792
341.073
335.322
330.612
325.107
319.918
316.935
317.158
316.157
313.577
311.652
311.685
312.255
311.602
310.535
311.006
311.876
310.918
309.997
311.149
312.173
310.499
309.309
311.256
312.526
310.606
309.17
310.594
312.038
311.305
309.843
310.286
311.657
311.429
310.086
310.285
311.634
311.334
309.87
310.259
311.858
311.293
309.516
310.122
312.089
311.537
309.396
309.707
311.962
311.975
309.844
309.648
311.494
311.799
310.22
309.784
311.131
311.731
310.414
309.726
310.841
311.712
310.545
309.559
310.675
311.807
310.726
309.431
310.543
312.009
311.026
309.294
310.408
312.31
311.325
309.13
309.956
312.397
311.837
309.274
309.252
311.798
312.081
310.103
309.562
310.512
311.421
310.979
309.961
310.123
311.183
311.155
310.05
310.047
311.216
311.278
310.024
309.923
311.335
311.478
309.9
309.7
311.453
311.764
309.886
309.426
311.462
312.07
309.975
309.151
311.307
312.477
310.097
308.66
311.03
313.075
310.438
307.792
310.183
313.903
312.055
307.039
307.773
314.257
315.071
307.861
306.031
310.824
315.097
313.56
307.196
306.539
313.185
314.872
310.891
307.221
308.427
313.393
313.883
308.818
307.808
310.743
312.98
312.033
309.053
308.857
311.554
312.058
310.389
309.489
310
311.209
311.058
309.798
309.81
310.859
310.992
309.882
309.744
310.623
310.925
309.87
309.616
310.325
310.783
309.842
309.436
310.052
310.64
309.756
309.049
309.742
310.66
309.607
308.694
309.394
310.423
309.347
308.142
309.104
310.479
309.069
307.539
308.226
309.844
308.403
306.858
307.149
308.52
307.882
306.238
306.108
307.318
307.108
305.296
305.283
305.754
306.896
304.21
303.877
304.197
305.07
304.458
300.986
299.145
296.76
290.331
265.808
141.643
28.1486
4.55473
0.687015
0.101067
0.0148129
0.00217149
0.000318254
4.66535e-05
6.8401e-06
1.00286e-06
1.47016e-07
2.15494e-08
3.15848e-09
4.63231e-10
6.85518e-11
1.08669e-11
2.09965e-12
7.33635e-13
8.20233e-13
2.02593e-12
2.93454e-12
2.79643e-12
3.43814e-12
3.23608e-12
3.45812e-12
3.44524e-12
3.55005e-12
4.28191e-12
4.25837e-12
4.38893e-12
3.28271e-12
2.91989e-12
2.32436e-12
1.8332e-12
2.05436e-12
2.30926e-12
2.35989e-12
1.99973e-12
2.20535e-12
2.42073e-12
2.78133e-12
2.43494e-12
2.03926e-12
1.88916e-12
1.7697e-12
2.21823e-12
1.85807e-12
2.03348e-12
1.74438e-12
1.7728e-12
1.36735e-12
9.74332e-13
1.394e-12
1.84475e-12
)
;

boundaryField
{
    sides
    {
        type            calculated;
        value           nonuniform List<scalar> 2(2.27519e-12 2.55512e-11);
    }
    empty
    {
        type            empty;
        value           nonuniform List<scalar> 0();
    }
}


// ************************************************************************* //
