/*--------------------------------*- C++ -*----------------------------------*\
  =========                 |
  \\      /  F ield         | OpenFOAM: The Open Source CFD Toolbox
   \\    /   O peration     | Website:  https://openfoam.org
    \\  /    A nd           | Version:  9
     \\/     M anipulation  |
\*---------------------------------------------------------------------------*/
FoamFile
{
    format      ascii;
    class       volScalarField;
    location    "0.017";
    object      mag(U);
}
// * * * * * * * * * * * * * * * * * * * * * * * * * * * * * * * * * * * * * //

dimensions      [0 1 -1 0 0 0 0];

internalField   nonuniform List<scalar> 
100
(
18.2998
29.6393
36.4826
44.2419
51.6212
59.1604
66.6258
74.1038
81.5138
88.9094
96.2227
103.457
110.594
117.576
124.429
131.031
137.494
143.618
149.631
155.278
160.829
166.132
171.236
176.302
181.14
185.984
190.718
195.366
200.028
204.634
209.18
213.727
218.246
222.706
227.144
231.547
235.888
240.185
244.425
248.587
252.646
256.628
260.505
264.254
267.83
271.224
274.44
277.487
280.271
282.749
284.967
286.896
288.533
289.975
291.032
291.669
292.264
292.734
292.986
293.158
293.239
293.259
293.273
293.292
293.329
293.397
293.43
293.422
293.395
293.356
293.327
293.3
293.271
293.245
293.225
293.19
293.137
293.094
293.047
292.984
292.901
292.795
292.668
292.523
292.383
292.217
291.967
291.606
291.066
290.195
288.661
285.729
279.941
268.367
243.387
222.401
222.094
218.507
218.112
218.906
)
;

boundaryField
{
    sides
    {
        type            calculated;
        value           nonuniform List<scalar> 2(218.906 18.2998);
    }
    empty
    {
        type            empty;
    }
}


// ************************************************************************* //
