/*--------------------------------*- C++ -*----------------------------------*\
  =========                 |
  \\      /  F ield         | OpenFOAM: The Open Source CFD Toolbox
   \\    /   O peration     | Website:  https://openfoam.org
    \\  /    A nd           | Version:  9
     \\/     M anipulation  |
\*---------------------------------------------------------------------------*/
FoamFile
{
    format      ascii;
    class       surfaceScalarField;
    location    "0.009";
    object      phi;
}
// * * * * * * * * * * * * * * * * * * * * * * * * * * * * * * * * * * * * * //

dimensions      [1 0 -1 0 0 0 0];

internalField   nonuniform List<scalar> 
99
(
0.00202585
0.00545949
0.0140991
0.0353657
0.085809
0.201055
0.454002
0.985778
2.05297
4.08959
7.76361
13.978
23.6862
37.0155
53.4022
72.4693
93.5943
116.064
139.221
162.534
185.611
208.179
230.055
251.119
271.294
290.532
308.807
326.107
342.431
357.781
372.187
385.6
398.222
409.658
420.64
430.424
439.158
448.11
455.137
461.408
468.333
473.785
477.351
481.376
486.091
489.229
490.299
491.456
493.95
496.408
496.912
496.046
494.876
495.706
497.083
497.177
496.633
495.605
494.646
494.196
494.319
494.427
494.454
494.185
493.158
492.418
492.078
491.931
491.805
491.797
491.27
489.122
482.397
462.437
415.236
376.8
350.602
332.901
321.102
314.295
310.838
309.115
308.498
308.634
308.798
309.644
310.348
310.928
310.152
309.784
310.005
309.784
307.6
307.729
308.642
307.262
302
298.693
284.905
)
;

boundaryField
{
    sides
    {
        type            calculated;
        value           nonuniform List<scalar> 2(210.815 -0.000911699);
    }
    empty
    {
        type            empty;
        value           nonuniform List<scalar> 0();
    }
}


// ************************************************************************* //
