/*--------------------------------*- C++ -*----------------------------------*\
  =========                 |
  \\      /  F ield         | OpenFOAM: The Open Source CFD Toolbox
   \\    /   O peration     | Website:  https://openfoam.org
    \\  /    A nd           | Version:  9
     \\/     M anipulation  |
\*---------------------------------------------------------------------------*/
FoamFile
{
    format      ascii;
    class       volScalarField;
    location    "0.046";
    object      rho;
}
// * * * * * * * * * * * * * * * * * * * * * * * * * * * * * * * * * * * * * //

dimensions      [1 -3 0 0 0 0 0];

internalField   nonuniform List<scalar> 
1000
(
0.190109
0.190097
0.190068
0.190052
0.190044
0.190034
0.190024
0.190013
0.190002
0.189992
0.189982
0.189972
0.189963
0.189953
0.189945
0.189936
0.189928
0.189921
0.189913
0.189906
0.189899
0.189892
0.189885
0.189878
0.189871
0.189863
0.189856
0.189848
0.18984
0.189832
0.189824
0.189816
0.189808
0.1898
0.189792
0.189785
0.189777
0.18977
0.189763
0.189756
0.18975
0.189743
0.189736
0.18973
0.189724
0.189717
0.189711
0.189705
0.189699
0.189694
0.189687
0.189682
0.189677
0.189671
0.189666
0.18966
0.189654
0.189649
0.189645
0.18964
0.189636
0.189632
0.189628
0.189625
0.189623
0.18962
0.189618
0.189616
0.189615
0.189613
0.189612
0.189612
0.189611
0.18961
0.189609
0.189609
0.189608
0.189608
0.189608
0.189608
0.189608
0.189608
0.189609
0.189609
0.18961
0.189611
0.189614
0.189617
0.189621
0.189626
0.189632
0.189639
0.189651
0.189663
0.189677
0.189689
0.189698
0.189707
0.189715
0.18972
0.189727
0.189734
0.189729
0.189711
0.189736
0.18976
0.18975
0.189723
0.189764
0.189788
0.189795
0.189801
0.189806
0.189812
0.189818
0.189825
0.189833
0.189842
0.189851
0.189862
0.189873
0.189885
0.189898
0.189911
0.189926
0.189942
0.189959
0.189976
0.189995
0.190015
0.190035
0.190056
0.190079
0.190102
0.190125
0.190149
0.190174
0.190199
0.190224
0.190249
0.190274
0.1903
0.190324
0.190348
0.190373
0.190397
0.190422
0.190448
0.190476
0.190505
0.190537
0.190571
0.190607
0.190645
0.190684
0.190725
0.190768
0.190813
0.190857
0.190901
0.190944
0.190988
0.191032
0.191075
0.191118
0.191159
0.191199
0.191238
0.191277
0.191315
0.191354
0.191393
0.191433
0.191475
0.191517
0.191562
0.19161
0.191662
0.191721
0.191786
0.191856
0.191928
0.192003
0.192082
0.192163
0.192249
0.19234
0.192438
0.192543
0.192659
0.192793
0.192961
0.193049
0.192422
0.192144
0.192187
0.192881
0.19308
0.193195
0.193317
0.193465
0.193614
0.193135
0.19281
0.192719
0.193041
0.19327
0.193261
0.193091
0.193137
0.193375
0.193435
0.193423
0.193338
0.193534
0.193673
0.193601
0.193581
0.193946
0.194002
0.193787
0.193937
0.194348
0.194274
0.194008
0.194363
0.194715
0.194488
0.194255
0.194787
0.195057
0.194678
0.194503
0.195157
0.195394
0.194937
0.194655
0.195284
0.195853
0.195749
0.195153
0.195018
0.19582
0.196265
0.196459
0.196019
0.195674
0.195577
0.195457
0.196281
0.196801
0.196792
0.196213
0.196047
0.196701
0.19711
0.197259
0.197394
0.197537
0.197697
0.197888
0.197888
0.197252
0.197088
0.196928
0.197476
0.198224
0.198344
0.197807
0.197547
0.197871
0.198426
0.198563
0.198666
0.198767
0.19887
0.198974
0.199078
0.199183
0.199289
0.199397
0.199505
0.199614
0.199725
0.19984
0.199966
0.200104
0.200257
0.200426
0.20061
0.200771
0.200275
0.19997
0.199879
0.199745
0.200491
0.201019
0.201197
0.20136
0.201536
0.201709
0.201341
0.201024
0.201041
0.201212
0.201061
0.201384
0.20223
0.202298
0.201671
0.201409
0.201618
0.202603
0.202835
0.202365
0.201956
0.202249
0.203061
0.203171
0.202642
0.202425
0.203118
0.203525
0.203672
0.203804
0.203946
0.204108
0.204302
0.204312
0.203658
0.203503
0.203421
0.203821
0.204112
0.204207
0.20412
0.203938
0.204572
0.204907
0.204566
0.204194
0.204854
0.205524
0.20542
0.20478
0.20463
0.205309
0.205678
0.205793
0.205893
0.205996
0.206099
0.206202
0.206309
0.206425
0.206548
0.206682
0.206832
0.207002
0.207209
0.207132
0.206453
0.20633
0.206211
0.206535
0.207094
0.207247
0.207366
0.207255
0.206916
0.207401
0.207965
0.207731
0.207244
0.207736
0.20847
0.208291
0.20772
0.207492
0.208202
0.209052
0.209136
0.208385
0.208063
0.20832
0.209432
0.20968
0.209058
0.208596
0.208796
0.209884
0.210112
0.209471
0.209045
0.209532
0.210425
0.21047
0.209733
0.209499
0.210412
0.210956
0.210633
0.210008
0.210196
0.21121
0.211355
0.210655
0.210369
0.211247
0.21179
0.211407
0.210814
0.211146
0.212106
0.212145
0.211384
0.21119
0.212198
0.212679
0.212205
0.211612
0.211818
0.212942
0.213152
0.212418
0.211992
0.212439
0.213478
0.213603
0.212803
0.212431
0.213024
0.213969
0.214007
0.213198
0.212901
0.213709
0.214381
0.214129
0.213673
0.213718
0.214076
0.214158
0.214183
0.214084
0.214225
0.21452
0.214595
0.214643
0.214616
0.214616
0.21495
0.215047
0.215064
0.214996
0.215269
0.215447
0.215482
0.215412
0.215614
0.215851
0.2159
0.215842
0.215967
0.216261
0.216322
0.216284
0.216334
0.216669
0.216748
0.216735
0.21672
0.217068
0.21718
0.217191
0.217135
0.217454
0.217617
0.21765
0.217579
0.217827
0.218058
0.218109
0.218051
0.218193
0.218503
0.218571
0.218544
0.218574
0.218943
0.21904
0.219048
0.219003
0.219357
0.219516
0.219554
0.219488
0.21975
0.220001
0.220062
0.22002
0.220137
0.220493
0.220576
0.220574
0.220565
0.220962
0.221097
0.221134
0.221072
0.221386
0.221623
0.221686
0.221644
0.221779
0.222147
0.222234
0.222243
0.222216
0.222623
0.222813
0.222888
0.222835
0.223072
0.223428
0.223532
0.223552
0.223536
0.224002
0.224202
0.224282
0.224237
0.224437
0.224878
0.225008
0.225058
0.224995
0.225432
0.225755
0.22588
0.225913
0.225872
0.226432
0.226727
0.226873
0.22696
0.226884
0.227206
0.227793
0.227998
0.228176
0.22833
0.228406
0.2282
0.228808
0.229538
0.229453
0.229019
0.229011
0.229712
0.229958
0.23005
0.229994
0.230138
0.230709
0.230845
0.230829
0.230843
0.231463
0.231663
0.231704
0.231621
0.232157
0.232509
0.232594
0.232508
0.232955
0.233441
0.233551
0.233475
0.233896
0.234457
0.234583
0.234511
0.234926
0.235524
0.235653
0.235575
0.23607
0.236681
0.236834
0.236781
0.237078
0.237884
0.238099
0.238158
0.238086
0.238917
0.239378
0.239526
0.239486
0.239677
0.240603
0.240862
0.240969
0.240864
0.241401
0.242155
0.242359
0.242442
0.242326
0.243064
0.243718
0.243926
0.244034
0.243931
0.2445
0.245363
0.245626
0.2458
0.245887
0.245786
0.246662
0.247358
0.247604
0.247771
0.247836
0.247776
0.248737
0.249242
0.249391
0.249318
0.249732
0.250598
0.250809
0.25082
0.250879
0.251855
0.25216
0.252206
0.252178
0.253098
0.253463
0.253515
0.253476
0.254368
0.254743
0.254801
0.254744
0.255615
0.256019
0.256107
0.256005
0.256767
0.25731
0.257461
0.257401
0.257659
0.25858
0.258838
0.258967
0.258898
0.259166
0.260137
0.260421
0.260597
0.260715
0.260654
0.260917
0.261906
0.262195
0.262377
0.262509
0.262542
0.262493
0.263391
0.263805
0.263954
0.263954
0.263955
0.26482
0.265137
0.265248
0.265156
0.265529
0.266235
0.266414
0.266445
0.266385
0.267158
0.267517
0.26763
0.267543
0.26787
0.268552
0.268724
0.268748
0.268696
0.269441
0.269772
0.26988
0.269794
0.27009
0.270763
0.27094
0.270999
0.270888
0.271467
0.27193
0.272072
0.272098
0.272015
0.272683
0.273042
0.27317
0.273187
0.27311
0.273763
0.274093
0.274215
0.274228
0.274156
0.274777
0.275081
0.275196
0.2752
0.275154
0.275757
0.276009
0.276111
0.276087
0.276107
0.276644
0.276789
0.276847
0.276757
0.276898
0.277311
0.277408
0.277436
0.277313
0.27758
0.277883
0.277924
0.277887
0.277814
0.278187
0.27841
0.278444
0.278352
0.278328
0.278682
0.278746
0.278784
0.278678
0.278752
0.27924
0.279236
0.279222
0.279005
0.27919
0.27959
0.279561
0.279472
0.279286
0.279493
0.279866
0.279799
0.279595
0.279548
0.280006
0.280037
0.27993
0.279855
0.279742
0.280209
0.280467
0.280242
0.279935
0.279857
0.280574
0.280857
0.280578
0.280102
0.280012
0.280896
0.281301
0.281023
0.280324
0.280183
0.281212
0.281757
0.281519
0.2806
0.280368
0.281512
0.282241
0.281998
0.280909
0.280625
0.281863
0.282696
0.282366
0.281215
0.280925
0.282273
0.283155
0.28276
0.281572
0.281266
0.282657
0.283604
0.283239
0.281972
0.281634
0.283011
0.28401
0.283649
0.282339
0.281964
0.283264
0.284377
0.284184
0.282754
0.282287
0.283187
0.284631
0.284827
0.283357
0.282689
0.282754
0.284576
0.285219
0.284579
0.283183
0.282749
0.283516
0.285058
0.285537
0.28465
0.283286
0.282853
0.283731
0.285227
0.285644
0.284324
0.283267
0.282873
0.284095
0.285384
0.285602
0.283968
0.283227
0.283051
0.284711
0.285476
0.284954
0.283741
0.283373
0.28344
0.284901
0.285083
0.283939
0.283816
0.285041
0.28504
0.283897
0.284145
0.285454
0.285138
0.283837
0.284046
0.285681
0.285829
0.284212
0.283557
0.28389
0.285782
0.286308
0.285028
0.28385
0.283441
0.284816
0.286123
0.285978
0.284202
0.283623
0.28417
0.28599
0.286351
0.28474
0.283825
0.283649
0.285517
0.286372
0.285524
0.284014
0.283572
0.284883
0.286225
0.286046
0.284227
0.283641
0.283938
0.285903
0.286419
0.285029
0.283907
0.283461
0.284412
0.286078
0.28639
0.284714
0.283854
0.283425
0.284127
0.285935
0.286427
0.285164
0.283931
0.28353
0.28334
0.285248
0.286199
0.28576
0.283938
0.283429
0.2833
0.285283
0.286146
0.285631
0.283917
0.283485
0.283089
0.284372
0.285861
0.286032
0.284158
0.28341
0.282981
0.284079
0.28571
0.285984
0.284238
0.283455
0.283035
0.283352
0.285427
0.286002
0.284758
0.283516
0.28309
0.282948
0.284979
0.285872
0.285216
0.283612
0.283191
0.282812
0.284229
0.285683
0.285784
0.28391
0.283215
0.282825
0.283939
0.285523
0.286052
0.285098
0.283605
0.283353
0.282889
0.282866
0.285117
0.285855
0.285088
0.283459
0.282782
0.283286
0.285531
0.285894
0.284212
0.283242
0.282929
0.284742
0.285909
0.284941
0.2831
0.282927
0.28484
0.285677
0.284927
0.283688
0.28292
0.28419
0.286124
0.285533
0.282911
0.283199
0.285437
)
;

boundaryField
{
    sides
    {
        type            calculated;
        value           nonuniform List<scalar> 2(0.285437 0.190109);
    }
    empty
    {
        type            empty;
    }
}


// ************************************************************************* //
