/*--------------------------------*- C++ -*----------------------------------*\
  =========                 |
  \\      /  F ield         | OpenFOAM: The Open Source CFD Toolbox
   \\    /   O peration     | Website:  https://openfoam.org
    \\  /    A nd           | Version:  9
     \\/     M anipulation  |
\*---------------------------------------------------------------------------*/
FoamFile
{
    format      ascii;
    class       volScalarField;
    location    "0.025";
    object      ddt0(p);
}
// * * * * * * * * * * * * * * * * * * * * * * * * * * * * * * * * * * * * * //

dimensions      [1 -1 -3 0 0 0 0];

internalField   nonuniform List<scalar> 
100
(
-2.08554e+06
-2.06962e+06
-2.05549e+06
-2.04395e+06
-2.03112e+06
-2.01831e+06
-2.00535e+06
-1.99301e+06
-1.97981e+06
-1.96751e+06
-1.95419e+06
-1.94087e+06
-1.92895e+06
-1.91425e+06
-1.90273e+06
-1.88898e+06
-1.87464e+06
-1.86411e+06
-1.85035e+06
-1.83455e+06
-1.82327e+06
-1.81349e+06
-1.79932e+06
-1.77905e+06
-1.77124e+06
-1.7624e+06
-1.74732e+06
-1.72653e+06
-1.7182e+06
-1.71153e+06
-1.69401e+06
-1.67767e+06
-1.66867e+06
-1.65508e+06
-1.64731e+06
-1.63089e+06
-1.61186e+06
-1.60546e+06
-1.58961e+06
-1.58168e+06
-1.55879e+06
-1.54947e+06
-1.53668e+06
-1.51425e+06
-1.40483e+06
-1.43947e+06
-1.31317e+06
-1.59283e+06
-1.34889e+06
-1.39726e+06
-1.1195e+06
-1.4325e+06
-1.39374e+06
-734388
-29312.1
-2.09817e+06
-1.32497e+06
412040
-639168
-3.30489e+06
-329616
543088
666029
-4.92608e+06
-709039
-438996
-359452
-289090
-302537
-326792
-406747
-439189
874449
2.19433e+06
-2.1206e+06
-1.39332e+06
-425554
2.70419e+06
692012
-3.17616e+06
-843369
-612448
3.85108e+06
873495
-3.14022e+06
-785892
-849065
1.57723e+06
3.08819e+06
-701078
-3.15082e+06
267865
3.0278e+06
-501778
-2.74249e+06
1.73203e+06
2.91519e+06
-3.55714e+06
-3.48068e+06
3.19534e+06
)
;

boundaryField
{
    sides
    {
        type            calculated;
        value           nonuniform List<scalar> 2(3.19534e+06 -2.08554e+06);
    }
    empty
    {
        type            empty;
    }
}


// ************************************************************************* //
