/*--------------------------------*- C++ -*----------------------------------*\
  =========                 |
  \\      /  F ield         | OpenFOAM: The Open Source CFD Toolbox
   \\    /   O peration     | Website:  https://openfoam.org
    \\  /    A nd           | Version:  9
     \\/     M anipulation  |
\*---------------------------------------------------------------------------*/
FoamFile
{
    format      ascii;
    class       surfaceScalarField;
    location    "0.025";
    object      ddtCorrDdt0(phi);
}
// * * * * * * * * * * * * * * * * * * * * * * * * * * * * * * * * * * * * * //

dimensions      [1 0 -2 0 0 0 0];

internalField   nonuniform List<scalar> 
99
(
-1876.79
-2631.04
-3383.32
-4136.5
-4900.3
-5658.95
-6405.68
-7145.58
-7872.56
-8593.21
-9322.12
-10036.2
-10739.7
-11440.3
-12135.5
-12855.1
-13517.5
-14172.1
-14911.4
-15606.2
-16166.2
-16830.1
-17596.6
-18260.1
-18759.1
-19355.4
-20159.7
-20817.1
-21265.7
-21796.3
-22599.6
-23283.4
-23730.7
-24164
-24595.7
-25538.5
-26166.2
-26413.8
-26825
-27088
-28018.2
-28676.5
-28861.6
-29141.3
-29836.2
-28393.1
-25383
-40871.6
-24881.9
-23621.8
-17541.8
-84271.3
-16301.1
6215.02
41563.9
-234487
13571.9
88750.9
-343310
-16832.4
24495.1
152426
-265773
-44224.7
-13032.8
-8857.04
-6274.35
-5626.19
-6588.3
-8658.95
-12746.1
-8753.97
214836
54398.6
-281611
-25516.8
52503.7
145396
-108842
-45355.6
-41295.8
92043.1
109356
-68071.5
-76177.6
-35660.1
-42492.5
350082
64380.6
-295400
-47145.6
216571
48287
-222065
-38733.7
261446
79457.2
-279197
-137445
)
;

boundaryField
{
    sides
    {
        type            calculated;
        value           nonuniform List<scalar> 2(33936.4 1104.61);
    }
    empty
    {
        type            empty;
        value           nonuniform List<scalar> 0();
    }
}


// ************************************************************************* //
