/*--------------------------------*- C++ -*----------------------------------*\
  =========                 |
  \\      /  F ield         | OpenFOAM: The Open Source CFD Toolbox
   \\    /   O peration     | Website:  https://openfoam.org
    \\  /    A nd           | Version:  9
     \\/     M anipulation  |
\*---------------------------------------------------------------------------*/
FoamFile
{
    format      ascii;
    class       volScalarField;
    location    "0.025";
    object      p;
}
// * * * * * * * * * * * * * * * * * * * * * * * * * * * * * * * * * * * * * //

dimensions      [1 -1 -2 0 0 0 0];

internalField   nonuniform List<scalar> 
100
(
32786.1
32681.9
32493.9
32372.9
32250
32122.9
31997.1
31871.4
31748.3
31622.3
31502
31377.3
31257.8
31136.4
31016.2
30899.4
30780.1
30663.8
30550.7
30435.6
30321.8
30212.8
30105.1
29995.5
29888.8
29787.1
29686.8
29586.5
29488.3
29395.9
29306.1
29218.4
29131.8
29050.9
28977.1
28903.1
28835.3
28770.7
28712.1
28662.6
28613.8
28575.9
28541.7
28517.1
28517.6
28519.1
28525.2
28532
28561.1
28587.2
28636.9
28668.9
28776.6
28853.1
28897.8
28913.8
29121.5
29200.8
29187.8
29399.4
29574.8
29637.4
29599.2
29762.8
29991.5
30062.7
30121.6
30158.8
30194.5
30233.5
30271.6
30321.7
30362.4
30260.6
30211.4
30372.8
30445.4
30438.9
30296.2
30337.6
30495.2
30568.6
30541
30346.8
30368.4
30536.4
30599
30655.3
30475.2
30362.8
30513.5
30639.9
30540.7
30419.6
30526.8
30636.1
30510.5
30404.5
30535.6
30825.9
)
;

boundaryField
{
    sides
    {
        type            zeroGradient;
    }
    empty
    {
        type            empty;
    }
}


// ************************************************************************* //
