/*--------------------------------*- C++ -*----------------------------------*\
  =========                 |
  \\      /  F ield         | OpenFOAM: The Open Source CFD Toolbox
   \\    /   O peration     | Website:  https://openfoam.org
    \\  /    A nd           | Version:  9
     \\/     M anipulation  |
\*---------------------------------------------------------------------------*/
FoamFile
{
    format      ascii;
    class       surfaceScalarField;
    location    "0.025";
    object      phi_0;
}
// * * * * * * * * * * * * * * * * * * * * * * * * * * * * * * * * * * * * * //

dimensions      [1 0 -1 0 0 0 0];

internalField   nonuniform List<scalar> 
99
(
78.8824
86.9617
94.9695
102.937
110.881
118.81
126.718
134.586
142.429
150.214
157.954
165.671
173.318
180.945
188.498
196.026
203.531
210.929
218.305
225.706
233.005
240.185
247.392
254.633
261.754
268.74
275.733
282.8
289.75
296.553
303.326
310.198
317.021
323.648
330.18
336.726
343.391
349.957
356.318
362.602
368.837
375.275
381.578
387.717
393.26
399.024
404.398
410.939
416.401
422.007
426.377
432.141
437.904
441.002
441.087
449.581
454.592
452.977
456.279
469.373
470.605
468.205
465.925
485.283
488.355
490.276
491.732
492.827
493.973
495.266
496.921
498.733
494.987
486.497
495.214
500.372
501.988
491.146
488.657
501.111
504.39
506.66
491.33
488.035
500.387
503.391
506.733
499.957
488.11
491.264
503.219
501.792
490.029
492.281
502.726
495.421
483.953
498.405
511.703
)
;

boundaryField
{
    sides
    {
        type            calculated;
        value           nonuniform List<scalar> 2(498.736 -70.7277);
    }
    empty
    {
        type            empty;
        value           nonuniform List<scalar> 0();
    }
}


// ************************************************************************* //
