/*--------------------------------*- C++ -*----------------------------------*\
  =========                 |
  \\      /  F ield         | OpenFOAM: The Open Source CFD Toolbox
   \\    /   O peration     | Website:  https://openfoam.org
    \\  /    A nd           | Version:  9
     \\/     M anipulation  |
\*---------------------------------------------------------------------------*/
FoamFile
{
    format      ascii;
    class       volScalarField;
    location    "0.012";
    object      mag(U);
}
// * * * * * * * * * * * * * * * * * * * * * * * * * * * * * * * * * * * * * //

dimensions      [0 1 -1 0 0 0 0];

internalField   nonuniform List<scalar> 
1000
(
1.61371e-07
6.04956e-07
1.0079e-06
1.69973e-06
2.76467e-06
4.45317e-06
7.11507e-06
1.12974e-05
1.78336e-05
2.79913e-05
4.36846e-05
6.77844e-05
0.000104567
0.000160354
0.000244428
0.000370306
0.000557527
0.000834098
0.00123984
0.00183086
0.00268555
0.00391238
0.00565997
0.00812998
0.011593
0.0164083
0.0230468
0.0321189
0.0444044
0.0608863
0.0827842
0.111587
0.149081
0.197365
0.258855
0.336265
0.432557
0.550865
0.694369
0.866133
1.06888
1.30472
1.57473
1.87853
2.21419
2.57891
2.96989
3.38469
3.8212
4.27759
4.75217
5.24338
5.74976
6.26994
6.80265
7.34673
7.90112
8.46484
9.03702
9.61688
10.2037
10.7969
11.3958
12
12.6089
13.2223
13.8398
14.4609
15.0855
15.7132
16.3438
16.9772
17.6131
18.2513
18.8917
19.5341
20.1785
20.8247
21.4725
22.1219
22.7728
23.4252
24.0788
24.7337
25.3898
26.047
26.7053
27.3645
28.0248
28.686
29.348
30.0109
30.6745
31.3389
32.0041
32.6699
33.3364
34.0035
34.6713
35.3396
36.0085
36.6779
37.3478
38.0183
38.6892
39.3606
40.0324
40.7047
41.3773
42.0504
42.7239
43.3977
44.0719
44.7464
45.4213
46.0965
46.772
47.4478
48.1239
48.8003
49.477
50.154
50.8312
51.5086
52.1864
52.8643
53.5425
54.2209
54.8995
55.5784
56.2574
56.9367
57.6162
58.2958
58.9756
59.6557
60.3358
61.0162
61.6967
62.3774
63.0583
63.7393
64.4205
65.1018
65.7833
66.4649
67.1466
67.8285
68.5105
69.1926
69.8749
70.5573
71.2398
71.9224
72.6052
73.288
73.971
74.6541
75.3372
76.0205
76.7039
77.3874
78.0709
78.7546
79.4384
80.1222
80.8062
81.4902
82.1743
82.8585
83.5428
84.2271
84.9116
85.5961
86.2807
86.9653
87.6501
88.3349
89.0198
89.7047
90.3897
91.0748
91.7599
92.4451
93.1304
93.8157
94.5011
95.1865
95.872
96.5576
97.2432
97.9289
98.6146
99.3003
99.9861
100.672
101.358
102.044
102.73
103.416
104.102
104.788
105.474
106.161
106.847
107.533
108.22
108.906
109.592
110.279
110.965
111.652
112.338
113.025
113.712
114.398
115.085
115.772
116.459
117.145
117.832
118.519
119.206
119.893
120.58
121.267
121.954
122.641
123.328
124.015
124.702
125.389
126.076
126.763
127.451
128.138
128.825
129.512
130.199
130.887
131.574
132.261
132.949
133.636
134.323
135.011
135.698
136.385
137.073
137.76
138.448
139.135
139.823
140.51
141.197
141.885
142.572
143.26
143.947
144.635
145.322
146.01
146.697
147.385
148.072
148.76
149.447
150.135
150.822
151.51
152.197
152.884
153.572
154.259
154.947
155.634
156.322
157.009
157.697
158.384
159.071
159.759
160.446
161.134
161.821
162.508
163.196
163.883
164.57
165.257
165.945
166.632
167.319
168.006
168.694
169.381
170.069
170.756
171.443
172.13
172.817
173.505
174.192
174.879
175.566
176.253
176.941
177.627
178.315
179.002
179.689
180.376
181.062
181.749
182.436
183.123
183.81
184.497
185.183
185.87
186.556
187.243
187.93
188.616
189.303
189.989
190.675
191.362
192.048
192.734
193.42
194.106
194.792
195.478
196.164
196.85
197.536
198.221
198.907
199.592
200.278
200.963
201.648
202.334
203.019
203.704
204.389
205.073
205.758
206.443
207.127
207.812
208.496
209.18
209.864
210.548
211.232
211.916
212.6
213.283
213.966
214.65
215.333
216.016
216.698
217.381
218.063
218.746
219.428
220.11
220.791
221.473
222.154
222.835
223.516
224.197
224.878
225.558
226.238
226.918
227.598
228.277
228.956
229.635
230.314
230.992
231.67
232.348
233.026
233.703
234.379
235.056
235.732
236.408
237.083
237.758
238.433
239.107
239.781
240.454
241.128
241.8
242.472
243.143
243.814
244.485
245.155
245.824
246.493
247.161
247.828
248.495
249.161
249.826
250.491
251.155
251.818
252.48
253.142
253.802
254.462
255.12
255.778
256.434
257.09
257.744
258.398
259.049
259.7
260.349
260.997
261.643
262.288
262.931
263.573
264.212
264.85
265.486
266.12
266.751
267.382
268.009
268.634
269.256
269.876
270.493
271.108
271.718
272.327
272.931
273.533
274.13
274.724
275.313
275.899
276.479
277.056
277.626
278.193
278.753
279.308
279.857
280.4
280.935
281.465
281.987
282.502
283.009
283.508
283.998
284.479
284.951
285.413
285.865
286.307
286.736
287.156
287.562
287.957
288.338
288.707
289.062
289.404
289.732
290.045
290.343
290.628
290.897
291.151
291.39
291.615
291.825
292.02
292.201
292.369
292.522
292.664
292.792
292.908
293.013
293.108
293.192
293.268
293.335
293.394
293.446
293.492
293.532
293.567
293.597
293.624
293.647
293.668
293.684
293.699
293.71
293.718
293.723
293.724
293.723
293.72
293.71
293.689
293.649
293.597
293.541
293.489
293.445
293.409
293.383
293.364
293.354
293.353
293.353
293.354
293.357
293.364
293.377
293.397
293.419
293.439
293.456
293.47
293.482
293.491
293.497
293.501
293.501
293.501
293.501
293.5
293.499
293.498
293.497
293.497
293.496
293.496
293.496
293.496
293.496
293.496
293.496
293.496
293.496
293.497
293.497
293.497
293.497
293.497
293.498
293.498
293.498
293.498
293.498
293.498
293.498
293.498
293.498
293.498
293.498
293.498
293.498
293.498
293.499
293.499
293.499
293.499
293.5
293.5
293.5
293.5
293.501
293.501
293.501
293.501
293.501
293.501
293.501
293.502
293.503
293.503
293.503
293.502
293.502
293.502
293.502
293.503
293.504
293.506
293.506
293.506
293.507
293.506
293.506
293.506
293.507
293.508
293.509
293.509
293.51
293.509
293.508
293.51
293.512
293.51
293.508
293.508
293.511
293.514
293.515
293.515
293.517
293.517
293.514
293.512
293.511
293.514
293.519
293.522
293.521
293.518
293.517
293.519
293.522
293.524
293.523
293.522
293.523
293.523
293.521
293.521
293.524
293.526
293.525
293.525
293.525
293.527
293.527
293.528
293.53
293.53
293.531
293.531
293.53
293.529
293.529
293.531
293.531
293.531
293.532
293.533
293.531
293.528
293.532
293.537
293.535
293.53
293.532
293.537
293.535
293.53
293.534
293.541
293.533
293.526
293.537
293.547
293.537
293.524
293.528
293.539
293.542
293.537
293.532
293.533
293.537
293.535
293.532
293.532
293.537
293.536
293.53
293.529
293.534
293.534
293.528
293.527
293.534
293.533
293.525
293.524
293.531
293.531
293.523
293.521
293.527
293.529
293.522
293.517
293.522
293.53
293.528
293.517
293.513
293.518
293.523
293.516
293.509
293.515
293.522
293.514
293.499
293.501
293.515
293.518
293.505
293.495
293.506
293.516
293.502
293.486
293.5
293.516
293.497
293.478
293.502
293.522
293.492
293.467
293.497
293.523
293.495
293.466
293.486
293.513
293.498
293.471
293.48
293.503
293.494
293.47
293.478
293.501
293.491
293.463
293.474
293.504
293.492
293.455
293.464
293.505
293.502
293.458
293.443
293.477
293.506
293.488
293.455
293.456
293.481
293.493
293.479
293.464
293.468
293.481
293.482
293.472
293.469
293.479
293.482
293.472
293.472
293.484
293.483
293.47
293.477
293.496
293.483
293.463
293.49
293.516
293.476
293.454
293.516
293.541
293.462
293.435
293.53
293.571
293.48
293.428
293.514
293.579
293.506
293.437
293.507
293.588
293.526
293.44
293.505
293.609
293.554
293.445
293.505
293.637
293.592
293.457
293.494
293.654
293.658
293.503
293.46
293.611
293.706
293.616
293.5
293.516
293.646
293.691
293.601
293.525
293.567
293.671
293.696
293.678
293.734
293.87
293.916
293.796
293.536
293.439
293.474
293.479
293.439
293.432
293.472
293.517
293.519
293.492
293.492
293.526
293.523
293.494
293.514
293.554
293.534
293.516
293.587
293.645
293.586
293.574
293.688
293.684
293.52
293.505
293.623
293.556
293.358
293.389
293.533
293.436
293.215
293.263
293.442
293.349
293.079
293.112
293.362
293.323
292.994
292.918
293.175
293.283
293.044
292.813
292.874
292.994
292.939
292.777
292.714
292.738
292.713
292.593
292.499
292.492
292.458
292.324
292.208
292.179
292.115
291.941
291.825
291.796
291.687
291.463
291.364
291.338
291.148
290.85
290.779
290.774
290.512
290.126
290.073
290.112
289.812
289.287
289.172
289.28
289.05
288.404
288.044
288.145
288.112
287.552
286.828
286.654
286.706
286.408
285.672
285.083
284.998
284.885
284.317
283.504
283.105
282.992
282.59
281.745
281.011
280.773
280.503
279.753
278.754
278.171
277.922
277.338
276.259
275.076
274.411
273.916
272.931
271.488
270.024
269.162
268.412
267.085
265.314
263.778
262.936
262.059
260.618
259.032
258.043
257.448
256.55
255.327
254.372
253.896
253.414
252.63
251.841
251.433
251.161
250.649
249.967
249.536
249.421
249.253
248.818
248.409
248.309
248.255
247.965
247.63
247.518
247.486
247.318
247.134
247.069
)
;

boundaryField
{
    sides
    {
        type            calculated;
        value           nonuniform List<scalar> 2(247.069 1.61371e-07);
    }
    empty
    {
        type            empty;
    }
}


// ************************************************************************* //
