/*--------------------------------*- C++ -*----------------------------------*\
  =========                 |
  \\      /  F ield         | OpenFOAM: The Open Source CFD Toolbox
   \\    /   O peration     | Website:  https://openfoam.org
    \\  /    A nd           | Version:  9
     \\/     M anipulation  |
\*---------------------------------------------------------------------------*/
FoamFile
{
    format      ascii;
    class       volScalarField;
    location    "0.012";
    object      T;
}
// * * * * * * * * * * * * * * * * * * * * * * * * * * * * * * * * * * * * * //

dimensions      [0 0 0 1 0 0 0];

internalField   nonuniform List<scalar> 
1000
(
348.432
348.432
348.432
348.432
348.432
348.432
348.432
348.432
348.432
348.432
348.432
348.432
348.432
348.432
348.432
348.432
348.432
348.432
348.432
348.431
348.431
348.431
348.43
348.429
348.428
348.426
348.423
348.42
348.416
348.409
348.401
348.391
348.377
348.359
348.336
348.307
348.271
348.227
348.174
348.11
348.034
347.946
347.845
347.731
347.606
347.47
347.324
347.169
347.006
346.836
346.659
346.475
346.287
346.093
345.895
345.692
345.486
345.276
345.064
344.848
344.63
344.41
344.187
343.963
343.737
343.51
343.281
343.051
342.82
342.587
342.354
342.119
341.884
341.648
341.412
341.174
340.936
340.698
340.459
340.219
339.979
339.739
339.498
339.257
339.015
338.773
338.531
338.288
338.046
337.803
337.56
337.316
337.073
336.829
336.585
336.341
336.096
335.852
335.607
335.363
335.118
334.873
334.628
334.383
334.138
333.892
333.647
333.402
333.156
332.911
332.665
332.42
332.174
331.928
331.683
331.437
331.191
330.945
330.7
330.454
330.208
329.962
329.716
329.471
329.225
328.979
328.733
328.487
328.242
327.996
327.75
327.505
327.259
327.013
326.768
326.522
326.276
326.031
325.785
325.54
325.295
325.049
324.804
324.558
324.313
324.068
323.823
323.578
323.333
323.088
322.843
322.598
322.353
322.108
321.863
321.618
321.374
321.129
320.884
320.64
320.396
320.151
319.907
319.663
319.418
319.174
318.93
318.686
318.442
318.198
317.954
317.711
317.467
317.223
316.98
316.736
316.493
316.25
316.006
315.763
315.52
315.277
315.034
314.791
314.548
314.305
314.063
313.82
313.577
313.335
313.093
312.85
312.608
312.366
312.124
311.882
311.64
311.398
311.156
310.914
310.673
310.431
310.19
309.948
309.707
309.466
309.225
308.984
308.743
308.502
308.261
308.02
307.78
307.539
307.299
307.058
306.818
306.578
306.338
306.098
305.858
305.618
305.378
305.138
304.899
304.659
304.42
304.18
303.941
303.702
303.463
303.224
302.985
302.746
302.507
302.268
302.03
301.791
301.553
301.315
301.076
300.838
300.6
300.362
300.124
299.887
299.649
299.411
299.174
298.936
298.699
298.462
298.225
297.988
297.751
297.514
297.277
297.04
296.804
296.567
296.331
296.095
295.858
295.622
295.386
295.15
294.915
294.679
294.443
294.208
293.972
293.737
293.502
293.267
293.032
292.797
292.562
292.327
292.092
291.858
291.623
291.389
291.155
290.921
290.687
290.452
290.22
289.984
289.753
289.515
289.29
289.043
288.829
288.569
288.373
288.091
287.92
287.615
287.46
287.15
286.985
286.704
286.494
286.27
286.002
285.824
285.537
285.344
285.104
284.848
284.663
284.383
284.18
283.954
283.688
283.502
283.243
283.008
282.81
282.541
282.329
282.112
281.848
281.646
281.417
281.158
280.961
280.721
280.473
280.272
280.032
279.785
279.585
279.345
279.099
278.898
278.66
278.414
278.209
277.979
277.73
277.521
277.297
277.05
276.831
276.618
276.371
276.144
275.935
275.697
275.459
275.25
275.023
274.781
274.562
274.349
274.108
273.878
273.667
273.44
273.2
272.983
272.768
272.532
272.3
272.089
271.866
271.628
271.406
271.194
270.965
270.731
270.514
270.299
270.067
269.837
269.624
269.406
269.174
268.947
268.735
268.515
268.283
268.059
267.848
267.627
267.397
267.174
266.963
266.743
266.514
266.292
266.08
265.862
265.635
265.412
265.2
264.985
264.76
264.537
264.324
264.111
263.89
263.666
263.451
263.24
263.023
262.8
262.583
262.373
262.16
261.939
261.72
261.509
261.3
261.084
260.865
260.651
260.444
260.233
260.017
259.801
259.593
259.386
259.176
258.961
258.749
258.544
258.34
258.13
257.918
257.71
257.508
257.305
257.097
256.889
256.685
256.486
256.286
256.082
255.877
255.678
255.483
255.287
255.087
254.887
254.692
254.501
254.31
254.116
253.921
253.732
253.547
253.363
253.176
252.988
252.805
252.627
252.451
252.273
252.095
251.92
251.75
251.584
251.418
251.252
251.087
250.927
250.774
250.622
250.469
250.318
250.172
250.033
249.897
249.763
249.63
249.5
249.378
249.261
249.148
249.037
248.928
248.825
248.729
248.64
248.552
248.467
248.387
248.312
248.246
248.184
248.124
248.066
248.013
247.967
247.926
247.889
247.853
247.819
247.79
247.765
247.746
247.727
247.708
247.69
247.676
247.667
247.66
247.652
247.642
247.634
247.629
247.627
247.625
247.622
247.618
247.617
247.618
247.619
247.622
247.626
247.634
247.644
247.659
247.676
247.693
247.707
247.719
247.724
247.729
247.733
247.735
247.735
247.735
247.734
247.731
247.727
247.722
247.716
247.711
247.706
247.702
247.698
247.696
247.696
247.695
247.695
247.695
247.695
247.696
247.697
247.698
247.698
247.698
247.698
247.699
247.7
247.7
247.701
247.701
247.701
247.701
247.702
247.702
247.703
247.703
247.703
247.703
247.704
247.704
247.705
247.705
247.705
247.705
247.706
247.706
247.707
247.707
247.708
247.708
247.708
247.708
247.709
247.71
247.71
247.71
247.711
247.712
247.711
247.712
247.713
247.713
247.713
247.713
247.713
247.713
247.714
247.715
247.716
247.716
247.715
247.716
247.716
247.716
247.716
247.717
247.719
247.72
247.72
247.721
247.722
247.721
247.721
247.721
247.723
247.723
247.724
247.725
247.726
247.724
247.724
247.727
247.728
247.725
247.724
247.724
247.728
247.73
247.731
247.731
247.733
247.734
247.729
247.727
247.727
247.729
247.736
247.738
247.735
247.733
247.733
247.734
247.74
247.741
247.739
247.739
247.741
247.741
247.739
247.739
247.743
247.745
247.743
247.743
247.745
247.746
247.747
247.749
247.75
247.75
247.752
247.754
247.751
247.751
247.752
247.755
247.756
247.755
247.757
247.761
247.757
247.754
247.762
247.768
247.764
247.759
247.763
247.772
247.769
247.761
247.77
247.782
247.769
247.759
247.78
247.793
247.776
247.764
247.773
247.788
247.791
247.783
247.781
247.785
247.792
247.791
247.787
247.791
247.8
247.8
247.794
247.794
247.806
247.808
247.799
247.801
247.816
247.816
247.804
247.807
247.823
247.824
247.813
247.814
247.829
247.833
247.824
247.82
247.833
247.844
247.844
247.832
247.831
247.845
247.853
247.845
247.839
247.853
247.868
247.857
247.843
247.85
247.876
247.88
247.862
247.855
247.879
247.896
247.876
247.859
247.889
247.916
247.885
247.861
247.91
247.941
247.889
247.862
247.923
247.957
247.908
247.88
247.923
247.96
247.935
247.905
247.93
247.967
247.954
247.924
247.943
247.987
247.972
247.933
247.958
248.013
247.993
247.943
247.965
248.035
248.031
247.966
247.96
248.026
248.056
248.029
247.999
248.006
248.054
248.066
248.047
248.04
248.052
248.08
248.084
248.074
248.079
248.105
248.113
248.103
248.109
248.141
248.145
248.127
248.146
248.191
248.171
248.145
248.204
248.254
248.185
248.158
248.286
248.33
248.195
248.176
248.361
248.415
248.264
248.223
248.394
248.482
248.36
248.3
248.445
248.567
248.464
248.38
248.515
248.684
248.596
248.473
248.603
248.841
248.784
248.599
248.687
249.028
249.043
248.838
248.839
249.125
249.321
249.238
249.139
249.209
249.524
249.645
249.591
249.559
249.665
249.974
250.146
250.548
252.202
257.416
268.354
280.362
292.6
304.985
317.08
328.438
338.936
348.545
357.148
364.655
371.115
376.563
381.213
385.152
388.277
390.687
392.616
394.096
395.101
395.827
396.465
396.863
396.951
397.095
397.476
397.571
397.423
397.539
397.906
397.862
397.63
397.785
398.117
397.999
397.723
397.888
398.235
398.117
397.755
397.876
398.349
398.308
397.812
397.794
398.324
398.449
398.1
397.924
398.141
398.342
398.323
398.172
398.194
398.364
398.392
398.323
398.3
398.457
398.508
398.447
398.422
398.589
398.642
398.572
398.591
398.81
398.83
398.712
398.82
399.085
399.053
398.882
399.11
399.421
399.341
399.091
399.417
399.841
399.774
399.402
399.67
400.334
400.39
399.949
399.894
400.765
401.063
400.881
400.494
400.903
401.667
401.788
401.519
401.348
402.141
402.575
402.594
402.312
402.565
403.456
403.624
403.526
403.382
404.284
404.801
404.882
404.727
404.978
406.142
406.417
406.483
406.362
407.092
408.147
408.431
408.546
408.476
409.545
410.587
410.904
411.007
410.984
412.381
413.054
413.188
413.097
413.428
414.491
414.645
414.595
414.481
415.242
415.534
415.533
415.321
415.652
416.043
416.047
415.783
415.788
416.307
416.436
416.236
416.085
416.401
416.557
416.38
416.214
416.406
416.502
416.312
416.219
416.428
)
;

boundaryField
{
    sides
    {
        type            zeroGradient;
    }
    empty
    {
        type            empty;
    }
}


// ************************************************************************* //
