/*--------------------------------*- C++ -*----------------------------------*\
  =========                 |
  \\      /  F ield         | OpenFOAM: The Open Source CFD Toolbox
   \\    /   O peration     | Website:  https://openfoam.org
    \\  /    A nd           | Version:  9
     \\/     M anipulation  |
\*---------------------------------------------------------------------------*/
FoamFile
{
    format      ascii;
    class       surfaceScalarField;
    location    "0.031";
    object      phi;
}
// * * * * * * * * * * * * * * * * * * * * * * * * * * * * * * * * * * * * * //

dimensions      [1 0 -1 0 0 0 0];

internalField   nonuniform List<scalar> 
99
(
57.3048
62.2587
67.1539
72.0416
76.8974
81.7315
86.5509
91.3702
96.1695
100.965
105.737
110.469
115.199
119.9
124.547
129.192
133.837
138.425
142.953
147.495
152.048
156.543
160.957
165.34
169.762
174.171
178.489
182.707
186.879
191.078
195.269
199.366
203.391
207.384
211.369
215.399
219.424
223.431
227.404
231.389
235.394
239.412
243.446
247.411
251.416
255.473
259.289
262.777
267.347
270.527
274.155
277.88
281.606
285.486
289.342
292.965
296.662
300.614
304.564
308.397
312.549
316.733
320.722
324.302
328.124
332.474
336.805
341.01
344.987
349.122
353.509
358.058
362.812
367.511
372.036
376.421
380.823
385.29
389.885
394.557
399.324
404.323
409.47
414.562
419.163
422.439
423.16
420.481
402.182
401.162
404.509
409.657
410.35
416.694
426.851
436.707
445.485
454.336
462.271
)
;

boundaryField
{
    sides
    {
        type            calculated;
        value           nonuniform List<scalar> 2(464.376 -52.3092);
    }
    empty
    {
        type            empty;
        value           nonuniform List<scalar> 0();
    }
}


// ************************************************************************* //
