/*--------------------------------*- C++ -*----------------------------------*\
  =========                 |
  \\      /  F ield         | OpenFOAM: The Open Source CFD Toolbox
   \\    /   O peration     | Website:  https://openfoam.org
    \\  /    A nd           | Version:  9
     \\/     M anipulation  |
\*---------------------------------------------------------------------------*/
FoamFile
{
    format      ascii;
    class       surfaceScalarField;
    location    "0.012";
    object      phi;
}
// * * * * * * * * * * * * * * * * * * * * * * * * * * * * * * * * * * * * * //

dimensions      [1 0 -1 0 0 0 0];

internalField   nonuniform List<scalar> 
9999
(
1.02318e-11
1.06866e-11
1.06866e-11
1.02887e-11
1.04023e-11
1.05729e-11
1.00613e-11
9.77707e-12
1.0516e-11
1.06297e-11
1.03455e-11
1.02887e-11
1.04023e-11
1.11413e-11
1.17666e-11
1.23919e-11
1.24487e-11
1.35856e-11
1.42677e-11
1.47224e-11
1.5234e-11
1.60298e-11
1.59162e-11
1.64846e-11
1.58593e-11
1.56319e-11
1.52909e-11
1.55183e-11
1.54046e-11
1.49498e-11
1.4154e-11
1.42677e-11
1.44951e-11
1.45519e-11
1.43814e-11
1.42677e-11
1.42677e-11
1.36993e-11
1.42677e-11
1.42109e-11
1.42677e-11
1.44951e-11
1.44951e-11
1.40972e-11
1.40972e-11
1.40403e-11
1.36993e-11
1.3074e-11
1.33014e-11
1.33014e-11
1.30171e-11
1.21645e-11
1.17666e-11
1.11413e-11
9.60654e-12
8.2423e-12
7.67386e-12
7.61702e-12
7.56017e-12
7.21911e-12
6.9349e-12
7.3328e-12
6.59384e-12
6.36646e-12
5.96856e-12
5.79803e-12
5.57066e-12
6.08225e-12
6.25278e-12
6.48015e-12
6.30962e-12
6.25278e-12
5.79803e-12
5.68434e-12
5.45697e-12
4.718e-12
4.26326e-12
3.63798e-12
2.84217e-12
2.04636e-12
2.21689e-12
1.3074e-12
5.11591e-13
-6.82121e-13
-7.38964e-13
-1.42109e-12
-1.42109e-12
-2.38742e-12
-2.50111e-12
-2.84217e-12
-3.0127e-12
-2.72848e-12
-3.24007e-12
-3.06954e-12
-2.78533e-12
-3.0127e-12
-3.12639e-12
-2.89901e-12
-2.55795e-12
-3.06954e-12
-2.95586e-12
-2.95586e-12
-2.55795e-12
-3.0127e-12
-2.78533e-12
-2.33058e-12
-2.21689e-12
-2.16005e-12
-2.84217e-12
-3.52429e-12
-3.29692e-12
-3.35376e-12
-2.6148e-12
-2.84217e-12
-2.50111e-12
-2.33058e-12
-1.59162e-12
-1.19371e-12
-5.68434e-13
-5.11591e-13
5.68434e-14
-5.68434e-14
5.68434e-14
3.97904e-13
-1.13687e-13
-1.08002e-12
-1.93268e-12
-2.33058e-12
-2.04636e-12
-2.21689e-12
-2.21689e-12
-2.27374e-12
-2.33058e-12
-2.33058e-12
-3.12639e-12
-2.44427e-12
-2.55795e-12
-2.16005e-12
-1.87583e-12
-1.87583e-12
-1.53477e-12
-6.82121e-13
-3.97904e-13
-5.68434e-13
-5.68434e-13
-9.09495e-13
-6.82121e-13
-5.68434e-14
3.41061e-13
5.68434e-13
6.82121e-13
1.7053e-12
2.67164e-12
4.3201e-12
4.43379e-12
5.05906e-12
5.00222e-12
4.94538e-12
5.28644e-12
5.51381e-12
5.68434e-12
6.30962e-12
6.59384e-12
6.42331e-12
6.42331e-12
6.65068e-12
6.76437e-12
6.36646e-12
6.59384e-12
6.08225e-12
5.85487e-12
5.96856e-12
6.08225e-12
6.08225e-12
5.85487e-12
5.68434e-12
5.6275e-12
5.91172e-12
6.25278e-12
6.53699e-12
6.76437e-12
7.10543e-12
7.84439e-12
7.95808e-12
8.69704e-12
9.43601e-12
1.02887e-11
1.09708e-11
1.1994e-11
1.43245e-11
1.57456e-11
1.77351e-11
1.9611e-11
2.29079e-11
2.68869e-11
3.18323e-11
3.75735e-11
4.43379e-11
5.22391e-11
6.20162e-11
7.31006e-11
8.57767e-11
1.00556e-10
1.17495e-10
1.37163e-10
1.59787e-10
1.87413e-10
2.1754e-10
2.54431e-10
2.96438e-10
3.45324e-10
4.02508e-10
4.6839e-10
5.44105e-10
6.32724e-10
7.35895e-10
8.5538e-10
9.92884e-10
1.1533e-09
1.33855e-09
1.55291e-09
1.80063e-09
2.08723e-09
2.41863e-09
2.80164e-09
3.24241e-09
3.7524e-09
4.34073e-09
5.01825e-09
5.79882e-09
6.69752e-09
7.73127e-09
8.92038e-09
1.02878e-08
1.18591e-08
1.36639e-08
1.57361e-08
1.81138e-08
2.08408e-08
2.39674e-08
2.75504e-08
3.16528e-08
3.63497e-08
4.17227e-08
4.78686e-08
5.48924e-08
6.29176e-08
7.20818e-08
8.25408e-08
9.44716e-08
1.08077e-07
1.2358e-07
1.41241e-07
1.6135e-07
1.84234e-07
2.10261e-07
2.39851e-07
2.73474e-07
3.11661e-07
3.55009e-07
4.04192e-07
4.59967e-07
5.23188e-07
5.94811e-07
6.75915e-07
7.67707e-07
8.71544e-07
9.88947e-07
1.12162e-06
1.27148e-06
1.44067e-06
1.63158e-06
1.84689e-06
2.08959e-06
2.36305e-06
2.67099e-06
3.01759e-06
3.40751e-06
3.84594e-06
4.33866e-06
4.89211e-06
5.51347e-06
6.21071e-06
6.9927e-06
7.86929e-06
8.85143e-06
9.95127e-06
1.11823e-05
1.25594e-05
1.40991e-05
1.58198e-05
1.77418e-05
1.98875e-05
2.22817e-05
2.49517e-05
2.79279e-05
3.12436e-05
3.49357e-05
3.90447e-05
4.36153e-05
4.86967e-05
5.43432e-05
6.06142e-05
6.75752e-05
7.52981e-05
8.38617e-05
9.33527e-05
0.000103866
0.000115505
0.000128385
0.000142629
0.000158374
0.000175768
0.000194976
0.000216173
0.000239555
0.000265332
0.000293735
0.000325014
0.000359442
0.000397316
0.00043896
0.000484722
0.000534984
0.000590159
0.000650694
0.000717074
0.000789824
0.000869512
0.000956753
0.00105221
0.0011566
0.0012707
0.00139534
0.00153143
0.00167993
0.00184188
0.00201841
0.00221073
0.00242013
0.002648
0.00289584
0.00316524
0.00345793
0.00377573
0.00412062
0.00449469
0.00490018
0.00533949
0.00581518
0.00632997
0.00688677
0.00748865
0.00813891
0.00884104
0.00959876
0.010416
0.0112969
0.012246
0.0132679
0.0143676
0.0155503
0.0168215
0.0181872
0.0196535
0.021227
0.0229144
0.024723
0.0266604
0.0287346
0.0309539
0.0333272
0.0358637
0.0385729
0.0414651
0.0445508
0.047841
0.0513472
0.0550815
0.0590564
0.0632849
0.0677807
0.0725578
0.0776308
0.083015
0.0887261
0.0947804
0.101195
0.107987
0.115175
0.122776
0.130812
0.1393
0.148262
0.157718
0.167691
0.178201
0.189271
0.200925
0.213186
0.226079
0.239627
0.253857
0.268793
0.284462
0.30089
0.318104
0.336132
0.355001
0.374738
0.395373
0.416933
0.439448
0.462947
0.487458
0.513011
0.539635
0.56736
0.596215
0.626231
0.657435
0.689858
0.723528
0.758476
0.794729
0.832317
0.871267
0.911608
0.953368
0.996573
1.04125
1.08743
1.13513
1.18438
1.2352
1.28763
1.34167
1.39736
1.45472
1.51376
1.57451
1.63699
1.70122
1.76721
1.83499
1.90456
1.97594
2.04915
2.12421
2.20111
2.27989
2.36053
2.44307
2.5275
2.61383
2.70207
2.79222
2.8843
2.97829
3.07422
3.17207
3.27185
3.37357
3.47721
3.58278
3.69027
3.79969
3.91102
4.02427
4.13942
4.25647
4.37542
4.49625
4.61896
4.74354
4.86997
4.99825
5.12837
5.2603
5.39405
5.5296
5.66693
5.80603
5.94688
6.08948
6.2338
6.37983
6.52755
6.67695
6.82801
6.98072
7.13505
7.29099
7.44852
7.60762
7.76827
7.93046
8.09417
8.25938
8.42607
8.59422
8.76381
8.93482
9.10724
9.28105
9.45622
9.63273
9.81058
9.98973
10.1702
10.3519
10.5349
10.7191
10.9045
11.0911
11.2789
11.4678
11.6579
11.8491
12.0414
12.2349
12.4293
12.6249
12.8214
13.019
13.2176
13.4171
13.6177
13.8191
14.0216
14.2249
14.4291
14.6342
14.8402
15.0471
15.2548
15.4633
15.6726
15.8827
16.0936
16.3053
16.5177
16.7309
16.9447
17.1593
17.3746
17.5906
17.8073
18.0246
18.2426
18.4612
18.6804
18.9002
19.1207
19.3417
19.5633
19.7855
20.0082
20.2315
20.4553
20.6797
20.9045
21.1299
21.3557
21.5821
21.8089
22.0362
22.2639
22.4921
22.7207
22.9498
23.1793
23.4092
23.6395
23.8702
24.1013
24.3327
24.5646
24.7968
25.0294
25.2623
25.4956
25.7292
25.9631
26.1974
26.432
26.6668
26.902
27.1375
27.3733
27.6094
27.8458
28.0824
28.3193
28.5564
28.7939
29.0315
29.2695
29.5076
29.746
29.9846
30.2235
30.4626
30.7019
30.9414
31.1811
31.421
31.6611
31.9014
32.1419
32.3826
32.6234
32.8645
33.1057
33.3471
33.5886
33.8303
34.0722
34.3142
34.5564
34.7987
35.0412
35.2838
35.5265
35.7694
36.0124
36.2555
36.4988
36.7422
36.9857
37.2293
37.473
37.7168
37.9608
38.2048
38.4489
38.6932
38.9375
39.1819
39.4265
39.6711
39.9158
40.1605
40.4054
40.6503
40.8953
41.1404
41.3855
41.6308
41.8761
42.1214
42.3668
42.6123
42.8578
43.1034
43.3491
43.5948
43.8405
44.0863
44.3322
44.578
44.824
45.07
45.316
45.562
45.8081
46.0542
46.3004
46.5466
46.7928
47.039
47.2853
47.5316
47.7779
48.0243
48.2706
48.517
48.7634
49.0098
49.2563
49.5027
49.7492
49.9957
50.2422
50.4886
50.7351
50.9817
51.2282
51.4747
51.7212
51.9677
52.2142
52.4608
52.7073
52.9538
53.2003
53.4468
53.6933
53.9398
54.1863
54.4328
54.6792
54.9257
55.1721
55.4186
55.665
55.9114
56.1578
56.4042
56.6505
56.8968
57.1432
57.3895
57.6357
57.882
58.1282
58.3744
58.6206
58.8668
59.1129
59.359
59.6051
59.8512
60.0972
60.3432
60.5891
60.8351
61.081
61.3269
61.5727
61.8185
62.0643
62.31
62.5557
62.8014
63.047
63.2926
63.5382
63.7837
64.0292
64.2746
64.52
64.7654
65.0107
65.256
65.5012
65.7464
65.9916
66.2367
66.4817
66.7267
66.9717
67.2166
67.4615
67.7064
67.9511
68.1959
68.4406
68.6852
68.9298
69.1744
69.4188
69.6633
69.9077
70.152
70.3963
70.6406
70.8847
71.1289
71.373
71.617
71.861
72.1049
72.3488
72.5926
72.8363
73.08
73.3237
73.5673
73.8108
74.0543
74.2977
74.541
74.7843
75.0276
75.2708
75.5139
75.7569
76
76.2429
76.4858
76.7286
76.9714
77.2141
77.4567
77.6993
77.9418
78.1843
78.4267
78.669
78.9113
79.1535
79.3956
79.6377
79.8797
80.1216
80.3635
80.6053
80.8471
81.0888
81.3304
81.572
81.8135
82.0549
82.2962
82.5375
82.7788
83.0199
83.261
83.502
83.743
83.9839
84.2247
84.4654
84.7061
84.9467
85.1873
85.4278
85.6682
85.9085
86.1488
86.389
86.6291
86.8692
87.1091
87.3491
87.5889
87.8287
88.0684
88.308
88.5476
88.7871
89.0265
89.2658
89.5051
89.7443
89.9834
90.2225
90.4615
90.7004
90.9392
91.178
91.4167
91.6553
91.8938
92.1323
92.3707
92.609
92.8473
93.0854
93.3235
93.5616
93.7995
94.0374
94.2752
94.5129
94.7506
94.9882
95.2257
95.4631
95.7004
95.9377
96.1749
96.412
96.6491
96.886
97.1229
97.3597
97.5965
97.8331
98.0697
98.3062
98.5427
98.779
99.0153
99.2515
99.4876
99.7237
99.9597
100.196
100.431
100.667
100.903
101.138
101.374
101.609
101.845
102.08
102.315
102.55
102.785
103.02
103.255
103.49
103.725
103.959
104.194
104.428
104.663
104.897
105.131
105.365
105.599
105.833
106.067
106.301
106.535
106.769
107.002
107.236
107.469
107.703
107.936
108.169
108.402
108.635
108.868
109.101
109.334
109.567
109.799
110.032
110.264
110.497
110.729
110.961
111.193
111.426
111.658
111.889
112.121
112.353
112.585
112.816
113.048
113.279
113.511
113.742
113.973
114.204
114.435
114.666
114.897
115.128
115.358
115.589
115.82
116.05
116.28
116.511
116.741
116.971
117.201
117.431
117.661
117.891
118.12
118.35
118.579
118.809
119.038
119.268
119.497
119.726
119.955
120.184
120.413
120.642
120.87
121.099
121.327
121.556
121.784
122.013
122.241
122.469
122.697
122.925
123.153
123.381
123.608
123.836
124.064
124.291
124.518
124.746
124.973
125.2
125.427
125.654
125.881
126.108
126.334
126.561
126.788
127.014
127.24
127.467
127.693
127.919
128.145
128.371
128.597
128.823
129.049
129.274
129.5
129.725
129.951
130.176
130.401
130.626
130.851
131.076
131.301
131.526
131.751
131.975
132.2
132.424
132.648
132.873
133.097
133.321
133.545
133.769
133.993
134.217
134.44
134.664
134.888
135.111
135.334
135.558
135.781
136.004
136.227
136.45
136.673
136.895
137.118
137.341
137.563
137.786
138.008
138.23
138.453
138.675
138.897
139.119
139.34
139.562
139.784
140.005
140.227
140.448
140.67
140.891
141.112
141.333
141.554
141.775
141.996
142.217
142.437
142.658
142.878
143.099
143.319
143.539
143.759
143.979
144.199
144.419
144.639
144.859
145.079
145.298
145.518
145.737
145.956
146.175
146.395
146.614
146.833
147.051
147.27
147.489
147.708
147.926
148.145
148.363
148.581
148.799
149.018
149.236
149.454
149.671
149.889
150.107
150.324
150.542
150.759
150.977
151.194
151.411
151.628
151.845
152.062
152.279
152.496
152.713
152.929
153.146
153.362
153.578
153.795
154.011
154.227
154.443
154.659
154.875
155.09
155.306
155.522
155.737
155.953
156.168
156.383
156.598
156.813
157.028
157.243
157.458
157.673
157.887
158.102
158.316
158.531
158.745
158.959
159.173
159.388
159.601
159.815
160.029
160.243
160.457
160.67
160.884
161.097
161.31
161.523
161.736
161.95
162.162
162.375
162.588
162.801
163.013
163.226
163.438
163.651
163.863
164.075
164.287
164.499
164.711
164.923
165.135
165.347
165.558
165.77
165.981
166.192
166.404
166.615
166.826
167.037
167.248
167.459
167.669
167.88
168.091
168.301
168.512
168.722
168.932
169.142
169.352
169.562
169.772
169.982
170.192
170.402
170.611
170.821
171.03
171.239
171.449
171.658
171.867
172.076
172.285
172.493
172.702
172.911
173.119
173.328
173.536
173.745
173.953
174.161
174.369
174.577
174.785
174.993
175.2
175.408
175.616
175.823
176.03
176.238
176.445
176.652
176.859
177.066
177.273
177.48
177.686
177.893
178.1
178.306
178.512
178.719
178.925
179.131
179.337
179.543
179.749
179.955
180.16
180.366
180.571
180.777
180.982
181.188
181.393
181.598
181.803
182.008
182.213
182.417
182.622
182.827
183.031
183.236
183.44
183.644
183.848
184.053
184.257
184.461
184.664
184.868
185.072
185.275
185.479
185.682
185.886
186.089
186.292
186.495
186.698
186.901
187.104
187.307
187.51
187.712
187.915
188.117
188.319
188.522
188.724
188.926
189.128
189.33
189.532
189.734
189.935
190.137
190.338
190.54
190.741
190.942
191.144
191.345
191.546
191.747
191.947
192.148
192.349
192.55
192.75
192.95
193.151
193.351
193.551
193.751
193.951
194.151
194.351
194.551
194.751
194.95
195.15
195.349
195.549
195.748
195.947
196.146
196.345
196.544
196.743
196.942
197.14
197.339
197.537
197.736
197.934
198.133
198.331
198.529
198.727
198.925
199.123
199.32
199.518
199.716
199.913
200.111
200.308
200.505
200.702
200.9
201.097
201.294
201.49
201.687
201.884
202.081
202.277
202.474
202.67
202.866
203.062
203.259
203.455
203.651
203.846
204.042
204.238
204.434
204.629
204.825
205.02
205.215
205.41
205.606
205.801
205.996
206.19
206.385
206.58
206.775
206.969
207.164
207.358
207.552
207.747
207.941
208.135
208.329
208.523
208.716
208.91
209.104
209.297
209.491
209.684
209.878
210.071
210.264
210.457
210.65
210.843
211.036
211.229
211.421
211.614
211.806
211.999
212.191
212.383
212.576
212.768
212.96
213.152
213.343
213.535
213.727
213.919
214.11
214.301
214.493
214.684
214.875
215.066
215.257
215.448
215.639
215.83
216.021
216.211
216.402
216.592
216.783
216.973
217.163
217.353
217.543
217.733
217.923
218.113
218.303
218.493
218.682
218.872
219.061
219.25
219.44
219.629
219.818
220.007
220.196
220.385
220.573
220.762
220.951
221.139
221.327
221.516
221.704
221.892
222.08
222.268
222.456
222.644
222.832
223.02
223.207
223.395
223.582
223.77
223.957
224.144
224.331
224.518
224.705
224.892
225.079
225.266
225.452
225.639
225.825
226.012
226.198
226.384
226.571
226.757
226.943
227.129
227.314
227.5
227.686
227.872
228.057
228.242
228.428
228.613
228.798
228.983
229.168
229.353
229.538
229.723
229.908
230.092
230.277
230.461
230.646
230.83
231.014
231.199
231.383
231.567
231.751
231.934
232.118
232.302
232.485
232.669
232.852
233.036
233.219
233.402
233.585
233.768
233.951
234.134
234.317
234.5
234.682
234.865
235.047
235.23
235.412
235.594
235.776
235.958
236.14
236.322
236.504
236.686
236.868
237.049
237.231
237.412
237.593
237.775
237.956
238.137
238.318
238.499
238.68
238.861
239.041
239.222
239.403
239.583
239.763
239.944
240.124
240.304
240.484
240.664
240.844
241.024
241.204
241.383
241.563
241.743
241.922
242.101
242.281
242.46
242.639
242.818
242.997
243.176
243.355
243.533
243.712
243.891
244.069
244.248
244.426
244.604
244.782
244.961
245.139
245.316
245.494
245.672
245.85
246.027
246.205
246.382
246.56
246.737
246.914
247.092
247.269
247.446
247.623
247.799
247.976
248.153
248.329
248.506
248.682
248.859
249.035
249.211
249.387
249.563
249.739
249.915
250.091
250.267
250.442
250.618
250.794
250.969
251.144
251.32
251.495
251.67
251.845
252.02
252.195
252.37
252.544
252.719
252.893
253.068
253.242
253.417
253.591
253.765
253.939
254.113
254.287
254.461
254.635
254.809
254.982
255.156
255.329
255.503
255.676
255.849
256.022
256.195
256.368
256.541
256.714
256.887
257.06
257.232
257.405
257.577
257.75
257.922
258.094
258.266
258.438
258.61
258.782
258.954
259.126
259.297
259.469
259.641
259.812
259.983
260.155
260.326
260.497
260.668
260.839
261.01
261.181
261.352
261.522
261.693
261.863
262.034
262.204
262.374
262.545
262.715
262.885
263.055
263.225
263.394
263.564
263.734
263.903
264.073
264.242
264.412
264.581
264.75
264.919
265.088
265.257
265.426
265.595
265.764
265.933
266.101
266.27
266.438
266.606
266.775
266.943
267.111
267.279
267.447
267.615
267.783
267.95
268.118
268.286
268.453
268.621
268.788
268.955
269.123
269.29
269.457
269.624
269.791
269.957
270.124
270.291
270.457
270.624
270.79
270.957
271.123
271.289
271.455
271.621
271.787
271.953
272.119
272.285
272.451
272.616
272.782
272.947
273.113
273.278
273.443
273.608
273.773
273.938
274.103
274.268
274.433
274.597
274.762
274.927
275.091
275.255
275.42
275.584
275.748
275.912
276.076
276.24
276.404
276.568
276.732
276.895
277.059
277.222
277.386
277.549
277.712
277.875
278.038
278.201
278.364
278.527
278.69
278.853
279.015
279.178
279.34
279.503
279.665
279.827
279.99
280.152
280.314
280.476
280.638
280.799
280.961
281.123
281.284
281.446
281.607
281.769
281.93
282.091
282.252
282.413
282.574
282.735
282.896
283.057
283.218
283.378
283.539
283.699
283.86
284.02
284.18
284.34
284.5
284.66
284.82
284.98
285.14
285.3
285.459
285.619
285.778
285.938
286.097
286.256
286.415
286.575
286.734
286.893
287.051
287.21
287.369
287.528
287.686
287.845
288.003
288.162
288.32
288.478
288.636
288.794
288.952
289.11
289.268
289.426
289.583
289.741
289.899
290.056
290.214
290.371
290.528
290.685
290.842
290.999
291.156
291.313
291.47
291.627
291.783
291.94
292.096
292.253
292.409
292.566
292.722
292.878
293.034
293.19
293.346
293.502
293.657
293.813
293.969
294.124
294.28
294.435
294.59
294.746
294.901
295.056
295.211
295.366
295.521
295.676
295.83
295.985
296.14
296.294
296.449
296.603
296.757
296.911
297.066
297.22
297.374
297.528
297.681
297.835
297.989
298.142
298.296
298.45
298.603
298.756
298.91
299.063
299.216
299.369
299.522
299.675
299.828
299.98
300.133
300.286
300.438
300.591
300.743
300.895
301.047
301.2
301.352
301.504
301.656
301.808
301.959
302.111
302.263
302.414
302.566
302.717
302.869
303.02
303.171
303.322
303.473
303.624
303.775
303.926
304.077
304.227
304.378
304.529
304.679
304.83
304.98
305.13
305.28
305.43
305.581
305.731
305.88
306.03
306.18
306.33
306.479
306.629
306.778
306.928
307.077
307.226
307.375
307.525
307.674
307.823
307.971
308.12
308.269
308.418
308.566
308.715
308.863
309.012
309.16
309.308
309.456
309.604
309.752
309.9
310.048
310.196
310.344
310.492
310.639
310.787
310.934
311.081
311.229
311.376
311.523
311.67
311.817
311.964
312.111
312.258
312.405
312.551
312.698
312.844
312.991
313.137
313.283
313.43
313.576
313.722
313.868
314.014
314.16
314.306
314.451
314.597
314.742
314.888
315.033
315.179
315.324
315.469
315.614
315.76
315.905
316.049
316.194
316.339
316.484
316.629
316.773
316.918
317.062
317.206
317.351
317.495
317.639
317.783
317.927
318.071
318.215
318.359
318.503
318.646
318.79
318.933
319.077
319.22
319.363
319.507
319.65
319.793
319.936
320.079
320.222
320.365
320.507
320.65
320.793
320.935
321.078
321.22
321.362
321.504
321.647
321.789
321.931
322.073
322.215
322.356
322.498
322.64
322.781
322.923
323.064
323.206
323.347
323.488
323.63
323.771
323.912
324.053
324.194
324.334
324.475
324.616
324.756
324.897
325.037
325.178
325.318
325.458
325.599
325.739
325.879
326.019
326.159
326.299
326.438
326.578
326.718
326.857
326.997
327.136
327.276
327.415
327.554
327.693
327.832
327.971
328.11
328.249
328.388
328.527
328.665
328.804
328.942
329.081
329.219
329.358
329.496
329.634
329.772
329.91
330.048
330.186
330.324
330.461
330.599
330.737
330.874
331.012
331.149
331.287
331.424
331.561
331.698
331.835
331.972
332.109
332.246
332.383
332.519
332.656
332.793
332.929
333.066
333.202
333.338
333.474
333.611
333.747
333.883
334.019
334.154
334.29
334.426
334.562
334.697
334.833
334.968
335.104
335.239
335.374
335.509
335.645
335.78
335.915
336.049
336.184
336.319
336.454
336.588
336.723
336.858
336.992
337.126
337.261
337.395
337.529
337.663
337.797
337.931
338.065
338.199
338.332
338.466
338.6
338.733
338.867
339
339.133
339.267
339.4
339.533
339.666
339.799
339.932
340.065
340.198
340.33
340.463
340.596
340.728
340.861
340.993
341.125
341.257
341.39
341.522
341.654
341.786
341.918
342.049
342.181
342.313
342.445
342.576
342.708
342.839
342.97
343.102
343.233
343.364
343.495
343.626
343.757
343.888
344.019
344.149
344.28
344.411
344.541
344.672
344.802
344.932
345.063
345.193
345.323
345.453
345.583
345.713
345.843
345.973
346.102
346.232
346.362
346.491
346.621
346.75
346.879
347.009
347.138
347.267
347.396
347.525
347.654
347.783
347.912
348.04
348.169
348.297
348.426
348.554
348.683
348.811
348.939
349.068
349.196
349.324
349.452
349.58
349.707
349.835
349.963
350.09
350.218
350.346
350.473
350.6
350.728
350.855
350.982
351.109
351.236
351.363
351.49
351.617
351.744
351.87
351.997
352.124
352.25
352.377
352.503
352.629
352.755
352.882
353.008
353.134
353.26
353.386
353.511
353.637
353.763
353.889
354.014
354.14
354.265
354.39
354.516
354.641
354.766
354.891
355.016
355.141
355.266
355.391
355.516
355.64
355.765
355.89
356.014
356.139
356.263
356.387
356.511
356.636
356.76
356.884
357.008
357.132
357.256
357.379
357.503
357.627
357.75
357.874
357.997
358.121
358.244
358.367
358.49
358.613
358.737
358.859
358.982
359.105
359.228
359.351
359.473
359.596
359.719
359.841
359.963
360.086
360.208
360.33
360.452
360.574
360.696
360.818
360.94
361.062
361.184
361.305
361.427
361.549
361.67
361.791
361.913
362.034
362.155
362.276
362.397
362.518
362.639
362.76
362.881
363.002
363.123
363.243
363.364
363.484
363.605
363.725
363.845
363.966
364.086
364.206
364.326
364.446
364.566
364.686
364.805
364.925
365.045
365.164
365.284
365.403
365.523
365.642
365.761
365.88
366
366.119
366.238
366.357
366.475
366.594
366.713
366.832
366.95
367.069
367.187
367.306
367.424
367.542
367.661
367.779
367.897
368.015
368.133
368.251
368.369
368.486
368.604
368.722
368.839
368.957
369.074
369.192
369.309
369.426
369.543
369.66
369.777
369.894
370.011
370.128
370.245
370.362
370.478
370.595
370.712
370.828
370.945
371.061
371.177
371.293
371.41
371.526
371.642
371.758
371.874
371.989
372.105
372.221
372.337
372.452
372.568
372.683
372.798
372.914
373.029
373.144
373.259
373.374
373.49
373.604
373.719
373.834
373.949
374.064
374.178
374.293
374.407
374.522
374.636
374.75
374.865
374.979
375.093
375.207
375.321
375.435
375.549
375.663
375.776
375.89
376.004
376.117
376.231
376.344
376.457
376.571
376.684
376.797
376.91
377.023
377.136
377.249
377.362
377.475
377.587
377.7
377.813
377.925
378.038
378.15
378.262
378.375
378.487
378.599
378.711
378.823
378.935
379.047
379.159
379.271
379.382
379.494
379.606
379.717
379.829
379.94
380.051
380.163
380.274
380.385
380.496
380.607
380.718
380.829
380.94
381.05
381.161
381.272
381.382
381.493
381.603
381.714
381.824
381.934
382.045
382.155
382.265
382.375
382.485
382.595
382.705
382.814
382.924
383.034
383.143
383.253
383.362
383.472
383.581
383.69
383.799
383.909
384.018
384.127
384.236
384.344
384.453
384.562
384.671
384.779
384.888
384.997
385.105
385.213
385.322
385.43
385.538
385.646
385.754
385.862
385.97
386.078
386.186
386.294
386.402
386.509
386.617
386.724
386.832
386.939
387.047
387.154
387.261
387.368
387.475
387.582
387.689
387.796
387.903
388.01
388.117
388.223
388.33
388.436
388.543
388.649
388.756
388.862
388.968
389.074
389.181
389.287
389.393
389.498
389.604
389.71
389.816
389.922
390.027
390.133
390.238
390.344
390.449
390.554
390.66
390.765
390.87
390.975
391.08
391.185
391.29
391.395
391.499
391.604
391.709
391.813
391.918
392.022
392.127
392.231
392.335
392.44
392.544
392.648
392.752
392.856
392.96
393.064
393.167
393.271
393.375
393.478
393.582
393.685
393.789
393.892
393.995
394.099
394.202
394.305
394.408
394.511
394.614
394.717
394.82
394.922
395.025
395.128
395.23
395.333
395.435
395.538
395.64
395.742
395.844
395.947
396.049
396.151
396.253
396.354
396.456
396.558
396.66
396.762
396.863
396.965
397.066
397.168
397.269
397.37
397.471
397.573
397.674
397.775
397.876
397.977
398.078
398.178
398.279
398.38
398.481
398.581
398.682
398.782
398.883
398.983
399.083
399.183
399.284
399.384
399.484
399.584
399.684
399.783
399.883
399.983
400.083
400.182
400.282
400.381
400.481
400.58
400.679
400.779
400.878
400.977
401.076
401.175
401.274
401.373
401.472
401.571
401.669
401.768
401.867
401.965
402.064
402.162
402.261
402.359
402.457
402.555
402.653
402.751
402.85
402.947
403.045
403.143
403.241
403.339
403.436
403.534
403.631
403.729
403.826
403.924
404.021
404.118
404.215
404.313
404.41
404.507
404.604
404.7
404.797
404.894
404.991
405.087
405.184
405.281
405.377
405.473
405.57
405.666
405.762
405.859
405.955
406.051
406.147
406.243
406.339
406.434
406.53
406.626
406.722
406.817
406.913
407.008
407.104
407.199
407.294
407.389
407.485
407.58
407.675
407.77
407.865
407.96
408.054
408.149
408.244
408.339
408.433
408.528
408.622
408.717
408.811
408.905
409
409.094
409.188
409.282
409.376
409.47
409.564
409.658
409.751
409.845
409.939
410.032
410.126
410.219
410.313
410.406
410.5
410.593
410.686
410.779
410.872
410.965
411.058
411.151
411.244
411.337
411.43
411.522
411.615
411.707
411.8
411.892
411.985
412.077
412.169
412.262
412.354
412.446
412.538
412.63
412.722
412.814
412.905
412.997
413.089
413.181
413.272
413.364
413.455
413.547
413.638
413.729
413.82
413.912
414.003
414.094
414.185
414.276
414.367
414.457
414.548
414.639
414.73
414.82
414.911
415.001
415.092
415.182
415.272
415.363
415.453
415.543
415.633
415.723
415.813
415.903
415.993
416.083
416.172
416.262
416.352
416.441
416.531
416.62
416.71
416.799
416.888
416.977
417.067
417.156
417.245
417.334
417.423
417.512
417.6
417.689
417.778
417.867
417.955
418.044
418.132
418.221
418.309
418.397
418.486
418.574
418.662
418.75
418.838
418.926
419.014
419.102
419.19
419.277
419.365
419.453
419.54
419.628
419.715
419.803
419.89
419.978
420.065
420.152
420.239
420.326
420.413
420.5
420.587
420.674
420.761
420.847
420.934
421.021
421.107
421.194
421.28
421.367
421.453
421.539
421.625
421.712
421.798
421.884
421.97
422.056
422.142
422.228
422.313
422.399
422.485
422.57
422.656
422.741
422.827
422.912
422.998
423.083
423.168
423.253
423.338
423.423
423.509
423.593
423.678
423.763
423.848
423.932
424.017
424.102
424.186
424.271
424.355
424.44
424.524
424.608
424.693
424.777
424.861
424.945
425.029
425.113
425.197
425.281
425.364
425.448
425.532
425.615
425.699
425.782
425.866
425.949
426.032
426.116
426.199
426.282
426.365
426.448
426.531
426.614
426.697
426.78
426.863
426.945
427.028
427.111
427.193
427.276
427.358
427.441
427.523
427.605
427.688
427.77
427.852
427.934
428.016
428.098
428.18
428.262
428.343
428.425
428.507
428.588
428.67
428.751
428.833
428.914
428.996
429.077
429.158
429.239
429.321
429.402
429.483
429.564
429.644
429.725
429.806
429.887
429.968
430.048
430.129
430.209
430.29
430.37
430.451
430.531
430.611
430.691
430.771
430.852
430.932
431.012
431.092
431.171
431.251
431.331
431.411
431.49
431.57
431.649
431.729
431.808
431.888
431.967
432.046
432.126
432.205
432.284
432.363
432.442
432.521
432.6
432.679
432.757
432.836
432.915
432.993
433.072
433.151
433.229
433.307
433.386
433.464
433.542
433.621
433.699
433.777
433.855
433.933
434.011
434.089
434.166
434.244
434.322
434.4
434.477
434.555
434.632
434.71
434.787
434.864
434.942
435.019
435.096
435.173
435.25
435.327
435.404
435.481
435.558
435.635
435.711
435.788
435.865
435.941
436.018
436.094
436.171
436.247
436.323
436.4
436.476
436.552
436.628
436.704
436.78
436.856
436.932
437.008
437.084
437.159
437.235
437.311
437.386
437.462
437.537
437.613
437.688
437.763
437.839
437.914
437.989
438.064
438.139
438.214
438.289
438.364
438.439
438.513
438.588
438.663
438.737
438.812
438.886
438.961
439.035
439.11
439.184
439.258
439.332
439.407
439.481
439.555
439.629
439.703
439.776
439.85
439.924
439.998
440.071
440.145
440.219
440.292
440.365
440.439
440.512
440.586
440.659
440.732
440.805
440.878
440.951
441.024
441.097
441.17
441.243
441.316
441.388
441.461
441.534
441.606
441.679
441.751
441.823
441.896
441.968
442.04
442.113
442.185
442.257
442.329
442.401
442.473
442.545
442.616
442.688
442.76
442.832
442.903
442.975
443.046
443.118
443.189
443.261
443.332
443.403
443.474
443.545
443.617
443.688
443.759
443.83
443.9
443.971
444.042
444.113
444.183
444.254
444.325
444.395
444.466
444.536
444.606
444.677
444.747
444.817
444.887
444.958
445.028
445.098
445.168
445.238
445.307
445.377
445.447
445.517
445.586
445.656
445.725
445.795
445.864
445.934
446.003
446.072
446.142
446.211
446.28
446.349
446.418
446.487
446.556
446.625
446.694
446.762
446.831
446.9
446.968
447.037
447.106
447.174
447.242
447.311
447.379
447.447
447.516
447.584
447.652
447.72
447.788
447.856
447.924
447.992
448.059
448.127
448.195
448.263
448.33
448.398
448.465
448.533
448.6
448.667
448.735
448.802
448.869
448.936
449.003
449.07
449.137
449.204
449.271
449.338
449.405
449.472
449.538
449.605
449.671
449.738
449.804
449.871
449.937
450.004
450.07
450.136
450.202
450.268
450.334
450.4
450.466
450.532
450.598
450.664
450.73
450.796
450.861
450.927
450.992
451.058
451.123
451.189
451.254
451.32
451.385
451.45
451.515
451.58
451.645
451.71
451.775
451.84
451.905
451.97
452.035
452.099
452.164
452.229
452.293
452.358
452.422
452.487
452.551
452.615
452.68
452.744
452.808
452.872
452.936
453
453.064
453.128
453.192
453.256
453.32
453.383
453.447
453.511
453.574
453.638
453.701
453.765
453.828
453.891
453.954
454.018
454.081
454.144
454.207
454.27
454.333
454.396
454.459
454.522
454.584
454.647
454.71
454.772
454.835
454.898
454.96
455.022
455.085
455.147
455.209
455.272
455.334
455.396
455.458
455.52
455.582
455.644
455.706
455.768
455.829
455.891
455.953
456.015
456.076
456.138
456.199
456.261
456.322
456.383
456.445
456.506
456.567
456.628
456.689
456.75
456.811
456.872
456.933
456.994
457.055
457.116
457.176
457.237
457.297
457.358
457.419
457.479
457.539
457.6
457.66
457.72
457.781
457.841
457.901
457.961
458.021
458.081
458.141
458.201
458.26
458.32
458.38
458.44
458.499
458.559
458.618
458.678
458.737
458.797
458.856
458.915
458.975
459.034
459.093
459.152
459.211
459.27
459.329
459.388
459.447
459.506
459.564
459.623
459.682
459.74
459.799
459.857
459.916
459.974
460.033
460.091
460.149
460.207
460.266
460.324
460.382
460.44
460.498
460.556
460.614
460.671
460.729
460.787
460.845
460.902
460.96
461.017
461.075
461.132
461.19
461.247
461.304
461.362
461.419
461.476
461.533
461.59
461.647
461.704
461.761
461.818
461.875
461.932
461.988
462.045