/*--------------------------------*- C++ -*----------------------------------*\
  =========                 |
  \\      /  F ield         | OpenFOAM: The Open Source CFD Toolbox
   \\    /   O peration     | Website:  https://openfoam.org
    \\  /    A nd           | Version:  9
     \\/     M anipulation  |
\*---------------------------------------------------------------------------*/
FoamFile
{
    format      ascii;
    class       surfaceScalarField;
    location    "0.014";
    object      phi;
}
// * * * * * * * * * * * * * * * * * * * * * * * * * * * * * * * * * * * * * //

dimensions      [1 0 -1 0 0 0 0];

internalField   nonuniform List<scalar> 
99
(
71.1033
96.975
121.773
145.051
166.627
186.464
204.679
221.474
237.085
251.743
265.635
278.892
291.598
303.806
315.548
326.842
337.699
348.128
358.134
367.723
376.903
385.668
394.062
401.995
409.68
416.762
423.729
430.198
436.102
442.25
447.411
452.347
457.586
461.836
465.549
469.785
473.641
476.368
479.031
482.279
485.098
486.764
488.143
490.195
492.428
493.693
493.954
494.377
495.661
497.072
497.504
497.036
496.434
496.791
497.684
498.094
497.811
497.335
496.605
496.288
496.706
496.883
497.018
496.877
496.433
496.118
495.97
495.955
495.972
495.979
495.912
495.535
495.095
494.818
494.644
494.604
494.393
493.832
493.164
492.828
492.326
491.733
491.68
491.85
491.176
490.047
485.647
472.109
434.312
397.1
366.761
345.639
331.024
320.336
314.987
312.158
310.049
308.954
309.338
)
;

boundaryField
{
    sides
    {
        type            calculated;
        value           nonuniform List<scalar> 2(309.226 -44.5745);
    }
    empty
    {
        type            empty;
        value           nonuniform List<scalar> 0();
    }
}


// ************************************************************************* //
