/*--------------------------------*- C++ -*----------------------------------*\
  =========                 |
  \\      /  F ield         | OpenFOAM: The Open Source CFD Toolbox
   \\    /   O peration     | Website:  https://openfoam.org
    \\  /    A nd           | Version:  9
     \\/     M anipulation  |
\*---------------------------------------------------------------------------*/
FoamFile
{
    format      ascii;
    class       volScalarField;
    location    "0.014";
    object      T;
}
// * * * * * * * * * * * * * * * * * * * * * * * * * * * * * * * * * * * * * //

dimensions      [0 0 0 1 0 0 0];

internalField   nonuniform List<scalar> 
100
(
332.96
332.242
331.363
330.332
329.134
327.764
326.24
324.591
322.846
321.032
319.175
317.29
315.391
313.484
311.574
309.665
307.759
305.856
303.958
302.066
300.181
298.298
296.445
294.533
292.804
290.705
289.321
286.884
285.697
283.582
281.618
280.391
278.315
276.331
275.12
273.445
271.298
269.781
268.653
266.951
264.939
263.502
262.545
261.242
259.423
257.811
256.901
256.253
255.133
253.59
252.353
251.822
251.598
251.169
250.254
249.397
249.039
249.04
249.142
249.144
249.044
248.786
248.692
248.716
248.827
249.029
249.127
249.151
249.154
249.158
249.177
249.267
249.48
249.634
249.715
249.761
249.824
249.961
250.262
250.584
250.822
250.979
251.086
251.261
251.5
252.026
253.555
258.104
272.123
298.936
325.318
348.455
367.096
380.668
389.816
395.565
398.551
399.741
400.097
399.932
)
;

boundaryField
{
    sides
    {
        type            zeroGradient;
    }
    empty
    {
        type            empty;
    }
}


// ************************************************************************* //
