/*--------------------------------*- C++ -*----------------------------------*\
  =========                 |
  \\      /  F ield         | OpenFOAM: The Open Source CFD Toolbox
   \\    /   O peration     | Website:  https://openfoam.org
    \\  /    A nd           | Version:  9
     \\/     M anipulation  |
\*---------------------------------------------------------------------------*/
FoamFile
{
    format      ascii;
    class       volVectorField;
    location    "0.037";
    object      U;
}
// * * * * * * * * * * * * * * * * * * * * * * * * * * * * * * * * * * * * * //

dimensions      [0 1 -1 0 0 0 0];

internalField   nonuniform List<vector> 
10000
(
(5.44725 0 0)
(5.48721 0 0)
(5.53193 0 0)
(5.56873 0 0)
(5.60191 0 0)
(5.63523 0 0)
(5.66932 0 0)
(5.70368 0 0)
(5.73799 0 0)
(5.77224 0 0)
(5.80646 0 0)
(5.8407 0 0)
(5.87493 0 0)
(5.90917 0 0)
(5.94341 0 0)
(5.97765 0 0)
(6.01189 0 0)
(6.04613 0 0)
(6.08037 0 0)
(6.11461 0 0)
(6.14885 0 0)
(6.18309 0 0)
(6.21733 0 0)
(6.25157 0 0)
(6.28581 0 0)
(6.32005 0 0)
(6.35429 0 0)
(6.38853 0 0)
(6.42277 0 0)
(6.45702 0 0)
(6.49126 0 0)
(6.5255 0 0)
(6.55974 0 0)
(6.59398 0 0)
(6.62822 0 0)
(6.66247 0 0)
(6.69671 0 0)
(6.73095 0 0)
(6.76519 0 0)
(6.79944 0 0)
(6.83368 0 0)
(6.86792 0 0)
(6.90217 0 0)
(6.93641 0 0)
(6.97065 0 0)
(7.0049 0 0)
(7.03914 0 0)
(7.07339 0 0)
(7.10763 0 0)
(7.14188 0 0)
(7.17612 0 0)
(7.21037 0 0)
(7.24461 0 0)
(7.27886 0 0)
(7.3131 0 0)
(7.34735 0 0)
(7.38159 0 0)
(7.41584 0 0)
(7.45009 0 0)
(7.48433 0 0)
(7.51858 0 0)
(7.55282 0 0)
(7.58707 0 0)
(7.62132 0 0)
(7.65556 0 0)
(7.68981 0 0)
(7.72406 0 0)
(7.75831 0 0)
(7.79255 0 0)
(7.8268 0 0)
(7.86105 0 0)
(7.8953 0 0)
(7.92955 0 0)
(7.9638 0 0)
(7.99804 0 0)
(8.03229 0 0)
(8.06654 0 0)
(8.10079 0 0)
(8.13504 0 0)
(8.16929 0 0)
(8.20354 0 0)
(8.23779 0 0)
(8.27204 0 0)
(8.30629 0 0)
(8.34054 0 0)
(8.37479 0 0)
(8.40904 0 0)
(8.44329 0 0)
(8.47754 0 0)
(8.51179 0 0)
(8.54605 0 0)
(8.5803 0 0)
(8.61455 0 0)
(8.6488 0 0)
(8.68305 0 0)
(8.7173 0 0)
(8.75155 0 0)
(8.78581 0 0)
(8.82006 0 0)
(8.85431 0 0)
(8.88857 0 0)
(8.92282 0 0)
(8.95707 0 0)
(8.99133 0 0)
(9.02558 0 0)
(9.05984 0 0)
(9.09409 0 0)
(9.12835 0 0)
(9.1626 0 0)
(9.19686 0 0)
(9.23111 0 0)
(9.26537 0 0)
(9.29962 0 0)
(9.33388 0 0)
(9.36814 0 0)
(9.40239 0 0)
(9.43665 0 0)
(9.4709 0 0)
(9.50516 0 0)
(9.53941 0 0)
(9.57367 0 0)
(9.60793 0 0)
(9.64218 0 0)
(9.67644 0 0)
(9.7107 0 0)
(9.74495 0 0)
(9.77921 0 0)
(9.81347 0 0)
(9.84773 0 0)
(9.88198 0 0)
(9.91624 0 0)
(9.9505 0 0)
(9.98476 0 0)
(10.019 0 0)
(10.0533 0 0)
(10.0875 0 0)
(10.1218 0 0)
(10.1561 0 0)
(10.1903 0 0)
(10.2246 0 0)
(10.2588 0 0)
(10.2931 0 0)
(10.3273 0 0)
(10.3616 0 0)
(10.3959 0 0)
(10.4301 0 0)
(10.4644 0 0)
(10.4986 0 0)
(10.5329 0 0)
(10.5672 0 0)
(10.6014 0 0)
(10.6357 0 0)
(10.67 0 0)
(10.7042 0 0)
(10.7385 0 0)
(10.7727 0 0)
(10.807 0 0)
(10.8413 0 0)
(10.8755 0 0)
(10.9098 0 0)
(10.944 0 0)
(10.9783 0 0)
(11.0126 0 0)
(11.0468 0 0)
(11.0811 0 0)
(11.1154 0 0)
(11.1496 0 0)
(11.1839 0 0)
(11.2182 0 0)
(11.2524 0 0)
(11.2867 0 0)
(11.3209 0 0)
(11.3552 0 0)
(11.3895 0 0)
(11.4237 0 0)
(11.458 0 0)
(11.4923 0 0)
(11.5265 0 0)
(11.5608 0 0)
(11.5951 0 0)
(11.6293 0 0)
(11.6636 0 0)
(11.6979 0 0)
(11.7321 0 0)
(11.7664 0 0)
(11.8007 0 0)
(11.8349 0 0)
(11.8692 0 0)
(11.9035 0 0)
(11.9377 0 0)
(11.972 0 0)
(12.0063 0 0)
(12.0405 0 0)
(12.0748 0 0)
(12.1091 0 0)
(12.1433 0 0)
(12.1776 0 0)
(12.2119 0 0)
(12.2461 0 0)
(12.2804 0 0)
(12.3147 0 0)
(12.3489 0 0)
(12.3832 0 0)
(12.4175 0 0)
(12.4518 0 0)
(12.486 0 0)
(12.5203 0 0)
(12.5546 0 0)
(12.5888 0 0)
(12.6231 0 0)
(12.6574 0 0)
(12.6916 0 0)
(12.7259 0 0)
(12.7602 0 0)
(12.7945 0 0)
(12.8287 0 0)
(12.863 0 0)
(12.8973 0 0)
(12.9315 0 0)
(12.9658 0 0)
(13.0001 0 0)
(13.0344 0 0)
(13.0686 0 0)
(13.1029 0 0)
(13.1372 0 0)
(13.1715 0 0)
(13.2057 0 0)
(13.24 0 0)
(13.2743 0 0)
(13.3085 0 0)
(13.3428 0 0)
(13.3771 0 0)
(13.4114 0 0)
(13.4456 0 0)
(13.4799 0 0)
(13.5142 0 0)
(13.5485 0 0)
(13.5827 0 0)
(13.617 0 0)
(13.6513 0 0)
(13.6856 0 0)
(13.7198 0 0)
(13.7541 0 0)
(13.7884 0 0)
(13.8227 0 0)
(13.8569 0 0)
(13.8912 0 0)
(13.9255 0 0)
(13.9598 0 0)
(13.994 0 0)
(14.0283 0 0)
(14.0626 0 0)
(14.0969 0 0)
(14.1312 0 0)
(14.1654 0 0)
(14.1997 0 0)
(14.234 0 0)
(14.2683 0 0)
(14.3025 0 0)
(14.3368 0 0)
(14.3711 0 0)
(14.4054 0 0)
(14.4397 0 0)
(14.4739 0 0)
(14.5082 0 0)
(14.5425 0 0)
(14.5768 0 0)
(14.6111 0 0)
(14.6453 0 0)
(14.6796 0 0)
(14.7139 0 0)
(14.7482 0 0)
(14.7825 0 0)
(14.8167 0 0)
(14.851 0 0)
(14.8853 0 0)
(14.9196 0 0)
(14.9539 0 0)
(14.9881 0 0)
(15.0224 0 0)
(15.0567 0 0)
(15.091 0 0)
(15.1253 0 0)
(15.1595 0 0)
(15.1938 0 0)
(15.2281 0 0)
(15.2624 0 0)
(15.2967 0 0)
(15.331 0 0)
(15.3652 0 0)
(15.3995 0 0)
(15.4338 0 0)
(15.4681 0 0)
(15.5024 0 0)
(15.5367 0 0)
(15.5709 0 0)
(15.6052 0 0)
(15.6395 0 0)
(15.6738 0 0)
(15.7081 0 0)
(15.7424 0 0)
(15.7766 0 0)
(15.8109 0 0)
(15.8452 0 0)
(15.8795 0 0)
(15.9138 0 0)
(15.9481 0 0)
(15.9824 0 0)
(16.0166 0 0)
(16.0509 0 0)
(16.0852 0 0)
(16.1195 0 0)
(16.1538 0 0)
(16.1881 0 0)
(16.2224 0 0)
(16.2566 0 0)
(16.2909 0 0)
(16.3252 0 0)
(16.3595 0 0)
(16.3938 0 0)
(16.4281 0 0)
(16.4624 0 0)
(16.4967 0 0)
(16.5309 0 0)
(16.5652 0 0)
(16.5995 0 0)
(16.6338 0 0)
(16.6681 0 0)
(16.7024 0 0)
(16.7367 0 0)
(16.771 0 0)
(16.8053 0 0)
(16.8395 0 0)
(16.8738 0 0)
(16.9081 0 0)
(16.9424 0 0)
(16.9767 0 0)
(17.011 0 0)
(17.0453 0 0)
(17.0796 0 0)
(17.1139 0 0)
(17.1482 0 0)
(17.1824 0 0)
(17.2167 0 0)
(17.251 0 0)
(17.2853 0 0)
(17.3196 0 0)
(17.3539 0 0)
(17.3882 0 0)
(17.4225 0 0)
(17.4568 0 0)
(17.4911 0 0)
(17.5254 0 0)
(17.5597 0 0)
(17.5939 0 0)
(17.6282 0 0)
(17.6625 0 0)
(17.6968 0 0)
(17.7311 0 0)
(17.7654 0 0)
(17.7997 0 0)
(17.834 0 0)
(17.8683 0 0)
(17.9026 0 0)
(17.9369 0 0)
(17.9712 0 0)
(18.0055 0 0)
(18.0398 0 0)
(18.0741 0 0)
(18.1084 0 0)
(18.1426 0 0)
(18.1769 0 0)
(18.2112 0 0)
(18.2455 0 0)
(18.2798 0 0)
(18.3141 0 0)
(18.3484 0 0)
(18.3827 0 0)
(18.417 0 0)
(18.4513 0 0)
(18.4856 0 0)
(18.5199 0 0)
(18.5542 0 0)
(18.5885 0 0)
(18.6228 0 0)
(18.6571 0 0)
(18.6914 0 0)
(18.7257 0 0)
(18.76 0 0)
(18.7943 0 0)
(18.8286 0 0)
(18.8629 0 0)
(18.8972 0 0)
(18.9315 0 0)
(18.9658 0 0)
(19.0001 0 0)
(19.0344 0 0)
(19.0687 0 0)
(19.103 0 0)
(19.1373 0 0)
(19.1716 0 0)
(19.2059 0 0)
(19.2402 0 0)
(19.2745 0 0)
(19.3088 0 0)
(19.3431 0 0)
(19.3774 0 0)
(19.4117 0 0)
(19.446 0 0)
(19.4803 0 0)
(19.5146 0 0)
(19.5489 0 0)
(19.5832 0 0)
(19.6175 0 0)
(19.6518 0 0)
(19.6861 0 0)
(19.7204 0 0)
(19.7547 0 0)
(19.789 0 0)
(19.8233 0 0)
(19.8576 0 0)
(19.8919 0 0)
(19.9262 0 0)
(19.9605 0 0)
(19.9948 0 0)
(20.0291 0 0)
(20.0634 0 0)
(20.0977 0 0)
(20.132 0 0)
(20.1663 0 0)
(20.2006 0 0)
(20.2349 0 0)
(20.2692 0 0)
(20.3035 0 0)
(20.3378 0 0)
(20.3721 0 0)
(20.4064 0 0)
(20.4408 0 0)
(20.4751 0 0)
(20.5094 0 0)
(20.5437 0 0)
(20.578 0 0)
(20.6123 0 0)
(20.6466 0 0)
(20.6809 0 0)
(20.7152 0 0)
(20.7495 0 0)
(20.7838 0 0)
(20.8181 0 0)
(20.8524 0 0)
(20.8867 0 0)
(20.921 0 0)
(20.9553 0 0)
(20.9897 0 0)
(21.024 0 0)
(21.0583 0 0)
(21.0926 0 0)
(21.1269 0 0)
(21.1612 0 0)
(21.1955 0 0)
(21.2298 0 0)
(21.2641 0 0)
(21.2984 0 0)
(21.3327 0 0)
(21.367 0 0)
(21.4013 0 0)
(21.4357 0 0)
(21.47 0 0)
(21.5043 0 0)
(21.5386 0 0)
(21.5729 0 0)
(21.6072 0 0)
(21.6415 0 0)
(21.6758 0 0)
(21.7101 0 0)
(21.7444 0 0)
(21.7788 0 0)
(21.8131 0 0)
(21.8474 0 0)
(21.8817 0 0)
(21.916 0 0)
(21.9503 0 0)
(21.9846 0 0)
(22.0189 0 0)
(22.0532 0 0)
(22.0876 0 0)
(22.1219 0 0)
(22.1562 0 0)
(22.1905 0 0)
(22.2248 0 0)
(22.2591 0 0)
(22.2934 0 0)
(22.3277 0 0)
(22.3621 0 0)
(22.3964 0 0)
(22.4307 0 0)
(22.465 0 0)
(22.4993 0 0)
(22.5336 0 0)
(22.5679 0 0)
(22.6023 0 0)
(22.6366 0 0)
(22.6709 0 0)
(22.7052 0 0)
(22.7395 0 0)
(22.7738 0 0)
(22.8081 0 0)
(22.8425 0 0)
(22.8768 0 0)
(22.9111 0 0)
(22.9454 0 0)
(22.9797 0 0)
(23.014 0 0)
(23.0483 0 0)
(23.0827 0 0)
(23.117 0 0)
(23.1513 0 0)
(23.1856 0 0)
(23.2199 0 0)
(23.2542 0 0)
(23.2886 0 0)
(23.3229 0 0)
(23.3572 0 0)
(23.3915 0 0)
(23.4258 0 0)
(23.4601 0 0)
(23.4945 0 0)
(23.5288 0 0)
(23.5631 0 0)
(23.5974 0 0)
(23.6317 0 0)
(23.6661 0 0)
(23.7004 0 0)
(23.7347 0 0)
(23.769 0 0)
(23.8033 0 0)
(23.8376 0 0)
(23.872 0 0)
(23.9063 0 0)
(23.9406 0 0)
(23.9749 0 0)
(24.0092 0 0)
(24.0436 0 0)
(24.0779 0 0)
(24.1122 0 0)
(24.1465 0 0)
(24.1808 0 0)
(24.2152 0 0)
(24.2495 0 0)
(24.2838 0 0)
(24.3181 0 0)
(24.3525 0 0)
(24.3868 0 0)
(24.4211 0 0)
(24.4554 0 0)
(24.4897 0 0)
(24.5241 0 0)
(24.5584 0 0)
(24.5927 0 0)
(24.627 0 0)
(24.6613 0 0)
(24.6957 0 0)
(24.73 0 0)
(24.7643 0 0)
(24.7986 0 0)
(24.833 0 0)
(24.8673 0 0)
(24.9016 0 0)
(24.9359 0 0)
(24.9703 0 0)
(25.0046 0 0)
(25.0389 0 0)
(25.0732 0 0)
(25.1076 0 0)
(25.1419 0 0)
(25.1762 0 0)
(25.2105 0 0)
(25.2448 0 0)
(25.2792 0 0)
(25.3135 0 0)
(25.3478 0 0)
(25.3821 0 0)
(25.4165 0 0)
(25.4508 0 0)
(25.4851 0 0)
(25.5195 0 0)
(25.5538 0 0)
(25.5881 0 0)
(25.6224 0 0)
(25.6568 0 0)
(25.6911 0 0)
(25.7254 0 0)
(25.7597 0 0)
(25.7941 0 0)
(25.8284 0 0)
(25.8627 0 0)
(25.897 0 0)
(25.9314 0 0)
(25.9657 0 0)
(26 0 0)
(26.0344 0 0)
(26.0687 0 0)
(26.103 0 0)
(26.1373 0 0)
(26.1717 0 0)
(26.206 0 0)
(26.2403 0 0)
(26.2747 0 0)
(26.309 0 0)
(26.3433 0 0)
(26.3776 0 0)
(26.412 0 0)
(26.4463 0 0)
(26.4806 0 0)
(26.515 0 0)
(26.5493 0 0)
(26.5836 0 0)
(26.6179 0 0)
(26.6523 0 0)
(26.6866 0 0)
(26.7209 0 0)
(26.7553 0 0)
(26.7896 0 0)
(26.8239 0 0)
(26.8583 0 0)
(26.8926 0 0)
(26.9269 0 0)
(26.9613 0 0)
(26.9956 0 0)
(27.0299 0 0)
(27.0643 0 0)
(27.0986 0 0)
(27.1329 0 0)
(27.1672 0 0)
(27.2016 0 0)
(27.2359 0 0)
(27.2702 0 0)
(27.3046 0 0)
(27.3389 0 0)
(27.3732 0 0)
(27.4076 0 0)
(27.4419 0 0)
(27.4762 0 0)
(27.5106 0 0)
(27.5449 0 0)
(27.5792 0 0)
(27.6136 0 0)
(27.6479 0 0)
(27.6822 0 0)
(27.7166 0 0)
(27.7509 0 0)
(27.7853 0 0)
(27.8196 0 0)
(27.8539 0 0)
(27.8883 0 0)
(27.9226 0 0)
(27.9569 0 0)
(27.9913 0 0)
(28.0256 0 0)
(28.0599 0 0)
(28.0943 0 0)
(28.1286 0 0)
(28.1629 0 0)
(28.1973 0 0)
(28.2316 0 0)
(28.266 0 0)
(28.3003 0 0)
(28.3346 0 0)
(28.369 0 0)
(28.4033 0 0)
(28.4376 0 0)
(28.472 0 0)
(28.5063 0 0)
(28.5406 0 0)
(28.575 0 0)
(28.6093 0 0)
(28.6437 0 0)
(28.678 0 0)
(28.7123 0 0)
(28.7467 0 0)
(28.781 0 0)
(28.8154 0 0)
(28.8497 0 0)
(28.884 0 0)
(28.9184 0 0)
(28.9527 0 0)
(28.987 0 0)
(29.0214 0 0)
(29.0557 0 0)
(29.0901 0 0)
(29.1244 0 0)
(29.1587 0 0)
(29.1931 0 0)
(29.2274 0 0)
(29.2618 0 0)
(29.2961 0 0)
(29.3304 0 0)
(29.3648 0 0)
(29.3991 0 0)
(29.4335 0 0)
(29.4678 0 0)
(29.5022 0 0)
(29.5365 0 0)
(29.5708 0 0)
(29.6052 0 0)
(29.6395 0 0)
(29.6739 0 0)
(29.7082 0 0)
(29.7425 0 0)
(29.7769 0 0)
(29.8112 0 0)
(29.8456 0 0)
(29.8799 0 0)
(29.9143 0 0)
(29.9486 0 0)
(29.9829 0 0)
(30.0173 0 0)
(30.0516 0 0)
(30.086 0 0)
(30.1203 0 0)
(30.1547 0 0)
(30.189 0 0)
(30.2234 0 0)
(30.2577 0 0)
(30.292 0 0)
(30.3264 0 0)
(30.3607 0 0)
(30.3951 0 0)
(30.4294 0 0)
(30.4638 0 0)
(30.4981 0 0)
(30.5325 0 0)
(30.5668 0 0)
(30.6011 0 0)
(30.6355 0 0)
(30.6698 0 0)
(30.7042 0 0)
(30.7385 0 0)
(30.7729 0 0)
(30.8072 0 0)
(30.8416 0 0)
(30.8759 0 0)
(30.9103 0 0)
(30.9446 0 0)
(30.9789 0 0)
(31.0133 0 0)
(31.0476 0 0)
(31.082 0 0)
(31.1163 0 0)
(31.1507 0 0)
(31.185 0 0)
(31.2194 0 0)
(31.2537 0 0)
(31.2881 0 0)
(31.3224 0 0)
(31.3568 0 0)
(31.3911 0 0)
(31.4255 0 0)
(31.4598 0 0)
(31.4942 0 0)
(31.5285 0 0)
(31.5629 0 0)
(31.5972 0 0)
(31.6316 0 0)
(31.6659 0 0)
(31.7003 0 0)
(31.7346 0 0)
(31.769 0 0)
(31.8033 0 0)
(31.8377 0 0)
(31.872 0 0)
(31.9064 0 0)
(31.9407 0 0)
(31.9751 0 0)
(32.0094 0 0)
(32.0438 0 0)
(32.0781 0 0)
(32.1125 0 0)
(32.1468 0 0)
(32.1812 0 0)
(32.2155 0 0)
(32.2499 0 0)
(32.2842 0 0)
(32.3186 0 0)
(32.3529 0 0)
(32.3873 0 0)
(32.4216 0 0)
(32.456 0 0)
(32.4903 0 0)
(32.5247 0 0)
(32.559 0 0)
(32.5934 0 0)
(32.6277 0 0)
(32.6621 0 0)
(32.6964 0 0)
(32.7308 0 0)
(32.7651 0 0)
(32.7995 0 0)
(32.8339 0 0)
(32.8682 0 0)
(32.9026 0 0)
(32.9369 0 0)
(32.9713 0 0)
(33.0056 0 0)
(33.04 0 0)
(33.0743 0 0)
(33.1087 0 0)
(33.143 0 0)
(33.1774 0 0)
(33.2118 0 0)
(33.2461 0 0)
(33.2805 0 0)
(33.3148 0 0)
(33.3492 0 0)
(33.3835 0 0)
(33.4179 0 0)
(33.4522 0 0)
(33.4866 0 0)
(33.521 0 0)
(33.5553 0 0)
(33.5897 0 0)
(33.624 0 0)
(33.6584 0 0)
(33.6927 0 0)
(33.7271 0 0)
(33.7614 0 0)
(33.7958 0 0)
(33.8302 0 0)
(33.8645 0 0)
(33.8989 0 0)
(33.9332 0 0)
(33.9676 0 0)
(34.0019 0 0)
(34.0363 0 0)
(34.0707 0 0)
(34.105 0 0)
(34.1394 0 0)
(34.1737 0 0)
(34.2081 0 0)
(34.2425 0 0)
(34.2768 0 0)
(34.3112 0 0)
(34.3455 0 0)
(34.3799 0 0)
(34.4142 0 0)
(34.4486 0 0)
(34.483 0 0)
(34.5173 0 0)
(34.5517 0 0)
(34.586 0 0)
(34.6204 0 0)
(34.6548 0 0)
(34.6891 0 0)
(34.7235 0 0)
(34.7578 0 0)
(34.7922 0 0)
(34.8266 0 0)
(34.8609 0 0)
(34.8953 0 0)
(34.9296 0 0)
(34.964 0 0)
(34.9984 0 0)
(35.0327 0 0)
(35.0671 0 0)
(35.1014 0 0)
(35.1358 0 0)
(35.1702 0 0)
(35.2045 0 0)
(35.2389 0 0)
(35.2733 0 0)
(35.3076 0 0)
(35.342 0 0)
(35.3763 0 0)
(35.4107 0 0)
(35.4451 0 0)
(35.4794 0 0)
(35.5138 0 0)
(35.5482 0 0)
(35.5825 0 0)
(35.6169 0 0)
(35.6512 0 0)
(35.6856 0 0)
(35.72 0 0)
(35.7543 0 0)
(35.7887 0 0)
(35.8231 0 0)
(35.8574 0 0)
(35.8918 0 0)
(35.9262 0 0)
(35.9605 0 0)
(35.9949 0 0)
(36.0292 0 0)
(36.0636 0 0)
(36.098 0 0)
(36.1323 0 0)
(36.1667 0 0)
(36.2011 0 0)
(36.2354 0 0)
(36.2698 0 0)
(36.3042 0 0)
(36.3385 0 0)
(36.3729 0 0)
(36.4073 0 0)
(36.4416 0 0)
(36.476 0 0)
(36.5104 0 0)
(36.5447 0 0)
(36.5791 0 0)
(36.6135 0 0)
(36.6478 0 0)
(36.6822 0 0)
(36.7166 0 0)
(36.7509 0 0)
(36.7853 0 0)
(36.8197 0 0)
(36.854 0 0)
(36.8884 0 0)
(36.9228 0 0)
(36.9571 0 0)
(36.9915 0 0)
(37.0259 0 0)
(37.0602 0 0)
(37.0946 0 0)
(37.129 0 0)
(37.1633 0 0)
(37.1977 0 0)
(37.2321 0 0)
(37.2664 0 0)
(37.3008 0 0)
(37.3352 0 0)
(37.3695 0 0)
(37.4039 0 0)
(37.4383 0 0)
(37.4727 0 0)
(37.507 0 0)
(37.5414 0 0)
(37.5758 0 0)
(37.6101 0 0)
(37.6445 0 0)
(37.6789 0 0)
(37.7132 0 0)
(37.7476 0 0)
(37.782 0 0)
(37.8164 0 0)
(37.8507 0 0)
(37.8851 0 0)
(37.9195 0 0)
(37.9538 0 0)
(37.9882 0 0)
(38.0226 0 0)
(38.0569 0 0)
(38.0913 0 0)
(38.1257 0 0)
(38.1601 0 0)
(38.1944 0 0)
(38.2288 0 0)
(38.2632 0 0)
(38.2975 0 0)
(38.3319 0 0)
(38.3663 0 0)
(38.4007 0 0)
(38.435 0 0)
(38.4694 0 0)
(38.5038 0 0)
(38.5382 0 0)
(38.5725 0 0)
(38.6069 0 0)
(38.6413 0 0)
(38.6756 0 0)
(38.71 0 0)
(38.7444 0 0)
(38.7788 0 0)
(38.8131 0 0)
(38.8475 0 0)
(38.8819 0 0)
(38.9163 0 0)
(38.9506 0 0)
(38.985 0 0)
(39.0194 0 0)
(39.0538 0 0)
(39.0881 0 0)
(39.1225 0 0)
(39.1569 0 0)
(39.1913 0 0)
(39.2256 0 0)
(39.26 0 0)
(39.2944 0 0)
(39.3287 0 0)
(39.3631 0 0)
(39.3975 0 0)
(39.4319 0 0)
(39.4663 0 0)
(39.5006 0 0)
(39.535 0 0)
(39.5694 0 0)
(39.6038 0 0)
(39.6381 0 0)
(39.6725 0 0)
(39.7069 0 0)
(39.7413 0 0)
(39.7756 0 0)
(39.81 0 0)
(39.8444 0 0)
(39.8788 0 0)
(39.9131 0 0)
(39.9475 0 0)
(39.9819 0 0)
(40.0163 0 0)
(40.0506 0 0)
(40.085 0 0)
(40.1194 0 0)
(40.1538 0 0)
(40.1882 0 0)
(40.2225 0 0)
(40.2569 0 0)
(40.2913 0 0)
(40.3257 0 0)
(40.36 0 0)
(40.3944 0 0)
(40.4288 0 0)
(40.4632 0 0)
(40.4976 0 0)
(40.5319 0 0)
(40.5663 0 0)
(40.6007 0 0)
(40.6351 0 0)
(40.6695 0 0)
(40.7038 0 0)
(40.7382 0 0)
(40.7726 0 0)
(40.807 0 0)
(40.8414 0 0)
(40.8757 0 0)
(40.9101 0 0)
(40.9445 0 0)
(40.9789 0 0)
(41.0133 0 0)
(41.0476 0 0)
(41.082 0 0)
(41.1164 0 0)
(41.1508 0 0)
(41.1852 0 0)
(41.2195 0 0)
(41.2539 0 0)
(41.2883 0 0)
(41.3227 0 0)
(41.3571 0 0)
(41.3914 0 0)
(41.4258 0 0)
(41.4602 0 0)
(41.4946 0 0)
(41.529 0 0)
(41.5633 0 0)
(41.5977 0 0)
(41.6321 0 0)
(41.6665 0 0)
(41.7009 0 0)
(41.7353 0 0)
(41.7696 0 0)
(41.804 0 0)
(41.8384 0 0)
(41.8728 0 0)
(41.9072 0 0)
(41.9415 0 0)
(41.9759 0 0)
(42.0103 0 0)
(42.0447 0 0)
(42.0791 0 0)
(42.1135 0 0)
(42.1478 0 0)
(42.1822 0 0)
(42.2166 0 0)
(42.251 0 0)
(42.2854 0 0)
(42.3198 0 0)
(42.3541 0 0)
(42.3885 0 0)
(42.4229 0 0)
(42.4573 0 0)
(42.4917 0 0)
(42.5261 0 0)
(42.5605 0 0)
(42.5948 0 0)
(42.6292 0 0)
(42.6636 0 0)
(42.698 0 0)
(42.7324 0 0)
(42.7668 0 0)
(42.8011 0 0)
(42.8355 0 0)
(42.8699 0 0)
(42.9043 0 0)
(42.9387 0 0)
(42.9731 0 0)
(43.0075 0 0)
(43.0418 0 0)
(43.0762 0 0)
(43.1106 0 0)
(43.145 0 0)
(43.1794 0 0)
(43.2138 0 0)
(43.2482 0 0)
(43.2825 0 0)
(43.3169 0 0)
(43.3513 0 0)
(43.3857 0 0)
(43.4201 0 0)
(43.4545 0 0)
(43.4889 0 0)
(43.5233 0 0)
(43.5576 0 0)
(43.592 0 0)
(43.6264 0 0)
(43.6608 0 0)
(43.6952 0 0)
(43.7296 0 0)
(43.764 0 0)
(43.7984 0 0)
(43.8327 0 0)
(43.8671 0 0)
(43.9015 0 0)
(43.9359 0 0)
(43.9703 0 0)
(44.0047 0 0)
(44.0391 0 0)
(44.0735 0 0)
(44.1078 0 0)
(44.1422 0 0)
(44.1766 0 0)
(44.211 0 0)
(44.2454 0 0)
(44.2798 0 0)
(44.3142 0 0)
(44.3486 0 0)
(44.383 0 0)
(44.4173 0 0)
(44.4517 0 0)
(44.4861 0 0)
(44.5205 0 0)
(44.5549 0 0)
(44.5893 0 0)
(44.6237 0 0)
(44.6581 0 0)
(44.6925 0 0)
(44.7269 0 0)
(44.7612 0 0)
(44.7956 0 0)
(44.83 0 0)
(44.8644 0 0)
(44.8988 0 0)
(44.9332 0 0)
(44.9676 0 0)
(45.002 0 0)
(45.0364 0 0)
(45.0708 0 0)
(45.1052 0 0)
(45.1395 0 0)
(45.1739 0 0)
(45.2083 0 0)
(45.2427 0 0)
(45.2771 0 0)
(45.3115 0 0)
(45.3459 0 0)
(45.3803 0 0)
(45.4147 0 0)
(45.4491 0 0)
(45.4835 0 0)
(45.5179 0 0)
(45.5522 0 0)
(45.5866 0 0)
(45.621 0 0)
(45.6554 0 0)
(45.6898 0 0)
(45.7242 0 0)
(45.7586 0 0)
(45.793 0 0)
(45.8274 0 0)
(45.8618 0 0)
(45.8962 0 0)
(45.9306 0 0)
(45.965 0 0)
(45.9994 0 0)
(46.0337 0 0)
(46.0681 0 0)
(46.1025 0 0)
(46.1369 0 0)
(46.1713 0 0)
(46.2057 0 0)
(46.2401 0 0)
(46.2745 0 0)
(46.3089 0 0)
(46.3433 0 0)
(46.3777 0 0)
(46.4121 0 0)
(46.4465 0 0)
(46.4809 0 0)
(46.5153 0 0)
(46.5497 0 0)
(46.5841 0 0)
(46.6184 0 0)
(46.6528 0 0)
(46.6872 0 0)
(46.7216 0 0)
(46.756 0 0)
(46.7904 0 0)
(46.8248 0 0)
(46.8592 0 0)
(46.8936 0 0)
(46.928 0 0)
(46.9624 0 0)
(46.9968 0 0)
(47.0312 0 0)
(47.0656 0 0)
(47.1 0 0)
(47.1344 0 0)
(47.1688 0 0)
(47.2032 0 0)
(47.2376 0 0)
(47.272 0 0)
(47.3064 0 0)
(47.3408 0 0)
(47.3752 0 0)
(47.4095 0 0)
(47.4439 0 0)
(47.4783 0 0)
(47.5127 0 0)
(47.5471 0 0)
(47.5815 0 0)
(47.6159 0 0)
(47.6503 0 0)
(47.6847 0 0)
(47.7191 0 0)
(47.7535 0 0)
(47.7879 0 0)
(47.8223 0 0)
(47.8567 0 0)
(47.8911 0 0)
(47.9255 0 0)
(47.9599 0 0)
(47.9943 0 0)
(48.0287 0 0)
(48.0631 0 0)
(48.0975 0 0)
(48.1319 0 0)
(48.1663 0 0)
(48.2007 0 0)
(48.2351 0 0)
(48.2695 0 0)
(48.3039 0 0)
(48.3383 0 0)
(48.3727 0 0)
(48.4071 0 0)
(48.4415 0 0)
(48.4759 0 0)
(48.5103 0 0)
(48.5447 0 0)
(48.5791 0 0)
(48.6135 0 0)
(48.6479 0 0)
(48.6823 0 0)
(48.7167 0 0)
(48.7511 0 0)
(48.7855 0 0)
(48.8199 0 0)
(48.8543 0 0)
(48.8887 0 0)
(48.9231 0 0)
(48.9575 0 0)
(48.9919 0 0)
(49.0263 0 0)
(49.0607 0 0)
(49.0951 0 0)
(49.1295 0 0)
(49.1639 0 0)
(49.1983 0 0)
(49.2327 0 0)
(49.2671 0 0)
(49.3015 0 0)
(49.3359 0 0)
(49.3703 0 0)
(49.4047 0 0)
(49.4391 0 0)
(49.4735 0 0)
(49.5079 0 0)
(49.5423 0 0)
(49.5767 0 0)
(49.6111 0 0)
(49.6455 0 0)
(49.6799 0 0)
(49.7143 0 0)
(49.7487 0 0)
(49.7831 0 0)
(49.8175 0 0)
(49.8519 0 0)
(49.8863 0 0)
(49.9207 0 0)
(49.9551 0 0)
(49.9895 0 0)
(50.0239 0 0)
(50.0583 0 0)
(50.0927 0 0)
(50.1271 0 0)
(50.1615 0 0)
(50.1959 0 0)
(50.2303 0 0)
(50.2647 0 0)
(50.2991 0 0)
(50.3335 0 0)
(50.3679 0 0)
(50.4023 0 0)
(50.4367 0 0)
(50.4711 0 0)
(50.5055 0 0)
(50.5399 0 0)
(50.5743 0 0)
(50.6087 0 0)
(50.6431 0 0)
(50.6775 0 0)
(50.7119 0 0)
(50.7464 0 0)
(50.7808 0 0)
(50.8152 0 0)
(50.8496 0 0)
(50.884 0 0)
(50.9184 0 0)
(50.9528 0 0)
(50.9872 0 0)
(51.0216 0 0)
(51.056 0 0)
(51.0904 0 0)
(51.1248 0 0)
(51.1592 0 0)
(51.1936 0 0)
(51.228 0 0)
(51.2624 0 0)
(51.2968 0 0)
(51.3312 0 0)
(51.3656 0 0)
(51.4 0 0)
(51.4344 0 0)
(51.4688 0 0)
(51.5032 0 0)
(51.5376 0 0)
(51.572 0 0)
(51.6065 0 0)
(51.6409 0 0)
(51.6753 0 0)
(51.7097 0 0)
(51.7441 0 0)
(51.7785 0 0)
(51.8129 0 0)
(51.8473 0 0)
(51.8817 0 0)
(51.9161 0 0)
(51.9505 0 0)
(51.9849 0 0)
(52.0193 0 0)
(52.0537 0 0)
(52.0881 0 0)
(52.1225 0 0)
(52.1569 0 0)
(52.1913 0 0)
(52.2257 0 0)
(52.2602 0 0)
(52.2946 0 0)
(52.329 0 0)
(52.3634 0 0)
(52.3978 0 0)
(52.4322 0 0)
(52.4666 0 0)
(52.501 0 0)
(52.5354 0 0)
(52.5698 0 0)
(52.6042 0 0)
(52.6386 0 0)
(52.673 0 0)
(52.7074 0 0)
(52.7418 0 0)
(52.7762 0 0)
(52.8106 0 0)
(52.8451 0 0)
(52.8795 0 0)
(52.9139 0 0)
(52.9483 0 0)
(52.9827 0 0)
(53.0171 0 0)
(53.0515 0 0)
(53.0859 0 0)
(53.1203 0 0)
(53.1547 0 0)
(53.1891 0 0)
(53.2235 0 0)
(53.2579 0 0)
(53.2923 0 0)
(53.3268 0 0)
(53.3612 0 0)
(53.3956 0 0)
(53.43 0 0)
(53.4644 0 0)
(53.4988 0 0)
(53.5332 0 0)
(53.5676 0 0)
(53.602 0 0)
(53.6364 0 0)
(53.6708 0 0)
(53.7052 0 0)
(53.7396 0 0)
(53.774 0 0)
(53.8085 0 0)
(53.8429 0 0)
(53.8773 0 0)
(53.9117 0 0)
(53.9461 0 0)
(53.9805 0 0)
(54.0149 0 0)
(54.0493 0 0)
(54.0837 0 0)
(54.1181 0 0)
(54.1525 0 0)
(54.1869 0 0)
(54.2214 0 0)
(54.2558 0 0)
(54.2902 0 0)
(54.3246 0 0)
(54.359 0 0)
(54.3934 0 0)
(54.4278 0 0)
(54.4622 0 0)
(54.4966 0 0)
(54.531 0 0)
(54.5654 0 0)
(54.5998 0 0)
(54.6343 0 0)
(54.6687 0 0)
(54.7031 0 0)
(54.7375 0 0)
(54.7719 0 0)
(54.8063 0 0)
(54.8407 0 0)
(54.8751 0 0)
(54.9095 0 0)
(54.9439 0 0)
(54.9783 0 0)
(55.0128 0 0)
(55.0472 0 0)
(55.0816 0 0)
(55.116 0 0)
(55.1504 0 0)
(55.1848 0 0)
(55.2192 0 0)
(55.2536 0 0)
(55.288 0 0)
(55.3224 0 0)
(55.3568 0 0)
(55.3913 0 0)
(55.4257 0 0)
(55.4601 0 0)
(55.4945 0 0)
(55.5289 0 0)
(55.5633 0 0)
(55.5977 0 0)
(55.6321 0 0)
(55.6665 0 0)
(55.7009 0 0)
(55.7354 0 0)
(55.7698 0 0)
(55.8042 0 0)
(55.8386 0 0)
(55.873 0 0)
(55.9074 0 0)
(55.9418 0 0)
(55.9762 0 0)
(56.0106 0 0)
(56.045 0 0)
(56.0795 0 0)
(56.1139 0 0)
(56.1483 0 0)
(56.1827 0 0)
(56.2171 0 0)
(56.2515 0 0)
(56.2859 0 0)
(56.3203 0 0)
(56.3547 0 0)
(56.3891 0 0)
(56.4236 0 0)
(56.458 0 0)
(56.4924 0 0)
(56.5268 0 0)
(56.5612 0 0)
(56.5956 0 0)
(56.63 0 0)
(56.6644 0 0)
(56.6988 0 0)
(56.7332 0 0)
(56.7677 0 0)
(56.8021 0 0)
(56.8365 0 0)
(56.8709 0 0)
(56.9053 0 0)
(56.9397 0 0)
(56.9741 0 0)
(57.0085 0 0)
(57.0429 0 0)
(57.0774 0 0)
(57.1118 0 0)
(57.1462 0 0)
(57.1806 0 0)
(57.215 0 0)
(57.2494 0 0)
(57.2838 0 0)
(57.3182 0 0)
(57.3526 0 0)
(57.3871 0 0)
(57.4215 0 0)
(57.4559 0 0)
(57.4903 0 0)
(57.5247 0 0)
(57.5591 0 0)
(57.5935 0 0)
(57.6279 0 0)
(57.6623 0 0)
(57.6967 0 0)
(57.7312 0 0)
(57.7656 0 0)
(57.8 0 0)
(57.8344 0 0)
(57.8688 0 0)
(57.9032 0 0)
(57.9376 0 0)
(57.972 0 0)
(58.0064 0 0)
(58.0409 0 0)
(58.0753 0 0)
(58.1097 0 0)
(58.1441 0 0)
(58.1785 0 0)
(58.2129 0 0)
(58.2473 0 0)
(58.2817 0 0)
(58.3161 0 0)
(58.3506 0 0)
(58.385 0 0)
(58.4194 0 0)
(58.4538 0 0)
(58.4882 0 0)
(58.5226 0 0)
(58.557 0 0)
(58.5914 0 0)
(58.6258 0 0)
(58.6603 0 0)
(58.6947 0 0)
(58.7291 0 0)
(58.7635 0 0)
(58.7979 0 0)
(58.8323 0 0)
(58.8667 0 0)
(58.9011 0 0)
(58.9355 0 0)
(58.97 0 0)
(59.0044 0 0)
(59.0388 0 0)
(59.0732 0 0)
(59.1076 0 0)
(59.142 0 0)
(59.1764 0 0)
(59.2108 0 0)
(59.2453 0 0)
(59.2797 0 0)
(59.3141 0 0)
(59.3485 0 0)
(59.3829 0 0)
(59.4173 0 0)
(59.4517 0 0)
(59.4861 0 0)
(59.5205 0 0)
(59.555 0 0)
(59.5894 0 0)
(59.6238 0 0)
(59.6582 0 0)
(59.6926 0 0)
(59.727 0 0)
(59.7614 0 0)
(59.7958 0 0)
(59.8302 0 0)
(59.8647 0 0)
(59.8991 0 0)
(59.9335 0 0)
(59.9679 0 0)
(60.0023 0 0)
(60.0367 0 0)
(60.0711 0 0)
(60.1055 0 0)
(60.1399 0 0)
(60.1744 0 0)
(60.2088 0 0)
(60.2432 0 0)
(60.2776 0 0)
(60.312 0 0)
(60.3464 0 0)
(60.3808 0 0)
(60.4152 0 0)
(60.4496 0 0)
(60.4841 0 0)
(60.5185 0 0)
(60.5529 0 0)
(60.5873 0 0)
(60.6217 0 0)
(60.6561 0 0)
(60.6905 0 0)
(60.7249 0 0)
(60.7593 0 0)
(60.7937 0 0)
(60.8282 0 0)
(60.8626 0 0)
(60.897 0 0)
(60.9314 0 0)
(60.9658 0 0)
(61.0002 0 0)
(61.0346 0 0)
(61.069 0 0)
(61.1034 0 0)
(61.1379 0 0)
(61.1723 0 0)
(61.2067 0 0)
(61.2411 0 0)
(61.2755 0 0)
(61.3099 0 0)
(61.3443 0 0)
(61.3787 0 0)
(61.4131 0 0)
(61.4476 0 0)
(61.482 0 0)
(61.5164 0 0)
(61.5508 0 0)
(61.5852 0 0)
(61.6196 0 0)
(61.654 0 0)
(61.6884 0 0)
(61.7228 0 0)
(61.7572 0 0)
(61.7917 0 0)
(61.8261 0 0)
(61.8605 0 0)
(61.8949 0 0)
(61.9293 0 0)
(61.9637 0 0)
(61.9981 0 0)
(62.0325 0 0)
(62.0669 0 0)
(62.1013 0 0)
(62.1358 0 0)
(62.1702 0 0)
(62.2046 0 0)
(62.239 0 0)
(62.2734 0 0)
(62.3078 0 0)
(62.3422 0 0)
(62.3766 0 0)
(62.411 0 0)
(62.4454 0 0)
(62.4798 0 0)
(62.5143 0 0)
(62.5487 0 0)
(62.5831 0 0)
(62.6175 0 0)
(62.6519 0 0)
(62.6863 0 0)
(62.7207 0 0)
(62.7551 0 0)
(62.7895 0 0)
(62.8239 0 0)
(62.8584 0 0)
(62.8928 0 0)
(62.9272 0 0)
(62.9616 0 0)
(62.996 0 0)
(63.0304 0 0)
(63.0648 0 0)
(63.0992 0 0)
(63.1336 0 0)
(63.168 0 0)
(63.2024 0 0)
(63.2368 0 0)
(63.2713 0 0)
(63.3057 0 0)
(63.3401 0 0)
(63.3745 0 0)
(63.4089 0 0)
(63.4433 0 0)
(63.4777 0 0)
(63.5121 0 0)
(63.5465 0 0)
(63.5809 0 0)
(63.6153 0 0)
(63.6497 0 0)
(63.6842 0 0)
(63.7186 0 0)
(63.753 0 0)
(63.7874 0 0)
(63.8218 0 0)
(63.8562 0 0)
(63.8906 0 0)
(63.925 0 0)
(63.9594 0 0)
(63.9938 0 0)
(64.0282 0 0)
(64.0626 0 0)
(64.097 0 0)
(64.1315 0 0)
(64.1659 0 0)
(64.2003 0 0)
(64.2347 0 0)
(64.2691 0 0)
(64.3035 0 0)
(64.3379 0 0)
(64.3723 0 0)
(64.4067 0 0)
(64.4411 0 0)
(64.4755 0 0)
(64.5099 0 0)
(64.5443 0 0)
(64.5787 0 0)
(64.6131 0 0)
(64.6476 0 0)
(64.682 0 0)
(64.7164 0 0)
(64.7508 0 0)
(64.7852 0 0)
(64.8196 0 0)
(64.854 0 0)
(64.8884 0 0)
(64.9228 0 0)
(64.9572 0 0)
(64.9916 0 0)
(65.026 0 0)
(65.0604 0 0)
(65.0948 0 0)
(65.1292 0 0)
(65.1636 0 0)
(65.198 0 0)
(65.2324 0 0)
(65.2669 0 0)
(65.3013 0 0)
(65.3357 0 0)
(65.3701 0 0)
(65.4045 0 0)
(65.4389 0 0)
(65.4733 0 0)
(65.5077 0 0)
(65.5421 0 0)
(65.5765 0 0)
(65.6109 0 0)
(65.6453 0 0)
(65.6797 0 0)
(65.7141 0 0)
(65.7485 0 0)
(65.7829 0 0)
(65.8173 0 0)
(65.8517 0 0)
(65.8861 0 0)
(65.9205 0 0)
(65.9549 0 0)
(65.9893 0 0)
(66.0237 0 0)
(66.0581 0 0)
(66.0926 0 0)
(66.127 0 0)
(66.1614 0 0)
(66.1958 0 0)
(66.2302 0 0)
(66.2646 0 0)
(66.299 0 0)
(66.3334 0 0)
(66.3678 0 0)
(66.4022 0 0)
(66.4366 0 0)
(66.471 0 0)
(66.5054 0 0)
(66.5398 0 0)
(66.5742 0 0)
(66.6086 0 0)
(66.643 0 0)
(66.6774 0 0)
(66.7118 0 0)
(66.7462 0 0)
(66.7806 0 0)
(66.815 0 0)
(66.8494 0 0)
(66.8838 0 0)
(66.9182 0 0)
(66.9526 0 0)
(66.987 0 0)
(67.0214 0 0)
(67.0558 0 0)
(67.0902 0 0)
(67.1246 0 0)
(67.159 0 0)
(67.1934 0 0)
(67.2278 0 0)
(67.2622 0 0)
(67.2966 0 0)
(67.331 0 0)
(67.3654 0 0)
(67.3998 0 0)
(67.4342 0 0)
(67.4686 0 0)
(67.503 0 0)
(67.5374 0 0)
(67.5718 0 0)
(67.6062 0 0)
(67.6406 0 0)
(67.675 0 0)
(67.7094 0 0)
(67.7438 0 0)
(67.7782 0 0)
(67.8126 0 0)
(67.847 0 0)
(67.8814 0 0)
(67.9158 0 0)
(67.9502 0 0)
(67.9846 0 0)
(68.019 0 0)
(68.0534 0 0)
(68.0877 0 0)
(68.1221 0 0)
(68.1565 0 0)
(68.1909 0 0)
(68.2253 0 0)
(68.2597 0 0)
(68.2941 0 0)
(68.3285 0 0)
(68.3629 0 0)
(68.3973 0 0)
(68.4317 0 0)
(68.4661 0 0)
(68.5005 0 0)
(68.5349 0 0)
(68.5693 0 0)
(68.6037 0 0)
(68.6381 0 0)
(68.6725 0 0)
(68.7069 0 0)
(68.7413 0 0)
(68.7757 0 0)
(68.81 0 0)
(68.8444 0 0)
(68.8788 0 0)
(68.9132 0 0)
(68.9476 0 0)
(68.982 0 0)
(69.0164 0 0)
(69.0508 0 0)
(69.0852 0 0)
(69.1196 0 0)
(69.154 0 0)
(69.1884 0 0)
(69.2228 0 0)
(69.2572 0 0)
(69.2915 0 0)
(69.3259 0 0)
(69.3603 0 0)
(69.3947 0 0)
(69.4291 0 0)
(69.4635 0 0)
(69.4979 0 0)
(69.5323 0 0)
(69.5667 0 0)
(69.6011 0 0)
(69.6355 0 0)
(69.6698 0 0)
(69.7042 0 0)
(69.7386 0 0)
(69.773 0 0)
(69.8074 0 0)
(69.8418 0 0)
(69.8762 0 0)
(69.9106 0 0)
(69.945 0 0)
(69.9794 0 0)
(70.0137 0 0)
(70.0481 0 0)
(70.0825 0 0)
(70.1169 0 0)
(70.1513 0 0)
(70.1857 0 0)
(70.2201 0 0)
(70.2545 0 0)
(70.2888 0 0)
(70.3232 0 0)
(70.3576 0 0)
(70.392 0 0)
(70.4264 0 0)
(70.4608 0 0)
(70.4952 0 0)
(70.5295 0 0)
(70.5639 0 0)
(70.5983 0 0)
(70.6327 0 0)
(70.6671 0 0)
(70.7015 0 0)
(70.7359 0 0)
(70.7702 0 0)
(70.8046 0 0)
(70.839 0 0)
(70.8734 0 0)
(70.9078 0 0)
(70.9422 0 0)
(70.9765 0 0)
(71.0109 0 0)
(71.0453 0 0)
(71.0797 0 0)
(71.1141 0 0)
(71.1485 0 0)
(71.1828 0 0)
(71.2172 0 0)
(71.2516 0 0)
(71.286 0 0)
(71.3204 0 0)
(71.3547 0 0)
(71.3891 0 0)
(71.4235 0 0)
(71.4579 0 0)
(71.4923 0 0)
(71.5266 0 0)
(71.561 0 0)
(71.5954 0 0)
(71.6298 0 0)
(71.6642 0 0)
(71.6985 0 0)
(71.7329 0 0)
(71.7673 0 0)
(71.8017 0 0)
(71.8361 0 0)
(71.8704 0 0)
(71.9048 0 0)
(71.9392 0 0)
(71.9736 0 0)
(72.0079 0 0)
(72.0423 0 0)
(72.0767 0 0)
(72.1111 0 0)
(72.1455 0 0)
(72.1798 0 0)
(72.2142 0 0)
(72.2486 0 0)
(72.283 0 0)
(72.3173 0 0)
(72.3517 0 0)
(72.3861 0 0)
(72.4205 0 0)
(72.4548 0 0)
(72.4892 0 0)
(72.5236 0 0)
(72.5579 0 0)
(72.5923 0 0)
(72.6267 0 0)
(72.6611 0 0)
(72.6954 0 0)
(72.7298 0 0)
(72.7642 0 0)
(72.7986 0 0)
(72.8329 0 0)
(72.8673 0 0)
(72.9017 0 0)
(72.936 0 0)
(72.9704 0 0)
(73.0048 0 0)
(73.0391 0 0)
(73.0735 0 0)
(73.1079 0 0)
(73.1423 0 0)
(73.1766 0 0)
(73.211 0 0)
(73.2454 0 0)
(73.2797 0 0)
(73.3141 0 0)
(73.3485 0 0)
(73.3828 0 0)
(73.4172 0 0)
(73.4516 0 0)
(73.4859 0 0)
(73.5203 0 0)
(73.5547 0 0)
(73.589 0 0)
(73.6234 0 0)
(73.6578 0 0)
(73.6921 0 0)
(73.7265 0 0)
(73.7608 0 0)
(73.7952 0 0)
(73.8296 0 0)
(73.8639 0 0)
(73.8983 0 0)
(73.9327 0 0)
(73.967 0 0)
(74.0014 0 0)
(74.0357 0 0)
(74.0701 0 0)
(74.1045 0 0)
(74.1388 0 0)
(74.1732 0 0)
(74.2076 0 0)
(74.2419 0 0)
(74.2763 0 0)
(74.3106 0 0)
(74.345 0 0)
(74.3794 0 0)
(74.4137 0 0)
(74.4481 0 0)
(74.4824 0 0)
(74.5168 0 0)
(74.5511 0 0)
(74.5855 0 0)
(74.6199 0 0)
(74.6542 0 0)
(74.6886 0 0)
(74.7229 0 0)
(74.7573 0 0)
(74.7916 0 0)
(74.826 0 0)
(74.8603 0 0)
(74.8947 0 0)
(74.929 0 0)
(74.9634 0 0)
(74.9978 0 0)
(75.0321 0 0)
(75.0665 0 0)
(75.1008 0 0)
(75.1352 0 0)
(75.1695 0 0)
(75.2039 0 0)
(75.2382 0 0)
(75.2726 0 0)
(75.3069 0 0)
(75.3413 0 0)
(75.3756 0 0)
(75.41 0 0)
(75.4443 0 0)
(75.4787 0 0)
(75.513 0 0)
(75.5474 0 0)
(75.5817 0 0)
(75.616 0 0)
(75.6504 0 0)
(75.6847 0 0)
(75.7191 0 0)
(75.7534 0 0)
(75.7878 0 0)
(75.8221 0 0)
(75.8565 0 0)
(75.8908 0 0)
(75.9252 0 0)
(75.9595 0 0)
(75.9938 0 0)
(76.0282 0 0)
(76.0625 0 0)
(76.0969 0 0)
(76.1312 0 0)
(76.1655 0 0)
(76.1999 0 0)
(76.2342 0 0)
(76.2686 0 0)
(76.3029 0 0)
(76.3372 0 0)
(76.3716 0 0)
(76.4059 0 0)
(76.4403 0 0)
(76.4746 0 0)
(76.5089 0 0)
(76.5433 0 0)
(76.5776 0 0)
(76.6119 0 0)
(76.6463 0 0)
(76.6806 0 0)
(76.7149 0 0)
(76.7493 0 0)
(76.7836 0 0)
(76.8179 0 0)
(76.8523 0 0)
(76.8866 0 0)
(76.9209 0 0)
(76.9553 0 0)
(76.9896 0 0)
(77.0239 0 0)
(77.0583 0 0)
(77.0926 0 0)
(77.1269 0 0)
(77.1613 0 0)
(77.1956 0 0)
(77.2299 0 0)
(77.2642 0 0)
(77.2986 0 0)
(77.3329 0 0)
(77.3672 0 0)
(77.4015 0 0)
(77.4359 0 0)
(77.4702 0 0)
(77.5045 0 0)
(77.5388 0 0)
(77.5732 0 0)
(77.6075 0 0)
(77.6418 0 0)
(77.6761 0 0)
(77.7105 0 0)
(77.7448 0 0)
(77.7791 0 0)
(77.8134 0 0)
(77.8477 0 0)
(77.8821 0 0)
(77.9164 0 0)
(77.9507 0 0)