/*--------------------------------*- C++ -*----------------------------------*\
  =========                 |
  \\      /  F ield         | OpenFOAM: The Open Source CFD Toolbox
   \\    /   O peration     | Website:  https://openfoam.org
    \\  /    A nd           | Version:  9
     \\/     M anipulation  |
\*---------------------------------------------------------------------------*/
FoamFile
{
    format      ascii;
    class       volScalarField;
    location    "0.038";
    object      ddt0(rho,e);
}
// * * * * * * * * * * * * * * * * * * * * * * * * * * * * * * * * * * * * * //

dimensions      [1 -1 -3 0 0 0 0];

internalField   nonuniform List<scalar> 
10000
(
789827
789785
789717
789653
789588
789519
789451
789388
789327
789258
789185
789119
789062
789002
788929
788851
788785
788734
788679
788605
788520
788448
788400
788358
788295
788206
788115
788051
788018
787983
787916
787816
787715
787650
787626
787608
787554
787450
787328
787237
787203
787206
787193
787123
786995
786855
786762
786742
786767
786778
786722
786589
786422
786288
786236
786266
786323
786338
786260
786094
785896
785741
785683
785725
785818
785883
785854
785711
785488
785261
785108
785075
785155
785291
785399
785408
785285
785051
784772
784532
784402
784412
784543
784729
784888
784944
784857
784632
784318
783994
783741
783619
783652
783817
784057
784292
784446
784464
784324
784043
783674
783289
782963
782758
782709
782817
783054
783364
783677
783926
784054
784028
783841
783515
783094
782636
782204
781855
781634
781567
781658
781892
782236
782643
783061
783440
783734
783906
783936
783816
783552
783163
782676
782127
781554
780997
780492
780070
779757
779572
779525
779620
779854
780220
780703
781288
781958
782691
783467
784266
785070
785860
786620
787329
787974
788542
789024
789410
789700
789899
790013
790061
790065
790076
790113
790215
790522
791457
791783
791870
791914
791941
791955
791962
791963
791959
791955
791948
791941
791935
791928
791921
791916
791911
791907
791902
791896
791892
791889
791886
791883
791881
791878
791876
791874
791872
791869
791867
791865
791863
791860
791858
791856
791854
791853
791851
791848
791846
791843
791841
791839
791837
791835
791833
791831
791829
791827
791825
791823
791821
791819
791817
791814
791812
791810
791808
791806
791804
791802
791799
791797
791795
791792
791790
791789
791787
791785
791783
791780
791778
791776
791774
791772
791770
791768
791765
791763
791761
791759
791757
791755
791752
791750
791747
791745
791743
791740
791738
791736
791734
791732
791730
791728
791726
791724
791722
791719
791717
791715
791713
791711
791709
791706
791704
791701
791699
791696
791694
791691
791689
791687
791685
791683
791681
791678
791676
791674
791672
791670
791667
791665
791663
791661
791659
791656
791654
791651
791649
791646
791644
791641
791639
791637
791634
791632
791630
791627
791625
791623
791621
791618
791616
791614
791612
791609
791607
791605
791603
791600
791598
791595
791592
791590
791587
791585
791583
791580
791578
791575
791573
791571
791568
791566
791563
791561
791559
791557
791554
791552
791550
791547
791545
791542
791540
791537
791535
791532
791529
791527
791525
791522
791520
791517
791515
791512
791510
791507
791505
791502
791500
791498
791495
791493
791490
791488
791485
791483
791480
791478
791475
791472
791470
791467
791465
791462
791460
791457
791455
791452
791450
791447
791445
791442
791440
791437
791435
791432
791429
791427
791424
791422
791419
791416
791414
791411
791409
791406
791404
791401
791399
791396
791393
791391
791388
791386
791383
791380
791378
791375
791373
791370
791367
791364
791362
791359
791356
791354
791351
791348
791346
791343
791341
791338
791335
791333
791330
791328
791325
791322
791320
791317
791314
791312
791309
791306
791303
791300
791298
791295
791292
791289
791287
791284
791281
791279
791276
791273
791271
791268
791265
791262
791260
791257
791254
791252
791249
791246
791244
791241
791238
791235
791232
791229
791226
791223
791221
791218
791215
791212
791209
791207
791204
791201
791198
791196
791193
791190
791188
791185
791182
791179
791176
791173
791171
791168
791165
791162
791159
791156
791153
791150
791147
791144
791141
791139
791136
791133
791130
791127
791124
791122
791119
791116
791113
791110
791108
791105
791102
791099
791096
791093
791090
791087
791084
791081
791078
791075
791072
791069
791066
791063
791060
791057
791054
791051
791049
791046
791043
791040
791037
791034
791031
791028
791025
791022
791019
791016
791013
791010
791007
791004
791001
790998
790995
790991
790988
790985
790982
790979
790976
790973
790970
790967
790965
790962
790958
790955
790952
790949
790946
790943
790940
790937
790934
790930
790927
790924
790921
790918
790915
790912
790909
790906
790903
790900
790897
790893
790890
790887
790884
790881
790878
790875
790872
790868
790865
790862
790859
790856
790853
790850
790846
790843
790840
790837
790833
790831
790827
790825
790820
790820
790812
790815
790803
790812
790793
790810
790781
790811
790765
790814
790747
790821
790727
790828
790708
790833
790694
790828
790694
790805
790716
790757
790753
790731
790735
790740
790728
790722
790728
790722
790717
790711
790716
790698
790726
790659
790766
790595
790821
790526
790869
790483
790873
790498
790807
790589
790670
790735
790506
790871
790390
790924
790390
790836
790534
790624
790760
790392
790932
790291
790910
790416
790671
790702
790365
790937
790228
790913
790391
790613
790740
790270
790968
790192
790843
790474
790443
790864
790142
790964
790255
790635
790689
790191
790984
790115
790781
790519
790270
790950
790039
790869
790390
790332
790907
789994
790912
790309
790356
790881
789958
790923
790274
790335
790883
789921
790905
790285
790268
790913
789886
790855
790344
790157
790960
789872
790753
790463
790008
791000
789908
790580
790639
789853
790988
790034
790324
790838
789753
790865
790272
790023
790984
789785
790594
790581
789780
790966
789990
790249
790820
789703
790775
790292
789921
790936
789807
790427
790639
789702
790838
790121
790001
790882
789727
790478
790557
789677
790832
790073
789963
790873
789697
790405
790597
789603
790769
790155
789805
790893
789750
790189
790741
789540
790583
790389
789579
790841
789973
789830
790886
789632
790190
790721
789453
790543
790409
789464
790800
790037
789640
790909
789690
789926
790859
789433
790258
790666
789304
790573
790370
789316
790815
790027
789458
790943
789693
789698
790945
789421
789986
790829
789239
790276
790628
789157
790529
790378
789167
790719
790111
789255
790840
789853
789396
790891
789621
789571
790880
789431
789759
790815
789288
789944
790709
789193
790112
790576
789141
790258
790432
789121
790378
790290
789123
790469
790158
789139
790538
790039
789161
790589
789935
789182
790628
789846
789197
790657
789773
789204
790678
789717
789202
790690
789678
789192
790693
789654
789175
790691
789644
789148
790685
789649
789112
790671
789670
789069
790649
789704
789022
790617
789750
788974
790574
789807
788925
790522
789874
788876
790459
789954
788826
790380
790048
788781
790280
790156
788748
790156
790272
788733
790007
790390
788743
789832
790503
788789
789632
790600
788875
789413
790668
789010
789182
790692
789196
788955
790655
789429
788755
790547
789694
788603
790363
789969
788522
790110
790229
788527
789802
790442
788629
789462
790580
788826
789123
790618
789106
788819
790539
789444
788592
790339
789798
788477
790033
790119
788495
789658
790359
788649
789259
790475
788923
788893
790443
789280
788614
790258
789668
788469
789937
790022
788488
789526
790277
788676
789087
790377
789011
788703
790281
789433
788456
789994
789854
788409
789560
790176
788584
789065
790313
788956
788624
790208
789440
788357
789864
789910
788351
789353
790223
788627
788808
790268
789122
788392
790003
789687
788248
789486
790132
788449
788872
790278
788942
788378
790045
789558
788190
789497
790059
788394
788827
790231
788923
788299
789980
789566
788135
789388
790051
788410
788691
790153
789014
788195
789805
789670
788129
789149
790073
788526
788474
790021
789203
788099
789520
789822
788216
788805
790059
788767
788227
789782
789469
788081
789120
789941
788446
788420
789913
789122
788055
789385
789736
788224
788637
789928
788833
788091
789562
789527
788073
788831
789881
788597
788166
789655
789341
787986
788963
789819
788417
788231
789699
789182
787942
789032
789753
788303
788256
789710
789072
787908
789052
789692
788246
788240
789682
789024
787873
789021
789647
788229
788198
789617
789026
787848
788934
789625
788247
788126
789527
789064
787841
788797
789609
788310
788028
789410
789128
787856
788623
789580
788420
787917
789253
789215
787900
788423
789521
788572
787821
789044
789312
787989
788202
789420
788759
787767
788777
789387
788146
787978
789250
788963
787787
788462
789394
788382
787796
788985
789150
787910
788139
789287
788666
787717
788637
789258
788139
787868
789049
788935
787780
788253
789233
788445
787709
788699
789122
787992
787903
789044
788771
787713
788279
789156
788326
787674
788684
789025
787914
787874
788976
788706
787661
788206
789089
788293
787618
788567
788987
787919
787759
788855
788719
787659
788039
788986
788370
787561
788360
788953
788011
787634
788637
788772
787731
787826
788821
788486
787573
788087
788867
788172
787542
788358
788784
787880
787636
788570
788604
787654
787813
788702
788353
787531
788027
788735
788083
787503
788249
788665
787836
787562
788432
788525
787629
787691
788554
788332
787493
787851
788613
788111
787428
788024
788598
787897
787423
788188
788522
787702
787477
788316
788406
787539
787568
788408
788254
787427
787675
788456
788089
787355
787796
788455
787928
787323
787910
788419
787769
787331
788006
788354
787631
787362
788088
788259
787518
787412
788144
788154
787423
787477
788174
788041
787353
787544
788186
787921
787306
787610
788177
787807
787272
787676
788151
787700
787252
787730
788118
787596
787245
787775
788075
787507
787238
787812
788024
787429
787238
787835
787976
787358
787242
787847
787925
787300
787240
787852
787872
787253
787237
787844
787826
787212
787236
787825
787780
787183
787229
787802
787732
787163
787223
787770
787687
787143
787221
787733
787641
787127
787215
787699
787592
787113
787208
787664
787548
787093
787203
787628
787505
787073
787191
787599
787463
787051
787173
787572
787430
787023
787153
787544
787405
786995
787122
787520
787385
786970
787081
787492
787375
786948
787036
787453
787373
786934
786985
787408
787367
786932
786934
787355
787360
786935
786890
787293
787349
786942
786852
787228
787328
786953
786819
787166
787301
786961
786794
787104
787272
786963
786771
787045
787239
786966
786746
786990
787205
786968
786723
786932
787173
786969
786703
786870
787139
786975
786682
786808
787097
786985
786669
786741
787048
786994
786667
786674
786991
787001
786674
786612
786919
787004
786691
786558
786837
786994
786721
786516
786749
786966
786755
786494
786657
786922
786784
786493
786571
786858
786805
786505
786500
786778
786811
786528
786446
786693
786796
786557
786408
786609
786764
786579
786387
786529
786722
786594
786377
786456
786669
786604
786371
786390
786608
786609
786376
786328
786539
786605
786392
786274
786458
786590
786416
786238
786367
786556
786444
786224
786277
786496
786469
786232
786200
786414
786476
786260
786143
786319
786455
786297
786114
786221
786407
786328
786115
786133
786333
786341
786136
786070
786242
786328
786162
786035
786152
786288
786184
786019
786074
786230
786195
786017
786005
786163
786191
786027
785949
786086
786175
786044
785910
785999
786140
786065
785892
785911
786079
786085
785902
785836
785988
786081
785937
785792
785882
786036
785975
785790
785789
785953
785987
785819
785727
785853
785960
785854
785705
785757
785898
785872
785714
785682
785814
785862
785734
785640
785725
785824
785749
785622
785646
785764
785753
785619
785583
785690
785741
785629
785535
785606
785706
785647
785513
785522
785641
785655
785523
785455
785553
785633
785547
785424
785459
785576
785562
785427
785383
785490
785550
785450
785342
785393
785501
785469
785339
785312
785418
785462
785357
785267
785324
785417
785373
785256
785245
785341
785368
785265
785194
785254
785330
785277
785172
785176
785263
785274
785173
785118
785182
785243
785182
785086
785102
785185
785183
785080
785034
785106
785160
785092
784995
785017
785105
785100
784993
784943
785017
785078
785013
784910
784922
785012
785019
784919
784856
784917
784983
784936
784837
784830
784908
784927
784845
784779
784820
784880
784848
784764
784748
784808
784826
784759
784703
784733
784782
784750
784677
784665
784720
784732
784665
784610
784643
784696
784663
784581
784564
784627
784653
784583
784510
784534
784604
784592
784501
784456
784511
784565
784517
784428
784417
784486
784508
784437
784368
784389
784450
784438
784361
784323
784363
784399
784359
784296
784290
784331
784333
784279
784242
784263
784289
784258
784204
784199
784235
784235
784178
784138
784163
784200
784171
784101
784082
784129
784155
784100
784030
784033
784092
784099
784028
783968
783991
784046
784033
783958
783915
783951
783992
783962
783893
783870
783909
783928
783887
783834
783831
783862
783858
783813
783780
783793
783808
783783
783741
783731
783753
783750
783707
783673
783686
783709
783686
783632
783610
783640
783659
783619
783559
783551
783592
783603
783551
783492
783496
783539
783542
783482
783429
783443
783482
783475
783414
783372
783389
783420
783404
783349
783320
783336
783353
783329
783284
783269
783282
783284
783252
783221
783219
783228
783212
783175
783158
783168
783171
783139
783100
783095
783115
783113
783068
783027
783030
783058
783050
782998
782957
782967
782996
782984
782930
782890
782903
782931
782915
782863
782826
782839
782860
782843
782795
782766
782776
782788
782768
782727
782707
782713
782715
782690
782657
782647
782651
782641
782610
782587
782586
782589
782569
782531
782514
782522
782526
782497
782454
782439
782454
782460
782426
782381
782365
782382
782389
782356
782309
782292
782309
782314
782284
782239
782222
782234
782236
782208
782169
782154
782160
782156
782129
782097
782086
782087
782076
782047
782023
782017
782016
781997
781965
781946
781945
781944
781919
781883
781865
781871
781871
781843
781803
781784
781792
781795
781767
781725
781703
781710
781715
781691
781649
781624
781627
781630
781610
781572
781549
781545
781545
781525
781493
781473
781466
781459
781436
781410
781395
781389
781376
781348
781323
781312
781311
781295
781262
781233
781226
781229
781214
781179
781145
781136
781141
781132
781097
781060
781046
781050
781044
781014
780977
780958
780957
780952
780926
780894
780872
780867
780857
780835
780807
780788
780778
780764
780740
780715
780700
780691
780673
780645
780619
780608
780602
780584
780552
780522
780511
780508
780494
780461
780428
780412
780411
780400
780370
780335
780314
780310
780302
780277
780242
780218
780209
780201
780179
780147
780123
780110
780099
780077
780049
780026
780012
779998
779974
779947
779925
779913
779898
779872
779842
779821
779811
779797
779771
779738
779715
779704
779693
779669
779635
779608
779595
779587
779565
779532
779502
779486
779477
779458
779427
779395
779376
779364
779348
779320
779288
779266
779251
779235
779209
779180
779156
779139
779121
779094
779066
779044
779028
779007
778979
778950
778927
778913
778894
778866
778832
778808
778793
778778
778751
778716
778688
778670
778657
778634
778601
778568
778547
778533
778512
778482
778449
778424
778407
778388
778360
778328
778301
778280
778261
778233
778203
778176
778155
778133
778105
778075
778047
778027
778004
777977
777944
777916
777895
777874
777848
777813
777782
777759
777741
777716
777683
777648
777621
777602
777580
777550
777514
777484
777461
777440
777413
777378
777346
777320
777298
777271
777239
777206
777178
777154
777127
777096
777063
777034
777008
776982
776950
776917
776887
776861
776834
776801
776767
776737
776711
776685
776653
776616
776582
776556
776532
776502
776465
776428
776397
776373
776347
776313
776274
776238
776210
776185
776154
776118
776080
776048
776020
775990
775956
775920
775886
775855
775823
775788
775753
775720
775689
775656
775619
775582
775548
775519
775487
775450
775410
775372
775341
775312
775279
775238
775196
775160
775131
775100
775063
775021
774980
774946
774915
774881
774842
774800
774761
774727
774692
774655
774616
774576
774539
774502
774463
774424
774386
774349
774311
774270
774228
774188
774152
774116
774076
774031
773987
773948
773913
773877
773834
773787
773742
773704
773669
773630
773585
773538
773494
773455
773417
773376
773331
773284
773241
773199
773158
773114
773070
773026
772982
772937
772891
772847
772804
772761
772716
772667
772618
772574
772532
772490
772442
772390
772340
772294
772253
772210
772161
772107
772055
772009
771966
771921
771871
771818
771766
771717
771671
771624
771573
771522
771470
771419
771368
771318
771268
771218
771166
771112
771057
771005
770955
770906
770854
770797
770739
770684
770634
770585
770532
770474
770413
770356
770304
770254
770200
770141
770080
770022
769967
769913
769857
769799
769739
769679
769620
769563
769505
769447
769388
769327
769265
769203
769143
769085
769027
768965
768900
768834
768771
768713
768654
768592
768525
768456
768391
768330
768270
768207
768139
768069
768001
767937
767874
767809
767741
767671
767602
767533
767466
767399
767331
767262
767191
767119
767047
766977
766908
766839
766768
766693
766618
766543
766473
766403
766331
766255
766176
766099
766025
765954
765880
765802
765722
765642
765565
765490
765414
765335
765254
765173
765092
765013
764933
764853
764772
764690
764606
764522
764438
764355
764274
764191
764105
764016
763928
763843
763759
763675
763587
763496
763404
763315
763228
763142
763052
762959
762865
762772
762681
762591
762499
762405
762309
762213
762118
762023
761927
761832
761735
761637
761537
761437
761337
761239
761141
761041
760939
760834
760730
760627
760526
760424
760319
760212
760103
759997
759891
759786
759678
759568
759457
759346
759236
759126
759015
758903
758789
758675
758560
758445
758329
758213
758097
757980
757862
757741
757620
757501
757381
757261
757139
757014
756889
756764
756641
756517
756390
756262
756132
756003
755874
755745
755615
755483
755349
755215
755081
754947
754812
754675
754538
754400
754261
754121
753979
753838
753697
753555
753411
753266
753118
752971
752824
752677
752529
752378
752226
752072
751919
751766
751612
751456
751298
751139
750980
750820
750658
750496
750332
750168
750002
749835
749667
749497
749326
749156
748981
748854
748840
748819
748629
748476
748245
748012
747800
747597
747387
747203
747006
746818
746624
746437
746247
746058
745868
745679
745489
745298
745104
744910
744717
744521
744322
744123
743925
743726
743524
743320
743115
742910
742702
742494
742285
742075
741862
741647
741433
741218
741001
740781
740561
740340
740116
739891
739666
739439
739210
738980
738750
738517
738281
738044
737807
737569
737329
737089
736846
736599
736351
736104
735855
735605
735353
735100
734843
734584
734325
734065
733803
733540
733275
733008
732738
732467
732195
731921
731646
731370
731091
730809
730526
730240
729954
729668
729380
729088
728794
728497
728199
727901
727600
727300
726995
726688
726379
726067
725755
725441
725126
724809
724489
724166
723841
723513
723185
722855
722525
722191
721854
721514
721172
720828
720484
720139
719790
719439
719084
718726
718367
718007
717647
717282
716915
716545
716172
715798
715421
715044
714664
714281
713895
713506
713114
712721
712326
711930
711530
711129
710723
710313
709902
709489
709076
708660
708241
707818
707390
706961
706531
706098
705665
705227
704786
704342
703894
703445
702993
702540
702085
701626
701163
700698
700228
699757
699284
698809
698332
697851
697366
696877
696386
695892
695398
694901
694401
693896
693388
692876
692363
691848
691331
690810
690286
689758
689227
688692
688156
687618
687076
686532
685985
685432
684877
684320
683760
683198
682634
682065
681493
680917
680338
679757
679174
678588
678000
677407
676810
676210
675608
675003
674396
673787
673174
672556
671936
671313
670686
670059
669428
668794
668157
667516
666872
666225
665576
664925
664271
663614
662954
662289
661622
660952
660280
659607
658931
658250
657567
656880
656191
655499
654806
654111
653413
652710
652006
651298
650587
649876
649162
648445
647726
647005
646279
645551
644822
644091
643358
642623
641886
641145
640401
639655
638909
638160
637411
636659
635904
635146
634387
633626
632864
632101
631337
630570
629800
629030
628257
627483
626708
625933
625156
624378
623598
622816
622033
621248
620464
619680
618895
618107
617319
616530
615740
614950
614160
613370
612579
611787
610995
610202
609408
608616
607824
607032
606240
605447
604655
603862
603070
602278
601488
600699
599910
599121
598332
597545
596758
595972
595189
594407
593625
592844
592064
591286
590509
589734
588962
588192
587422
586654
585888
585124
584362
583602
582846
582092
581339
580589
579840
579096
578353
577614
576878
576145
575415
574686
573961
573240
572522
571807
571096
570389
569685
568983
568286
567592
566904
566218
565536
564859
564186
563516
562851
562189
561533
560880
560233
559589
558949
558316
557685
557061
556440
555824
555214
554609
554007
553410
552819
552233
551653
551077
550507
549941
549380
548825
548274
547731
547192
546659
546131
545607
545090
544577
544070
543570
543074
542585
542101
541621
541148
540679
540217
539761
539310
538866
538426
537991
537564
537139
536721
536310
535904
535505
535110
534720
534336
533957
533584
533217
532855
532499
532149
531804
531464
531128
530798
530475
530156
529843
529536
529233
528936
528642
528354
528072
527794
527523
527257
526995
526738
526485
526237
525994
525756
525523
525295
525072
524852
524639
524427
524221
524020
523822
523631
523443
523259
523079
522903
522730
522563
522399
522240
522085
521933
521785
521641
521500
521362
521229
521099
520974
520851
520732
520615
520502
520392
520286
520184
520083
519988
519893
519802
519715
519628
519547
519467
519391
519316
519246
519176
519110
519046
518984
518926
518869
518816
518763
518713
518666
518620
518578
518536
518497
518460
518425
518392
518361
518330
518303
518277
518252
518230
518209
518190
518172
518156
518141
518127
518117
518106
518097
518090
518083
518078
518074
518071
518070
518070
518071
518073
518076
518080
518086
518091
518099
518107
518116
518126
518136
518150
518160
518175
518188
518204
518219
518235
518254
518269
518290
518308
518328
518348
518369
518391
518412
518437
518458
518483
518507
518532
518557
518582
518610
518634
518663
518689
518718
518746
518775
518804
518831
518862
518891
518922
518952
518984
519015
519046
519078
519109
519141
519173
519208
519240
519273
519307
519339
519373
519406
519441
519474
519511
519545
519580
519615
519649
519684
519719
519755
519791
519827
519864
519899
519934
519970
520006
520042
520079
520117
520154
520190
520227
520263
520299
520336
520373
520411
520449
520488
520524
520561
520598
520634
520672
520710
520749
520786
520825
520863
520899
520937
520973
521012
521050
521089
521128
521166
521204
521241
521279
521315
521354
521393
521432
521471
521509
521548
521584
521622
521659
521698
521737
521776
521815
521853
521892
521929
521967
522004
522043
522082
522121
522160
522199
522236
522274
522312
522350
522389
522427
522468
522506
522544
522581
522620
522657
522696
522735
522774
522813
522851
522890
522927
522965
523003
523043
523081
523120
523159
523197
523236
523272
523311
523349
523388
523427
523466
523505
523543
523581
523619
523657
523695
523734
523774
523812
523851
523889
523927
523964
524002
524041
524080
524119
524158
524197
524235
524273
524310
524348
524386
524425
524465
524504
524543
524580
524618
524656
524694
524732
524771
524811
524849
524888
524926
524964
525001
525039
525078
525117
525156
525194
525234
525271
525309
525347
525385
525424
525462
525502
525540
525579
525616
525654
525692
525730
525769
525808
525847
525885
525924
525962
525999
526038
526075
526114
526153
526193
526231
526269
526307
526345
526383
526421
526460
526499
526538
526576
526614
526652
526690
526728
526766
526805
526844
526882
526921
526960
526997
527034
527073
527111
527150
527189
527227
527266
527304
527342
527380
527418
527456
527494
527533
527572
527611
527649
527687
527724
527763
527801
527839
527878
527917
527956
527994
528032
528069
528107
528146
528184
528222
528261
528300
528338
528376
528414
528452
528490
528528
528566
528605
528644
528682
528720
528758
528796
528835
528873
528911
528949
528989
529026
529065
529102
529141
529178
529217
529255
529293
529332
529370
529409
529446
529485
529522
529561
529599
529637
529676
529714
529753
529790
529828
529866
529905
529943
529981
530019
530058
530096
530134
530172
530210
530248
530287
530325
530363
530401
530439
530478
530516
530553
530592
530630
530669
530706
530745
530782
530821
530859
530897
530935
530973
531012
531049
531088
531125
531164
531202
531241
531278
531316
531354
531393
531431
531469
531507
531545
531583
531621
531660
531697
531736
531773
531812
531850
531888
531926
531964
532003
532041
532079
532117
532155
532193
532231
532269
532307
532346
532383
532421
532460
532498
532536
532573
532612
532650
532689
532726
532765
532802
532841
532879
532917
532955
532993
533031
533069
533108
533145
533184
533221
533260
533297
533337
533374
533413
533450
533488
533526
533564
533603
533640
533679
533717
533756
533793
533832
533869
533907
533945
533983
534022
534060
534099
534137
534175
534213
534251
534288
534327
534364
534403
534442
534480
534519
534556
534595
534632
534670
534708
534746
534785
534823
534862
534900
534938
534976
535014
535051
535090
535128
535167
535205
535244
535282
535320
535358
535396
535433
535471
535510
535548
535588
535625
535665
535702
535741
535777
535816
535854
535892
535931
535969
536008
536046
536085
536122
536160
536198
536236
536275
536314
536353
536391
536429
536467
536505
536543
536580
536619
536658
536697
536735
536774
536812
536850
536888
536925
536963
537002
537041
537080
537119
537157
537196
537233
537271
537308
537347
537385
537424
537463
537502
537541
537579
537617
537654
537692
537730
537769
537808
537847
537886
537925
537963
538001
538039
538076
538114
538153
538192
538231
538270
538309
538347
538385
538423
538461
538498
538537
538576
538616
538655
538693
538732
538769
538808
538845
538883
538922
538961
539000
539039
539078
539116
539154
539192
539230
539268
539306
539345
539385
539424
539462
539501
539539
539577
539615
539653
539691
539730
539769
539808
539847
539886
539924
539961
540000
540038
540077
540115
540154
540193
540232
540271
540309
540347
540385
540424
540462
540501
540539
540578
540617
540655
540694
540732
540771
540808
540847
540886
540925
540964
541002
541041
541079
541118
541156
541194
541232
541271
541310
541349
541388
541426
541465
541502
541541
541579
541618
541656
541695
541734
541773
541812
541850
541888
541926
541965
542003
542042
542081
542119
542158
542197
542235
542273
542312
542349
542388
542427
542466
542504
542543
542582
542620
542659
542697
542735
542773
542812
542850
542889
542928
542967
543005
543044
543082
543120
543158
543197
543235
543274
543312
543351
543390
543429
543467
543505
543544
543581
543620
543659
543697
543736
543774
543813
543851
543890
543928
543967
544005
544043
544082
544120
544159
544198
544236
544274
544313
544351
544389
544427
544466
544504
544543
544581
544620
544658
544697
544735
544773
544812
544850
544888
544927
544965
545004
545042
545081
545119
545157
545195
545234
545271
545310
545348
545388
545425
545464
545502
545541
545579
545617
545655
545693
545732
545770
545809
545847
545885
545924
545962
546000
546038
546076
546114
546152
546191
546229
546268
546306
546345
546383
546421
546459
546497
546534
546573
546611
546650
546688
546727
546765
546803
546841
546879
546917
546954
546994
547031
547070
547108
547147
547185
547223
547261
547299
547336
547375
547413
547451
547489
547527
547566
547604
547643
547680
547719
547756
547794
547832
547870
547909
547947
547985
548023
548061
548099
548137
548174
548212
548251
548289
548327
548365
548403
548441
548480
548517
548555
548593
548631
548669
548707
548745
548783
548822
548860
548897
548935
548973
549011
549048
549087
549125
549163
549201
549239
549277
549315
549353
549391
549428
549466
549504
549542
549581
549619
549657
549695
549733
549771
549808
549846
549884
549922
549960
549998
550037
550075
550112
550150
550188
550226
550263
550301
550339
550377
550415
550453
550491
550529
550568
550605
550643
550680
550718
550756
550794
550832
550870
550909
550946
550985
551023
551060
551098
551135
551174
551211
551249
551287
551325
551363
551401
551439
551476
551515
551552
551591
551627
551666
551703
551742
551780
551818
551856
551893
551933
551969
552008
552044
552084
552121
552159
552197
552235
552274
552310
552350
552386
552425
552462
552501
552539
552576
552615
552652
552691
552728
552766
552804
552842
552880
552918
552956
552994
553032
553070
553108
553145
553184
553221
553260
553297
553336
553374
553411
553449
553487
553525
553563
553601
553639
553677
553715
553753
553791
553829
553867
553905
553943
553981
554019
554056
554095
554133
554171
554209
554247
554286
554323
554362
554399
554437
554475
554513
554551
554589
554628
554665
554704
554742
554780
554818
554855
554893
554931
554970
555007
555046
555084
555123
555160
555199
555237
555275
555313
555350
555389
555426
555465
555502
555542
555579
555618
555656
555693
555732
555769
555808
555845
555884
555922
555960
555998
556037
556075
556112
556151
556188
556227
556264
556303
556341
556379
556418
556456
556494
556532
556570
556608
556646
556684
556722
556760
556799
556837
556875
556913
556951
556990
557027
557066
557103
557142
557179
557218
557256
557295
557333
557371
557410
557447
557486
557523
557561
557599
557638
557676
557714
557753
557791
557830
557868
557906
557944
557982
558020
558058
558096
558134
558173
558211
558249
558288
558326
558364
558402
558440
558478
558516
558554
558593
558631
558669
558707
558746
558784
558823
558861
558899
558937
558975
559013
559051
559089
559128
559166
559204
559242
559281
559319
559358
559396
559434
559472
559510
559548
559586
559624
559663
559701
559739
559778
559816
559854
559893
559931
559969
560007
560045
560083
560122
560160
560198
560236
560275
560313
560351
560390
560428
560466
560504
560542
560580
560619
560657
560695
560734