/*--------------------------------*- C++ -*----------------------------------*\
  =========                 |
  \\      /  F ield         | OpenFOAM: The Open Source CFD Toolbox
   \\    /   O peration     | Website:  https://openfoam.org
    \\  /    A nd           | Version:  9
     \\/     M anipulation  |
\*---------------------------------------------------------------------------*/
FoamFile
{
    format      ascii;
    class       volScalarField;
    location    "0.038";
    object      ddt0(rho,K);
}
// * * * * * * * * * * * * * * * * * * * * * * * * * * * * * * * * * * * * * //

dimensions      [1 -1 -3 0 0 0 0];

internalField   nonuniform List<scalar> 
10000
(
114.996
112.252
109.764
107.715
105.709
103.608
101.446
99.2575
97.0532
94.8298
92.5838
90.3135
88.0185
85.6995
83.357
80.9909
78.6014
76.1897
73.7573
71.3044
68.8288
66.3281
63.8015
61.251
58.6791
56.0863
53.4706
50.8294
48.1621
45.471
42.7581
40.0233
37.2641
34.4779
31.6652
28.8289
25.9719
23.0948
20.195
17.2692
14.3172
11.3427
8.35055
5.34237
2.31413
-0.740953
-3.82747
-6.94443
-10.0859
-13.2446
-16.4173
-19.6063
-22.8186
-26.0617
-29.3387
-32.6474
-35.9813
-39.3335
-42.6998
-46.0818
-49.4865
-52.9219
-56.3912
-59.8907
-63.412
-66.9473
-70.493
-74.051
-77.6275
-81.231
-84.8686
-88.5436
-92.2541
-95.9926
-99.7485
-103.512
-107.278
-111.054
-114.852
-118.685
-122.563
-126.487
-130.455
-134.454
-138.467
-142.48
-146.487
-150.491
-154.506
-158.549
-162.633
-166.765
-170.943
-175.161
-179.412
-183.685
-187.966
-192.243
-196.513
-200.782
-205.064
-209.37
-213.714
-218.111
-222.567
-227.08
-231.638
-236.224
-240.823
-245.423
-250.02
-254.617
-259.213
-263.805
-268.398
-273.006
-277.649
-282.337
-287.072
-291.857
-296.697
-301.589
-306.521
-311.483
-316.473
-321.483
-326.507
-331.539
-336.571
-341.585
-346.574
-351.552
-356.538
-361.548
-366.578
-371.624
-376.698
-381.825
-387.001
-392.221
-397.496
-402.834
-408.224
-413.662
-419.153
-424.687
-430.256
-435.872
-441.541
-447.264
-453.018
-458.759
-464.489
-470.25
-476.047
-481.832
-487.606
-493.403
-499.193
-504.975
-510.772
-516.568
-522.379
-528.219
-534.089
-539.993
-545.942
-552.126
-558.2
-564.188
-570.199
-576.236
-582.278
-588.358
-594.444
-600.558
-606.713
-612.86
-619.046
-625.282
-631.509
-637.748
-644.044
-650.38
-656.721
-663.047
-669.384
-675.768
-682.189
-688.639
-695.123
-701.627
-708.141
-714.682
-721.252
-727.84
-734.441
-741.069
-747.733
-754.42
-761.114
-767.828
-774.579
-781.367
-788.181
-795.01
-801.849
-808.699
-815.573
-822.48
-829.421
-836.386
-843.375
-850.392
-857.434
-864.493
-871.569
-878.67
-885.799
-892.954
-900.127
-907.318
-914.529
-921.767
-929.038
-936.338
-943.658
-950.992
-958.343
-965.715
-973.111
-980.533
-987.983
-995.464
-1002.97
-1010.51
-1018.06
-1025.64
-1033.23
-1040.86
-1048.5
-1056.17
-1063.86
-1071.56
-1079.3
-1087.06
-1094.84
-1102.66
-1110.49
-1118.34
-1126.21
-1134.09
-1142
-1149.94
-1157.9
-1165.89
-1173.91
-1181.96
-1190.03
-1198.12
-1206.24
-1214.38
-1222.55
-1230.73
-1238.94
-1247.16
-1255.41
-1263.69
-1271.99
-1280.32
-1288.67
-1297.04
-1305.42
-1313.83
-1322.25
-1330.7
-1339.18
-1347.68
-1356.21
-1364.77
-1373.35
-1381.95
-1390.59
-1399.25
-1407.93
-1416.63
-1425.35
-1434.1
-1442.86
-1451.66
-1460.48
-1469.32
-1478.19
-1487.07
-1495.98
-1504.91
-1513.85
-1522.82
-1531.81
-1540.83
-1549.87
-1558.94
-1568.03
-1577.15
-1586.29
-1595.46
-1604.65
-1613.87
-1623.11
-1632.37
-1641.66
-1650.97
-1660.3
-1669.67
-1679.05
-1688.46
-1697.88
-1707.33
-1716.79
-1726.28
-1735.79
-1745.32
-1754.88
-1764.46
-1774.07
-1783.7
-1793.36
-1803.04
-1812.75
-1822.48
-1832.23
-1842
-1851.8
-1861.62
-1871.47
-1881.35
-1891.25
-1901.17
-1911.12
-1921.08
-1931.07
-1941.08
-1951.11
-1961.16
-1971.23
-1981.33
-1991.45
-2001.6
-2011.77
-2021.97
-2032.19
-2042.44
-2052.7
-2062.99
-2073.31
-2083.64
-2094.01
-2104.39
-2114.8
-2125.24
-2135.7
-2146.18
-2156.69
-2167.21
-2177.76
-2188.33
-2198.93
-2209.54
-2220.18
-2230.84
-2241.53
-2252.24
-2262.98
-2273.74
-2284.53
-2295.34
-2306.17
-2317.02
-2327.9
-2338.8
-2349.72
-2360.67
-2371.64
-2382.64
-2393.66
-2404.7
-2415.77
-2426.85
-2437.96
-2449.1
-2460.25
-2471.43
-2482.63
-2493.86
-2505.11
-2516.39
-2527.69
-2539.02
-2550.36
-2561.74
-2573.13
-2584.55
-2595.99
-2607.46
-2618.94
-2630.46
-2641.99
-2653.55
-2665.13
-2676.73
-2688.35
-2700
-2711.67
-2723.36
-2735.08
-2746.82
-2758.59
-2770.38
-2782.2
-2794.04
-2805.91
-2817.8
-2829.71
-2841.64
-2853.6
-2865.58
-2877.59
-2889.62
-2901.67
-2913.74
-2925.84
-2937.96
-2950.11
-2962.27
-2974.46
-2986.67
-2998.9
-3011.15
-3023.43
-3035.73
-3048.06
-3060.41
-3072.79
-3085.19
-3097.62
-3110.07
-3122.55
-3135.05
-3147.57
-3160.12
-3172.69
-3185.28
-3197.9
-3210.54
-3223.2
-3235.89
-3248.59
-3261.32
-3274.07
-3286.84
-3299.63
-3312.44
-3325.28
-3338.15
-3351.04
-3363.95
-3376.89
-3389.86
-3402.85
-3415.86
-3428.9
-3441.96
-3455.05
-3468.15
-3481.29
-3494.44
-3507.62
-3520.83
-3534.06
-3547.3
-3560.58
-3573.87
-3587.18
-3600.52
-3613.88
-3627.26
-3640.66
-3654.09
-3667.54
-3681.01
-3694.51
-3708.03
-3721.58
-3735.15
-3748.75
-3762.38
-3776.03
-3789.7
-3803.4
-3817.12
-3830.87
-3844.63
-3858.42
-3872.23
-3886.07
-3899.92
-3913.8
-3927.7
-3941.62
-3955.56
-3969.53
-3983.52
-3997.54
-4011.58
-4025.65
-4039.74
-4053.85
-4067.98
-4082.14
-4096.32
-4110.52
-4124.75
-4139.01
-4153.29
-4167.59
-4181.92
-4196.28
-4210.66
-4225.06
-4239.48
-4253.93
-4268.39
-4282.88
-4297.39
-4311.92
-4326.47
-4341.05
-4355.65
-4370.28
-4384.92
-4399.6
-4414.3
-4429.02
-4443.77
-4458.54
-4473.34
-4488.16
-4503
-4517.87
-4532.75
-4547.67
-4562.6
-4577.56
-4592.54
-4607.54
-4622.57
-4637.62
-4652.69
-4667.79
-4682.92
-4698.07
-4713.24
-4728.43
-4743.65
-4758.88
-4774.14
-4789.42
-4804.73
-4820.06
-4835.41
-4850.79
-4866.19
-4881.62
-4897.08
-4912.55
-4928.05
-4943.58
-4959.13
-4974.7
-4990.29
-5005.9
-5021.53
-5037.19
-5052.87
-5068.58
-5084.3
-5100.06
-5115.83
-5131.64
-5147.46
-5163.32
-5179.19
-5195.1
-5211.02
-5226.97
-5242.94
-5258.93
-5274.93
-5290.97
-5307.03
-5323.11
-5339.21
-5355.34
-5371.48
-5387.67
-5403.85
-5420.1
-5436.32
-5452.64
-5468.89
-5485.27
-5501.53
-5517.98
-5534.26
-5550.8
-5567.08
-5583.7
-5600.02
-5616.69
-5633.06
-5649.76
-5666.24
-5682.91
-5699.53
-5716.15
-5732.83
-5749.53
-5766.24
-5782.97
-5799.74
-5816.51
-5833.32
-5850.14
-5867.02
-5883.88
-5900.83
-5917.67
-5934.77
-5951.52
-5968.82
-5985.45
-6002.96
-6019.53
-6037.16
-6053.77
-6071.32
-6088.19
-6105.5
-6122.8
-6139.74
-6157.5
-6174.13
-6192.17
-6208.78
-6226.74
-6243.68
-6261.2
-6278.82
-6295.78
-6313.98
-6330.57
-6348.94
-6365.8
-6383.73
-6401.35
-6418.5
-6436.96
-6453.61
-6472.28
-6489.22
-6507.27
-6525.21
-6542.31
-6561.12
-6577.86
-6596.65
-6613.93
-6631.82
-6650.36
-6667.22
-6686.43
-6703.39
-6721.95
-6740.04
-6757.37
-6776.59
-6793.4
-6812.54
-6830.3
-6848.11
-6867.32
-6884.17
-6903.66
-6921.21
-6939.42
-6958.6
-6975.58
-6995.37
-7012.83
-7031.29
-7050.49
-7067.57
-7087.57
-7105.09
-7123.68
-7143.05
-7160.21
-7180.33
-7197.92
-7216.56
-7236.25
-7253.33
-7273.62
-7291.53
-7309.97
-7329.98
-7347.08
-7367.34
-7385.72
-7403.88
-7424.36
-7441.54
-7461.57
-7480.62
-7498.38
-7519.24
-7536.79
-7556.4
-7576.25
-7593.51
-7614.52
-7632.76
-7651.49
-7672.28
-7689.58
-7710.17
-7729.37
-7747.4
-7768.7
-7786.41
-7806.21
-7826.52
-7844.13
-7865.32
-7883.95
-7902.92
-7924.1
-7941.63
-7962.27
-7982.28
-8000.37
-8021.93
-8040.31
-8059.78
-8080.99
-8098.73
-8119.78
-8139.68
-8157.98
-8179.8
-8198.32
-8218.03
-8239.48
-8257.32
-8278.51
-8298.8
-8317.07
-8339.12
-8358.01
-8377.46
-8399.46
-8417.55
-8438.5
-8459.62
-8477.66
-8499.72
-8519.56
-8538.37
-8560.9
-8579.6
-8599.69
-8621.93
-8640.02
-8661.45
-8682.79
-8700.91
-8723.38
-8743.59
-8762.38
-8785.35
-8804.46
-8824.32
-8847.24
-8865.6
-8886.72
-8909.11
-8927.15
-8949.43
-8970.9
-8989.12
-9012.29
-9032.68
-9051.55
-9075.24
-9094.6
-9114.46
-9138.19
-9156.74
-9177.77
-9201.12
-9219.21
-9241.37
-9264.01
-9282.03
-9305.17
-9326.95
-9345.28
-9369.15
-9390.03
-9408.94
-9433.23
-9453.28
-9472.94
-9497.37
-9516.75
-9537.26
-9561.59
-9580.48
-9601.87
-9625.91
-9644.51
-9666.72
-9690.33
-9708.83
-9731.76
-9754.86
-9773.43
-9796.96
-9819.54
-9838.34
-9862.36
-9884.43
-9903.55
-9927.93
-9949.53
-9969
-9993.64
-10014.8
-10034.7
-10059.5
-10080.4
-10100.6
-10125.6
-10146.2
-10166.8
-10191.9
-10212.3
-10233.1
-10258.3
-10278.6
-10299.6
-10324.9
-10345.1
-10366.3
-10391.7
-10411.9
-10433.2
-10458.8
-10478.9
-10500.3
-10526
-10546.1
-10567.6
-10593.4
-10613.7
-10635.1
-10661
-10681.4
-10702.8
-10728.9
-10749.4
-10770.7
-10796.9
-10817.7
-10838.8
-10865.1
-10886.2
-10907.1
-10933.5
-10954.9
-10975.6
-11002
-11023.8
-11044.3
-11070.8
-11093
-11113.2
-11139.7
-11162.4
-11182.4
-11208.7
-11232.1
-11251.8
-11278
-11302
-11321.5
-11347.3
-11372.1
-11391.5
-11416.8
-11442.4
-11461.8
-11486.5
-11512.8
-11532.4
-11556.4
-11583.4
-11603.4
-11626.4
-11654
-11674.7
-11696.8
-11724.6
-11746.3
-11767.4
-11795.3
-11818.1
-11838.4
-11866
-11890.1
-11909.9
-11936.8
-11962.2
-11981.8
-12007.8
-12034.4
-12054.1
-12078.9
-12106.5
-12126.9
-12150.3
-12178.6
-12200
-12222.1
-12250.6
-12273.4
-12294.4
-12322.5
-12346.9
-12367.2
-12394.4
-12420.4
-12440.6
-12466.5
-12493.9
-12514.4
-12538.9
-12567.2
-12588.7
-12611.7
-12640.3
-12663.4
-12685
-12713.3
-12738.1
-12758.9
-12786.3
-12812.9
-12833.5
-12859.4
-12887.4
-12908.7
-12932.8
-12961.7
-12984.4
-13006.8
-13035.7
-13060.2
-13081.5
-13109.5
-13136.1
-13157
-13183.3
-13211.6
-13233.2
-13257.5
-13286.8
-13309.9
-13332.3
-13361.5
-13386.9
-13408.1
-13436.1
-13463.6
-13484.7
-13510.6
-13539.9
-13562.2
-13585.8
-13615.6
-13640.2
-13661.8
-13690.7
-13718
-13739
-13765.8
-13795.2
-13817.2
-13841.4
-13871.7
-13896
-13918.1
-13947.4
-13974.7
-13996
-14023.1
-14052.8
-14075
-14099.3
-14129.9
-14154.6
-14176.7
-14206.2
-14234
-14255.5
-14282.4
-14312.6
-14335.5
-14359.4
-14390.1
-14415.8
-14437.7
-14466.9
-14495.7
-14517.6
-14543.9
-14574.6
-14598.6
-14621.8
-14652.3
-14679.6
-14701.4
-14729.7
-14759.8
-14782.5
-14807.6
-14838.6
-14864.3
-14886.9
-14916.6
-14945.6
-14967.9
-14994.6
-15025.7
-15050.1
-15073.8
-15104.6
-15132.4
-15154.8
-15182.9
-15213.6
-15237.3
-15262.1
-15293.4
-15320.3
-15343
-15372.3
-15402.5
-15425.7
-15451.6
-15483.2
-15509.4
-15532.5
-15562.7
-15592.5
-15615.5
-15642.3
-15674
-15699.8
-15723.4
-15754.1
-15783.6
-15806.6
-15834
-15865.9
-15891.4
-15915.4
-15946.5
-15976
-15999.1
-16026.7
-16058.8
-16084.4
-16108.5
-16139.8
-16169.5
-16192.8
-16220.5
-16252.8
-16278.7
-16302.9
-16334.2
-16364.2
-16387.8
-16415.4
-16447.8
-16474.3
-16498.4
-16529.6
-16560.2
-16584.1
-16611.3
-16643.9
-16671.1
-16695.2
-16725.9
-16757.2
-16781.7
-16808.4
-16841
-16869.2
-16893.3
-16923.4
-16955.3
-16980.6
-17006.6
-17039.1
-17068.4
-17092.6
-17121.9
-17154.4
-17180.8
-17206.2
-17238.2
-17268.8
-17293.4
-17321.6
-17354.5
-17382.3
-17407.1
-17438.2
-17470.1
-17495.5
-17522.5
-17555.4
-17584.8
-17609.6
-17639.3
-17672.2
-17699.1
-17724.9
-17757.1
-17788.3
-17813.5
-17841.8
-17875
-17903.7
-17929
-17959.9
-17992.4
-18019
-18045.8
-18078.5
-18109.3
-18134.8
-18163.9
-18197.2
-18225.7
-18251.5
-18283
-18315.5
-18342.1
-18369.4
-18402.5
-18433.3
-18459
-18488.6
-18522.1
-18550.8
-18576.9
-18608.6
-18641.4
-18668.4
-18695.8
-18729.1
-18760.4
-18786.5
-18815.8
-18849.7
-18879.1
-18905.3
-18936.7
-18970.1
-18997.9
-19025.1
-19058.1
-19090.4
-19117.1
-19145.9
-19179.8
-19210.4
-19236.9
-19267.5
-19301.5
-19330.5
-19357.5
-19389.8
-19423
-19450.8
-19479
-19512.5
-19544.5
-19571.6
-19601.3
-19635.3
-19666
-19693
-19724.3
-19758.2
-19787.6
-19815.2
-19847.8
-19881.2
-19909.5
-19938.1
-19971.8
-20004.1
-20031.9
-20061.7
-20095.9
-20127.2
-20154.7
-20186
-20220.3
-20250.4
-20278.3
-20310.7
-20344.7
-20373.9
-20402.5
-20435.9
-20469.3
-20497.8
-20527.2
-20561.5
-20594
-20622.2
-20652.6
-20687.3
-20719
-20747
-20778.6
-20813.3
-20844.2
-20872.4
-20905
-20939.6
-20969.7
-20998.4
-21031.8
-21066
-21095.6
-21124.9
-21158.9
-21192.7
-21221.8
-21251.9
-21286.4
-21319.6
-21348.6
-21379.4
-21414.2
-21446.8
-21475.8
-21507.4
-21542.3
-21574.4
-21603.5
-21635.8
-21670.7
-21702.2
-21731.6
-21764.6
-21799.4
-21830.5
-21860.2
-21893.7
-21928.3
-21959.1
-21989.3
-22023.3
-22057.6
-22088.2
-22118.8
-22153.2
-22187.3
-22217.6
-22248.7
-22283.4
-22317.3
-22347.5
-22379
-22414
-22447.6
-22477.8
-22509.7
-22545
-22578.3
-22608.5
-22640.8
-22676.2
-22709.4
-22739.6
-22772.3
-22807.8
-22840.9
-22871.2
-22904.2
-22939.8
-22972.7
-23003.2
-23036.4
-23072
-23105
-23135.6
-23169
-23204.7
-23237.6
-23268.4
-23302
-23337.7
-23370.6
-23401.6
-23435.4
-23471
-23504
-23535.2
-23569.1
-23604.8
-23637.8
-23669.2
-23703.3
-23738.9
-23772
-23803.6
-23837.8
-23873.4
-23906.5
-23938.3
-23972.7
-24008.3
-24041.5
-24073.5
-24107.9
-24143.6
-24176.8
-24208.9
-24243.5
-24279.2
-24312.6
-24344.8
-24379.4
-24415.3
-24448.8
-24481
-24515.7
-24551.8
-24585.4
-24617.7
-24652.4
-24688.5
-24722.5
-24754.8
-24789.4
-24825.7
-24859.9
-24892.3
-24926.7
-24963.1
-24997.6
-25030.2
-25064.5
-25101
-25135.8
-25168.5
-25202.7
-25239.1
-25274.3
-25307.2
-25341.3
-25377.7
-25413.1
-25446.3
-25480.4
-25516.7
-25552.3
-25585.8
-25619.8
-25656.1
-25691.9
-25725.6
-25759.6
-25795.8
-25831.9
-25865.9
-25899.8
-25936
-25972.3
-26006.5
-26040.4
-26076.5
-26113
-26147.5
-26181.4
-26217.3
-26254.1
-26288.9
-26322.8
-26358.6
-26395.5
-26430.7
-26464.6
-26500.2
-26537.3
-26572.9
-26606.9
-26642.2
-26679.4
-26715.5
-26749.6
-26784.7
-26821.8
-26858.3
-26892.8
-26927.6
-26964.6
-27001.5
-27036.3
-27071
-27107.7
-27145
-27180.3
-27214.8
-27251.3
-27288.8
-27324.6
-27359.2
-27395.3
-27432.8
-27469.2
-27503.9
-27539.7
-27577.3
-27614
-27649.1
-27684.7
-27722.1
-27759.2
-27794.7
-27830.1
-27867.3
-27904.7
-27940.6
-27976
-28012.9
-28050.6
-28086.8
-28122.3
-28159
-28196.8
-28233.5
-28269
-28305.5
-28343.3
-28380.4
-28416.1
-28452.4
-28490.2
-28527.8
-28563.7
-28599.7
-28637.4
-28675.3
-28711.7
-28747.6
-28785
-28823.2
-28860.1
-28896
-28933
-28971.3
-29008.8
-29044.9
-29081.5
-29119.7
-29157.8
-29194.2
-29230.6
-29268.5
-29306.9
-29343.9
-29380.2
-29417.8
-29456.4
-29493.9
-29530.3
-29567.6
-29606.1
-29644.1
-29680.9
-29717.8
-29756.2
-29794.6
-29831.8
-29868.6
-29906.7
-29945.4
-29983
-30019.9
-30057.7
-30096.5
-30134.6
-30171.6
-30209.2
-30247.9
-30286.5
-30323.8
-30361.1
-30399.7
-30438.6
-30476.4
-30513.6
-30551.9
-30591
-30629.3
-30666.6
-30704.5
-30743.7
-30782.5
-30820.1
-30857.7
-30896.6
-30935.9
-30974
-31011.5
-31050
-31089.5
-31128.2
-31165.9
-31204
-31243.3
-31282.6
-31320.7
-31358.6
-31397.6
-31437.2
-31475.8
-31513.7
-31552.4
-31592
-31631.2
-31669.3
-31707.7
-31747.2
-31786.7
-31825.3
-31863.6
-31902.8
-31942.6
-31981.6
-32020
-32058.9
-32098.8
-32138.3
-32176.8
-32215.5
-32255.3
-32295.1
-32334.1
-32372.7
-32412.1
-32452.2
-32491.8
-32530.4
-32569.5
-32609.6
-32649.6
-32688.6
-32727.5
-32767.3
-32807.6
-32847.2
-32886.1
-32925.5
-32965.9
-33006
-33045.2
-33084.3
-33124.5
-33165
-33204.7
-33243.8
-33283.6
-33324.1
-33364.4
-33403.8
-33443.2
-33483.6
-33524.3
-33564.1
-33603.5
-33643.6
-33684.4
-33724.7
-33764.4
-33804.2
-33844.8
-33885.6
-33925.6
-33965.3
-34005.7
-34046.6
-34087.1
-34127
-34167.1
-34208
-34248.9
-34289.1
-34329.1
-34369.8
-34410.9
-34451.5
-34491.6
-34532
-34573.2
-34614.3
-34654.6
-34694.8
-34735.8
-34777.2
-34818
-34858.3
-34898.9
-34940.3
-34981.7
-35022.3
-35062.6
-35103.8
-35145.4
-35186.6
-35227.1
-35267.8
-35309.4
-35351
-35392
-35432.6
-35473.8
-35515.6
-35557.1
-35597.9
-35638.9
-35680.5
-35722.4
-35763.6
-35804.6
-35846
-35887.9
-35929.6
-35970.7
-36012
-36053.8
-36095.8
-36137.3
-36178.5
-36220.2
-36262.3
-36304.1
-36345.5
-36387
-36429.1
-36471.3
-36513
-36554.4
-36596.3
-36638.7
-36680.9
-36722.5
-36764.1
-36806.3
-36848.9
-36891
-36932.5
-36974.4
-37017
-37059.6
-37101.6
-37143.3
-37185.5
-37228.3
-37270.9
-37312.8
-37354.8
-37397.3
-37440.2
-37482.7
-37524.7
-37567
-37609.8
-37652.7
-37695
-37737.3
-37779.9
-37822.9
-37865.6
-37908
-37950.6
-37993.5
-38036.6
-38079.2
-38121.7
-38164.6
-38207.8
-38250.8
-38293.4
-38336.1
-38379.3
-38422.7
-38465.6
-38508.2
-38551.2
-38594.7
-38638.1
-38681
-38723.7
-38767
-38810.7
-38854.1
-38897
-38940
-38983.5
-39027.3
-39070.7
-39113.7
-39156.9
-39200.7
-39244.5
-39287.9
-39331
-39374.5
-39418.5
-39462.3
-39505.7
-39549.1
-39592.9
-39636.9
-39680.7
-39724.2
-39767.9
-39811.9
-39855.9
-39899.7
-39943.4
-39987.3
-40031.5
-40075.6
-40119.3
-40163.2
-40207.5
-40251.8
-40295.8
-40339.7
-40383.7
-40428.2
-40472.7
-40516.7
-40560.6
-40605
-40649.7
-40694.2
-40738.3
-40782.3
-40826.9
-40871.7
-40916.3
-40960.5
-41004.7
-41049.5
-41094.4
-41139.1
-41183.3
-41227.8
-41272.7
-41317.7
-41362.5
-41406.9
-41451.6
-41496.6
-41541.7
-41586.5
-41631.1
-41676.1
-41721.2
-41766.3
-41811.2
-41856.1
-41901.2
-41946.4
-41991.5
-42036.5
-42081.6
-42127
-42172.3
-42217.4
-42262.5
-42307.9
-42353.5
-42398.9
-42444
-42489.2
-42534.8
-42580.6
-42626.1
-42671.3
-42716.7
-42762.4
-42808.3
-42854
-42899.3
-42944.8
-42990.7
-43036.7
-43082.5
-43128
-43173.6
-43219.7
-43265.8
-43311.7
-43357.3
-43403.2
-43449.3
-43495.5
-43541.5
-43587.3
-43633.4
-43679.7
-43725.9
-43772
-43818.1
-43864.3
-43910.7
-43957
-44003.2
-44049.4
-44095.9
-44142.4
-44188.8
-44235
-44281.5
-44328.2
-44374.8
-44421.3
-44467.6
-44514.2
-44561.1
-44607.9
-44654.5
-44700.9
-44747.7
-44794.7
-44841.7
-44888.4
-44935
-44981.8
-45029
-45076.1
-45122.9
-45169.7
-45216.7
-45264
-45311.2
-45358.2
-45405.1
-45452.3
-45499.7
-45547
-45594.1
-45641.3
-45688.6
-45736.1
-45783.5
-45830.7
-45878.1
-45925.6
-45973.2
-46020.7
-46068.1
-46115.6
-46163.3
-46211
-46258.6
-46306.1
-46353.8
-46401.7
-46449.6
-46497.3
-46544.9
-46592.7
-46640.8
-46688.9
-46736.7
-46784.4
-46832.4
-46880.6
-46928.8
-46976.8
-47024.7
-47072.8
-47121.1
-47169.4
-47217.6
-47265.7
-47313.9
-47362.3
-47410.8
-47459.1
-47507.4
-47555.8
-47604.3
-47652.9
-47701.3
-47749.8
-47798.4
-47847.1
-47895.7
-47944.3
-47992.9
-48041.7
-48090.6
-48139.3
-48188
-48236.7
-48285.7
-48334.7
-48383.7
-48432.5
-48481.3
-48530.4
-48579.6
-48628.8
-48677.7
-48726.7
-48775.9
-48825.3
-48874.6
-48923.7
-48972.9
-49022.2
-49071.6
-49121.1
-49170.5
-49219.8
-49269.2
-49318.8
-49368.4
-49417.9
-49467.4
-49517
-49566.7
-49616.4
-49666.1
-49715.8
-49765.6
-49815.5
-49865.3
-49915.1
-49964.9
-50014.9
-50064.9
-50114.9
-50164.8
-50214.8
-50264.9
-50315.1
-50365.3
-50415.4
-50465.4
-50515.7
-50566.1
-50616.5
-50666.7
-50716.9
-50767.3
-50817.9
-50868.4
-50918.8
-50969.2
-51019.7
-51070.4
-51121.1
-51171.7
-51222.3
-51272.9
-51323.7
-51374.6
-51425.3
-51476.1
-51526.9
-51577.9
-51628.9
-51679.8
-51730.7
-51781.7
-51832.9
-51884
-51935.1
-51986.1
-52037.3
-52088.6
-52139.9
-52191.2
-52242.4
-52293.7
-52345.2
-52396.7
-52448.1
-52499.4
-52550.9
-52602.5
-52654.2
-52705.8
-52757.3
-52808.9
-52860.7
-52912.5
-52964.4
-53016.1
-53067.8
-53119.7
-53171.7
-53223.7
-53275.6
-53327.6
-53379.6
-53431.7
-53483.9
-53536
-53588.1
-53640.3
-53692.6
-53744.9
-53797.2
-53849.5
-53901.9
-53954.4
-54006.9
-54059.3
-54111.8
-54164.3
-54217
-54269.7
-54322.3
-54374.9
-54427.6
-54480.4
-54533.3
-54586.1
-54638.9
-54691.7
-54744.7
-54797.8
-54850.8
-54903.8
-54956.8
-55009.9
-55063.2
-55116.4
-55169.6
-55222.7
-55276
-55329.4
-55382.9
-55436.2
-55489.6
-55543.1
-55596.6
-55650.2
-55703.8
-55757.4
-55811
-55864.7
-55918.5
-55972.2
-56026
-56079.8
-56133.7
-56187.7
-56241.6
-56295.6
-56349.6
-56403.7
-56457.8
-56512
-56566.1
-56620.2
-56674.5
-56728.9
-56783.2
-56837.5
-56891.9
-56946.3
-57000.9
-57055.5
-57110
-57164.5
-57219.1
-57273.8
-57328.6
-57383.4
-57438.1
-57492.9
-57547.8
-57602.7
-57657.7
-57712.6
-57767.6
-57822.7
-57877.8
-57933
-57988.1
-58043.3
-58098.6
-58153.9
-58209.3
-58264.6
-58320
-58375.5
-58431
-58486.6
-58542.2
-58597.7
-58653.4
-58709.2
-58765
-58820.7
-58876.5
-58932.3
-58988.3
-59044.3
-59100.3
-59156.3
-59212.3
-59268.5
-59324.7
-59381
-59437.2
-59493.4
-59549.7
-59606.1
-59662.6
-59719.1
-59775.6
-59832.1
-59888.6
-59945.3
-60002
-60058.7
-60115.5
-60172.3
-60229.2
-60286.1
-60343
-60400
-60457
-60514.1
-60571.2
-60628.4
-60685.6
-60742.8
-60800.2
-60857.6
-60914.9
-60972.3
-61029.8
-61087.3
-61145
-61202.6
-61260.2
-61317.9
-61375.6
-61433.5
-61491.4
-61549.3
-61607.2
-61665.1
-61723.2
-61781.3
-61839.5
-61897.7
-61955.9
-62014.1
-62072.5
-62130.9
-62189.3
-62247.8
-62306.3
-62364.9
-62423.5
-62482.2
-62540.9
-62599.6
-62658.5
-62717.4
-62776.3
-62835.2
-62894.2
-62953.3
-63012.5
-63071.7
-63130.8
-63190.1
-63249.4
-63308.8
-63368.3
-63427.8
-63487.2
-63546.8
-63606.4
-63666.2
-63726
-63785.7
-63845.5
-63905.4
-63965.4
-64025.4
-64085.5
-64145.6
-64205.7
-64266
-64326.3
-64386.6
-64447
-64507.4
-64567.9
-64628.5
-64689.1
-64749.7
-64810.5
-64871.3
-64932.1
-64993
-65053.9
-65114.9
-65176
-65237.1
-65298.4
-65359.6
-65420.8
-65482.1
-65543.6
-65605.1
-65666.7
-65728.2
-65789.8
-65851.5
-65913.3
-65975.2
-66037.1
-66099
-66161
-66223
-66285.2
-66347.4
-66409.7
-66472
-66534.3
-66596.8
-66659.3
-66721.8
-66784.5
-66847.2
-66910
-66972.8
-67035.7
-67098.6
-67161.6
-67224.7
-67287.9
-67351.1
-67414.4
-67477.7
-67541
-67604.6
-67668.2
-67731.8
-67795.4
-67859.1
-67922.9
-67986.9
-68050.9
-68114.9
-68179
-68243.1
-68307.3
-68371.6
-68436
-68500.5
-68565
-68629.6
-68694.2
-68758.9
-68823.7
-68888.6
-68953.6
-69018.6
-69083.7
-69148.8
-69214.1
-69279.4
-69344.8
-69410.3
-69475.9
-69541.4
-69607.1
-69672.8
-69738.7
-69804.7
-69870.7
-69936.8
-70002.9
-70069.1
-70135.5
-70201.9
-70268.4
-70334.9
-70401.5
-70468.2
-70535.1
-70602
-70669
-70736
-70803.1
-70870.3
-70937.6
-71005
-71072.5
-71140
-71207.7
-71275.4
-71343.2
-71411.1
-71479.1
-71547.2
-71615.3
-71683.6
-71751.9
-71820.3
-71888.8
-71957.4
-72026.2
-72095
-72163.8
-72232.8
-72301.8
-72371
-72440.3
-72509.6
-72579.1
-72648.6
-72718.2
-72787.9
-72857.7
-72927.7
-72997.7
-73067.8
-73138
-73208.3
-73278.7
-73349.2
-73419.8
-73490.6
-73561.4
-73632.3
-73703.3
-73774.4
-73845.6
-73917
-73988.4
-74060
-74131.6
-74203.3
-74275.1
-74347.1
-74419.3
-74491.4
-74563.7
-74636.1
-74708.6
-74781.2
-74854
-74926.8
-74999.8
-75072.8
-75146
-75219.3
-75292.8
-75366.3
-75440
-75513.7
-75587.6
-75661.6
-75735.7
-75810
-75884.4
-75958.9
-76033.5
-76108.2
-76183
-76258
-76333.1
-76408.4
-76483.8
-76559.3
-76634.8
-76710.6
-76786.5
-76862.5
-76938.7
-77014.9
-77091.3
-77167.8
-77244.5
-77321.3
-77398.3
-77475.4
-77552.6
-77629.9
-77707.4
-77785
-77862.8
-77940.8
-78018.8
-78097
-78175.4
-78253.9
-78332.5
-78411.3
-78490.2
-78569.3
-78648.6
-78728
-78807.5
-78887.2
-78967
-79047.1
-79127.2
-79207.6
-79288
-79368.6
-79449.4
-79530.4
-79611.5
-79692.8
-79774.3
-79855.9
-79937.6
-80019.6
-80101.7
-80184
-80266.5
-80349.1
-80431.9
-80514.9
-80598
-80681.4
-80764.9
-80848.6
-80932.5
-81016.5
-81100.8
-81185.2
-81269.8
-81354.7
-81439.7
-81524.9
-81610.3
-81695.8
-81781.6
-81867.6
-81953.8
-82040.2
-82126.8
-82213.6
-82300.6
-82387.8
-82475.3
-82563
-82650.9
-82739
-82827.3
-82915.9
-83004.7
-83093.7
-83183
-83272.5
-83362.2
-83452.2
-83542.4
-83632.9
-83723.6
-83814.6
-83905.9
-83996
-84068.1
-84134.5
-84216
-84290.2
-84388.3
-84494.5
-84592.2
-84693.7
-84790.3
-84887.6
-84983.8
-85079.8
-85174.6
-85269.5
-85364.5
-85459.3
-85554.3
-85649.6
-85745
-85840.6
-85936.4
-86032.4
-86128.5
-86224.9
-86321.5
-86418.3
-86515.4
-86612.9
-86710.7
-86808.7
-86907
-87005.6
-87104.4
-87203.3
-87302.6
-87402.2
-87502.1
-87602.4
-87702.9
-87803.8
-87904.9
-88006.2
-88107.8
-88209.7
-88311.9
-88414.4
-88517.3
-88620.5
-88724.1
-88827.8
-88931.9
-89036.2
-89140.8
-89245.8
-89351.1
-89456.7
-89562.7
-89669.1
-89775.7
-89882.6
-89989.8
-90097.3
-90205.2
-90313.5
-90422.1
-90531
-90640.3
-90749.9
-90859.8
-90970.1
-91080.7
-91191.7
-91303
-91414.7
-91526.8
-91639.2
-91752
-91865.1
-91978.6
-92092.5
-92206.7
-92321.3
-92436.3
-92551.6
-92667.4
-92783.5
-92900
-93016.9
-93134.2
-93251.9
-93369.9
-93488.3
-93607.2
-93726.5
-93846.2
-93966.3
-94086.7
-94207.6
-94328.9
-94450.6
-94572.7
-94695.3
-94818.3
-94941.7
-95065.5
-95189.8
-95314.4
-95439.6
-95565.2
-95691.2
-95817.7
-95944.6
-96071.9
-96199.7
-96327.9
-96456.6
-96585.8
-96715.5
-96845.6
-96976.1
-97107.1
-97238.6
-97370.6
-97503.1
-97636
-97769.4
-97903.3
-98037.7
-98172.6
-98308
-98443.8
-98580.2
-98717.1
-98854.4
-98992.3
-99130.7
-99269.6
-99409
-99549
-99689.4
-99830.4
-99971.9
-100114
-100256
-100399
-100543
-100687
-100832
-100977
-101123
-101269
-101416
-101564
-101712
-101860
-102009
-102159
-102309
-102460
-102611
-102763
-102916
-103069
-103223
-103377
-103532
-103687
-103843
-104000
-104157
-104315
-104473
-104632
-104791
-104952
-105112
-105274
-105436
-105598
-105762
-105925
-106090
-106255
-106420
-106587
-106754
-106921
-107089
-107258
-107427
-107597
-107768
-107939
-108111
-108284
-108457
-108631
-108805
-108980
-109156
-109332
-109509
-109687
-109865
-110044
-110224
-110404
-110585
-110766
-110948
-111131
-111314
-111498
-111683
-111868
-112054
-112241
-112428
-112616
-112804
-112993
-113183
-113373
-113564
-113756
-113948
-114141
-114335
-114529
-114723
-114919
-115115
-115311
-115508
-115706
-115905
-116104
-116303
-116503
-116704
-116905
-117107
-117310
-117513
-117717
-117921
-118126
-118331
-118537
-118743
-118950
-119158
-119366
-119575
-119784
-119993
-120203
-120414
-120625
-120837
-121049
-121262
-121475
-121688
-121903
-122117
-122332
-122547
-122763
-122979
-123196
-123413
-123630
-123848
-124067
-124285
-124504
-124723
-124943
-125163
-125383
-125604
-125825
-126046
-126268
-126489
-126711
-126934
-127156
-127379
-127602
-127825
-128048
-128272
-128496
-128720
-128944
-129168
-129392
-129616
-129841
-130065
-130290
-130515
-130739
-130964
-131189
-131413
-131638
-131863
-132087
-132312
-132536
-132761
-132985
-133209
-133433
-133657
-133881
-134105
-134328
-134551
-134774
-134997
-135219
-135441
-135663
-135885
-136106
-136327
-136547
-136767
-136987
-137207
-137426
-137644
-137862
-138080
-138297
-138514
-138730
-138945
-139160
-139375
-139589
-139802
-140015
-140227
-140438
-140649
-140859
-141069
-141278
-141486
-141693
-141900
-142106
-142311
-142515
-142718
-142921
-143123
-143324
-143524
-143723
-143922
-144119
-144316
-144512
-144707
-144900
-145093
-145285
-145476
-145666
-145855
-146043
-146230
-146416
-146601
-146785
-146968
-147150
-147330
-147510
-147688
-147866
-148042
-148217
-148392
-148564
-148736
-148907
-149077
-149245
-149412
-149578
-149743
-149907
-150070
-150231
-150392
-150551
-150709
-150865
-151021
-151175
-151329
-151481
-151631
-151781
-151930
-152077
-152223
-152368
-152511
-152654
-152795
-152935
-153074
-153212
-153349
-153484
-153619
-153752
-153884
-154015
-154144
-154273
-154400
-154526
-154652
-154776
-154898
-155020
-155141
-155260
-155379
-155496
-155613
-155728
-155842
-155955
-156067
-156178
-156288
-156397
-156505
-156612
-156718
-156823
-156927
-157030
-157132
-157234
-157334
-157433
-157531
-157629
-157725
-157821
-157916
-158010
-158103
-158195
-158286
-158377
-158466
-158555
-158643
-158731
-158817
-158903
-158988
-159072
-159156
-159239
-159321
-159402
-159483
-159563
-159642
-159721
-159799
-159876
-159953
-160029
-160105
-160179
-160254
-160328
-160401
-160473
-160545
-160617
-160688
-160758
-160828
-160898
-160967
-161035
-161103
-161171
-161238
-161305
-161371
-161437
-161502
-161567
-161631
-161696
-161759
-161823
-161886
-161948
-162011
-162073
-162134
-162196
-162257
-162317
-162378
-162438
-162497
-162557
-162616
-162675
-162734
-162792
-162850
-162908
-162966
-163023
-163080
-163137
-163194
-163250
-163307
-163363
-163419
-163474
-163530
-163585
-163640
-163695
-163750
-163805
-163859
-163914
-163968
-164022
-164076
-164130
-164183
-164237
-164290
-164344
-164397
-164450
-164503
-164556
-164608
-164661
-164714
-164766
-164818
-164871
-164923
-164975
-165027
-165079
-165131
-165183
-165234
-165286
-165338
-165389
-165441
-165492
-165544
-165595
-165646
-165698
-165749
-165800
-165851
-165902
-165953
-166004
-166055
-166106
-166157
-166208
-166259
-166310
-166360
-166411
-166462
-166513
-166563
-166614
-166665
-166715
-166766
-166817
-166867
-166918
-166968
-167019
-167070
-167120
-167171
-167221
-167272
-167322
-167373
-167423
-167474
-167524
-167575
-167625
-167676
-167726
-167776
-167827
-167877
-167928
-167978
-168029
-168079
-168130
-168180
-168231
-168281
-168332
-168382
-168433
-168483
-168534
-168584
-168635
-168685
-168736
-168786
-168837
-168887
-168938
-168989
-169039
-169090
-169140
-169191
-169241
-169292
-169343
-169393
-169444
-169495
-169545
-169596
-169647
-169697
-169748
-169799
-169849
-169900
-169951
-170002
-170052
-170103
-170154
-170205
-170255
-170306
-170357
-170408
-170459
-170510
-170560
-170611
-170662
-170713
-170764
-170815
-170866
-170917
-170968
-171019
-171070
-171121
-171172
-171223
-171274
-171325
-171376
-171427
-171478
-171529
-171580
-171631
-171682
-171733
-171784
-171835
-171887
-171938
-171989
-172040
-172091
-172142
-172194
-172245
-172296
-172347
-172399
-172450
-172501
-172553
-172604
-172655
-172707
-172758
-172809
-172861
-172912
-172963
-173015
-173066
-173118
-173169
-173221
-173272
-173323
-173375
-173426
-173478
-173530
-173581
-173633
-173684
-173736
-173787
-173839
-173891
-173942
-173994
-174045
-174097
-174149
-174200
-174252
-174304
-174356
-174407
-174459
-174511
-174562
-174614
-174666
-174718
-174770
-174821
-174873
-174925
-174977
-175029
-175081
-175133
-175185
-175236
-175288
-175340
-175392
-175444
-175496
-175548
-175600
-175652
-175704
-175756
-175808
-175860
-175912
-175964
-176017
-176069
-176121
-176173
-176225
-176277
-176329
-176382
-176434
-176486
-176538
-176590
-176643
-176695
-176747
-176799
-176852
-176904
-176956
-177009
-177061
-177113
-177166
-177218
-177270
-177323
-177375
-177427
-177480
-177532
-177585
-177637
-177690
-177742
-177795
-177847
-177900
-177952
-178005
-178057
-178110
-178163
-178215
-178268
-178320
-178373
-178426
-178478
-178531
-178584
-178636
-178689
-178742
-178794
-178847
-178900
-178953
-179005
-179058
-179111
-179164
-179217
-179270
-179322
-179375
-179428
-179481
-179534
-179587
-179640
-179693
-179746
-179799
-179852
-179904
-179957
-180010
-180064
-180117
-180170
-180223
-180276
-180329
-180382
-180435
-180488
-180541
-180594
-180648
-180701
-180754
-180807
-180860
-180913
-180967
-181020
-181073
-181126