/*--------------------------------*- C++ -*----------------------------------*\
  =========                 |
  \\      /  F ield         | OpenFOAM: The Open Source CFD Toolbox
   \\    /   O peration     | Website:  https://openfoam.org
    \\  /    A nd           | Version:  9
     \\/     M anipulation  |
\*---------------------------------------------------------------------------*/
FoamFile
{
    format      ascii;
    class       volScalarField;
    location    "0.038";
    object      p_0;
}
// * * * * * * * * * * * * * * * * * * * * * * * * * * * * * * * * * * * * * //

dimensions      [1 -1 -2 0 0 0 0];

internalField   nonuniform List<scalar> 
10000
(
12434.2
12434.1
12434
12433.9
12433.8
12433.7
12433.6
12433.5
12433.4
12433.3
12433.2
12433.1
12433
12432.9
12432.8
12432.7
12432.6
12432.5
12432.5
12432.4
12432.3
12432.2
12432.1
12432
12431.9
12431.8
12431.7
12431.6
12431.5
12431.4
12431.3
12431.2
12431.1
12431
12430.9
12430.8
12430.7
12430.6
12430.5
12430.4
12430.3
12430.2
12430.2
12430.1
12430
12429.9
12429.8
12429.7
12429.6
12429.5
12429.4
12429.3
12429.2
12429.1
12429
12428.9
12428.8
12428.7
12428.6
12428.5
12428.4
12428.3
12428.2
12428.1
12428
12427.9
12427.8
12427.8
12427.7
12427.6
12427.5
12427.4
12427.3
12427.2
12427.1
12427
12426.9
12426.8
12426.7
12426.6
12426.5
12426.4
12426.3
12426.2
12426.1
12426
12425.9
12425.8
12425.7
12425.6
12425.5
12425.4
12425.3
12425.2
12425.1
12425.1
12425
12424.9
12424.8
12424.7
12424.6
12424.5
12424.4
12424.3
12424.2
12424.1
12424
12423.9
12423.8
12423.7
12423.6
12423.5
12423.4
12423.3
12423.2
12423.1
12423
12422.9
12422.8
12422.7
12422.6
12422.5
12422.4
12422.3
12422.3
12422.2
12422.1
12422
12421.9
12421.8
12421.7
12421.6
12421.5
12421.4
12421.3
12421.2
12421.1
12421
12420.9
12420.8
12420.7
12420.6
12420.5
12420.4
12420.3
12420.2
12420.1
12420
12419.9
12419.8
12419.7
12419.6
12419.5
12419.4
12419.3
12419.2
12419.2
12419.1
12419
12418.9
12418.8
12418.7
12418.6
12418.5
12418.4
12418.3
12418.2
12418.1
12418
12417.9
12417.8
12417.7
12417.6
12417.5
12417.4
12417.3
12417.2
12417.1
12417
12416.9
12416.8
12416.7
12416.6
12416.5
12416.4
12416.3
12416.2
12416.1
12416
12415.9
12415.8
12415.7
12415.7
12415.6
12415.5
12415.4
12415.3
12415.2
12415.1
12415
12414.9
12414.8
12414.7
12414.6
12414.5
12414.4
12414.3
12414.2
12414.1
12414
12413.9
12413.8
12413.7
12413.6
12413.5
12413.4
12413.3
12413.2
12413.1
12413
12412.9
12412.8
12412.7
12412.6
12412.5
12412.4
12412.3
12412.2
12412.1
12412
12411.9
12411.8
12411.7
12411.6
12411.5
12411.4
12411.4
12411.3
12411.2
12411.1
12411
12410.9
12410.8
12410.7
12410.6
12410.5
12410.4
12410.3
12410.2
12410.1
12410
12409.9
12409.8
12409.7
12409.6
12409.5
12409.4
12409.3
12409.2
12409.1
12409
12408.9
12408.8
12408.7
12408.6
12408.5
12408.4
12408.3
12408.2
12408.1
12408
12407.9
12407.8
12407.7
12407.6
12407.5
12407.4
12407.3
12407.2
12407.1
12407
12406.9
12406.8
12406.7
12406.6
12406.5
12406.4
12406.3
12406.2
12406.1
12406
12405.9
12405.9
12405.8
12405.7
12405.6
12405.5
12405.4
12405.3
12405.2
12405.1
12405
12404.9
12404.8
12404.7
12404.6
12404.5
12404.4
12404.3
12404.2
12404.1
12404
12403.9
12403.8
12403.7
12403.6
12403.5
12403.4
12403.3
12403.2
12403.1
12403
12402.9
12402.8
12402.7
12402.6
12402.5
12402.4
12402.3
12402.2
12402.1
12402
12401.9
12401.8
12401.7
12401.6
12401.5
12401.4
12401.3
12401.2
12401.1
12401
12400.9
12400.8
12400.7
12400.6
12400.5
12400.4
12400.3
12400.2
12400.1
12400
12399.9
12399.8
12399.7
12399.6
12399.5
12399.4
12399.3
12399.2
12399.1
12399
12398.9
12398.8
12398.7
12398.6
12398.5
12398.4
12398.3
12398.2
12398.1
12398
12397.9
12397.8
12397.7
12397.6
12397.5
12397.4
12397.3
12397.2
12397.1
12397
12396.9
12396.8
12396.7
12396.6
12396.5
12396.4
12396.3
12396.2
12396.1
12396
12395.9
12395.8
12395.7
12395.6
12395.5
12395.4
12395.3
12395.2
12395.1
12395
12394.9
12394.8
12394.7
12394.6
12394.5
12394.4
12394.3
12394.2
12394.1
12394
12393.9
12393.8
12393.7
12393.6
12393.5
12393.4
12393.3
12393.2
12393.1
12393
12392.9
12392.8
12392.7
12392.6
12392.5
12392.4
12392.3
12392.2
12392.1
12392
12391.9
12391.8
12391.7
12391.6
12391.5
12391.4
12391.3
12391.2
12391.1
12391
12390.9
12390.8
12390.7
12390.6
12390.5
12390.4
12390.3
12390.2
12390.1
12390
12389.9
12389.8
12389.7
12389.6
12389.5
12389.4
12389.3
12389.2
12389.1
12389
12388.9
12388.8
12388.7
12388.6
12388.5
12388.4
12388.3
12388.2
12388.1
12388
12387.9
12387.8
12387.7
12387.6
12387.5
12387.4
12387.3
12387.2
12387.1
12387
12386.9
12386.8
12386.7
12386.6
12386.5
12386.4
12386.3
12386.2
12386.1
12386
12385.9
12385.8
12385.7
12385.6
12385.5
12385.4
12385.3
12385.2
12385.1
12385
12384.9
12384.8
12384.7
12384.6
12384.5
12384.4
12384.3
12384.2
12384.1
12384
12383.9
12383.8
12383.7
12383.6
12383.5
12383.4
12383.3
12383.2
12383.1
12383
12382.9
12382.8
12382.7
12382.6
12382.5
12382.4
12382.3
12382.2
12382.1
12382
12381.9
12381.8
12381.7
12381.6
12381.5
12381.4
12381.3
12381.2
12381.1
12381
12380.9
12380.8
12380.7
12380.6
12380.5
12380.4
12380.3
12380.2
12380.1
12380
12379.9
12379.8
12379.7
12379.6
12379.4
12379.3
12379.2
12379.1
12379
12378.9
12378.8
12378.7
12378.6
12378.5
12378.4
12378.3
12378.2
12378.1
12378
12377.9
12377.8
12377.7
12377.6
12377.5
12377.4
12377.3
12377.2
12377.1
12377
12376.9
12376.8
12376.7
12376.6
12376.5
12376.4
12376.3
12376.2
12376.1
12376
12375.9
12375.8
12375.7
12375.6
12375.5
12375.4
12375.3
12375.2
12375.1
12375
12374.9
12374.8
12374.7
12374.6
12374.5
12374.4
12374.3
12374.2
12374.1
12374
12373.9
12373.8
12373.6
12373.5
12373.4
12373.3
12373.2
12373.1
12373
12372.9
12372.8
12372.7
12372.6
12372.5
12372.4
12372.3
12372.2
12372.1
12372
12371.9
12371.8
12371.7
12371.6
12371.5
12371.4
12371.3
12371.2
12371.1
12371
12370.9
12370.8
12370.7
12370.6
12370.5
12370.4
12370.3
12370.2
12370.1
12370
12369.9
12369.8
12369.7
12369.6
12369.5
12369.4
12369.2
12369.1
12369
12368.9
12368.8
12368.7
12368.6
12368.5
12368.4
12368.3
12368.2
12368.1
12368
12367.9
12367.8
12367.7
12367.6
12367.5
12367.4
12367.3
12367.2
12367.1
12367
12366.9
12366.8
12366.7
12366.6
12366.5
12366.4
12366.3
12366.2
12366.1
12366
12365.9
12365.8
12365.7
12365.5
12365.4
12365.3
12365.2
12365.1
12365
12364.9
12364.8
12364.7
12364.6
12364.5
12364.4
12364.3
12364.2
12364.1
12364
12363.9
12363.8
12363.7
12363.6
12363.5
12363.4
12363.3
12363.2
12363.1
12363
12362.9
12362.8
12362.7
12362.6
12362.5
12362.4
12362.3
12362.1
12362
12361.9
12361.8
12361.7
12361.6
12361.5
12361.4
12361.3
12361.2
12361.1
12361
12360.9
12360.8
12360.7
12360.6
12360.5
12360.4
12360.3
12360.2
12360.1
12360
12359.9
12359.8
12359.7
12359.6
12359.5
12359.4
12359.3
12359.1
12359
12358.9
12358.8
12358.7
12358.6
12358.5
12358.4
12358.3
12358.2
12358.1
12358
12357.9
12357.8
12357.7
12357.6
12357.5
12357.4
12357.3
12357.2
12357.1
12357
12356.9
12356.8
12356.7
12356.6
12356.4
12356.3
12356.2
12356.1
12356
12355.9
12355.8
12355.7
12355.6
12355.5
12355.4
12355.3
12355.2
12355.1
12355
12354.9
12354.8
12354.7
12354.6
12354.5
12354.4
12354.3
12354.2
12354.1
12354
12353.8
12353.7
12353.6
12353.5
12353.4
12353.3
12353.2
12353.1
12353
12352.9
12352.8
12352.7
12352.6
12352.5
12352.4
12352.3
12352.2
12352.1
12352
12351.9
12351.8
12351.7
12351.6
12351.5
12351.3
12351.2
12351.1
12351
12350.9
12350.8
12350.7
12350.6
12350.5
12350.4
12350.3
12350.2
12350.1
12350
12349.9
12349.8
12349.7
12349.6
12349.5
12349.4
12349.3
12349.2
12349
12348.9
12348.8
12348.7
12348.6
12348.5
12348.4
12348.3
12348.2
12348.1
12348
12347.9
12347.8
12347.7
12347.6
12347.5
12347.4
12347.3
12347.2
12347.1
12347
12346.8
12346.7
12346.6
12346.5
12346.4
12346.3
12346.2
12346.1
12346
12345.9
12345.8
12345.7
12345.6
12345.5
12345.4
12345.3
12345.2
12345.1
12345
12344.9
12344.7
12344.6
12344.5
12344.4
12344.3
12344.2
12344.1
12344
12343.9
12343.8
12343.7
12343.6
12343.5
12343.4
12343.3
12343.2
12343.1
12343
12342.9
12342.8
12342.6
12342.5
12342.4
12342.3
12342.2
12342.1
12342
12341.9
12341.8
12341.7
12341.6
12341.5
12341.4
12341.3
12341.2
12341.1
12341
12340.9
12340.8
12340.6
12340.5
12340.4
12340.3
12340.2
12340.1
12340
12339.9
12339.8
12339.7
12339.6
12339.5
12339.4
12339.3
12339.2
12339.1
12339
12338.9
12338.7
12338.6
12338.5
12338.4
12338.3
12338.2
12338.1
12338
12337.9
12337.8
12337.7
12337.6
12337.5
12337.4
12337.3
12337.2
12337.1
12336.9
12336.8
12336.7
12336.6
12336.5
12336.4
12336.3
12336.2
12336.1
12336
12335.9
12335.8
12335.7
12335.6
12335.5
12335.4
12335.3
12335.2
12335
12334.9
12334.8
12334.7
12334.6
12334.5
12334.4
12334.3
12334.2
12334.1
12334
12333.9
12333.8
12333.7
12333.6
12333.5
12333.3
12333.2
12333.1
12333
12332.9
12332.8
12332.7
12332.6
12332.5
12332.4
12332.3
12332.2
12332.1
12332
12331.9
12331.8
12331.6
12331.5
12331.4
12331.3
12331.2
12331.1
12331
12330.9
12330.8
12330.7
12330.6
12330.5
12330.4
12330.3
12330.2
12330.1
12329.9
12329.8
12329.7
12329.6
12329.5
12329.4
12329.3
12329.2
12329.1
12329
12328.9
12328.8
12328.7
12328.6
12328.5
12328.4
12328.2
12328.1
12328
12327.9
12327.8
12327.7
12327.6
12327.5
12327.4
12327.3
12327.2
12327.1
12327
12326.9
12326.8
12326.6
12326.5
12326.4
12326.3
12326.2
12326.1
12326
12325.9
12325.8
12325.7
12325.6
12325.5
12325.4
12325.3
12325.1
12325
12324.9
12324.8
12324.7
12324.6
12324.5
12324.4
12324.3
12324.2
12324.1
12324
12323.9
12323.8
12323.7
12323.5
12323.4
12323.3
12323.2
12323.1
12323
12322.9
12322.8
12322.7
12322.6
12322.5
12322.4
12322.3
12322.2
12322
12321.9
12321.8
12321.7
12321.6
12321.5
12321.4
12321.3
12321.2
12321.1
12321
12320.9
12320.8
12320.7
12320.5
12320.4
12320.3
12320.2
12320.1
12320
12319.9
12319.8
12319.7
12319.6
12319.5
12319.4
12319.3
12319.2
12319
12318.9
12318.8
12318.7
12318.6
12318.5
12318.4
12318.3
12318.2
12318.1
12318
12317.9
12317.8
12317.7
12317.5
12317.4
12317.3
12317.2
12317.1
12317
12316.9
12316.8
12316.7
12316.6
12316.5
12316.4
12316.3
12316.1
12316
12315.9
12315.8
12315.7
12315.6
12315.5
12315.4
12315.3
12315.2
12315.1
12315
12314.9
12314.7
12314.6
12314.5
12314.4
12314.3
12314.2
12314.1
12314
12313.9
12313.8
12313.7
12313.6
12313.5
12313.3
12313.2
12313.1
12313
12312.9
12312.8
12312.7
12312.6
12312.5
12312.4
12312.3
12312.2
12312.1
12311.9
12311.8
12311.7
12311.6
12311.5
12311.4
12311.3
12311.2
12311.1
12311
12310.9
12310.8
12310.7
12310.5
12310.4
12310.3
12310.2
12310.1
12310
12309.9
12309.8
12309.7
12309.6
12309.5
12309.4
12309.2
12309.1
12309
12308.9
12308.8
12308.7
12308.6
12308.5
12308.4
12308.3
12308.2
12308.1
12307.9
12307.8
12307.7
12307.6
12307.5
12307.4
12307.3
12307.2
12307.1
12307
12306.9
12306.8
12306.7
12306.5
12306.4
12306.3
12306.2
12306.1
12306
12305.9
12305.8
12305.7
12305.6
12305.5
12305.4
12305.2
12305.1
12305
12304.9
12304.8
12304.7
12304.6
12304.5
12304.4
12304.3
12304.2
12304.1
12303.9
12303.8
12303.7
12303.6
12303.5
12303.4
12303.3
12303.2
12303.1
12303
12302.9
12302.8
12302.6
12302.5
12302.4
12302.3
12302.2
12302.1
12302
12301.9
12301.8
12301.7
12301.6
12301.4
12301.3
12301.2
12301.1
12301
12300.9
12300.8
12300.7
12300.6
12300.5
12300.4
12300.3
12300.1
12300
12299.9
12299.8
12299.7
12299.6
12299.5
12299.4
12299.3
12299.2
12299.1
12298.9
12298.8
12298.7
12298.6
12298.5
12298.4
12298.3
12298.2
12298.1
12298
12297.9
12297.8
12297.6
12297.5
12297.4
12297.3
12297.2
12297.1
12297
12296.9
12296.8
12296.7
12296.6
12296.4
12296.3
12296.2
12296.1
12296
12295.9
12295.8
12295.7
12295.6
12295.5
12295.4
12295.2
12295.1
12295
12294.9
12294.8
12294.7
12294.6
12294.5
12294.4
12294.3
12294.2
12294.1
12293.9
12293.8
12293.7
12293.6
12293.5
12293.4
12293.3
12293.2
12293.1
12293
12292.9
12292.7
12292.6
12292.5
12292.4
12292.3
12292.2
12292.1
12292
12291.9
12291.8
12291.7
12291.5
12291.4
12291.3
12291.2
12291.1
12291
12290.9
12290.8
12290.7
12290.6
12290.5
12290.3
12290.2
12290.1
12290
12289.9
12289.8
12289.7
12289.6
12289.5
12289.4
12289.3
12289.1
12289
12288.9
12288.8
12288.7
12288.6
12288.5
12288.4
12288.3
12288.2
12288
12287.9
12287.8
12287.7
12287.6
12287.5
12287.4
12287.3
12287.2
12287.1
12287
12286.8
12286.7
12286.6
12286.5
12286.4
12286.3
12286.2
12286.1
12286
12285.9
12285.8
12285.6
12285.5
12285.4
12285.3
12285.2
12285.1
12285
12284.9
12284.8
12284.7
12284.6
12284.4
12284.3
12284.2
12284.1
12284
12283.9
12283.8
12283.7
12283.6
12283.5
12283.3
12283.2
12283.1
12283
12282.9
12282.8
12282.7
12282.6
12282.5
12282.4
12282.3
12282.1
12282
12281.9
12281.8
12281.7
12281.6
12281.5
12281.4
12281.3
12281.2
12281.1
12280.9
12280.8
12280.7
12280.6
12280.5
12280.4
12280.3
12280.2
12280.1
12280
12279.8
12279.7
12279.6
12279.5
12279.4
12279.3
12279.2
12279.1
12279
12278.9
12278.8
12278.6
12278.5
12278.4
12278.3
12278.2
12278.1
12278
12277.9
12277.8
12277.7
12277.5
12277.4
12277.3
12277.2
12277.1
12277
12276.9
12276.8
12276.7
12276.6
12276.5
12276.3
12276.2
12276.1
12276
12275.9
12275.8
12275.7
12275.6
12275.5
12275.4
12275.2
12275.1
12275
12274.9
12274.8
12274.7
12274.6
12274.5
12274.4
12274.3
12274.1
12274
12273.9
12273.8
12273.7
12273.6
12273.5
12273.4
12273.3
12273.2
12273.1
12272.9
12272.8
12272.7
12272.6
12272.5
12272.4
12272.3
12272.2
12272.1
12272
12271.8
12271.7
12271.6
12271.5
12271.4
12271.3
12271.2
12271.1
12271
12270.9
12270.8
12270.6
12270.5
12270.4
12270.3
12270.2
12270.1
12270
12269.9
12269.8
12269.7
12269.5
12269.4
12269.3
12269.2
12269.1
12269
12268.9
12268.8
12268.7
12268.6
12268.5
12268.3
12268.2
12268.1
12268
12267.9
12267.8
12267.7
12267.6
12267.5
12267.4
12267.2
12267.1
12267
12266.9
12266.8
12266.7
12266.6
12266.5
12266.4
12266.3
12266.1
12266
12265.9
12265.8
12265.7
12265.6
12265.5
12265.4
12265.3
12265.2
12265.1
12264.9
12264.8
12264.7
12264.6
12264.5
12264.4
12264.3
12264.2
12264.1
12264
12263.8
12263.7
12263.6
12263.5
12263.4
12263.3
12263.2
12263.1
12263
12262.9
12262.8
12262.6
12262.5
12262.4
12262.3
12262.2
12262.1
12262
12261.9
12261.8
12261.7
12261.6
12261.4
12261.3
12261.2
12261.1
12261
12260.9
12260.8
12260.7
12260.6
12260.5
12260.3
12260.2
12260.1
12260
12259.9
12259.8
12259.7
12259.6
12259.5
12259.4
12259.3
12259.1
12259
12258.9
12258.8
12258.7
12258.6
12258.5
12258.4
12258.3
12258.2
12258.1
12257.9
12257.8
12257.7
12257.6
12257.5
12257.4
12257.3
12257.2
12257.1
12257
12256.8
12256.7
12256.6
12256.5
12256.4
12256.3
12256.2
12256.1
12256
12255.9
12255.8
12255.6
12255.5
12255.4
12255.3
12255.2
12255.1
12255
12254.9
12254.8
12254.7
12254.6
12254.4
12254.3
12254.2
12254.1
12254
12253.9
12253.8
12253.7
12253.6
12253.5
12253.4
12253.2
12253.1
12253
12252.9
12252.8
12252.7
12252.6
12252.5
12252.4
12252.3
12252.2
12252.1
12251.9
12251.8
12251.7
12251.6
12251.5
12251.4
12251.3
12251.2
12251.1
12251
12250.9
12250.7
12250.6
12250.5
12250.4
12250.3
12250.2
12250.1
12250
12249.9
12249.8
12249.7
12249.5
12249.4
12249.3
12249.2
12249.1
12249
12248.9
12248.8
12248.7
12248.6
12248.5
12248.4
12248.2
12248.1
12248
12247.9
12247.8
12247.7
12247.6
12247.5
12247.4
12247.3
12247.2
12247.1
12246.9
12246.8
12246.7
12246.6
12246.5
12246.4
12246.3
12246.2
12246.1
12246
12245.9
12245.8
12245.6
12245.5
12245.4
12245.3
12245.2
12245.1
12245
12244.9
12244.8
12244.7
12244.6
12244.5
12244.3
12244.2
12244.1
12244
12243.9
12243.8
12243.7
12243.6
12243.5
12243.4
12243.3
12243.2
12243.1
12242.9
12242.8
12242.7
12242.6
12242.5
12242.4
12242.3
12242.2
12242.1
12242
12241.9
12241.8
12241.7
12241.5
12241.4
12241.3
12241.2
12241.1
12241
12240.9
12240.8
12240.7
12240.6
12240.5
12240.4
12240.3
12240.1
12240
12239.9
12239.8
12239.7
12239.6
12239.5
12239.4
12239.3
12239.2
12239.1
12239
12238.9
12238.7
12238.6
12238.5
12238.4
12238.3
12238.2
12238.1
12238
12237.9
12237.8
12237.7
12237.6
12237.5
12237.4
12237.3
12237.1
12237
12236.9
12236.8
12236.7
12236.6
12236.5
12236.4
12236.3
12236.2
12236.1
12236
12235.9
12235.8
12235.7
12235.5
12235.4
12235.3
12235.2
12235.1
12235
12234.9
12234.8
12234.7
12234.6
12234.5
12234.4
12234.3
12234.2
12234.1
12233.9
12233.8
12233.7
12233.6
12233.5
12233.4
12233.3
12233.2
12233.1
12233
12232.9
12232.8
12232.7
12232.6
12232.5
12232.4
12232.3
12232.1
12232
12231.9
12231.8
12231.7
12231.6
12231.5
12231.4
12231.3
12231.2
12231.1
12231
12230.9
12230.8
12230.7
12230.6
12230.5
12230.4
12230.3
12230.1
12230
12229.9
12229.8
12229.7
12229.6
12229.5
12229.4
12229.3
12229.2
12229.1
12229
12228.9
12228.8
12228.7
12228.6
12228.5
12228.4
12228.3
12228.2
12228
12227.9
12227.8
12227.7
12227.6
12227.5
12227.4
12227.3
12227.2
12227.1
12227
12226.9
12226.8
12226.7
12226.6
12226.5
12226.4
12226.3
12226.2
12226.1
12226
12225.9
12225.8
12225.7
12225.6
12225.4
12225.3
12225.2
12225.1
12225
12224.9
12224.8
12224.7
12224.6
12224.5
12224.4
12224.3
12224.2
12224.1
12224
12223.9
12223.8
12223.7
12223.6
12223.5
12223.4
12223.3
12223.2
12223.1
12223
12222.9
12222.8
12222.7
12222.6
12222.5
12222.4
12222.3
12222.2
12222.1
12222
12221.8
12221.7
12221.6
12221.5
12221.4
12221.3
12221.2
12221.1
12221
12220.9
12220.8
12220.7
12220.6
12220.5
12220.4
12220.3
12220.2
12220.1
12220
12219.9
12219.8
12219.7
12219.6
12219.5
12219.4
12219.3
12219.2
12219.1
12219
12218.9
12218.8
12218.7
12218.6
12218.5
12218.4
12218.3
12218.2
12218.1
12218
12217.9
12217.8
12217.7
12217.6
12217.5
12217.4
12217.3
12217.2
12217.1
12217
12216.9
12216.8
12216.7
12216.6
12216.5
12216.4
12216.3
12216.2
12216.1
12216
12215.9
12215.8
12215.7
12215.6
12215.5
12215.4
12215.3
12215.2
12215.1
12215
12214.9
12214.8
12214.7
12214.6
12214.5
12214.4
12214.3
12214.2
12214.1
12214
12213.9
12213.9
12213.8
12213.7
12213.6
12213.5
12213.4
12213.3
12213.2
12213.1
12213
12212.9
12212.8
12212.7
12212.6
12212.5
12212.4
12212.3
12212.2
12212.1
12212
12211.9
12211.8
12211.7
12211.6
12211.5
12211.4
12211.3
12211.2
12211.1
12211.1
12211
12210.9
12210.8
12210.7
12210.6
12210.5
12210.4
12210.3
12210.2
12210.1
12210
12209.9
12209.8
12209.7
12209.6
12209.5
12209.4
12209.3
12209.3
12209.2
12209.1
12209
12208.9
12208.8
12208.7
12208.6
12208.5
12208.4
12208.3
12208.2
12208.1
12208
12207.9
12207.9
12207.8
12207.7
12207.6
12207.5
12207.4
12207.3
12207.2
12207.1
12207
12206.9
12206.8
12206.8
12206.7
12206.6
12206.5
12206.4
12206.3
12206.2
12206.1
12206
12205.9
12205.8
12205.8
12205.7
12205.6
12205.5
12205.4
12205.3
12205.2
12205.1
12205
12204.9
12204.9
12204.8
12204.7
12204.6
12204.5
12204.4
12204.3
12204.2
12204.2
12204.1
12204
12203.9
12203.8
12203.7
12203.6
12203.5
12203.4
12203.4
12203.3
12203.2
12203.1
12203
12202.9
12202.8
12202.8
12202.7
12202.6
12202.5
12202.4
12202.3
12202.2
12202.2
12202.1
12202
12201.9
12201.8
12201.7
12201.6
12201.6
12201.5
12201.4
12201.3
12201.2
12201.1
12201.1
12201
12200.9
12200.8
12200.7
12200.6
12200.6
12200.5
12200.4
12200.3
12200.2
12200.1
12200.1
12200
12199.9
12199.8
12199.7
12199.7
12199.6
12199.5
12199.4
12199.3
12199.3
12199.2
12199.1
12199
12198.9
12198.9
12198.8
12198.7
12198.6
12198.5
12198.5
12198.4
12198.3
12198.2
12198.2
12198.1
12198
12197.9
12197.8
12197.8
12197.7
12197.6
12197.5
12197.5
12197.4
12197.3
12197.2
12197.2
12197.1
12197
12196.9
12196.9
12196.8
12196.7
12196.6
12196.6
12196.5
12196.4
12196.3
12196.3
12196.2
12196.1
12196
12196
12195.9
12195.8
12195.8
12195.7
12195.6
12195.5
12195.5
12195.4
12195.3
12195.3
12195.2
12195.1
12195
12195
12194.9
12194.8
12194.8
12194.7
12194.6
12194.6
12194.5
12194.4
12194.4
12194.3
12194.2
12194.2
12194.1
12194
12194
12193.9
12193.8
12193.8
12193.7
12193.6
12193.6
12193.5
12193.4
12193.4
12193.3
12193.2
12193.2
12193.1
12193
12193
12192.9
12192.9
12192.8
12192.7
12192.7
12192.6
12192.6
12192.5
12192.4
12192.4
12192.3
12192.3
12192.2
12192.1
12192.1
12192
12192
12191.9
12191.8
12191.8
12191.7
12191.7
12191.6
12191.6
12191.5
12191.5
12191.4
12191.3
12191.3
12191.2
12191.2
12191.1
12191.1
12191
12191
12190.9
12190.9
12190.8
12190.8
12190.7
12190.7
12190.6
12190.6
12190.5
12190.5
12190.4
12190.4
12190.3
12190.3
12190.2
12190.2
12190.1
12190.1
12190
12190
12189.9
12189.9
12189.8
12189.8
12189.8
12189.7
12189.7
12189.6
12189.6
12189.5
12189.5
12189.5
12189.4
12189.4
12189.3
12189.3
12189.3
12189.2
12189.2
12189.1
12189.1
12189.1
12189
12189
12189
12188.9
12188.9
12188.8
12188.8
12188.8
12188.7
12188.7
12188.7
12188.6
12188.6
12188.6
12188.5
12188.5
12188.5
12188.5
12188.4
12188.4
12188.4
12188.3
12188.3
12188.3
12188.3
12188.2
12188.2
12188.2
12188.2
12188.1
12188.1
12188.1
12188.1
12188
12188
12188
12188
12188
12187.9
12187.9
12187.9
12187.9
12187.9
12187.8
12187.8
12187.8
12187.8
12187.8
12187.8
12187.8
12187.7
12187.7
12187.7
12187.7
12187.7
12187.7
12187.7
12187.7
12187.7
12187.6
12187.6
12187.6
12187.6
12187.6
12187.6
12187.6
12187.6
12187.6
12187.6
12187.6
12187.6
12187.6
12187.6
12187.6
12187.6
12187.6
12187.6
12187.6
12187.6
12187.6
12187.6
12187.6
12187.6
12187.6
12187.6
12187.6
12187.7
12187.7
12187.7
12187.7
12187.7
12187.7
12187.7
12187.7
12187.8
12187.8
12187.8
12187.8
12187.8
12187.8
12187.9
12187.9
12187.9
12187.9
12187.9
12188
12188
12188
12188
12188.1
12188.1
12188.1
12188.2
12188.2
12188.2
12188.2
12188.3
12188.3
12188.3
12188.4
12188.4
12188.5
12188.5
12188.5
12188.6
12188.6
12188.6
12188.7
12188.7
12188.8
12188.8
12188.9
12188.9
12189
12189
12189.1
12189.1
12189.2
12189.2
12189.3
12189.3
12189.4
12189.4
12189.5
12189.5
12189.6
12189.7
12189.7
12189.8
12189.9
12189.9
12190
12190.1
12190.1
12190.2
12190.3
12190.3
12190.4
12190.5
12190.6
12190.6
12190.7
12190.8
12190.9
12190.9
12191
12191.1
12191.2
12191.3
12191.4
12191.4
12191.5
12191.6
12191.7
12191.8
12191.9
12192
12192.1
12192.2
12192.3
12192.4
12192.5
12192.6
12192.7
12192.8
12192.9
12193
12193.1
12193.2
12193.4
12193.5
12193.6
12193.7
12193.8
12193.9
12194.1
12194.2
12194.3
12194.4
12194.6
12194.7
12194.8
12194.9
12195.1
12195.2
12195.3
12195.5
12195.6
12195.8
12195.9
12196
12196.2
12196.3
12196.5
12196.6
12196.8
12196.9
12197.1
12197.2
12197.4
12197.6
12197.7
12197.9
12198.1
12198.2
12198.4
12198.6
12198.7
12198.9
12199.1
12199.3
12199.4
12199.6
12199.8
12200
12200.2
12200.4
12200.5
12200.7
12200.9
12201.1
12201.3
12201.5
12201.7
12201.9
12202.1
12202.3
12202.5
12202.8
12203
12203.2
12203.4
12203.6
12203.8
12204.1
12204.3
12204.5
12204.8
12205
12205.2
12205.5
12205.7
12205.9
12206.2
12206.4
12206.7
12206.9
12207.2
12207.4
12207.7
12207.9
12208.2
12208.5
12208.7
12209
12209.3
12209.5
12209.8
12210.1
12210.4
12210.6
12210.9
12211.2
12211.5
12211.8
12212.1
12212.4
12212.7
12213
12213.3
12213.6
12213.9
12214.2
12214.5
12214.8
12215.2
12215.5
12215.8
12216.1
12216.5
12216.8
12217.1
12217.5
12217.8
12218.2
12218.5
12218.8
12219.2
12219.6
12219.9
12220.3
12220.6
12221
12221.4
12221.7
12222.1
12222.5
12222.9
12223.2
12223.6
12224
12224.4
12224.8
12225.2
12225.6
12226
12226.4
12226.8
12227.2
12227.6
12228.1
12228.5
12228.9
12229.3
12229.8
12230.2
12230.6
12231.1
12231.5
12231.9
12232.4
12232.8
12233.3
12233.8
12234.2
12234.7
12235.1
12235.6
12236.1
12236.6
12237
12237.5
12238
12238.5
12239
12239.5
12240
12240.5
12241
12241.5
12242
12242.5
12243.1
12243.6
12244.1
12244.6
12245.2
12245.7
12246.2
12246.8
12247.3
12247.9
12248.4
12249
12249.5
12250.1
12250.6
12251.2
12251.8
12252.4
12252.9
12253.5
12254.1
12254.7
12255.3
12255.9
12256.5
12257.1
12257.7
12258.3
12258.9
12259.5
12260.1
12260.7
12261.4
12262
12262.6
12263.3
12263.9
12264.5
12265.2
12265.8
12266.5
12267.1
12267.8
12268.4
12269.1
12269.8
12270.4
12271.1
12271.8
12272.5
12273.2
12273.8
12274.5
12275.2
12275.9
12276.6
12277.3
12278
12278.7
12279.4
12280.2
12280.9
12281.6
12282.3
12283
12283.8
12284.5
12285.2
12286
12286.7
12287.5
12288.2
12289
12289.7
12290.5
12291.2
12292
12292.7
12293.5
12294.3
12295.1
12295.8
12296.6
12297.4
12298.2
12299
12299.7
12300.5
12301.3
12302.1
12302.9
12303.7
12304.5
12305.3
12306.2
12307
12307.8
12308.6
12309.4
12310.2
12311.1
12311.9
12312.7
12313.6
12314.4
12315.2
12316.1
12316.9
12317.7
12318.6
12319.4
12320.3
12321.1
12322
12322.9
12323.7
12324.6
12325.4
12326.3
12327.2
12328
12328.9
12329.8
12330.7
12331.5
12332.4
12333.3
12334.2
12335.1
12335.9
12336.8
12337.7
12338.6
12339.5
12340.4
12341.3
12342.2
12343.1
12344
12344.9
12345.8
12346.7
12347.6
12348.5
12349.4
12350.3
12351.2
12352.2
12353.1
12354
12354.9
12355.8
12356.8
12357.7
12358.6
12359.5
12360.4
12361.4
12362.3
12363.2
12364.2
12365.1
12366
12367
12367.9
12368.8
12369.8
12370.7
12371.6
12372.6
12373.5
12374.5
12375.4
12376.4
12377.3
12378.2
12379.2
12380.1
12381.1
12382
12383
12383.9
12384.9
12385.8
12386.8
12387.8
12388.7
12389.7
12390.6
12391.6
12392.5
12393.5
12394.5
12395.4
12396.4
12397.3
12398.3
12399.3
12400.2
12401.2
12402.1
12403.1
12404.1
12405
12406
12407
12407.9
12408.9
12409.9
12410.8
12411.8
12412.8
12413.8
12414.7
12415.7
12416.7
12417.6
12418.6
12419.6
12420.5
12421.5
12422.5
12423.5
12424.4
12425.4
12426.4
12427.4
12428.3
12429.3
12430.3
12431.3
12432.2
12433.2
12434.2
12435.2
12436.2
12437.1
12438.1
12439.1
12440.1
12441
12442
12443
12444
12445
12445.9
12446.9
12447.9
12448.9
12449.9
12450.9
12451.8
12452.8
12453.8
12454.8
12455.8
12456.7
12457.7
12458.7
12459.7
12460.7
12461.7
12462.6
12463.6
12464.6
12465.6
12466.6
12467.6
12468.5
12469.5
12470.5
12471.5
12472.5
12473.5
12474.5
12475.4
12476.4
12477.4
12478.4
12479.4
12480.4
12481.4
12482.3
12483.3
12484.3
12485.3
12486.3
12487.3
12488.3
12489.3
12490.2
12491.2
12492.2
12493.2
12494.2
12495.2
12496.2
12497.2
12498.1
12499.1
12500.1
12501.1
12502.1
12503.1
12504.1
12505.1
12506.1
12507
12508
12509
12510
12511
12512
12513
12514
12515
12515.9
12516.9
12517.9
12518.9
12519.9
12520.9
12521.9
12522.9
12523.9
12524.9
12525.9
12526.8
12527.8
12528.8
12529.8
12530.8
12531.8
12532.8
12533.8
12534.8
12535.8
12536.8
12537.8
12538.7
12539.7
12540.7
12541.7
12542.7
12543.7
12544.7
12545.7
12546.7
12547.7
12548.7
12549.7
12550.7
12551.7
12552.6
12553.6
12554.6
12555.6
12556.6
12557.6
12558.6
12559.6
12560.6
12561.6
12562.6
12563.6
12564.6
12565.6
12566.6
12567.6
12568.6
12569.6
12570.5
12571.5
12572.5
12573.5
12574.5
12575.5
12576.5
12577.5
12578.5
12579.5
12580.5
12581.5
12582.5
12583.5
12584.5
12585.5
12586.5
12587.5
12588.5
12589.5
12590.5
12591.5
12592.5
12593.5
12594.5
12595.5
12596.5
12597.4
12598.4
12599.4
12600.4
12601.4
12602.4
12603.4
12604.4
12605.4
12606.4
12607.4
12608.4
12609.4
12610.4
12611.4
12612.4
12613.4
12614.4
12615.4
12616.4
12617.4
12618.4
12619.4
12620.4
12621.4
12622.4
12623.4
12624.4
12625.4
12626.4
12627.4
12628.4
12629.4
12630.4
12631.4
12632.4
12633.4
12634.4
12635.4
12636.4
12637.4
12638.4
12639.4
12640.4
12641.4
12642.4
12643.4
12644.4
12645.4
12646.4
12647.4
12648.4
12649.4
12650.4
12651.4
12652.4
12653.4
12654.4
12655.5
12656.5
12657.5
12658.5
12659.5
12660.5
12661.5
12662.5
12663.5
12664.5
12665.5
12666.5
12667.5
12668.5
12669.5
12670.5
12671.5
12672.5
12673.5
12674.5
12675.5
12676.5
12677.5
12678.5
12679.5
12680.5
12681.5
12682.6
12683.6
12684.6
12685.6
12686.6
12687.6
12688.6
12689.6
12690.6
12691.6
12692.6
12693.6
12694.6
12695.6
12696.6
12697.6
12698.6
12699.6
12700.7
12701.7
12702.7
12703.7
12704.7
12705.7
12706.7
12707.7
12708.7
12709.7
12710.7
12711.7
12712.7
12713.7
12714.8
12715.8
12716.8
12717.8
12718.8
12719.8
12720.8
12721.8
12722.8
12723.8
12724.8
12725.8
12726.9
12727.9
12728.9
12729.9
12730.9
12731.9
12732.9
12733.9
12734.9
12735.9
12736.9
12738
12739
12740
12741
12742
12743
12744
12745
12746
12747.1
12748.1
12749.1
12750.1
12751.1
12752.1
12753.1
12754.1
12755.1
12756.2
12757.2
12758.2
12759.2
12760.2
12761.2
12762.2
12763.2
12764.2
12765.3
12766.3
12767.3
12768.3
12769.3
12770.3
12771.3
12772.3
12773.4
12774.4
12775.4
12776.4
12777.4
12778.4
12779.4
12780.5
12781.5
12782.5
12783.5
12784.5
12785.5
12786.5
12787.5
12788.6
12789.6
12790.6
12791.6
12792.6
12793.6
12794.7
12795.7
12796.7
12797.7
12798.7
12799.7
12800.7
12801.8
12802.8
12803.8
12804.8
12805.8
12806.8
12807.9
12808.9
12809.9
12810.9
12811.9
12812.9
12813.9
12815
12816
12817
12818
12819
12820
12821.1
12822.1
12823.1
12824.1
12825.1
12826.2
12827.2
12828.2
12829.2
12830.2
12831.2
12832.3
12833.3
12834.3
12835.3
12836.3
12837.4
12838.4
12839.4
12840.4
12841.4
12842.4
12843.5
12844.5
12845.5
12846.5
12847.5
12848.6
12849.6
12850.6
12851.6
12852.6
12853.7
12854.7
12855.7
12856.7
12857.7
12858.8
12859.8
12860.8
12861.8
12862.8
12863.9
12864.9
12865.9
12866.9
12868
12869
12870
12871
12872
12873.1
12874.1
12875.1
12876.1
12877.1
12878.2
12879.2
12880.2
12881.2
12882.3
12883.3
12884.3
12885.3
12886.4
12887.4
12888.4
12889.4
12890.4
12891.5
12892.5
12893.5
12894.5
12895.6
12896.6
12897.6
12898.6
12899.7
12900.7
12901.7
12902.7
12903.8
12904.8
12905.8
12906.8
12907.9
12908.9
12909.9
12910.9
12912
12913
12914
12915
12916.1
12917.1
12918.1
12919.1
12920.2
12921.2
12922.2
12923.2
12924.3
12925.3
12926.3
12927.3
12928.4
12929.4
12930.4
12931.5
12932.5
12933.5
12934.5
12935.6
12936.6
12937.6
12938.6
12939.7
12940.7
12941.7
12942.8
12943.8
12944.8
12945.8
12946.9
12947.9
12948.9
12950
12951
12952
12953
12954.1
12955.1
12956.1
12957.2
12958.2
12959.2
12960.2
12961.3
12962.3
12963.3
12964.4
12965.4
12966.4
12967.5
12968.5
12969.5
12970.5
12971.6
12972.6
12973.6
12974.7
12975.7
12976.7
12977.8
12978.8
12979.8
12980.8
12981.9
12982.9
12983.9
12985
12986
12987
12988.1
12989.1
12990.1
12991.2
12992.2
12993.2
12994.3
12995.3
12996.3
12997.4
12998.4
12999.4
13000.5
13001.5
13002.5
13003.6
13004.6
13005.6
13006.7
13007.7
13008.7
13009.8
13010.8
13011.8
13012.9
13013.9
13014.9
13016
13017
13018
13019.1
13020.1
13021.1
13022.2
13023.2
13024.2
13025.3
13026.3
13027.3
13028.4
13029.4
13030.5
13031.5
13032.5
13033.6
13034.6
13035.6
13036.7
13037.7
13038.7
13039.8
13040.8
13041.9
13042.9
13043.9
13045
13046
13047
13048.1
13049.1
13050.1
13051.2
13052.2
13053.3
13054.3
13055.3
13056.4
13057.4
13058.5
13059.5
13060.5
13061.6
13062.6
13063.6
13064.7
13065.7
13066.8
13067.8
13068.8
13069.9
13070.9
13072
13073
13074
13075.1
13076.1
13077.1
13078.2
13079.2
13080.3
13081.3
13082.3
13083.4
13084.4
13085.5
13086.5
13087.6
13088.6
13089.6
13090.7
13091.7
13092.8
13093.8
13094.8
13095.9
13096.9
13098
13099
13100
13101.1
13102.1
13103.2
13104.2
13105.3
13106.3
13107.3
13108.4
13109.4
13110.5
13111.5
13112.6
13113.6
13114.6
13115.7
13116.7
13117.8
13118.8
13119.9
13120.9
13121.9
13123
13124
13125.1
13126.1
13127.2
13128.2
13129.2
13130.3
13131.3
13132.4
13133.4
13134.5
13135.5
13136.6
13137.6
13138.6
13139.7
13140.7
13141.8
13142.8
13143.9
13144.9
13146
13147
13148.1
13149.1
13150.1
13151.2
13152.2
13153.3
13154.3
13155.4
13156.4
13157.5
13158.5
13159.6
13160.6
13161.7