/*--------------------------------*- C++ -*----------------------------------*\
  =========                 |
  \\      /  F ield         | OpenFOAM: The Open Source CFD Toolbox
   \\    /   O peration     | Website:  https://openfoam.org
    \\  /    A nd           | Version:  9
     \\/     M anipulation  |
\*---------------------------------------------------------------------------*/
FoamFile
{
    format      ascii;
    class       volScalarField;
    location    "0.038";
    object      T;
}
// * * * * * * * * * * * * * * * * * * * * * * * * * * * * * * * * * * * * * //

dimensions      [0 0 0 1 0 0 0];

internalField   nonuniform List<scalar> 
10000
(
191.412
191.413
191.415
191.418
191.42
191.423
191.425
191.428
191.43
191.432
191.435
191.437
191.44
191.442
191.445
191.447
191.45
191.452
191.455
191.457
191.459
191.462
191.464
191.467
191.469
191.472
191.474
191.477
191.479
191.481
191.484
191.486
191.489
191.491
191.494
191.496
191.498
191.501
191.503
191.506
191.508
191.511
191.513
191.515
191.518
191.52
191.523
191.525
191.528
191.53
191.532
191.535
191.537
191.54
191.542
191.544
191.547
191.549
191.552
191.554
191.556
191.559
191.561
191.564
191.566
191.568
191.571
191.573
191.575
191.578
191.58
191.583
191.585
191.588
191.59
191.592
191.594
191.597
191.599
191.601
191.604
191.606
191.609
191.611
191.613
191.616
191.618
191.62
191.622
191.625
191.627
191.63
191.632
191.635
191.637
191.639
191.641
191.644
191.646
191.648
191.65
191.652
191.655
191.657
191.66
191.662
191.665
191.667
191.669
191.671
191.673
191.675
191.677
191.68
191.682
191.684
191.686
191.689
191.691
191.694
191.696
191.699
191.701
191.703
191.706
191.708
191.709
191.711
191.713
191.715
191.717
191.719
191.721
191.723
191.725
191.727
191.73
191.732
191.735
191.738
191.74
191.743
191.746
191.748
191.75
191.753
191.755
191.757
191.758
191.76
191.761
191.762
191.763
191.764
191.765
191.765
191.765
191.766
191.766
191.766
191.766
191.766
191.766
191.766
191.766
191.766
191.766
191.766
191.765
191.765
191.764
191.764
191.763
191.763
191.763
191.762
191.762
191.761
191.761
191.76
191.76
191.759
191.759
191.759
191.758
191.758
191.757
191.757
191.756
191.756
191.756
191.755
191.755
191.754
191.754
191.753
191.753
191.753
191.752
191.752
191.751
191.751
191.75
191.75
191.75
191.749
191.749
191.748
191.748
191.747
191.747
191.747
191.746
191.746
191.745
191.745
191.744
191.744
191.743
191.743
191.743
191.742
191.742
191.741
191.741
191.74
191.74
191.74
191.739
191.739
191.738
191.738
191.737
191.737
191.737
191.736
191.736
191.735
191.735
191.734
191.734
191.733
191.733
191.733
191.732
191.732
191.731
191.731
191.73
191.73
191.73
191.729
191.729
191.728
191.728
191.727
191.727
191.727
191.726
191.726
191.725
191.725
191.724
191.724
191.723
191.723
191.723
191.722
191.722
191.721
191.721
191.72
191.72
191.72
191.719
191.719
191.718
191.718
191.717
191.717
191.717
191.716
191.716
191.715
191.715
191.714
191.714
191.713
191.713
191.713
191.712
191.712
191.711
191.711
191.71
191.71
191.71
191.709
191.709
191.708
191.708
191.707
191.707
191.706
191.706
191.706
191.705
191.705
191.704
191.704
191.703
191.703
191.703
191.702
191.702
191.701
191.701
191.7
191.7
191.699
191.699
191.699
191.698
191.698
191.697
191.697
191.696
191.696
191.696
191.695
191.695
191.694
191.694
191.693
191.693
191.692
191.692
191.692
191.691
191.691
191.69
191.69
191.689
191.689
191.688
191.688
191.688
191.687
191.687
191.686
191.686
191.685
191.685
191.685
191.684
191.684
191.683
191.683
191.682
191.682
191.681
191.681
191.681
191.68
191.68
191.679
191.679
191.678
191.678
191.677
191.677
191.677
191.676
191.676
191.675
191.675
191.674
191.674
191.673
191.673
191.673
191.672
191.672
191.671
191.671
191.67
191.67
191.67
191.669
191.669
191.668
191.668
191.667
191.667
191.666
191.666
191.666
191.665
191.665
191.664
191.664
191.663
191.663
191.662
191.662
191.662
191.661
191.661
191.66
191.66
191.659
191.659
191.658
191.658
191.658
191.657
191.657
191.656
191.656
191.655
191.655
191.654
191.654
191.654
191.653
191.653
191.652
191.652
191.651
191.651
191.65
191.65
191.65
191.649
191.649
191.648
191.648
191.647
191.647
191.646
191.646
191.646
191.645
191.645
191.644
191.644
191.643
191.643
191.642
191.642
191.642
191.641
191.641
191.64
191.64
191.639
191.639
191.638
191.638
191.638
191.637
191.637
191.636
191.636
191.635
191.635
191.634
191.634
191.634
191.633
191.633
191.632
191.632
191.631
191.631
191.63
191.63
191.63
191.629
191.629
191.628
191.628
191.627
191.627
191.626
191.626
191.626
191.625
191.625
191.624
191.624
191.623
191.623
191.622
191.622
191.621
191.621
191.621
191.62
191.62
191.619
191.619
191.618
191.618
191.617
191.617
191.617
191.616
191.616
191.615
191.615
191.614
191.614
191.613
191.613
191.613
191.612
191.612
191.611
191.611
191.61
191.61
191.609
191.609
191.609
191.608
191.608
191.607
191.607
191.606
191.606
191.605
191.605
191.604
191.604
191.604
191.603
191.603
191.602
191.602
191.601
191.601
191.6
191.6
191.6
191.599
191.599
191.598
191.598
191.597
191.597
191.596
191.596
191.595
191.595
191.595
191.594
191.594
191.593
191.593
191.592
191.592
191.591
191.591
191.591
191.59
191.59
191.589
191.589
191.588
191.588
191.587
191.587
191.586
191.586
191.586
191.585
191.585
191.584
191.584
191.583
191.583
191.582
191.582
191.581
191.581
191.581
191.58
191.58
191.579
191.579
191.578
191.578
191.577
191.577
191.576
191.576
191.576
191.575
191.575
191.574
191.574
191.573
191.573
191.572
191.572
191.572
191.571
191.571
191.57
191.57
191.569
191.569
191.568
191.568
191.567
191.567
191.566
191.566
191.566
191.565
191.565
191.564
191.564
191.563
191.563
191.563
191.562
191.562
191.561
191.561
191.56
191.56
191.559
191.559
191.558
191.558
191.557
191.557
191.556
191.556
191.556
191.555
191.555
191.554
191.554
191.553
191.553
191.552
191.552
191.551
191.551
191.551
191.55
191.55
191.549
191.549
191.548
191.548
191.547
191.547
191.547
191.546
191.546
191.545
191.545
191.544
191.544
191.543
191.543
191.542
191.542
191.542
191.541
191.541
191.54
191.54
191.539
191.539
191.538
191.538
191.537
191.537
191.536
191.536
191.536
191.535
191.535
191.534
191.534
191.533
191.533
191.532
191.532
191.532
191.531
191.531
191.53
191.53
191.529
191.529
191.528
191.528
191.527
191.527
191.526
191.526
191.526
191.525
191.525
191.524
191.524
191.523
191.523
191.522
191.522
191.521
191.521
191.52
191.52
191.52
191.519
191.519
191.518
191.518
191.517
191.517
191.516
191.516
191.515
191.515
191.514
191.514
191.514
191.513
191.513
191.512
191.512
191.511
191.511
191.51
191.51
191.509
191.509
191.508
191.508
191.508
191.507
191.507
191.506
191.506
191.505
191.505
191.504
191.504
191.503
191.503
191.502
191.502
191.502
191.501
191.501
191.5
191.5
191.499
191.499
191.498
191.498
191.497
191.497
191.497
191.496
191.496
191.495
191.495
191.494
191.494
191.493
191.493
191.492
191.492
191.491
191.491
191.491
191.49
191.49
191.489
191.489
191.488
191.488
191.487
191.487
191.486
191.486
191.486
191.485
191.484
191.484
191.484
191.483
191.483
191.482
191.482
191.481
191.481
191.48
191.48
191.479
191.479
191.478
191.478
191.478
191.477
191.477
191.476
191.476
191.475
191.475
191.474
191.474
191.473
191.473
191.473
191.472
191.471
191.471
191.471
191.47
191.47
191.469
191.469
191.468
191.468
191.467
191.467
191.466
191.466
191.466
191.465
191.465
191.464
191.464
191.463
191.463
191.462
191.462
191.461
191.461
191.46
191.46
191.459
191.459
191.459
191.458
191.458
191.457
191.457
191.456
191.456
191.455
191.455
191.454
191.454
191.453
191.453
191.452
191.452
191.452
191.451
191.451
191.45
191.45
191.449
191.449
191.448
191.448
191.447
191.447
191.446
191.446
191.445
191.445
191.445
191.444
191.444
191.443
191.443
191.442
191.442
191.441
191.441
191.44
191.44
191.439
191.439
191.438
191.438
191.438
191.437
191.437
191.436
191.436
191.435
191.435
191.434
191.434
191.433
191.433
191.432
191.432
191.431
191.431
191.431
191.43
191.43
191.429
191.429
191.428
191.428
191.427
191.427
191.426
191.426
191.425
191.425
191.425
191.424
191.424
191.423
191.422
191.422
191.422
191.421
191.421
191.42
191.42
191.419
191.419
191.418
191.418
191.417
191.417
191.416
191.416
191.416
191.415
191.415
191.414
191.414
191.413
191.413
191.412
191.412
191.411
191.411
191.41
191.41
191.409
191.409
191.409
191.408
191.407
191.407
191.407
191.406
191.406
191.405
191.405
191.404
191.404
191.403
191.403
191.402
191.402
191.401
191.401
191.401
191.4
191.4
191.399
191.399
191.398
191.398
191.397
191.397
191.396
191.396
191.395
191.395
191.394
191.394
191.393
191.393
191.392
191.392
191.392
191.391
191.39
191.39
191.39
191.389
191.389
191.388
191.388
191.387
191.387
191.386
191.386
191.385
191.385
191.384
191.384
191.384
191.383
191.382
191.382
191.382
191.381
191.381
191.38
191.38
191.379
191.379
191.378
191.378
191.377
191.377
191.376
191.376
191.375
191.375
191.374
191.374
191.374
191.373
191.373
191.372
191.372
191.371
191.371
191.37
191.37
191.369
191.369
191.368
191.368
191.367
191.367
191.366
191.366
191.365
191.365
191.365
191.364
191.364
191.363
191.363
191.362
191.362
191.361
191.361
191.36
191.36
191.359
191.359
191.358
191.358
191.357
191.357
191.356
191.356
191.355
191.355
191.355
191.354
191.354
191.353
191.353
191.352
191.352
191.351
191.351
191.35
191.35
191.349
191.349
191.348
191.348
191.347
191.347
191.347
191.346
191.345
191.345
191.345
191.344
191.344
191.343
191.343
191.342
191.342
191.341
191.341
191.34
191.34
191.339
191.339
191.338
191.338
191.337
191.337
191.336
191.336
191.335
191.335
191.335
191.334
191.334
191.333
191.333
191.332
191.332
191.331
191.331
191.33
191.33
191.329
191.329
191.328
191.328
191.327
191.327
191.326
191.326
191.325
191.325
191.325
191.324
191.324
191.323
191.323
191.322
191.322
191.321
191.321
191.32
191.32
191.319
191.319
191.318
191.318
191.317
191.317
191.316
191.316
191.315
191.315
191.314
191.314
191.314
191.313
191.313
191.312
191.312
191.311
191.311
191.31
191.31
191.309
191.309
191.308
191.308
191.307
191.307
191.306
191.306
191.305
191.305
191.304
191.304
191.303
191.303
191.302
191.302
191.302
191.301
191.301
191.3
191.3
191.299
191.299
191.298
191.298
191.297
191.297
191.296
191.296
191.295
191.295
191.294
191.294
191.293
191.293
191.292
191.292
191.291
191.291
191.29
191.29
191.289
191.289
191.289
191.288
191.288
191.287
191.287
191.286
191.286
191.285
191.285
191.284
191.284
191.283
191.283
191.282
191.282
191.281
191.281
191.28
191.28
191.279
191.279
191.278
191.278
191.277
191.277
191.277
191.276
191.275
191.275
191.275
191.274
191.274
191.273
191.273
191.272
191.272
191.271
191.271
191.27
191.27
191.269
191.269
191.268
191.268
191.267
191.267
191.266
191.266
191.265
191.265
191.264
191.264
191.263
191.263
191.262
191.262
191.262
191.261
191.261
191.26
191.26
191.259
191.259
191.258
191.258
191.257
191.257
191.256
191.256
191.255
191.255
191.254
191.254
191.253
191.253
191.252
191.252
191.251
191.251
191.25
191.25
191.249
191.249
191.249
191.248
191.247
191.247
191.247
191.246
191.246
191.245
191.245
191.244
191.244
191.243
191.243
191.242
191.242
191.241
191.241
191.24
191.24
191.239
191.239
191.238
191.238
191.237
191.237
191.236
191.236
191.235
191.235
191.234
191.234
191.233
191.233
191.232
191.232
191.232
191.231
191.231
191.23
191.23
191.229
191.229
191.228
191.228
191.227
191.227
191.226
191.226
191.225
191.225
191.224
191.224
191.223
191.223
191.222
191.222
191.221
191.221
191.22
191.22
191.219
191.219
191.218
191.218
191.217
191.217
191.216
191.216
191.216
191.215
191.215
191.214
191.214
191.213
191.213
191.212
191.212
191.211
191.211
191.21
191.21
191.209
191.209
191.208
191.208
191.207
191.207
191.206
191.206
191.205
191.205
191.204
191.204
191.203
191.203
191.202
191.202
191.201
191.201
191.2
191.2
191.199
191.199
191.198
191.198
191.197
191.197
191.197
191.196
191.196
191.195
191.195
191.194
191.194
191.193
191.193
191.192
191.192
191.191
191.191
191.19
191.19
191.189
191.189
191.188
191.188
191.187
191.187
191.186
191.186
191.185
191.185
191.184
191.184
191.183
191.183
191.182
191.182
191.181
191.181
191.18
191.18
191.179
191.179
191.178
191.178
191.178
191.177
191.177
191.176
191.176
191.175
191.175
191.174
191.174
191.173
191.173
191.172
191.172
191.171
191.171
191.17
191.17
191.169
191.169
191.168
191.168
191.167
191.167
191.166
191.166
191.165
191.165
191.164
191.164
191.163
191.163
191.162
191.162
191.161
191.161
191.16
191.16
191.159
191.159
191.158
191.158
191.157
191.157
191.157
191.156
191.156
191.155
191.155
191.154
191.154
191.153
191.153
191.152
191.152
191.151
191.151
191.15
191.15
191.149
191.149
191.148
191.148
191.147
191.147
191.146
191.146
191.145
191.145
191.144
191.144
191.143
191.143
191.142
191.142
191.141
191.141
191.14
191.14
191.139
191.139
191.138
191.138
191.137
191.137
191.136
191.136
191.135
191.135
191.135
191.134
191.134
191.133
191.133
191.132
191.132
191.131
191.131
191.13
191.13
191.129
191.129
191.128
191.128
191.127
191.127
191.126
191.126
191.125
191.125
191.124
191.124
191.123
191.123
191.122
191.122
191.121
191.121
191.12
191.12
191.119
191.119
191.118
191.118
191.117
191.117
191.116
191.116
191.115
191.115
191.114
191.114
191.113
191.113
191.112
191.112
191.112
191.111
191.111
191.11
191.11
191.109
191.109
191.108
191.108
191.107
191.107
191.106
191.106
191.105
191.105
191.104
191.104
191.103
191.103
191.102
191.102
191.101
191.101
191.1
191.1
191.099
191.099
191.098
191.098
191.097
191.097
191.096
191.096
191.095
191.095
191.094
191.094
191.093
191.093
191.092
191.092
191.091
191.091
191.09
191.09
191.089
191.089
191.089
191.088
191.088
191.087
191.087
191.086
191.086
191.085
191.085
191.084
191.084
191.083
191.083
191.082
191.082
191.081
191.081
191.08
191.08
191.079
191.079
191.078
191.078
191.077
191.077
191.076
191.076
191.075
191.075
191.074
191.074
191.073
191.073
191.072
191.072
191.071
191.071
191.07
191.07
191.069
191.069
191.068
191.068
191.067
191.067
191.066
191.066
191.066
191.065
191.065
191.064
191.064
191.063
191.063
191.062
191.062
191.061
191.061
191.06
191.06
191.059
191.059
191.058
191.058
191.057
191.057
191.056
191.056
191.055
191.055
191.054
191.054
191.053
191.053
191.052
191.052
191.051
191.051
191.05
191.05
191.049
191.049
191.048
191.048
191.047
191.047
191.046
191.046
191.045
191.045
191.045
191.044
191.044
191.043
191.043
191.042
191.042
191.041
191.041
191.04
191.04
191.039
191.039
191.038
191.038
191.037
191.037
191.036
191.036
191.035
191.035
191.034
191.034
191.033
191.033
191.032
191.032
191.031
191.031
191.03
191.03
191.029
191.029
191.028
191.028
191.027
191.027
191.026
191.026
191.026
191.025
191.025
191.024
191.024
191.023
191.023
191.022
191.022
191.021
191.021
191.02
191.02
191.019
191.019
191.018
191.018
191.017
191.017
191.016
191.016
191.015
191.015
191.014
191.014
191.013
191.013
191.012
191.012
191.011
191.011
191.01
191.01
191.009
191.009
191.008
191.008
191.008
191.007
191.007
191.006
191.006
191.005
191.005
191.004
191.004
191.003
191.003
191.002
191.002
191.001
191.001
191
191
190.999
190.999
190.998
190.998
190.997
190.997
190.996
190.996
190.995
190.995
190.994
190.994
190.993
190.993
190.993
190.992
190.992
190.991
190.991
190.99
190.99
190.989
190.989
190.988
190.988
190.987
190.987
190.986
190.986
190.985
190.985
190.984
190.984
190.983
190.983
190.982
190.982
190.981
190.981
190.98
190.98
190.979
190.979
190.979
190.978
190.978
190.977
190.977
190.976
190.976
190.975
190.975
190.974
190.974
190.973
190.973
190.972
190.972
190.971
190.971
190.97
190.97
190.969
190.969
190.968
190.968
190.967
190.967
190.967
190.966
190.966
190.965
190.965
190.964
190.964
190.963
190.963
190.962
190.962
190.961
190.961
190.96
190.96
190.959
190.959
190.958
190.958
190.957
190.957
190.956
190.956
190.956
190.955
190.955
190.954
190.954
190.953
190.953
190.952
190.952
190.951
190.951
190.95
190.95
190.949
190.949
190.948
190.948
190.947
190.947
190.946
190.946
190.946
190.945
190.945
190.944
190.944
190.943
190.943
190.942
190.942
190.941
190.941
190.94
190.94
190.939
190.939
190.938
190.938
190.937
190.937
190.937
190.936
190.936
190.935
190.935
190.934
190.934
190.933
190.933
190.932
190.932
190.931
190.931
190.93
190.93
190.929
190.929
190.928
190.928
190.928
190.927
190.927
190.926
190.926
190.925
190.925
190.924
190.924
190.923
190.923
190.922
190.922
190.921
190.921
190.921
190.92
190.92
190.919
190.919
190.918
190.918
190.917
190.917
190.916
190.916
190.915
190.915
190.914
190.914
190.914
190.913
190.913
190.912
190.912
190.911
190.911
190.91
190.91
190.909
190.909
190.908
190.908
190.907
190.907
190.907
190.906
190.906
190.905
190.905
190.904
190.904
190.903
190.903
190.902
190.902
190.901
190.901
190.901
190.9
190.9
190.899
190.899
190.898
190.898
190.897
190.897
190.896
190.896
190.895
190.895
190.895
190.894
190.894
190.893
190.893
190.892
190.892
190.891
190.891
190.89
190.89
190.89
190.889
190.889
190.888
190.888
190.887
190.887
190.886
190.886
190.885
190.885
190.885
190.884
190.884
190.883
190.883
190.882
190.882
190.881
190.881
190.88
190.88
190.88
190.879
190.879
190.878
190.878
190.877
190.877
190.876
190.876
190.875
190.875
190.875
190.874
190.874
190.873
190.873
190.872
190.872
190.871
190.871
190.871
190.87
190.87
190.869
190.869
190.868
190.868
190.867
190.867
190.867
190.866
190.866
190.865
190.865
190.864
190.864
190.863
190.863
190.863
190.862
190.862
190.861
190.861
190.86
190.86
190.859
190.859
190.859
190.858
190.858
190.857
190.857
190.856
190.856
190.856
190.855
190.855
190.854
190.854
190.853
190.853
190.852
190.852
190.852
190.851
190.851
190.85
190.85
190.849
190.849
190.849
190.848
190.848
190.847
190.847
190.846
190.846
190.846
190.845
190.845
190.844
190.844
190.843
190.843
190.843
190.842
190.842
190.841
190.841
190.84
190.84
190.84
190.839
190.839
190.838
190.838
190.837
190.837
190.837
190.836
190.836
190.835
190.835
190.835
190.834
190.834
190.833
190.833
190.832
190.832
190.832
190.831
190.831
190.83
190.83
190.829
190.829
190.829
190.828
190.828
190.827
190.827
190.827
190.826
190.826
190.825
190.825
190.825
190.824
190.824
190.823
190.823
190.822
190.822
190.822
190.821
190.821
190.82
190.82
190.82
190.819
190.819
190.818
190.818
190.818
190.817
190.817
190.816
190.816
190.816
190.815
190.815
190.814
190.814
190.814
190.813
190.813
190.812
190.812
190.812
190.811
190.811
190.81
190.81
190.81
190.809
190.809
190.809
190.808
190.808
190.807
190.807
190.807
190.806
190.806
190.805
190.805
190.805
190.804
190.804
190.803
190.803
190.803
190.802
190.802
190.802
190.801
190.801
190.8
190.8
190.8
190.799
190.799
190.799
190.798
190.798
190.797
190.797
190.797
190.796
190.796
190.796
190.795
190.795
190.794
190.794
190.794
190.793
190.793
190.793
190.792
190.792
190.792
190.791
190.791
190.79
190.79
190.79
190.789
190.789
190.789
190.788
190.788
190.788
190.787
190.787
190.787
190.786
190.786
190.785
190.785
190.785
190.784
190.784
190.784
190.783
190.783
190.783
190.782
190.782
190.782
190.781
190.781
190.781
190.78
190.78
190.78
190.779
190.779
190.779
190.778
190.778
190.778
190.777
190.777
190.777
190.776
190.776
190.776
190.775
190.775
190.775
190.774
190.774
190.774
190.773
190.773
190.773
190.772
190.772
190.772
190.772
190.771
190.771
190.771
190.77
190.77
190.77
190.769
190.769
190.769
190.768
190.768
190.768
190.768
190.767
190.767
190.767
190.766
190.766
190.766
190.765
190.765
190.765
190.765
190.764
190.764
190.764
190.763
190.763
190.763
190.763
190.762
190.762
190.762
190.761
190.761
190.761
190.761
190.76
190.76
190.76
190.76
190.759
190.759
190.759
190.758
190.758
190.758
190.758
190.757
190.757
190.757
190.757
190.756
190.756
190.756
190.756
190.755
190.755
190.755
190.755
190.754
190.754
190.754
190.754
190.753
190.753
190.753
190.753
190.752
190.752
190.752
190.752
190.752
190.751
190.751
190.751
190.751
190.75
190.75
190.75
190.75
190.75
190.749
190.749
190.749
190.749
190.749
190.748
190.748
190.748
190.748
190.748
190.747
190.747
190.747
190.747
190.747
190.746
190.746
190.746
190.746
190.746
190.745
190.745
190.745
190.745
190.745
190.745
190.744
190.744
190.744
190.744
190.744
190.744
190.743
190.743
190.743
190.743
190.743
190.743
190.743
190.742
190.742
190.742
190.742
190.742
190.742
190.742
190.741
190.741
190.741
190.741
190.741
190.741
190.741
190.741
190.74
190.74
190.74
190.74
190.74
190.74
190.74
190.74
190.74
190.74
190.739
190.739
190.739
190.739
190.739
190.739
190.739
190.739
190.739
190.739
190.739
190.739
190.739
190.738
190.738
190.738
190.738
190.738
190.738
190.738
190.738
190.738
190.738
190.738
190.738
190.738
190.738
190.738
190.738
190.738
190.738
190.738
190.738
190.738
190.738
190.738
190.738
190.738
190.738
190.738
190.738
190.738
190.738
190.738
190.738
190.738
190.738
190.738
190.738
190.738
190.738
190.738
190.738
190.738
190.738
190.738
190.738
190.739
190.739
190.739
190.739
190.739
190.739
190.739
190.739
190.739
190.739
190.739
190.739
190.74
190.74
190.74
190.74
190.74
190.74
190.74
190.74
190.741
190.741
190.741
190.741
190.741
190.741
190.741
190.742
190.742
190.742
190.742
190.742
190.743
190.743
190.743
190.743
190.743
190.744
190.744
190.744
190.744
190.744
190.745
190.745
190.745
190.745
190.746
190.746
190.746
190.746
190.747
190.747
190.747
190.747
190.748
190.748
190.748
190.749
190.749
190.749
190.749
190.75
190.75
190.75
190.751
190.751
190.751
190.752
190.752
190.752
190.753
190.753
190.754
190.754
190.754
190.755
190.755
190.755
190.756
190.756
190.757
190.757
190.758
190.758
190.758
190.759
190.759
190.76
190.76
190.761
190.761
190.762
190.762
190.763
190.763
190.764
190.764
190.765
190.765
190.766
190.766
190.767
190.767
190.768
190.768
190.769
190.77
190.77
190.771
190.771
190.772
190.773
190.773
190.774
190.774
190.775
190.776
190.776
190.777
190.778
190.778
190.779
190.78
190.78
190.781
190.782
190.783
190.783
190.784
190.785
190.785
190.786
190.787
190.788
190.789
190.789
190.79
190.791
190.792
190.793
190.793
190.794
190.795
190.796
190.797
190.798
190.799
190.799
190.8
190.801
190.802
190.803
190.804
190.805
190.806
190.807
190.808
190.809
190.81
190.811
190.812
190.813
190.814
190.815
190.816
190.817
190.818
190.819
190.82
190.821
190.822
190.823
190.824
190.826
190.827
190.828
190.829
190.83
190.831
190.833
190.834
190.835
190.836
190.837
190.839
190.84
190.841
190.842
190.844
190.845
190.846
190.848
190.849
190.85
190.852
190.853
190.854
190.856
190.857
190.859
190.86
190.861
190.863
190.864
190.866
190.867
190.869
190.87
190.872
190.873
190.875
190.876
190.878
190.879
190.881
190.883
190.884
190.886
190.888
190.889
190.891
190.893
190.894
190.896
190.898
190.899
190.901
190.903
190.905
190.906
190.908
190.91
190.912
190.914
190.915
190.917
190.919
190.921
190.923
190.925
190.927
190.929
190.931
190.933
190.935
190.937
190.939
190.941
190.943
190.945
190.947
190.949
190.951
190.953
190.955
190.957
190.959
190.962
190.964
190.966
190.968
190.97
190.973
190.975
190.977
190.979
190.982
190.984
190.986
190.989
190.991
190.993
190.996
190.998
191
191.003
191.005
191.008
191.01
191.013
191.015
191.018
191.02
191.023
191.025
191.028
191.03
191.033
191.036
191.038
191.041
191.044
191.046
191.049
191.052
191.054
191.057
191.06
191.063
191.065
191.068
191.071
191.074
191.077
191.079
191.082
191.085
191.088
191.091
191.094
191.097
191.1
191.103
191.106
191.109
191.112
191.115
191.118
191.121
191.124
191.127
191.13
191.133
191.136
191.139
191.142
191.146
191.149
191.152
191.155
191.158
191.162
191.165
191.168
191.171
191.175
191.178
191.181
191.184
191.188
191.191
191.195
191.198
191.201
191.205
191.208
191.211
191.215
191.218
191.222
191.225
191.229
191.232
191.236
191.239
191.243
191.246
191.25
191.253
191.257
191.261
191.264
191.268
191.271
191.275
191.279
191.282
191.286
191.29
191.293
191.297
191.301
191.304
191.308
191.312
191.316
191.319
191.323
191.327
191.331
191.334
191.338
191.342
191.346
191.35
191.354
191.357
191.361
191.365
191.369
191.373
191.377
191.381
191.385
191.388
191.392
191.396
191.4
191.404
191.408
191.412
191.416
191.42
191.424
191.428
191.432
191.436
191.44
191.444
191.448
191.452
191.456
191.46
191.464
191.468
191.472
191.476
191.48
191.485
191.489
191.493
191.497
191.501
191.505
191.509
191.513
191.517
191.521
191.526
191.53
191.534
191.538
191.542
191.546
191.55
191.555
191.559
191.563
191.567
191.571
191.575
191.58
191.584
191.588
191.592
191.596
191.601
191.605
191.609
191.613
191.617
191.622
191.626
191.63
191.634
191.639
191.643
191.647
191.651
191.656
191.66
191.664
191.668
191.673
191.677
191.681
191.685
191.69
191.694
191.698
191.702
191.707
191.711
191.715
191.719
191.724
191.728
191.732
191.737
191.741
191.745
191.749
191.754
191.758
191.762
191.767
191.771
191.775
191.78
191.784
191.788
191.792
191.797
191.801
191.805
191.81
191.814
191.818
191.823
191.827
191.831
191.836
191.84
191.844
191.848
191.853
191.857
191.861
191.866
191.87
191.874
191.879
191.883
191.887
191.892
191.896
191.9
191.905
191.909
191.913
191.918
191.922
191.926
191.931
191.935
191.939
191.944
191.948
191.952
191.957
191.961
191.965
191.97
191.974
191.978
191.983
191.987
191.991
191.996
192
192.004
192.009
192.013
192.017
192.022
192.026
192.03
192.035
192.039
192.043
192.048
192.052
192.057
192.061
192.065
192.07
192.074
192.078
192.083
192.087
192.091
192.096
192.1
192.104
192.109
192.113
192.117
192.122
192.126
192.13
192.135
192.139
192.143
192.148
192.152
192.157
192.161
192.165
192.17
192.174
192.178
192.183
192.187
192.191
192.196
192.2
192.204
192.209
192.213
192.217
192.222
192.226
192.231
192.235
192.239
192.244
192.248
192.252
192.257
192.261
192.265
192.27
192.274
192.278
192.283
192.287
192.291
192.296
192.3
192.305
192.309
192.313
192.318
192.322
192.326
192.331
192.335
192.339
192.344
192.348
192.352
192.357
192.361
192.366
192.37
192.374
192.379
192.383
192.387
192.392
192.396
192.4
192.405
192.409
192.414
192.418
192.422
192.427
192.431
192.435
192.44
192.444
192.448
192.453
192.457
192.461
192.466
192.47
192.475
192.479
192.483
192.488
192.492
192.496
192.501
192.505
192.509
192.514
192.518
192.523
192.527
192.531
192.536
192.54
192.544
192.549
192.553
192.557
192.562
192.566
192.571
192.575
192.579
192.584
192.588
192.592
192.597
192.601
192.605
192.61
192.614
192.619
192.623
192.627
192.632
192.636
192.64
192.645
192.649
192.654
192.658
192.662
192.667
192.671
192.675
192.68
192.684
192.688
192.693
192.697
192.702
192.706
192.71
192.715
192.719
192.723
192.728
192.732
192.737
192.741
192.745
192.75
192.754
192.758
192.763
192.767
192.772
192.776
192.78
192.785
192.789
192.793
192.798
192.802
192.806
192.811
192.815
192.82
192.824
192.828
192.833
192.837
192.841
192.846
192.85
192.855
192.859
192.863
192.868
192.872
192.876
192.881
192.885
192.89
192.894
192.898
192.903
192.907
192.911
192.916
192.92
192.925
192.929
192.933
192.938
192.942
192.946
192.951
192.955
192.96
192.964
192.968
192.973
192.977
192.981
192.986
192.99
192.995
192.999
193.003
193.008
193.012
193.017
193.021
193.025
193.03
193.034
193.038
193.043
193.047
193.052
193.056
193.06
193.065
193.069
193.073
193.078
193.082
193.087
193.091
193.095
193.1
193.104
193.108
193.113
193.117
193.122
193.126
193.13
193.135
193.139
193.144
193.148
193.152
193.157
193.161
193.165
193.17
193.174
193.179
193.183
193.187
193.192
193.196
193.201
193.205
193.209
193.214
193.218
193.222
193.227
193.231
193.236
193.24
193.244
193.249
193.253
193.258
193.262
193.266
193.271
193.275
193.279
193.284
193.288
193.293
193.297
193.301
193.306
193.31
193.315
193.319
193.323
193.328
193.332
193.337
193.341
193.345
193.35
193.354
193.358
193.363
193.367
193.372
193.376
193.38
193.385
193.389
193.394
193.398
193.402
193.407
193.411
193.416
193.42
193.424
193.429
193.433
193.438
193.442
193.446
193.451
193.455
193.459
193.464
193.468
193.473
193.477
193.481
193.486
193.49
193.495
193.499
193.503
193.508
193.512
193.517
193.521
193.525
193.53
193.534
193.539
193.543
193.547
193.552
193.556
193.561
193.565
193.569
193.574
193.578
193.583
193.587
193.591
193.596
193.6
193.605
193.609
193.613
193.618
193.622
193.627
193.631
193.635
193.64
193.644
193.649
193.653
193.657
193.662
193.666
193.671
193.675
193.679
193.684
193.688
193.693
193.697
193.701
193.706
193.71
193.715
193.719
193.723
193.728
193.732
193.737
193.741
193.745
193.75
193.754
193.759
193.763
193.767
193.772
193.776
193.781
193.785
193.789
193.794
193.798
193.803
193.807
193.811
193.816
193.82
193.825
193.829
193.833
193.838
193.842
193.847
193.851
193.855
193.86
193.864
193.869
193.873
193.877
193.882
193.886
193.891
193.895
193.899
193.904
193.908
193.913
193.917
193.922
193.926
193.93
193.935
193.939
193.944
193.948
193.952
193.957
193.961
193.966
193.97
193.974
193.979
193.983
193.988
193.992
193.996
194.001
194.005
194.01
194.014
194.019
194.023
194.027
194.032
194.036
194.041
194.045
194.049
194.054
194.058
194.063
194.067
194.071
194.076
194.08
194.085
194.089
194.094
194.098
194.102
194.107
194.111
194.116
194.12
194.124
194.129
194.133
194.138
194.142
194.147
194.151
194.155
194.16
194.164
194.169
194.173
194.177
194.182
194.186
194.191
194.195
194.199
194.204
194.208
194.213
194.217
194.222
194.226
194.23
194.235
194.239
194.244
194.248
194.253
194.257
194.261
194.266
194.27
194.275
194.279
194.283
194.288
194.292
194.297
194.301
194.306
194.31
194.314
194.319
194.323
194.328
194.332
194.336
194.341
194.345
194.35
194.354
194.359
194.363
194.367
194.372
194.376
194.381
194.385
194.39
194.394
194.398
194.403
194.407
194.412
194.416
194.42
194.425
194.429
194.434
194.438
194.443
194.447
194.451
194.456
194.46
194.465
194.469
194.474
194.478
194.482
194.487
194.491
194.496
194.5
194.505
194.509
194.513
194.518
194.522
194.527
194.531
194.536
194.54
194.544
194.549
194.553
194.558
194.562
194.567
194.571
194.575
194.58
194.584
194.589
194.593
194.598
194.602
194.606
194.611
194.615
194.62
194.624
194.629
194.633
194.637
194.642
194.646
194.651
194.655
194.66
194.664
194.668
194.673
194.677
194.682
194.686
194.691
194.695
194.699
194.704
194.708
194.713
194.717
194.722
194.726
194.73
194.735
194.739
194.744
194.748
194.753
194.757
194.761
194.766
194.77
194.775
194.779
194.784
194.788
194.793
194.797
194.801
194.806
194.81
194.815
194.819
194.824
194.828
194.832