/*--------------------------------*- C++ -*----------------------------------*\
  =========                 |
  \\      /  F ield         | OpenFOAM: The Open Source CFD Toolbox
   \\    /   O peration     | Website:  https://openfoam.org
    \\  /    A nd           | Version:  9
     \\/     M anipulation  |
\*---------------------------------------------------------------------------*/
FoamFile
{
    format      ascii;
    class       volVectorField;
    location    "0.038";
    object      U_0;
}
// * * * * * * * * * * * * * * * * * * * * * * * * * * * * * * * * * * * * * //

dimensions      [0 1 -1 0 0 0 0];

internalField   nonuniform List<vector> 
10000
(
(7.14222 0 0)
(7.17966 0 0)
(7.22347 0 0)
(7.25925 0 0)
(7.29118 0 0)
(7.32318 0 0)
(7.35596 0 0)
(7.38903 0 0)
(7.42207 0 0)
(7.45503 0 0)
(7.48797 0 0)
(7.52092 0 0)
(7.55387 0 0)
(7.58683 0 0)
(7.61978 0 0)
(7.65273 0 0)
(7.68569 0 0)
(7.71864 0 0)
(7.7516 0 0)
(7.78455 0 0)
(7.81751 0 0)
(7.85046 0 0)
(7.88342 0 0)
(7.91637 0 0)
(7.94933 0 0)
(7.98228 0 0)
(8.01524 0 0)
(8.0482 0 0)
(8.08115 0 0)
(8.11411 0 0)
(8.14707 0 0)
(8.18002 0 0)
(8.21298 0 0)
(8.24594 0 0)
(8.27889 0 0)
(8.31185 0 0)
(8.34481 0 0)
(8.37777 0 0)
(8.41072 0 0)
(8.44368 0 0)
(8.47664 0 0)
(8.5096 0 0)
(8.54256 0 0)
(8.57552 0 0)
(8.60848 0 0)
(8.64144 0 0)
(8.67439 0 0)
(8.70735 0 0)
(8.74031 0 0)
(8.77327 0 0)
(8.80623 0 0)
(8.83919 0 0)
(8.87215 0 0)
(8.90511 0 0)
(8.93807 0 0)
(8.97104 0 0)
(9.004 0 0)
(9.03696 0 0)
(9.06992 0 0)
(9.10288 0 0)
(9.13584 0 0)
(9.1688 0 0)
(9.20177 0 0)
(9.23473 0 0)
(9.26769 0 0)
(9.30065 0 0)
(9.33362 0 0)
(9.36658 0 0)
(9.39954 0 0)
(9.4325 0 0)
(9.46547 0 0)
(9.49843 0 0)
(9.5314 0 0)
(9.56436 0 0)
(9.59732 0 0)
(9.63029 0 0)
(9.66325 0 0)
(9.69622 0 0)
(9.72918 0 0)
(9.76214 0 0)
(9.79511 0 0)
(9.82808 0 0)
(9.86104 0 0)
(9.89401 0 0)
(9.92697 0 0)
(9.95994 0 0)
(9.9929 0 0)
(10.0259 0 0)
(10.0588 0 0)
(10.0918 0 0)
(10.1248 0 0)
(10.1577 0 0)
(10.1907 0 0)
(10.2237 0 0)
(10.2566 0 0)
(10.2896 0 0)
(10.3226 0 0)
(10.3555 0 0)
(10.3885 0 0)
(10.4215 0 0)
(10.4544 0 0)
(10.4874 0 0)
(10.5204 0 0)
(10.5533 0 0)
(10.5863 0 0)
(10.6193 0 0)
(10.6523 0 0)
(10.6852 0 0)
(10.7182 0 0)
(10.7512 0 0)
(10.7841 0 0)
(10.8171 0 0)
(10.8501 0 0)
(10.883 0 0)
(10.916 0 0)
(10.949 0 0)
(10.982 0 0)
(11.0149 0 0)
(11.0479 0 0)
(11.0809 0 0)
(11.1138 0 0)
(11.1468 0 0)
(11.1798 0 0)
(11.2128 0 0)
(11.2457 0 0)
(11.2787 0 0)
(11.3117 0 0)
(11.3447 0 0)
(11.3776 0 0)
(11.4106 0 0)
(11.4436 0 0)
(11.4765 0 0)
(11.5095 0 0)
(11.5425 0 0)
(11.5755 0 0)
(11.6084 0 0)
(11.6414 0 0)
(11.6744 0 0)
(11.7074 0 0)
(11.7403 0 0)
(11.7733 0 0)
(11.8063 0 0)
(11.8393 0 0)
(11.8722 0 0)
(11.9052 0 0)
(11.9382 0 0)
(11.9712 0 0)
(12.0041 0 0)
(12.0371 0 0)
(12.0701 0 0)
(12.1031 0 0)
(12.1361 0 0)
(12.169 0 0)
(12.202 0 0)
(12.235 0 0)
(12.268 0 0)
(12.3009 0 0)
(12.3339 0 0)
(12.3669 0 0)
(12.3999 0 0)
(12.4329 0 0)
(12.4658 0 0)
(12.4988 0 0)
(12.5318 0 0)
(12.5648 0 0)
(12.5977 0 0)
(12.6307 0 0)
(12.6637 0 0)
(12.6967 0 0)
(12.7297 0 0)
(12.7626 0 0)
(12.7956 0 0)
(12.8286 0 0)
(12.8616 0 0)
(12.8946 0 0)
(12.9275 0 0)
(12.9605 0 0)
(12.9935 0 0)
(13.0265 0 0)
(13.0595 0 0)
(13.0924 0 0)
(13.1254 0 0)
(13.1584 0 0)
(13.1914 0 0)
(13.2244 0 0)
(13.2574 0 0)
(13.2903 0 0)
(13.3233 0 0)
(13.3563 0 0)
(13.3893 0 0)
(13.4223 0 0)
(13.4553 0 0)
(13.4882 0 0)
(13.5212 0 0)
(13.5542 0 0)
(13.5872 0 0)
(13.6202 0 0)
(13.6532 0 0)
(13.6861 0 0)
(13.7191 0 0)
(13.7521 0 0)
(13.7851 0 0)
(13.8181 0 0)
(13.8511 0 0)
(13.884 0 0)
(13.917 0 0)
(13.95 0 0)
(13.983 0 0)
(14.016 0 0)
(14.049 0 0)
(14.082 0 0)
(14.1149 0 0)
(14.1479 0 0)
(14.1809 0 0)
(14.2139 0 0)
(14.2469 0 0)
(14.2799 0 0)
(14.3129 0 0)
(14.3459 0 0)
(14.3788 0 0)
(14.4118 0 0)
(14.4448 0 0)
(14.4778 0 0)
(14.5108 0 0)
(14.5438 0 0)
(14.5768 0 0)
(14.6098 0 0)
(14.6427 0 0)
(14.6757 0 0)
(14.7087 0 0)
(14.7417 0 0)
(14.7747 0 0)
(14.8077 0 0)
(14.8407 0 0)
(14.8737 0 0)
(14.9067 0 0)
(14.9397 0 0)
(14.9726 0 0)
(15.0056 0 0)
(15.0386 0 0)
(15.0716 0 0)
(15.1046 0 0)
(15.1376 0 0)
(15.1706 0 0)
(15.2036 0 0)
(15.2366 0 0)
(15.2696 0 0)
(15.3026 0 0)
(15.3355 0 0)
(15.3685 0 0)
(15.4015 0 0)
(15.4345 0 0)
(15.4675 0 0)
(15.5005 0 0)
(15.5335 0 0)
(15.5665 0 0)
(15.5995 0 0)
(15.6325 0 0)
(15.6655 0 0)
(15.6985 0 0)
(15.7315 0 0)
(15.7645 0 0)
(15.7974 0 0)
(15.8304 0 0)
(15.8634 0 0)
(15.8964 0 0)
(15.9294 0 0)
(15.9624 0 0)
(15.9954 0 0)
(16.0284 0 0)
(16.0614 0 0)
(16.0944 0 0)
(16.1274 0 0)
(16.1604 0 0)
(16.1934 0 0)
(16.2264 0 0)
(16.2594 0 0)
(16.2924 0 0)
(16.3254 0 0)
(16.3584 0 0)
(16.3914 0 0)
(16.4244 0 0)
(16.4574 0 0)
(16.4904 0 0)
(16.5234 0 0)
(16.5564 0 0)
(16.5894 0 0)
(16.6224 0 0)
(16.6554 0 0)
(16.6883 0 0)
(16.7213 0 0)
(16.7543 0 0)
(16.7873 0 0)
(16.8203 0 0)
(16.8533 0 0)
(16.8863 0 0)
(16.9193 0 0)
(16.9523 0 0)
(16.9853 0 0)
(17.0183 0 0)
(17.0513 0 0)
(17.0843 0 0)
(17.1173 0 0)
(17.1503 0 0)
(17.1833 0 0)
(17.2163 0 0)
(17.2493 0 0)
(17.2823 0 0)
(17.3153 0 0)
(17.3483 0 0)
(17.3813 0 0)
(17.4144 0 0)
(17.4474 0 0)
(17.4804 0 0)
(17.5134 0 0)
(17.5464 0 0)
(17.5794 0 0)
(17.6124 0 0)
(17.6454 0 0)
(17.6784 0 0)
(17.7114 0 0)
(17.7444 0 0)
(17.7774 0 0)
(17.8104 0 0)
(17.8434 0 0)
(17.8764 0 0)
(17.9094 0 0)
(17.9424 0 0)
(17.9754 0 0)
(18.0084 0 0)
(18.0414 0 0)
(18.0744 0 0)
(18.1074 0 0)
(18.1404 0 0)
(18.1734 0 0)
(18.2064 0 0)
(18.2394 0 0)
(18.2724 0 0)
(18.3055 0 0)
(18.3385 0 0)
(18.3715 0 0)
(18.4045 0 0)
(18.4375 0 0)
(18.4705 0 0)
(18.5035 0 0)
(18.5365 0 0)
(18.5695 0 0)
(18.6025 0 0)
(18.6355 0 0)
(18.6685 0 0)
(18.7015 0 0)
(18.7345 0 0)
(18.7676 0 0)
(18.8006 0 0)
(18.8336 0 0)
(18.8666 0 0)
(18.8996 0 0)
(18.9326 0 0)
(18.9656 0 0)
(18.9986 0 0)
(19.0316 0 0)
(19.0646 0 0)
(19.0976 0 0)
(19.1306 0 0)
(19.1637 0 0)
(19.1967 0 0)
(19.2297 0 0)
(19.2627 0 0)
(19.2957 0 0)
(19.3287 0 0)
(19.3617 0 0)
(19.3947 0 0)
(19.4277 0 0)
(19.4608 0 0)
(19.4938 0 0)
(19.5268 0 0)
(19.5598 0 0)
(19.5928 0 0)
(19.6258 0 0)
(19.6588 0 0)
(19.6918 0 0)
(19.7248 0 0)
(19.7579 0 0)
(19.7909 0 0)
(19.8239 0 0)
(19.8569 0 0)
(19.8899 0 0)
(19.9229 0 0)
(19.9559 0 0)
(19.989 0 0)
(20.022 0 0)
(20.055 0 0)
(20.088 0 0)
(20.121 0 0)
(20.154 0 0)
(20.187 0 0)
(20.22 0 0)
(20.2531 0 0)
(20.2861 0 0)
(20.3191 0 0)
(20.3521 0 0)
(20.3851 0 0)
(20.4181 0 0)
(20.4512 0 0)
(20.4842 0 0)
(20.5172 0 0)
(20.5502 0 0)
(20.5832 0 0)
(20.6162 0 0)
(20.6493 0 0)
(20.6823 0 0)
(20.7153 0 0)
(20.7483 0 0)
(20.7813 0 0)
(20.8143 0 0)
(20.8474 0 0)
(20.8804 0 0)
(20.9134 0 0)
(20.9464 0 0)
(20.9794 0 0)
(21.0124 0 0)
(21.0455 0 0)
(21.0785 0 0)
(21.1115 0 0)
(21.1445 0 0)
(21.1775 0 0)
(21.2106 0 0)
(21.2436 0 0)
(21.2766 0 0)
(21.3096 0 0)
(21.3426 0 0)
(21.3756 0 0)
(21.4087 0 0)
(21.4417 0 0)
(21.4747 0 0)
(21.5077 0 0)
(21.5407 0 0)
(21.5738 0 0)
(21.6068 0 0)
(21.6398 0 0)
(21.6728 0 0)
(21.7059 0 0)
(21.7389 0 0)
(21.7719 0 0)
(21.8049 0 0)
(21.8379 0 0)
(21.871 0 0)
(21.904 0 0)
(21.937 0 0)
(21.97 0 0)
(22.003 0 0)
(22.0361 0 0)
(22.0691 0 0)
(22.1021 0 0)
(22.1351 0 0)
(22.1682 0 0)
(22.2012 0 0)
(22.2342 0 0)
(22.2672 0 0)
(22.3003 0 0)
(22.3333 0 0)
(22.3663 0 0)
(22.3993 0 0)
(22.4324 0 0)
(22.4654 0 0)
(22.4984 0 0)
(22.5314 0 0)
(22.5644 0 0)
(22.5975 0 0)
(22.6305 0 0)
(22.6635 0 0)
(22.6965 0 0)
(22.7296 0 0)
(22.7626 0 0)
(22.7956 0 0)
(22.8287 0 0)
(22.8617 0 0)
(22.8947 0 0)
(22.9277 0 0)
(22.9608 0 0)
(22.9938 0 0)
(23.0268 0 0)
(23.0598 0 0)
(23.0929 0 0)
(23.1259 0 0)
(23.1589 0 0)
(23.1919 0 0)
(23.225 0 0)
(23.258 0 0)
(23.291 0 0)
(23.3241 0 0)
(23.3571 0 0)
(23.3901 0 0)
(23.4231 0 0)
(23.4562 0 0)
(23.4892 0 0)
(23.5222 0 0)
(23.5553 0 0)
(23.5883 0 0)
(23.6213 0 0)
(23.6543 0 0)
(23.6874 0 0)
(23.7204 0 0)
(23.7534 0 0)
(23.7865 0 0)
(23.8195 0 0)
(23.8525 0 0)
(23.8856 0 0)
(23.9186 0 0)
(23.9516 0 0)
(23.9846 0 0)
(24.0177 0 0)
(24.0507 0 0)
(24.0837 0 0)
(24.1168 0 0)
(24.1498 0 0)
(24.1828 0 0)
(24.2159 0 0)
(24.2489 0 0)
(24.2819 0 0)
(24.315 0 0)
(24.348 0 0)
(24.381 0 0)
(24.4141 0 0)
(24.4471 0 0)
(24.4801 0 0)
(24.5132 0 0)
(24.5462 0 0)
(24.5792 0 0)
(24.6123 0 0)
(24.6453 0 0)
(24.6783 0 0)
(24.7114 0 0)
(24.7444 0 0)
(24.7774 0 0)
(24.8105 0 0)
(24.8435 0 0)
(24.8765 0 0)
(24.9096 0 0)
(24.9426 0 0)
(24.9756 0 0)
(25.0087 0 0)
(25.0417 0 0)
(25.0747 0 0)
(25.1078 0 0)
(25.1408 0 0)
(25.1739 0 0)
(25.2069 0 0)
(25.2399 0 0)
(25.273 0 0)
(25.306 0 0)
(25.339 0 0)
(25.3721 0 0)
(25.4051 0 0)
(25.4381 0 0)
(25.4712 0 0)
(25.5042 0 0)
(25.5373 0 0)
(25.5703 0 0)
(25.6033 0 0)
(25.6364 0 0)
(25.6694 0 0)
(25.7024 0 0)
(25.7355 0 0)
(25.7685 0 0)
(25.8016 0 0)
(25.8346 0 0)
(25.8676 0 0)
(25.9007 0 0)
(25.9337 0 0)
(25.9668 0 0)
(25.9998 0 0)
(26.0328 0 0)
(26.0659 0 0)
(26.0989 0 0)
(26.132 0 0)
(26.165 0 0)
(26.198 0 0)
(26.2311 0 0)
(26.2641 0 0)
(26.2972 0 0)
(26.3302 0 0)
(26.3632 0 0)
(26.3963 0 0)
(26.4293 0 0)
(26.4624 0 0)
(26.4954 0 0)
(26.5284 0 0)
(26.5615 0 0)
(26.5945 0 0)
(26.6276 0 0)
(26.6606 0 0)
(26.6936 0 0)
(26.7267 0 0)
(26.7597 0 0)
(26.7928 0 0)
(26.8258 0 0)
(26.8589 0 0)
(26.8919 0 0)
(26.9249 0 0)
(26.958 0 0)
(26.991 0 0)
(27.0241 0 0)
(27.0571 0 0)
(27.0902 0 0)
(27.1232 0 0)
(27.1563 0 0)
(27.1893 0 0)
(27.2223 0 0)
(27.2554 0 0)
(27.2884 0 0)
(27.3215 0 0)
(27.3545 0 0)
(27.3876 0 0)
(27.4206 0 0)
(27.4537 0 0)
(27.4867 0 0)
(27.5197 0 0)
(27.5528 0 0)
(27.5858 0 0)
(27.6189 0 0)
(27.6519 0 0)
(27.685 0 0)
(27.718 0 0)
(27.7511 0 0)
(27.7841 0 0)
(27.8172 0 0)
(27.8502 0 0)
(27.8833 0 0)
(27.9163 0 0)
(27.9493 0 0)
(27.9824 0 0)
(28.0154 0 0)
(28.0485 0 0)
(28.0815 0 0)
(28.1146 0 0)
(28.1476 0 0)
(28.1807 0 0)
(28.2137 0 0)
(28.2468 0 0)
(28.2798 0 0)
(28.3129 0 0)
(28.3459 0 0)
(28.379 0 0)
(28.412 0 0)
(28.4451 0 0)
(28.4781 0 0)
(28.5112 0 0)
(28.5442 0 0)
(28.5773 0 0)
(28.6103 0 0)
(28.6434 0 0)
(28.6764 0 0)
(28.7095 0 0)
(28.7425 0 0)
(28.7756 0 0)
(28.8086 0 0)
(28.8417 0 0)
(28.8747 0 0)
(28.9078 0 0)
(28.9408 0 0)
(28.9739 0 0)
(29.0069 0 0)
(29.04 0 0)
(29.073 0 0)
(29.1061 0 0)
(29.1391 0 0)
(29.1722 0 0)
(29.2052 0 0)
(29.2383 0 0)
(29.2713 0 0)
(29.3044 0 0)
(29.3374 0 0)
(29.3705 0 0)
(29.4035 0 0)
(29.4366 0 0)
(29.4697 0 0)
(29.5027 0 0)
(29.5358 0 0)
(29.5688 0 0)
(29.6019 0 0)
(29.6349 0 0)
(29.668 0 0)
(29.701 0 0)
(29.7341 0 0)
(29.7671 0 0)
(29.8002 0 0)
(29.8332 0 0)
(29.8663 0 0)
(29.8994 0 0)
(29.9324 0 0)
(29.9655 0 0)
(29.9985 0 0)
(30.0316 0 0)
(30.0646 0 0)
(30.0977 0 0)
(30.1307 0 0)
(30.1638 0 0)
(30.1968 0 0)
(30.2299 0 0)
(30.263 0 0)
(30.296 0 0)
(30.3291 0 0)
(30.3621 0 0)
(30.3952 0 0)
(30.4282 0 0)
(30.4613 0 0)
(30.4944 0 0)
(30.5274 0 0)
(30.5605 0 0)
(30.5935 0 0)
(30.6266 0 0)
(30.6596 0 0)
(30.6927 0 0)
(30.7258 0 0)
(30.7588 0 0)
(30.7919 0 0)
(30.8249 0 0)
(30.858 0 0)
(30.891 0 0)
(30.9241 0 0)
(30.9572 0 0)
(30.9902 0 0)
(31.0233 0 0)
(31.0563 0 0)
(31.0894 0 0)
(31.1225 0 0)
(31.1555 0 0)
(31.1886 0 0)
(31.2216 0 0)
(31.2547 0 0)
(31.2878 0 0)
(31.3208 0 0)
(31.3539 0 0)
(31.3869 0 0)
(31.42 0 0)
(31.4531 0 0)
(31.4861 0 0)
(31.5192 0 0)
(31.5522 0 0)
(31.5853 0 0)
(31.6184 0 0)
(31.6514 0 0)
(31.6845 0 0)
(31.7175 0 0)
(31.7506 0 0)
(31.7837 0 0)
(31.8167 0 0)
(31.8498 0 0)
(31.8829 0 0)
(31.9159 0 0)
(31.949 0 0)
(31.982 0 0)
(32.0151 0 0)
(32.0482 0 0)
(32.0812 0 0)
(32.1143 0 0)
(32.1474 0 0)
(32.1804 0 0)
(32.2135 0 0)
(32.2465 0 0)
(32.2796 0 0)
(32.3127 0 0)
(32.3457 0 0)
(32.3788 0 0)
(32.4119 0 0)
(32.4449 0 0)
(32.478 0 0)
(32.5111 0 0)
(32.5441 0 0)
(32.5772 0 0)
(32.6103 0 0)
(32.6433 0 0)
(32.6764 0 0)
(32.7094 0 0)
(32.7425 0 0)
(32.7756 0 0)
(32.8086 0 0)
(32.8417 0 0)
(32.8748 0 0)
(32.9078 0 0)
(32.9409 0 0)
(32.974 0 0)
(33.007 0 0)
(33.0401 0 0)
(33.0732 0 0)
(33.1062 0 0)
(33.1393 0 0)
(33.1724 0 0)
(33.2054 0 0)
(33.2385 0 0)
(33.2716 0 0)
(33.3046 0 0)
(33.3377 0 0)
(33.3708 0 0)
(33.4038 0 0)
(33.4369 0 0)
(33.47 0 0)
(33.503 0 0)
(33.5361 0 0)
(33.5692 0 0)
(33.6022 0 0)
(33.6353 0 0)
(33.6684 0 0)
(33.7015 0 0)
(33.7345 0 0)
(33.7676 0 0)
(33.8007 0 0)
(33.8337 0 0)
(33.8668 0 0)
(33.8999 0 0)
(33.9329 0 0)
(33.966 0 0)
(33.9991 0 0)
(34.0321 0 0)
(34.0652 0 0)
(34.0983 0 0)
(34.1314 0 0)
(34.1644 0 0)
(34.1975 0 0)
(34.2306 0 0)
(34.2636 0 0)
(34.2967 0 0)
(34.3298 0 0)
(34.3628 0 0)
(34.3959 0 0)
(34.429 0 0)
(34.4621 0 0)
(34.4951 0 0)
(34.5282 0 0)
(34.5613 0 0)
(34.5943 0 0)
(34.6274 0 0)
(34.6605 0 0)
(34.6936 0 0)
(34.7266 0 0)
(34.7597 0 0)
(34.7928 0 0)
(34.8258 0 0)
(34.8589 0 0)
(34.892 0 0)
(34.9251 0 0)
(34.9581 0 0)
(34.9912 0 0)
(35.0243 0 0)
(35.0574 0 0)
(35.0904 0 0)
(35.1235 0 0)
(35.1566 0 0)
(35.1896 0 0)
(35.2227 0 0)
(35.2558 0 0)
(35.2889 0 0)
(35.3219 0 0)
(35.355 0 0)
(35.3881 0 0)
(35.4212 0 0)
(35.4542 0 0)
(35.4873 0 0)
(35.5204 0 0)
(35.5535 0 0)
(35.5865 0 0)
(35.6196 0 0)
(35.6527 0 0)
(35.6858 0 0)
(35.7188 0 0)
(35.7519 0 0)
(35.785 0 0)
(35.8181 0 0)
(35.8511 0 0)
(35.8842 0 0)
(35.9173 0 0)
(35.9504 0 0)
(35.9834 0 0)
(36.0165 0 0)
(36.0496 0 0)
(36.0827 0 0)
(36.1158 0 0)
(36.1488 0 0)
(36.1819 0 0)
(36.215 0 0)
(36.2481 0 0)
(36.2811 0 0)
(36.3142 0 0)
(36.3473 0 0)
(36.3804 0 0)
(36.4134 0 0)
(36.4465 0 0)
(36.4796 0 0)
(36.5127 0 0)
(36.5458 0 0)
(36.5788 0 0)
(36.6119 0 0)
(36.645 0 0)
(36.6781 0 0)
(36.7111 0 0)
(36.7442 0 0)
(36.7773 0 0)
(36.8104 0 0)
(36.8435 0 0)
(36.8765 0 0)
(36.9096 0 0)
(36.9427 0 0)
(36.9758 0 0)
(37.0089 0 0)
(37.0419 0 0)
(37.075 0 0)
(37.1081 0 0)
(37.1412 0 0)
(37.1743 0 0)
(37.2073 0 0)
(37.2404 0 0)
(37.2735 0 0)
(37.3066 0 0)
(37.3397 0 0)
(37.3727 0 0)
(37.4058 0 0)
(37.4389 0 0)
(37.472 0 0)
(37.5051 0 0)
(37.5381 0 0)
(37.5712 0 0)
(37.6043 0 0)
(37.6374 0 0)
(37.6705 0 0)
(37.7036 0 0)
(37.7366 0 0)
(37.7697 0 0)
(37.8028 0 0)
(37.8359 0 0)
(37.869 0 0)
(37.902 0 0)
(37.9351 0 0)
(37.9682 0 0)
(38.0013 0 0)
(38.0344 0 0)
(38.0675 0 0)
(38.1005 0 0)
(38.1336 0 0)
(38.1667 0 0)
(38.1998 0 0)
(38.2329 0 0)
(38.266 0 0)
(38.299 0 0)
(38.3321 0 0)
(38.3652 0 0)
(38.3983 0 0)
(38.4314 0 0)
(38.4645 0 0)
(38.4975 0 0)
(38.5306 0 0)
(38.5637 0 0)
(38.5968 0 0)
(38.6299 0 0)
(38.663 0 0)
(38.696 0 0)
(38.7291 0 0)
(38.7622 0 0)
(38.7953 0 0)
(38.8284 0 0)
(38.8615 0 0)
(38.8946 0 0)
(38.9276 0 0)
(38.9607 0 0)
(38.9938 0 0)
(39.0269 0 0)
(39.06 0 0)
(39.0931 0 0)
(39.1261 0 0)
(39.1592 0 0)
(39.1923 0 0)
(39.2254 0 0)
(39.2585 0 0)
(39.2916 0 0)
(39.3247 0 0)
(39.3578 0 0)
(39.3908 0 0)
(39.4239 0 0)
(39.457 0 0)
(39.4901 0 0)
(39.5232 0 0)
(39.5563 0 0)
(39.5894 0 0)
(39.6224 0 0)
(39.6555 0 0)
(39.6886 0 0)
(39.7217 0 0)
(39.7548 0 0)
(39.7879 0 0)
(39.821 0 0)
(39.8541 0 0)
(39.8871 0 0)
(39.9202 0 0)
(39.9533 0 0)
(39.9864 0 0)
(40.0195 0 0)
(40.0526 0 0)
(40.0857 0 0)
(40.1188 0 0)
(40.1519 0 0)
(40.1849 0 0)
(40.218 0 0)
(40.2511 0 0)
(40.2842 0 0)
(40.3173 0 0)
(40.3504 0 0)
(40.3835 0 0)
(40.4166 0 0)
(40.4497 0 0)
(40.4827 0 0)
(40.5158 0 0)
(40.5489 0 0)
(40.582 0 0)
(40.6151 0 0)
(40.6482 0 0)
(40.6813 0 0)
(40.7144 0 0)
(40.7475 0 0)
(40.7806 0 0)
(40.8136 0 0)
(40.8467 0 0)
(40.8798 0 0)
(40.9129 0 0)
(40.946 0 0)
(40.9791 0 0)
(41.0122 0 0)
(41.0453 0 0)
(41.0784 0 0)
(41.1115 0 0)
(41.1446 0 0)
(41.1776 0 0)
(41.2107 0 0)
(41.2438 0 0)
(41.2769 0 0)
(41.31 0 0)
(41.3431 0 0)
(41.3762 0 0)
(41.4093 0 0)
(41.4424 0 0)
(41.4755 0 0)
(41.5086 0 0)
(41.5417 0 0)
(41.5747 0 0)
(41.6078 0 0)
(41.6409 0 0)
(41.674 0 0)
(41.7071 0 0)
(41.7402 0 0)
(41.7733 0 0)
(41.8064 0 0)
(41.8395 0 0)
(41.8726 0 0)
(41.9057 0 0)
(41.9388 0 0)
(41.9719 0 0)
(42.005 0 0)
(42.0381 0 0)
(42.0711 0 0)
(42.1042 0 0)
(42.1373 0 0)
(42.1704 0 0)
(42.2035 0 0)
(42.2366 0 0)
(42.2697 0 0)
(42.3028 0 0)
(42.3359 0 0)
(42.369 0 0)
(42.4021 0 0)
(42.4352 0 0)
(42.4683 0 0)
(42.5014 0 0)
(42.5345 0 0)
(42.5676 0 0)
(42.6007 0 0)
(42.6337 0 0)
(42.6668 0 0)
(42.6999 0 0)
(42.733 0 0)
(42.7661 0 0)
(42.7992 0 0)
(42.8323 0 0)
(42.8654 0 0)
(42.8985 0 0)
(42.9316 0 0)
(42.9647 0 0)
(42.9978 0 0)
(43.0309 0 0)
(43.064 0 0)
(43.0971 0 0)
(43.1302 0 0)
(43.1633 0 0)
(43.1964 0 0)
(43.2295 0 0)
(43.2626 0 0)
(43.2957 0 0)
(43.3288 0 0)
(43.3619 0 0)
(43.395 0 0)
(43.428 0 0)
(43.4611 0 0)
(43.4942 0 0)
(43.5273 0 0)
(43.5604 0 0)
(43.5935 0 0)
(43.6266 0 0)
(43.6597 0 0)
(43.6928 0 0)
(43.7259 0 0)
(43.759 0 0)
(43.7921 0 0)
(43.8252 0 0)
(43.8583 0 0)
(43.8914 0 0)
(43.9245 0 0)
(43.9576 0 0)
(43.9907 0 0)
(44.0238 0 0)
(44.0569 0 0)
(44.09 0 0)
(44.1231 0 0)
(44.1562 0 0)
(44.1893 0 0)
(44.2224 0 0)
(44.2555 0 0)
(44.2886 0 0)
(44.3217 0 0)
(44.3548 0 0)
(44.3879 0 0)
(44.421 0 0)
(44.4541 0 0)
(44.4872 0 0)
(44.5203 0 0)
(44.5534 0 0)
(44.5865 0 0)
(44.6196 0 0)
(44.6527 0 0)
(44.6858 0 0)
(44.7189 0 0)
(44.752 0 0)
(44.7851 0 0)
(44.8182 0 0)
(44.8513 0 0)
(44.8844 0 0)
(44.9175 0 0)
(44.9506 0 0)
(44.9837 0 0)
(45.0168 0 0)
(45.0499 0 0)
(45.083 0 0)
(45.1161 0 0)
(45.1492 0 0)
(45.1823 0 0)
(45.2154 0 0)
(45.2485 0 0)
(45.2816 0 0)
(45.3147 0 0)
(45.3478 0 0)
(45.3809 0 0)
(45.414 0 0)
(45.4471 0 0)
(45.4802 0 0)
(45.5133 0 0)
(45.5464 0 0)
(45.5795 0 0)
(45.6126 0 0)
(45.6457 0 0)
(45.6788 0 0)
(45.7119 0 0)
(45.745 0 0)
(45.7781 0 0)
(45.8112 0 0)
(45.8443 0 0)
(45.8774 0 0)
(45.9105 0 0)
(45.9436 0 0)
(45.9767 0 0)
(46.0098 0 0)
(46.0429 0 0)
(46.076 0 0)
(46.1091 0 0)
(46.1422 0 0)
(46.1753 0 0)
(46.2084 0 0)
(46.2415 0 0)
(46.2746 0 0)
(46.3077 0 0)
(46.3408 0 0)
(46.3739 0 0)
(46.407 0 0)
(46.4401 0 0)
(46.4732 0 0)
(46.5064 0 0)
(46.5395 0 0)
(46.5726 0 0)
(46.6057 0 0)
(46.6388 0 0)
(46.6719 0 0)
(46.705 0 0)
(46.7381 0 0)
(46.7712 0 0)
(46.8043 0 0)
(46.8374 0 0)
(46.8705 0 0)
(46.9036 0 0)
(46.9367 0 0)
(46.9698 0 0)
(47.0029 0 0)
(47.036 0 0)
(47.0691 0 0)
(47.1022 0 0)
(47.1353 0 0)
(47.1684 0 0)
(47.2015 0 0)
(47.2346 0 0)
(47.2677 0 0)
(47.3008 0 0)
(47.3339 0 0)
(47.367 0 0)
(47.4002 0 0)
(47.4333 0 0)
(47.4664 0 0)
(47.4995 0 0)
(47.5326 0 0)
(47.5657 0 0)
(47.5988 0 0)
(47.6319 0 0)
(47.665 0 0)
(47.6981 0 0)
(47.7312 0 0)
(47.7643 0 0)
(47.7974 0 0)
(47.8305 0 0)
(47.8636 0 0)
(47.8967 0 0)
(47.9298 0 0)
(47.9629 0 0)
(47.996 0 0)
(48.0291 0 0)
(48.0622 0 0)
(48.0954 0 0)
(48.1285 0 0)
(48.1616 0 0)
(48.1947 0 0)
(48.2278 0 0)
(48.2609 0 0)
(48.294 0 0)
(48.3271 0 0)
(48.3602 0 0)
(48.3933 0 0)
(48.4264 0 0)
(48.4595 0 0)
(48.4926 0 0)
(48.5257 0 0)
(48.5588 0 0)
(48.5919 0 0)
(48.625 0 0)
(48.6582 0 0)
(48.6913 0 0)
(48.7244 0 0)
(48.7575 0 0)
(48.7906 0 0)
(48.8237 0 0)
(48.8568 0 0)
(48.8899 0 0)
(48.923 0 0)
(48.9561 0 0)
(48.9892 0 0)
(49.0223 0 0)
(49.0554 0 0)
(49.0885 0 0)
(49.1216 0 0)
(49.1547 0 0)
(49.1879 0 0)
(49.221 0 0)
(49.2541 0 0)
(49.2872 0 0)
(49.3203 0 0)
(49.3534 0 0)
(49.3865 0 0)
(49.4196 0 0)
(49.4527 0 0)
(49.4858 0 0)
(49.5189 0 0)
(49.552 0 0)
(49.5851 0 0)
(49.6182 0 0)
(49.6513 0 0)
(49.6845 0 0)
(49.7176 0 0)
(49.7507 0 0)
(49.7838 0 0)
(49.8169 0 0)
(49.85 0 0)
(49.8831 0 0)
(49.9162 0 0)
(49.9493 0 0)
(49.9824 0 0)
(50.0155 0 0)
(50.0486 0 0)
(50.0817 0 0)
(50.1149 0 0)
(50.148 0 0)
(50.1811 0 0)
(50.2142 0 0)
(50.2473 0 0)
(50.2804 0 0)
(50.3135 0 0)
(50.3466 0 0)
(50.3797 0 0)
(50.4128 0 0)
(50.4459 0 0)
(50.479 0 0)
(50.5121 0 0)
(50.5453 0 0)
(50.5784 0 0)
(50.6115 0 0)
(50.6446 0 0)
(50.6777 0 0)
(50.7108 0 0)
(50.7439 0 0)
(50.777 0 0)
(50.8101 0 0)
(50.8432 0 0)
(50.8763 0 0)
(50.9094 0 0)
(50.9426 0 0)
(50.9757 0 0)
(51.0088 0 0)
(51.0419 0 0)
(51.075 0 0)
(51.1081 0 0)
(51.1412 0 0)
(51.1743 0 0)
(51.2074 0 0)
(51.2405 0 0)
(51.2736 0 0)
(51.3067 0 0)
(51.3399 0 0)
(51.373 0 0)
(51.4061 0 0)
(51.4392 0 0)
(51.4723 0 0)
(51.5054 0 0)
(51.5385 0 0)
(51.5716 0 0)
(51.6047 0 0)
(51.6378 0 0)
(51.6709 0 0)
(51.704 0 0)
(51.7372 0 0)
(51.7703 0 0)
(51.8034 0 0)
(51.8365 0 0)
(51.8696 0 0)
(51.9027 0 0)
(51.9358 0 0)
(51.9689 0 0)
(52.002 0 0)
(52.0351 0 0)
(52.0682 0 0)
(52.1013 0 0)
(52.1345 0 0)
(52.1676 0 0)
(52.2007 0 0)
(52.2338 0 0)
(52.2669 0 0)
(52.3 0 0)
(52.3331 0 0)
(52.3662 0 0)
(52.3993 0 0)
(52.4324 0 0)
(52.4655 0 0)
(52.4987 0 0)
(52.5318 0 0)
(52.5649 0 0)
(52.598 0 0)
(52.6311 0 0)
(52.6642 0 0)
(52.6973 0 0)
(52.7304 0 0)
(52.7635 0 0)
(52.7966 0 0)
(52.8297 0 0)
(52.8629 0 0)
(52.896 0 0)
(52.9291 0 0)
(52.9622 0 0)
(52.9953 0 0)
(53.0284 0 0)
(53.0615 0 0)
(53.0946 0 0)
(53.1277 0 0)
(53.1608 0 0)
(53.1939 0 0)
(53.227 0 0)
(53.2602 0 0)
(53.2933 0 0)
(53.3264 0 0)
(53.3595 0 0)
(53.3926 0 0)
(53.4257 0 0)
(53.4588 0 0)
(53.4919 0 0)
(53.525 0 0)
(53.5581 0 0)
(53.5912 0 0)
(53.6244 0 0)
(53.6575 0 0)
(53.6906 0 0)
(53.7237 0 0)
(53.7568 0 0)
(53.7899 0 0)
(53.823 0 0)
(53.8561 0 0)
(53.8892 0 0)
(53.9223 0 0)
(53.9554 0 0)
(53.9886 0 0)
(54.0217 0 0)
(54.0548 0 0)
(54.0879 0 0)
(54.121 0 0)
(54.1541 0 0)
(54.1872 0 0)
(54.2203 0 0)
(54.2534 0 0)
(54.2865 0 0)
(54.3196 0 0)
(54.3527 0 0)
(54.3859 0 0)
(54.419 0 0)
(54.4521 0 0)
(54.4852 0 0)
(54.5183 0 0)
(54.5514 0 0)
(54.5845 0 0)
(54.6176 0 0)
(54.6507 0 0)
(54.6838 0 0)
(54.7169 0 0)
(54.75 0 0)
(54.7832 0 0)
(54.8163 0 0)
(54.8494 0 0)
(54.8825 0 0)
(54.9156 0 0)
(54.9487 0 0)
(54.9818 0 0)
(55.0149 0 0)
(55.048 0 0)
(55.0811 0 0)
(55.1142 0 0)
(55.1473 0 0)
(55.1805 0 0)
(55.2136 0 0)
(55.2467 0 0)
(55.2798 0 0)
(55.3129 0 0)
(55.346 0 0)
(55.3791 0 0)
(55.4122 0 0)
(55.4453 0 0)
(55.4784 0 0)
(55.5115 0 0)
(55.5446 0 0)
(55.5778 0 0)
(55.6109 0 0)
(55.644 0 0)
(55.6771 0 0)
(55.7102 0 0)
(55.7433 0 0)
(55.7764 0 0)
(55.8095 0 0)
(55.8426 0 0)
(55.8757 0 0)
(55.9088 0 0)
(55.9419 0 0)
(55.975 0 0)
(56.0081 0 0)
(56.0413 0 0)
(56.0744 0 0)
(56.1075 0 0)
(56.1406 0 0)
(56.1737 0 0)
(56.2068 0 0)
(56.2399 0 0)
(56.273 0 0)
(56.3061 0 0)
(56.3392 0 0)
(56.3723 0 0)
(56.4054 0 0)
(56.4385 0 0)
(56.4716 0 0)
(56.5048 0 0)
(56.5379 0 0)
(56.571 0 0)
(56.6041 0 0)
(56.6372 0 0)
(56.6703 0 0)
(56.7034 0 0)
(56.7365 0 0)
(56.7696 0 0)
(56.8027 0 0)
(56.8358 0 0)
(56.8689 0 0)
(56.902 0 0)
(56.9351 0 0)
(56.9682 0 0)
(57.0013 0 0)
(57.0345 0 0)
(57.0676 0 0)
(57.1007 0 0)
(57.1338 0 0)
(57.1669 0 0)
(57.2 0 0)
(57.2331 0 0)
(57.2662 0 0)
(57.2993 0 0)
(57.3324 0 0)
(57.3655 0 0)
(57.3986 0 0)
(57.4317 0 0)
(57.4648 0 0)
(57.4979 0 0)
(57.531 0 0)
(57.5641 0 0)
(57.5972 0 0)
(57.6304 0 0)
(57.6635 0 0)
(57.6966 0 0)
(57.7297 0 0)
(57.7628 0 0)
(57.7959 0 0)
(57.829 0 0)
(57.8621 0 0)
(57.8952 0 0)
(57.9283 0 0)
(57.9614 0 0)
(57.9945 0 0)
(58.0276 0 0)
(58.0607 0 0)
(58.0938 0 0)
(58.1269 0 0)
(58.16 0 0)
(58.1931 0 0)
(58.2262 0 0)
(58.2593 0 0)
(58.2924 0 0)
(58.3255 0 0)
(58.3586 0 0)
(58.3917 0 0)
(58.4249 0 0)
(58.458 0 0)
(58.4911 0 0)
(58.5242 0 0)
(58.5573 0 0)
(58.5904 0 0)
(58.6235 0 0)
(58.6566 0 0)
(58.6897 0 0)
(58.7228 0 0)
(58.7559 0 0)
(58.789 0 0)
(58.8221 0 0)
(58.8552 0 0)
(58.8883 0 0)
(58.9214 0 0)
(58.9545 0 0)
(58.9876 0 0)
(59.0207 0 0)
(59.0538 0 0)
(59.0869 0 0)
(59.12 0 0)
(59.1531 0 0)
(59.1862 0 0)
(59.2193 0 0)
(59.2524 0 0)
(59.2855 0 0)
(59.3186 0 0)
(59.3517 0 0)
(59.3848 0 0)
(59.4179 0 0)
(59.451 0 0)
(59.4841 0 0)
(59.5172 0 0)
(59.5503 0 0)
(59.5834 0 0)
(59.6165 0 0)
(59.6496 0 0)
(59.6827 0 0)
(59.7158 0 0)
(59.7489 0 0)
(59.782 0 0)
(59.8151 0 0)
(59.8482 0 0)
(59.8813 0 0)
(59.9144 0 0)
(59.9475 0 0)
(59.9806 0 0)
(60.0137 0 0)
(60.0468 0 0)
(60.0799 0 0)
(60.113 0 0)
(60.1461 0 0)
(60.1792 0 0)
(60.2123 0 0)
(60.2454 0 0)
(60.2785 0 0)
(60.3116 0 0)
(60.3447 0 0)
(60.3778 0 0)
(60.4109 0 0)
(60.444 0 0)
(60.4771 0 0)
(60.5102 0 0)
(60.5433 0 0)
(60.5764 0 0)
(60.6095 0 0)
(60.6426 0 0)
(60.6757 0 0)
(60.7088 0 0)
(60.7419 0 0)
(60.775 0 0)
(60.808 0 0)
(60.8411 0 0)
(60.8742 0 0)
(60.9073 0 0)
(60.9404 0 0)
(60.9735 0 0)
(61.0066 0 0)
(61.0397 0 0)
(61.0728 0 0)
(61.1059 0 0)
(61.139 0 0)
(61.1721 0 0)
(61.2052 0 0)
(61.2383 0 0)
(61.2714 0 0)
(61.3045 0 0)
(61.3376 0 0)
(61.3707 0 0)
(61.4038 0 0)
(61.4369 0 0)
(61.4699 0 0)
(61.503 0 0)
(61.5361 0 0)
(61.5692 0 0)
(61.6023 0 0)
(61.6354 0 0)
(61.6685 0 0)
(61.7016 0 0)
(61.7347 0 0)
(61.7678 0 0)
(61.8009 0 0)
(61.834 0 0)
(61.8671 0 0)
(61.9002 0 0)
(61.9332 0 0)
(61.9663 0 0)
(61.9994 0 0)
(62.0325 0 0)
(62.0656 0 0)
(62.0987 0 0)
(62.1318 0 0)
(62.1649 0 0)
(62.198 0 0)
(62.2311 0 0)
(62.2642 0 0)
(62.2972 0 0)
(62.3303 0 0)
(62.3634 0 0)
(62.3965 0 0)
(62.4296 0 0)
(62.4627 0 0)
(62.4958 0 0)
(62.5289 0 0)
(62.562 0 0)
(62.595 0 0)
(62.6281 0 0)
(62.6612 0 0)
(62.6943 0 0)
(62.7274 0 0)
(62.7605 0 0)
(62.7936 0 0)
(62.8267 0 0)
(62.8597 0 0)
(62.8928 0 0)
(62.9259 0 0)
(62.959 0 0)
(62.9921 0 0)
(63.0252 0 0)
(63.0583 0 0)
(63.0914 0 0)
(63.1244 0 0)
(63.1575 0 0)
(63.1906 0 0)
(63.2237 0 0)
(63.2568 0 0)
(63.2899 0 0)
(63.3229 0 0)
(63.356 0 0)
(63.3891 0 0)
(63.4222 0 0)
(63.4553 0 0)
(63.4884 0 0)
(63.5215 0 0)
(63.5545 0 0)
(63.5876 0 0)
(63.6207 0 0)
(63.6538 0 0)
(63.6869 0 0)
(63.7199 0 0)
(63.753 0 0)
(63.7861 0 0)
(63.8192 0 0)
(63.8523 0 0)
(63.8854 0 0)
(63.9184 0 0)
(63.9515 0 0)
(63.9846 0 0)
(64.0177 0 0)
(64.0508 0 0)
(64.0838 0 0)
(64.1169 0 0)
(64.15 0 0)
(64.1831 0 0)
(64.2162 0 0)
(64.2492 0 0)
(64.2823 0 0)
(64.3154 0 0)
(64.3485 0 0)
(64.3816 0 0)
(64.4146 0 0)
(64.4477 0 0)
(64.4808 0 0)
(64.5139 0 0)
(64.5469 0 0)
(64.58 0 0)
(64.6131 0 0)
(64.6462 0 0)
(64.6792 0 0)
(64.7123 0 0)
(64.7454 0 0)
(64.7785 0 0)
(64.8115 0 0)
(64.8446 0 0)
(64.8777 0 0)
(64.9108 0 0)
(64.9438 0 0)
(64.9769 0 0)
(65.01 0 0)
(65.0431 0 0)
(65.0761 0 0)
(65.1092 0 0)
(65.1423 0 0)
(65.1754 0 0)
(65.2084 0 0)
(65.2415 0 0)
(65.2746 0 0)
(65.3077 0 0)
(65.3407 0 0)
(65.3738 0 0)
(65.4069 0 0)
(65.4399 0 0)
(65.473 0 0)
(65.5061 0 0)
(65.5391 0 0)
(65.5722 0 0)
(65.6053 0 0)
(65.6384 0 0)
(65.6714 0 0)
(65.7045 0 0)
(65.7376 0 0)
(65.7706 0 0)
(65.8037 0 0)
(65.8368 0 0)
(65.8698 0 0)
(65.9029 0 0)
(65.936 0 0)
(65.969 0 0)
(66.0021 0 0)
(66.0352 0 0)
(66.0682 0 0)
(66.1013 0 0)
(66.1344 0 0)
(66.1674 0 0)
(66.2005 0 0)
(66.2336 0 0)
(66.2666 0 0)
(66.2997 0 0)
(66.3327 0 0)
(66.3658 0 0)
(66.3989 0 0)
(66.4319 0 0)
(66.465 0 0)
(66.4981 0 0)
(66.5311 0 0)
(66.5642 0 0)
(66.5972 0 0)
(66.6303 0 0)
(66.6634 0 0)
(66.6964 0 0)
(66.7295 0 0)
(66.7625 0 0)
(66.7956 0 0)
(66.8287 0 0)
(66.8617 0 0)
(66.8948 0 0)
(66.9278 0 0)
(66.9609 0 0)
(66.9939 0 0)
(67.027 0 0)
(67.0601 0 0)
(67.0931 0 0)
(67.1262 0 0)
(67.1592 0 0)
(67.1923 0 0)
(67.2253 0 0)
(67.2584 0 0)
(67.2914 0 0)
(67.3245 0 0)
(67.3576 0 0)
(67.3906 0 0)
(67.4237 0 0)
(67.4567 0 0)
(67.4898 0 0)
(67.5228 0 0)
(67.5559 0 0)
(67.5889 0 0)
(67.622 0 0)
(67.655 0 0)
(67.6881 0 0)
(67.7211 0 0)
(67.7542 0 0)
(67.7872 0 0)
(67.8203 0 0)
(67.8533 0 0)
(67.8864 0 0)
(67.9194 0 0)
(67.9525 0 0)
(67.9855 0 0)
(68.0186 0 0)
(68.0516 0 0)
(68.0847 0 0)
(68.1177 0 0)
(68.1507 0 0)
(68.1838 0 0)
(68.2168 0 0)
(68.2499 0 0)
(68.2829 0 0)
(68.316 0 0)
(68.349 0 0)
(68.382 0 0)
(68.4151 0 0)
(68.4481 0 0)
(68.4812 0 0)
(68.5142 0 0)
(68.5473 0 0)
(68.5803 0 0)
(68.6133 0 0)
(68.6464 0 0)
(68.6794 0 0)
(68.7125 0 0)
(68.7455 0 0)
(68.7785 0 0)
(68.8116 0 0)
(68.8446 0 0)
(68.8776 0 0)
(68.9107 0 0)
(68.9437 0 0)
(68.9767 0 0)
(69.0098 0 0)
(69.0428 0 0)
(69.0759 0 0)
(69.1089 0 0)
(69.1419 0 0)
(69.175 0 0)
(69.208 0 0)
(69.241 0 0)
(69.2741 0 0)
(69.3071 0 0)
(69.3401 0 0)
(69.3731 0 0)
(69.4062 0 0)
(69.4392 0 0)
(69.4722 0 0)
(69.5053 0 0)
(69.5383 0 0)
(69.5713 0 0)
(69.6043 0 0)
(69.6374 0 0)
(69.6704 0 0)
(69.7034 0 0)
(69.7364 0 0)
(69.7695 0 0)
(69.8025 0 0)
(69.8355 0 0)
(69.8685 0 0)
(69.9016 0 0)
(69.9346 0 0)
(69.9676 0 0)
(70.0006 0 0)
(70.0337 0 0)
(70.0667 0 0)
(70.0997 0 0)
(70.1327 0 0)
(70.1657 0 0)
(70.1988 0 0)
(70.2318 0 0)
(70.2648 0 0)
(70.2978 0 0)
(70.3308 0 0)
(70.3638 0 0)
(70.3969 0 0)
(70.4299 0 0)
(70.4629 0 0)
(70.4959 0 0)
(70.5289 0 0)
(70.5619 0 0)
(70.5949 0 0)
(70.628 0 0)
(70.661 0 0)
(70.694 0 0)
(70.727 0 0)
(70.76 0 0)
(70.793 0 0)
(70.826 0 0)
(70.859 0 0)
(70.892 0 0)
(70.925 0 0)
(70.9581 0 0)
(70.9911 0 0)
(71.0241 0 0)
(71.0571 0 0)
(71.0901 0 0)
(71.1231 0 0)
(71.1561 0 0)
(71.1891 0 0)
(71.2221 0 0)
(71.2551 0 0)
(71.2881 0 0)
(71.3211 0 0)
(71.3541 0 0)
(71.3871 0 0)
(71.4201 0 0)
(71.4531 0 0)
(71.4861 0 0)
(71.5191 0 0)
(71.5521 0 0)
(71.5851 0 0)
(71.6181 0 0)
(71.6511 0 0)
(71.6841 0 0)
(71.7171 0 0)
(71.7501 0 0)
(71.7831 0 0)
(71.816 0 0)
(71.849 0 0)
(71.882 0 0)
(71.915 0 0)
(71.948 0 0)
(71.981 0 0)
(72.014 0 0)
(72.047 0 0)
(72.08 0 0)
(72.1129 0 0)
(72.1459 0 0)
(72.1789 0 0)
(72.2119 0 0)
(72.2449 0 0)
(72.2779 0 0)
(72.3109 0 0)
(72.3438 0 0)
(72.3768 0 0)
(72.4098 0 0)
(72.4428 0 0)
(72.4758 0 0)
(72.5087 0 0)
(72.5417 0 0)
(72.5747 0 0)
(72.6077 0 0)
(72.6407 0 0)
(72.6736 0 0)
(72.7066 0 0)
(72.7396 0 0)
(72.7725 0 0)
(72.8055 0 0)
(72.8385 0 0)
(72.8715 0 0)
(72.9044 0 0)
(72.9374 0 0)
(72.9704 0 0)
(73.0033 0 0)
(73.0363 0 0)
(73.0693 0 0)
(73.1022 0 0)
(73.1352 0 0)
(73.1682 0 0)
(73.2011 0 0)
(73.2341 0 0)
(73.2671 0 0)
(73.3 0 0)
(73.333 0 0)
(73.366 0 0)
(73.3989 0 0)
(73.4319 0 0)
(73.4648 0 0)
(73.4978 0 0)
(73.5308 0 0)
(73.5637 0 0)
(73.5967 0 0)
(73.6296 0 0)
(73.6626 0 0)
(73.6955 0 0)
(73.7285 0 0)
(73.7614 0 0)
(73.7944 0 0)
(73.8273 0 0)
(73.8603 0 0)
(73.8932 0 0)
(73.9262 0 0)
(73.9591 0 0)
(73.9921 0 0)
(74.025 0 0)
(74.058 0 0)
(74.0909 0 0)
(74.1238 0 0)
(74.1568 0 0)
(74.1897 0 0)
(74.2227 0 0)
(74.2556 0 0)
(74.2885 0 0)
(74.3215 0 0)
(74.3544 0 0)
(74.3874 0 0)
(74.4203 0 0)
(74.4532 0 0)
(74.4862 0 0)
(74.5191 0 0)
(74.552 0 0)
(74.585 0 0)
(74.6179 0 0)
(74.6508 0 0)
(74.6838 0 0)
(74.7167 0 0)
(74.7496 0 0)
(74.7825 0 0)
(74.8155 0 0)
(74.8484 0 0)
(74.8813 0 0)
(74.9142 0 0)
(74.9471 0 0)
(74.9801 0 0)
(75.013 0 0)
(75.0459 0 0)
(75.0788 0 0)
(75.1117 0 0)
(75.1447 0 0)
(75.1776 0 0)
(75.2105 0 0)
(75.2434 0 0)
(75.2763 0 0)
(75.3092 0 0)
(75.3421 0 0)
(75.375 0 0)
(75.4079 0 0)
(75.4409 0 0)
(75.4738 0 0)
(75.5067 0 0)
(75.5396 0 0)
(75.5725 0 0)
(75.6054 0 0)
(75.6383 0 0)
(75.6712 0 0)
(75.7041 0 0)
(75.737 0 0)
(75.7699 0 0)
(75.8028 0 0)
(75.8357 0 0)
(75.8686 0 0)
(75.9015 0 0)
(75.9343 0 0)
(75.9672 0 0)
(76.0001 0 0)
(76.033 0 0)
(76.0659 0 0)
(76.0988 0 0)
(76.1317 0 0)
(76.1646 0 0)
(76.1974 0 0)
(76.2303 0 0)
(76.2632 0 0)
(76.2961 0 0)
(76.329 0 0)
(76.3618 0 0)
(76.3947 0 0)
(76.4276 0 0)
(76.4605 0 0)
(76.4933 0 0)
(76.5262 0 0)
(76.5591 0 0)
(76.592 0 0)
(76.6248 0 0)
(76.6577 0 0)
(76.6906 0 0)
(76.7234 0 0)
(76.7563 0 0)
(76.7892 0 0)
(76.822 0 0)
(76.8549 0 0)
(76.8877 0 0)
(76.9206 0 0)