/*--------------------------------*- C++ -*----------------------------------*\
  =========                 |
  \\      /  F ield         | OpenFOAM: The Open Source CFD Toolbox
   \\    /   O peration     | Website:  https://openfoam.org
    \\  /    A nd           | Version:  9
     \\/     M anipulation  |
\*---------------------------------------------------------------------------*/
FoamFile
{
    format      ascii;
    class       volVectorField;
    location    "0.032";
    object      U;
}
// * * * * * * * * * * * * * * * * * * * * * * * * * * * * * * * * * * * * * //

dimensions      [0 1 -1 0 0 0 0];

internalField   nonuniform List<vector> 
100
(
(38.5794 0 0)
(42.3652 0 0)
(47.7579 0 0)
(50.7336 0 0)
(54.2817 0 0)
(57.9275 0 0)
(61.4563 0 0)
(65.0544 0 0)
(68.6137 0 0)
(72.1857 0 0)
(75.7857 0 0)
(79.3 0 0)
(82.8584 0 0)
(86.4572 0 0)
(89.9603 0 0)
(93.4799 0 0)
(97.0694 0 0)
(100.611 0 0)
(104.084 0 0)
(107.577 0 0)
(111.132 0 0)
(114.661 0 0)
(118.084 0 0)
(121.5 0 0)
(124.931 0 0)
(128.406 0 0)
(131.791 0 0)
(135.058 0 0)
(138.288 0 0)
(141.513 0 0)
(144.775 0 0)
(147.951 0 0)
(150.987 0 0)
(154.013 0 0)
(157.056 0 0)
(160.142 0 0)
(163.211 0 0)
(166.225 0 0)
(169.238 0 0)
(172.27 0 0)
(175.333 0 0)
(178.432 0 0)
(181.543 0 0)
(184.637 0 0)
(187.622 0 0)
(190.611 0 0)
(193.379 0 0)
(195.819 0 0)
(197.999 0 0)
(199.776 0 0)
(201.66 0 0)
(203.689 0 0)
(205.428 0 0)
(206.974 0 0)
(208.586 0 0)
(209.72 0 0)
(210.873 0 0)
(212.381 0 0)
(214.196 0 0)
(215.65 0 0)
(217.169 0 0)
(218.979 0 0)
(220.763 0 0)
(222.163 0 0)
(223.539 0 0)
(225.178 0 0)
(227.068 0 0)
(228.543 0 0)
(229.791 0 0)
(231.098 0 0)
(232.639 0 0)
(234.321 0 0)
(236.02 0 0)
(237.858 0 0)
(239.404 0 0)
(240.934 0 0)
(242.267 0 0)
(243.633 0 0)
(245.189 0 0)
(246.884 0 0)
(248.793 0 0)
(250.821 0 0)
(253.118 0 0)
(252.774 0 0)
(250.151 0 0)
(242.254 0 0)
(223.608 0 0)
(181.927 0 0)
(144.725 0 0)
(141.984 0 0)
(152.219 0 0)
(172.471 0 0)
(191.351 0 0)
(200.719 0 0)
(205.747 0 0)
(208.457 0 0)
(210.382 0 0)
(213.14 0 0)
(215.475 0 0)
(218.243 0 0)
)
;

boundaryField
{
    sides
    {
        type            zeroGradient;
    }
    empty
    {
        type            empty;
    }
}


// ************************************************************************* //
