/*--------------------------------*- C++ -*----------------------------------*\
  =========                 |
  \\      /  F ield         | OpenFOAM: The Open Source CFD Toolbox
   \\    /   O peration     | Website:  https://openfoam.org
    \\  /    A nd           | Version:  9
     \\/     M anipulation  |
\*---------------------------------------------------------------------------*/
FoamFile
{
    format      ascii;
    class       volScalarField;
    location    "0.032";
    object      ddt0(p);
}
// * * * * * * * * * * * * * * * * * * * * * * * * * * * * * * * * * * * * * //

dimensions      [1 -1 -3 0 0 0 0];

internalField   nonuniform List<scalar> 
100
(
-1.0375e+06
-1.03301e+06
-1.02481e+06
-1.02135e+06
-1.01673e+06
-1.01159e+06
-1.00669e+06
-1.00167e+06
-996726
-991513
-986422
-982321
-976745
-971268
-967089
-962282
-956277
-951140
-946812
-941325
-934554
-928637
-924165
-919151
-912226
-906425
-900085
-894982
-886399
-880767
-871694
-863402
-855796
-850466
-844873
-834381
-834560
-834092
-835680
-831834
-825721
-837983
-822106
-767460
-695544
-855690
-881940
-819049
-819719
-801988
-772706
-745703
-689953
-635314
-543425
-361815
126806
928704
-4.39435e+06
-1.01518e+06
-850019
-846832
-851006
-857755
-866953
-877362
-888599
-902695
-921444
-945456
-972435
-998991
-1.02207e+06
-1.04085e+06
-1.05598e+06
-1.06891e+06
-1.07976e+06
-1.08813e+06
-1.09698e+06
-1.10492e+06
-1.11204e+06
-1.12096e+06
-1.12607e+06
-1.13239e+06
-1.13554e+06
-1.13791e+06
-1.13851e+06
-1.13648e+06
-1.12974e+06
-1.11813e+06
-1.09819e+06
-1.0799e+06
-1.05092e+06
-1.01513e+06
-972660
-945682
-908091
-786099
-707370
-623043
)
;

boundaryField
{
    sides
    {
        type            calculated;
        value           nonuniform List<scalar> 2(-623043 -1.0375e+06);
    }
    empty
    {
        type            empty;
    }
}


// ************************************************************************* //
