/*--------------------------------*- C++ -*----------------------------------*\
  =========                 |
  \\      /  F ield         | OpenFOAM: The Open Source CFD Toolbox
   \\    /   O peration     | Website:  https://openfoam.org
    \\  /    A nd           | Version:  9
     \\/     M anipulation  |
\*---------------------------------------------------------------------------*/
FoamFile
{
    format      ascii;
    class       volScalarField;
    location    "0.032";
    object      p_0;
}
// * * * * * * * * * * * * * * * * * * * * * * * * * * * * * * * * * * * * * //

dimensions      [1 -1 -2 0 0 0 0];

internalField   nonuniform List<scalar> 
100
(
22442.8
22396.3
22293.8
22213.3
22144.5
22074.7
22005.7
21937.3
21870.1
21804.6
21739.4
21675.7
21613.7
21551.5
21491
21432.8
21375.1
21317.8
21262.8
21210
21157.7
21105.9
21056.3
21009.2
20964
20919.9
20877.5
20837.8
20802.3
20770.5
20740.8
20716.9
20695.9
20681.5
20670.6
20665.5
20663.6
20663.7
20664.2
20665.6
20668.9
20676.2
20690.6
20718.9
20749.6
20786.4
20870.7
20950.9
21035.6
21121.2
21204.1
21283.9
21353.4
21420.5
21488
21550.4
21596.4
21580.8
21760.9
22011.2
22142.3
22274.2
22410.6
22551.8
22698.1
22849.3
23004.5
23163.6
23327.3
23496.5
23672.2
23854
24040.9
24231.8
24425.7
24622.5
24822
25023.5
25226.7
25431.9
25637.9
25846
26056
26266
26477.2
26687.6
26895.9
27101.7
27304.6
27503.6
27697.1
27887.3
28067.2
28235
28398.7
28543
28677.4
28783.2
28887.5
29052.4
)
;

boundaryField
{
    sides
    {
        type            zeroGradient;
    }
    empty
    {
        type            empty;
    }
}


// ************************************************************************* //
