/*--------------------------------*- C++ -*----------------------------------*\
  =========                 |
  \\      /  F ield         | OpenFOAM: The Open Source CFD Toolbox
   \\    /   O peration     | Website:  https://openfoam.org
    \\  /    A nd           | Version:  9
     \\/     M anipulation  |
\*---------------------------------------------------------------------------*/
FoamFile
{
    format      ascii;
    class       surfaceScalarField;
    location    "0.032";
    object      phi_0;
}
// * * * * * * * * * * * * * * * * * * * * * * * * * * * * * * * * * * * * * //

dimensions      [1 0 -1 0 0 0 0];

internalField   nonuniform List<scalar> 
99
(
66.9449
71.4545
75.9286
80.3864
84.8152
89.2118
93.5826
97.9372
102.27
106.597
110.947
115.262
119.575
123.888
128.158
132.402
136.661
140.904
145.083
149.232
153.404
157.577
161.691
165.736
169.763
173.834
177.906
181.91
185.822
189.703
193.581
197.512
201.364
205.144
208.883
212.587
216.326
220.083
223.825
227.532
231.183
234.912
238.585
242.034
245.171
249.028
252.846
256.435
260.05
263.613
267.056
270.356
273.363
276.118
278.512
280.159
279.608
275.887
294.782
299.112
302.786
306.52
310.3
314.046
317.715
321.358
325.08
328.941
332.925
336.968
341.037
345.164
349.402
353.787
358.301
362.869
367.432
371.98
376.52
381.093
385.728
390.389
395.093
399.819
404.501
409.207
413.927
418.589
423.247
427.898
432.407
436.817
441.125
445.278
449.196
453.061
456.798
460.067
462.92
)
;

boundaryField
{
    sides
    {
        type            calculated;
        value           nonuniform List<scalar> 2(465.39 -62.4172);
    }
    empty
    {
        type            empty;
        value           nonuniform List<scalar> 0();
    }
}


// ************************************************************************* //
