/*--------------------------------*- C++ -*----------------------------------*\
  =========                 |
  \\      /  F ield         | OpenFOAM: The Open Source CFD Toolbox
   \\    /   O peration     | Website:  https://openfoam.org
    \\  /    A nd           | Version:  9
     \\/     M anipulation  |
\*---------------------------------------------------------------------------*/
FoamFile
{
    format      ascii;
    class       volVectorField;
    location    "0.032";
    object      U_0;
}
// * * * * * * * * * * * * * * * * * * * * * * * * * * * * * * * * * * * * * //

dimensions      [0 1 -1 0 0 0 0];

internalField   nonuniform List<vector> 
100
(
(45.2222 0 0)
(48.7482 0 0)
(53.3221 0 0)
(56.882 0 0)
(60.2065 0 0)
(63.5989 0 0)
(67.0168 0 0)
(70.4393 0 0)
(73.8525 0 0)
(77.2864 0 0)
(80.714 0 0)
(84.1173 0 0)
(87.5421 0 0)
(90.9595 0 0)
(94.3418 0 0)
(97.7406 0 0)
(101.159 0 0)
(104.542 0 0)
(107.897 0 0)
(111.274 0 0)
(114.667 0 0)
(118.024 0 0)
(121.34 0 0)
(124.654 0 0)
(127.988 0 0)
(131.315 0 0)
(134.599 0 0)
(137.837 0 0)
(141.055 0 0)
(144.27 0 0)
(147.46 0 0)
(150.596 0 0)
(153.669 0 0)
(156.695 0 0)
(159.699 0 0)
(162.658 0 0)
(165.579 0 0)
(168.494 0 0)
(171.414 0 0)
(174.332 0 0)
(177.235 0 0)
(180.101 0 0)
(182.896 0 0)
(185.572 0 0)
(188.058 0 0)
(190.381 0 0)
(192.684 0 0)
(195.001 0 0)
(197.31 0 0)
(199.608 0 0)
(201.87 0 0)
(204.11 0 0)
(206.302 0 0)
(208.402 0 0)
(210.42 0 0)
(212.344 0 0)
(214.129 0 0)
(215.81 0 0)
(217.727 0 0)
(219.799 0 0)
(221.694 0 0)
(223.481 0 0)
(225.21 0 0)
(226.891 0 0)
(228.543 0 0)
(230.187 0 0)
(231.83 0 0)
(233.465 0 0)
(235.084 0 0)
(236.696 0 0)
(238.32 0 0)
(239.971 0 0)
(241.651 0 0)
(243.345 0 0)
(245.036 0 0)
(246.713 0 0)
(248.379 0 0)
(250.037 0 0)
(251.688 0 0)
(253.335 0 0)
(254.971 0 0)
(256.589 0 0)
(258.196 0 0)
(259.788 0 0)
(261.364 0 0)
(262.938 0 0)
(264.506 0 0)
(266.065 0 0)
(267.621 0 0)
(269.165 0 0)
(270.672 0 0)
(272.154 0 0)
(273.623 0 0)
(275.059 0 0)
(276.455 0 0)
(277.84 0 0)
(279.246 0 0)
(280.594 0 0)
(281.69 0 0)
(283.122 0 0)
)
;

boundaryField
{
    sides
    {
        type            zeroGradient;
    }
    empty
    {
        type            empty;
    }
}


// ************************************************************************* //
