/*--------------------------------*- C++ -*----------------------------------*\
  =========                 |
  \\      /  F ield         | OpenFOAM: The Open Source CFD Toolbox
   \\    /   O peration     | Website:  https://openfoam.org
    \\  /    A nd           | Version:  9
     \\/     M anipulation  |
\*---------------------------------------------------------------------------*/
FoamFile
{
    format      ascii;
    class       volVectorField;
    location    "0.02";
    object      U;
}
// * * * * * * * * * * * * * * * * * * * * * * * * * * * * * * * * * * * * * //

dimensions      [0 1 -1 0 0 0 0];

internalField   nonuniform List<vector> 
100
(
(29.8337 0 0)
(37.9326 0 0)
(44.7339 0 0)
(50.6653 0 0)
(56.7188 0 0)
(62.8332 0 0)
(68.9546 0 0)
(75.0855 0 0)
(81.2283 0 0)
(87.3813 0 0)
(93.5431 0 0)
(99.7108 0 0)
(105.888 0 0)
(112.061 0 0)
(118.248 0 0)
(124.409 0 0)
(130.562 0 0)
(136.711 0 0)
(142.848 0 0)
(148.978 0 0)
(155.057 0 0)
(161.131 0 0)
(167.155 0 0)
(173.109 0 0)
(179.036 0 0)
(184.901 0 0)
(190.658 0 0)
(196.321 0 0)
(201.906 0 0)
(207.341 0 0)
(212.614 0 0)
(217.755 0 0)
(222.713 0 0)
(227.455 0 0)
(232.004 0 0)
(236.372 0 0)
(240.545 0 0)
(244.523 0 0)
(248.324 0 0)
(251.964 0 0)
(255.444 0 0)
(258.774 0 0)
(261.967 0 0)
(265.025 0 0)
(267.946 0 0)
(270.727 0 0)
(273.371 0 0)
(275.875 0 0)
(278.229 0 0)
(280.419 0 0)
(282.435 0 0)
(284.28 0 0)
(285.947 0 0)
(287.428 0 0)
(288.727 0 0)
(289.812 0 0)
(290.72 0 0)
(291.494 0 0)
(292.101 0 0)
(292.568 0 0)
(292.934 0 0)
(293.178 0 0)
(293.308 0 0)
(293.413 0 0)
(293.494 0 0)
(293.535 0 0)
(293.563 0 0)
(293.573 0 0)
(293.568 0 0)
(293.56 0 0)
(293.552 0 0)
(293.542 0 0)
(293.53 0 0)
(293.511 0 0)
(293.481 0 0)
(293.446 0 0)
(293.392 0 0)
(293.302 0 0)
(293.177 0 0)
(293.039 0 0)
(292.906 0 0)
(292.733 0 0)
(292.52 0 0)
(292.314 0 0)
(292.13 0 0)
(291.973 0 0)
(291.852 0 0)
(291.764 0 0)
(291.715 0 0)
(291.668 0 0)
(291.594 0 0)
(291.514 0 0)
(291.454 0 0)
(291.416 0 0)
(291.385 0 0)
(291.365 0 0)
(291.375 0 0)
(291.416 0 0)
(291.478 0 0)
(291.573 0 0)
)
;

boundaryField
{
    sides
    {
        type            zeroGradient;
    }
    empty
    {
        type            empty;
    }
}


// ************************************************************************* //
