/*--------------------------------*- C++ -*----------------------------------*\
  =========                 |
  \\      /  F ield         | OpenFOAM: The Open Source CFD Toolbox
   \\    /   O peration     | Website:  https://openfoam.org
    \\  /    A nd           | Version:  9
     \\/     M anipulation  |
\*---------------------------------------------------------------------------*/
FoamFile
{
    format      ascii;
    class       volScalarField;
    location    "0.022";
    object      T;
}
// * * * * * * * * * * * * * * * * * * * * * * * * * * * * * * * * * * * * * //

dimensions      [0 0 0 1 0 0 0];

internalField   nonuniform List<scalar> 
1000
(
305.323
305.114
304.986
304.849
304.714
304.578
304.443
304.308
304.173
304.037
303.902
303.767
303.632
303.497
303.362
303.226
303.091
302.956
302.821
302.686
302.552
302.417
302.282
302.147
302.012
301.877
301.742
301.607
301.472
301.338
301.203
301.069
300.934
300.799
300.664
300.529
300.394
300.259
300.124
299.99
299.856
299.722
299.588
299.454
299.32
299.186
299.051
298.917
298.783
298.648
298.514
298.379
298.245
298.11
297.976
297.841
297.707
297.572
297.437
297.303
297.168
297.033
296.898
296.763
296.628
296.494
296.358
296.223
296.088
295.952
295.816
295.68
295.544
295.407
295.271
295.136
295
294.865
294.731
294.597
294.463
294.33
294.197
294.065
293.933
293.801
293.669
293.537
293.405
293.272
293.14
293.008
292.875
292.743
292.61
292.478
292.346
292.214
292.082
291.95
291.818
291.686
291.554
291.423
291.291
291.159
291.027
290.895
290.763
290.632
290.5
290.369
290.238
290.106
289.975
289.844
289.712
289.581
289.449
289.318
289.186
289.055
288.923
288.792
288.661
288.529
288.398
288.267
288.135
288.004
287.873
287.741
287.61
287.479
287.348
287.217
287.086
286.955
286.824
286.694
286.563
286.432
286.302
286.172
286.041
285.911
285.781
285.65
285.52
285.39
285.259
285.129
284.998
284.867
284.737
284.606
284.476
284.346
284.216
284.086
283.956
283.826
283.696
283.566
283.436
283.306
283.176
283.046
282.916
282.787
282.657
282.527
282.397
282.267
282.138
282.01
281.882
281.753
281.621
281.488
281.356
281.23
281.112
280.992
280.857
280.715
280.571
280.436
280.333
280.251
280.115
279.96
279.805
279.654
279.514
279.446
279.381
279.233
279.07
278.906
278.748
278.6
278.489
278.471
278.36
278.199
278.026
277.861
277.706
277.562
277.49
277.457
277.319
277.155
276.984
276.827
276.679
276.574
276.542
276.419
276.261
276.093
275.939
275.797
275.734
275.667
275.52
275.354
275.179
275.027
274.893
274.864
274.802
274.651
274.471
274.268
274.108
273.97
273.919
273.926
273.797
273.627
273.402
273.212
273.067
272.956
272.979
272.913
272.759
272.56
272.341
272.186
272.053
272.035
272.045
271.912
271.743
271.499
271.291
271.143
271.015
271.012
271.034
270.906
270.74
270.506
270.294
270.144
270.011
269.974
270.002
269.885
269.726
269.515
269.303
269.147
269.008
268.892
268.912
268.902
268.767
268.606
268.394
268.208
268.058
267.915
267.78
267.702
267.737
267.647
267.498
267.317
267.098
266.934
266.79
266.652
266.532
266.537
266.541
266.412
266.254
266.031
265.803
265.647
265.509
265.387
265.382
265.396
265.273
265.119
264.904
264.678
264.525
264.392
264.293
264.322
264.258
264.117
263.947
263.733
263.573
263.437
263.327
263.307
263.217
263.077
262.917
262.757
262.619
262.494
262.431
262.339
262.202
262.05
261.868
261.715
261.582
261.473
261.476
261.416
261.281
261.125
260.909
260.718
260.575
260.44
260.315
260.252
260.314
260.241
260.105
259.948
259.719
259.507
259.361
259.226
259.098
259.002
259.026
258.968
258.836
258.689
258.491
258.3
258.157
258.023
257.89
257.767
257.694
257.717
257.628
257.496
257.36
257.219
257.05
256.841
256.687
256.554
256.429
256.343
256.379
256.317
256.187
256.039
255.815
255.563
255.413
255.283
255.163
255.118
255.196
255.124
254.994
254.846
254.619
254.388
254.245
254.119
254.012
254.006
253.963
253.839
253.701
253.519
253.342
253.209
253.087
253.007
253.017
252.927
252.797
252.645
252.389
252.125
251.979
251.854
251.745
251.744
251.878
251.814
251.689
251.549
251.338
250.99
250.797
250.664
250.544
250.453
250.511
250.541
250.434
250.307
250.155
249.904
249.683
249.548
249.427
249.322
249.311
249.302
249.194
249.072
248.93
248.725
248.572
248.458
248.354
248.284
248.276
248.202
248.112
248.019
247.896
247.794
247.729
247.68
247.659
247.675
247.659
247.641
247.622
247.585
247.568
247.564
247.565
247.58
247.594
247.597
247.601
247.601
247.604
247.613
247.623
247.634
247.645
247.652
247.659
247.661
247.666
247.674
247.681
247.692
247.701
247.709
247.718
247.726
247.735
247.744
247.75
247.756
247.758
247.757
247.752
247.741
247.723
247.705
247.693
247.683
247.675
247.669
247.663
247.66
247.658
247.659
247.66
247.659
247.658
247.657
247.657
247.658
247.661
247.667
247.672
247.676
247.678
247.681
247.686
247.691
247.699
247.706
247.714
247.72
247.727
247.732
247.736
247.738
247.739
247.739
247.738
247.732
247.722
247.712
247.705
247.699
247.694
247.69
247.686
247.683
247.68
247.679
247.677
247.677
247.677
247.677
247.678
247.678
247.678
247.679
247.68
247.683
247.687
247.692
247.695
247.697
247.699
247.701
247.705
247.712
247.719
247.725
247.73
247.731
247.731
247.732
247.733
247.733
247.731
247.725
247.715
247.705
247.698
247.693
247.69
247.689
247.687
247.684
247.682
247.679
247.678
247.678
247.678
247.678
247.678
247.678
247.679
247.68
247.681
247.683
247.686
247.689
247.693
247.696
247.698
247.7
247.703
247.707
247.713
247.719
247.723
247.725
247.726
247.726
247.727
247.727
247.725
247.719
247.711
247.704
247.697
247.692
247.69
247.688
247.686
247.685
247.683
247.682
247.681
247.68
247.68
247.679
247.679
247.68
247.681
247.682
247.683
247.684
247.686
247.688
247.692
247.695
247.698
247.7
247.701
247.704
247.708
247.713
247.717
247.72
247.72
247.72
247.721
247.72
247.716
247.712
247.707
247.702
247.697
247.693
247.69
247.688
247.687
247.685
247.683
247.683
247.682
247.682
247.682
247.681
247.68
247.68
247.682
247.683
247.685
247.687
247.688
247.689
247.69
247.693
247.695
247.698
247.701
247.703
247.706
247.709
247.712
247.714
247.715
247.715
247.715
247.713
247.709
247.705
247.701
247.698
247.695
247.692
247.689
247.687
247.686
247.686
247.685
247.683
247.682
247.682
247.682
247.682
247.682
247.682
247.683
247.684
247.685
247.686
247.688
247.69
247.69
247.692
247.694
247.697
247.699
247.701
247.704
247.707
247.709
247.71
247.709
247.708
247.708
247.707
247.703
247.7
247.698
247.697
247.694
247.69
247.687
247.684
247.682
247.683
247.684
247.684
247.683
247.683
247.683
247.682
247.682
247.682
247.683
247.684
247.685
247.686
247.686
247.687
247.689
247.691
247.694
247.697
247.7
247.701
247.7
247.701
247.701
247.704
247.705
247.705
247.704
247.703
247.698
247.693
247.69
247.689
247.689
247.689
247.687
247.684
247.682
247.68
247.68
247.681
247.682
247.684
247.684
247.684
247.682
247.681
247.679
247.68
247.682
247.685
247.687
247.689
247.69
247.69
247.69
247.692
247.695
247.699
247.7
247.7
247.699
247.697
247.696
247.696
247.697
247.697
247.696
247.693
247.688
247.684
247.682
247.683
247.684
247.685
247.685
247.683
247.681
247.678
247.677
247.677
247.679
247.681
247.682
247.682
247.682
247.682
247.682
247.684
247.687
247.687
247.686
247.686
247.686
247.687
247.689
247.692
247.696
247.697
247.697
247.695
247.692
247.69
247.688
247.687
247.686
247.685
247.683
247.68
247.679
247.679
247.679
247.681
247.681
247.68
247.678
247.674
247.673
247.673
247.675
247.678
247.68
247.68
247.68
247.679
247.678
247.679
247.681
247.684
247.684
247.684
247.684
247.684
247.685
247.687
247.691
247.692
247.692
247.691
247.685
247.682
247.68
247.68
247.68
247.681
247.681
247.679
247.676
247.675
247.674
247.675
247.677
247.677
247.676
247.675
247.672
247.671
247.671
247.674
247.677
247.68
247.68
247.678
247.677
247.676
247.677
247.681
247.684
247.684
247.684
247.682
247.682
247.683
247.685
247.689
247.689
247.688
247.684
247.679
247.675
247.674
247.674
247.675
247.676
247.677
247.685
247.734
247.962
248.702
249.437
249.884
249.975
249.962
249.96
249.978
250.01
250.017
250.015
250.003
249.981
249.978
249.979
249.99
250.004
250.005
250.002
249.991
249.983
249.982
249.985
249.993
249.996
249.995
249.991
249.984
249.982
249.983
249.986
249.988
249.988
249.986
249.984
249.982
249.982
249.984
249.983
249.983
249.982
249.98
249.98
249.98
249.981
249.979
249.975
249.972
249.967
249.967
249.967
249.971
249.972
249.969
249.965
249.962
249.96
249.961
249.964
249.968
249.968
249.965
249.959
249.953
249.954
249.975
250.071
250.419
251.06
251.481
251.727
251.83
251.828
251.813
251.812
251.821
251.842
251.846
251.844
251.834
251.829
251.83
251.834
251.842
251.843
251.834
)
;

boundaryField
{
    sides
    {
        type            zeroGradient;
    }
    empty
    {
        type            empty;
    }
}


// ************************************************************************* //
