/*--------------------------------*- C++ -*----------------------------------*\
  =========                 |
  \\      /  F ield         | OpenFOAM: The Open Source CFD Toolbox
   \\    /   O peration     | Website:  https://openfoam.org
    \\  /    A nd           | Version:  9
     \\/     M anipulation  |
\*---------------------------------------------------------------------------*/
FoamFile
{
    format      ascii;
    class       volScalarField;
    location    "0.029";
    object      mag(U);
}
// * * * * * * * * * * * * * * * * * * * * * * * * * * * * * * * * * * * * * //

dimensions      [0 1 -1 0 0 0 0];

internalField   nonuniform List<scalar> 
100
(
172.861
177.306
179.889
182.68
185.421
188.175
190.926
193.677
196.429
199.181
201.933
204.685
207.437
210.189
212.941
215.694
218.446
221.198
223.951
226.703
229.455
232.207
234.958
237.71
240.461
243.211
245.96
248.709
251.456
254.203
256.948
259.692
262.434
265.174
267.912
270.648
273.38
276.107
278.825
281.528
284.198
286.795
289.24
291.405
293.11
294.234
294.805
295.01
295.073
295.147
295.304
295.407
295.385
295.3
295.204
295.102
295.019
294.962
294.893
294.774
294.658
294.577
294.472
294.37
294.3
294.232
294.11
294.025
293.991
293.953
293.883
293.795
293.709
293.572
293.491
293.474
293.469
293.457
293.415
293.311
293.135
292.969
292.925
292.919
292.95
293.077
293.237
293.235
292.427
289.584
287.361
286.562
286.29
286.057
285.033
282.719
281.331
280.901
280.812
280.792
)
;

boundaryField
{
    sides
    {
        type            calculated;
        value           nonuniform List<scalar> 2(280.792 172.861);
    }
    empty
    {
        type            empty;
    }
}


// ************************************************************************* //
