/*--------------------------------*- C++ -*----------------------------------*\
  =========                 |
  \\      /  F ield         | OpenFOAM: The Open Source CFD Toolbox
   \\    /   O peration     | Website:  https://openfoam.org
    \\  /    A nd           | Version:  9
     \\/     M anipulation  |
\*---------------------------------------------------------------------------*/
FoamFile
{
    format      ascii;
    class       volScalarField;
    location    "0.012";
    object      mag(U);
}
// * * * * * * * * * * * * * * * * * * * * * * * * * * * * * * * * * * * * * //

dimensions      [0 1 -1 0 0 0 0];

internalField   nonuniform List<scalar> 
10000
(
2.69865e-12
2.91746e-12
2.61113e-12
2.66948e-12
2.9904e-12
2.69865e-12
2.50902e-12
2.84452e-12
2.8737e-12
2.55278e-12
3.16544e-12
2.6403e-12
2.9904e-12
3.12168e-12
2.71324e-12
2.96122e-12
3.36967e-12
2.97581e-12
3.51554e-12
3.06333e-12
3.19462e-12
3.12168e-12
2.81535e-12
3.25297e-12
2.78617e-12
2.757e-12
2.72783e-12
3.04875e-12
2.49443e-12
2.81535e-12
3.04875e-12
2.82994e-12
2.78617e-12
2.97581e-12
2.42149e-12
2.93205e-12
2.59654e-12
3.09251e-12
2.30479e-12
2.94663e-12
2.0714e-12
1.96929e-12
2.08598e-12
1.66295e-12
1.40038e-12
1.41497e-12
7.5854e-13
5.83492e-13
1.45873e-13
2.91746e-14
4.95968e-13
4.52206e-13
7.87714e-13
7.87714e-13
1.12322e-12
1.31286e-12
1.70671e-12
2.14433e-12
2.21727e-12
3.00498e-12
2.62571e-12
3.26756e-12
3.16544e-12
3.23838e-12
3.66141e-12
4.01151e-12
3.77811e-12
3.96775e-12
4.50748e-12
4.02609e-12
4.595e-12
4.7117e-12
4.66794e-12
4.68252e-12
5.26602e-12
4.74087e-12
5.38271e-12
5.55776e-12
5.22225e-12
5.64529e-12
5.60152e-12
5.20767e-12
5.68905e-12
5.2806e-12
5.61611e-12
5.3973e-12
5.61611e-12
5.44106e-12
5.49941e-12
4.85757e-12
5.65987e-12
4.77005e-12
5.30978e-12
4.27408e-12
4.94509e-12
3.93857e-12
4.87216e-12
3.88022e-12
4.78463e-12
3.19462e-12
4.44913e-12
2.82994e-12
3.41343e-12
2.1881e-12
2.85911e-12
1.41497e-12
2.31938e-12
8.31476e-13
1.91094e-12
7.5854e-13
1.44414e-12
1.75048e-13
8.31476e-13
3.20921e-13
3.06333e-13
7.14778e-13
3.20921e-13
1.35662e-12
9.62762e-13
1.89635e-12
1.45873e-12
2.5236e-12
2.12975e-12
3.12168e-12
2.43608e-12
3.54471e-12
3.25297e-12
3.54471e-12
3.13627e-12
4.08444e-12
3.15086e-12
4.04068e-12
3.54471e-12
4.04068e-12
3.22379e-12
4.62417e-12
3.39884e-12
4.17197e-12
3.96775e-12
3.76352e-12
3.86563e-12
4.52206e-12
4.14279e-12
4.87216e-12
4.20114e-12
4.84298e-12
4.65335e-12
4.68252e-12
4.79922e-12
5.04721e-12
4.62417e-12
5.22225e-12
5.23684e-12
5.14932e-12
4.91592e-12
5.3973e-12
4.87216e-12
5.514e-12
5.36813e-12
5.22225e-12
5.06179e-12
5.514e-12
5.01803e-12
5.19308e-12
5.45565e-12
5.42648e-12
4.77005e-12
5.70363e-12
4.81381e-12
5.14932e-12
5.09097e-12
4.56582e-12
4.41995e-12
4.77005e-12
3.70517e-12
4.58041e-12
3.3259e-12
3.71976e-12
3.26756e-12
2.85911e-12
2.45067e-12
2.49443e-12
1.61919e-12
1.86717e-12
1.56084e-12
1.75048e-12
1.16698e-12
1.34203e-12
8.31476e-13
1.44414e-12
1.42956e-12
2.01305e-12
2.21727e-12
3.42802e-12
3.82187e-12
5.04721e-12
6.09749e-12
7.59998e-12
9.05871e-12
1.15386e-11
1.3785e-11
1.66879e-11
1.99846e-11
2.34856e-11
2.81389e-11
3.32445e-11
3.93565e-11
4.61834e-11
5.48628e-11
6.40237e-11
7.57519e-11
8.82094e-11
1.04387e-10
1.2125e-10
1.41599e-10
1.65974e-10
1.94405e-10
2.26016e-10
2.63753e-10
3.07106e-10
3.5698e-10
4.15475e-10
4.8265e-10
5.59802e-10
6.48726e-10
7.53113e-10
8.7146e-10
1.00912e-09
1.16846e-09
1.35045e-09
1.55997e-09
1.80292e-09
2.08085e-09
2.40206e-09
2.76965e-09
3.19195e-09
3.67766e-09
4.23628e-09
4.87401e-09
5.60977e-09
6.44778e-09
7.41236e-09
8.51402e-09
9.77515e-09
1.12183e-08
1.28676e-08
1.47533e-08
1.69068e-08
1.9365e-08
2.21688e-08
2.53683e-08
2.90151e-08
3.31684e-08
3.79005e-08
4.32872e-08
4.94121e-08
5.638e-08
6.42995e-08
7.32942e-08
8.35061e-08
9.51009e-08
1.08246e-07
1.23154e-07
1.40047e-07
1.59176e-07
1.80838e-07
2.05345e-07
2.33058e-07
2.64389e-07
2.9978e-07
3.3975e-07
3.8486e-07
4.35747e-07
4.93126e-07
5.57787e-07
6.3062e-07
7.12619e-07
8.04887e-07
9.08657e-07
1.02531e-06
1.15637e-06
1.30354e-06
1.46873e-06
1.65405e-06
1.86183e-06
2.09469e-06
2.35551e-06
2.64751e-06
2.97425e-06
3.33967e-06
3.74814e-06
4.20449e-06
4.71409e-06
5.28284e-06
5.91729e-06
6.62465e-06
7.41291e-06
8.29085e-06
9.26818e-06
1.03556e-05
1.15648e-05
1.29088e-05
1.44019e-05
1.60596e-05
1.78993e-05
1.99397e-05
2.22017e-05
2.47079e-05
2.74832e-05
3.05551e-05
3.39532e-05
3.77104e-05
4.18623e-05
4.64481e-05
5.15103e-05
5.70954e-05
6.32544e-05
7.00424e-05
7.75197e-05
8.5752e-05
9.48107e-05
0.000104773
0.000115724
0.000127755
0.000140965
0.000155462
0.000171363
0.000188795
0.000207894
0.000228808
0.000251698
0.000276738
0.000304113
0.000334025
0.000366692
0.000402348
0.000441245
0.000483654
0.000529868
0.0005802
0.000634987
0.00069459
0.000759397
0.000829824
0.000906314
0.000989345
0.00107943
0.0011771
0.00128295
0.0013976
0.0015217
0.00165596
0.00180114
0.00195803
0.00212748
0.00231039
0.00250773
0.00272051
0.0029498
0.00319676
0.00346259
0.00374856
0.00405604
0.00438645
0.0047413
0.00512218
0.00553077
0.00596883
0.00643821
0.00694087
0.00747886
0.00805432
0.00866953
0.00932684
0.0100287
0.0107778
0.0115767
0.0124283
0.0133356
0.0143017
0.0153296
0.0164229
0.0175848
0.0188192
0.0201296
0.02152
0.0229943
0.0245569
0.0262119
0.0279638
0.0298172
0.0317768
0.0338476
0.0360346
0.0383428
0.0407777
0.0433447
0.0460494
0.0488975
0.0518949
0.0550476
0.0583616
0.0618433
0.065499
0.0693353
0.0733586
0.0775757
0.0819934
0.0866186
0.0914583
0.0965195
0.101809
0.107335
0.113104
0.119123
0.125401
0.131943
0.138758
0.145853
0.153235
0.160912
0.168892
0.177181
0.185787
0.194718
0.20398
0.213581
0.223528
0.233828
0.244487
0.255514
0.266914
0.278694
0.29086
0.303419
0.316378
0.329741
0.343516
0.357707
0.37232
0.387361
0.402835
0.418746
0.435099
0.4519
0.469151
0.486858
0.505024
0.523652
0.542747
0.562311
0.582347
0.602859
0.623847
0.645316
0.667266
0.689699
0.712618
0.736023
0.759915
0.784295
0.809164
0.834521
0.860368
0.886704
0.913529
0.940843
0.968643
0.996931
1.0257
1.05496
1.0847
1.11492
1.14562
1.1768
1.20845
1.24057
1.27317
1.30623
1.33975
1.37374
1.40819
1.44309
1.47844
1.51424
1.55048
1.58717
1.62429
1.66185
1.69983
1.73825
1.77708
1.81633
1.85599
1.89607
1.93654
1.97742
2.01869
2.06036
2.10241
2.14484
2.18765
2.23083
2.27438
2.3183
2.36258
2.40721
2.45219
2.49751
2.54318
2.58918
2.63552
2.68218
2.72917
2.77648
2.8241
2.87202
2.92026
2.96879
3.01762
3.06675
3.11616
3.16585
3.21582
3.26607
3.31659
3.36738
3.41843
3.46974
3.5213
3.57311
3.62517
3.67748
3.73002
3.7828
3.83581
3.88905
3.94251
3.99619
4.05009
4.10421
4.15854
4.21307
4.26781
4.32275
4.37788
4.43321
4.48873
4.54444
4.60033
4.65641
4.71267
4.7691
4.8257
4.88248
4.93942
4.99653
5.0538
5.11123
5.16882
5.22656
5.28445
5.34249
5.40069
5.45902
5.5175
5.57612
5.63487
5.69377
5.75279
5.81195
5.87124
5.93065
5.99019
6.04985
6.10964
6.16954
6.22956
6.2897
6.34995
6.41031
6.47078
6.53136
6.59205
6.65284
6.71374
6.77473
6.83583
6.89703
6.95832
7.01971
7.0812
7.14277
7.20444
7.2662
7.32805
7.38998
7.452
7.51411
7.57629
7.63856
7.70092
7.76335
7.82586
7.88844
7.9511
8.01384
8.07665
8.13954
8.20249
8.26552
8.32862
8.39178
8.45502
8.51832
8.58168
8.64511
8.70861
8.77216
8.83578
8.89946
8.96321
9.02701
9.09086
9.15478
9.21876
9.28279
9.34687
9.41101
9.47521
9.53945
9.60375
9.6681
9.73251
9.79696
9.86146
9.92601
9.99061
10.0553
10.12
10.1847
10.2495
10.3143
10.3792
10.4441
10.5091
10.5741
10.6391
10.7042
10.7694
10.8345
10.8997
10.965
11.0303
11.0956
11.161
11.2264
11.2918
11.3573
11.4228
11.4884
11.554
11.6196
11.6853
11.7509
11.8167
11.8824
11.9482
12.014
12.0799
12.1458
12.2117
12.2776
12.3436
12.4096
12.4757
12.5417
12.6078
12.674
12.7401
12.8063
12.8725
12.9387
13.005
13.0713
13.1376
13.204
13.2703
13.3367
13.4031
13.4696
13.536
13.6025
13.6691
13.7356
13.8022
13.8687
13.9354
14.002
14.0686
14.1353
14.202
14.2687
14.3355
14.4023
14.469
14.5358
14.6027
14.6695
14.7364
14.8033
14.8702
14.9371
15.004
15.071
15.138
15.205
15.272
15.339
15.4061
15.4732
15.5403
15.6074
15.6745
15.7416
15.8088
15.876
15.9432
16.0104
16.0776
16.1448
16.2121
16.2794
16.3466
16.414
16.4813
16.5486
16.6159
16.6833
16.7507
16.8181
16.8855
16.9529
17.0203
17.0878
17.1552
17.2227
17.2902
17.3577
17.4252
17.4928
17.5603
17.6278
17.6954
17.763
17.8306
17.8982
17.9658
18.0334
18.1011
18.1687
18.2364
18.3041
18.3717
18.4394
18.5072
18.5749
18.6426
18.7103
18.7781
18.8459
18.9136
18.9814
19.0492
19.117
19.1848
19.2527
19.3205
19.3884
19.4562
19.5241
19.5919
19.6598
19.7277
19.7956
19.8635
19.9315
19.9994
20.0673
20.1353
20.2033
20.2712
20.3392
20.4072
20.4752
20.5432
20.6112
20.6792
20.7472
20.8153
20.8833
20.9514
21.0194
21.0875
21.1556
21.2237
21.2918
21.3599
21.428
21.4961
21.5642
21.6323
21.7005
21.7686
21.8368
21.9049
21.9731
22.0413
22.1095
22.1776
22.2458
22.314
22.3822
22.4505
22.5187
22.5869
22.6552
22.7234
22.7916
22.8599
22.9282
22.9964
23.0647
23.133
23.2013
23.2696
23.3379
23.4062
23.4745
23.5428
23.6111
23.6794
23.7478
23.8161
23.8845
23.9528
24.0212
24.0895
24.1579
24.2263
24.2947
24.363
24.4314
24.4998
24.5682
24.6366
24.705
24.7735
24.8419
24.9103
24.9787
25.0472
25.1156
25.1841
25.2525
25.321
25.3894
25.4579
25.5264
25.5948
25.6633
25.7318
25.8003
25.8688
25.9373
26.0058
26.0743
26.1428
26.2113
26.2799
26.3484
26.4169
26.4855
26.554
26.6225
26.6911
26.7596
26.8282
26.8967
26.9653
27.0339
27.1025
27.171
27.2396
27.3082
27.3768
27.4454
27.514
27.5826
27.6512
27.7198
27.7884
27.857
27.9256
27.9942
28.0629
28.1315
28.2001
28.2688
28.3374
28.4061
28.4747
28.5434
28.612
28.6807
28.7493
28.818
28.8867
28.9553
29.024
29.0927
29.1614
29.2301
29.2988
29.3674
29.4361
29.5048
29.5735
29.6422
29.711
29.7797
29.8484
29.9171
29.9858
30.0545
30.1233
30.192
30.2607
30.3295
30.3982
30.4669
30.5357
30.6044
30.6732
30.7419
30.8107
30.8795
30.9482
31.017
31.0858
31.1545
31.2233
31.2921
31.3608
31.4296
31.4984
31.5672
31.636
31.7048
31.7736
31.8424
31.9112
31.98
32.0488
32.1176
32.1864
32.2552
32.324
32.3928
32.4617
32.5305
32.5993
32.6681
32.737
32.8058
32.8746
32.9435
33.0123
33.0811
33.15
33.2188
33.2877
33.3565
33.4254
33.4942
33.5631
33.632
33.7008
33.7697
33.8386
33.9074
33.9763
34.0452
34.114
34.1829
34.2518
34.3207
34.3896
34.4584
34.5273
34.5962
34.6651
34.734
34.8029
34.8718
34.9407
35.0096
35.0785
35.1474
35.2163
35.2852
35.3541
35.4231
35.492
35.5609
35.6298
35.6987
35.7677
35.8366
35.9055
35.9744
36.0434
36.1123
36.1812
36.2502
36.3191
36.3881
36.457
36.5259
36.5949
36.6638
36.7328
36.8017
36.8707
36.9396
37.0086
37.0776
37.1465
37.2155
37.2844
37.3534
37.4224
37.4913
37.5603
37.6293
37.6982
37.7672
37.8362
37.9052
37.9742
38.0431
38.1121
38.1811
38.2501
38.3191
38.3881
38.457
38.526
38.595
38.664
38.733
38.802
38.871
38.94
39.009
39.078
39.147
39.216
39.285
39.3541
39.4231
39.4921
39.5611
39.6301
39.6991
39.7681
39.8372
39.9062
39.9752
40.0442
40.1133
40.1823
40.2513
40.3203
40.3894
40.4584
40.5274
40.5965
40.6655
40.7345
40.8036
40.8726
40.9417
41.0107
41.0797
41.1488
41.2178
41.2869
41.3559
41.425
41.494
41.5631
41.6321
41.7012
41.7702
41.8393
41.9084
41.9774
42.0465
42.1155
42.1846
42.2537
42.3227
42.3918
42.4609
42.5299
42.599
42.6681
42.7372
42.8062
42.8753
42.9444
43.0135
43.0825
43.1516
43.2207
43.2898
43.3589
43.4279
43.497
43.5661
43.6352
43.7043
43.7734
43.8425
43.9116
43.9807
44.0497
44.1188
44.1879
44.257
44.3261
44.3952
44.4643
44.5334
44.6025
44.6716
44.7407
44.8098
44.8789
44.9481
45.0172
45.0863
45.1554
45.2245
45.2936
45.3627
45.4318
45.5009
45.5701
45.6392
45.7083
45.7774
45.8465
45.9157
45.9848
46.0539
46.123
46.1921
46.2613
46.3304
46.3995
46.4686
46.5378
46.6069
46.676
46.7452
46.8143
46.8834
46.9526
47.0217
47.0908
47.16
47.2291
47.2983
47.3674
47.4365
47.5057
47.5748
47.644
47.7131
47.7822
47.8514
47.9205
47.9897
48.0588
48.128
48.1971
48.2663
48.3354
48.4046
48.4737
48.5429
48.612
48.6812
48.7504
48.8195
48.8887
48.9578
49.027
49.0961
49.1653
49.2345
49.3036
49.3728
49.442
49.5111
49.5803
49.6494
49.7186
49.7878
49.8569
49.9261
49.9953
50.0645
50.1336
50.2028
50.272
50.3411
50.4103
50.4795
50.5487
50.6178
50.687
50.7562
50.8254
50.8946
50.9637
51.0329
51.1021
51.1713
51.2405
51.3096
51.3788
51.448
51.5172
51.5864
51.6556
51.7248
51.7939
51.8631
51.9323
52.0015
52.0707
52.1399
52.2091
52.2783
52.3475
52.4167
52.4859
52.555
52.6242
52.6934
52.7626
52.8318
52.901
52.9702
53.0394
53.1086
53.1778
53.247
53.3162
53.3854
53.4546
53.5238
53.593
53.6623
53.7315
53.8007
53.8699
53.9391
54.0083
54.0775
54.1467
54.2159
54.2851
54.3543
54.4235
54.4928
54.562
54.6312
54.7004
54.7696
54.8388
54.908
54.9773
55.0465
55.1157
55.1849
55.2541
55.3233
55.3926
55.4618
55.531
55.6002
55.6694
55.7387
55.8079
55.8771
55.9463
56.0156
56.0848
56.154
56.2232
56.2925
56.3617
56.4309
56.5001
56.5694
56.6386
56.7078
56.7771
56.8463
56.9155
56.9848
57.054
57.1232
57.1924
57.2617
57.3309
57.4002
57.4694
57.5386
57.6079
57.6771
57.7463
57.8156
57.8848
57.954
58.0233
58.0925
58.1618
58.231
58.3002
58.3695
58.4387
58.508
58.5772
58.6465
58.7157
58.7849
58.8542
58.9234
58.9927
59.0619
59.1312
59.2004
59.2697
59.3389
59.4082
59.4774
59.5467
59.6159
59.6852
59.7544
59.8237
59.8929
59.9622
60.0314
60.1007
60.1699
60.2392
60.3084
60.3777
60.4469
60.5162
60.5854
60.6547
60.724
60.7932
60.8625
60.9317
61.001
61.0702
61.1395
61.2088
61.278
61.3473
61.4165
61.4858
61.5551
61.6243
61.6936
61.7629
61.8321
61.9014
61.9706
62.0399
62.1092
62.1784
62.2477
62.317
62.3862
62.4555
62.5248
62.594
62.6633
62.7326
62.8018
62.8711
62.9404
63.0096
63.0789
63.1482
63.2175
63.2867
63.356
63.4253
63.4945
63.5638
63.6331
63.7024
63.7716
63.8409
63.9102
63.9795
64.0487
64.118
64.1873
64.2566
64.3258
64.3951
64.4644
64.5337
64.6029
64.6722
64.7415
64.8108
64.8801
64.9493
65.0186
65.0879
65.1572
65.2265
65.2957
65.365
65.4343
65.5036
65.5729
65.6422
65.7114
65.7807
65.85
65.9193
65.9886
66.0579
66.1271
66.1964
66.2657
66.335
66.4043
66.4736
66.5429
66.6122
66.6814
66.7507
66.82
66.8893
66.9586
67.0279
67.0972
67.1665
67.2358
67.3051
67.3743
67.4436
67.5129
67.5822
67.6515
67.7208
67.7901
67.8594
67.9287
67.998
68.0673
68.1366
68.2059
68.2752
68.3445
68.4137
68.483
68.5523
68.6216
68.6909
68.7602
68.8295
68.8988
68.9681
69.0374
69.1067
69.176
69.2453
69.3146
69.3839
69.4532
69.5225
69.5918
69.6611
69.7304
69.7997
69.869
69.9383
70.0076
70.0769
70.1462
70.2155
70.2848
70.3541
70.4235
70.4928
70.5621
70.6314
70.7007
70.77
70.8393
70.9086
70.9779
71.0472
71.1165
71.1858
71.2551
71.3244
71.3937
71.463
71.5324
71.6017
71.671
71.7403
71.8096
71.8789
71.9482
72.0175
72.0868
72.1561
72.2255
72.2948
72.3641
72.4334
72.5027
72.572
72.6413
72.7106
72.7799
72.8493
72.9186
72.9879
73.0572
73.1265
73.1958
73.2651
73.3345
73.4038
73.4731
73.5424
73.6117
73.681
73.7504
73.8197
73.889
73.9583
74.0276
74.0969
74.1663
74.2356
74.3049
74.3742
74.4435
74.5128
74.5822
74.6515
74.7208
74.7901
74.8594
74.9288
74.9981
75.0674
75.1367
75.206
75.2754
75.3447
75.414
75.4833
75.5527
75.622
75.6913
75.7606
75.8299
75.8993
75.9686
76.0379
76.1072
76.1766
76.2459
76.3152
76.3845
76.4539
76.5232
76.5925
76.6618
76.7312
76.8005
76.8698
76.9391
77.0085
77.0778
77.1471
77.2165
77.2858
77.3551
77.4244
77.4938
77.5631
77.6324
77.7018
77.7711
77.8404
77.9097
77.9791
78.0484
78.1177
78.1871
78.2564
78.3257
78.3951
78.4644
78.5337
78.603
78.6724
78.7417
78.811
78.8804
78.9497
79.019
79.0884
79.1577
79.227
79.2964
79.3657
79.435
79.5044
79.5737
79.643
79.7124
79.7817
79.851
79.9204
79.9897
80.059
80.1284
80.1977
80.2671
80.3364
80.4057
80.4751
80.5444
80.6137
80.6831
80.7524
80.8217
80.8911
80.9604
81.0298
81.0991
81.1684
81.2378
81.3071
81.3764
81.4458
81.5151
81.5845
81.6538
81.7231
81.7925
81.8618
81.9312
82.0005
82.0698
82.1392
82.2085
82.2779
82.3472
82.4166
82.4859
82.5552
82.6246
82.6939
82.7633
82.8326
82.9019
82.9713
83.0406
83.11
83.1793
83.2487
83.318
83.3873
83.4567
83.526
83.5954
83.6647
83.7341
83.8034
83.8728
83.9421
84.0114
84.0808
84.1501
84.2195
84.2888
84.3582
84.4275
84.4969
84.5662
84.6356
84.7049
84.7742
84.8436
84.9129
84.9823
85.0516
85.121
85.1903
85.2597
85.329
85.3984
85.4677
85.5371
85.6064
85.6758
85.7451
85.8145
85.8838
85.9532
86.0225
86.0919
86.1612
86.2306
86.2999
86.3693
86.4386
86.508
86.5773
86.6467
86.716
86.7854
86.8547
86.9241
86.9934
87.0628
87.1321
87.2015
87.2708
87.3402
87.4095
87.4789
87.5482
87.6176
87.6869
87.7563
87.8256
87.895
87.9644
88.0337
88.1031
88.1724
88.2418
88.3111
88.3805
88.4498
88.5192
88.5885
88.6579
88.7272
88.7966
88.866
88.9353
89.0047
89.074
89.1434
89.2127
89.2821
89.3514
89.4208
89.4902
89.5595
89.6289
89.6982
89.7676
89.8369
89.9063
89.9757
90.045
90.1144
90.1837
90.2531
90.3224
90.3918
90.4612
90.5305
90.5999
90.6692
90.7386
90.8079
90.8773
90.9467
91.016
91.0854
91.1547
91.2241
91.2935
91.3628
91.4322
91.5015
91.5709
91.6403
91.7096
91.779
91.8483
91.9177
91.9871
92.0564
92.1258
92.1951
92.2645
92.3339
92.4032
92.4726
92.5419
92.6113
92.6807
92.75
92.8194
92.8888
92.9581
93.0275
93.0968
93.1662
93.2356
93.3049
93.3743
93.4437
93.513
93.5824
93.6517
93.7211
93.7905
93.8598
93.9292
93.9986
94.0679
94.1373
94.2067
94.276
94.3454
94.4147
94.4841
94.5535
94.6228
94.6922
94.7616
94.8309
94.9003
94.9697
95.039
95.1084
95.1778
95.2471
95.3165
95.3859
95.4552
95.5246
95.594
95.6633
95.7327
95.8021
95.8714
95.9408
96.0102
96.0795
96.1489
96.2183
96.2876
96.357
96.4264
96.4957
96.5651
96.6345
96.7038
96.7732
96.8426
96.9119
96.9813
97.0507
97.12
97.1894
97.2588
97.3281
97.3975
97.4669
97.5362
97.6056
97.675
97.7444
97.8137
97.8831
97.9525
98.0218
98.0912
98.1606
98.2299
98.2993
98.3687
98.4381
98.5074
98.5768
98.6462
98.7155
98.7849
98.8543
98.9236
98.993
99.0624
99.1318
99.2011
99.2705
99.3399
99.4092
99.4786
99.548
99.6174
99.6867
99.7561
99.8255
99.8948
99.9642
100.034
100.103
100.172
100.242
100.311
100.38
100.45
100.519
100.589
100.658
100.727
100.797
100.866
100.935
101.005
101.074
101.144
101.213
101.282
101.352
101.421
101.49
101.56
101.629
101.699
101.768
101.837
101.907
101.976
102.045
102.115
102.184
102.254
102.323
102.392
102.462
102.531
102.6
102.67
102.739
102.809
102.878
102.947
103.017
103.086
103.155
103.225
103.294
103.364
103.433
103.502
103.572
103.641
103.71
103.78
103.849
103.919
103.988
104.057
104.127
104.196
104.265
104.335
104.404
104.474
104.543
104.612
104.682
104.751
104.82
104.89
104.959
105.029
105.098
105.167
105.237
105.306
105.375
105.445
105.514
105.584
105.653
105.722
105.792
105.861
105.93
106
106.069
106.139
106.208
106.277
106.347
106.416
106.486
106.555
106.624
106.694
106.763
106.832
106.902
106.971
107.041
107.11
107.179
107.249
107.318
107.387
107.457
107.526
107.596
107.665
107.734
107.804
107.873
107.942
108.012
108.081
108.151
108.22
108.289
108.359
108.428
108.498
108.567
108.636
108.706
108.775
108.844
108.914
108.983
109.053
109.122
109.191
109.261
109.33
109.399
109.469
109.538
109.608
109.677
109.746
109.816
109.885
109.955
110.024
110.093
110.163
110.232
110.301
110.371
110.44
110.51
110.579
110.648
110.718
110.787
110.857
110.926
110.995
111.065
111.134
111.203
111.273
111.342
111.412
111.481
111.55
111.62
111.689
111.758
111.828
111.897
111.967
112.036
112.105
112.175
112.244
112.314
112.383
112.452
112.522
112.591
112.66
112.73
112.799
112.869
112.938
113.007
113.077
113.146
113.216
113.285
113.354
113.424
113.493
113.562
113.632
113.701
113.771
113.84
113.909
113.979
114.048
114.118
114.187
114.256
114.326
114.395
114.464
114.534
114.603
114.673
114.742
114.811
114.881
114.95
115.02
115.089
115.158
115.228
115.297
115.366
115.436
115.505
115.575
115.644
115.713
115.783
115.852
115.922
115.991
116.06
116.13
116.199
116.269
116.338
116.407
116.477
116.546
116.615
116.685
116.754
116.824
116.893
116.962
117.032
117.101
117.171
117.24
117.309
117.379
117.448
117.517
117.587
117.656
117.726
117.795
117.864
117.934
118.003
118.073
118.142
118.211
118.281
118.35
118.42
118.489
118.558
118.628
118.697
118.766
118.836
118.905
118.975
119.044
119.113
119.183
119.252
119.322
119.391
119.46
119.53
119.599
119.668
119.738
119.807
119.877
119.946
120.015
120.085
120.154
120.224
120.293
120.362
120.432
120.501
120.571
120.64
120.709
120.779
120.848
120.917
120.987
121.056
121.126
121.195
121.264
121.334
121.403
121.473
121.542
121.611
121.681
121.75
121.82
121.889
121.958
122.028
122.097
122.166
122.236
122.305
122.375
122.444
122.513
122.583
122.652
122.722
122.791
122.86
122.93
122.999
123.069
123.138
123.207
123.277
123.346
123.416
123.485
123.554
123.624
123.693
123.762
123.832
123.901
123.971
124.04
124.109
124.179
124.248
124.318
124.387
124.456
124.526
124.595
124.665
124.734
124.803
124.873
124.942
125.011
125.081
125.15
125.22
125.289
125.358
125.428
125.497
125.567
125.636
125.705
125.775
125.844
125.914
125.983
126.052
126.122
126.191
126.261
126.33
126.399
126.469
126.538
126.607
126.677
126.746
126.816
126.885
126.954
127.024
127.093
127.163
127.232
127.301
127.371
127.44
127.51
127.579
127.648
127.718
127.787
127.857
127.926
127.995
128.065
128.134
128.203
128.273
128.342
128.412
128.481
128.55
128.62
128.689
128.759
128.828
128.897
128.967
129.036
129.106
129.175
129.244
129.314
129.383
129.453
129.522
129.591
129.661
129.73
129.799
129.869
129.938
130.008
130.077
130.146
130.216
130.285
130.355
130.424
130.493
130.563
130.632
130.702
130.771
130.84
130.91
130.979
131.049
131.118
131.187
131.257
131.326
131.396
131.465
131.534
131.604
131.673
131.742
131.812
131.881
131.951
132.02
132.089
132.159
132.228
132.298
132.367
132.436
132.506
132.575
132.645
132.714
132.783
132.853
132.922
132.992
133.061
133.13
133.2
133.269
133.338
133.408
133.477
133.547
133.616
133.685
133.755
133.824
133.894
133.963
134.032
134.102
134.171
134.241
134.31
134.379
134.449
134.518
134.588
134.657
134.726
134.796
134.865
134.935
135.004
135.073
135.143
135.212
135.282
135.351
135.42
135.49
135.559
135.628
135.698
135.767
135.837
135.906
135.975
136.045
136.114
136.184
136.253
136.322
136.392
136.461
136.531
136.6
136.669
136.739
136.808
136.878
136.947
137.016
137.086
137.155
137.225
137.294
137.363
137.433
137.502
137.571
137.641
137.71
137.78
137.849
137.918
137.988
138.057
138.127
138.196
138.265
138.335
138.404
138.474
138.543
138.612
138.682
138.751
138.821
138.89
138.959
139.029
139.098
139.168
139.237
139.306
139.376
139.445
139.514
139.584
139.653
139.723
139.792
139.861
139.931
140
140.07
140.139
140.208
140.278
140.347
140.417
140.486
140.555
140.625
140.694
140.764
140.833
140.902
140.972
141.041
141.111
141.18
141.249
141.319
141.388
141.458
141.527
141.596
141.666
141.735
141.804
141.874
141.943
142.013
142.082
142.151
142.221
142.29
142.36
142.429
142.498
142.568
142.637
142.707
142.776
142.845
142.915
142.984
143.054
143.123
143.192
143.262
143.331
143.401
143.47
143.539
143.609
143.678
143.747
143.817
143.886
143.956
144.025
144.094
144.164
144.233
144.303
144.372
144.441
144.511
144.58
144.65
144.719
144.788
144.858
144.927
144.997
145.066
145.135
145.205
145.274
145.344
145.413
145.482
145.552
145.621
145.691
145.76
145.829
145.899
145.968
146.037
146.107
146.176
146.246
146.315
146.384
146.454
146.523
146.593
146.662
146.731
146.801
146.87
146.94
147.009
147.078
147.148
147.217
147.287
147.356
147.425
147.495
147.564
147.634
147.703
147.772
147.842
147.911
147.98
148.05
148.119
148.189
148.258
148.327
148.397
148.466
148.536
148.605
148.674
148.744
148.813
148.883
148.952
149.021
149.091
149.16
149.23
149.299
149.368
149.438
149.507
149.577
149.646
149.715
149.785
149.854
149.923
149.993
150.062
150.132
150.201
150.27
150.34
150.409
150.479
150.548
150.617
150.687
150.756
150.826
150.895
150.964
151.034
151.103
151.173
151.242
151.311
151.381
151.45
151.52
151.589
151.658
151.728
151.797
151.866
151.936
152.005
152.075
152.144
152.213
152.283
152.352
152.422
152.491
152.56
152.63
152.699
152.769
152.838
152.907
152.977
153.046
153.116
153.185
153.254
153.324
153.393
153.462
153.532
153.601
153.671
153.74
153.809
153.879
153.948
154.018
154.087
154.156
154.226
154.295
154.365
154.434
154.503
154.573
154.642
154.712
154.781
154.85
154.92
154.989
155.059
155.128
155.197
155.267
155.336
155.405
155.475
155.544
155.614
155.683
155.752
155.822
155.891
155.961
156.03
156.099
156.169
156.238
156.308
156.377
156.446
156.516
156.585
156.655
156.724
156.793
156.863
156.932
157.001
157.071
157.14
157.21
157.279
157.348
157.418
157.487
157.557
157.626
157.695
157.765
157.834
157.904
157.973
158.042
158.112
158.181
158.251
158.32
158.389
158.459
158.528
158.597
158.667
158.736
158.806
158.875
158.944
159.014
159.083
159.153
159.222
159.291
159.361
159.43
159.5
159.569
159.638
159.708
159.777
159.846
159.916
159.985
160.055
160.124
160.193
160.263
160.332
160.402
160.471
160.54
160.61
160.679
160.749
160.818
160.887
160.957
161.026
161.096
161.165
161.234
161.304
161.373
161.442
161.512
161.581
161.651
161.72
161.789
161.859
161.928
161.998
162.067
162.136
162.206
162.275
162.345
162.414
162.483
162.553
162.622
162.691
162.761
162.83
162.9
162.969
163.038
163.108
163.177
163.247
163.316
163.385
163.455
163.524
163.594
163.663
163.732
163.802
163.871
163.94
164.01
164.079
164.149
164.218
164.287
164.357
164.426
164.496
164.565
164.634
164.704
164.773
164.843
164.912
164.981
165.051
165.12
165.189
165.259
165.328
165.398
165.467
165.536
165.606
165.675
165.745
165.814
165.883
165.953
166.022
166.091
166.161
166.23
166.3
166.369
166.438
166.508
166.577
166.647
166.716
166.785
166.855
166.924
166.994
167.063
167.132
167.202
167.271
167.34
167.41
167.479
167.549
167.618
167.687
167.757
167.826
167.896
167.965
168.034
168.104
168.173
168.242
168.312
168.381
168.451
168.52
168.589
168.659
168.728
168.798
168.867
168.936
169.006
169.075
169.145
169.214
169.283
169.353
169.422
169.491
169.561
169.63
169.7
169.769
169.838
169.908
169.977
170.047
170.116
170.185
170.255
170.324
170.393
170.463
170.532
170.602
170.671
170.74
170.81
170.879
170.949
171.018
171.087
171.157
171.226
171.295
171.365
171.434
171.504
171.573
171.642
171.712
171.781
171.851
171.92
171.989
172.059
172.128
172.197
172.267
172.336
172.406
172.475
172.544
172.614
172.683
172.753
172.822
172.891
172.961
173.03
173.099
173.169
173.238
173.308
173.377
173.446
173.516
173.585
173.655
173.724
173.793
173.863
173.932
174.001
174.071
174.14
174.21
174.279
174.348
174.418
174.487
174.556
174.626
174.695
174.765
174.834
174.903
174.973
175.042
175.112
175.181
175.25
175.32
175.389
175.458
175.528
175.597
175.667
175.736
175.805
175.875
175.944
176.014
176.083
176.152
176.222
176.291
176.36
176.43
176.499
176.569
176.638
176.707
176.777
176.846
176.915
176.985
177.054
177.124
177.193
177.262
177.332
177.401
177.471
177.54
177.609
177.679
177.748
177.817
177.887
177.956
178.026
178.095
178.164
178.234
178.303
178.372
178.442
178.511
178.581
178.65
178.719
178.789
178.858
178.927
178.997
179.066
179.136
179.205
179.274
179.344
179.413
179.483
179.552
179.621
179.691
179.76
179.829
179.899
179.968
180.038
180.107
180.176
180.246
180.315
180.384
180.454
180.523
180.593
180.662
180.731
180.801
180.87
180.939
181.009
181.078
181.148
181.217
181.286
181.356
181.425
181.494
181.564
181.633
181.703
181.772
181.841
181.911
181.98
182.049
182.119
182.188
182.258
182.327
182.396
182.466
182.535
182.605
182.674
182.743
182.813
182.882
182.951
183.021
183.09
183.16
183.229
183.298
183.368
183.437
183.506
183.576
183.645
183.715
183.784
183.853
183.923
183.992
184.061
184.131
184.2
184.27
184.339
184.408
184.478
184.547
184.616
184.686
184.755
184.825
184.894
184.963
185.033
185.102
185.171
185.241
185.31
185.38
185.449
185.518
185.588
185.657
185.726
185.796
185.865
185.934
186.004
186.073
186.143
186.212
186.281
186.351
186.42
186.489
186.559
186.628
186.698
186.767
186.836
186.906
186.975
187.044
187.114
187.183
187.253
187.322
187.391
187.461
187.53
187.599
187.669
187.738
187.808
187.877
187.946
188.016
188.085
188.154
188.224
188.293
188.363
188.432
188.501
188.571
188.64
188.709
188.779
188.848
188.917
188.987
189.056
189.126
189.195
189.264
189.334
189.403
189.472
189.542
189.611
189.681
189.75
189.819
189.889
189.958
190.027
190.097
190.166
190.235
190.305
190.374
190.444
190.513
190.582
190.652
190.721
190.79
190.86
190.929
190.999
191.068
191.137
191.207
191.276
191.345
191.415
191.484
191.553
191.623
191.692
191.762
191.831
191.9
191.97
192.039
192.108
192.178
192.247
192.316
192.386
192.455
192.525
192.594
192.663
192.733
192.802
192.871
192.941
193.01
193.08
193.149
193.218
193.288
193.357
193.426
193.496
193.565
193.634
193.704
193.773
193.843
193.912
193.981
194.051
194.12
194.189
194.259
194.328
194.397
194.467
194.536
194.606
194.675
194.744
194.814
194.883
194.952
195.022
195.091
195.16
195.23
195.299
195.369
195.438
195.507
195.577
195.646
195.715
195.785
195.854
195.923
195.993
196.062
196.131
196.201
196.27
196.34
196.409
196.478
196.548
196.617
196.686
196.756
196.825
196.894
196.964
197.033
197.103
197.172
197.241
197.311
197.38
197.449
197.519
197.588
197.657
197.727
197.796
197.865
197.935
198.004
198.074
198.143
198.212
198.282
198.351
198.42
198.49
198.559
198.628
198.698
198.767
198.836
198.906
198.975
199.045
199.114
199.183
199.253
199.322
199.391
199.461
199.53
199.599
199.669
199.738
199.807
199.877
199.946
200.016
200.085
200.154
200.224
200.293
200.362
200.432
200.501
200.57
200.64
200.709
200.778
200.848
200.917
200.986
201.056
201.125
201.195
201.264
201.333
201.403
201.472
201.541
201.611
201.68
201.749
201.819
201.888
201.957
202.027
202.096
202.165
202.235
202.304
202.374
202.443
202.512
202.582
202.651
202.72
202.79
202.859
202.928
202.998
203.067
203.136
203.206
203.275
203.344
203.414
203.483
203.552
203.622
203.691
203.761
203.83
203.899
203.969
204.038
204.107
204.177
204.246
204.315
204.385
204.454
204.523
204.593
204.662
204.731
204.801
204.87
204.939
205.009
205.078
205.147
205.217
205.286
205.355
205.425
205.494
205.564
205.633
205.702
205.772
205.841
205.91
205.98
206.049
206.118
206.188
206.257
206.326
206.396
206.465
206.534
206.604
206.673
206.742
206.812
206.881
206.95
207.02
207.089
207.158
207.228
207.297
207.366
207.436
207.505
207.574
207.644
207.713
207.782
207.852
207.921
207.99
208.06
208.129
208.199
208.268
208.337
208.407
208.476
208.545
208.615
208.684
208.753
208.823
208.892