/*--------------------------------*- C++ -*----------------------------------*\
  =========                 |
  \\      /  F ield         | OpenFOAM: The Open Source CFD Toolbox
   \\    /   O peration     | Website:  https://openfoam.org
    \\  /    A nd           | Version:  9
     \\/     M anipulation  |
\*---------------------------------------------------------------------------*/
FoamFile
{
    format      ascii;
    class       surfaceScalarField;
    location    "0.016";
    object      phi;
}
// * * * * * * * * * * * * * * * * * * * * * * * * * * * * * * * * * * * * * //

dimensions      [1 0 -1 0 0 0 0];

internalField   nonuniform List<scalar> 
999
(
13.4785
16.2757
19.0745
21.8736
24.673
27.472
30.2706
33.0688
35.8667
38.6641
41.4609
44.2573
47.053
49.848
52.6424
55.436
58.2287
61.0206
63.8116
66.6016
69.3906
72.1785
74.9653
77.7509
80.5352
83.3182
86.0998
88.88
91.6587
94.4358
97.2114
99.9852
102.757
105.528
108.296
111.062
113.827
116.589
119.349
122.107
124.862
127.615
130.365
133.113
135.858
138.601
141.34
144.077
146.81
149.54
152.267
154.991
157.711
160.427
163.14
165.848
168.553
171.254
173.95
176.642
179.329
182.011
184.689
187.362
190.029
192.691
195.347
197.998
200.642
203.28
205.912
208.537
211.156
213.767
216.37
218.966
221.554
224.134
226.705
229.267
231.82
234.364
236.897
239.42
241.933
244.434
246.924
249.402
251.868
254.32
256.76
259.185
261.596
263.993
266.374
268.738
271.087
273.418
275.731
278.026
280.302
282.559
284.795
287.01
289.204
291.376
293.524
295.649
297.75
299.827
301.877
303.902
305.9
307.871
309.814
311.729
313.616
315.473
317.3
319.098
320.866
322.603
324.31
325.986
327.631
329.245
330.829
332.382
333.905
335.398
336.861
338.295
339.7
341.077
342.426
343.748
345.043
346.313
347.558
348.779
349.977
351.152
352.306
353.439
354.552
355.647
356.724
357.784
358.827
359.856
360.869
361.869
362.856
363.831
364.795
365.747
366.69
367.623
368.546
369.462
370.369
371.269
372.161
373.047
373.926
374.799
375.667
376.528
377.385
378.236
379.083
379.925
380.762
381.595
382.423
383.248
384.068
384.884
385.697
386.505
387.31
388.111
388.908
389.702
390.492
391.279
392.062
392.841
393.617
394.39
395.159
395.924
396.686
397.445
398.201
398.953
399.701
400.446
401.188
401.927
402.662
403.394
404.123
404.848
405.57
406.288
407.004
407.716
408.424
409.13
409.832
410.531
411.227
411.919
412.609
413.294
413.978
414.656
415.334
416.005
416.677
417.341
418.008
418.665
419.326
419.976
420.631
421.275
421.922
422.562
423.2
423.837
424.465
425.099
425.719
426.348
426.961
427.583
428.192
428.805
429.411
430.015
430.617
431.213
431.81
432.401
432.99
433.576
434.158
434.738
435.315
435.889
436.46
437.027
437.592
438.154
438.712
439.268
439.821
440.371
440.918
441.462
442.003
442.541
443.076
443.608
444.137
444.664
445.187
445.708
446.225
446.74
447.252
447.761
448.267
448.771
449.271
449.769
450.263
450.755
451.244
451.731
452.214
452.695
453.172
453.647
454.119
454.589
455.055
455.519
455.98
456.439
456.894
457.347
457.797
458.244
458.688
459.13
459.569
460.006
460.439
460.87
461.298
461.724
462.146
462.567
462.984
463.399
463.811
464.22
464.627
465.031
465.432
465.831
466.227
466.621
467.012
467.4
467.786
468.169
468.549
468.927
469.302
469.675
470.045
470.412
470.777
471.139
471.499
471.856
472.211
472.563
472.913
473.26
473.604
473.946
474.286
474.623
474.957
475.289
475.619
475.946
476.27
476.592
476.912
477.229
477.543
477.856
478.165
478.472
478.777
479.08
479.38
479.677
479.972
480.265
480.555
480.843
481.128
481.411
481.692
481.97
482.246
482.519
482.79
483.059
483.325
483.589
483.851
484.11
484.367
484.622
484.874
485.124
485.372
485.617
485.86
486.101
486.339
486.575
486.809
487.04
487.269
487.496
487.721
487.943
488.163
488.381
488.596
488.809
489.02
489.229
489.435
489.64
489.842
490.041
490.239
490.434
490.627
490.818
491.006
491.193
491.377
491.559
491.739
491.916
492.091
492.264
492.435
492.604
492.771
492.935
493.097
493.257
493.415
493.571
493.724
493.875
494.024
494.171
494.316
494.459
494.599
494.737
494.874
495.008
495.139
495.269
495.397
495.522
495.645
495.766
495.885
496.002
496.117
496.229
496.339
496.448
496.554
496.658
496.759
496.859
496.957
497.052
497.145
497.236
497.325
497.412
497.497
497.58
497.66
497.739
497.815
497.889
497.961
498.031
498.099
498.165
498.229
498.29
498.35
498.408
498.463
498.517
498.568
498.618
498.665
498.711
498.754
498.796
498.836
498.874
498.91
498.944
498.977
499.007
499.037
499.064
499.09
499.114
499.137
499.158
499.177
499.196
499.213
499.228
499.243
499.256
499.268
499.28
499.29
499.299
499.307
499.315
499.321
499.327
499.333
499.337
499.341
499.345
499.348
499.351
499.353
499.355
499.357
499.358
499.359
499.36
499.361
499.362
499.362
499.362
499.362
499.362
499.362
499.362
499.362
499.362
499.362
499.362
499.361
499.361
499.361
499.361
499.36
499.36
499.359
499.359
499.359
499.358
499.358
499.358
499.357
499.357
499.356
499.356
499.356
499.355
499.355
499.354
499.354
499.353
499.353
499.353
499.352
499.352
499.351
499.351
499.351
499.35
499.35
499.349
499.349
499.348
499.348
499.347
499.347
499.346
499.346
499.346
499.345
499.345
499.344
499.344
499.343
499.343
499.342
499.342
499.341
499.341
499.34
499.34
499.339
499.339
499.338
499.338
499.337
499.337
499.336
499.336
499.335
499.334
499.334
499.333
499.333
499.332
499.332
499.331
499.331
499.33
499.329
499.329
499.328
499.328
499.327
499.327
499.326
499.325
499.325
499.324
499.324
499.323
499.322
499.322
499.321
499.321
499.32
499.319
499.319
499.318
499.318
499.317
499.316
499.316
499.315
499.314
499.314
499.313
499.313
499.312
499.311
499.311
499.31
499.309
499.309
499.308
499.307
499.307
499.306
499.305
499.305
499.304
499.303
499.302
499.302
499.301
499.3
499.3
499.299
499.298
499.297
499.297
499.296
499.295
499.294
499.294
499.293
499.292
499.291
499.291
499.29
499.289
499.288
499.287
499.287
499.286
499.285
499.284
499.283
499.283
499.282
499.281
499.28
499.279
499.278
499.277
499.277
499.276
499.275
499.274
499.273
499.272
499.271
499.27
499.269
499.269
499.268
499.267
499.266
499.265
499.264
499.263
499.262
499.261
499.26
499.259
499.258
499.257
499.256
499.255
499.254
499.253
499.252
499.251
499.25
499.249
499.248
499.247
499.246
499.245
499.243
499.242
499.241
499.24
499.239
499.238
499.237
499.236
499.234
499.233
499.232
499.231
499.23
499.229
499.227
499.226
499.225
499.224
499.222
499.221
499.22
499.219
499.217
499.216
499.215
499.213
499.212
499.211
499.209
499.208
499.207
499.205
499.204
499.202
499.201
499.199
499.198
499.197
499.195
499.194
499.192
499.191
499.189
499.188
499.186
499.184
499.183
499.181
499.18
499.178
499.176
499.175
499.173
499.171
499.17
499.168
499.166
499.165
499.163
499.161
499.159
499.157
499.156
499.154
499.152
499.15
499.148
499.146
499.144
499.142
499.14
499.138
499.136
499.134
499.132
499.13
499.128
499.126
499.124
499.122
499.119
499.117
499.115
499.113
499.11
499.108
499.106
499.103
499.101
499.099
499.096
499.094
499.091
499.089
499.086
499.084
499.081
499.078
499.076
499.073
499.07
499.067
499.065
499.062
499.059
499.056
499.053
499.05
499.047
499.044
499.041
499.038
499.035
499.032
499.028
499.025
499.022
499.018
499.015
499.012
499.008
499.005
499.001
498.997
498.994
498.99
498.986
498.982
498.978
498.974
498.97
498.966
498.962
498.958
498.954
498.949
498.945
498.941
498.936
498.931
498.927
498.922
498.917
498.912
498.907
498.902
498.897
498.892
498.887
498.881
498.876
498.87
498.865
498.859
498.853
498.847
498.841
498.835
498.829
498.822
498.816
498.809
498.802
498.795
498.788
498.781
498.774
498.766
498.759
498.751
498.743
498.735
498.727
498.718
498.71
498.701
498.692
498.683
498.673
498.664
498.654
498.644
498.633
498.623
498.612
498.601
498.589
498.578
498.566
498.554
498.541
498.528
498.515
498.501
498.487
498.473
498.458
498.442
498.427
498.41
498.394
498.376
498.358
498.34
498.321
498.301
498.28
498.259
498.236
498.213
498.189
498.163
498.137
498.109
498.079
498.048
498.015
497.98
497.943
497.904
497.862
497.817
497.77
497.72
497.667
497.611
497.552
497.491
497.427
497.36
497.289
497.215
497.135
497.047
496.947
496.831
496.691
496.519
496.304
496.032
495.688
495.252
494.705
494.023
493.18
492.151
490.907
489.422
487.669
485.623
483.26
480.562
477.513
474.104
470.33
466.192
461.7
456.866
451.714
446.271
440.569
434.648
428.549
422.317
416
409.646
403.302
397.016
390.831
384.789
378.925
373.273
367.86
362.708
357.836
353.256
348.975
344.997
341.32
337.942
334.852
332.044
329.502
327.214
325.164
323.338
321.715
320.285
319.024
317.925
316.962
316.134
315.409
314.796
314.259
313.814
313.419
313.102
312.813
)
;

boundaryField
{
    sides
    {
        type            calculated;
        value           nonuniform List<scalar> 2(312.597 -10.6825);
    }
    empty
    {
        type            empty;
        value           nonuniform List<scalar> 0();
    }
}


// ************************************************************************* //
