/*--------------------------------*- C++ -*----------------------------------*\
  =========                 |
  \\      /  F ield         | OpenFOAM: The Open Source CFD Toolbox
   \\    /   O peration     | Website:  https://openfoam.org
    \\  /    A nd           | Version:  9
     \\/     M anipulation  |
\*---------------------------------------------------------------------------*/
FoamFile
{
    format      ascii;
    class       volVectorField;
    location    "0.043";
    object      ddt0(rho,U);
}
// * * * * * * * * * * * * * * * * * * * * * * * * * * * * * * * * * * * * * //

dimensions      [1 -2 -2 0 0 0 0];

internalField   nonuniform List<vector> 
1000
(
(-51.8125 0 0)
(-55.5662 0 0)
(-59.9293 0 0)
(-63.4125 0 0)
(-66.5455 0 0)
(-69.7137 0 0)
(-72.9547 0 0)
(-76.2063 0 0)
(-79.4437 0 0)
(-82.6824 0 0)
(-85.9376 0 0)
(-89.2028 0 0)
(-92.4609 0 0)
(-95.7062 0 0)
(-98.9507 0 0)
(-102.21 0 0)
(-105.487 0 0)
(-108.761 0 0)
(-112.01 0 0)
(-115.227 0 0)
(-118.426 0 0)
(-121.639 0 0)
(-124.89 0 0)
(-128.179 0 0)
(-131.475 0 0)
(-134.741 0 0)
(-137.954 0 0)
(-141.125 0 0)
(-144.291 0 0)
(-147.494 0 0)
(-150.76 0 0)
(-154.082 0 0)
(-157.429 0 0)
(-160.763 0 0)
(-164.049 0 0)
(-167.271 0 0)
(-170.437 0 0)
(-173.573 0 0)
(-176.719 0 0)
(-179.904 0 0)
(-183.138 0 0)
(-186.422 0 0)
(-189.757 0 0)
(-193.134 0 0)
(-196.525 0 0)
(-199.898 0 0)
(-203.237 0 0)
(-206.53 0 0)
(-209.752 0 0)
(-212.877 0 0)
(-215.919 0 0)
(-218.928 0 0)
(-221.951 0 0)
(-225.011 0 0)
(-228.133 0 0)
(-231.367 0 0)
(-234.732 0 0)
(-238.204 0 0)
(-241.744 0 0)
(-245.327 0 0)
(-248.956 0 0)
(-252.607 0 0)
(-256.247 0 0)
(-259.891 0 0)
(-263.523 0 0)
(-267.08 0 0)
(-270.537 0 0)
(-273.926 0 0)
(-277.276 0 0)
(-280.656 0 0)
(-284.159 0 0)
(-287.669 0 0)
(-291.006 0 0)
(-294.408 0 0)
(-298.077 0 0)
(-302.587 0 0)
(-305.841 0 0)
(-308.991 0 0)
(-312.911 0 0)
(-316.277 0 0)
(-319.229 0 0)
(-322.913 0 0)
(-326.527 0 0)
(-329.503 0 0)
(-332.974 0 0)
(-336.898 0 0)
(-340.069 0 0)
(-343.097 0 0)
(-347.032 0 0)
(-350.801 0 0)
(-353.692 0 0)
(-357.045 0 0)
(-361.164 0 0)
(-364.485 0 0)
(-367.388 0 0)
(-371.132 0 0)
(-375.326 0 0)
(-378.494 0 0)
(-381.421 0 0)
(-385.461 0 0)
(-389.453 0 0)
(-392.334 0 0)
(-395.597 0 0)
(-399.711 0 0)
(-403.501 0 0)
(-406.477 0 0)
(-409.893 0 0)
(-414.217 0 0)
(-418.02 0 0)
(-420.899 0 0)
(-424.341 0 0)
(-428.711 0 0)
(-432.502 0 0)
(-435.438 0 0)
(-438.863 0 0)
(-443.3 0 0)
(-447.284 0 0)
(-450.305 0 0)
(-453.554 0 0)
(-458.086 0 0)
(-462.437 0 0)
(-465.228 0 0)
(-468.539 0 0)
(-472.701 0 0)
(-477.527 0 0)
(-480.725 0 0)
(-483.76 0 0)
(-487.646 0 0)
(-492.411 0 0)
(-496.4 0 0)
(-499.603 0 0)
(-503.176 0 0)
(-507.635 0 0)
(-511.752 0 0)
(-514.997 0 0)
(-518.785 0 0)
(-523.201 0 0)
(-527.958 0 0)
(-531.022 0 0)
(-534.288 0 0)
(-538.419 0 0)
(-543.493 0 0)
(-547.696 0 0)
(-550.954 0 0)
(-554.563 0 0)
(-558.63 0 0)
(-563.635 0 0)
(-567.411 0 0)
(-571.041 0 0)
(-574.955 0 0)
(-579.742 0 0)
(-584.196 0 0)
(-587.415 0 0)
(-591.696 0 0)
(-595.951 0 0)
(-600.829 0 0)
(-604.852 0 0)
(-608.872 0 0)
(-613.116 0 0)
(-617.203 0 0)
(-621.192 0 0)
(-624.989 0 0)
(-628.468 0 0)
(-633.186 0 0)
(-639.23 0 0)
(-645.242 0 0)
(-651.617 0 0)
(-656.773 0 0)
(-661.683 0 0)
(-666.116 0 0)
(-670.814 0 0)
(-675.834 0 0)
(-680.277 0 0)
(-684.726 0 0)
(-689.46 0 0)
(-694.427 0 0)
(-699.437 0 0)
(-703.976 0 0)
(-708.485 0 0)
(-713.608 0 0)
(-718.873 0 0)
(-723.991 0 0)
(-728.9 0 0)
(-733.797 0 0)
(-739.127 0 0)
(-744.684 0 0)
(-749.935 0 0)
(-754.946 0 0)
(-760.036 0 0)
(-765.482 0 0)
(-771.203 0 0)
(-776.783 0 0)
(-782.038 0 0)
(-787.331 0 0)
(-792.915 0 0)
(-798.761 0 0)
(-804.501 0 0)
(-809.935 0 0)
(-815.304 0 0)
(-820.967 0 0)
(-826.972 0 0)
(-832.998 0 0)
(-838.756 0 0)
(-844.35 0 0)
(-850.127 0 0)
(-856.233 0 0)
(-862.377 0 0)
(-868.274 0 0)
(-873.931 0 0)
(-879.711 0 0)
(-885.844 0 0)
(-892.156 0 0)
(-898.341 0 0)
(-904.226 0 0)
(-910.101 0 0)
(-916.238 0 0)
(-922.631 0 0)
(-928.942 0 0)
(-934.938 0 0)
(-940.691 0 0)
(-946.678 0 0)
(-952.948 0 0)
(-959.374 0 0)
(-965.57 0 0)
(-971.395 0 0)
(-977.247 0 0)
(-983.311 0 0)
(-989.719 0 0)
(-995.982 0 0)
(-1001.91 0 0)
(-1007.53 0 0)
(-1013.21 0 0)
(-1019.25 0 0)
(-1025.45 0 0)
(-1031.49 0 0)
(-1037.06 0 0)
(-1042.42 0 0)
(-1047.96 0 0)
(-1053.82 0 0)
(-1059.77 0 0)
(-1065.39 0 0)
(-1070.51 0 0)
(-1075.52 0 0)
(-1080.77 0 0)
(-1086.28 0 0)
(-1091.8 0 0)
(-1096.87 0 0)
(-1101.52 0 0)
(-1106.17 0 0)
(-1111.05 0 0)
(-1116.12 0 0)
(-1121.07 0 0)
(-1125.55 0 0)
(-1129.7 0 0)
(-1133.89 0 0)
(-1138.3 0 0)
(-1142.87 0 0)
(-1147.2 0 0)
(-1151.12 0 0)
(-1154.76 0 0)
(-1158.48 0 0)
(-1162.46 0 0)
(-1166.48 0 0)
(-1170.27 0 0)
(-1173.59 0 0)
(-1176.71 0 0)
(-1179.92 0 0)
(-1183.38 0 0)
(-1186.98 0 0)
(-1190.34 0 0)
(-1193.22 0 0)
(-1195.83 0 0)
(-1198.57 0 0)
(-1201.61 0 0)
(-1204.85 0 0)
(-1207.89 0 0)
(-1210.42 0 0)
(-1212.61 0 0)
(-1214.87 0 0)
(-1217.53 0 0)
(-1220.49 0 0)
(-1223.25 0 0)
(-1225.57 0 0)
(-1227.53 0 0)
(-1229.49 0 0)
(-1231.78 0 0)
(-1234.42 0 0)
(-1236.96 0 0)
(-1239.11 0 0)
(-1240.92 0 0)
(-1242.75 0 0)
(-1244.88 0 0)
(-1247.27 0 0)
(-1249.7 0 0)
(-1251.81 0 0)
(-1253.54 0 0)
(-1255.22 0 0)
(-1257.18 0 0)
(-1259.44 0 0)
(-1261.73 0 0)
(-1263.8 0 0)
(-1265.53 0 0)
(-1267.06 0 0)
(-1268.8 0 0)
(-1270.99 0 0)
(-1273.4 0 0)
(-1275.62 0 0)
(-1277.39 0 0)
(-1278.82 0 0)
(-1280.33 0 0)
(-1282.31 0 0)
(-1284.72 0 0)
(-1287.09 0 0)
(-1289 0 0)
(-1290.49 0 0)
(-1291.93 0 0)
(-1293.7 0 0)
(-1295.9 0 0)
(-1298.28 0 0)
(-1300.43 0 0)
(-1302.14 0 0)
(-1303.64 0 0)
(-1305.3 0 0)
(-1307.28 0 0)
(-1309.49 0 0)
(-1311.71 0 0)
(-1313.64 0 0)
(-1315.2 0 0)
(-1316.74 0 0)
(-1318.67 0 0)
(-1320.96 0 0)
(-1323.26 0 0)
(-1325.28 0 0)
(-1326.91 0 0)
(-1328.33 0 0)
(-1329.99 0 0)
(-1332.2 0 0)
(-1334.7 0 0)
(-1336.96 0 0)
(-1338.76 0 0)
(-1340.28 0 0)
(-1341.75 0 0)
(-1343.54 0 0)
(-1345.86 0 0)
(-1348.36 0 0)
(-1350.54 0 0)
(-1352.3 0 0)
(-1353.84 0 0)
(-1355.42 0 0)
(-1357.35 0 0)
(-1359.71 0 0)
(-1362.14 0 0)
(-1364.14 0 0)
(-1365.75 0 0)
(-1367.39 0 0)
(-1369.29 0 0)
(-1371.47 0 0)
(-1373.86 0 0)
(-1376.1 0 0)
(-1377.9 0 0)
(-1379.4 0 0)
(-1381.08 0 0)
(-1383.12 0 0)
(-1385.5 0 0)
(-1388.01 0 0)
(-1390.26 0 0)
(-1391.97 0 0)
(-1393.34 0 0)
(-1394.97 0 0)
(-1397.13 0 0)
(-1399.62 0 0)
(-1402.1 0 0)
(-1404.3 0 0)
(-1406.08 0 0)
(-1407.56 0 0)
(-1409.2 0 0)
(-1411.37 0 0)
(-1413.87 0 0)
(-1416.27 0 0)
(-1418.35 0 0)
(-1420.13 0 0)
(-1421.79 0 0)
(-1423.64 0 0)
(-1425.91 0 0)
(-1428.46 0 0)
(-1430.85 0 0)
(-1432.77 0 0)
(-1434.36 0 0)
(-1435.99 0 0)
(-1437.99 0 0)
(-1440.4 0 0)
(-1443.05 0 0)
(-1445.53 0 0)
(-1447.54 0 0)
(-1449.09 0 0)
(-1450.6 0 0)
(-1452.51 0 0)
(-1454.89 0 0)
(-1457.52 0 0)
(-1460.01 0 0)
(-1462.11 0 0)
(-1463.85 0 0)
(-1465.48 0 0)
(-1467.41 0 0)
(-1469.76 0 0)
(-1472.36 0 0)
(-1474.76 0 0)
(-1476.77 0 0)
(-1478.48 0 0)
(-1480.23 0 0)
(-1482.29 0 0)
(-1484.74 0 0)
(-1487.42 0 0)
(-1489.94 0 0)
(-1492.01 0 0)
(-1493.6 0 0)
(-1495.13 0 0)
(-1497.07 0 0)
(-1499.57 0 0)
(-1502.35 0 0)
(-1504.97 0 0)
(-1507.18 0 0)
(-1508.99 0 0)
(-1510.65 0 0)
(-1512.53 0 0)
(-1514.81 0 0)
(-1517.41 0 0)
(-1519.98 0 0)
(-1522.22 0 0)
(-1524.12 0 0)
(-1525.88 0 0)
(-1527.85 0 0)
(-1530.24 0 0)
(-1532.96 0 0)
(-1535.63 0 0)
(-1537.85 0 0)
(-1539.6 0 0)
(-1541.23 0 0)
(-1543.15 0 0)
(-1545.49 0 0)
(-1548.14 0 0)
(-1550.87 0 0)
(-1553.42 0 0)
(-1555.55 0 0)
(-1557.31 0 0)
(-1559.03 0 0)
(-1561.15 0 0)
(-1563.74 0 0)
(-1566.46 0 0)
(-1568.94 0 0)
(-1571 0 0)
(-1572.85 0 0)
(-1574.75 0 0)
(-1576.99 0 0)
(-1579.62 0 0)
(-1582.41 0 0)
(-1585.03 0 0)
(-1587.19 0 0)
(-1588.97 0 0)
(-1590.66 0 0)
(-1592.65 0 0)
(-1595.12 0 0)
(-1597.94 0 0)
(-1600.77 0 0)
(-1603.26 0 0)
(-1605.33 0 0)
(-1607.16 0 0)
(-1609.1 0 0)
(-1611.4 0 0)
(-1614.02 0 0)
(-1616.77 0 0)
(-1619.29 0 0)
(-1621.41 0 0)
(-1623.26 0 0)
(-1625.16 0 0)
(-1627.46 0 0)
(-1630.13 0 0)
(-1633.02 0 0)
(-1635.72 0 0)
(-1638.06 0 0)
(-1640.04 0 0)
(-1641.82 0 0)
(-1643.79 0 0)
(-1646.13 0 0)
(-1648.9 0 0)
(-1651.74 0 0)
(-1654.33 0 0)
(-1656.55 0 0)
(-1658.53 0 0)
(-1660.56 0 0)
(-1662.89 0 0)
(-1665.56 0 0)
(-1668.4 0 0)
(-1671.12 0 0)
(-1673.43 0 0)
(-1675.35 0 0)
(-1677.15 0 0)
(-1679.26 0 0)
(-1681.82 0 0)
(-1684.73 0 0)
(-1687.64 0 0)
(-1690.25 0 0)
(-1692.47 0 0)
(-1694.46 0 0)
(-1696.51 0 0)
(-1698.83 0 0)
(-1701.5 0 0)
(-1704.31 0 0)
(-1707.01 0 0)
(-1709.4 0 0)
(-1711.48 0 0)
(-1713.48 0 0)
(-1715.67 0 0)
(-1718.21 0 0)
(-1721.1 0 0)
(-1724.05 0 0)
(-1726.81 0 0)
(-1729.16 0 0)
(-1731.16 0 0)
(-1733.12 0 0)
(-1735.29 0 0)
(-1738 0 0)
(-1740.89 0 0)
(-1743.85 0 0)
(-1746.34 0 0)
(-1748.47 0 0)
(-1750.45 0 0)
(-1752.62 0 0)
(-1755.28 0 0)
(-1758.2 0 0)
(-1761.21 0 0)
(-1763.93 0 0)
(-1766.3 0 0)
(-1768.4 0 0)
(-1770.46 0 0)
(-1772.7 0 0)
(-1775.38 0 0)
(-1778.2 0 0)
(-1781.26 0 0)
(-1783.87 0 0)
(-1786.31 0 0)
(-1788.38 0 0)
(-1790.48 0 0)
(-1793.07 0 0)
(-1795.71 0 0)
(-1798.95 0 0)
(-1801.62 0 0)
(-1804.31 0 0)
(-1806.49 0 0)
(-1808.48 0 0)
(-1810.96 0 0)
(-1813.17 0 0)
(-1816.45 0 0)
(-1819.04 0 0)
(-1822.22 0 0)
(-1824.57 0 0)
(-1826.81 0 0)
(-1829.24 0 0)
(-1831.12 0 0)
(-1834.5 0 0)
(-1836.72 0 0)
(-1840.48 0 0)
(-1842.75 0 0)
(-1845.42 0 0)
(-1847.81 0 0)
(-1849.28 0 0)
(-1852.77 0 0)
(-1854.21 0 0)
(-1858.61 0 0)
(-1860.55 0 0)
(-1863.89 0 0)
(-1866.42 0 0)
(-1867.69 0 0)
(-1871.58 0 0)
(-1872.02 0 0)
(-1877.32 0 0)
(-1878.2 0 0)
(-1882.94 0 0)
(-1884.65 0 0)
(-1887.09 0 0)
(-1890.24 0 0)
(-1890.77 0 0)
(-1895.86 0 0)
(-1895.92 0 0)
(-1901.8 0 0)
(-1902.44 0 0)
(-1906.68 0 0)
(-1908.69 0 0)
(-1910.11 0 0)
(-1914.39 0 0)
(-1914.4 0 0)
(-1920.41 0 0)
(-1920.9 0 0)
(-1925.85 0 0)
(-1927.6 0 0)
(-1929.62 0 0)
(-1933.25 0 0)
(-1933.64 0 0)
(-1939.01 0 0)
(-1939.66 0 0)
(-1944.82 0 0)
(-1946.3 0 0)
(-1949.38 0 0)
(-1952.06 0 0)
(-1953.44 0 0)
(-1957.61 0 0)
(-1958.69 0 0)
(-1963.71 0 0)
(-1964.93 0 0)
(-1969.55 0 0)
(-1970.82 0 0)
(-1974.21 0 0)
(-1976.35 0 0)
(-1978.45 0 0)
(-1982.75 0 0)
(-1983.67 0 0)
(-1989.71 0 0)
(-1989.63 0 0)
(-1995.24 0 0)
(-1995.31 0 0)
(-1999.14 0 0)
(-2001.22 0 0)
(-2003.67 0 0)
(-2008.19 0 0)
(-2009.55 0 0)
(-2014.87 0 0)
(-2015.09 0 0)
(-2019.73 0 0)
(-2020.17 0 0)
(-2024.04 0 0)
(-2026.7 0 0)
(-2029.56 0 0)
(-2034.35 0 0)
(-2035.18 0 0)
(-2040.53 0 0)
(-2040.11 0 0)
(-2044.67 0 0)
(-2046.71 0 0)
(-2048.84 0 0)
(-2055.33 0 0)
(-2054.64 0 0)
(-2061.55 0 0)
(-2061.56 0 0)
(-2064.48 0 0)
(-2068.34 0 0)
(-2068.96 0 0)
(-2075.11 0 0)
(-2076.19 0 0)
(-2081.51 0 0)
(-2083.09 0 0)
(-2085.85 0 0)
(-2089.52 0 0)
(-2089.69 0 0)
(-2096.56 0 0)
(-2096.55 0 0)
(-2102.81 0 0)
(-2104.99 0 0)
(-2107.22 0 0)
(-2111.78 0 0)
(-2111.63 0 0)
(-2117.8 0 0)
(-2118.35 0 0)
(-2124.28 0 0)
(-2126.79 0 0)
(-2129.62 0 0)
(-2134.48 0 0)
(-2134.15 0 0)
(-2140.43 0 0)
(-2141.24 0 0)
(-2145.64 0 0)
(-2150.7 0 0)
(-2151.51 0 0)
(-2158.01 0 0)
(-2158.53 0 0)
(-2162.52 0 0)
(-2166.22 0 0)
(-2168.52 0 0)
(-2173.68 0 0)
(-2177.08 0 0)
(-2180.54 0 0)
(-2184.31 0 0)
(-2187.57 0 0)
(-2189.76 0 0)
(-2194.99 0 0)
(-2197.37 0 0)
(-2202.34 0 0)
(-2206.71 0 0)
(-2209.41 0 0)
(-2214.27 0 0)
(-2216.46 0 0)
(-2220.55 0 0)
(-2224.49 0 0)
(-2228.75 0 0)
(-2232.95 0 0)
(-2237.72 0 0)
(-2241.65 0 0)
(-2244.05 0 0)
(-2249.65 0 0)
(-2252.11 0 0)
(-2256.25 0 0)
(-2262.76 0 0)
(-2265.88 0 0)
(-2270.61 0 0)
(-2275.68 0 0)
(-2278.68 0 0)
(-2282.26 0 0)
(-2287.57 0 0)
(-2292.07 0 0)
(-2296.45 0 0)
(-2302.4 0 0)
(-2307.36 0 0)
(-2310.46 0 0)
(-2315.31 0 0)
(-2320.65 0 0)
(-2323.23 0 0)
(-2329.81 0 0)
(-2336.45 0 0)
(-2338.73 0 0)
(-2346.08 0 0)
(-2351.14 0 0)
(-2352.48 0 0)
(-2360.21 0 0)
(-2365.19 0 0)
(-2367.97 0 0)
(-2376.59 0 0)
(-2382 0 0)
(-2384.55 0 0)
(-2391.9 0 0)
(-2397.13 0 0)
(-2399.46 0 0)
(-2406.72 0 0)
(-2413.65 0 0)
(-2416.49 0 0)
(-2423.46 0 0)
(-2430.26 0 0)
(-2433 0 0)
(-2438.06 0 0)
(-2445.82 0 0)
(-2448.9 0 0)
(-2454.63 0 0)
(-2462 0 0)
(-2467.33 0 0)
(-2470.01 0 0)
(-2478.68 0 0)
(-2481.88 0 0)
(-2486.78 0 0)
(-2491.96 0 0)
(-2500.2 0 0)
(-2501.28 0 0)
(-2510.01 0 0)
(-2513.47 0 0)
(-2519.82 0 0)
(-2520.96 0 0)
(-2530.69 0 0)
(-2532.11 0 0)
(-2538.37 0 0)
(-2542.34 0 0)
(-2550.55 0 0)
(-2549.96 0 0)
(-2557.82 0 0)
(-2561.92 0 0)
(-2564.61 0 0)
(-2568.87 0 0)
(-2575.2 0 0)
(-2578.09 0 0)
(-2580.95 0 0)
(-2586.62 0 0)
(-2590.2 0 0)
(-2592.9 0 0)
(-2596.44 0 0)
(-2600.47 0 0)
(-2603.46 0 0)
(-2606.97 0 0)
(-2609.67 0 0)
(-2613.64 0 0)
(-2615.99 0 0)
(-2618.96 0 0)
(-2621.81 0 0)
(-2624.22 0 0)
(-2626.65 0 0)
(-2629.6 0 0)
(-2631.21 0 0)
(-2634 0 0)
(-2636.32 0 0)
(-2638.49 0 0)
(-2639.22 0 0)
(-2642.78 0 0)
(-2643.74 0 0)
(-2645.43 0 0)
(-2647.63 0 0)
(-2650.18 0 0)
(-2650.1 0 0)
(-2652.7 0 0)
(-2654.31 0 0)
(-2655.46 0 0)
(-2656.7 0 0)
(-2659.05 0 0)
(-2659.91 0 0)
(-2661.47 0 0)
(-2662.42 0 0)
(-2664.55 0 0)
(-2665.15 0 0)
(-2666.54 0 0)
(-2667.52 0 0)
(-2669.77 0 0)
(-2670.52 0 0)
(-2672.32 0 0)
(-2673.26 0 0)
(-2675.29 0 0)
(-2676.18 0 0)
(-2678.14 0 0)
(-2678.89 0 0)
(-2681.02 0 0)
(-2681.75 0 0)
(-2684.11 0 0)
(-2685.4 0 0)
(-2687.42 0 0)
(-2688.35 0 0)
(-2690.74 0 0)
(-2692.03 0 0)
(-2694.06 0 0)
(-2695.13 0 0)
(-2697.79 0 0)
(-2699.36 0 0)
(-2701.7 0 0)
(-2703.2 0 0)
(-2705.86 0 0)
(-2707.55 0 0)
(-2710.14 0 0)
(-2711.65 0 0)
(-2714.33 0 0)
(-2716.23 0 0)
(-2719.1 0 0)
(-2720.96 0 0)
(-2723.79 0 0)
(-2725.88 0 0)
(-2728.9 0 0)
(-2731.02 0 0)
(-2733.98 0 0)
(-2736.11 0 0)
(-2739.23 0 0)
(-2741.55 0 0)
(-2744.74 0 0)
(-2747.15 0 0)
(-2750.43 0 0)
(-2753.01 0 0)
(-2756.34 0 0)
(-2758.92 0 0)
(-2762.27 0 0)
(-2764.93 0 0)
(-2768.4 0 0)
(-2771.16 0 0)
(-2774.68 0 0)
(-2777.53 0 0)
(-2781.15 0 0)
(-2784.14 0 0)
(-2787.85 0 0)
(-2790.95 0 0)
(-2794.76 0 0)
(-2798 0 0)
(-2801.92 0 0)
(-2805.31 0 0)
(-2809.36 0 0)
(-2812.94 0 0)
(-2817.16 0 0)
(-2820.99 0 0)
(-2825.41 0 0)
(-2829.52 0 0)
(-2834.18 0 0)
(-2838.63 0 0)
(-2843.57 0 0)
(-2848.39 0 0)
(-2853.65 0 0)
(-2858.93 0 0)
(-2864.55 0 0)
(-2870.35 0 0)
(-2876.39 0 0)
(-2882.77 0 0)
(-2889.28 0 0)
(-2896.29 0 0)
(-2903.27 0 0)
(-2910.92 0 0)
(-2918.37 0 0)
(-2926.65 0 0)
(-2934.57 0 0)
(-2943.46 0 0)
(-2951.81 0 0)
(-2961.26 0 0)
(-2969.99 0 0)
(-2979.91 0 0)
(-2988.92 0 0)
(-2999.16 0 0)
(-3008.32 0 0)
(-3018.68 0 0)
(-3027.84 0 0)
(-3038.11 0 0)
(-3047.11 0 0)
(-3057.08 0 0)
(-3065.78 0 0)
(-3075.22 0 0)
(-3083.46 0 0)
(-3092.19 0 0)
(-3099.85 0 0)
(-3107.68 0 0)
(-3114.64 0 0)
(-3121.45 0 0)
(-3127.69 0 0)
(-3133.28 0 0)
(-3139.1 0 0)
(-3143.01 0 0)
(-3148.2 0 0)
(-3151.77 0 0)
(-3155.65 0 0)
(-3158.03 0 0)
(-3161.76 0 0)
(-3163.67 0 0)
(-3166.21 0 0)
(-3167.57 0 0)
(-3170.14 0 0)
(-3171.16 0 0)
(-3172.95 0 0)
(-3173.61 0 0)
(-3175.79 0 0)
(-3176.38 0 0)
(-3177.75 0 0)
(-3178.42 0 0)
(-3180.46 0 0)
(-3180.91 0 0)
(-3182.54 0 0)
(-3183.28 0 0)
(-3185.31 0 0)
(-3186.19 0 0)
(-3188.08 0 0)
(-3188.79 0 0)
(-3191.3 0 0)
(-3192.4 0 0)
(-3194.7 0 0)
(-3195.41 0 0)
(-3198.37 0 0)
(-3199.7 0 0)
(-3202.47 0 0)
(-3203.53 0 0)
(-3206.36 0 0)
(-3207.99 0 0)
(-3210.95 0 0)
(-3212.54 0 0)
(-3215.46 0 0)
(-3217.12 0 0)
(-3220.35 0 0)
(-3222.31 0 0)
(-3225.51 0 0)
(-3227.35 0 0)
(-3230.55 0 0)
(-3232.67 0 0)
(-3236.09 0 0)
(-3238.23 0 0)
(-3241.56 0 0)
(-3243.69 0 0)
(-3247.15 0 0)
(-3249.54 0 0)
(-3253.07 0 0)
(-3255.38 0 0)
(-3258.89 0 0)
(-3261.34 0 0)
(-3265.01 0 0)
(-3267.59 0 0)
(-3271.25 0 0)
(-3273.78 0 0)
(-3277.46 0 0)
(-3280.12 0 0)
(-3283.9 0 0)
(-3286.63 0 0)
(-3290.41 0 0)
(-3293.12 0 0)
(-3296.93 0 0)
(-3299.73 0 0)
(-3303.61 0 0)
(-3306.48 0 0)
(-3310.38 0 0)
(-3313.29 0 0)
(-3317.24 0 0)
(-3320.23 0 0)
(-3324.22 0 0)
(-3327.22 0 0)
(-3331.23 0 0)
(-3334.28 0 0)
(-3338.34 0 0)
(-3341.47 0 0)
(-3345.56 0 0)
(-3348.7 0 0)
(-3352.8 0 0)
(-3355.96 0 0)
(-3360.09 0 0)
(-3363.32 0 0)
(-3367.49 0 0)
(-3370.73 0 0)
(-3374.96 0 0)
(-3378.12 0 0)
(-3382.7 0 0)
(-3387.63 0 0)
)
;

boundaryField
{
    sides
    {
        type            calculated;
        value           nonuniform List<vector> 2((-3387.63 0 0) (-51.8125 0 0));
    }
    empty
    {
        type            empty;
    }
}


// ************************************************************************* //
