/*--------------------------------*- C++ -*----------------------------------*\
  =========                 |
  \\      /  F ield         | OpenFOAM: The Open Source CFD Toolbox
   \\    /   O peration     | Website:  https://openfoam.org
    \\  /    A nd           | Version:  9
     \\/     M anipulation  |
\*---------------------------------------------------------------------------*/
FoamFile
{
    format      ascii;
    class       volScalarField;
    location    "0.043";
    object      ddt0(rho,K);
}
// * * * * * * * * * * * * * * * * * * * * * * * * * * * * * * * * * * * * * //

dimensions      [1 -1 -3 0 0 0 0];

internalField   nonuniform List<scalar> 
1000
(
135.908
72.1097
-1.49896
-61.9097
-118.225
-176.662
-237.657
-300.181
-363.869
-428.95
-495.623
-563.833
-633.422
-704.347
-776.695
-850.546
-925.838
-1002.36
-1079.88
-1158.37
-1238.05
-1319.32
-1402.5
-1487.56
-1574.06
-1661.41
-1749.35
-1838.1
-1928.3
-2020.66
-2115.48
-2212.5
-2311.11
-2410.68
-2510.78
-2611.27
-2712.41
-2814.76
-2918.96
-3025.34
-3133.71
-3243.82
-3355.8
-3469.78
-3585.41
-3702.25
-3820.35
-3939.71
-4059.48
-4178.59
-4297.07
-4416.2
-4537.1
-4660.01
-4785.34
-4914.6
-5048.38
-5185.75
-5325.39
-5466.56
-5610.03
-5755.52
-5902.17
-6051.34
-6202.7
-6353.82
-6503.48
-6652.73
-6802.51
-6955.15
-7114.74
-7275.9
-7431.15
-7589.89
-7755.49
-7941.66
-8104.91
-8264.95
-8444.86
-8614.63
-8775.2
-8952.37
-9130.11
-9297.39
-9477.5
-9667.31
-9841.85
-10016.7
-10213.9
-10407.6
-10582.7
-10771.4
-10978.7
-11166.7
-11349.9
-11555.5
-11771.4
-11965.9
-12155.2
-12373.9
-12590.9
-12782.6
-12990.6
-13216.9
-13433.4
-13637.1
-13857.4
-14098.4
-14323.7
-14530.4
-14758.2
-15007.1
-15238.9
-15455.6
-15689.7
-15948.6
-16196.3
-16423
-16655.5
-16930.9
-17199.3
-17419.1
-17664.6
-17936.2
-18226.3
-18472.4
-18715.5
-18981.8
-19278.9
-19563.7
-19823.3
-20087.1
-20379.6
-20668.8
-20935
-21224.8
-21533
-21847
-22111.2
-22386.2
-22692.9
-23032.9
-23350.7
-23632.5
-23927.2
-24236.5
-24583.4
-24901.3
-25211.9
-25524.9
-25874.9
-26215.3
-26515.5
-26867.7
-27209.7
-27569.9
-27907.5
-28257
-28619.6
-28958.7
-29284.7
-29601.2
-29914.1
-30317.6
-30798.5
-31308
-31821
-32262
-32690
-33079
-33482.8
-33910.2
-34315.5
-34719.6
-35136.2
-35566.3
-36008
-36432.2
-36855.5
-37309.1
-37772.1
-38235.2
-38696.4
-39158.3
-39640.4
-40135.1
-40620.5
-41102
-41590.8
-42095.8
-42615.5
-43134
-43644.5
-44160.6
-44690.8
-45233.2
-45775
-46309.2
-46845.2
-47396.5
-47964.5
-48537.2
-49104.1
-49668.9
-50243.6
-50833.1
-51426.5
-52013.7
-52595.4
-53185.2
-53791.7
-54408.4
-55023.9
-55631.7
-56241.8
-56863.8
-57497.3
-58129.3
-58751.3
-59366
-59991.3
-60629.3
-61275.1
-61913.9
-62540.1
-63168.5
-63805.5
-64456.1
-65101.1
-65733
-66352.6
-66974.4
-67609.8
-68250.6
-68884.1
-69498.7
-70103.8
-70713.8
-71334.9
-71957
-72564.1
-73148.4
-73725.9
-74309.9
-74901.1
-75489.6
-76056.5
-76603.3
-77146.6
-77695.1
-78247.1
-78790
-79309.8
-79811.8
-80310.8
-80814.6
-81320.5
-81811.8
-82282.4
-82737.1
-83190.7
-83649.6
-84105.9
-84547.7
-84966.2
-85371.6
-85776.4
-86187.6
-86600.6
-86999.6
-87374.8
-87735.4
-88097.6
-88468.8
-88844.4
-89208.4
-89548.1
-89870.1
-90192.5
-90529.3
-90875.7
-91211.8
-91526.6
-91824.3
-92119.3
-92426.3
-92745.9
-93060.1
-93356
-93636.6
-93917
-94209.1
-94511.8
-94815
-95103.6
-95374.8
-95642.6
-95921.9
-96213.6
-96505.9
-96788.3
-97056.2
-97315.2
-97583.3
-97870.9
-98168.6
-98457.6
-98726.6
-98981.1
-99238.8
-99516.9
-99814.1
-100109
-100386
-100643
-100899
-101169
-101459
-101758
-102046
-102315
-102575
-102842
-103125
-103417
-103711
-103992
-104257
-104521
-104804
-105103
-105403
-105691
-105961
-106223
-106495
-106793
-107105
-107406
-107687
-107956
-108222
-108504
-108811
-109126
-109427
-109709
-109982
-110257
-110548
-110860
-111176
-111473
-111752
-112032
-112325
-112632
-112949
-113260
-113550
-113827
-114113
-114416
-114736
-115063
-115378
-115667
-115941
-116228
-116541
-116869
-117198
-117514
-117811
-118094
-118385
-118701
-119035
-119364
-119678
-119978
-120273
-120578
-120903
-121243
-121575
-121885
-122180
-122477
-122793
-123130
-123478
-123819
-124137
-124434
-124728
-125043
-125381
-125732
-126077
-126404
-126713
-127018
-127338
-127679
-128033
-128379
-128704
-129016
-129330
-129659
-130009
-130371
-130726
-131059
-131368
-131675
-132003
-132359
-132731
-133095
-133439
-133763
-134080
-134408
-134757
-135124
-135489
-135839
-136171
-136497
-136834
-137193
-137570
-137945
-138297
-138625
-138948
-139286
-139646
-140023
-140406
-140779
-141131
-141464
-141796
-142149
-142527
-142913
-143287
-143639
-143981
-144326
-144690
-145074
-145469
-145854
-146216
-146558
-146896
-147250
-147630
-148030
-148431
-148814
-149175
-149524
-149880
-150255
-150649
-151050
-151439
-151806
-152160
-152517
-152897
-153297
-153709
-154113
-154497
-154862
-155216
-155581
-155968
-156379
-156794
-157196
-157578
-157948
-158321
-158711
-159120
-159540
-159954
-160345
-160715
-161079
-161461
-161869
-162297
-162726
-163138
-163530
-163909
-164291
-164690
-165109
-165537
-165959
-166364
-166753
-167137
-167532
-167948
-168385
-168825
-169256
-169664
-170052
-170439
-170838
-171269
-171711
-172158
-172578
-172978
-173370
-173774
-174206
-174655
-175109
-175547
-175966
-176369
-176771
-177183
-177622
-178070
-178533
-178970
-179397
-179803
-180212
-180650
-181092
-181569
-182014
-182461
-182879
-183285
-183721
-184142
-184627
-185072
-185553
-185985
-186410
-186849
-187254
-187750
-188178
-188698
-189130
-189586
-190027
-190412
-190920
-191304
-191869
-192285
-192786
-193240
-193617
-194155
-194482
-195107
-195463
-196055
-196464
-196915
-197415
-197750
-198370
-198678
-199347
-199693
-200262
-200695
-201090
-201665
-201974
-202658
-202998
-203616
-204038
-204475
-205015
-205351
-206002
-206356
-206995
-207403
-207912
-208398
-208801
-209383
-209768
-210405
-210802
-211414
-211816
-212351
-212810
-213264
-213863
-214244
-214954
-215274
-215958
-216289
-216861
-217324
-217806
-218429
-218843
-219519
-219862
-220495
-220856
-221439
-221946
-222466
-223113
-223504
-224189
-224501
-225137
-225612
-226090
-226859
-227156
-227954
-228300
-228838
-229441
-229829
-230585
-231007
-231711
-232171
-232707
-233309
-233677
-234493
-234854
-235633
-236144
-236657
-237331
-237690
-238476
-238886
-239659
-240206
-240775
-241485
-241847
-242657
-243102
-243789
-244526
-244978
-245818
-246256
-246931
-247592
-248159
-248925
-249573
-250231
-250912
-251563
-252144
-252937
-253539
-254322
-255069
-255704
-256494
-257103
-257848
-258587
-259353
-260119
-260929
-261687
-262343
-263227
-263897
-264689
-265651
-266383
-267232
-268110
-268849
-269634
-270545
-271405
-272262
-273235
-274143
-274926
-275838
-276789
-277552
-278600
-279658
-280414
-281533
-282494
-283197
-284355
-285324
-286140
-287374
-288384
-289194
-290348
-291354
-292155
-293310
-294443
-295285
-296423
-297550
-298385
-299388
-300581
-301439
-302484
-303646
-304657
-305476
-306719
-307568
-308529
-309510
-310699
-311372
-312582
-313412
-314432
-315079
-316322
-316970
-317941
-318752
-319839
-320299
-321335
-322109
-322742
-323498
-324369
-324978
-325568
-326395
-326997
-327545
-328135
-328758
-329244
-329804
-330257
-330814
-331214
-331675
-332086
-332473
-332816
-333210
-333467
-333829
-334126
-334414
-334563
-334954
-335104
-335322
-335538
-335808
-335844
-336101
-336272
-336407
-336530
-336763
-336853
-337007
-337078
-337287
-337361
-337501
-337595
-337822
-337909
-338090
-338189
-338403
-338509
-338723
-338832
-339074
-339195
-339469
-339645
-339892
-340049
-340352
-340558
-340836
-341034
-341396
-341654
-341992
-342255
-342643
-342937
-343328
-343628
-344046
-344392
-344844
-345204
-345663
-346054
-346549
-346960
-347461
-347889
-348421
-348880
-349430
-349910
-350483
-350989
-351581
-352101
-352707
-353248
-353879
-354443
-355092
-355678
-356350
-356962
-357658
-358298
-359021
-359692
-360446
-361153
-361944
-362694
-363530
-364333
-365222
-366089
-367043
-367985
-369013
-370042
-371158
-372290
-373506
-374753
-376082
-377459
-378912
-380428
-382011
-383671
-385385
-387188
-389030
-390969
-392930
-394991
-397053
-399212
-401348
-403570
-405744
-407987
-410157
-412370
-414491
-416624
-418649
-420652
-422537
-424362
-426068
-427676
-429172
-430536
-431808
-432905
-433969
-434756
-435603
-436205
-436795
-437157
-437604
-437811
-438057
-438128
-438298
-438276
-438331
-438239
-438294
-438178
-438156
-438044
-438083
-437965
-437988
-437915
-437994
-437961
-438057
-438040
-438217
-438264
-438451
-438495
-438778
-438902
-439190
-439323
-439644
-439849
-440207
-440436
-440810
-441065
-441495
-441796
-442240
-442553
-443012
-443365
-443868
-444243
-444749
-445136
-445673
-446099
-446657
-447092
-447659
-448118
-448715
-449201
-449809
-450302
-450924
-451440
-452084
-452620
-453274
-453818
-454485
-455049
-455734
-456314
-457011
-457604
-458316
-458926
-459651
-460272
-461007
-461642
-462392
-463043
-463805
-464466
-465236
-465907
-466690
-467375
-468169
-468865
-469676
-470371
-471236
-472545
)
;

boundaryField
{
    sides
    {
        type            calculated;
        value           nonuniform List<scalar> 2(-472545 135.908);
    }
    empty
    {
        type            empty;
    }
}


// ************************************************************************* //
