/*--------------------------------*- C++ -*----------------------------------*\
  =========                 |
  \\      /  F ield         | OpenFOAM: The Open Source CFD Toolbox
   \\    /   O peration     | Website:  https://openfoam.org
    \\  /    A nd           | Version:  9
     \\/     M anipulation  |
\*---------------------------------------------------------------------------*/
FoamFile
{
    format      ascii;
    class       volScalarField;
    location    "0.043";
    object      ddt0(p);
}
// * * * * * * * * * * * * * * * * * * * * * * * * * * * * * * * * * * * * * //

dimensions      [1 -1 -3 0 0 0 0];

internalField   nonuniform List<scalar> 
1000
(
-408722
-408630
-408499
-408385
-408283
-408182
-408081
-407980
-407878
-407775
-407670
-407561
-407449
-407334
-407219
-407106
-406996
-406888
-406779
-406668
-406555
-406439
-406320
-406199
-406075
-405951
-405829
-405707
-405583
-405455
-405325
-405195
-405067
-404943
-404820
-404695
-404567
-404432
-404290
-404143
-403998
-403861
-403728
-403595
-403459
-403321
-403176
-403018
-402855
-402699
-402553
-402409
-402259
-402108
-401962
-401806
-401636
-401465
-401298
-401146
-400991
-400830
-400676
-400502
-400311
-400125
-399953
-399792
-399626
-399462
-399238
-399007
-398855
-398653
-398484
-398302
-398125
-397891
-397724
-397540
-397312
-397083
-396867
-396666
-396461
-396239
-396013
-395796
-395580
-395353
-395140
-394890
-394660
-394404
-394187
-393902
-393719
-393463
-393167
-392985
-392665
-392411
-392133
-391818
-391612
-391355
-391013
-390736
-390519
-390217
-389832
-389586
-389313
-388949
-388594
-388392
-388002
-387644
-387348
-387084
-386624
-386291
-385982
-385506
-385297
-384857
-384409
-384071
-383661
-383342
-382959
-382523
-382080
-381663
-381309
-380935
-380465
-380084
-379492
-379039
-378614
-378256
-377815
-377419
-376893
-376289
-375857
-375371
-374861
-374420
-374003
-373371
-372734
-372225
-371738
-371383
-370621
-370130
-369440
-368877
-368340
-368255
-367851
-367252
-366248
-364305
-363401
-362589
-361780
-360941
-360133
-359564
-358803
-358088
-357301
-356525
-355804
-354971
-354083
-353254
-352379
-351506
-350627
-349684
-348756
-347819
-346830
-345840
-344835
-343813
-342793
-341752
-340690
-339618
-338530
-337422
-336294
-335145
-333985
-332819
-331646
-330462
-329264
-328053
-326828
-325586
-324325
-323048
-321760
-320464
-319163
-317858
-316548
-315234
-313912
-312580
-311239
-309889
-308531
-307170
-305806
-304444
-303085
-301732
-300384
-299039
-297698
-296362
-295032
-293708
-292392
-291086
-289794
-288518
-287258
-286015
-284791
-283587
-282402
-281238
-280095
-278976
-277882
-276814
-275773
-274761
-273780
-272829
-271909
-271021
-270165
-269340
-268549
-267791
-267067
-266378
-265724
-265107
-264525
-263979
-263467
-262988
-262542
-262129
-261749
-261401
-261085
-260801
-260548
-260328
-260138
-259977
-259843
-259735
-259652
-259593
-259558
-259546
-259556
-259588
-259641
-259714
-259805
-259911
-260032
-260167
-260316
-260479
-260657
-260848
-261053
-261269
-261497
-261734
-261979
-262231
-262488
-262750
-263018
-263291
-263571
-263857
-264150
-264448
-264751
-265058
-265368
-265682
-265996
-266313
-266630
-266949
-267272
-267597
-267924
-268254
-268586
-268920
-269255
-269591
-269928
-270265
-270602
-270940
-271278
-271619
-271960
-272304
-272648
-272993
-273339
-273685
-274032
-274379
-274725
-275072
-275419
-275767
-276116
-276467
-276818
-277169
-277520
-277872
-278223
-278576
-278928
-279281
-279634
-279987
-280341
-280696
-281052
-281408
-281764
-282120
-282477
-282834
-283191
-283549
-283907
-284265
-284624
-284983
-285342
-285702
-286062
-286423
-286783
-287142
-287503
-287863
-288224
-288586
-288947
-289309
-289671
-290034
-290397
-290761
-291125
-291489
-291853
-292217
-292581
-292947
-293312
-293678
-294045
-294412
-294778
-295146
-295513
-295880
-296247
-296613
-296979
-297345
-297712
-298080
-298449
-298819
-299190
-299560
-299932
-300303
-300675
-301046
-301418
-301789
-302160
-302531
-302903
-303276
-303649
-304024
-304398
-304773
-305148
-305523
-305899
-306275
-306651
-307028
-307404
-307780
-308158
-308536
-308915
-309294
-309674
-310054
-310434
-310814
-311194
-311575
-311956
-312337
-312718
-313100
-313482
-313864
-314248
-314632
-315016
-315400
-315785
-316170
-316555
-316942
-317329
-317717
-318105
-318493
-318882
-319271
-319662
-320052
-320443
-320834
-321225
-321616
-322008
-322400
-322793
-323186
-323580
-323974
-324368
-324763
-325158
-325554
-325949
-326345
-326741
-327137
-327534
-327931
-328329
-328728
-329128
-329528
-329928
-330329
-330730
-331132
-331534
-331937
-332340
-332743
-333146
-333549
-333954
-334358
-334764
-335170
-335576
-335983
-336390
-336797
-337206
-337615
-338024
-338434
-338844
-339255
-339666
-340077
-340489
-340902
-341315
-341728
-342142
-342555
-342969
-343384
-343799
-344215
-344631
-345048
-345465
-345883
-346301
-346721
-347141
-347561
-347982
-348403
-348824
-349247
-349669
-350093
-350516
-350941
-351365
-351790
-352215
-352641
-353067
-353493
-353921
-354348
-354776
-355204
-355632
-356061
-356491
-356921
-357352
-357784
-358215
-358648
-359080
-359514
-359948
-360383
-360818
-361254
-361690
-362126
-362564
-363001
-363441
-363880
-364319
-364760
-365199
-365641
-366080
-366523
-366964
-367407
-367850
-368292
-368737
-369179
-369626
-370069
-370517
-370963
-371410
-371859
-372305
-372755
-373202
-373654
-374102
-374553
-375005
-375454
-375907
-376356
-376811
-377262
-377716
-378170
-378622
-379078
-379531
-379988
-380442
-380900
-381357
-381814
-382272
-382729
-383188
-383645
-384105
-384563
-385023
-385481
-385941
-386400
-386858
-387318
-387775
-388237
-388693
-389154
-389611
-390070
-390528
-390985
-391444
-391899
-392358
-392813
-393270
-393723
-394178
-394631
-395083
-395536
-395985
-396438
-396884
-397332
-397779
-398221
-398667
-399105
-399547
-399984
-400418
-400853
-401281
-401711
-402135
-402559
-402978
-403393
-403808
-404214
-404623
-405022
-405421
-405815
-406202
-406588
-406964
-407340
-407706
-408069
-408426
-408774
-409120
-409452
-409783
-410102
-410414
-410720
-411013
-411301
-411577
-411843
-412100
-412345
-412580
-412804
-413016
-413216
-413404
-413576
-413738
-413884
-414017
-414136
-414239
-414328
-414400
-414456
-414495
-414518
-414523
-414512
-414483
-414434
-414369
-414283
-414178
-414056
-413913
-413751
-413570
-413368
-413144
-412902
-412641
-412357
-412055
-411734
-411391
-411029
-410649
-410247
-409827
-409391
-408933
-408460
-407971
-407461
-406938
-406401
-405846
-405280
-404703
-404111
-403510
-402902
-402282
-401656
-401029
-400393
-399757
-399123
-398486
-397852
-397227
-396606
-395993
-395393
-394807
-394232
-393679
-393144
-392630
-392139
-391680
-391244
-390844
-390476
-390146
-389849
-389600
-389390
-389226
-389106
-389040
-389018
-389054
-389150
-389300
-389532
-389724
-390172
-390594
-390917
-391387
-392263
-392704
-393375
-394167
-395023
-395912
-396876
-397938
-399052
-400200
-401390
-402634
-403950
-405335
-406757
-408262
-409803
-411430
-413010
-414656
-416355
-418210
-419784
-421682
-423568
-425394
-427336
-429193
-431155
-433040
-435014
-436975
-438947
-440869
-442912
-444922
-446914
-448882
-450848
-452784
-454726
-456688
-458630
-460589
-462471
-464379
-466248
-468102
-469921
-471719
-473494
-475264
-477053
-478771
-480467
-482141
-483813
-485413
-487005
-488598
-490135
-491653
-493173
-494657
-496098
-497517
-498925
-500294
-501637
-502970
-504277
-505556
-506819
-508058
-509272
-510462
-511635
-512781
-513902
-515007
-516094
-517157
-518199
-519218
-520213
-521180
-522124
-523039
-523925
-524779
-525600
-526382
-527122
-527815
-528459
-529044
-529567
-530022
-530402
-530699
-530906
-531014
-531016
-530901
-530662
-530288
-529774
-529110
-528291
-527309
-526160
-524839
-523343
-521673
-519829
-517815
-515638
-513307
-510833
-508230
-505516
-502711
-499835
-496915
-493976
-491049
-488162
-485347
-482635
-480059
-477646
-475429
-473431
-471678
-470190
-468987
-468080
-467481
-467172
-467210
-467545
-468190
-469133
-470346
-471811
-473514
-475435
-477547
-479829
-482256
-484808
-487459
-490189
-492977
-495806
-498660
-501524
-504386
-507239
-510070
-512873
-515642
-518372
-521059
-523701
-526296
-528853
-531350
-533819
-536257
-538610
-540970
-543233
-545502
-547728
-549894
-552031
-554146
-556236
-558289
-560314
-562314
-564271
-566209
-568140
-570031
-571898
-573754
-575581
-577383
-579179
-580951
-582696
-584431
-586152
-587849
-589535
-591205
-592854
-594492
-596121
-597730
-599327
-600911
-602479
-604037
-605585
-607118
-608640
-610151
-611651
-613139
-614619
-616086
-617542
-618990
-620428
-621855
-623276
-624686
-626086
-627479
-628862
-630235
-631603
-632961
-634313
-635657
-636981
-638314
-639591
)
;

boundaryField
{
    sides
    {
        type            calculated;
        value           nonuniform List<scalar> 2(-639591 -408722);
    }
    empty
    {
        type            empty;
    }
}


// ************************************************************************* //
