/*--------------------------------*- C++ -*----------------------------------*\
  =========                 |
  \\      /  F ield         | OpenFOAM: The Open Source CFD Toolbox
   \\    /   O peration     | Website:  https://openfoam.org
    \\  /    A nd           | Version:  9
     \\/     M anipulation  |
\*---------------------------------------------------------------------------*/
FoamFile
{
    format      ascii;
    class       surfaceScalarField;
    location    "0.043";
    object      ddtCorrDdt0(phi);
}
// * * * * * * * * * * * * * * * * * * * * * * * * * * * * * * * * * * * * * //

dimensions      [1 0 -2 0 0 0 0];

internalField   nonuniform List<scalar> 
999
(
-220.236
-233.322
-246.409
-259.47
-272.5
-285.509
-298.483
-311.416
-324.344
-337.325
-350.369
-363.426
-376.443
-389.422
-402.419
-415.48
-428.581
-441.642
-454.586
-467.414
-480.217
-493.12
-506.191
-519.376
-532.527
-545.505
-558.276
-570.931
-583.64
-596.557
-609.726
-623.067
-636.443
-649.704
-662.742
-675.529
-688.133
-700.687
-713.34
-726.171
-739.178
-752.369
-765.772
-779.319
-792.857
-806.289
-819.595
-832.703
-845.453
-857.778
-869.837
-881.88
-894.046
-906.358
-918.983
-932.176
-945.858
-959.89
-974.11
-988.449
-1003.07
-1017.64
-1032.14
-1046.81
-1061.25
-1075.32
-1088.94
-1102.44
-1115.78
-1129.45
-1143.89
-1157.55
-1170.52
-1185.17
-1200.78
-1217.19
-1229.64
-1243.68
-1258.6
-1271.13
-1284.25
-1298.85
-1312.1
-1325.01
-1339.79
-1353.97
-1366.34
-1380.23
-1395.77
-1409.09
-1421.4
-1436.48
-1451.5
-1463.52
-1477.24
-1492.83
-1507.72
-1520.05
-1533.49
-1550.24
-1563.33
-1575.88
-1590.92
-1606.41
-1619.72
-1632.79
-1648.42
-1664.67
-1677.6
-1690.43
-1706.48
-1722.42
-1735.67
-1748.78
-1764.39
-1781.18
-1795.19
-1808.11
-1822.28
-1842.34
-1854.93
-1867.37
-1882.55
-1900.6
-1916.6
-1928.99
-1943.16
-1959.42
-1977.93
-1992.3
-2005.9
-2021.05
-2039.21
-2053.42
-2067.29
-2084.27
-2102.59
-2118.04
-2130.45
-2145.54
-2163.43
-2182.8
-2197.74
-2210.58
-2226.88
-2243.84
-2262.64
-2276.7
-2292.93
-2307.85
-2329.72
-2341.84
-2358.6
-2375.98
-2393.12
-2411.79
-2426.45
-2444.86
-2461.34
-2477.04
-2495.01
-2508.99
-2520.15
-2549.79
-2565
-2596.92
-2615.06
-2637.36
-2655.37
-2672.91
-2693
-2712.3
-2729.7
-2748.42
-2767.42
-2787.67
-2807.2
-2824.76
-2844.1
-2865.09
-2885.64
-2905.98
-2925.51
-2945.76
-2967.78
-2989.35
-3009.8
-3030.08
-3051.06
-3073.4
-3096.09
-3117.72
-3138.81
-3160.57
-3183.42
-3206.62
-3228.97
-3250.54
-3272.59
-3295.92
-3320
-3343.59
-3366.29
-3389.03
-3412.79
-3437.3
-3461.39
-3484.5
-3507.35
-3531.16
-3556.05
-3581.05
-3605.21
-3628.73
-3652.74
-3677.8
-3703.22
-3727.85
-3751.34
-3774.8
-3799.29
-3824.69
-3849.95
-3874
-3897.35
-3921.16
-3946.1
-3971.46
-3995.85
-4018.94
-4041.51
-4064.95
-4089.44
-4113.92
-4137.15
-4159.02
-4180.79
-4203.57
-4227.2
-4250.36
-4271.85
-4292.1
-4312.61
-4334.11
-4356.18
-4377.37
-4396.8
-4415.39
-4434.43
-4454.33
-4474.38
-4493.25
-4510.52
-4527.18
-4544.36
-4562.33
-4580.13
-4596.63
-4611.75
-4626.48
-4641.87
-4657.87
-4673.5
-4687.72
-4700.61
-4713.24
-4726.58
-4740.7
-4754.63
-4767.11
-4778.08
-4788.77
-4800.33
-4812.89
-4825.45
-4836.61
-4846.05
-4854.93
-4864.77
-4876
-4887.45
-4897.63
-4906.21
-4914.05
-4922.54
-4932.38
-4942.74
-4952.14
-4960.06
-4967.34
-4975.24
-4984.28
-4993.94
-5003.03
-5010.72
-5017.52
-5024.78
-5033.22
-5042.33
-5051.05
-5058.66
-5065.19
-5071.72
-5079.56
-5088.76
-5098.05
-5106.03
-5112.43
-5118.32
-5125.28
-5134.05
-5143.6
-5152.18
-5158.99
-5164.84
-5171.25
-5179.17
-5188.34
-5197.42
-5205.14
-5211.56
-5217.87
-5225.15
-5233.54
-5242.39
-5250.68
-5257.68
-5263.89
-5270.82
-5279.25
-5288.43
-5297.08
-5304.39
-5310.5
-5316.65
-5324.37
-5333.78
-5343.31
-5351.46
-5358.1
-5364.06
-5370.58
-5378.79
-5388.43
-5397.8
-5405.68
-5412.29
-5418.54
-5425.53
-5434.1
-5443.69
-5452.56
-5459.8
-5466.3
-5473.35
-5481.5
-5490.65
-5499.92
-5508.02
-5514.63
-5520.96
-5528.39
-5537.23
-5547.02
-5556.55
-5564.49
-5570.64
-5576.61
-5584.18
-5593.48
-5603.42
-5612.79
-5620.78
-5627.3
-5633.54
-5641.13
-5650.45
-5660.27
-5669.25
-5676.98
-5683.85
-5690.86
-5699.08
-5708.71
-5718.61
-5727.24
-5734.26
-5740.7
-5747.96
-5756.77
-5766.88
-5777.15
-5786.15
-5793.27
-5799.39
-5806.22
-5814.8
-5824.81
-5835.04
-5844.24
-5851.93
-5858.67
-5865.78
-5874.32
-5884.21
-5894.24
-5903.08
-5910.52
-5917.44
-5925.05
-5934.04
-5944.29
-5954.71
-5963.9
-5971.23
-5977.46
-5984.4
-5993.27
-6003.82
-6014.63
-6024.31
-6032.36
-6039.31
-6046.37
-6054.66
-6064.42
-6074.77
-6084.41
-6092.7
-6100.02
-6107.46
-6116.16
-6126.37
-6137.17
-6146.97
-6154.92
-6161.67
-6168.76
-6177.27
-6187.24
-6198
-6208.58
-6217.95
-6225.73
-6232.68
-6240.36
-6249.77
-6260.39
-6270.79
-6279.87
-6287.71
-6295.2
-6303.48
-6313.21
-6324.05
-6334.88
-6344.46
-6352.34
-6359.27
-6366.62
-6375.53
-6386.11
-6397.41
-6408.07
-6417.18
-6424.99
-6432.52
-6440.98
-6450.82
-6461.58
-6472.13
-6481.41
-6489.34
-6496.84
-6505.23
-6515.17
-6526.29
-6537.47
-6547.58
-6556.23
-6563.74
-6571.22
-6579.83
-6590.05
-6601.26
-6612.13
-6621.76
-6630.15
-6638.18
-6646.89
-6656.88
-6667.91
-6679.04
-6689.11
-6697.58
-6705.02
-6712.81
-6722.14
-6733.08
-6744.73
-6755.78
-6765.44
-6773.87
-6781.93
-6790.66
-6800.64
-6811.6
-6822.64
-6832.84
-6841.78
-6849.93
-6858.31
-6867.76
-6878.61
-6890.29
-6901.71
-6911.94
-6920.65
-6928.56
-6936.8
-6946.56
-6957.77
-6969.48
-6980.38
-6989.62
-6997.84
-7006.15
-7015.79
-7026.94
-7038.81
-7050.29
-7060.48
-7069.41
-7077.72
-7086.32
-7096.14
-7107.14
-7118.91
-7130.28
-7140.37
-7149.38
-7157.72
-7167.09
-7177.55
-7189.31
-7201.12
-7211.85
-7221.61
-7229.95
-7238.88
-7248.25
-7259.23
-7270.98
-7282.52
-7293.59
-7302.77
-7312.11
-7320.72
-7331.22
-7342.43
-7354.4
-7366.47
-7376.35
-7386.48
-7394.2
-7404.11
-7413.97
-7425.63
-7438.32
-7448.88
-7460.61
-7468.23
-7478.55
-7487.21
-7498.67
-7511.04
-7522.28
-7535.19
-7543.49
-7554.67
-7562.03
-7573.25
-7583.57
-7595.44
-7608.49
-7618.24
-7630.74
-7637.61
-7649
-7657.58
-7669.61
-7682.62
-7693.49
-7706.9
-7714.45
-7725.74
-7733.77
-7745.28
-7757.33
-7768.94
-7782.24
-7791.37
-7802.88
-7811
-7822.09
-7832.59
-7844.79
-7857.29
-7868.97
-7880.74
-7890.05
-7901.11
-7909.58
-7922.37
-7932.83
-7946.75
-7958.68
-7969.74
-7981.12
-7988.9
-8000.73
-8009.77
-8023.7
-8035.48
-8048.84
-8059.93
-8069.63
-8079.8
-8088.42
-8101.47
-8112.52
-8127.81
-8139.06
-8151.42
-8161.29
-8169.56
-8182.77
-8191.09
-8208.31
-8219.95
-8232.37
-8246.23
-8252.08
-8265.63
-8274.6
-8288.12
-8302.58
-8315.4
-8329.22
-8337.89
-8350.73
-8358.42
-8372.48
-8386.21
-8398.7
-8415.59
-8424.43
-8437.99
-8446.82
-8458.86
-8472.3
-8485.24
-8502.12
-8512.82
-8528.21
-8537.28
-8549.16
-8563.34
-8573.75
-8592.65
-8604.42
-8619.04
-8633.09
-8642.1
-8657.47
-8669.47
-8684.38
-8701.51
-8715.23
-8729.69
-8743.76
-8754.66
-8769.48
-8784.69
-8799.38
-8818.09
-8832.24
-8847.35
-8861.47
-8874.01
-8890.06
-8906.47
-8923.39
-8941.33
-8958.73
-8971.38
-8987.38
-9003.51
-9016.69
-9038
-9057.28
-9072.97
-9092.57
-9108.72
-9121.87
-9139.64
-9159.26
-9177.03
-9197.68
-9219.5
-9235.62
-9251.52
-9271.9
-9287.75
-9306.05
-9332.48
-9350.35
-9369.6
-9394.43
-9407.25
-9425.35
-9450.76
-9466.3
-9489.08
-9517.15
-9533.09
-9552.87
-9578.03
-9593.16
-9612.31
-9640.7
-9660.27
-9679.88
-9707.41
-9726.51
-9742.09
-9767.71
-9789.41
-9807.02
-9833.2
-9858.63
-9874.67
-9897.35
-9921.1
-9937.3
-9957.44
-9984.3
-10003
-10022.6
-10046.9
-10066.6
-10081.6
-10103.3
-10125.6
-10140.9
-10161.4
-10185.8
-10201
-10215.5
-10239.5
-10253.1
-10267
-10288
-10307.3
-10316.4
-10336.5
-10353.4
-10366.3
-10377.9
-10394.9
-10407.4
-10420.8
-10433.4
-10446.6
-10459.3
-10469.8
-10481.6
-10492.1
-10501.8
-10512.5
-10521.6
-10530.4
-10540.5
-10550.3
-10554.5
-10564.5
-10573.1
-10578.2
-10586.5
-10595
-10601.3
-10604.9
-10614.5
-10619.6
-10623.9
-10631.8
-10637.9
-10643.1
-10647.7
-10653.4
-10660.1
-10663.3
-10668.1
-10674.5
-10680.9
-10685.6
-10691.1
-10697.1
-10703.1
-10708.6
-10714
-10719.9
-10725.6
-10731.7
-10739.2
-10745.8
-10751.1
-10758.5
-10765.6
-10772.5
-10777.8
-10786.1
-10794.4
-10802.2
-10809.5
-10818.3
-10827
-10835.2
-10843.6
-10852.1
-10861.1
-10870.6
-10880.2
-10889.6
-10899.3
-10909.5
-10919.9
-10930
-10940.1
-10950.7
-10961.6
-10972.6
-10983.7
-10995.2
-11006.9
-11018.7
-11030.6
-11042.4
-11054.4
-11066.7
-11079.1
-11091.7
-11104.4
-11117.4
-11130.6
-11144
-11157.6
-11171.4
-11185.5
-11199.8
-11214.4
-11229.3
-11244.6
-11260.2
-11276.3
-11292.7
-11309.8
-11327.4
-11345.6
-11364.3
-11383.9
-11404
-11425.1
-11446.9
-11469.7
-11493.4
-11518.3
-11544
-11571.1
-11599.1
-11628.3
-11658.5
-11690
-11722.4
-11756
-11790.5
-11826.1
-11862.5
-11899.8
-11937.7
-11976.2
-12015
-12054.1
-12093.1
-12132
-12170.5
-12208.5
-12245.8
-12282.1
-12317.4
-12351.4
-12384.1
-12415.1
-12444.7
-12472.2
-12498.2
-12522.1
-12544.7
-12564.2
-12582.3
-12599.9
-12614.8
-12627.3
-12639.5
-12650.8
-12659.7
-12667.5
-12675.3
-12682.5
-12688.2
-12693.1
-12698.8
-12704.3
-12708.3
-12712.3
-12717.8
-12722.8
-12726.9
-12731.7
-12737.2
-12743.1
-12748.6
-12753.8
-12760.3
-12767.4
-12774.5
-12780
-12787.7
-12796.4
-12804.2
-12812.2
-12819.8
-12828.8
-12837.8
-12847.1
-12856.1
-12865
-12875.1
-12885.4
-12895.5
-12905.8
-12915.9
-12926.4
-12937.5
-12948.8
-12959.6
-12970.4
-12981.8
-12993.4
-13005.2
-13017
-13028.6
-13040.4
-13052.7
-13065.3
-13077.7
-13090.1
-13102.5
-13115.1
-13128.1
-13141.1
-13154.1
-13167.1
-13180.1
-13193.3
-13206.7
-13220.2
-13233.7
-13247.3
-13261.1
-13274.9
-13288.9
-13302.9
-13316.9
-13331
-13345.2
-13359.6
-13374.1
-13388.6
-13403
-13417.5
-13432.1
-13446.8
-13461.6
-13476.5
-13491.3
-13506.3
-13521.4
-13536.5
)
;

boundaryField
{
    sides
    {
        type            calculated;
        value           nonuniform List<scalar> 2(-13551.7 207.152);
    }
    empty
    {
        type            empty;
        value           nonuniform List<scalar> 0();
    }
}


// ************************************************************************* //
