/*--------------------------------*- C++ -*----------------------------------*\
  =========                 |
  \\      /  F ield         | OpenFOAM: The Open Source CFD Toolbox
   \\    /   O peration     | Website:  https://openfoam.org
    \\  /    A nd           | Version:  9
     \\/     M anipulation  |
\*---------------------------------------------------------------------------*/
FoamFile
{
    format      ascii;
    class       volScalarField;
    location    "0.043";
    object      p;
}
// * * * * * * * * * * * * * * * * * * * * * * * * * * * * * * * * * * * * * //

dimensions      [1 -1 -2 0 0 0 0];

internalField   nonuniform List<scalar> 
1000
(
11126
11124.7
11122.3
11120.2
11118.4
11116.6
11114.9
11113.1
11111.3
11109.5
11107.7
11105.9
11104.1
11102.4
11100.6
11098.9
11097.1
11095.4
11093.6
11091.9
11090.1
11088.4
11086.7
11085
11083.3
11081.5
11079.8
11078.1
11076.4
11074.8
11073.1
11071.4
11069.7
11068
11066.4
11064.7
11063.1
11061.4
11059.8
11058.1
11056.5
11054.9
11053.2
11051.6
11050
11048.4
11046.8
11045.2
11043.6
11042
11040.5
11038.9
11037.3
11035.8
11034.2
11032.7
11031.1
11029.6
11028.1
11026.5
11025
11023.5
11022
11020.5
11019
11017.6
11016.1
11014.6
11013.2
11011.7
11010.3
11008.8
11007.4
11006
11004.6
11003.2
11001.7
11000.4
10999
10997.6
10996.2
10994.9
10993.5
10992.2
10990.8
10989.5
10988.2
10986.9
10985.6
10984.3
10983
10981.8
10980.5
10979.3
10978
10976.8
10975.6
10974.4
10973.2
10972
10970.8
10969.6
10968.5
10967.3
10966.2
10965.1
10964
10962.9
10961.8
10960.8
10959.7
10958.7
10957.6
10956.6
10955.6
10954.6
10953.7
10952.7
10951.8
10950.9
10950
10949.1
10948.2
10947.3
10946.5
10945.7
10944.9
10944.1
10943.3
10942.5
10941.8
10941.1
10940.4
10939.7
10939.1
10938.4
10937.8
10937.2
10936.7
10936.1
10935.6
10935.1
10934.6
10934.1
10933.7
10933.3
10932.9
10932.5
10932.2
10931.9
10931.6
10931.3
10931.1
10930.9
10930.7
10930.5
10930.4
10930.3
10930.2
10930.2
10930.2
10930.2
10930.2
10930.3
10930.4
10930.6
10930.8
10931.1
10931.4
10931.8
10932.2
10932.7
10933.2
10933.7
10934.3
10934.9
10935.5
10936.2
10937
10937.8
10938.6
10939.5
10940.4
10941.4
10942.4
10943.5
10944.7
10945.9
10947.1
10948.4
10949.8
10951.2
10952.7
10954.2
10955.8
10957.5
10959.2
10961
10962.9
10964.8
10966.8
10968.9
10971
10973.2
10975.4
10977.8
10980.2
10982.7
10985.2
10987.9
10990.6
10993.4
10996.2
10999.2
11002.2
11005.3
11008.5
11011.7
11015.1
11018.5
11022
11025.6
11029.2
11033
11036.8
11040.7
11044.7
11048.8
11053
11057.2
11061.5
11066
11070.4
11075
11079.7
11084.4
11089.2
11094.1
11099.1
11104.1
11109.3
11114.5
11119.7
11125.1
11130.5
11136
11141.6
11147.2
11152.9
11158.7
11164.5
11170.4
11176.4
11182.4
11188.4
11194.6
11200.8
11207
11213.3
11219.6
11226
11232.4
11238.9
11245.4
11252
11258.6
11265.3
11271.9
11278.6
11285.4
11292.2
11299
11305.8
11312.7
11319.6
11326.5
11333.5
11340.4
11347.4
11354.4
11361.5
11368.5
11375.6
11382.7
11389.8
11396.9
11404.1
11411.2
11418.4
11425.6
11432.8
11440
11447.2
11454.4
11461.6
11468.9
11476.1
11483.4
11490.7
11498
11505.3
11512.6
11519.9
11527.2
11534.5
11541.9
11549.2
11556.5
11563.9
11571.3
11578.6
11586
11593.4
11600.8
11608.2
11615.6
11623
11630.4
11637.8
11645.2
11652.7
11660.1
11667.5
11675
11682.5
11689.9
11697.4
11704.9
11712.3
11719.8
11727.3
11734.8
11742.3
11749.8
11757.3
11764.9
11772.4
11779.9
11787.5
11795
11802.6
11810.1
11817.7
11825.3
11832.8
11840.4
11848
11855.6
11863.2
11870.8
11878.4
11886
11893.6
11901.3
11908.9
11916.5
11924.2
11931.8
11939.5
11947.1
11954.8
11962.5
11970.2
11977.9
11985.5
11993.2
12000.9
12008.7
12016.4
12024.1
12031.8
12039.6
12047.3
12055
12062.8
12070.6
12078.3
12086.1
12093.9
12101.6
12109.4
12117.2
12125
12132.8
12140.7
12148.5
12156.3
12164.1
12172
12179.8
12187.7
12195.5
12203.4
12211.2
12219.1
12227
12234.9
12242.8
12250.7
12258.6
12266.5
12274.4
12282.3
12290.3
12298.2
12306.2
12314.1
12322.1
12330
12338
12346
12354
12361.9
12369.9
12377.9
12386
12394
12402
12410
12418
12426.1
12434.1
12442.2
12450.3
12458.3
12466.4
12474.5
12482.6
12490.6
12498.7
12506.9
12515
12523.1
12531.2
12539.3
12547.5
12555.6
12563.8
12571.9
12580.1
12588.3
12596.5
12604.6
12612.8
12621
12629.2
12637.4
12645.7
12653.9
12662.1
12670.4
12678.6
12686.9
12695.1
12703.4
12711.7
12719.9
12728.2
12736.5
12744.8
12753.1
12761.4
12769.8
12778.1
12786.4
12794.8
12803.1
12811.5
12819.8
12828.2
12836.6
12844.9
12853.3
12861.7
12870.1
12878.5
12887
12895.4
12903.8
12912.2
12920.7
12929.1
12937.6
12946.1
12954.5
12963
12971.5
12980
12988.5
12997
13005.5
13014
13022.5
13031.1
13039.6
13048.2
13056.7
13065.3
13073.8
13082.4
13091
13099.6
13108.2
13116.8
13125.4
13134
13142.6
13151.3
13159.9
13168.5
13177.2
13185.9
13194.5
13203.2
13211.9
13220.6
13229.3
13238
13246.7
13255.4
13264.1
13272.8
13281.6
13290.3
13299.1
13307.8
13316.6
13325.4
13334.1
13342.9
13351.7
13360.5
13369.3
13378.2
13387
13395.8
13404.6
13413.5
13422.3
13431.2
13440.1
13448.9
13457.8
13466.7
13475.6
13484.5
13493.4
13502.3
13511.2
13520.2
13529.1
13538.1
13547
13556
13564.9
13573.9
13582.9
13591.9
13600.9
13609.9
13618.9
13627.9
13636.9
13645.9
13655
13664
13673.1
13682.1
13691.2
13700.3
13709.4
13718.5
13727.6
13736.7
13745.8
13754.9
13764
13773.2
13782.3
13791.4
13800.6
13809.8
13818.9
13828.1
13837.3
13846.5
13855.7
13864.9
13874.1
13883.3
13892.6
13901.8
13911
13920.3
13929.6
13938.8
13948.1
13957.4
13966.7
13976
13985.3
13994.6
14003.9
14013.2
14022.6
14031.9
14041.3
14050.6
14060
14069.4
14078.7
14088.1
14097.5
14106.9
14116.3
14125.8
14135.2
14144.6
14154.1
14163.5
14173
14182.5
14191.9
14201.4
14210.9
14220.4
14229.9
14239.4
14249
14258.5
14268
14277.6
14287.2
14296.7
14306.3
14315.9
14325.5
14335.1
14344.7
14354.4
14364
14373.6
14383.3
14393
14402.6
14412.3
14422
14431.7
14441.5
14451.2
14460.9
14470.7
14480.5
14490.3
14500.1
14509.9
14519.7
14529.5
14539.4
14549.2
14559.1
14569
14578.9
14588.9
14598.8
14608.8
14618.8
14628.8
14638.8
14648.8
14658.9
14669
14679.1
14689.2
14699.3
14709.5
14719.7
14729.9
14740.2
14750.5
14760.8
14771.1
14781.4
14791.8
14802.3
14812.7
14823.2
14833.7
14844.3
14854.9
14865.5
14876.2
14886.9
14897.7
14908.5
14919.3
14930.2
14941.2
14952.2
14963.2
14974.3
14985.4
14996.6
15007.9
15019.2
15030.6
15042
15053.5
15065.1
15076.7
15088.4
15100.2
15112
15123.9
15135.9
15148
15160.1
15172.3
15184.6
15197
15209.5
15222
15234.6
15247.3
15260.2
15273.1
15286
15299.1
15312.3
15325.6
15338.9
15352.4
15366
15379.6
15393.4
15407.2
15421.2
15435.2
15449.4
15463.6
15478
15492.4
15507
15521.6
15536.3
15551.2
15566.1
15581.1
15596.2
15611.4
15626.7
15642.1
15657.6
15673.1
15688.7
15704.4
15720.2
15736
15751.9
15767.9
15783.9
15800
15816.2
15832.4
15848.6
15864.9
15881.2
15897.5
15913.9
15930.3
15946.7
15963.2
15979.6
15996.1
16012.5
16029
16045.4
16061.8
16078.3
16094.7
16111
16127.4
16143.7
16160
16176.2
16192.4
16208.6
16224.7
16240.7
16256.7
16272.6
16288.5
16304.3
16320.1
16335.7
16351.3
16366.9
16382.3
16397.7
16413
16428.3
16443.4
16458.5
16473.5
16488.4
16503.3
16518
16532.7
16547.3
16561.8
16576.3
16590.6
16604.9
16619.1
16633.2
16647.3
16661.3
16675.2
16689.1
16702.8
16716.5
16730.2
16743.7
16757.3
16770.7
16784.1
16797.4
16810.7
16823.9
16837
16850.1
16863.2
16876.2
16889.2
16902.1
16914.9
16927.8
16940.5
16953.3
16966
16978.6
16991.3
17003.9
17016.4
17029
17041.5
17053.9
17066.4
17078.8
17091.2
17103.6
17115.9
17128.3
17140.6
17152.9
17165.2
17177.5
17189.8
17202
17214.3
17226.5
17238.8
17251.1
17263.3
17275.6
17287.9
17300.2
17312.6
17324.9
17337.3
17349.8
17362.3
17374.9
17387.5
17400.2
17413
17425.9
17439
17452.1
17465.4
17478.8
17492.4
17506.2
17520.2
17534.3
17548.7
17563.3
17578.2
17593.3
17608.7
17624.4
17640.3
17656.5
17673.1
17689.9
17707
17724.4
17742.1
17760
17778.2
17796.7
17815.4
17834.4
17853.5
17872.8
17892.3
17912
17931.7
17951.6
17971.5
17991.5
18011.5
18031.5
18051.5
18071.4
18091.3
18111.2
18130.9
18150.6
18170.1
18189.6
18208.9
18228.1
18247.1
18266.1
18284.9
18303.5
18322
18340.4
18358.7
18376.8
18394.8
18412.6
18430.3
18447.9
18465.4
18482.8
18500.1
18517.2
18534.3
18551.2
18568.1
18584.8
18601.4
18618
18634.5
18650.9
18667.1
18683.4
18699.5
18715.5
18731.5
18747.4
18763.2
18779
18794.7
18810.3
18825.8
18841.3
18856.7
18872.1
18887.4
18902.6
18917.8
18932.9
18947.9
18962.9
18977.8
18992.7
19007.5
19022.3
19037
19051.7
19066.3
19080.9
19095.4
19109.9
19124.3
19138.7
19153
19167.3
19181.5
19195.7
19209.9
19224
19238.1
19252.1
19266.1
19280
19293.9
19307.8
19321.6
19335.4
19349.2
19362.9
19376.6
19390.2
19403.8
19417.4
19430.5
)
;

boundaryField
{
    sides
    {
        type            zeroGradient;
    }
    empty
    {
        type            empty;
    }
}


// ************************************************************************* //
