/*--------------------------------*- C++ -*----------------------------------*\
  =========                 |
  \\      /  F ield         | OpenFOAM: The Open Source CFD Toolbox
   \\    /   O peration     | Website:  https://openfoam.org
    \\  /    A nd           | Version:  9
     \\/     M anipulation  |
\*---------------------------------------------------------------------------*/
FoamFile
{
    format      ascii;
    class       surfaceScalarField;
    location    "0.043";
    object      phi_0;
}
// * * * * * * * * * * * * * * * * * * * * * * * * * * * * * * * * * * * * * //

dimensions      [1 0 -1 0 0 0 0];

internalField   nonuniform List<scalar> 
999
(
18.1573
18.375
18.5927
18.8102
19.0275
19.2448
19.462
19.6791
19.8961
20.1129
20.3297
20.5464
20.763
20.9794
21.1957
21.4119
21.628
21.8441
22.0601
22.2759
22.4915
22.707
22.9224
23.1378
23.3531
23.5684
23.7835
23.9985
24.2132
24.4277
24.6421
24.8565
25.0709
25.2853
25.4997
25.7139
25.928
26.1417
26.3552
26.5685
26.7816
26.9946
27.2077
27.4208
27.634
27.8473
28.0606
28.2738
28.4867
28.6994
28.9117
29.1237
29.3352
29.5465
29.7575
29.9683
30.1791
30.39
30.601
30.8122
31.0237
31.2355
31.4476
31.6599
31.8724
32.085
32.2976
32.5102
32.7228
32.9354
33.1479
33.3603
33.5727
33.785
33.9977
34.2112
34.4245
34.6375
34.8508
35.0639
35.2766
35.4894
35.7024
35.9148
36.127
36.3397
36.552
36.7638
36.9759
37.1881
37.3997
37.6111
37.8229
38.0345
38.2455
38.4565
38.668
38.879
39.0894
39.3
39.511
39.7213
39.9312
40.1414
40.3518
40.5615
40.7708
40.9804
41.1903
41.3994
41.608
41.8171
42.0264
42.2348
42.4428
42.6513
42.8598
43.0677
43.275
43.4827
43.6905
43.8978
44.1044
44.3111
44.5183
44.7249
44.9308
45.1366
45.3428
45.5488
45.754
45.9589
46.1641
46.3693
46.5738
46.7778
46.9819
47.1863
47.3901
47.5932
47.7961
47.9994
48.2025
48.4048
48.6068
48.8086
49.0108
49.2124
49.4133
49.614
49.8149
50.0156
50.2156
50.4152
50.6145
50.8141
51.0132
51.2118
51.4099
51.6078
51.8057
52.0035
52.201
52.3979
52.5944
52.79
52.9852
53.1798
53.3739
53.5675
53.7609
53.954
54.1466
54.3386
54.5303
54.7218
54.9129
55.1033
55.2932
55.4827
55.6719
55.8607
56.0488
56.2363
56.4234
56.6101
56.7964
56.9819
57.1668
57.3512
57.5351
57.7186
57.9014
58.0835
58.265
58.446
58.6265
58.8063
58.9853
59.1637
59.3416
59.5189
59.6955
59.8714
60.0465
60.221
60.395
60.5683
60.7407
60.9123
61.0833
61.2537
61.4235
61.5924
61.7605
61.9279
62.0946
62.2608
62.4261
62.5905
62.7541
62.9171
63.0795
63.2412
63.402
63.5619
63.7211
63.8798
64.0378
64.1951
64.3514
64.507
64.6619
64.8162
64.97
65.123
65.2752
65.4266
65.5775
65.7279
65.8777
66.0268
66.1751
66.3228
66.47
66.6169
66.7632
66.9089
67.0538
67.1983
67.3425
67.4863
67.6297
67.7725
67.9147
68.0566
68.1984
68.3398
68.4809
68.6214
68.7616
68.9016
69.0415
69.1813
69.3207
69.4597
69.5985
69.7372
69.8759
70.0146
70.153
70.2911
70.4291
70.567
70.7051
70.8432
70.9813
71.1191
71.2567
71.3943
71.5322
71.6703
71.8083
71.9462
72.084
72.2218
72.3599
72.4981
72.6365
72.7747
72.9129
73.0512
73.1897
73.3285
73.4673
73.6062
73.745
73.8839
74.023
74.1625
74.3021
74.4417
74.5812
74.7208
74.8606
75.0008
75.1413
75.2818
75.4222
75.5626
75.7032
75.8441
75.9854
76.1268
76.2682
76.4096
76.551
76.6927
76.8348
76.9771
77.1195
77.2618
77.4042
77.5468
77.6897
77.8328
77.9762
78.1195
78.2628
78.4063
78.5501
78.6942
78.8385
78.9828
79.1271
79.2714
79.416
79.561
79.7063
79.8517
79.997
80.1423
80.2877
80.4334
80.5796
80.7259
80.8724
81.0188
81.1653
81.3118
81.4587
81.606
81.7534
81.9009
82.0483
82.1959
82.3437
82.4918
82.6403
82.7888
82.9372
83.0857
83.2343
83.3833
83.5327
83.6823
83.8319
83.9815
84.131
84.2808
84.4309
84.5814
84.7321
84.8828
85.0335
85.1842
85.3351
85.4864
85.6379
85.7897
85.9415
86.0933
86.2452
86.3973
86.5498
86.7025
86.8554
87.0083
87.1611
87.3141
87.4673
87.621
87.7749
87.929
88.0831
88.237
88.3911
88.5454
88.7002
88.8552
89.0104
89.1656
89.3208
89.4761
89.6316
89.7875
89.9436
90.0999
90.2561
90.4124
90.5688
90.7255
90.8826
91.04
91.1975
91.3549
91.5123
91.6698
91.8275
91.9857
92.1442
92.3029
92.4616
92.6203
92.779
92.9379
93.0972
93.2567
93.4165
93.5763
93.7361
93.896
94.0561
94.2165
94.3774
94.5384
94.6993
94.8603
95.0212
95.1824
95.3439
95.5058
95.668
95.8303
95.9926
96.1548
96.3172
96.4799
96.6429
96.8062
96.9695
97.1329
97.2963
97.4599
97.6238
97.788
97.9526
98.1172
98.2819
98.4465
98.6111
98.776
98.9413
99.1069
99.2728
99.4388
99.6047
99.7707
99.9369
100.103
100.27
100.437
100.604
100.771
100.938
101.106
101.273
101.441
101.61
101.778
101.947
102.115
102.283
102.452
102.621
102.79
102.96
103.13
103.3
103.469
103.639
103.809
103.98
104.151
104.322
104.493
104.664
104.835
105.006
105.178
105.35
105.522
105.695
105.867
106.039
106.212
106.385
106.558
106.731
106.905
107.079
107.252
107.426
107.6
107.774
107.949
108.124
108.299
108.474
108.649
108.824
109
109.176
109.352
109.528
109.704
109.881
110.057
110.234
110.411
110.588
110.766
110.943
111.121
111.299
111.477
111.655
111.834
112.012
112.191
112.37
112.55
112.729
112.908
113.088
113.268
113.448
113.629
113.809
113.99
114.17
114.351
114.532
114.714
114.896
115.077
115.259
115.442
115.624
115.806
115.989
116.172
116.355
116.538
116.722
116.905
117.089
117.273
117.457
117.641
117.826
118.011
118.196
118.381
118.566
118.751
118.937
119.123
119.309
119.495
119.682
119.868
120.055
120.242
120.429
120.617
120.804
120.992
121.18
121.368
121.556
121.745
121.933
122.123
122.312
122.501
122.691
122.88
123.07
123.26
123.45
123.641
123.831
124.022
124.213
124.404
124.595
124.787
124.979
125.171
125.363
125.556
125.748
125.94
126.133
126.326
126.52
126.713
126.908
127.101
127.295
127.489
127.684
127.878
128.073
128.269
128.464
128.659
128.854
129.05
129.246
129.442
129.638
129.835
130.032
130.228
130.425
130.622
130.819
131.018
131.215
131.414
131.612
131.81
132.008
132.206
132.406
132.604
132.804
133.003
133.203
133.403
133.602
133.802
134.002
134.203
134.404
134.604
134.806
135.006
135.207
135.408
135.61
135.811
136.013
136.215
136.417
136.619
136.821
137.023
137.226
137.428
137.632
137.834
138.037
138.24
138.442
138.646
138.849
139.052
139.256
139.459
139.662
139.866
140.069
140.273
140.476
140.68
140.884
141.087
141.291
141.494
141.698
141.901
142.105
142.308
142.512
142.715
142.918
143.121
143.324
143.527
143.73
143.933
144.135
144.338
144.54
144.742
144.944
145.146
145.347
145.549
145.75
145.951
146.151
146.351
146.552
146.752
146.952
147.151
147.35
147.549
147.747
147.945
148.143
148.341
148.538
148.735
148.932
149.127
149.323
149.519
149.714
149.909
150.104
150.297
150.491
150.684
150.877
151.069
151.262
151.454
151.645
151.837
152.028
152.218
152.408
152.599
152.788
152.978
153.167
153.356
153.545
153.734
153.922
154.11
154.298
154.487
154.674
154.862
155.05
155.238
155.425
155.613
155.801
155.989
156.177
156.366
156.554
156.743
156.932
157.121
157.311
157.5
157.691
157.882
158.073
158.264
158.456
158.649
158.842
159.036
159.23
159.425
159.621
159.817
160.014
160.212
160.41
160.61
160.81
161.01
161.212
161.415
161.618
161.822
162.027
162.233
162.439
162.647
162.856
163.065
163.275
163.486
163.698
163.911
164.125
164.339
164.555
164.771
164.989
165.207
165.426
165.646
165.867
166.088
166.311
166.534
166.758
166.983
167.208
167.435
167.662
167.89
168.118
168.348
168.578
168.808
169.04
169.272
169.505
169.739
169.973
170.207
170.443
170.679
170.916
171.153
171.391
171.629
171.868
172.107
172.347
172.588
172.829
173.07
173.312
173.555
173.798
174.041
174.285
174.529
174.774
175.019
175.265
175.511
175.757
176.004
176.251
176.498
176.746
176.994
177.242
177.491
177.74
177.989
178.238
178.487
178.736
178.986
179.235
179.485
179.734
179.983
180.232
180.48
180.729
180.976
181.224
181.47
181.716
181.962
182.206
182.45
182.692
182.934
183.174
183.413
183.651
183.887
184.122
184.356
184.588
184.819
185.048
185.277
185.503
185.728
185.952
186.175
186.397
186.618
186.837
187.057
187.275
187.493
187.71
187.928
188.145
188.362
188.58
188.798
189.017
189.235
189.455
189.676
189.897
190.12
190.344
190.568
190.794
191.021
191.249
191.479
191.71
191.942
192.175
192.409
192.645
192.882
193.12
193.36
193.601
193.842
194.085
194.329
194.574
194.821
195.068
195.316
195.566
195.816
196.067
196.319
196.573
196.827
197.082
197.338
197.594
197.852
198.111
198.37
198.63
198.891
199.153
199.416
199.679
199.943
200.208
200.474
200.741
201.008
201.276
201.544
201.814
202.084
202.355
202.626
202.899
203.171
203.445
203.719
203.994
204.27
204.546
204.823
205.1
205.379
205.657
205.937
206.217
206.497
206.779
207.06
207.343
207.626
207.91
208.194
208.479
208.764
209.05
209.337
209.624
209.911
210.2
210.488
210.778
211.068
211.358
)
;

boundaryField
{
    sides
    {
        type            calculated;
        value           nonuniform List<scalar> 2(211.649 -17.9395);
    }
    empty
    {
        type            empty;
        value           nonuniform List<scalar> 0();
    }
}


// ************************************************************************* //
