/*--------------------------------*- C++ -*----------------------------------*\
  =========                 |
  \\      /  F ield         | OpenFOAM: The Open Source CFD Toolbox
   \\    /   O peration     | Website:  https://openfoam.org
    \\  /    A nd           | Version:  9
     \\/     M anipulation  |
\*---------------------------------------------------------------------------*/
FoamFile
{
    format      ascii;
    class       volScalarField;
    location    "0.043";
    object      rho_0;
}
// * * * * * * * * * * * * * * * * * * * * * * * * * * * * * * * * * * * * * //

dimensions      [1 -3 0 0 0 0 0];

internalField   nonuniform List<scalar> 
1000
(
0.209917
0.209886
0.209827
0.209771
0.209721
0.209671
0.20962
0.20957
0.209519
0.209468
0.209417
0.209367
0.209317
0.209266
0.209216
0.209165
0.209114
0.209064
0.209015
0.208965
0.208915
0.208864
0.208813
0.208763
0.208713
0.208665
0.208616
0.208567
0.208517
0.208467
0.208416
0.208365
0.208316
0.208268
0.208221
0.208174
0.208127
0.208078
0.208029
0.207979
0.207928
0.207877
0.207827
0.207778
0.207731
0.207686
0.207642
0.207599
0.207555
0.207511
0.207465
0.207417
0.207368
0.207317
0.207265
0.207213
0.207161
0.20711
0.207061
0.207015
0.206971
0.20693
0.206892
0.206856
0.206822
0.206791
0.20676
0.206731
0.206702
0.206673
0.206645
0.206618
0.206591
0.206564
0.206539
0.206518
0.206502
0.206481
0.206463
0.206447
0.206428
0.206408
0.206392
0.206375
0.206355
0.206338
0.206323
0.206304
0.206285
0.20627
0.206255
0.206235
0.206218
0.206204
0.206187
0.206168
0.206153
0.206139
0.206121
0.206103
0.20609
0.206076
0.206058
0.206041
0.206029
0.206015
0.205998
0.205982
0.205971
0.205957
0.205941
0.205926
0.205915
0.205902
0.205886
0.205872
0.205861
0.20585
0.205835
0.205821
0.205811
0.205801
0.205788
0.205774
0.205764
0.205756
0.205744
0.205731
0.205721
0.205714
0.205704
0.205692
0.205682
0.205675
0.205667
0.205657
0.205647
0.205641
0.205635
0.205627
0.205618
0.205611
0.205607
0.205601
0.205593
0.205587
0.205583
0.205579
0.205574
0.205569
0.205564
0.205563
0.20556
0.205556
0.205553
0.205551
0.205551
0.205549
0.205548
0.205547
0.205547
0.205548
0.205548
0.205548
0.205549
0.205552
0.205555
0.205559
0.205563
0.205568
0.205573
0.20558
0.205587
0.205594
0.205601
0.205609
0.205618
0.205628
0.205637
0.205648
0.205659
0.205671
0.205684
0.205697
0.20571
0.205725
0.20574
0.205757
0.205773
0.20579
0.205808
0.205828
0.205848
0.205868
0.205889
0.205911
0.205935
0.205959
0.205984
0.206009
0.206035
0.206063
0.206092
0.206121
0.206151
0.206182
0.206214
0.206248
0.206282
0.206317
0.206353
0.20639
0.206429
0.206468
0.206509
0.206549
0.206592
0.206635
0.206681
0.206726
0.206772
0.20682
0.206869
0.20692
0.206971
0.207023
0.207076
0.20713
0.207186
0.207243
0.207301
0.207359
0.207419
0.20748
0.207542
0.207606
0.20767
0.207735
0.207801
0.207868
0.207937
0.208007
0.208077
0.208148
0.20822
0.208293
0.208368
0.208444
0.208519
0.208595
0.208673
0.208752
0.208832
0.208912
0.208992
0.209074
0.209156
0.209239
0.209324
0.209408
0.209492
0.209578
0.209664
0.209751
0.209839
0.209927
0.210015
0.210103
0.210192
0.210283
0.210373
0.210464
0.210554
0.210645
0.210737
0.210829
0.210922
0.211015
0.211107
0.2112
0.211293
0.211387
0.211482
0.211576
0.21167
0.211764
0.211858
0.211953
0.212049
0.212145
0.21224
0.212335
0.21243
0.212526
0.212622
0.212719
0.212815
0.21291
0.213006
0.213103
0.2132
0.213297
0.213394
0.21349
0.213586
0.213683
0.213781
0.213878
0.213976
0.214073
0.214169
0.214266
0.214364
0.214462
0.214561
0.214658
0.214755
0.214852
0.21495
0.215049
0.215147
0.215245
0.215343
0.215441
0.215539
0.215637
0.215736
0.215835
0.215933
0.216031
0.21613
0.216229
0.216328
0.216427
0.216526
0.216624
0.216722
0.216821
0.216921
0.217021
0.217121
0.21722
0.217318
0.217417
0.217516
0.217616
0.217717
0.217816
0.217916
0.218015
0.218114
0.218214
0.218315
0.218415
0.218515
0.218615
0.218714
0.218814
0.218915
0.219016
0.219117
0.219217
0.219316
0.219417
0.219517
0.219619
0.21972
0.219821
0.219921
0.220021
0.220122
0.220223
0.220325
0.220427
0.220528
0.220629
0.22073
0.220831
0.220932
0.221034
0.221136
0.221238
0.221339
0.22144
0.221542
0.221644
0.221747
0.221849
0.221951
0.222052
0.222154
0.222256
0.222359
0.222462
0.222565
0.222667
0.222769
0.222871
0.222974
0.223077
0.22318
0.223283
0.223386
0.223489
0.223591
0.223694
0.223798
0.223902
0.224005
0.224108
0.224211
0.224314
0.224418
0.224522
0.224626
0.22473
0.224834
0.224937
0.22504
0.225144
0.225248
0.225353
0.225458
0.225562
0.225666
0.22577
0.225874
0.225979
0.226084
0.226189
0.226294
0.226398
0.226502
0.226607
0.226712
0.226818
0.226924
0.227029
0.227133
0.227238
0.227343
0.227448
0.227554
0.227661
0.227767
0.227872
0.227977
0.228083
0.228189
0.228295
0.228402
0.228508
0.228614
0.228719
0.228825
0.228932
0.229039
0.229146
0.229253
0.229359
0.229465
0.229571
0.229678
0.229785
0.229892
0.23
0.230107
0.230214
0.230321
0.230428
0.230535
0.230643
0.230751
0.230859
0.230966
0.231073
0.23118
0.231288
0.231397
0.231505
0.231614
0.231722
0.23183
0.231937
0.232045
0.232153
0.232262
0.232371
0.23248
0.232588
0.232697
0.232805
0.232914
0.233023
0.233133
0.233242
0.233351
0.23346
0.233569
0.233677
0.233787
0.233897
0.234007
0.234117
0.234226
0.234336
0.234445
0.234555
0.234665
0.234776
0.234886
0.234996
0.235106
0.235215
0.235325
0.235436
0.235547
0.235658
0.235769
0.23588
0.23599
0.2361
0.236211
0.236322
0.236434
0.236545
0.236656
0.236767
0.236878
0.236989
0.2371
0.237212
0.237325
0.237436
0.237548
0.237659
0.237771
0.237883
0.237995
0.238107
0.238219
0.238332
0.238444
0.238556
0.238668
0.23878
0.238893
0.239006
0.23912
0.239232
0.239345
0.239457
0.23957
0.239683
0.239796
0.23991
0.240023
0.240137
0.240249
0.240362
0.240476
0.240589
0.240704
0.240817
0.240932
0.241045
0.241159
0.241273
0.241386
0.241502
0.241614
0.241731
0.241843
0.241959
0.242073
0.242186
0.242303
0.242414
0.242534
0.242644
0.242764
0.242875
0.242992
0.243106
0.24322
0.243338
0.24345
0.24357
0.243681
0.2438
0.243913
0.244029
0.244147
0.244259
0.24438
0.244492
0.244612
0.244725
0.244842
0.244958
0.245073
0.245193
0.245306
0.245426
0.245539
0.245658
0.245773
0.24589
0.246008
0.246123
0.246244
0.246357
0.246478
0.246591
0.246712
0.246827
0.246945
0.247064
0.247179
0.247302
0.247414
0.247538
0.247649
0.247773
0.247886
0.248008
0.248125
0.248244
0.248363
0.248479
0.248599
0.248716
0.248836
0.248955
0.249073
0.249195
0.249309
0.249433
0.249547
0.24967
0.249788
0.249908
0.25003
0.250146
0.250269
0.250387
0.250507
0.250628
0.250747
0.250871
0.250988
0.251112
0.251231
0.251352
0.251474
0.251592
0.251719
0.251836
0.251962
0.252081
0.252204
0.252326
0.252446
0.252572
0.252692
0.252818
0.25294
0.253062
0.253188
0.253308
0.253435
0.253558
0.253683
0.253809
0.253932
0.254059
0.254182
0.254309
0.254435
0.254562
0.254688
0.254816
0.254943
0.25507
0.255199
0.255326
0.255457
0.255585
0.255715
0.255846
0.255975
0.256107
0.256237
0.25637
0.256502
0.256636
0.256769
0.256903
0.257038
0.257172
0.257308
0.257445
0.257582
0.25772
0.257859
0.257998
0.258137
0.258278
0.258418
0.258561
0.258704
0.258848
0.258992
0.259138
0.259284
0.259429
0.259579
0.259728
0.259877
0.26003
0.260181
0.260332
0.260488
0.260641
0.260796
0.260955
0.261113
0.261271
0.261433
0.261593
0.261754
0.261919
0.262084
0.262248
0.262417
0.262585
0.262754
0.262924
0.263097
0.263267
0.263443
0.263617
0.263795
0.263969
0.264153
0.264327
0.264512
0.264688
0.264879
0.265053
0.265249
0.265424
0.265623
0.265796
0.266001
0.266172
0.266381
0.266553
0.266767
0.266936
0.267154
0.267324
0.267542
0.267712
0.267934
0.268104
0.268326
0.268497
0.268721
0.268891
0.269115
0.269287
0.269511
0.269682
0.269906
0.270078
0.270302
0.270473
0.270696
0.270866
0.271089
0.271259
0.271481
0.27165
0.271871
0.272039
0.272259
0.272426
0.272643
0.272809
0.273026
0.27319
0.273405
0.273568
0.273781
0.273942
0.274152
0.274312
0.274521
0.274679
0.274886
0.275042
0.275246
0.275401
0.275603
0.275756
0.275955
0.276107
0.276304
0.276454
0.276649
0.276797
0.27699
0.277136
0.277327
0.277472
0.27766
0.277803
0.27799
0.278132
0.278317
0.278456
0.278639
0.278778
0.278959
0.279096
0.279275
0.279412
0.279589
0.279724
0.2799
0.280034
0.280209
0.280341
0.280515
0.280646
0.280818
0.280949
0.28112
0.28125
0.28142
0.281549
0.281717
0.281846
0.282013
0.282141
0.282308
0.282435
0.282601
0.282728
0.282893
0.283019
0.283184
0.28331
0.283474
0.2836
0.283764
0.283888
0.284052
0.284177
0.28434
0.284465
0.284629
0.284753
0.284917
0.285042
0.285206
0.285331
0.285496
0.285622
0.285787
0.285914
0.286081
0.286209
0.286378
0.286508
0.286679
0.286811
0.286985
0.28712
0.287298
0.287435
0.287618
0.287759
0.287946
0.288092
0.288285
0.288435
0.288635
0.28879
0.288997
0.289158
0.289371
0.289538
0.28976
0.289932
0.290162
0.29034
0.290576
0.29076
0.291003
0.291192
0.291442
0.291635
0.291889
0.292086
0.292344
0.292543
0.292805
0.293006
0.293268
0.29347
0.293733
0.293935
0.294196
0.294398
0.294658
0.294858
0.295115
0.295313
0.295568
0.295763
0.296014
0.296206
0.296455
0.296644
0.296888
0.297074
0.297315
0.297499
0.297736
0.297916
0.298151
0.298328
0.298559
0.298734
0.298962
0.299134
0.299359
0.299529
0.299751
0.29992
0.300139
0.300305
0.300522
0.300686
0.3009
0.301062
0.301274
0.301435
0.301645
0.301804
0.302011
0.302169
0.302375
0.302531
0.302734
0.302889
0.303091
0.303244
0.303444
0.303596
0.303794
0.303945
0.304141
0.304291
0.304486
0.304634
0.304828
0.304975
0.305167
0.305313
0.305503
0.305648
0.305837
0.305981
0.306169
0.306312
0.306498
0.30664
0.306826
0.306967
0.307151
0.307291
0.307473
0.307612
0.307794
0.307932
0.308113
0.30825
0.30843
0.308566
0.308745
0.30888
0.309058
0.309193
0.309369
0.309497
0.309684
0.30977
)
;

boundaryField
{
    sides
    {
        type            calculated;
        value           nonuniform List<scalar> 2(0.30977 0.209917);
    }
    empty
    {
        type            empty;
    }
}


// ************************************************************************* //
