/*--------------------------------*- C++ -*----------------------------------*\
  =========                 |
  \\      /  F ield         | OpenFOAM: The Open Source CFD Toolbox
   \\    /   O peration     | Website:  https://openfoam.org
    \\  /    A nd           | Version:  9
     \\/     M anipulation  |
\*---------------------------------------------------------------------------*/
FoamFile
{
    format      ascii;
    class       volScalarField;
    location    "0.034";
    object      ddt0(rho,K);
}
// * * * * * * * * * * * * * * * * * * * * * * * * * * * * * * * * * * * * * //

dimensions      [1 -1 -3 0 0 0 0];

internalField   nonuniform List<scalar> 
10000
(
155.723
152.122
149.269
146.87
144.402
141.784
139.094
136.378
133.634
130.849
128.021
125.153
122.247
119.301
116.313
113.283
110.217
107.115
103.974
100.792
97.5667
94.2994
90.9947
87.6541
84.2745
80.8506
77.3805
73.8685
70.3211
66.7411
63.1241
59.4634
55.7562
52.0065
48.2216
44.4064
40.5604
36.6769
32.747
28.7659
24.7354
20.6624
16.5554
12.4214
8.26241
4.07116
-0.165995
-4.46031
-8.81251
-13.2122
-17.6452
-22.1012
-26.5781
-31.0811
-35.6231
-40.2212
-44.8863
-49.6154
-54.3946
-59.2058
-64.0328
-68.8691
-73.722
-78.6054
-83.5305
-88.5052
-93.5388
-98.6402
-103.81
-109.037
-114.299
-119.581
-124.876
-130.182
-135.496
-140.829
-146.198
-151.62
-157.103
-162.658
-168.29
-173.996
-179.768
-185.597
-191.461
-197.333
-203.201
-209.064
-214.937
-220.833
-226.744
-232.669
-238.63
-244.65
-250.728
-256.863
-263.071
-269.363
-275.726
-282.162
-288.678
-295.256
-301.894
-308.591
-315.331
-322.11
-328.923
-335.766
-342.659
-349.607
-356.586
-363.541
-370.482
-377.477
-384.499
-391.513
-398.572
-405.67
-412.815
-420.02
-427.336
-434.799
-442.096
-449.41
-456.792
-464.208
-471.641
-479.15
-486.678
-494.222
-501.85
-509.531
-517.2
-524.886
-532.629
-540.434
-548.298
-556.2
-564.135
-572.115
-580.128
-588.177
-596.275
-604.41
-612.573
-620.783
-629.039
-637.324
-645.644
-654.012
-662.427
-670.875
-679.35
-687.865
-696.436
-705.057
-713.71
-722.391
-731.102
-739.847
-748.637
-757.479
-766.365
-775.292
-784.26
-793.27
-802.318
-811.402
-820.527
-829.696
-838.907
-848.153
-857.436
-866.762
-876.132
-885.541
-894.984
-904.461
-913.976
-923.537
-933.145
-942.796
-952.48
-962.195
-971.944
-981.73
-991.557
-1001.43
-1011.34
-1021.31
-1031.31
-1041.35
-1051.43
-1061.56
-1071.72
-1081.92
-1092.15
-1102.43
-1112.75
-1123.11
-1133.52
-1143.96
-1154.44
-1164.96
-1175.51
-1186.11
-1196.76
-1207.44
-1218.16
-1228.92
-1239.71
-1250.54
-1261.4
-1272.3
-1283.25
-1294.24
-1305.27
-1316.35
-1327.47
-1338.62
-1349.82
-1361.06
-1372.33
-1383.64
-1395
-1406.39
-1417.82
-1429.3
-1440.81
-1452.36
-1463.95
-1475.59
-1487.27
-1498.99
-1510.75
-1522.55
-1534.38
-1546.25
-1558.15
-1570.09
-1582.08
-1594.1
-1606.16
-1618.27
-1630.41
-1642.61
-1654.84
-1667.11
-1679.42
-1691.77
-1704.16
-1716.59
-1729.06
-1741.57
-1754.11
-1766.7
-1779.32
-1791.99
-1804.69
-1817.44
-1830.24
-1843.07
-1855.94
-1868.85
-1881.8
-1894.78
-1907.81
-1920.86
-1933.96
-1947.1
-1960.29
-1973.51
-1986.77
-2000.08
-2013.42
-2026.81
-2040.23
-2053.69
-2067.2
-2080.75
-2094.33
-2107.95
-2121.61
-2135.31
-2149.05
-2162.83
-2176.65
-2190.52
-2204.42
-2218.37
-2232.35
-2246.37
-2260.43
-2274.53
-2288.67
-2302.84
-2317.06
-2331.32
-2345.62
-2359.96
-2374.34
-2388.76
-2403.22
-2417.72
-2432.25
-2446.83
-2461.45
-2476.11
-2490.81
-2505.55
-2520.32
-2535.14
-2549.99
-2564.89
-2579.83
-2594.81
-2609.82
-2624.88
-2639.97
-2655.11
-2670.28
-2685.49
-2700.74
-2716.03
-2731.36
-2746.73
-2762.15
-2777.6
-2793.1
-2808.64
-2824.21
-2839.83
-2855.49
-2871.18
-2886.92
-2902.69
-2918.5
-2934.35
-2950.24
-2966.17
-2982.14
-2998.15
-3014.2
-3030.3
-3046.43
-3062.6
-3078.81
-3095.06
-3111.34
-3127.66
-3144.03
-3160.43
-3176.87
-3193.36
-3209.88
-3226.45
-3243.06
-3259.71
-3276.41
-3293.14
-3309.91
-3326.72
-3343.57
-3360.46
-3377.39
-3394.36
-3411.36
-3428.41
-3445.49
-3462.62
-3479.79
-3496.99
-3514.24
-3531.53
-3548.85
-3566.21
-3583.61
-3601.05
-3618.53
-3636.04
-3653.6
-3671.2
-3688.83
-3706.51
-3724.23
-3742
-3759.8
-3777.65
-3795.53
-3813.46
-3831.43
-3849.43
-3867.48
-3885.56
-3903.68
-3921.85
-3940.05
-3958.29
-3976.57
-3994.89
-4013.25
-4031.65
-4050.09
-4068.57
-4087.08
-4105.64
-4124.23
-4142.86
-4161.53
-4180.24
-4199
-4217.79
-4236.62
-4255.49
-4274.41
-4293.36
-4312.36
-4331.4
-4350.48
-4369.59
-4388.75
-4407.95
-4427.19
-4446.47
-4465.79
-4485.15
-4504.54
-4523.98
-4543.46
-4562.97
-4582.53
-4602.12
-4621.75
-4641.42
-4661.13
-4680.88
-4700.66
-4720.49
-4740.35
-4760.26
-4780.21
-4800.19
-4820.22
-4840.29
-4860.39
-4880.54
-4900.73
-4920.96
-4941.23
-4961.54
-4981.89
-5002.28
-5022.72
-5043.19
-5063.7
-5084.25
-5104.85
-5125.48
-5146.15
-5166.86
-5187.61
-5208.4
-5229.22
-5250.09
-5270.99
-5291.93
-5312.91
-5333.93
-5354.99
-5376.08
-5397.22
-5418.4
-5439.63
-5460.89
-5482.19
-5503.53
-5524.92
-5546.34
-5567.8
-5589.3
-5610.84
-5632.43
-5654.05
-5675.71
-5697.42
-5719.16
-5740.95
-5762.78
-5784.64
-5806.55
-5828.49
-5850.47
-5872.49
-5894.55
-5916.64
-5938.78
-5960.95
-5983.17
-6005.42
-6027.71
-6050.05
-6072.42
-6094.84
-6117.29
-6139.79
-6162.32
-6184.9
-6207.51
-6230.17
-6252.86
-6275.6
-6298.37
-6321.19
-6344.05
-6366.94
-6389.88
-6412.85
-6435.87
-6458.93
-6482.03
-6505.16
-6528.34
-6551.55
-6574.81
-6598.1
-6621.43
-6644.8
-6668.2
-6691.65
-6715.14
-6738.67
-6762.23
-6785.84
-6809.49
-6833.18
-6856.91
-6880.68
-6904.49
-6928.34
-6952.22
-6976.15
-7000.12
-7024.13
-7048.17
-7072.26
-7096.39
-7120.56
-7144.77
-7169.02
-7193.31
-7217.63
-7242
-7266.4
-7290.85
-7315.33
-7339.86
-7364.42
-7389.03
-7413.67
-7438.35
-7463.08
-7487.84
-7512.64
-7537.48
-7562.36
-7587.28
-7612.25
-7637.25
-7662.29
-7687.37
-7712.49
-7737.66
-7762.86
-7788.1
-7813.38
-7838.7
-7864.06
-7889.46
-7914.89
-7940.37
-7965.89
-7991.45
-8017.05
-8042.69
-8068.36
-8094.08
-8119.84
-8145.63
-8171.47
-8197.34
-8223.26
-8249.21
-8275.21
-8301.25
-8327.32
-8353.44
-8379.6
-8405.79
-8432.03
-8458.3
-8484.61
-8510.97
-8537.36
-8563.79
-8590.27
-8616.78
-8643.34
-8669.93
-8696.56
-8723.24
-8749.95
-8776.69
-8803.48
-8830.31
-8857.17
-8884.08
-8911.02
-8938.01
-8965.04
-8992.11
-9019.22
-9046.37
-9073.56
-9100.79
-9128.05
-9155.36
-9182.71
-9210.1
-9237.52
-9264.99
-9292.5
-9320.06
-9347.64
-9375.27
-9402.94
-9430.64
-9458.39
-9486.17
-9513.99
-9541.86
-9569.76
-9597.7
-9625.69
-9653.71
-9681.77
-9709.87
-9738.01
-9766.19
-9794.4
-9822.66
-9850.95
-9879.29
-9907.66
-9936.08
-9964.55
-9993.05
-10021.6
-10050.2
-10078.8
-10107.5
-10136.2
-10164.9
-10193.7
-10222.5
-10251.4
-10280.3
-10309.2
-10338.2
-10367.2
-10396.3
-10425.4
-10454.5
-10483.7
-10512.9
-10542.1
-10571.4
-10600.7
-10630.1
-10659.5
-10689
-10718.5
-10748
-10777.6
-10807.2
-10836.8
-10866.5
-10896.2
-10926
-10955.8
-10985.7
-11015.6
-11045.5
-11075.5
-11105.5
-11135.5
-11165.6
-11195.8
-11225.9
-11256.1
-11286.4
-11316.7
-11347
-11377.4
-11407.8
-11438.2
-11468.7
-11499.3
-11529.8
-11560.4
-11591.1
-11621.7
-11652.5
-11683.2
-11714
-11744.8
-11775.7
-11806.6
-11837.6
-11868.6
-11899.7
-11930.8
-11961.9
-11993
-12024.2
-12055.5
-12086.7
-12118.1
-12149.4
-12180.8
-12212.2
-12243.8
-12275.3
-12306.9
-12338.4
-12370.2
-12401.7
-12433.6
-12465.1
-12497.2
-12528.7
-12560.9
-12592.4
-12624.8
-12656.5
-12688.8
-12720.7
-12752.8
-12785
-12817.2
-12849.4
-12881.7
-12914
-12946.3
-12978.7
-13011.1
-13043.6
-13076.1
-13108.7
-13141.2
-13173.9
-13206.5
-13239.4
-13271.8
-13305.2
-13337.3
-13371.1
-13402.9
-13437
-13468.8
-13503
-13535.1
-13568.8
-13601.7
-13634.7
-13668.6
-13700.7
-13735.6
-13767.2
-13802.2
-13834.1
-13868.7
-13901.8
-13935
-13969.7
-14001.6
-14037.3
-14068.9
-14104.3
-14137.2
-14171.1
-14205.7
-14238.1
-14274.1
-14305.7
-14341.8
-14374.7
-14408.9
-14444
-14476.3
-14513
-14544.7
-14580.9
-14614.5
-14648.4
-14684.5
-14716.4
-14753.7
-14785.9
-14821.7
-14856.7
-14889.5
-14927
-14958.7
-14995.7
-15029.7
-15063.7
-15100.9
-15132.7
-15170.7
-15203.8
-15238.9
-15275.7
-15308
-15346.4
-15379
-15415.2
-15451.6
-15484.2
-15523.1
-15555.4
-15592.3
-15628.6
-15661.4
-15700.5
-15732.9
-15770.3
-15806.6
-15839.5
-15879
-15911.5
-15949.1
-15985.7
-16018.7
-16058.6
-16091.2
-16128.7
-16165.8
-16198.9
-16239
-16271.9
-16309.4
-16347.1
-16379.9
-16420.2
-16453.7
-16490.8
-16529.3
-16562.2
-16602.4
-16636.7
-16673.1
-16712.6
-16745.3
-16785.5
-16821.1
-16856.3
-16896.9
-16929.7
-16969.1
-17006.6
-17040.5
-17081.9
-17115.6
-17153.4
-17193.1
-17226
-17267.2
-17303
-17338.4
-17380.2
-17413.2
-17452.8
-17491.8
-17525
-17567.3
-17602.5
-17638.9
-17680.9
-17713.8
-17754.2
-17793.2
-17826.7
-17869.7
-17904.9
-17941.5
-17984.3
-18017.1
-18057.7
-18097.7
-18130.8
-18174.2
-18210.4
-18246.3
-18290.2
-18323.4
-18363.2
-18405
-18437.6
-18480.8
-18519
-18553.4
-18598.2
-18632.9
-18670.9
-18714.6
-18747.5
-18789.4
-18830.2
-18863.5
-18908
-18945.4
-18981.2
-19026.2
-19060.7
-19100.1
-19143.7
-19177
-19219.7
-19260.6
-19294.6
-19339.4
-19377.2
-19413.4
-19458.9
-19494.1
-19533.3
-19577.9
-19611.6
-19653.9
-19696.5
-19730.1
-19774.9
-19814.9
-19849.7
-19895.9
-19933.3
-19970.3
-20016.8
-20052.2
-20091.7
-20137.5
-20171.6
-20213.7
-20258
-20291.8
-20336.1
-20378.5
-20412.7
-20458.8
-20499
-20534.4
-20581.5
-20619.8
-20656.8
-20704.4
-20740.9
-20779.9
-20827.3
-20862.4
-20903.6
-20950.2
-20984.5
-21027.8
-21073.2
-21107.1
-21152.3
-21196.3
-21230.3
-21277.1
-21319.6
-21354.1
-21402.2
-21443.1
-21478.5
-21527.5
-21567
-21603.4
-21653
-21691.2
-21728.8
-21778.8
-21815.9
-21854.7
-21904.7
-21940.9
-21980.9
-22030.9
-22066.4
-22107.6
-22157.4
-22192.3
-22234.5
-22284.1
-22318.7
-22361.9
-22411.1
-22445.5
-22489.5
-22538.5
-22572.7
-22617.5
-22666.1
-22700.3
-22745.8
-22794.1
-22828.4
-22874.3
-22922.5
-22956.9
-23003.2
-23051.2
-23085.7
-23132.4
-23180.3
-23215
-23261.9
-23309.8
-23344.7
-23391.7
-23439.7
-23474.7
-23521.8
-23570
-23605.1
-23652.1
-23700.7
-23736
-23782.8
-23831.7
-23867.2
-23913.7
-23963.1
-23998.8
-24044.9
-24094.9
-24130.8
-24176.4
-24227.1
-24263.3
-24308.2
-24359.6
-24396.2
-24440.3
-24492.4
-24529.5
-24572.7
-24625.4
-24663.4
-24705.4
-24758.7
-24797.8
-24838.5
-24892.2
-24932.7
-24972.1
-25025.9
-25068
-25106.1
-25159.7
-25203.7
-25240.7
-25293.6
-25339.7
-25375.9
-25427.7
-25475.9
-25511.8
-25562
-25612.4
-25648.3
-25696.5
-25748.9
-25785.5
-25831.5
-25885.4
-25923.4
-25966.9
-26021.8
-26061.8
-26103
-26158.2
-26200.6
-26239.8
-26294.5
-26339.8
-26377.5
-26430.8
-26479.1
-26515.9
-26567.3
-26618.4
-26655.3
-26704.2
-26757.6
-26795.5
-26841.5
-26896.5
-26936.4
-26979.4
-27035.1
-27077.9
-27118.2
-27173.6
-27219.7
-27258
-27311.9
-27361.5
-27398.9
-27450.3
-27503
-27541
-27588.9
-27644.2
-27684
-27728.3
-27784.8
-27827.8
-27868.7
-27924.9
-27971.9
-28010.4
-28064.7
-28115.8
-28153.6
-28204.5
-28259.1
-28298.2
-28344.8
-28401.7
-28443.8
-28486.2
-28543.4
-28589.8
-28629.2
-28684.5
-28735.6
-28774
-28825.5
-28880.6
-28920.4
-28967.2
-29024.6
-29067.7
-29110.2
-29167.6
-29215.4
-29255
-29309.9
-29362.6
-29401.8
-29452.2
-29508.8
-29550.1
-29595.6
-29653.6
-29699.3
-29740.7
-29797.4
-29848.3
-29888
-29940.8
-29996.4
-30037.3
-30084.8
-30143
-30187.8
-30230.6
-30288.1
-30338.4
-30378.8
-30432.6
-30488
-30529.2
-30577.6
-30635.9
-30680.9
-30724.5
-30782.2
-30832.7
-30873.8
-30927.8
-30983.5
-31025.5
-31074
-31132.5
-31178.4
-31222.2
-31279.8
-31331.4
-31372.9
-31426.5
-31483.1
-31526.1
-31573.9
-31632.9
-31680.5
-31723.7
-31780.8
-31834.5
-31876.4
-31928.4
-31986.7
-32031.5
-32077.5
-32136.5
-32187.1
-32229.6
-32285
-32341.5
-32384.7
-32434
-32493.4
-32541.5
-32585.5
-32643.2
-32697.6
-32740.5
-32792.7
-32851.5
-32897.9
-32944
-33002.9
-33055.4
-33098.7
-33153.3
-33211.1
-33256.4
-33304.8
-33364.2
-33415.1
-33459.3
-33515.6
-33572.3
-33617.2
-33667.5
-33727
-33776.7
-33822.2
-33879.6
-33935.4
-33980.2
-34032.1
-34091.6
-34140.5
-34187
-34245.3
-34300.5
-34345.4
-34398.4
-34458
-34506.5
-34553.8
-34612.6
-34667.7
-34712.8
-34766.4
-34826.2
-34874.8
-34922.4
-34981.6
-35036.9
-35082.4
-35136.1
-35196.2
-35245.3
-35293
-35352.3
-35408.2
-35454.1
-35507.6
-35567.9
-35618
-35665.7
-35724.6
-35781.3
-35828
-35880.9
-35941.4
-35992.8
-36040.4
-36098.7
-36156.3
-36204
-36256.3
-36316.6
-36369.4
-36417.2
-36474.7
-36533.2
-36581.9
-36633.6
-36693.8
-36747.9
-36796
-36852.6
-36911.9
-36961.8
-37012.9
-37072.8
-37128.4
-37176.8
-37232.4
-37292.6
-37343.9
-37394.1
-37453.5
-37511
-37559.8
-37613.9
-37674.9
-37728.2
-37777.5
-37835.8
-37895.2
-37945.3
-37997.5
-38058.4
-38114.4
-38163.5
-38219.8
-38280.7
-38333.1
-38383.7
-38443.4
-38502
-38552.2
-38606.1
-38667.2
-38722.6
-38772.7
-38830.2
-38890.6
-38943
-38995.3
-39055.3
-39113.2
-39164.3
-39219.7
-39280.5
-39335.4
-39387
-39445.5
-39505.2
-39557.8
-39611.5
-39672
-39729.3
-39781.1
-39837.7
-39898.6
-39953.4
-40005.8
-40065.2
-40124.9
-40177.7
-40232.1
-40293.2
-40350.9
-40402.9
-40460
-40521.4
-40576.8
-40629.4
-40688.9
-40749.4
-40803
-40857.4
-40918.5
-40977.3
-41030.1
-41086.7
-41148.4
-41205.1
-41258.2
-41317.1
-41378.3
-41433.4
-41487.7
-41548.3
-41608.2
-41662.2
-41718.4
-41780
-41838.2
-41892
-41950.3
-42011.9
-42068.4
-42123
-42183
-42243.9
-42299.1
-42355.1
-42416.4
-42475.9
-42530.6
-42588.2
-42650.2
-42708.2
-42763
-42822.4
-42884.2
-42941
-42996.4
-43057.3
-43118.5
-43174.2
-43230.8
-43292.8
-43353.1
-43408.2
-43466.2
-43528.8
-43587.9
-43643
-43702.5
-43765.2
-43823.2
-43878.8
-43939.5
-44001.9
-44059.1
-44115.5
-44177.3
-44239
-44295.6
-44353.1
-44415.6
-44476.4
-44532.8
-44591.6
-44654.4
-44714.3
-44770.8
-44830.8
-44893.6
-44952.7
-45009.7
-45070.7
-45133.3
-45191.7
-45249.3
-45311.3
-45373.4
-45431.3
-45489.8
-45552.5
-45614
-45671.6
-45731
-45794.2
-45855.1
-45912.6
-45973
-46036.5
-46096.7
-46154.4
-46215.6
-46279.2
-46339
-46396.9
-46458.9
-46522.5
-46581.9
-46640.2
-46702.9
-46766.2
-46825.4
-46884.3
-46947.4
-47010.5
-47069.6
-47129.1
-47192.6
-47255.3
-47314.4
-47374.6
-47438.4
-47500.7
-47559.9
-47620.8
-47684.7
-47746.7
-47806
-47867.7
-47931.7
-47993.3
-48052.8
-48115.1
-48179.3
-48240.5
-48300.3
-48363.1
-48427.4
-48488.4
-48548.4
-48611.8
-48676.1
-48737
-48797.2
-48861
-48925.4
-48986.3
-49046.8
-49110.8
-49175.3
-49236.2
-49297
-49361.3
-49425.7
-49486.8
-49547.8
-49612.4
-49676.7
-49737.9
-49799.4
-49864
-49928.4
-49989.7
-50051.6
-50116.4
-50180.7
-50242.2
-50304.4
-50369.4
-50433.6
-50495.3
-50557.8
-50623
-50687.2
-50748.9
-50811.8
-50877.1
-50941.5
-51003.3
-51066.4
-51132
-51196.3
-51258.3
-51321.6
-51387.4
-51451.8
-51514
-51577.5
-51643.4
-51708
-51770.3
-51833.9
-51900
-51964.8
-52027.3
-52091
-52157.2
-52222.3
-52284.9
-52348.8
-52415
-52480.3
-52543.2
-52607.2
-52673.5
-52739
-52802.2
-52866.2
-52932.6
-52998.2
-53061.7
-53125.9
-53192.3
-53258.1
-53321.9
-53386.2
-53452.7
-53518.7
-53582.6
-53647.1
-53713.7
-53779.9
-53844
-53908.6
-53975.4
-54041.7
-54106
-54170.6
-54237.6
-54304.3
-54368.7
-54433.4
-54500.3
-54567.4
-54632.2
-54696.8
-54763.7
-54831.1
-54896.3
-54960.9
-55027.7
-55095.3
-55161
-55225.7
-55292.4
-55360.1
-55426.2
-55491.2
-55557.8
-55625.6
-55692
-55757.3
-55823.9
-55891.7
-55958.4
-56024
-56090.6
-56158.5
-56225.4
-56291.2
-56357.9
-56426
-56493.2
-56559
-56625.7
-56694.1
-56761.6
-56827.5
-56894.2
-56962.6
-57030.7
-57096.8
-57163.3
-57231.7
-57300.3
-57366.9
-57433.2
-57501.4
-57570.3
-57637.5
-57703.9
-57771.8
-57840.9
-57908.7
-57975.3
-58043
-58112
-58180.2
-58247.3
-58315
-58383.9
-58452.4
-58519.7
-58587.6
-58656.6
-58725.3
-58792.8
-58860.7
-58929.9
-58998.8
-59066.5
-59134.4
-59203.7
-59273.1
-59341
-59408.7
-59478
-59547.8
-59616.2
-59683.8
-59752.8
-59823
-59892
-59959.8
-60028.5
-60098.7
-60168.3
-60236.5
-60304.9
-60374.9
-60445
-60513.7
-60582.2
-60651.9
-60722.2
-60791.5
-60860.1
-60929.7
-61000.1
-61069.7
-61138.6
-61208.3
-61278.7
-61348.5
-61417.6
-61487.4
-61558
-61628.1
-61697.3
-61767
-61837.8
-61908.4
-61977.7
-62047.2
-62118.1
-62189.2
-62259
-62328.3
-62398.9
-62470.3
-62540.8
-62610.2
-62680.4
-62751.9
-62823.1
-62893
-62962.9
-63034.2
-63105.7
-63176.2
-63246.2
-63317.2
-63388.9
-63459.8
-63530.2
-63601
-63672.7
-63744
-63814.6
-63885.6
-63957.3
-64028.8
-64099.6
-64170.6
-64242.5
-64314.3
-64385.3
-64456.3
-64528.2
-64600.4
-64671.8
-64742.7
-64814.4
-64887
-64959
-65030
-65101.4
-65174
-65246.5
-65318.1
-65389.3
-65461.5
-65534.4
-65606.6
-65678
-65750
-65822.9
-65895.5
-65967.4
-66039.3
-66112
-66184.9
-66257.2
-66329.2
-66401.9
-66475
-66547.6
-66619.8
-66692.5
-66765.7
-66838.6
-66910.9
-66983.6
-67057.1
-67130.3
-67202.8
-67275.4
-67348.8
-67422.6
-67495.5
-67568
-67641.2
-67715.2
-67788.8
-67861.5
-67934.4
-68008.3
-68082.3
-68155.6
-68228.5
-68302.1
-68376.3
-68450.1
-68523.4
-68596.8
-68671
-68745.1
-68818.7
-68892.3
-68966.4
-69040.7
-69114.6
-69188.3
-69262.4
-69337
-69411.2
-69484.9
-69559
-69633.8
-69708.4
-69782.4
-69856.3
-69931.1
-70006.1
-70080.6
-70154.5
-70229
-70304.2
-70379.2
-70453.5
-70527.8
-70602.8
-70678.2
-70753.1
-70827.5
-70902.3
-70977.7
-71053
-71127.8
-71202.6
-71278
-71353.4
-71428.6
-71503.5
-71578.9
-71654.6
-71730
-71805
-71880.4
-71956.3
-72032.1
-72107.3
-72182.6
-72258.5
-72334.7
-72410.4
-72485.6
-72561.3
-72637.7
-72713.9
-72789.5
-72865
-72941.2
-73017.7
-73093.9
-73169.6
-73245.6
-73322.1
-73398.7
-73474.8
-73550.8
-73627.3
-73704
-73780.4
-73856.7
-73933.1
-74010
-74086.7
-74163.1
-74239.6
-74316.5
-74393.6
-74470.3
-74546.8
-74623.7
-74701
-74778
-74854.7
-74931.5
-75008.8
-75086.3
-75163.4
-75240.2
-75317.3
-75395
-75472.6
-75549.6
-75626.7
-75704.3
-75782.1
-75859.7
-75936.9
-76014.3
-76092.2
-76170.1
-76247.7
-76325.2
-76403
-76481.1
-76559
-76636.7
-76714.6
-76792.8
-76870.9
-76948.8
-77026.8
-77105
-77183.5
-77261.7
-77339.6
-77417.9
-77496.5
-77575.1
-77653.3
-77731.5
-77810.1
-77889
-77967.6
-78045.9
-78124.3
-78203.3
-78282.3
-78361
-78439.5
-78518.3
-78597.5
-78676.6
-78755.4
-78834.1
-78913.3
-78992.6
-79071.7
-79150.7
-79229.8
-79309.3
-79388.7
-79467.9
-79547.1
-79626.6
-79706.2
-79785.7
-79865
-79944.5
-80024.4
-80104.1
-80183.7
-80263.1
-80343
-80423.1
-80503
-80582.6
-80662.3
-80742.5
-80822.7
-80902.7
-80982.5
-81062.6
-81143
-81223.3
-81303.5
-81383.5
-81463.9
-81544.4
-81624.9
-81705.1
-81785.5
-81866.1
-81946.8
-82027.4
-82107.8
-82188.5
-82269.4
-82350.2
-82430.8
-82511.6
-82592.5
-82673.6
-82754.5
-82835.3
-82916.3
-82997.5
-83078.8
-83159.8
-83240.7
-83322
-83403.5
-83484.9
-83566
-83647.2
-83728.8
-83810.5
-83892
-83973.3
-84054.8
-84136.5
-84218.4
-84300
-84381.6
-84463.3
-84545.3
-84627.2
-84709
-84790.9
-84872.9
-84955
-85037
-85119
-85201.1
-85283.4
-85365.7
-85447.9
-85530
-85612.4
-85695
-85777.4
-85859.7
-85942
-86024.7
-86107.5
-86190.1
-86272.5
-86355
-86437.9
-86520.9
-86603.7
-86686.3
-86769.1
-86852.1
-86935.3
-87018.2
-87101.1
-87184.2
-87267.4
-87350.6
-87433.8
-87516.9
-87600.3
-87683.6
-87767
-87850.2
-87933.7
-88017.3
-88100.9
-88184.3
-88267.8
-88351.5
-88435.3
-88519.1
-88602.7
-88686.3
-88770.2
-88854.3
-88938.3
-89022.1
-89105.9
-89190
-89274.3
-89358.4
-89442.4
-89526.5
-89610.8
-89695.2
-89779.5
-89863.8
-89948.1
-90032.6
-90117.1
-90201.6
-90286.1
-90370.7
-90455.4
-90540
-90624.6
-90709.3
-90794.3
-90879.2
-90964
-91048.7
-91133.6
-91218.7
-91303.9
-91388.9
-91473.8
-91558.9
-91644.2
-91729.6
-91814.8
-91900
-91985.2
-92070.7
-92156.2
-92241.7
-92327.1
-92412.6
-92498.2
-92583.8
-92669.5
-92755.2
-92841
-92926.8
-93012.5
-93098.3
-93184.2
-93270.3
-93356.3
-93442.2
-93528.1
-93614.2
-93700.5
-93786.8
-93872.9
-93959
-94045.2
-94131.7
-94218.3
-94304.6
-94390.9
-94477.3
-94563.9
-94650.6
-94737.3
-94823.8
-94910.5
-94997.2
-95084
-95170.8
-95257.7
-95344.6
-95431.5
-95518.4
-95605.3
-95692.4
-95779.7
-95866.9
-95953.9
-96041
-96128.2
-96215.6
-96303.1
-96390.4
-96477.6
-96565
-96652.6
-96740.3
-96827.9
-96915.3
-97002.9
-97090.6
-97178.4
-97266.2
-97354
-97441.8
-97529.7
-97617.6
-97705.5
-97793.6
-97881.7
-97969.8
-98057.8
-98145.9
-98234.1
-98322.5
-98410.9
-98499.1
-98587.3
-98675.7
-98764.2
-98852.8
-98941.4
-99029.8
-99118.3
-99207
-99295.8
-99384.6
-99473.3
-99562
-99650.8
-99739.7
-99828.7
-99917.7
-100007
-100096
-100185
-100274
-100363
-100452
-100542
-100631
-100720
-100809
-100899
-100988
-101078
-101167
-101257
-101346
-101436
-101526
-101616
-101705
-101795
-101885
-101975
-102065
-102155
-102245
-102335
-102425
-102515
-102605
-102695
-102786
-102876
-102966
-103056
-103147
-103237
-103328
-103418
-103509
-103599
-103690
-103781
-103872
-103962
-104053
-104144
-104235
-104326
-104417
-104508
-104599
-104690
-104781
-104872
-104963
-105055
-105146
-105237
-105329
-105420
-105511
-105603
-105694
-105786
-105878
-105969
-106061
-106153
-106244
-106336
-106428
-106520
-106612
-106704
-106796
-106888
-106980
-107072
-107164
-107257
-107349
-107441
-107533
-107626
-107718
-107811
-107903
-107996
-108088
-108181
-108274
-108366
-108459
-108552
-108644
-108737
-108830
-108923
-109016
-109109
-109202
-109295
-109389
-109482
-109575
-109668
-109762
-109855
-109948
-110042
-110135
-110229
-110322
-110416
-110509
-110603
-110697
-110791
-110884
-110978
-111072
-111166
-111260
-111354
-111448
-111542
-111636
-111730
-111824
-111919
-112013
-112107
-112202
-112296
-112390
-112485
-112580
-112674
-112769
-112863
-112958
-113053
-113148
-113242
-113337
-113432
-113527
-113622
-113717
-113812
-113907
-114002
-114097
-114193
-114288
-114383
-114479
-114574
-114669
-114765
-114860
-114956
-115052
-115147
-115243
-115338
-115434
-115530
-115626
-115722
-115818
-115914
-116010
-116106
-116202
-116298
-116394
-116490
-116586
-116683
-116779
-116875
-116972
-117068
-117165
-117261
-117358
-117454
-117551
-117648
-117745
-117841
-117938
-118035
-118132
-118229
-118326
-118423
-118520
-118617
-118714
-118811
-118909
-119006
-119103
-119200
-119298
-119395
-119493
-119590
-119688
-119785
-119883
-119981
-120079
-120176
-120274
-120372
-120470
-120568
-120666
-120764
-120862
-120960
-121058
-121156
-121255
-121353
-121451
-121550
-121648
-121746
-121845
-121943
-122042
-122141
-122239
-122338
-122437
-122535
-122634
-122733
-122832
-122931
-123030
-123129
-123228
-123327
-123426
-123525
-123625
-123724
-123823
-123923
-124022
-124122
-124221
-124320
-124420
-124520
-124619
-124719
-124819
-124919
-125018
-125118
-125218
-125318
-125418
-125518
-125618
-125718
-125819
-125919
-126019
-126119
-126220
-126320
-126420
-126521
-126621
-126722
-126823
-126923
-127024
-127124
-127225
-127326
-127427
-127528
-127629
-127730
-127831
-127932
-128033
-128134
-128235
-128336
-128438
-128539
-128640
-128742
-128843
-128945
-129046
-129148
-129249
-129351
-129453
-129555
-129656
-129758
-129860
-129962
-130064
-130166
-130268
-130370
-130472
-130574
-130677
-130779
-130881
-130983
-131086
-131188
-131291
-131393
-131496
-131598
-131701
-131804
-131906
-132009
-132112
-132215
-132318
-132421
-132524
-132627
-132730
-132833
-132936
-133040
-133143
-133246
-133349
-133453
-133556
-133660
-133763
-133867
-133970
-134074
-134178
-134282
-134385
-134489
-134593
-134697
-134801
-134905
-135009
-135113
-135217
-135321
-135426
-135530
-135634
-135739
-135843
-135948
-136052
-136157
-136261
-136366
-136471
-136575
-136680
-136785
-136890
-136995
-137100
-137205
-137310
-137415
-137520
-137625
-137730
-137835
-137941
-138046
-138152
-138257
-138362
-138468
-138574
-138679
-138785
-138891
-138996
-139102
-139208
-139314
-139420
-139526
-139632
-139738
-139844
-139950
-140056
-140163
-140269
-140375
-140482
-140588
-140695
-140801
-140908
-141015
-141121
-141228
-141335
-141441
-141548
-141655
-141762
-141869
-141976
-142083
-142191
-142298
-142405
-142512
-142620
-142727
-142834
-142942
-143049
-143157
-143265
-143372
-143480
-143588
-143695
-143803
-143911
-144019
-144127
-144235
-144343
-144451
-144560
-144668
-144776
-144884
-144993
-145101
-145210
-145318
-145427
-145535
-145644
-145753
-145861
-145970
-146079
-146188
-146297
-146406
-146515
-146624
-146733
-146842
-146952
-147061
-147170
-147280
-147389
-147499
-147608
-147718
-147827
-147937
-148047
-148156
-148266
-148376
-148486
-148596
-148706
-148816
-148926
-149036
-149147
-149257
-149367
-149478
-149588
-149699
-149809
-149920
-150030
-150141
-150252
-150362
-150473
-150584
-150695
-150806
-150917
-151028
-151139
-151250
-151362
-151473
-151584
-151696
-151807
-151919
-152030
-152142
-152253
-152365
-152477
-152589
-152700
-152812
-152924
-153036
-153148
-153260
-153373
-153485
-153597
-153709
-153822
-153934
-154047
-154159
-154272
-154384
-154497
-154610
-154723
-154835
-154948
-155061
-155174
-155287
-155400
-155514
-155627
-155740
-155853
-155967
-156080
-156194
-156307
-156421
-156535
-156648
-156762
-156876
-156990
-157104
-157218
-157332
-157446
-157560
-157674
-157788
-157903
-158017
-158132
-158246
-158361
-158475
-158590
-158705
-158819
-158934
-159049
-159164
-159279
-159394
-159509
-159624
-159740
-159855
-159970
-160086
-160201
-160317
-160432
-160548
-160663
-160779
-160895
-161011
-161127
-161243
-161359
-161475
-161591
-161707
-161823
-161940
-162056
-162173
-162289
-162406
-162522
-162639
-162756
-162873
-162989
-163106
-163223
-163340
-163457
-163575
-163692
-163809
-163927
-164044
-164161
-164279
-164397
-164514
-164632
-164750
-164868
-164985
-165103
-165221
-165340
-165458
-165576
-165694
-165813
-165931
-166049
-166168
-166287
-166405
-166524
-166643
-166762
-166881
-167000
-167119
-167238
-167357
-167476
-167596
-167715
-167834
-167954
-168074
-168193
-168313
-168433
-168553
-168673
-168792
-168913
-169033
-169153
-169273
-169394
-169514
-169634
-169755
-169876
-169996
-170117
-170238
-170359
-170480
-170601
-170722
-170843
-170965
-171086
-171207
-171329
-171450
-171572
-171694
-171816
-171937
-172059
-172182
-172304
-172426
-172548
-172670
-172793
-172915
-173038
-173161
-173283
-173406
-173529
-173652
-173775
-173898
-174021
-174144
-174268
-174391
-174515
-174638
-174762
-174886
-175010
-175134
-175258
-175382
-175506
-175630
-175754
-175879
-176003
-176128
-176252
-176377
-176502
-176627
-176752
-176877
-177002
-177127
-177253
-177378
-177504
-177629
-177755
-177881
-178006
-178132
-178258
-178384
-178511
-178637
-178763
-178890
-179016
-179143
-179270
-179396
-179523
-179650
-179777
-179904
-180032
-180159
-180287
-180414
-180542
-180669
-180797
-180925
-181053
-181181
-181310
-181438
-181566
-181695
-181823
-181952
-182081
-182210
-182339
-182468
-182597
-182726
-182855
-182985
-183114
-183244
-183374
-183504
-183634
-183764
-183894
-184024
-184154
-184285
-184416
-184546
-184677
-184808
-184939
-185070
-185201
-185333
-185464
-185596
-185727
-185859
-185991
-186123
-186255
-186387
-186520
-186652
-186785
-186918
-187050
-187183
-187316
-187449
-187583
-187716
-187850
-187983
-188117
-188251
-188385
-188519
-188653
-188788
-188922
-189057
-189192
-189326
-189461
-189597
-189732
-189867
-190003
-190138
-190274
-190410
-190546
-190682
-190819
-190955
-191092
-191228
-191365
-191502
-191639
-191777
-191914
-192052
-192189
-192327
-192465
-192603
-192741
-192880
-193018
-193157
-193296
-193435
-193574
-193713
-193853
-193992
-194132
-194272
-194412
-194552
-194692
-194833
-194974
-195114
-195255
-195397
-195538
-195679
-195821
-195963
-196105
-196247
-196389
-196532
-196674
-196817
-196960
-197103
-197246
-197390
-197533
-197677
-197821
-197965
-198110
-198254
-198399
-198544
-198689
-198834
-198980
-199125
-199271
-199417
-199563
-199710
-199856
-200003
-200150
-200297
-200444
-200592
-200740
-200888
-201036
-201184
-201333
-201482
-201630
-201780
-201929
-202079
-202228
-202378
-202529
-202679
-202830
-202981
-203132
-203283
-203434
-203586
-203738
-203890
-204043
-204196
-204348
-204502
-204655
-204808
-204962
-205116
-205271
-205425
-205580
-205735
-205890
-206046
-206202
-206358
-206514
-206671
-206827
-206984
-207142
-207299
-207457
-207615
-207774
-207932
-208091
-208251
-208410
-208570
-208730
-208890
-209051
-209211
-209373
-209534
-209696
-209858
-210020
-210183
-210346
-210509
-210673
-210836
-211001
-211165
-211330
-211495
-211660
-211826
-211992
-212158
-212325
-212492
-212660
-212827
-212995
-213164
-213332
-213501
-213671
-213841
-214011
-214181
-214352
-214523
-214695
-214867
-215039
-215212
-215385
-215558
-215732
-215906
-216081
-216256
-216431
-216607
-216783
-216960
-217137
-217315
-217492
-217671
-217850
-218029
-218208
-218389
-218569
-218750
-218932
-219114
-219297
-219481
-219644
-219795
-219930
-220084
-220286
-220513
-220689
-220900
-221093
-221281
-221476
-221661
-221853
-222041
-222231
-222420
-222610
-222801
-222991
-223182
-223374
-223566
-223758
-223951
-224145
-224339
-224534
-224729
-224925
-225121
-225318
-225515
-225713
-225911
-226110
-226309
-226509
-226709
-226911
-227112
-227314
-227517
-227721
-227925
-228129
-228334
-228540
-228746
-228953
-229161
-229369
-229577
-229787
-229997
-230208
-230419
-230630
-230843
-231056
-231270
-231484
-231699
-231915
-232131
-232348
-232566
-232784
-233003
-233223
-233443
-233664
-233886
-234108
-234331
-234555
-234780
-235005
-235231
-235458
-235685
-235913
-236142
-236372
-236602
-236833
-237065
-237298
-237531
-237765
-238000
-238236
-238472
-238710
-238948
-239187
-239426
-239666
-239908
-240150
-240393
-240636
-240881
-241126
-241372
-241619
-241867
-242115
-242365
-242615
-242866
-243119
-243372
-243625
-243880
-244136
-244392
-244649
-244907
-245166
-245426
-245687
-245949
-246212
-246475
-246740
-247005
-247271
-247539
-247807
-248076
-248346
-248617
-248889
-249162
-249436
-249710
-249986
-250263
-250540
-250819
-251098
-251379
-251660
-251943
-252226
-252511
-252796
-253082
-253370
-253658
-253947
-254238
-254529
-254821
-255114
-255409
-255704
-256000
-256297
-256595
-256895
-257195
-257496
-257798
-258101
-258405
-258711
-259017
-259324
-259632
-259941
-260251
-260562
-260874
-261187
-261501
-261816
-262132
-262449
-262767
-263086
-263406
-263727
-264049
-264371
-264695
-265020
-265345
-265672
-265999
-266327
-266657
-266987
-267318
-267650
-267983
-268317
-268651
-268987
-269323
-269661
-269999
-270338
-270677
-271018
-271360
-271702
-272045
-272389
-272733
-273079
-273425
-273772
-274120
-274468
-274817
-275167
-275517
-275868
-276220
-276573
-276926
-277279
-277634
-277989
-278344
-278700
-279057
-279414
-279772
-280130
-280489
-280848
-281207
-281567
-281928
-282289