/*--------------------------------*- C++ -*----------------------------------*\
  =========                 |
  \\      /  F ield         | OpenFOAM: The Open Source CFD Toolbox
   \\    /   O peration     | Website:  https://openfoam.org
    \\  /    A nd           | Version:  9
     \\/     M anipulation  |
\*---------------------------------------------------------------------------*/
FoamFile
{
    format      ascii;
    class       volScalarField;
    location    "0.034";
    object      ddt0(p);
}
// * * * * * * * * * * * * * * * * * * * * * * * * * * * * * * * * * * * * * //

dimensions      [1 -1 -3 0 0 0 0];

internalField   nonuniform List<scalar> 
10000
(
-798052
-798043
-798036
-798030
-798023
-798017
-798010
-798004
-797998
-797992
-797985
-797979
-797972
-797966
-797960
-797953
-797947
-797941
-797934
-797928
-797921
-797915
-797909
-797902
-797896
-797890
-797884
-797878
-797871
-797865
-797858
-797851
-797844
-797838
-797831
-797825
-797819
-797812
-797806
-797799
-797793
-797786
-797780
-797774
-797767
-797761
-797754
-797748
-797741
-797734
-797728
-797722
-797716
-797709
-797703
-797697
-797690
-797683
-797676
-797669
-797663
-797657
-797650
-797644
-797637
-797630
-797624
-797617
-797611
-797604
-797597
-797591
-797584
-797578
-797571
-797565
-797558
-797551
-797545
-797539
-797532
-797526
-797519
-797512
-797505
-797498
-797492
-797486
-797479
-797472
-797465
-797459
-797452
-797446
-797439
-797432
-797426
-797419
-797412
-797406
-797399
-797392
-797386
-797379
-797372
-797366
-797359
-797353
-797346
-797339
-797331
-797324
-797319
-797312
-797305
-797299
-797292
-797285
-797278
-797271
-797265
-797258
-797252
-797244
-797238
-797231
-797223
-797218
-797211
-797203
-797197
-797191
-797184
-797176
-797168
-797161
-797155
-797148
-797142
-797135
-797128
-797122
-797115
-797108
-797101
-797095
-797088
-797081
-797074
-797067
-797060
-797054
-797046
-797039
-797032
-797026
-797019
-797012
-797005
-796997
-796990
-796983
-796976
-796970
-796963
-796956
-796949
-796942
-796935
-796928
-796922
-796915
-796908
-796901
-796894
-796887
-796880
-796873
-796866
-796859
-796852
-796845
-796838
-796831
-796824
-796817
-796809
-796802
-796795
-796788
-796781
-796774
-796767
-796760
-796753
-796746
-796739
-796732
-796725
-796718
-796711
-796704
-796697
-796690
-796683
-796676
-796669
-796662
-796655
-796648
-796641
-796634
-796626
-796619
-796612
-796604
-796597
-796590
-796583
-796576
-796569
-796562
-796555
-796547
-796540
-796533
-796526
-796519
-796512
-796505
-796497
-796490
-796483
-796476
-796469
-796462
-796455
-796448
-796440
-796433
-796426
-796418
-796411
-796404
-796396
-796389
-796382
-796375
-796367
-796360
-796353
-796346
-796339
-796331
-796324
-796317
-796309
-796302
-796295
-796287
-796280
-796273
-796266
-796259
-796251
-796244
-796237
-796229
-796222
-796214
-796207
-796200
-796192
-796185
-796178
-796170
-796163
-796156
-796148
-796141
-796134
-796126
-796119
-796112
-796104
-796097
-796089
-796082
-796075
-796067
-796060
-796052
-796045
-796038
-796030
-796023
-796015
-796008
-796000
-795993
-795985
-795978
-795971
-795963
-795956
-795948
-795941
-795933
-795926
-795918
-795911
-795903
-795896
-795888
-795881
-795873
-795866
-795858
-795851
-795843
-795836
-795828
-795821
-795813
-795805
-795798
-795790
-795783
-795775
-795768
-795760
-795753
-795745
-795738
-795730
-795723
-795715
-795707
-795700
-795692
-795685
-795677
-795669
-795662
-795654
-795647
-795639
-795631
-795624
-795616
-795608
-795600
-795593
-795585
-795577
-795570
-795562
-795554
-795547
-795539
-795532
-795524
-795516
-795509
-795501
-795493
-795486
-795478
-795470
-795463
-795455
-795447
-795440
-795432
-795424
-795416
-795409
-795401
-795393
-795385
-795377
-795369
-795362
-795354
-795346
-795338
-795330
-795323
-795315
-795307
-795300
-795292
-795284
-795276
-795269
-795261
-795253
-795245
-795237
-795230
-795222
-795214
-795206
-795198
-795190
-795183
-795175
-795167
-795159
-795151
-795143
-795135
-795127
-795119
-795111
-795103
-795095
-795088
-795080
-795072
-795064
-795056
-795048
-795040
-795033
-795025
-795017
-795009
-795001
-794993
-794985
-794977
-794969
-794961
-794953
-794945
-794937
-794929
-794921
-794913
-794905
-794897
-794889
-794881
-794873
-794865
-794857
-794849
-794841
-794833
-794825
-794817
-794809
-794801
-794793
-794785
-794777
-794769
-794761
-794753
-794745
-794737
-794729
-794721
-794713
-794705
-794696
-794688
-794680
-794672
-794664
-794656
-794647
-794639
-794631
-794623
-794615
-794607
-794599
-794591
-794582
-794574
-794566
-794558
-794550
-794542
-794534
-794526
-794518
-794509
-794501
-794493
-794485
-794477
-794469
-794460
-794452
-794444
-794436
-794427
-794419
-794411
-794402
-794394
-794386
-794378
-794370
-794361
-794353
-794345
-794336
-794328
-794320
-794312
-794303
-794295
-794287
-794279
-794271
-794262
-794254
-794246
-794237
-794229
-794221
-794212
-794204
-794196
-794187
-794179
-794171
-794162
-794154
-794146
-794137
-794129
-794121
-794112
-794104
-794095
-794087
-794079
-794070
-794062
-794054
-794045
-794037
-794028
-794020
-794012
-794003
-793995
-793986
-793978
-793970
-793961
-793953
-793944
-793936
-793927
-793919
-793910
-793902
-793893
-793885
-793876
-793868
-793860
-793851
-793843
-793834
-793826
-793817
-793809
-793800
-793792
-793783
-793775
-793766
-793757
-793749
-793740
-793732
-793723
-793715
-793706
-793698
-793689
-793680
-793672
-793663
-793655
-793646
-793638
-793629
-793620
-793612
-793603
-793595
-793586
-793577
-793569
-793560
-793552
-793543
-793534
-793526
-793517
-793508
-793500
-793491
-793482
-793474
-793465
-793457
-793448
-793439
-793430
-793422
-793413
-793404
-793396
-793387
-793378
-793369
-793361
-793352
-793343
-793335
-793326
-793317
-793309
-793300
-793291
-793282
-793274
-793265
-793256
-793247
-793239
-793230
-793221
-793212
-793204
-793195
-793186
-793177
-793168
-793159
-793151
-793142
-793133
-793124
-793115
-793106
-793098
-793089
-793080
-793071
-793062
-793053
-793045
-793036
-793027
-793018
-793009
-793001
-792992
-792983
-792974
-792965
-792956
-792947
-792938
-792929
-792921
-792912
-792903
-792894
-792885
-792876
-792867
-792858
-792849
-792840
-792831
-792822
-792813
-792804
-792795
-792786
-792777
-792768
-792759
-792750
-792741
-792732
-792723
-792714
-792705
-792697
-792688
-792679
-792670
-792660
-792651
-792642
-792633
-792624
-792615
-792606
-792597
-792588
-792579
-792570
-792561
-792552
-792542
-792533
-792524
-792515
-792506
-792497
-792488
-792479
-792470
-792461
-792452
-792443
-792433
-792424
-792415
-792406
-792397
-792388
-792379
-792369
-792360
-792351
-792342
-792333
-792324
-792315
-792305
-792295
-792287
-792277
-792269
-792259
-792250
-792241
-792231
-792222
-792213
-792203
-792195
-792185
-792176
-792167
-792157
-792148
-792139
-792130
-792121
-792111
-792102
-792093
-792084
-792075
-792065
-792056
-792047
-792037
-792028
-792019
-792009
-792000
-791990
-791981
-791973
-791962
-791953
-791944
-791935
-791924
-791916
-791906
-791897
-791887
-791877
-791871
-791860
-791850
-791840
-791832
-791822
-791812
-791804
-791794
-791784
-791775
-791766
-791756
-791747
-791737
-791729
-791718
-791709
-791700
-791690
-791681
-791671
-791662
-791652
-791642
-791634
-791624
-791614
-791606
-791594
-791586
-791576
-791568
-791557
-791548
-791538
-791529
-791520
-791510
-791501
-791491
-791481
-791472
-791462
-791453
-791443
-791432
-791425
-791414
-791405
-791394
-791387
-791376
-791366
-791357
-791347
-791338
-791328
-791319
-791308
-791300
-791290
-791279
-791270
-791260
-791251
-791242
-791233
-791221
-791211
-791203
-791193
-791184
-791174
-791164
-791154
-791145
-791135
-791125
-791116
-791106
-791096
-791086
-791077
-791067
-791058
-791048
-791038
-791028
-791018
-791009
-790999
-790990
-790980
-790970
-790960
-790950
-790941
-790931
-790921
-790911
-790901
-790891
-790882
-790872
-790862
-790852
-790843
-790833
-790823
-790813
-790803
-790793
-790783
-790774
-790765
-790754
-790745
-790734
-790724
-790715
-790705
-790695
-790686
-790675
-790666
-790656
-790645
-790635
-790626
-790616
-790606
-790596
-790586
-790576
-790566
-790556
-790546
-790537
-790527
-790516
-790507
-790497
-790487
-790477
-790467
-790457
-790447
-790437
-790427
-790417
-790407
-790397
-790387
-790377
-790367
-790357
-790347
-790337
-790327
-790317
-790307
-790297
-790287
-790277
-790266
-790256
-790247
-790236
-790226
-790216
-790206
-790196
-790186
-790176
-790166
-790156
-790146
-790136
-790126
-790115
-790105
-790095
-790085
-790075
-790065
-790054
-790044
-790034
-790024
-790014
-790004
-789993
-789983
-789973
-789963
-789953
-789943
-789933
-789922
-789912
-789902
-789892
-789881
-789871
-789861
-789851
-789841
-789831
-789820
-789810
-789800
-789789
-789779
-789769
-789759
-789749
-789738
-789728
-789718
-789707
-789697
-789687
-789676
-789666
-789656
-789645
-789635
-789625
-789614
-789604
-789594
-789583
-789573
-789563
-789552
-789542
-789532
-789522
-789511
-789501
-789491
-789480
-789470
-789459
-789449
-789439
-789428
-789418
-789407
-789397
-789386
-789376
-789366
-789355
-789345
-789334
-789324
-789314
-789303
-789292
-789282
-789272
-789261
-789251
-789240
-789230
-789219
-789209
-789198
-789188
-789177
-789167
-789156
-789146
-789135
-789125
-789114
-789104
-789093
-789083
-789072
-789062
-789051
-789041
-789030
-789020
-789009
-788998
-788988
-788977
-788966
-788956
-788945
-788935
-788924
-788914
-788903
-788892
-788882
-788871
-788860
-788850
-788839
-788828
-788818
-788807
-788796
-788786
-788775
-788765
-788754
-788743
-788733
-788722
-788711
-788701
-788690
-788679
-788668
-788658
-788647
-788636
-788626
-788615
-788604
-788593
-788583
-788572
-788561
-788551
-788540
-788529
-788518
-788507
-788496
-788486
-788475
-788464
-788453
-788443
-788432
-788421
-788410
-788399
-788389
-788378
-788367
-788356
-788345
-788335
-788324
-788313
-788302
-788291
-788280
-788270
-788259
-788248
-788237
-788226
-788215
-788204
-788193
-788182
-788172
-788161
-788150
-788139
-788128
-788117
-788106
-788095
-788084
-788073
-788062
-788051
-788040
-788029
-788018
-788007
-787996
-787986
-787975
-787963
-787953
-787942
-787931
-787920
-787909
-787898
-787887
-787876
-787865
-787853
-787843
-787832
-787820
-787809
-787798
-787787
-787776
-787765
-787754
-787743
-787732
-787721
-787710
-787699
-787688
-787676
-787665
-787654
-787643
-787632
-787621
-787610
-787599
-787587
-787576
-787565
-787554
-787543
-787532
-787521
-787509
-787498
-787487
-787476
-787465
-787454
-787442
-787431
-787420
-787409
-787398
-787386
-787375
-787364
-787353
-787342
-787330
-787319
-787308
-787297
-787285
-787274
-787263
-787251
-787240
-787229
-787218
-787206
-787195
-787184
-787172
-787161
-787150
-787139
-787127
-787116
-787105
-787093
-787082
-787071
-787059
-787048
-787037
-787025
-787014
-787003
-786991
-786980
-786968
-786957
-786946
-786934
-786923
-786912
-786900
-786889
-786877
-786866
-786854
-786843
-786832
-786820
-786809
-786797
-786786
-786774
-786763
-786752
-786740
-786729
-786717
-786706
-786694
-786683
-786671
-786660
-786648
-786637
-786625
-786614
-786602
-786591
-786579
-786567
-786556
-786544
-786533
-786521
-786510
-786498
-786487
-786475
-786464
-786452
-786440
-786429
-786417
-786406
-786394
-786382
-786371
-786359
-786348
-786336
-786324
-786313
-786301
-786289
-786278
-786266
-786254
-786243
-786231
-786220
-786208
-786196
-786184
-786173
-786161
-786149
-786138
-786126
-786114
-786102
-786091
-786079
-786067
-786056
-786044
-786032
-786020
-786009
-785997
-785985
-785973
-785962
-785950
-785938
-785926
-785914
-785903
-785891
-785879
-785867
-785855
-785844
-785832
-785820
-785808
-785796
-785785
-785773
-785761
-785749
-785737
-785725
-785713
-785702
-785690
-785678
-785666
-785654
-785642
-785630
-785618
-785606
-785594
-785583
-785571
-785559
-785547
-785535
-785523
-785511
-785499
-785487
-785475
-785463
-785451
-785439
-785427
-785415
-785403
-785391
-785379
-785367
-785355
-785343
-785331
-785319
-785307
-785295
-785283
-785271
-785259
-785247
-785235
-785223
-785211
-785199
-785187
-785175
-785163
-785150
-785138
-785126
-785114
-785102
-785090
-785078
-785066
-785054
-785041
-785029
-785017
-785005
-784993
-784981
-784969
-784956
-784944
-784932
-784920
-784908
-784896
-784884
-784871
-784859
-784847
-784835
-784823
-784810
-784798
-784786
-784774
-784761
-784749
-784737
-784725
-784712
-784700
-784688
-784676
-784663
-784651
-784639
-784626
-784614
-784602
-784590
-784577
-784565
-784553
-784540
-784528
-784516
-784503
-784491
-784479
-784466
-784454
-784442
-784429
-784417
-784404
-784392
-784380
-784367
-784355
-784343
-784330
-784318
-784305
-784293
-784281
-784268
-784256
-784243
-784231
-784218
-784206
-784194
-784181
-784169
-784156
-784144
-784131
-784119
-784106
-784094
-784081
-784069
-784056
-784044
-784031
-784019
-784006
-783994
-783981
-783968
-783956
-783943
-783931
-783918
-783906
-783893
-783881
-783868
-783855
-783843
-783830
-783818
-783805
-783792
-783780
-783767
-783755
-783742
-783729
-783717
-783704
-783691
-783679
-783666
-783653
-783641
-783628
-783615
-783603
-783590
-783577
-783565
-783552
-783539
-783526
-783514
-783501
-783488
-783476
-783463
-783450
-783437
-783425
-783412
-783399
-783386
-783374
-783361
-783348
-783335
-783322
-783310
-783297
-783284
-783271
-783258
-783246
-783233
-783220
-783207
-783194
-783181
-783169
-783156
-783143
-783130
-783117
-783104
-783091
-783079
-783066
-783053
-783040
-783027
-783014
-783001
-782988
-782975
-782962
-782949
-782936
-782923
-782910
-782898
-782885
-782872
-782859
-782846
-782833
-782820
-782807
-782794
-782781
-782768
-782755
-782742
-782729
-782716
-782703
-782690
-782677
-782664
-782650
-782637
-782624
-782611
-782598
-782585
-782572
-782559
-782546
-782533
-782520
-782507
-782493
-782480
-782467
-782454
-782441
-782428
-782415
-782401
-782388
-782375
-782362
-782349
-782336
-782322
-782309
-782296
-782283
-782270
-782256
-782243
-782230
-782217
-782204
-782190
-782177
-782164
-782151
-782137
-782124
-782111
-782098
-782084
-782071
-782058
-782045
-782031
-782018
-782005
-781991
-781978
-781965
-781951
-781938
-781925
-781911
-781898
-781885
-781871
-781858
-781845
-781831
-781818
-781804
-781791
-781778
-781764
-781751
-781737
-781724
-781711
-781697
-781684
-781670
-781657
-781643
-781630
-781616
-781603
-781590
-781576
-781563
-781549
-781536
-781522
-781509
-781495
-781482
-781468
-781455
-781441
-781427
-781414
-781400
-781387
-781373
-781360
-781346
-781333
-781319
-781305
-781292
-781278
-781265
-781251
-781237
-781224
-781210
-781197
-781183
-781169
-781156
-781142
-781128
-781115
-781101
-781087
-781074
-781060
-781046
-781033
-781019
-781005
-780992
-780978
-780964
-780950
-780937
-780923
-780909
-780895
-780882
-780868
-780854
-780840
-780827
-780813
-780799
-780785
-780771
-780758
-780744
-780730
-780716
-780702
-780689
-780675
-780661
-780647
-780633
-780619
-780606
-780592
-780578
-780564
-780550
-780536
-780522
-780508
-780494
-780481
-780467
-780453
-780439
-780425
-780411
-780397
-780383
-780369
-780355
-780341
-780327
-780313
-780299
-780285
-780271
-780257
-780243
-780229
-780215
-780201
-780187
-780173
-780159
-780145
-780131
-780117
-780103
-780089
-780075
-780060
-780046
-780032
-780018
-780004
-779990
-779976
-779962
-779948
-779933
-779919
-779905
-779891
-779877
-779863
-779849
-779834
-779820
-779806
-779792
-779778
-779763
-779749
-779735
-779721
-779706
-779692
-779678
-779664
-779649
-779635
-779621
-779607
-779592
-779578
-779564
-779549
-779535
-779521
-779507
-779492
-779478
-779464
-779449
-779435
-779421
-779406
-779392
-779377
-779363
-779349
-779334
-779320
-779306
-779291
-779277
-779262
-779248
-779234
-779219
-779205
-779190
-779176
-779161
-779147
-779132
-779118
-779103
-779089
-779074
-779060
-779045
-779031
-779016
-779002
-778987
-778973
-778958
-778944
-778929
-778915
-778900
-778885
-778871
-778856
-778842
-778827
-778812
-778798
-778783
-778769
-778754
-778739
-778725
-778710
-778695
-778681
-778666
-778651
-778637
-778622
-778607
-778593
-778578
-778563
-778549
-778534
-778519
-778504
-778490
-778475
-778460
-778445
-778431
-778416
-778401
-778386
-778371
-778357
-778342
-778327
-778312
-778297
-778282
-778268
-778253
-778238
-778223
-778208
-778193
-778178
-778164
-778149
-778134
-778119
-778104
-778089
-778074
-778059
-778044
-778029
-778014
-777999
-777984
-777969
-777954
-777939
-777925
-777910
-777895
-777880
-777864
-777849
-777834
-777819
-777804
-777789
-777774
-777759
-777744
-777729
-777714
-777699
-777684
-777669
-777654
-777638
-777623
-777608
-777593
-777578
-777563
-777548
-777532
-777517
-777502
-777487
-777472
-777456
-777441
-777426
-777411
-777396
-777380
-777365
-777350
-777335
-777319
-777304
-777289
-777274
-777258
-777243
-777228
-777212
-777197
-777182
-777166
-777151
-777136
-777120
-777105
-777090
-777074
-777059
-777044
-777028
-777013
-776997
-776982
-776967
-776951
-776936
-776920
-776905
-776889
-776874
-776858
-776843
-776827
-776812
-776796
-776781
-776765
-776750
-776734
-776719
-776703
-776688
-776672
-776656
-776641
-776625
-776610
-776594
-776579
-776563
-776547
-776532
-776516
-776500
-776485
-776469
-776453
-776438
-776422
-776406
-776391
-776375
-776359
-776344
-776328
-776312
-776296
-776281
-776265
-776249
-776233
-776218
-776202
-776186
-776170
-776154
-776139
-776123
-776107
-776091
-776075
-776059
-776044
-776028
-776012
-775996
-775980
-775964
-775948
-775932
-775916
-775901
-775885
-775869
-775853
-775837
-775821
-775805
-775789
-775773
-775757
-775741
-775725
-775709
-775693
-775677
-775661
-775645
-775629
-775612
-775596
-775580
-775564
-775548
-775532
-775516
-775500
-775484
-775467
-775451
-775435
-775419
-775403
-775387
-775370
-775354
-775338
-775322
-775306
-775289
-775273
-775257
-775241
-775224
-775208
-775192
-775175
-775159
-775143
-775126
-775110
-775094
-775077
-775061
-775045
-775028
-775012
-774996
-774979
-774963
-774946
-774930
-774914
-774897
-774881
-774864
-774848
-774831
-774815
-774798
-774782
-774765
-774749
-774732
-774716
-774699
-774683
-774666
-774650
-774633
-774616
-774600
-774583
-774567
-774550
-774533
-774517
-774500
-774483
-774467
-774450
-774433
-774417
-774400
-774383
-774367
-774350
-774333
-774316
-774300
-774283
-774266
-774249
-774232
-774216
-774199
-774182
-774165
-774148
-774131
-774115
-774098
-774081
-774064
-774047
-774030
-774013
-773996
-773979
-773962
-773945
-773929
-773912
-773895
-773878
-773861
-773844
-773827
-773810
-773792
-773775
-773758
-773741
-773724
-773707
-773690
-773673
-773656
-773639
-773622
-773604
-773587
-773570
-773553
-773536
-773518
-773501
-773484
-773467
-773450
-773432
-773415
-773398
-773381
-773363
-773346
-773329
-773311
-773294
-773277
-773259
-773242
-773225
-773207
-773190
-773172
-773155
-773138
-773120
-773103
-773085
-773068
-773050
-773033
-773015
-772998
-772980
-772963
-772945
-772928
-772910
-772893
-772875
-772857
-772840
-772822
-772804
-772787
-772769
-772752
-772734
-772716
-772699
-772681
-772663
-772645
-772628
-772610
-772592
-772574
-772557
-772539
-772521
-772503
-772485
-772467
-772450
-772432
-772414
-772396
-772378
-772360
-772342
-772324
-772306
-772288
-772271
-772253
-772235
-772217
-772199
-772181
-772162
-772144
-772126
-772108
-772090
-772072
-772054
-772036
-772018
-772000
-771981
-771963
-771945
-771927
-771909
-771891
-771872
-771854
-771836
-771818
-771799
-771781
-771763
-771744
-771726
-771708
-771689
-771671
-771653
-771634
-771616
-771597
-771579
-771561
-771542
-771524
-771505
-771487
-771468
-771450
-771431
-771413
-771394
-771375
-771357
-771338
-771320
-771301
-771282
-771264
-771245
-771226
-771208
-771189
-771170
-771152
-771133
-771114
-771095
-771077
-771058
-771039
-771020
-771001
-770982
-770964
-770945
-770926
-770907
-770888
-770869
-770850
-770831
-770812
-770793
-770774
-770755
-770736
-770717
-770698
-770679
-770660
-770641
-770622
-770602
-770583
-770564
-770545
-770526
-770506
-770487
-770468
-770449
-770430
-770410
-770391
-770372
-770352
-770333
-770314
-770294
-770275
-770255
-770236
-770217
-770197
-770178
-770158
-770139
-770119
-770100
-770080
-770061
-770041
-770021
-770002
-769982
-769962
-769943
-769923
-769903
-769884
-769864
-769844
-769825
-769805
-769785
-769765
-769745
-769726
-769706
-769686
-769666
-769646
-769626
-769606
-769586
-769566
-769546
-769526
-769506
-769486
-769466
-769446
-769426
-769406
-769386
-769366
-769345
-769325
-769305
-769285
-769265
-769244
-769224
-769204
-769184
-769163
-769143
-769123
-769102
-769082
-769061
-769041
-769020
-769000
-768980
-768959
-768938
-768918
-768897
-768877
-768856
-768836
-768815
-768794
-768774
-768753
-768732
-768711
-768691
-768670
-768649
-768628
-768608
-768587
-768566
-768545
-768524
-768503
-768482
-768461
-768440
-768419
-768398
-768377
-768356
-768335
-768314
-768293
-768272
-768250
-768229
-768208
-768187
-768165
-768144
-768123
-768102
-768080
-768059
-768037
-768016
-767995
-767973
-767952
-767930
-767909
-767887
-767866
-767844
-767822
-767801
-767779
-767757
-767736
-767714
-767692
-767671
-767649
-767627
-767605
-767583
-767561
-767539
-767518
-767496
-767474
-767452
-767430
-767408
-767385
-767363
-767341
-767319
-767297
-767275
-767253
-767230
-767208
-767186
-767163
-767141
-767119
-767096
-767074
-767052
-767029
-767007
-766984
-766962
-766939
-766916
-766894
-766871
-766848
-766826
-766803
-766780
-766758
-766735
-766712
-766689
-766666
-766643
-766620
-766597
-766574
-766551
-766528
-766505
-766482
-766459
-766436
-766413
-766390
-766366
-766343
-766320
-766296
-766273
-766250
-766226
-766203
-766179
-766156
-766132
-766109
-766085
-766062
-766038
-766014
-765991
-765967
-765943
-765919
-765895
-765872
-765848
-765824
-765800
-765776
-765752
-765728
-765704
-765680
-765655
-765631
-765607
-765583
-765559
-765534
-765510
-765486
-765461
-765437
-765412
-765388
-765363
-765339
-765314
-765290
-765265
-765240
-765215
-765191
-765166
-765141
-765116
-765091
-765066
-765041
-765016
-764991
-764966
-764941
-764916
-764891
-764866
-764840
-764815
-764790
-764764
-764739
-764713
-764688
-764662
-764637
-764611
-764586
-764560
-764534
-764508
-764483
-764457
-764431
-764405
-764379
-764353
-764327
-764301
-764275
-764249
-764223
-764196
-764170
-764144
-764117
-764091
-764065
-764038
-764012
-763985
-763958
-763932
-763905
-763878
-763852
-763825
-763798
-763771
-763744
-763717
-763690
-763663
-763636
-763609
-763582
-763554
-763527
-763500
-763472
-763445
-763417
-763390
-763362
-763335
-763307
-763279
-763251
-763224
-763196
-763168
-763140
-763112
-763084
-763056
-763027
-762999
-762971
-762943
-762914
-762886
-762857
-762829
-762800
-762772
-762743
-762714
-762686
-762657
-762628
-762599
-762570
-762541
-762512
-762483
-762454
-762424
-762395
-762366
-762336
-762307
-762277
-762248
-762218
-762188
-762159
-762129
-762099
-762069
-762039
-762009
-761979
-761949
-761918
-761888
-761858
-761827
-761797
-761766
-761736
-761705
-761674
-761644
-761613
-761582
-761551
-761520
-761489
-761458
-761426
-761395
-761364
-761332
-761301
-761269
-761238
-761206
-761174
-761143
-761111
-761079
-761047
-761015
-760982
-760950
-760918
-760885
-760853
-760820
-760788
-760755
-760722
-760690
-760657
-760624
-760591
-760558
-760525
-760491
-760458
-760424
-760391
-760357
-760324
-760290
-760256
-760222
-760188
-760154
-760120
-760086
-760052
-760017
-759983
-759948
-759914
-759879
-759844
-759809
-759774
-759739
-759704
-759669
-759634
-759598
-759563
-759527
-759492
-759456
-759420
-759384
-759348
-759312
-759276
-759240
-759203
-759167
-759130
-759093
-759057
-759020
-758983
-758946
-758909
-758872
-758834
-758797
-758759
-758722
-758684
-758646
-758608
-758570
-758532
-758494
-758456
-758417
-758379
-758340
-758302
-758263
-758224
-758185
-758146
-758107
-758067
-758028
-757988
-757949
-757909
-757869
-757829
-757789
-757749
-757709
-757668
-757628
-757587
-757546
-757506
-757465
-757423
-757382
-757341
-757300
-757258
-757216
-757175
-757133
-757091
-757048
-757006
-756964
-756921
-756879
-756836
-756793
-756750
-756707
-756663
-756620
-756576
-756533
-756489
-756445
-756401
-756356
-756312
-756268
-756223
-756178
-756133
-756088
-756043
-755997
-755952
-755906
-755860
-755814
-755768
-755722
-755676
-755629
-755582
-755535
-755488
-755441
-755394
-755346
-755299
-755251
-755203
-755155
-755106
-755058
-755009
-754960
-754911
-754862
-754813
-754763
-754714
-754664
-754614
-754564
-754513
-754463
-754412
-754361
-754310
-754259
-754207
-754155
-754103
-754051
-753999
-753947
-753894
-753841
-753788
-753735
-753682
-753628
-753574
-753520
-753466
-753412
-753357
-753302
-753247
-753192
-753137
-753081
-753025
-752969
-752913
-752856
-752800
-752743
-752685
-752628
-752570
-752513
-752455
-752396
-752338
-752279
-752220
-752161
-752101
-752042
-751982
-751922
-751861
-751801
-751740
-751679
-751617
-751556
-751494
-751432
-751369
-751307
-751244
-751181
-751117
-751054
-750990
-750926
-750861
-750796
-750731
-750666
-750601
-750535
-750469
-750402
-750336
-750269
-750201
-750134
-750066
-749998
-749929
-749861
-749792
-749722
-749653
-749583
-749513
-749442
-749371
-749300
-749229
-749157
-749085
-749012
-748939
-748866
-748793
-748719
-748645
-748571
-748496
-748421
-748345
-748270
-748193
-748117
-748040
-747963
-747885
-747807
-747729
-747650
-747571
-747492
-747412
-747332
-747252
-747171
-747089
-747008
-746926
-746843
-746760
-746677
-746593
-746509
-746425
-746340
-746254
-746169
-746083
-745996
-745909
-745821
-745734
-745645
-745557
-745467
-745378
-745288
-745197
-745106
-745015
-744923
-744830
-744737
-744644
-744550
-744456
-744361
-744266
-744170
-744074
-743977
-743880
-743782
-743684
-743585
-743486
-743386
-743286
-743185
-743083
-742981
-742879
-742776
-742672
-742568
-742463
-742358
-742252
-742146
-742039
-741931
-741823
-741714
-741605
-741495
-741384
-741273
-741161
-741049
-740936
-740822
-740708
-740593
-740478
-740362
-740245
-740127
-740009
-739890
-739771
-739651
-739530
-739408
-739286
-739163
-739039
-738915
-738790
-738664
-738537
-738410
-738282
-738153
-738024
-737894
-737763
-737631
-737498
-737365
-737231
-737096
-736960
-736823
-736686
-736548
-736409
-736269
-736128
-735987
-735844
-735701
-735557
-735412
-735266
-735119
-734971
-734822
-734673
-734522
-734371
-734219
-734065
-733911
-733756
-733599
-733442
-733284
-733124
-732964
-732803
-732640
-732477
-732312
-732146
-731980
-731812
-731642
-731472
-731301
-731128
-730954
-730779
-730603
-730425
-730246
-730066
-729872
-729876
-729768
-729657
-729472
-729335
-728938
-728801
-728548
-728351
-728158
-727945
-727762
-727557
-727367
-727167
-726970
-726772
-726572
-726372
-726169
-725966
-725762
-725555
-725348
-725139
-724930
-724719
-724506
-724293
-724078
-723861
-723643
-723423
-723202
-722980
-722756
-722531
-722304
-722076
-721846
-721615
-721383
-721149
-720913
-720675
-720437
-720196
-719954
-719710
-719465
-719219
-718970
-718720
-718469
-718216
-717961
-717705
-717446
-717186
-716925
-716661
-716396
-716129
-715861
-715591
-715319
-715045
-714770
-714492
-714213
-713932
-713649
-713364
-713077
-712789
-712499
-712207
-711913
-711617
-711319
-711019
-710717
-710413
-710107
-709799
-709490
-709178
-708864
-708548
-708230
-707911
-707589
-707264
-706938
-706610
-706279
-705947
-705612
-705275
-704936
-704595
-704252
-703906
-703558
-703208
-702856
-702501
-702144
-701785
-701424
-701061
-700695
-700326
-699956
-699583
-699208
-698830
-698450
-698068
-697683
-697296
-696906
-696514
-696120
-695723
-695324
-694922
-694518
-694111
-693702
-693290
-692876
-692459
-692040
-691618
-691194
-690767
-690338
-689906
-689471
-689034
-688595
-688152
-687708
-687260
-686810
-686358
-685902
-685444
-684984
-684521
-684055
-683587
-683116
-682642
-682166
-681687
-681206
-680721
-680235
-679745
-679253
-678758
-678261
-677761
-677258
-676753
-676245
-675734
-675221
-674705
-674186
-673665
-673142
-672615
-672086
-671555
-671021
-670484
-669945
-669403
-668858
-668311
-667762
-667210
-666655
-666098
-665539
-664977
-664413
-663846
-663276
-662705
-662131
-661554
-660975
-660394
-659810
-659225
-658636
-658046
-657453
-656859
-656262
-655662
-655061
-654458
-653852
-653245
-652635
-652023
-651410
-650794
-650177
-649557
-648936
-648313
-647688
-647062
-646434
-645804
-645172
-644539
-643904
-643268
-642631
-641991
-641351
-640709
-640066
-639422
-638776
-638129
-637481
-636832
-636183
-635532
-634880
-634227
-633574
-632919
-632264
-631609
-630952
-630296
-629638
-628981
-628323
-627664
-627006
-626347
-625688
-625029
-624370
-623711
-623053
-622394
-621736
-621078
-620420
-619763
-619106
-618450
-617795
-617140
-616486
-615833
-615181
-614530
-613880
-613231
-612584
-611937
-611292
-610649
-610007
-609366
-608727
-608090
-607455
-606821
-606190
-605560
-604933
-604307
-603684
-603063
-602445
-601829
-601215
-600604
-599996
-599390
-598787
-598188
-597590
-596996
-596405
-595818
-595233
-594651
-594073
-593499
-592927
-592360
-591795
-591235
-590678
-590125
-589576
-589031
-588489
-587952
-587418
-586889
-586364
-585843
-585327
-584814
-584307
-583803
-583304
-582810
-582320
-581834
-581353
-580877
-580406
-579940
-579478
-579021
-578569
-578121
-577679
-577242
-576809
-576382
-575960
-575542
-575130
-574723
-574321
-573924
-573533
-573146
-572765
-572389
-572018
-571652
-571291
-570936
-570586
-570241
-569902
-569567
-569238
-568914
-568596
-568282
-567974
-567671
-567373
-567080
-566793
-566511
-566233
-565961
-565694
-565432
-565176
-564924
-564677
-564435
-564198
-563967
-563740
-563518
-563300
-563088
-562881
-562678
-562480
-562286
-562098
-561914
-561734
-561559
-561389
-561223
-561062
-560904
-560752
-560603
-560459
-560319
-560184
-560052
-559924
-559801
-559682
-559566
-559455
-559347
-559243
-559143
-559047
-558954
-558865
-558779
-558697
-558619
-558544
-558472
-558404
-558339
-558277
-558219
-558163
-558111
-558062
-558016
-557972
-557932
-557894
-557860
-557828
-557799
-557772
-557748
-557727
-557708
-557692
-557678
-557666
-557657
-557650
-557646
-557643
-557643
-557645
-557649
-557655
-557664
-557674
-557686
-557700
-557715
-557733
-557752
-557773
-557796
-557820
-557847