/*--------------------------------*- C++ -*----------------------------------*\
  =========                 |
  \\      /  F ield         | OpenFOAM: The Open Source CFD Toolbox
   \\    /   O peration     | Website:  https://openfoam.org
    \\  /    A nd           | Version:  9
     \\/     M anipulation  |
\*---------------------------------------------------------------------------*/
FoamFile
{
    format      ascii;
    class       volScalarField;
    location    "0.034";
    object      ddt0(rho,e);
}
// * * * * * * * * * * * * * * * * * * * * * * * * * * * * * * * * * * * * * //

dimensions      [1 -1 -3 0 0 0 0];

internalField   nonuniform List<scalar> 
10000
(
929692
929630
929537
929436
929331
929240
929157
929056
928939
928838
928766
928692
928579
928445
928341
928285
928233
928127
927973
927835
927768
927750
927702
927568
927381
927230
927178
927196
927185
927067
926853
926639
926528
926545
926614
926613
926466
926204
925940
925797
925818
925942
926036
925983
925750
925413
925109
924962
925011
925196
925381
925429
925268
924924
924507
924163
924008
924079
924321
924610
924803
924794
924548
924116
923613
923175
922920
922906
923121
923485
923877
924171
924268
924119
923738
923192
922586
922036
921643
921475
921555
921860
922325
922863
923376
923775
923989
923977
923730
923268
922638
921904
921139
920412
919790
919326
919058
919007
919179
919565
920145
920892
921770
922742
923773
924825
925864
926860
927784
928613
929327
929917
930376
930699
930899
930996
931016
931030
931091
931265
931805
932833
932917
932941
932953
932954
932947
932940
932930
932918
932909
932901
932893
932884
932878
932873
932869
932866
932863
932860
932858
932856
932854
932853
932851
932849
932848
932847
932845
932843
932842
932841
932839
932837
932836
932835
932834
932832
932831
932829
932827
932825
932824
932823
932821
932820
932819
932817
932816
932815
932814
932812
932811
932809
932808
932807
932805
932804
932802
932801
932799
932798
932797
932795
932793
932792
932790
932788
932786
932785
932784
932782
932781
932779
932778
932776
932775
932773
932772
932770
932769
932768
932766
932765
932763
932762
932760
932759
932757
932756
932754
932752
932750
932749
932747
932745
932743
932742
932740
932739
932737
932736
932734
932733
932731
932729
932728
932726
932725
932723
932721
932720
932718
932717
932715
932714
932712
932711
932709
932707
932705
932703
932701
932700
932698
932696
932695
932693
932691
932690
932688
932686
932685
932683
932681
932680
932678
932676
932674
932673
932671
932670
932668
932666
932665
932663
932661
932659
932657
932655
932654
932652
932650
932648
932646
932645
932643
932641
932639
932638
932636
932634
932632
932630
932629
932627
932625
932623
932621
932620
932618
932616
932614
932612
932610
932609
932607
932605
932603
932601
932599
932597
932596
932594
932592
932590
932588
932586
932584
932583
932581
932579
932577
932575
932573
932571
932569
932567
932565
932564
932562
932560
932557
932555
932554
932552
932550
932548
932546
932544
932542
932540
932538
932536
932534
932532
932530
932528
932526
932524
932522
932520
932519
932517
932515
932513
932511
932509
932506
932504
932502
932500
932498
932496
932494
932492
932490
932488
932486
932484
932482
932480
932478
932476
932474
932472
932470
932468
932466
932463
932461
932459
932457
932455
932453
932451
932449
932447
932444
932442
932440
932438
932435
932433
932431
932429
932427
932425
932423
932421
932419
932417
932414
932412
932410
932408
932406
932404
932402
932399
932397
932395
932393
932391
932389
932386
932384
932382
932379
932377
932375
932372
932370
932368
932366
932363
932361
932359
932357
932355
932352
932350
932348
932346
932344
932341
932339
932337
932335
932332
932330
932328
932326
932323
932321
932319
932316
932314
932311
932309
932307
932304
932302
932299
932297
932295
932292
932290
932288
932285
932283
932281
932279
932276
932274
932272
932269
932267
932265
932262
932260
932258
932255
932253
932250
932248
932245
932243
932240
932238
932236
932233
932231
932228
932226
932223
932221
932218
932216
932213
932211
932209
932206
932204
932201
932199
932196
932194
932192
932189
932187
932184
932182
932179
932177
932174
932172
932169
932167
932164
932161
932159
932156
932154
932151
932149
932146
932144
932141
932138
932136
932133
932131
932128
932126
932123
932121
932118
932116
932113
932110
932108
932105
932103
932100
932097
932095
932092
932089
932087
932084
932082
932079
932076
932074
932071
932068
932066
932063
932060
932058
932055
932052
932050
932047
932044
932042
932039
932036
932034
932031
932028
932026
932023
932020
932018
932015
932012
932009
932007
932004
932001
931998
931996
931993
931990
931987
931985
931982
931979
931976
931974
931971
931968
931965
931963
931960
931957
931954
931951
931949
931946
931943
931940
931937
931935
931932
931929
931926
931923
931920
931918
931915
931912
931909
931906
931903
931901
931898
931895
931892
931889
931886
931884
931881
931878
931875
931872
931869
931866
931863
931860
931857
931855
931852
931849
931846
931843
931840
931837
931834
931831
931828
931825
931822
931819
931816
931813
931811
931808
931805
931802
931799
931796
931793
931790
931787
931784
931781
931778
931775
931772
931769
931766
931763
931760
931757
931753
931750
931747
931744
931741
931738
931735
931732
931729
931726
931723
931720
931717
931714
931711
931708
931705
931702
931699
931696
931693
931689
931686
931683
931680
931677
931674
931671
931668
931665
931661
931658
931655
931652
931648
931645
931642
931639
931636
931633
931630
931626
931623
931620
931617
931614
931611
931607
931604
931601
931598
931595
931592
931589
931585
931582
931579
931576
931572
931569
931566
931562
931559
931556
931553
931550
931546
931543
931540
931537
931533
931530
931525
931524
931518
931519
931510
931514
931501
931511
931490
931511
931476
931513
931459
931519
931437
931529
931412
931543
931385
931556
931361
931561
931350
931549
931363
931503
931415
931416
931461
931428
931418
931432
931421
931411
931412
931410
931409
931399
931400
931393
931408
931348
931461
931265
931543
931165
931625
931084
931665
931069
931619
931155
931465
931342
931231
931572
931006
931734
930906
931720
931019
931488
931319
931131
931650
930852
931799
930842
931631
931144
931211
931579
930821
931823
930751
931663
931094
931169
931608
930725
931853
930719
931576
931201
930972
931751
930593
931825
930831
931297
931490
930662
931890
930592
931570
931195
930827
931828
930474
931755
930939
931004
931712
930437
931857
930751
931143
931601
930424
931906
930628
931223
931528
930405
931928
930560
931237
931506
930366
931933
930537
931192
931535
930312
931917
930552
931119
931563
930279
931873
930586
931040
931594
930241
931820
930662
930895
931678
930197
931723
930810
930677
931798
930179
931539
931065
930403
931886
930272
931220
931403
930147
931850
930544
930760
931752
930038
931569
931022
930262
931927
930234
931013
931585
929944
931734
930797
930317
931945
930083
931081
931534
929861
931763
930758
930229
931985
930043
930960
931643
929746
931672
930919
929991
932020
930157
930644
931854
929693
931399
931254
929715
931924
930482
930197
932001
929861
930911
931623
929620
931557
930968
929813
931907
930283
930323
931873
929791
930952
931503
929613
931504
930931
929760
931840
930323
930161
931890
929828
930691
931669
929548
931216
931254
929512
931622
930751
929693
931852
930259
930023
931894
929851
930430
931767
929566
930853
931508
929418
931240
931159
929410
931551
930762
929530
931763
930357
929752
931866
929983
930040
931862
929668
930362
931765
929426
930688
931595
929262
930995
931374
929173
931268
931121
929150
931497
930855
929182
931676
930591
929258
931808
930340
929359
931899
930113
929474
931952
929915
929594
931972
929743
929715
931969
929597
929829
931946
929478
929934
931908
929382
930029
931861
929309
930105
931810
929257
930164
931759
929218
930207
931715
929189
930231
931680
929170
930238
931652
929161
930228
931631
929161
930202
931616
929171
930158
931610
929193
930093
931613
929225
930006
931627
929270
929897
931648
929332
929767
931668
929414
929621
931680
929521
929460
931676
929663
929288
931643
929844
929110
931572
930061
928942
931457
930307
928795
931292
930571
928690
931070
930838
928644
930793
931093
928668
930465
931319
928772
930095
931495
928962
929707
931594
929234
929333
931596
929573
929006
931484
929963
928754
931256
930373
928603
930922
930768
928572
930506
931106
928674
930042
931342
928910
929574
931442
929266
929143
931387
929715
928794
931172
930207
928572
930812
930679
928521
930337
931062
928668
929790
931295
929013
929239
931327
929518
928770
931136
930100
928480
930729
930656
928442
930152
931077
928688
929494
931271
929182
928888
931178
929821
928479
930792
930464
928378
930175
930957
928624
929456
931178
929156
928814
931060
929837
928423
930611
930493
928394
929923
930954
928741
929172
931081
929370
928581
930810
930097
928339
930194
930705
928530
929405
930995
929097
928703
930843
929852
928343
930273
930528
928458
929476
930880
928995
928743
930768
929748
928355
930215
930432
928459
929419
930780
929003
928696
930646
929759
928338
930063
930426
928495
929246
930721
929105
928544
930484
929904
928290
929782
930519
928616
928926
930642
929368
928339
930179
930168
928334
929331
930592
928924
928540
930395
929776
928246
929667
930406
928609
928804
930459
929405
928289
929905
930157
928416
929055
930422
929095
928397
930048
929899
928318
929257
930327
928857
928521
930118
929661
928279
929405
930213
928679
928620
930148
929468
928257
929494
930112
928560
928672
930148
929337
928233
929525
930036
928491
928670
930122
929272
928200
929496
929991
928469
928617
930065
929274
928169
929403
929965
928503
928531
929963
929322
928164
929260
929932
928578
928443
929822
929385
928189
929093
929880
928678
928366
929655
929443
928240
928922
929810
928782
928304
929482
929487
928300
928756
929735
928887
928237
929308
929542
928364
928565
929657
929030
928165
929084
929612
928487
928343
929514
929226
928152
928786
929633
928707
928152
929252
929420
928269
928460
929518
928989
928092
928891
929500
928518
928218
929248
929218
928205
928541
929403
928795
928143
928913
929300
928411
928307
929192
928995
928189
928615
929265
928623
928171
928940
929127
928300
928346
929150
928850
928114
928626
929195
928515
928115
928895
929074
928225
928267
929082
928821
928063
928499
929135
928522
928041
928745
929037
928261
928145
928929
928833
928083
928339
928998
928581
928017
928554
928956
928328
928071
928730
928817
928131
928203
928840
928608
928025
928373
928859
928381
928006
928549
928783
928180
928065
928687
928642
928023
928186
928758
928465
927931
928329
928766
928270
927913
928463
928713
928094
927949
928575
928602
927962
928023
928642
928460
927873
928128
928653
928308
927831
928238
928620
928155
927840
928329
928550
928020
927883
928400
928443
927919
927946
928444
928318
927847
928027
928450
928190
927800
928111
928428
928064
927786
928180
928385
927946
927797
928237
928318
927848
927818
928283
928236
927768
927849
928304
928156
927704
927885
928301
928075
927665
927916
928281
927990
927651
927945
928242
927910
927646
927976
928187
927837
927650
928000
928127
927765
927665
928014
928064
927699
927683
928025
927995
927642
927696
928035
927928
927588
927706
928034
927874
927537
927711
928023
927825
927501
927706
928007
927776
927476
927697
927979
927733
927455
927691
927942
927693
927438
927682
927904
927650
927428
927669
927866
927607
927419
927660
927822
927566
927405
927652
927782
927526
927391
927639
927748
927484
927375
927623
927716
927448
927352
927607
927683
927417
927328
927587
927655
927386
927304
927560
927632
927358
927276
927530
927606
927340
927246
927498
927578
927324
927220
927458
927551
927308
927200
927416
927519
927293
927180
927380
927481
927278
927161
927348
927445
927255
927143
927317
927415
927227
927120
927288
927389
927204
927086
927258
927367
927187
927049
927218
927350
927176
927016
927166
927329
927174
926989
927110
927295
927178
926972
927057
927248
927175
926967
927009
927196
927159
926968
926972
927144
927133
926962
926949
927098
927102
926944
926926
927064
927074
926919
926893
927037
927054
926894
926847
927003
927048
926879
926798
926950
927044
926882
926755
926882
927020
926900
926730
926811
926973
926913
926730
926750
926911
926903
926742
926712
926848
926872
926742
926693
926798
926836
926723
926673
926763
926806
926699
926638
926732
926787
926681
926592
926685
926775
926680
926554
926619
926750
926691
926535
926548
926698
926701
926539
926491
926624
926690
926558
926460
926549
926648
926571
926452
926491
926589
926560
926451
926454
926538
926529
926439
926426
926501
926499
926412
926392
926470
926485
926386
926343
926426
926478
926381
926293
926362
926457
926397
926267
926287
926407
926408
926274
926226
926333
926391
926295
926198
926256
926345
926301
926197
926200
926284
926281
926197
926170
926231
926248
926180
926147
926192
926217
926154
926111
926156
926196
926139
926067
926104
926173
926140
926040
926035
926126
926143
926044
925980
926052
926121
926061
925961
925977
926065
926060
925967
925929
925996
926031
925969
925910
925939
925987
925953
925894
925900
925944
925928
925868
925863
925908
925909
925843
925816
925866
925894
925834
925771
925805
925865
925839
925751
925739
925809
925832
925758
925695
925736
925794
925764
925686
925677
925734
925744
925686
925646
925678
925704
925669
925625
925636
925667
925642
925596
925596
925635
925625
925567
925546
925589
925614
925559
925503
925523
925579
925563
925488
925463
925513
925547
925494
925434
925446
925495
925489
925428
925403
925434
925455
925417
925380
925390
925411
925391
925352
925353
925377
925367
925321
925306
925338
925350
925306
925260
925279
925319
925304
925241
925219
925260
925285
925243
925187
925194
925235
925234
925181
925151
925176
925196
925170
925128
925129
925151
925143
925106
925091
925110
925113
925081
925052
925065
925084
925062
925020
925013
925043
925045
925003
924969
924986
925014
924994
924945
924929
924961
924973
924937
924894
924900
924930
924922
924880
924855
924874
924888
924864
924830
924827
924844
924836
924806
924789
924802
924805
924779
924752
924756
924773
924758
924721
924706
924727
924736
924706
924668
924669
924695
924691
924652
924622
924637
924656
924639
924599
924585
924604
924610
924584
924553
924553
924566
924557
924529
924513
924522
924523
924502
924478
924479
924489
924475
924446
924431
924446
924450
924425
924392
924391
924409
924405
924373
924345
924354
924368
924356
924321
924305
924317
924324
924303
924272
924267
924278
924276
924249
924228
924230
924236
924224
924197
924188
924193
924191
924169
924149
924150
924154
924142
924114
924103
924112
924114
924091
924062
924059
924072
924070
924040
924014
924015
924029
924022
923991
923970
923973
923983
923969
923944
923929
923932
923933
923915
923897
923890
923891
923880
923861
923851
923852
923849
923828
923808
923804
923813
923805
923779
923756
923758
923769
923759
923730
923708
923712
923721
923710
923682
923664
923667
923670
923659
923635
923623
923622
923618
923604
923588
923583
923578
923566
923548
923540
923541
923536
923516
923494
923491
923497
923492
923466
923443
923441
923450
923445
923419
923396
923391
923400
923394
923372
923351
923345
923347
923339
923324
923309
923303
923295
923283
923270
923265
923261
923246
923227
923215
923218
923217
923200
923174
923161
923166
923170
923155
923126
923111
923112
923118
923106
923081
923064
923061
923062
923052
923036
923021
923013
923005
922994
922985
922978
922970
922953
922937
922929
922931
922926
922906
922882
922873
922878
922878
922860
922833
922819
922822
922825
922812
922788
922771
922767
922767
922758
922742
922727
922717
922708
922698
922691
922683
922673
922655
922639
922632
922633
922628
922608
922585
922573
922577
922577
922562
922537
922520
922519
922520
922512
922490
922473
922464
922461
922454
922441
922427
922415
922405
922393
922385
922378
922369
922354
922336
922325
922323
922321
922306
922284
922267
922264
922265
922256
922235
922214
922207
922206
922202
922185
922167
922153
922147
922141
922130
922118
922105
922094
922081
922070
922063
922056
922044
922026
922011
922002
922002
921994
921977
921955
921943
921941
921939
921926
921905
921889
921881
921878
921869
921854
921838
921826
921818
921808
921798
921786
921776
921763
921748
921736
921729
921723
921711
921694
921676
921668
921665
921657
921641
921621
921609
921604
921599
921586
921569
921553
921545
921538
921528
921514
921500
921489
921477
921466
921454
921445
921435
921422
921406
921392
921384
921378
921369
921351
921334
921322
921316
921310
921296
921279
921264
921255
921247
921237
921222
921209
921198
921187
921175
921161
921151
921140
921129
921114
921100
921089
921081
921072
921057
921041
921027
921020
921011
920999
920982
920968
920958
920949
920938
920923
920910
920897
920887
920875
920862
920850
920838
920828
920814
920799
920786
920777
920768
920755
920739
920724
920713
920704
920694
920679
920664
920651
920641
920630
920616
920603
920590
920580
920566
920553
920539
920528
920518
920506
920490
920474
920463
920454
920444
920430
920413
920399
920387
920378
920366
920352
920337
920325
920312
920299
920286
920274
920263
920250
920235
920219
920207
920197
920188
920174
920157
920141
920128
920120
920109
920096
920078
920064
920051
920040
920028
920015
920002
919987
919973
919958
919946
919935
919925
919911
919894
919877
919864
919856
919845
919832
919813
919797
919784
919775
919764
919750
919734
919717
919704
919691
919680
919668
919654
919639
919623
919608
919595
919585
919574
919560
919541
919524
919510
919501
919492
919478
919460
919441
919427
919416
919407
919394
919378
919361
919344
919331
919319
919308
919295
919280
919262
919245
919231
919220
919211
919197
919179
919160
919144
919133
919124
919112
919095
919076
919059
919046
919035
919023
919008
918992
918974
918959
918945
918933
918921
918907
918891
918871
918855
918842
918832
918820
918804
918785
918766
918752
918741
918730
918715
918698
918679
918663
918650
918637
918624
918609
918592
918574
918559
918544
918532
918519
918504
918486
918467
918451
918438
918427
918413
918396
918376
918359
918344
918332
918319
918303
918286
918267
918252
918237
918224
918209
918194
918176
918158
918141
918126
918114
918100
918084
918065
918046
918030
918016
918004
917989
917971
917951
917934
917919
917905
917891
917875
917858
917839
917822
917806
917791
917777
917761
917744
917725
917707
917690
917677
917662
917647
917628
917608
917590
917575
917562
917546
917529
917510
917491
917474
917459
917443
917428
917410
917392
917374
917356
917340
917324
917309
917291
917273
917253
917235
917220
917205
917189
917170
917151
917131
917115
917099
917083
917066
917047
917028
917010
916992
916975
916959
916942
916924
916905
916885
916867
916850
916834
916817
916799
916779
916759
916741
916725
916708
916690
916671
916651
916632
916614
916597
916579
916561
916542
916523
916504
916485
916467
916449
916431
916412
916392
916373
916354
916336
916318
916299
916279
916259
916240
916222
916204
916185
916165
916145
916125
916106
916087
916069
916050
916030
916010
915989
915969
915950
915932
915913
915893
915873
915851
915831
915812
915793
915775
915755
915733
915711
915691
915671
915653
915634
915613
915592
915570
915549
915528
915509
915490
915470
915449
915427
915404
915383
915364
915345
915325
915304
915281
915258
915237
915217
915197
915177
915156
915134
915111
915089
915067
915046
915027
915006
914984
914961
914938
914915
914894
914874
914853
914831
914808
914784
914762
914740
914719
914698
914676
914653
914629
914606
914584
914561
914540
914518
914495
914472
914448
914424
914402
914380
914358
914334
914310
914286
914263
914240
914217
914194
914171
914147
914123
914099
914075
914052
914028
914005
913980
913956
913931
913907
913883
913859
913836
913811
913786
913761
913736
913712
913688
913664
913639
913613
913588
913563
913538
913513
913488
913464
913438
913413
913387
913361
913335
913310
913285
913259
913233
913207
913181
913155
913129
913103
913077
913050
913024
912998
912971
912944
912918
912890
912864
912837
912811
912784
912757
912729
912701
912674
912647
912620
912593
912565
912538
912509
912481
912453
912425
912397
912370
912342
912313
912284
912255
912226
912198
912170
912142
912113
912084
912054
912024
911995
911966
911938
911909
911879
911849
911818
911787
911758
911729
911700
911671
911640
911608
911576
911545
911516
911486
911457
911426
911394
911362
911329
911297
911267
911238
911208
911176
911143
911109
911075
911043
911013
910982
910952
910919
910885
910850
910815
910783
910752
910721
910689
910656
910620
910585
910549
910516
910483
910452
910419
910385
910349
910312
910276
910242
910209
910176
910143
910107
910070
910033
909996
909961
909927
909893
909858
909822
909784
909746
909708
909673
909638
909603
909567
909529
909490
909451
909413
909377
909341
909304
909267
909228
909188
909148
909109
909072
909035
908998
908959
908919
908878
908837
908797
908759
908722
908683
908643
908602
908559
908517
908476
908437
908398
908359
908318
908275
908232
908188
908146
908105
908066
908025
907983
907940
907895
907850
907807
907765
907724
907682
907638
907593
907548
907502
907457
907414
907371
907328
907283
907237
907190
907143
907097
907052
907008
906963
906917
906869
906821
906773
906725
906679
906633
906587
906539
906490
906440
906390
906341
906293
906246
906198
906149
906099
906047
905995
905945
905895
905846
905796
905746
905694
905641
905587
905535
905483
905432
905381
905329
905275
905221
905166
905111
905057
905004
904951
904897
904843
904786
904729
904672
904616
904561
904506
904451
904394
904336
904277
904218
904160
904102
904045
903988
903929
903870
903809
903748
903687
903627
903568
903508
903448
903386
903324
903261
903197
903135
903073
903011
902948
902885
902820
902755
902690
902624
902560
902495
902430
902364
902298
902230
902163
902095
902027
901960
901892
901824
901755
901686
901616
901545
901475
901405
901334
901264
901192
901120
901047
900974
900901
900828
900754
900681
900606
900532
900456
900380
900304
900228
900152
900075
899997
899920
899841
899762
899683
899604
899524
899444
899364
899283
899201
899119
899037
898955
898871
898788
898704
898620
898535
898450
898364
898278
898192
898104
898017
897929
897841
897752
897662
897573
897482
897392
897301
897209
897117
897024
896931
896837
896743
896648
896553
896458
896361
896265
896167
896069
895971
895873
895773
895673
895573
895471
895370
895268
895165
895062
894959
894854
894749
894643
894536
894430
894323
894215
894107
893998
893887
893777
893666
893554
893442
893330
893216
893102
892988
892871
892755
892638
892520
892402
892284
892165
892045
891924
891801
891678
891555
891431
891307
891183
891058
890930
890803
890675
890543
890414
890284
890152
890022
889890
889756
889622
889486
889348
889210
889074
888935
888797
888658
888517
888374
888231
888085
887940
887795
887649
887503
887357
887208
887056
886906
886752
886597
886445
886291
886136
885981
885825
885664
885503
885342
885178
885016
884855
884690
884525
884360
884191
884020
883850
883677
883504
883333
883160
882984
882809
882631
882449
882268
882086
881901
881719
881537
881351
881164
880976
880784
880590
880397
880202
880006
879812
879616
879416
879217
879013
878806
878600
878393
878184
877976
877767
877554
877340
877124
876884
876864
876754
876628
876439
876219
875778
875606
875305
875064
874830
874572
874348
874104
873876
873637
873401
873163
872918
872676
872432
872185
871938
871691
871441
871190
870938
870685
870426
870165
869904
869641
869380
869115
868849
868579
868309
868035
867759
867485
867202
866922
866642
866360
866078
865786
865496
865203
864908
864617
864315
864013
863717
863413
863110
862802
862486
862177
861865
861546
861228
860907
860585
860265
859937
859602
859272
858944
858604
858262
857928
857588
857238
856891
856545
856192
855835
855480
855120
854760
854398
854032
853664
853292
852918
852541
852162
851781
851397
851014
850624
850234
849842
849444
849044
848642
848237
847829
847421
847010
846594
846179
845757
845334
844908
844477
844045
843611
843175
842735
842293
841848
841399
840947
840493
840034
839574
839111
838645
838176
837704
837230
836751
836269
835785
835298
834806
834313
833818
833318
832816
832310
831802
831290
830773
830255
829733
829209
828680
828150
827618
827078
826537
825994
825447
824894
824341
823785
823224
822662
822095
821525
820951
820374
819794
819210
818623
818033
817441
816844
816245
815641
815036
814427
813811
813194
812576
811952
811325
810696
810064
809429
808789
808145
807499
806849
806195
805539
804880
804219
803554
802885
802213
801538
800860
800176
799491
798803
798111
797418
796719
796021
795319
794612
793901
793187
792473
791753
791031
790306
789580
788851
788117
787382
786643
785901
785157
784408
783659
782907
782153
781397
780636
779875
779109
778344
777573
776799
776024
775249
774472
773691
772907
772123
771338
770547
769756
768961
768167
767371
766574
765774
764970
764171
763365
762560
761751
760941
760132
759321
758511
757696
756882
756068
755252
754436
753617
752797
751977
751160
750340
749521
748699
747880
747058
746240
745417
744594
743773
742952
742133
741314
740496
739675
738858
738042
737225
736409
735592
734777
733964
733154
732345
731537
730731
729924
729121
728317
727517
726717
725919
725126
724332
723546
722757
721973
721189
720409
719632
718855
718086
717313
716549
715785
715028
714272
713519
712771
712022
711282
710540
709808
709075
708349
707626
706907
706193
705482
704778
704073
703377
702683
701995
701310
700633
699960
699289
698626
697965
697312
696661
696020
695380
694745
694118
693494
692879
692265
691661
691059
690464
689874
689290
688713
688140
687575
687013
686459
685909
685366
684829
684299
683775
683255
682743
682237
681736
681241
680753
680271
679795
679324
678861
678404
677951
677508
677069
676636
676208
675789
675373
674964
674562
674166
673777
673393
673017
672644
672279
671917
671564
671216
670873
670538
670207
669884
669565
669253
668946
668644
668349
668058
667775
667494
667221
666954
666691
666434
666183
665938
665695
665459
665228
665002
664780
664564
664354
664148
663948
663751
663560
663373
663189
663011
662837
662669
662503
662344
662189
662037
661890
661747
661608
661471
661339
661212
661089
660968
660853
660742
660632
660527
660425
660327
660230
660138
660050
659964
659882
659803
659727
659656
659585
659518
659453
659391
659331
659275
659221
659170
659122
659075
659033
658991
658953
658914
658881
658847
658816
658788
658761
658739
658715
658696
658677
658662
658646
658633
658621
658610
658602
658595
658590
658586
658586
658584
658586
658588
658592
658595
658601
658608
658616
658625
658635
658648
658660
658675
658690
658706
658723
658740
658759
658777
658797
658818
658841
658863
658886
658912
658936
658963
658988
659015
659042
659071
659100
659128
659158
659188
659221
659251
659284
659317
659350
659383
659416
659451
659486
659521
659556
659592
659629
659665
659702
659738
659776
659814
659852
659889
659927
659967
660007
660046
660085
660126
660166
660206
660245
660286
660327
660367
660408
660448
660490
660531
660575
660616
660658
660700
660743
660786
660827
660870
660912
660955
660997
661040
661084
661126
661170
661213
661258
661300
661343
661387
661430
661474
661517
661561
661605
661649
661695
661738
661781
661825
661870
661915
661958
662001
662045
662091
662134
662179
662222
662267
662311
662356
662400
662444
662488
662533
662579
662623
662667
662712
662756
662800
662845
662890
662934
662978
663022
663068
663113
663158
663202
663247
663291
663337
663381
663425
663468
663513
663558
663603
663648
663692
663737
663782
663828
663872
663916
663960
664004
664049
664093
664138
664182
664227
664272
664316
664362
664405
664451
664495
664539
664582
664627
664673
664717
664762
664806
664851
664896
664942
664986
665031
665074
665119
665162
665207
665252
665297
665341
665386
665431
665475
665520
665565
665611
665653
665698
665741
665786
665830
665876
665920
665965
666010
666053
666099
666142
666188
666232
666277
666322
666365
666409
666452
666498
666543
666588
666633
666678
666722
666766
666810
666854
666898
666941
666987
667031
667077
667120
667165
667209
667254
667298
667343
667387
667432
667477
667521
667566
667609
667654
667697
667743
667787
667833
667876
667921
667966
668010
668055
668098
668143
668186
668231
668274
668318
668362
668407
668451
668496
668541
668586
668631
668675
668719
668763
668807
668851
668895
668939
668983
669029
669072
669118
669162
669207
669251
669296
669340
669384
669428
669471
669516
669560
669605
669648
669694
669737
669783
669826
669872
669914
669959
670002
670046
670091
670135
670180
670223
670269
670313
670359
670402
670447
670490
670535
670577
670622
670666
670710
670755
670798
670844
670887
670933
670976
671020
671064
671107
671151
671195
671239
671284
671328
671372
671416
671461
671506
671550
671594
671637
671681
671725
671769
671813
671857
671901
671945
671990
672034
672079
672123
672168
672210
672255
672298
672343
672387
672430
672475
672518
672564
672607
672652
672696
672741
672784
672828
672871
672915
672960
673003
673048
673091
673135
673179
673224
673268
673312
673355
673399
673442
673486
673530
673574
673618
673662
673706
673750
673795
673839
673883
673927
673970
674014
674057
674101
674144
674189
674233
674278
674322
674366
674411
674455
674499
674542
674587
674629
674673
674716
674760
674803
674847
674891
674936
674980
675024
675069
675112
675157
675200
675245
675287
675332
675375
675419
675463
675507
675552
675595
675639
675682
675727
675770
675815
675858
675901
675945
675988
676032
676075
676120
676164
676208
676252
676297
676341
676384
676428
676472
676516
676560
676603
676647
676690
676733
676777
676821
676865
676909
676954
676998
677041
677086
677129
677174
677217
677262
677305
677349
677393
677436
677480
677523
677568
677611
677656
677699
677743
677787
677830
677875
677918
677963
678006
678051
678094
678139
678182
678225
678269
678312
678356
678400
678445
678488
678533
678576
678621
678664
678708
678753
678796
678841
678884
678929
678971
679015
679059
679102
679147
679190
679234
679278
679323
679367
679411
679455
679499
679543
679587
679631
679675
679719
679762
679807
679850
679895
679938
679982