/*--------------------------------*- C++ -*----------------------------------*\
  =========                 |
  \\      /  F ield         | OpenFOAM: The Open Source CFD Toolbox
   \\    /   O peration     | Website:  https://openfoam.org
    \\  /    A nd           | Version:  9
     \\/     M anipulation  |
\*---------------------------------------------------------------------------*/
FoamFile
{
    format      ascii;
    class       surfaceScalarField;
    location    "0.034";
    object      ddtCorrDdt0(phi);
}
// * * * * * * * * * * * * * * * * * * * * * * * * * * * * * * * * * * * * * //

dimensions      [1 0 -2 0 0 0 0];

internalField   nonuniform List<scalar> 
9999
(
-28.1463
-30.9938
-33.8421
-36.6896
-39.5365
-42.3828
-45.2273
-48.0692
-50.9109
-53.7554
-56.6021
-59.4475
-62.2898
-65.1319
-67.9772
-70.8246
-73.6697
-76.5096
-79.3471
-82.1878
-85.0343
-87.8829
-90.7274
-93.5653
-96.4016
-99.2439
-102.094
-104.948
-107.795
-110.633
-113.466
-116.303
-119.149
-122.002
-124.852
-127.693
-130.522
-133.346
-136.176
-139.02
-141.875
-144.736
-147.588
-150.425
-153.244
-156.058
-158.88
-161.723
-164.584
-167.452
-170.312
-173.155
-175.977
-178.784
-181.591
-184.416
-187.265
-190.137
-193.018
-195.893
-198.748
-201.576
-204.382
-207.178
-209.972
-212.778
-215.606
-218.463
-221.345
-224.239
-227.127
-229.996
-232.841
-235.657
-238.445
-241.218
-243.992
-246.777
-249.584
-252.422
-255.292
-258.188
-261.103
-264.027
-266.939
-269.825
-272.68
-275.502
-278.302
-281.082
-283.838
-286.579
-289.325
-292.083
-294.855
-297.646
-300.469
-303.322
-306.2
-309.109
-312.045
-314.996
-317.967
-320.947
-323.93
-326.915
-329.893
-332.866
-335.842
-338.816
-341.769
-344.677
-347.571
-350.471
-353.338
-356.185
-359.045
-361.887
-364.756
-367.64
-370.622
-373.541
-376.406
-379.243
-382.107
-384.941
-387.791
-390.649
-393.483
-396.324
-399.19
-402.04
-404.87
-407.704
-410.545
-413.396
-416.25
-419.1
-421.95
-424.802
-427.649
-430.497
-433.35
-436.197
-439.043
-441.894
-444.743
-447.587
-450.433
-453.283
-456.134
-458.979
-461.82
-464.666
-467.519
-470.371
-473.218
-476.063
-478.903
-481.744
-484.588
-487.436
-490.284
-493.132
-495.981
-498.831
-501.679
-504.525
-507.373
-510.224
-513.073
-515.92
-518.767
-521.616
-524.466
-527.314
-530.16
-533.005
-535.851
-538.699
-541.549
-544.398
-547.245
-550.089
-552.931
-555.774
-558.617
-561.462
-564.309
-567.157
-570.005
-572.852
-575.699
-578.547
-581.395
-584.241
-587.087
-589.933
-592.781
-595.63
-598.479
-601.327
-604.173
-607.019
-609.866
-612.714
-615.563
-618.412
-621.259
-624.105
-626.949
-629.791
-632.634
-635.478
-638.322
-641.168
-644.014
-646.861
-649.708
-652.556
-655.403
-658.25
-661.096
-663.941
-666.787
-669.634
-672.48
-675.327
-678.173
-681.018
-683.865
-686.712
-689.561
-692.409
-695.258
-698.105
-700.95
-703.795
-706.638
-709.482
-712.325
-715.169
-718.014
-720.859
-723.705
-726.551
-729.397
-732.244
-735.09
-737.936
-740.782
-743.628
-746.474
-749.32
-752.165
-755.009
-757.854
-760.699
-763.545
-766.392
-769.239
-772.087
-774.934
-777.78
-780.625
-783.469
-786.313
-789.157
-792.001
-794.845
-797.69
-800.535
-803.38
-806.226
-809.071
-811.916
-814.762
-817.607
-820.453
-823.299
-826.144
-828.989
-831.833
-834.677
-837.522
-840.367
-843.212
-846.058
-848.903
-851.749
-854.594
-857.439
-860.283
-863.128
-865.971
-868.815
-871.659
-874.504
-877.349
-880.194
-883.039
-885.884
-888.729
-891.574
-894.418
-897.263
-900.108
-902.953
-905.797
-908.641
-911.486
-914.33
-917.174
-920.019
-922.864
-925.708
-928.553
-931.397
-934.241
-937.084
-939.928
-942.771
-945.614
-948.457
-951.301
-954.145
-956.99
-959.834
-962.679
-965.524
-968.369
-971.214
-974.058
-976.903
-979.747
-982.591
-985.435
-988.278
-991.122
-993.965
-996.809
-999.653
-1002.5
-1005.34
-1008.19
-1011.03
-1013.87
-1016.72
-1019.56
-1022.4
-1025.24
-1028.08
-1030.93
-1033.77
-1036.61
-1039.46
-1042.3
-1045.15
-1047.99
-1050.83
-1053.68
-1056.52
-1059.37
-1062.21
-1065.06
-1067.9
-1070.74
-1073.58
-1076.43
-1079.27
-1082.11
-1084.96
-1087.8
-1090.64
-1093.49
-1096.33
-1099.17
-1102.01
-1104.86
-1107.7
-1110.54
-1113.38
-1116.22
-1119.06
-1121.91
-1124.75
-1127.59
-1130.44
-1133.28
-1136.13
-1138.97
-1141.81
-1144.66
-1147.5
-1150.34
-1153.19
-1156.03
-1158.87
-1161.71
-1164.56
-1167.4
-1170.24
-1173.08
-1175.93
-1178.77
-1181.61
-1184.45
-1187.29
-1190.13
-1192.97
-1195.82
-1198.66
-1201.5
-1204.34
-1207.18
-1210.02
-1212.87
-1215.71
-1218.55
-1221.39
-1224.24
-1227.08
-1229.92
-1232.77
-1235.61
-1238.45
-1241.29
-1244.14
-1246.98
-1249.82
-1252.66
-1255.5
-1258.35
-1261.19
-1264.03
-1266.87
-1269.71
-1272.55
-1275.39
-1278.23
-1281.07
-1283.91
-1286.75
-1289.59
-1292.44
-1295.28
-1298.12
-1300.96
-1303.8
-1306.64
-1309.49
-1312.33
-1315.17
-1318.01
-1320.85
-1323.69
-1326.54
-1329.38
-1332.22
-1335.06
-1337.9
-1340.75
-1343.59
-1346.43
-1349.27
-1352.11
-1354.95
-1357.79
-1360.63
-1363.47
-1366.31
-1369.15
-1371.99
-1374.83
-1377.67
-1380.51
-1383.35
-1386.19
-1389.03
-1391.87
-1394.71
-1397.55
-1400.39
-1403.23
-1406.08
-1408.92
-1411.76
-1414.6
-1417.44
-1420.28
-1423.12
-1425.96
-1428.8
-1431.64
-1434.48
-1437.32
-1440.16
-1443
-1445.84
-1448.68
-1451.52
-1454.36
-1457.2
-1460.04
-1462.88
-1465.72
-1468.56
-1471.4
-1474.24
-1477.08
-1479.92
-1482.76
-1485.6
-1488.44
-1491.28
-1494.12
-1496.96
-1499.8
-1502.64
-1505.48
-1508.32
-1511.16
-1514
-1516.84
-1519.68
-1522.51
-1525.35
-1528.19
-1531.03
-1533.87
-1536.71
-1539.55
-1542.39
-1545.23
-1548.07
-1550.9
-1553.74
-1556.58
-1559.42
-1562.26
-1565.1
-1567.94
-1570.78
-1573.62
-1576.46
-1579.29
-1582.13
-1584.97
-1587.81
-1590.65
-1593.49
-1596.33
-1599.17
-1602.01
-1604.84
-1607.68
-1610.52
-1613.36
-1616.2
-1619.04
-1621.87
-1624.71
-1627.55
-1630.39
-1633.23
-1636.07
-1638.9
-1641.74
-1644.58
-1647.42
-1650.26
-1653.1
-1655.93
-1658.77
-1661.61
-1664.45
-1667.29
-1670.12
-1672.96
-1675.8
-1678.64
-1681.48
-1684.31
-1687.15
-1689.99
-1692.83
-1695.67
-1698.5
-1701.34
-1704.18
-1707.02
-1709.85
-1712.69
-1715.53
-1718.37
-1721.2
-1724.04
-1726.88
-1729.72
-1732.55
-1735.39
-1738.23
-1741.07
-1743.9
-1746.74
-1749.58
-1752.42
-1755.25
-1758.09
-1760.93
-1763.77
-1766.6
-1769.44
-1772.27
-1775.11
-1777.95
-1780.78
-1783.62
-1786.46
-1789.29
-1792.13
-1794.97
-1797.81
-1800.64
-1803.48
-1806.32
-1809.15
-1811.99
-1814.83
-1817.66
-1820.5
-1823.34
-1826.17
-1829.01
-1831.85
-1834.68
-1837.52
-1840.36
-1843.19
-1846.03
-1848.86
-1851.7
-1854.54
-1857.37
-1860.21
-1863.05
-1865.88
-1868.72
-1871.55
-1874.39
-1877.22
-1880.06
-1882.89
-1885.73
-1888.57
-1891.4
-1894.24
-1897.07
-1899.91
-1902.75
-1905.58
-1908.42
-1911.25
-1914.09
-1916.93
-1919.76
-1922.6
-1925.43
-1928.27
-1931.11
-1933.94
-1936.78
-1939.61
-1942.45
-1945.28
-1948.12
-1950.95
-1953.78
-1956.62
-1959.45
-1962.29
-1965.12
-1967.96
-1970.79
-1973.63
-1976.46
-1979.3
-1982.13
-1984.97
-1987.8
-1990.64
-1993.47
-1996.31
-1999.14
-2001.98
-2004.81
-2007.65
-2010.48
-2013.32
-2016.15
-2018.99
-2021.82
-2024.66
-2027.49
-2030.33
-2033.16
-2036
-2038.83
-2041.66
-2044.5
-2047.33
-2050.16
-2053
-2055.83
-2058.66
-2061.5
-2064.33
-2067.17
-2070
-2072.84
-2075.67
-2078.5
-2081.33
-2084.17
-2087
-2089.84
-2092.67
-2095.5
-2098.34
-2101.17
-2104.01
-2106.85
-2109.68
-2112.51
-2115.34
-2118.18
-2121.01
-2123.85
-2126.67
-2129.51
-2132.34
-2135.17
-2138.01
-2140.84
-2143.68
-2146.5
-2149.34
-2152.18
-2155
-2157.85
-2160.68
-2163.5
-2166.33
-2169.16
-2172
-2174.83
-2177.66
-2180.5
-2183.33
-2186.16
-2189.01
-2191.82
-2194.68
-2197.49
-2200.35
-2203.16
-2206
-2208.83
-2211.66
-2214.51
-2217.31
-2220.19
-2222.96
-2225.85
-2228.63
-2231.51
-2234.32
-2237.15
-2239.99
-2242.78
-2245.69
-2248.43
-2251.35
-2254.11
-2256.99
-2259.82
-2262.6
-2265.51
-2268.27
-2271.16
-2273.95
-2276.81
-2279.63
-2282.42
-2285.34
-2288.07
-2290.99
-2293.76
-2296.63
-2299.47
-2302.23
-2305.18
-2307.87
-2310.84
-2313.58
-2316.43
-2319.32
-2322.02
-2325.03
-2327.7
-2330.64
-2333.44
-2336.19
-2339.18
-2341.81
-2344.82
-2347.54
-2350.38
-2353.32
-2355.97
-2358.97
-2361.7
-2364.56
-2367.46
-2370.12
-2373.16
-2375.81
-2378.72
-2381.61
-2384.26
-2387.34
-2389.96
-2392.88
-2395.75
-2398.41
-2401.51
-2404.09
-2407.04
-2409.9
-2412.56
-2415.65
-2418.24
-2421.2
-2424.05
-2426.71
-2429.79
-2432.41
-2435.32
-2438.23
-2440.84
-2443.96
-2446.56
-2449.45
-2452.39
-2454.98
-2458.08
-2460.75
-2463.58
-2466.55
-2469.12
-2472.21
-2474.92
-2477.69
-2480.75
-2483.28
-2486.32
-2489.12
-2491.78
-2494.91
-2497.46
-2500.4
-2503.33
-2505.88
-2509.03
-2511.68
-2514.46
-2517.54
-2520.03
-2523.1
-2525.92
-2528.51
-2531.7
-2534.25
-2537.12
-2540.17
-2542.63
-2545.77
-2548.54
-2551.14
-2554.35
-2556.86
-2559.75
-2562.82
-2565.24
-2568.4
-2571.18
-2573.73
-2576.99
-2579.5
-2582.33
-2585.48
-2587.86
-2590.99
-2593.86
-2596.31
-2599.61
-2602.19
-2604.88
-2608.15
-2610.5
-2613.54
-2616.55
-2618.93
-2622.16
-2624.9
-2627.44
-2630.75
-2633.22
-2636.03
-2639.24
-2641.59
-2644.68
-2647.63
-2650.02
-2653.29
-2655.98
-2658.55
-2661.85
-2664.32
-2667.14
-2670.34
-2672.68
-2675.77
-2678.75
-2681.11
-2684.37
-2687.11
-2689.61
-2692.95
-2695.46
-2698.16
-2701.47
-2703.82
-2706.75
-2709.93
-2712.22
-2715.35
-2718.34
-2720.66
-2723.94
-2726.73
-2729.14
-2732.51
-2735.1
-2737.66
-2741.04
-2743.47
-2746.22
-2749.54
-2751.85
-2754.79
-2758
-2760.26
-2763.37
-2766.43
-2768.69
-2771.95
-2774.84
-2777.15
-2780.51
-2783.24
-2785.63
-2789.06
-2791.62
-2794.14
-2797.59
-2800.01
-2802.66
-2806.1
-2808.4
-2811.2
-2814.59
-2816.8
-2819.74
-2823.06
-2825.21
-2828.28
-2831.52
-2833.64
-2836.83
-2839.97
-2842.08
-2845.36
-2848.41
-2850.53
-2853.9
-2856.85
-2858.99
-2862.42
-2865.29
-2867.45
-2870.94
-2873.73
-2875.92
-2879.44
-2882.17
-2884.4
-2887.94
-2890.61
-2892.88
-2896.44
-2899.05
-2901.36
-2904.93
-2907.5
-2909.84
-2913.41
-2915.95
-2918.32
-2921.89
-2924.41
-2926.79
-2930.37
-2932.87
-2935.27
-2938.84
-2941.34
-2943.74
-2947.31
-2949.82
-2952.21
-2955.78
-2958.29
-2960.68
-2964.24
-2966.78
-2969.14
-2972.7
-2975.26
-2977.6
-2981.16
-2983.76
-2986.06
-2989.61
-2992.26
-2994.51
-2998.05
-3000.77
-3002.97
-3006.49
-3009.28
-3011.43
-3014.91
-3017.8
-3019.89
-3023.32
-3026.32
-3028.36
-3031.72
-3034.84
-3036.85
-3040.11
-3043.36
-3045.36
-3048.49
-3051.87
-3053.88
-3056.86
-3060.36
-3062.43
-3065.24
-3068.83
-3070.99
-3073.62
-3077.27
-3079.57
-3082.01
-3085.69
-3088.15
-3090.42
-3094.07
-3096.74
-3098.85
-3102.42
-3105.32
-3107.33
-3110.76
-3113.88
-3115.84
-3119.08
-3122.42
-3124.4
-3127.4
-3130.91
-3132.98
-3135.72
-3139.36
-3141.6
-3144.08
-3147.76
-3150.22
-3152.48
-3156.11
-3158.84
-3160.92
-3164.43
-3167.44
-3169.43
-3172.72
-3176
-3177.98
-3181
-3184.5
-3186.59
-3189.3
-3192.95
-3195.23
-3197.64
-3201.31
-3203.88
-3206.04
-3209.61
-3212.53
-3214.52
-3217.87
-3221.12
-3223.08
-3226.11
-3229.64
-3231.72
-3234.38
-3238.06
-3240.4
-3242.71
-3246.38
-3249.1
-3251.14
-3254.62
-3257.75
-3259.68
-3262.82
-3266.3
-3268.33
-3271.05
-3274.73
-3277.04
-3279.36
-3283.03
-3285.75
-3287.79
-3291.25
-3294.41
-3296.35
-3299.43
-3302.94
-3305.03
-3307.66
-3311.33
-3313.76
-3315.99
-3319.59
-3322.48
-3324.46
-3327.77
-3331.1
-3333.09
-3335.94
-3339.56
-3341.82
-3344.2
-3347.86
-3350.57
-3352.62
-3356.03
-3359.24
-3361.22
-3364.18
-3367.74
-3369.95
-3372.41
-3376.06
-3378.71
-3380.81
-3384.23
-3387.4
-3389.39
-3392.37
-3395.91
-3398.13
-3400.6
-3404.22
-3406.89
-3409
-3412.38
-3415.57
-3417.6
-3420.52
-3424.06
-3426.34
-3428.75
-3432.34
-3435.11
-3437.18
-3440.48
-3443.77
-3445.83
-3448.61
-3452.2
-3454.62
-3456.88
-3460.41
-3463.38
-3465.4
-3468.5
-3471.96
-3474.14
-3476.66
-3480.27
-3482.95
-3485.05
-3488.38
-3491.64
-3493.7
-3496.48
-3500.06
-3502.51
-3504.77
-3508.24
-3511.27
-3513.32
-3516.32
-3519.8
-3522.09
-3524.52
-3528.05
-3530.88
-3532.98
-3536.14
-3539.49
-3541.7
-3544.29
-3547.82
-3550.5
-3552.67
-3555.94
-3559.16
-3561.33
-3564.06
-3567.56
-3570.12
-3572.37
-3575.72
-3578.84
-3580.98
-3583.81
-3587.29
-3589.77
-3592.08
-3595.46
-3598.52
-3600.65
-3603.54
-3607
-3609.45
-3611.77
-3615.18
-3618.22
-3620.34
-3623.24
-3626.71
-3629.15
-3631.47
-3634.87
-3637.93
-3640.05
-3642.92
-3646.39
-3648.88
-3651.17
-3654.52
-3657.63
-3659.79
-3662.58
-3666.05
-3668.62
-3670.89
-3674.16
-3677.32
-3679.54
-3682.25
-3685.69
-3688.36
-3690.61
-3693.79
-3697.01
-3699.3
-3701.92
-3705.32
-3708.09
-3710.35
-3713.42
-3716.68
-3719.05
-3721.6
-3724.95
-3727.81
-3730.07
-3733.05
-3736.35
-3738.82
-3741.27
-3744.57
-3747.56
-3749.82
-3752.65
-3756.01
-3758.6
-3760.94
-3764.14
-3767.29
-3769.6
-3772.25
-3775.62
-3778.4
-3780.66
-3783.68
-3786.98
-3789.42
-3791.88
-3795.16
-3798.18
-3800.46
-3803.23
-3806.58
-3809.26
-3811.59
-3814.68
-3817.87
-3820.29
-3822.85
-3826.12
-3829.03
-3831.37
-3834.23
-3837.48
-3840.11
-3842.54
-3845.66
-3848.74
-3851.17
-3853.84
-3857.06
-3859.88
-3862.28
-3865.21
-3868.4
-3870.96
-3873.48
-3876.62
-3879.63
-3882.04
-3884.77
-3888
-3890.78
-3893.17
-3896.13
-3899.32
-3901.87
-3904.38
-3907.52
-3910.55
-3912.97
-3915.66
-3918.89
-3921.71
-3924.1
-3927
-3930.2
-3932.83
-3935.29
-3938.37
-3941.45
-3943.93
-3946.55
-3949.73
-3952.63
-3955.06
-3957.87
-3961.05
-3963.77
-3966.24
-3969.21
-3972.32
-3974.89
-3977.47
-3980.56
-3983.53
-3986.02
-3988.74
-3991.89
-3994.7
-3997.18
-4000.06
-4003.18
-4005.85
-4008.37
-4011.39
-4014.43
-4016.98
-4019.61
-4022.72
-4025.64
-4028.12
-4030.88
-4034.03
-4036.81
-4039.29
-4042.18
-4045.31
-4047.97
-4050.48
-4053.48
-4056.56
-4059.12
-4061.7
-4064.79
-4067.78
-4070.28
-4072.96
-4076.08
-4078.97
-4081.45
-4084.23
-4087.36
-4090.14
-4092.64
-4095.52
-4098.62
-4101.3
-4103.85
-4106.81
-4109.85
-4112.47
-4115.08
-4118.1
-4121.06
-4123.63
-4126.33
-4129.38
-4132.26
-4134.81
-4137.58
-4140.65
-4143.44
-4145.99
-4148.85
-4151.91
-4154.62
-4157.19
-4160.12
-4163.15
-4165.8
-4168.4
-4171.39
-4174.37
-4176.97
-4179.62
-4182.65
-4185.59
-4188.15
-4190.85
-4193.91
-4196.8
-4199.35
-4202.09
-4205.16
-4208
-4210.55
-4213.34
-4216.39
-4219.19
-4221.75
-4224.59
-4227.62
-4230.38
-4232.96
-4235.84
-4238.85
-4241.56
-4244.18
-4247.09
-4250.07
-4252.75
-4255.4
-4258.34
-4261.28
-4263.93
-4266.61
-4269.59
-4272.5
-4275.12
-4277.83
-4280.83
-4283.71
-4286.31
-4289.05
-4292.06
-4294.92
-4297.51
-4300.27
-4303.29
-4306.13
-4308.71
-4311.49
-4314.51
-4317.33
-4319.92
-4322.71
-4325.73
-4328.54
-4331.13
-4333.93
-4336.94
-4339.74
-4342.34
-4345.16
-4348.15
-4350.93
-4353.55
-4356.38
-4359.36
-4362.13
-4364.76
-4367.61
-4370.58
-4373.33
-4375.97
-4378.83
-4381.79
-4384.53
-4387.18
-4390.04
-4393
-4395.73
-4398.38
-4401.26
-4404.21
-4406.93
-4409.59
-4412.47
-4415.42
-4418.14
-4420.79
-4423.67
-4426.62
-4429.34
-4431.99
-4434.88
-4437.83
-4440.55
-4443.2
-4446.08
-4449.03
-4451.76
-4454.41
-4457.28
-4460.23
-4462.97
-4465.62
-4468.48
-4471.42
-4474.18
-4476.83
-4479.68
-4482.62
-4485.38
-4488.04
-4490.88
-4493.81
-4496.58
-4499.25
-4502.08
-4505.01
-4507.78
-4510.45
-4513.29
-4516.21
-4518.98
-4521.65
-4524.48
-4527.41
-4530.19
-4532.85
-4535.67
-4538.61
-4541.4
-4544.05
-4546.85
-4549.8
-4552.61
-4555.26
-4558.04
-4560.98
-4563.82
-4566.48
-4569.23
-4572.16
-4575.02
-4577.7
-4580.43
-4583.33
-4586.21
-4588.91
-4591.63
-4594.51
-4597.39
-4600.11
-4602.84
-4605.7
-4608.58
-4611.31
-4614.04
-4616.9
-4619.77
-4622.51
-4625.23
-4628.09
-4630.96
-4633.7
-4636.41
-4639.27
-4642.16
-4644.91
-4647.6
-4650.44
-4653.35
-4656.13
-4658.8
-4661.6
-4664.53
-4667.34
-4670.01
-4672.78
-4675.69
-4678.54
-4681.23
-4683.96
-4686.85
-4689.72
-4692.45
-4695.17
-4698.02
-4700.89
-4703.65
-4706.37
-4709.2
-4712.07
-4714.84
-4717.57
-4720.39
-4723.25
-4726.03
-4728.75
-4731.57
-4734.44
-4737.22
-4739.93
-4742.74
-4745.63
-4748.43
-4751.13
-4753.9
-4756.8
-4759.63
-4762.33
-4765.07
-4767.95
-4770.82
-4773.55
-4776.26
-4779.1
-4781.99
-4784.76
-4787.46
-4790.26
-4793.15
-4795.96
-4798.67
-4801.44
-4804.3
-4807.14
-4809.87
-4812.63
-4815.47
-4818.31
-4821.06
-4823.82
-4826.65
-4829.48
-4832.24
-4834.99
-4837.82
-4840.67
-4843.43
-4846.16
-4848.98
-4851.85
-4854.63
-4857.34
-4860.14
-4863.02
-4865.83
-4868.54
-4871.29
-4874.16
-4877.02
-4879.76
-4882.47
-4885.3
-4888.18
-4890.96
-4893.67
-4896.45
-4899.33
-4902.15
-4904.88
-4907.63
-4910.47
-4913.31
-4916.07
-4918.82
-4921.64
-4924.47
-4927.25
-4930
-4932.81
-4935.64
-4938.42
-4941.17
-4943.97
-4946.82
-4949.61
-4952.35
-4955.13
-4957.98
-4960.8
-4963.53
-4966.28
-4969.12
-4971.98
-4974.74
-4977.46
-4980.26
-4983.13
-4985.93
-4988.65
-4991.41
-4994.26
-4997.1
-4999.86
-5002.59
-5005.41
-5008.25
-5011.04
-5013.78
-5016.57
-5019.4
-5022.21
-5024.96
-5027.74
-5030.56
-5033.37
-5036.13
-5038.9
-5041.72
-5044.54
-5047.31
-5050.06
-5052.87
-5055.71
-5058.49
-5061.23
-5064.01
-5066.86
-5069.67
-5072.42
-5075.17
-5077.99
-5080.84
-5083.61
-5086.34
-5089.13
-5091.98
-5094.79
-5097.53
-5100.29
-5103.11
-5105.94
-5108.72
-5111.46
-5114.26
-5117.09
-5119.88
-5122.64
-5125.42
-5128.24
-5131.04
-5133.8
-5136.58
-5139.39
-5142.21
-5144.97
-5147.73
-5150.54
-5153.37
-5156.15
-5158.89
-5161.67
-5164.51
-5167.32
-5170.08
-5172.82
-5175.63
-5178.47
-5181.26
-5184
-5186.77
-5189.6
-5192.42
-5195.18
-5197.94
-5200.74
-5203.56
-5206.35
-5209.11
-5211.89
-5214.7
-5217.5
-5220.27
-5223.04
-5225.85
-5228.66
-5231.43
-5234.19
-5237
-5239.81
-5242.59
-5245.35
-5248.13
-5250.95
-5253.76
-5256.52
-5259.27
-5262.08
-5264.91
-5267.7
-5270.44
-5273.21
-5276.03
-5278.85
-5281.62
-5284.37
-5287.16
-5289.98
-5292.78
-5295.54
-5298.31
-5301.12
-5303.92
-5306.7
-5309.46
-5312.26
-5315.07
-5317.85
-5320.61
-5323.4
-5326.21
-5329.01
-5331.77
-5334.54
-5337.35
-5340.16
-5342.93
-5345.69
-5348.47
-5351.29
-5354.09
-5356.85
-5359.61
-5362.41
-5365.23
-5368.01
-5370.77
-5373.54
-5376.36
-5379.16
-5381.93
-5384.69
-5387.48
-5390.3
-5393.08
-5395.85
-5398.62
-5401.43
-5404.23
-5407
-5409.77
-5412.56
-5415.37
-5418.15
-5420.91
-5423.7
-5426.5
-5429.3
-5432.06
-5434.83
-5437.63
-5440.44
-5443.22
-5445.98
-5448.75
-5451.56
-5454.37
-5457.14
-5459.9
-5462.68
-5465.49
-5468.29
-5471.05
-5473.82
-5476.61
-5479.42
-5482.2
-5484.96
-5487.74
-5490.54
-5493.34
-5496.11
-5498.88
-5501.67
-5504.47
-5507.25
-5510.02
-5512.8
-5515.6
-5518.39
-5521.16
-5523.93
-5526.73
-5529.53
-5532.31
-5535.07
-5537.85
-5540.65
-5543.45
-5546.22
-5548.98
-5551.77
-5554.57
-5557.37
-5560.13
-5562.9
-5565.69
-5568.49
-5571.28
-5574.04
-5576.82
-5579.61
-5582.41
-5585.18
-5587.95
-5590.73
-5593.53
-5596.32
-5599.09
-5601.86
-5604.65
-5607.45
-5610.23
-5613
-5615.78
-5618.57
-5621.36
-5624.13
-5626.9
-5629.69
-5632.49
-5635.27
-5638.03
-5640.81
-5643.6
-5646.4
-5649.18
-5651.94
-5654.72
-5657.52
-5660.31
-5663.08
-5665.85
-5668.63
-5671.43
-5674.22
-5676.99
-5679.76
-5682.54
-5685.33
-5688.12
-5690.89
-5693.67
-5696.45
-5699.24
-5702.01
-5704.79
-5707.58
-5710.37
-5713.14
-5715.91
-5718.69
-5721.48
-5724.28
-5727.05
-5729.81
-5732.59
-5735.39
-5738.18
-5740.95
-5743.71
-5746.49
-5749.29
-5752.08
-5754.85
-5757.61
-5760.4
-5763.19
-5765.98
-5768.75
-5771.52
-5774.3
-5777.09
-5779.87
-5782.64
-5785.42
-5788.21
-5790.99
-5793.76
-5796.54
-5799.32
-5802.11
-5804.89
-5807.66
-5810.43
-5813.22
-5816.01
-5818.79
-5821.55
-5824.33
-5827.12
-5829.91
-5832.69
-5835.45
-5838.22
-5841.01
-5843.81
-5846.58
-5849.35
-5852.12
-5854.91
-5857.69
-5860.47
-5863.24
-5866.02
-5868.8
-5871.58
-5874.36
-5877.14
-5879.92
-5882.7
-5885.47
-5888.24
-5891.03
-5893.82
-5896.6
-5899.36
-5902.13
-5904.92
-5907.71
-5910.49
-5913.26
-5916.02
-5918.8
-5921.6
-5924.38
-5927.15
-5929.92
-5932.69
-5935.48
-5938.26
-5941.04
-5943.81
-5946.59
-5949.37
-5952.15
-5954.92
-5957.7
-5960.48
-5963.26
-5966.03
-5968.8
-5971.59
-5974.38
-5977.15
-5979.91
-5982.68
-5985.47
-5988.26
-5991.04
-5993.8
-5996.57
-5999.35
-6002.14
-6004.93
-6007.69
-6010.46
-6013.24
-6016.02
-6018.81
-6021.58
-6024.35
-6027.13
-6029.9
-6032.68
-6035.46
-6038.24
-6041.02
-6043.79
-6046.56
-6049.33
-6052.12
-6054.9
-6057.68
-6060.44
-6063.21
-6065.99
-6068.78
-6071.56
-6074.33
-6077.09
-6079.87
-6082.66
-6085.44
-6088.21
-6090.98
-6093.75
-6096.53
-6099.32
-6102.09
-6104.86
-6107.64
-6110.41
-6113.19
-6115.96
-6118.74
-6121.52
-6124.3
-6127.06
-6129.84
-6132.62
-6135.4
-6138.18
-6140.95
-6143.71
-6146.49
-6149.27
-6152.06
-6154.83
-6157.59
-6160.36
-6163.15
-6165.93
-6168.71
-6171.47
-6174.24
-6177.02
-6179.8
-6182.58
-6185.35
-6188.12
-6190.9
-6193.67
-6196.44
-6199.22
-6202
-6204.78
-6207.55
-6210.31
-6213.09
-6215.87
-6218.65
-6221.43
-6224.19
-6226.96
-6229.74
-6232.52
-6235.3
-6238.07
-6240.83
-6243.61
-6246.39
-6249.17
-6251.94
-6254.71
-6257.48
-6260.26
-6263.04
-6265.81
-6268.59
-6271.36
-6274.13
-6276.9
-6279.68
-6282.45
-6285.23
-6288.01
-6290.78
-6293.55
-6296.32
-6299.1
-6301.88
-6304.65
-6307.42
-6310.19
-6312.96
-6315.75
-6318.52
-6321.29
-6324.06
-6326.83
-6329.61
-6332.39
-6335.16
-6337.93
-6340.7
-6343.48
-6346.25
-6349.02
-6351.8
-6354.58
-6357.35
-6360.12
-6362.89
-6365.66
-6368.44
-6371.22
-6373.99
-6376.76
-6379.53
-6382.3
-6385.08
-6387.86
-6390.63
-6393.4
-6396.17
-6398.95
-6401.72
-6404.49
-6407.26
-6410.04
-6412.81
-6415.58
-6418.36
-6421.13
-6423.9
-6426.68
-6429.45
-6432.22
-6434.99
-6437.77
-6440.55
-6443.32
-6446.09
-6448.86
-6451.63
-6454.41
-6457.18
-6459.95
-6462.72
-6465.49
-6468.27
-6471.05
-6473.82
-6476.59
-6479.36
-6482.13
-6484.91
-6487.68
-6490.45
-6493.23
-6496
-6498.77
-6501.54
-6504.31
-6507.09
-6509.86
-6512.64
-6515.41
-6518.18
-6520.95
-6523.72
-6526.5
-6529.27
-6532.04
-6534.81
-6537.59
-6540.36
-6543.13
-6545.9
-6548.68
-6551.45
-6554.22
-6556.99
-6559.77
-6562.54
-6565.31
-6568.09
-6570.86
-6573.63
-6576.4
-6579.17
-6581.95
-6584.72
-6587.49
-6590.26
-6593.03
-6595.81
-6598.58
-6601.36
-6604.13
-6606.9
-6609.67
-6612.44
-6615.21
-6617.99
-6620.76
-6623.53
-6626.31
-6629.07
-6631.85
-6634.62
-6637.4
-6640.17
-6642.94
-6645.71
-6648.48
-6651.25
-6654.03
-6656.81
-6659.57
-6662.34
-6665.11
-6667.89
-6670.66
-6673.44
-6676.21
-6678.98
-6681.75
-6684.52
-6687.29
-6690.07
-6692.84
-6695.62
-6698.39
-6701.16
-6703.93
-6706.7
-6709.48
-6712.25
-6715.02
-6717.79
-6720.56
-6723.34
-6726.11
-6728.89
-6731.66
-6734.43
-6737.2
-6739.97
-6742.75
-6745.52
-6748.29
-6751.07
-6753.84
-6756.61
-6759.38
-6762.15
-6764.93
-6767.7
-6770.47
-6773.24
-6776.01
-6778.79
-6781.57
-6784.34
-6787.11
-6789.88
-6792.65
-6795.42
-6798.2
-6800.98
-6803.75
-6806.52
-6809.29
-6812.06
-6814.83
-6817.61
-6820.39
-6823.16
-6825.93
-6828.7
-6831.47
-6834.24
-6837.02
-6839.8
-6842.57
-6845.34
-6848.11
-6850.88
-6853.66
-6856.44
-6859.21
-6861.98
-6864.75
-6867.52
-6870.3
-6873.07
-6875.85
-6878.62
-6881.39
-6884.16
-6886.93
-6889.71
-6892.49
-6895.26
-6898.04
-6900.81
-6903.57
-6906.35
-6909.13
-6911.9
-6914.68
-6917.45
-6920.22
-6922.99
-6925.77
-6928.55
-6931.32
-6934.09
-6936.86
-6939.64
-6942.41
-6945.19
-6947.96
-6950.74
-6953.51
-6956.28
-6959.06
-6961.83
-6964.61
-6967.38
-6970.16
-6972.93
-6975.7
-6978.48
-6981.25
-6984.03
-6986.81
-6989.58
-6992.35
-6995.12
-6997.9
-7000.68
-7003.45
-7006.23
-7009
-7011.78
-7014.55
-7017.32
-7020.1
-7022.88
-7025.66
-7028.43
-7031.2
-7033.98
-7036.75
-7039.53
-7042.31
-7045.08
-7047.86
-7050.63
-7053.4
-7056.18
-7058.96
-7061.74
-7064.51
-7067.29
-7070.06
-7072.84
-7075.61
-7078.39
-7081.17
-7083.95
-7086.72
-7089.5
-7092.27
-7095.05
-7097.83
-7100.61
-7103.38
-7106.16
-7108.93
-7111.71
-7114.49
-7117.27
-7120.05
-7122.82
-7125.6
-7128.37
-7131.15
-7133.93
-7136.71
-7139.49
-7142.26
-7145.04
-7147.82
-7150.59
-7153.37
-7156.15
-7158.93
-7161.71
-7164.49
-7167.26
-7170.04
-7172.82
-7175.6
-7178.38
-7181.16
-7183.94
-7186.71
-7189.49
-7192.27
-7195.06
-7197.83
-7200.61
-7203.39
-7206.17
-7208.95
-7211.73
-7214.51
-7217.29
-7220.07
-7222.85
-7225.63
-7228.41
-7231.19
-7233.97
-7236.75
-7239.53
-7242.31
-7245.09
-7247.87
-7250.65
-7253.44
-7256.22
-7259
-7261.78
-7264.56
-7267.34
-7270.12
-7272.91
-7275.69
-7278.47
-7281.25
-7284.03
-7286.81
-7289.6
-7292.38
-7295.16
-7297.94
-7300.73
-7303.51
-7306.29
-7309.08
-7311.86
-7314.64
-7317.43
-7320.21
-7322.99
-7325.78
-7328.56
-7331.35
-7334.13
-7336.91
-7339.7
-7342.48
-7345.27
-7348.05
-7350.84
-7353.62
-7356.4
-7359.19
-7361.98
-7364.76
-7367.55
-7370.33
-7373.12
-7375.9
-7378.69
-7381.48
-7384.26
-7387.05
-7389.84
-7392.63
-7395.41
-7398.2
-7400.98
-7403.77
-7406.56
-7409.35
-7412.14
-7414.92
-7417.71
-7420.5
-7423.29
-7426.08
-7428.87
-7431.66
-7434.44
-7437.23
-7440.02
-7442.81
-7445.6
-7448.39
-7451.19
-7453.97
-7456.76
-7459.55
-7462.34
-7465.13
-7467.93
-7470.72
-7473.51
-7476.3
-7479.09
-7481.88
-7484.68
-7487.47
-7490.26
-7493.05
-7495.85
-7498.64
-7501.43
-7504.22
-7507.02
-7509.81
-7512.61
-7515.4
-7518.19
-7520.99
-7523.78
-7526.58
-7529.37
-7532.17
-7534.96
-7537.76
-7540.55
-7543.35
-7546.15
-7548.94
-7551.74
-7554.54
-7557.33
-7560.13
-7562.93
-7565.72
-7568.52
-7571.32
-7574.12
-7576.92
-7579.72
-7582.51
-7585.31
-7588.11
-7590.91
-7593.71
-7596.51
-7599.31
-7602.11
-7604.91
-7607.71
-7610.52
-7613.32
-7616.12
-7618.92
-7621.72
-7624.52
-7627.33
-7630.13
-7632.93
-7635.74
-7638.54
-7641.34
-7644.15
-7646.95
-7649.76
-7652.56
-7655.37
-7658.17
-7660.98
-7663.78
-7666.59
-7669.4
-7672.2
-7675.01
-7677.82
-7680.62
-7683.43
-7686.24
-7689.05
-7691.86
-7694.67
-7697.48
-7700.29
-7703.09
-7705.9
-7708.71
-7711.52
-7714.34
-7717.15
-7719.96
-7722.77
-7725.58
-7728.4
-7731.21
-7734.02
-7736.84
-7739.65
-7742.46
-7745.28
-7748.09
-7750.91
-7753.72
-7756.54
-7759.35
-7762.17
-7764.99
-7767.81
-7770.62
-7773.44
-7776.26
-7779.07
-7781.89
-7784.71
-7787.53
-7790.35
-7793.17
-7795.99
-7798.81
-7801.63
-7804.46
-7807.28
-7810.1
-7812.92
-7815.75
-7818.57
-7821.39
-7824.22
-7827.04
-7829.87
-7832.69
-7835.52
-7838.34
-7841.17
-7844
-7846.82
-7849.65
-7852.48
-7855.31
-7858.14
-7860.97
-7863.79
-7866.62
-7869.45
-7872.29
-7875.12
-7877.95
-7880.78
-7883.61
-7886.44
-7889.28
-7892.11
-7894.95
-7897.78
-7900.62
-7903.45
-7906.29
-7909.12
-7911.96
-7914.8
-7917.64
-7920.48
-7923.32
-7926.15
-7928.99
-7931.83
-7934.67
-7937.51
-7940.35
-7943.2
-7946.04
-7948.88
-7951.72
-7954.56
-7957.41
-7960.25
-7963.1
-7965.95
-7968.8
-7971.64
-7974.49
-7977.33
-7980.18
-7983.03
-7985.88
-7988.73
-7991.58
-7994.43
-7997.28
-8000.13
-8002.98
-8005.84
-8008.69
-8011.55
-8014.4
-8017.26
-8020.11
-8022.97
-8025.82
-8028.68
-8031.54
-8034.4
-8037.26
-8040.12
-8042.98
-8045.84
-8048.7
-8051.57
-8054.43
-8057.3
-8060.16
-8063.03
-8065.89
-8068.75
-8071.62
-8074.49
-8077.37
-8080.24
-8083.11
-8085.98
-8088.84
-8091.72
-8094.59
-8097.47
-8100.34
-8103.22
-8106.1
-8108.97
-8111.85
-8114.73
-8117.61
-8120.49
-8123.37
-8126.26
-8129.14
-8132.02
-8134.9
-8137.79
-8140.67
-8143.56
-8146.46
-8149.35
-8152.23
-8155.12
-8158.01
-8160.9
-8163.8
-8166.69
-8169.59
-8172.49
-8175.38
-8178.28
-8181.18
-8184.07
-8186.97
-8189.88
-8192.78
-8195.69
-8198.59
-8201.49
-8204.4
-8207.3
-8210.21
-8213.12
-8216.04
-8218.95
-8221.86
-8224.77
-8227.68
-8230.59
-8233.51
-8236.43
-8239.35
-8242.27
-8245.19
-8248.11
-8251.03
-8253.95
-8256.87
-8259.8
-8262.73
-8265.65
-8268.58
-8271.51
-8274.43
-8277.36
-8280.3
-8283.23
-8286.17
-8289.1
-8292.04
-8294.98
-8297.91
-8300.85
-8303.79
-8306.73
-8309.68
-8312.62
-8315.57
-8318.51
-8321.46
-8324.4
-8327.35
-8330.3
-8333.26
-8336.21
-8339.17
-8342.12
-8345.08
-8348.03
-8350.99
-8353.95
-8356.91
-8359.88
-8362.84
-8365.81
-8368.77
-8371.74
-8374.71
-8377.68
-8380.65
-8383.63
-8386.6
-8389.58
-8392.55
-8395.53
-8398.51
-8401.49
-8404.47
-8407.46
-8410.44
-8413.43
-8416.42
-8419.4
-8422.39
-8425.39
-8428.38
-8431.38
-8434.38
-8437.38
-8440.38
-8443.38
-8446.38
-8449.38
-8452.39
-8455.4
-8458.41
-8461.42
-8464.43
-8467.45
-8470.46
-8473.48
-8476.5
-8479.52
-8482.54
-8485.57
-8488.6
-8491.62
-8494.65
-8497.68
-8500.72
-8503.75
-8506.79
-8509.83
-8512.87
-8515.91
-8518.96
-8522
-8525.05
-8528.1
-8531.15
-8534.21
-8537.26
-8540.32
-8543.38
-8546.44
-8549.51
-8552.57
-8555.64
-8558.71
-8561.78
-8564.86
-8567.93
-8571.01
-8574.09
-8577.17
-8580.26
-8583.35
-8586.44
-8589.53
-8592.62
-8595.72
-8598.81
-8601.91
-8605.02
-8608.12
-8611.23
-8614.34
-8617.45
-8620.57
-8623.68
-8626.8
-8629.92
-8633.05
-8636.17
-8639.3
-8642.43
-8645.57
-8648.7
-8651.84
-8654.99
-8658.13
-8661.28
-8664.43
-8667.58
-8670.73
-8673.89
-8677.05
-8680.21
-8683.38
-8686.55
-8689.72
-8692.89
-8696.07
-8699.25
-8702.43
-8705.61
-8708.8
-8711.99
-8715.19
-8718.39
-8721.59
-8724.79
-8727.99
-8731.2
-8734.42
-8737.63
-8740.85
-8744.07
-8747.3
-8750.52
-8753.76
-8756.99
-8760.23
-8763.47
-8766.71
-8769.96
-8773.21
-8776.46
-8779.72
-8782.98
-8786.25
-8789.52
-8792.79
-8796.06
-8799.34
-8802.62
-8805.91
-8809.2
-8812.49
-8815.79
-8819.09
-8822.4
-8825.71
-8829.02
-8832.33
-8835.65
-8838.98
-8842.3
-8845.64
-8848.97
-8852.31
-8855.66
-8859
-8862.36
-8865.71
-8869.07
-8872.44
-8875.81
-8879.18
-8882.56
-8885.94
-8889.33
-8892.72
-8896.11
-8899.51
-8902.92
-8906.33
-8909.74
-8913.16
-8916.58
-8920.01
-8923.44
-8926.88
-8930.32
-8933.77
-8937.22
-8940.68
-8944.14
-8947.6
-8951.07
-8954.55
-8958.03
-8961.52
-8965.01
-8968.51
-8972.02
-8975.52
-8979.04
-8982.55
-8986.08
-8989.61
-8993.14
-8996.69
-9000.24
-9003.79
-9007.35
-9010.91
-9014.48
-9018.05
-9021.63
-9025.22
-9028.82
-9032.42
-9036.03
-9039.64
-9043.26
-9046.88
-9050.51
-9054.15
-9057.79
-9061.45
-9065.11
-9068.77
-9072.45
-9076.12
-9079.8
-9083.49
-9087.19
-9090.9
-9094.61
-9098.34
-9102.06
-9105.8
-9109.54
-9113.29
-9117.04
-9120.81
-9124.58
-9128.36
-9132.15
-9135.95
-9139.76
-9143.57
-9147.39
-9151.22
-9155.06
-9158.91
-9162.76
-9166.64
-9170.51
-9174.4
-9178.3
-9182.23
-9186.19
-9188.34
-9189.98
-9194.11
-9200.4
-9203.96
-9207.71
-9212.79
-9216.16
-9220.75
-9224.48
-9228.59
-9232.63
-9236.62
-9240.7
-9244.67
-9248.74
-9252.76
-9256.8
-9260.85
-9264.91
-9268.99
-9273.06
-9277.15
-9281.24
-9285.36
-9289.48
-9293.61
-9297.75
-9301.9
-9306.06
-9310.23
-9314.41
-9318.6
-9322.8
-9327.01
-9331.23
-9335.45
-9339.7
-9343.95
-9348.22
-9352.5
-9356.79
-9361.09
-9365.4
-9369.71
-9374.04
-9378.38
-9382.73
-9387.1
-9391.47
-9395.86
-9400.27
-9404.69
-9409.12
-9413.55
-9417.99
-9422.46
-9426.93
-9431.41
-9435.91
-9440.42
-9444.94
-9449.48
-9454.02
-9458.58
-9463.16
-9467.75
-9472.35
-9476.96
-9481.59
-9486.23
-9490.87
-9495.54
-9500.22
-9504.91
-9509.62
-9514.34
-9519.08
-9523.83
-9528.6
-9533.37
-9538.16
-9542.97
-9547.78
-9552.61
-9557.46