/*--------------------------------*- C++ -*----------------------------------*\
  =========                 |
  \\      /  F ield         | OpenFOAM: The Open Source CFD Toolbox
   \\    /   O peration     | Website:  https://openfoam.org
    \\  /    A nd           | Version:  9
     \\/     M anipulation  |
\*---------------------------------------------------------------------------*/
FoamFile
{
    format      ascii;
    class       volScalarField;
    location    "0.034";
    object      mag(U);
}
// * * * * * * * * * * * * * * * * * * * * * * * * * * * * * * * * * * * * * //

dimensions      [0 1 -1 0 0 0 0];

internalField   nonuniform List<scalar> 
10000
(
6.34062
6.38486
6.43408
6.47428
6.51066
6.54733
6.58485
6.62264
6.66037
6.69802
6.73566
6.7733
6.81096
6.84861
6.88626
6.92391
6.96157
6.99922
7.03687
7.07452
7.11218
7.14983
7.18748
7.22514
7.26279
7.30044
7.3381
7.37575
7.41341
7.45106
7.48872
7.52637
7.56403
7.60168
7.63934
7.67699
7.71465
7.75231
7.78996
7.82762
7.86528
7.90293
7.94059
7.97825
8.01591
8.05356
8.09122
8.12888
8.16654
8.2042
8.24186
8.27952
8.31718
8.35484
8.39249
8.43015
8.46782
8.50548
8.54314
8.5808
8.61846
8.65612
8.69378
8.73144
8.7691
8.80677
8.84443
8.88209
8.91976
8.95742
8.99508
9.03275
9.07041
9.10807
9.14574
9.1834
9.22106
9.25873
9.29639
9.33406
9.37172
9.40939
9.44706
9.48472
9.52239
9.56006
9.59772
9.63539
9.67306
9.71072
9.74839
9.78605
9.82372
9.86139
9.89905
9.93672
9.97439
10.0121
10.0497
10.0874
10.1251
10.1627
10.2004
10.2381
10.2758
10.3134
10.3511
10.3888
10.4264
10.4641
10.5018
10.5395
10.5771
10.6148
10.6525
10.6902
10.7278
10.7655
10.8032
10.8408
10.8785
10.9162
10.9539
10.9915
11.0292
11.0669
11.1046
11.1422
11.1799
11.2176
11.2553
11.2929
11.3306
11.3683
11.406
11.4436
11.4813
11.519
11.5567
11.5943
11.632
11.6697
11.7074
11.7451
11.7827
11.8204
11.8581
11.8958
11.9335
11.9711
12.0088
12.0465
12.0842
12.1218
12.1595
12.1972
12.2349
12.2726
12.3102
12.3479
12.3856
12.4233
12.461
12.4987
12.5363
12.574
12.6117
12.6494
12.6871
12.7248
12.7624
12.8001
12.8378
12.8755
12.9132
12.9509
12.9885
13.0262
13.0639
13.1016
13.1393
13.177
13.2146
13.2523
13.29
13.3277
13.3654
13.4031
13.4408
13.4785
13.5161
13.5538
13.5915
13.6292
13.6669
13.7046
13.7423
13.78
13.8176
13.8553
13.893
13.9307
13.9684
14.0061
14.0438
14.0815
14.1192
14.1569
14.1945
14.2322
14.2699
14.3076
14.3453
14.383
14.4207
14.4584
14.4961
14.5338
14.5715
14.6092
14.6469
14.6845
14.7222
14.7599
14.7976
14.8353
14.873
14.9107
14.9484
14.9861
15.0238
15.0615
15.0992
15.1369
15.1746
15.2123
15.25
15.2877
15.3254
15.3631
15.4008
15.4385
15.4762
15.5139
15.5515
15.5892
15.6269
15.6646
15.7023
15.74
15.7777
15.8154
15.8531
15.8908
15.9285
15.9662
16.0039
16.0416
16.0793
16.117
16.1547
16.1924
16.2301
16.2678
16.3056
16.3433
16.381
16.4187
16.4564
16.4941
16.5318
16.5695
16.6072
16.6449
16.6826
16.7203
16.758
16.7957
16.8334
16.8711
16.9088
16.9465
16.9842
17.0219
17.0596
17.0973
17.135
17.1728
17.2105
17.2482
17.2859
17.3236
17.3613
17.399
17.4367
17.4744
17.5121
17.5498
17.5875
17.6252
17.663
17.7007
17.7384
17.7761
17.8138
17.8515
17.8892
17.9269
17.9646
18.0023
18.0401
18.0778
18.1155
18.1532
18.1909
18.2286
18.2663
18.304
18.3417
18.3795
18.4172
18.4549
18.4926
18.5303
18.568
18.6057
18.6435
18.6812
18.7189
18.7566
18.7943
18.832
18.8697
18.9075
18.9452
18.9829
19.0206
19.0583
19.096
19.1338
19.1715
19.2092
19.2469
19.2846
19.3223
19.3601
19.3978
19.4355
19.4732
19.5109
19.5487
19.5864
19.6241
19.6618
19.6995
19.7373
19.775
19.8127
19.8504
19.8881
19.9259
19.9636
20.0013
20.039
20.0767
20.1145
20.1522
20.1899
20.2276
20.2654
20.3031
20.3408
20.3785
20.4162
20.454
20.4917
20.5294
20.5671
20.6049
20.6426
20.6803
20.718
20.7558
20.7935
20.8312
20.8689
20.9067
20.9444
20.9821
21.0198
21.0576
21.0953
21.133
21.1708
21.2085
21.2462
21.2839
21.3217
21.3594
21.3971
21.4348
21.4726
21.5103
21.548
21.5858
21.6235
21.6612
21.699
21.7367
21.7744
21.8121
21.8499
21.8876
21.9253
21.9631
22.0008
22.0385
22.0763
22.114
22.1517
22.1895
22.2272
22.2649
22.3027
22.3404
22.3781
22.4159
22.4536
22.4913
22.5291
22.5668
22.6045
22.6423
22.68
22.7177
22.7555
22.7932
22.8309
22.8687
22.9064
22.9441
22.9819
23.0196
23.0574
23.0951
23.1328
23.1706
23.2083
23.246
23.2838
23.3215
23.3593
23.397
23.4347
23.4725
23.5102
23.548
23.5857
23.6234
23.6612
23.6989
23.7367
23.7744
23.8121
23.8499
23.8876
23.9254
23.9631
24.0008
24.0386
24.0763
24.1141
24.1518
24.1896
24.2273
24.265
24.3028
24.3405
24.3783
24.416
24.4538
24.4915
24.5292
24.567
24.6047
24.6425
24.6802
24.718
24.7557
24.7935
24.8312
24.869
24.9067
24.9444
24.9822
25.0199
25.0577
25.0954
25.1332
25.1709
25.2087
25.2464
25.2842
25.3219
25.3597
25.3974
25.4352
25.4729
25.5107
25.5484
25.5862
25.6239
25.6617
25.6994
25.7372
25.7749
25.8127
25.8504
25.8882
25.9259
25.9637
26.0014
26.0392
26.0769
26.1147
26.1524
26.1902
26.2279
26.2657
26.3034
26.3412
26.3789
26.4167
26.4545
26.4922
26.53
26.5677
26.6055
26.6432
26.681
26.7187
26.7565
26.7942
26.832
26.8698
26.9075
26.9453
26.983
27.0208
27.0585
27.0963
27.1341
27.1718
27.2096
27.2473
27.2851
27.3228
27.3606
27.3984
27.4361
27.4739
27.5116
27.5494
27.5872
27.6249
27.6627
27.7004
27.7382
27.776
27.8137
27.8515
27.8892
27.927
27.9648
28.0025
28.0403
28.078
28.1158
28.1536
28.1913
28.2291
28.2669
28.3046
28.3424
28.3802
28.4179
28.4557
28.4934
28.5312
28.569
28.6067
28.6445
28.6823
28.72
28.7578
28.7956
28.8333
28.8711
28.9089
28.9466
28.9844
29.0222
29.0599
29.0977
29.1355
29.1732
29.211
29.2488
29.2865
29.3243
29.3621
29.3998
29.4376
29.4754
29.5131
29.5509
29.5887
29.6264
29.6642
29.702
29.7398
29.7775
29.8153
29.8531
29.8908
29.9286
29.9664
30.0042
30.0419
30.0797
30.1175
30.1552
30.193
30.2308
30.2686
30.3063
30.3441
30.3819
30.4197
30.4574
30.4952
30.533
30.5707
30.6085
30.6463
30.6841
30.7218
30.7596
30.7974
30.8352
30.8729
30.9107
30.9485
30.9863
31.0241
31.0618
31.0996
31.1374
31.1752
31.2129
31.2507
31.2885
31.3263
31.364
31.4018
31.4396
31.4774
31.5152
31.5529
31.5907
31.6285
31.6663
31.7041
31.7418
31.7796
31.8174
31.8552
31.893
31.9307
31.9685
32.0063
32.0441
32.0819
32.1196
32.1574
32.1952
32.233
32.2708
32.3086
32.3463
32.3841
32.4219
32.4597
32.4975
32.5353
32.573
32.6108
32.6486
32.6864
32.7242
32.762
32.7997
32.8375
32.8753
32.9131
32.9509
32.9887
33.0265
33.0642
33.102
33.1398
33.1776
33.2154
33.2532
33.291
33.3288
33.3665
33.4043
33.4421
33.4799
33.5177
33.5555
33.5933
33.6311
33.6689
33.7066
33.7444
33.7822
33.82
33.8578
33.8956
33.9334
33.9712
34.009
34.0468
34.0845
34.1223
34.1601
34.1979
34.2357
34.2735
34.3113
34.3491
34.3869
34.4247
34.4625
34.5003
34.5381
34.5758
34.6136
34.6514
34.6892
34.727
34.7648
34.8026
34.8404
34.8782
34.916
34.9538
34.9916
35.0294
35.0672
35.105
35.1428
35.1806
35.2184
35.2562
35.294
35.3318
35.3696
35.4073
35.4451
35.4829
35.5207
35.5585
35.5963
35.6341
35.6719
35.7097
35.7475
35.7853
35.8231
35.8609
35.8987
35.9365
35.9743
36.0121
36.0499
36.0877
36.1255
36.1633
36.2011
36.2389
36.2767
36.3145
36.3523
36.3901
36.4279
36.4657
36.5036
36.5414
36.5792
36.617
36.6548
36.6926
36.7304
36.7682
36.806
36.8438
36.8816
36.9194
36.9572
36.995
37.0328
37.0706
37.1084
37.1462
37.184
37.2218
37.2596
37.2974
37.3353
37.3731
37.4109
37.4487
37.4865
37.5243
37.5621
37.5999
37.6377
37.6755
37.7133
37.7511
37.7889
37.8268
37.8646
37.9024
37.9402
37.978
38.0158
38.0536
38.0914
38.1292
38.167
38.2049
38.2427
38.2805
38.3183
38.3561
38.3939
38.4317
38.4695
38.5073
38.5452
38.583
38.6208
38.6586
38.6964
38.7342
38.772
38.8098
38.8477
38.8855
38.9233
38.9611
38.9989
39.0367
39.0745
39.1124
39.1502
39.188
39.2258
39.2636
39.3014
39.3392
39.3771
39.4149
39.4527
39.4905
39.5283
39.5661
39.604
39.6418
39.6796
39.7174
39.7552
39.7931
39.8309
39.8687
39.9065
39.9443
39.9821
40.02
40.0578
40.0956
40.1334
40.1712
40.2091
40.2469
40.2847
40.3225
40.3603
40.3982
40.436
40.4738
40.5116
40.5494
40.5873
40.6251
40.6629
40.7007
40.7386
40.7764
40.8142
40.852
40.8898
40.9277
40.9655
41.0033
41.0411
41.079
41.1168
41.1546
41.1924
41.2303
41.2681
41.3059
41.3437
41.3816
41.4194
41.4572
41.495
41.5329
41.5707
41.6085
41.6463
41.6842
41.722
41.7598
41.7976
41.8355
41.8733
41.9111
41.949
41.9868
42.0246
42.0624
42.1003
42.1381
42.1759
42.2138
42.2516
42.2894
42.3272
42.3651
42.4029
42.4407
42.4786
42.5164
42.5542
42.5921
42.6299
42.6677
42.7055
42.7434
42.7812
42.819
42.8569
42.8947
42.9325
42.9704
43.0082
43.046
43.0839
43.1217
43.1595
43.1974
43.2352
43.273
43.3109
43.3487
43.3865
43.4244
43.4622
43.5
43.5379
43.5757
43.6135
43.6514
43.6892
43.727
43.7649
43.8027
43.8406
43.8784
43.9162
43.9541
43.9919
44.0297
44.0676
44.1054
44.1433
44.1811
44.2189
44.2568
44.2946
44.3324
44.3703
44.4081
44.446
44.4838
44.5216
44.5595
44.5973
44.6352
44.673
44.7108
44.7487
44.7865
44.8244
44.8622
44.9
44.9379
44.9757
45.0136
45.0514
45.0892
45.1271
45.1649
45.2028
45.2406
45.2785
45.3163
45.3541
45.392
45.4298
45.4677
45.5055
45.5434
45.5812
45.619
45.6569
45.6947
45.7326
45.7704
45.8083
45.8461
45.884
45.9218
45.9596
45.9975
46.0353
46.0732
46.111
46.1489
46.1867
46.2246
46.2624
46.3003
46.3381
46.376
46.4138
46.4517
46.4895
46.5274
46.5652
46.603
46.6409
46.6787
46.7166
46.7544
46.7923
46.8301
46.868
46.9058
46.9437
46.9815
47.0194
47.0572
47.0951
47.1329
47.1708
47.2086
47.2465
47.2843
47.3222
47.36
47.3979
47.4358
47.4736
47.5115
47.5493
47.5872
47.625
47.6629
47.7007
47.7386
47.7764
47.8143
47.8521
47.89
47.9278
47.9657
48.0036
48.0414
48.0793
48.1171
48.155
48.1928
48.2307
48.2685
48.3064
48.3442
48.3821
48.42
48.4578
48.4957
48.5335
48.5714
48.6092
48.6471
48.685
48.7228
48.7607
48.7985
48.8364
48.8742
48.9121
48.95
48.9878
49.0257
49.0635
49.1014
49.1393
49.1771
49.215
49.2528
49.2907
49.3286
49.3664
49.4043
49.4421
49.48
49.5179
49.5557
49.5936
49.6314
49.6693
49.7072
49.745
49.7829
49.8208
49.8586
49.8965
49.9343
49.9722
50.0101
50.0479
50.0858
50.1237
50.1615
50.1994
50.2372
50.2751
50.313
50.3508
50.3887
50.4266
50.4644
50.5023
50.5402
50.578
50.6159
50.6538
50.6916
50.7295
50.7674
50.8052
50.8431
50.881
50.9188
50.9567
50.9946
51.0324
51.0703
51.1082
51.146
51.1839
51.2218
51.2596
51.2975
51.3354
51.3732
51.4111
51.449
51.4868
51.5247
51.5626
51.6005
51.6383
51.6762
51.7141
51.7519
51.7898
51.8277
51.8655
51.9034
51.9413
51.9792
52.017
52.0549
52.0928
52.1306
52.1685
52.2064
52.2443
52.2821
52.32
52.3579
52.3958
52.4336
52.4715
52.5094
52.5472
52.5851
52.623
52.6609
52.6987
52.7366
52.7745
52.8124
52.8502
52.8881
52.926
52.9639
53.0017
53.0396
53.0775
53.1154
53.1532
53.1911
53.229
53.2669
53.3047
53.3426
53.3805
53.4184
53.4563
53.4941
53.532
53.5699
53.6078
53.6456
53.6835
53.7214
53.7593
53.7972
53.835
53.8729
53.9108
53.9487
53.9866
54.0244
54.0623
54.1002
54.1381
54.176
54.2138
54.2517
54.2896
54.3275
54.3654
54.4032
54.4411
54.479
54.5169
54.5548
54.5926
54.6305
54.6684
54.7063
54.7442
54.7821
54.8199
54.8578
54.8957
54.9336
54.9715
55.0094
55.0472
55.0851
55.123
55.1609
55.1988
55.2367
55.2745
55.3124
55.3503
55.3882
55.4261
55.464
55.5019
55.5397
55.5776
55.6155
55.6534
55.6913
55.7292
55.7671
55.8049
55.8428
55.8807
55.9186
55.9565
55.9944
56.0323
56.0702
56.108
56.1459
56.1838
56.2217
56.2596
56.2975
56.3354
56.3733
56.4112
56.449
56.4869
56.5248
56.5627
56.6006
56.6385
56.6764
56.7143
56.7522
56.79
56.8279
56.8658
56.9037
56.9416
56.9795
57.0174
57.0553
57.0932
57.1311
57.169
57.2069
57.2447
57.2826
57.3205
57.3584
57.3963
57.4342
57.4721
57.51
57.5479
57.5858
57.6237
57.6616
57.6995
57.7374
57.7753
57.8131
57.851
57.8889
57.9268
57.9647
58.0026
58.0405
58.0784
58.1163
58.1542
58.1921
58.23
58.2679
58.3058
58.3437
58.3816
58.4195
58.4574
58.4953
58.5332
58.5711
58.609
58.6469
58.6848
58.7227
58.7606
58.7985
58.8364
58.8743
58.9122
58.9501
58.9879
59.0258
59.0637
59.1016
59.1395
59.1774
59.2153
59.2532
59.2911
59.329
59.3669
59.4048
59.4427
59.4806
59.5185
59.5565
59.5944
59.6323
59.6702
59.7081
59.746
59.7839
59.8218
59.8597
59.8976
59.9355
59.9734
60.0113
60.0492
60.0871
60.125
60.1629
60.2008
60.2387
60.2766
60.3145
60.3524
60.3903
60.4282
60.4661
60.504
60.5419
60.5798
60.6177
60.6556
60.6935
60.7315
60.7694
60.8073
60.8452
60.8831
60.921
60.9589
60.9968
61.0347
61.0726
61.1105
61.1484
61.1863
61.2242
61.2621
61.3001
61.338
61.3759
61.4138
61.4517
61.4896
61.5275
61.5654
61.6033
61.6412
61.6791
61.717
61.755
61.7929
61.8308
61.8687
61.9066
61.9445
61.9824
62.0203
62.0582
62.0961
62.1341
62.172
62.2099
62.2478
62.2857
62.3236
62.3615
62.3994
62.4373
62.4753
62.5132
62.5511
62.589
62.6269
62.6648
62.7027
62.7406
62.7786
62.8165
62.8544
62.8923
62.9302
62.9681
63.006
63.0439
63.0819
63.1198
63.1577
63.1956
63.2335
63.2714
63.3093
63.3473
63.3852
63.4231
63.461
63.4989
63.5368
63.5748
63.6127
63.6506
63.6885
63.7264
63.7643
63.8023
63.8402
63.8781
63.916
63.9539
63.9918
64.0298
64.0677
64.1056
64.1435
64.1814
64.2193
64.2573
64.2952
64.3331
64.371
64.4089
64.4468
64.4848
64.5227
64.5606
64.5985
64.6364
64.6744
64.7123
64.7502
64.7881
64.826
64.864
64.9019
64.9398
64.9777
65.0156
65.0536
65.0915
65.1294
65.1673
65.2053
65.2432
65.2811
65.319
65.3569
65.3949
65.4328
65.4707
65.5086
65.5465
65.5845
65.6224
65.6603
65.6982
65.7362
65.7741
65.812
65.8499
65.8879
65.9258
65.9637
66.0016
66.0395
66.0775
66.1154
66.1533
66.1912
66.2292
66.2671
66.305
66.3429
66.3809
66.4188
66.4567
66.4946
66.5326
66.5705
66.6084
66.6464
66.6843
66.7222
66.7601
66.7981
66.836
66.8739
66.9118
66.9498
66.9877
67.0256
67.0635
67.1015
67.1394
67.1773
67.2153
67.2532
67.2911
67.329
67.367
67.4049
67.4428
67.4808
67.5187
67.5566
67.5945
67.6325
67.6704
67.7083
67.7463
67.7842
67.8221
67.86
67.898
67.9359
67.9738
68.0118
68.0497
68.0876
68.1256
68.1635
68.2014
68.2394
68.2773
68.3152
68.3531
68.3911
68.429
68.4669
68.5049
68.5428
68.5807
68.6187
68.6566
68.6945
68.7325
68.7704
68.8083
68.8463
68.8842
68.9221
68.9601
68.998
69.0359
69.0739
69.1118
69.1497
69.1877
69.2256
69.2635
69.3015
69.3394
69.3773
69.4153
69.4532
69.4911
69.5291
69.567
69.6049
69.6429
69.6808
69.7188
69.7567
69.7946
69.8326
69.8705
69.9084
69.9464
69.9843
70.0222
70.0602
70.0981
70.1361
70.174
70.2119
70.2499
70.2878
70.3257
70.3637
70.4016
70.4396
70.4775
70.5154
70.5534
70.5913
70.6292
70.6672
70.7051
70.7431
70.781
70.8189
70.8569
70.8948
70.9328
70.9707
71.0086
71.0466
71.0845
71.1224
71.1604
71.1983
71.2363
71.2742
71.3121
71.3501
71.388
71.426
71.4639
71.5019
71.5398
71.5777
71.6157
71.6536
71.6916
71.7295
71.7674
71.8054
71.8433
71.8813
71.9192
71.9571
71.9951
72.033
72.071
72.1089
72.1469
72.1848
72.2227
72.2607
72.2986
72.3366
72.3745
72.4125
72.4504
72.4883
72.5263
72.5642
72.6022
72.6401
72.6781
72.716
72.754
72.7919
72.8298
72.8678
72.9057
72.9437
72.9816
73.0196
73.0575
73.0955
73.1334
73.1713
73.2093
73.2472
73.2852
73.3231
73.3611
73.399
73.437
73.4749
73.5129
73.5508
73.5888
73.6267
73.6646
73.7026
73.7405
73.7785
73.8164
73.8544
73.8923
73.9303
73.9682
74.0062
74.0441
74.0821
74.12
74.158
74.1959
74.2339
74.2718
74.3097
74.3477
74.3856
74.4236
74.4615
74.4995
74.5374
74.5754
74.6133
74.6513
74.6892
74.7272
74.7651
74.8031
74.841
74.879
74.9169
74.9549
74.9928
75.0308
75.0687
75.1067
75.1446
75.1826
75.2205
75.2585
75.2964
75.3344
75.3723
75.4103
75.4482
75.4862
75.5241
75.5621
75.6
75.638
75.6759
75.7139
75.7518
75.7898
75.8277
75.8657
75.9037
75.9416
75.9796
76.0175
76.0555
76.0934
76.1314
76.1693
76.2073
76.2452
76.2832
76.3211
76.3591
76.397
76.435
76.4729
76.5109
76.5488
76.5868
76.6248
76.6627
76.7007
76.7386
76.7766
76.8145
76.8525
76.8904
76.9284
76.9663
77.0043
77.0422
77.0802
77.1182
77.1561
77.1941
77.232
77.27
77.3079
77.3459
77.3838
77.4218
77.4598
77.4977
77.5357
77.5736
77.6116
77.6495
77.6875
77.7254
77.7634
77.8014
77.8393
77.8773
77.9152
77.9532
77.9911
78.0291
78.067
78.105
78.143
78.1809
78.2189
78.2568
78.2948
78.3327
78.3707
78.4087
78.4466
78.4846
78.5225
78.5605
78.5984
78.6364
78.6744
78.7123
78.7503
78.7882
78.8262
78.8642
78.9021
78.9401
78.978
79.016
79.0539
79.0919
79.1299
79.1678
79.2058
79.2437
79.2817
79.3197
79.3576
79.3956
79.4335
79.4715
79.5094
79.5474
79.5854
79.6233
79.6613
79.6992
79.7372
79.7752
79.8131
79.8511
79.889
79.927
79.965
80.0029
80.0409
80.0788
80.1168
80.1548
80.1927
80.2307
80.2686
80.3066
80.3446
80.3825
80.4205
80.4584
80.4964
80.5344
80.5723
80.6103
80.6482
80.6862
80.7242
80.7621
80.8001
80.8381
80.876
80.914
80.9519
80.9899
81.0279
81.0658
81.1038
81.1417
81.1797
81.2177
81.2556
81.2936
81.3316
81.3695
81.4075
81.4454
81.4834
81.5214
81.5593
81.5973
81.6353
81.6732
81.7112
81.7491
81.7871
81.8251
81.863
81.901
81.939
81.9769
82.0149
82.0528
82.0908
82.1288
82.1667
82.2047
82.2427
82.2806
82.3186
82.3565
82.3945
82.4325
82.4704
82.5084
82.5464
82.5843
82.6223
82.6603
82.6982
82.7362
82.7741
82.8121
82.8501
82.888
82.926
82.964
83.0019
83.0399
83.0779
83.1158
83.1538
83.1917
83.2297
83.2677
83.3056
83.3436
83.3816
83.4195
83.4575
83.4955
83.5334
83.5714
83.6094
83.6473
83.6853
83.7232
83.7612
83.7992
83.8371
83.8751
83.9131
83.951
83.989
84.027
84.0649
84.1029
84.1409
84.1788
84.2168
84.2548
84.2927
84.3307
84.3686
84.4066
84.4446
84.4825
84.5205
84.5585
84.5964
84.6344
84.6724
84.7103
84.7483
84.7863
84.8242
84.8622
84.9002
84.9381
84.9761
85.0141
85.052
85.09
85.128
85.1659
85.2039
85.2419
85.2798
85.3178
85.3557
85.3937
85.4317
85.4696
85.5076
85.5456
85.5835
85.6215
85.6595
85.6974
85.7354
85.7734
85.8113
85.8493
85.8873
85.9252
85.9632
86.0012
86.0391
86.0771
86.1151
86.153
86.191
86.229
86.2669
86.3049
86.3429
86.3808
86.4188
86.4568
86.4947
86.5327
86.5707
86.6086
86.6466
86.6846
86.7225
86.7605
86.7984
86.8364
86.8744
86.9123
86.9503
86.9883
87.0262
87.0642
87.1022
87.1401
87.1781
87.2161
87.254
87.292
87.33
87.3679
87.4059
87.4439
87.4818
87.5198
87.5578
87.5957
87.6337
87.6717
87.7096
87.7476
87.7856
87.8235
87.8615
87.8995
87.9374
87.9754
88.0134
88.0513
88.0893
88.1273
88.1652
88.2032
88.2412
88.2791
88.3171
88.355
88.393
88.431
88.4689
88.5069
88.5449
88.5828
88.6208
88.6588
88.6967
88.7347
88.7727
88.8106
88.8486
88.8866
88.9245
88.9625
89.0005
89.0384
89.0764
89.1144
89.1523
89.1903
89.2283
89.2662
89.3042
89.3421
89.3801
89.4181
89.456
89.494
89.532
89.5699
89.6079
89.6459
89.6838
89.7218
89.7598
89.7977
89.8357
89.8737
89.9116
89.9496
89.9875
90.0255
90.0635
90.1014
90.1394
90.1774
90.2153
90.2533
90.2913
90.3292
90.3672
90.4052
90.4431
90.4811
90.519
90.557
90.595
90.6329
90.6709
90.7089
90.7468
90.7848
90.8228
90.8607
90.8987
90.9366
90.9746
91.0126
91.0505
91.0885
91.1265
91.1644
91.2024
91.2403
91.2783
91.3163
91.3542
91.3922
91.4302
91.4681
91.5061
91.544
91.582
91.62
91.6579
91.6959
91.7339
91.7718
91.8098
91.8477
91.8857
91.9237
91.9616
91.9996
92.0375
92.0755
92.1135
92.1514
92.1894
92.2274
92.2653
92.3033
92.3412
92.3792
92.4172
92.4551
92.4931
92.531
92.569
92.607
92.6449
92.6829
92.7208
92.7588
92.7968
92.8347
92.8727
92.9106
92.9486
92.9866
93.0245
93.0625
93.1004
93.1384
93.1764
93.2143
93.2523
93.2902
93.3282
93.3661
93.4041
93.4421
93.48
93.518
93.5559
93.5939
93.6319
93.6698
93.7078
93.7457
93.7837
93.8216
93.8596
93.8976
93.9355
93.9735
94.0114
94.0494
94.0873
94.1253
94.1632
94.2012
94.2392
94.2771
94.3151
94.353
94.391
94.4289
94.4669
94.5048
94.5428
94.5808
94.6187
94.6567
94.6946
94.7326
94.7705
94.8085
94.8464
94.8844
94.9223
94.9603
94.9983
95.0362
95.0742
95.1121
95.1501
95.188
95.226
95.2639
95.3019
95.3398
95.3778
95.4157
95.4537
95.4916
95.5296
95.5675
95.6055
95.6434
95.6814
95.7193
95.7573
95.7952
95.8332
95.8711
95.9091
95.947
95.985
96.0229
96.0609
96.0988
96.1368
96.1747
96.2127
96.2506
96.2886
96.3265
96.3645
96.4024
96.4404
96.4783
96.5163
96.5542
96.5922
96.6301
96.6681
96.706
96.744
96.7819
96.8198
96.8578
96.8957
96.9337
96.9716
97.0096
97.0475
97.0855
97.1234
97.1614
97.1993
97.2372
97.2752
97.3131
97.3511
97.389
97.427
97.4649
97.5028
97.5408
97.5787
97.6167
97.6546
97.6926
97.7305
97.7684
97.8064
97.8443
97.8823
97.9202
97.9581
97.9961
98.034
98.072
98.1099
98.1478
98.1858
98.2237
98.2617
98.2996
98.3375
98.3755
98.4134
98.4513
98.4893
98.5272
98.5652
98.6031
98.641
98.679
98.7169
98.7548
98.7928
98.8307
98.8686
98.9066
98.9445
98.9824
99.0204
99.0583
99.0962
99.1342
99.1721
99.21
99.248
99.2859
99.3238
99.3618
99.3997
99.4376
99.4756
99.5135
99.5514
99.5894
99.6273
99.6652
99.7031
99.7411
99.779
99.8169
99.8549
99.8928
99.9307
99.9686
100.007
100.044
100.082
100.12
100.158
100.196
100.234
100.272
100.31
100.348
100.386
100.424
100.462
100.5
100.538
100.575
100.613
100.651
100.689
100.727
100.765
100.803
100.841
100.879
100.917
100.955
100.993
101.03
101.068
101.106
101.144
101.182
101.22
101.258
101.296
101.334
101.372
101.41
101.448
101.485
101.523
101.561
101.599
101.637
101.675
101.713
101.751
101.789
101.827
101.865
101.903
101.94
101.978
102.016
102.054
102.092
102.13
102.168
102.206
102.244
102.282
102.32
102.357
102.395
102.433
102.471
102.509
102.547
102.585
102.623
102.661
102.699
102.736
102.774
102.812
102.85
102.888
102.926
102.964
103.002
103.04
103.078
103.115
103.153
103.191
103.229
103.267
103.305
103.343
103.381
103.419
103.457
103.494
103.532
103.57
103.608
103.646
103.684
103.722
103.76
103.798
103.835
103.873
103.911
103.949
103.987
104.025
104.063
104.101
104.139
104.176
104.214
104.252
104.29
104.328
104.366
104.404
104.442
104.48
104.517
104.555
104.593
104.631
104.669
104.707
104.745
104.783
104.82
104.858
104.896
104.934
104.972
105.01
105.048
105.086
105.123
105.161
105.199
105.237
105.275
105.313
105.351
105.389
105.426
105.464
105.502
105.54
105.578
105.616
105.654
105.691
105.729
105.767
105.805
105.843
105.881
105.919
105.957
105.994
106.032
106.07
106.108
106.146
106.184
106.222
106.259
106.297
106.335
106.373
106.411
106.449
106.486
106.524
106.562
106.6
106.638
106.676
106.714
106.751
106.789
106.827
106.865
106.903
106.941
106.979
107.016
107.054
107.092
107.13
107.168
107.206
107.243
107.281
107.319
107.357
107.395
107.433
107.47
107.508
107.546
107.584
107.622
107.66
107.697
107.735
107.773
107.811
107.849
107.887
107.924
107.962
108
108.038
108.076
108.113
108.151
108.189
108.227
108.265
108.303
108.34
108.378
108.416
108.454
108.492
108.529
108.567
108.605
108.643
108.681
108.718
108.756
108.794
108.832
108.87
108.908
108.945
108.983
109.021
109.059
109.097
109.134
109.172
109.21
109.248
109.286
109.323
109.361
109.399
109.437
109.474
109.512
109.55
109.588
109.626
109.663
109.701
109.739
109.777
109.815
109.852
109.89
109.928
109.966
110.003
110.041
110.079
110.117
110.155
110.192
110.23
110.268
110.306
110.343
110.381
110.419
110.457
110.494
110.532
110.57
110.608
110.645
110.683
110.721
110.759
110.797
110.834
110.872
110.91
110.948
110.985
111.023
111.061
111.099
111.136
111.174
111.212
111.249
111.287
111.325
111.363
111.4
111.438
111.476
111.514
111.551
111.589
111.627
111.665
111.702
111.74
111.778
111.815
111.853
111.891
111.929
111.966
112.004
112.042
112.079
112.117
112.155
112.193
112.23
112.268
112.306
112.343
112.381
112.419
112.457
112.494
112.532
112.57
112.607
112.645
112.683
112.72
112.758
112.796
112.833
112.871
112.909
112.947
112.984
113.022
113.06
113.097
113.135
113.173
113.21
113.248
113.286
113.323
113.361
113.399
113.436
113.474
113.512
113.549
113.587
113.625
113.662
113.7
113.737
113.775
113.813
113.85
113.888
113.926
113.963
114.001
114.039
114.076
114.114
114.152
114.189
114.227
114.264
114.302
114.34
114.377
114.415
114.453
114.49
114.528
114.565
114.603
114.641
114.678
114.716
114.753
114.791
114.829
114.866
114.904
114.941
114.979
115.017
115.054
115.092
115.129
115.167
115.204
115.242
115.28
115.317
115.355
115.392
115.43
115.467
115.505
115.543
115.58
115.618
115.655
115.693
115.73
115.768
115.805
115.843
115.881
115.918
115.956
115.993
116.031
116.068
116.106
116.143
116.181
116.218
116.256
116.293
116.331
116.368
116.406
116.443
116.481
116.518
116.556
116.593
116.631
116.668
116.706
116.743
116.781
116.818
116.856
116.893
116.931
116.968
117.006
117.043
117.081
117.118
117.156
117.193
117.23
117.268
117.305
117.343
117.38
117.418
117.455
117.493
117.53
117.567
117.605
117.642
117.68
117.717
117.755
117.792
117.829
117.867
117.904
117.942
117.979
118.016
118.054
118.091
118.129
118.166
118.203
118.241
118.278
118.315
118.353
118.39
118.428
118.465
118.502
118.54
118.577
118.614
118.652
118.689
118.726
118.764
118.801
118.838
118.876
118.913
118.95
118.988
119.025
119.062
119.1
119.137
119.174
119.211
119.249
119.286
119.323
119.361
119.398
119.435
119.472
119.51
119.547
119.584
119.621
119.659
119.696
119.733
119.77
119.808
119.845
119.882
119.919
119.956
119.994
120.031
120.068
120.105
120.142
120.18
120.217
120.254
120.291
120.328
120.366
120.403
120.44
120.477
120.514
120.551
120.588
120.626
120.663
120.7
120.737
120.774
120.811
120.848
120.885
120.923
120.96
120.997
121.034
121.071
121.108
121.145
121.182
121.219
121.256
121.293
121.33
121.367
121.404
121.441
121.479
121.516
121.553
121.59
121.627
121.664
121.701
121.738
121.775
121.812
121.849
121.885
121.922
121.959
121.996
122.033
122.07
122.107
122.144
122.181
122.218
122.255
122.292
122.329
122.366
122.402
122.439
122.476
122.513
122.55
122.587
122.624
122.661
122.697
122.734
122.771
122.808
122.845
122.882
122.918
122.955
122.992
123.029
123.065
123.102
123.139
123.176
123.213
123.249
123.286
123.323
123.359
123.396
123.433
123.47
123.506
123.543
123.58
123.616
123.653
123.69
123.726
123.763
123.8
123.836
123.873
123.909
123.946
123.983
124.019
124.056
124.092
124.129
124.165
124.202
124.239
124.275
124.312
124.348
124.385
124.421
124.458
124.494
124.531
124.567
124.603
124.64
124.676
124.713
124.749
124.786
124.822
124.858
124.895
124.931
124.967
125.004
125.04
125.076
125.113
125.149
125.185
125.222
125.258
125.294
125.331
125.367
125.403
125.439
125.475
125.512
125.548
125.584
125.62
125.656
125.693
125.729
125.765
125.801
125.837
125.873
125.909
125.945
125.981
126.018
126.054
126.09
126.126
126.162
126.198
126.234
126.27
126.306
126.342
126.377
126.413
126.449
126.485
126.521
126.557
126.593
126.629
126.665
126.7
126.736
126.772
126.808
126.844
126.879
126.915
126.951
126.986
127.022
127.058
127.094
127.129
127.165
127.2
127.236
127.272
127.307
127.343
127.378
127.414
127.449
127.485
127.52
127.556
127.591
127.627
127.662
127.698
127.733
127.769
127.804
127.839
127.875
127.91
127.945
127.981
128.016
128.051
128.086
128.122
128.157
128.192
128.227
128.262
128.297
128.333
128.368
128.403
128.438
128.473
128.508
128.543
128.578
128.613
128.648
128.683
128.718
128.752
128.787
128.822
128.857
128.892
128.927
128.961
128.996
129.031
129.066
129.1
129.135
129.169
129.204
129.239
129.273
129.308
129.342
129.377
129.411
129.446
129.48
129.515
129.549
129.583
129.618
129.652
129.686
129.721
129.755
129.789
129.823
129.857
129.892
129.926
129.96
129.994
130.028
130.062
130.096
130.13
130.164
130.198
130.232
130.266
130.299
130.333
130.367
130.401
130.434
130.468
130.502
130.535
130.569
130.603
130.636
130.67
130.703
130.737
130.77
130.804
130.837
130.87
130.904
130.937
130.97
131.003
131.036
131.07
131.103
131.136
131.169
131.202
131.235
131.268
131.301
131.334
131.367
131.399
131.432
131.465
131.498
131.53
131.563
131.596
131.628
131.661
131.693
131.726
131.758
131.79
131.823
131.855
131.887
131.92
131.952
131.984
132.016
132.048
132.08
132.112
132.144
132.176
132.208
132.24
132.272
132.303
132.335
132.367
132.398
132.43
132.462
132.493
132.525
132.556
132.587
132.619
132.65
132.681
132.712
132.744
132.775
132.806
132.837
132.868
132.899
132.93
132.96
132.991
133.022
133.053
133.083
133.114
133.144
133.175
133.205
133.236
133.266
133.296
133.327
133.357
133.387
133.417
133.447
133.477
133.507
133.537
133.567
133.597
133.626
133.656
133.686
133.715
133.745
133.774
133.804
133.833
133.862
133.892
133.921
133.95
133.979
134.008
134.037
134.066
134.095
134.124
134.152
134.181
134.21
134.238
134.267
134.295
134.324
134.352
134.38
134.408
134.437
134.465
134.493
134.521
134.549
134.577
134.604
134.632
134.66
134.687
134.715
134.742
134.77
134.797
134.824
134.852
134.879
134.906
134.933
134.96
134.987
135.014
135.041
135.067
135.094
135.121
135.147
135.174
135.2
135.226
135.253
135.279
135.305
135.331
135.357
135.383
135.409
135.435
135.461
135.486
135.512
135.537
135.563
135.588
135.614
135.639
135.664
135.689
135.715
135.74
135.765
135.789
135.814
135.839
135.864
135.888
135.913
135.937
135.962
135.986
136.011
136.035
136.059
136.083
136.107
136.131
136.155
136.179
136.203
136.227
136.25
136.274
136.297
136.321
136.344
136.368
136.391
136.414
136.437
136.46
136.483
136.506
136.529
136.552
136.575
136.598
136.62
136.643
136.666
136.688
136.71
136.733
136.755
136.777
136.8
136.822
136.844
136.866
136.888
136.91
136.932
136.953
136.975
136.997
137.018
137.04
137.061
137.083
137.104
137.126
137.147
137.168
137.189
137.21
137.232
137.253
137.274
137.295
137.315
137.336
137.357
137.378
137.398
137.419
137.44
137.46
137.481
137.501
137.522
137.542
137.562
137.583
137.603
137.623
137.643
137.663
137.683
137.703
137.723
137.743
137.763
137.783
137.803
137.823
137.842
137.862
137.882
137.901
137.921
137.941
137.96
137.98
137.999
138.018
138.038
138.057
138.077
138.096
138.115
138.134
138.154
138.173
138.192
138.211
138.23
138.249
138.268
138.287
138.306
138.325
138.344
138.363
138.382
138.401
138.419
138.438
138.457
138.476
138.494
138.513
138.532
138.551
138.569
138.588
138.606
138.625
138.644
138.662
138.681
138.699
138.718
138.736
138.755
138.773
138.791
138.81
138.828
138.847
138.865
138.883
138.902
138.92
138.938
138.957
138.975
138.993
139.011
139.03
139.048
139.066
139.084
139.102
139.121
139.139
139.157
139.175
139.193
139.211
139.229
139.248
139.266
139.284
139.302
139.32
139.338
139.356
139.374
139.392
139.41
139.428
139.446
139.464
139.482
139.5
139.518
139.536
139.554
139.572
139.59
139.608
139.626
139.644
139.662
139.68
139.698
139.716
139.734
139.752
139.77
139.788
139.805
139.823
139.841
139.859
139.877
139.895
139.913
139.931
139.949
139.967
139.984
140.002
140.02
140.038
140.056
140.074
140.092
140.11
140.127
140.145
140.163
140.181
140.199
140.217
140.235
140.253
140.27
140.288
140.306
140.324
140.342
140.36
140.378
140.395
140.413
140.431
140.449
140.467
140.485
140.502
140.52
140.538
140.556
140.574
140.592
140.609
140.627