/*--------------------------------*- C++ -*----------------------------------*\
  =========                 |
  \\      /  F ield         | OpenFOAM: The Open Source CFD Toolbox
   \\    /   O peration     | Website:  https://openfoam.org
    \\  /    A nd           | Version:  9
     \\/     M anipulation  |
\*---------------------------------------------------------------------------*/
FoamFile
{
    format      ascii;
    class       volScalarField;
    location    "0.034";
    object      T;
}
// * * * * * * * * * * * * * * * * * * * * * * * * * * * * * * * * * * * * * //

dimensions      [0 0 0 1 0 0 0];

internalField   nonuniform List<scalar> 
10000
(
202.609
202.61
202.613
202.616
202.619
202.623
202.626
202.629
202.632
202.635
202.638
202.641
202.644
202.647
202.65
202.653
202.656
202.659
202.662
202.665
202.668
202.671
202.674
202.677
202.68
202.683
202.686
202.689
202.692
202.695
202.698
202.701
202.704
202.707
202.71
202.712
202.715
202.718
202.721
202.724
202.727
202.73
202.733
202.736
202.739
202.742
202.745
202.748
202.751
202.754
202.757
202.759
202.762
202.765
202.768
202.771
202.774
202.777
202.78
202.783
202.786
202.788
202.791
202.794
202.797
202.8
202.803
202.806
202.809
202.812
202.814
202.817
202.82
202.822
202.825
202.827
202.83
202.833
202.836
202.839
202.843
202.846
202.848
202.851
202.854
202.856
202.858
202.861
202.863
202.865
202.868
202.87
202.873
202.876
202.879
202.882
202.886
202.889
202.892
202.896
202.899
202.901
202.904
202.906
202.908
202.91
202.912
202.913
202.914
202.915
202.915
202.915
202.916
202.916
202.916
202.916
202.916
202.916
202.916
202.916
202.916
202.915
202.915
202.914
202.914
202.913
202.913
202.913
202.912
202.912
202.911
202.911
202.91
202.91
202.909
202.909
202.908
202.908
202.907
202.907
202.906
202.906
202.905
202.905
202.905
202.904
202.904
202.903
202.903
202.902
202.902
202.901
202.901
202.9
202.9
202.899
202.899
202.899
202.898
202.898
202.897
202.897
202.896
202.896
202.895
202.895
202.894
202.894
202.893
202.893
202.893
202.892
202.892
202.891
202.891
202.89
202.89
202.889
202.889
202.888
202.888
202.887
202.887
202.886
202.886
202.886
202.885
202.885
202.884
202.884
202.883
202.883
202.882
202.882
202.881
202.881
202.88
202.88
202.879
202.879
202.878
202.878
202.878
202.877
202.877
202.876
202.876
202.875
202.875
202.874
202.874
202.873
202.873
202.872
202.872
202.871
202.871
202.871
202.87
202.87
202.869
202.869
202.868
202.868
202.867
202.867
202.866
202.866
202.865
202.865
202.864
202.864
202.863
202.863
202.863
202.862
202.862
202.861
202.861
202.86
202.86
202.859
202.859
202.858
202.858
202.857
202.857
202.856
202.856
202.855
202.855
202.855
202.854
202.854
202.853
202.853
202.852
202.852
202.851
202.851
202.85
202.85
202.849
202.849
202.848
202.848
202.847
202.847
202.846
202.846
202.846
202.845
202.845
202.844
202.844
202.843
202.843
202.842
202.842
202.841
202.841
202.84
202.84
202.839
202.839
202.838
202.838
202.837
202.837
202.836
202.836
202.836
202.835
202.835
202.834
202.834
202.833
202.833
202.832
202.832
202.831
202.831
202.83
202.83
202.829
202.829
202.828
202.828
202.827
202.827
202.826
202.826
202.826
202.825
202.825
202.824
202.824
202.823
202.823
202.822
202.822
202.821
202.821
202.82
202.82
202.819
202.819
202.818
202.818
202.817
202.817
202.816
202.816
202.815
202.815
202.814
202.814
202.814
202.813
202.813
202.812
202.812
202.811
202.811
202.81
202.81
202.809
202.809
202.808
202.808
202.807
202.807
202.806
202.806
202.805
202.805
202.804
202.804
202.803
202.803
202.802
202.802
202.801
202.801
202.801
202.8
202.8
202.799
202.799
202.798
202.798
202.797
202.797
202.796
202.796
202.795
202.795
202.794
202.794
202.793
202.793
202.792
202.792
202.791
202.791
202.79
202.79
202.789
202.789
202.788
202.788
202.787
202.787
202.786
202.786
202.786
202.785
202.785
202.784
202.784
202.783
202.783
202.782
202.782
202.781
202.781
202.78
202.78
202.779
202.779
202.778
202.778
202.777
202.777
202.776
202.776
202.775
202.775
202.774
202.774
202.773
202.773
202.772
202.772
202.771
202.771
202.77
202.77
202.769
202.769
202.768
202.768
202.767
202.767
202.766
202.766
202.766
202.765
202.765
202.764
202.764
202.763
202.763
202.762
202.762
202.761
202.761
202.76
202.76
202.759
202.759
202.758
202.758
202.757
202.757
202.756
202.756
202.755
202.755
202.754
202.754
202.753
202.753
202.752
202.752
202.751
202.751
202.75
202.75
202.749
202.749
202.748
202.748
202.747
202.747
202.746
202.746
202.745
202.745
202.744
202.744
202.743
202.743
202.742
202.742
202.741
202.741
202.74
202.74
202.739
202.739
202.738
202.738
202.737
202.737
202.736
202.736
202.735
202.735
202.735
202.734
202.734
202.733
202.733
202.732
202.732
202.731
202.731
202.73
202.73
202.729
202.729
202.728
202.728
202.727
202.727
202.726
202.726
202.725
202.725
202.724
202.724
202.723
202.723
202.722
202.722
202.721
202.721
202.72
202.72
202.719
202.719
202.718
202.718
202.717
202.717
202.716
202.716
202.715
202.715
202.714
202.714
202.713
202.713
202.712
202.712
202.711
202.711
202.71
202.71
202.709
202.709
202.708
202.708
202.707
202.707
202.706
202.706
202.705
202.705
202.704
202.704
202.703
202.703
202.702
202.702
202.701
202.701
202.7
202.7
202.699
202.699
202.698
202.698
202.697
202.697
202.696
202.696
202.695
202.695
202.694
202.694
202.693
202.693
202.692
202.692
202.691
202.691
202.69
202.69
202.689
202.689
202.688
202.688
202.687
202.687
202.686
202.686
202.685
202.685
202.684
202.684
202.683
202.683
202.682
202.681
202.681
202.68
202.68
202.679
202.679
202.678
202.678
202.677
202.677
202.676
202.676
202.675
202.675
202.674
202.674
202.673
202.673
202.672
202.672
202.671
202.671
202.67
202.67
202.669
202.669
202.668
202.668
202.667
202.667
202.666
202.666
202.665
202.665
202.664
202.664
202.663
202.663
202.662
202.662
202.661
202.661
202.66
202.66
202.659
202.659
202.658
202.658
202.657
202.657
202.656
202.656
202.655
202.655
202.654
202.654
202.653
202.653
202.652
202.652
202.651
202.651
202.65
202.649
202.649
202.648
202.648
202.647
202.647
202.646
202.646
202.645
202.645
202.644
202.644
202.643
202.643
202.642
202.642
202.641
202.641
202.64
202.64
202.639
202.639
202.638
202.638
202.637
202.637
202.636
202.636
202.635
202.635
202.634
202.634
202.633
202.633
202.632
202.632
202.631
202.631
202.63
202.629
202.629
202.628
202.628
202.627
202.627
202.626
202.626
202.625
202.625
202.624
202.624
202.623
202.623
202.622
202.622
202.621
202.621
202.62
202.62
202.619
202.619
202.618
202.618
202.617
202.617
202.616
202.616
202.615
202.615
202.614
202.614
202.613
202.613
202.612
202.612
202.611
202.61
202.61
202.609
202.609
202.608
202.608
202.607
202.607
202.606
202.606
202.605
202.605
202.604
202.604
202.603
202.603
202.602
202.601
202.601
202.6
202.6
202.599
202.599
202.598
202.598
202.597
202.597
202.596
202.596
202.595
202.595
202.594
202.594
202.593
202.593
202.592
202.592
202.591
202.591
202.59
202.59
202.589
202.589
202.588
202.587
202.587
202.586
202.586
202.585
202.585
202.584
202.584
202.583
202.583
202.582
202.582
202.581
202.581
202.58
202.58
202.579
202.579
202.578
202.577
202.577
202.576
202.576
202.575
202.575
202.575
202.574
202.573
202.573
202.572
202.572
202.571
202.571
202.57
202.57
202.569
202.569
202.568
202.568
202.567
202.567
202.566
202.566
202.565
202.564
202.564
202.563
202.563
202.562
202.562
202.561
202.561
202.56
202.56
202.559
202.559
202.558
202.558
202.557
202.557
202.556
202.555
202.555
202.554
202.554
202.553
202.553
202.552
202.552
202.551
202.551
202.55
202.55
202.549
202.549
202.548
202.547
202.547
202.546
202.546
202.546
202.545
202.544
202.544
202.543
202.543
202.542
202.542
202.541
202.541
202.54
202.54
202.539
202.539
202.538
202.537
202.537
202.536
202.536
202.535
202.535
202.534
202.534
202.533
202.533
202.532
202.532
202.531
202.531
202.53
202.529
202.529
202.529
202.528
202.527
202.527
202.526
202.526
202.525
202.525
202.524
202.524
202.523
202.523
202.522
202.522
202.521
202.52
202.52
202.519
202.519
202.518
202.518
202.517
202.517
202.516
202.516
202.515
202.515
202.514
202.513
202.513
202.512
202.512
202.511
202.511
202.51
202.51
202.509
202.509
202.508
202.508
202.507
202.507
202.506
202.505
202.505
202.504
202.504
202.503
202.503
202.502
202.502
202.501
202.501
202.5
202.499
202.499
202.498
202.498
202.497
202.497
202.496
202.496
202.495
202.495
202.494
202.494
202.493
202.493
202.492
202.492
202.491
202.49
202.49
202.489
202.489
202.488
202.488
202.487
202.487
202.486
202.486
202.485
202.484
202.484
202.483
202.483
202.482
202.482
202.481
202.481
202.48
202.479
202.479
202.479
202.478
202.477
202.477
202.476
202.476
202.475
202.475
202.474
202.474
202.473
202.473
202.472
202.471
202.471
202.47
202.47
202.469
202.469
202.468
202.468
202.467
202.466
202.466
202.465
202.465
202.464
202.464
202.463
202.463
202.462
202.462
202.461
202.461
202.46
202.46
202.459
202.458
202.458
202.457
202.457
202.456
202.456
202.455
202.455
202.454
202.453
202.453
202.452
202.452
202.451
202.451
202.45
202.45
202.449
202.448
202.448
202.447
202.447
202.446
202.446
202.445
202.445
202.444
202.444
202.443
202.443
202.442
202.441
202.441
202.44
202.44
202.439
202.439
202.438
202.438
202.437
202.436
202.436
202.435
202.435
202.434
202.434
202.433
202.433
202.432
202.431
202.431
202.43
202.43
202.429
202.429
202.428
202.428
202.427
202.427
202.426
202.426
202.425
202.424
202.424
202.423
202.423
202.422
202.422
202.421
202.421
202.42
202.419
202.419
202.418
202.418
202.417
202.417
202.416
202.416
202.415
202.414
202.414
202.413
202.413
202.412
202.412
202.411
202.411
202.41
202.409
202.409
202.408
202.408
202.407
202.407
202.406
202.406
202.405
202.405
202.404
202.403
202.403
202.402
202.402
202.401
202.401
202.4
202.4
202.399
202.398
202.398
202.397
202.397
202.396
202.396
202.395
202.394
202.394
202.393
202.393
202.392
202.392
202.391
202.391
202.39
202.389
202.389
202.388
202.388
202.387
202.387
202.386
202.386
202.385
202.385
202.384
202.383
202.383
202.382
202.382
202.381
202.381
202.38
202.38
202.379
202.378
202.378
202.377
202.377
202.376
202.376
202.375
202.374
202.374
202.373
202.373
202.372
202.372
202.371
202.37
202.37
202.369
202.369
202.368
202.368
202.367
202.367
202.366
202.365
202.365
202.364
202.364
202.363
202.363
202.362
202.361
202.361
202.36
202.36
202.359
202.359
202.358
202.358
202.357
202.357
202.356
202.355
202.355
202.354
202.354
202.353
202.353
202.352
202.351
202.351
202.35
202.35
202.349
202.349
202.348
202.347
202.347
202.346
202.346
202.345
202.345
202.344
202.344
202.343
202.342
202.342
202.341
202.341
202.34
202.34
202.339
202.338
202.338
202.337
202.337
202.336
202.336
202.335
202.334
202.334
202.333
202.333
202.332
202.332
202.331
202.33
202.33
202.329
202.329
202.328
202.328
202.327
202.326
202.326
202.325
202.325
202.324
202.324
202.323
202.323
202.322
202.321
202.321
202.32
202.32
202.319
202.319
202.318
202.317
202.317
202.316
202.316
202.315
202.315
202.314
202.313
202.313
202.312
202.312
202.311
202.311
202.31
202.31
202.309
202.308
202.308
202.307
202.307
202.306
202.306
202.305
202.304
202.304
202.303
202.303
202.302
202.302
202.301
202.3
202.3
202.299
202.299
202.298
202.297
202.297
202.296
202.296
202.295
202.295
202.294
202.293
202.293
202.292
202.292
202.291
202.291
202.29
202.289
202.289
202.288
202.288
202.287
202.287
202.286
202.285
202.285
202.284
202.284
202.283
202.283
202.282
202.281
202.281
202.28
202.28
202.279
202.279
202.278
202.277
202.277
202.276
202.276
202.275
202.275
202.274
202.273
202.273
202.272
202.272
202.271
202.27
202.27
202.269
202.269
202.268
202.268
202.267
202.266
202.266
202.265
202.265
202.264
202.264
202.263
202.262
202.262
202.261
202.261
202.26
202.26
202.259
202.258
202.258
202.257
202.257
202.256
202.255
202.255
202.254
202.254
202.253
202.253
202.252
202.251
202.251
202.25
202.25
202.249
202.248
202.248
202.247
202.247
202.246
202.246
202.245
202.244
202.244
202.243
202.243
202.242
202.241
202.241
202.24
202.24
202.239
202.239
202.238
202.237
202.237
202.236
202.236
202.235
202.234
202.234
202.233
202.233
202.232
202.232
202.231
202.23
202.23
202.229
202.229
202.228
202.228
202.227
202.226
202.226
202.225
202.225
202.224
202.223
202.223
202.222
202.222
202.221
202.221
202.22
202.219
202.219
202.218
202.218
202.217
202.216
202.216
202.215
202.215
202.214
202.213
202.213
202.212
202.212
202.211
202.211
202.21
202.209
202.209
202.208
202.208
202.207
202.206
202.206
202.205
202.205
202.204
202.204
202.203
202.202
202.202
202.201
202.201
202.2
202.199
202.199
202.198
202.198
202.197
202.196
202.196
202.195
202.195
202.194
202.193
202.193
202.192
202.192
202.191
202.191
202.19
202.189
202.189
202.188
202.188
202.187
202.186
202.186
202.185
202.185
202.184
202.183
202.183
202.182
202.182
202.181
202.181
202.18
202.179
202.179
202.178
202.178
202.177
202.176
202.176
202.175
202.175
202.174
202.173
202.173
202.172
202.172
202.171
202.17
202.17
202.169
202.169
202.168
202.167
202.167
202.166
202.166
202.165
202.165
202.164
202.163
202.163
202.162
202.162
202.161
202.16
202.16
202.159
202.159
202.158
202.157
202.157
202.156
202.156
202.155
202.154
202.154
202.153
202.153
202.152
202.151
202.151
202.15
202.15
202.149
202.148
202.148
202.147
202.147
202.146
202.145
202.145
202.144
202.144
202.143
202.142
202.142
202.141
202.141
202.14
202.14
202.139
202.138
202.138
202.137
202.137
202.136
202.135
202.135
202.134
202.134
202.133
202.132
202.132
202.131
202.131
202.13
202.129
202.129
202.128
202.128
202.127
202.126
202.126
202.125
202.125
202.124
202.123
202.123
202.122
202.122
202.121
202.12
202.12
202.119
202.119
202.118
202.117
202.117
202.116
202.116
202.115
202.114
202.114
202.113
202.113
202.112
202.111
202.111
202.11
202.11
202.109
202.108
202.108
202.107
202.107
202.106
202.105
202.105
202.104
202.103
202.103
202.102
202.102
202.101
202.1
202.1
202.099
202.099
202.098
202.097
202.097
202.096
202.096
202.095
202.094
202.094
202.093
202.093
202.092
202.091
202.091
202.09
202.09
202.089
202.088
202.088
202.087
202.087
202.086
202.085
202.085
202.084
202.084
202.083
202.082
202.082
202.081
202.081
202.08
202.079
202.079
202.078
202.077
202.077
202.076
202.076
202.075
202.074
202.074
202.073
202.073
202.072
202.071
202.071
202.07
202.07
202.069
202.068
202.068
202.067
202.067
202.066
202.065
202.065
202.064
202.064
202.063
202.062
202.062
202.061
202.06
202.06
202.059
202.059
202.058
202.057
202.057
202.056
202.056
202.055
202.054
202.054
202.053
202.053
202.052
202.051
202.051
202.05
202.049
202.049
202.048
202.048
202.047
202.046
202.046
202.045
202.045
202.044
202.043
202.043
202.042
202.042
202.041
202.04
202.04
202.039
202.038
202.038
202.037
202.037
202.036
202.035
202.035
202.034
202.034
202.033
202.032
202.032
202.031
202.03
202.03
202.029
202.029
202.028
202.027
202.027
202.026
202.026
202.025
202.024
202.024
202.023
202.023
202.022
202.021
202.021
202.02
202.019
202.019
202.018
202.018
202.017
202.016
202.016
202.015
202.015
202.014
202.013
202.013
202.012
202.011
202.011
202.01
202.01
202.009
202.008
202.008
202.007
202.007
202.006
202.005
202.005
202.004
202.003
202.003
202.002
202.002
202.001
202
202
201.999
201.998
201.998
201.997
201.997
201.996
201.995
201.995
201.994
201.994
201.993
201.992
201.992
201.991
201.99
201.99
201.989
201.989
201.988
201.987
201.987
201.986
201.985
201.985
201.984
201.984
201.983
201.982
201.982
201.981
201.981
201.98
201.979
201.979
201.978
201.977
201.977
201.976
201.976
201.975
201.974
201.974
201.973
201.972
201.972
201.971
201.971
201.97
201.969
201.969
201.968
201.967
201.967
201.966
201.966
201.965
201.964
201.964
201.963
201.962
201.962
201.961
201.961
201.96
201.959
201.959
201.958
201.958
201.957
201.956
201.956
201.955
201.954
201.954
201.953
201.953
201.952
201.951
201.951
201.95
201.949
201.949
201.948
201.948
201.947
201.946
201.946
201.945
201.944
201.944
201.943
201.943
201.942
201.941
201.941
201.94
201.939
201.939
201.938
201.938
201.937
201.936
201.936
201.935
201.934
201.934
201.933
201.933
201.932
201.931
201.931
201.93
201.929
201.929
201.928
201.927
201.927
201.926
201.926
201.925
201.924
201.924
201.923
201.922
201.922
201.921
201.921
201.92
201.919
201.919
201.918
201.917
201.917
201.916
201.916
201.915
201.914
201.914
201.913
201.912
201.912
201.911
201.911
201.91
201.909
201.909
201.908
201.907
201.907
201.906
201.905
201.905
201.904
201.904
201.903
201.902
201.902
201.901
201.9
201.9
201.899
201.899
201.898
201.897
201.897
201.896
201.895
201.895
201.894
201.894
201.893
201.892
201.892
201.891
201.89
201.89
201.889
201.888
201.888
201.887
201.887
201.886
201.885
201.885
201.884
201.883
201.883
201.882
201.881
201.881
201.88
201.88
201.879
201.878
201.878
201.877
201.876
201.876
201.875
201.875
201.874
201.873
201.873
201.872
201.871
201.871
201.87
201.869
201.869
201.868
201.868
201.867
201.866
201.866
201.865
201.864
201.864
201.863
201.862
201.862
201.861
201.861
201.86
201.859
201.859
201.858
201.857
201.857
201.856
201.855
201.855
201.854
201.854
201.853
201.852
201.852
201.851
201.85
201.85
201.849
201.848
201.848
201.847
201.847
201.846
201.845
201.845
201.844
201.843
201.843
201.842
201.841
201.841
201.84
201.84
201.839
201.838
201.838
201.837
201.836
201.836
201.835
201.834
201.834
201.833
201.833
201.832
201.831
201.831
201.83
201.829
201.829
201.828
201.827
201.827
201.826
201.826
201.825
201.824
201.824
201.823
201.822
201.822
201.821
201.82
201.82
201.819
201.819
201.818
201.817
201.817
201.816
201.815
201.815
201.814
201.813
201.813
201.812
201.811
201.811
201.81
201.81
201.809
201.808
201.808
201.807
201.806
201.806
201.805
201.804
201.804
201.803
201.802
201.802
201.801
201.801
201.8
201.799
201.799
201.798
201.797
201.797
201.796
201.795
201.795
201.794
201.794
201.793
201.792
201.792
201.791
201.79
201.79
201.789
201.788
201.788
201.787
201.786
201.786
201.785
201.785
201.784
201.783
201.783
201.782
201.781
201.781
201.78
201.779
201.779
201.778
201.777
201.777
201.776
201.776
201.775
201.774
201.774
201.773
201.772
201.772
201.771
201.77
201.77
201.769
201.768
201.768
201.767
201.766
201.766
201.765
201.765
201.764
201.763
201.763
201.762
201.761
201.761
201.76
201.759
201.759
201.758
201.757
201.757
201.756
201.756
201.755
201.754
201.754
201.753
201.752
201.752
201.751
201.75
201.75
201.749
201.748
201.748
201.747
201.746
201.746
201.745
201.745
201.744
201.743
201.743
201.742
201.741
201.741
201.74
201.739
201.739
201.738
201.737
201.737
201.736
201.735
201.735
201.734
201.734
201.733
201.732
201.732
201.731
201.73
201.73
201.729
201.728
201.728
201.727
201.726
201.726
201.725
201.724
201.724
201.723
201.723
201.722
201.721
201.721
201.72
201.719
201.719
201.718
201.717
201.717
201.716
201.715
201.715
201.714
201.713
201.713
201.712
201.712
201.711
201.71
201.71
201.709
201.708
201.708
201.707
201.706
201.706
201.705
201.704
201.704
201.703
201.702
201.702
201.701
201.7
201.7
201.699
201.699
201.698
201.697
201.697
201.696
201.695
201.695
201.694
201.693
201.693
201.692
201.691
201.691
201.69
201.689
201.689
201.688
201.687
201.687
201.686
201.686
201.685
201.684
201.684
201.683
201.682
201.682
201.681
201.68
201.68
201.679
201.678
201.678
201.677
201.676
201.676
201.675
201.674
201.674
201.673
201.673
201.672
201.671
201.671
201.67
201.669
201.669
201.668
201.667
201.667
201.666
201.665
201.665
201.664
201.663
201.663
201.662
201.661
201.661
201.66
201.66
201.659
201.658
201.658
201.657
201.656
201.656
201.655
201.654
201.654
201.653
201.652
201.652
201.651
201.65
201.65
201.649
201.648
201.648
201.647
201.646
201.646
201.645
201.645
201.644
201.643
201.643
201.642
201.641
201.641
201.64
201.639
201.639
201.638
201.637
201.637
201.636
201.635
201.635
201.634
201.633
201.633
201.632
201.631
201.631
201.63
201.63
201.629
201.628
201.628
201.627
201.626
201.626
201.625
201.624
201.624
201.623
201.622
201.622
201.621
201.62
201.62
201.619
201.618
201.618
201.617
201.616
201.616
201.615
201.615
201.614
201.613
201.613
201.612
201.611
201.611
201.61
201.609
201.609
201.608
201.607
201.607
201.606
201.605
201.605
201.604
201.603
201.603
201.602
201.601
201.601
201.6
201.6
201.599
201.598
201.598
201.597
201.596
201.596
201.595
201.594
201.594
201.593
201.592
201.592
201.591
201.59
201.59
201.589
201.588
201.588
201.587
201.586
201.586
201.585
201.585
201.584
201.583
201.583
201.582
201.581
201.581
201.58
201.579
201.579
201.578
201.577
201.577
201.576
201.575
201.575
201.574
201.573
201.573
201.572
201.572
201.571
201.57
201.57
201.569
201.568
201.568
201.567
201.566
201.566
201.565
201.564
201.564
201.563
201.562
201.562
201.561
201.56
201.56
201.559
201.558
201.558
201.557
201.557
201.556
201.555
201.555
201.554
201.553
201.553
201.552
201.551
201.551
201.55
201.549
201.549
201.548
201.547
201.547
201.546
201.545
201.545
201.544
201.544
201.543
201.542
201.542
201.541
201.54
201.54
201.539
201.538
201.538
201.537
201.536
201.536
201.535
201.534
201.534
201.533
201.532
201.532
201.531
201.531
201.53
201.529
201.529
201.528
201.527
201.527
201.526
201.525
201.525
201.524
201.523
201.523
201.522
201.521
201.521
201.52
201.519
201.519
201.518
201.518
201.517
201.516
201.516
201.515
201.514
201.514
201.513
201.512
201.512
201.511
201.51
201.51
201.509
201.508
201.508
201.507
201.507
201.506
201.505
201.505
201.504
201.503
201.503
201.502
201.501
201.501
201.5
201.499
201.499
201.498
201.497
201.497
201.496
201.496
201.495
201.494
201.494
201.493
201.492
201.492
201.491
201.49
201.49
201.489
201.488
201.488
201.487
201.486
201.486
201.485
201.485
201.484
201.483
201.483
201.482
201.481
201.481
201.48
201.479
201.479
201.478
201.477
201.477
201.476
201.476
201.475
201.474
201.474
201.473
201.472
201.472
201.471
201.47
201.47
201.469
201.468
201.468
201.467
201.467
201.466
201.465
201.465
201.464
201.463
201.463
201.462
201.461
201.461
201.46
201.46
201.459
201.458
201.458
201.457
201.456
201.456
201.455
201.454
201.454
201.453
201.452
201.452
201.451
201.451
201.45
201.449
201.449
201.448
201.447
201.447
201.446
201.445
201.445
201.444
201.444
201.443
201.442
201.442
201.441
201.44
201.44
201.439
201.438
201.438
201.437
201.437
201.436
201.435
201.435
201.434
201.433
201.433
201.432
201.431
201.431
201.43
201.43
201.429
201.428
201.428
201.427
201.426
201.426
201.425
201.425
201.424
201.423
201.423
201.422
201.421
201.421
201.42
201.42
201.419
201.418
201.418
201.417
201.416
201.416
201.415
201.414
201.414
201.413
201.413
201.412
201.411
201.411
201.41
201.409
201.409
201.408
201.408
201.407
201.406
201.406
201.405
201.404
201.404
201.403
201.403
201.402
201.401
201.401
201.4
201.399
201.399
201.398
201.398
201.397
201.396
201.396
201.395
201.394
201.394
201.393
201.393
201.392
201.391
201.391
201.39
201.39
201.389
201.388
201.388
201.387
201.386
201.386
201.385
201.385
201.384
201.383
201.383
201.382
201.382
201.381
201.38
201.38
201.379
201.378
201.378
201.377
201.377
201.376
201.375
201.375
201.374
201.374
201.373
201.372
201.372
201.371
201.371
201.37
201.369
201.369
201.368
201.367
201.367
201.366
201.366
201.365
201.364
201.364
201.363
201.363
201.362
201.361
201.361
201.36
201.36
201.359
201.358
201.358
201.357
201.357
201.356
201.355
201.355
201.354
201.354
201.353
201.352
201.352
201.351
201.351
201.35
201.349
201.349
201.348
201.348
201.347
201.346
201.346
201.345
201.345
201.344
201.343
201.343
201.342
201.342
201.341
201.34
201.34
201.339
201.339
201.338
201.338
201.337
201.336
201.336
201.335
201.335
201.334
201.333
201.333
201.332
201.332
201.331
201.331
201.33
201.329
201.329
201.328
201.328
201.327
201.326
201.326
201.325
201.325
201.324
201.324
201.323
201.322
201.322
201.321
201.321
201.32
201.32
201.319
201.318
201.318
201.317
201.317
201.316
201.316
201.315
201.314
201.314
201.313
201.313
201.312
201.312
201.311
201.31
201.31
201.309
201.309
201.308
201.308
201.307
201.307
201.306
201.305
201.305
201.304
201.304
201.303
201.303
201.302
201.302
201.301
201.3
201.3
201.299
201.299
201.298
201.298
201.297
201.297
201.296
201.295
201.295
201.294
201.294
201.293
201.293
201.292
201.292
201.291
201.291
201.29
201.289
201.289
201.288
201.288
201.287
201.287
201.286
201.286
201.285
201.285
201.284
201.284
201.283
201.283
201.282
201.281
201.281
201.28
201.28
201.279
201.279
201.278
201.278
201.277
201.277
201.276
201.276
201.275
201.275
201.274
201.274
201.273
201.273
201.272
201.272
201.271
201.271
201.27
201.27
201.269
201.269
201.268
201.268
201.267
201.267
201.266
201.266
201.265
201.265
201.264
201.264
201.263
201.263
201.262
201.262
201.261
201.261
201.26
201.26
201.259
201.259
201.258
201.258
201.257
201.257
201.256
201.256
201.255
201.255
201.254
201.254
201.253
201.253
201.252
201.252
201.252
201.251
201.251
201.25
201.25
201.249
201.249
201.248
201.248
201.247
201.247
201.246
201.246
201.246
201.245
201.245
201.244
201.244
201.243
201.243
201.242
201.242
201.242
201.241
201.241
201.24
201.24
201.239
201.239
201.239
201.238
201.238
201.237
201.237
201.236
201.236
201.236
201.235
201.235
201.234
201.234
201.233
201.233
201.233
201.232
201.232
201.231
201.231
201.231
201.23
201.23
201.229
201.229
201.229
201.228
201.228
201.227
201.227
201.227
201.226
201.226
201.226
201.225
201.225
201.224
201.224
201.224
201.223
201.223
201.223
201.222
201.222
201.221
201.221
201.221
201.22
201.22
201.22
201.219
201.219
201.219
201.218
201.218
201.218
201.217
201.217
201.217
201.216
201.216
201.216
201.215
201.215
201.215
201.214
201.214
201.214
201.213
201.213
201.213
201.212
201.212
201.212
201.212
201.211
201.211
201.211
201.21
201.21
201.21
201.21
201.209
201.209
201.209
201.208
201.208
201.208
201.208
201.207
201.207
201.207
201.207
201.206
201.206
201.206
201.206
201.205
201.205
201.205
201.205
201.204
201.204
201.204
201.204
201.204
201.203
201.203
201.203
201.203
201.202
201.202
201.202
201.202
201.202
201.201
201.201
201.201
201.201
201.201
201.201
201.2
201.2
201.2
201.2
201.2
201.2
201.199
201.199
201.199
201.199
201.199
201.199
201.199
201.198
201.198
201.198
201.198
201.198
201.198
201.198
201.198
201.198
201.197
201.197
201.197
201.197
201.197
201.197
201.197
201.197
201.197
201.197
201.197
201.197
201.197
201.197
201.197
201.197
201.196
201.196
201.196
201.196
201.196
201.196
201.196
201.196
201.196
201.196
201.196
201.196
201.196
201.196
201.196
201.196
201.197
201.197
201.197
201.197
201.197
201.197
201.197
201.197
201.197
201.197
201.197
201.197
201.197
201.197
201.198
201.198
201.198
201.198
201.198
201.198
201.198
201.198
201.199
201.199
201.199
201.199
201.199
201.199
201.2
201.2
201.2
201.2
201.2
201.201
201.201
201.201
201.201
201.201
201.202
201.202
201.202
201.202
201.203
201.203
201.203
201.204
201.204
201.204
201.204
201.205
201.205
201.205
201.206
201.206
201.206
201.207
201.207
201.208
201.208
201.208
201.209
201.209
201.209
201.21
201.21
201.211
201.211
201.212
201.212
201.212
201.213
201.213
201.214
201.214
201.215
201.215
201.216
201.216
201.217
201.217
201.218
201.219
201.219
201.22
201.22
201.221
201.221
201.222
201.223
201.223
201.224
201.224
201.225
201.226
201.226
201.227
201.228
201.229
201.229
201.23
201.231
201.231
201.232
201.233
201.234
201.234
201.235
201.236
201.237
201.238
201.238
201.239
201.24
201.241
201.242
201.243
201.243
201.244
201.245
201.246
201.247
201.248
201.249
201.25
201.251
201.252
201.253
201.254
201.255
201.256
201.257
201.258
201.259
201.26
201.261
201.262
201.263
201.265
201.266
201.267
201.268
201.269
201.27
201.272
201.273
201.274
201.275
201.276
201.278
201.279
201.28
201.282
201.283
201.284
201.286
201.287
201.288
201.29
201.291
201.292
201.294
201.295
201.297
201.298
201.3
201.301
201.303
201.304
201.306
201.307
201.309
201.31
201.312
201.314
201.315
201.317
201.319
201.32
201.322
201.324
201.325
201.327
201.329
201.331
201.332
201.334
201.336
201.338
201.34
201.342
201.343
201.345
201.347
201.349
201.351
201.353
201.355
201.357
201.359
201.361
201.363
201.365
201.367
201.369
201.371
201.373
201.376
201.378
201.38
201.382
201.384
201.387
201.389
201.391
201.393
201.396
201.398
201.4
201.403
201.405
201.407
201.41
201.412
201.415
201.417
201.42
201.422
201.425
201.427
201.43
201.432
201.435
201.438
201.44
201.443
201.446
201.448
201.451
201.454
201.456
201.459
201.462
201.465
201.467
201.47
201.473
201.476
201.479
201.482
201.485
201.488
201.491
201.494
201.497
201.5
201.503
201.506
201.509
201.512
201.515
201.518
201.521
201.525
201.528
201.531
201.534
201.537
201.541
201.544
201.547
201.551
201.554
201.557
201.561
201.564
201.567
201.571
201.574
201.578
201.581
201.585
201.588
201.592
201.595
201.599
201.602
201.606
201.61
201.613
201.617
201.621
201.624
201.628
201.632
201.636
201.639
201.643
201.647
201.651
201.655
201.658
201.662
201.666
201.67
201.674
201.678
201.682
201.686
201.69
201.694
201.698
201.702
201.706
201.71
201.714
201.718
201.722
201.726
201.73
201.734
201.739
201.743
201.747
201.751
201.755
201.76
201.764
201.768
201.772
201.777
201.781
201.785
201.79
201.794
201.798
201.803
201.807
201.811
201.816
201.82
201.824
201.829
201.833
201.838
201.842
201.847
201.851
201.856
201.86
201.865
201.869
201.874
201.878
201.883
201.887
201.892
201.897
201.901
201.906
201.91
201.915
201.92
201.924
201.929
201.934
201.938
201.943
201.948
201.952
201.957
201.962
201.966
201.971
201.976
201.981
201.985
201.99
201.995
202
202.004
202.009
202.014
202.019
202.024
202.028
202.033
202.038
202.043
202.048
202.053
202.057
202.062
202.067
202.072
202.077
202.082
202.086
202.091
202.096
202.101
202.106
202.111
202.116
202.121
202.126
202.131
202.135
202.14
202.145
202.15
202.155
202.16
202.165
202.17
202.175
202.18
202.185
202.19
202.195
202.2
202.205
202.21
202.215
202.22
202.225
202.23
202.234
202.239
202.244
202.249
202.254
202.259
202.264
202.269
202.274
202.279
202.284
202.289
202.294
202.299
202.304
202.309
202.314
202.319
202.324
202.33
202.335
202.34
202.345
202.35
202.355
202.36
202.365
202.37
202.375
202.38
202.385
202.39
202.395
202.4
202.405
202.41
202.415
202.42
202.425
202.43
202.435
202.44
202.445
202.45
202.455
202.46
202.465
202.471
202.476
202.481
202.486
202.491
202.496
202.501
202.506
202.511
202.516
202.521
202.526
202.531
202.536
202.541
202.546
202.551
202.556
202.562
202.567
202.572
202.577
202.582
202.587
202.592
202.597
202.602