/*--------------------------------*- C++ -*----------------------------------*\
  =========                 |
  \\      /  F ield         | OpenFOAM: The Open Source CFD Toolbox
   \\    /   O peration     | Website:  https://openfoam.org
    \\  /    A nd           | Version:  9
     \\/     M anipulation  |
\*---------------------------------------------------------------------------*/
FoamFile
{
    format      ascii;
    class       volScalarField;
    location    "0.035";
    object      rho;
}
// * * * * * * * * * * * * * * * * * * * * * * * * * * * * * * * * * * * * * //

dimensions      [1 -3 0 0 0 0 0];

internalField   nonuniform List<scalar> 
10000
(
0.248703
0.2487
0.248694
0.248689
0.248683
0.248678
0.248673
0.248668
0.248663
0.248657
0.248652
0.248647
0.248642
0.248636
0.248631
0.248626
0.248621
0.248615
0.24861
0.248605
0.2486
0.248595
0.248589
0.248584
0.248579
0.248574
0.248569
0.248564
0.248558
0.248553
0.248548
0.248543
0.248538
0.248533
0.248527
0.248522
0.248517
0.248512
0.248507
0.248502
0.248497
0.248492
0.248486
0.248481
0.248476
0.248471
0.248466
0.248461
0.248456
0.248451
0.248446
0.248441
0.248435
0.24843
0.248425
0.24842
0.248415
0.24841
0.248406
0.248401
0.248396
0.248391
0.248386
0.248381
0.248375
0.24837
0.248365
0.24836
0.248355
0.24835
0.248346
0.248341
0.248337
0.248332
0.248328
0.248323
0.248318
0.248313
0.248308
0.248302
0.248297
0.248291
0.248286
0.248281
0.248275
0.24827
0.248266
0.248261
0.248257
0.248254
0.24825
0.248247
0.248244
0.248242
0.24824
0.248238
0.248236
0.248234
0.248232
0.248231
0.248229
0.248227
0.248226
0.248224
0.248223
0.248222
0.248221
0.248219
0.248218
0.248217
0.248216
0.248215
0.248214
0.248213
0.248212
0.24821
0.248209
0.248208
0.248207
0.248206
0.248205
0.248204
0.248202
0.248201
0.2482
0.248199
0.248198
0.248197
0.248196
0.248194
0.248193
0.248192
0.248191
0.24819
0.248189
0.248188
0.248186
0.248185
0.248184
0.248183
0.248182
0.248181
0.24818
0.248178
0.248177
0.248176
0.248175
0.248174
0.248173
0.248171
0.24817
0.248169
0.248168
0.248167
0.248166
0.248165
0.248163
0.248162
0.248161
0.24816
0.248159
0.248158
0.248157
0.248155
0.248154
0.248153
0.248152
0.248151
0.24815
0.248148
0.248147
0.248146
0.248145
0.248144
0.248143
0.248142
0.24814
0.248139
0.248138
0.248137
0.248136
0.248135
0.248133
0.248132
0.248131
0.24813
0.248129
0.248128
0.248126
0.248125
0.248124
0.248123
0.248122
0.248121
0.24812
0.248118
0.248117
0.248116
0.248115
0.248114
0.248113
0.248111
0.24811
0.248109
0.248108
0.248107
0.248106
0.248104
0.248103
0.248102
0.248101
0.2481
0.248099
0.248097
0.248096
0.248095
0.248094
0.248093
0.248092
0.24809
0.248089
0.248088
0.248087
0.248086
0.248085
0.248083
0.248082
0.248081
0.24808
0.248079
0.248078
0.248076
0.248075
0.248074
0.248073
0.248072
0.248071
0.248069
0.248068
0.248067
0.248066
0.248065
0.248063
0.248062
0.248061
0.24806
0.248059
0.248058
0.248056
0.248055
0.248054
0.248053
0.248052
0.248051
0.248049
0.248048
0.248047
0.248046
0.248045
0.248043
0.248042
0.248041
0.24804
0.248039
0.248038
0.248036
0.248035
0.248034
0.248033
0.248032
0.248031
0.248029
0.248028
0.248027
0.248026
0.248025
0.248023
0.248022
0.248021
0.24802
0.248019
0.248018
0.248016
0.248015
0.248014
0.248013
0.248012
0.24801
0.248009
0.248008
0.248007
0.248006
0.248004
0.248003
0.248002
0.248001
0.248
0.247999
0.247997
0.247996
0.247995
0.247994
0.247993
0.247991
0.24799
0.247989
0.247988
0.247987
0.247985
0.247984
0.247983
0.247982
0.247981
0.247979
0.247978
0.247977
0.247976
0.247975
0.247974
0.247972
0.247971
0.24797
0.247969
0.247968
0.247966
0.247965
0.247964
0.247963
0.247962
0.24796
0.247959
0.247958
0.247957
0.247956
0.247954
0.247953
0.247952
0.247951
0.24795
0.247948
0.247947
0.247946
0.247945
0.247944
0.247942
0.247941
0.24794
0.247939
0.247938
0.247936
0.247935
0.247934
0.247933
0.247932
0.24793
0.247929
0.247928
0.247927
0.247926
0.247924
0.247923
0.247922
0.247921
0.24792
0.247918
0.247917
0.247916
0.247915
0.247913
0.247912
0.247911
0.24791
0.247909
0.247907
0.247906
0.247905
0.247904
0.247903
0.247901
0.2479
0.247899
0.247898
0.247897
0.247895
0.247894
0.247893
0.247892
0.24789
0.247889
0.247888
0.247887
0.247886
0.247884
0.247883
0.247882
0.247881
0.24788
0.247878
0.247877
0.247876
0.247875
0.247873
0.247872
0.247871
0.24787
0.247869
0.247867
0.247866
0.247865
0.247864
0.247863
0.247861
0.24786
0.247859
0.247858
0.247856
0.247855
0.247854
0.247853
0.247852
0.24785
0.247849
0.247848
0.247847
0.247845
0.247844
0.247843
0.247842
0.247841
0.247839
0.247838
0.247837
0.247836
0.247834
0.247833
0.247832
0.247831
0.24783
0.247828
0.247827
0.247826
0.247825
0.247823
0.247822
0.247821
0.24782
0.247818
0.247817
0.247816
0.247815
0.247814
0.247812
0.247811
0.24781
0.247809
0.247807
0.247806
0.247805
0.247804
0.247802
0.247801
0.2478
0.247799
0.247798
0.247796
0.247795
0.247794
0.247793
0.247791
0.24779
0.247789
0.247788
0.247786
0.247785
0.247784
0.247783
0.247781
0.24778
0.247779
0.247778
0.247777
0.247775
0.247774
0.247773
0.247772
0.24777
0.247769
0.247768
0.247767
0.247765
0.247764
0.247763
0.247762
0.24776
0.247759
0.247758
0.247757
0.247755
0.247754
0.247753
0.247752
0.24775
0.247749
0.247748
0.247747
0.247746
0.247744
0.247743
0.247742
0.247741
0.247739
0.247738
0.247737
0.247736
0.247734
0.247733
0.247732
0.247731
0.247729
0.247728
0.247727
0.247726
0.247724
0.247723
0.247722
0.247721
0.247719
0.247718
0.247717
0.247716
0.247714
0.247713
0.247712
0.247711
0.247709
0.247708
0.247707
0.247706
0.247704
0.247703
0.247702
0.247701
0.247699
0.247698
0.247697
0.247696
0.247694
0.247693
0.247692
0.24769
0.247689
0.247688
0.247687
0.247685
0.247684
0.247683
0.247682
0.24768
0.247679
0.247678
0.247677
0.247675
0.247674
0.247673
0.247672
0.24767
0.247669
0.247668
0.247667
0.247665
0.247664
0.247663
0.247662
0.24766
0.247659
0.247658
0.247656
0.247655
0.247654
0.247653
0.247651
0.24765
0.247649
0.247648
0.247646
0.247645
0.247644
0.247643
0.247641
0.24764
0.247639
0.247637
0.247636
0.247635
0.247634
0.247632
0.247631
0.24763
0.247629
0.247627
0.247626
0.247625
0.247624
0.247622
0.247621
0.24762
0.247618
0.247617
0.247616
0.247615
0.247613
0.247612
0.247611
0.24761
0.247608
0.247607
0.247606
0.247604
0.247603
0.247602
0.247601
0.247599
0.247598
0.247597
0.247595
0.247594
0.247593
0.247592
0.24759
0.247589
0.247588
0.247587
0.247585
0.247584
0.247583
0.247581
0.24758
0.247579
0.247578
0.247576
0.247575
0.247574
0.247572
0.247571
0.24757
0.247569
0.247567
0.247566
0.247565
0.247563
0.247562
0.247561
0.24756
0.247558
0.247557
0.247556
0.247554
0.247553
0.247552
0.247551
0.247549
0.247548
0.247547
0.247545
0.247544
0.247543
0.247542
0.24754
0.247539
0.247538
0.247536
0.247535
0.247534
0.247533
0.247531
0.24753
0.247529
0.247527
0.247526
0.247525
0.247524
0.247522
0.247521
0.24752
0.247518
0.247517
0.247516
0.247514
0.247513
0.247512
0.247511
0.247509
0.247508
0.247507
0.247505
0.247504
0.247503
0.247502
0.2475
0.247499
0.247498
0.247496
0.247495
0.247494
0.247492
0.247491
0.24749
0.247489
0.247487
0.247486
0.247485
0.247483
0.247482
0.247481
0.247479
0.247478
0.247477
0.247476
0.247474
0.247473
0.247472
0.24747
0.247469
0.247468
0.247466
0.247465
0.247464
0.247463
0.247461
0.24746
0.247458
0.247457
0.247456
0.247455
0.247453
0.247452
0.247451
0.24745
0.247448
0.247447
0.247445
0.247444
0.247443
0.247442
0.24744
0.247439
0.247438
0.247436
0.247435
0.247434
0.247432
0.247431
0.24743
0.247428
0.247427
0.247426
0.247425
0.247423
0.247422
0.247421
0.247419
0.247418
0.247417
0.247415
0.247414
0.247413
0.247411
0.24741
0.247409
0.247407
0.247406
0.247405
0.247403
0.247402
0.247401
0.2474
0.247398
0.247397
0.247396
0.247394
0.247393
0.247392
0.24739
0.247389
0.247388
0.247386
0.247385
0.247384
0.247382
0.247381
0.24738
0.247378
0.247377
0.247376
0.247374
0.247373
0.247372
0.24737
0.247369
0.247368
0.247366
0.247365
0.247364
0.247362
0.247361
0.24736
0.247359
0.247357
0.247356
0.247355
0.247353
0.247352
0.247351
0.247349
0.247348
0.247347
0.247345
0.247344
0.247343
0.247341
0.24734
0.247339
0.247337
0.247336
0.247335
0.247333
0.247332
0.247331
0.247329
0.247328
0.247327
0.247325
0.247324
0.247323
0.247321
0.24732
0.247319
0.247317
0.247316
0.247315
0.247313
0.247312
0.247311
0.247309
0.247308
0.247307
0.247305
0.247304
0.247303
0.247301
0.2473
0.247299
0.247297
0.247296
0.247294
0.247293
0.247292
0.24729
0.247289
0.247288
0.247286
0.247285
0.247284
0.247282
0.247281
0.24728
0.247278
0.247277
0.247276
0.247274
0.247273
0.247272
0.24727
0.247269
0.247268
0.247266
0.247265
0.247264
0.247262
0.247261
0.24726
0.247258
0.247257
0.247255
0.247254
0.247253
0.247251
0.24725
0.247249
0.247247
0.247246
0.247245
0.247243
0.247242
0.247241
0.247239
0.247238
0.247237
0.247235
0.247234
0.247233
0.247231
0.24723
0.247228
0.247227
0.247226
0.247224
0.247223
0.247222
0.24722
0.247219
0.247218
0.247216
0.247215
0.247214
0.247212
0.247211
0.247209
0.247208
0.247207
0.247205
0.247204
0.247203
0.247201
0.2472
0.247199
0.247197
0.247196
0.247195
0.247193
0.247192
0.24719
0.247189
0.247188
0.247186
0.247185
0.247184
0.247182
0.247181
0.24718
0.247178
0.247177
0.247175
0.247174
0.247173
0.247171
0.24717
0.247169
0.247167
0.247166
0.247165
0.247163
0.247162
0.24716
0.247159
0.247158
0.247156
0.247155
0.247154
0.247152
0.247151
0.247149
0.247148
0.247147
0.247145
0.247144
0.247143
0.247141
0.24714
0.247138
0.247137
0.247136
0.247134
0.247133
0.247132
0.24713
0.247129
0.247128
0.247126
0.247125
0.247123
0.247122
0.247121
0.247119
0.247118
0.247117
0.247115
0.247114
0.247112
0.247111
0.24711
0.247108
0.247107
0.247105
0.247104
0.247103
0.247101
0.2471
0.247099
0.247097
0.247096
0.247094
0.247093
0.247092
0.24709
0.247089
0.247088
0.247086
0.247085
0.247083
0.247082
0.247081
0.247079
0.247078
0.247076
0.247075
0.247074
0.247072
0.247071
0.24707
0.247068
0.247067
0.247065
0.247064
0.247063
0.247061
0.24706
0.247058
0.247057
0.247056
0.247054
0.247053
0.247051
0.24705
0.247049
0.247047
0.247046
0.247045
0.247043
0.247042
0.24704
0.247039
0.247038
0.247036
0.247035
0.247033
0.247032
0.247031
0.247029
0.247028
0.247026
0.247025
0.247024
0.247022
0.247021
0.247019
0.247018
0.247017
0.247015
0.247014
0.247012
0.247011
0.24701
0.247008
0.247007
0.247005
0.247004
0.247003
0.247001
0.247
0.246998
0.246997
0.246996
0.246994
0.246993
0.246991
0.24699
0.246989
0.246987
0.246986
0.246984
0.246983
0.246982
0.24698
0.246979
0.246977
0.246976
0.246975
0.246973
0.246972
0.24697
0.246969
0.246968
0.246966
0.246965
0.246963
0.246962
0.246961
0.246959
0.246958
0.246956
0.246955
0.246954
0.246952
0.246951
0.246949
0.246948
0.246946
0.246945
0.246944
0.246942
0.246941
0.246939
0.246938
0.246937
0.246935
0.246934
0.246932
0.246931
0.24693
0.246928
0.246927
0.246925
0.246924
0.246922
0.246921
0.24692
0.246918
0.246917
0.246915
0.246914
0.246913
0.246911
0.24691
0.246908
0.246907
0.246905
0.246904
0.246903
0.246901
0.2469
0.246898
0.246897
0.246896
0.246894
0.246893
0.246891
0.24689
0.246888
0.246887
0.246886
0.246884
0.246883
0.246881
0.24688
0.246878
0.246877
0.246876
0.246874
0.246873
0.246871
0.24687
0.246868
0.246867
0.246866
0.246864
0.246863
0.246861
0.24686
0.246859
0.246857
0.246856
0.246854
0.246853
0.246851
0.24685
0.246849
0.246847
0.246846
0.246844
0.246843
0.246841
0.24684
0.246838
0.246837
0.246836
0.246834
0.246833
0.246831
0.24683
0.246828
0.246827
0.246826
0.246824
0.246823
0.246821
0.24682
0.246818
0.246817
0.246816
0.246814
0.246813
0.246811
0.24681
0.246808
0.246807
0.246806
0.246804
0.246803
0.246801
0.2468
0.246798
0.246797
0.246795
0.246794
0.246793
0.246791
0.24679
0.246788
0.246787
0.246785
0.246784
0.246782
0.246781
0.24678
0.246778
0.246777
0.246775
0.246774
0.246772
0.246771
0.246769
0.246768
0.246767
0.246765
0.246764
0.246762
0.246761
0.246759
0.246758
0.246756
0.246755
0.246754
0.246752
0.246751
0.246749
0.246748
0.246746
0.246745
0.246743
0.246742
0.246741
0.246739
0.246738
0.246736
0.246735
0.246733
0.246732
0.24673
0.246729
0.246727
0.246726
0.246725
0.246723
0.246722
0.24672
0.246719
0.246717
0.246716
0.246714
0.246713
0.246711
0.24671
0.246709
0.246707
0.246706
0.246704
0.246703
0.246701
0.2467
0.246698
0.246697
0.246695
0.246694
0.246693
0.246691
0.24669
0.246688
0.246687
0.246685
0.246684
0.246682
0.246681
0.246679
0.246678
0.246676
0.246675
0.246674
0.246672
0.246671
0.246669
0.246668
0.246666
0.246665
0.246663
0.246662
0.24666
0.246659
0.246657
0.246656
0.246655
0.246653
0.246652
0.24665
0.246649
0.246647
0.246646
0.246644
0.246643
0.246641
0.24664
0.246638
0.246637
0.246635
0.246634
0.246633
0.246631
0.24663
0.246628
0.246627
0.246625
0.246624
0.246622
0.246621
0.246619
0.246618
0.246616
0.246615
0.246613
0.246612
0.24661
0.246609
0.246607
0.246606
0.246605
0.246603
0.246602
0.2466
0.246599
0.246597
0.246596
0.246594
0.246593
0.246591
0.24659
0.246588
0.246587
0.246585
0.246584
0.246582
0.246581
0.246579
0.246578
0.246576
0.246575
0.246573
0.246572
0.246571
0.246569
0.246568
0.246566
0.246565
0.246563
0.246562
0.24656
0.246559
0.246557
0.246556
0.246554
0.246553
0.246551
0.24655
0.246548
0.246547
0.246545
0.246544
0.246542
0.246541
0.246539
0.246538
0.246536
0.246535
0.246533
0.246532
0.24653
0.246529
0.246527
0.246526
0.246524
0.246523
0.246522
0.24652
0.246519
0.246517
0.246516
0.246514
0.246513
0.246511
0.24651
0.246508
0.246507
0.246505
0.246504
0.246502
0.246501
0.246499
0.246498
0.246496
0.246495
0.246493
0.246492
0.24649
0.246489
0.246487
0.246486
0.246484
0.246483
0.246481
0.24648
0.246478
0.246477
0.246475
0.246474
0.246472
0.246471
0.246469
0.246468
0.246466
0.246465
0.246463
0.246462
0.24646
0.246459
0.246457
0.246456
0.246454
0.246453
0.246451
0.24645
0.246448
0.246447
0.246445
0.246444
0.246442
0.246441
0.246439
0.246438
0.246436
0.246435
0.246433
0.246432
0.24643
0.246429
0.246427
0.246426
0.246424
0.246423
0.246421
0.24642
0.246418
0.246417
0.246415
0.246414
0.246412
0.246411
0.246409
0.246408
0.246406
0.246404
0.246403
0.246401
0.2464
0.246398
0.246397
0.246395
0.246394
0.246392
0.246391
0.246389
0.246388
0.246386
0.246385
0.246383
0.246382
0.24638
0.246379
0.246377
0.246376
0.246374
0.246373
0.246371
0.24637
0.246368
0.246367
0.246365
0.246364
0.246362
0.246361
0.246359
0.246358
0.246356
0.246354
0.246353
0.246351
0.24635
0.246348
0.246347
0.246345
0.246344
0.246342
0.246341
0.246339
0.246338
0.246336
0.246335
0.246333
0.246332
0.24633
0.246329
0.246327
0.246326
0.246324
0.246323
0.246321
0.246319
0.246318
0.246316
0.246315
0.246313
0.246312
0.24631
0.246309
0.246307
0.246306
0.246304
0.246303
0.246301
0.2463
0.246298
0.246297
0.246295
0.246294
0.246292
0.24629
0.246289
0.246287
0.246286
0.246284
0.246283
0.246281
0.24628
0.246278
0.246277
0.246275
0.246274
0.246272
0.246271
0.246269
0.246267
0.246266
0.246264
0.246263
0.246261
0.24626
0.246258
0.246257
0.246255
0.246254
0.246252
0.246251
0.246249
0.246248
0.246246
0.246244
0.246243
0.246241
0.24624
0.246238
0.246237
0.246235
0.246234
0.246232
0.246231
0.246229
0.246228
0.246226
0.246224
0.246223
0.246221
0.24622
0.246218
0.246217
0.246215
0.246214
0.246212
0.246211
0.246209
0.246207
0.246206
0.246204
0.246203
0.246201
0.2462
0.246198
0.246197
0.246195
0.246194
0.246192
0.24619
0.246189
0.246187
0.246186
0.246184
0.246183
0.246181
0.24618
0.246178
0.246177
0.246175
0.246173
0.246172
0.24617
0.246169
0.246167
0.246166
0.246164
0.246163
0.246161
0.24616
0.246158
0.246156
0.246155
0.246153
0.246152
0.24615
0.246149
0.246147
0.246146
0.246144
0.246142
0.246141
0.246139
0.246138
0.246136
0.246135
0.246133
0.246132
0.24613
0.246128
0.246127
0.246125
0.246124
0.246122
0.246121
0.246119
0.246118
0.246116
0.246114
0.246113
0.246111
0.24611
0.246108
0.246107
0.246105
0.246104
0.246102
0.2461
0.246099
0.246097
0.246096
0.246094
0.246093
0.246091
0.246089
0.246088
0.246086
0.246085
0.246083
0.246082
0.24608
0.246079
0.246077
0.246075
0.246074
0.246072
0.246071
0.246069
0.246068
0.246066
0.246064
0.246063
0.246061
0.24606
0.246058
0.246057
0.246055
0.246053
0.246052
0.24605
0.246049
0.246047
0.246046
0.246044
0.246042
0.246041
0.246039
0.246038
0.246036
0.246035
0.246033
0.246031
0.24603
0.246028
0.246027
0.246025
0.246024
0.246022
0.24602
0.246019
0.246017
0.246016
0.246014
0.246013
0.246011
0.246009
0.246008
0.246006
0.246005
0.246003
0.246002
0.246
0.245998
0.245997
0.245995
0.245994
0.245992
0.245991
0.245989
0.245987
0.245986
0.245984
0.245983
0.245981
0.24598
0.245978
0.245976
0.245975
0.245973
0.245972
0.24597
0.245968
0.245967
0.245965
0.245964
0.245962
0.245961
0.245959
0.245957
0.245956
0.245954
0.245953
0.245951
0.245949
0.245948
0.245946
0.245945
0.245943
0.245942
0.24594
0.245938
0.245937
0.245935
0.245934
0.245932
0.24593
0.245929
0.245927
0.245926
0.245924
0.245923
0.245921
0.245919
0.245918
0.245916
0.245915
0.245913
0.245911
0.24591
0.245908
0.245907
0.245905
0.245903
0.245902
0.2459
0.245899
0.245897
0.245896
0.245894
0.245892
0.245891
0.245889
0.245888
0.245886
0.245884
0.245883
0.245881
0.24588
0.245878
0.245876
0.245875
0.245873
0.245872
0.24587
0.245868
0.245867
0.245865
0.245864
0.245862
0.24586
0.245859
0.245857
0.245856
0.245854
0.245852
0.245851
0.245849
0.245848
0.245846
0.245845
0.245843
0.245841
0.24584
0.245838
0.245837
0.245835
0.245833
0.245832
0.24583
0.245829
0.245827
0.245825
0.245824
0.245822
0.245821
0.245819
0.245817
0.245816
0.245814
0.245813
0.245811
0.245809
0.245808
0.245806
0.245805
0.245803
0.245801
0.2458
0.245798
0.245796
0.245795
0.245793
0.245792
0.24579
0.245788
0.245787
0.245785
0.245784
0.245782
0.24578
0.245779
0.245777
0.245776
0.245774
0.245772
0.245771
0.245769
0.245768
0.245766
0.245764
0.245763
0.245761
0.24576
0.245758
0.245756
0.245755
0.245753
0.245751
0.24575
0.245748
0.245747
0.245745
0.245743
0.245742
0.24574
0.245739
0.245737
0.245735
0.245734
0.245732
0.245731
0.245729
0.245727
0.245726
0.245724
0.245722
0.245721
0.245719
0.245718
0.245716
0.245714
0.245713
0.245711
0.24571
0.245708
0.245706
0.245705
0.245703
0.245701
0.2457
0.245698
0.245697
0.245695
0.245693
0.245692
0.24569
0.245689
0.245687
0.245685
0.245684
0.245682
0.24568
0.245679
0.245677
0.245676
0.245674
0.245672
0.245671
0.245669
0.245668
0.245666
0.245664
0.245663
0.245661
0.245659
0.245658
0.245656
0.245655
0.245653
0.245651
0.24565
0.245648
0.245646
0.245645
0.245643
0.245642
0.24564
0.245638
0.245637
0.245635
0.245633
0.245632
0.24563
0.245629
0.245627
0.245625
0.245624
0.245622
0.24562
0.245619
0.245617
0.245616
0.245614
0.245612
0.245611
0.245609
0.245607
0.245606
0.245604
0.245603
0.245601
0.245599
0.245598
0.245596
0.245594
0.245593
0.245591
0.24559
0.245588
0.245586
0.245585
0.245583
0.245581
0.24558
0.245578
0.245577
0.245575
0.245573
0.245572
0.24557
0.245568
0.245567
0.245565
0.245563
0.245562
0.24556
0.245559
0.245557
0.245555
0.245554
0.245552
0.24555
0.245549
0.245547
0.245546
0.245544
0.245542
0.245541
0.245539
0.245537
0.245536
0.245534
0.245532
0.245531
0.245529
0.245528
0.245526
0.245524
0.245523
0.245521
0.245519
0.245518
0.245516
0.245514
0.245513
0.245511
0.24551
0.245508
0.245506
0.245505
0.245503
0.245501
0.2455
0.245498
0.245496
0.245495
0.245493
0.245492
0.24549
0.245488
0.245487
0.245485
0.245483
0.245482
0.24548
0.245478
0.245477
0.245475
0.245474
0.245472
0.24547
0.245469
0.245467
0.245465
0.245464
0.245462
0.24546
0.245459
0.245457
0.245455
0.245454
0.245452
0.245451
0.245449
0.245447
0.245446
0.245444
0.245442
0.245441
0.245439
0.245437
0.245436
0.245434
0.245432
0.245431
0.245429
0.245428
0.245426
0.245424
0.245423
0.245421
0.245419
0.245418
0.245416
0.245414
0.245413
0.245411
0.245409
0.245408
0.245406
0.245405
0.245403
0.245401
0.2454
0.245398
0.245396
0.245395
0.245393
0.245391
0.24539
0.245388
0.245386
0.245385
0.245383
0.245381
0.24538
0.245378
0.245377
0.245375
0.245373
0.245372
0.24537
0.245368
0.245367
0.245365
0.245363
0.245362
0.24536
0.245358
0.245357
0.245355
0.245353
0.245352
0.24535
0.245349
0.245347
0.245345
0.245344
0.245342
0.24534
0.245339
0.245337
0.245335
0.245334
0.245332
0.24533
0.245329
0.245327
0.245325
0.245324
0.245322
0.24532
0.245319
0.245317
0.245316
0.245314
0.245312
0.245311
0.245309
0.245307
0.245306
0.245304
0.245302
0.245301
0.245299
0.245297
0.245296
0.245294
0.245292
0.245291
0.245289
0.245287
0.245286
0.245284
0.245282
0.245281
0.245279
0.245278
0.245276
0.245274
0.245273
0.245271
0.245269
0.245268
0.245266
0.245264
0.245263
0.245261
0.245259
0.245258
0.245256
0.245254
0.245253
0.245251
0.245249
0.245248
0.245246
0.245244
0.245243
0.245241
0.245239
0.245238
0.245236
0.245234
0.245233
0.245231
0.24523
0.245228
0.245226
0.245225
0.245223
0.245221
0.24522
0.245218
0.245216
0.245215
0.245213
0.245211
0.24521
0.245208
0.245206
0.245205
0.245203
0.245201
0.2452
0.245198
0.245196
0.245195
0.245193
0.245191
0.24519
0.245188
0.245186
0.245185
0.245183
0.245181
0.24518
0.245178
0.245177
0.245175
0.245173
0.245172
0.24517
0.245168
0.245167
0.245165
0.245163
0.245162
0.24516
0.245158
0.245157
0.245155
0.245153
0.245152
0.24515
0.245148
0.245147
0.245145
0.245143
0.245142
0.24514
0.245138
0.245137
0.245135
0.245133
0.245132
0.24513
0.245128
0.245127
0.245125
0.245123
0.245122
0.24512
0.245119
0.245117
0.245115
0.245114
0.245112
0.24511
0.245109
0.245107
0.245105
0.245104
0.245102
0.2451
0.245099
0.245097
0.245095
0.245094
0.245092
0.24509
0.245089
0.245087
0.245085
0.245084
0.245082
0.24508
0.245079
0.245077
0.245075
0.245074
0.245072
0.24507
0.245069
0.245067
0.245065
0.245064
0.245062
0.24506
0.245059
0.245057
0.245056
0.245054
0.245052
0.245051
0.245049
0.245047
0.245046
0.245044
0.245042
0.245041
0.245039
0.245037
0.245036
0.245034
0.245032
0.245031
0.245029
0.245027
0.245026
0.245024
0.245022
0.245021
0.245019
0.245017
0.245016
0.245014
0.245012
0.245011
0.245009
0.245007
0.245006
0.245004
0.245003
0.245001
0.244999
0.244998
0.244996
0.244994
0.244993
0.244991
0.244989
0.244988
0.244986
0.244984
0.244983
0.244981
0.244979
0.244978
0.244976
0.244974
0.244973
0.244971
0.244969
0.244968
0.244966
0.244964
0.244963
0.244961
0.244959
0.244958
0.244956
0.244955
0.244953
0.244951
0.24495
0.244948
0.244946
0.244945
0.244943
0.244941
0.24494
0.244938
0.244936
0.244935
0.244933
0.244931
0.24493
0.244928
0.244926
0.244925
0.244923
0.244921
0.24492
0.244918
0.244917
0.244915
0.244913
0.244912
0.24491
0.244908
0.244907
0.244905
0.244903
0.244902
0.2449
0.244898
0.244897
0.244895
0.244893
0.244892
0.24489
0.244889
0.244887
0.244885
0.244884
0.244882
0.24488
0.244879
0.244877
0.244875
0.244874
0.244872
0.24487
0.244869
0.244867
0.244865
0.244864
0.244862
0.244861
0.244859
0.244857
0.244856
0.244854
0.244852
0.244851
0.244849
0.244847
0.244846
0.244844
0.244842
0.244841
0.244839
0.244838
0.244836
0.244834
0.244833
0.244831
0.244829
0.244828
0.244826
0.244824
0.244823
0.244821
0.244819
0.244818
0.244816
0.244815
0.244813
0.244811
0.24481
0.244808
0.244806
0.244805
0.244803
0.244801
0.2448
0.244798
0.244797
0.244795
0.244793
0.244792
0.24479
0.244788
0.244787
0.244785
0.244783
0.244782
0.24478
0.244779
0.244777
0.244775
0.244774
0.244772
0.24477
0.244769
0.244767
0.244766
0.244764
0.244762
0.244761
0.244759
0.244757
0.244756
0.244754
0.244753
0.244751
0.244749
0.244748
0.244746
0.244744
0.244743
0.244741
0.244739
0.244738
0.244736
0.244735
0.244733
0.244731
0.24473
0.244728
0.244727
0.244725
0.244723
0.244722
0.24472
0.244718
0.244717
0.244715
0.244714
0.244712
0.24471
0.244709
0.244707
0.244705
0.244704
0.244702
0.244701
0.244699
0.244697
0.244696
0.244694
0.244693
0.244691
0.244689
0.244688
0.244686
0.244684
0.244683
0.244681
0.24468
0.244678
0.244676
0.244675
0.244673
0.244672
0.24467
0.244668
0.244667
0.244665
0.244664
0.244662
0.24466
0.244659
0.244657
0.244656
0.244654
0.244652
0.244651
0.244649
0.244648
0.244646
0.244644
0.244643
0.244641
0.24464
0.244638
0.244636
0.244635
0.244633
0.244632
0.24463
0.244628
0.244627
0.244625
0.244624
0.244622
0.24462
0.244619
0.244617
0.244616
0.244614
0.244612
0.244611
0.244609
0.244608
0.244606
0.244604
0.244603
0.244601
0.2446
0.244598
0.244597
0.244595
0.244593
0.244592
0.24459
0.244589
0.244587
0.244586
0.244584
0.244582
0.244581
0.244579
0.244578
0.244576
0.244574
0.244573
0.244571
0.24457
0.244568
0.244567
0.244565
0.244563
0.244562
0.24456
0.244559
0.244557
0.244556
0.244554
0.244553
0.244551
0.244549
0.244548
0.244546
0.244545
0.244543
0.244542
0.24454
0.244538
0.244537
0.244535
0.244534
0.244532
0.244531
0.244529
0.244528
0.244526
0.244524
0.244523
0.244521
0.24452
0.244518
0.244517
0.244515
0.244514
0.244512
0.244511
0.244509
0.244507
0.244506
0.244504
0.244503
0.244501
0.2445
0.244498
0.244497
0.244495
0.244494
0.244492
0.244491
0.244489
0.244488
0.244486
0.244484
0.244483
0.244481
0.24448
0.244478
0.244477
0.244475
0.244474
0.244472
0.244471
0.244469
0.244468
0.244466
0.244465
0.244463
0.244462
0.24446
0.244459
0.244457
0.244456
0.244454
0.244453
0.244451
0.24445
0.244448
0.244447
0.244445
0.244444
0.244442
0.244441
0.244439
0.244438
0.244436
0.244435
0.244433
0.244432
0.24443
0.244429
0.244427
0.244426
0.244424
0.244423
0.244421
0.24442
0.244418
0.244417
0.244415
0.244414
0.244412
0.244411
0.244409
0.244408
0.244406
0.244405
0.244403
0.244402
0.244401
0.244399
0.244398
0.244396
0.244395
0.244393
0.244392
0.24439
0.244389
0.244387
0.244386
0.244384
0.244383
0.244382
0.24438
0.244379
0.244377
0.244376
0.244374
0.244373
0.244371
0.24437
0.244369
0.244367
0.244366
0.244364
0.244363
0.244361
0.24436
0.244359
0.244357
0.244356
0.244354
0.244353
0.244351
0.24435
0.244349
0.244347
0.244346
0.244344
0.244343
0.244342
0.24434
0.244339
0.244337
0.244336
0.244335
0.244333
0.244332
0.24433
0.244329
0.244328
0.244326
0.244325
0.244323
0.244322
0.244321
0.244319
0.244318
0.244317
0.244315
0.244314
0.244312
0.244311
0.24431
0.244308
0.244307
0.244306
0.244304
0.244303
0.244302
0.2443
0.244299
0.244297
0.244296
0.244295
0.244293
0.244292
0.244291
0.244289
0.244288
0.244287
0.244285
0.244284
0.244283
0.244281
0.24428
0.244279
0.244277
0.244276
0.244275
0.244274
0.244272
0.244271
0.24427
0.244268
0.244267
0.244266
0.244264
0.244263
0.244262
0.24426
0.244259
0.244258
0.244257
0.244255
0.244254
0.244253
0.244252
0.24425
0.244249
0.244248
0.244246
0.244245
0.244244
0.244243
0.244241
0.24424
0.244239
0.244238
0.244236
0.244235
0.244234
0.244233
0.244231
0.24423
0.244229
0.244228
0.244227
0.244225
0.244224
0.244223
0.244222
0.24422
0.244219
0.244218
0.244217
0.244216
0.244214
0.244213
0.244212
0.244211
0.24421
0.244208
0.244207
0.244206
0.244205
0.244204
0.244203
0.244201
0.2442
0.244199
0.244198
0.244197
0.244196
0.244195
0.244193
0.244192
0.244191
0.24419
0.244189
0.244188
0.244187
0.244185
0.244184
0.244183
0.244182
0.244181
0.24418
0.244179
0.244178
0.244177
0.244176
0.244174
0.244173
0.244172
0.244171
0.24417
0.244169
0.244168
0.244167
0.244166
0.244165
0.244164
0.244163
0.244162
0.244161
0.24416
0.244159
0.244158
0.244157
0.244156
0.244154
0.244153
0.244152
0.244151
0.24415
0.244149
0.244148
0.244147
0.244146
0.244146
0.244145
0.244144
0.244143
0.244142
0.244141
0.24414
0.244139
0.244138
0.244137
0.244136
0.244135
0.244134
0.244133
0.244132
0.244131
0.24413
0.24413
0.244129
0.244128
0.244127
0.244126
0.244125
0.244124
0.244123
0.244122
0.244122
0.244121
0.24412
0.244119
0.244118
0.244117
0.244116
0.244116
0.244115
0.244114
0.244113
0.244112
0.244112
0.244111
0.24411
0.244109
0.244108
0.244108
0.244107
0.244106
0.244105
0.244105
0.244104
0.244103
0.244102
0.244102
0.244101
0.2441
0.244099
0.244099
0.244098
0.244097
0.244097
0.244096
0.244095
0.244095
0.244094
0.244093
0.244093
0.244092
0.244091
0.244091
0.24409
0.244089
0.244089
0.244088
0.244088
0.244087
0.244086
0.244086
0.244085
0.244085
0.244084
0.244084
0.244083
0.244083
0.244082
0.244081
0.244081
0.24408
0.24408
0.244079
0.244079
0.244078
0.244078
0.244077
0.244077
0.244077
0.244076
0.244076
0.244075
0.244075
0.244074
0.244074
0.244074
0.244073
0.244073
0.244072
0.244072
0.244072
0.244071
0.244071
0.244071
0.24407
0.24407
0.24407
0.244069
0.244069
0.244069
0.244069
0.244068
0.244068
0.244068
0.244067
0.244067
0.244067
0.244067
0.244067
0.244066
0.244066
0.244066
0.244066
0.244066
0.244066
0.244065
0.244065
0.244065
0.244065
0.244065
0.244065
0.244065
0.244065
0.244065
0.244065
0.244065
0.244065
0.244065
0.244065
0.244065
0.244065
0.244065
0.244065
0.244065
0.244065
0.244065
0.244065
0.244065
0.244065
0.244065
0.244065
0.244065
0.244065
0.244066
0.244066
0.244066
0.244066
0.244066
0.244067
0.244067
0.244067
0.244067
0.244068
0.244068
0.244068
0.244068
0.244069
0.244069
0.244069
0.24407
0.24407
0.24407
0.244071
0.244071
0.244072
0.244072
0.244073
0.244073
0.244073
0.244074
0.244074
0.244075
0.244075
0.244076
0.244077
0.244077
0.244078
0.244078
0.244079
0.24408
0.24408
0.244081
0.244082
0.244082
0.244083
0.244084
0.244084
0.244085
0.244086
0.244087
0.244087
0.244088
0.244089
0.24409
0.244091
0.244092
0.244093
0.244093
0.244094
0.244095
0.244096
0.244097
0.244098
0.244099
0.2441
0.244101
0.244102
0.244104
0.244105
0.244106
0.244107
0.244108
0.244109
0.24411
0.244112
0.244113
0.244114
0.244115
0.244117
0.244118
0.244119
0.244121
0.244122
0.244123
0.244125
0.244126
0.244128
0.244129
0.244131
0.244132
0.244134
0.244135
0.244137
0.244139
0.24414
0.244142
0.244144
0.244145
0.244147
0.244149
0.244151
0.244152
0.244154
0.244156
0.244158
0.24416
0.244162
0.244163
0.244165
0.244167
0.244169
0.244171
0.244173
0.244175
0.244178
0.24418
0.244182
0.244184
0.244186
0.244188
0.244191
0.244193
0.244195
0.244197
0.2442
0.244202
0.244205
0.244207
0.24421
0.244212
0.244215
0.244217
0.24422
0.244222
0.244225
0.244227
0.24423
0.244233
0.244236
0.244238
0.244241
0.244244
0.244247
0.24425
0.244253
0.244255
0.244259
0.244261
0.244265
0.244268
0.244271
0.244274
0.244277
0.24428
0.244284
0.244287
0.24429
0.244293
0.244297
0.2443
0.244304
0.244307
0.244311
0.244314
0.244318
0.244321
0.244325
0.244328
0.244332
0.244336
0.24434
0.244343
0.244348
0.244351
0.244355
0.244359
0.244363
0.244367
0.244371
0.244375
0.24438
0.244383
0.244388
0.244392
0.244397
0.244401
0.244405
0.244409
0.244414
0.244418
0.244423
0.244427
0.244432
0.244437
0.244442
0.244446
0.244451
0.244456
0.244461
0.244465
0.244471
0.244475
0.244481
0.244485
0.244491
0.244495
0.244501
0.244506
0.244512
0.244516
0.244522
0.244527
0.244533
0.244538
0.244544