/*--------------------------------*- C++ -*----------------------------------*\
  =========                 |
  \\      /  F ield         | OpenFOAM: The Open Source CFD Toolbox
   \\    /   O peration     | Website:  https://openfoam.org
    \\  /    A nd           | Version:  9
     \\/     M anipulation  |
\*---------------------------------------------------------------------------*/
FoamFile
{
    format      ascii;
    class       volScalarField;
    location    "0.039";
    object      ddt0(rho);
}
// * * * * * * * * * * * * * * * * * * * * * * * * * * * * * * * * * * * * * //

dimensions      [1 -3 -1 0 0 0 0];

internalField   nonuniform List<scalar> 
100
(
-7.05384
-7.03454
-6.97171
-6.94644
-6.91132
-6.8864
-6.8587
-6.8035
-6.75273
-6.71426
-6.66324
-6.6069
-6.56504
-6.55516
-6.51949
-6.47922
-6.46516
-6.51789
-6.43808
-6.33271
-6.28282
-6.32194
-6.31138
-6.21225
-6.12835
-6.05972
-6.0332
-6.11228
-6.09351
-6.02146
-6.00035
-5.99738
-5.95307
-5.96005
-5.92985
-5.95581
-5.53561
-5.38167
-5.46372
-5.4288
-5.37768
-5.46806
-5.59824
-5.60721
-5.61848
-5.70677
-5.80064
-5.82541
-5.77492
-5.69139
-5.67239
-5.7511
-5.88841
-6.02885
-6.10689
-6.07867
-5.94041
-5.76726
-5.65386
-5.64682
-5.72933
-5.8175
-5.87333
-5.8813
-5.87527
-5.91898
-6.03938
-6.18904
-6.29943
-6.26631
-6.10824
-5.91734
-5.81273
-5.83422
-5.88478
-5.82863
-5.59427
-5.09954
-4.32134
-2.87873
0.630648
10.1904
-39.769
-9.34471
-7.04037
-6.77455
-6.719
-6.81334
-6.93896
-7.04617
-7.05177
-7.05148
-7.07396
-7.28158
-7.3576
-7.39181
-9.29701
-6.28174
-3.81681
-8.85204
)
;

boundaryField
{
    sides
    {
        type            calculated;
        value           nonuniform List<scalar> 2(-8.85204 -7.05384);
    }
    empty
    {
        type            empty;
    }
}


// ************************************************************************* //
