/*--------------------------------*- C++ -*----------------------------------*\
  =========                 |
  \\      /  F ield         | OpenFOAM: The Open Source CFD Toolbox
   \\    /   O peration     | Website:  https://openfoam.org
    \\  /    A nd           | Version:  9
     \\/     M anipulation  |
\*---------------------------------------------------------------------------*/
FoamFile
{
    format      ascii;
    class       volScalarField;
    location    "0.039";
    object      mag(U);
}
// * * * * * * * * * * * * * * * * * * * * * * * * * * * * * * * * * * * * * //

dimensions      [0 1 -1 0 0 0 0];

internalField   nonuniform List<scalar> 
100
(
49.0445
51.3609
54.9387
57.99
60.5433
63.104
65.7041
68.294
70.8813
73.4686
76.0438
78.61
81.1769
83.738
86.2794
88.8112
91.3418
93.8495
96.3146
98.7564
101.199
103.631
106.02
108.362
110.686
113.002
115.301
117.575
119.816
122.048
124.296
126.556
128.815
131.053
133.235
135.323
137.253
139.002
140.683
142.37
144.046
145.716
147.394
149.09
150.807
152.552
154.317
156.075
157.799
159.477
161.115
162.735
164.35
165.957
167.542
169.087
170.577
172.009
173.391
174.733
176.047
177.339
178.615
179.881
181.145
182.41
183.678
184.943
186.202
187.448
188.679
189.898
191.112
192.321
193.524
194.709
195.876
197.037
198.199
199.36
200.482
201.523
202.815
204.364
205.771
207.055
208.332
209.616
210.901
212.183
213.462
214.749
216.075
217.495
219.047
220.789
222.684
224.717
226.897
229.308
)
;

boundaryField
{
    sides
    {
        type            calculated;
        value           nonuniform List<scalar> 2(229.308 49.0445);
    }
    empty
    {
        type            empty;
    }
}


// ************************************************************************* //
