/*--------------------------------*- C++ -*----------------------------------*\
  =========                 |
  \\      /  F ield         | OpenFOAM: The Open Source CFD Toolbox
   \\    /   O peration     | Website:  https://openfoam.org
    \\  /    A nd           | Version:  9
     \\/     M anipulation  |
\*---------------------------------------------------------------------------*/
FoamFile
{
    format      ascii;
    class       volScalarField;
    location    "0.019";
    object      p;
}
// * * * * * * * * * * * * * * * * * * * * * * * * * * * * * * * * * * * * * //

dimensions      [1 -1 -2 0 0 0 0];

internalField   nonuniform List<scalar> 
100
(
69936.5
68091.9
66997.6
65839.4
64719.6
63612.7
62524.2
61452
60396.3
59356.7
58333.5
57326.4
56334.8
55358.3
54396.7
53449.8
52517.4
51599.3
50695.4
49805.2
48928.2
48064.1
47213.5
46377.1
45556.3
44751.6
43962
43185.5
42419.4
41662.5
40915.1
40178.3
39453.4
38740.9
38040.2
37350.9
36672.4
36004.8
35348.3
34703
34069.4
33447.9
32840.3
32251.2
31693.5
31190.1
30782.2
30517.8
30385.4
30345.9
30340.1
30332.8
30291
30263.6
30252.7
30249.1
30254.1
30264.7
30269.3
30270.1
30268.8
30266.2
30263.3
30264.4
30277.1
30291.2
30295.9
30295.9
30294
30290.9
30288.5
30289.9
30297.9
30309.3
30313.6
30314.6
30314.7
30314.3
30313.5
30312.4
30315.5
30327.2
30335.5
30340.3
30345.1
30348.7
30347.9
30337.8
30311.8
30283.6
30292.8
30542.7
30976.7
31225
31284.1
31240.7
31228.9
31288.2
31600.8
32060
)
;

boundaryField
{
    sides
    {
        type            zeroGradient;
    }
    empty
    {
        type            empty;
    }
}


// ************************************************************************* //
