/*--------------------------------*- C++ -*----------------------------------*\
  =========                 |
  \\      /  F ield         | OpenFOAM: The Open Source CFD Toolbox
   \\    /   O peration     | Website:  https://openfoam.org
    \\  /    A nd           | Version:  9
     \\/     M anipulation  |
\*---------------------------------------------------------------------------*/
FoamFile
{
    format      ascii;
    class       volVectorField;
    location    "0.019";
    object      U;
}
// * * * * * * * * * * * * * * * * * * * * * * * * * * * * * * * * * * * * * //

dimensions      [0 1 -1 0 0 0 0];

internalField   nonuniform List<vector> 
100
(
(95.9724 0 0)
(102.679 0 0)
(106.584 0 0)
(110.806 0 0)
(114.95 0 0)
(119.115 0 0)
(123.277 0 0)
(127.442 0 0)
(131.607 0 0)
(135.774 0 0)
(139.944 0 0)
(144.118 0 0)
(148.295 0 0)
(152.474 0 0)
(156.656 0 0)
(160.84 0 0)
(165.028 0 0)
(169.22 0 0)
(173.416 0 0)
(177.614 0 0)
(181.813 0 0)
(186.014 0 0)
(190.219 0 0)
(194.433 0 0)
(198.665 0 0)
(202.918 0 0)
(207.191 0 0)
(211.471 0 0)
(215.748 0 0)
(220.011 0 0)
(224.264 0 0)
(228.512 0 0)
(232.763 0 0)
(237.018 0 0)
(241.277 0 0)
(245.535 0 0)
(249.787 0 0)
(254.035 0 0)
(258.276 0 0)
(262.513 0 0)
(266.74 0 0)
(270.954 0 0)
(275.138 0 0)
(279.255 0 0)
(283.225 0 0)
(286.845 0 0)
(289.799 0 0)
(291.824 0 0)
(292.763 0 0)
(293.022 0 0)
(293.057 0 0)
(293.127 0 0)
(293.488 0 0)
(293.685 0 0)
(293.747 0 0)
(293.752 0 0)
(293.703 0 0)
(293.634 0 0)
(293.618 0 0)
(293.621 0 0)
(293.629 0 0)
(293.639 0 0)
(293.643 0 0)
(293.633 0 0)
(293.546 0 0)
(293.464 0 0)
(293.43 0 0)
(293.424 0 0)
(293.428 0 0)
(293.441 0 0)
(293.452 0 0)
(293.458 0 0)
(293.403 0 0)
(293.323 0 0)
(293.283 0 0)
(293.27 0 0)
(293.263 0 0)
(293.262 0 0)
(293.283 0 0)
(293.297 0 0)
(293.273 0 0)
(293.18 0 0)
(293.119 0 0)
(293.078 0 0)
(293.04 0 0)
(293.023 0 0)
(293.036 0 0)
(293.105 0 0)
(293.285 0 0)
(293.491 0 0)
(293.429 0 0)
(291.575 0 0)
(288.36 0 0)
(286.647 0 0)
(286.145 0 0)
(286.449 0 0)
(286.557 0 0)
(286.135 0 0)
(283.836 0 0)
(281.057 0 0)
)
;

boundaryField
{
    sides
    {
        type            zeroGradient;
    }
    empty
    {
        type            empty;
    }
}


// ************************************************************************* //
