/*--------------------------------*- C++ -*----------------------------------*\
  =========                 |
  \\      /  F ield         | OpenFOAM: The Open Source CFD Toolbox
   \\    /   O peration     | Website:  https://openfoam.org
    \\  /    A nd           | Version:  9
     \\/     M anipulation  |
\*---------------------------------------------------------------------------*/
FoamFile
{
    format      ascii;
    class       volScalarField;
    location    "0.036";
    object      p;
}
// * * * * * * * * * * * * * * * * * * * * * * * * * * * * * * * * * * * * * //

dimensions      [1 -1 -2 0 0 0 0];

internalField   nonuniform List<scalar> 
1000
(
14580.4
14578.4
14575.4
14572.7
14570.4
14568.1
14565.7
14563.4
14561
14558.7
14556.3
14553.9
14551.6
14549.2
14546.9
14544.5
14542.2
14539.9
14537.5
14535.2
14532.8
14530.5
14528.2
14525.8
14523.5
14521.2
14518.8
14516.5
14514.2
14511.8
14509.5
14507.2
14504.9
14502.6
14500.2
14497.9
14495.6
14493.3
14491
14488.7
14486.4
14484.1
14481.7
14479.4
14477.1
14474.8
14472.5
14470.2
14467.9
14465.6
14463.3
14461
14458.8
14456.5
14454.2
14451.9
14449.6
14447.3
14445
14442.7
14440.5
14438.2
14435.9
14433.6
14431.3
14429.1
14426.8
14424.5
14422.2
14420
14417.7
14415.4
14413.2
14410.9
14408.7
14406.4
14404.1
14401.9
14399.6
14397.4
14395.1
14392.9
14390.6
14388.4
14386.1
14383.9
14381.6
14379.4
14377.2
14374.9
14372.7
14370.4
14368.2
14366
14363.8
14361.5
14359.3
14357.1
14354.9
14352.6
14350.4
14348.2
14346
14343.8
14341.6
14339.4
14337.2
14335
14332.8
14330.6
14328.4
14326.2
14324
14321.8
14319.6
14317.4
14315.3
14313.1
14310.9
14308.7
14306.6
14304.4
14302.2
14300.1
14297.9
14295.7
14293.6
14291.4
14289.3
14287.1
14285
14282.8
14280.7
14278.6
14276.4
14274.3
14272.2
14270
14267.9
14265.8
14263.7
14261.6
14259.5
14257.4
14255.3
14253.2
14251.1
14249
14246.9
14244.8
14242.7
14240.6
14238.6
14236.5
14234.4
14232.4
14230.3
14228.3
14226.2
14224.2
14222.1
14220.1
14218.1
14216.1
14214
14212
14210
14208
14206
14204
14202
14200
14198
14196.1
14194.1
14192.1
14190.2
14188.2
14186.3
14184.3
14182.4
14180.5
14178.5
14176.6
14174.7
14172.8
14170.9
14169
14167.2
14165.3
14163.4
14161.5
14159.7
14157.8
14156
14154.2
14152.4
14150.5
14148.7
14146.9
14145.2
14143.4
14141.6
14139.8
14138.1
14136.4
14134.6
14132.9
14131.2
14129.5
14127.8
14126.1
14124.4
14122.8
14121.1
14119.5
14117.9
14116.3
14114.7
14113.1
14111.5
14109.9
14108.4
14106.8
14105.3
14103.8
14102.3
14100.8
14099.4
14097.9
14096.5
14095.1
14093.7
14092.3
14090.9
14089.6
14088.2
14086.9
14085.6
14084.3
14083.1
14081.8
14080.6
14079.4
14078.2
14077.1
14075.9
14074.8
14073.7
14072.6
14071.6
14070.6
14069.6
14068.6
14067.7
14066.7
14065.8
14065
14064.1
14063.3
14062.6
14061.8
14061.1
14060.4
14059.8
14059.1
14058.5
14058
14057.5
14057
14056.5
14056.1
14055.7
14055.4
14055.1
14054.9
14054.6
14054.5
14054.3
14054.2
14054.2
14054.2
14054.2
14054.2
14054.3
14054.5
14054.7
14055
14055.4
14055.8
14056.3
14056.8
14057.4
14058.1
14058.8
14059.6
14060.4
14061.3
14062.3
14063.3
14064.4
14065.6
14066.9
14068.2
14069.6
14071.1
14072.6
14074.3
14076
14077.8
14079.7
14081.7
14083.8
14085.9
14088.2
14090.5
14092.9
14095.5
14098.1
14100.8
14103.7
14106.6
14109.7
14112.8
14116.1
14119.5
14123
14126.6
14130.3
14134.1
14138.1
14142.2
14146.4
14150.7
14155.1
14159.7
14164.4
14169.2
14174.2
14179.2
14184.5
14189.8
14195.3
14200.9
14206.7
14212.5
14218.6
14224.7
14231
14237.4
14244
14250.7
14257.5
14264.5
14271.6
14278.8
14286.2
14293.7
14301.3
14309.1
14317
14325
14333.1
14341.4
14349.8
14358.3
14366.9
14375.6
14384.5
14393.4
14402.5
14411.7
14421
14430.4
14439.9
14449.5
14459.1
14468.9
14478.8
14488.7
14498.8
14508.9
14519.1
14529.4
14539.7
14550.1
14560.6
14571.1
14581.7
14592.4
14603.1
14613.9
14624.8
14635.6
14646.6
14657.6
14668.6
14679.6
14690.8
14701.9
14713.1
14724.3
14735.5
14746.8
14758.1
14769.5
14780.9
14792.3
14803.7
14815.1
14826.6
14838.1
14849.6
14861.1
14872.7
14884.3
14895.9
14907.5
14919.1
14930.8
14942.4
14954.1
14965.8
14977.5
14989.2
15001
15012.7
15024.5
15036.3
15048.1
15059.9
15071.7
15083.5
15095.4
15107.2
15119.1
15131
15142.9
15154.8
15166.7
15178.6
15190.6
15202.5
15214.5
15226.5
15238.5
15250.5
15262.5
15274.5
15286.5
15298.6
15310.7
15322.7
15334.8
15346.9
15359
15371.1
15383.3
15395.4
15407.6
15419.7
15431.9
15444.1
15456.3
15468.5
15480.8
15493
15505.2
15517.5
15529.8
15542.1
15554.4
15566.7
15579
15591.3
15603.7
15616
15628.4
15640.8
15653.2
15665.6
15678
15690.4
15702.8
15715.3
15727.7
15740.2
15752.7
15765.2
15777.7
15790.2
15802.7
15815.3
15827.8
15840.4
15853
15865.6
15878.2
15890.8
15903.4
15916.1
15928.7
15941.4
15954
15966.7
15979.4
15992.1
16004.8
16017.6
16030.3
16043.1
16055.8
16068.6
16081.4
16094.2
16107
16119.9
16132.7
16145.5
16158.4
16171.3
16184.2
16197.1
16210
16222.9
16235.8
16248.8
16261.8
16274.7
16287.7
16300.7
16313.7
16326.7
16339.8
16352.8
16365.9
16378.9
16392
16405.1
16418.2
16431.3
16444.5
16457.6
16470.8
16483.9
16497.1
16510.3
16523.5
16536.7
16550
16563.2
16576.5
16589.7
16603
16616.3
16629.6
16642.9
16656.3
16669.6
16683
16696.3
16709.7
16723.1
16736.5
16749.9
16763.4
16776.8
16790.3
16803.7
16817.2
16830.7
16844.2
16857.7
16871.3
16884.8
16898.4
16911.9
16925.5
16939.1
16952.7
16966.3
16980
16993.6
17007.3
17020.9
17034.6
17048.3
17062
17075.8
17089.5
17103.2
17117
17130.8
17144.6
17158.4
17172.2
17186
17199.8
17213.7
17227.6
17241.4
17255.3
17269.2
17283.2
17297.1
17311
17325
17338.9
17352.9
17366.9
17380.9
17395
17409
17423
17437.1
17451.2
17465.3
17479.4
17493.5
17507.6
17521.7
17535.9
17550
17564.2
17578.4
17592.6
17606.8
17621.1
17635.3
17649.6
17663.8
17678.1
17692.4
17706.7
17721.1
17735.4
17749.8
17764.1
17778.5
17792.9
17807.3
17821.7
17836.1
17850.6
17865
17879.5
17894
17908.5
17923
17937.5
17952.1
17966.6
17981.2
17995.8
18010.4
18025
18039.6
18054.2
18068.9
18083.5
18098.2
18112.9
18127.6
18142.3
18157
18171.8
18186.5
18201.3
18216.1
18230.9
18245.7
18260.5
18275.4
18290.2
18305.1
18320
18334.8
18349.8
18364.7
18379.6
18394.6
18409.5
18424.5
18439.5
18454.5
18469.5
18484.5
18499.6
18514.6
18529.7
18544.8
18559.9
18575
18590.1
18605.3
18620.4
18635.6
18650.8
18666
18681.2
18696.4
18711.7
18726.9
18742.2
18757.5
18772.8
18788.1
18803.4
18818.7
18834.1
18849.5
18864.8
18880.2
18895.6
18911.1
18926.5
18941.9
18957.4
18972.9
18988.4
19003.9
19019.4
19034.9
19050.5
19066.1
19081.6
19097.2
19112.8
19128.5
19144.1
19159.7
19175.4
19191.1
19206.8
19222.5
19238.2
19253.9
19269.7
19285.5
19301.2
19317
19332.8
19348.7
19364.5
19380.4
19396.2
19412.1
19428
19443.9
19459.9
19475.8
19491.8
19507.7
19523.7
19539.7
19555.7
19571.8
19587.8
19603.9
19620
19636.1
19652.2
19668.3
19684.4
19700.6
19716.7
19732.9
19749.1
19765.3
19781.6
19797.8
19814
19830.3
19846.6
19862.9
19879.2
19895.5
19911.8
19928.2
19944.6
19960.9
19977.3
19993.7
20010.2
20026.6
20043
20059.5
20076
20092.5
20109
20125.5
20142.1
20158.7
20175.2
20191.8
20208.5
20225.1
20241.8
20258.4
20275.1
20291.9
20308.6
20325.4
20342.2
20359
20375.8
20392.7
20409.6
20426.5
20443.5
20460.5
20477.5
20494.5
20511.6
20528.8
20546
20563.2
20580.4
20597.8
20615.1
20632.5
20650
20667.5
20685.1
20702.8
20720.5
20738.3
20756.1
20774.1
20792.1
20810.2
20828.3
20846.6
20865
20883.4
20901.9
20920.6
20939.3
20958.1
20977
20996.1
21015.2
21034.5
21053.8
21073.3
21092.9
21112.6
21132.4
21152.3
21172.3
21192.5
21212.7
21233
21253.4
21274
21294.6
21315.3
21336.1
21356.9
21377.9
21398.9
21419.9
21441
21462.2
21483.4
21504.6
21525.9
21547.2
21568.4
21589.7
21611
21632.3
21653.6
21674.9
21696.1
21717.3
21738.4
21759.6
21780.6
21801.7
21822.6
21843.5
21864.4
21885.2
21905.9
21926.5
21947.1
21967.6
21988
22008.4
22028.7
22048.9
22069.1
22089.2
22109.2
22129.2
22149.1
22168.9
22188.7
22208.4
22228.1
22247.8
22267.3
22286.9
22306.4
22325.9
22345.3
22364.7
22384.1
22403.4
22422.7
22442
22461.3
22480.6
22499.8
22519.1
22538.3
22557.5
22576.7
22595.9
22615.1
22634.3
22653.4
22672.6
22691.8
22710.9
22730.1
22749.3
22768.4
22787.6
22806.8
22825.9
22845.1
22864.3
22883.4
22902.6
22921.8
22940.9
22960.1
22979.3
22998.5
23017.7
23036.9
23056.1
23075.4
23094.6
23113.9
23133.2
23152.6
23171.9
23191.3
23210.8
23230.3
23249.9
23269.6
23289.4
23309.3
23329.4
23349.6
23370
23390.6
23411.5
23432.6
23454.1
23475.9
23498
23520.6
23543.6
23567.1
23591.1
23615.6
23640.6
23666.1
23692.2
23718.9
23746.1
23773.8
23802
23830.6
23859.6
23889
23918.7
23948.7
23978.8
24009
24039.4
24069.7
24100
24130.3
24160.4
24190.3
24220.1
24249.7
24279
24308.2
24337.1
24365.8
24394
24422.3
24449.4
)
;

boundaryField
{
    sides
    {
        type            zeroGradient;
    }
    empty
    {
        type            empty;
    }
}


// ************************************************************************* //
