/*--------------------------------*- C++ -*----------------------------------*\
  =========                 |
  \\      /  F ield         | OpenFOAM: The Open Source CFD Toolbox
   \\    /   O peration     | Website:  https://openfoam.org
    \\  /    A nd           | Version:  9
     \\/     M anipulation  |
\*---------------------------------------------------------------------------*/
FoamFile
{
    format      ascii;
    class       volScalarField;
    location    "0.036";
    object      rho;
}
// * * * * * * * * * * * * * * * * * * * * * * * * * * * * * * * * * * * * * //

dimensions      [1 -3 0 0 0 0 0];

internalField   nonuniform List<scalar> 
1000
(
0.253678
0.253629
0.253551
0.253477
0.253407
0.253338
0.25327
0.2532
0.253129
0.253059
0.25299
0.252922
0.252855
0.252787
0.252717
0.252645
0.252574
0.252505
0.252438
0.252374
0.252311
0.252247
0.252182
0.252113
0.252041
0.251968
0.251894
0.251821
0.251752
0.251687
0.251627
0.251572
0.251523
0.251477
0.251435
0.251394
0.251354
0.251314
0.251275
0.251237
0.251204
0.251174
0.251145
0.251116
0.251088
0.251059
0.251031
0.251003
0.250975
0.250947
0.250919
0.250891
0.250862
0.250835
0.250805
0.250779
0.250748
0.250723
0.250691
0.250667
0.250635
0.250611
0.250579
0.250555
0.250523
0.250498
0.250466
0.250442
0.250411
0.250385
0.250356
0.250328
0.250301
0.250271
0.250246
0.250216
0.250188
0.250162
0.250132
0.250106
0.250078
0.250049
0.250023
0.249994
0.249966
0.249939
0.249911
0.249883
0.249856
0.249828
0.249801
0.249773
0.249745
0.249718
0.249691
0.249663
0.249635
0.249608
0.24958
0.249553
0.249526
0.249498
0.249471
0.249444
0.249417
0.249389
0.249362
0.249335
0.249307
0.24928
0.249253
0.249226
0.249199
0.249172
0.249145
0.249118
0.249091
0.249064
0.249037
0.24901
0.248983
0.248957
0.24893
0.248903
0.248876
0.248849
0.248823
0.248796
0.24877
0.248743
0.248716
0.24869
0.248663
0.248637
0.248611
0.248584
0.248558
0.248532
0.248505
0.248479
0.248453
0.248427
0.248401
0.248375
0.248349
0.248323
0.248297
0.248271
0.248245
0.248219
0.248193
0.248168
0.248142
0.248116
0.248091
0.248065
0.24804
0.248014
0.247989
0.247964
0.247939
0.247913
0.247888
0.247863
0.247838
0.247813
0.247788
0.247763
0.247738
0.247714
0.247689
0.247664
0.24764
0.247615
0.247591
0.247567
0.247542
0.247518
0.247494
0.24747
0.247446
0.247422
0.247398
0.247374
0.247351
0.247327
0.247304
0.24728
0.247257
0.247233
0.24721
0.247187
0.247164
0.247141
0.247119
0.247096
0.247073
0.247051
0.247028
0.247006
0.246984
0.246962
0.24694
0.246918
0.246896
0.246875
0.246853
0.246832
0.24681
0.246789
0.246768
0.246747
0.246727
0.246706
0.246686
0.246665
0.246645
0.246625
0.246605
0.246585
0.246566
0.246547
0.246527
0.246508
0.246489
0.246471
0.246452
0.246434
0.246415
0.246397
0.24638
0.246362
0.246345
0.246327
0.24631
0.246294
0.246277
0.246261
0.246245
0.246229
0.246213
0.246198
0.246182
0.246168
0.246153
0.246138
0.246124
0.246111
0.246097
0.246084
0.246071
0.246058
0.246046
0.246034
0.246022
0.24601
0.245999
0.245989
0.245978
0.245968
0.245959
0.245949
0.24594
0.245932
0.245924
0.245916
0.245909
0.245902
0.245895
0.245889
0.245884
0.245879
0.245874
0.24587
0.245866
0.245863
0.245861
0.245858
0.245857
0.245856
0.245855
0.245855
0.245855
0.245856
0.245857
0.245859
0.245862
0.245866
0.245871
0.245876
0.245882
0.245889
0.245896
0.245904
0.245913
0.245923
0.245934
0.245945
0.245957
0.24597
0.245984
0.245999
0.246014
0.246031
0.246049
0.246067
0.246087
0.246107
0.246129
0.246151
0.246175
0.246199
0.246225
0.246252
0.24628
0.246309
0.24634
0.246371
0.246404
0.246438
0.246474
0.246511
0.246549
0.246588
0.246629
0.246671
0.246714
0.246759
0.246805
0.246853
0.246903
0.246953
0.247006
0.247059
0.247115
0.247172
0.24723
0.24729
0.247352
0.247415
0.24748
0.247547
0.247615
0.247685
0.247756
0.247829
0.247904
0.247981
0.248059
0.248139
0.24822
0.248304
0.248388
0.248475
0.248563
0.248653
0.248745
0.248838
0.248932
0.249029
0.249127
0.249226
0.249327
0.24943
0.249534
0.249639
0.249746
0.249854
0.249964
0.250075
0.250188
0.250302
0.250417
0.250533
0.250651
0.250769
0.250889
0.25101
0.251132
0.251255
0.25138
0.251504
0.251631
0.251757
0.251886
0.252014
0.252144
0.252274
0.252405
0.252536
0.252669
0.252802
0.252936
0.25307
0.253205
0.25334
0.253477
0.253613
0.25375
0.253887
0.254025
0.254163
0.254302
0.25444
0.25458
0.254719
0.254859
0.254999
0.25514
0.255281
0.255422
0.255563
0.255704
0.255846
0.255988
0.25613
0.256273
0.256415
0.256558
0.256701
0.256844
0.256987
0.25713
0.257274
0.257417
0.257561
0.257705
0.257849
0.257994
0.258138
0.258282
0.258427
0.258572
0.258716
0.258862
0.259007
0.259152
0.259297
0.259443
0.259588
0.259734
0.25988
0.260026
0.260171
0.260318
0.260464
0.26061
0.260757
0.260903
0.26105
0.261197
0.261343
0.261491
0.261638
0.261785
0.261932
0.26208
0.262227
0.262375
0.262522
0.262671
0.262818
0.262967
0.263115
0.263264
0.263411
0.26356
0.263708
0.263858
0.264006
0.264156
0.264304
0.264454
0.264602
0.264752
0.264901
0.265052
0.265201
0.265351
0.2655
0.265651
0.2658
0.265951
0.266101
0.266252
0.266402
0.266553
0.266703
0.266855
0.267005
0.267157
0.267308
0.26746
0.26761
0.267763
0.267913
0.268066
0.268217
0.26837
0.268521
0.268674
0.268825
0.268978
0.26913
0.269284
0.269435
0.269589
0.269741
0.269895
0.270047
0.270201
0.270354
0.270508
0.270661
0.270815
0.270968
0.271123
0.271276
0.271431
0.271584
0.271739
0.271893
0.272048
0.272202
0.272358
0.272512
0.272667
0.272822
0.272978
0.273132
0.273288
0.273443
0.273599
0.273754
0.273911
0.274066
0.274223
0.274378
0.274535
0.274691
0.274848
0.275004
0.275162
0.275318
0.275475
0.275631
0.275789
0.275946
0.276104
0.276261
0.276419
0.276576
0.276735
0.276892
0.277051
0.277208
0.277367
0.277525
0.277684
0.277842
0.278001
0.278159
0.278319
0.278477
0.278637
0.278796
0.278956
0.279114
0.279275
0.279434
0.279594
0.279753
0.279914
0.280074
0.280235
0.280394
0.280556
0.280715
0.280877
0.281037
0.281199
0.281359
0.281521
0.281681
0.281844
0.282004
0.282167
0.282328
0.28249
0.282651
0.282814
0.282976
0.283139
0.2833
0.283464
0.283625
0.283789
0.283951
0.284115
0.284277
0.284441
0.284604
0.284768
0.284931
0.285095
0.285258
0.285423
0.285586
0.285751
0.285914
0.28608
0.286243
0.286409
0.286572
0.286738
0.286902
0.287068
0.287232
0.287398
0.287563
0.287729
0.287894
0.288061
0.288225
0.288392
0.288557
0.288725
0.28889
0.289057
0.289223
0.28939
0.289556
0.289724
0.28989
0.290058
0.290224
0.290393
0.290559
0.290728
0.290894
0.291063
0.291229
0.2914
0.291565
0.291736
0.291902
0.292073
0.292238
0.292411
0.292575
0.292749
0.292913
0.293088
0.293251
0.293428
0.293589
0.293768
0.293927
0.294109
0.294266
0.29445
0.294605
0.294792
0.294944
0.295134
0.295284
0.295477
0.295625
0.295819
0.295967
0.296162
0.29631
0.296505
0.296653
0.296848
0.296997
0.297192
0.297341
0.297536
0.297685
0.297881
0.29803
0.298226
0.298376
0.298572
0.298722
0.298918
0.299068
0.299265
0.299415
0.299612
0.299762
0.29996
0.30011
0.300308
0.300458
0.300656
0.300807
0.301005
0.301156
0.301355
0.301506
0.301705
0.301856
0.302055
0.302207
0.302406
0.302558
0.302758
0.30291
0.30311
0.303262
0.303462
0.303615
0.303815
0.303968
0.304168
0.304321
0.304522
0.304675
0.304876
0.30503
0.305231
0.305385
0.305586
0.30574
0.305942
0.306096
0.306298
0.306453
0.306655
0.306809
0.307012
0.307167
0.30737
0.307525
0.307728
0.307883
0.308087
0.308242
0.308446
0.308601
0.308805
0.308961
0.309166
0.309322
0.309526
0.309682
0.309887
0.310044
0.310249
0.310406
0.310611
0.310768
0.310974
0.311131
0.311337
0.311494
0.311701
0.311858
0.312065
0.312223
0.31243
0.312588
0.312795
0.312953
0.313161
0.313319
0.313527
0.313686
0.313894
0.314053
0.314261
0.31442
0.314629
0.314788
0.314997
0.315156
0.315365
0.315525
0.315734
0.315894
0.316104
0.316264
0.316474
0.316634
0.316845
0.317005
0.317216
0.317377
0.317588
0.317749
0.31796
0.318121
0.318333
0.318494
0.318706
0.318868
0.319081
0.319243
0.319456
0.319619
0.319832
0.319995
0.320209
0.320372
0.320587
0.320751
0.320966
0.32113
0.321346
0.321511
0.321727
0.321894
0.322108
0.32228
0.32249
0.322669
0.322873
0.323061
0.323258
0.323453
0.323648
0.323845
0.324043
0.324238
0.32444
0.324635
0.32484
0.325036
0.325242
0.32544
0.325648
0.325847
0.326059
0.326257
0.326473
0.326672
0.326892
0.327091
0.327316
0.327514
0.327744
0.327941
0.328177
0.328374
0.328615
0.32881
0.329057
0.329252
0.329503
0.329699
0.329953
0.33015
0.330407
0.330605
0.330865
0.331064
0.331326
0.331527
0.33179
0.331992
0.332256
0.332459
0.332724
0.332928
0.333194
0.333398
0.333664
0.333868
0.334134
0.334338
0.334603
0.334807
0.335071
0.335274
0.335538
0.33574
0.336003
0.336204
0.336465
0.336665
0.336924
0.337122
0.33738
0.337577
0.337833
0.338028
0.338282
0.338476
0.338728
0.33892
0.339171
0.339361
0.33961
0.339799
0.340047
0.340235
0.34048
0.340668
0.340912
0.341098
0.341341
0.341526
0.341768
0.341953
0.342194
0.342377
0.342617
0.3428
0.34304
0.343222
0.343461
0.343643
0.343881
0.344063
0.3443
0.344482
0.344719
0.3449
0.345137
0.345318
0.345555
0.345736
0.345972
0.346153
0.346389
0.34657
0.346806
0.346986
0.347222
0.347402
0.347638
0.347819
0.348054
0.348235
0.34847
0.34865
0.348886
0.349066
0.349302
0.349482
0.349718
0.349899
0.350135
0.350315
0.350552
0.350733
0.35097
0.351151
0.351389
0.351571
0.35181
0.351994
0.352235
0.35242
0.352663
0.352851
0.353098
0.353288
0.35354
0.353734
0.353992
0.354192
0.354458
0.354664
0.354939
0.355153
0.355439
0.355661
0.35596
0.356191
0.356504
0.356744
0.35707
0.357319
0.357659
0.357916
0.358269
0.358532
0.358895
0.359163
0.359534
0.359805
0.36018
0.360452
0.360829
0.3611
0.361477
0.361745
0.362119
0.362383
0.362754
0.363013
0.363378
0.363633
0.363993
0.364235
0.364604
0.364791
)
;

boundaryField
{
    sides
    {
        type            calculated;
        value           nonuniform List<scalar> 2(0.364791 0.253678);
    }
    empty
    {
        type            empty;
    }
}


// ************************************************************************* //
