/*--------------------------------*- C++ -*----------------------------------*\
  =========                 |
  \\      /  F ield         | OpenFOAM: The Open Source CFD Toolbox
   \\    /   O peration     | Website:  https://openfoam.org
    \\  /    A nd           | Version:  9
     \\/     M anipulation  |
\*---------------------------------------------------------------------------*/
FoamFile
{
    format      ascii;
    class       volScalarField;
    location    "0.005";
    object      ddt0(rho,e);
}
// * * * * * * * * * * * * * * * * * * * * * * * * * * * * * * * * * * * * * //

dimensions      [1 -1 -3 0 0 0 0];

internalField   nonuniform List<scalar> 
1000
(
-4.01645e-06
1.46657e-06
-7.67353e-07
-2.21369e-06
-1.59201e-06
-1.8483e-06
3.70866e-08
9.1342e-07
8.47654e-07
3.24577e-06
1.38037e-06
-6.21835e-07
-1.68807e-06
-4.36889e-06
-1.59875e-06
-1.44935e-06
-6.60553e-06
-9.07662e-07
-3.24964e-06
-2.00452e-07
5.79799e-07
-1.72453e-06
2.85741e-06
2.61006e-06
2.36461e-06
2.4135e-06
-3.30767e-06
-1.46891e-06
2.20526e-06
2.70023e-06
-3.11062e-06
-7.04149e-07
1.3896e-06
-3.88414e-06
-1.16064e-06
-7.13178e-06
2.75191e-06
-5.06085e-06
-2.34957e-06
-1.19958e-06
1.48898e-06
-2.92489e-06
-2.32803e-06
-1.53455e-06
-3.27461e-06
-2.88621e-06
-4.6587e-07
1.76595e-06
3.89199e-06
-2.31064e-06
1.16564e-06
8.88847e-07
6.00239e-06
-2.87058e-07
-1.9068e-06
-4.44157e-06
-1.52827e-06
4.81779e-07
-1.74606e-06
-3.44193e-06
-6.9373e-07
-2.00695e-06
9.1148e-07
-3.59212e-07
1.24487e-06
-6.55426e-07
3.66815e-08
-5.74095e-07
2.47117e-06
3.43172e-06
-1.64978e-06
-2.24454e-07
1.45988e-06
9.23652e-07
6.17596e-07
1.79768e-06
-2.53961e-07
2.53654e-06
-3.08952e-07
-2.9732e-06
-2.92451e-08
-1.04721e-06
-1.77061e-06
-2.99284e-06
-5.23445e-07
-1.60405e-07
-6.34914e-07
-1.39127e-07
-2.47422e-06
-5.30499e-06
-2.00615e-06
-3.09986e-06
-2.72629e-07
1.70985e-06
2.66859e-06
-4.4685e-06
3.00918e-07
-2.60153e-08
-2.50421e-06
2.18501e-06
2.49704e-06
4.96243e-07
-7.498e-07
1.25292e-06
4.05585e-06
6.86621e-07
5.44354e-08
2.65948e-07
-3.41135e-06
-1.28924e-06
-1.06499e-06
-2.11216e-07
1.48013e-06
3.24216e-07
-1.70531e-06
-3.13604e-06
-2.39439e-07
8.79552e-08
1.10801e-06
-1.18424e-06
2.36341e-07
5.91356e-08
4.38941e-06
1.3108e-06
2.25407e-08
-3.82458e-06
-2.16525e-07
-1.8233e-06
3.27572e-07
-9.56065e-07
-2.02665e-06
-3.53745e-07
-2.1042e-06
2.69408e-06
-3.19257e-06
-7.94158e-07
2.5946e-06
-8.52453e-07
5.91262e-06
8.62732e-07
-3.62146e-06
-1.74877e-06
-2.52107e-07
-6.8975e-07
7.35014e-07
1.66637e-06
-2.96164e-06
-6.80698e-06
-7.03874e-07
-1.29263e-06
-5.09287e-06
-1.38653e-06
9.8641e-07
-1.1826e-06
5.93102e-07
-1.5548e-06
-1.42184e-06
-1.63131e-06
-2.20905e-06
-7.32355e-07
-1.73742e-07
1.79098e-06
2.12752e-06
1.37649e-07
-9.35285e-07
-3.89179e-09
-6.59527e-07
1.16822e-06
1.64815e-06
-9.73119e-07
4.82525e-07
-1.42126e-06
-5.39055e-06
2.83534e-07
-1.3474e-06
-7.97999e-07
-1.49446e-07
-1.02908e-07
-1.69325e-06
-1.13504e-06
1.08365e-06
2.95291e-06
-3.52208e-06
1.67356e-06
1.05165e-07
8.68253e-07
2.35446e-06
1.90799e-06
1.07356e-06
-2.99374e-06
-1.04484e-06
-1.94631e-06
-1.69028e-06
-3.26706e-06
-1.51675e-06
1.44976e-07
4.5964e-06
-2.46517e-06
-1.54218e-06
-4.82419e-06
-5.69703e-07
2.09788e-06
-2.77895e-06
5.26617e-07
1.6915e-06
2.70543e-06
-1.96289e-06
1.31373e-06
-2.56767e-06
-5.72544e-06
3.19564e-06
3.03137e-06
2.19219e-06
4.18539e-06
2.16081e-06
4.07709e-07
7.06967e-07
-3.57339e-06
-4.33422e-06
-4.5419e-06
2.58908e-06
-4.96531e-07
3.69538e-06
2.17317e-06
-6.22882e-06
-4.0431e-06
-4.3469e-06
-6.85808e-06
3.36982e-07
-3.60379e-06
1.15546e-06
2.32848e-06
-8.75201e-08
-1.25195e-06
3.22754e-06
1.3535e-06
-1.46323e-06
6.30243e-06
-2.68161e-06
-4.1023e-07
4.6577e-06
-4.66455e-07
4.09339e-07
-7.32169e-07
-8.91774e-07
1.97387e-06
-2.13366e-06
-1.32234e-06
1.48982e-06
-9.35696e-07
8.54614e-07
2.80352e-06
-1.6243e-06
-2.96604e-06
1.26085e-06
3.01624e-07
4.54547e-07
1.7175e-07
-2.43105e-06
-4.93084e-06
-1.86211e-08
7.04323e-07
-1.21724e-06
-3.9588e-06
-1.58334e-05
-4.35131e-05
-0.000100534
-0.000231549
-0.000516007
-0.00115554
-0.00253895
-0.00552728
-0.0119441
-0.0255594
-0.0542031
-0.113876
-0.236972
-0.488353
-0.996482
-2.01284
-4.02411
-7.96066
-15.5793
-30.1551
-57.7128
-109.184
-204.124
-376.993
-687.588
-1237.98
-2199.45
-3854.2
-6658.29
-11333.5
-18997
-31335.6
-50828.5
-81010.5
-126751
-194494
-292372
-430059
-618214
-867373
-1.18622e+06
-1.57936e+06
-2.04497e+06
-2.57291e+06
-3.14411e+06
-3.73174e+06
-4.30437e+06
-4.8304e+06
-5.28266e+06
-5.6417e+06
-5.90012e+06
-6.06475e+06
-6.15101e+06
-6.17678e+06
-6.15843e+06
-6.10912e+06
-6.03861e+06
-5.95383e+06
-5.85954e+06
-5.75901e+06
-5.65447e+06
-5.54745e+06
-5.43901e+06
-5.32989e+06
-5.22058e+06
-5.11144e+06
-5.00271e+06
-4.89455e+06
-4.78708e+06
-4.68036e+06
-4.57444e+06
-4.46935e+06
-4.36511e+06
-4.26172e+06
-4.1592e+06
-4.05754e+06
-3.95676e+06
-3.85686e+06
-3.75785e+06
-3.65973e+06
-3.56252e+06
-3.46623e+06
-3.37087e+06
-3.27646e+06
-3.18302e+06
-3.09057e+06
-2.99912e+06
-2.90869e+06
-2.8193e+06
-2.73097e+06
-2.64371e+06
-2.55756e+06
-2.47251e+06
-2.38859e+06
-2.30581e+06
-2.22419e+06
-2.14373e+06
-2.06445e+06
-1.98635e+06
-1.90944e+06
-1.83374e+06
-1.75924e+06
-1.68595e+06
-1.61387e+06
-1.54301e+06
-1.47336e+06
-1.40493e+06
-1.33771e+06
-1.27171e+06
-1.20691e+06
-1.14332e+06
-1.08094e+06
-1.01975e+06
-959754
-900948
-843325
-786877
-731599
-677484
-624524
-572712
-522040
-472500
-424084
-376784
-330591
-285497
-241493
-198570
-156718
-115931
-76196.2
-37507.6
146.036
36773.4
72380.9
106991
140568
173260
204682
235909
264197
296337
316451
359866
352330
440964
352564
559739
307961
694043
298787
687538
538461
367443
1.00877e+06
35123.7
1.1307e+06
424193
391675
1.28246e+06
51269.7
854835
1.14023e+06
-26639.4
1.09226e+06
1.07704e+06
-34664.9
1.11906e+06
1.18791e+06
-32957.8
938944
1.42481e+06
98717
527768
1.59941e+06
536610
49341.8
1.36057e+06
1.24906e+06
-17795.2
569680
1.63384e+06
725827
-102975
975402
1.59318e+06
418574
-66200.7
1.12019e+06
1.53588e+06
346299
-105510
1.02858e+06
1.56439e+06
477267
-220938
721353
1.57259e+06
820478
-228041
196268
1.34016e+06
1.28793e+06
107977
-303065
671208
1.46885e+06
845619
-258279
-212932
875132
1.39315e+06
585450
-424920
-254164
846592
1.34666e+06
514718
-533195
-392545
659043
1.18621e+06
612760
-312681
-635672
6788.04
1.02215e+06
1.10633e+06
-74671.1
-1.00965e+06
-483607
717834
1.15947e+06
413995
-735199
-1.00507e+06
-48188.8
991896
878710
-126322
-784135
-818263
-50985.8
889974
521840
-83970.5
-285531
-481377
-266584
112297
306553
113188
13130.2
-197547
-212820
-65015.3
35727.8
82142.2
43385.4
-56319.8
-43215.6
-133370
-88974.7
16583.9
29302.5
-38015.9
-52059.4
-70665.9
-9432.88
-100765
-6894.17
10022.9
-18853.4
-74222.6
-7334.56
-24052.6
-86324
-101556
6676.41
-4940.03
-73365.2
-95228.7
4614.83
-48828
-55351.5
-69262.6
-8118.42
-44720.1
-72149.8
-92307.9
-19226.5
-34098.1
-77091.8
-104578
-18357.1
-44795.8
-74874.5
-90266
-53059.5
-55376.2
-55514.2
-85098
-52615.9
-99357.6
-76528.9
-97036
-48525.7
-66823.2
-80331.9
-127471
-68903
-122095
-110494
-108562
-76049.4
-68043.2
-102574
-138607
-123065
-91424.6
-152394
-128274
-80419.9
-109516
-191636
-195489
-157913
-108484
-143325
-169146
-149775
-149909
-184879
-237725
-301774
-331160
-244140
-150527
-103898
-128695
-250185
-404318
-480921
-454219
-336689
-194853
-121618
-168451
-332900
-630805
-795867
-845068
-757012
-587306
-389026
-231619
-159064
-215392
-425499
-1.23894e+06
-1.62634e+06
-1.85767e+06
-1.92226e+06
-1.85694e+06
-1.65458e+06
-1.30471e+06
-969340
-650372
-384962
-237614
-175671
-489645
-2.01567e+06
-5.25492e+06
-2.2933e+07
-6.64077e+07
-2.05049e+08
-2.02774e+08
-1.79482e+08
-1.51441e+08
-1.23959e+08
-9.90264e+07
-7.76415e+07
-5.97577e+07
-4.50083e+07
-3.34729e+07
-2.44991e+07
-1.77224e+07
-1.24455e+07
-8.55111e+06
-5.84322e+06
-3.92099e+06
-2.53459e+06
-1.60884e+06
-971401
-542083
-283689
-135337
-41059.7
-6107.87
46573.1
146032
126825
135124
84583.6
60768.1
122046
104341
15087.1
2899.81
2078.77
112608
32536.3
-13835.3
-8485.83
32788.9
51825.1
79072.1
72424.6
88367.5
95818
87711.2
66493.3
43643.3
44451.8
31469.7
4463.69
4646.89
18073.3
2851.23
-9060.25
-19433.4
-17208.6
-35823.8
-41832.9
-31790
-15756.4
-11733.5
-15762.7
-15692.1
4194.12
8605.88
11575.3
44677.6
62084.1
72007.8
58088
20414.9
15396.7
17845.1
631.293
-2911.79
-2523.54
-2650.01
-19006.2
-43300.7
-55133.5
-16729
-21018.9
-20800.2
-7572.78
21331.7
18473.6
26132.8
53854.4
71379.9
82036.5
-10531.9
-18777.4
41530.5
-8707.8
-10332.3
55501.4
-67974.7
60729.5
19222.1
-40247.4
73112
-110618
-51679
6258.36
-268612
223950
90426.1
-59048.7
819936
378244
-285339
1.2927e+06
-630405
837110
1.07662e+06
-3.16309e+06
3.78956e+06
865466
-498199
6.20995e+06
-146938
-537905
1.35431e+07
-1.21325e+07
8.70606e+06
2.94252e+07
-5.78514e+07
1.21123e+08
-1.17409e+08
2.81799e+08
1.53683e+08
-7.36184e+06
-4.65266e+06
-636677
-77405
-9986.98
-1321.62
-175.778
-23.3858
-3.11084
-0.413861
-0.0550769
-0.00733157
-0.000975445
-0.000129478
-1.84718e-05
-1.99774e-06
7.30296e-08
5.71999e-07
7.26113e-07
-5.10346e-07
-3.30685e-07
5.74569e-08
-3.71915e-07
4.91419e-07
-3.12931e-07
1.97559e-07
-6.84829e-09
-3.51653e-08
2.49113e-07
4.9281e-07
-1.08769e-06
-4.31377e-07
2.63279e-07
6.64639e-07
2.48539e-07
2.1876e-07
-6.2707e-07
4.90831e-08
-4.40125e-07
6.30395e-07
3.58122e-07
-4.9051e-07
-6.76449e-07
-1.1547e-07
-1.66008e-07
-3.50072e-07
9.93629e-07
-3.02232e-07
3.32216e-07
3.8635e-07
-6.18241e-07
6.76935e-07
-6.25092e-07
-6.67843e-07
2.18099e-08
7.18081e-07
-2.19514e-07
-5.55264e-07
1.94246e-07
-7.13727e-08
-6.05379e-07
3.57168e-07
-5.37057e-07
5.67287e-07
1.09805e-08
-5.21308e-08
-5.03727e-07
1.2924e-06
4.05814e-07
-4.65455e-07
-6.82628e-07
1.4822e-07
4.96306e-08
-5.21312e-07
-9.06847e-07
-1.0313e-06
-5.14136e-07
6.30285e-07
6.08469e-07
7.60351e-07
4.53118e-07
-4.44983e-07
-3.51341e-07
2.25322e-07
-2.79374e-07
7.21755e-07
-7.0099e-07
-3.98614e-07
3.40624e-07
-5.37659e-07
5.04257e-08
5.89591e-07
3.05708e-07
7.57085e-08
-1.59596e-07
-3.01093e-07
5.20503e-08
-3.63784e-07
4.32281e-07
4.48052e-07
-3.7272e-07
2.41676e-07
-7.6521e-07
-3.8661e-07
5.80769e-07
-8.41696e-08
2.00665e-07
-3.80137e-08
3.84629e-07
-1.27938e-07
-6.40048e-08
1.37894e-07
4.0893e-07
-2.36425e-07
-3.81805e-07
3.18293e-07
6.76259e-07
7.4121e-07
-3.68368e-07
4.37403e-07
1.85835e-07
1.18328e-07
-7.86656e-07
7.41003e-07
2.95009e-07
-2.06729e-07
5.39837e-07
7.00763e-07
-3.27708e-07
5.44702e-07
1.13499e-06
1.6868e-07
-3.38804e-07
-2.65148e-07
7.46619e-07
1.44063e-08
4.29642e-07
8.98097e-08
-4.83952e-07
-3.38302e-07
-3.0901e-08
-1.32975e-07
-2.51941e-07
6.10685e-07
-4.91977e-07
5.55302e-07
-2.6611e-08
-7.47615e-08
4.72038e-07
-6.20745e-07
-4.23589e-07
-6.72166e-07
4.87407e-07
4.05503e-07
1.01283e-06
-4.00612e-09
9.60179e-07
-3.69644e-07
1.61237e-07
-4.04976e-07
-1.81712e-07
1.59063e-07
-1.79617e-07
-9.46126e-07
5.78945e-07
-3.17328e-07
-6.73355e-07
1.71236e-07
-2.83734e-07
-3.05588e-07
3.98836e-07
1.24321e-06
-5.41135e-07
1.03213e-07
-7.90086e-07
-1.8877e-07
3.57771e-07
3.92695e-09
4.38175e-07
8.65194e-08
2.49568e-07
-1.54184e-07
2.49736e-07
-9.00828e-10
5.50126e-07
-2.99402e-07
4.45613e-07
-8.48238e-08
-7.1647e-07
-1.38515e-07
-2.23322e-07
4.60743e-07
-6.65805e-08
-8.23099e-07
-7.46846e-07
-1.35656e-07
-3.14976e-07
-1.34214e-07
4.58201e-08
-8.27985e-07
2.42961e-07
6.43696e-07
3.90449e-08
2.01328e-07
2.91613e-07
-5.09046e-07
7.6997e-07
1.11728e-07
-5.40575e-08
-3.50577e-07
1.38202e-07
-1.71009e-07
3.91135e-07
-2.70354e-08
5.12639e-07
-4.41708e-07
-3.48327e-07
1.28064e-07
-1.04792e-06
-7.33849e-08
4.58386e-08
2.91357e-07
3.92694e-07
2.75313e-07
6.87562e-07
1.90553e-07
-9.42968e-07
)
;

boundaryField
{
    sides
    {
        type            calculated;
        value           nonuniform List<scalar> 2(-9.42968e-07 -4.01645e-06);
    }
    empty
    {
        type            empty;
    }
}


// ************************************************************************* //
