/*--------------------------------*- C++ -*----------------------------------*\
  =========                 |
  \\      /  F ield         | OpenFOAM: The Open Source CFD Toolbox
   \\    /   O peration     | Website:  https://openfoam.org
    \\  /    A nd           | Version:  9
     \\/     M anipulation  |
\*---------------------------------------------------------------------------*/
FoamFile
{
    format      ascii;
    class       volScalarField;
    location    "0.005";
    object      p;
}
// * * * * * * * * * * * * * * * * * * * * * * * * * * * * * * * * * * * * * //

dimensions      [1 -1 -2 0 0 0 0];

internalField   nonuniform List<scalar> 
1000
(
100000
100000
100000
100000
100000
100000
100000
100000
100000
100000
100000
100000
100000
100000
100000
100000
100000
100000
100000
100000
100000
100000
100000
100000
100000
100000
100000
100000
100000
100000
100000
100000
100000
100000
100000
100000
100000
100000
100000
100000
100000
100000
100000
100000
100000
100000
100000
100000
100000
100000
100000
100000
100000
100000
100000
100000
100000
100000
100000
100000
100000
100000
100000
100000
100000
100000
100000
100000
100000
100000
100000
100000
100000
100000
100000
100000
100000
100000
100000
100000
100000
100000
100000
100000
100000
100000
100000
100000
100000
100000
100000
100000
100000
100000
100000
100000
100000
100000
100000
100000
100000
100000
100000
100000
100000
100000
100000
100000
100000
100000
100000
100000
100000
100000
100000
100000
100000
100000
100000
100000
100000
100000
100000
100000
100000
100000
100000
100000
100000
100000
100000
100000
100000
100000
100000
100000
100000
100000
100000
100000
100000
100000
100000
100000
100000
100000
100000
100000
100000
100000
100000
100000
100000
100000
100000
100000
100000
100000
100000
100000
100000
100000
100000
100000
100000
100000
100000
100000
100000
100000
100000
100000
100000
100000
100000
100000
100000
100000
100000
100000
100000
100000
100000
100000
100000
100000
100000
100000
100000
100000
100000
100000
100000
100000
100000
100000
100000
100000
100000
100000
100000
100000
100000
100000
100000
100000
100000
100000
100000
100000
100000
100000
100000
100000
100000
100000
100000
100000
100000
100000
100000
100000
100000
100000
100000
100000
100000
100000
100000
100000
100000
100000
100000
100000
100000
100000
100000
100000
100000
100000
100000
100000
100000
100000
100000
100000
100000
100000
100000
100000
100000
100000
100000
100000
100000
100000
100000
100000
100000
100000
100000
100000
100000
100000
100000
100000
100000
100000
100000
100000
100000
100000
100000
100000
100000
100000
100000
100000
100000
100000
100000
100000
100000
100000
100000
100000
100000
99999.9
99999.9
99999.8
99999.7
99999.4
99998.9
99998.2
99996.8
99994.7
99991.1
99985.5
99976.6
99963
99942.4
99912
99868.1
99806.3
99721.4
99607.6
99459.2
99271.1
99039.2
98761.1
98436.8
98068.3
97660
97217.6
96748
96257.9
95752.9
95237.6
94715.5
94189.2
93660.3
93130.1
92599.5
92069
91539.1
91010
90482.1
89955.3
89429.9
88906
88383.5
87862.5
87343.1
86825.3
86309.1
85794.6
85281.7
84770.5
84261
83753.2
83247.2
82743
82240.5
81739.9
81241.2
80744.3
80249.4
79756.4
79265.4
78776.4
78289.4
77804.5
77321.6
76840.8
76362.2
75885.6
75411.3
74939.1
74469.1
74001.3
73535.7
73072.3
72611.2
72152.3
71695.7
71241.4
70789.3
70339.5
69892
69446.8
69003.9
68563.2
68124.9
67688.8
67255
66823.5
66394.3
65967.4
65542.7
65120.4
64700.3
64282.5
63867
63453.7
63042.7
62633.9
62227.4
61823.1
61421.1
61021.3
60623.8
60228.4
59835.3
59444.4
59055.7
58669.2
58284.9
57902.8
57522.9
57145.1
56769.5
56396.1
56024.8
55655.6
55288.7
54923.8
54561.1
54200.5
53842
53485.6
53131.3
52779.1
52429.1
52081
51735.2
51391.2
51049.5
50709.8
50372.3
50036.6
49703.1
49371.6
49042.1
48714.7
48389.2
48065.8
47744.4
47425
47107.6
46792.3
46478.9
46167.6
45858.2
45550.8
45245.5
44942.1
44640.7
44341.3
44044
43748.6
43455.2
43163.8
42874.4
42587.1
42301.7
42018.3
41737
41457.8
41180.5
40905.3
40632.2
40361.1
40092.1
39825.3
39560.6
39298
39037.5
38779.2
38523.2
38269.4
38017.9
37768.6
37521.8
37277.3
37035.2
36795.6
36558.6
36324.2
36092.3
35863.2
35636.9
35413.6
35193.2
34975.8
34761.5
34550.7
34343.2
34139.3
33939
33742.5
33550.1
33361.9
33178
32998.6
32824
32654.3
32489.9
32330.9
32177.5
32030
31888.6
31753.6
31625.2
31503.5
31388.8
31281.2
31180.9
31087.9
31002.3
30924
30853
30789.3
30732.5
30682.8
30638.8
30601.6
30570
30542
30522.3
30504.5
30489.7
30479.1
30470.8
30464.1
30459.3
30457.6
30455.2
30454.9
30455
30455
30455.2
30455.5
30456.8
30458
30458.8
30459
30459
30460.9
30461
30461.9
30463.8
30464
30463.5
30465.7
30468.5
30468.3
30467.5
30469.9
30471.3
30471
30471.5
30474
30474.4
30473.1
30473.6
30476
30476.6
30475.4
30475.8
30477.8
30478.5
30477.7
30478
30479.8
30480
30478.9
30479.3
30481.1
30481.1
30480.1
30480.3
30481.8
30481.6
30480.7
30481.1
30482.4
30482.9
30482.4
30482
30482.8
30483.2
30482.8
30482.7
30483.3
30483.8
30483.1
30482.9
30483.5
30483.4
30483
30483.2
30483.7
30483.4
30482.7
30483.2
30484.1
30483.4
30482.5
30483.5
30483.8
30482.9
30482.9
30483.3
30483.2
30482.9
30482.9
30483.3
30483.1
30482.5
30482.9
30483.2
30482.7
30482.8
30483
30482.9
30482.8
30482.8
30482.7
30482.8
30482.8
30482.7
30482.8
30482.8
30482.9
30482.8
30482.9
30482.9
30482.9
30483.1
30483.1
30483.1
30483.1
30483.2
30483.2
30483.4
30483.2
30483.1
30483.2
30483.2
30483.2
30483.3
30483.4
30483.5
30483.4
30483.2
30484.7
30486.4
30486.3
30485.6
30490.8
30501.7
30491.5
30438.6
30461.4
30486.4
30487.7
30486.5
30482.3
30482.9
30486.3
30485.3
30481.4
30480.9
30483.5
30484
30482.6
30482
30482.3
30482.1
30482.2
30482.4
30482.3
30482.3
30482.5
30482.6
30482.5
30482.6
30482.6
30482.9
30482.4
30482.5
30483.4
30483.1
30481.8
30482.1
30483.3
30483.5
30482.4
30481.9
30482.3
30482.5
30482.3
30482
30481.8
30482
30482.3
30482.2
30482
30482
30482.2
30482.1
30481.9
30482.1
30482.2
30481.8
30481.7
30481.7
30481.7
30481.5
30481.2
30481.1
30480.9
30480.5
30480.2
30480.3
30480.5
30480.4
30480.3
30480.3
30480.3
30480.5
30480.5
30480.3
30480.6
30480.7
30480.5
30480.6
30480.7
30480.7
30480.7
30480.6
30480.5
30480.7
30480.4
30480.1
30480.1
30480
30479.7
30479.6
30479.8
30480.2
30480.3
30479.7
30480
30480.2
30479.1
30478.7
30478.8
30478.7
30480
30479.7
30480.3
30480.9
30479.1
30478.8
30476.1
30470.2
30470.7
30463.6
30464.5
30471.3
30462.2
30468.8
30464.6
30450.8
30450.6
30421.7
30376.7
30401.4
30293.9
30323.2
30310.3
30240.2
30296.5
30223.2
30001.1
30164.9
29659.6
29619.6
29665.2
28027.5
29523.7
22138.9
13031.3
10571.4
10083.6
10011.3
10001.5
10000.2
10000
10000
10000
10000
10000
10000
10000
10000
10000
10000
10000
10000
10000
10000
10000
10000
10000
10000
10000
10000
10000
10000
10000
10000
10000
10000
10000
10000
10000
10000
10000
10000
10000
10000
10000
10000
10000
10000
10000
10000
10000
10000
10000
10000
10000
10000
10000
10000
10000
10000
10000
10000
10000
10000
10000
10000
10000
10000
10000
10000
10000
10000
10000
10000
10000
10000
10000
10000
10000
10000
10000
10000
10000
10000
10000
10000
10000
10000
10000
10000
10000
10000
10000
10000
10000
10000
10000
10000
10000
10000
10000
10000
10000
10000
10000
10000
10000
10000
10000
10000
10000
10000
10000
10000
10000
10000
10000
10000
10000
10000
10000
10000
10000
10000
10000
10000
10000
10000
10000
10000
10000
10000
10000
10000
10000
10000
10000
10000
10000
10000
10000
10000
10000
10000
10000
10000
10000
10000
10000
10000
10000
10000
10000
10000
10000
10000
10000
10000
10000
10000
10000
10000
10000
10000
10000
10000
10000
10000
10000
10000
10000
10000
10000
10000
10000
10000
10000
10000
10000
10000
10000
10000
10000
10000
10000
10000
10000
10000
10000
10000
10000
10000
10000
10000
10000
10000
10000
10000
10000
10000
10000
10000
10000
10000
10000
10000
10000
10000
10000
10000
10000
10000
10000
10000
10000
10000
10000
10000
10000
10000
10000
10000
10000
10000
10000
10000
10000
10000
10000
10000
10000
)
;

boundaryField
{
    sides
    {
        type            zeroGradient;
    }
    empty
    {
        type            empty;
    }
}


// ************************************************************************* //
