/*--------------------------------*- C++ -*----------------------------------*\
  =========                 |
  \\      /  F ield         | OpenFOAM: The Open Source CFD Toolbox
   \\    /   O peration     | Website:  https://openfoam.org
    \\  /    A nd           | Version:  9
     \\/     M anipulation  |
\*---------------------------------------------------------------------------*/
FoamFile
{
    format      ascii;
    class       volVectorField;
    location    "0.005";
    object      U_0;
}
// * * * * * * * * * * * * * * * * * * * * * * * * * * * * * * * * * * * * * //

dimensions      [0 1 -1 0 0 0 0];

internalField   nonuniform List<vector> 
1000
(
(5.12859e-13 0 0)
(1.14702e-12 0 0)
(1.44568e-12 0 0)
(1.65067e-12 0 0)
(1.6261e-12 0 0)
(1.66065e-12 0 0)
(1.67754e-12 0 0)
(8.52205e-13 0 0)
(4.7831e-13 0 0)
(-4.0307e-13 0 0)
(-7.16313e-13 0 0)
(-1.04414e-12 0 0)
(-1.18004e-12 0 0)
(-7.34739e-13 0 0)
(-4.6449e-13 0 0)
(-1.72744e-13 0 0)
(-2.01151e-13 0 0)
(2.15738e-13 0 0)
(5.27446e-13 0 0)
(7.08636e-13 0 0)
(6.3186e-13 0 0)
(7.47023e-13 0 0)
(6.24951e-13 0 0)
(-7.83108e-14 0 0)
(-2.18042e-13 0 0)
(-5.87331e-13 0 0)
(-3.07101e-14 0 0)
(-3.12475e-13 0 0)
(-4.63723e-13 0 0)
(-7.78501e-13 0 0)
(-9.44336e-13 0 0)
(-4.77542e-13 0 0)
(2.30326e-15 0 0)
(3.66218e-13 0 0)
(4.08444e-13 0 0)
(6.92513e-13 0 0)
(6.34164e-13 0 0)
(4.85987e-13 0 0)
(5.57388e-13 0 0)
(5.71976e-13 0 0)
(6.30325e-13 0 0)
(3.54702e-13 0 0)
(6.07292e-13 0 0)
(1.11247e-12 0 0)
(1.50633e-12 0 0)
(2.07831e-12 0 0)
(2.3117e-12 0 0)
(2.54971e-12 0 0)
(2.10902e-12 0 0)
(2.07754e-12 0 0)
(1.37504e-12 0 0)
(1.3666e-12 0 0)
(7.63914e-13 0 0)
(6.49519e-13 0 0)
(5.3282e-13 0 0)
(1.03723e-12 0 0)
(1.32437e-12 0 0)
(1.62303e-12 0 0)
(1.73666e-12 0 0)
(2.05067e-12 0 0)
(2.16506e-12 0 0)
(2.20191e-12 0 0)
(2.55662e-12 0 0)
(2.53973e-12 0 0)
(2.64721e-12 0 0)
(2.76468e-12 0 0)
(3.05489e-12 0 0)
(3.07715e-12 0 0)
(2.67639e-12 0 0)
(2.2833e-12 0 0)
(1.91708e-12 0 0)
(1.42648e-12 0 0)
(1.20307e-12 0 0)
(5.10556e-13 0 0)
(8.59883e-13 0 0)
(4.49903e-13 0 0)
(1.1785e-12 0 0)
(8.73703e-13 0 0)
(8.66793e-13 0 0)
(6.40306e-13 0 0)
(6.28022e-13 0 0)
(5.42801e-13 0 0)
(8.92129e-13 0 0)
(7.8925e-13 0 0)
(5.55853e-13 0 0)
(4.3378e-13 0 0)
(6.37235e-13 0 0)
(6.35699e-13 0 0)
(1.15163e-12 0 0)
(1.44107e-12 0 0)
(1.63071e-12 0 0)
(2.14894e-12 0 0)
(2.31708e-12 0 0)
(2.15508e-12 0 0)
(1.957e-12 0 0)
(1.75585e-12 0 0)
(1.6714e-12 0 0)
(1.4856e-12 0 0)
(1.62533e-12 0 0)
(1.78579e-12 0 0)
(1.77658e-12 0 0)
(1.51017e-12 0 0)
(1.56391e-12 0 0)
(1.49174e-12 0 0)
(1.319e-12 0 0)
(9.59691e-13 0 0)
(8.85987e-13 0 0)
(6.6948e-13 0 0)
(6.04989e-13 0 0)
(9.26677e-13 0 0)
(1.02188e-12 0 0)
(1.06718e-12 0 0)
(1.2929e-12 0 0)
(1.15316e-12 0 0)
(1.83263e-12 0 0)
(1.83339e-12 0 0)
(2.08905e-12 0 0)
(1.56007e-12 0 0)
(1.11401e-12 0 0)
(6.34164e-13 0 0)
(7.57772e-13 0 0)
(8.6756e-14 0 0)
(5.83492e-14 0 0)
(-1.9808e-13 0 0)
(6.37235e-14 0 0)
(3.55469e-13 0 0)
(5.47408e-13 0 0)
(8.01534e-13 0 0)
(6.99423e-13 0 0)
(7.50862e-13 0 0)
(7.16313e-13 0 0)
(1.00268e-12 0 0)
(1.01958e-12 0 0)
(1.26526e-12 0 0)
(1.35201e-12 0 0)
(1.61458e-12 0 0)
(1.26295e-12 0 0)
(1.63915e-12 0 0)
(1.15086e-12 0 0)
(1.157e-12 0 0)
(8.4376e-13 0 0)
(8.8829e-13 0 0)
(3.91554e-13 0 0)
(3.33205e-13 0 0)
(2.46449e-13 0 0)
(3.05566e-13 0 0)
(1.25144e-13 0 0)
(7.90017e-13 0 0)
(7.67753e-13 0 0)
(1.03723e-12 0 0)
(8.32244e-13 0 0)
(7.46256e-13 0 0)
(7.7543e-13 0 0)
(8.33779e-13 0 0)
(1.05105e-12 0 0)
(1.07025e-12 0 0)
(1.47946e-12 0 0)
(1.82495e-12 0 0)
(1.83877e-12 0 0)
(1.83954e-12 0 0)
(1.64683e-12 0 0)
(1.33205e-12 0 0)
(1.14318e-12 0 0)
(9.97311e-13 0 0)
(8.29941e-13 0 0)
(8.8829e-13 0 0)
(1.27831e-12 0 0)
(1.01804e-12 0 0)
(1.36583e-12 0 0)
(1.03186e-12 0 0)
(7.76198e-13 0 0)
(5.98847e-13 0 0)
(7.52398e-13 0 0)
(1.02879e-12 0 0)
(1.05873e-12 0 0)
(1.27677e-12 0 0)
(1.16775e-12 0 0)
(1.6476e-12 0 0)
(1.67063e-12 0 0)
(2.31708e-12 0 0)
(2.62955e-12 0 0)
(2.41535e-12 0 0)
(2.4522e-12 0 0)
(2.48905e-12 0 0)
(2.17351e-12 0 0)
(1.56545e-12 0 0)
(6.31093e-13 0 0)
(1.9117e-13 0 0)
(-3.75431e-13 0 0)
(-3.07869e-13 0 0)
(-3.95393e-13 0 0)
(-3.35508e-13 0 0)
(1.18234e-13 0 0)
(1.98848e-13 0 0)
(6.36467e-13 0 0)
(3.80038e-13 0 0)
(4.89826e-13 0 0)
(6.67945e-14 0 0)
(2.78694e-13 0 0)
(1.31286e-13 0 0)
(1.08253e-13 0 0)
(-1.61228e-13 0 0)
(-1.38195e-14 0 0)
(-1.09021e-13 0 0)
(1.38195e-14 0 0)
(2.01151e-13 0 0)
(2.16506e-13 0 0)
(4.13819e-13 0 0)
(3.11708e-13 0 0)
(8.82916e-13 0 0)
(6.78693e-13 0 0)
(4.18425e-13 0 0)
(-8.98271e-14 0 0)
(-6.1497e-13 0 0)
(-8.87522e-13 0 0)
(-9.40497e-13 0 0)
(-9.77349e-13 0 0)
(-6.14202e-13 0 0)
(2.68713e-14 0 0)
(5.68905e-13 0 0)
(1.07255e-12 0 0)
(5.9117e-13 0 0)
(1.19002e-13 0 0)
(-2.45681e-13 0 0)
(-6.37235e-14 0 0)
(2.63339e-13 0 0)
(1.0357e-12 0 0)
(1.74433e-12 0 0)
(2.36391e-12 0 0)
(2.51746e-12 0 0)
(2.91055e-12 0 0)
(2.50825e-12 0 0)
(2.53742e-12 0 0)
(2.23032e-12 0 0)
(1.88714e-12 0 0)
(1.37965e-12 0 0)
(1.4879e-12 0 0)
(1.36123e-12 0 0)
(9.97311e-13 0 0)
(9.95007e-13 0 0)
(7.61611e-13 0 0)
(6.9021e-13 0 0)
(5.0211e-13 0 0)
(6.04989e-13 0 0)
(4.37619e-13 0 0)
(6.64874e-13 0 0)
(4.26103e-13 0 0)
(4.79845e-13 0 0)
(4.28406e-13 0 0)
(8.44528e-13 0 0)
(1.28215e-13 0 0)
(8.29173e-14 0 0)
(-4.74471e-13 0 0)
(-3.88483e-13 0 0)
(-3.30134e-13 0 0)
(-6.07292e-13 0 0)
(-4.96736e-13 0 0)
(-8.29173e-14 0 0)
(7.2783e-13 0 0)
(1.36276e-12 0 0)
(1.7689e-12 0 0)
(1.75662e-12 0 0)
(1.45643e-12 0 0)
(1.82418e-12 0 0)
(3.62302e-12 0 0)
(9.24374e-12 0 0)
(2.23447e-11 0 0)
(5.32935e-11 0 0)
(1.23924e-10 0 0)
(2.81632e-10 0 0)
(6.30258e-10 0 0)
(1.39192e-09 0 0)
(3.04364e-09 0 0)
(6.59312e-09 0 0)
(1.41529e-08 0 0)
(3.01036e-08 0 0)
(6.34433e-08 0 0)
(1.32458e-07 0 0)
(2.73926e-07 0 0)
(5.61018e-07 0 0)
(1.13771e-06 0 0)
(2.28409e-06 0 0)
(4.53874e-06 0 0)
(8.92502e-06 0 0)
(1.73635e-05 0 0)
(3.3413e-05 0 0)
(6.35825e-05 0 0)
(0.000119616 0 0)
(0.000222405 0 0)
(0.000408578 0 0)
(0.000741377 0 0)
(0.00132827 0 0)
(0.00234884 0 0)
(0.00409793 0 0)
(0.00705066 0 0)
(0.0119576 0 0)
(0.0199793 0 0)
(0.0328702 0 0)
(0.0532163 0 0)
(0.0847283 0 0)
(0.132574 0 0)
(0.203713 0 0)
(0.307182 0 0)
(0.454218 0 0)
(0.658146 0 0)
(0.933877 0 0)
(1.29699 0 0)
(1.7624 0 0)
(2.34272 0 0)
(3.04662 0 0)
(3.87755 0 0)
(4.833 0 0)
(5.90463 0 0)
(7.07913 0 0)
(8.33995 0 0)
(9.6697 0 0)
(11.0524 0 0)
(12.4747 0 0)
(13.9264 0 0)
(15.3998 0 0)
(16.8894 0 0)
(18.3914 0 0)
(19.9031 0 0)
(21.4226 0 0)
(22.9487 0 0)
(24.4803 0 0)
(26.0169 0 0)
(27.5578 0 0)
(29.1029 0 0)
(30.6518 0 0)
(32.2044 0 0)
(33.7605 0 0)
(35.32 0 0)
(36.8828 0 0)
(38.4488 0 0)
(40.018 0 0)
(41.5904 0 0)
(43.1657 0 0)
(44.744 0 0)
(46.3252 0 0)
(47.9092 0 0)
(49.4959 0 0)
(51.0853 0 0)
(52.6772 0 0)
(54.2715 0 0)
(55.8682 0 0)
(57.4672 0 0)
(59.0684 0 0)
(60.6716 0 0)
(62.2768 0 0)
(63.8838 0 0)
(65.4927 0 0)
(67.1033 0 0)
(68.7154 0 0)
(70.3291 0 0)
(71.9442 0 0)
(73.5606 0 0)
(75.1784 0 0)
(76.7973 0 0)
(78.4173 0 0)
(80.0384 0 0)
(81.6605 0 0)
(83.2835 0 0)
(84.9074 0 0)
(86.532 0 0)
(88.1575 0 0)
(89.7836 0 0)
(91.4104 0 0)
(93.0378 0 0)
(94.6658 0 0)
(96.2943 0 0)
(97.9233 0 0)
(99.5527 0 0)
(101.183 0 0)
(102.813 0 0)
(104.443 0 0)
(106.074 0 0)
(107.706 0 0)
(109.337 0 0)
(110.969 0 0)
(112.601 0 0)
(114.233 0 0)
(115.865 0 0)
(117.498 0 0)
(119.13 0 0)
(120.763 0 0)
(122.396 0 0)
(124.029 0 0)
(125.662 0 0)
(127.294 0 0)
(128.927 0 0)
(130.56 0 0)
(132.193 0 0)
(133.826 0 0)
(135.459 0 0)
(137.091 0 0)
(138.724 0 0)
(140.356 0 0)
(141.988 0 0)
(143.62 0 0)
(145.252 0 0)
(146.884 0 0)
(148.515 0 0)
(150.147 0 0)
(151.778 0 0)
(153.408 0 0)
(155.039 0 0)
(156.669 0 0)
(158.299 0 0)
(159.928 0 0)
(161.557 0 0)
(163.186 0 0)
(164.814 0 0)
(166.442 0 0)
(168.069 0 0)
(169.695 0 0)
(171.322 0 0)
(172.947 0 0)
(174.573 0 0)
(176.196 0 0)
(177.82 0 0)
(179.444 0 0)
(181.066 0 0)
(182.688 0 0)
(184.309 0 0)
(185.929 0 0)
(187.549 0 0)
(189.167 0 0)
(190.785 0 0)
(192.402 0 0)
(194.017 0 0)
(195.632 0 0)
(197.245 0 0)
(198.857 0 0)
(200.468 0 0)
(202.079 0 0)
(203.687 0 0)
(205.293 0 0)
(206.9 0 0)
(208.503 0 0)
(210.105 0 0)
(211.706 0 0)
(213.305 0 0)
(214.901 0 0)
(216.496 0 0)
(218.089 0 0)
(219.679 0 0)
(221.267 0 0)
(222.853 0 0)
(224.436 0 0)
(226.015 0 0)
(227.592 0 0)
(229.166 0 0)
(230.736 0 0)
(232.303 0 0)
(233.866 0 0)
(235.425 0 0)
(236.98 0 0)
(238.529 0 0)
(240.074 0 0)
(241.615 0 0)
(243.149 0 0)
(244.678 0 0)
(246.2 0 0)
(247.716 0 0)
(249.224 0 0)
(250.725 0 0)
(252.217 0 0)
(253.701 0 0)
(255.175 0 0)
(256.639 0 0)
(258.092 0 0)
(259.533 0 0)
(260.962 0 0)
(262.378 0 0)
(263.778 0 0)
(265.163 0 0)
(266.531 0 0)
(267.882 0 0)
(269.213 0 0)
(270.523 0 0)
(271.81 0 0)
(273.074 0 0)
(274.312 0 0)
(275.523 0 0)
(276.703 0 0)
(277.853 0 0)
(278.969 0 0)
(280.049 0 0)
(281.092 0 0)
(282.095 0 0)
(283.056 0 0)
(283.972 0 0)
(284.843 0 0)
(285.666 0 0)
(286.44 0 0)
(287.163 0 0)
(287.834 0 0)
(288.453 0 0)
(289.019 0 0)
(289.533 0 0)
(289.995 0 0)
(290.406 0 0)
(290.769 0 0)
(291.083 0 0)
(291.356 0 0)
(291.584 0 0)
(291.767 0 0)
(291.926 0 0)
(292.06 0 0)
(292.161 0 0)
(292.241 0 0)
(292.304 0 0)
(292.34 0 0)
(292.363 0 0)
(292.385 0 0)
(292.397 0 0)
(292.404 0 0)
(292.408 0 0)
(292.407 0 0)
(292.403 0 0)
(292.398 0 0)
(292.394 0 0)
(292.392 0 0)
(292.388 0 0)
(292.381 0 0)
(292.377 0 0)
(292.372 0 0)
(292.363 0 0)
(292.354 0 0)
(292.347 0 0)
(292.336 0 0)
(292.328 0 0)
(292.327 0 0)
(292.322 0 0)
(292.311 0 0)
(292.303 0 0)
(292.299 0 0)
(292.294 0 0)
(292.284 0 0)
(292.28 0 0)
(292.278 0 0)
(292.269 0 0)
(292.259 0 0)
(292.256 0 0)
(292.255 0 0)
(292.249 0 0)
(292.241 0 0)
(292.239 0 0)
(292.239 0 0)
(292.234 0 0)
(292.229 0 0)
(292.227 0 0)
(292.227 0 0)
(292.221 0 0)
(292.215 0 0)
(292.216 0 0)
(292.215 0 0)
(292.21 0 0)
(292.205 0 0)
(292.205 0 0)
(292.206 0 0)
(292.201 0 0)
(292.197 0 0)
(292.198 0 0)
(292.2 0 0)
(292.198 0 0)
(292.195 0 0)
(292.193 0 0)
(292.194 0 0)
(292.193 0 0)
(292.19 0 0)
(292.19 0 0)
(292.191 0 0)
(292.19 0 0)
(292.187 0 0)
(292.186 0 0)
(292.187 0 0)
(292.185 0 0)
(292.184 0 0)
(292.184 0 0)
(292.185 0 0)
(292.183 0 0)
(292.182 0 0)
(292.184 0 0)
(292.185 0 0)
(292.182 0 0)
(292.182 0 0)
(292.185 0 0)
(292.184 0 0)
(292.182 0 0)
(292.183 0 0)
(292.184 0 0)
(292.183 0 0)
(292.182 0 0)
(292.183 0 0)
(292.183 0 0)
(292.182 0 0)
(292.181 0 0)
(292.183 0 0)
(292.183 0 0)
(292.182 0 0)
(292.182 0 0)
(292.182 0 0)
(292.182 0 0)
(292.182 0 0)
(292.181 0 0)
(292.181 0 0)
(292.181 0 0)
(292.18 0 0)
(292.18 0 0)
(292.18 0 0)
(292.179 0 0)
(292.179 0 0)
(292.179 0 0)
(292.178 0 0)
(292.178 0 0)
(292.177 0 0)
(292.177 0 0)
(292.177 0 0)
(292.176 0 0)
(292.176 0 0)
(292.175 0 0)
(292.177 0 0)
(292.177 0 0)
(292.176 0 0)
(292.174 0 0)
(292.174 0 0)
(292.173 0 0)
(292.173 0 0)
(292.172 0 0)
(292.172 0 0)
(292.173 0 0)
(292.176 0 0)
(292.183 0 0)
(292.193 0 0)
(292.218 0 0)
(292.262 0 0)
(292.371 0 0)
(292.514 0 0)
(292.863 0 0)
(292.872 0 0)
(292.293 0 0)
(291.971 0 0)
(291.962 0 0)
(292.015 0 0)
(292.058 0 0)
(292.088 0 0)
(292.126 0 0)
(292.158 0 0)
(292.158 0 0)
(292.148 0 0)
(292.157 0 0)
(292.173 0 0)
(292.173 0 0)
(292.166 0 0)
(292.165 0 0)
(292.166 0 0)
(292.166 0 0)
(292.167 0 0)
(292.167 0 0)
(292.165 0 0)
(292.166 0 0)
(292.166 0 0)
(292.166 0 0)
(292.165 0 0)
(292.164 0 0)
(292.166 0 0)
(292.166 0 0)
(292.164 0 0)
(292.166 0 0)
(292.168 0 0)
(292.163 0 0)
(292.159 0 0)
(292.163 0 0)
(292.167 0 0)
(292.164 0 0)
(292.158 0 0)
(292.157 0 0)
(292.158 0 0)
(292.158 0 0)
(292.156 0 0)
(292.154 0 0)
(292.154 0 0)
(292.156 0 0)
(292.157 0 0)
(292.156 0 0)
(292.155 0 0)
(292.156 0 0)
(292.157 0 0)
(292.157 0 0)
(292.157 0 0)
(292.159 0 0)
(292.159 0 0)
(292.159 0 0)
(292.16 0 0)
(292.162 0 0)
(292.163 0 0)
(292.163 0 0)
(292.163 0 0)
(292.162 0 0)
(292.162 0 0)
(292.16 0 0)
(292.159 0 0)
(292.16 0 0)
(292.161 0 0)
(292.16 0 0)
(292.159 0 0)
(292.158 0 0)
(292.157 0 0)
(292.157 0 0)
(292.156 0 0)
(292.155 0 0)
(292.155 0 0)
(292.154 0 0)
(292.152 0 0)
(292.152 0 0)
(292.152 0 0)
(292.151 0 0)
(292.15 0 0)
(292.149 0 0)
(292.149 0 0)
(292.148 0 0)
(292.146 0 0)
(292.146 0 0)
(292.148 0 0)
(292.148 0 0)
(292.147 0 0)
(292.146 0 0)
(292.146 0 0)
(292.143 0 0)
(292.137 0 0)
(292.131 0 0)
(292.131 0 0)
(292.13 0 0)
(292.129 0 0)
(292.128 0 0)
(292.124 0 0)
(292.12 0 0)
(292.113 0 0)
(292.101 0 0)
(292.092 0 0)
(292.077 0 0)
(292.063 0 0)
(292.058 0 0)
(292.047 0 0)
(292.045 0 0)
(292.044 0 0)
(292.028 0 0)
(292.01 0 0)
(291.943 0 0)
(291.858 0 0)
(291.789 0 0)
(291.659 0 0)
(291.551 0 0)
(291.448 0 0)
(291.227 0 0)
(291.162 0 0)
(290.98 0 0)
(290.691 0 0)
(290.543 0 0)
(289.847 0 0)
(288.952 0 0)
(288.227 0 0)
(286.735 0 0)
(285.668 0 0)
(283.922 0 0)
(281.418 0 0)
(280.004 0 0)
(274.222 0 0)
(269.253 0 0)
(236.815 0 0)
(132.154 0 0)
(34.3821 0 0)
(5.79068 0 0)
(0.845815 0 0)
(0.114721 0 0)
(0.015335 0 0)
(0.00204342 0 0)
(0.000271984 0 0)
(3.6186e-05 0 0)
(4.81433e-06 0 0)
(6.40667e-07 0 0)
(8.52814e-08 0 0)
(1.13549e-08 0 0)
(1.5114e-09 0 0)
(2.01153e-10 0 0)
(2.65297e-11 0 0)
(3.66833e-12 0 0)
(3.13244e-13 0 0)
(2.94817e-13 0 0)
(-2.90979e-13 0 0)
(-8.59884e-14 0 0)
(4.9904e-14 0 0)
(-1.61228e-14 0 0)
(9.3666e-14 0 0)
(1.30518e-14 0 0)
(-4.3762e-14 0 0)
(-2.84069e-14 0 0)
(1.25912e-13 0 0)
(1.68906e-13 0 0)
(1.02111e-13 0 0)
(1.51247e-13 0 0)
(-1.26679e-13 0 0)
(-2.50288e-13 0 0)
(4.35316e-13 0 0)
(1.02111e-13 0 0)
(-2.04222e-13 0 0)
(-3.22457e-13 0 0)
(-3.56238e-13 0 0)
(-1.80422e-13 0 0)
(-5.66602e-13 0 0)
(-7.21689e-13 0 0)
(-5.24376e-13 0 0)
(-4.3762e-13 0 0)
(-4.52207e-13 0 0)
(6.44913e-14 0 0)
(4.08445e-13 0 0)
(2.48752e-13 0 0)
(-6.90978e-15 0 0)
(6.14203e-15 0 0)
(-1.90403e-13 0 0)
(-4.24568e-13 0 0)
(-2.54894e-13 0 0)
(-1.97313e-13 0 0)
(1.44338e-13 0 0)
(2.6334e-13 0 0)
(-7.21689e-14 0 0)
(-3.04798e-13 0 0)
(-1.51247e-13 0 0)
(-5.86564e-13 0 0)
(-4.5451e-13 0 0)
(-8.57581e-13 0 0)
(-1.16084e-12 0 0)
(-1.52015e-12 0 0)
(-1.25144e-12 0 0)
(-1.1094e-12 0 0)
(-1.02111e-12 0 0)
(-7.88483e-13 0 0)
(-6.58733e-13 0 0)
(-4.99808e-13 0 0)
(-1.97313e-13 0 0)
(-3.27063e-13 0 0)
(-4.43762e-13 0 0)
(-7.64683e-13 0 0)
(-7.37811e-13 0 0)
(-8.68329e-13 0 0)
(-4.46065e-13 0 0)
(-2.39539e-13 0 0)
(-3.05566e-13 0 0)
(-1.97313e-13 0 0)
(-8.16122e-13 0 0)
(-1.11555e-12 0 0)
(-1.05873e-12 0 0)
(-3.53167e-13 0 0)
(2.03455e-13 0 0)
(2.86372e-13 0 0)
(1.48176e-13 0 0)
(-4.9904e-14 0 0)
(-2.11132e-13 0 0)
(-5.02111e-13 0 0)
(-1.58157e-13 0 0)
(2.85604e-13 0 0)
(4.0998e-13 0 0)
(1.25144e-13 0 0)
(3.53167e-14 0 0)
(-1.53551e-14 0 0)
(4.10748e-13 0 0)
(4.33781e-13 0 0)
(7.97696e-13 0 0)
(7.37811e-13 0 0)
(1.08867e-12 0 0)
(7.94625e-13 0 0)
(1.60384e-12 0 0)
(1.33359e-12 0 0)
(1.47025e-12 0 0)
(6.47984e-13 0 0)
(6.70249e-13 0 0)
(3.76967e-13 0 0)
(2.24952e-13 0 0)
(-7.21689e-14 0 0)
(4.52975e-13 0 0)
(-5.75815e-14 0 0)
(1.68138e-13 0 0)
(-1.15163e-13 0 0)
(-2.26487e-13 0 0)
(-6.20345e-13 0 0)
(-2.61036e-14 0 0)
(-4.41458e-13 0 0)
(-1.76583e-13 0 0)
(-4.79078e-13 0 0)
(-4.25336e-13 0 0)
(-8.95969e-13 0 0)
(-4.29174e-13 0 0)
(-1.01881e-12 0 0)
(-3.76199e-13 0 0)
(-6.89443e-13 0 0)
(-2.26487e-13 0 0)
(-6.357e-13 0 0)
(2.84069e-14 0 0)
(1.80422e-13 0 0)
(5.23608e-13 0 0)
(2.45681e-13 0 0)
(2.16507e-13 0 0)
(1.65835e-13 0 0)
(-2.71017e-13 0 0)
(-2.90979e-13 0 0)
(-4.58349e-13 0 0)
(-2.98656e-13 0 0)
(-2.76391e-13 0 0)
(-5.2975e-13 0 0)
(-8.72936e-13 0 0)
(-1.11401e-12 0 0)
(-1.15931e-12 0 0)
(-1.26372e-12 0 0)
(-1.09021e-12 0 0)
(-1.38042e-12 0 0)
(-1.32207e-12 0 0)
(-9.49711e-13 0 0)
(-5.02111e-13 0 0)
(-6.60268e-14 0 0)
(-4.22265e-13 0 0)
(-3.77735e-13 0 0)
(-9.75815e-13 0 0)
(-1.13704e-12 0 0)
(-1.64223e-12 0 0)
(-1.55163e-12 0 0)
(-1.90019e-12 0 0)
(-1.93781e-12 0 0)
(-1.37889e-12 0 0)
(-5.03646e-13 0 0)
(4.72169e-13 0 0)
(1.1501e-12 0 0)
(1.31056e-12 0 0)
(9.38195e-13 0 0)
(1.23148e-12 0 0)
(1.01267e-12 0 0)
(1.32821e-12 0 0)
(5.42034e-13 0 0)
(2.22649e-13 0 0)
(-5.44337e-13 0 0)
(-8.52974e-13 0 0)
(-8.80614e-13 0 0)
(-5.11324e-13 0 0)
(-2.89443e-13 0 0)
(2.8714e-13 0 0)
(1.33589e-13 0 0)
(7.60076e-14 0 0)
(1.35125e-13 0 0)
(3.53167e-14 0 0)
(-7.21689e-14 0 0)
(-5.75815e-14 0 0)
(-1.45873e-13 0 0)
(-4.3762e-14 0 0)
(-6.28023e-13 0 0)
(-9.89635e-13 0 0)
(-6.74856e-13 0 0)
(-1.10557e-12 0 0)
(-7.4165e-13 0 0)
(-7.7927e-13 0 0)
(-7.78502e-13 0 0)
(-1.00422e-12 0 0)
(-1.33128e-12 0 0)
(-1.37581e-12 0 0)
(-1.08867e-12 0 0)
(-3.75432e-13 0 0)
(1.07486e-14 0 0)
(3.27063e-13 0 0)
(5.15163e-13 0 0)
(6.16506e-13 0 0)
(6.98656e-13 0 0)
(7.20921e-13 0 0)
(7.22456e-13 0 0)
(2.19578e-13 0 0)
(-4.71401e-13 0 0)
(-1.28752e-12 0 0)
(-1.50173e-12 0 0)
(-1.19079e-12 0 0)
(-1.1762e-12 0 0)
(-6.4952e-13 0 0)
(-7.23224e-13 0 0)
(-2.85604e-13 0 0)
(6.14203e-15 0 0)
(5.17466e-13 0 0)
(3.80038e-13 0 0)
(5.05182e-13 0 0)
(1.38196e-13 0 0)
(-1.45873e-14 0 0)
(-3.27063e-13 0 0)
(-3.9309e-13 0 0)
(-2.1881e-13 0 0)
(-3.21689e-13 0 0)
(-4.16123e-13 0 0)
(-2.30326e-14 0 0)
(-7.29366e-14 0 0)
(-9.44337e-14 0 0)
(-1.31286e-13 0 0)
(-1.38196e-14 0 0)
(2.19578e-13 0 0)
(4.81382e-13 0 0)
)
;

boundaryField
{
    sides
    {
        type            zeroGradient;
    }
    empty
    {
        type            empty;
    }
}


// ************************************************************************* //
