/*--------------------------------*- C++ -*----------------------------------*\
  =========                 |
  \\      /  F ield         | OpenFOAM: The Open Source CFD Toolbox
   \\    /   O peration     | Website:  https://openfoam.org
    \\  /    A nd           | Version:  9
     \\/     M anipulation  |
\*---------------------------------------------------------------------------*/
FoamFile
{
    format      ascii;
    class       volScalarField;
    location    "0.048";
    object      ddt0(rho);
}
// * * * * * * * * * * * * * * * * * * * * * * * * * * * * * * * * * * * * * //

dimensions      [1 -3 -1 0 0 0 0];

internalField   nonuniform List<scalar> 
1000
(
-3.92558
-3.92366
-3.92017
-3.91706
-3.91416
-3.91133
-3.90839
-3.90525
-3.90207
-3.89905
-3.89611
-3.89292
-3.88935
-3.8857
-3.88237
-3.87935
-3.87622
-3.87253
-3.86834
-3.86416
-3.86046
-3.85727
-3.85407
-3.85025
-3.84562
-3.84056
-3.83576
-3.83174
-3.82841
-3.82519
-3.82134
-3.81643
-3.8106
-3.80449
-3.79887
-3.79424
-3.79057
-3.78734
-3.78375
-3.77911
-3.77308
-3.76587
-3.75814
-3.75072
-3.74429
-3.73916
-3.7351
-3.7315
-3.72758
-3.72259
-3.71607
-3.70795
-3.69848
-3.68819
-3.67777
-3.66787
-3.65901
-3.65153
-3.64535
-3.6401
-3.63531
-3.63036
-3.62462
-3.6176
-3.61335
-3.60391
-3.59351
-3.56783
-3.56092
-3.54165
-3.53209
-3.51735
-3.50656
-3.49594
-3.4864
-3.47995
-3.47304
-3.46893
-3.46487
-3.46204
-3.45824
-3.45425
-3.45017
-3.44444
-3.43709
-3.42898
-3.42038
-3.41038
-3.399
-3.38724
-3.37714
-3.3671
-3.35594
-3.34571
-3.33765
-3.33148
-3.32305
-3.31213
-3.30141
-3.29087
-3.27827
-3.26239
-3.24735
-3.23448
-3.22087
-3.20495
-3.18892
-3.17544
-3.1616
-3.14563
-3.12888
-3.11416
-3.1006
-3.08461
-3.06753
-3.05174
-3.03792
-3.02269
-3.00526
-2.98857
-2.97412
-2.95993
-2.94297
-2.92565
-2.91031
-2.8966
-2.88103
-2.8636
-2.84749
-2.83369
-2.81993
-2.80359
-2.78699
-2.77249
-2.75985
-2.74563
-2.72951
-2.71451
-2.70225
-2.69014
-2.67598
-2.66107
-2.64839
-2.63771
-2.62646
-2.61301
-2.59972
-2.5893
-2.58049
-2.57014
-2.55782
-2.54689
-2.53876
-2.53156
-2.52218
-2.51171
-2.50316
-2.49735
-2.49158
-2.48377
-2.47509
-2.46864
-2.46467
-2.46084
-2.45465
-2.44785
-2.44304
-2.4409
-2.43873
-2.43426
-2.429
-2.42577
-2.4252
-2.42481
-2.42202
-2.41816
-2.41603
-2.41675
-2.41786
-2.4167
-2.41382
-2.41215
-2.41378
-2.41624
-2.41697
-2.41507
-2.41376
-2.41529
-2.41902
-2.42123
-2.42085
-2.4195
-2.42058
-2.42476
-2.42821
-2.42971
-2.42836
-2.42902
-2.43255
-2.43709
-2.44011
-2.4399
-2.43986
-2.44209
-2.44691
-2.45114
-2.45265
-2.45241
-2.45347
-2.45746
-2.46269
-2.46581
-2.46631
-2.4667
-2.46923
-2.47431
-2.47876
-2.48062
-2.48096
-2.48211
-2.48618
-2.49142
-2.4948
-2.49585
-2.49646
-2.49859
-2.50363
-2.50851
-2.51071
-2.51143
-2.51222
-2.51564
-2.52099
-2.52538
-2.52699
-2.52715
-2.52871
-2.53273
-2.53819
-2.54222
-2.54335
-2.54347
-2.54525
-2.54973
-2.55532
-2.55917
-2.56009
-2.55999
-2.56177
-2.56641
-2.57242
-2.57633
-2.57694
-2.57666
-2.57843
-2.58325
-2.58937
-2.5934
-2.59399
-2.5937
-2.59538
-2.60005
-2.60602
-2.61011
-2.6112
-2.61093
-2.61229
-2.61684
-2.62266
-2.62674
-2.62807
-2.62822
-2.6297
-2.63361
-2.63909
-2.64359
-2.64529
-2.64552
-2.64681
-2.65052
-2.65571
-2.66019
-2.66266
-2.66314
-2.66368
-2.66663
-2.67203
-2.67737
-2.68019
-2.68073
-2.68082
-2.68267
-2.68754
-2.69384
-2.69823
-2.69911
-2.69839
-2.69923
-2.70317
-2.70923
-2.71488
-2.71758
-2.71729
-2.71681
-2.71913
-2.72454
-2.73063
-2.73467
-2.73582
-2.73556
-2.73645
-2.74023
-2.74591
-2.75082
-2.75333
-2.75407
-2.75462
-2.75671
-2.76125
-2.76701
-2.77115
-2.77237
-2.77217
-2.77336
-2.77702
-2.78256
-2.78834
-2.79141
-2.7911
-2.79017
-2.79241
-2.79793
-2.80413
-2.8089
-2.81077
-2.81002
-2.80949
-2.81232
-2.81835
-2.82447
-2.8286
-2.83033
-2.83006
-2.82983
-2.83257
-2.83846
-2.8445
-2.84816
-2.84944
-2.84957
-2.85025
-2.85362
-2.85965
-2.86515
-2.8676
-2.8677
-2.86819
-2.87056
-2.8752
-2.88109
-2.88604
-2.88803
-2.88734
-2.88732
-2.88982
-2.89506
-2.90148
-2.90696
-2.9093
-2.90831
-2.90733
-2.90952
-2.91508
-2.92142
-2.92637
-2.92897
-2.92935
-2.92912
-2.93068
-2.93533
-2.94149
-2.94623
-2.94833
-2.9487
-2.94943
-2.95197
-2.95669
-2.96269
-2.96731
-2.96901
-2.96847
-2.96859
-2.97144
-2.977
-2.98358
-2.98872
-2.99106
-2.99073
-2.98986
-2.99113
-2.99596
-3.00279
-3.00892
-3.01218
-3.01269
-3.0123
-3.01309
-3.01661
-3.02231
-3.02837
-3.03231
-3.03342
-3.03339
-3.03443
-3.03819
-3.04378
-3.04933
-3.05318
-3.05447
-3.0542
-3.05438
-3.05728
-3.0633
-3.07032
-3.07562
-3.07757
-3.07716
-3.07668
-3.07803
-3.08223
-3.08841
-3.09496
-3.0992
-3.10057
-3.10028
-3.10063
-3.10367
-3.10885
-3.115
-3.11961
-3.12161
-3.1216
-3.12178
-3.12463
-3.13015
-3.13666
-3.14169
-3.14425
-3.14464
-3.14419
-3.14469
-3.14806
-3.15443
-3.16183
-3.16732
-3.16915
-3.16867
-3.16837
-3.17047
-3.17494
-3.18074
-3.18607
-3.18965
-3.19117
-3.19178
-3.19316
-3.19672
-3.20231
-3.20836
-3.21286
-3.21447
-3.21437
-3.21396
-3.21631
-3.22094
-3.22806
-3.23424
-3.23841
-3.23989
-3.23945
-3.2399
-3.24192
-3.24716
-3.25302
-3.25839
-3.26129
-3.26247
-3.26302
-3.26535
-3.26908
-3.27525
-3.28102
-3.28526
-3.28731
-3.28627
-3.28695
-3.28817
-3.29386
-3.30046
-3.30634
-3.31203
-3.31196
-3.31438
-3.31268
-3.31604
-3.3201
-3.32488
-3.33257
-3.3328
-3.338
-3.3352
-3.33919
-3.342
-3.34613
-3.35578
-3.35571
-3.365
-3.35976
-3.36387
-3.36322
-3.36358
-3.37612
-3.37208
-3.39063
-3.38106
-3.39281
-3.38711
-3.38875
-3.39847
-3.39193
-3.41323
-3.4005
-3.41818
-3.40715
-3.41321
-3.41645
-3.4129
-3.43218
-3.42194
-3.44336
-3.43216
-3.44147
-3.44074
-3.43561
-3.45147
-3.43952
-3.46225
-3.45286
-3.46429
-3.46376
-3.45869
-3.47089
-3.46092
-3.48119
-3.47442
-3.48866
-3.4846
-3.48591
-3.48845
-3.48276
-3.4966
-3.48858
-3.50886
-3.49789
-3.51442
-3.50396
-3.51083
-3.51154
-3.50866
-3.52503
-3.51449
-3.53477
-3.52172
-3.5319
-3.52625
-3.52594
-3.53399
-3.529
-3.54506
-3.53713
-3.54924
-3.54233
-3.54348
-3.54765
-3.53871
-3.55681
-3.5436
-3.56088
-3.55368
-3.5524
-3.56074
-3.54288
-3.56236
-3.54896
-3.55854
-3.56601
-3.55121
-3.57193
-3.54803
-3.5603
-3.55447
-3.54939
-3.56377
-3.54894
-3.56497
-3.54805
-3.55481
-3.54617
-3.54002
-3.55123
-3.53361
-3.55125
-3.5388
-3.53627
-3.54037
-3.52049
-3.53106
-3.51485
-3.52061
-3.51641
-3.50898
-3.51569
-3.4942
-3.50007
-3.48568
-3.47831
-3.48117
-3.47013
-3.46962
-3.4652
-3.45281
-3.44573
-3.43886
-3.42357
-3.42567
-3.41455
-3.40662
-3.40629
-3.38584
-3.38277
-3.36929
-3.35579
-3.35253
-3.3395
-3.3331
-3.32388
-3.31276
-3.29973
-3.28877
-3.27618
-3.26287
-3.25729
-3.24408
-3.23489
-3.22708
-3.2097
-3.19875
-3.18653
-3.16987
-3.16259
-3.15367
-3.14018
-3.13519
-3.12207
-3.10516
-3.09853
-3.08203
-3.07123
-3.0683
-3.05715
-3.05017
-3.04393
-3.03067
-3.02173
-3.00875
-3.00764
-2.99706
-2.99492
-2.99549
-2.98941
-2.97398
-2.9857
-2.96327
-2.96687
-2.96877
-2.97417
-2.95879
-2.98677
-2.96385
-2.97302
-2.97067
-2.98393
-2.96841
-3.00313
-2.99435
-3.00438
-3.01534
-3.02103
-3.02152
-3.03746
-3.05235
-3.06054
-3.07555
-3.0922
-3.10722
-3.11056
-3.12955
-3.14415
-3.16077
-3.17798
-3.19896
-3.21584
-3.23581
-3.24912
-3.26914
-3.28424
-3.30616
-3.32507
-3.34862
-3.36788
-3.39094
-3.40755
-3.42943
-3.44471
-3.46777
-3.48671
-3.51133
-3.53119
-3.55463
-3.57159
-3.59363
-3.60896
-3.63132
-3.6488
-3.67196
-3.69078
-3.71315
-3.72964
-3.75052
-3.76485
-3.78532
-3.80082
-3.82172
-3.83869
-3.85885
-3.87383
-3.89235
-3.90496
-3.92289
-3.93622
-3.95463
-3.96965
-3.98725
-4.00046
-4.01626
-4.02685
-4.04189
-4.05259
-4.06813
-4.08121
-4.09634
-4.10809
-4.12168
-4.13078
-4.1432
-4.15144
-4.16388
-4.17424
-4.18707
-4.19723
-4.20871
-4.2166
-4.22667
-4.23309
-4.24292
-4.25032
-4.26038
-4.2685
-4.27751
-4.28384
-4.29122
-4.29548
-4.30181
-4.30581
-4.31163
-4.31605
-4.32083
-4.32409
-4.32689
-4.32764
-4.32829
-4.32729
-4.32615
-4.32433
-4.32128
-4.31778
-4.31172
-4.30533
-4.29578
-4.28624
-4.2733
-4.26161
-4.24601
-4.23189
-4.21269
-4.19513
-4.17202
-4.15068
-4.12358
-4.09937
-4.06935
-4.04279
-4.00989
-3.98103
-3.94522
-3.91414
-3.87591
-3.84395
-3.80495
-3.77333
-3.73468
-3.70434
-3.66659
-3.63792
-3.60206
-3.57624
-3.54379
-3.52205
-3.49464
-3.47801
-3.45628
-3.44461
-3.42934
-3.4223
-3.41507
-3.41266
-3.41272
-3.41672
-3.42377
-3.43252
-3.4458
-3.45891
-3.47774
-3.49453
-3.51802
-3.53795
-3.56526
-3.58772
-3.6177
-3.64153
-3.67317
-3.6977
-3.73029
-3.75528
-3.78829
-3.81353
-3.84641
-3.87138
-3.9036
-3.9278
-3.95904
-3.98231
-4.01248
-4.03493
-4.064
-4.08567
-4.11359
-4.13434
-4.16106
-4.1808
-4.20637
-4.22525
-4.24985
-4.26815
-4.29193
-4.30977
-4.33272
-4.34996
-4.37204
-4.3885
-4.40976
-4.42556
-4.44614
-4.46153
-4.48154
-4.49657
-4.51599
-4.53055
-4.54937
-4.56339
-4.58167
-4.59532
-4.61319
-4.62665
-4.64415
-4.65741
-4.67451
-4.68741
-4.70406
-4.71655
-4.7328
-4.74498
-4.7609
-4.7729
-4.78853
-4.80034
-4.81565
-4.82718
-4.84215
-4.85337
-4.86804
-4.87905
-4.89348
-4.90439
-4.91861
-4.92941
-4.9434
-4.95401
-4.96773
-4.97808
-4.99153
-5.00163
-5.01486
-5.02481
-5.03785
-5.04771
-5.06059
-5.07035
-5.08306
-5.09269
-5.10521
-5.11469
-5.12701
-5.13633
-5.14849
-5.15768
-5.16969
-5.17879
-5.19064
-5.19964
-5.21135
-5.22023
-5.23179
-5.24054
-5.25195
-5.26057
-5.27184
-5.28037
-5.29152
-5.29999
-5.31103
-5.31943
-5.33035
-5.33864
-5.34943
-5.3576
-5.36826
-5.37633
-5.38688
-5.39488
-5.40534
-5.4133
-5.42368
-5.4316
-5.44189
-5.44974
-5.45992
-5.46768
-5.47775
-5.48541
-5.49539
-5.50296
-5.51285
-5.52037
-5.53018
-5.53767
-5.54741
-5.55485
-5.56451
-5.5719
-5.58148
-5.58879
-5.5983
-5.60555
-5.61498
-5.6222
-5.63157
-5.63876
-5.64806
-5.6552
-5.66443
-5.6715
-5.68065
-5.68766
-5.69674
-5.7037
-5.71273
-5.71931
-5.72889
-5.734
)
;

boundaryField
{
    sides
    {
        type            calculated;
        value           nonuniform List<scalar> 2(-5.734 -3.92558);
    }
    empty
    {
        type            empty;
    }
}


// ************************************************************************* //
