/*--------------------------------*- C++ -*----------------------------------*\
  =========                 |
  \\      /  F ield         | OpenFOAM: The Open Source CFD Toolbox
   \\    /   O peration     | Website:  https://openfoam.org
    \\  /    A nd           | Version:  9
     \\/     M anipulation  |
\*---------------------------------------------------------------------------*/
FoamFile
{
    format      ascii;
    class       volVectorField;
    location    "0.048";
    object      ddtCorrDdt0(rho,U);
}
// * * * * * * * * * * * * * * * * * * * * * * * * * * * * * * * * * * * * * //

dimensions      [1 -2 -2 0 0 0 0];

internalField   nonuniform List<vector> 
1000
(
(-45.6073 0 0)
(-49.1932 0 0)
(-53.5585 0 0)
(-56.881 0 0)
(-59.8934 0 0)
(-62.992 0 0)
(-66.1726 0 0)
(-69.3625 0 0)
(-72.5437 0 0)
(-75.7296 0 0)
(-78.9263 0 0)
(-82.1275 0 0)
(-85.3275 0 0)
(-88.5294 0 0)
(-91.7397 0 0)
(-94.9578 0 0)
(-98.1755 0 0)
(-101.386 0 0)
(-104.591 0 0)
(-107.805 0 0)
(-111.036 0 0)
(-114.282 0 0)
(-117.53 0 0)
(-120.766 0 0)
(-123.988 0 0)
(-127.21 0 0)
(-130.45 0 0)
(-133.722 0 0)
(-137.02 0 0)
(-140.327 0 0)
(-143.623 0 0)
(-146.894 0 0)
(-150.148 0 0)
(-153.403 0 0)
(-156.684 0 0)
(-160.011 0 0)
(-163.382 0 0)
(-166.777 0 0)
(-170.169 0 0)
(-173.54 0 0)
(-176.886 0 0)
(-180.222 0 0)
(-183.569 0 0)
(-186.948 0 0)
(-190.377 0 0)
(-193.866 0 0)
(-197.416 0 0)
(-201.02 0 0)
(-204.659 0 0)
(-208.305 0 0)
(-211.938 0 0)
(-215.546 0 0)
(-219.138 0 0)
(-222.738 0 0)
(-226.382 0 0)
(-230.1 0 0)
(-233.905 0 0)
(-237.803 0 0)
(-241.789 0 0)
(-245.849 0 0)
(-249.965 0 0)
(-254.108 0 0)
(-258.247 0 0)
(-262.148 0 0)
(-265.295 0 0)
(-268.656 0 0)
(-274.013 0 0)
(-278.751 0 0)
(-282.977 0 0)
(-286.73 0 0)
(-290.48 0 0)
(-294.187 0 0)
(-298.098 0 0)
(-301.989 0 0)
(-306.113 0 0)
(-310.27 0 0)
(-314.607 0 0)
(-319.004 0 0)
(-323.527 0 0)
(-328.121 0 0)
(-332.723 0 0)
(-337.377 0 0)
(-342.059 0 0)
(-346.744 0 0)
(-351.398 0 0)
(-356.073 0 0)
(-360.774 0 0)
(-365.453 0 0)
(-370.12 0 0)
(-374.817 0 0)
(-379.62 0 0)
(-384.463 0 0)
(-389.303 0 0)
(-394.221 0 0)
(-399.265 0 0)
(-404.427 0 0)
(-409.531 0 0)
(-414.576 0 0)
(-419.67 0 0)
(-424.809 0 0)
(-429.895 0 0)
(-434.878 0 0)
(-439.931 0 0)
(-445.103 0 0)
(-450.273 0 0)
(-455.372 0 0)
(-460.495 0 0)
(-465.758 0 0)
(-471.026 0 0)
(-476.227 0 0)
(-481.419 0 0)
(-486.717 0 0)
(-492.084 0 0)
(-497.358 0 0)
(-502.596 0 0)
(-507.902 0 0)
(-513.307 0 0)
(-518.652 0 0)
(-523.898 0 0)
(-529.183 0 0)
(-534.569 0 0)
(-539.958 0 0)
(-545.207 0 0)
(-550.428 0 0)
(-555.733 0 0)
(-561.094 0 0)
(-566.337 0 0)
(-571.462 0 0)
(-576.629 0 0)
(-581.885 0 0)
(-587.111 0 0)
(-592.168 0 0)
(-597.156 0 0)
(-602.192 0 0)
(-607.272 0 0)
(-612.23 0 0)
(-617.041 0 0)
(-621.842 0 0)
(-626.707 0 0)
(-631.513 0 0)
(-636.155 0 0)
(-640.694 0 0)
(-645.259 0 0)
(-649.833 0 0)
(-654.288 0 0)
(-658.555 0 0)
(-662.751 0 0)
(-667.006 0 0)
(-671.242 0 0)
(-675.297 0 0)
(-679.151 0 0)
(-682.979 0 0)
(-686.858 0 0)
(-690.692 0 0)
(-694.318 0 0)
(-697.785 0 0)
(-701.242 0 0)
(-704.731 0 0)
(-708.123 0 0)
(-711.313 0 0)
(-714.361 0 0)
(-717.422 0 0)
(-720.506 0 0)
(-723.498 0 0)
(-726.274 0 0)
(-728.927 0 0)
(-731.592 0 0)
(-734.298 0 0)
(-736.908 0 0)
(-739.309 0 0)
(-741.589 0 0)
(-743.898 0 0)
(-746.275 0 0)
(-748.59 0 0)
(-750.704 0 0)
(-752.688 0 0)
(-754.689 0 0)
(-756.771 0 0)
(-758.806 0 0)
(-760.656 0 0)
(-762.357 0 0)
(-764.067 0 0)
(-765.904 0 0)
(-767.738 0 0)
(-769.435 0 0)
(-770.946 0 0)
(-772.446 0 0)
(-774.056 0 0)
(-775.746 0 0)
(-777.32 0 0)
(-778.722 0 0)
(-780.041 0 0)
(-781.462 0 0)
(-783.023 0 0)
(-784.516 0 0)
(-785.88 0 0)
(-787.067 0 0)
(-788.346 0 0)
(-789.765 0 0)
(-791.22 0 0)
(-792.574 0 0)
(-793.731 0 0)
(-794.883 0 0)
(-796.145 0 0)
(-797.54 0 0)
(-798.891 0 0)
(-800.083 0 0)
(-801.171 0 0)
(-802.327 0 0)
(-803.645 0 0)
(-805.028 0 0)
(-806.286 0 0)
(-807.39 0 0)
(-808.481 0 0)
(-809.687 0 0)
(-811.033 0 0)
(-812.341 0 0)
(-813.499 0 0)
(-814.569 0 0)
(-815.685 0 0)
(-816.968 0 0)
(-818.318 0 0)
(-819.559 0 0)
(-820.664 0 0)
(-821.741 0 0)
(-822.902 0 0)
(-824.23 0 0)
(-825.547 0 0)
(-826.707 0 0)
(-827.783 0 0)
(-828.863 0 0)
(-830.097 0 0)
(-831.446 0 0)
(-832.738 0 0)
(-833.865 0 0)
(-834.907 0 0)
(-836.031 0 0)
(-837.302 0 0)
(-838.659 0 0)
(-839.933 0 0)
(-841.035 0 0)
(-842.079 0 0)
(-843.223 0 0)
(-844.527 0 0)
(-845.899 0 0)
(-847.165 0 0)
(-848.256 0 0)
(-849.285 0 0)
(-850.43 0 0)
(-851.748 0 0)
(-853.153 0 0)
(-854.433 0 0)
(-855.515 0 0)
(-856.544 0 0)
(-857.699 0 0)
(-859.041 0 0)
(-860.465 0 0)
(-861.761 0 0)
(-862.847 0 0)
(-863.879 0 0)
(-865.033 0 0)
(-866.372 0 0)
(-867.793 0 0)
(-869.098 0 0)
(-870.218 0 0)
(-871.253 0 0)
(-872.392 0 0)
(-873.733 0 0)
(-875.155 0 0)
(-876.472 0 0)
(-877.619 0 0)
(-878.693 0 0)
(-879.853 0 0)
(-881.167 0 0)
(-882.582 0 0)
(-883.936 0 0)
(-885.114 0 0)
(-886.199 0 0)
(-887.353 0 0)
(-888.663 0 0)
(-890.069 0 0)
(-891.432 0 0)
(-892.667 0 0)
(-893.775 0 0)
(-894.886 0 0)
(-896.154 0 0)
(-897.581 0 0)
(-899.006 0 0)
(-900.27 0 0)
(-901.388 0 0)
(-902.48 0 0)
(-903.688 0 0)
(-905.095 0 0)
(-906.598 0 0)
(-907.979 0 0)
(-909.13 0 0)
(-910.178 0 0)
(-911.33 0 0)
(-912.687 0 0)
(-914.185 0 0)
(-915.66 0 0)
(-916.943 0 0)
(-918.028 0 0)
(-919.102 0 0)
(-920.363 0 0)
(-921.831 0 0)
(-923.345 0 0)
(-924.724 0 0)
(-925.91 0 0)
(-927.003 0 0)
(-928.173 0 0)
(-929.539 0 0)
(-931.036 0 0)
(-932.482 0 0)
(-933.77 0 0)
(-934.94 0 0)
(-936.098 0 0)
(-937.362 0 0)
(-938.795 0 0)
(-940.314 0 0)
(-941.723 0 0)
(-942.935 0 0)
(-944.05 0 0)
(-945.262 0 0)
(-946.645 0 0)
(-948.16 0 0)
(-949.692 0 0)
(-951.039 0 0)
(-952.153 0 0)
(-953.224 0 0)
(-954.516 0 0)
(-956.037 0 0)
(-957.609 0 0)
(-959.083 0 0)
(-960.357 0 0)
(-961.449 0 0)
(-962.558 0 0)
(-963.905 0 0)
(-965.478 0 0)
(-967.06 0 0)
(-968.503 0 0)
(-969.778 0 0)
(-970.911 0 0)
(-972.048 0 0)
(-973.397 0 0)
(-974.971 0 0)
(-976.557 0 0)
(-977.977 0 0)
(-979.227 0 0)
(-980.396 0 0)
(-981.606 0 0)
(-983.01 0 0)
(-984.608 0 0)
(-986.17 0 0)
(-987.514 0 0)
(-988.69 0 0)
(-989.896 0 0)
(-991.24 0 0)
(-992.749 0 0)
(-994.352 0 0)
(-995.888 0 0)
(-997.208 0 0)
(-998.334 0 0)
(-999.508 0 0)
(-1000.87 0 0)
(-1002.43 0 0)
(-1004.08 0 0)
(-1005.67 0 0)
(-1007.02 0 0)
(-1008.13 0 0)
(-1009.25 0 0)
(-1010.6 0 0)
(-1012.19 0 0)
(-1013.85 0 0)
(-1015.41 0 0)
(-1016.79 0 0)
(-1018.01 0 0)
(-1019.19 0 0)
(-1020.5 0 0)
(-1022.04 0 0)
(-1023.7 0 0)
(-1025.25 0 0)
(-1026.61 0 0)
(-1027.84 0 0)
(-1029.1 0 0)
(-1030.49 0 0)
(-1032.05 0 0)
(-1033.71 0 0)
(-1035.27 0 0)
(-1036.61 0 0)
(-1037.77 0 0)
(-1038.99 0 0)
(-1040.42 0 0)
(-1042.05 0 0)
(-1043.77 0 0)
(-1045.38 0 0)
(-1046.78 0 0)
(-1047.97 0 0)
(-1049.12 0 0)
(-1050.43 0 0)
(-1052.03 0 0)
(-1053.78 0 0)
(-1055.47 0 0)
(-1056.95 0 0)
(-1058.22 0 0)
(-1059.41 0 0)
(-1060.7 0 0)
(-1062.2 0 0)
(-1063.88 0 0)
(-1065.58 0 0)
(-1067.12 0 0)
(-1068.44 0 0)
(-1069.68 0 0)
(-1070.99 0 0)
(-1072.53 0 0)
(-1074.21 0 0)
(-1075.88 0 0)
(-1077.43 0 0)
(-1078.77 0 0)
(-1079.99 0 0)
(-1081.25 0 0)
(-1082.73 0 0)
(-1084.45 0 0)
(-1086.26 0 0)
(-1087.93 0 0)
(-1089.34 0 0)
(-1090.56 0 0)
(-1091.77 0 0)
(-1093.13 0 0)
(-1094.72 0 0)
(-1096.47 0 0)
(-1098.26 0 0)
(-1099.86 0 0)
(-1101.23 0 0)
(-1102.47 0 0)
(-1103.76 0 0)
(-1105.26 0 0)
(-1106.95 0 0)
(-1108.72 0 0)
(-1110.36 0 0)
(-1111.79 0 0)
(-1113.05 0 0)
(-1114.34 0 0)
(-1115.84 0 0)
(-1117.57 0 0)
(-1119.38 0 0)
(-1121.07 0 0)
(-1122.55 0 0)
(-1123.86 0 0)
(-1125.1 0 0)
(-1126.42 0 0)
(-1127.98 0 0)
(-1129.8 0 0)
(-1131.7 0 0)
(-1133.44 0 0)
(-1134.88 0 0)
(-1136.12 0 0)
(-1137.38 0 0)
(-1138.85 0 0)
(-1140.51 0 0)
(-1142.29 0 0)
(-1144.03 0 0)
(-1145.62 0 0)
(-1147.04 0 0)
(-1148.39 0 0)
(-1149.8 0 0)
(-1151.4 0 0)
(-1153.17 0 0)
(-1154.99 0 0)
(-1156.67 0 0)
(-1158.11 0 0)
(-1159.41 0 0)
(-1160.68 0 0)
(-1162.18 0 0)
(-1163.88 0 0)
(-1165.8 0 0)
(-1167.64 0 0)
(-1169.31 0 0)
(-1170.76 0 0)
(-1172.03 0 0)
(-1173.38 0 0)
(-1174.87 0 0)
(-1176.64 0 0)
(-1178.47 0 0)
(-1180.25 0 0)
(-1181.83 0 0)
(-1183.25 0 0)
(-1184.62 0 0)
(-1186.15 0 0)
(-1187.8 0 0)
(-1189.67 0 0)
(-1191.51 0 0)
(-1193.21 0 0)
(-1194.72 0 0)
(-1195.96 0 0)
(-1197.36 0 0)
(-1198.8 0 0)
(-1200.64 0 0)
(-1202.56 0 0)
(-1204.42 0 0)
(-1206.27 0 0)
(-1207.6 0 0)
(-1209.16 0 0)
(-1210.36 0 0)
(-1212 0 0)
(-1213.71 0 0)
(-1215.49 0 0)
(-1217.53 0 0)
(-1218.9 0 0)
(-1220.72 0 0)
(-1221.83 0 0)
(-1223.54 0 0)
(-1225.16 0 0)
(-1226.89 0 0)
(-1229.13 0 0)
(-1230.48 0 0)
(-1232.7 0 0)
(-1233.59 0 0)
(-1235.33 0 0)
(-1236.65 0 0)
(-1238.05 0 0)
(-1240.58 0 0)
(-1241.58 0 0)
(-1244.66 0 0)
(-1245.17 0 0)
(-1247.63 0 0)
(-1248.51 0 0)
(-1250.03 0 0)
(-1252.34 0 0)
(-1253.11 0 0)
(-1256.49 0 0)
(-1256.71 0 0)
(-1259.75 0 0)
(-1260.14 0 0)
(-1262.11 0 0)
(-1263.84 0 0)
(-1264.91 0 0)
(-1268.14 0 0)
(-1268.6 0 0)
(-1272.04 0 0)
(-1272.43 0 0)
(-1274.74 0 0)
(-1276.13 0 0)
(-1277.08 0 0)
(-1280.04 0 0)
(-1280.36 0 0)
(-1283.97 0 0)
(-1284.56 0 0)
(-1287.1 0 0)
(-1288.55 0 0)
(-1289.54 0 0)
(-1292.21 0 0)
(-1292.75 0 0)
(-1296.19 0 0)
(-1297.06 0 0)
(-1299.94 0 0)
(-1301.1 0 0)
(-1302.75 0 0)
(-1304.56 0 0)
(-1305.56 0 0)
(-1308.47 0 0)
(-1309.27 0 0)
(-1312.81 0 0)
(-1313.36 0 0)
(-1316.56 0 0)
(-1317.19 0 0)
(-1319.48 0 0)
(-1321.22 0 0)
(-1322.58 0 0)
(-1325.88 0 0)
(-1326.53 0 0)
(-1330.23 0 0)
(-1330.68 0 0)
(-1333.43 0 0)
(-1334.64 0 0)
(-1336.39 0 0)
(-1338.98 0 0)
(-1340.31 0 0)
(-1343.73 0 0)
(-1344.81 0 0)
(-1347.89 0 0)
(-1349.13 0 0)
(-1351.16 0 0)
(-1353.55 0 0)
(-1354.63 0 0)
(-1358.45 0 0)
(-1359.18 0 0)
(-1362.96 0 0)
(-1364.35 0 0)
(-1366.35 0 0)
(-1369.36 0 0)
(-1369.76 0 0)
(-1373.95 0 0)
(-1374.88 0 0)
(-1378.13 0 0)
(-1381.24 0 0)
(-1382.12 0 0)
(-1386.64 0 0)
(-1386.7 0 0)
(-1390.44 0 0)
(-1392.42 0 0)
(-1394.49 0 0)
(-1398.6 0 0)
(-1399.78 0 0)
(-1404.16 0 0)
(-1405.24 0 0)
(-1408.77 0 0)
(-1410.8 0 0)
(-1413.12 0 0)
(-1417.28 0 0)
(-1418.55 0 0)
(-1423.47 0 0)
(-1425.4 0 0)
(-1428.38 0 0)
(-1432.12 0 0)
(-1433.45 0 0)
(-1437.98 0 0)
(-1439.82 0 0)
(-1443.97 0 0)
(-1447.19 0 0)
(-1450.12 0 0)
(-1454.61 0 0)
(-1456.23 0 0)
(-1460.76 0 0)
(-1463.26 0 0)
(-1466.56 0 0)
(-1471 0 0)
(-1474.06 0 0)
(-1478.29 0 0)
(-1482.19 0 0)
(-1485.34 0 0)
(-1489.11 0 0)
(-1492.97 0 0)
(-1496.03 0 0)
(-1500.98 0 0)
(-1504.62 0 0)
(-1508.66 0 0)
(-1513.58 0 0)
(-1516.45 0 0)
(-1521.22 0 0)
(-1524.96 0 0)
(-1528.76 0 0)
(-1533.71 0 0)
(-1537.68 0 0)
(-1542.41 0 0)
(-1546.91 0 0)
(-1551.25 0 0)
(-1555.45 0 0)
(-1559.91 0 0)
(-1564.24 0 0)
(-1568.54 0 0)
(-1573.69 0 0)
(-1578.06 0 0)
(-1582.89 0 0)
(-1587.88 0 0)
(-1591.88 0 0)
(-1596.56 0 0)
(-1601.12 0 0)
(-1605.21 0 0)
(-1610.28 0 0)
(-1615.17 0 0)
(-1619.54 0 0)
(-1624.8 0 0)
(-1629.16 0 0)
(-1633.06 0 0)
(-1638.02 0 0)
(-1641.86 0 0)
(-1646.24 0 0)
(-1651.39 0 0)
(-1655.57 0 0)
(-1660.12 0 0)
(-1664.64 0 0)
(-1668.3 0 0)
(-1672.3 0 0)
(-1675.75 0 0)
(-1680.33 0 0)
(-1683.76 0 0)
(-1687.94 0 0)
(-1692.27 0 0)
(-1695.69 0 0)
(-1697.96 0 0)
(-1702.95 0 0)
(-1704.1 0 0)
(-1707.82 0 0)
(-1711.22 0 0)
(-1714.72 0 0)
(-1715.85 0 0)
(-1721.37 0 0)
(-1721.27 0 0)
(-1724.3 0 0)
(-1726.02 0 0)
(-1729.04 0 0)
(-1728.9 0 0)
(-1733.8 0 0)
(-1733.98 0 0)
(-1735.73 0 0)
(-1737.58 0 0)
(-1738.43 0 0)
(-1738.79 0 0)
(-1740.27 0 0)
(-1741.78 0 0)
(-1742.14 0 0)
(-1743.25 0 0)
(-1744.01 0 0)
(-1744.64 0 0)
(-1743.57 0 0)
(-1744.38 0 0)
(-1744.45 0 0)
(-1744.78 0 0)
(-1744.74 0 0)
(-1745.12 0 0)
(-1744.61 0 0)
(-1744.68 0 0)
(-1743.69 0 0)
(-1743.53 0 0)
(-1742.56 0 0)
(-1742.5 0 0)
(-1741.76 0 0)
(-1741.75 0 0)
(-1741 0 0)
(-1740.86 0 0)
(-1739.69 0 0)
(-1739.24 0 0)
(-1737.83 0 0)
(-1737.48 0 0)
(-1736.51 0 0)
(-1736.47 0 0)
(-1735.68 0 0)
(-1735.51 0 0)
(-1734.4 0 0)
(-1734.05 0 0)
(-1732.78 0 0)
(-1732.53 0 0)
(-1731.6 0 0)
(-1731.58 0 0)
(-1730.92 0 0)
(-1730.96 0 0)
(-1730.2 0 0)
(-1730.19 0 0)
(-1729.33 0 0)
(-1729.37 0 0)
(-1728.74 0 0)
(-1728.99 0 0)
(-1728.68 0 0)
(-1729.03 0 0)
(-1728.69 0 0)
(-1729.01 0 0)
(-1728.59 0 0)
(-1729.01 0 0)
(-1728.82 0 0)
(-1729.48 0 0)
(-1729.65 0 0)
(-1730.39 0 0)
(-1730.53 0 0)
(-1731.21 0 0)
(-1731.22 0 0)
(-1731.99 0 0)
(-1732.2 0 0)
(-1733.24 0 0)
(-1733.91 0 0)
(-1735.06 0 0)
(-1735.71 0 0)
(-1736.82 0 0)
(-1737.32 0 0)
(-1738.43 0 0)
(-1739.01 0 0)
(-1740.3 0 0)
(-1741.3 0 0)
(-1742.85 0 0)
(-1743.97 0 0)
(-1745.49 0 0)
(-1746.52 0 0)
(-1748.02 0 0)
(-1749.02 0 0)
(-1750.65 0 0)
(-1751.96 0 0)
(-1753.84 0 0)
(-1755.43 0 0)
(-1757.41 0 0)
(-1759 0 0)
(-1760.98 0 0)
(-1762.57 0 0)
(-1764.67 0 0)
(-1766.49 0 0)
(-1768.84 0 0)
(-1771.04 0 0)
(-1773.63 0 0)
(-1776.07 0 0)
(-1778.82 0 0)
(-1781.4 0 0)
(-1784.35 0 0)
(-1787.22 0 0)
(-1790.5 0 0)
(-1793.85 0 0)
(-1797.53 0 0)
(-1801.33 0 0)
(-1805.37 0 0)
(-1809.58 0 0)
(-1813.96 0 0)
(-1818.61 0 0)
(-1823.45 0 0)
(-1828.73 0 0)
(-1834.17 0 0)
(-1840.09 0 0)
(-1846.06 0 0)
(-1852.54 0 0)
(-1859.02 0 0)
(-1866.01 0 0)
(-1872.98 0 0)
(-1880.57 0 0)
(-1888.1 0 0)
(-1896.27 0 0)
(-1904.27 0 0)
(-1912.89 0 0)
(-1921.19 0 0)
(-1930.12 0 0)
(-1938.6 0 0)
(-1947.76 0 0)
(-1956.38 0 0)
(-1965.67 0 0)
(-1974.29 0 0)
(-1983.51 0 0)
(-1991.88 0 0)
(-2000.77 0 0)
(-2008.68 0 0)
(-2017.08 0 0)
(-2024.4 0 0)
(-2032.14 0 0)
(-2038.8 0 0)
(-2045.75 0 0)
(-2051.58 0 0)
(-2057.51 0 0)
(-2062.45 0 0)
(-2067.19 0 0)
(-2071.32 0 0)
(-2074.81 0 0)
(-2078.04 0 0)
(-2080.58 0 0)
(-2082.96 0 0)
(-2084.4 0 0)
(-2085.95 0 0)
(-2086.45 0 0)
(-2087.3 0 0)
(-2086.98 0 0)
(-2087.25 0 0)
(-2086.29 0 0)
(-2086.13 0 0)
(-2084.71 0 0)
(-2084.23 0 0)
(-2082.45 0 0)
(-2081.74 0 0)
(-2079.72 0 0)
(-2078.9 0 0)
(-2076.81 0 0)
(-2075.99 0 0)
(-2073.95 0 0)
(-2073.19 0 0)
(-2071.24 0 0)
(-2070.57 0 0)
(-2068.74 0 0)
(-2068.17 0 0)
(-2066.49 0 0)
(-2066.06 0 0)
(-2064.57 0 0)
(-2064.3 0 0)
(-2063 0 0)
(-2062.89 0 0)
(-2061.78 0 0)
(-2061.8 0 0)
(-2060.85 0 0)
(-2061 0 0)
(-2060.21 0 0)
(-2060.51 0 0)
(-2059.9 0 0)
(-2060.33 0 0)
(-2059.91 0 0)
(-2060.46 0 0)
(-2060.18 0 0)
(-2060.83 0 0)
(-2060.65 0 0)
(-2061.38 0 0)
(-2061.31 0 0)
(-2062.13 0 0)
(-2062.18 0 0)
(-2063.1 0 0)
(-2063.26 0 0)
(-2064.26 0 0)
(-2064.5 0 0)
(-2065.56 0 0)
(-2065.88 0 0)
(-2067.01 0 0)
(-2067.4 0 0)
(-2068.6 0 0)
(-2069.1 0 0)
(-2070.37 0 0)
(-2070.96 0 0)
(-2072.29 0 0)
(-2072.94 0 0)
(-2074.31 0 0)
(-2075.01 0 0)
(-2076.44 0 0)
(-2077.19 0 0)
(-2078.67 0 0)
(-2079.5 0 0)
(-2081.03 0 0)
(-2081.92 0 0)
(-2083.49 0 0)
(-2084.43 0 0)
(-2086.04 0 0)
(-2087.02 0 0)
(-2088.66 0 0)
(-2089.69 0 0)
(-2091.39 0 0)
(-2092.48 0 0)
(-2094.22 0 0)
(-2095.37 0 0)
(-2097.14 0 0)
(-2098.34 0 0)
(-2100.15 0 0)
(-2101.37 0 0)
(-2103.21 0 0)
(-2104.47 0 0)
(-2106.34 0 0)
(-2107.63 0 0)
(-2109.54 0 0)
(-2110.89 0 0)
(-2112.83 0 0)
(-2114.22 0 0)
(-2116.19 0 0)
(-2117.62 0 0)
(-2119.63 0 0)
(-2121.09 0 0)
(-2123.12 0 0)
(-2124.61 0 0)
(-2126.67 0 0)
(-2128.19 0 0)
(-2130.28 0 0)
(-2131.84 0 0)
(-2133.95 0 0)
(-2135.54 0 0)
(-2137.68 0 0)
(-2139.31 0 0)
(-2141.47 0 0)
(-2143.12 0 0)
(-2145.31 0 0)
(-2146.98 0 0)
(-2149.2 0 0)
(-2150.9 0 0)
(-2153.14 0 0)
(-2154.87 0 0)
(-2157.14 0 0)
(-2158.9 0 0)
(-2161.19 0 0)
(-2162.98 0 0)
(-2165.28 0 0)
(-2167.09 0 0)
(-2169.42 0 0)
(-2171.25 0 0)
(-2173.6 0 0)
(-2175.46 0 0)
(-2177.83 0 0)
(-2179.72 0 0)
(-2182.11 0 0)
(-2184.03 0 0)
(-2186.44 0 0)
(-2188.38 0 0)
(-2190.81 0 0)
(-2192.78 0 0)
(-2195.22 0 0)
(-2197.2 0 0)
(-2199.67 0 0)
(-2201.67 0 0)
(-2204.15 0 0)
(-2206.18 0 0)
(-2208.68 0 0)
(-2210.73 0 0)
(-2213.25 0 0)
(-2215.32 0 0)
(-2217.86 0 0)
(-2219.95 0 0)
(-2222.51 0 0)
(-2224.62 0 0)
(-2227.2 0 0)
(-2229.33 0 0)
(-2231.93 0 0)
(-2234.08 0 0)
(-2236.69 0 0)
(-2238.87 0 0)
(-2241.5 0 0)
(-2243.69 0 0)
(-2246.33 0 0)
(-2248.54 0 0)
(-2251.2 0 0)
(-2253.43 0 0)
(-2256.1 0 0)
(-2258.35 0 0)
(-2261.05 0 0)
(-2263.25 0 0)
(-2266.14 0 0)
(-2269.48 0 0)
)
;

boundaryField
{
    sides
    {
        type            calculated;
        value           nonuniform List<vector> 2((-2269.48 0 0) (-45.6073 0 0));
    }
    empty
    {
        type            empty;
    }
}


// ************************************************************************* //
