/*--------------------------------*- C++ -*----------------------------------*\
  =========                 |
  \\      /  F ield         | OpenFOAM: The Open Source CFD Toolbox
   \\    /   O peration     | Website:  https://openfoam.org
    \\  /    A nd           | Version:  9
     \\/     M anipulation  |
\*---------------------------------------------------------------------------*/
FoamFile
{
    format      ascii;
    class       volScalarField;
    location    "0.048";
    object      rho_0;
}
// * * * * * * * * * * * * * * * * * * * * * * * * * * * * * * * * * * * * * //

dimensions      [1 -3 0 0 0 0 0];

internalField   nonuniform List<scalar> 
1000
(
0.186523
0.186502
0.186457
0.186415
0.186377
0.18634
0.186303
0.186265
0.186228
0.18619
0.186153
0.186117
0.18608
0.186043
0.186006
0.18597
0.185934
0.185899
0.185863
0.185827
0.185792
0.185757
0.185722
0.185688
0.185654
0.18562
0.185586
0.185552
0.185518
0.185485
0.185453
0.185421
0.185389
0.185357
0.185325
0.185292
0.185261
0.18523
0.1852
0.185171
0.185142
0.185113
0.185083
0.185053
0.185023
0.184994
0.184965
0.184937
0.18491
0.184885
0.18486
0.184835
0.18481
0.184785
0.184759
0.184733
0.184706
0.18468
0.184655
0.184631
0.184609
0.184588
0.184569
0.184551
0.184534
0.184516
0.184499
0.184482
0.184464
0.184445
0.184426
0.184406
0.184385
0.184365
0.184345
0.184326
0.184308
0.184292
0.184279
0.184267
0.184259
0.184252
0.184248
0.184246
0.184246
0.184248
0.18425
0.184255
0.18426
0.184265
0.184272
0.18428
0.184289
0.184299
0.184311
0.184324
0.184341
0.184358
0.184377
0.184397
0.184419
0.184441
0.184464
0.184487
0.184512
0.184537
0.184562
0.184588
0.184616
0.184644
0.184673
0.184702
0.184733
0.184764
0.184796
0.184829
0.184862
0.184897
0.184933
0.184969
0.185005
0.185044
0.185083
0.185122
0.185162
0.185204
0.185246
0.185289
0.185333
0.185377
0.185423
0.18547
0.185517
0.185565
0.185614
0.185664
0.185714
0.185765
0.185817
0.18587
0.185924
0.185979
0.186034
0.186089
0.186146
0.186204
0.186262
0.18632
0.18638
0.18644
0.186501
0.186562
0.186624
0.186687
0.18675
0.186814
0.186878
0.186942
0.187008
0.187074
0.18714
0.187207
0.187274
0.187342
0.18741
0.187478
0.187547
0.187616
0.187686
0.187756
0.187826
0.187896
0.187967
0.188038
0.18811
0.188182
0.188253
0.188325
0.188398
0.188471
0.188544
0.188616
0.188689
0.188763
0.188837
0.188911
0.188984
0.189058
0.189132
0.189206
0.189281
0.189355
0.189429
0.189504
0.189579
0.189654
0.18973
0.189804
0.189879
0.189954
0.19003
0.190106
0.190181
0.190256
0.190332
0.190408
0.190484
0.19056
0.190636
0.190711
0.190787
0.190864
0.19094
0.191016
0.191092
0.191168
0.191245
0.191322
0.191398
0.191475
0.191551
0.191628
0.191705
0.191782
0.191858
0.191935
0.192011
0.192089
0.192166
0.192243
0.19232
0.192397
0.192474
0.192552
0.192629
0.192707
0.192784
0.192861
0.192938
0.193016
0.193094
0.193172
0.193249
0.193327
0.193404
0.193483
0.193561
0.193639
0.193716
0.193794
0.193872
0.193951
0.194029
0.194107
0.194185
0.194263
0.194341
0.19442
0.194499
0.194578
0.194656
0.194734
0.194813
0.194892
0.194971
0.19505
0.195128
0.195206
0.195285
0.195365
0.195444
0.195523
0.195602
0.195681
0.19576
0.195839
0.195919
0.195999
0.196078
0.196157
0.196236
0.196316
0.196396
0.196476
0.196555
0.196634
0.196714
0.196794
0.196874
0.196954
0.197034
0.197114
0.197193
0.197273
0.197354
0.197435
0.197515
0.197595
0.197675
0.197755
0.197836
0.197917
0.197998
0.198078
0.198158
0.198238
0.198319
0.198401
0.198482
0.198563
0.198643
0.198724
0.198805
0.198886
0.198968
0.199049
0.19913
0.199211
0.199292
0.199373
0.199455
0.199537
0.199619
0.1997
0.199781
0.199862
0.199945
0.200027
0.200109
0.200191
0.200272
0.200354
0.200436
0.200518
0.200601
0.200683
0.200765
0.200847
0.200929
0.201011
0.201094
0.201177
0.20126
0.201342
0.201424
0.201506
0.201589
0.201673
0.201756
0.201839
0.201921
0.202004
0.202087
0.20217
0.202254
0.202337
0.20242
0.202503
0.202586
0.202669
0.202753
0.202837
0.202921
0.203004
0.203087
0.203171
0.203254
0.203339
0.203423
0.203507
0.203591
0.203674
0.203758
0.203842
0.203927
0.204011
0.204096
0.20418
0.204264
0.204348
0.204432
0.204517
0.204602
0.204687
0.204771
0.204856
0.20494
0.205025
0.20511
0.205196
0.205281
0.205365
0.20545
0.205535
0.20562
0.205706
0.205792
0.205877
0.205962
0.206047
0.206132
0.206217
0.206303
0.20639
0.206476
0.206562
0.206647
0.206732
0.206818
0.206904
0.20699
0.207077
0.207163
0.207249
0.207335
0.207421
0.207507
0.207594
0.207681
0.207767
0.207853
0.207939
0.208026
0.208112
0.2082
0.208287
0.208374
0.208461
0.208547
0.208634
0.20872
0.208808
0.208895
0.208983
0.209071
0.209157
0.209244
0.209331
0.209419
0.209507
0.209595
0.209683
0.20977
0.209857
0.209945
0.210032
0.210121
0.210209
0.210298
0.210385
0.210473
0.21056
0.210648
0.210736
0.210825
0.210914
0.211003
0.211091
0.211179
0.211267
0.211356
0.211445
0.211534
0.211623
0.211712
0.2118
0.211889
0.211977
0.212067
0.212156
0.212246
0.212335
0.212424
0.212513
0.212601
0.212691
0.21278
0.21287
0.21296
0.21305
0.21314
0.213229
0.213318
0.213408
0.213498
0.213588
0.213678
0.213768
0.213858
0.213948
0.214037
0.214128
0.214219
0.21431
0.2144
0.21449
0.21458
0.21467
0.21476
0.214851
0.214942
0.215034
0.215124
0.215216
0.215305
0.215397
0.215487
0.215579
0.21567
0.215761
0.215853
0.215943
0.216035
0.216125
0.216217
0.216309
0.2164
0.216493
0.216583
0.216677
0.216766
0.216859
0.21695
0.217041
0.217136
0.217225
0.217321
0.217408
0.217505
0.217593
0.217688
0.21778
0.217871
0.217967
0.218055
0.218152
0.21824
0.218335
0.218427
0.218519
0.218615
0.218705
0.218802
0.218891
0.218987
0.219078
0.219171
0.219267
0.219357
0.219455
0.219544
0.21964
0.219732
0.219826
0.219921
0.220013
0.220111
0.220201
0.220299
0.220389
0.220485
0.220578
0.220673
0.220769
0.220861
0.220961
0.22105
0.22115
0.221239
0.221339
0.221431
0.221528
0.221624
0.221719
0.221816
0.22191
0.222007
0.222102
0.222198
0.222296
0.22239
0.22249
0.222583
0.222684
0.222777
0.222876
0.222973
0.22307
0.223171
0.223265
0.223366
0.223463
0.223561
0.223662
0.223757
0.22386
0.223957
0.224058
0.22416
0.224256
0.224361
0.224457
0.224562
0.224661
0.224764
0.224867
0.224967
0.225073
0.225172
0.225278
0.22538
0.225484
0.225591
0.225693
0.225802
0.225906
0.226012
0.22612
0.226224
0.226336
0.226441
0.226552
0.226661
0.22677
0.226882
0.226991
0.227104
0.227215
0.227328
0.227442
0.227557
0.227671
0.227787
0.227903
0.228019
0.228139
0.228256
0.228376
0.228496
0.228617
0.22874
0.228861
0.228984
0.229108
0.229233
0.22936
0.229487
0.229615
0.229743
0.229873
0.230003
0.230135
0.230268
0.230401
0.230536
0.230672
0.230808
0.230945
0.231083
0.231222
0.231363
0.231504
0.231646
0.231791
0.231934
0.23208
0.232226
0.232372
0.23252
0.232669
0.232819
0.23297
0.233122
0.233274
0.233427
0.23358
0.233736
0.233889
0.234047
0.234203
0.234362
0.234517
0.23468
0.234832
0.234997
0.235151
0.235318
0.23547
0.235643
0.23579
0.235965
0.236111
0.236288
0.236431
0.236613
0.236754
0.236936
0.237077
0.237258
0.237397
0.237579
0.237718
0.237899
0.238038
0.238218
0.238356
0.238535
0.238671
0.238849
0.238984
0.239161
0.239295
0.239471
0.239604
0.239778
0.239909
0.240081
0.240211
0.240381
0.240511
0.240679
0.240807
0.240973
0.241099
0.241263
0.241388
0.24155
0.241673
0.241834
0.241956
0.242115
0.242235
0.242391
0.24251
0.242664
0.242782
0.242935
0.243051
0.243202
0.243316
0.243466
0.243579
0.243726
0.243838
0.243984
0.244095
0.24424
0.244349
0.244493
0.244601
0.244742
0.24485
0.24499
0.245097
0.245236
0.245342
0.24548
0.245584
0.245721
0.245824
0.24596
0.246063
0.246198
0.246301
0.246435
0.246536
0.246669
0.24677
0.246903
0.247003
0.247135
0.247235
0.247366
0.247466
0.247596
0.247695
0.247825
0.247924
0.248054
0.248153
0.248282
0.248381
0.24851
0.248608
0.248737
0.248836
0.248965
0.249064
0.249193
0.249292
0.249422
0.249522
0.249652
0.249752
0.249884
0.249985
0.250118
0.25022
0.250354
0.250458
0.250594
0.250699
0.250838
0.250946
0.251087
0.251197
0.251342
0.251455
0.251604
0.25172
0.251873
0.251993
0.25215
0.252274
0.252437
0.252565
0.252733
0.252865
0.253038
0.253175
0.253354
0.253495
0.253681
0.253826
0.254016
0.254166
0.254361
0.254514
0.254715
0.25487
0.255075
0.255233
0.255441
0.255601
0.255812
0.255973
0.256185
0.256347
0.256559
0.256721
0.256934
0.257095
0.257306
0.257467
0.257677
0.257835
0.258043
0.2582
0.258405
0.25856
0.258762
0.258915
0.259114
0.259265
0.259461
0.259609
0.259802
0.259947
0.260137
0.260281
0.260468
0.260609
0.260793
0.260932
0.261113
0.26125
0.261429
0.261564
0.26174
0.261874
0.262048
0.262179
0.262351
0.262481
0.26265
0.262779
0.262946
0.263073
0.263239
0.263365
0.263529
0.263653
0.263815
0.263938
0.264098
0.26422
0.264379
0.2645
0.264657
0.264776
0.264932
0.265051
0.265205
0.265323
0.265476
0.265592
0.265744
0.265859
0.26601
0.266124
0.266274
0.266387
0.266536
0.266648
0.266795
0.266907
0.267053
0.267164
0.267309
0.267419
0.267563
0.267673
0.267816
0.267924
0.268066
0.268174
0.268315
0.268422
0.268562
0.268669
0.268808
0.268914
0.269052
0.269157
0.269295
0.269399
0.269536
0.26964
0.269776
0.269879
0.270014
0.270117
0.270251
0.270353
0.270487
0.270588
0.270721
0.270822
0.270954
0.271055
0.271186
0.271286
0.271417
0.271516
0.271646
0.271745
0.271875
0.271973
0.272102
0.272199
0.272328
0.272425
0.272553
0.27265
0.272776
0.272873
0.272999
0.273095
0.273221
0.273317
0.273442
0.273537
0.273662
0.273756
0.27388
0.273975
0.274098
0.274192
0.274315
0.274409
0.274531
0.274624
0.274746
0.274839
0.274961
0.275053
0.275174
0.275266
0.275386
0.275478
0.275598
0.275689
0.275809
0.2759
0.276019
0.27611
0.276228
0.276319
0.276437
0.276527
0.276645
0.276734
0.276852
0.276941
0.277058
0.277147
0.277263
0.277348
0.277472
0.277523
)
;

boundaryField
{
    sides
    {
        type            calculated;
        value           nonuniform List<scalar> 2(0.277523 0.186523);
    }
    empty
    {
        type            empty;
    }
}


// ************************************************************************* //
