/*--------------------------------*- C++ -*----------------------------------*\
  =========                 |
  \\      /  F ield         | OpenFOAM: The Open Source CFD Toolbox
   \\    /   O peration     | Website:  https://openfoam.org
    \\  /    A nd           | Version:  9
     \\/     M anipulation  |
\*---------------------------------------------------------------------------*/
FoamFile
{
    format      ascii;
    class       volScalarField;
    location    "0.048";
    object      T;
}
// * * * * * * * * * * * * * * * * * * * * * * * * * * * * * * * * * * * * * //

dimensions      [0 0 0 1 0 0 0];

internalField   nonuniform List<scalar> 
1000
(
175.438
175.442
175.451
175.461
175.473
175.485
175.497
175.51
175.522
175.535
175.548
175.561
175.574
175.588
175.601
175.615
175.629
175.642
175.656
175.671
175.685
175.7
175.714
175.729
175.743
175.758
175.774
175.789
175.805
175.82
175.835
175.85
175.865
175.881
175.898
175.915
175.931
175.948
175.964
175.979
175.995
176.011
176.028
176.046
176.064
176.083
176.101
176.118
176.135
176.151
176.168
176.184
176.201
176.219
176.239
176.259
176.279
176.3
176.321
176.341
176.36
176.378
176.396
176.413
176.429
176.446
176.464
176.483
176.502
176.524
176.547
176.571
176.596
176.621
176.647
176.673
176.698
176.722
176.744
176.765
176.785
176.802
176.819
176.834
176.848
176.861
176.874
176.887
176.899
176.912
176.924
176.936
176.948
176.96
176.972
176.982
176.991
176.999
177.007
177.015
177.023
177.03
177.039
177.048
177.057
177.066
177.076
177.086
177.096
177.106
177.118
177.129
177.141
177.152
177.165
177.177
177.19
177.203
177.217
177.231
177.245
177.26
177.274
177.289
177.305
177.321
177.337
177.353
177.37
177.388
177.405
177.423
177.441
177.46
177.478
177.497
177.516
177.536
177.556
177.576
177.597
177.617
177.639
177.66
177.682
177.703
177.726
177.749
177.771
177.794
177.817
177.841
177.865
177.888
177.912
177.936
177.961
177.986
178.011
178.035
178.061
178.086
178.112
178.138
178.163
178.189
178.216
178.242
178.269
178.295
178.321
178.349
178.376
178.403
178.429
178.456
178.484
178.512
178.539
178.566
178.593
178.622
178.65
178.677
178.705
178.732
178.761
178.789
178.817
178.845
178.872
178.901
178.929
178.958
178.986
179.014
179.042
179.071
179.099
179.128
179.156
179.184
179.212
179.241
179.27
179.298
179.326
179.355
179.384
179.413
179.441
179.469
179.498
179.527
179.556
179.585
179.613
179.641
179.67
179.699
179.728
179.757
179.785
179.814
179.843
179.872
179.901
179.93
179.958
179.987
180.016
180.045
180.074
180.103
180.131
180.16
180.19
180.219
180.248
180.276
180.305
180.334
180.364
180.393
180.422
180.451
180.479
180.508
180.538
180.567
180.596
180.625
180.654
180.683
180.713
180.742
180.771
180.8
180.829
180.858
180.888
180.917
180.946
180.975
181.004
181.033
181.063
181.093
181.122
181.151
181.18
181.209
181.239
181.268
181.298
181.327
181.356
181.385
181.415
181.445
181.474
181.503
181.532
181.562
181.591
181.621
181.651
181.68
181.709
181.738
181.768
181.798
181.828
181.858
181.887
181.916
181.945
181.975
182.006
182.035
182.065
182.094
182.123
182.153
182.183
182.213
182.243
182.272
182.301
182.331
182.361
182.391
182.421
182.451
182.48
182.51
182.54
182.57
182.6
182.63
182.659
182.689
182.719
182.749
182.779
182.809
182.839
182.868
182.898
182.928
182.959
182.989
183.019
183.049
183.078
183.108
183.138
183.169
183.199
183.229
183.259
183.288
183.318
183.349
183.379
183.41
183.44
183.47
183.499
183.529
183.56
183.591
183.621
183.651
183.681
183.711
183.741
183.772
183.803
183.833
183.863
183.893
183.923
183.953
183.984
184.015
184.045
184.075
184.105
184.135
184.166
184.197
184.228
184.258
184.288
184.318
184.349
184.379
184.41
184.441
184.472
184.502
184.532
184.562
184.593
184.624
184.655
184.686
184.716
184.746
184.776
184.807
184.839
184.87
184.9
184.931
184.961
184.991
185.022
185.053
185.085
185.116
185.146
185.176
185.207
185.237
185.269
185.3
185.331
185.362
185.392
185.423
185.454
185.485
185.516
185.547
185.578
185.609
185.639
185.67
185.701
185.733
185.764
185.795
185.826
185.856
185.887
185.918
185.95
185.981
186.013
186.044
186.074
186.105
186.136
186.167
186.199
186.23
186.262
186.292
186.323
186.354
186.386
186.417
186.449
186.48
186.511
186.542
186.573
186.604
186.636
186.668
186.7
186.731
186.762
186.792
186.824
186.855
186.887
186.919
186.95
186.982
187.013
187.044
187.075
187.107
187.139
187.171
187.202
187.233
187.264
187.295
187.327
187.359
187.391
187.423
187.454
187.486
187.517
187.548
187.58
187.612
187.644
187.676
187.707
187.739
187.77
187.802
187.834
187.866
187.898
187.93
187.961
187.992
188.024
188.056
188.088
188.121
188.152
188.184
188.216
188.247
188.279
188.31
188.343
188.375
188.408
188.439
188.471
188.503
188.534
188.567
188.598
188.632
188.663
188.695
188.727
188.757
188.791
188.822
188.856
188.887
188.92
188.952
188.982
189.017
189.045
189.082
189.11
189.146
189.176
189.208
189.241
189.271
189.307
189.336
189.372
189.402
189.435
189.468
189.497
189.533
189.561
189.597
189.627
189.661
189.694
189.724
189.76
189.788
189.824
189.854
189.888
189.921
189.952
189.987
190.016
190.052
190.081
190.117
190.148
190.182
190.215
190.246
190.281
190.309
190.347
190.375
190.413
190.442
190.478
190.509
190.542
190.575
190.607
190.642
190.674
190.708
190.741
190.773
190.808
190.839
190.875
190.906
190.942
190.974
191.007
191.042
191.073
191.11
191.141
191.176
191.211
191.243
191.28
191.311
191.347
191.381
191.413
191.451
191.481
191.52
191.552
191.588
191.623
191.656
191.693
191.726
191.764
191.798
191.834
191.871
191.904
191.942
191.976
192.013
192.05
192.085
192.125
192.159
192.198
192.233
192.271
192.309
192.345
192.385
192.422
192.461
192.5
192.538
192.576
192.616
192.655
192.695
192.735
192.774
192.816
192.855
192.896
192.938
192.978
193.021
193.062
193.105
193.147
193.19
193.233
193.276
193.32
193.363
193.408
193.453
193.497
193.543
193.587
193.633
193.679
193.725
193.773
193.82
193.867
193.915
193.963
194.01
194.059
194.108
194.157
194.208
194.257
194.307
194.358
194.408
194.458
194.51
194.561
194.613
194.664
194.718
194.768
194.821
194.872
194.928
194.976
195.035
195.083
195.142
195.189
195.25
195.294
195.358
195.401
195.467
195.508
195.577
195.613
195.684
195.72
195.791
195.827
195.899
195.934
196.005
196.041
196.111
196.145
196.215
196.25
196.32
196.355
196.424
196.458
196.526
196.56
196.627
196.661
196.728
196.761
196.828
196.861
196.926
196.958
197.023
197.055
197.119
197.15
197.214
197.245
197.307
197.338
197.399
197.43
197.49
197.52
197.581
197.61
197.67
197.699
197.757
197.786
197.844
197.872
197.93
197.958
198.014
198.042
198.098
198.125
198.181
198.208
198.263
198.29
198.344
198.37
198.424
198.45
198.503
198.53
198.582
198.608
198.661
198.686
198.738
198.764
198.815
198.84
198.891
198.917
198.968
198.993
199.043
199.068
199.118
199.143
199.193
199.218
199.267
199.292
199.341
199.366
199.415
199.44
199.489
199.513
199.563
199.587
199.636
199.661
199.71
199.735
199.784
199.809
199.858
199.883
199.933
199.958
200.008
200.033
200.084
200.11
200.161
200.187
200.239
200.266
200.319
200.346
200.4
200.428
200.484
200.512
200.569
200.599
200.658
200.688
200.748
200.78
200.842
200.875
200.939
200.973
201.039
201.074
201.143
201.179
201.249
201.286
201.358
201.396
201.47
201.509
201.585
201.623
201.701
201.74
201.818
201.858
201.937
201.976
202.056
202.095
202.174
202.214
202.293
202.332
202.41
202.449
202.527
202.565
202.642
202.68
202.755
202.792
202.867
202.903
202.977
203.013
203.085
203.12
203.191
203.226
203.296
203.33
203.399
203.432
203.5
203.533
203.6
203.632
203.698
203.73
203.795
203.827
203.89
203.922
203.985
204.016
204.078
204.108
204.17
204.2
204.261
204.291
204.351
204.38
204.44
204.469
204.528
204.557
204.615
204.643
204.701
204.729
204.786
204.815
204.871
204.899
204.955
204.983
205.038
205.066
205.121
205.148
205.202
205.229
205.283
205.31
205.364
205.39
205.444
205.47
205.523
205.549
205.601
205.627
205.679
205.705
205.757
205.782
205.834
205.859
205.91
205.935
205.986
206.011
206.061
206.086
206.136
206.161
206.21
206.235
206.284
206.309
206.358
206.382
206.431
206.455
206.503
206.527
206.575
206.599
206.647
206.671
206.718
206.742
206.789
206.813
206.86
206.883
206.93
206.953
206.999
207.023
207.069
207.092
207.138
207.161
207.206
207.229
207.275
207.297
207.343
207.365
207.41
207.433
207.478
207.5
207.545
207.567
207.611
207.633
207.677
207.699
207.743
207.765
207.809
207.831
207.874
207.896
207.94
207.961
208.004
208.026
208.069
208.09
208.133
208.154
208.197
208.218
208.26
208.282
208.324
208.345
208.387
208.408
208.45
208.47
208.512
208.533
208.577
208.592
208.659
)
;

boundaryField
{
    sides
    {
        type            zeroGradient;
    }
    empty
    {
        type            empty;
    }
}


// ************************************************************************* //
