/*--------------------------------*- C++ -*----------------------------------*\
  =========                 |
  \\      /  F ield         | OpenFOAM: The Open Source CFD Toolbox
   \\    /   O peration     | Website:  https://openfoam.org
    \\  /    A nd           | Version:  9
     \\/     M anipulation  |
\*---------------------------------------------------------------------------*/
FoamFile
{
    format      ascii;
    class       volVectorField;
    location    "0.048";
    object      U;
}
// * * * * * * * * * * * * * * * * * * * * * * * * * * * * * * * * * * * * * //

dimensions      [0 1 -1 0 0 0 0];

internalField   nonuniform List<vector> 
1000
(
(22.7311 0 0)
(22.9463 0 0)
(23.246 0 0)
(23.4915 0 0)
(23.7015 0 0)
(23.9082 0 0)
(24.1205 0 0)
(24.3357 0 0)
(24.5508 0 0)
(24.7653 0 0)
(24.9794 0 0)
(25.1934 0 0)
(25.4074 0 0)
(25.6212 0 0)
(25.835 0 0)
(26.0486 0 0)
(26.262 0 0)
(26.4754 0 0)
(26.6885 0 0)
(26.9016 0 0)
(27.1145 0 0)
(27.3272 0 0)
(27.5398 0 0)
(27.7522 0 0)
(27.9644 0 0)
(28.1765 0 0)
(28.3883 0 0)
(28.6 0 0)
(28.8115 0 0)
(29.0228 0 0)
(29.2339 0 0)
(29.4448 0 0)
(29.6554 0 0)
(29.8658 0 0)
(30.0761 0 0)
(30.286 0 0)
(30.4958 0 0)
(30.7053 0 0)
(30.9145 0 0)
(31.1235 0 0)
(31.3322 0 0)
(31.5406 0 0)
(31.7488 0 0)
(31.9566 0 0)
(32.1642 0 0)
(32.3714 0 0)
(32.5784 0 0)
(32.785 0 0)
(32.9913 0 0)
(33.1972 0 0)
(33.4027 0 0)
(33.6078 0 0)
(33.8126 0 0)
(34.0169 0 0)
(34.2209 0 0)
(34.4244 0 0)
(34.6274 0 0)
(34.8301 0 0)
(35.0322 0 0)
(35.2338 0 0)
(35.435 0 0)
(35.6356 0 0)
(35.8357 0 0)
(36.0353 0 0)
(36.2346 0 0)
(36.4336 0 0)
(36.6319 0 0)
(36.8291 0 0)
(37.0257 0 0)
(37.2217 0 0)
(37.4171 0 0)
(37.6121 0 0)
(37.8065 0 0)
(38.0004 0 0)
(38.1937 0 0)
(38.3864 0 0)
(38.5784 0 0)
(38.7699 0 0)
(38.9607 0 0)
(39.1508 0 0)
(39.3403 0 0)
(39.529 0 0)
(39.7171 0 0)
(39.9044 0 0)
(40.0909 0 0)
(40.2767 0 0)
(40.4618 0 0)
(40.646 0 0)
(40.8295 0 0)
(41.0121 0 0)
(41.1939 0 0)
(41.3749 0 0)
(41.555 0 0)
(41.7343 0 0)
(41.9127 0 0)
(42.0902 0 0)
(42.2668 0 0)
(42.4425 0 0)
(42.6172 0 0)
(42.7911 0 0)
(42.9639 0 0)
(43.1358 0 0)
(43.3067 0 0)
(43.4766 0 0)
(43.6455 0 0)
(43.8134 0 0)
(43.9803 0 0)
(44.1461 0 0)
(44.3109 0 0)
(44.4747 0 0)
(44.6373 0 0)
(44.7989 0 0)
(44.9595 0 0)
(45.1189 0 0)
(45.2773 0 0)
(45.4345 0 0)
(45.5906 0 0)
(45.7457 0 0)
(45.8996 0 0)
(46.0524 0 0)
(46.204 0 0)
(46.3546 0 0)
(46.504 0 0)
(46.6522 0 0)
(46.7994 0 0)
(46.9454 0 0)
(47.0903 0 0)
(47.2341 0 0)
(47.3767 0 0)
(47.5183 0 0)
(47.6587 0 0)
(47.7981 0 0)
(47.9363 0 0)
(48.0735 0 0)
(48.2095 0 0)
(48.3445 0 0)
(48.4785 0 0)
(48.6114 0 0)
(48.7433 0 0)
(48.8742 0 0)
(49.0041 0 0)
(49.1329 0 0)
(49.2609 0 0)
(49.3879 0 0)
(49.5139 0 0)
(49.6391 0 0)
(49.7633 0 0)
(49.8867 0 0)
(50.0092 0 0)
(50.1309 0 0)
(50.2518 0 0)
(50.372 0 0)
(50.4913 0 0)
(50.61 0 0)
(50.7279 0 0)
(50.8451 0 0)
(50.9617 0 0)
(51.0776 0 0)
(51.1929 0 0)
(51.3076 0 0)
(51.4218 0 0)
(51.5354 0 0)
(51.6485 0 0)
(51.7611 0 0)
(51.8732 0 0)
(51.9848 0 0)
(52.0961 0 0)
(52.2069 0 0)
(52.3174 0 0)
(52.4275 0 0)
(52.5372 0 0)
(52.6466 0 0)
(52.7557 0 0)
(52.8646 0 0)
(52.9731 0 0)
(53.0815 0 0)
(53.1896 0 0)
(53.2975 0 0)
(53.4051 0 0)
(53.5127 0 0)
(53.62 0 0)
(53.7272 0 0)
(53.8342 0 0)
(53.9411 0 0)
(54.0479 0 0)
(54.1546 0 0)
(54.2612 0 0)
(54.3677 0 0)
(54.4742 0 0)
(54.5805 0 0)
(54.6868 0 0)
(54.7931 0 0)
(54.8993 0 0)
(55.0055 0 0)
(55.1117 0 0)
(55.2178 0 0)
(55.324 0 0)
(55.4301 0 0)
(55.5362 0 0)
(55.6423 0 0)
(55.7484 0 0)
(55.8545 0 0)
(55.9606 0 0)
(56.0667 0 0)
(56.1729 0 0)
(56.279 0 0)
(56.3852 0 0)
(56.4914 0 0)
(56.5976 0 0)
(56.7039 0 0)
(56.8102 0 0)
(56.9165 0 0)
(57.0228 0 0)
(57.1292 0 0)
(57.2356 0 0)
(57.342 0 0)
(57.4485 0 0)
(57.555 0 0)
(57.6616 0 0)
(57.7682 0 0)
(57.8748 0 0)
(57.9815 0 0)
(58.0882 0 0)
(58.1949 0 0)
(58.3017 0 0)
(58.4086 0 0)
(58.5154 0 0)
(58.6224 0 0)
(58.7293 0 0)
(58.8363 0 0)
(58.9434 0 0)
(59.0504 0 0)
(59.1576 0 0)
(59.2648 0 0)
(59.372 0 0)
(59.4792 0 0)
(59.5865 0 0)
(59.6939 0 0)
(59.8013 0 0)
(59.9087 0 0)
(60.0162 0 0)
(60.1237 0 0)
(60.2312 0 0)
(60.3389 0 0)
(60.4465 0 0)
(60.5542 0 0)
(60.6619 0 0)
(60.7697 0 0)
(60.8775 0 0)
(60.9854 0 0)
(61.0933 0 0)
(61.2013 0 0)
(61.3093 0 0)
(61.4173 0 0)
(61.5254 0 0)
(61.6335 0 0)
(61.7417 0 0)
(61.8499 0 0)
(61.9581 0 0)
(62.0664 0 0)
(62.1748 0 0)
(62.2832 0 0)
(62.3916 0 0)
(62.5 0 0)
(62.6086 0 0)
(62.7171 0 0)
(62.8257 0 0)
(62.9343 0 0)
(63.043 0 0)
(63.1517 0 0)
(63.2605 0 0)
(63.3693 0 0)
(63.4781 0 0)
(63.587 0 0)
(63.6959 0 0)
(63.8049 0 0)
(63.9139 0 0)
(64.0229 0 0)
(64.132 0 0)
(64.2411 0 0)
(64.3503 0 0)
(64.4595 0 0)
(64.5687 0 0)
(64.678 0 0)
(64.7873 0 0)
(64.8967 0 0)
(65.0061 0 0)
(65.1155 0 0)
(65.225 0 0)
(65.3345 0 0)
(65.4441 0 0)
(65.5537 0 0)
(65.6633 0 0)
(65.773 0 0)
(65.8827 0 0)
(65.9924 0 0)
(66.1022 0 0)
(66.212 0 0)
(66.3219 0 0)
(66.4318 0 0)
(66.5417 0 0)
(66.6517 0 0)
(66.7617 0 0)
(66.8717 0 0)
(66.9818 0 0)
(67.0919 0 0)
(67.202 0 0)
(67.3122 0 0)
(67.4224 0 0)
(67.5327 0 0)
(67.643 0 0)
(67.7533 0 0)
(67.8637 0 0)
(67.9741 0 0)
(68.0845 0 0)
(68.195 0 0)
(68.3055 0 0)
(68.416 0 0)
(68.5266 0 0)
(68.6372 0 0)
(68.7479 0 0)
(68.8585 0 0)
(68.9693 0 0)
(69.08 0 0)
(69.1908 0 0)
(69.3016 0 0)
(69.4125 0 0)
(69.5233 0 0)
(69.6343 0 0)
(69.7452 0 0)
(69.8562 0 0)
(69.9672 0 0)
(70.0783 0 0)
(70.1894 0 0)
(70.3005 0 0)
(70.4116 0 0)
(70.5228 0 0)
(70.634 0 0)
(70.7453 0 0)
(70.8566 0 0)
(70.9679 0 0)
(71.0792 0 0)
(71.1906 0 0)
(71.302 0 0)
(71.4135 0 0)
(71.525 0 0)
(71.6365 0 0)
(71.748 0 0)
(71.8596 0 0)
(71.9712 0 0)
(72.0829 0 0)
(72.1945 0 0)
(72.3062 0 0)
(72.418 0 0)
(72.5297 0 0)
(72.6415 0 0)
(72.7534 0 0)
(72.8653 0 0)
(72.9772 0 0)
(73.0891 0 0)
(73.201 0 0)
(73.313 0 0)
(73.4251 0 0)
(73.5371 0 0)
(73.6492 0 0)
(73.7613 0 0)
(73.8735 0 0)
(73.9857 0 0)
(74.0979 0 0)
(74.2101 0 0)
(74.3224 0 0)
(74.4347 0 0)
(74.547 0 0)
(74.6594 0 0)
(74.7718 0 0)
(74.8842 0 0)
(74.9967 0 0)
(75.1092 0 0)
(75.2217 0 0)
(75.3343 0 0)
(75.4469 0 0)
(75.5595 0 0)
(75.6721 0 0)
(75.7848 0 0)
(75.8975 0 0)
(76.0103 0 0)
(76.123 0 0)
(76.2358 0 0)
(76.3487 0 0)
(76.4615 0 0)
(76.5744 0 0)
(76.6873 0 0)
(76.8003 0 0)
(76.9133 0 0)
(77.0263 0 0)
(77.1393 0 0)
(77.2524 0 0)
(77.3655 0 0)
(77.4787 0 0)
(77.5918 0 0)
(77.705 0 0)
(77.8183 0 0)
(77.9315 0 0)
(78.0448 0 0)
(78.1581 0 0)
(78.2715 0 0)
(78.3848 0 0)
(78.4983 0 0)
(78.6117 0 0)
(78.7252 0 0)
(78.8387 0 0)
(78.9522 0 0)
(79.0657 0 0)
(79.1793 0 0)
(79.293 0 0)
(79.4066 0 0)
(79.5203 0 0)
(79.634 0 0)
(79.7477 0 0)
(79.8615 0 0)
(79.9753 0 0)
(80.0891 0 0)
(80.203 0 0)
(80.3169 0 0)
(80.4308 0 0)
(80.5447 0 0)
(80.6587 0 0)
(80.7727 0 0)
(80.8867 0 0)
(81.0008 0 0)
(81.1149 0 0)
(81.229 0 0)
(81.3432 0 0)
(81.4574 0 0)
(81.5716 0 0)
(81.6858 0 0)
(81.8001 0 0)
(81.9144 0 0)
(82.0287 0 0)
(82.1431 0 0)
(82.2575 0 0)
(82.3719 0 0)
(82.4863 0 0)
(82.6008 0 0)
(82.7153 0 0)
(82.8298 0 0)
(82.9444 0 0)
(83.059 0 0)
(83.1736 0 0)
(83.2883 0 0)
(83.4029 0 0)
(83.5177 0 0)
(83.6324 0 0)
(83.7472 0 0)
(83.862 0 0)
(83.9768 0 0)
(84.0917 0 0)
(84.2065 0 0)
(84.3215 0 0)
(84.4364 0 0)
(84.5514 0 0)
(84.6664 0 0)
(84.7814 0 0)
(84.8965 0 0)
(85.0116 0 0)
(85.1267 0 0)
(85.2419 0 0)
(85.3571 0 0)
(85.4723 0 0)
(85.5875 0 0)
(85.7028 0 0)
(85.8181 0 0)
(85.9334 0 0)
(86.0488 0 0)
(86.1641 0 0)
(86.2796 0 0)
(86.395 0 0)
(86.5105 0 0)
(86.626 0 0)
(86.7415 0 0)
(86.8571 0 0)
(86.9727 0 0)
(87.0883 0 0)
(87.2039 0 0)
(87.3196 0 0)
(87.4353 0 0)
(87.5511 0 0)
(87.6668 0 0)
(87.7826 0 0)
(87.8984 0 0)
(88.0143 0 0)
(88.1302 0 0)
(88.2461 0 0)
(88.362 0 0)
(88.478 0 0)
(88.594 0 0)
(88.71 0 0)
(88.8261 0 0)
(88.9422 0 0)
(89.0583 0 0)
(89.1744 0 0)
(89.2906 0 0)
(89.4068 0 0)
(89.523 0 0)
(89.6393 0 0)
(89.7556 0 0)
(89.8719 0 0)
(89.9882 0 0)
(90.1046 0 0)
(90.221 0 0)
(90.3374 0 0)
(90.4539 0 0)
(90.5704 0 0)
(90.6869 0 0)
(90.8034 0 0)
(90.92 0 0)
(91.0366 0 0)
(91.1532 0 0)
(91.2698 0 0)
(91.3865 0 0)
(91.5032 0 0)
(91.6199 0 0)
(91.7367 0 0)
(91.8535 0 0)
(91.9703 0 0)
(92.0871 0 0)
(92.2039 0 0)
(92.3208 0 0)
(92.4377 0 0)
(92.5546 0 0)
(92.6716 0 0)
(92.7886 0 0)
(92.9056 0 0)
(93.0226 0 0)
(93.1396 0 0)
(93.2567 0 0)
(93.3738 0 0)
(93.4909 0 0)
(93.608 0 0)
(93.7251 0 0)
(93.8423 0 0)
(93.9595 0 0)
(94.0767 0 0)
(94.1939 0 0)
(94.3111 0 0)
(94.4283 0 0)
(94.5456 0 0)
(94.6628 0 0)
(94.7801 0 0)
(94.8974 0 0)
(95.0147 0 0)
(95.132 0 0)
(95.2493 0 0)
(95.3666 0 0)
(95.4839 0 0)
(95.6012 0 0)
(95.7185 0 0)
(95.8358 0 0)
(95.9531 0 0)
(96.0704 0 0)
(96.1877 0 0)
(96.305 0 0)
(96.4222 0 0)
(96.5395 0 0)
(96.6567 0 0)
(96.7739 0 0)
(96.8911 0 0)
(97.0082 0 0)
(97.1254 0 0)
(97.2425 0 0)
(97.3595 0 0)
(97.4765 0 0)
(97.5935 0 0)
(97.7104 0 0)
(97.8273 0 0)
(97.9441 0 0)
(98.0608 0 0)
(98.1775 0 0)
(98.2941 0 0)
(98.4107 0 0)
(98.5271 0 0)
(98.6435 0 0)
(98.7598 0 0)
(98.8759 0 0)
(98.992 0 0)
(99.108 0 0)
(99.2238 0 0)
(99.3395 0 0)
(99.4551 0 0)
(99.5706 0 0)
(99.6859 0 0)
(99.801 0 0)
(99.916 0 0)
(100.031 0 0)
(100.145 0 0)
(100.26 0 0)
(100.374 0 0)
(100.488 0 0)
(100.602 0 0)
(100.716 0 0)
(100.829 0 0)
(100.942 0 0)
(101.055 0 0)
(101.167 0 0)
(101.28 0 0)
(101.392 0 0)
(101.503 0 0)
(101.615 0 0)
(101.726 0 0)
(101.836 0 0)
(101.946 0 0)
(102.056 0 0)
(102.166 0 0)
(102.275 0 0)
(102.383 0 0)
(102.492 0 0)
(102.599 0 0)
(102.707 0 0)
(102.814 0 0)
(102.92 0 0)
(103.026 0 0)
(103.131 0 0)
(103.235 0 0)
(103.339 0 0)
(103.443 0 0)
(103.546 0 0)
(103.648 0 0)
(103.75 0 0)
(103.851 0 0)
(103.951 0 0)
(104.05 0 0)
(104.149 0 0)
(104.247 0 0)
(104.345 0 0)
(104.441 0 0)
(104.537 0 0)
(104.632 0 0)
(104.726 0 0)
(104.819 0 0)
(104.912 0 0)
(105.003 0 0)
(105.094 0 0)
(105.184 0 0)
(105.272 0 0)
(105.36 0 0)
(105.447 0 0)
(105.533 0 0)
(105.618 0 0)
(105.702 0 0)
(105.785 0 0)
(105.867 0 0)
(105.948 0 0)
(106.028 0 0)
(106.107 0 0)
(106.185 0 0)
(106.262 0 0)
(106.337 0 0)
(106.412 0 0)
(106.486 0 0)
(106.558 0 0)
(106.63 0 0)
(106.701 0 0)
(106.77 0 0)
(106.839 0 0)
(106.906 0 0)
(106.973 0 0)
(107.038 0 0)
(107.103 0 0)
(107.167 0 0)
(107.23 0 0)
(107.291 0 0)
(107.353 0 0)
(107.413 0 0)
(107.472 0 0)
(107.531 0 0)
(107.589 0 0)
(107.646 0 0)
(107.702 0 0)
(107.758 0 0)
(107.813 0 0)
(107.868 0 0)
(107.922 0 0)
(107.976 0 0)
(108.029 0 0)
(108.083 0 0)
(108.135 0 0)
(108.188 0 0)
(108.24 0 0)
(108.292 0 0)
(108.344 0 0)
(108.396 0 0)
(108.448 0 0)
(108.5 0 0)
(108.553 0 0)
(108.605 0 0)
(108.658 0 0)
(108.711 0 0)
(108.764 0 0)
(108.818 0 0)
(108.872 0 0)
(108.926 0 0)
(108.981 0 0)
(109.037 0 0)
(109.094 0 0)
(109.151 0 0)
(109.209 0 0)
(109.267 0 0)
(109.327 0 0)
(109.387 0 0)
(109.448 0 0)
(109.51 0 0)
(109.573 0 0)
(109.637 0 0)
(109.702 0 0)
(109.768 0 0)
(109.835 0 0)
(109.904 0 0)
(109.973 0 0)
(110.043 0 0)
(110.115 0 0)
(110.187 0 0)
(110.261 0 0)
(110.336 0 0)
(110.412 0 0)
(110.489 0 0)
(110.567 0 0)
(110.647 0 0)
(110.728 0 0)
(110.809 0 0)
(110.892 0 0)
(110.976 0 0)
(111.062 0 0)
(111.148 0 0)
(111.235 0 0)
(111.324 0 0)
(111.413 0 0)
(111.504 0 0)
(111.596 0 0)
(111.689 0 0)
(111.782 0 0)
(111.877 0 0)
(111.973 0 0)
(112.07 0 0)
(112.167 0 0)
(112.266 0 0)
(112.366 0 0)
(112.466 0 0)
(112.567 0 0)
(112.67 0 0)
(112.773 0 0)
(112.876 0 0)
(112.981 0 0)
(113.086 0 0)
(113.193 0 0)
(113.3 0 0)
(113.407 0 0)
(113.515 0 0)
(113.624 0 0)
(113.734 0 0)
(113.844 0 0)
(113.955 0 0)
(114.067 0 0)
(114.179 0 0)
(114.292 0 0)
(114.405 0 0)
(114.518 0 0)
(114.633 0 0)
(114.747 0 0)
(114.863 0 0)
(114.978 0 0)
(115.094 0 0)
(115.211 0 0)
(115.328 0 0)
(115.445 0 0)
(115.563 0 0)
(115.68 0 0)
(115.799 0 0)
(115.917 0 0)
(116.036 0 0)
(116.155 0 0)
(116.275 0 0)
(116.394 0 0)
(116.514 0 0)
(116.633 0 0)
(116.753 0 0)
(116.873 0 0)
(116.993 0 0)
(117.113 0 0)
(117.233 0 0)
(117.353 0 0)
(117.472 0 0)
(117.592 0 0)
(117.711 0 0)
(117.829 0 0)
(117.947 0 0)
(118.065 0 0)
(118.182 0 0)
(118.298 0 0)
(118.414 0 0)
(118.529 0 0)
(118.642 0 0)
(118.755 0 0)
(118.866 0 0)
(118.976 0 0)
(119.085 0 0)
(119.192 0 0)
(119.297 0 0)
(119.4 0 0)
(119.502 0 0)
(119.602 0 0)
(119.699 0 0)
(119.794 0 0)
(119.887 0 0)
(119.978 0 0)
(120.066 0 0)
(120.151 0 0)
(120.234 0 0)
(120.314 0 0)
(120.391 0 0)
(120.466 0 0)
(120.538 0 0)
(120.607 0 0)
(120.674 0 0)
(120.738 0 0)
(120.8 0 0)
(120.859 0 0)
(120.917 0 0)
(120.972 0 0)
(121.025 0 0)
(121.076 0 0)
(121.126 0 0)
(121.174 0 0)
(121.221 0 0)
(121.268 0 0)
(121.313 0 0)
(121.358 0 0)
(121.403 0 0)
(121.447 0 0)
(121.492 0 0)
(121.536 0 0)
(121.582 0 0)
(121.628 0 0)
(121.675 0 0)
(121.722 0 0)
(121.771 0 0)
(121.821 0 0)
(121.873 0 0)
(121.926 0 0)
(121.98 0 0)
(122.036 0 0)
(122.094 0 0)
(122.153 0 0)
(122.214 0 0)
(122.276 0 0)
(122.341 0 0)
(122.406 0 0)
(122.474 0 0)
(122.543 0 0)
(122.614 0 0)
(122.687 0 0)
(122.761 0 0)
(122.836 0 0)
(122.913 0 0)
(122.992 0 0)
(123.072 0 0)
(123.153 0 0)
(123.236 0 0)
(123.32 0 0)
(123.406 0 0)
(123.493 0 0)
(123.581 0 0)
(123.67 0 0)
(123.76 0 0)
(123.852 0 0)
(123.944 0 0)
(124.038 0 0)
(124.133 0 0)
(124.229 0 0)
(124.326 0 0)
(124.424 0 0)
(124.523 0 0)
(124.622 0 0)
(124.723 0 0)
(124.825 0 0)
(124.927 0 0)
(125.031 0 0)
(125.135 0 0)
(125.24 0 0)
(125.346 0 0)
(125.453 0 0)
(125.561 0 0)
(125.669 0 0)
(125.778 0 0)
(125.888 0 0)
(125.999 0 0)
(126.11 0 0)
(126.222 0 0)
(126.335 0 0)
(126.449 0 0)
(126.563 0 0)
(126.678 0 0)
(126.793 0 0)
(126.909 0 0)
(127.026 0 0)
(127.144 0 0)
(127.262 0 0)
(127.381 0 0)
(127.5 0 0)
(127.62 0 0)
(127.741 0 0)
(127.862 0 0)
(127.983 0 0)
(128.106 0 0)
(128.229 0 0)
(128.352 0 0)
(128.476 0 0)
(128.6 0 0)
(128.725 0 0)
(128.851 0 0)
(128.977 0 0)
(129.104 0 0)
(129.231 0 0)
(129.358 0 0)
(129.487 0 0)
(129.615 0 0)
(129.744 0 0)
(129.874 0 0)
(130.004 0 0)
(130.134 0 0)
(130.265 0 0)
(130.397 0 0)
(130.529 0 0)
(130.661 0 0)
(130.794 0 0)
(130.927 0 0)
(131.061 0 0)
(131.195 0 0)
(131.329 0 0)
(131.464 0 0)
(131.6 0 0)
(131.735 0 0)
(131.872 0 0)
(132.008 0 0)
(132.145 0 0)
(132.283 0 0)
(132.42 0 0)
(132.558 0 0)
(132.697 0 0)
(132.836 0 0)
(132.975 0 0)
(133.115 0 0)
(133.255 0 0)
(133.396 0 0)
(133.536 0 0)
(133.678 0 0)
(133.819 0 0)
(133.961 0 0)
(134.103 0 0)
(134.246 0 0)
(134.389 0 0)
(134.532 0 0)
(134.676 0 0)
(134.82 0 0)
(134.964 0 0)
(135.109 0 0)
(135.254 0 0)
(135.399 0 0)
(135.545 0 0)
(135.69 0 0)
(135.837 0 0)
(135.983 0 0)
(136.13 0 0)
(136.277 0 0)
(136.425 0 0)
(136.573 0 0)
(136.721 0 0)
(136.869 0 0)
(137.018 0 0)
(137.167 0 0)
(137.317 0 0)
(137.466 0 0)
(137.616 0 0)
(137.766 0 0)
(137.917 0 0)
(138.068 0 0)
(138.219 0 0)
(138.37 0 0)
(138.522 0 0)
(138.674 0 0)
(138.826 0 0)
(138.979 0 0)
(139.131 0 0)
(139.284 0 0)
(139.438 0 0)
(139.591 0 0)
(139.745 0 0)
(139.9 0 0)
(140.054 0 0)
(140.211 0 0)
(140.479 0 0)
)
;

boundaryField
{
    sides
    {
        type            zeroGradient;
    }
    empty
    {
        type            empty;
    }
}


// ************************************************************************* //
