/*--------------------------------*- C++ -*----------------------------------*\
  =========                 |
  \\      /  F ield         | OpenFOAM: The Open Source CFD Toolbox
   \\    /   O peration     | Website:  https://openfoam.org
    \\  /    A nd           | Version:  9
     \\/     M anipulation  |
\*---------------------------------------------------------------------------*/
FoamFile
{
    format      ascii;
    class       volVectorField;
    location    "0.048";
    object      U_0;
}
// * * * * * * * * * * * * * * * * * * * * * * * * * * * * * * * * * * * * * //

dimensions      [0 1 -1 0 0 0 0];

internalField   nonuniform List<vector> 
1000
(
(22.7287 0 0)
(22.9441 0 0)
(23.244 0 0)
(23.4896 0 0)
(23.6997 0 0)
(23.9066 0 0)
(24.119 0 0)
(24.3343 0 0)
(24.5496 0 0)
(24.7642 0 0)
(24.9784 0 0)
(25.1925 0 0)
(25.4066 0 0)
(25.6206 0 0)
(25.8345 0 0)
(26.0482 0 0)
(26.2618 0 0)
(26.4753 0 0)
(26.6886 0 0)
(26.9018 0 0)
(27.1148 0 0)
(27.3277 0 0)
(27.5404 0 0)
(27.753 0 0)
(27.9653 0 0)
(28.1775 0 0)
(28.3895 0 0)
(28.6013 0 0)
(28.813 0 0)
(29.0244 0 0)
(29.2356 0 0)
(29.4466 0 0)
(29.6574 0 0)
(29.868 0 0)
(30.0783 0 0)
(30.2885 0 0)
(30.4984 0 0)
(30.708 0 0)
(30.9174 0 0)
(31.1265 0 0)
(31.3354 0 0)
(31.544 0 0)
(31.7522 0 0)
(31.9603 0 0)
(32.168 0 0)
(32.3754 0 0)
(32.5825 0 0)
(32.7893 0 0)
(32.9957 0 0)
(33.2017 0 0)
(33.4074 0 0)
(33.6128 0 0)
(33.8177 0 0)
(34.0222 0 0)
(34.2263 0 0)
(34.43 0 0)
(34.6333 0 0)
(34.8361 0 0)
(35.0384 0 0)
(35.2402 0 0)
(35.4416 0 0)
(35.6424 0 0)
(35.8427 0 0)
(36.0425 0 0)
(36.2419 0 0)
(36.441 0 0)
(36.6396 0 0)
(36.8371 0 0)
(37.0339 0 0)
(37.2301 0 0)
(37.4257 0 0)
(37.6209 0 0)
(37.8155 0 0)
(38.0096 0 0)
(38.203 0 0)
(38.396 0 0)
(38.5882 0 0)
(38.7799 0 0)
(38.9709 0 0)
(39.1613 0 0)
(39.351 0 0)
(39.54 0 0)
(39.7282 0 0)
(39.9158 0 0)
(40.1025 0 0)
(40.2886 0 0)
(40.4739 0 0)
(40.6583 0 0)
(40.842 0 0)
(41.0249 0 0)
(41.207 0 0)
(41.3882 0 0)
(41.5686 0 0)
(41.7481 0 0)
(41.9268 0 0)
(42.1046 0 0)
(42.2814 0 0)
(42.4574 0 0)
(42.6324 0 0)
(42.8065 0 0)
(42.9796 0 0)
(43.1517 0 0)
(43.3229 0 0)
(43.4931 0 0)
(43.6623 0 0)
(43.8305 0 0)
(43.9976 0 0)
(44.1638 0 0)
(44.3289 0 0)
(44.4929 0 0)
(44.6559 0 0)
(44.8178 0 0)
(44.9786 0 0)
(45.1383 0 0)
(45.297 0 0)
(45.4545 0 0)
(45.6109 0 0)
(45.7663 0 0)
(45.9205 0 0)
(46.0735 0 0)
(46.2255 0 0)
(46.3763 0 0)
(46.526 0 0)
(46.6746 0 0)
(46.8221 0 0)
(46.9684 0 0)
(47.1136 0 0)
(47.2577 0 0)
(47.4006 0 0)
(47.5424 0 0)
(47.6832 0 0)
(47.8228 0 0)
(47.9613 0 0)
(48.0987 0 0)
(48.2351 0 0)
(48.3704 0 0)
(48.5046 0 0)
(48.6378 0 0)
(48.77 0 0)
(48.9011 0 0)
(49.0312 0 0)
(49.1604 0 0)
(49.2886 0 0)
(49.4158 0 0)
(49.5421 0 0)
(49.6675 0 0)
(49.792 0 0)
(49.9156 0 0)
(50.0383 0 0)
(50.1603 0 0)
(50.2814 0 0)
(50.4017 0 0)
(50.5213 0 0)
(50.6401 0 0)
(50.7582 0 0)
(50.8756 0 0)
(50.9924 0 0)
(51.1085 0 0)
(51.224 0 0)
(51.3388 0 0)
(51.4531 0 0)
(51.5669 0 0)
(51.6802 0 0)
(51.7929 0 0)
(51.9051 0 0)
(52.0169 0 0)
(52.1283 0 0)
(52.2393 0 0)
(52.3498 0 0)
(52.46 0 0)
(52.5699 0 0)
(52.6794 0 0)
(52.7886 0 0)
(52.8976 0 0)
(53.0062 0 0)
(53.1146 0 0)
(53.2228 0 0)
(53.3308 0 0)
(53.4386 0 0)
(53.5461 0 0)
(53.6535 0 0)
(53.7608 0 0)
(53.8679 0 0)
(53.9749 0 0)
(54.0817 0 0)
(54.1885 0 0)
(54.2951 0 0)
(54.4017 0 0)
(54.5082 0 0)
(54.6146 0 0)
(54.721 0 0)
(54.8273 0 0)
(54.9336 0 0)
(55.0398 0 0)
(55.146 0 0)
(55.2522 0 0)
(55.3583 0 0)
(55.4645 0 0)
(55.5706 0 0)
(55.6768 0 0)
(55.7829 0 0)
(55.8891 0 0)
(55.9952 0 0)
(56.1014 0 0)
(56.2075 0 0)
(56.3137 0 0)
(56.4199 0 0)
(56.5262 0 0)
(56.6324 0 0)
(56.7387 0 0)
(56.845 0 0)
(56.9514 0 0)
(57.0577 0 0)
(57.1641 0 0)
(57.2706 0 0)
(57.377 0 0)
(57.4835 0 0)
(57.5901 0 0)
(57.6966 0 0)
(57.8033 0 0)
(57.9099 0 0)
(58.0166 0 0)
(58.1234 0 0)
(58.2301 0 0)
(58.337 0 0)
(58.4438 0 0)
(58.5507 0 0)
(58.6577 0 0)
(58.7646 0 0)
(58.8717 0 0)
(58.9787 0 0)
(59.0859 0 0)
(59.193 0 0)
(59.3002 0 0)
(59.4075 0 0)
(59.5147 0 0)
(59.6221 0 0)
(59.7294 0 0)
(59.8369 0 0)
(59.9443 0 0)
(60.0518 0 0)
(60.1594 0 0)
(60.2669 0 0)
(60.3746 0 0)
(60.4822 0 0)
(60.59 0 0)
(60.6977 0 0)
(60.8055 0 0)
(60.9134 0 0)
(61.0213 0 0)
(61.1292 0 0)
(61.2372 0 0)
(61.3452 0 0)
(61.4533 0 0)
(61.5614 0 0)
(61.6695 0 0)
(61.7777 0 0)
(61.8859 0 0)
(61.9942 0 0)
(62.1025 0 0)
(62.2109 0 0)
(62.3193 0 0)
(62.4278 0 0)
(62.5363 0 0)
(62.6448 0 0)
(62.7534 0 0)
(62.862 0 0)
(62.9706 0 0)
(63.0793 0 0)
(63.1881 0 0)
(63.2968 0 0)
(63.4057 0 0)
(63.5145 0 0)
(63.6234 0 0)
(63.7324 0 0)
(63.8414 0 0)
(63.9504 0 0)
(64.0595 0 0)
(64.1686 0 0)
(64.2777 0 0)
(64.3869 0 0)
(64.4961 0 0)
(64.6054 0 0)
(64.7147 0 0)
(64.8241 0 0)
(64.9335 0 0)
(65.0429 0 0)
(65.1523 0 0)
(65.2618 0 0)
(65.3714 0 0)
(65.481 0 0)
(65.5906 0 0)
(65.7002 0 0)
(65.8099 0 0)
(65.9197 0 0)
(66.0294 0 0)
(66.1392 0 0)
(66.2491 0 0)
(66.3589 0 0)
(66.4689 0 0)
(66.5788 0 0)
(66.6888 0 0)
(66.7988 0 0)
(66.9089 0 0)
(67.019 0 0)
(67.1292 0 0)
(67.2393 0 0)
(67.3495 0 0)
(67.4598 0 0)
(67.5701 0 0)
(67.6804 0 0)
(67.7907 0 0)
(67.9011 0 0)
(68.0116 0 0)
(68.122 0 0)
(68.2325 0 0)
(68.343 0 0)
(68.4536 0 0)
(68.5642 0 0)
(68.6748 0 0)
(68.7855 0 0)
(68.8962 0 0)
(69.007 0 0)
(69.1177 0 0)
(69.2285 0 0)
(69.3394 0 0)
(69.4503 0 0)
(69.5612 0 0)
(69.6721 0 0)
(69.7831 0 0)
(69.8941 0 0)
(70.0051 0 0)
(70.1162 0 0)
(70.2273 0 0)
(70.3385 0 0)
(70.4497 0 0)
(70.5609 0 0)
(70.6721 0 0)
(70.7834 0 0)
(70.8947 0 0)
(71.0061 0 0)
(71.1174 0 0)
(71.2288 0 0)
(71.3403 0 0)
(71.4518 0 0)
(71.5633 0 0)
(71.6748 0 0)
(71.7864 0 0)
(71.898 0 0)
(72.0096 0 0)
(72.1213 0 0)
(72.233 0 0)
(72.3447 0 0)
(72.4565 0 0)
(72.5683 0 0)
(72.6801 0 0)
(72.792 0 0)
(72.9039 0 0)
(73.0158 0 0)
(73.1277 0 0)
(73.2397 0 0)
(73.3517 0 0)
(73.4638 0 0)
(73.5759 0 0)
(73.688 0 0)
(73.8001 0 0)
(73.9123 0 0)
(74.0245 0 0)
(74.1368 0 0)
(74.249 0 0)
(74.3613 0 0)
(74.4737 0 0)
(74.586 0 0)
(74.6984 0 0)
(74.8109 0 0)
(74.9233 0 0)
(75.0358 0 0)
(75.1483 0 0)
(75.2609 0 0)
(75.3735 0 0)
(75.4861 0 0)
(75.5987 0 0)
(75.7114 0 0)
(75.8241 0 0)
(75.9368 0 0)
(76.0496 0 0)
(76.1624 0 0)
(76.2752 0 0)
(76.3881 0 0)
(76.501 0 0)
(76.6139 0 0)
(76.7268 0 0)
(76.8398 0 0)
(76.9528 0 0)
(77.0659 0 0)
(77.1789 0 0)
(77.292 0 0)
(77.4052 0 0)
(77.5183 0 0)
(77.6315 0 0)
(77.7448 0 0)
(77.858 0 0)
(77.9713 0 0)
(78.0846 0 0)
(78.198 0 0)
(78.3113 0 0)
(78.4247 0 0)
(78.5382 0 0)
(78.6516 0 0)
(78.7651 0 0)
(78.8787 0 0)
(78.9922 0 0)
(79.1058 0 0)
(79.2194 0 0)
(79.333 0 0)
(79.4467 0 0)
(79.5604 0 0)
(79.6742 0 0)
(79.7879 0 0)
(79.9017 0 0)
(80.0155 0 0)
(80.1294 0 0)
(80.2433 0 0)
(80.3572 0 0)
(80.4711 0 0)
(80.5851 0 0)
(80.6991 0 0)
(80.8131 0 0)
(80.9272 0 0)
(81.0413 0 0)
(81.1554 0 0)
(81.2696 0 0)
(81.3837 0 0)
(81.4979 0 0)
(81.6122 0 0)
(81.7265 0 0)
(81.8407 0 0)
(81.9551 0 0)
(82.0694 0 0)
(82.1838 0 0)
(82.2982 0 0)
(82.4127 0 0)
(82.5271 0 0)
(82.6416 0 0)
(82.7562 0 0)
(82.8707 0 0)
(82.9853 0 0)
(83.1 0 0)
(83.2146 0 0)
(83.3293 0 0)
(83.444 0 0)
(83.5587 0 0)
(83.6735 0 0)
(83.7883 0 0)
(83.9031 0 0)
(84.018 0 0)
(84.1329 0 0)
(84.2478 0 0)
(84.3627 0 0)
(84.4777 0 0)
(84.5927 0 0)
(84.7077 0 0)
(84.8228 0 0)
(84.9379 0 0)
(85.053 0 0)
(85.1682 0 0)
(85.2833 0 0)
(85.3985 0 0)
(85.5138 0 0)
(85.629 0 0)
(85.7443 0 0)
(85.8597 0 0)
(85.975 0 0)
(86.0904 0 0)
(86.2058 0 0)
(86.3213 0 0)
(86.4367 0 0)
(86.5522 0 0)
(86.6678 0 0)
(86.7833 0 0)
(86.8989 0 0)
(87.0145 0 0)
(87.1302 0 0)
(87.2459 0 0)
(87.3616 0 0)
(87.4773 0 0)
(87.5931 0 0)
(87.7088 0 0)
(87.8247 0 0)
(87.9405 0 0)
(88.0564 0 0)
(88.1723 0 0)
(88.2882 0 0)
(88.4042 0 0)
(88.5202 0 0)
(88.6362 0 0)
(88.7523 0 0)
(88.8684 0 0)
(88.9845 0 0)
(89.1006 0 0)
(89.2168 0 0)
(89.333 0 0)
(89.4492 0 0)
(89.5655 0 0)
(89.6817 0 0)
(89.7981 0 0)
(89.9144 0 0)
(90.0308 0 0)
(90.1472 0 0)
(90.2636 0 0)
(90.38 0 0)
(90.4965 0 0)
(90.613 0 0)
(90.7296 0 0)
(90.8461 0 0)
(90.9627 0 0)
(91.0794 0 0)
(91.196 0 0)
(91.3127 0 0)
(91.4294 0 0)
(91.5461 0 0)
(91.6629 0 0)
(91.7796 0 0)
(91.8964 0 0)
(92.0133 0 0)
(92.1301 0 0)
(92.247 0 0)
(92.3639 0 0)
(92.4808 0 0)
(92.5978 0 0)
(92.7148 0 0)
(92.8318 0 0)
(92.9488 0 0)
(93.0658 0 0)
(93.1829 0 0)
(93.3 0 0)
(93.4171 0 0)
(93.5342 0 0)
(93.6514 0 0)
(93.7686 0 0)
(93.8858 0 0)
(94.003 0 0)
(94.1202 0 0)
(94.2374 0 0)
(94.3547 0 0)
(94.4719 0 0)
(94.5892 0 0)
(94.7065 0 0)
(94.8238 0 0)
(94.9411 0 0)
(95.0584 0 0)
(95.1758 0 0)
(95.2931 0 0)
(95.4104 0 0)
(95.5278 0 0)
(95.6451 0 0)
(95.7625 0 0)
(95.8798 0 0)
(95.9971 0 0)
(96.1145 0 0)
(96.2318 0 0)
(96.3491 0 0)
(96.4664 0 0)
(96.5837 0 0)
(96.7009 0 0)
(96.8182 0 0)
(96.9354 0 0)
(97.0526 0 0)
(97.1697 0 0)
(97.2869 0 0)
(97.4039 0 0)
(97.521 0 0)
(97.638 0 0)
(97.755 0 0)
(97.8719 0 0)
(97.9887 0 0)
(98.1055 0 0)
(98.2222 0 0)
(98.3389 0 0)
(98.4555 0 0)
(98.572 0 0)
(98.6884 0 0)
(98.8047 0 0)
(98.921 0 0)
(99.0371 0 0)
(99.1531 0 0)
(99.269 0 0)
(99.3848 0 0)
(99.5004 0 0)
(99.6159 0 0)
(99.7313 0 0)
(99.8465 0 0)
(99.9615 0 0)
(100.076 0 0)
(100.191 0 0)
(100.306 0 0)
(100.42 0 0)
(100.534 0 0)
(100.648 0 0)
(100.762 0 0)
(100.875 0 0)
(100.988 0 0)
(101.101 0 0)
(101.214 0 0)
(101.326 0 0)
(101.438 0 0)
(101.55 0 0)
(101.661 0 0)
(101.772 0 0)
(101.883 0 0)
(101.993 0 0)
(102.103 0 0)
(102.213 0 0)
(102.322 0 0)
(102.431 0 0)
(102.539 0 0)
(102.647 0 0)
(102.754 0 0)
(102.861 0 0)
(102.968 0 0)
(103.074 0 0)
(103.179 0 0)
(103.284 0 0)
(103.388 0 0)
(103.492 0 0)
(103.595 0 0)
(103.697 0 0)
(103.799 0 0)
(103.9 0 0)
(104 0 0)
(104.1 0 0)
(104.199 0 0)
(104.297 0 0)
(104.395 0 0)
(104.491 0 0)
(104.587 0 0)
(104.682 0 0)
(104.777 0 0)
(104.87 0 0)
(104.963 0 0)
(105.055 0 0)
(105.145 0 0)
(105.235 0 0)
(105.324 0 0)
(105.412 0 0)
(105.499 0 0)
(105.586 0 0)
(105.671 0 0)
(105.755 0 0)
(105.838 0 0)
(105.92 0 0)
(106.001 0 0)
(106.082 0 0)
(106.161 0 0)
(106.239 0 0)
(106.316 0 0)
(106.392 0 0)
(106.467 0 0)
(106.541 0 0)
(106.614 0 0)
(106.685 0 0)
(106.756 0 0)
(106.826 0 0)
(106.895 0 0)
(106.962 0 0)
(107.029 0 0)
(107.095 0 0)
(107.16 0 0)
(107.224 0 0)
(107.287 0 0)
(107.349 0 0)
(107.41 0 0)
(107.47 0 0)
(107.53 0 0)
(107.589 0 0)
(107.647 0 0)
(107.704 0 0)
(107.761 0 0)
(107.817 0 0)
(107.872 0 0)
(107.927 0 0)
(107.981 0 0)
(108.035 0 0)
(108.089 0 0)
(108.142 0 0)
(108.194 0 0)
(108.247 0 0)
(108.299 0 0)
(108.352 0 0)
(108.404 0 0)
(108.456 0 0)
(108.508 0 0)
(108.56 0 0)
(108.612 0 0)
(108.665 0 0)
(108.717 0 0)
(108.77 0 0)
(108.823 0 0)
(108.877 0 0)
(108.931 0 0)
(108.986 0 0)
(109.041 0 0)
(109.096 0 0)
(109.153 0 0)
(109.21 0 0)
(109.268 0 0)
(109.326 0 0)
(109.385 0 0)
(109.446 0 0)
(109.507 0 0)
(109.569 0 0)
(109.631 0 0)
(109.695 0 0)
(109.76 0 0)
(109.826 0 0)
(109.893 0 0)
(109.961 0 0)
(110.03 0 0)
(110.1 0 0)
(110.172 0 0)
(110.244 0 0)
(110.318 0 0)
(110.392 0 0)
(110.468 0 0)
(110.545 0 0)
(110.623 0 0)
(110.703 0 0)
(110.783 0 0)
(110.865 0 0)
(110.948 0 0)
(111.032 0 0)
(111.117 0 0)
(111.203 0 0)
(111.29 0 0)
(111.378 0 0)
(111.468 0 0)
(111.558 0 0)
(111.65 0 0)
(111.742 0 0)
(111.836 0 0)
(111.931 0 0)
(112.026 0 0)
(112.123 0 0)
(112.221 0 0)
(112.319 0 0)
(112.419 0 0)
(112.519 0 0)
(112.62 0 0)
(112.722 0 0)
(112.825 0 0)
(112.929 0 0)
(113.033 0 0)
(113.139 0 0)
(113.245 0 0)
(113.352 0 0)
(113.459 0 0)
(113.567 0 0)
(113.676 0 0)
(113.786 0 0)
(113.896 0 0)
(114.007 0 0)
(114.118 0 0)
(114.23 0 0)
(114.343 0 0)
(114.456 0 0)
(114.57 0 0)
(114.684 0 0)
(114.799 0 0)
(114.914 0 0)
(115.029 0 0)
(115.145 0 0)
(115.262 0 0)
(115.379 0 0)
(115.496 0 0)
(115.613 0 0)
(115.731 0 0)
(115.85 0 0)
(115.968 0 0)
(116.087 0 0)
(116.206 0 0)
(116.325 0 0)
(116.445 0 0)
(116.565 0 0)
(116.684 0 0)
(116.804 0 0)
(116.924 0 0)
(117.044 0 0)
(117.164 0 0)
(117.284 0 0)
(117.404 0 0)
(117.523 0 0)
(117.643 0 0)
(117.762 0 0)
(117.881 0 0)
(117.999 0 0)
(118.117 0 0)
(118.234 0 0)
(118.35 0 0)
(118.466 0 0)
(118.581 0 0)
(118.695 0 0)
(118.807 0 0)
(118.919 0 0)
(119.029 0 0)
(119.138 0 0)
(119.245 0 0)
(119.351 0 0)
(119.455 0 0)
(119.557 0 0)
(119.657 0 0)
(119.755 0 0)
(119.85 0 0)
(119.944 0 0)
(120.035 0 0)
(120.123 0 0)
(120.209 0 0)
(120.292 0 0)
(120.373 0 0)
(120.451 0 0)
(120.526 0 0)
(120.598 0 0)
(120.668 0 0)
(120.735 0 0)
(120.8 0 0)
(120.862 0 0)
(120.922 0 0)
(120.979 0 0)
(121.035 0 0)
(121.088 0 0)
(121.14 0 0)
(121.19 0 0)
(121.238 0 0)
(121.286 0 0)
(121.332 0 0)
(121.378 0 0)
(121.423 0 0)
(121.467 0 0)
(121.512 0 0)
(121.557 0 0)
(121.601 0 0)
(121.647 0 0)
(121.693 0 0)
(121.739 0 0)
(121.787 0 0)
(121.836 0 0)
(121.886 0 0)
(121.937 0 0)
(121.99 0 0)
(122.044 0 0)
(122.099 0 0)
(122.157 0 0)
(122.216 0 0)
(122.276 0 0)
(122.339 0 0)
(122.403 0 0)
(122.468 0 0)
(122.536 0 0)
(122.605 0 0)
(122.675 0 0)
(122.748 0 0)
(122.821 0 0)
(122.897 0 0)
(122.974 0 0)
(123.052 0 0)
(123.132 0 0)
(123.213 0 0)
(123.296 0 0)
(123.38 0 0)
(123.465 0 0)
(123.552 0 0)
(123.639 0 0)
(123.729 0 0)
(123.819 0 0)
(123.91 0 0)
(124.003 0 0)
(124.096 0 0)
(124.191 0 0)
(124.287 0 0)
(124.383 0 0)
(124.481 0 0)
(124.58 0 0)
(124.68 0 0)
(124.78 0 0)
(124.882 0 0)
(124.984 0 0)
(125.088 0 0)
(125.192 0 0)
(125.297 0 0)
(125.403 0 0)
(125.509 0 0)
(125.617 0 0)
(125.725 0 0)
(125.834 0 0)
(125.944 0 0)
(126.055 0 0)
(126.166 0 0)
(126.278 0 0)
(126.391 0 0)
(126.504 0 0)
(126.618 0 0)
(126.733 0 0)
(126.849 0 0)
(126.965 0 0)
(127.081 0 0)
(127.199 0 0)
(127.317 0 0)
(127.436 0 0)
(127.555 0 0)
(127.675 0 0)
(127.795 0 0)
(127.916 0 0)
(128.038 0 0)
(128.16 0 0)
(128.283 0 0)
(128.407 0 0)
(128.53 0 0)
(128.655 0 0)
(128.78 0 0)
(128.905 0 0)
(129.031 0 0)
(129.158 0 0)
(129.285 0 0)
(129.413 0 0)
(129.541 0 0)
(129.669 0 0)
(129.798 0 0)
(129.928 0 0)
(130.058 0 0)
(130.188 0 0)
(130.319 0 0)
(130.451 0 0)
(130.582 0 0)
(130.715 0 0)
(130.847 0 0)
(130.981 0 0)
(131.114 0 0)
(131.248 0 0)
(131.383 0 0)
(131.518 0 0)
(131.653 0 0)
(131.789 0 0)
(131.925 0 0)
(132.062 0 0)
(132.199 0 0)
(132.336 0 0)
(132.474 0 0)
(132.612 0 0)
(132.75 0 0)
(132.889 0 0)
(133.029 0 0)
(133.168 0 0)
(133.308 0 0)
(133.449 0 0)
(133.59 0 0)
(133.731 0 0)
(133.872 0 0)
(134.014 0 0)
(134.156 0 0)
(134.299 0 0)
(134.442 0 0)
(134.585 0 0)
(134.729 0 0)
(134.873 0 0)
(135.017 0 0)
(135.162 0 0)
(135.307 0 0)
(135.452 0 0)
(135.597 0 0)
(135.743 0 0)
(135.89 0 0)
(136.036 0 0)
(136.183 0 0)
(136.33 0 0)
(136.478 0 0)
(136.626 0 0)
(136.774 0 0)
(136.922 0 0)
(137.071 0 0)
(137.22 0 0)
(137.369 0 0)
(137.519 0 0)
(137.669 0 0)
(137.819 0 0)
(137.97 0 0)
(138.121 0 0)
(138.272 0 0)
(138.423 0 0)
(138.575 0 0)
(138.727 0 0)
(138.879 0 0)
(139.031 0 0)
(139.184 0 0)
(139.337 0 0)
(139.49 0 0)
(139.644 0 0)
(139.798 0 0)
(139.952 0 0)
(140.107 0 0)
(140.264 0 0)
(140.532 0 0)
)
;

boundaryField
{
    sides
    {
        type            zeroGradient;
    }
    empty
    {
        type            empty;
    }
}


// ************************************************************************* //
