/*--------------------------------*- C++ -*----------------------------------*\
  =========                 |
  \\      /  F ield         | OpenFOAM: The Open Source CFD Toolbox
   \\    /   O peration     | Website:  https://openfoam.org
    \\  /    A nd           | Version:  9
     \\/     M anipulation  |
\*---------------------------------------------------------------------------*/
FoamFile
{
    format      ascii;
    class       volScalarField;
    location    "0.016";
    object      p;
}
// * * * * * * * * * * * * * * * * * * * * * * * * * * * * * * * * * * * * * //

dimensions      [1 -1 -2 0 0 0 0];

internalField   nonuniform List<scalar> 
100
(
68688.7
68224
67869.9
67498.7
67093.4
66662.2
66200.1
65702
65162.2
64574
63929.8
63222.8
62449
61608.3
60705.8
59750.1
58753
57726.8
56683.9
55634.1
54587.1
53545.9
52520.8
51505.4
50513.1
49534.8
48577
47638.9
46717.9
45818.7
44939.5
44078.9
43239.3
42420.8
41622.5
40845.2
40089.3
39355.2
38643.9
37955.7
37290.5
36649.4
36034.3
35446.3
34884.9
34350.7
33846.4
33374.4
32935.3
32529
32156.6
31818.7
31522.2
31260.1
31037.9
30843.6
30696
30565.3
30468.3
30414.4
30355.5
30323.5
30301.3
30283.4
30280.4
30276.3
30275.3
30275.5
30276
30277.4
30277.7
30278.4
30279
30280.7
30282.9
30286.2
30295
30302.5
30312.6
30321.9
30344.3
30371.7
30398.7
30427.7
30455.5
30473.4
30486.5
30542.1
30552.1
30563.1
30562
30546.5
30548.1
30617.3
30624.5
30610.7
30610.3
30627.5
30619.3
30618.8
)
;

boundaryField
{
    sides
    {
        type            zeroGradient;
    }
    empty
    {
        type            empty;
    }
}


// ************************************************************************* //
