/*--------------------------------*- C++ -*----------------------------------*\
  =========                 |
  \\      /  F ield         | OpenFOAM: The Open Source CFD Toolbox
   \\    /   O peration     | Website:  https://openfoam.org
    \\  /    A nd           | Version:  9
     \\/     M anipulation  |
\*---------------------------------------------------------------------------*/
FoamFile
{
    format      ascii;
    class       volScalarField;
    location    "0.05";
    object      p;
}
// * * * * * * * * * * * * * * * * * * * * * * * * * * * * * * * * * * * * * //

dimensions      [1 -1 -2 0 0 0 0];

internalField   nonuniform List<scalar> 
1000
(
8703.95
8703.22
8701.94
8700.84
8699.94
8699.11
8698.29
8697.49
8696.71
8695.97
8695.26
8694.59
8693.94
8693.33
8692.75
8692.2
8691.68
8691.2
8690.75
8690.34
8689.95
8689.6
8689.29
8689.01
8688.76
8688.55
8688.38
8688.24
8688.13
8688.07
8688.04
8688.04
8688.07
8688.15
8688.27
8688.43
8688.63
8688.87
8689.15
8689.46
8689.82
8690.22
8690.65
8691.13
8691.66
8692.22
8692.83
8693.48
8694.17
8694.91
8695.69
8696.52
8697.4
8698.31
8699.28
8700.29
8701.35
8702.46
8703.61
8704.81
8706.06
8707.36
8708.71
8710.11
8711.55
8713.05
8714.6
8716.2
8717.85
8719.55
8721.3
8723.1
8724.96
8726.87
8728.83
8730.84
8732.9
8735.02
8737.19
8739.41
8741.69
8744.01
8746.39
8748.83
8751.31
8753.85
8756.44
8759.08
8761.77
8764.52
8767.31
8770.16
8773.06
8776
8779
8782.05
8785.15
8788.29
8791.48
8794.72
8798.01
8801.34
8804.72
8808.14
8811.61
8815.12
8818.67
8822.27
8825.9
8829.58
8833.3
8837.05
8840.85
8844.68
8848.55
8852.45
8856.38
8860.36
8864.36
8868.39
8872.46
8876.56
8880.68
8884.84
8889.02
8893.23
8897.47
8901.73
8906.01
8910.32
8914.65
8919.01
8923.38
8927.78
8932.19
8936.63
8941.08
8945.55
8950.04
8954.55
8959.07
8963.6
8968.15
8972.72
8977.3
8981.89
8986.49
8991.11
8995.74
9000.38
9005.03
9009.7
9014.37
9019.05
9023.75
9028.45
9033.16
9037.88
9042.61
9047.34
9052.09
9056.84
9061.6
9066.37
9071.14
9075.93
9080.72
9085.51
9090.31
9095.12
9099.94
9104.76
9109.59
9114.42
9119.26
9124.11
9128.96
9133.82
9138.68
9143.55
9148.42
9153.3
9158.19
9163.08
9167.98
9172.88
9177.78
9182.69
9187.61
9192.53
9197.46
9202.39
9207.33
9212.27
9217.22
9222.17
9227.13
9232.09
9237.06
9242.03
9247.01
9251.99
9256.98
9261.97
9266.96
9271.97
9276.97
9281.98
9287
9292.02
9297.04
9302.07
9307.11
9312.15
9317.19
9322.24
9327.3
9332.36
9337.42
9342.49
9347.56
9352.64
9357.72
9362.81
9367.9
9372.99
9378.09
9383.2
9388.31
9393.42
9398.54
9403.67
9408.79
9413.93
9419.06
9424.21
9429.35
9434.5
9439.66
9444.82
9449.99
9455.16
9460.33
9465.51
9470.69
9475.88
9481.07
9486.27
9491.47
9496.68
9501.89
9507.1
9512.32
9517.55
9522.77
9528.01
9533.24
9538.49
9543.73
9548.98
9554.24
9559.5
9564.77
9570.03
9575.31
9580.59
9585.87
9591.16
9596.45
9601.74
9607.04
9612.35
9617.66
9622.97
9628.29
9633.62
9638.94
9644.28
9649.61
9654.95
9660.3
9665.65
9671
9676.36
9681.73
9687.1
9692.47
9697.85
9703.23
9708.61
9714
9719.4
9724.8
9730.2
9735.61
9741.03
9746.44
9751.87
9757.29
9762.72
9768.16
9773.6
9779.04
9784.49
9789.95
9795.4
9800.87
9806.33
9811.81
9817.28
9822.76
9828.25
9833.74
9839.23
9844.73
9850.23
9855.74
9861.25
9866.77
9872.29
9877.82
9883.35
9888.88
9894.42
9899.96
9905.51
9911.06
9916.62
9922.18
9927.75
9933.32
9938.9
9944.48
9950.06
9955.65
9961.24
9966.84
9972.44
9978.05
9983.66
9989.28
9994.9
10000.5
10006.2
10011.8
10017.4
10023.1
10028.7
10034.4
10040
10045.7
10051.3
10057
10062.7
10068.4
10074.1
10079.7
10085.4
10091.1
10096.8
10102.5
10108.3
10114
10119.7
10125.4
10131.1
10136.9
10142.6
10148.4
10154.1
10159.9
10165.6
10171.4
10177.1
10182.9
10188.7
10194.5
10200.2
10206
10211.8
10217.6
10223.4
10229.2
10235
10240.9
10246.7
10252.5
10258.3
10264.2
10270
10275.8
10281.7
10287.5
10293.4
10299.3
10305.1
10311
10316.9
10322.7
10328.6
10334.5
10340.4
10346.3
10352.2
10358.1
10364
10369.9
10375.9
10381.8
10387.7
10393.7
10399.6
10405.5
10411.5
10417.4
10423.4
10429.4
10435.3
10441.3
10447.3
10453.3
10459.2
10465.2
10471.2
10477.2
10483.2
10489.2
10495.2
10501.3
10507.3
10513.3
10519.3
10525.4
10531.4
10537.5
10543.5
10549.6
10555.6
10561.7
10567.8
10573.8
10579.9
10586
10592.1
10598.2
10604.3
10610.4
10616.5
10622.6
10628.7
10634.8
10640.9
10647.1
10653.2
10659.3
10665.5
10671.6
10677.8
10684
10690.1
10696.3
10702.5
10708.6
10714.8
10721
10727.2
10733.4
10739.6
10745.8
10752
10758.2
10764.4
10770.6
10776.9
10783.1
10789.3
10795.6
10801.8
10808.1
10814.3
10820.6
10826.9
10833.1
10839.4
10845.7
10852
10858.3
10864.6
10870.9
10877.2
10883.5
10889.8
10896.1
10902.4
10908.8
10915.1
10921.4
10927.8
10934.1
10940.5
10946.8
10953.2
10959.6
10965.9
10972.3
10978.7
10985.1
10991.5
10997.9
11004.3
11010.7
11017.1
11023.5
11029.9
11036.3
11042.8
11049.2
11055.6
11062.1
11068.5
11075
11081.4
11087.9
11094.4
11100.8
11107.3
11113.8
11120.3
11126.8
11133.3
11139.8
11146.3
11152.8
11159.3
11165.8
11172.4
11178.9
11185.4
11192
11198.5
11205.1
11211.6
11218.2
11224.8
11231.3
11237.9
11244.5
11251.1
11257.7
11264.3
11270.9
11277.5
11284.1
11290.7
11297.3
11304
11310.6
11317.2
11323.9
11330.5
11337.2
11343.8
11350.5
11357.2
11363.8
11370.5
11377.2
11383.9
11390.6
11397.3
11404
11410.7
11417.4
11424.1
11430.8
11437.6
11444.3
11451
11457.8
11464.5
11471.3
11478.1
11484.8
11491.6
11498.4
11505.2
11512
11518.8
11525.6
11532.4
11539.2
11546
11552.9
11559.7
11566.6
11573.4
11580.3
11587.2
11594
11600.9
11607.8
11614.8
11621.7
11628.6
11635.6
11642.5
11649.5
11656.5
11663.5
11670.5
11677.5
11684.6
11691.6
11698.7
11705.8
11712.9
11720
11727.2
11734.3
11741.5
11748.7
11756
11763.2
11770.5
11777.8
11785.1
11792.5
11799.9
11807.3
11814.7
11822.2
11829.7
11837.2
11844.8
11852.4
11860
11867.7
11875.4
11883.1
11890.9
11898.7
11906.5
11914.4
11922.4
11930.3
11938.3
11946.4
11954.5
11962.6
11970.8
11979
11987.3
11995.6
12003.9
12012.3
12020.7
12029.2
12037.7
12046.2
12054.8
12063.4
12072
12080.7
12089.4
12098.2
12106.9
12115.7
12124.6
12133.4
12142.3
12151.2
12160.1
12169
12178
12187
12195.9
12204.9
12213.9
12222.9
12231.9
12240.9
12249.9
12258.8
12267.8
12276.8
12285.8
12294.7
12303.7
12312.6
12321.5
12330.4
12339.3
12348.1
12356.9
12365.8
12374.5
12383.3
12392
12400.8
12409.4
12418.1
12426.7
12435.3
12443.9
12452.5
12461
12469.5
12477.9
12486.4
12494.8
12503.2
12511.6
12519.9
12528.2
12536.5
12544.8
12553
12561.3
12569.5
12577.6
12585.8
12594
12602.1
12610.2
12618.3
12626.4
12634.4
12642.5
12650.5
12658.5
12666.6
12674.6
12682.5
12690.5
12698.5
12706.5
12714.4
12722.4
12730.3
12738.2
12746.2
12754.1
12762
12769.9
12777.9
12785.8
12793.7
12801.6
12809.5
12817.4
12825.3
12833.3
12841.2
12849.1
12857
12865
12872.9
12880.9
12888.8
12896.8
12904.8
12912.8
12920.8
12928.9
12937
12945.1
12953.2
12961.3
12969.5
12977.8
12986
12994.4
13002.7
13011.1
13019.6
13028.2
13036.8
13045.5
13054.2
13063.1
13072
13081
13090.2
13099.4
13108.7
13118.2
13127.8
13137.5
13147.3
13157.3
13167.4
13177.7
13188
13198.6
13209.3
13220.1
13231.1
13242.2
13253.5
13264.9
13276.5
13288.2
13300.1
13312
13324.1
13336.4
13348.7
13361.1
13373.6
13386.2
13398.9
13411.6
13424.4
13437.3
13450.1
13463
13475.9
13488.8
13501.7
13514.6
13527.5
13540.3
13553.1
13565.8
13578.5
13591.1
13603.6
13616.1
13628.5
13640.8
13653.1
13665.2
13677.3
13689.3
13701.2
13713
13724.8
13736.4
13748
13759.5
13770.9
13782.2
13793.4
13804.6
13815.7
13826.7
13837.7
13848.5
13859.3
13870.1
13880.7
13891.3
13901.9
13912.4
13922.8
13933.2
13943.5
13953.7
13963.9
13974.1
13984.2
13994.2
14004.2
14014.2
14024.1
14034
14043.8
14053.6
14063.3
14073
14082.7
14092.3
14101.8
14111.4
14120.9
14130.3
14139.8
14149.1
14158.5
14167.8
14177.1
14186.3
14195.6
14204.7
14213.9
14223
14232.1
14241.2
14250.2
14259.2
14268.2
14277.1
14286
14294.9
14303.8
14312.6
14321.4
14330.2
14338.9
14347.7
14356.4
14365
14373.7
14382.3
14390.9
14399.5
14408.1
14416.6
14425.1
14433.6
14442.1
14450.5
14458.9
14467.3
14475.7
14484.1
14492.4
14500.7
14509
14517.3
14525.5
14533.8
14542
14550.2
14558.4
14566.5
14574.7
14582.8
14590.9
14599
14607.1
14615.1
14623.2
14631.2
14639.2
14647.2
14655.1
14663.1
14671
14678.9
14686.8
14694.7
14702.6
14710.4
14718.3
14726.1
14733.9
14741.7
14749.4
14757.2
14765
14772.7
14780.4
14788.1
14795.8
14803.5
14811.1
14818.8
14826.4
14834
14841.6
14849.2
14856.8
14864.3
14871.9
14879.4
14887
14894.5
14902
14909.5
14916.9
14924.4
14931.8
14939.3
14946.7
14954.1
14961.5
14968.9
14976.3
14983.6
14991
14998.3
15005.7
15013
15020.3
15027.6
15034.9
15042.1
15049.4
15056.7
15063.9
15071.1
15078.3
15085.5
15092.7
15099.9
15107.1
15114.3
15121.4
15128.4
)
;

boundaryField
{
    sides
    {
        type            zeroGradient;
    }
    empty
    {
        type            empty;
    }
}


// ************************************************************************* //
