/*--------------------------------*- C++ -*----------------------------------*\
  =========                 |
  \\      /  F ield         | OpenFOAM: The Open Source CFD Toolbox
   \\    /   O peration     | Website:  https://openfoam.org
    \\  /    A nd           | Version:  9
     \\/     M anipulation  |
\*---------------------------------------------------------------------------*/
FoamFile
{
    format      ascii;
    class       volScalarField;
    location    "0.05";
    object      T;
}
// * * * * * * * * * * * * * * * * * * * * * * * * * * * * * * * * * * * * * //

dimensions      [0 0 0 1 0 0 0];

internalField   nonuniform List<scalar> 
1000
(
171.796
171.8
171.808
171.819
171.831
171.843
171.856
171.869
171.882
171.896
171.91
171.925
171.939
171.954
171.969
171.985
172.001
172.017
172.033
172.049
172.066
172.083
172.1
172.118
172.135
172.152
172.17
172.188
172.207
172.226
172.245
172.264
172.283
172.302
172.321
172.341
172.361
172.382
172.403
172.425
172.446
172.467
172.488
172.509
172.529
172.551
172.573
172.595
172.619
172.643
172.668
172.693
172.717
172.741
172.765
172.788
172.81
172.833
172.856
172.879
172.904
172.929
172.956
172.984
173.013
173.043
173.073
173.104
173.134
173.164
173.193
173.221
173.248
173.273
173.297
173.32
173.341
173.362
173.383
173.403
173.422
173.442
173.462
173.482
173.501
173.521
173.539
173.557
173.575
173.592
173.608
173.625
173.641
173.658
173.675
173.692
173.71
173.727
173.745
173.763
173.782
173.8
173.819
173.839
173.858
173.878
173.898
173.918
173.938
173.959
173.98
174.001
174.022
174.044
174.066
174.087
174.11
174.132
174.154
174.177
174.2
174.223
174.246
174.269
174.292
174.316
174.34
174.364
174.387
174.412
174.436
174.46
174.485
174.509
174.534
174.558
174.583
174.608
174.633
174.658
174.683
174.709
174.734
174.759
174.785
174.81
174.836
174.862
174.887
174.913
174.939
174.965
174.991
175.017
175.043
175.069
175.095
175.121
175.147
175.173
175.199
175.226
175.252
175.278
175.305
175.331
175.357
175.384
175.41
175.437
175.463
175.49
175.517
175.543
175.57
175.596
175.623
175.65
175.676
175.703
175.73
175.757
175.783
175.81
175.837
175.864
175.891
175.918
175.945
175.971
175.998
176.025
176.052
176.079
176.106
176.133
176.16
176.187
176.215
176.242
176.269
176.296
176.323
176.35
176.377
176.404
176.432
176.459
176.486
176.513
176.541
176.568
176.595
176.623
176.65
176.677
176.705
176.732
176.759
176.787
176.814
176.842
176.869
176.896
176.924
176.951
176.979
177.006
177.034
177.062
177.089
177.117
177.144
177.172
177.2
177.227
177.255
177.282
177.31
177.338
177.366
177.393
177.421
177.449
177.476
177.504
177.532
177.56
177.588
177.615
177.643
177.671
177.699
177.727
177.755
177.783
177.811
177.839
177.866
177.895
177.922
177.951
177.978
178.007
178.034
178.063
178.09
178.119
178.147
178.175
178.203
178.231
178.259
178.287
178.315
178.344
178.372
178.4
178.428
178.456
178.485
178.513
178.541
178.569
178.598
178.626
178.654
178.683
178.711
178.739
178.768
178.796
178.824
178.853
178.881
178.91
178.938
178.967
178.995
179.023
179.052
179.08
179.109
179.138
179.166
179.195
179.223
179.252
179.28
179.309
179.337
179.366
179.395
179.423
179.452
179.481
179.509
179.538
179.567
179.596
179.624
179.653
179.681
179.711
179.739
179.768
179.797
179.826
179.854
179.884
179.912
179.941
179.97
179.999
180.027
180.057
180.085
180.115
180.143
180.173
180.201
180.231
180.259
180.289
180.317
180.347
180.375
180.405
180.433
180.463
180.491
180.521
180.55
180.579
180.608
180.638
180.666
180.696
180.725
180.754
180.783
180.813
180.841
180.871
180.9
180.93
180.958
180.988
181.017
181.047
181.076
181.106
181.134
181.164
181.193
181.223
181.252
181.282
181.311
181.341
181.369
181.4
181.428
181.459
181.487
181.517
181.546
181.577
181.605
181.636
181.664
181.695
181.724
181.754
181.783
181.813
181.842
181.872
181.901
181.932
181.961
181.991
182.02
182.05
182.079
182.11
182.139
182.169
182.198
182.229
182.258
182.288
182.317
182.348
182.377
182.408
182.437
182.467
182.496
182.527
182.556
182.587
182.616
182.647
182.676
182.707
182.736
182.766
182.796
182.826
182.856
182.886
182.916
182.947
182.976
183.007
183.036
183.067
183.096
183.127
183.156
183.187
183.216
183.247
183.277
183.308
183.337
183.368
183.397
183.429
183.458
183.489
183.518
183.549
183.579
183.61
183.639
183.671
183.7
183.731
183.761
183.792
183.821
183.853
183.882
183.913
183.943
183.974
184.003
184.035
184.064
184.096
184.125
184.157
184.186
184.219
184.246
184.28
184.307
184.341
184.368
184.403
184.428
184.465
184.489
184.527
184.549
184.589
184.61
184.65
184.671
184.712
184.732
184.773
184.794
184.834
184.855
184.896
184.916
184.957
184.978
185.019
185.039
185.081
185.101
185.142
185.163
185.204
185.224
185.266
185.286
185.327
185.348
185.389
185.41
185.451
185.472
185.513
185.533
185.575
185.595
185.637
185.657
185.699
185.719
185.761
185.781
185.823
185.844
185.885
185.906
185.947
185.968
186.009
186.03
186.072
186.092
186.134
186.155
186.196
186.217
186.259
186.28
186.321
186.342
186.384
186.405
186.446
186.467
186.509
186.53
186.572
186.592
186.634
186.655
186.697
186.718
186.76
186.781
186.823
186.843
186.885
186.906
186.948
186.969
187.011
187.032
187.074
187.095
187.137
187.158
187.2
187.221
187.263
187.284
187.326
187.348
187.39
187.411
187.453
187.474
187.516
187.537
187.58
187.601
187.643
187.664
187.707
187.728
187.77
187.791
187.834
187.855
187.898
187.919
187.961
187.983
188.025
188.047
188.089
188.111
188.154
188.175
188.218
188.239
188.282
188.304
188.347
188.369
188.412
188.434
188.477
188.499
188.542
188.564
188.608
188.63
188.674
188.696
188.739
188.764
188.805
188.831
188.871
188.9
188.937
188.968
189.004
189.035
189.073
189.103
189.142
189.171
189.212
189.24
189.283
189.309
189.354
189.379
189.426
189.45
189.497
189.521
189.57
189.594
189.642
189.667
189.716
189.741
189.79
189.815
189.865
189.89
189.941
189.966
190.017
190.043
190.094
190.12
190.171
190.198
190.25
190.276
190.328
190.355
190.407
190.434
190.487
190.513
190.567
190.593
190.647
190.674
190.727
190.754
190.808
190.834
190.888
190.915
190.969
190.996
191.049
191.076
191.13
191.156
191.21
191.236
191.289
191.316
191.369
191.395
191.448
191.474
191.527
191.553
191.605
191.631
191.682
191.708
191.759
191.785
191.836
191.861
191.912
191.937
191.987
192.012
192.062
192.087
192.137
192.161
192.211
192.235
192.284
192.308
192.357
192.381
192.429
192.453
192.501
192.525
192.573
192.596
192.644
192.667
192.715
192.738
192.785
192.809
192.855
192.879
192.925
192.949
192.995
193.018
193.065
193.088
193.134
193.157
193.203
193.226
193.272
193.295
193.341
193.364
193.41
193.433
193.478
193.501
193.547
193.57
193.616
193.639
193.684
193.707
193.753
193.776
193.822
193.845
193.891
193.914
193.96
193.983
194.029
194.052
194.099
194.122
194.169
194.192
194.239
194.263
194.311
194.335
194.383
194.407
194.456
194.481
194.53
194.556
194.606
194.632
194.683
194.709
194.761
194.788
194.842
194.87
194.924
194.953
195.009
195.038
195.096
195.126
195.185
195.216
195.276
195.308
195.37
195.403
195.467
195.5
195.565
195.6
195.666
195.701
195.769
195.805
195.874
195.909
195.98
196.015
196.087
196.122
196.194
196.23
196.302
196.338
196.41
196.446
196.518
196.553
196.625
196.66
196.731
196.766
196.836
196.871
196.94
196.974
197.042
197.076
197.143
197.176
197.243
197.275
197.341
197.373
197.437
197.469
197.532
197.563
197.625
197.656
197.718
197.748
197.808
197.838
197.898
197.927
197.986
198.015
198.073
198.102
198.159
198.187
198.244
198.272
198.328
198.356
198.411
198.438
198.493
198.52
198.574
198.601
198.655
198.681
198.734
198.761
198.813
198.839
198.891
198.917
198.969
198.994
199.045
199.071
199.122
199.147
199.197
199.222
199.272
199.297
199.346
199.371
199.42
199.444
199.493
199.517
199.565
199.589
199.637
199.661
199.709
199.733
199.78
199.804
199.851
199.874
199.921
199.944
199.99
200.013
200.059
200.082
200.128
200.151
200.196
200.219
200.264
200.287
200.332
200.354
200.399
200.421
200.466
200.488
200.532
200.554
200.598
200.62
200.663
200.685
200.729
200.75
200.793
200.815
200.858
200.879
200.922
200.943
200.986
201.007
201.05
201.071
201.113
201.134
201.176
201.197
201.238
201.259
201.301
201.321
201.363
201.383
201.424
201.445
201.486
201.506
201.547
201.567
201.608
201.628
201.668
201.688
201.729
201.749
201.789
201.809
201.848
201.868
201.908
201.928
201.967
201.987
202.026
202.046
202.085
202.105
202.144
202.163
202.202
202.221
202.26
202.279
202.318
202.337
202.376
202.395
202.433
202.452
202.49
202.509
202.547
202.566
202.604
202.623
202.66
202.679
202.717
202.736
202.773
202.792
202.829
202.847
202.885
202.903
202.942
202.956
203.017
)
;

boundaryField
{
    sides
    {
        type            zeroGradient;
    }
    empty
    {
        type            empty;
    }
}


// ************************************************************************* //
