/*--------------------------------*- C++ -*----------------------------------*\
  =========                 |
  \\      /  F ield         | OpenFOAM: The Open Source CFD Toolbox
   \\    /   O peration     | Website:  https://openfoam.org
    \\  /    A nd           | Version:  9
     \\/     M anipulation  |
\*---------------------------------------------------------------------------*/
FoamFile
{
    format      ascii;
    class       volVectorField;
    location    "0.005";
    object      U;
}
// * * * * * * * * * * * * * * * * * * * * * * * * * * * * * * * * * * * * * //

dimensions      [0 1 -1 0 0 0 0];

internalField   nonuniform List<vector> 
10000
(
(3.70969e-13 0 0)
(3.31125e-13 0 0)
(3.74809e-13 0 0)
(3.15772e-13 0 0)
(2.80426e-13 0 0)
(3.91332e-13 0 0)
(4.11181e-13 0 0)
(2.57778e-13 0 0)
(2.14258e-13 0 0)
(1.90578e-13 0 0)
(1.1073e-13 0 0)
(1.06275e-13 0 0)
(1.82703e-13 0 0)
(2.77527e-13 0 0)
(3.68534e-13 0 0)
(3.57398e-13 0 0)
(3.30219e-13 0 0)
(4.18426e-13 0 0)
(6.44914e-13 0 0)
(6.40761e-13 0 0)
(5.61324e-13 0 0)
(5.02116e-13 0 0)
(5.45295e-13 0 0)
(4.45471e-13 0 0)
(3.93235e-13 0 0)
(4.17061e-13 0 0)
(3.67359e-13 0 0)
(2.86532e-13 0 0)
(3.00868e-13 0 0)
(3.51799e-13 0 0)
(2.55603e-13 0 0)
(2.17558e-13 0 0)
(2.06573e-13 0 0)
(5.51653e-14 0 0)
(5.35435e-14 0 0)
(1.0391e-13 0 0)
(9.11418e-14 0 0)
(1.38032e-13 0 0)
(1.67633e-13 0 0)
(9.1691e-14 0 0)
(1.00155e-13 0 0)
(8.10684e-14 0 0)
(3.06958e-15 0 0)
(9.37239e-14 0 0)
(1.49059e-13 0 0)
(1.03935e-13 0 0)
(1.9589e-13 0 0)
(2.7646e-13 0 0)
(3.24367e-13 0 0)
(3.89212e-13 0 0)
(4.32499e-13 0 0)
(4.3932e-13 0 0)
(3.9188e-13 0 0)
(3.4873e-13 0 0)
(3.05906e-13 0 0)
(1.26927e-13 0 0)
(5.40944e-15 0 0)
(-8.51568e-14 0 0)
(-8.91696e-14 0 0)
(-2.34015e-14 0 0)
(1.89942e-14 0 0)
(3.31257e-14 0 0)
(9.08589e-15 0 0)
(1.76672e-13 0 0)
(3.76941e-13 0 0)
(4.67161e-13 0 0)
(4.23428e-13 0 0)
(3.56555e-13 0 0)
(3.06497e-13 0 0)
(2.99048e-13 0 0)
(3.7778e-13 0 0)
(4.01773e-13 0 0)
(3.85442e-13 0 0)
(3.80105e-13 0 0)
(4.19914e-13 0 0)
(3.51933e-13 0 0)
(4.0193e-13 0 0)
(4.75857e-13 0 0)
(5.06104e-13 0 0)
(5.58452e-13 0 0)
(5.60875e-13 0 0)
(6.18181e-13 0 0)
(5.43779e-13 0 0)
(3.92713e-13 0 0)
(3.22208e-13 0 0)
(2.6724e-13 0 0)
(1.71364e-13 0 0)
(1.62382e-13 0 0)
(1.62776e-13 0 0)
(2.4719e-13 0 0)
(3.59089e-13 0 0)
(4.37351e-13 0 0)
(3.31723e-13 0 0)
(3.03907e-13 0 0)
(2.52276e-13 0 0)
(2.31318e-13 0 0)
(1.37526e-13 0 0)
(-1.40712e-14 0 0)
(-1.00844e-13 0 0)
(7.26605e-14 0 0)
(1.6386e-13 0 0)
(2.74612e-13 0 0)
(3.86821e-13 0 0)
(3.89166e-13 0 0)
(4.63008e-13 0 0)
(5.56165e-13 0 0)
(5.39181e-13 0 0)
(5.09848e-13 0 0)
(4.89505e-13 0 0)
(3.90263e-13 0 0)
(4.8973e-13 0 0)
(6.11591e-13 0 0)
(5.61292e-13 0 0)
(6.00867e-13 0 0)
(6.53446e-13 0 0)
(6.13366e-13 0 0)
(6.68662e-13 0 0)
(6.78744e-13 0 0)
(7.52747e-13 0 0)
(8.08674e-13 0 0)
(8.24217e-13 0 0)
(7.39885e-13 0 0)
(5.86195e-13 0 0)
(4.33884e-13 0 0)
(3.40062e-13 0 0)
(2.77126e-13 0 0)
(2.28398e-13 0 0)
(2.67673e-13 0 0)
(2.40218e-13 0 0)
(3.23061e-13 0 0)
(3.93e-13 0 0)
(3.58184e-13 0 0)
(2.55511e-13 0 0)
(1.68008e-13 0 0)
(1.30233e-13 0 0)
(4.54649e-14 0 0)
(3.07062e-14 0 0)
(5.54967e-14 0 0)
(-3.04611e-15 0 0)
(2.4706e-14 0 0)
(-2.65687e-14 0 0)
(-1.40578e-13 0 0)
(-1.85165e-13 0 0)
(-1.79407e-13 0 0)
(-2.15024e-13 0 0)
(-1.56208e-13 0 0)
(-2.33105e-13 0 0)
(-3.64244e-13 0 0)
(-4.89901e-13 0 0)
(-5.81719e-13 0 0)
(-7.75705e-13 0 0)
(-8.66263e-13 0 0)
(-7.44992e-13 0 0)
(-7.0587e-13 0 0)
(-7.48744e-13 0 0)
(-7.40911e-13 0 0)
(-7.49273e-13 0 0)
(-7.06678e-13 0 0)
(-7.66884e-13 0 0)
(-7.92636e-13 0 0)
(-8.41093e-13 0 0)
(-9.92785e-13 0 0)
(-1.02208e-12 0 0)
(-9.56055e-13 0 0)
(-8.99087e-13 0 0)
(-7.45922e-13 0 0)
(-7.4915e-13 0 0)
(-8.13518e-13 0 0)
(-8.30534e-13 0 0)
(-7.9562e-13 0 0)
(-6.61719e-13 0 0)
(-4.42359e-13 0 0)
(-2.2756e-13 0 0)
(-1.33613e-13 0 0)
(1.95486e-14 0 0)
(1.55076e-13 0 0)
(2.2033e-13 0 0)
(3.01694e-13 0 0)
(3.27852e-13 0 0)
(3.03597e-13 0 0)
(2.6797e-13 0 0)
(2.69009e-13 0 0)
(2.01525e-13 0 0)
(2.09863e-13 0 0)
(3.02739e-13 0 0)
(3.9889e-13 0 0)
(5.07611e-13 0 0)
(4.27295e-13 0 0)
(3.0031e-13 0 0)
(1.18324e-13 0 0)
(-7.54241e-14 0 0)
(-9.0664e-14 0 0)
(-4.2155e-14 0 0)
(-8.5026e-14 0 0)
(-6.88684e-14 0 0)
(-3.50732e-14 0 0)
(-5.85898e-14 0 0)
(-9.09674e-14 0 0)
(-1.34425e-13 0 0)
(-2.38274e-13 0 0)
(-2.56901e-13 0 0)
(-1.72459e-13 0 0)
(-1.55788e-13 0 0)
(-9.50751e-14 0 0)
(-6.80431e-14 0 0)
(-3.4969e-14 0 0)
(-6.06303e-14 0 0)
(8.18941e-14 0 0)
(1.34543e-13 0 0)
(8.13736e-14 0 0)
(-2.49153e-14 0 0)
(-1.43514e-16 0 0)
(2.38038e-14 0 0)
(4.313e-14 0 0)
(9.65258e-14 0 0)
(1.74489e-13 0 0)
(1.41457e-13 0 0)
(1.13463e-13 0 0)
(-5.44469e-15 0 0)
(-2.20884e-13 0 0)
(-3.22601e-13 0 0)
(-3.59223e-13 0 0)
(-3.70109e-13 0 0)
(-3.05828e-13 0 0)
(-2.41152e-13 0 0)
(-2.17465e-13 0 0)
(-1.87242e-13 0 0)
(-1.62338e-13 0 0)
(-2.2666e-13 0 0)
(-1.43638e-13 0 0)
(-5.32534e-14 0 0)
(-1.53375e-14 0 0)
(1.37598e-14 0 0)
(4.52795e-14 0 0)
(6.54064e-15 0 0)
(-4.98669e-14 0 0)
(-3.22352e-14 0 0)
(-5.78901e-14 0 0)
(-9.56637e-15 0 0)
(8.46172e-14 0 0)
(1.96523e-13 0 0)
(2.18561e-13 0 0)
(9.82788e-14 0 0)
(4.01619e-15 0 0)
(-9.71649e-14 0 0)
(-2.20705e-13 0 0)
(-3.2994e-13 0 0)
(-3.97785e-13 0 0)
(-2.60867e-13 0 0)
(-3.0525e-13 0 0)
(-3.0334e-13 0 0)
(-2.29022e-13 0 0)
(-1.63558e-13 0 0)
(-1.51594e-13 0 0)
(-1.40487e-14 0 0)
(3.16607e-14 0 0)
(4.52331e-14 0 0)
(-9.56772e-14 0 0)
(-1.32029e-13 0 0)
(-9.71764e-14 0 0)
(-1.28421e-13 0 0)
(-1.94613e-13 0 0)
(-2.07177e-13 0 0)
(-2.35225e-13 0 0)
(-2.11354e-13 0 0)
(-2.63694e-13 0 0)
(-3.18193e-13 0 0)
(-3.94351e-13 0 0)
(-3.73259e-13 0 0)
(-3.55632e-13 0 0)
(-3.23958e-13 0 0)
(-2.93e-13 0 0)
(-2.73169e-13 0 0)
(-3.17023e-13 0 0)
(-2.29608e-13 0 0)
(-1.49486e-13 0 0)
(-7.6267e-14 0 0)
(-8.84599e-14 0 0)
(6.40116e-17 0 0)
(9.32838e-14 0 0)
(1.28338e-13 0 0)
(2.3682e-13 0 0)
(3.27778e-13 0 0)
(3.99589e-13 0 0)
(3.84199e-13 0 0)
(4.13027e-13 0 0)
(3.58563e-13 0 0)
(2.79583e-13 0 0)
(2.34667e-13 0 0)
(1.45883e-13 0 0)
(1.48129e-13 0 0)
(1.61547e-13 0 0)
(1.33786e-13 0 0)
(2.07772e-13 0 0)
(2.82086e-13 0 0)
(3.2713e-13 0 0)
(3.46382e-13 0 0)
(3.07882e-13 0 0)
(2.55654e-13 0 0)
(2.72167e-13 0 0)
(2.93967e-13 0 0)
(3.02293e-13 0 0)
(4.06163e-13 0 0)
(5.07577e-13 0 0)
(4.58592e-13 0 0)
(2.19168e-13 0 0)
(2.01907e-14 0 0)
(-9.81077e-15 0 0)
(-6.7476e-14 0 0)
(6.27475e-14 0 0)
(7.98951e-14 0 0)
(1.93875e-14 0 0)
(-2.74416e-14 0 0)
(1.6996e-14 0 0)
(1.76704e-14 0 0)
(5.08617e-14 0 0)
(-1.16103e-14 0 0)
(7.013e-15 0 0)
(6.0722e-14 0 0)
(4.16881e-14 0 0)
(9.01003e-14 0 0)
(1.44769e-13 0 0)
(1.16794e-13 0 0)
(1.29887e-13 0 0)
(5.75793e-14 0 0)
(4.29918e-14 0 0)
(1.15287e-13 0 0)
(1.2933e-13 0 0)
(2.32709e-13 0 0)
(2.73285e-13 0 0)
(2.58225e-13 0 0)
(2.9246e-13 0 0)
(2.47442e-13 0 0)
(1.44899e-13 0 0)
(1.09296e-13 0 0)
(1.86045e-13 0 0)
(1.93913e-13 0 0)
(2.24257e-13 0 0)
(1.7879e-13 0 0)
(1.61498e-13 0 0)
(2.18202e-13 0 0)
(1.60229e-13 0 0)
(1.56758e-13 0 0)
(1.69574e-13 0 0)
(1.09206e-13 0 0)
(7.8551e-14 0 0)
(-1.07531e-14 0 0)
(-1.30274e-13 0 0)
(-2.18908e-13 0 0)
(-3.05508e-13 0 0)
(-3.81852e-13 0 0)
(-2.15298e-13 0 0)
(-2.63345e-13 0 0)
(-3.33686e-13 0 0)
(-2.61897e-13 0 0)
(-2.73863e-13 0 0)
(-3.26119e-13 0 0)
(-2.21244e-13 0 0)
(-1.7358e-13 0 0)
(-1.79122e-13 0 0)
(-1.93108e-13 0 0)
(-1.42572e-13 0 0)
(-1.40575e-13 0 0)
(-4.12448e-14 0 0)
(3.15505e-14 0 0)
(1.64205e-14 0 0)
(-7.84731e-14 0 0)
(-1.1013e-13 0 0)
(-4.20161e-14 0 0)
(1.9866e-14 0 0)
(-1.02454e-13 0 0)
(-1.78725e-13 0 0)
(-3.59334e-13 0 0)
(-3.57552e-13 0 0)
(-3.51731e-13 0 0)
(-3.23358e-13 0 0)
(-3.20921e-13 0 0)
(-2.88419e-13 0 0)
(-1.79821e-13 0 0)
(-7.75819e-14 0 0)
(-2.59244e-14 0 0)
(-1.24992e-13 0 0)
(-2.05046e-13 0 0)
(-2.08217e-13 0 0)
(-1.51824e-13 0 0)
(-1.47486e-13 0 0)
(-2.09549e-13 0 0)
(-2.63481e-13 0 0)
(-2.09617e-13 0 0)
(-1.85246e-13 0 0)
(-1.33821e-13 0 0)
(-6.77436e-14 0 0)
(-1.02191e-14 0 0)
(1.02114e-14 0 0)
(2.96015e-14 0 0)
(1.12254e-13 0 0)
(1.99554e-13 0 0)
(2.22033e-13 0 0)
(1.2911e-13 0 0)
(3.36899e-14 0 0)
(-1.10703e-16 0 0)
(-9.55574e-14 0 0)
(-4.51079e-14 0 0)
(1.07286e-13 0 0)
(1.48323e-13 0 0)
(6.37083e-14 0 0)
(1.01905e-14 0 0)
(-7.13376e-14 0 0)
(-1.96522e-13 0 0)
(-2.34479e-13 0 0)
(-1.92441e-13 0 0)
(-1.75867e-13 0 0)
(-1.23519e-13 0 0)
(-6.34502e-14 0 0)
(-1.52739e-13 0 0)
(5.10248e-14 0 0)
(1.25299e-13 0 0)
(8.27221e-14 0 0)
(1.83322e-13 0 0)
(2.30886e-13 0 0)
(1.78363e-13 0 0)
(1.95834e-13 0 0)
(2.62973e-13 0 0)
(2.5888e-13 0 0)
(2.5846e-13 0 0)
(3.55205e-13 0 0)
(3.59441e-13 0 0)
(3.46408e-13 0 0)
(4.13926e-13 0 0)
(3.52281e-13 0 0)
(2.72806e-13 0 0)
(2.02688e-13 0 0)
(1.77289e-13 0 0)
(8.87998e-14 0 0)
(-6.75324e-14 0 0)
(-2.35613e-13 0 0)
(-3.48476e-13 0 0)
(-3.86123e-13 0 0)
(-3.48947e-13 0 0)
(-2.45965e-13 0 0)
(-2.86731e-13 0 0)
(-1.98409e-13 0 0)
(-1.22194e-13 0 0)
(-7.95779e-14 0 0)
(-4.29252e-14 0 0)
(-1.36461e-13 0 0)
(-1.58054e-13 0 0)
(-2.23766e-13 0 0)
(-3.29902e-13 0 0)
(-3.31854e-13 0 0)
(-2.31912e-13 0 0)
(-1.91e-13 0 0)
(-2.3929e-13 0 0)
(-1.80208e-13 0 0)
(-1.18625e-13 0 0)
(-1.20432e-13 0 0)
(-1.05664e-13 0 0)
(-3.44148e-14 0 0)
(2.6769e-14 0 0)
(1.07309e-13 0 0)
(7.64833e-14 0 0)
(1.45995e-14 0 0)
(-1.10256e-13 0 0)
(-2.35969e-13 0 0)
(-3.05564e-13 0 0)
(-3.40377e-13 0 0)
(-4.06273e-13 0 0)
(-3.831e-13 0 0)
(-3.47765e-13 0 0)
(-4.05095e-13 0 0)
(-3.62699e-13 0 0)
(-4.01847e-13 0 0)
(-4.21681e-13 0 0)
(-3.3015e-13 0 0)
(-1.7763e-13 0 0)
(-2.57054e-14 0 0)
(5.19188e-14 0 0)
(1.02463e-13 0 0)
(6.64049e-14 0 0)
(-2.30971e-14 0 0)
(-1.38714e-15 0 0)
(1.78251e-15 0 0)
(3.18433e-14 0 0)
(1.60188e-14 0 0)
(-1.34364e-13 0 0)
(-6.10589e-14 0 0)
(-6.66959e-14 0 0)
(-8.37314e-14 0 0)
(-8.0185e-15 0 0)
(-2.28945e-14 0 0)
(-5.96215e-14 0 0)
(-4.99913e-14 0 0)
(-8.41017e-14 0 0)
(-1.84951e-13 0 0)
(-1.93521e-13 0 0)
(-1.57798e-13 0 0)
(-1.11163e-13 0 0)
(-2.13501e-13 0 0)
(-3.39754e-13 0 0)
(-2.94461e-13 0 0)
(-2.54718e-13 0 0)
(-3.03266e-13 0 0)
(-3.12285e-13 0 0)
(-3.37055e-13 0 0)
(-4.17459e-13 0 0)
(-4.90478e-13 0 0)
(-5.1309e-13 0 0)
(-5.63016e-13 0 0)
(-5.15976e-13 0 0)
(-4.9319e-13 0 0)
(-4.76433e-13 0 0)
(-4.25109e-13 0 0)
(-4.07798e-13 0 0)
(-4.56105e-13 0 0)
(-3.70822e-13 0 0)
(-3.27115e-13 0 0)
(-2.11472e-13 0 0)
(-1.39884e-13 0 0)
(6.30318e-14 0 0)
(3.00391e-13 0 0)
(3.78478e-13 0 0)
(4.00594e-13 0 0)
(4.04952e-13 0 0)
(4.73644e-13 0 0)
(6.67022e-13 0 0)
(8.57912e-13 0 0)
(8.46913e-13 0 0)
(8.64825e-13 0 0)
(9.50111e-13 0 0)
(1.01321e-12 0 0)
(1.0172e-12 0 0)
(1.06419e-12 0 0)
(1.09163e-12 0 0)
(1.04599e-12 0 0)
(1.04123e-12 0 0)
(9.93083e-13 0 0)
(9.70866e-13 0 0)
(9.74141e-13 0 0)
(9.90469e-13 0 0)
(9.32051e-13 0 0)
(8.34814e-13 0 0)
(6.84089e-13 0 0)
(6.4239e-13 0 0)
(7.17982e-13 0 0)
(7.64735e-13 0 0)
(6.9376e-13 0 0)
(7.59207e-13 0 0)
(8.63016e-13 0 0)
(9.55825e-13 0 0)
(9.28072e-13 0 0)
(8.02544e-13 0 0)
(6.38885e-13 0 0)
(5.41997e-13 0 0)
(6.05393e-13 0 0)
(6.87951e-13 0 0)
(7.48732e-13 0 0)
(7.36744e-13 0 0)
(6.14806e-13 0 0)
(4.71584e-13 0 0)
(3.35277e-13 0 0)
(2.55537e-13 0 0)
(2.35958e-13 0 0)
(2.60987e-13 0 0)
(3.2666e-13 0 0)
(2.95795e-13 0 0)
(2.05372e-13 0 0)
(1.13067e-13 0 0)
(4.54417e-14 0 0)
(-9.82169e-14 0 0)
(-7.83446e-14 0 0)
(-5.38802e-14 0 0)
(-7.73317e-14 0 0)
(2.27347e-14 0 0)
(1.22434e-13 0 0)
(1.65813e-13 0 0)
(1.28894e-13 0 0)
(2.29766e-13 0 0)
(2.03972e-13 0 0)
(2.12134e-13 0 0)
(1.78588e-13 0 0)
(7.08557e-14 0 0)
(1.24148e-13 0 0)
(1.53772e-13 0 0)
(1.31266e-13 0 0)
(6.99818e-14 0 0)
(3.93487e-14 0 0)
(2.53132e-16 0 0)
(-3.83183e-14 0 0)
(-1.33634e-13 0 0)
(-1.34579e-13 0 0)
(-2.47988e-13 0 0)
(-2.18327e-13 0 0)
(-1.18679e-13 0 0)
(2.65773e-14 0 0)
(1.08415e-13 0 0)
(1.68312e-13 0 0)
(2.34535e-13 0 0)
(2.54863e-13 0 0)
(3.37472e-13 0 0)
(2.601e-13 0 0)
(1.9259e-13 0 0)
(1.5916e-13 0 0)
(7.28449e-14 0 0)
(-2.06737e-14 0 0)
(-1.21816e-13 0 0)
(-9.62881e-14 0 0)
(-1.36366e-13 0 0)
(4.80492e-14 0 0)
(1.84316e-13 0 0)
(1.63821e-13 0 0)
(2.43873e-13 0 0)
(3.24343e-13 0 0)
(2.6513e-13 0 0)
(2.32585e-13 0 0)
(3.84163e-13 0 0)
(2.76233e-13 0 0)
(2.92023e-13 0 0)
(2.58765e-13 0 0)
(2.89846e-13 0 0)
(3.15515e-13 0 0)
(3.0638e-13 0 0)
(2.64434e-13 0 0)
(2.44804e-13 0 0)
(3.18536e-13 0 0)
(4.05338e-13 0 0)
(4.37517e-13 0 0)
(3.42897e-13 0 0)
(3.71933e-13 0 0)
(3.91506e-13 0 0)
(2.99635e-13 0 0)
(2.54132e-13 0 0)
(2.09941e-13 0 0)
(1.12519e-13 0 0)
(1.57018e-13 0 0)
(2.08207e-13 0 0)
(1.83991e-13 0 0)
(1.37449e-13 0 0)
(1.71476e-13 0 0)
(2.63205e-13 0 0)
(3.72693e-13 0 0)
(4.97727e-13 0 0)
(5.93514e-13 0 0)
(6.73258e-13 0 0)
(7.19996e-13 0 0)
(7.20163e-13 0 0)
(7.65409e-13 0 0)
(6.74727e-13 0 0)
(6.06745e-13 0 0)
(4.85171e-13 0 0)
(3.95108e-13 0 0)
(2.84256e-13 0 0)
(1.96694e-13 0 0)
(2.28077e-13 0 0)
(3.18911e-13 0 0)
(3.3256e-13 0 0)
(3.12049e-13 0 0)
(4.07183e-13 0 0)
(4.18666e-13 0 0)
(3.30623e-13 0 0)
(3.85221e-13 0 0)
(3.58754e-13 0 0)
(2.93964e-13 0 0)
(2.71803e-13 0 0)
(1.76852e-13 0 0)
(1.08429e-13 0 0)
(4.03844e-14 0 0)
(2.10509e-15 0 0)
(-4.70871e-14 0 0)
(3.39313e-14 0 0)
(9.664e-14 0 0)
(1.36739e-13 0 0)
(1.46639e-13 0 0)
(1.99856e-13 0 0)
(1.7878e-13 0 0)
(2.19324e-13 0 0)
(3.65116e-13 0 0)
(3.91219e-13 0 0)
(3.07266e-13 0 0)
(2.17159e-13 0 0)
(1.79151e-13 0 0)
(1.23417e-13 0 0)
(4.79359e-14 0 0)
(5.94955e-14 0 0)
(5.54421e-14 0 0)
(-4.2207e-14 0 0)
(6.4688e-15 0 0)
(4.21964e-14 0 0)
(-7.47977e-14 0 0)
(-1.7639e-13 0 0)
(-2.56963e-13 0 0)
(-3.91902e-13 0 0)
(-3.56316e-13 0 0)
(-3.18851e-13 0 0)
(-2.40881e-13 0 0)
(-1.54494e-13 0 0)
(-7.85118e-14 0 0)
(-1.41763e-13 0 0)
(-1.26919e-13 0 0)
(-1.12908e-13 0 0)
(-1.76781e-13 0 0)
(-1.61579e-13 0 0)
(-5.33123e-14 0 0)
(-5.78327e-14 0 0)
(8.06835e-14 0 0)
(1.39915e-13 0 0)
(1.40774e-13 0 0)
(2.15101e-13 0 0)
(3.79633e-13 0 0)
(4.94897e-13 0 0)
(5.14878e-13 0 0)
(4.59924e-13 0 0)
(4.68439e-13 0 0)
(5.194e-13 0 0)
(4.88012e-13 0 0)
(4.20284e-13 0 0)
(4.5272e-13 0 0)
(4.07823e-13 0 0)
(4.54745e-13 0 0)
(4.69132e-13 0 0)
(4.26066e-13 0 0)
(4.70352e-13 0 0)
(3.98596e-13 0 0)
(3.01735e-13 0 0)
(2.52258e-13 0 0)
(2.93577e-13 0 0)
(1.89225e-13 0 0)
(2.62334e-13 0 0)
(3.52065e-13 0 0)
(3.46916e-13 0 0)
(4.16139e-13 0 0)
(5.04938e-13 0 0)
(5.21556e-13 0 0)
(5.51101e-13 0 0)
(5.24073e-13 0 0)
(5.64316e-13 0 0)
(6.4427e-13 0 0)
(6.64249e-13 0 0)
(7.66776e-13 0 0)
(9.56021e-13 0 0)
(9.45423e-13 0 0)
(1.01688e-12 0 0)
(1.09424e-12 0 0)
(1.01732e-12 0 0)
(8.61163e-13 0 0)
(8.35231e-13 0 0)
(7.93827e-13 0 0)
(8.31586e-13 0 0)
(7.8965e-13 0 0)
(7.54366e-13 0 0)
(7.34158e-13 0 0)
(7.70183e-13 0 0)
(7.93623e-13 0 0)
(7.2235e-13 0 0)
(5.74564e-13 0 0)
(4.04341e-13 0 0)
(4.94704e-13 0 0)
(4.82041e-13 0 0)
(4.36356e-13 0 0)
(3.37807e-13 0 0)
(3.10692e-13 0 0)
(1.04139e-13 0 0)
(2.07068e-13 0 0)
(2.84828e-13 0 0)
(2.72056e-13 0 0)
(2.61578e-13 0 0)
(3.0173e-13 0 0)
(3.71799e-13 0 0)
(5.35125e-13 0 0)
(6.71417e-13 0 0)
(6.92462e-13 0 0)
(7.4571e-13 0 0)
(7.40758e-13 0 0)
(8.26849e-13 0 0)
(8.91003e-13 0 0)
(9.22024e-13 0 0)
(8.97619e-13 0 0)
(8.44782e-13 0 0)
(8.28336e-13 0 0)
(6.86199e-13 0 0)
(5.96942e-13 0 0)
(4.49967e-13 0 0)
(4.91138e-13 0 0)
(5.47559e-13 0 0)
(4.80469e-13 0 0)
(4.82677e-13 0 0)
(4.65683e-13 0 0)
(4.13983e-13 0 0)
(3.88745e-13 0 0)
(3.73873e-13 0 0)
(1.86987e-13 0 0)
(1.74338e-13 0 0)
(1.40442e-13 0 0)
(8.19279e-14 0 0)
(1.19773e-13 0 0)
(1.68273e-13 0 0)
(1.5886e-13 0 0)
(2.70266e-13 0 0)
(3.85269e-13 0 0)
(5.03102e-13 0 0)
(6.99346e-13 0 0)
(7.89263e-13 0 0)
(7.9828e-13 0 0)
(7.04163e-13 0 0)
(6.3331e-13 0 0)
(6.37863e-13 0 0)
(7.14541e-13 0 0)
(8.02239e-13 0 0)
(7.5622e-13 0 0)
(7.14409e-13 0 0)
(6.33202e-13 0 0)
(5.92118e-13 0 0)
(5.1517e-13 0 0)
(2.91975e-13 0 0)
(9.07387e-14 0 0)
(2.96984e-14 0 0)
(-1.7143e-14 0 0)
(-1.32952e-14 0 0)
(-6.12736e-14 0 0)
(-2.62989e-15 0 0)
(1.21993e-14 0 0)
(1.03428e-13 0 0)
(1.64275e-13 0 0)
(2.09426e-13 0 0)
(2.90151e-13 0 0)
(3.5591e-13 0 0)
(3.86995e-13 0 0)
(4.16786e-13 0 0)
(3.62715e-13 0 0)
(3.77659e-13 0 0)
(3.86573e-13 0 0)
(3.35246e-13 0 0)
(4.09417e-13 0 0)
(4.13654e-13 0 0)
(3.9953e-13 0 0)
(3.9434e-13 0 0)
(3.40528e-13 0 0)
(2.68757e-13 0 0)
(2.22519e-13 0 0)
(2.47109e-13 0 0)
(2.08199e-13 0 0)
(1.02293e-13 0 0)
(3.82843e-15 0 0)
(1.05209e-13 0 0)
(1.50151e-13 0 0)
(1.48042e-13 0 0)
(2.73968e-13 0 0)
(3.98701e-13 0 0)
(3.59256e-13 0 0)
(4.0756e-13 0 0)
(4.54794e-13 0 0)
(4.92505e-13 0 0)
(5.85641e-13 0 0)
(6.5187e-13 0 0)
(6.46866e-13 0 0)
(6.93659e-13 0 0)
(6.68966e-13 0 0)
(5.44146e-13 0 0)
(5.96663e-13 0 0)
(5.20024e-13 0 0)
(4.19082e-13 0 0)
(4.18074e-13 0 0)
(3.74707e-13 0 0)
(2.74876e-13 0 0)
(2.48987e-13 0 0)
(1.4521e-13 0 0)
(7.05907e-14 0 0)
(5.70825e-14 0 0)
(-1.06197e-14 0 0)
(1.48393e-14 0 0)
(1.63976e-13 0 0)
(3.08564e-13 0 0)
(3.82386e-13 0 0)
(3.7582e-13 0 0)
(4.8776e-13 0 0)
(5.63948e-13 0 0)
(5.34651e-13 0 0)
(5.10311e-13 0 0)
(5.88373e-13 0 0)
(5.73714e-13 0 0)
(5.33986e-13 0 0)
(5.88404e-13 0 0)
(5.78614e-13 0 0)
(5.17839e-13 0 0)
(5.14077e-13 0 0)
(5.56187e-13 0 0)
(5.10989e-13 0 0)
(5.0876e-13 0 0)
(5.4862e-13 0 0)
(4.40079e-13 0 0)
(3.94257e-13 0 0)
(2.87373e-13 0 0)
(2.02404e-13 0 0)
(6.0296e-14 0 0)
(1.03417e-13 0 0)
(1.48525e-13 0 0)
(5.34808e-14 0 0)
(-4.36242e-14 0 0)
(-1.26795e-13 0 0)
(-1.96011e-13 0 0)
(-2.79582e-13 0 0)
(-3.05412e-13 0 0)
(-3.33587e-13 0 0)
(-3.07723e-13 0 0)
(-2.45971e-13 0 0)
(-2.06584e-13 0 0)
(-2.22635e-13 0 0)
(-2.23751e-13 0 0)
(-2.70649e-13 0 0)
(-2.94949e-13 0 0)
(-2.39903e-13 0 0)
(-1.96521e-13 0 0)
(-1.30722e-13 0 0)
(-1.60084e-13 0 0)
(-9.56311e-14 0 0)
(-5.83471e-14 0 0)
(6.01274e-14 0 0)
(1.48669e-13 0 0)
(8.89881e-14 0 0)
(8.53198e-14 0 0)
(7.23357e-14 0 0)
(1.15572e-14 0 0)
(6.91805e-14 0 0)
(4.01841e-14 0 0)
(3.233e-15 0 0)
(3.48452e-14 0 0)
(3.18405e-14 0 0)
(6.19648e-14 0 0)
(1.32367e-13 0 0)
(2.21286e-13 0 0)
(2.96578e-13 0 0)
(2.94757e-13 0 0)
(1.7084e-13 0 0)
(1.10456e-13 0 0)
(4.40931e-15 0 0)
(-1.52173e-13 0 0)
(-2.21609e-13 0 0)
(-3.29766e-13 0 0)
(-3.84891e-13 0 0)
(-3.63062e-13 0 0)
(-4.13133e-13 0 0)
(-5.68298e-13 0 0)
(-6.90405e-13 0 0)
(-7.07301e-13 0 0)
(-7.83043e-13 0 0)
(-8.58083e-13 0 0)
(-9.34841e-13 0 0)
(-9.68105e-13 0 0)
(-9.87496e-13 0 0)
(-9.94034e-13 0 0)
(-1.01026e-12 0 0)
(-9.45144e-13 0 0)
(-9.06268e-13 0 0)
(-9.14467e-13 0 0)
(-8.26659e-13 0 0)
(-8.06674e-13 0 0)
(-9.51789e-13 0 0)
(-8.80557e-13 0 0)
(-8.15199e-13 0 0)
(-8.88742e-13 0 0)
(-1.00093e-12 0 0)
(-1.09962e-12 0 0)
(-1.17885e-12 0 0)
(-1.15416e-12 0 0)
(-1.1618e-12 0 0)
(-1.20838e-12 0 0)
(-1.19636e-12 0 0)
(-1.0729e-12 0 0)
(-9.73811e-13 0 0)
(-7.98139e-13 0 0)
(-7.61274e-13 0 0)
(-7.34557e-13 0 0)
(-7.32171e-13 0 0)
(-7.02557e-13 0 0)
(-7.16296e-13 0 0)
(-6.34266e-13 0 0)
(-6.38239e-13 0 0)
(-6.65101e-13 0 0)
(-7.1144e-13 0 0)
(-7.21113e-13 0 0)
(-6.89832e-13 0 0)
(-5.90571e-13 0 0)
(-5.35492e-13 0 0)
(-5.9701e-13 0 0)
(-6.56942e-13 0 0)
(-6.84997e-13 0 0)
(-6.02939e-13 0 0)
(-4.95729e-13 0 0)
(-3.59014e-13 0 0)
(-2.92225e-13 0 0)
(-3.78853e-13 0 0)
(-4.97787e-13 0 0)
(-5.786e-13 0 0)
(-6.0996e-13 0 0)
(-6.19635e-13 0 0)
(-6.66978e-13 0 0)
(-7.80091e-13 0 0)
(-9.18056e-13 0 0)
(-1.06696e-12 0 0)
(-1.14813e-12 0 0)
(-1.14461e-12 0 0)
(-1.10529e-12 0 0)
(-1.11851e-12 0 0)
(-1.16309e-12 0 0)
(-1.16138e-12 0 0)
(-1.06903e-12 0 0)
(-1.09465e-12 0 0)
(-1.05928e-12 0 0)
(-1.05675e-12 0 0)
(-1.00027e-12 0 0)
(-9.40145e-13 0 0)
(-8.53121e-13 0 0)
(-7.40039e-13 0 0)
(-7.35077e-13 0 0)
(-6.95494e-13 0 0)
(-5.7873e-13 0 0)
(-5.79507e-13 0 0)
(-5.25373e-13 0 0)
(-4.69985e-13 0 0)
(-4.55149e-13 0 0)
(-4.75008e-13 0 0)
(-4.57478e-13 0 0)
(-4.62642e-13 0 0)
(-4.92433e-13 0 0)
(-4.55776e-13 0 0)
(-5.78651e-13 0 0)
(-6.15484e-13 0 0)
(-6.92314e-13 0 0)
(-7.97663e-13 0 0)
(-8.6822e-13 0 0)
(-8.38394e-13 0 0)
(-8.46481e-13 0 0)
(-8.26111e-13 0 0)
(-7.30572e-13 0 0)
(-6.79723e-13 0 0)
(-7.05753e-13 0 0)
(-7.70666e-13 0 0)
(-7.71522e-13 0 0)
(-7.95678e-13 0 0)
(-6.60897e-13 0 0)
(-6.16157e-13 0 0)
(-6.33113e-13 0 0)
(-6.35166e-13 0 0)
(-6.16543e-13 0 0)
(-6.09257e-13 0 0)
(-6.66109e-13 0 0)
(-6.21756e-13 0 0)
(-5.62789e-13 0 0)
(-4.69662e-13 0 0)
(-3.68574e-13 0 0)
(-3.63486e-13 0 0)
(-3.14655e-13 0 0)
(-2.33077e-13 0 0)
(-2.23893e-13 0 0)
(-1.83521e-13 0 0)
(-1.17969e-13 0 0)
(-2.15836e-14 0 0)
(-1.07665e-14 0 0)
(-9.01523e-14 0 0)
(-1.22497e-13 0 0)
(-2.02509e-13 0 0)
(-2.90462e-13 0 0)
(-3.60017e-13 0 0)
(-3.73495e-13 0 0)
(-4.39593e-13 0 0)
(-4.20357e-13 0 0)
(-3.80634e-13 0 0)
(-3.46447e-13 0 0)
(-3.78209e-13 0 0)
(-3.66822e-13 0 0)
(-3.54368e-13 0 0)
(-4.35284e-13 0 0)
(-5.14277e-13 0 0)
(-5.31323e-13 0 0)
(-5.24339e-13 0 0)
(-6.48809e-13 0 0)
(-6.67041e-13 0 0)
(-7.19156e-13 0 0)
(-7.85355e-13 0 0)
(-6.72212e-13 0 0)
(-6.86383e-13 0 0)
(-4.94444e-13 0 0)
(-3.44351e-13 0 0)
(-2.60347e-13 0 0)
(-5.88826e-14 0 0)
(6.79679e-14 0 0)
(7.88953e-14 0 0)
(9.1396e-14 0 0)
(6.24341e-14 0 0)
(7.65324e-15 0 0)
(-7.78931e-14 0 0)
(-2.18581e-13 0 0)
(-3.92143e-13 0 0)
(-4.76889e-13 0 0)
(-4.85456e-13 0 0)
(-4.93067e-13 0 0)
(-5.19092e-13 0 0)
(-4.55309e-13 0 0)
(-3.98795e-13 0 0)
(-4.56514e-13 0 0)
(-4.70096e-13 0 0)
(-4.39736e-13 0 0)
(-5.1234e-13 0 0)
(-4.41964e-13 0 0)
(-3.88974e-13 0 0)
(-3.74395e-13 0 0)
(-2.47045e-13 0 0)
(-6.34586e-14 0 0)
(1.10041e-13 0 0)
(2.17433e-13 0 0)
(1.78589e-13 0 0)
(1.77555e-13 0 0)
(2.61825e-13 0 0)
(3.47221e-13 0 0)
(3.06953e-13 0 0)
(2.18666e-13 0 0)
(2.26975e-13 0 0)
(2.65035e-13 0 0)
(1.98252e-13 0 0)
(1.53947e-13 0 0)
(1.05837e-13 0 0)
(1.26365e-13 0 0)
(9.1933e-14 0 0)
(-6.31049e-15 0 0)
(-5.34432e-14 0 0)
(6.09064e-14 0 0)
(1.13968e-13 0 0)
(2.41338e-13 0 0)
(2.28726e-13 0 0)
(2.2456e-13 0 0)
(3.23854e-13 0 0)
(2.71099e-13 0 0)
(2.70186e-13 0 0)
(2.03194e-13 0 0)
(3.95819e-14 0 0)
(-8.72839e-14 0 0)
(-2.73706e-13 0 0)
(-3.8292e-13 0 0)
(-4.33052e-13 0 0)
(-4.70661e-13 0 0)
(-4.46309e-13 0 0)
(-4.77138e-13 0 0)
(-4.22164e-13 0 0)
(-3.84552e-13 0 0)
(-4.92691e-13 0 0)
(-4.59704e-13 0 0)
(-4.60703e-13 0 0)
(-4.21279e-13 0 0)
(-4.17493e-13 0 0)
(-4.16396e-13 0 0)
(-4.41435e-13 0 0)
(-4.99766e-13 0 0)
(-4.57418e-13 0 0)
(-3.63711e-13 0 0)
(-3.11916e-13 0 0)
(-2.80737e-13 0 0)
(-2.93109e-13 0 0)
(-3.55077e-13 0 0)
(-3.28224e-13 0 0)
(-2.26354e-13 0 0)
(-3.07015e-13 0 0)
(-2.89524e-13 0 0)
(-2.33888e-13 0 0)
(-3.59564e-13 0 0)
(-3.34215e-13 0 0)
(-3.57126e-13 0 0)
(-4.53481e-13 0 0)
(-5.03455e-13 0 0)
(-6.62812e-13 0 0)
(-7.57471e-13 0 0)
(-6.83192e-13 0 0)
(-5.92988e-13 0 0)
(-5.30792e-13 0 0)
(-4.76036e-13 0 0)
(-5.00945e-13 0 0)
(-5.8299e-13 0 0)
(-6.2813e-13 0 0)
(-5.9653e-13 0 0)
(-5.19843e-13 0 0)
(-5.50843e-13 0 0)
(-5.86811e-13 0 0)
(-5.22135e-13 0 0)
(-5.5038e-13 0 0)
(-5.62069e-13 0 0)
(-6.23686e-13 0 0)
(-6.35624e-13 0 0)
(-7.07596e-13 0 0)
(-6.8828e-13 0 0)
(-6.95086e-13 0 0)
(-6.64034e-13 0 0)
(-6.86348e-13 0 0)
(-7.02727e-13 0 0)
(-6.89624e-13 0 0)
(-6.63142e-13 0 0)
(-6.23159e-13 0 0)
(-6.58559e-13 0 0)
(-6.21302e-13 0 0)
(-5.20733e-13 0 0)
(-4.52571e-13 0 0)
(-4.03831e-13 0 0)
(-3.33346e-13 0 0)
(-3.24316e-13 0 0)
(-2.42664e-13 0 0)
(-1.55506e-13 0 0)
(-7.81953e-14 0 0)
(-6.7359e-14 0 0)
(-1.01465e-13 0 0)
(-1.07976e-13 0 0)
(-2.4134e-13 0 0)
(-3.11162e-13 0 0)
(-3.41963e-13 0 0)
(-4.56711e-13 0 0)
(-4.24392e-13 0 0)
(-3.36784e-13 0 0)
(-2.89956e-13 0 0)
(-2.94782e-13 0 0)
(-4.03274e-13 0 0)
(-5.0598e-13 0 0)
(-5.35436e-13 0 0)
(-4.51706e-13 0 0)
(-3.96114e-13 0 0)
(-4.2068e-13 0 0)
(-3.34488e-13 0 0)
(-2.30012e-13 0 0)
(-2.3152e-13 0 0)
(-2.53124e-13 0 0)
(-2.91589e-13 0 0)
(-2.71777e-13 0 0)
(-2.99143e-13 0 0)
(-4.23249e-13 0 0)
(-6.00354e-13 0 0)
(-6.33546e-13 0 0)
(-5.99703e-13 0 0)
(-6.19704e-13 0 0)
(-6.67644e-13 0 0)
(-6.82583e-13 0 0)
(-6.20163e-13 0 0)
(-6.65541e-13 0 0)
(-6.0542e-13 0 0)
(-5.37231e-13 0 0)
(-5.53493e-13 0 0)
(-4.52225e-13 0 0)
(-4.30892e-13 0 0)
(-4.08608e-13 0 0)
(-2.34391e-13 0 0)
(-2.12859e-13 0 0)
(-3.03285e-13 0 0)
(-3.88655e-13 0 0)
(-4.95835e-13 0 0)
(-4.90801e-13 0 0)
(-4.2014e-13 0 0)
(-3.56584e-13 0 0)
(-2.9284e-13 0 0)
(-3.16719e-13 0 0)
(-3.20807e-13 0 0)
(-2.95288e-13 0 0)
(-3.48408e-13 0 0)
(-4.35906e-13 0 0)
(-5.13688e-13 0 0)
(-6.64898e-13 0 0)
(-8.38729e-13 0 0)
(-9.2382e-13 0 0)
(-9.85736e-13 0 0)
(-1.05867e-12 0 0)
(-9.6319e-13 0 0)
(-1.00542e-12 0 0)
(-1.09434e-12 0 0)
(-1.07421e-12 0 0)
(-1.00529e-12 0 0)
(-9.38913e-13 0 0)
(-9.07793e-13 0 0)
(-8.21691e-13 0 0)
(-8.13879e-13 0 0)
(-7.97306e-13 0 0)
(-9.08044e-13 0 0)
(-9.20667e-13 0 0)
(-8.56458e-13 0 0)
(-8.1889e-13 0 0)
(-8.36546e-13 0 0)
(-7.3139e-13 0 0)
(-5.77774e-13 0 0)
(-2.83986e-13 0 0)
(-1.01239e-13 0 0)
(3.06225e-14 0 0)
(6.65954e-14 0 0)
(1.0003e-13 0 0)
(1.09632e-13 0 0)
(1.63175e-13 0 0)
(1.92442e-13 0 0)
(2.81117e-13 0 0)
(3.3124e-13 0 0)
(3.03602e-13 0 0)
(3.53496e-13 0 0)
(5.18005e-13 0 0)
(6.26705e-13 0 0)
(6.5227e-13 0 0)
(6.57664e-13 0 0)
(6.73537e-13 0 0)
(6.70987e-13 0 0)
(6.43286e-13 0 0)
(6.60463e-13 0 0)
(5.81369e-13 0 0)
(5.18109e-13 0 0)
(4.94634e-13 0 0)
(4.36805e-13 0 0)
(3.74481e-13 0 0)
(4.7359e-13 0 0)
(5.23602e-13 0 0)
(5.34482e-13 0 0)
(4.3289e-13 0 0)
(3.13158e-13 0 0)
(2.0654e-13 0 0)
(2.09225e-13 0 0)
(2.27824e-13 0 0)
(9.93765e-14 0 0)
(9.27088e-15 0 0)
(4.76495e-14 0 0)
(-4.46969e-14 0 0)
(-1.00136e-13 0 0)
(-3.00116e-14 0 0)
(1.58681e-14 0 0)
(5.91817e-14 0 0)
(-4.53487e-14 0 0)
(-1.53374e-13 0 0)
(-2.26421e-13 0 0)
(-2.50621e-13 0 0)
(-3.43942e-13 0 0)
(-5.1863e-13 0 0)
(-4.79455e-13 0 0)
(-3.34049e-13 0 0)
(-3.54684e-13 0 0)
(-3.60777e-13 0 0)
(-3.03918e-13 0 0)
(-2.67548e-13 0 0)
(-2.83375e-13 0 0)
(-3.18387e-13 0 0)
(-2.61376e-13 0 0)
(-2.35171e-13 0 0)
(-4.90554e-13 0 0)
(-6.58575e-13 0 0)
(-6.76134e-13 0 0)
(-6.93553e-13 0 0)
(-7.80302e-13 0 0)
(-7.5966e-13 0 0)
(-7.43866e-13 0 0)
(-7.67201e-13 0 0)
(-8.63207e-13 0 0)
(-8.48727e-13 0 0)
(-8.63942e-13 0 0)
(-8.86848e-13 0 0)
(-8.71299e-13 0 0)
(-9.08353e-13 0 0)
(-9.53372e-13 0 0)
(-8.32984e-13 0 0)
(-8.33864e-13 0 0)
(-8.39928e-13 0 0)
(-8.13002e-13 0 0)
(-7.85605e-13 0 0)
(-7.22913e-13 0 0)
(-6.97521e-13 0 0)
(-6.18076e-13 0 0)
(-5.45953e-13 0 0)
(-5.99876e-13 0 0)
(-7.00664e-13 0 0)
(-6.59761e-13 0 0)
(-6.85411e-13 0 0)
(-6.17798e-13 0 0)
(-5.73746e-13 0 0)
(-5.30422e-13 0 0)
(-3.85388e-13 0 0)
(-3.14511e-13 0 0)
(-3.11185e-13 0 0)
(-3.72953e-13 0 0)
(-3.42192e-13 0 0)
(-2.86972e-13 0 0)
(-2.91668e-13 0 0)
(-2.77554e-13 0 0)
(-6.83242e-14 0 0)
(5.89769e-14 0 0)
(3.61941e-14 0 0)
(-1.82419e-14 0 0)
(-9.28676e-14 0 0)
(-9.55424e-14 0 0)
(-1.08e-13 0 0)
(-2.09736e-13 0 0)
(-3.32311e-13 0 0)
(-3.22073e-13 0 0)
(-3.77758e-13 0 0)
(-5.84558e-13 0 0)
(-7.02527e-13 0 0)
(-7.68081e-13 0 0)
(-8.82002e-13 0 0)
(-9.46878e-13 0 0)
(-9.1863e-13 0 0)
(-9.69869e-13 0 0)
(-9.76495e-13 0 0)
(-8.11667e-13 0 0)
(-7.40444e-13 0 0)
(-7.8893e-13 0 0)
(-8.40667e-13 0 0)
(-1.01514e-12 0 0)
(-1.07342e-12 0 0)
(-1.25612e-12 0 0)
(-1.42833e-12 0 0)
(-1.51536e-12 0 0)
(-1.59131e-12 0 0)
(-1.46623e-12 0 0)
(-1.42976e-12 0 0)
(-1.38888e-12 0 0)
(-1.36271e-12 0 0)
(-1.31761e-12 0 0)
(-1.27621e-12 0 0)
(-1.22479e-12 0 0)
(-1.17824e-12 0 0)
(-1.17808e-12 0 0)
(-1.14105e-12 0 0)
(-1.1615e-12 0 0)
(-1.23877e-12 0 0)
(-1.28622e-12 0 0)
(-1.26299e-12 0 0)
(-1.33127e-12 0 0)
(-1.35946e-12 0 0)
(-1.35437e-12 0 0)
(-1.45967e-12 0 0)
(-1.52505e-12 0 0)
(-1.50178e-12 0 0)
(-1.53774e-12 0 0)
(-1.50041e-12 0 0)
(-1.4627e-12 0 0)
(-1.53139e-12 0 0)
(-1.5515e-12 0 0)
(-1.43128e-12 0 0)
(-1.32132e-12 0 0)
(-1.22818e-12 0 0)
(-1.26949e-12 0 0)
(-1.20952e-12 0 0)
(-1.12808e-12 0 0)
(-1.05972e-12 0 0)
(-1.08128e-12 0 0)
(-1.12914e-12 0 0)
(-1.08662e-12 0 0)
(-1.05172e-12 0 0)
(-1.09382e-12 0 0)
(-1.03593e-12 0 0)
(-9.99878e-13 0 0)
(-1.06941e-12 0 0)
(-1.0293e-12 0 0)
(-1.17081e-12 0 0)
(-1.31263e-12 0 0)
(-1.41197e-12 0 0)
(-1.37983e-12 0 0)
(-1.40327e-12 0 0)
(-1.50506e-12 0 0)
(-1.5905e-12 0 0)
(-1.55808e-12 0 0)
(-1.51493e-12 0 0)
(-1.46629e-12 0 0)
(-1.38133e-12 0 0)
(-1.38537e-12 0 0)
(-1.39452e-12 0 0)
(-1.35787e-12 0 0)
(-1.24456e-12 0 0)
(-1.07071e-12 0 0)
(-1.0356e-12 0 0)
(-1.0586e-12 0 0)
(-9.23776e-13 0 0)
(-9.24793e-13 0 0)
(-9.5484e-13 0 0)
(-9.18914e-13 0 0)
(-8.58943e-13 0 0)
(-8.35228e-13 0 0)
(-8.27556e-13 0 0)
(-7.99824e-13 0 0)
(-7.66261e-13 0 0)
(-8.02136e-13 0 0)
(-7.59293e-13 0 0)
(-6.76554e-13 0 0)
(-6.7991e-13 0 0)
(-6.46058e-13 0 0)
(-5.76778e-13 0 0)
(-5.30247e-13 0 0)
(-4.92171e-13 0 0)
(-3.99651e-13 0 0)
(-3.30677e-13 0 0)
(-3.49342e-13 0 0)
(-1.62743e-13 0 0)
(-1.82739e-13 0 0)
(-2.22807e-13 0 0)
(-1.9446e-13 0 0)
(-2.13711e-13 0 0)
(-2.93611e-13 0 0)
(-3.99528e-13 0 0)
(-4.20577e-13 0 0)
(-4.02511e-13 0 0)
(-3.53204e-13 0 0)
(-3.64772e-13 0 0)
(-4.36686e-13 0 0)
(-5.12747e-13 0 0)
(-5.45575e-13 0 0)
(-6.03917e-13 0 0)
(-6.82306e-13 0 0)
(-7.21858e-13 0 0)
(-7.6573e-13 0 0)
(-7.55354e-13 0 0)
(-6.86505e-13 0 0)
(-6.58954e-13 0 0)
(-7.657e-13 0 0)
(-7.32864e-13 0 0)
(-7.73838e-13 0 0)
(-8.24741e-13 0 0)
(-9.19697e-13 0 0)
(-9.13748e-13 0 0)
(-8.85182e-13 0 0)
(-8.8899e-13 0 0)
(-8.30827e-13 0 0)
(-7.81661e-13 0 0)
(-8.015e-13 0 0)
(-8.44153e-13 0 0)
(-8.72403e-13 0 0)
(-8.67695e-13 0 0)
(-7.94631e-13 0 0)
(-7.02922e-13 0 0)
(-7.83901e-13 0 0)
(-7.82267e-13 0 0)
(-7.3015e-13 0 0)
(-7.32394e-13 0 0)
(-6.92741e-13 0 0)
(-6.71848e-13 0 0)
(-7.30069e-13 0 0)
(-7.02301e-13 0 0)
(-5.86889e-13 0 0)
(-4.08412e-13 0 0)
(-2.38583e-13 0 0)
(-2.81045e-14 0 0)
(7.79675e-14 0 0)
(1.15705e-13 0 0)
(5.49145e-14 0 0)
(4.87077e-14 0 0)
(-3.69372e-14 0 0)
(-1.26851e-13 0 0)
(-1.60115e-13 0 0)
(-2.04639e-13 0 0)
(-2.36689e-13 0 0)
(-1.82833e-13 0 0)
(-2.04708e-13 0 0)
(-2.26569e-13 0 0)
(-2.5136e-13 0 0)
(-3.48875e-13 0 0)
(-3.92018e-13 0 0)
(-4.55071e-13 0 0)
(-4.11415e-13 0 0)
(-3.92941e-13 0 0)
(-2.63929e-13 0 0)
(-1.80464e-13 0 0)
(-9.43335e-14 0 0)
(-2.07039e-14 0 0)
(-5.35738e-14 0 0)
(-6.13283e-14 0 0)
(-1.0689e-13 0 0)
(-1.8694e-13 0 0)
(-2.34768e-13 0 0)
(-2.70848e-13 0 0)
(-2.8774e-13 0 0)
(-2.33606e-13 0 0)
(-3.43485e-13 0 0)
(-2.96122e-13 0 0)
(-2.37036e-13 0 0)
(-2.40813e-13 0 0)
(-2.16639e-13 0 0)
(-2.04978e-13 0 0)
(-1.81181e-13 0 0)
(-2.23827e-13 0 0)
(-2.45446e-13 0 0)
(-2.42265e-13 0 0)
(-2.02367e-13 0 0)
(-1.85353e-13 0 0)
(-8.94192e-14 0 0)
(-1.06131e-13 0 0)
(-1.71075e-13 0 0)
(-6.36038e-14 0 0)
(-3.97682e-14 0 0)
(-6.7199e-14 0 0)
(-2.21261e-14 0 0)
(-6.56633e-14 0 0)
(2.74816e-14 0 0)
(1.19339e-13 0 0)
(5.98722e-14 0 0)
(6.2114e-14 0 0)
(6.32162e-14 0 0)
(-9.61132e-14 0 0)
(-1.86001e-13 0 0)