/*--------------------------------*- C++ -*----------------------------------*\
  =========                 |
  \\      /  F ield         | OpenFOAM: The Open Source CFD Toolbox
   \\    /   O peration     | Website:  https://openfoam.org
    \\  /    A nd           | Version:  9
     \\/     M anipulation  |
\*---------------------------------------------------------------------------*/
FoamFile
{
    format      ascii;
    class       volScalarField;
    location    "0.018";
    object      mag(U);
}
// * * * * * * * * * * * * * * * * * * * * * * * * * * * * * * * * * * * * * //

dimensions      [0 1 -1 0 0 0 0];

internalField   nonuniform List<scalar> 
100
(
20.6805
31.0496
37.9415
45.0701
52.1188
59.2083
66.3051
73.4124
80.5103
87.6067
94.6936
101.739
108.798
115.751
122.748
129.55
136.43
143.022
149.646
156.072
162.204
168.323
174.035
179.778
185.125
190.265
195.371
200.2
204.885
209.525
214.024
218.414
222.762
227.048
231.257
235.422
239.529
243.568
247.534
251.448
255.272
258.986
262.581
266.07
269.428
272.621
275.608
278.376
280.934
283.306
285.424
287.169
288.661
289.956
290.95
291.715
292.331
292.679
292.771
292.845
292.971
293.092
293.172
293.216
293.237
293.249
293.263
293.259
293.236
293.193
293.142
293.097
293.088
293.067
293.046
293.022
292.982
292.933
292.871
292.79
292.695
292.586
292.459
292.31
292.131
291.928
291.686
291.318
290.705
289.677
287.859
284.336
277.273
263.274
235.637
203.679
210.32
218.924
222.264
222.75
)
;

boundaryField
{
    sides
    {
        type            calculated;
        value           nonuniform List<scalar> 2(222.75 20.6805);
    }
    empty
    {
        type            empty;
    }
}


// ************************************************************************* //
