/*--------------------------------*- C++ -*----------------------------------*\
  =========                 |
  \\      /  F ield         | OpenFOAM: The Open Source CFD Toolbox
   \\    /   O peration     | Website:  https://openfoam.org
    \\  /    A nd           | Version:  9
     \\/     M anipulation  |
\*---------------------------------------------------------------------------*/
FoamFile
{
    format      ascii;
    class       volScalarField;
    location    "0.018";
    object      p;
}
// * * * * * * * * * * * * * * * * * * * * * * * * * * * * * * * * * * * * * //

dimensions      [1 -1 -2 0 0 0 0];

internalField   nonuniform List<scalar> 
100
(
55818.7
55372.8
55112.7
54852.8
54588.7
54320.5
54046.8
53769
53484.2
53191.3
52891.7
52579.8
52261.1
51924.3
51581.7
51209.7
50837.6
50415
49996.2
49517.2
49029.3
48488.9
47922.8
47315.1
46663.6
45996.2
45298.5
44581.8
43858
43125.9
42391
41659.8
40936.5
40223.4
39522.1
38835.4
38165.2
37513.5
36879.9
36266.3
35674.7
35107.1
34564.3
34047.8
33559.3
33101.2
32676.6
32287.1
31931.5
31614
31340.1
31095.3
30902.6
30743.5
30618.5
30517.6
30459.9
30427.4
30389.3
30386.6
30386.7
30387.2
30387.3
30388.9
30388.2
30393
30399.1
30402.8
30403.5
30409.5
30435.1
30440.4
30443.5
30436.3
30473.8
30501.3
30520.4
30541.6
30556.9
30572.3
30589.4
30607.8
30626.4
30643.8
30654.3
30656.4
30740.2
30797.8
30861.7
30955.9
31182.2
31643
32449.8
34029.7
37069
43168.5
42847.5
42124.1
42037.4
41805.2
)
;

boundaryField
{
    sides
    {
        type            zeroGradient;
    }
    empty
    {
        type            empty;
    }
}


// ************************************************************************* //
