/*--------------------------------*- C++ -*----------------------------------*\
  =========                 |
  \\      /  F ield         | OpenFOAM: The Open Source CFD Toolbox
   \\    /   O peration     | Website:  https://openfoam.org
    \\  /    A nd           | Version:  9
     \\/     M anipulation  |
\*---------------------------------------------------------------------------*/
FoamFile
{
    format      ascii;
    class       volScalarField;
    location    "0.009";
    object      T;
}
// * * * * * * * * * * * * * * * * * * * * * * * * * * * * * * * * * * * * * //

dimensions      [0 0 0 1 0 0 0];

internalField   nonuniform List<scalar> 
100
(
348.432
348.432
348.431
348.43
348.426
348.419
348.402
348.367
348.295
348.156
347.907
347.498
346.867
345.954
344.717
343.142
341.249
339.078
336.686
334.124
331.439
328.665
325.829
322.95
320.041
317.112
314.172
311.224
308.278
305.326
302.405
299.427
296.628
293.459
291.111
287.383
285.576
282.124
279.086
277.318
274.199
270.847
268.894
267.05
264.123
261.001
259.049
258
256.444
253.877
251.573
250.711
250.659
250.523
249.809
248.743
248.339
248.393
248.684
249.177
249.305
249.258
249.089
249.051
249.097
249.411
249.899
250.148
250.252
250.282
250.335
250.556
251.513
255.162
268.053
300.221
332.532
358.028
376.302
388.2
395.264
399
400.462
400.612
400.299
398.836
397.295
396.598
396.427
396.646
397.061
397.826
398.392
398.443
398.402
398.048
396.819
395.928
393.185
400.705
)
;

boundaryField
{
    sides
    {
        type            zeroGradient;
    }
    empty
    {
        type            empty;
    }
}


// ************************************************************************* //
