/*--------------------------------*- C++ -*----------------------------------*\
  =========                 |
  \\      /  F ield         | OpenFOAM: The Open Source CFD Toolbox
   \\    /   O peration     | Website:  https://openfoam.org
    \\  /    A nd           | Version:  9
     \\/     M anipulation  |
\*---------------------------------------------------------------------------*/
FoamFile
{
    format      ascii;
    class       volScalarField;
    location    "0.011";
    object      p;
}
// * * * * * * * * * * * * * * * * * * * * * * * * * * * * * * * * * * * * * //

dimensions      [1 -1 -2 0 0 0 0];

internalField   nonuniform List<scalar> 
1000
(
100000
100000
100000
100000
100000
100000
100000
100000
100000
100000
100000
100000
100000
100000
100000
100000
100000
100000
100000
100000
100000
100000
100000
100000
100000
100000
100000
100000
100000
100000
100000
100000
100000
100000
100000
100000
100000
100000
100000
100000
100000
100000
100000
100000
100000
100000
100000
100000
100000
100000
100000
100000
99999.9
99999.9
99999.8
99999.7
99999.6
99999.4
99999.1
99998.7
99998.1
99997.2
99995.9
99994.1
99991.7
99988.2
99983.5
99977.2
99968.6
99957.3
99942.4
99923
99898.1
99866.5
99827
99778.1
99718.5
99646.9
99562.2
99463.4
99350.2
99223.1
99083.2
98931.8
98770.1
98599.2
98419.8
98232.8
98038.9
97838.7
97632.9
97422.1
97206.8
96987.5
96764.6
96538.7
96310
96078.8
95845.5
95610.3
95373.5
95135.1
94895.6
94654.9
94413.2
94170.7
93927.5
93683.7
93439.4
93194.6
92949.4
92704
92458.3
92212.5
91966.5
91720.4
91474.3
91228.2
90982.2
90736.2
90490.3
90244.6
89999
89753.6
89508.3
89263.3
89018.6
88774.1
88529.8
88285.9
88042.3
87798.9
87555.9
87313.3
87071
86829
86587.4
86346.2
86105.4
85865
85625
85385.3
85146.1
84907.4
84669
84431.1
84193.6
83956.5
83719.9
83483.8
83248.1
83012.8
82778
82543.7
82309.8
82076.4
81843.5
81611.1
81379.1
81147.6
80916.6
80686
80456
80226.4
79997.4
79768.8
79540.7
79313.1
79086
78859.4
78633.2
78407.6
78182.5
77957.9
77733.7
77510.1
77287
77064.3
76842.2
76620.6
76399.4
76178.8
75958.7
75739.1
75519.9
75301.3
75083.2
74865.6
74648.5
74431.9
74215.8
74000.2
73785.1
73570.5
73356.4
73142.8
72929.8
72717.2
72505.1
72293.5
72082.5
71871.9
71661.8
71452.2
71243.2
71034.6
70826.5
70619
70411.9
70205.3
69999.2
69793.7
69588.6
69384
69179.9
68976.3
68773.2
68570.6
68368.5
68166.9
67965.8
67765.1
67565
67365.3
67166.2
66967.5
66769.3
66571.6
66374.4
66177.7
65981.5
65785.7
65590.5
65395.7
65201.4
65007.6
64814.3
64621.4
64429.1
64237.2
64045.8
63854.8
63664.4
63474.4
63284.9
63095.9
62907.4
62719.3
62531.7
62344.6
62158
61971.8
61786.1
61600.8
61416.1
61231.8
61047.9
60864.6
60681.7
60499.2
60317.3
60135.8
59954.7
59774.2
59594
59414.4
59235.2
59056.5
58878.2
58700.4
58523
58346.1
58169.7
57993.7
57818.1
57643
57468.4
57294.2
57120.5
56947.2
56774.4
56602
56430.1
56258.6
56087.6
55917
55746.8
55577.1
55407.9
55239.1
55070.7
54902.7
54735.3
54568.2
54401.6
54235.4
54069.7
53904.4
53739.5
53575.1
53411.1
53247.6
53084.4
52921.7
52759.5
52597.7
52436.3
52275.3
52114.8
51954.6
51794.9
51635.6
51476.8
51318.2
51160.3
51002.6
50845.5
50688.7
50532.4
50376.5
50221
50065.9
49911.2
49757
49603.1
49449.7
49296.7
49144.1
48991.9
48840.2
48688.8
48537.9
48387.3
48237.2
48087.5
47938.2
47789.3
47640.8
47492.7
47345.1
47197.8
47050.9
46904.5
46758.4
46612.8
46467.6
46322.7
46178.3
46034.3
45890.6
45747.4
45604.6
45462.2
45320.1
45178.5
45037.3
44896.4
44756
44616
44476.3
44337.1
44198.3
44059.8
43921.8
43784.1
43646.9
43510
43373.6
43237.5
43101.8
42966.5
42831.6
42697.2
42563.1
42429.4
42296.1
42163.2
42030.6
41898.5
41766.8
41635.5
41504.5
41374
41243.9
41114.1
40984.7
40855.8
40727.2
40599.1
40471.3
40343.9
40216.9
40090.4
39964.2
39838.4
39713
39588.1
39463.5
39339.3
39215.5
39092.2
38969.2
38846.7
38724.5
38602.8
38481.5
38360.6
38240.1
38120
38000.4
37881.1
37762.3
37644
37526
37408.5
37291.4
37174.7
37058.5
36942.7
36827.4
36712.5
36598.1
36484.2
36370.7
36257.6
36145.1
36033
35921.4
35810.3
35699.7
35589.6
35480
35370.9
35262.4
35154.3
35046.9
34939.9
34833.6
34727.8
34622.6
34517.9
34413.9
34310.5
34207.7
34105.6
34004.2
33903.4
33803.3
33704
33605.3
33507.5
33410.4
33314
33218.5
33123.9
33030.1
32937.2
32845.2
32754.2
32664.2
32575.2
32487.3
32400.5
32314.9
32230.5
32147.2
32065.3
31984.7
31905.4
31827.5
31751.1
31676.2
31602.8
31531
31460.9
31392.6
31326
31261.3
31198.5
31137.6
31078.8
31022.1
30967.5
30915.1
30864.9
30817.1
30771.5
30728.3
30687.4
30648.8
30612.6
30578.7
30547.1
30517.8
30490.7
30465.7
30442.9
30422
30403.2
30386.1
30370.8
30357.2
30345
30334.3
30324.7
30316.5
30309.2
30302.9
30297.4
30292.6
30288.6
30285.1
30282
30279.6
30277.6
30276.2
30275.1
30274.6
30274.7
30274.9
30275.5
30276.8
30279.6
30285.1
30294
30303
30310.9
30317.7
30323.2
30327.3
30330.1
30331.6
30331.6
30331.5
30331.4
30330.9
30330.1
30328.2
30325.1
30321.8
30318.9
30316.3
30314.2
30312.6
30311.4
30310.5
30310.2
30310.2
30310.2
30310.2
30310.3
30310.4
30310.5
30310.6
30310.7
30310.7
30310.8
30310.9
30310.9
30310.9
30310.9
30310.9
30310.9
30310.9
30310.8
30310.8
30310.8
30310.7
30310.7
30310.7
30310.8
30310.7
30310.5
30310.5
30310.5
30310.5
30310.5
30310.5
30310.5
30310.5
30310.4
30310.5
30310.5
30310.2
30310
30310
30310.2
30310.4
30310.3
30310.3
30310.4
30310.2
30309.8
30309.7
30309.6
30309.5
30309.5
30309.5
30309.4
30309.5
30309.5
30309.5
30309.5
30309.6
30309.6
30309.5
30309.6
30309.5
30309.4
30309.5
30309.3
30309.3
30309.6
30309.1
30308.5
30308.5
30309
30308.8
30308
30308
30308.8
30308.7
30307.7
30307.4
30307.9
30308.5
30308.4
30308.2
30308.6
30308.3
30307.1
30306.9
30308
30308.4
30306.5
30305.6
30307.7
30309.6
30306
30302.5
30301.7
30306.7
30309.8
30307.8
30303.8
30303.2
30306.7
30308.3
30305.5
30303.7
30304.7
30306.8
30306.5
30305.5
30305.3
30305.6
30305.6
30305.3
30306
30306.4
30305.3
30304.9
30305.2
30305.4
30304.8
30305.4
30306.7
30304.4
30302.7
30305.3
30307.3
30304.4
30302
30304.2
30307.7
30305.9
30301.6
30301
30305.7
30307.8
30304.1
30300.9
30305.7
30310.1
30301.5
30296
30311
30318.2
30296.9
30285.7
30307.8
30325.5
30309.8
30286
30294.8
30323.4
30319.2
30288.8
30286.9
30317.6
30327.4
30307.1
30291.2
30294.7
30313.3
30316.5
30307.3
30301.2
30304.3
30311
30310.3
30305.5
30305.4
30309.7
30310.3
30307.1
30306.3
30309.6
30310.8
30308.2
30306.8
30308.9
30311
30310.6
30308.8
30308.8
30310.5
30310.5
30309.6
30310.4
30311.7
30310.3
30309.3
30311.5
30312.4
30310.1
30309.8
30313
30312.8
30309.6
30311
30315.1
30312.3
30308.4
30313.2
30317.8
30310.9
30306.7
30316
30320.7
30309.9
30304.7
30316.1
30322.6
30312.6
30304.8
30310.6
30320.5
30318.7
30310.2
30308.4
30314.3
30318.1
30316
30312.2
30313.1
30317.1
30315.9
30312.6
30314.7
30318.8
30314.5
30310.5
30316.9
30322.2
30312.3
30306.1
30319.4
30327.5
30309.6
30301.9
30326.2
30333.9
30300.6
30296.7
30345.2
30339.9
30275.2
30289.3
30381.5
30352.7
30232.7
30263.7
30431.3
30406.4
30201.5
30191.9
30425
30482.4
30281.7
30177.5
30246.7
30444.1
30446.3
30257
30200.4
30316
30429.5
30354.8
30243.1
30256.4
30399.5
30403
30253.8
30217.5
30378.6
30445.9
30302.2
30165.2
30262.2
30496
30445.6
30122.7
30071
30413.4
30591
30382
30064
30034.6
30431.2
30614.7
30447.7
30085.9
30022.9
30371.3
30587
30486.5
30133.6
30063.3
30327.4
30536.9
30452.8
30171.7
30128.5
30367
30496.9
30343.9
30158
30190
30436.1
30473.7
30254.2
30145.2
30269.6
30464.4
30437.8
30201.8
30151.9
30335.3
30456.3
30371.2
30202.4
30210.3
30372
30407.8
30292.4
30229.5
30302
30382.6
30336.4
30240.8
30269.8
30378.6
30362.8
30240.2
30239.9
30374.7
30393.4
30257.2
30215.3
30341.4
30410.9
30311.6
30224.5
30279.9
30382.2
30365.9
30266.8
30256.3
30333.2
30362.7
30316.5
30276.1
30302.8
30349.5
30336.5
30286.1
30295.7
30352.3
30347.7
30286.6
30290.3
30364.5
30363.9
30281.5
30280.6
30387.8
30397.6
30275.7
30253.5
30403.8
30455.5
30307.9
30219.6
30355.6
30506.5
30447.9
30240.3
30230
30467.8
30560.7
30422.2
30247.8
30283.7
30540.6
30599.4
30428.2
30292.3
30374.4
30597.6
30625.3
30450.6
30364.7
30506.1
30659.4
30650.1
30495.9
30476
30656.6
30731.1
30684.3
30584
30642.9
30795.1
30821.8
30760.5
30715
30844.9
30937.1
30948.5
30889.7
30894
31054.4
31104.3
31096.3
31056.4
31164.8
31270.4
31284.9
31261.9
31348.4
31485.5
31509.4
31490.7
31603
31770.4
31804.2
31787.3
31915.3
32138
32193.9
32189.3
32279.3
32597.5
32696.6
32721.7
32743.5
33124.2
33328
33411.9
33446.6
33796.7
34202.1
34365.8
34476.8
34972.9
35248.8
35298.2
35554.7
35636.2
35613.7
35613.7
35727.7
35786.9
35768.8
35684.1
35749.6
35879.1
35852.5
35697.4
)
;

boundaryField
{
    sides
    {
        type            zeroGradient;
    }
    empty
    {
        type            empty;
    }
}


// ************************************************************************* //
