/*--------------------------------*- C++ -*----------------------------------*\
  =========                 |
  \\      /  F ield         | OpenFOAM: The Open Source CFD Toolbox
   \\    /   O peration     | Website:  https://openfoam.org
    \\  /    A nd           | Version:  9
     \\/     M anipulation  |
\*---------------------------------------------------------------------------*/
FoamFile
{
    format      ascii;
    class       volScalarField;
    location    "0.011";
    object      T;
}
// * * * * * * * * * * * * * * * * * * * * * * * * * * * * * * * * * * * * * //

dimensions      [0 0 0 1 0 0 0];

internalField   nonuniform List<scalar> 
1000
(
348.432
348.432
348.432
348.432
348.432
348.432
348.432
348.432
348.432
348.432
348.432
348.432
348.432
348.432
348.432
348.432
348.432
348.432
348.432
348.432
348.432
348.432
348.432
348.432
348.432
348.432
348.432
348.432
348.432
348.432
348.432
348.432
348.432
348.432
348.432
348.432
348.432
348.432
348.432
348.432
348.432
348.432
348.432
348.432
348.432
348.432
348.432
348.432
348.432
348.432
348.432
348.432
348.432
348.432
348.432
348.432
348.432
348.431
348.431
348.431
348.43
348.429
348.428
348.426
348.424
348.42
348.416
348.409
348.401
348.389
348.375
348.355
348.33
348.299
348.259
348.211
348.151
348.079
347.995
347.896
347.782
347.655
347.515
347.362
347.2
347.028
346.847
346.658
346.462
346.26
346.051
345.837
345.618
345.395
345.167
344.936
344.702
344.465
344.226
343.984
343.74
343.494
343.246
342.996
342.746
342.493
342.24
341.986
341.73
341.474
341.216
340.958
340.699
340.44
340.18
339.919
339.658
339.396
339.134
338.871
338.608
338.345
338.081
337.817
337.552
337.288
337.023
336.758
336.492
336.227
335.961
335.695
335.429
335.163
334.896
334.63
334.363
334.096
333.829
333.562
333.295
333.028
332.761
332.493
332.226
331.959
331.691
331.424
331.156
330.889
330.621
330.354
330.086
329.818
329.551
329.283
329.015
328.748
328.48
328.212
327.945
327.677
327.41
327.142
326.875
326.607
326.34
326.072
325.805
325.537
325.27
325.003
324.735
324.468
324.201
323.934
323.667
323.4
323.133
322.866
322.599
322.332
322.066
321.799
321.532
321.266
320.999
320.733
320.466
320.2
319.934
319.668
319.402
319.136
318.87
318.604
318.338
318.072
317.807
317.541
317.276
317.01
316.745
316.48
316.214
315.949
315.684
315.419
315.154
314.89
314.625
314.36
314.096
313.831
313.567
313.303
313.039
312.775
312.511
312.247
311.983
311.719
311.456
311.192
310.929
310.665
310.402
310.139
309.876
309.613
309.35
309.087
308.825
308.562
308.3
308.037
307.775
307.513
307.251
306.989
306.727
306.465
306.203
305.942
305.68
305.419
305.157
304.896
304.635
304.374
304.113
303.852
303.592
303.331
303.071
302.81
302.55
302.29
302.03
301.77
301.51
301.25
300.991
300.731
300.472
300.212
299.953
299.694
299.435
299.176
298.917
298.659
298.4
298.142
297.883
297.625
297.367
297.109
296.851
296.593
296.336
296.078
295.821
295.563
295.306
295.049
294.792
294.535
294.278
294.022
293.765
293.509
293.252
292.996
292.74
292.484
292.228
291.973
291.717
291.462
291.206
290.951
290.696
290.44
290.187
289.929
289.68
289.417
289.176
288.902
288.676
288.382
288.181
287.86
287.685
287.346
287.177
286.851
286.648
286.376
286.107
285.9
285.586
285.391
285.104
284.849
284.635
284.327
284.122
283.854
283.58
283.376
283.081
282.843
282.616
282.321
282.102
281.854
281.569
281.356
281.095
280.82
280.608
280.34
280.074
279.857
279.592
279.324
279.108
278.844
278.578
278.357
278.101
277.832
277.607
277.361
277.088
276.856
276.62
276.35
276.105
275.879
275.615
275.359
275.132
274.883
274.618
274.383
274.149
273.886
273.635
273.409
273.159
272.897
272.662
272.43
272.17
271.919
271.689
271.448
271.187
270.946
270.716
270.468
270.211
269.976
269.744
269.492
269.239
269.008
268.773
268.521
268.272
268.042
267.806
267.555
267.308
267.077
266.843
266.593
266.348
266.116
265.884
265.636
265.391
265.159
264.928
264.685
264.439
264.205
263.977
263.738
263.493
263.256
263.03
262.796
262.553
262.314
262.086
261.858
261.621
261.38
261.149
260.924
260.694
260.455
260.221
259.995
259.771
259.539
259.304
259.075
258.853
258.629
258.398
258.167
257.943
257.725
257.503
257.275
257.048
256.829
256.614
256.395
256.171
255.95
255.735
255.525
255.311
255.092
254.876
254.668
254.463
254.255
254.044
253.834
253.632
253.434
253.235
253.033
252.832
252.637
252.449
252.261
252.07
251.88
251.695
251.518
251.343
251.167
250.991
250.819
250.655
250.496
250.339
250.181
250.025
249.877
249.738
249.602
249.466
249.333
249.205
249.086
248.975
248.866
248.758
248.655
248.56
248.473
248.393
248.315
248.239
248.168
248.105
248.051
248.001
247.952
247.904
247.862
247.829
247.801
247.774
247.748
247.722
247.702
247.688
247.676
247.665
247.652
247.639
247.63
247.627
247.625
247.62
247.614
247.61
247.61
247.611
247.614
247.616
247.62
247.629
247.639
247.659
247.681
247.701
247.718
247.73
247.737
247.745
247.751
247.752
247.752
247.751
247.749
247.747
247.743
247.738
247.731
247.725
247.719
247.713
247.71
247.709
247.707
247.707
247.707
247.707
247.707
247.708
247.71
247.71
247.71
247.711
247.711
247.712
247.713
247.714
247.714
247.714
247.715
247.715
247.716
247.717
247.717
247.717
247.717
247.718
247.719
247.719
247.72
247.72
247.72
247.72
247.721
247.722
247.722
247.723
247.723
247.724
247.724
247.725
247.725
247.725
247.725
247.727
247.728
247.728
247.729
247.73
247.73
247.729
247.73
247.73
247.731
247.731
247.732
247.733
247.733
247.734
247.735
247.735
247.736
247.737
247.738
247.738
247.739
247.739
247.74
247.741
247.741
247.743
247.742
247.742
247.742
247.745
247.745
247.744
247.744
247.747
247.748
247.746
247.746
247.748
247.75
247.751
247.751
247.753
247.754
247.752
247.752
247.755
247.757
247.754
247.752
247.758
247.764
247.757
247.749
247.747
247.76
247.769
247.766
247.757
247.756
247.765
247.771
247.766
247.762
247.765
247.772
247.772
247.771
247.772
247.774
247.775
247.775
247.778
247.78
247.779
247.778
247.78
247.782
247.782
247.784
247.789
247.785
247.782
247.789
247.796
247.791
247.786
247.792
247.803
247.801
247.792
247.791
247.803
247.811
247.804
247.797
247.809
247.823
247.806
247.791
247.827
247.85
247.803
247.774
247.824
247.873
247.843
247.784
247.8
247.874
247.872
247.8
247.791
247.867
247.896
247.854
247.814
247.821
247.87
247.881
247.862
247.849
247.856
247.876
247.878
247.868
247.869
247.883
247.887
247.882
247.882
247.893
247.899
247.896
247.895
247.902
247.911
247.913
247.912
247.915
247.923
247.926
247.927
247.932
247.939
247.94
247.941
247.95
247.957
247.955
247.958
247.97
247.974
247.971
247.977
247.992
247.99
247.985
248
248.017
248.007
248
248.026
248.045
248.027
248.018
248.049
248.073
248.057
248.043
248.061
248.094
248.098
248.085
248.086
248.108
248.126
248.129
248.128
248.139
248.158
248.165
248.167
248.182
248.203
248.204
248.204
248.23
248.257
248.247
248.243
248.287
248.324
248.298
248.29
248.363
248.405
248.346
248.342
248.48
248.504
248.37
248.402
248.659
248.644
248.37
248.434
248.89
248.899
248.432
248.408
249.009
249.218
248.82
248.595
248.765
249.334
249.431
249.046
248.957
249.278
249.655
249.583
249.378
249.455
249.915
250.07
249.88
249.999
250.97
253.231
258.785
270.29
283.292
296.836
309.422
320.647
331.909
343.521
353.553
361.156
367.237
373.225
379.81
384.714
387.538
388.958
390.923
393.934
395.927
396.446
395.685
395.72
396.947
398.004
397.925
396.927
396.805
397.763
398.377
397.916
397.181
397.258
398.26
398.47
397.665
397.208
397.616
398.431
398.403
397.473
397.242
397.906
398.417
398.16
397.47
397.46
398.095
398.263
397.844
397.572
397.817
398.157
398.019
397.625
397.695
398.136
398.116
397.631
397.589
398.112
398.225
397.712
397.517
397.981
398.289
397.949
397.584
397.758
398.182
398.152
397.753
397.691
397.975
398.099
397.933
397.754
397.83
398.016
397.981
397.773
397.789
398.015
398.019
397.781
397.777
398.077
398.112
397.801
397.774
398.202
398.288
397.834
397.714
398.289
398.537
398.011
397.633
398.1
398.731
398.582
397.742
397.651
398.558
398.954
398.493
397.769
397.832
398.846
399.106
398.5
397.935
398.171
399.079
399.219
398.575
398.209
398.69
399.329
399.338
398.736
398.62
399.296
399.611
399.468
399.06
399.228
399.836
399.943
399.72
399.515
399.969
400.342
400.387
400.166
400.133
400.739
400.932
400.909
400.746
401.112
401.535
401.588
401.505
401.777
402.323
402.41
402.348
402.712
403.379
403.505
403.454
403.862
404.739
404.946
404.949
405.201
406.42
406.784
406.894
406.926
408.293
409.069
409.377
409.507
410.671
412.175
412.738
413.106
414.78
415.762
415.906
416.704
417.023
416.99
416.924
417.209
417.341
417.313
417.05
417.284
417.803
417.739
417.224
)
;

boundaryField
{
    sides
    {
        type            zeroGradient;
    }
    empty
    {
        type            empty;
    }
}


// ************************************************************************* //
