/*--------------------------------*- C++ -*----------------------------------*\
  =========                 |
  \\      /  F ield         | OpenFOAM: The Open Source CFD Toolbox
   \\    /   O peration     | Website:  https://openfoam.org
    \\  /    A nd           | Version:  9
     \\/     M anipulation  |
\*---------------------------------------------------------------------------*/
FoamFile
{
    format      ascii;
    class       volScalarField;
    location    "0.029";
    object      rho;
}
// * * * * * * * * * * * * * * * * * * * * * * * * * * * * * * * * * * * * * //

dimensions      [1 -3 0 0 0 0 0];

internalField   nonuniform List<scalar> 
1000
(
0.330951
0.330871
0.330754
0.330645
0.330536
0.330426
0.33032
0.33022
0.330122
0.33002
0.32991
0.329796
0.32968
0.32957
0.329469
0.32938
0.329304
0.329238
0.329178
0.329122
0.329067
0.329013
0.328962
0.328919
0.32888
0.328841
0.328802
0.328763
0.328724
0.328684
0.328645
0.328605
0.328566
0.328526
0.328486
0.328447
0.328407
0.328367
0.328327
0.328287
0.328247
0.328208
0.328168
0.328128
0.328088
0.328048
0.328008
0.327968
0.327928
0.327888
0.327848
0.327808
0.327768
0.327728
0.327687
0.327647
0.327607
0.327567
0.327527
0.327487
0.327446
0.327406
0.327366
0.327326
0.327285
0.327245
0.327205
0.327164
0.327124
0.327083
0.327043
0.327003
0.326962
0.326922
0.326881
0.326841
0.3268
0.32676
0.326719
0.326678
0.326638
0.326597
0.326556
0.326516
0.326474
0.326436
0.326392
0.326355
0.326309
0.326274
0.326228
0.326192
0.326146
0.326111
0.326064
0.326029
0.325982
0.325947
0.3259
0.325864
0.325819
0.325781
0.325739
0.325697
0.325658
0.325614
0.325576
0.325533
0.325492
0.325452
0.325408
0.325369
0.325327
0.325285
0.325245
0.325203
0.325162
0.325121
0.325079
0.325038
0.324997
0.324954
0.324913
0.324872
0.32483
0.324789
0.324747
0.324706
0.324664
0.324623
0.324581
0.324539
0.324498
0.324456
0.324414
0.324373
0.324331
0.324289
0.324247
0.324206
0.324164
0.324122
0.32408
0.324038
0.323996
0.323954
0.323913
0.323871
0.323829
0.323787
0.323745
0.323703
0.323661
0.323619
0.323577
0.323535
0.323492
0.32345
0.323408
0.323366
0.323324
0.323282
0.32324
0.323197
0.323155
0.323113
0.323071
0.323028
0.322986
0.322944
0.322902
0.322859
0.322817
0.322775
0.322732
0.32269
0.322647
0.322605
0.322563
0.32252
0.322478
0.322435
0.322393
0.32235
0.322308
0.322265
0.322223
0.32218
0.322138
0.322095
0.322053
0.32201
0.321968
0.321925
0.321882
0.32184
0.321797
0.321755
0.321712
0.321669
0.321627
0.321584
0.321541
0.321499
0.321456
0.321414
0.321371
0.321328
0.321286
0.321243
0.3212
0.321158
0.321115
0.321072
0.32103
0.320987
0.320944
0.320902
0.320859
0.320816
0.320774
0.320731
0.320688
0.320646
0.320603
0.32056
0.320518
0.320475
0.320432
0.32039
0.320347
0.320305
0.320262
0.32022
0.320177
0.320135
0.320092
0.32005
0.320007
0.319965
0.319922
0.31988
0.319837
0.319795
0.319752
0.31971
0.319668
0.319626
0.319583
0.319541
0.319499
0.319457
0.319414
0.319372
0.31933
0.319288
0.319246
0.319204
0.319162
0.31912
0.319078
0.319037
0.318995
0.318953
0.318911
0.31887
0.318828
0.318786
0.318745
0.318704
0.318662
0.318621
0.31858
0.318538
0.318497
0.318456
0.318415
0.318374
0.318333
0.318292
0.318252
0.318211
0.318171
0.31813
0.31809
0.318049
0.318009
0.317969
0.317929
0.317889
0.317849
0.317809
0.31777
0.31773
0.317691
0.317652
0.317612
0.317573
0.317534
0.317496
0.317457
0.317419
0.31738
0.317342
0.317304
0.317266
0.317228
0.31719
0.317153
0.317116
0.317079
0.317042
0.317005
0.316968
0.316932
0.316896
0.31686
0.316824
0.316789
0.316753
0.316718
0.316683
0.316649
0.316614
0.31658
0.316546
0.316513
0.31648
0.316447
0.316414
0.316381
0.316349
0.316317
0.316286
0.316255
0.316224
0.316194
0.316163
0.316134
0.316104
0.316075
0.316047
0.316019
0.315991
0.315964
0.315937
0.31591
0.315885
0.315859
0.315834
0.31581
0.315786
0.315763
0.31574
0.315718
0.315696
0.315675
0.315655
0.315635
0.315616
0.315598
0.31558
0.315563
0.315547
0.315532
0.315517
0.315503
0.31549
0.315478
0.315467
0.315456
0.315447
0.315439
0.315431
0.315425
0.315419
0.315415
0.315412
0.31541
0.315409
0.315409
0.315409
0.315411
0.315413
0.315418
0.315424
0.315432
0.315441
0.315452
0.315464
0.315477
0.315493
0.31551
0.315528
0.315549
0.315571
0.315594
0.31562
0.315647
0.315677
0.315708
0.315741
0.315777
0.315814
0.315854
0.315896
0.31594
0.315986
0.316035
0.316086
0.316139
0.316195
0.316254
0.316315
0.316379
0.316445
0.316514
0.316586
0.31666
0.316738
0.316818
0.316901
0.316988
0.317077
0.317169
0.317264
0.317362
0.317464
0.317568
0.317676
0.317786
0.3179
0.318017
0.318137
0.318261
0.318387
0.318517
0.318649
0.318785
0.318924
0.319067
0.319212
0.31936
0.319511
0.319666
0.319823
0.319983
0.320146
0.320311
0.32048
0.320651
0.320825
0.321001
0.32118
0.321361
0.321544
0.32173
0.321918
0.322108
0.322301
0.322495
0.322691
0.322889
0.323089
0.32329
0.323493
0.323698
0.323904
0.324112
0.32432
0.32453
0.324742
0.324954
0.325168
0.325382
0.325598
0.325814
0.326032
0.32625
0.326469
0.326689
0.326909
0.32713
0.327351
0.327573
0.327796
0.328019
0.328243
0.328467
0.328692
0.328917
0.329142
0.329368
0.329593
0.32982
0.330046
0.330273
0.330501
0.330728
0.330956
0.331184
0.331412
0.331641
0.331869
0.332099
0.332328
0.332557
0.332787
0.333017
0.333247
0.333477
0.333707
0.333938
0.334169
0.3344
0.334631
0.334863
0.335094
0.335326
0.335558
0.335791
0.336023
0.336256
0.336488
0.336721
0.336954
0.337188
0.337421
0.337655
0.337889
0.338123
0.338357
0.338591
0.338826
0.339061
0.339296
0.339531
0.339766
0.340002
0.340237
0.340473
0.340709
0.340946
0.341182
0.341419
0.341655
0.341892
0.34213
0.342367
0.342604
0.342842
0.34308
0.343318
0.343556
0.343795
0.344033
0.344272
0.344511
0.34475
0.344989
0.345229
0.345468
0.345708
0.345948
0.346188
0.346429
0.346669
0.34691
0.347151
0.347392
0.347633
0.347874
0.348116
0.348358
0.3486
0.348842
0.349084
0.349326
0.349569
0.349812
0.350055
0.350298
0.350542
0.350785
0.351029
0.351272
0.351517
0.35176
0.352005
0.352249
0.352494
0.352739
0.352984
0.353229
0.353475
0.35372
0.353966
0.354212
0.354458
0.354704
0.354951
0.355197
0.355444
0.355691
0.355939
0.356185
0.356433
0.35668
0.356929
0.357176
0.357425
0.357673
0.357922
0.35817
0.35842
0.358668
0.358918
0.359166
0.359417
0.359666
0.359916
0.360166
0.360417
0.360666
0.360918
0.361168
0.361419
0.36167
0.361922
0.362172
0.362425
0.362676
0.362928
0.36318
0.363433
0.363684
0.363938
0.36419
0.364444
0.364696
0.36495
0.365203
0.365457
0.36571
0.365965
0.366218
0.366473
0.366727
0.366982
0.367236
0.367492
0.367746
0.368002
0.368257
0.368513
0.368768
0.369025
0.36928
0.369537
0.369792
0.37005
0.370305
0.370563
0.370819
0.371077
0.371334
0.371592
0.371848
0.372107
0.372364
0.372623
0.37288
0.373139
0.373397
0.373656
0.373914
0.374174
0.374432
0.374692
0.37495
0.37521
0.375469
0.375729
0.375988
0.376249
0.376508
0.376769
0.377028
0.37729
0.377549
0.377811
0.37807
0.378332
0.378592
0.378854
0.379114
0.379377
0.379637
0.379899
0.38016
0.380423
0.380684
0.380946
0.381207
0.38147
0.381732
0.381995
0.382256
0.38252
0.382781
0.383045
0.383307
0.38357
0.383832
0.384096
0.384358
0.384622
0.384884
0.385149
0.385411
0.385675
0.385938
0.386202
0.386465
0.386729
0.386992
0.387257
0.387519
0.387784
0.388047
0.388312
0.388574
0.388839
0.389102
0.389367
0.38963
0.389895
0.390158
0.390423
0.390686
0.390951
0.391214
0.391479
0.391742
0.392007
0.39227
0.392535
0.392798
0.393063
0.393325
0.39359
0.393853
0.394117
0.39438
0.394645
0.394907
0.395171
0.395433
0.395698
0.39596
0.396224
0.396486
0.39675
0.397011
0.397275
0.397536
0.397799
0.39806
0.398323
0.398584
0.398847
0.399107
0.399369
0.399629
0.399891
0.40015
0.400412
0.400671
0.400932
0.40119
0.40145
0.401708
0.401968
0.402225
0.402484
0.402741
0.403
0.403255
0.403513
0.403768
0.404025
0.40428
0.404536
0.404789
0.405044
0.405297
0.405551
0.405802
0.406056
0.406306
0.406559
0.406807
0.40706
0.407306
0.407558
0.407802
0.408053
0.408295
0.408546
0.408786
0.409036
0.409273
0.409523
0.409757
0.410007
0.410237
0.410487
0.410714
0.410964
0.411186
0.411438
0.411654
0.411908
0.412117
0.412374
0.412576
0.412834
0.41303
0.41329
0.413479
0.413743
0.413921
0.414191
0.414357
0.414634
0.414788
0.415069
0.415214
0.415496
0.415635
0.415917
0.416051
0.41633
0.41646
0.416736
0.416862
0.417135
0.417258
0.417527
0.417647
0.417911
0.418028
0.418288
0.418402
0.418657
0.41877
0.419019
0.419129
0.419374
0.419481
0.41972
0.419823
0.420057
0.420159
0.420388
0.42049
0.420715
0.420811
0.421031
0.421126
0.421343
0.421437
0.421649
0.42174
0.421948
0.422039
0.422243
0.422335
0.422534
0.422623
0.42282
0.422908
0.423105
0.423192
0.423387
0.423471
0.423662
0.423748
0.423936
0.424023
0.424211
0.424295
0.424478
0.424561
0.424746
0.424827
0.425009
0.425088
0.425264
0.425342
0.425515
0.425594
0.42576
0.425833
0.425997
0.426068
0.426224
0.426292
0.426439
0.426506
0.426647
0.426709
0.426839
0.426897
0.42702
0.427076
0.427189
0.427238
0.427341
0.427387
0.427482
0.427524
0.427609
0.427645
0.427723
0.427757
0.427825
0.427855
0.427915
0.427941
0.427995
0.428018
0.428065
0.428085
0.428126
0.428144
0.42818
0.428195
0.428227
0.42824
0.428268
0.42828
0.428305
0.428315
0.428337
0.428346
0.428365
0.428373
0.42839
0.428397
0.428413
0.428419
0.428433
0.428438
0.428451
0.428455
0.428467
0.428471
0.428481
0.428484
0.428493
0.428496
0.428504
0.428506
0.428513
0.428515
0.42852
0.428522
0.428527
0.428528
0.428532
0.428533
0.428536
0.428536
0.428539
0.428539
0.428541
0.428541
0.428543
0.428542
0.428544
0.428543
0.428544
0.428543
0.428544
0.428543
0.428543
0.428542
0.428543
0.428542
0.428542
0.428541
0.428541
0.42854
0.42854
0.428539
0.428539
0.428538
0.428538
0.428537
)
;

boundaryField
{
    sides
    {
        type            calculated;
        value           nonuniform List<scalar> 2(0.428537 0.330951);
    }
    empty
    {
        type            empty;
    }
}


// ************************************************************************* //
