/*--------------------------------*- C++ -*----------------------------------*\
  =========                 |
  \\      /  F ield         | OpenFOAM: The Open Source CFD Toolbox
   \\    /   O peration     | Website:  https://openfoam.org
    \\  /    A nd           | Version:  9
     \\/     M anipulation  |
\*---------------------------------------------------------------------------*/
FoamFile
{
    format      ascii;
    class       volScalarField;
    location    "0.007";
    object      ddt0(rho,e);
}
// * * * * * * * * * * * * * * * * * * * * * * * * * * * * * * * * * * * * * //

dimensions      [1 -1 -3 0 0 0 0];

internalField   nonuniform List<scalar> 
1000
(
1.71046e-07
-1.9358e-06
-2.16028e-06
-6.55481e-07
5.02218e-06
4.06917e-07
2.21603e-06
-1.42807e-06
-2.69812e-06
-3.03197e-06
-1.77671e-06
1.25557e-06
-7.10768e-07
-2.10659e-06
-3.17672e-06
-3.76707e-06
-4.89136e-06
3.15288e-06
5.05042e-06
1.45094e-06
-2.52877e-06
-8.97112e-07
-2.02091e-06
3.65259e-06
-1.18887e-07
-1.82909e-06
2.30163e-06
6.13102e-07
-3.44754e-07
-1.88464e-06
2.67674e-06
9.49647e-08
2.11901e-06
5.75583e-06
4.6465e-06
-1.46696e-07
3.34632e-06
-1.99154e-06
-3.94601e-06
-4.1942e-06
-2.89549e-06
7.87682e-07
6.83761e-07
-2.7193e-06
1.2644e-06
2.21336e-06
-1.32867e-06
-6.07776e-07
3.22742e-06
-9.15225e-07
4.59759e-06
-2.9096e-06
-3.96286e-06
-3.38591e-06
-6.98966e-07
-2.30596e-06
-2.62423e-06
-3.37049e-06
-5.41318e-07
8.72095e-07
-3.29716e-07
1.15486e-06
3.37628e-06
3.44725e-09
1.5477e-07
-3.95281e-06
1.99781e-06
-3.90626e-07
-1.93157e-06
8.47825e-07
-1.54643e-06
-2.58646e-06
-1.37963e-06
-5.81519e-07
2.20231e-06
-1.00605e-06
4.5503e-06
-3.17374e-06
-3.23358e-06
-1.41774e-06
-1.37746e-06
-1.3489e-08
-1.86969e-06
4.78743e-08
-5.19729e-07
2.47628e-07
1.45108e-06
2.17538e-06
9.76542e-07
-4.89244e-06
4.0516e-07
1.92107e-06
4.2405e-07
-5.64956e-08
-3.92353e-06
-1.3209e-06
2.42221e-06
-2.92365e-06
-6.01509e-06
1.95401e-06
-2.11984e-06
3.4464e-07
3.60486e-06
-3.27362e-07
-6.87455e-06
-1.36895e-06
-9.34216e-07
-3.54534e-06
-1.27346e-06
3.8735e-06
-2.12313e-06
2.47604e-06
2.31425e-06
8.35657e-07
6.17611e-07
5.69869e-07
-3.93017e-06
-1.07829e-06
1.70821e-06
2.15436e-06
-1.77661e-07
1.23065e-06
-3.49815e-06
-2.73505e-06
-1.12645e-06
3.57392e-06
-1.89886e-07
-1.69727e-06
-1.32003e-06
4.47501e-06
-3.11282e-06
-6.92583e-07
-3.08018e-06
8.46715e-07
2.89631e-07
1.26967e-06
-2.49847e-07
1.50377e-06
8.38393e-07
-1.57403e-06
6.18243e-07
8.42638e-07
-6.02017e-08
-1.23321e-06
-4.32218e-06
-5.86048e-06
-2.86052e-06
-2.04188e-06
-3.40335e-06
1.21601e-06
-3.118e-07
-9.04409e-07
4.76949e-07
-2.69567e-06
-2.75205e-07
2.91014e-07
1.67499e-07
-4.02553e-08
-4.01043e-07
1.26531e-06
-1.00885e-06
4.19738e-06
4.72421e-06
-2.50931e-06
-2.73155e-06
-1.54546e-06
-2.36313e-06
-2.96033e-06
-2.02738e-06
2.91916e-06
1.95974e-06
5.84779e-06
5.42752e-06
-2.17989e-06
1.88817e-06
1.88113e-06
-3.30623e-06
1.63633e-06
9.83607e-08
1.95293e-06
4.95751e-06
2.14377e-06
-5.6873e-06
-8.34704e-06
-2.68022e-05
-4.75484e-05
-9.40131e-05
-0.000203749
-0.00041884
-0.00085344
-0.00174464
-0.00352054
-0.00706302
-0.0140523
-0.0277477
-0.0543829
-0.105757
-0.204058
-0.390592
-0.741584
-1.39637
-2.60726
-4.82655
-8.85701
-16.1087
-29.0319
-51.8378
-91.6817
-160.579
-278.456
-477.949
-811.787
-1363.99
-2266.47
-3723.14
-6044.03
-9692.26
-15346.5
-23981.1
-36963.4
-56164.1
-84072.2
-123893
-179602
-255912
-358105
-491674
-661756
-872343
-1.12535e+06
-1.4197e+06
-1.75059e+06
-2.10926e+06
-2.48339e+06
-2.85818e+06
-3.21801e+06
-3.54833e+06
-3.83725e+06
-4.07658e+06
-4.26287e+06
-4.39834e+06
-4.48911e+06
-4.54291e+06
-4.56752e+06
-4.56981e+06
-4.55539e+06
-4.52864e+06
-4.49284e+06
-4.45045e+06
-4.40327e+06
-4.35261e+06
-4.29945e+06
-4.24452e+06
-4.18835e+06
-4.13135e+06
-4.0738e+06
-4.01594e+06
-3.95793e+06
-3.89989e+06
-3.84192e+06
-3.78409e+06
-3.72644e+06
-3.66901e+06
-3.61183e+06
-3.55491e+06
-3.49826e+06
-3.44189e+06
-3.38581e+06
-3.33002e+06
-3.27453e+06
-3.21933e+06
-3.16443e+06
-3.10983e+06
-3.05553e+06
-3.00154e+06
-2.94786e+06
-2.89449e+06
-2.84144e+06
-2.78871e+06
-2.73631e+06
-2.68425e+06
-2.63253e+06
-2.58117e+06
-2.53016e+06
-2.47951e+06
-2.42924e+06
-2.37935e+06
-2.32985e+06
-2.28074e+06
-2.23203e+06
-2.18374e+06
-2.13586e+06
-2.0884e+06
-2.04136e+06
-1.99476e+06
-1.9486e+06
-1.90288e+06
-1.85761e+06
-1.81279e+06
-1.76843e+06
-1.72452e+06
-1.68107e+06
-1.63809e+06
-1.59557e+06
-1.55352e+06
-1.51193e+06
-1.47082e+06
-1.43018e+06
-1.39001e+06
-1.35031e+06
-1.31108e+06
-1.27233e+06
-1.23404e+06
-1.19623e+06
-1.15889e+06
-1.12202e+06
-1.08562e+06
-1.04968e+06
-1.01421e+06
-979211
-944673
-910597
-876983
-843828
-811130
-778889
-747101
-715765
-684879
-654441
-624449
-594900
-565792
-537124
-508893
-481096
-453731
-426797
-400289
-374207
-348547
-323308
-298486
-274079
-250085
-226502
-203325
-180554
-158186
-136217
-114646
-93470.3
-72686.4
-52292.3
-32285.4
-12662.9
6577.51
25438.5
43922.7
62032.6
79771.1
97140
114143
130781
147063
162968
178566
193686
208760
222765
238063
249431
267988
271065
302900
281144
351584
269877
421545
238559
493288
235112
485440
364310
312743
626933
91517.3
792556
153816
518422
645298
62468.5
872630
293863
302595
924834
91056.5
555867
850740
33181.9
700025
804946
24193.1
742691
830240
30657.6
686679
925185
74405.9
524298
1.04312e+06
216290
279985
1.06825e+06
515286
59259.6
870831
896840
77552
435973
1.0928e+06
472478
48917.6
815268
985791
175703
217060
1.00591e+06
797379
50524.2
368417
1.06106e+06
669824
9378.59
426401
1.06356e+06
635661
-8278.91
388518
1.03735e+06
689061
7266.89
258582
954847
817373
97288.8
70701
765040
956626
311472
-73406.6
436104
971634
637558
-17190.7
51378.8
712996
908509
326232
-136353
213247
823514
767275
126848
-167302
293409
829699
662324
23352.3
-194569
276857
769705
631041
26478.1
-281147
141202
739410
654268
6170.98
-308299
30318.9
515728
625752
245748
-271975
-304485
253697
697041
439072
-207719
-482143
-61726.8
563341
598752
-5033.71
-472105
-311394
186665
519769
372919
-176133
-539685
-272625
343008
533834
145557
-278309
-406763
-275434
216022
430331
90724.7
-100496
-179438
-187681
-56029.5
115118
104870
25465.9
-37481.2
-111236
-60258.3
-10050.3
33124.6
34545.9
-2937.78
-53908
-32887.8
-37170.4
-19618.9
27344.3
-1288.98
-34366.4
-5230.24
-30982.6
-21968.9
-59421.6
18731
5731.42
-4250.52
-35546.8
4923.33
-14744.9
-41911.2
-39971.5
-2673.26
4106.03
-50126
1624
-13731.8
-20656.7
-43158.1
5794.21
-17811.7
-26889.6
-47823.3
2243.85
-5705.31
-35241
-41325
-1283.09
-15549.8
-28587.4
-26299.6
-18194.2
-16798.3
-27363.9
-23392.2
-25157.8
-16311.1
-32338.5
-13173.8
-31913.3
-22243.7
-34691.3
-18873
-34273.1
-27001.6
-34114.2
-18508
-22276.8
-34734.5
-39485.1
-30010.3
-17004.5
-34540.3
-45467.1
-33324.6
-24331.6
-32515.1
-35180.7
-29371.5
-27844.4
-43883.7
-34342.1
-36410.2
-37259.7
-45045.4
-51610.9
-31495.4
-37024.6
-61849.6
-27768
-34425.9
-49925.1
-61039.1
-41005.5
-37399.4
-50928.2
-60902.6
-35878.3
-52107.5
-50986.3
-49762.7
-42227.5
-62618.9
-87700.8
-66359.5
-52323.3
-70339.3
-79014.4
-44607
-50223
-60132.1
-64122
-66515.9
-56242.8
-95128.1
-71874.1
-62431
-98810.1
-118149
-91585
-67865.1
-114044
-95590.4
-69357.2
-134013
-139064
-83160.3
-57493.9
-66767.9
-88738.1
-150316
-201499
-199722
-149166
-90720.6
-56623.3
-48629
-73713.9
-219888
-303608
-301025
-244715
-166231
-97253.4
-60876.2
-83471.5
-196546
-378777
-416399
-400446
-330279
-244087
-154264
-91567
-78940.7
-119185
-366448
-713671
-769577
-745084
-664263
-537404
-377238
-238000
-145829
-125828
-169611
-287615
-997398
-1.78655e+06
-1.86114e+06
-1.86278e+06
-1.74419e+06
-1.52373e+06
-1.24634e+06
-956248
-673516
-443450
-269672
-131743
-79410.9
-495181
-1.61444e+06
-6.61225e+06
-1.97671e+07
-7.34173e+07
-1.86921e+08
-1.83609e+08
-1.65422e+08
-1.4312e+08
-1.20902e+08
-1.00026e+08
-8.13497e+07
-6.51869e+07
-5.15312e+07
-4.02296e+07
-3.09055e+07
-2.33512e+07
-1.7493e+07
-1.29687e+07
-9.44163e+06
-6.75578e+06
-4.6707e+06
-3.25024e+06
-2.29869e+06
-1.5331e+06
-927165
-575472
-359887
-216414
-102046
-21645.9
-5336.73
15267.5
89518.5
111593
85673.1
88442.4
62650.2
38506.6
36629.4
20931
7488.05
8247.28
9583.09
16713.1
60602.9
83129.7
93209.2
91278.5
76232.4
71728.9
62569.3
62180.4
48281.5
11578.2
8162.47
24489.7
20378.3
3941.19
-9728.17
-10468.3
-21138.5
-24333.3
-36678.8
-38880.6
-23158.6
-3990.8
-12548.8
-10928.1
-675.253
4183.77
11843.7
37734.2
51611.1
47685.1
39287.4
28203.9
10512.7
8975.01
20074.6
5290.78
-4059.22
-18471.1
-30112.8
-14379.4
-25667.1
-30852.2
-6203.14
5255.73
-2371.27
-8813.78
-834.948
46558.7
41319.9
23562.7
20999.7
20539.4
680.946
-3285.06
4823.41
13228.6
708.56
-22018
-33709.2
-33528.7
-13085.3
-43239.3
-22979
-1929.07
12967.6
-15723.5
-2039.43
9643.04
50034.8
48319.4
20156.2
13888.1
26492.9
18763.3
3695.35
-8674.19
-5837.08
3537.79
2806.89
-20785.6
-47123.3
-41183.3
-22789.2
-26531
-12118.6
180.202
2816.87
7555.95
36608.4
26744.3
30399.1
13631.2
-222.786
15569.2
4564.24
-4140.79
3413.48
-6868.52
-21946.8
16135.3
-5100.25
-17204.6
-5423.51
-28049.1
-36669.4
-47763.5
-7252.15
-19131.7
-49263.8
25483.5
194812
21517.6
201529
94743.5
91185.2
82199.4
-167736
229806
-32836.3
-249366
559975
22020.1
74331.7
1.53287e+06
-1.12e+06
1.2552e+06
873964
-2.06358e+06
2.86313e+06
914014
-834191
4.85825e+06
-4.58602e+06
5.95744e+06
1.40452e+07
-1.23589e+07
1.26985e+07
2.11248e+07
-3.7167e+07
1.37415e+08
-1.94474e+08
4.10381e+08
8.47506e+07
-8.57415e+06
-3.72568e+06
-488570
-59838.5
-7741.16
-1022.87
-135.8
-18.0532
-2.40186
-0.319723
-0.0425714
-0.0056687
-0.000755189
-0.000100346
-1.41091e-05
-2.56389e-06
-3.76522e-07
1.7009e-07
5.43275e-07
3.26183e-07
-4.82135e-07
1.59723e-08
7.02979e-07
4.43396e-07
1.50053e-07
-1.02604e-06
-6.76945e-07
-3.32857e-08
-3.84999e-07
-2.9682e-07
1.02597e-06
-7.84048e-08
4.66534e-07
3.06351e-07
-7.80092e-07
-1.72726e-07
-6.78365e-07
-3.05327e-08
1.87478e-07
-6.30205e-07
4.43883e-07
-8.03484e-07
8.71694e-09
-6.50208e-09
-6.66977e-07
1.74654e-08
5.12032e-07
-9.80212e-07
-4.17736e-07
-1.08974e-08
-1.25748e-07
5.40691e-08
7.95225e-07
5.76992e-07
-3.44141e-07
9.58701e-07
2.04962e-07
-7.20163e-07
1.7291e-07
6.59667e-08
1.47827e-07
2.6773e-07
-4.30456e-07
-1.02856e-08
9.32284e-08
3.34846e-07
-1.8919e-08
-1.95533e-07
8.02637e-07
1.33082e-07
-2.27449e-07
-7.39443e-07
-2.13434e-07
6.54365e-08
-3.60653e-07
-4.96455e-08
-5.47922e-07
5.80482e-07
-9.04013e-07
1.69388e-07
7.709e-08
-5.78421e-08
2.09102e-07
2.30776e-07
2.96063e-07
6.87788e-07
-6.0821e-07
-2.75363e-07
8.07807e-08
-1.21127e-07
-6.3094e-07
-1.62234e-08
4.56629e-07
-1.9999e-08
-5.57371e-07
5.81007e-07
-4.99557e-09
-4.75159e-08
-3.6805e-07
4.9471e-08
-6.39966e-07
2.51931e-07
3.80766e-07
-2.71022e-07
-1.10759e-06
-9.59201e-08
4.21146e-07
3.58746e-07
-3.3317e-07
-1.27038e-06
3.59572e-07
1.30713e-07
-9.22077e-08
3.22636e-07
3.47973e-07
-2.42087e-07
2.27902e-08
-9.05381e-07
)
;

boundaryField
{
    sides
    {
        type            calculated;
        value           nonuniform List<scalar> 2(-9.05381e-07 1.71046e-07);
    }
    empty
    {
        type            empty;
    }
}


// ************************************************************************* //
