/*--------------------------------*- C++ -*----------------------------------*\
  =========                 |
  \\      /  F ield         | OpenFOAM: The Open Source CFD Toolbox
   \\    /   O peration     | Website:  https://openfoam.org
    \\  /    A nd           | Version:  9
     \\/     M anipulation  |
\*---------------------------------------------------------------------------*/
FoamFile
{
    format      ascii;
    class       volScalarField;
    location    "0.007";
    object      ddt0(p);
}
// * * * * * * * * * * * * * * * * * * * * * * * * * * * * * * * * * * * * * //

dimensions      [1 -1 -3 0 0 0 0];

internalField   nonuniform List<scalar> 
1000
(
-3.88904e-06
8.69496e-07
3.9042e-06
8.25345e-07
2.46574e-06
7.67905e-06
1.51233e-05
-2.5592e-06
3.62724e-07
-6.22909e-07
-3.32424e-06
4.76445e-06
-1.61103e-05
-5.69955e-07
1.39312e-06
5.5292e-06
2.25624e-06
1.03693e-06
5.0579e-06
3.90126e-07
-4.12824e-06
7.24575e-06
-1.99938e-06
3.40976e-07
3.52331e-07
-1.39759e-06
3.91194e-06
-1.22621e-05
-1.51484e-05
-1.4019e-05
2.68483e-07
-9.50638e-06
8.20982e-07
4.79502e-06
3.10643e-06
4.84993e-06
-5.39934e-06
-9.62463e-06
-6.98839e-06
3.55673e-06
8.81789e-07
-4.92339e-06
7.66819e-06
-2.09896e-06
7.85357e-06
1.14908e-05
2.99435e-06
2.26333e-06
-3.51419e-06
7.70242e-06
7.26869e-06
-6.30869e-06
-2.12048e-06
-7.09936e-06
-3.79342e-06
-4.97251e-06
-1.01269e-05
-1.23451e-06
-2.68129e-07
-9.40745e-07
3.1774e-06
-1.53513e-06
-2.3249e-07
1.63671e-06
7.49271e-06
-9.35595e-06
-4.48774e-06
-4.57819e-06
2.18291e-06
8.5752e-07
2.03497e-06
1.34792e-05
-1.41133e-05
-9.10637e-07
-1.29703e-05
-7.33822e-06
-5.30981e-06
-1.00357e-06
-6.87721e-06
-1.73435e-05
-1.41747e-05
7.37942e-06
-3.33022e-06
-1.03285e-05
-8.74041e-06
8.70558e-06
1.56652e-06
-3.211e-06
8.56396e-06
1.21132e-05
4.29541e-06
8.49802e-06
1.58397e-05
2.98929e-06
-9.04185e-06
1.31985e-06
-8.64649e-06
1.92561e-06
-5.93272e-06
1.86414e-06
-1.21761e-05
-1.38907e-05
2.66574e-06
-4.19991e-06
1.0139e-05
-3.52453e-06
-8.07282e-06
-1.28373e-06
2.18534e-07
5.05348e-06
-7.51124e-06
1.95837e-05
5.95305e-06
-4.64808e-07
7.79488e-06
3.31586e-07
-1.25668e-05
2.00212e-06
7.83651e-07
-1.82167e-06
-1.44749e-06
-6.61697e-06
-4.69675e-06
-7.07891e-06
-4.91292e-07
-2.0629e-06
-2.14191e-06
9.85731e-06
-6.41183e-08
-4.68893e-06
6.38975e-07
-4.33522e-06
-1.1473e-05
-1.06417e-06
4.643e-06
-2.28405e-06
-2.56303e-06
1.43065e-06
-7.53845e-06
-3.31091e-06
-3.58758e-06
-2.94694e-06
1.84309e-07
-1.92997e-06
6.9671e-06
-5.32428e-06
3.6735e-06
-1.07963e-05
-1.24613e-06
-5.44847e-06
9.79371e-07
-5.22171e-06
2.68604e-06
-6.92608e-06
4.19294e-06
-6.67415e-07
-2.12156e-06
-1.84665e-06
4.03442e-06
-8.37036e-06
8.20535e-06
-2.65259e-06
3.99823e-06
-2.1157e-06
-4.72732e-06
2.30995e-06
-4.06142e-06
-1.34285e-06
3.56793e-06
2.19963e-06
5.37044e-06
4.02163e-06
8.46131e-06
5.01243e-06
4.98238e-06
-2.02847e-06
-6.66898e-06
-1.93652e-05
1.31313e-05
-1.6654e-06
-1.53298e-06
-4.85721e-06
-9.26506e-06
-2.52937e-05
-7.21329e-05
-0.000135502
-0.000272833
-0.000547081
-0.00116415
-0.0023695
-0.00485039
-0.00982054
-0.01967
-0.0391336
-0.0772646
-0.151433
-0.294494
-0.568165
-1.08746
-2.06451
-3.88713
-7.25742
-13.4339
-24.6505
-44.8301
-80.7896
-144.244
-255.097
-446.769
-774.685
-1329.6
-2258.17
-3794.01
-6303.95
-10355
-16809
-26953.8
-42676.4
-66686
-102785
-156178
-233791
-344555
-499557
-711975
-996630
-1.36905e+06
-1.84392e+06
-2.433e+06
-3.14258e+06
-3.97096e+06
-4.90644e+06
-5.92652e+06
-6.99875e+06
-8.08356e+06
-9.13848e+06
-1.01231e+07
-1.10034e+07
-1.1755e+07
-1.23659e+07
-1.284e+07
-1.31921e+07
-1.34424e+07
-1.36114e+07
-1.37177e+07
-1.37765e+07
-1.37998e+07
-1.37967e+07
-1.3774e+07
-1.37367e+07
-1.36885e+07
-1.36322e+07
-1.35698e+07
-1.35029e+07
-1.34325e+07
-1.33596e+07
-1.32848e+07
-1.32086e+07
-1.31314e+07
-1.30534e+07
-1.29749e+07
-1.28959e+07
-1.28166e+07
-1.27371e+07
-1.26573e+07
-1.25774e+07
-1.24974e+07
-1.24172e+07
-1.23368e+07
-1.22563e+07
-1.21756e+07
-1.20948e+07
-1.20138e+07
-1.19326e+07
-1.18512e+07
-1.17697e+07
-1.1688e+07
-1.16061e+07
-1.1524e+07
-1.14418e+07
-1.13594e+07
-1.12768e+07
-1.11942e+07
-1.11114e+07
-1.10285e+07
-1.09456e+07
-1.08625e+07
-1.07795e+07
-1.06964e+07
-1.06133e+07
-1.05302e+07
-1.04472e+07
-1.03642e+07
-1.02813e+07
-1.01985e+07
-1.01158e+07
-1.00332e+07
-9.95081e+06
-9.86858e+06
-9.78652e+06
-9.70467e+06
-9.62303e+06
-9.54162e+06
-9.46045e+06
-9.37953e+06
-9.29888e+06
-9.2185e+06
-9.13841e+06
-9.05861e+06
-8.97911e+06
-8.89993e+06
-8.82106e+06
-8.74251e+06
-8.6643e+06
-8.58642e+06
-8.50889e+06
-8.4317e+06
-8.35486e+06
-8.27838e+06
-8.20226e+06
-8.1265e+06
-8.05111e+06
-7.97608e+06
-7.90142e+06
-7.82714e+06
-7.75324e+06
-7.67971e+06
-7.60655e+06
-7.53378e+06
-7.4614e+06
-7.38939e+06
-7.31777e+06
-7.24653e+06
-7.17568e+06
-7.10521e+06
-7.03513e+06
-6.96543e+06
-6.89612e+06
-6.8272e+06
-6.75867e+06
-6.69052e+06
-6.62276e+06
-6.55539e+06
-6.4884e+06
-6.42179e+06
-6.35558e+06
-6.28975e+06
-6.2243e+06
-6.15923e+06
-6.09455e+06
-6.03025e+06
-5.96634e+06
-5.9028e+06
-5.83965e+06
-5.77687e+06
-5.71447e+06
-5.65245e+06
-5.59081e+06
-5.52954e+06
-5.46864e+06
-5.40812e+06
-5.34797e+06
-5.28819e+06
-5.22878e+06
-5.16975e+06
-5.11107e+06
-5.05277e+06
-4.99483e+06
-4.93725e+06
-4.88004e+06
-4.82319e+06
-4.76669e+06
-4.71056e+06
-4.65479e+06
-4.59936e+06
-4.54431e+06
-4.48957e+06
-4.43525e+06
-4.38117e+06
-4.3276e+06
-4.27416e+06
-4.22129e+06
-4.16856e+06
-4.11635e+06
-4.06135e+06
-4.01392e+06
-3.96329e+06
-3.90925e+06
-3.86097e+06
-3.80951e+06
-3.75915e+06
-3.71067e+06
-3.66096e+06
-3.61253e+06
-3.56412e+06
-3.51538e+06
-3.46754e+06
-3.41966e+06
-3.37226e+06
-3.32569e+06
-3.27906e+06
-3.23278e+06
-3.18692e+06
-3.14096e+06
-3.09538e+06
-3.05037e+06
-3.00558e+06
-2.96117e+06
-2.91718e+06
-2.87341e+06
-2.82976e+06
-2.78637e+06
-2.74345e+06
-2.70077e+06
-2.65829e+06
-2.61642e+06
-2.57482e+06
-2.53323e+06
-2.49194e+06
-2.45118e+06
-2.41053e+06
-2.36992e+06
-2.33003e+06
-2.29053e+06
-2.25094e+06
-2.21152e+06
-2.17285e+06
-2.13433e+06
-2.0956e+06
-2.05735e+06
-2.0199e+06
-1.98247e+06
-1.94478e+06
-1.9077e+06
-1.87134e+06
-1.83487e+06
-1.79811e+06
-1.76207e+06
-1.72681e+06
-1.69144e+06
-1.65572e+06
-1.62061e+06
-1.58637e+06
-1.55206e+06
-1.51732e+06
-1.483e+06
-1.44969e+06
-1.41656e+06
-1.38296e+06
-1.34939e+06
-1.3168e+06
-1.28474e+06
-1.25235e+06
-1.21961e+06
-1.18753e+06
-1.15639e+06
-1.1253e+06
-1.0937e+06
-1.06211e+06
-1.03146e+06
-1.00147e+06
-971232
-940544
-910173
-880814
-851880
-822597
-792943
-763751
-735549
-707693
-679503
-651033
-623033
-596013
-569430
-542614
-515506
-488855
-463273
-438255
-413175
-388021
-363279
-339465
-316579
-294070
-271652
-249556
-228477
-208694
-189670
-171026
-152885
-135777
-120135
-105623
-91884.1
-78707
-67025.7
-55656.8
-46530.3
-41118.3
-27365.2
-29446.2
-4435.4
-29833.5
8300.63
1865.59
-53367.2
20846.9
9802.32
-5128.23
762.539
20511.8
-232.731
-7866.61
18362.1
-5662.27
4264.26
2247.34
13615.4
-5156.61
-16039.5
-8588.38
13383.2
40962.3
-11105.7
-14945.1
50316.2
-52392.7
6997.39
46731.2
33920.9
-98888.5
-4817.33
88200.9
32385.5
-116518
-16809.7
45715.8
27124
-53432.4
21851.4
87769.4
-68079.8
-40134.9
52383.5
39395.3
-73607
1251.71
48941.3
6333.9
-63470
10825.2
61055.6
-10257.3
-57197.8
11980.8
49053.9
-5278.08
-41619
5882.42
38214.2
-13824.1
-27366.8
8318.04
26742.4
-24362.7
-11961.2
18247.5
21087.7
-31101.9
-6981.97
19514.9
16015.1
-25777
-2750.47
18696.3
-640.246
-19160.6
7882.86
18749.2
-9237.4
-18459.5
10952.6
18324.4
-10779.6
-13961.3
14418.2
21054.7
-27396.8
-7107.28
18717.1
-1886.06
-8611.32
-3559.48
15519.2
12891
-26192.6
-13427.3
32939.7
11694.2
-40031.2
9929.39
25350.7
-9436.45
-21187.5
16129.7
17746.8
-22220.8
3924.11
6135.64
3702.69
-18366
3752.06
32365
-17279.1
-29695
24142.7
41810.6
-50450.2
-7479.98
26584.5
12975.1
-27114.4
-29023
48428.2
24591.7
-64360.4
16375.8
39431.6
-23110.8
-45258.8
54160.6
24139.4
-60695.2
16217.4
35263.4
-30018.1
-11155.5
22444.9
11368.5
-22209.6
979.458
10944.4
-3313.48
-6966.74
7640.26
4532.42
-3233.43
1092.06
-3195.73
2617.45
-3090.41
-1629.78
7891.51
-1319.9
-1013.54
3530.33
-2073.05
3746.74
1026.19
-6065.61
6231.34
3593.1
-792.346
-4627.65
136.267
3956.69
5108.29
-1621
-9030.52
6425.32
10010.5
-6883.52
-2995.78
-3206.42
9158.46
3504.96
-12394.9
32139.3
-17079.6
765.993
-7784.32
5607.79
17204
-25861.1
186.973
4367.59
-10361.9
39387.7
-36795.7
15852.8
-114410
110123
-475973
647648
-1.38878e+06
2.1377e+06
-748569
-185695
18598.5
-39617.1
-84027.6
18359.5
146893
22803
-153392
-44773.4
111116
74938.6
-30692.2
-84826.4
-34587.5
119197
83541.8
-69527.7
-91242.9
42178
62239.8
-5115.43
-42283.5
-21200.7
13932.8
2410.7
2536.65
-9182.57
1322.84
-10589.5
19721.7
5739.72
-10528.7
5591.16
7594.19
-3915.92
2261.78
3605.44
2828.71
-2091.36
-7726.04
4707.44
8957.47
-8865.61
-4540.96
-2317.53
13355.9
18581.6
-18915.3
-24815
19811.3
29168.5
1060.6
-13169.3
-5955.65
-616.773
15262.2
1050.91
-18957.1
-1480.23
20158.4
-867.95
-12950.6
-514.514
3610.81
5981.78
1707.17
-786.207
3282.01
7657.38
3051.5
-16582.6
-4109.52
23089
6341.8
-5537.85
-16446.3
-8668.82
32852.7
7274.42
-20065.5
5956.02
24827
1055.66
-11951.3
-2030.94
22553.8
11499.3
-12699.7
-1723.01
12517.7
-10478.1
-14669.9
8237.31
16097.3
1230.6
-11625.7
-6956.02
5122.45
29862.4
-15933.9
-13630.2
13498.2
26443.6
-17340
-7076.99
-1084.23
13254.4
15780.8
-15034.1
-23049
14211
25443.1
864.045
-16887.9
-5068.79
9467.99
7955.2
4700.72
-2680.3
-260.645
14361.1
-2637.66
-1609.08
5190.5
4532.24
2417.41
2769.99
-8472.5
14261.5
-339.743
-10069.1
16209.4
3678.67
-7046.75
2773.99
-7821.77
-22585.3
25905.2
-4587.86
7849.04
20402.2
17709
16453.5
-29363
20271.7
9575.61
-71794.3
55444.9
164957
-61989.8
179478
65115.5
75708.1
41005
-245234
454137
-394735
-34063.8
775610
-406817
915958
1.83044e+06
-1.35751e+06
2.58561e+06
303986
-2.36618e+06
6.04438e+06
-3.62753e+06
2.55623e+06
5.92305e+06
-6.88126e+06
1.34137e+07
1.36377e+07
-1.50753e+07
4.16155e+07
-1.67766e+07
2.54286e+06
1.53743e+08
-2.5317e+08
7.09602e+08
3.56461e+08
8.88158e+07
1.52776e+07
2.13319e+06
286267
38122
5067.04
673.42
89.5528
11.9171
1.58659
0.21127
0.0281332
0.00374584
0.000498544
6.60686e-05
9.69514e-06
1.89668e-06
-1.04708e-06
-8.55007e-08
6.20912e-08
6.70414e-07
-3.14344e-07
5.89954e-07
-5.01645e-07
-3.49084e-07
1.4756e-06
-2.20313e-07
1.74628e-06
5.88775e-07
6.31136e-07
-4.96436e-07
-2.98711e-07
2.50234e-07
-2.17862e-07
-8.49816e-07
-2.13459e-06
-6.2335e-07
-5.12597e-08
-2.02025e-07
-3.173e-07
4.92074e-07
-3.01285e-07
3.28693e-07
7.98368e-07
-5.67461e-07
1.59813e-06
4.18998e-07
-1.05788e-06
-2.75168e-07
-5.29299e-07
-3.98188e-07
1.07344e-06
-4.80954e-07
-6.00633e-08
-2.86644e-07
-1.02597e-06
-9.58966e-07
-1.3332e-07
5.12779e-07
-5.91607e-07
8.23213e-07
1.07029e-06
-4.94007e-08
1.29729e-06
1.22991e-06
5.83483e-07
5.14538e-07
-6.32661e-07
-7.45247e-07
4.34656e-07
7.18216e-07
2.01256e-07
-1.55785e-06
-5.02821e-07
-1.66123e-06
-1.58988e-07
-6.8739e-07
1.72224e-07
-1.44681e-06
-8.14451e-07
1.34621e-06
2.93857e-07
7.56152e-07
6.25201e-07
9.92584e-08
-1.75999e-06
-1.59481e-06
-2.87207e-07
-9.10888e-07
3.78877e-07
1.05299e-08
-2.74739e-07
-3.98274e-07
-1.97999e-07
9.00698e-07
6.28671e-07
-4.04902e-07
-1.72133e-07
-7.657e-07
1.68935e-07
-4.65148e-07
5.74438e-07
3.1311e-07
-1.44565e-06
2.50894e-07
-5.64801e-07
-1.16814e-06
-4.80707e-07
1.05727e-07
-3.75771e-08
-1.45566e-06
-1.13511e-06
-8.54827e-07
-9.15006e-07
-5.13688e-07
-4.79619e-07
-1.7145e-07
-5.78812e-07
)
;

boundaryField
{
    sides
    {
        type            calculated;
        value           nonuniform List<scalar> 2(-5.78812e-07 -3.88904e-06);
    }
    empty
    {
        type            empty;
    }
}


// ************************************************************************* //
