/*--------------------------------*- C++ -*----------------------------------*\
  =========                 |
  \\      /  F ield         | OpenFOAM: The Open Source CFD Toolbox
   \\    /   O peration     | Website:  https://openfoam.org
    \\  /    A nd           | Version:  9
     \\/     M anipulation  |
\*---------------------------------------------------------------------------*/
FoamFile
{
    format      ascii;
    class       surfaceScalarField;
    location    "0.007";
    object      ddtCorrDdt0(phi);
}
// * * * * * * * * * * * * * * * * * * * * * * * * * * * * * * * * * * * * * //

dimensions      [1 0 -2 0 0 0 0];

internalField   nonuniform List<scalar> 
999
(
-8.41643e-09
3.54552e-08
-5.27772e-10
-1.95341e-08
-5.66565e-09
-3.18533e-08
-3.57557e-08
-3.86986e-08
9.31101e-09
3.72952e-08
-1.12045e-09
-4.36985e-08
-5.02042e-08
-2.00364e-08
6.81319e-08
2.02658e-08
7.76321e-08
1.48822e-08
3.89088e-08
1.29075e-08
-2.93293e-08
-5.48868e-08
-2.3483e-08
-1.31909e-08
-3.55165e-08
-1.04764e-08
-2.0435e-08
-4.47471e-09
6.50375e-08
5.88306e-09
-2.59619e-08
-7.81755e-08
-1.15111e-07
-5.35644e-08
2.43411e-09
1.28705e-09
3.10243e-08
9.7767e-08
8.20672e-08
7.42319e-08
2.21356e-08
1.21452e-08
-1.66918e-08
1.63017e-08
-9.44168e-09
-5.8893e-08
-6.55876e-08
-1.0737e-08
-3.59855e-08
-9.02068e-09
-3.34079e-09
1.69485e-08
-2.23842e-08
2.85393e-08
3.36255e-08
-1.01303e-09
6.96181e-08
5.18267e-09
1.81144e-08
1.87223e-08
5.55844e-08
4.20533e-09
2.44319e-08
3.81066e-08
2.68598e-08
1.05055e-08
-3.58153e-08
-8.01643e-08
-5.34303e-09
-2.91854e-08
2.41611e-09
-3.34375e-08
2.69988e-09
3.77749e-08
-5.23664e-08
-1.51153e-08
9.18202e-10
2.44368e-08
6.41886e-08
-1.06578e-08
4.85453e-09
-8.74604e-09
-1.64971e-08
1.61528e-08
3.97691e-08
1.24484e-08
2.32163e-08
-9.94071e-09
-7.52839e-08
7.1321e-10
-1.32154e-08
-2.65903e-08
1.76944e-08
4.63895e-08
6.64155e-08
-9.06531e-09
2.50634e-08
1.15813e-08
8.03459e-08
2.92259e-08
5.83762e-08
-3.13723e-08
2.48994e-08
3.10474e-08
-2.38515e-08
-5.06583e-09
2.95739e-08
-4.13472e-08
-1.31542e-08
-4.9895e-08
-1.18701e-07
-2.44322e-08
-8.86049e-08
-9.63556e-08
-3.78173e-08
-1.02379e-08
-8.79499e-08
4.31879e-08
4.94182e-09
5.32414e-08
8.21072e-08
6.90065e-08
4.27851e-08
6.12706e-08
-3.95377e-08
-8.48256e-08
-6.88249e-08
-4.45165e-08
-1.74868e-08
-5.55514e-08
3.05544e-08
2.78474e-08
1.93643e-08
9.72171e-08
6.66668e-08
2.62852e-08
-1.79542e-08
-6.07509e-08
1.53317e-08
2.98642e-08
6.16887e-08
-1.05953e-08
-6.19091e-09
1.62273e-08
7.00375e-08
3.48816e-08
4.21497e-08
3.99847e-09
-2.758e-08
2.30842e-08
3.32352e-08
8.19766e-09
-9.15951e-10
5.41914e-08
1.22084e-08
3.94897e-08
1.29066e-08
-2.87933e-09
5.11429e-08
-7.66026e-08
-5.2361e-08
1.15429e-08
-6.57105e-08
-9.05904e-08
-1.39786e-07
-2.65695e-08
-6.6639e-08
1.41569e-08
-1.61541e-08
-3.51212e-09
3.06566e-08
3.17395e-08
1.08096e-07
3.82977e-08
8.85312e-08
4.27368e-08
6.74242e-08
5.79033e-09
-7.30269e-08
-1.18666e-08
-8.23966e-09
1.02206e-07
1.67787e-07
4.2684e-07
8.96721e-07
2.00636e-06
4.26772e-06
8.8947e-06
1.82224e-05
3.71934e-05
7.53587e-05
0.000151498
0.00030233
0.000598979
0.00117777
0.00229798
0.00444882
0.00854479
0.01628
0.0307641
0.0576511
0.107122
0.197325
0.360287
0.651925
1.16882
2.0759
3.65161
6.36034
10.967
18.7151
31.5987
52.7702
87.1377
142.222
229.35
365.274
574.284
890.841
1362.69
2054.26
3049.9
4456.31
6403.1
9040.12
12530.1
17035.5
22698.6
29616.4
37812.9
47214.2
57632.5
68766.6
80222
91549.7
102298
112065
120537
127516
132963
136997
139820
141660
142733
143223
143277
143007
142497
141811
140995
140083
139099
138064
136991
135891
134771
133638
132496
131348
130198
129046
127894
126743
125593
124445
123300
122157
121016
119877
118741
117606
116474
115344
114216
113090
111966
110843
109723
108606
107490
106377
105266
104158
103052
101950
100851
99754.9
98662.6
97574.2
96489.8
95409.6
94333.8
93262.6
92196.2
91134.8
90078.7
89027.8
87982.6
86943
85909.2
84881.4
83859.8
82844.3
81835.2
80832.6
79836.5
78847.1
77864.4
76888.5
75919.5
74957.4
74002.2
73054.1
72113.1
71179.2
70252.5
69332.9
68420.5
67515.3
66617.4
65726.7
64843.3
63967.2
63098.3
62236.7
61382.4
60535.3
59695.5
58863
58037.8
57219.7
56408.9
55605.4
54809
54019.8
53237.8
52463
51695.2
50934.6
50181.1
49434.7
48695.3
47962.9
47237.6
46519.2
45807.8
45103.3
44405.7
43714.9
43031
42354
41683.7
41020.2
40363.4
39713.3
39069.9
38433.1
37802.9
37179.3
36562.3
35951.8
35347.8
34750.2
34159
33574.3
32995.9
32423.9
31858
31298.8
30744.9
30199.2
29655.5
29126.1
28587.7
28081.8
27538.5
27067.4
26510
26073.1
25522.2
25066
24614.1
24019.9
23743.4
23067.4
22803.8
22215.1
21724.6
21610.3
20628.1
20762.8
20067.8
19391.2
19684.7
18512.1
18399.7
18473.6
17143.2
17437
17248.6
15896
16412.3
16130.7
14734.5
15330.7
15170.8
13646.7
14136.1
14337.2
12703.4
12810.6
13535
12049.7
11424.1
12522.7
11717.9
10248.4
11083.7
11445.7
9711.69
9387.45
10619.4
9842.86
8209.81
8889.5
9758.76
8268.07
7156.26
8342.78
8737.38
6964.13
6272.38
7647.3
7784.02
5928.38
5385.47
6838.23
7002.27
5141.02
4459.64
5891.79
6369.92
4647.1
3553.42
4751.78
5771.7
4488.56
2851.72
3422.26
4948.75
4560.81
2642.18
2138.85
3641.46
4465.98
3060.48
1441.21
1953.18
3599.72
3641.09
1827.28
720.934
1802.07
3303.73
2869.86
971.36
188.405
1501.91
2909.18
2327.42
468.301
-287.399
950.522
2499.76
2176.44
196.274
-849.731
405.981
2089.19
1944.74
314.587
-887.727
-467.375
1136.11
2088.61
1013.42
-959.166
-1381.52
272.551
1961.09
1615.23
-447.008
-1768.33
-726.565
1284.73
1826.12
511.097
-1134
-1526.3
-214.905
1542.43
1683.37
-62.279
-1662.56
-1241.52
395.525
1133.58
1866.93
-97.6389
-1657.69
-835.033
10.7273
435.01
729.218
917.685
-282.694
-361.951
-251.268
-227.671
401.809
333.311
506.646
-658.951
-370.647
-17.1656
748.385
1207.37
-1643.82
645.203
-109.189
-380.155
773.531
1675.93
-1837.22
-759.929
828.453
2974.2
-2887.82
-1029.83
300.54
1822.28
-1795.66
-4.64961
2396
520.348
-1963.13
77.6189
2115.82
-821.081
-589.739
640.954
1754.04
-2080.75
-416.453
1220.27
1183.52
-2159.42
-452.873
1141.64
963.019
-1630.58
-258.136
1048.56
603.61
-1312.51
-86.6687
840.546
247.862
-558.687
86.9849
769.811
-69.8635
-214.151
243.643
608.073
-93.0892
-133.101
298.055
518.293
-468.176
-105.681
691.025
405.905
-539.252
-122.358
848.328
397.238
-854.882
34.1793
1006.5
49.9537
-208.704
267.558
416.907
-8.50528
-141.821
253.846
817.939
-92.382
-252.751
583.064
659.63
-410.684
-321.042
957.562
582.542
-927.622
19.2712
1015.04
129.991
-61.2722
665.721
279.963
-63.4034
-34.6952
845.293
782.571
-1410.79
-10.5985
2125.15
53.0915
-406.383
487.814
1052.44
178.506
-968.398
669.767
1012.93
-194.799
-502.383
1870.51
904.762
-1831.1
525.295
1139.37
-61.9047
-412.666
2524.59
621.876
-577.68
393.425
638.536
433.933
94.2051
1349.9
784.392
127.699
313.252
285.119
299.009
455.792
1026.99
1169.9
1027.73
753.345
622.112
384.389
308.32
300.871
1291.6
1574.4
1755.97
1361.77
1039.48
1170.31
526.724
92.8922
529.429
518.841
2606.5
2983.84
2775.81
2637.51
2701.98
1889.85
786.997
734.609
845.636
453.049
1050.18
1390.96
6736.81
7009.78
7343.87
6700.64
6634.48
5429.24
3930.17
4384.95
2181.62
517.221
1400.82
828.838
-1382.79
8250.8
-1472.9
72006.1
47420.1
633818
748911
678418
602622
513391
426353
351415
288504
228842
176400
136355
106232
82256.8
60018.3
41333.9
30284.2
23049.8
17973
11476.1
4673.57
3910.52
4814.46
2572.06
287.24
14.6794
112.436
164.461
35.5821
-252.122
-503.29
-478.305
-262.493
-0.85788
-205.926
-342.293
229.314
-28.4687
-127.582
114.336
-1.6687
-95.9966
-464.973
-430.02
-57.4956
-317.787
-426.873
-330.903
-174.097
185.678
38.5513
-850.647
-272.215
689.814
332.174
-328.604
-123.789
-24.5948
157.897
502.059
-275.095
-100.177
222.993
304.993
-362.344
-106.942
10.3208
49.5108
64.9955
-264.644
-186.597
31.0046
-27.5361
-196.653
-282.624
301.519
233.75
51.3868
-146.797
-243.794
545.476
472.364
43.2381
-423.355
791.703
248.683
-87.5888
-168.199
312.594
129.873
-65.1953
-484.225
152.262
59.7696
-594.809
-112.046
345.2
146.086
-278.219
-68.2069
68.506
596.618
282.349
-505.07
-28.853
645.531
141.568
-250.229
-85.1839
-50.2382
263.691
-27.6592
-750.97
-320.634
683.711
255.681
-252.543
-208.912
38.09
138.11
125.767
232.36
-36.1404
332.265
219.228
-49.4984
55.798
147.052
75.045
-24.8279
-265.394
-41.4916
40.4944
-355.439
11.6912
239.508
-0.227619
9.14587
148.625
-167.004
358.803
-17.7063
-399.913
435.728
322.536
972.55
173.286
-107.786
1715.74
-212.381
-728.14
2318.2
-1657.7
-382.431
1714.63
-775.815
1889.37
-901.165
5026.44
2649.38
-10371.7
21910.2
-1122.4
-27007.8
40720.8
-18247.9
12864.1
23488.1
-26387.2
45802.7
37165.8
-132779
276458
-55112.8
-79674
397243
-207734
125923
609401
-1.47854e+06
3.06804e+06
-1.11075e+06
3.17916e+06
9.10071e+06
2.97422e+06
611847
86787.5
11598.2
1543.05
205.065
27.2423
3.62071
0.481598
0.0641015
0.00853531
0.00113678
0.000151332
2.00332e-05
2.77716e-06
3.26503e-07
5.54234e-08
1.15271e-08
-2.86051e-10
-9.57617e-10
-3.98723e-09
-1.1183e-09
-2.97054e-09
-1.53064e-08
-6.9185e-09
-3.86712e-09
-6.03621e-09
-8.38883e-09
2.48877e-09
2.0117e-09
-1.79011e-09
-3.35433e-09
1.5644e-09
3.79949e-09
5.10166e-09
3.72868e-09
-1.113e-09
-5.88049e-10
9.12228e-10
1.39632e-09
1.66712e-10
1.48481e-09
-1.5517e-09
-1.01357e-09
1.42308e-09
-2.5869e-09
3.71152e-09
2.10167e-09
1.80741e-09
6.26026e-10
7.74908e-09
-3.6202e-10
2.93836e-10
-6.3232e-09
-3.12225e-09
3.17704e-09
2.38581e-09
9.1848e-10
-6.93458e-10
-1.90083e-10
-1.37415e-09
-3.47947e-11
1.42513e-09
5.43948e-09
-2.19264e-09
2.23407e-09
1.73287e-09
-4.29929e-10
-3.41781e-09
-7.82266e-09
1.60781e-09
1.06609e-08
-2.61002e-09
7.35934e-09
1.12921e-08
-3.25833e-10
2.37156e-09
-3.1991e-09
5.04324e-09
1.23039e-10
-3.37824e-09
-1.47996e-09
-6.65761e-09
8.10351e-10
-1.01933e-09
1.16941e-09
3.34181e-10
-6.68882e-10
2.59518e-09
1.85121e-09
2.98972e-09
6.47492e-09
2.21587e-09
4.93112e-10
-1.62401e-09
-2.98262e-09
-4.2503e-09
-5.28327e-09
-6.21642e-09
2.36542e-09
-4.17344e-09
-5.87078e-11
-4.23256e-09
2.47504e-09
3.81523e-09
4.79639e-09
1.07207e-08
-8.99776e-10
8.39612e-09
-1.85549e-09
2.17189e-09
2.22657e-09
-2.80296e-09
-2.66188e-09
-8.30341e-09
-6.09992e-09
-7.22286e-09
-1.08844e-08
)
;

boundaryField
{
    sides
    {
        type            calculated;
        value           nonuniform List<scalar> 2(-8.04235e-09 4.63409e-09);
    }
    empty
    {
        type            empty;
        value           nonuniform List<scalar> 0();
    }
}


// ************************************************************************* //
