/*--------------------------------*- C++ -*----------------------------------*\
  =========                 |
  \\      /  F ield         | OpenFOAM: The Open Source CFD Toolbox
   \\    /   O peration     | Website:  https://openfoam.org
    \\  /    A nd           | Version:  9
     \\/     M anipulation  |
\*---------------------------------------------------------------------------*/
FoamFile
{
    format      ascii;
    class       volScalarField;
    location    "0.007";
    object      p_0;
}
// * * * * * * * * * * * * * * * * * * * * * * * * * * * * * * * * * * * * * //

dimensions      [1 -1 -2 0 0 0 0];

internalField   nonuniform List<scalar> 
1000
(
100000
100000
100000
100000
100000
100000
100000
100000
100000
100000
100000
100000
100000
100000
100000
100000
100000
100000
100000
100000
100000
100000
100000
100000
100000
100000
100000
100000
100000
100000
100000
100000
100000
100000
100000
100000
100000
100000
100000
100000
100000
100000
100000
100000
100000
100000
100000
100000
100000
100000
100000
100000
100000
100000
100000
100000
100000
100000
100000
100000
100000
100000
100000
100000
100000
100000
100000
100000
100000
100000
100000
100000
100000
100000
100000
100000
100000
100000
100000
100000
100000
100000
100000
100000
100000
100000
100000
100000
100000
100000
100000
100000
100000
100000
100000
100000
100000
100000
100000
100000
100000
100000
100000
100000
100000
100000
100000
100000
100000
100000
100000
100000
100000
100000
100000
100000
100000
100000
100000
100000
100000
100000
100000
100000
100000
100000
100000
100000
100000
100000
100000
100000
100000
100000
100000
100000
100000
100000
100000
100000
100000
100000
100000
100000
100000
100000
100000
100000
100000
100000
100000
100000
100000
100000
100000
100000
100000
100000
100000
100000
100000
100000
100000
100000
100000
100000
100000
100000
100000
100000
100000
100000
100000
100000
100000
100000
100000
100000
100000
100000
100000
100000
100000
100000
100000
100000
100000
100000
100000
100000
100000
100000
100000
100000
100000
100000
100000
100000
100000
100000
100000
100000
100000
100000
100000
100000
100000
100000
100000
100000
99999.9
99999.9
99999.8
99999.7
99999.5
99999.1
99998.6
99997.7
99996.2
99994
99990.7
99985.6
99978
99967
99951.1
99928.6
99897.5
99855
99798.4
99724.5
99629.9
99511.5
99366.8
99193.7
98991.2
98759.4
98499.6
98213.9
97905.3
97577.3
97233.6
96877.6
96512.3
96140
95762.6
95381.6
94998.2
94613
94226.8
93840
93453
93065.9
92679.1
92292.6
91906.5
91521.1
91136.2
90752
90368.5
89985.7
89603.7
89222.5
88842
88462.4
88083.6
87705.7
87328.6
86952.3
86576.9
86202.5
85828.9
85456.2
85084.4
84713.6
84343.7
83974.7
83606.8
83239.8
82873.8
82508.8
82144.8
81781.9
81420
81059.2
80699.5
80340.8
79983.3
79626.8
79271.4
78917.2
78564.1
78212.2
77861.4
77511.7
77163.3
76815.9
76469.8
76124.9
75781.1
75438.5
75097.2
74757
74418
74080.2
73743.7
73408.3
73074.2
72741.3
72409.6
72079.1
71749.8
71421.7
71094.9
70769.3
70444.9
70121.7
69799.7
69478.9
69159.4
68841
68523.9
68208
67893.3
67579.8
67267.6
66956.5
66646.6
66337.9
66030.5
65724.2
65419.1
65115.2
64812.5
64511
64210.7
63911.6
63613.7
63316.9
63021.3
62726.9
62433.7
62141.6
61850.7
61560.9
61272.4
60985
60698.7
60413.6
60129.6
59846.8
59565.2
59284.7
59005.3
58727.1
58450
58174
57899.2
57625.5
57352.9
57081.4
56811.1
56541.8
56273.7
56006.7
55740.8
55476
55212.3
54949.7
54688.2
54427.8
54168.5
53910.3
53653.1
53397.1
53142.1
52888.2
52635.3
52383.6
52132.9
51883.3
51634.7
51387.2
51140.8
50895.4
50651.2
50407.8
50165.7
49924.5
49684.4
49445.3
49207.2
48970.2
48734.2
48499.3
48265.4
48032.5
47800.6
47569.8
47340
47111.2
46883.5
46656.7
46431
46206.3
45982.6
45759.9
45538.2
45317.6
45097.9
44879.3
44661.6
44445
44229.4
44014.8
43801.2
43588.6
43377
43166.4
42956.8
42748.3
42540.7
42334.2
42128.6
41924.1
41720.6
41518.1
41316.6
41116.1
40916.7
40718.3
40520.9
40324.6
40129.3
39935
39741.7
39549.6
39358.5
39168.4
38979.4
38791.6
38604.8
38419
38234.4
38050.9
37868.6
37687.4
37507.3
37328.4
37150.7
36974.2
36798.9
36624.8
36452.1
36280.5
36110.3
35941.4
35773.9
35607.8
35443.1
35279.8
35118
34957.7
34799.1
34642
34486.6
34332.9
34181
34030.9
33882.6
33736.4
33592.2
33450
33310.1
33172.4
33037.1
32904.2
32773.9
32646.2
32521.2
32399.2
32280.1
32164.1
32051.4
31942
31836
31733.7
31635.1
31540.3
31449.5
31362.7
31280.1
31201.7
31127.7
31058.1
30992.8
30932
30875.6
30823.6
30776
30732.6
30693.4
30658.1
30626.7
30599.1
30575
30553.9
30535.8
30521
30507.4
30497.7
30489.6
30482.2
30476.9
30472.8
30469.6
30466.8
30466
30464.8
30464.4
30464.4
30464.4
30464.5
30464.6
30465.1
30465.9
30466.4
30466.5
30466.4
30467.5
30467.5
30468
30469.1
30469.3
30469.2
30470.3
30471.7
30471.8
30471.1
30472.8
30474.2
30474.6
30474.3
30475.5
30476.2
30475.6
30476
30477.4
30477.8
30477.4
30478.1
30479.2
30479.2
30478.8
30479.9
30480.6
30480.4
30480
30481.1
30481.7
30481.5
30481.2
30482
30482.4
30482.2
30482.2
30482.8
30483.1
30482.9
30482.9
30483.4
30483.4
30483.3
30483.4
30483.8
30483.8
30483.6
30483.7
30484
30483.9
30483.7
30484
30484.2
30484
30483.9
30484.1
30484.3
30484.1
30483.9
30484.3
30484.3
30484
30484.1
30484.4
30484.3
30484.1
30484.2
30484.3
30484.3
30484
30484.2
30484.5
30484.3
30484
30484.3
30484.6
30484.3
30484
30484.5
30484.5
30484.3
30484.4
30484.6
30484.4
30484.4
30484.5
30484.7
30484.5
30484.2
30484.8
30484.9
30484.3
30484.5
30485
30484.8
30484.4
30484.5
30485.1
30484.8
30484.3
30484.6
30485.2
30484.6
30484.2
30485
30484.8
30484.2
30484.5
30485.1
30484.3
30484.3
30484.7
30484.6
30484.3
30484.3
30484.6
30484.3
30484.2
30484.3
30484.3
30484.2
30484.2
30484.2
30484.2
30484.2
30484.2
30484.3
30484.2
30484.2
30484.2
30484.3
30484.2
30484.2
30484.1
30484.2
30484.2
30484.1
30484.1
30484.2
30484.1
30484.3
30484
30484
30484.1
30484.1
30484
30483.9
30484.1
30484
30483.8
30483.9
30483.8
30484.2
30483.5
30483.6
30483.6
30483.7
30483.7
30483.7
30484
30483.4
30483.4
30483.8
30484
30484.2
30485.9
30484.2
30492.7
30480.5
30535.9
30445.7
30453.9
30475.8
30484.6
30485.1
30486.4
30486.7
30484.8
30483.4
30484.7
30486
30485.4
30483.7
30483.4
30484.6
30485.3
30484.7
30483.1
30482.9
30484.2
30484.6
30483.6
30483.1
30483.6
30484
30483.9
30483.8
30483.6
30483.7
30483.7
30483.6
30483.5
30483.2
30483.2
30483.2
30483
30483
30483
30482.9
30482.9
30482.8
30482.9
30483
30482.8
30482.9
30483
30483.1
30483
30482.9
30482.9
30483.3
30483.4
30483.1
30482.9
30483.2
30483.4
30483.5
30483.5
30483.4
30483.6
30483.9
30483.9
30483.7
30484
30484.2
30484.2
30484.2
30484.2
30484.3
30484.3
30484.2
30484.2
30484.2
30484.3
30484.1
30483.8
30483.6
30483.6
30483.7
30483.3
30482.8
30482.7
30482.9
30482.3
30481.9
30481.9
30481.9
30481.6
30481.3
30481.2
30481.4
30481.2
30481.2
30481.5
30481.6
30481.4
30481.4
30481.7
30482
30482.2
30482
30482.1
30482.6
30482.8
30482.5
30482.6
30482.9
30483
30483
30482.8
30482.8
30483.1
30483.3
30482.9
30482.7
30482.8
30483
30482.9
30482.8
30482.8
30482.7
30482.9
30482.8
30482.8
30482.9
30482.9
30482.8
30482.7
30482.7
30482.7
30482.7
30482.5
30482.7
30482.7
30482.4
30482.4
30482.3
30482
30481.7
30481
30480.7
30480.8
30480.5
30480.5
30480
30479.9
30479.8
30478.6
30477.6
30477.4
30476
30477.4
30478.4
30478.3
30479.7
30479.2
30479.5
30475.3
30467.1
30469.2
30452.6
30447.5
30460.9
30439
30455.3
30445.8
30425.1
30435.6
30398
30320.7
30369
30180.9
30189.9
30189.1
29965.5
30090.5
29980.8
29501.6
30204.3
28330
29304.6
25696.9
14866.4
11022.8
10160.3
10022
10002.9
10000.4
10000.1
10000
10000
10000
10000
10000
10000
10000
10000
10000
10000
10000
10000
10000
10000
10000
10000
10000
10000
10000
10000
10000
10000
10000
10000
10000
10000
10000
10000
10000
10000
10000
10000
10000
10000
10000
10000
10000
10000
10000
10000
10000
10000
10000
10000
10000
10000
10000
10000
10000
10000
10000
10000
10000
10000
10000
10000
10000
10000
10000
10000
10000
10000
10000
10000
10000
10000
10000
10000
10000
10000
10000
10000
10000
10000
10000
10000
10000
10000
10000
10000
10000
10000
10000
10000
10000
10000
10000
10000
10000
10000
10000
10000
10000
10000
10000
10000
10000
10000
10000
10000
10000
10000
10000
10000
10000
10000
10000
10000
10000
10000
10000
10000
)
;

boundaryField
{
    sides
    {
        type            zeroGradient;
    }
    empty
    {
        type            empty;
    }
}


// ************************************************************************* //
