/*--------------------------------*- C++ -*----------------------------------*\
  =========                 |
  \\      /  F ield         | OpenFOAM: The Open Source CFD Toolbox
   \\    /   O peration     | Website:  https://openfoam.org
    \\  /    A nd           | Version:  9
     \\/     M anipulation  |
\*---------------------------------------------------------------------------*/
FoamFile
{
    format      ascii;
    class       volScalarField;
    location    "0.007";
    object      rho;
}
// * * * * * * * * * * * * * * * * * * * * * * * * * * * * * * * * * * * * * //

dimensions      [1 -3 0 0 0 0 0];

internalField   nonuniform List<scalar> 
1000
(
0.997574
0.997574
0.997574
0.997574
0.997574
0.997574
0.997574
0.997574
0.997574
0.997574
0.997574
0.997574
0.997574
0.997574
0.997574
0.997574
0.997574
0.997574
0.997574
0.997574
0.997574
0.997574
0.997574
0.997574
0.997574
0.997574
0.997574
0.997574
0.997574
0.997574
0.997574
0.997574
0.997574
0.997574
0.997574
0.997574
0.997574
0.997574
0.997574
0.997574
0.997574
0.997574
0.997574
0.997574
0.997574
0.997574
0.997574
0.997574
0.997574
0.997574
0.997574
0.997574
0.997574
0.997574
0.997574
0.997574
0.997574
0.997574
0.997574
0.997574
0.997574
0.997574
0.997574
0.997574
0.997574
0.997574
0.997574
0.997574
0.997574
0.997574
0.997574
0.997574
0.997574
0.997574
0.997574
0.997574
0.997574
0.997574
0.997574
0.997574
0.997574
0.997574
0.997574
0.997574
0.997574
0.997574
0.997574
0.997574
0.997574
0.997574
0.997574
0.997574
0.997574
0.997574
0.997574
0.997574
0.997574
0.997574
0.997574
0.997574
0.997574
0.997574
0.997574
0.997574
0.997574
0.997574
0.997574
0.997574
0.997574
0.997574
0.997574
0.997574
0.997574
0.997574
0.997574
0.997574
0.997574
0.997574
0.997574
0.997574
0.997574
0.997574
0.997574
0.997574
0.997574
0.997574
0.997574
0.997574
0.997574
0.997574
0.997574
0.997574
0.997574
0.997574
0.997574
0.997574
0.997574
0.997574
0.997574
0.997574
0.997574
0.997574
0.997574
0.997574
0.997574
0.997574
0.997574
0.997574
0.997574
0.997574
0.997574
0.997574
0.997574
0.997574
0.997574
0.997574
0.997574
0.997574
0.997574
0.997574
0.997574
0.997574
0.997574
0.997574
0.997574
0.997574
0.997574
0.997574
0.997574
0.997574
0.997574
0.997574
0.997574
0.997574
0.997574
0.997574
0.997574
0.997574
0.997574
0.997574
0.997574
0.997574
0.997574
0.997574
0.997574
0.997574
0.997574
0.997574
0.997574
0.997574
0.997574
0.997574
0.997574
0.997574
0.997574
0.997574
0.997574
0.997574
0.997574
0.997574
0.997574
0.997574
0.997574
0.997574
0.997574
0.997574
0.997574
0.997574
0.997574
0.997574
0.997574
0.997573
0.997573
0.997572
0.99757
0.997567
0.997562
0.997554
0.997542
0.997524
0.997496
0.997454
0.997391
0.997301
0.997172
0.99699
0.99674
0.996403
0.995956
0.995376
0.994642
0.99373
0.992624
0.991312
0.989789
0.988059
0.986132
0.984026
0.981763
0.97937
0.976872
0.97429
0.971646
0.968954
0.966227
0.963474
0.960703
0.957918
0.955123
0.952322
0.949516
0.946707
0.943897
0.941087
0.938276
0.935467
0.932659
0.929852
0.927047
0.924245
0.921444
0.918646
0.91585
0.913057
0.910267
0.907479
0.904694
0.901913
0.899134
0.896358
0.893586
0.890817
0.888051
0.885289
0.88253
0.879776
0.877025
0.874278
0.871535
0.868796
0.866061
0.863331
0.860605
0.857884
0.855167
0.852455
0.849749
0.847047
0.84435
0.841658
0.838971
0.83629
0.833614
0.830943
0.828278
0.825618
0.822964
0.820316
0.817673
0.815036
0.812405
0.80978
0.807161
0.804547
0.80194
0.799338
0.796743
0.794154
0.79157
0.788993
0.786422
0.783857
0.781299
0.778746
0.7762
0.773659
0.771126
0.768598
0.766076
0.763561
0.761052
0.75855
0.756053
0.753563
0.75108
0.748602
0.746131
0.743666
0.741208
0.738756
0.73631
0.73387
0.731437
0.72901
0.726589
0.724175
0.721767
0.719366
0.71697
0.714582
0.712199
0.709823
0.707453
0.705089
0.702732
0.700381
0.698036
0.695697
0.693365
0.691039
0.68872
0.686407
0.6841
0.681799
0.679505
0.677216
0.674935
0.672659
0.67039
0.668127
0.66587
0.663619
0.661375
0.659137
0.656905
0.654679
0.65246
0.650247
0.64804
0.645839
0.643644
0.641457
0.639273
0.6371
0.634924
0.632773
0.630594
0.62848
0.626273
0.624231
0.621956
0.620025
0.617658
0.615827
0.613434
0.611575
0.609328
0.607262
0.605291
0.603007
0.601154
0.598958
0.596879
0.594987
0.592736
0.590817
0.588825
0.586627
0.584771
0.582729
0.580588
0.578755
0.57671
0.574602
0.572781
0.570764
0.568669
0.566846
0.564891
0.562795
0.560952
0.559077
0.556996
0.555101
0.553302
0.551286
0.549312
0.547545
0.545645
0.543628
0.541802
0.54003
0.538065
0.536133
0.534392
0.532576
0.530613
0.52877
0.52706
0.525222
0.523293
0.521513
0.51982
0.517988
0.516097
0.514356
0.512686
0.510883
0.509024
0.507304
0.505664
0.503908
0.50208
0.500366
0.498755
0.497068
0.49528
0.493558
0.491965
0.490356
0.488633
0.486907
0.485307
0.483768
0.482142
0.480444
0.478817
0.477306
0.475792
0.474181
0.472548
0.471016
0.469574
0.468098
0.466535
0.464982
0.463537
0.462167
0.460753
0.459266
0.457802
0.456443
0.455156
0.453842
0.452461
0.451087
0.449824
0.448656
0.447465
0.446208
0.444969
0.443824
0.442766
0.441738
0.44068
0.439593
0.438565
0.437663
0.43684
0.435994
0.435107
0.434249
0.433512
0.432894
0.432293
0.431645
0.431004
0.43045
0.430002
0.429629
0.429263
0.428858
0.428464
0.428165
0.427979
0.427824
0.427636
0.42744
0.427253
0.427132
0.427093
0.427056
0.426998
0.426939
0.426882
0.426838
0.426828
0.426833
0.426835
0.426836
0.426829
0.426818
0.426814
0.426817
0.426829
0.426839
0.426841
0.426835
0.426835
0.426839
0.426838
0.426851
0.426857
0.426856
0.426853
0.426866
0.426873
0.426866
0.426868
0.426883
0.426892
0.42689
0.426891
0.4269
0.426899
0.426893
0.426901
0.426911
0.426908
0.426904
0.426914
0.426917
0.426912
0.426913
0.42692
0.426922
0.426914
0.426915
0.426922
0.426922
0.426916
0.426916
0.42692
0.426919
0.426915
0.426915
0.426918
0.426915
0.426911
0.426912
0.426912
0.426909
0.426904
0.426905
0.426904
0.4269
0.426895
0.426895
0.426893
0.426888
0.426885
0.426885
0.426882
0.426876
0.426873
0.426873
0.426869
0.426862
0.426859
0.426858
0.426853
0.426847
0.426846
0.426845
0.426838
0.426833
0.42683
0.426827
0.426821
0.426814
0.426812
0.426809
0.426801
0.426794
0.426794
0.426789
0.42678
0.426776
0.426774
0.426767
0.426759
0.426757
0.42675
0.426745
0.426739
0.426735
0.42673
0.426717
0.42671
0.426707
0.426697
0.426684
0.426684
0.42668
0.426671
0.426662
0.426656
0.426652
0.42664
0.426626
0.426624
0.426613
0.426597
0.426587
0.426582
0.426567
0.426551
0.426548
0.42653
0.426513
0.426506
0.426502
0.426492
0.426479
0.426461
0.426437
0.426414
0.426398
0.42639
0.426384
0.426378
0.426368
0.426338
0.426303
0.426268
0.426242
0.426226
0.426216
0.42621
0.4262
0.426171
0.426126
0.426078
0.426032
0.425997
0.425971
0.425956
0.425947
0.425938
0.425923
0.425869
0.425784
0.425695
0.425611
0.425537
0.425478
0.42544
0.425416
0.425401
0.425387
0.425366
0.425325
0.425176
0.424975
0.424757
0.424547
0.424351
0.424184
0.424044
0.423946
0.42387
0.423834
0.423807
0.4238
0.423798
0.4237
0.423521
0.422329
0.419672
0.40785
0.386026
0.365517
0.347204
0.331367
0.318063
0.307109
0.298232
0.291131
0.285549
0.281232
0.277922
0.275409
0.273534
0.272162
0.271175
0.270471
0.269966
0.269614
0.269384
0.269239
0.269139
0.269072
0.269037
0.269021
0.269015
0.269012
0.269011
0.269014
0.269026
0.269037
0.269048
0.269054
0.26906
0.269065
0.269068
0.269068
0.269069
0.26907
0.26907
0.269072
0.269081
0.269092
0.269102
0.269111
0.269121
0.26913
0.269137
0.269143
0.269145
0.269149
0.269154
0.269154
0.269153
0.269153
0.269154
0.269155
0.269153
0.269148
0.269144
0.269143
0.269141
0.269138
0.269138
0.269139
0.26914
0.26914
0.269142
0.269147
0.269153
0.269158
0.269161
0.269163
0.269166
0.269167
0.269166
0.269164
0.269163
0.269162
0.269159
0.269151
0.269146
0.269145
0.269142
0.269138
0.269137
0.269137
0.269137
0.269139
0.269141
0.269145
0.269148
0.269148
0.26915
0.269152
0.269152
0.269152
0.269152
0.269152
0.26915
0.269146
0.269142
0.26914
0.269141
0.26914
0.269138
0.269139
0.269141
0.269143
0.269148
0.269151
0.269155
0.26916
0.269161
0.269159
0.269159
0.26916
0.26916
0.269159
0.269158
0.269155
0.26915
0.269146
0.269142
0.26914
0.269139
0.269139
0.269138
0.269139
0.269143
0.269147
0.269148
0.26915
0.269151
0.26915
0.269149
0.269149
0.269148
0.269144
0.269142
0.269138
0.269137
0.269134
0.269131
0.269124
0.269116
0.269112
0.269105
0.269092
0.269095
0.269099
0.269104
0.269125
0.269133
0.269144
0.269147
0.269139
0.269143
0.269068
0.269071
0.269036
0.268956
0.269038
0.269001
0.268941
0.269023
0.268856
0.268732
0.268853
0.268103
0.268356
0.267757
0.267183
0.267599
0.266979
0.26638
0.267578
0.26334
0.266334
0.26302
0.253814
0.265083
0.200322
0.145751
0.128777
0.125289
0.124776
0.124707
0.124698
0.124697
0.124697
0.124697
0.124697
0.124697
0.124697
0.124697
0.124697
0.124697
0.124697
0.124697
0.124697
0.124697
0.124697
0.124697
0.124697
0.124697
0.124697
0.124697
0.124697
0.124697
0.124697
0.124697
0.124697
0.124697
0.124697
0.124697
0.124697
0.124697
0.124697
0.124697
0.124697
0.124697
0.124697
0.124697
0.124697
0.124697
0.124697
0.124697
0.124697
0.124697
0.124697
0.124697
0.124697
0.124697
0.124697
0.124697
0.124697
0.124697
0.124697
0.124697
0.124697
0.124697
0.124697
0.124697
0.124697
0.124697
0.124697
0.124697
0.124697
0.124697
0.124697
0.124697
0.124697
0.124697
0.124697
0.124697
0.124697
0.124697
0.124697
0.124697
0.124697
0.124697
0.124697
0.124697
0.124697
0.124697
0.124697
0.124697
0.124697
0.124697
0.124697
0.124697
0.124697
0.124697
0.124697
0.124697
0.124697
0.124697
0.124697
0.124697
0.124697
0.124697
0.124697
0.124697
0.124697
0.124697
0.124697
0.124697
0.124697
0.124697
0.124697
0.124697
0.124697
0.124697
0.124697
0.124697
0.124697
0.124697
0.124697
0.124697
0.124697
)
;

boundaryField
{
    sides
    {
        type            calculated;
        value           nonuniform List<scalar> 2(0.124697 0.997574);
    }
    empty
    {
        type            empty;
    }
}


// ************************************************************************* //
