/*--------------------------------*- C++ -*----------------------------------*\
  =========                 |
  \\      /  F ield         | OpenFOAM: The Open Source CFD Toolbox
   \\    /   O peration     | Website:  https://openfoam.org
    \\  /    A nd           | Version:  9
     \\/     M anipulation  |
\*---------------------------------------------------------------------------*/
FoamFile
{
    format      ascii;
    class       volScalarField;
    location    "0.023";
    object      ddt0(rho,e);
}
// * * * * * * * * * * * * * * * * * * * * * * * * * * * * * * * * * * * * * //

dimensions      [1 -1 -3 0 0 0 0];

internalField   nonuniform List<scalar> 
1000
(
1.15531e+06
1.15248e+06
1.15266e+06
1.14671e+06
1.13635e+06
1.1306e+06
1.13375e+06
1.14363e+06
1.15523e+06
1.16422e+06
1.16853e+06
1.16938e+06
1.17176e+06
1.17916e+06
1.18574e+06
1.18489e+06
1.18455e+06
1.18442e+06
1.18442e+06
1.18453e+06
1.18468e+06
1.18486e+06
1.18506e+06
1.18526e+06
1.18547e+06
1.18568e+06
1.1859e+06
1.18611e+06
1.18632e+06
1.18653e+06
1.18675e+06
1.18695e+06
1.18716e+06
1.18736e+06
1.18757e+06
1.18778e+06
1.18798e+06
1.18819e+06
1.1884e+06
1.18861e+06
1.18881e+06
1.18902e+06
1.18923e+06
1.18943e+06
1.18963e+06
1.18984e+06
1.19004e+06
1.19025e+06
1.19045e+06
1.19066e+06
1.19086e+06
1.19106e+06
1.19126e+06
1.19146e+06
1.19165e+06
1.19185e+06
1.19205e+06
1.19225e+06
1.19245e+06
1.19265e+06
1.19285e+06
1.19305e+06
1.19325e+06
1.19345e+06
1.19365e+06
1.19384e+06
1.19404e+06
1.19424e+06
1.19444e+06
1.19463e+06
1.19483e+06
1.19502e+06
1.19522e+06
1.19541e+06
1.1956e+06
1.19578e+06
1.19597e+06
1.19615e+06
1.19633e+06
1.19651e+06
1.19668e+06
1.19686e+06
1.19703e+06
1.19721e+06
1.19738e+06
1.19755e+06
1.19773e+06
1.1979e+06
1.19808e+06
1.19826e+06
1.19844e+06
1.19862e+06
1.1988e+06
1.19898e+06
1.19916e+06
1.19934e+06
1.19952e+06
1.1997e+06
1.19987e+06
1.20005e+06
1.20022e+06
1.20039e+06
1.20056e+06
1.20073e+06
1.2009e+06
1.20106e+06
1.20123e+06
1.20139e+06
1.20155e+06
1.20171e+06
1.20187e+06
1.20202e+06
1.20218e+06
1.20233e+06
1.20249e+06
1.20264e+06
1.2028e+06
1.20293e+06
1.20313e+06
1.20319e+06
1.2035e+06
1.20336e+06
1.204e+06
1.20334e+06
1.20476e+06
1.20301e+06
1.20582e+06
1.20245e+06
1.20681e+06
1.20248e+06
1.20649e+06
1.20459e+06
1.20425e+06
1.20582e+06
1.20573e+06
1.20531e+06
1.20524e+06
1.2065e+06
1.20494e+06
1.20814e+06
1.20241e+06
1.21184e+06
1.19987e+06
1.21242e+06
1.20382e+06
1.20481e+06
1.21405e+06
1.19713e+06
1.21557e+06
1.20505e+06
1.20148e+06
1.21924e+06
1.19659e+06
1.21114e+06
1.21512e+06
1.19416e+06
1.21945e+06
1.20755e+06
1.19772e+06
1.22284e+06
1.20044e+06
1.20482e+06
1.22176e+06
1.19618e+06
1.21206e+06
1.21789e+06
1.19501e+06
1.21796e+06
1.21333e+06
1.19533e+06
1.22263e+06
1.20943e+06
1.19564e+06
1.2264e+06
1.20715e+06
1.19473e+06
1.22911e+06
1.20788e+06
1.19247e+06
1.22914e+06
1.21171e+06
1.19126e+06
1.22605e+06
1.21539e+06
1.19248e+06
1.22327e+06
1.21684e+06
1.1925e+06
1.22334e+06
1.22059e+06
1.188e+06
1.21986e+06
1.23176e+06
1.18767e+06
1.20546e+06
1.23912e+06
1.20083e+06
1.19369e+06
1.23277e+06
1.21231e+06
1.19216e+06
1.22907e+06
1.22023e+06
1.18452e+06
1.22013e+06
1.23994e+06
1.19008e+06
1.19363e+06
1.24149e+06
1.21637e+06
1.18516e+06
1.22429e+06
1.22997e+06
1.18752e+06
1.20931e+06
1.24527e+06
1.20164e+06
1.17939e+06
1.23469e+06
1.23927e+06
1.18488e+06
1.19947e+06
1.24245e+06
1.20953e+06
1.18355e+06
1.23233e+06
1.24083e+06
1.18204e+06
1.18851e+06
1.24862e+06
1.22966e+06
1.17751e+06
1.20923e+06
1.24744e+06
1.20155e+06
1.17772e+06
1.23672e+06
1.24972e+06
1.18361e+06
1.17934e+06
1.24352e+06
1.23697e+06
1.17926e+06
1.20112e+06
1.25457e+06
1.21741e+06
1.16426e+06
1.20996e+06
1.26207e+06
1.21384e+06
1.16873e+06
1.22034e+06
1.25507e+06
1.19542e+06
1.16637e+06
1.23335e+06
1.26148e+06
1.19376e+06
1.16752e+06
1.2325e+06
1.25337e+06
1.18749e+06
1.17036e+06
1.23937e+06
1.25853e+06
1.18894e+06
1.166e+06
1.23227e+06
1.25655e+06
1.19183e+06
1.16569e+06
1.23091e+06
1.26349e+06
1.20084e+06
1.15999e+06
1.2157e+06
1.26138e+06
1.21187e+06
1.16106e+06
1.20437e+06
1.26192e+06
1.22835e+06
1.16559e+06
1.1874e+06
1.25157e+06
1.24046e+06
1.17505e+06
1.17386e+06
1.23846e+06
1.25298e+06
1.19193e+06
1.16429e+06
1.21797e+06
1.25677e+06
1.21172e+06
1.16092e+06
1.19157e+06
1.24884e+06
1.23359e+06
1.17306e+06
1.17201e+06
1.23185e+06
1.25062e+06
1.19715e+06
1.16287e+06
1.20526e+06
1.25239e+06
1.22535e+06
1.16979e+06
1.17755e+06
1.23455e+06
1.24598e+06
1.19326e+06
1.16309e+06
1.20399e+06
1.24862e+06
1.2246e+06
1.17104e+06
1.17377e+06
1.22721e+06
1.24502e+06
1.19884e+06
1.16204e+06
1.19214e+06
1.24079e+06
1.23129e+06
1.17896e+06
1.1655e+06
1.21116e+06
1.24429e+06
1.21373e+06
1.16688e+06
1.175e+06
1.22458e+06
1.23949e+06
1.19692e+06
1.16118e+06
1.18563e+06
1.23238e+06
1.23058e+06
1.18298e+06
1.16062e+06
1.19552e+06
1.23488e+06
1.22054e+06
1.17365e+06
1.16236e+06
1.2022e+06
1.23439e+06
1.21183e+06
1.16708e+06
1.16423e+06
1.20638e+06
1.2322e+06
1.20447e+06
1.16263e+06
1.16556e+06
1.20798e+06
1.22899e+06
1.19895e+06
1.15987e+06
1.16552e+06
1.20688e+06
1.22589e+06
1.19567e+06
1.1576e+06
1.16367e+06
1.20441e+06
1.22267e+06
1.19352e+06
1.15669e+06
1.16085e+06
1.19891e+06
1.2194e+06
1.19428e+06
1.15606e+06
1.15539e+06
1.19271e+06
1.21666e+06
1.1947e+06
1.15615e+06
1.15084e+06
1.18425e+06
1.21177e+06
1.19664e+06
1.15806e+06
1.14574e+06
1.17418e+06
1.2051e+06
1.19839e+06
1.16228e+06
1.1417e+06
1.16182e+06
1.1962e+06
1.2001e+06
1.16756e+06
1.13896e+06
1.14961e+06
1.18497e+06
1.19885e+06
1.17295e+06
1.13997e+06
1.13968e+06
1.16952e+06
1.19212e+06
1.18018e+06
1.14585e+06
1.12911e+06
1.15164e+06
1.18474e+06
1.18384e+06
1.1499e+06
1.12619e+06
1.13817e+06
1.16699e+06
1.17944e+06
1.16148e+06
1.13003e+06
1.12053e+06
1.14631e+06
1.17455e+06
1.1675e+06
1.13402e+06
1.11358e+06
1.12695e+06
1.15691e+06
1.16803e+06
1.14331e+06
1.11217e+06
1.11004e+06
1.13617e+06
1.15875e+06
1.14187e+06
1.12519e+06
1.10631e+06
1.11257e+06
1.12492e+06
1.13169e+06
1.13404e+06
1.125e+06
1.10512e+06
1.10073e+06
1.11111e+06
1.12927e+06
1.1242e+06
1.09428e+06
1.08219e+06
1.0984e+06
1.11649e+06
1.11615e+06
1.09143e+06
1.07155e+06
1.07899e+06
1.09714e+06
1.10454e+06
1.08813e+06
1.06278e+06
1.05528e+06
1.06926e+06
1.08415e+06
1.08013e+06
1.06074e+06
1.03733e+06
1.03289e+06
1.05437e+06
1.06326e+06
1.04577e+06
1.02303e+06
1.00481e+06
1.00663e+06
1.02476e+06
1.02648e+06
1.00037e+06
970512
960280
968843
979522
964539
932571
907000
897041
902863
904559
881167
843560
814649
805805
812310
801822
763031
723246
698010
691016
689057
665122
620510
581623
561179
553332
541087
509998
467107
431116
413662
406342
388626
356256
319938
291244
275727
267410
252405
226441
198455
176560
163234
155450
145913
130449
111898
96006.9
85765
78859.1
73101.4
66634.1
57456.5
47881.1
39891.7
34976.4
32318
29675.6
25671.1
20465.8
16150.2
13696.4
12761.4
11732.8
9880.89
7507.87
5205.95
4329.37
4069.72
3739.44
2979.4
1771.14
1436.47
274.44
-123.815
-34.5446
390.005
458.231
427.779
-255.929
-880.387
-998.519
-1044.5
-1169.41
-1314.88
-1313.46
-959.004
-376.19
-403.869
-674.446
-776.709
-198.295
882.043
3339.77
-4000.53
-7061.27
-6602.58
-2425.45
1204.1
674.632
575.45
314.037
490.924
901.836
462.187
-3866.56
-6002.41
-5104.79
-2552.84
-48.6716
-632.663
-339.206
-100.832
-360.694
-203.307
-533.217
-104.967
-27.9427
-78.3719
634.448
1443.51
2632.91
-3839.66
-5451.47
-5508.96
-181.82
220.831
-5142.27
-4964.43
-3223.28
966.052
2630.85
-3071.29
-4525.12
-5061.9
429.274
1478.9
1679.96
4441.79
-2537.92
-4893.59
-5350.88
-1809.94
2234.79
3914.79
-2671.87
-4633.05
-2693.52
614.822
1343.75
847.036
-2983.11
-3501.85
-3334.71
510.249
356.608
-3013.47
-3854.47
-3553.21
345.071
-212.365
-388.125
-1762.53
-1947.58
242.979
-900.711
-4061.32
-3686.91
323.249
-741.395
-1968.7
-3654.5
-2482.96
-2172.98
-1801.27
-124.258
-1595.75
-2736.1
-2798.63
199.904
-1303.19
-267.473
-1592.21
-3262.89
-1872.24
-603.818
285.485
-1606.9
-3704.63
-957.261
-1351.99
-440.936
-2295.42
-1983.83
-958.694
157.071
-1430.73
-3445.5
-408.753
-1950.41
-205.269
-1743.26
-3292.11
-371.12
-1822.98
-926.589
-2355.94
-2582.96
-1528.93
-1706.65
-1900.87
-2591.36
-2438.86
-3085.21
-2901.76
-1059.6
-938.742
-876.145
-1887.42
-3575.96
-3365.26
-2694.6
-1086.47
-570.212
-241.839
-293.915
-1034.78
-2533.34
-3449.92
-581.28
-2043.43
-1147.82
-2206.19
-3144.77
-1299.4
-663.592
-1971.31
-3579.89
-1765.44
-1357.14
316.859
-2559.9
-4125.98
-2462.94
-1325.39
-79.4842
-715.662
-3963.41
-3353.08
-2456.08
-1504.66
-757.055
-595.225
-3196.51
-3604.67
-4381.23
-99.5732
-2741.13
-1511.9
-766.663
-2222.04
-2666.54
-1845.08
-2542.73
-958.637
-3126.96
-4129.05
-568.775
159.989
-3555.94
-4950.53
-3967.25
-378.519
-894.561
-823.454
-5152.95
-4743.72
-3148.23
-1208.62
63.8236
-2462.56
-4593.54
-4234.96
-822.65
-2356.02
334.824
-3760.56
-5227.49
-3191.72
-1689.13
-1340.1
-571.019
-3692.24
-5729.97
-2620.63
-1370.65
919.915
179.113
-4047.89
-5366.68
-5516.91
-2177.7
-1077.89
-304.574
-3168.87
-3027.03
-2432.05
-2178.95
-2008.5
-3018.88
-4572.57
-3940.9
-3109.3
-3431.89
-3891.08
-3073.6
-2954.92
-3468.35
-2751.37
-2106.58
-3060.64
-2799.13
-2257.22
-3368.78
-3167.14
-2724.77
-2574.05
-2797.78
-2206.27
-2243.47
-4579.83
-3133.4
-2553.05
-3121.7
-2870.7
-1099.7
-1267.31
-2418.88
-3200.11
-1155.84
-4257.53
-2736.86
-4537.43
-4414.2
-6790.57
-3712.51
-6491.07
-8502.76
-886.895
-3047.54
-3062.38
-9837.22
3592.55
-401.026
-4452.25
-14581.6
3523.78
-1653.04
-884.171
-18424.3
-3259.48
5280.89
5965.33
-30063.8
-5068.63
4864.96
5220
-18472
-26936.7
16393.7
8076.17
-4621.4
-60763.7
27952.2
14382.8
3434.94
-44656.5
-38907.9
33494.8
30861.9
-14030.3
-119854
61781.6
32864
36283.6
-92622.7
-66186.6
51975.2
48483.9
-101251
-99096.8
104803
53098.4
3485.95
-261667
126741
87290.4
37717.1
-162123
-161667
150569
104262
-21228.6
-396723
220333
121319
116976
-329984
-216310
257374
144543
-42345.3
-545722
258867
198328
103914
-295510
-425536
249861
376986
202822
-477117
-488404
342403
304021
125981
-926185
79418.4
444314
498857
-777666
-657910
568323
376597
-334805
-326461
653376
132523
-886761
542294
372888
-656436
-270771
636557
-116598
-780996
516393
403266
-778827
11786.7
418357
-109050
-470289
319682
461037
-814672
137669
449617
-231832
-323926
253036
369410
-645092
149219
287304
-193850
-411730
269686
226602
-595472
182921
181699
-127566
-211422
158476
196307
-471899
186909
158593
-114068
-89061.3
202305
134048
-257600
127314
93378.8
-75198
-87333.9
123228
9742.19
-143573
85937.4
32572.8
-99954.8
-42209.2
34039.8
-20900.3
-90404.8
41461.6
-794.951
-64551.9
-18717.9
-3970.25
-23492.5
-50642.3
15397.4
-11027.6
-31041.9
-22098.4
-21424.5
-22606.2
-43863.6
-1996.9
-36213.5
-25047.5
-26384.2
-20744.6
-22381
-25975.4
-6621.81
-13946.7
-21887.8
-10890.7
-2380.77
-14608.4
-11240
-5093.92
)
;

boundaryField
{
    sides
    {
        type            calculated;
        value           nonuniform List<scalar> 2(-5093.92 1.15531e+06);
    }
    empty
    {
        type            empty;
    }
}


// ************************************************************************* //
