/*--------------------------------*- C++ -*----------------------------------*\
  =========                 |
  \\      /  F ield         | OpenFOAM: The Open Source CFD Toolbox
   \\    /   O peration     | Website:  https://openfoam.org
    \\  /    A nd           | Version:  9
     \\/     M anipulation  |
\*---------------------------------------------------------------------------*/
FoamFile
{
    format      ascii;
    class       volScalarField;
    location    "0.023";
    object      ddt0(p);
}
// * * * * * * * * * * * * * * * * * * * * * * * * * * * * * * * * * * * * * //

dimensions      [1 -1 -3 0 0 0 0];

internalField   nonuniform List<scalar> 
1000
(
-2.66552e+06
-2.66469e+06
-2.66422e+06
-2.66375e+06
-2.66327e+06
-2.66274e+06
-2.6622e+06
-2.66168e+06
-2.66114e+06
-2.66061e+06
-2.66009e+06
-2.65957e+06
-2.65896e+06
-2.65843e+06
-2.65789e+06
-2.65739e+06
-2.65677e+06
-2.65622e+06
-2.65569e+06
-2.65515e+06
-2.6546e+06
-2.65404e+06
-2.65348e+06
-2.65293e+06
-2.65236e+06
-2.65181e+06
-2.65126e+06
-2.65069e+06
-2.65012e+06
-2.64955e+06
-2.64899e+06
-2.64841e+06
-2.64783e+06
-2.64724e+06
-2.64666e+06
-2.64608e+06
-2.6455e+06
-2.64492e+06
-2.64434e+06
-2.64375e+06
-2.64317e+06
-2.64258e+06
-2.64199e+06
-2.6414e+06
-2.6408e+06
-2.64021e+06
-2.63961e+06
-2.63902e+06
-2.63842e+06
-2.63783e+06
-2.63723e+06
-2.63662e+06
-2.63601e+06
-2.63539e+06
-2.63478e+06
-2.63416e+06
-2.63355e+06
-2.63294e+06
-2.63232e+06
-2.63171e+06
-2.63109e+06
-2.63047e+06
-2.62986e+06
-2.62924e+06
-2.62862e+06
-2.62799e+06
-2.62737e+06
-2.62674e+06
-2.62612e+06
-2.62549e+06
-2.62486e+06
-2.62422e+06
-2.62359e+06
-2.62294e+06
-2.62229e+06
-2.62164e+06
-2.62098e+06
-2.62031e+06
-2.61964e+06
-2.61896e+06
-2.61828e+06
-2.6176e+06
-2.61691e+06
-2.61622e+06
-2.61554e+06
-2.61485e+06
-2.61416e+06
-2.61348e+06
-2.6128e+06
-2.61212e+06
-2.61144e+06
-2.61076e+06
-2.61008e+06
-2.60941e+06
-2.60873e+06
-2.60804e+06
-2.60736e+06
-2.60667e+06
-2.60597e+06
-2.60528e+06
-2.60458e+06
-2.60387e+06
-2.60316e+06
-2.60245e+06
-2.60173e+06
-2.60101e+06
-2.60029e+06
-2.59956e+06
-2.59883e+06
-2.59809e+06
-2.59735e+06
-2.5966e+06
-2.59586e+06
-2.59511e+06
-2.59436e+06
-2.5936e+06
-2.59285e+06
-2.59209e+06
-2.59133e+06
-2.59056e+06
-2.5898e+06
-2.58903e+06
-2.58826e+06
-2.58749e+06
-2.58671e+06
-2.58593e+06
-2.58515e+06
-2.58436e+06
-2.58356e+06
-2.58281e+06
-2.582e+06
-2.58114e+06
-2.58038e+06
-2.57959e+06
-2.57884e+06
-2.57801e+06
-2.57716e+06
-2.57635e+06
-2.57555e+06
-2.57472e+06
-2.57388e+06
-2.57305e+06
-2.57222e+06
-2.5714e+06
-2.57059e+06
-2.56976e+06
-2.56891e+06
-2.56808e+06
-2.56722e+06
-2.56637e+06
-2.56551e+06
-2.56464e+06
-2.56379e+06
-2.56293e+06
-2.56205e+06
-2.56128e+06
-2.56033e+06
-2.55936e+06
-2.55882e+06
-2.55753e+06
-2.55687e+06
-2.55601e+06
-2.55506e+06
-2.55419e+06
-2.55323e+06
-2.55237e+06
-2.55152e+06
-2.55059e+06
-2.54966e+06
-2.54876e+06
-2.54785e+06
-2.54697e+06
-2.54605e+06
-2.54508e+06
-2.54418e+06
-2.54327e+06
-2.54231e+06
-2.54139e+06
-2.54046e+06
-2.53949e+06
-2.53858e+06
-2.53764e+06
-2.53666e+06
-2.53572e+06
-2.53478e+06
-2.53379e+06
-2.53283e+06
-2.53188e+06
-2.53088e+06
-2.52992e+06
-2.52897e+06
-2.52796e+06
-2.52697e+06
-2.52603e+06
-2.52502e+06
-2.52398e+06
-2.52303e+06
-2.52203e+06
-2.52099e+06
-2.52001e+06
-2.51902e+06
-2.51797e+06
-2.51697e+06
-2.51597e+06
-2.51491e+06
-2.51388e+06
-2.51289e+06
-2.51183e+06
-2.51077e+06
-2.50976e+06
-2.50873e+06
-2.50764e+06
-2.5066e+06
-2.50558e+06
-2.50449e+06
-2.50341e+06
-2.50239e+06
-2.50131e+06
-2.5002e+06
-2.49913e+06
-2.49809e+06
-2.49697e+06
-2.49585e+06
-2.4948e+06
-2.49372e+06
-2.49257e+06
-2.49148e+06
-2.49042e+06
-2.48928e+06
-2.48812e+06
-2.48704e+06
-2.48594e+06
-2.48477e+06
-2.48363e+06
-2.48255e+06
-2.48139e+06
-2.48021e+06
-2.47908e+06
-2.47795e+06
-2.47682e+06
-2.47558e+06
-2.47445e+06
-2.47333e+06
-2.47212e+06
-2.47091e+06
-2.46977e+06
-2.46861e+06
-2.46738e+06
-2.46617e+06
-2.46503e+06
-2.46384e+06
-2.46258e+06
-2.46136e+06
-2.4602e+06
-2.45898e+06
-2.4577e+06
-2.45648e+06
-2.4553e+06
-2.45406e+06
-2.45276e+06
-2.45153e+06
-2.45033e+06
-2.44907e+06
-2.44776e+06
-2.44651e+06
-2.44529e+06
-2.444e+06
-2.44267e+06
-2.4414e+06
-2.44016e+06
-2.43887e+06
-2.43752e+06
-2.43622e+06
-2.43497e+06
-2.43366e+06
-2.43229e+06
-2.43097e+06
-2.42969e+06
-2.42837e+06
-2.42699e+06
-2.42563e+06
-2.42432e+06
-2.42299e+06
-2.4216e+06
-2.4202e+06
-2.41887e+06
-2.41753e+06
-2.41613e+06
-2.4147e+06
-2.41333e+06
-2.41197e+06
-2.41056e+06
-2.40912e+06
-2.4077e+06
-2.40632e+06
-2.40491e+06
-2.40345e+06
-2.40199e+06
-2.40058e+06
-2.39917e+06
-2.3977e+06
-2.39621e+06
-2.39476e+06
-2.39332e+06
-2.39185e+06
-2.39033e+06
-2.38883e+06
-2.38737e+06
-2.38588e+06
-2.38435e+06
-2.3828e+06
-2.38129e+06
-2.37979e+06
-2.37825e+06
-2.37667e+06
-2.37511e+06
-2.37358e+06
-2.37204e+06
-2.37045e+06
-2.36885e+06
-2.36727e+06
-2.36571e+06
-2.36411e+06
-2.36248e+06
-2.36085e+06
-2.35925e+06
-2.35765e+06
-2.356e+06
-2.35433e+06
-2.35268e+06
-2.35105e+06
-2.34939e+06
-2.34769e+06
-2.34598e+06
-2.3443e+06
-2.34262e+06
-2.34091e+06
-2.33916e+06
-2.33741e+06
-2.33569e+06
-2.33397e+06
-2.33221e+06
-2.33042e+06
-2.32864e+06
-2.32688e+06
-2.32511e+06
-2.32331e+06
-2.32148e+06
-2.31966e+06
-2.31786e+06
-2.31604e+06
-2.31418e+06
-2.3123e+06
-2.31044e+06
-2.30858e+06
-2.30671e+06
-2.30479e+06
-2.30287e+06
-2.30095e+06
-2.29904e+06
-2.29711e+06
-2.29515e+06
-2.29318e+06
-2.29121e+06
-2.28925e+06
-2.28728e+06
-2.28527e+06
-2.28325e+06
-2.28123e+06
-2.27922e+06
-2.2772e+06
-2.27514e+06
-2.27306e+06
-2.27099e+06
-2.26892e+06
-2.26684e+06
-2.26472e+06
-2.26259e+06
-2.26046e+06
-2.25833e+06
-2.25619e+06
-2.25402e+06
-2.25183e+06
-2.24964e+06
-2.24745e+06
-2.24526e+06
-2.24304e+06
-2.2408e+06
-2.23855e+06
-2.23631e+06
-2.23406e+06
-2.23179e+06
-2.22949e+06
-2.22718e+06
-2.22488e+06
-2.22257e+06
-2.22023e+06
-2.21787e+06
-2.2155e+06
-2.21312e+06
-2.21075e+06
-2.20835e+06
-2.20593e+06
-2.2035e+06
-2.20105e+06
-2.19861e+06
-2.19616e+06
-2.19368e+06
-2.19118e+06
-2.18866e+06
-2.18614e+06
-2.18362e+06
-2.18108e+06
-2.1785e+06
-2.17591e+06
-2.17331e+06
-2.1707e+06
-2.16808e+06
-2.16544e+06
-2.16276e+06
-2.16007e+06
-2.15738e+06
-2.15467e+06
-2.15193e+06
-2.14916e+06
-2.14637e+06
-2.14356e+06
-2.14075e+06
-2.13791e+06
-2.13504e+06
-2.132e+06
-2.12908e+06
-2.12476e+06
-2.1227e+06
-2.11648e+06
-2.11514e+06
-2.11813e+06
-2.10893e+06
-2.10713e+06
-2.11392e+06
-2.10024e+06
-2.09686e+06
-2.09458e+06
-2.09181e+06
-2.08784e+06
-2.08309e+06
-2.07935e+06
-2.0764e+06
-2.07315e+06
-2.06934e+06
-2.06516e+06
-2.06103e+06
-2.05676e+06
-2.05205e+06
-2.04695e+06
-2.04166e+06
-2.03643e+06
-2.03141e+06
-2.02638e+06
-2.02102e+06
-2.01501e+06
-2.00816e+06
-2.00066e+06
-1.99273e+06
-1.9846e+06
-1.97631e+06
-1.96747e+06
-1.95778e+06
-1.94713e+06
-1.93552e+06
-1.92311e+06
-1.91008e+06
-1.896e+06
-1.8807e+06
-1.86413e+06
-1.84629e+06
-1.8274e+06
-1.80724e+06
-1.78556e+06
-1.76228e+06
-1.7374e+06
-1.71102e+06
-1.68325e+06
-1.65366e+06
-1.6222e+06
-1.58914e+06
-1.55447e+06
-1.51834e+06
-1.48069e+06
-1.4412e+06
-1.40007e+06
-1.35761e+06
-1.31387e+06
-1.26911e+06
-1.2231e+06
-1.17584e+06
-1.12795e+06
-1.07966e+06
-1.03096e+06
-982087
-932802
-883368
-834542
-786511
-739174
-692631
-646850
-602136
-559132
-517949
-478318
-440139
-403499
-368624
-335918
-305517
-277094
-250338
-225146
-201679
-180177
-160710
-143120
-127084
-112324
-98734.5
-86373
-75357.4
-65708.7
-57282.9
-49844.8
-43199.5
-37241.8
-31928.5
-27268.4
-23206.1
-19693.4
-16671.6
-14105.4
-11943.2
-10109.9
-8537.76
-7157.14
-6018.6
-5042.98
-3963.79
-3276.94
-2616.33
-2082.82
-1701.52
-1393.21
-1124.01
-846.463
-562.388
-358.182
-258.967
-380.398
-553.955
-467.431
-725.29
-716.345
-669.664
-629.429
-1530.91
-2631.93
-3647.55
-3977.91
2829.36
18897.5
10478.1
-3071.48
-7803.97
-3453.81
-2900.64
-3082.98
-3821.91
-3878
-2133.19
9006.69
12380.3
6393.33
-1654.96
-4686.09
-2346.35
-1778.51
-1604.9
-1290.91
-1409.56
-911.454
-1539.31
-1361.28
-2742.05
-4049.1
-5184.72
-5030.2
1908.83
14792.2
6167.11
-2402.69
-5873.85
6895
12337.9
5202.41
-10238.8
-6967.65
1606.59
10334.2
6919.72
1444.47
-14986.6
-9041.36
-6887.19
1645.65
10843.9
7837.86
5278.34
-14708.8
-9095.19
1172.32
11386.9
4666.58
-8755.94
-7631.15
-2859.69
4395.86
6024.86
3167.72
-3410.34
-5510.48
3506.84
6075.5
3042.88
-3085.02
-6249.07
-988.092
2231.9
2063.48
-3262.58
-3043.31
5370.59
4095.28
-695.14
-3463.39
1187.41
4173.82
2564.7
1581.25
-2018.09
-2154.63
1278.62
2368.94
1759.45
-12.1757
-4639.75
-1984.1
2092.55
3086.69
1966.9
-3949.33
-3691.04
1463.64
3053.88
911.058
-4036
-1933.53
2748.11
2196.6
-3467.92
-4181.18
320.062
2940.39
1015.55
-4800.84
-2141.59
1860.77
2445.32
693.024
-3592.78
-1725.44
2598
2524.33
1371.12
-2494.43
-665.925
2557.19
2139.53
1502.02
1294.07
-1261.21
-3165.11
-1277.04
2060.72
3430.02
3161.68
2426.65
-3534.66
-5300.42
-3186.9
-2196.7
-617.036
2414.09
2402.23
874.991
-3450.61
-1473.67
2140.04
2719.48
-1331.87
-3407.6
-97.5754
3838.33
2672.75
-4970.15
-3704.18
2097.54
4754.64
2588.24
-3317.85
-4925.11
-2258.26
4841.54
3726.39
2247.44
-3212.61
-4751.34
-1594.78
3519.43
4056.29
3248.97
234.654
-5679.4
-2854.17
-1623.17
-43.4817
1797.37
1213.62
-3619.85
-1527.81
3007.9
2890.04
-2434.31
-4571.78
2688.11
5535.67
3602.53
1810.52
-8333.49
-2448.87
7067.95
7004
3458.6
-4721.43
-6126.34
1348.16
4325.99
3058.63
1715.34
-8906.2
-4867.42
4173.05
5939.82
2789.28
-3891.74
-7099.92
-3263.52
4700.99
6717.97
2993.51
-7349.42
-6678.94
-2871.63
5073.21
5694.77
3552.43
-4680.04
-8422.12
-2880.01
3616.8
3314.21
1898.31
771.965
-2079.98
-509.745
2130.88
776.028
-276.846
-35.1212
469.234
-137.31
-377.771
466.734
-180.592
-619.142
775.036
-137.689
-1044.34
661.347
415.19
-1523.56
-5.64785
1050.44
-1447.68
-895.487
1629.18
534.922
-2574.17
309.869
2455.56
-499.861
-2887.57
1005.06
3284.71
1453.73
-5263.15
-847.978
4980.91
6941.05
-8770.41
-2958.77
3400.12
10895.9
-1156.58
-12149.6
3111.76
13948.1
1982.77
-18082.4
6797.32
20922.4
3710.75
-29793.7
1297.68
26933.2
28946.6
-46332.3
-10138.9
42591.7
42397.7
-69442.3
-14231.9
21848.6
85759
-40552.4
-69975.6
15700.5
100937
33141.3
-135439
-8236.75
61300.6
174260
-128746
-124518
44738.1
194883
71571.7
-269618
-25791.8
157017
297040
-276385
-115206
119253
413220
-242176
-328107
36189.4
452379
175309
-598344
-53399.8
204729
706731
-412410
-516281
94635
739071
182794
-872317
-71075
363169
1.04922e+06
-700767
-715661
51935.5
1.18239e+06
403169
-1.38455e+06
-307873
468806
1.55178e+06
-462268
-1.41752e+06
-120949
893553
1.71176e+06
-1.11518e+06
-1.23619e+06
-102157
1.58598e+06
1.17038e+06
-2.15903e+06
-711483
666807
2.19849e+06
-858441
-1.66576e+06
299918
1.93088e+06
-1.43262e+06
-387379
1.2925e+06
233740
-1.42089e+06
523451
1.72782e+06
-1.85534e+06
9340.87
1.30037e+06
-80853.4
-1.44347e+06
849236
1.39573e+06
-1.78854e+06
47276.7
1.3798e+06
-327573
-1.22731e+06
944883
930552
-1.61092e+06
63643.4
1.26752e+06
-416271
-937109
768242
589263
-1.1021e+06
105406
1.08976e+06
-499728
-692973
752995
361414
-954953
49078.7
743124
-236058
-451283
598639
199526
-618375
32005.6
613260
-417988
-278472
324499
130731
-385477
46898
394724
-318360
-113201
213245
32307.3
-248252
63751.2
206285
-244232
-37063.6
128313
11874.8
-143923
65552.6
85754.4
-126394
-9152.58
68209.2
-14851
-55642.9
31788.2
40651.8
-48551.4
-4511.74
44467.9
7563.61
-27656.4
27451.1
25726.2
-18127.4
15930.1
31807.8
8551.74
-12246
41383.9
13539.2
-6783.34
10536
29181.3
3933.53
)
;

boundaryField
{
    sides
    {
        type            calculated;
        value           nonuniform List<scalar> 2(3933.53 -2.66552e+06);
    }
    empty
    {
        type            empty;
    }
}


// ************************************************************************* //
