/*--------------------------------*- C++ -*----------------------------------*\
  =========                 |
  \\      /  F ield         | OpenFOAM: The Open Source CFD Toolbox
   \\    /   O peration     | Website:  https://openfoam.org
    \\  /    A nd           | Version:  9
     \\/     M anipulation  |
\*---------------------------------------------------------------------------*/
FoamFile
{
    format      ascii;
    class       surfaceScalarField;
    location    "0.023";
    object      phi_0;
}
// * * * * * * * * * * * * * * * * * * * * * * * * * * * * * * * * * * * * * //

dimensions      [1 0 -1 0 0 0 0];

internalField   nonuniform List<scalar> 
999
(
21.1577
22.1985
23.2391
24.2788
25.3169
26.354
27.3915
28.43
29.4699
30.5109
31.5522
32.5935
33.6349
34.6772
35.7201
36.7627
37.8051
38.8473
39.8893
40.9311
41.9728
43.0143
44.0557
45.0969
46.1379
47.1788
48.2196
49.2601
50.3005
51.3408
52.3809
53.4208
54.4606
55.5001
56.5396
57.5788
58.6179
59.6568
60.6956
61.7342
62.7726
63.8109
64.849
65.8869
66.9247
67.9622
68.9996
70.0369
71.0739
72.1108
73.1476
74.1841
75.2205
76.2567
77.2927
78.3285
79.3642
80.3997
81.435
82.4701
83.5051
84.5398
85.5744
86.6088
87.643
88.6771
89.711
90.7446
91.7782
92.8115
93.8446
94.8776
95.9103
96.9429
97.9753
99.0075
100.039
101.071
102.103
103.134
104.165
105.196
106.227
107.258
108.288
109.318
110.348
111.378
112.408
113.437
114.466
115.495
116.524
117.552
118.581
119.609
120.637
121.665
122.692
123.719
124.747
125.773
126.8
127.827
128.853
129.879
130.905
131.93
132.956
133.981
135.006
136.03
137.055
138.079
139.103
140.127
141.15
142.174
143.197
144.22
145.242
146.265
147.287
148.309
149.33
150.352
151.373
152.394
153.415
154.435
155.455
156.475
157.495
158.514
159.534
160.553
161.571
162.59
163.608
164.626
165.643
166.661
167.678
168.695
169.712
170.728
171.745
172.759
173.776
174.791
175.805
176.822
177.835
178.85
179.865
180.876
181.891
182.904
183.916
184.93
185.942
186.953
187.967
188.977
189.988
191
192.009
193.02
194.031
195.039
196.05
197.059
198.066
199.077
200.085
201.091
202.101
203.108
204.113
205.122
206.129
207.133
208.141
209.147
210.15
211.156
212.162
213.164
214.169
215.174
216.175
217.179
218.184
219.184
220.185
221.19
222.19
223.189
224.193
225.193
226.191
227.193
228.194
229.189
230.189
231.191
232.187
233.182
234.183
235.181
236.174
237.172
238.171
239.163
240.158
241.158
242.151
243.141
244.138
245.135
246.125
247.116
248.112
249.104
250.092
251.086
252.081
253.068
254.055
255.05
256.042
257.026
258.015
259.008
259.995
260.978
261.968
262.96
263.943
264.925
265.915
266.904
267.884
268.867
269.857
270.842
271.819
272.802
273.791
274.773
275.749
276.732
277.719
278.697
279.671
280.654
281.64
282.616
283.589
284.57
285.553
286.527
287.499
288.479
289.461
290.434
291.403
292.38
293.361
294.332
295.299
296.275
297.254
298.225
299.19
300.162
301.139
302.11
303.073
304.041
305.017
305.988
306.95
307.915
308.887
309.858
310.819
311.78
312.749
313.72
314.682
315.639
316.604
317.573
318.536
319.491
320.45
321.416
322.38
323.335
324.289
325.251
326.215
327.172
328.123
329.08
330.042
331
331.95
332.901
333.859
334.818
335.769
336.716
337.668
338.625
339.578
340.524
341.47
342.422
343.376
344.324
345.266
346.211
347.162
348.112
349.054
349.994
350.939
351.888
352.833
353.771
354.709
355.653
356.599
357.538
358.472
359.409
360.352
361.293
362.228
363.159
364.095
365.034
365.972
366.902
367.831
368.764
369.701
370.634
371.561
372.486
373.417
374.35
375.28
376.203
377.125
378.053
378.983
379.908
380.828
381.747
382.671
383.598
384.519
385.435
386.351
387.272
388.194
389.112
390.024
390.937
391.853
392.772
393.686
394.595
395.503
396.415
397.33
398.241
399.147
400.05
400.958
401.869
402.776
403.678
404.578
405.48
406.386
407.29
408.189
409.084
409.982
410.883
411.783
412.679
413.57
414.462
415.357
416.254
417.146
418.033
418.92
419.809
420.701
421.59
422.474
423.355
424.238
425.125
426.01
426.891
427.767
428.644
429.524
430.405
431.282
432.155
433.025
433.898
434.773
435.647
436.516
437.381
438.247
439.115
439.985
440.85
441.71
442.569
443.43
444.293
445.153
446.01
446.862
447.714
448.569
449.422
450.275
451.129
451.975
452.82
453.666
454.513
455.358
456.197
457.034
457.871
458.71
459.548
460.381
461.21
462.039
462.868
463.697
464.522
465.341
466.158
466.976
467.793
468.608
469.418
470.222
471.023
471.825
472.624
473.419
474.207
474.989
475.768
476.545
477.317
478.082
478.837
479.586
480.33
481.069
481.799
482.518
483.225
483.924
484.614
485.295
485.963
486.615
487.253
487.878
488.491
489.091
489.673
490.235
490.78
491.31
491.824
492.32
492.794
493.247
493.682
494.099
494.498
494.876
495.233
495.568
495.885
496.185
496.468
496.731
496.974
497.199
497.408
497.603
497.783
497.947
498.097
498.232
498.356
498.469
498.571
498.664
498.746
498.818
498.883
498.942
498.994
499.04
499.08
499.116
499.146
499.173
499.196
499.216
499.234
499.249
499.262
499.273
499.283
499.291
499.298
499.303
499.308
499.312
499.315
499.318
499.32
499.322
499.324
499.325
499.326
499.327
499.327
499.328
499.328
499.328
499.328
499.328
499.328
499.328
499.328
499.328
499.328
499.329
499.329
499.329
499.329
499.33
499.332
499.333
499.332
499.325
499.32
499.321
499.324
499.325
499.326
499.327
499.328
499.33
499.331
499.327
499.322
499.319
499.32
499.321
499.322
499.322
499.323
499.323
499.324
499.324
499.324
499.325
499.326
499.327
499.329
499.331
499.33
499.324
499.322
499.322
499.324
499.321
499.317
499.314
499.318
499.321
499.32
499.316
499.313
499.312
499.317
499.321
499.324
499.323
499.318
499.315
499.313
499.318
499.322
499.321
499.317
499.315
499.318
499.32
499.322
499.32
499.317
499.316
499.317
499.319
499.317
499.315
499.313
499.314
499.316
499.317
499.316
499.315
499.316
499.317
499.314
499.312
499.313
499.314
499.313
499.311
499.31
499.309
499.31
499.31
499.31
499.309
499.308
499.308
499.309
499.31
499.309
499.307
499.306
499.308
499.309
499.308
499.307
499.306
499.307
499.308
499.307
499.306
499.307
499.308
499.308
499.306
499.306
499.307
499.308
499.307
499.306
499.306
499.307
499.307
499.306
499.305
499.304
499.305
499.305
499.303
499.302
499.302
499.301
499.301
499.302
499.302
499.301
499.3
499.298
499.297
499.298
499.3
499.301
499.301
499.302
499.3
499.299
499.299
499.3
499.3
499.299
499.298
499.298
499.299
499.299
499.297
499.296
499.297
499.299
499.298
499.295
499.294
499.295
499.297
499.297
499.295
499.294
499.293
499.293
499.295
499.295
499.294
499.292
499.29
499.29
499.292
499.292
499.293
499.293
499.292
499.291
499.292
499.292
499.291
499.289
499.29
499.292
499.29
499.288
499.286
499.285
499.288
499.289
499.286
499.283
499.281
499.282
499.285
499.284
499.282
499.28
499.279
499.282
499.284
499.282
499.279
499.278
499.279
499.281
499.282
499.28
499.277
499.276
499.278
499.28
499.281
499.279
499.276
499.275
499.276
499.278
499.279
499.278
499.276
499.275
499.275
499.275
499.275
499.274
499.273
499.272
499.272
499.271
499.271
499.271
499.27
499.27
499.27
499.269
499.269
499.269
499.268
499.268
499.268
499.267
499.267
499.267
499.267
499.266
499.265
499.266
499.265
499.264
499.264
499.265
499.264
499.262
499.262
499.263
499.263
499.261
499.258
499.26
499.26
499.258
499.254
499.254
499.257
499.256
499.25
499.25
499.256
499.253
499.244
499.243
499.253
499.252
499.241
499.231
499.247
499.251
499.233
499.218
499.242
499.247
499.238
499.206
499.221
499.246
499.24
499.198
499.191
499.238
499.241
499.215
499.151
499.199
499.244
499.228
499.147
499.131
499.225
499.239
499.174
499.066
499.165
499.21
499.157
499.006
499.101
499.217
499.205
499.02
498.978
499.189
499.212
499.122
498.866
499.023
499.209
499.174
498.875
498.844
499.15
499.19
499.025
498.647
498.914
499.172
499.149
498.682
498.583
499.07
499.186
498.991
498.418
498.605
499.127
499.194
498.833
498.198
498.615
499.067
499.118
498.467
498.088
498.866
499.169
498.843
498.024
498.385
498.99
498.845
498.159
498.723
498.87
498.321
498.316
498.839
498.577
497.965
498.668
498.649
498.112
498.208
498.742
498.356
497.893
498.544
498.514
497.992
498.143
498.613
498.19
497.899
498.495
498.443
497.978
498.15
498.511
498.169
497.993
498.398
498.337
497.92
498.122
498.383
498.053
497.957
498.299
498.266
497.99
498.09
498.266
498.004
497.963
498.19
498.164
497.948
498.114
498.224
498.082
498.055
498.196
498.171
498.028
498.15
498.189
498.099
498.1
498.186
498.152
498.078
498.163
498.173
498.118
498.12
498.168
498.137
498.106
498.148
498.148
498.118
498.125
498.142
498.127
498.111
498.124
498.123
498.102
498.099
498.104
498.091
498.079
498.082
498.074
498.06
498.056
498.059
498.042
498.036
498.038
498.032
498.021
)
;

boundaryField
{
    sides
    {
        type            calculated;
        value           nonuniform List<scalar> 2(498.019 -20.1163);
    }
    empty
    {
        type            empty;
        value           nonuniform List<scalar> 0();
    }
}


// ************************************************************************* //
