/*--------------------------------*- C++ -*----------------------------------*\
  =========                 |
  \\      /  F ield         | OpenFOAM: The Open Source CFD Toolbox
   \\    /   O peration     | Website:  https://openfoam.org
    \\  /    A nd           | Version:  9
     \\/     M anipulation  |
\*---------------------------------------------------------------------------*/
FoamFile
{
    format      ascii;
    class       volScalarField;
    location    "0.023";
    object      T;
}
// * * * * * * * * * * * * * * * * * * * * * * * * * * * * * * * * * * * * * //

dimensions      [0 0 0 1 0 0 0];

internalField   nonuniform List<scalar> 
1000
(
252.555
252.583
252.632
252.678
252.734
252.798
252.858
252.903
252.93
252.942
252.945
252.945
252.943
252.937
252.921
252.905
252.889
252.873
252.858
252.843
252.828
252.813
252.797
252.782
252.767
252.752
252.737
252.722
252.707
252.692
252.676
252.661
252.646
252.631
252.616
252.6
252.585
252.57
252.554
252.539
252.524
252.508
252.493
252.478
252.462
252.447
252.431
252.416
252.4
252.385
252.369
252.354
252.338
252.323
252.307
252.291
252.276
252.26
252.245
252.229
252.213
252.198
252.182
252.166
252.15
252.135
252.119
252.103
252.087
252.071
252.055
252.04
252.024
252.008
251.992
251.976
251.96
251.944
251.928
251.912
251.896
251.88
251.864
251.848
251.831
251.815
251.799
251.783
251.767
251.751
251.735
251.718
251.702
251.686
251.67
251.653
251.637
251.621
251.604
251.588
251.571
251.555
251.539
251.522
251.506
251.489
251.473
251.456
251.439
251.423
251.406
251.39
251.373
251.356
251.34
251.323
251.306
251.29
251.273
251.256
251.239
251.222
251.206
251.189
251.172
251.154
251.139
251.12
251.106
251.085
251.073
251.05
251.039
251.016
251.005
250.982
250.971
250.948
250.936
250.914
250.901
250.881
250.864
250.849
250.827
250.815
250.793
250.778
250.763
250.74
250.728
250.708
250.689
250.677
250.653
250.639
250.623
250.6
250.588
250.569
250.547
250.536
250.514
250.496
250.483
250.459
250.444
250.429
250.405
250.391
250.375
250.351
250.338
250.321
250.297
250.285
250.267
250.243
250.231
250.213
250.189
250.176
250.159
250.135
250.121
250.105
250.081
250.066
250.05
250.026
250.01
249.996
249.971
249.953
249.941
249.919
249.896
249.884
249.865
249.841
249.827
249.81
249.785
249.77
249.756
249.731
249.71
249.699
249.679
249.654
249.639
249.624
249.599
249.581
249.568
249.545
249.521
249.509
249.493
249.466
249.447
249.435
249.413
249.389
249.375
249.359
249.333
249.312
249.301
249.282
249.254
249.237
249.225
249.201
249.177
249.164
249.148
249.121
249.099
249.088
249.069
249.042
249.023
249.011
248.988
248.962
248.946
248.934
248.91
248.883
248.868
248.854
248.829
248.804
248.792
248.776
248.749
248.725
248.712
248.696
248.669
248.646
248.633
248.616
248.589
248.565
248.552
248.536
248.509
248.485
248.472
248.456
248.429
248.403
248.389
248.375
248.35
248.323
248.307
248.293
248.27
248.242
248.223
248.21
248.189
248.162
248.141
248.127
248.109
248.082
248.058
248.043
248.027
248.002
247.976
247.958
247.944
247.922
247.895
247.874
247.86
247.842
247.815
247.791
247.775
247.759
247.735
247.709
247.689
247.674
247.654
247.628
247.604
247.587
247.571
247.547
247.521
247.501
247.485
247.466
247.44
247.416
247.398
247.382
247.36
247.334
247.312
247.295
247.278
247.254
247.228
247.208
247.192
247.172
247.147
247.123
247.104
247.088
247.067
247.041
247.018
247.001
246.984
246.961
246.936
246.914
246.897
246.879
246.856
246.831
246.811
246.794
246.776
246.752
246.728
246.708
246.691
246.672
246.649
246.625
246.605
246.589
246.57
246.546
246.523
246.504
246.487
246.468
246.445
246.422
246.403
246.387
246.368
246.346
246.323
246.304
246.288
246.27
246.249
246.226
246.207
246.191
246.175
246.154
246.132
246.113
246.097
246.081
246.062
246.041
246.022
246.006
245.991
245.974
245.954
245.935
245.919
245.905
245.89
245.871
245.852
245.837
245.824
245.811
245.794
245.777
245.761
245.749
245.738
245.724
245.708
245.693
245.682
245.672
245.661
245.648
245.635
245.624
245.616
245.609
245.598
245.587
245.577
245.571
245.567
245.561
245.553
245.545
245.541
245.539
245.537
245.534
245.529
245.528
245.529
245.531
245.532
245.534
245.535
245.537
245.543
245.549
245.557
245.565
245.572
245.581
245.593
245.607
245.62
245.633
245.647
245.665
245.685
245.705
245.724
245.744
245.767
245.793
245.82
245.847
245.874
245.903
245.935
245.969
246.004
246.038
246.073
246.11
246.15
246.192
246.234
246.274
246.316
246.361
246.407
246.455
246.501
246.547
246.594
246.643
246.694
246.744
246.792
246.84
246.889
246.939
246.99
247.039
247.085
247.131
247.178
247.225
247.271
247.315
247.356
247.397
247.438
247.478
247.516
247.552
247.585
247.617
247.649
247.68
247.709
247.735
247.759
247.782
247.804
247.826
247.845
247.862
247.877
247.892
247.906
247.919
247.931
247.941
247.95
247.958
247.966
247.973
247.979
247.985
247.989
247.993
247.997
248.001
248.004
248.007
248.009
248.011
248.013
248.014
248.016
248.017
248.018
248.019
248.02
248.021
248.022
248.023
248.023
248.024
248.024
248.025
248.025
248.026
248.026
248.026
248.027
248.027
248.027
248.028
248.028
248.028
248.028
248.029
248.029
248.029
248.03
248.03
248.03
248.03
248.031
248.031
248.031
248.032
248.032
248.031
248.031
248.031
248.032
248.032
248.032
248.033
248.033
248.033
248.034
248.033
248.033
248.033
248.033
248.034
248.034
248.034
248.034
248.034
248.035
248.035
248.035
248.035
248.035
248.036
248.036
248.036
248.036
248.036
248.036
248.036
248.036
248.036
248.036
248.036
248.036
248.036
248.037
248.036
248.036
248.036
248.037
248.037
248.038
248.038
248.037
248.037
248.037
248.037
248.038
248.038
248.038
248.038
248.038
248.038
248.039
248.039
248.038
248.038
248.039
248.039
248.039
248.039
248.039
248.039
248.039
248.039
248.039
248.039
248.04
248.04
248.04
248.04
248.04
248.04
248.04
248.04
248.04
248.04
248.04
248.04
248.04
248.04
248.04
248.041
248.041
248.041
248.041
248.041
248.041
248.041
248.041
248.042
248.042
248.042
248.042
248.042
248.042
248.042
248.042
248.043
248.043
248.043
248.043
248.043
248.043
248.043
248.043
248.043
248.044
248.044
248.044
248.044
248.044
248.044
248.044
248.044
248.044
248.044
248.044
248.045
248.045
248.045
248.045
248.045
248.045
248.045
248.045
248.046
248.046
248.046
248.046
248.046
248.046
248.046
248.047
248.047
248.047
248.047
248.047
248.047
248.048
248.048
248.048
248.048
248.048
248.048
248.048
248.048
248.048
248.049
248.049
248.049
248.049
248.049
248.049
248.05
248.05
248.05
248.05
248.05
248.05
248.05
248.051
248.051
248.051
248.051
248.051
248.052
248.052
248.052
248.052
248.052
248.052
248.053
248.052
248.052
248.053
248.053
248.053
248.053
248.053
248.053
248.053
248.054
248.054
248.054
248.054
248.054
248.054
248.055
248.055
248.055
248.055
248.055
248.056
248.056
248.056
248.056
248.056
248.056
248.057
248.057
248.057
248.057
248.057
248.057
248.058
248.058
248.058
248.058
248.058
248.058
248.059
248.059
248.059
248.059
248.059
248.06
248.06
248.06
248.06
248.06
248.061
248.061
248.061
248.061
248.061
248.062
248.062
248.062
248.062
248.062
248.063
248.063
248.063
248.063
248.064
248.064
248.064
248.064
248.064
248.065
248.065
248.065
248.066
248.066
248.066
248.067
248.067
248.068
248.069
248.069
248.069
248.07
248.071
248.071
248.071
248.073
248.073
248.074
248.074
248.076
248.077
248.078
248.077
248.08
248.082
248.083
248.082
248.086
248.089
248.091
248.09
248.092
248.098
248.1
248.1
248.1
248.109
248.113
248.116
248.113
248.119
248.131
248.135
248.134
248.135
248.15
248.159
248.16
248.156
248.17
248.183
248.19
248.184
248.198
248.223
248.233
248.228
248.228
248.264
248.279
248.288
248.277
248.298
248.34
248.352
248.343
248.344
248.399
248.421
248.432
248.413
248.447
248.507
248.524
248.509
248.504
248.574
248.621
248.633
248.61
248.627
248.72
248.75
248.753
248.721
248.776
248.853
248.901
248.892
248.858
248.951
249.029
249.057
249.009
249.042
249.146
249.178
249.145
249.201
249.258
249.249
249.261
249.341
249.371
249.338
249.415
249.462
249.452
249.466
249.554
249.566
249.537
249.617
249.658
249.637
249.654
249.735
249.738
249.714
249.789
249.822
249.807
249.823
249.89
249.891
249.875
249.932
249.958
249.946
249.96
250.013
250.01
250.005
250.05
250.07
250.058
250.064
250.099
250.092
250.088
250.115
250.127
250.115
250.127
250.149
250.146
250.143
250.16
250.168
250.161
250.172
250.184
250.182
250.184
250.197
250.202
250.199
250.209
250.216
250.216
250.218
250.227
250.228
250.227
250.234
250.237
250.237
250.239
250.244
250.245
250.245
250.248
250.251
250.251
250.252
250.256
250.256
250.257
250.258
250.259
250.259
250.259
250.26
250.259
250.259
250.259
250.26
250.259
)
;

boundaryField
{
    sides
    {
        type            zeroGradient;
    }
    empty
    {
        type            empty;
    }
}


// ************************************************************************* //
