/*--------------------------------*- C++ -*----------------------------------*\
  =========                 |
  \\      /  F ield         | OpenFOAM: The Open Source CFD Toolbox
   \\    /   O peration     | Website:  https://openfoam.org
    \\  /    A nd           | Version:  9
     \\/     M anipulation  |
\*---------------------------------------------------------------------------*/
FoamFile
{
    format      ascii;
    class       volScalarField;
    location    "0.031";
    object      mag(U);
}
// * * * * * * * * * * * * * * * * * * * * * * * * * * * * * * * * * * * * * //

dimensions      [0 1 -1 0 0 0 0];

internalField   nonuniform List<scalar> 
10000
(
2.09739
2.15161
2.21271
2.25015
2.28876
2.33004
2.37341
2.41742
2.46141
2.50355
2.54556
2.58787
2.6306
2.67357
2.7166
2.75943
2.8022
2.84499
2.88782
2.93068
2.97358
3.0165
3.05945
3.10241
3.14534
3.18827
3.23123
3.27421
3.31721
3.3602
3.40317
3.44613
3.48911
3.5321
3.57511
3.61811
3.66112
3.70412
3.74713
3.79015
3.83317
3.8762
3.91922
3.96224
4.00527
4.0483
4.09133
4.13436
4.17738
4.22041
4.26343
4.30645
4.34947
4.39248
4.43549
4.47849
4.52148
4.56448
4.60746
4.65044
4.69341
4.73637
4.77932
4.82226
4.8652
4.90813
4.95104
4.99395
5.03685
5.07973
5.12261
5.16548
5.20833
5.25118
5.29401
5.33684
5.37965
5.42245
5.46525
5.50803
5.55081
5.59358
5.63633
5.67908
5.72183
5.76456
5.80729
5.85001
5.89273
5.93544
5.97815
6.02086
6.06356
6.10626
6.14896
6.19166
6.23435
6.27706
6.31976
6.36246
6.40517
6.44789
6.49061
6.53333
6.57606
6.6188
6.66155
6.70431
6.74708
6.78985
6.83264
6.87544
6.91825
6.96108
7.00391
7.04676
7.08962
7.1325
7.17539
7.21829
7.26121
7.30414
7.34708
7.39004
7.43301
7.47599
7.51899
7.562
7.60502
7.64805
7.69109
7.73414
7.77721
7.82028
7.86336
7.90644
7.94954
7.99264
8.03574
8.07885
8.12197
8.16509
8.2082
8.25132
8.29445
8.33757
8.38069
8.4238
8.46692
8.51003
8.55314
8.59624
8.63933
8.68242
8.7255
8.76858
8.81164
8.85469
8.89774
8.94077
8.98379
9.0268
9.06979
9.11278
9.15575
9.1987
9.24164
9.28457
9.32748
9.37038
9.41326
9.45612
9.49897
9.5418
9.58462
9.62742
9.67021
9.71298
9.75574
9.79848
9.84121
9.88392
9.92663
9.96931
10.012
10.0547
10.0973
10.14
10.1826
10.2252
10.2678
10.3104
10.353
10.3956
10.4382
10.4808
10.5234
10.566
10.6086
10.6512
10.6938
10.7364
10.779
10.8216
10.8643
10.9069
10.9495
10.9922
11.0349
11.0775
11.1202
11.1629
11.2057
11.2484
11.2912
11.3339
11.3767
11.4195
11.4624
11.5052
11.5481
11.591
11.6339
11.6769
11.7198
11.7628
11.8058
11.8488
11.8919
11.9349
11.978
12.0211
12.0642
12.1073
12.1505
12.1937
12.2368
12.28
12.3232
12.3665
12.4097
12.4529
12.4962
12.5394
12.5827
12.6259
12.6692
12.7125
12.7558
12.799
12.8423
12.8856
12.9288
12.9721
13.0153
13.0586
13.1018
13.145
13.1882
13.2314
13.2746
13.3178
13.361
13.4041
13.4472
13.4903
13.5334
13.5765
13.6195
13.6625
13.7056
13.7485
13.7915
13.8344
13.8773
13.9202
13.9631
14.006
14.0488
14.0916
14.1344
14.1771
14.2198
14.2625
14.3052
14.3479
14.3905
14.4332
14.4758
14.5184
14.5609
14.6035
14.646
14.6885
14.7311
14.7736
14.8161
14.8585
14.901
14.9435
14.9859
15.0284
15.0709
15.1133
15.1558
15.1982
15.2407
15.2832
15.3257
15.3682
15.4107
15.4532
15.4957
15.5383
15.5809
15.6234
15.666
15.7087
15.7513
15.794
15.8367
15.8794
15.9222
15.965
16.0078
16.0506
16.0935
16.1364
16.1793
16.2223
16.2653
16.3083
16.3513
16.3944
16.4375
16.4806
16.5238
16.567
16.6102
16.6534
16.6967
16.74
16.7833
16.8266
16.8699
16.9133
16.9567
17.0001
17.0435
17.0869
17.1303
17.1737
17.2171
17.2606
17.304
17.3475
17.3909
17.4343
17.4778
17.5212
17.5646
17.608
17.6514
17.6948
17.7381
17.7815
17.8248
17.8681
17.9114
17.9547
17.9979
18.0411
18.0843
18.1275
18.1706
18.2137
18.2568
18.2999
18.3429
18.3859
18.4288
18.4718
18.5147
18.5575
18.6004
18.6431
18.6859
18.7286
18.7713
18.814
18.8567
18.8993
18.9419
18.9844
19.0269
19.0694
19.1119
19.1544
19.1968
19.2392
19.2816
19.324
19.3663
19.4087
19.451
19.4933
19.5356
19.578
19.6203
19.6626
19.7049
19.7472
19.7895
19.8318
19.8741
19.9164
19.9588
20.0011
20.0435
20.0859
20.1283
20.1707
20.2132
20.2557
20.2982
20.3407
20.3833
20.4259
20.4685
20.5112
20.5539
20.5967
20.6395
20.6823
20.7252
20.7681
20.811
20.854
20.897
20.9401
20.9832
21.0263
21.0695
21.1127
21.156
21.1992
21.2426
21.2859
21.3293
21.3727
21.4162
21.4596
21.5031
21.5467
21.5902
21.6338
21.6773
21.7209
21.7645
21.8081
21.8518
21.8954
21.939
21.9827
22.0263
22.0699
22.1135
22.1571
22.2007
22.2443
22.2879
22.3315
22.375
22.4185
22.462
22.5055
22.5489
22.5924
22.6358
22.6791
22.7224
22.7657
22.809
22.8522
22.8954
22.9385
22.9816
23.0247
23.0677
23.1107
23.1537
23.1966
23.2395
23.2823
23.3251
23.3678
23.4105
23.4532
23.4958
23.5384
23.581
23.6235
23.666
23.7084
23.7508
23.7932
23.8356
23.8779
23.9202
23.9625
24.0048
24.047
24.0892
24.1314
24.1736
24.2158
24.258
24.3002
24.3423
24.3845
24.4267
24.4688
24.511
24.5532
24.5954
24.6376
24.6798
24.722
24.7643
24.8066
24.8489
24.8912
24.9336
24.976
25.0184
25.0609
25.1034
25.1459
25.1885
25.2311
25.2738
25.3165
25.3592
25.402
25.4449
25.4878
25.5307
25.5737
25.6167
25.6598
25.7029
25.7461
25.7893
25.8326
25.8759
25.9192
25.9626
26.006
26.0495
26.093
26.1365
26.1801
26.2237
26.2673
26.3109
26.3546
26.3983
26.442
26.4857
26.5295
26.5732
26.617
26.6607
26.7045
26.7482
26.792
26.8357
26.8795
26.9232
26.9669
27.0106
27.0543
27.098
27.1416
27.1852
27.2288
27.2724
27.3159
27.3594
27.4029
27.4463
27.4897
27.533
27.5763
27.6196
27.6628
27.706
27.7492
27.7923
27.8353
27.8784
27.9213
27.9643
28.0071
28.05
28.0928
28.1355
28.1782
28.2209
28.2635
28.3061
28.3487
28.3912
28.4337
28.4761
28.5185
28.5609
28.6032
28.6455
28.6878
28.73
28.7723
28.8145
28.8567
28.8988
28.941
28.9831
29.0253
29.0674
29.1095
29.1516
29.1937
29.2359
29.278
29.3201
29.3622
29.4044
29.4466
29.4887
29.5309
29.5731
29.6154
29.6577
29.7
29.7423
29.7846
29.827
29.8695
29.9119
29.9544
29.997
30.0396
30.0822
30.1249
30.1676
30.2104
30.2532
30.2961
30.339
30.382
30.425
30.4681
30.5112
30.5543
30.5976
30.6408
30.6841
30.7275
30.7709
30.8143
30.8578
30.9013
30.9449
30.9885
31.0321
31.0757
31.1194
31.1631
31.2069
31.2506
31.2944
31.3382
31.382
31.4258
31.4696
31.5135
31.5573
31.6011
31.645
31.6888
31.7326
31.7764
31.8202
31.864
31.9078
31.9515
31.9952
32.0389
32.0826
32.1263
32.1699
32.2135
32.257
32.3005
32.344
32.3875
32.4309
32.4743
32.5176
32.5609
32.6041
32.6473
32.6905
32.7336
32.7767
32.8197
32.8627
32.9057
32.9486
32.9914
33.0342
33.077
33.1197
33.1624
33.2051
33.2477
33.2902
33.3327
33.3752
33.4177
33.4601
33.5024
33.5448
33.5871
33.6294
33.6716
33.7138
33.756
33.7982
33.8404
33.8825
33.9246
33.9667
34.0088
34.0509
34.093
34.135
34.1771
34.2192
34.2612
34.3033
34.3454
34.3875
34.4295
34.4716
34.5138
34.5559
34.5981
34.6402
34.6824
34.7247
34.7669
34.8092
34.8515
34.8939
34.9363
34.9787
35.0212
35.0637
35.1063
35.1489
35.1915
35.2342
35.277
35.3198
35.3626
35.4055
35.4485
35.4915
35.5345
35.5776
35.6208
35.664
35.7072
35.7505
35.7939
35.8373
35.8807
35.9242
35.9677
36.0113
36.0549
36.0986
36.1422
36.186
36.2297
36.2735
36.3173
36.3611
36.405
36.4488
36.4927
36.5366
36.5805
36.6244
36.6684
36.7123
36.7562
36.8001
36.8441
36.888
36.9319
36.9758
37.0197
37.0635
37.1074
37.1512
37.195
37.2388
37.2826
37.3263
37.37
37.4137
37.4573
37.5009
37.5445
37.588
37.6315
37.675
37.7184
37.7617
37.8051
37.8483
37.8916
37.9348
37.9779
38.021
38.064
38.107
38.15
38.1929
38.2357
38.2786
38.3213
38.364
38.4067
38.4493
38.4919
38.5344
38.5769
38.6193
38.6617
38.7041
38.7464
38.7887
38.8309
38.8731
38.9153
38.9574
38.9995
39.0416
39.0837
39.1257
39.1677
39.2097
39.2517
39.2936
39.3355
39.3775
39.4194
39.4613
39.5032
39.5451
39.5871
39.629
39.6709
39.7129
39.7548
39.7968
39.8388
39.8808
39.9228
39.9649
40.007
40.0491
40.0913
40.1335
40.1757
40.218
40.2603
40.3027
40.3451
40.3876
40.4302
40.4728
40.5154
40.5581
40.6009
40.6437
40.6866
40.7295
40.7725
40.8156
40.8587
40.9019
40.9452
40.9885
41.0319
41.0753
41.1188
41.1623
41.2059
41.2495
41.2932
41.337
41.3808
41.4246
41.4685
41.5124
41.5563
41.6003
41.6443
41.6883
41.7324
41.7765
41.8206
41.8647
41.9088
41.953
41.9971
42.0413
42.0854
42.1296
42.1737
42.2178
42.262
42.3061
42.3502
42.3942
42.4383
42.4823
42.5263
42.5703
42.6142
42.6581
42.7019
42.7458
42.7895
42.8333
42.877
42.9206
42.9642
43.0078
43.0513
43.0947
43.1381
43.1814
43.2247
43.268
43.3111
43.3542
43.3973
43.4403
43.4832
43.5261
43.5689
43.6116
43.6543
43.697
43.7395
43.7821
43.8245
43.8669
43.9093
43.9516
43.9938
44.036
44.0782
44.1203
44.1623
44.2044
44.2463
44.2883
44.3302
44.3721
44.4139
44.4557
44.4975
44.5393
44.581
44.6228
44.6645
44.7062
44.7479
44.7896
44.8313
44.873
44.9147
44.9564
44.9981
45.0399
45.0816
45.1234
45.1652
45.2071
45.2489
45.2908
45.3328
45.3748
45.4168
45.4589
45.501
45.5432
45.5854
45.6277
45.6701
45.7125
45.755
45.7976
45.8402
45.8829
45.9257
45.9685
46.0114
46.0544
46.0974
46.1406
46.1837
46.227
46.2703
46.3137
46.3572
46.4008
46.4444
46.488
46.5317
46.5755
46.6194
46.6632
46.7072
46.7512
46.7952
46.8393
46.8834
46.9276
46.9718
47.016
47.0602
47.1045
47.1488
47.1931
47.2375
47.2818
47.3261
47.3705
47.4148
47.4592
47.5035
47.5478
47.5922
47.6365
47.6807
47.725
47.7692
47.8134
47.8576
47.9017
47.9458
47.9898
48.0338
48.0778
48.1217
48.1656
48.2095
48.2532
48.297
48.3406
48.3843
48.4278
48.4713
48.5148
48.5582
48.6015
48.6447
48.6879
48.7311
48.7741
48.8171
48.8601
48.9029
48.9457
48.9885
49.0312
49.0738
49.1163
49.1588
49.2012
49.2436
49.2859
49.3281
49.3703
49.4125
49.4546
49.4966
49.5386
49.5805
49.6224
49.6643
49.7061
49.7479
49.7896
49.8313
49.873
49.9147
49.9563
49.9979
50.0395
50.0811
50.1227
50.1643
50.2059
50.2474
50.289
50.3306
50.3722
50.4138
50.4554
50.497
50.5386
50.5803
50.622
50.6637
50.7054
50.7472
50.789
50.8309
50.8728
50.9148
50.9568
50.9989
51.041
51.0832
51.1255
51.1679
51.2103
51.2527
51.2953
51.3379
51.3806
51.4234
51.4662
51.5091
51.5521
51.5952
51.6384
51.6816
51.7249
51.7683
51.8117
51.8552
51.8988
51.9425
51.9862
52.03
52.0738
52.1178
52.1617
52.2058
52.2498
52.294
52.3381
52.3824
52.4266
52.4709
52.5153
52.5596
52.604
52.6484
52.6929
52.7374
52.7818
52.8263
52.8708
52.9154
52.9599
53.0044
53.0489
53.0933
53.1378
53.1823
53.2267
53.2711
53.3155
53.3599
53.4042
53.4485
53.4928
53.537
53.5812
53.6253
53.6694
53.7134
53.7574
53.8014
53.8452
53.8891
53.9328
53.9766
54.0202
54.0638
54.1073
54.1508
54.1942
54.2375
54.2807
54.3239
54.367
54.4101
54.453
54.4959
54.5388
54.5815
54.6242
54.6668
54.7093
54.7518
54.7942
54.8365
54.8788
54.921
54.9631
55.0051
55.0472
55.0891
55.131
55.1728
55.2146
55.2563
55.298
55.3397
55.3813
55.4228
55.4643
55.5058
55.5473
55.5888
55.6302
55.6717
55.7131
55.7545
55.7959
55.8372
55.8786
55.92
55.9613
56.0027
56.0441
56.0855
56.1269
56.1683
56.2098
56.2512
56.2927
56.3342
56.3758
56.4174
56.459
56.5007
56.5424
56.5842
56.6261
56.668
56.71
56.7521
56.7943
56.8365
56.8788
56.9212
56.9636
57.0062
57.0488
57.0916
57.1344
57.1773
57.2203
57.2634
57.3065
57.3498
57.3932
57.4366
57.4801
57.5237
57.5674
57.6112
57.655
57.6989
57.7429
57.787
57.8311
57.8753
57.9195
57.9638
58.0082
58.0526
58.097
58.1415
58.186
58.2306
58.2752
58.3199
58.3645
58.4092
58.4539
58.4987
58.5434
58.5881
58.6329
58.6776
58.7224
58.7671
58.8118
58.8565
58.9012
58.9458
58.9904
59.035
59.0796
59.1241
59.1686
59.213
59.2574
59.3017
59.346
59.3903
59.4345
59.4786
59.5227
59.5667
59.6106
59.6545
59.6983
59.7421
59.7857
59.8293
59.8728
59.9163
59.9597
60.003
60.0462
60.0893
60.1324
60.1754
60.2183
60.2611
60.3038
60.3465
60.3891
60.4316
60.474
60.5163
60.5586
60.6008
60.6429
60.685
60.727
60.7689
60.8107
60.8525
60.8943
60.936
60.9776
61.0191
61.0607
61.1021
61.1436
61.185
61.2264
61.2677
61.309
61.3504
61.3916
61.4329
61.4741
61.5154
61.5566
61.5978
61.639
61.6802
61.7214
61.7626
61.8038
61.845
61.8862
61.9275
61.9688
62.0101
62.0514
62.0927
62.1341
62.1756
62.217
62.2584
62.3
62.3415
62.3832
62.4249
62.4666
62.5085
62.5504
62.5924
62.6345
62.6766
62.7189
62.7612
62.8036
62.8461
62.8887
62.9314
62.9742
63.0171
63.0601
63.1032
63.1464
63.1896
63.233
63.2765
63.32
63.3636
63.4074
63.4512
63.4951
63.539
63.5831
63.6272
63.6714
63.7157
63.76
63.8044
63.8489
63.8934
63.9379
63.9826
64.0272
64.0719
64.1167
64.1615
64.2063
64.2511
64.296
64.3409
64.3858
64.4307
64.4756
64.5205
64.5655
64.6104
64.6553
64.7002
64.7451
64.79
64.8349
64.8797
64.9245
64.9693
65.0141
65.0588
65.1035
65.1481
65.1927
65.2372
65.2817
65.3262
65.3706
65.4149
65.4592
65.5034
65.5475
65.5916
65.6356
65.6795
65.7233
65.7671
65.8108
65.8544
65.8979
65.9413
65.9847
66.028
66.0712
66.1143
66.1573
66.2002
66.2431
66.2858
66.3285
66.3711
66.4135
66.456
66.4983
66.5405
66.5827
66.6247
66.6667
66.7086
66.7505
66.7922
66.834
66.8756
66.9172
66.9587
67.0001
67.0415
67.0829
67.1242
67.1655
67.2067
67.248
67.2891
67.3303
67.3714
67.4125
67.4535
67.4946
67.5356
67.5766
67.6175
67.6585
67.6994
67.7404
67.7813
67.8223
67.8632
67.9041
67.9451
67.9861
68.0271
68.0681
68.1091
68.1502
68.1913
68.2325
68.2737
68.3149
68.3562
68.3975
68.4388
68.4802
68.5217
68.5632
68.6048
68.6465
68.6882
68.7301
68.772
68.814
68.856
68.8982
68.9405
68.9829
69.0253
69.0679
69.1106
69.1535
69.1964
69.2394
69.2826
69.3258
69.3692
69.4126
69.4562
69.4998
69.5436
69.5874
69.6314
69.6754
69.7195
69.7638
69.808
69.8524
69.8969
69.9414
69.986
70.0306
70.0754
70.1202
70.165
70.2099
70.2549
70.2999
70.3449
70.39
70.4351
70.4803
70.5255
70.5707
70.6159
70.6612
70.7065
70.7517
70.797
70.8423
70.8875
70.9328
70.978
71.0232
71.0684
71.1135
71.1586
71.2037
71.2487
71.2937
71.3387
71.3836
71.4284
71.4732
71.5179
71.5626
71.6071
71.6517
71.6961
71.7405
71.7848
71.829
71.8731
71.9172
71.9611
72.005
72.0488
72.0924
72.136
72.1795
72.2229
72.2661
72.3093
72.3523
72.3953
72.4381
72.4809
72.5235
72.566
72.6084
72.6507
72.693
72.7351
72.7771
72.819
72.8608
72.9025
72.9441
72.9857
73.0272
73.0686
73.1099
73.1512
73.1924
73.2336
73.2747
73.3157
73.3567
73.3976
73.4385
73.4794
73.5202
73.561
73.6017
73.6424
73.6831
73.7237
73.7643
73.8048
73.8454
73.8859
73.9264
73.9669
74.0074
74.0479
74.0884
74.1289
74.1694
74.2099
74.2504
74.2909
74.3315
74.3721
74.4127
74.4533
74.494
74.5347
74.5755
74.6163
74.6572
74.6981
74.7391
74.7801
74.8212
74.8624
74.9037
74.945
74.9864
75.0279
75.0695
75.1112
75.153
75.1949
75.2369
75.2791
75.3214
75.3639
75.4065
75.4493
75.4922
75.5352
75.5784
75.6217
75.6652
75.7088
75.7526
75.7965
75.8405
75.8847
75.9289
75.9733
76.0178
76.0624
76.1072
76.152
76.1969
76.2419
76.287
76.3322
76.3775
76.4228
76.4682
76.5136
76.5591
76.6046
76.6502
76.6958
76.7414
76.787
76.8327
76.8783
76.924
76.9696
77.0152
77.0607
77.1062
77.1517
77.1972
77.2426
77.2879
77.3332
77.3785
77.4236
77.4688
77.5138
77.5587
77.6036
77.6484
77.6931
77.7377
77.7822
77.8266
77.8709
77.9152
77.9593
78.0033
78.0472
78.0909
78.1346
78.1782
78.2216
78.265
78.3082
78.3513
78.3943
78.4372
78.48
78.5227
78.5652
78.6077
78.65
78.6923
78.7344
78.7764
78.8184
78.8602
78.902
78.9437
78.9854
79.027
79.0685
79.11
79.1514
79.1928
79.2342
79.2756
79.3168
79.3581
79.3992
79.4404
79.4815
79.5226
79.5637
79.6048
79.6459
79.6869
79.728
79.769
79.81
79.8511
79.8922
79.9332
79.9743
80.0154
80.0566
80.0977
80.139
80.1802
80.2215
80.2629
80.3043
80.3457
80.3872
80.4289
80.4706
80.5123
80.5541
80.596
80.638
80.6801
80.7222
80.7645
80.8069
80.8495
80.8922
80.9351
80.9781
81.0213
81.0647
81.1082
81.1518
81.1956
81.2395
81.2836
81.3278
81.3722
81.4166
81.4613
81.506
81.5509
81.5958
81.6409
81.6861
81.7313
81.7767
81.8221
81.8676
81.9132
81.9588
82.0045
82.0502
82.096
82.1417
82.1875
82.2333
82.2791
82.3248
82.3706
82.4163
82.462
82.5077
82.5533
82.5988
82.6444
82.6898
82.7352
82.7806
82.8258
82.871
82.9161
82.9612
83.0061
83.051
83.0958
83.1405
83.1851
83.2296
83.274
83.3183
83.3625
83.4066
83.4506
83.4945
83.5383
83.5819
83.6255
83.6689
83.7123
83.7556
83.7987
83.8418
83.8847
83.9276
83.9703
84.013
84.0555
84.098
84.1403
84.1826
84.2248
84.267
84.3091
84.3511
84.393
84.4349
84.4768
84.5186
84.5603
84.6021
84.6438
84.6854
84.7271
84.7687
84.8103
84.8519
84.8934
84.935
84.9765
85.018
85.0596
85.1011
85.1427
85.1842
85.2258
85.2674
85.3091
85.3508
85.3925
85.4342
85.476
85.5179
85.5597
85.6017
85.6437
85.6857
85.7279
85.77
85.8122
85.8546
85.8972
85.9398
85.9827
86.0256
86.0687
86.1119
86.1553
86.1987
86.2424
86.2861
86.33
86.374
86.4182
86.4625
86.5068
86.5513
86.596
86.6407
86.6855
86.7304
86.7754
86.8206
86.8657
86.911
86.9564
87.0018
87.0473
87.0928
87.1384
87.184
87.2297
87.2754
87.3211
87.3668
87.4126
87.4583
87.5041
87.5498
87.5955
87.6412
87.6869
87.7325
87.7781
87.8237
87.8692
87.9146
87.96
88.0053
88.0505
88.0957
88.1408
88.1858
88.2308
88.2756
88.3204
88.365
88.4096
88.4541
88.4984
88.5427
88.5868
88.6309
88.6748
88.7186
88.7623
88.8058
88.8493
88.8926
88.9358
88.9789
89.0219
89.0647
89.1074
89.15
89.1925
89.2349
89.2771
89.3193
89.3613
89.4033
89.4451
89.4868
89.5284
89.57
89.6114
89.6528
89.6941
89.7353
89.7765
89.8177
89.8589
89.9
89.9411
89.9821
90.0231
90.064
90.1049
90.1457
90.1865
90.2273
90.2681
90.3089
90.3496
90.3904
90.4311
90.4718
90.5126
90.5533
90.594
90.6348
90.6756
90.7163
90.7572
90.798
90.8389
90.8798
90.9207
90.9617
91.0028
91.0439
91.0851
91.1264
91.1677
91.2091
91.2506
91.2921
91.3336
91.3752
91.417
91.4588
91.5009
91.543
91.5854
91.6279
91.6705
91.7133
91.7563
91.7994
91.8427
91.8861
91.9297
91.9735
92.0174
92.0615
92.1057
92.15
92.1945
92.2391
92.2839
92.3287
92.3737
92.4188
92.464
92.5093
92.5546
92.6001
92.6456
92.6912
92.7369
92.7826
92.8284
92.8743
92.9202
92.9661
93.0121
93.0581
93.1041
93.1502
93.1963
93.2424
93.2885
93.3346
93.3807
93.4268
93.4729
93.5189
93.5649
93.6109
93.6569
93.7028
93.7486
93.7945
93.8402
93.8859
93.9315
93.977
94.0225
94.0679
94.1131
94.1583
94.2034
94.2484
94.2932
94.338
94.3826
94.4271
94.4715
94.5158
94.5599
94.6039
94.6477
94.6914
94.735
94.7785
94.8218
94.8649
94.908
94.9509
94.9937
95.0363
95.0788
95.1212
95.1634
95.2055
95.2475
95.2894
95.3312
95.3729
95.4144
95.4558
95.4972
95.5384
95.5796
95.6208
95.6618
95.7029
95.744
95.785
95.8259
95.8668
95.9076
95.9484
95.9891
96.0298
96.0705
96.1111
96.1517
96.1923
96.2328
96.2734
96.3139
96.3545
96.395
96.4355
96.4761
96.5166
96.5571
96.5977
96.6383
96.6789
96.7196
96.7603
96.801
96.8418
96.8826
96.9235
96.9645
97.0056
97.0467
97.0879
97.1291
97.1704
97.2117
97.2532
97.2947
97.3365
97.3784
97.4205
97.4628
97.5052
97.5479
97.5907
97.6338
97.677
97.7204
97.764
97.8078
97.8518
97.896
97.9404
97.9849
98.0295
98.0744
98.1193
98.1643
98.2095
98.2547
98.3
98.3454
98.3908
98.4363
98.4817
98.5272
98.5726
98.618
98.6633
98.7086
98.7538
98.799
98.8441
98.8891
98.934
98.9789
99.0237
99.0684
99.113
99.1576
99.2021
99.2465
99.2908
99.335
99.3792
99.4233
99.4674
99.5113
99.5552
99.5991
99.6429
99.6867
99.7304
99.7741
99.8178
99.8615
99.9051
99.9487
99.9923
100.036
100.08
100.123
100.167
100.21
100.254
100.298
100.341
100.385
100.429
100.472
100.516
100.56
100.604
100.648
100.691
100.735
100.779
100.823
100.867
100.911
100.954
100.998
101.042
101.086
101.13
101.173
101.217
101.26
101.304
101.347
101.391
101.434
101.478
101.521
101.564
101.607
101.65
101.693
101.736
101.778
101.821
101.864
101.906
101.949
101.991
102.033
102.075
102.117
102.159
102.201
102.243
102.285
102.326
102.368
102.41
102.451
102.492
102.534
102.575
102.616
102.657
102.698
102.739
102.78
102.821
102.862
102.903
102.944
102.985
103.026
103.067
103.108
103.149
103.19
103.231
103.271
103.312
103.353
103.394
103.435
103.476
103.517
103.558
103.6
103.641
103.682
103.723
103.765
103.807
103.849
103.891
103.933
103.975
104.018
104.061
104.104
104.147
104.191
104.234
104.278
104.323
104.367
104.412
104.457
104.502
104.548
104.593
104.639
104.685
104.731
104.778
104.824
104.871
104.917
104.964
105.011
105.057
105.104
105.151
105.197
105.244
105.291
105.337
105.383
105.43
105.476
105.522
105.568
105.614
105.659
105.705
105.75
105.796
105.841
105.886
105.93
105.975
106.02
106.064
106.108
106.152
106.196
106.24
106.283
106.327
106.37
106.413
106.456
106.499
106.542
106.584
106.627
106.669
106.711
106.753
106.795
106.837
106.879
106.921
106.962
107.004
107.045
107.087
107.128
107.17
107.211
107.252
107.294
107.335
107.376
107.417
107.459
107.5
107.541
107.583
107.624
107.666
107.708
107.75
107.792
107.834
107.876
107.918
107.96
108.003
108.046
108.088
108.131
108.174
108.218
108.261
108.304
108.348
108.391
108.435
108.479
108.522
108.566
108.61
108.654
108.697
108.741
108.785
108.828
108.872
108.916
108.959
109.002
109.046
109.089
109.132
109.175
109.218
109.261
109.304
109.347
109.389
109.432
109.474
109.517
109.559
109.601
109.643
109.685
109.727
109.769
109.81
109.852
109.894
109.935
109.976
110.018
110.059
110.1
110.141
110.183
110.224
110.265
110.306
110.347
110.388
110.429
110.47
110.511
110.552
110.594
110.635
110.676
110.718
110.759
110.801
110.843
110.885
110.927
110.97
111.012
111.055
111.098
111.141
111.184
111.228
111.272
111.316
111.36
111.404
111.449
111.494
111.539
111.584
111.629
111.674
111.719
111.764
111.81
111.855
111.901
111.946
111.991
112.037
112.082
112.127
112.172
112.217
112.262
112.306
112.351
112.395
112.44
112.484
112.528
112.572
112.616
112.66
112.703
112.747
112.79
112.833
112.876
112.919
112.962
113.004
113.047
113.089
113.131
113.173
113.215
113.257
113.299
113.341
113.382
113.423
113.465
113.506
113.547
113.588
113.629
113.67
113.711
113.752
113.793
113.834
113.875
113.916
113.957
113.998
114.039
114.08
114.121
114.162
114.204
114.245
114.287
114.329
114.371
114.413
114.456
114.498
114.541
114.584
114.628
114.671
114.714
114.758
114.802
114.846
114.89
114.935
114.979
115.023
115.068
115.112
115.157
115.201
115.245
115.29
115.334
115.378
115.422
115.466
115.51
115.554
115.597
115.641
115.685
115.728
115.771
115.814
115.857
115.9
115.943
115.986
116.029
116.071
116.114
116.156
116.199
116.241
116.283
116.325
116.368
116.41
116.452
116.494
116.536
116.578
116.62
116.662
116.703
116.745
116.787
116.829
116.871
116.912
116.954
116.996
117.037
117.079
117.12
117.162
117.203
117.245
117.286
117.328
117.369
117.411
117.452
117.493
117.535
117.576
117.617
117.659
117.7
117.742
117.783
117.825
117.866
117.908
117.95
117.992
118.034
118.076
118.118
118.16
118.202
118.245
118.288
118.33
118.373
118.416
118.46
118.503
118.546
118.59
118.633
118.677
118.721
118.764
118.808
118.852
118.896
118.94
118.983
119.027
119.071
119.115
119.158
119.202
119.246
119.289
119.333
119.376
119.42
119.463
119.507
119.55
119.594
119.637
119.681
119.724
119.768
119.811
119.855
119.898
119.942
119.985
120.029
120.072
120.116
120.159
120.203
120.246
120.29
120.333
120.377
120.42
120.464
120.507
120.551
120.594
120.637
120.681
120.724
120.767
120.81
120.853
120.896
120.939
120.982
121.025
121.068
121.11
121.153
121.195
121.238
121.28
121.322
121.365
121.407
121.449
121.491
121.533
121.575
121.617
121.658
121.7
121.742
121.784
121.825
121.867
121.909
121.95
121.992
122.034
122.076
122.118
122.16
122.202
122.244
122.286
122.328
122.371
122.413
122.456
122.499
122.542
122.585
122.628
122.672
122.715
122.759
122.803
122.847
122.891
122.935
122.979
123.023
123.067
123.112
123.156
123.201
123.245
123.289
123.334
123.378
123.423
123.467
123.511
123.555
123.6
123.644
123.688
123.732
123.776
123.82
123.864
123.907
123.951
123.995
124.038
124.082
124.125
124.168
124.212
124.255
124.298
124.341
124.384
124.427
124.469
124.512
124.555
124.597
124.639
124.682
124.724
124.766
124.808
124.85
124.892
124.934
124.976
125.017
125.059
125.101
125.142
125.183
125.225
125.266
125.307
125.349
125.39
125.431
125.472
125.514
125.555
125.596
125.637
125.678
125.719
125.761
125.802
125.843
125.885
125.926
125.967
126.009
126.051
126.092
126.134
126.176
126.218
126.261
126.303
126.346
126.388
126.431
126.474
126.517
126.561
126.604
126.648
126.692
126.736
126.78
126.824
126.868
126.913
126.957
127.002
127.046
127.091
127.136
127.18
127.225
127.269
127.314
127.358
127.403
127.447
127.491
127.535
127.579
127.623
127.667
127.711
127.754
127.798
127.841
127.885
127.928
127.971
128.015
128.058
128.101
128.145
128.188
128.231
128.274
128.318
128.361
128.404
128.448
128.491
128.535
128.579
128.623
128.667
128.711
128.755
128.8
128.844
128.889
128.934
128.979
129.024
129.069
129.114
129.159
129.204
129.249
129.293
129.338
129.383
129.428
129.472
129.517
129.561
129.605
129.649
129.693
129.737
129.781
129.824
129.867
129.911
129.954
129.997
130.039
130.082
130.124
130.167
130.209
130.251
130.293
130.335
130.377
130.418
130.46
130.501
130.543
130.584
130.626
130.667
130.708
130.749
130.79
130.832
130.873
130.914
130.955
130.996
131.038
131.079
131.12
131.162
131.203
131.245
131.287
131.328
131.37
131.413
131.455
131.497
131.54
131.582
131.625
131.668
131.712
131.755
131.798
131.842
131.886
131.93
131.974
132.018
132.062
132.106
132.151
132.195
132.24
132.284
132.329
132.374
132.418
132.463
132.508
132.552
132.597
132.642
132.686
132.731
132.775
132.819
132.864
132.908
132.952
132.996
133.039
133.083
133.126
133.17
133.213
133.256
133.299
133.342
133.384
133.427
133.469
133.512
133.554
133.596
133.638
133.68
133.722
133.764
133.805
133.847
133.889
133.931
133.972
134.014
134.056
134.097
134.139
134.181
134.223
134.265
134.308
134.35
134.393
134.436
134.479
134.522
134.566
134.61
134.654
134.698
134.743
134.788
134.833
134.879
134.924
134.97
135.016
135.061
135.107
135.153
135.198
135.244
135.289
135.334
135.379
135.423
135.468
135.512
135.556
135.6
135.644
135.687
135.73
135.773
135.816
135.859
135.901
135.944
135.986
136.028
136.07
136.112
136.154
136.195
136.237
136.279
136.321
136.362
136.404
136.446
136.488
136.53
136.572
136.614
136.657
136.7
136.743
136.786
136.83
136.874
136.918
136.962
137.007
137.052
137.097
137.143
137.188
137.233
137.279
137.325
137.37
137.416
137.461
137.506
137.551
137.596
137.641
137.686
137.73
137.775
137.819
137.863
137.907
137.951
137.994
138.038
138.081
138.125
138.168
138.211
138.254
138.297
138.339
138.382
138.424
138.467
138.509
138.552
138.594
138.637
138.679
138.721
138.764
138.806
138.848
138.891
138.933
138.975
139.018
139.06
139.103
139.146
139.189
139.232
139.275
139.318
139.361
139.405
139.448
139.492
139.536
139.58
139.623
139.667
139.711
139.755
139.799
139.843
139.887
139.931
139.975
140.019
140.062
140.106
140.15
140.193
140.237
140.281
140.324
140.368
140.411
140.454
140.498
140.541
140.584
140.628
140.671
140.715
140.758
140.801
140.845
140.888
140.932
140.975
141.019
141.062
141.106
141.15
141.194
141.237
141.281
141.325
141.369
141.413
141.457
141.5
141.544
141.588
141.631
141.675
141.719
141.762
141.806
141.849
141.893
141.936
141.98
142.023
142.067
142.11
142.154
142.197
142.241
142.284
142.328
142.371
142.415
142.458
142.502
142.545
142.589
142.632
142.675
142.718
142.761
142.804
142.847
142.89
142.933
142.976
143.018
143.061
143.103
143.146
143.188
143.231
143.273
143.315
143.357
143.399
143.441
143.484
143.526
143.568
143.61
143.652
143.694
143.737
143.779
143.821
143.864
143.907
143.949
143.992
144.036
144.079
144.122
144.166
144.21
144.253
144.297
144.341
144.385
144.429
144.472
144.516
144.56
144.603
144.646
144.69
144.733
144.776
144.819
144.862
144.904
144.947
144.989
145.032
145.074
145.116
145.158
145.201
145.243
145.285
145.327
145.369
145.411
145.453
145.495
145.537
145.58
145.622
145.665
145.707
145.75
145.793
145.837
145.88
145.924
145.968
146.012
146.057
146.101
146.146
146.191
146.235
146.28
146.324
146.369
146.413
146.457
146.501
146.545
146.588
146.631
146.675
146.718
146.76
146.803
146.845
146.887
146.929
146.971
147.013
147.055
147.096
147.138
147.179
147.221
147.262
147.303
147.345
147.386
147.427
147.469
147.51
147.551
147.593
147.635
147.677
147.719
147.761
147.803
147.846
147.889
147.932
147.976
148.019
148.063
148.108
148.152
148.197
148.242
148.287
148.332
148.376
148.421
148.466
148.511
148.555
148.599
148.644
148.687
148.731
148.775
148.818
148.861
148.904
148.947
148.989
149.031
149.073
149.115
149.157
149.199
149.24
149.281
149.323
149.364
149.405
149.446
149.486
149.527
149.568
149.608
149.649
149.69
149.73
149.771
149.811
149.852
149.892
149.933
149.973
150.014
150.054
150.095
150.136
150.177
150.218
150.259
150.3
150.341
150.382
150.424
150.465
150.506
150.548
150.59
150.631
150.673
150.715
150.757
150.799
150.841
150.883
150.926
150.968
151.01
151.052
151.095
151.137
151.18
151.222
151.264
151.307
151.349
151.392
151.434
151.477
151.519
151.562
151.604
151.647
151.689
151.732
151.775
151.817
151.86
151.903
151.945
151.988
152.03
152.073
152.115
152.157
152.2
152.242
152.284
152.326
152.368
152.41
152.452
152.494
152.536
152.577
152.619
152.661
152.702
152.744
152.786
152.827
152.869
152.911
152.952
152.994
153.036
153.078
153.12
153.162
153.204
153.246
153.288
153.33
153.372
153.414
153.456
153.498
153.54
153.581
153.623
153.664
153.706
153.747
153.788
153.829
153.87
153.911
153.952
153.993
154.034
154.075
154.116
154.157
154.199
154.24
154.281
154.323
154.364
154.406
154.448
154.49
154.532
154.574
154.616
154.658
154.7
154.742
154.784
154.826
154.867
154.909
154.95
154.992
155.033
155.074
155.116
155.157
155.198
155.239
155.28
155.321
155.362
155.403
155.444
155.485
155.526
155.567
155.608
155.649
155.69
155.731
155.772
155.813
155.854
155.895
155.935
155.976
156.017
156.058
156.099
156.14
156.18
156.221
156.262
156.303
156.344
156.385
156.426
156.467
156.508
156.549
156.591
156.632
156.674
156.716
156.758
156.8
156.842
156.885
156.927
156.97
157.013
157.057
157.1
157.144
157.188
157.231
157.275
157.319
157.362
157.405
157.448
157.49
157.532
157.574
157.615
157.656
157.696
157.737
157.777
157.817
157.858
157.898
157.938
157.978
158.018
158.057
158.097
158.137
158.176
158.216
158.255
158.295
158.335
158.375
158.415
158.455
158.496
158.536
158.576
158.617
158.657
158.698
158.738
158.779
158.82
158.861
158.902
158.943
158.984
159.025
159.067
159.108
159.149
159.19
159.231
159.272
159.313
159.354
159.396
159.437
159.478
159.519
159.56
159.602
159.643
159.685
159.726
159.768
159.809
159.851
159.892
159.934
159.975
160.017
160.058
160.1
160.141
160.182
160.223
160.264
160.305
160.346
160.387
160.428
160.468
160.509
160.549
160.589
160.63
160.67
160.71
160.749
160.787
160.824
160.86
160.897
160.933
160.969
161.004
161.039
161.074
161.11
161.146
161.182
161.22
161.258
161.297
161.337
161.377
161.417
161.458
161.499
161.54
161.583