/*--------------------------------*- C++ -*----------------------------------*\
  =========                 |
  \\      /  F ield         | OpenFOAM: The Open Source CFD Toolbox
   \\    /   O peration     | Website:  https://openfoam.org
    \\  /    A nd           | Version:  9
     \\/     M anipulation  |
\*---------------------------------------------------------------------------*/
FoamFile
{
    format      ascii;
    class       volVectorField;
    location    "0.031";
    object      U;
}
// * * * * * * * * * * * * * * * * * * * * * * * * * * * * * * * * * * * * * //

dimensions      [0 1 -1 0 0 0 0];

internalField   nonuniform List<vector> 
10000
(
(2.09739 0 0)
(2.15161 0 0)
(2.21271 0 0)
(2.25015 0 0)
(2.28876 0 0)
(2.33004 0 0)
(2.37341 0 0)
(2.41742 0 0)
(2.46141 0 0)
(2.50355 0 0)
(2.54556 0 0)
(2.58787 0 0)
(2.6306 0 0)
(2.67357 0 0)
(2.7166 0 0)
(2.75943 0 0)
(2.8022 0 0)
(2.84499 0 0)
(2.88782 0 0)
(2.93068 0 0)
(2.97358 0 0)
(3.0165 0 0)
(3.05945 0 0)
(3.10241 0 0)
(3.14534 0 0)
(3.18827 0 0)
(3.23123 0 0)
(3.27421 0 0)
(3.31721 0 0)
(3.3602 0 0)
(3.40317 0 0)
(3.44613 0 0)
(3.48911 0 0)
(3.5321 0 0)
(3.57511 0 0)
(3.61811 0 0)
(3.66112 0 0)
(3.70412 0 0)
(3.74713 0 0)
(3.79015 0 0)
(3.83317 0 0)
(3.8762 0 0)
(3.91922 0 0)
(3.96224 0 0)
(4.00527 0 0)
(4.0483 0 0)
(4.09133 0 0)
(4.13436 0 0)
(4.17738 0 0)
(4.22041 0 0)
(4.26343 0 0)
(4.30645 0 0)
(4.34947 0 0)
(4.39248 0 0)
(4.43549 0 0)
(4.47849 0 0)
(4.52148 0 0)
(4.56448 0 0)
(4.60746 0 0)
(4.65044 0 0)
(4.69341 0 0)
(4.73637 0 0)
(4.77932 0 0)
(4.82226 0 0)
(4.8652 0 0)
(4.90813 0 0)
(4.95104 0 0)
(4.99395 0 0)
(5.03685 0 0)
(5.07973 0 0)
(5.12261 0 0)
(5.16548 0 0)
(5.20833 0 0)
(5.25118 0 0)
(5.29401 0 0)
(5.33684 0 0)
(5.37965 0 0)
(5.42245 0 0)
(5.46525 0 0)
(5.50803 0 0)
(5.55081 0 0)
(5.59358 0 0)
(5.63633 0 0)
(5.67908 0 0)
(5.72183 0 0)
(5.76456 0 0)
(5.80729 0 0)
(5.85001 0 0)
(5.89273 0 0)
(5.93544 0 0)
(5.97815 0 0)
(6.02086 0 0)
(6.06356 0 0)
(6.10626 0 0)
(6.14896 0 0)
(6.19166 0 0)
(6.23435 0 0)
(6.27706 0 0)
(6.31976 0 0)
(6.36246 0 0)
(6.40517 0 0)
(6.44789 0 0)
(6.49061 0 0)
(6.53333 0 0)
(6.57606 0 0)
(6.6188 0 0)
(6.66155 0 0)
(6.70431 0 0)
(6.74708 0 0)
(6.78985 0 0)
(6.83264 0 0)
(6.87544 0 0)
(6.91825 0 0)
(6.96108 0 0)
(7.00391 0 0)
(7.04676 0 0)
(7.08962 0 0)
(7.1325 0 0)
(7.17539 0 0)
(7.21829 0 0)
(7.26121 0 0)
(7.30414 0 0)
(7.34708 0 0)
(7.39004 0 0)
(7.43301 0 0)
(7.47599 0 0)
(7.51899 0 0)
(7.562 0 0)
(7.60502 0 0)
(7.64805 0 0)
(7.69109 0 0)
(7.73414 0 0)
(7.77721 0 0)
(7.82028 0 0)
(7.86336 0 0)
(7.90644 0 0)
(7.94954 0 0)
(7.99264 0 0)
(8.03574 0 0)
(8.07885 0 0)
(8.12197 0 0)
(8.16509 0 0)
(8.2082 0 0)
(8.25132 0 0)
(8.29445 0 0)
(8.33757 0 0)
(8.38069 0 0)
(8.4238 0 0)
(8.46692 0 0)
(8.51003 0 0)
(8.55314 0 0)
(8.59624 0 0)
(8.63933 0 0)
(8.68242 0 0)
(8.7255 0 0)
(8.76858 0 0)
(8.81164 0 0)
(8.85469 0 0)
(8.89774 0 0)
(8.94077 0 0)
(8.98379 0 0)
(9.0268 0 0)
(9.06979 0 0)
(9.11278 0 0)
(9.15575 0 0)
(9.1987 0 0)
(9.24164 0 0)
(9.28457 0 0)
(9.32748 0 0)
(9.37038 0 0)
(9.41326 0 0)
(9.45612 0 0)
(9.49897 0 0)
(9.5418 0 0)
(9.58462 0 0)
(9.62742 0 0)
(9.67021 0 0)
(9.71298 0 0)
(9.75574 0 0)
(9.79848 0 0)
(9.84121 0 0)
(9.88392 0 0)
(9.92663 0 0)
(9.96931 0 0)
(10.012 0 0)
(10.0547 0 0)
(10.0973 0 0)
(10.14 0 0)
(10.1826 0 0)
(10.2252 0 0)
(10.2678 0 0)
(10.3104 0 0)
(10.353 0 0)
(10.3956 0 0)
(10.4382 0 0)
(10.4808 0 0)
(10.5234 0 0)
(10.566 0 0)
(10.6086 0 0)
(10.6512 0 0)
(10.6938 0 0)
(10.7364 0 0)
(10.779 0 0)
(10.8216 0 0)
(10.8643 0 0)
(10.9069 0 0)
(10.9495 0 0)
(10.9922 0 0)
(11.0349 0 0)
(11.0775 0 0)
(11.1202 0 0)
(11.1629 0 0)
(11.2057 0 0)
(11.2484 0 0)
(11.2912 0 0)
(11.3339 0 0)
(11.3767 0 0)
(11.4195 0 0)
(11.4624 0 0)
(11.5052 0 0)
(11.5481 0 0)
(11.591 0 0)
(11.6339 0 0)
(11.6769 0 0)
(11.7198 0 0)
(11.7628 0 0)
(11.8058 0 0)
(11.8488 0 0)
(11.8919 0 0)
(11.9349 0 0)
(11.978 0 0)
(12.0211 0 0)
(12.0642 0 0)
(12.1073 0 0)
(12.1505 0 0)
(12.1937 0 0)
(12.2368 0 0)
(12.28 0 0)
(12.3232 0 0)
(12.3665 0 0)
(12.4097 0 0)
(12.4529 0 0)
(12.4962 0 0)
(12.5394 0 0)
(12.5827 0 0)
(12.6259 0 0)
(12.6692 0 0)
(12.7125 0 0)
(12.7558 0 0)
(12.799 0 0)
(12.8423 0 0)
(12.8856 0 0)
(12.9288 0 0)
(12.9721 0 0)
(13.0153 0 0)
(13.0586 0 0)
(13.1018 0 0)
(13.145 0 0)
(13.1882 0 0)
(13.2314 0 0)
(13.2746 0 0)
(13.3178 0 0)
(13.361 0 0)
(13.4041 0 0)
(13.4472 0 0)
(13.4903 0 0)
(13.5334 0 0)
(13.5765 0 0)
(13.6195 0 0)
(13.6625 0 0)
(13.7056 0 0)
(13.7485 0 0)
(13.7915 0 0)
(13.8344 0 0)
(13.8773 0 0)
(13.9202 0 0)
(13.9631 0 0)
(14.006 0 0)
(14.0488 0 0)
(14.0916 0 0)
(14.1344 0 0)
(14.1771 0 0)
(14.2198 0 0)
(14.2625 0 0)
(14.3052 0 0)
(14.3479 0 0)
(14.3905 0 0)
(14.4332 0 0)
(14.4758 0 0)
(14.5184 0 0)
(14.5609 0 0)
(14.6035 0 0)
(14.646 0 0)
(14.6885 0 0)
(14.7311 0 0)
(14.7736 0 0)
(14.8161 0 0)
(14.8585 0 0)
(14.901 0 0)
(14.9435 0 0)
(14.9859 0 0)
(15.0284 0 0)
(15.0709 0 0)
(15.1133 0 0)
(15.1558 0 0)
(15.1982 0 0)
(15.2407 0 0)
(15.2832 0 0)
(15.3257 0 0)
(15.3682 0 0)
(15.4107 0 0)
(15.4532 0 0)
(15.4957 0 0)
(15.5383 0 0)
(15.5809 0 0)
(15.6234 0 0)
(15.666 0 0)
(15.7087 0 0)
(15.7513 0 0)
(15.794 0 0)
(15.8367 0 0)
(15.8794 0 0)
(15.9222 0 0)
(15.965 0 0)
(16.0078 0 0)
(16.0506 0 0)
(16.0935 0 0)
(16.1364 0 0)
(16.1793 0 0)
(16.2223 0 0)
(16.2653 0 0)
(16.3083 0 0)
(16.3513 0 0)
(16.3944 0 0)
(16.4375 0 0)
(16.4806 0 0)
(16.5238 0 0)
(16.567 0 0)
(16.6102 0 0)
(16.6534 0 0)
(16.6967 0 0)
(16.74 0 0)
(16.7833 0 0)
(16.8266 0 0)
(16.8699 0 0)
(16.9133 0 0)
(16.9567 0 0)
(17.0001 0 0)
(17.0435 0 0)
(17.0869 0 0)
(17.1303 0 0)
(17.1737 0 0)
(17.2171 0 0)
(17.2606 0 0)
(17.304 0 0)
(17.3475 0 0)
(17.3909 0 0)
(17.4343 0 0)
(17.4778 0 0)
(17.5212 0 0)
(17.5646 0 0)
(17.608 0 0)
(17.6514 0 0)
(17.6948 0 0)
(17.7381 0 0)
(17.7815 0 0)
(17.8248 0 0)
(17.8681 0 0)
(17.9114 0 0)
(17.9547 0 0)
(17.9979 0 0)
(18.0411 0 0)
(18.0843 0 0)
(18.1275 0 0)
(18.1706 0 0)
(18.2137 0 0)
(18.2568 0 0)
(18.2999 0 0)
(18.3429 0 0)
(18.3859 0 0)
(18.4288 0 0)
(18.4718 0 0)
(18.5147 0 0)
(18.5575 0 0)
(18.6004 0 0)
(18.6431 0 0)
(18.6859 0 0)
(18.7286 0 0)
(18.7713 0 0)
(18.814 0 0)
(18.8567 0 0)
(18.8993 0 0)
(18.9419 0 0)
(18.9844 0 0)
(19.0269 0 0)
(19.0694 0 0)
(19.1119 0 0)
(19.1544 0 0)
(19.1968 0 0)
(19.2392 0 0)
(19.2816 0 0)
(19.324 0 0)
(19.3663 0 0)
(19.4087 0 0)
(19.451 0 0)
(19.4933 0 0)
(19.5356 0 0)
(19.578 0 0)
(19.6203 0 0)
(19.6626 0 0)
(19.7049 0 0)
(19.7472 0 0)
(19.7895 0 0)
(19.8318 0 0)
(19.8741 0 0)
(19.9164 0 0)
(19.9588 0 0)
(20.0011 0 0)
(20.0435 0 0)
(20.0859 0 0)
(20.1283 0 0)
(20.1707 0 0)
(20.2132 0 0)
(20.2557 0 0)
(20.2982 0 0)
(20.3407 0 0)
(20.3833 0 0)
(20.4259 0 0)
(20.4685 0 0)
(20.5112 0 0)
(20.5539 0 0)
(20.5967 0 0)
(20.6395 0 0)
(20.6823 0 0)
(20.7252 0 0)
(20.7681 0 0)
(20.811 0 0)
(20.854 0 0)
(20.897 0 0)
(20.9401 0 0)
(20.9832 0 0)
(21.0263 0 0)
(21.0695 0 0)
(21.1127 0 0)
(21.156 0 0)
(21.1992 0 0)
(21.2426 0 0)
(21.2859 0 0)
(21.3293 0 0)
(21.3727 0 0)
(21.4162 0 0)
(21.4596 0 0)
(21.5031 0 0)
(21.5467 0 0)
(21.5902 0 0)
(21.6338 0 0)
(21.6773 0 0)
(21.7209 0 0)
(21.7645 0 0)
(21.8081 0 0)
(21.8518 0 0)
(21.8954 0 0)
(21.939 0 0)
(21.9827 0 0)
(22.0263 0 0)
(22.0699 0 0)
(22.1135 0 0)
(22.1571 0 0)
(22.2007 0 0)
(22.2443 0 0)
(22.2879 0 0)
(22.3315 0 0)
(22.375 0 0)
(22.4185 0 0)
(22.462 0 0)
(22.5055 0 0)
(22.5489 0 0)
(22.5924 0 0)
(22.6358 0 0)
(22.6791 0 0)
(22.7224 0 0)
(22.7657 0 0)
(22.809 0 0)
(22.8522 0 0)
(22.8954 0 0)
(22.9385 0 0)
(22.9816 0 0)
(23.0247 0 0)
(23.0677 0 0)
(23.1107 0 0)
(23.1537 0 0)
(23.1966 0 0)
(23.2395 0 0)
(23.2823 0 0)
(23.3251 0 0)
(23.3678 0 0)
(23.4105 0 0)
(23.4532 0 0)
(23.4958 0 0)
(23.5384 0 0)
(23.581 0 0)
(23.6235 0 0)
(23.666 0 0)
(23.7084 0 0)
(23.7508 0 0)
(23.7932 0 0)
(23.8356 0 0)
(23.8779 0 0)
(23.9202 0 0)
(23.9625 0 0)
(24.0048 0 0)
(24.047 0 0)
(24.0892 0 0)
(24.1314 0 0)
(24.1736 0 0)
(24.2158 0 0)
(24.258 0 0)
(24.3002 0 0)
(24.3423 0 0)
(24.3845 0 0)
(24.4267 0 0)
(24.4688 0 0)
(24.511 0 0)
(24.5532 0 0)
(24.5954 0 0)
(24.6376 0 0)
(24.6798 0 0)
(24.722 0 0)
(24.7643 0 0)
(24.8066 0 0)
(24.8489 0 0)
(24.8912 0 0)
(24.9336 0 0)
(24.976 0 0)
(25.0184 0 0)
(25.0609 0 0)
(25.1034 0 0)
(25.1459 0 0)
(25.1885 0 0)
(25.2311 0 0)
(25.2738 0 0)
(25.3165 0 0)
(25.3592 0 0)
(25.402 0 0)
(25.4449 0 0)
(25.4878 0 0)
(25.5307 0 0)
(25.5737 0 0)
(25.6167 0 0)
(25.6598 0 0)
(25.7029 0 0)
(25.7461 0 0)
(25.7893 0 0)
(25.8326 0 0)
(25.8759 0 0)
(25.9192 0 0)
(25.9626 0 0)
(26.006 0 0)
(26.0495 0 0)
(26.093 0 0)
(26.1365 0 0)
(26.1801 0 0)
(26.2237 0 0)
(26.2673 0 0)
(26.3109 0 0)
(26.3546 0 0)
(26.3983 0 0)
(26.442 0 0)
(26.4857 0 0)
(26.5295 0 0)
(26.5732 0 0)
(26.617 0 0)
(26.6607 0 0)
(26.7045 0 0)
(26.7482 0 0)
(26.792 0 0)
(26.8357 0 0)
(26.8795 0 0)
(26.9232 0 0)
(26.9669 0 0)
(27.0106 0 0)
(27.0543 0 0)
(27.098 0 0)
(27.1416 0 0)
(27.1852 0 0)
(27.2288 0 0)
(27.2724 0 0)
(27.3159 0 0)
(27.3594 0 0)
(27.4029 0 0)
(27.4463 0 0)
(27.4897 0 0)
(27.533 0 0)
(27.5763 0 0)
(27.6196 0 0)
(27.6628 0 0)
(27.706 0 0)
(27.7492 0 0)
(27.7923 0 0)
(27.8353 0 0)
(27.8784 0 0)
(27.9213 0 0)
(27.9643 0 0)
(28.0071 0 0)
(28.05 0 0)
(28.0928 0 0)
(28.1355 0 0)
(28.1782 0 0)
(28.2209 0 0)
(28.2635 0 0)
(28.3061 0 0)
(28.3487 0 0)
(28.3912 0 0)
(28.4337 0 0)
(28.4761 0 0)
(28.5185 0 0)
(28.5609 0 0)
(28.6032 0 0)
(28.6455 0 0)
(28.6878 0 0)
(28.73 0 0)
(28.7723 0 0)
(28.8145 0 0)
(28.8567 0 0)
(28.8988 0 0)
(28.941 0 0)
(28.9831 0 0)
(29.0253 0 0)
(29.0674 0 0)
(29.1095 0 0)
(29.1516 0 0)
(29.1937 0 0)
(29.2359 0 0)
(29.278 0 0)
(29.3201 0 0)
(29.3622 0 0)
(29.4044 0 0)
(29.4466 0 0)
(29.4887 0 0)
(29.5309 0 0)
(29.5731 0 0)
(29.6154 0 0)
(29.6577 0 0)
(29.7 0 0)
(29.7423 0 0)
(29.7846 0 0)
(29.827 0 0)
(29.8695 0 0)
(29.9119 0 0)
(29.9544 0 0)
(29.997 0 0)
(30.0396 0 0)
(30.0822 0 0)
(30.1249 0 0)
(30.1676 0 0)
(30.2104 0 0)
(30.2532 0 0)
(30.2961 0 0)
(30.339 0 0)
(30.382 0 0)
(30.425 0 0)
(30.4681 0 0)
(30.5112 0 0)
(30.5543 0 0)
(30.5976 0 0)
(30.6408 0 0)
(30.6841 0 0)
(30.7275 0 0)
(30.7709 0 0)
(30.8143 0 0)
(30.8578 0 0)
(30.9013 0 0)
(30.9449 0 0)
(30.9885 0 0)
(31.0321 0 0)
(31.0757 0 0)
(31.1194 0 0)
(31.1631 0 0)
(31.2069 0 0)
(31.2506 0 0)
(31.2944 0 0)
(31.3382 0 0)
(31.382 0 0)
(31.4258 0 0)
(31.4696 0 0)
(31.5135 0 0)
(31.5573 0 0)
(31.6011 0 0)
(31.645 0 0)
(31.6888 0 0)
(31.7326 0 0)
(31.7764 0 0)
(31.8202 0 0)
(31.864 0 0)
(31.9078 0 0)
(31.9515 0 0)
(31.9952 0 0)
(32.0389 0 0)
(32.0826 0 0)
(32.1263 0 0)
(32.1699 0 0)
(32.2135 0 0)
(32.257 0 0)
(32.3005 0 0)
(32.344 0 0)
(32.3875 0 0)
(32.4309 0 0)
(32.4743 0 0)
(32.5176 0 0)
(32.5609 0 0)
(32.6041 0 0)
(32.6473 0 0)
(32.6905 0 0)
(32.7336 0 0)
(32.7767 0 0)
(32.8197 0 0)
(32.8627 0 0)
(32.9057 0 0)
(32.9486 0 0)
(32.9914 0 0)
(33.0342 0 0)
(33.077 0 0)
(33.1197 0 0)
(33.1624 0 0)
(33.2051 0 0)
(33.2477 0 0)
(33.2902 0 0)
(33.3327 0 0)
(33.3752 0 0)
(33.4177 0 0)
(33.4601 0 0)
(33.5024 0 0)
(33.5448 0 0)
(33.5871 0 0)
(33.6294 0 0)
(33.6716 0 0)
(33.7138 0 0)
(33.756 0 0)
(33.7982 0 0)
(33.8404 0 0)
(33.8825 0 0)
(33.9246 0 0)
(33.9667 0 0)
(34.0088 0 0)
(34.0509 0 0)
(34.093 0 0)
(34.135 0 0)
(34.1771 0 0)
(34.2192 0 0)
(34.2612 0 0)
(34.3033 0 0)
(34.3454 0 0)
(34.3875 0 0)
(34.4295 0 0)
(34.4716 0 0)
(34.5138 0 0)
(34.5559 0 0)
(34.5981 0 0)
(34.6402 0 0)
(34.6824 0 0)
(34.7247 0 0)
(34.7669 0 0)
(34.8092 0 0)
(34.8515 0 0)
(34.8939 0 0)
(34.9363 0 0)
(34.9787 0 0)
(35.0212 0 0)
(35.0637 0 0)
(35.1063 0 0)
(35.1489 0 0)
(35.1915 0 0)
(35.2342 0 0)
(35.277 0 0)
(35.3198 0 0)
(35.3626 0 0)
(35.4055 0 0)
(35.4485 0 0)
(35.4915 0 0)
(35.5345 0 0)
(35.5776 0 0)
(35.6208 0 0)
(35.664 0 0)
(35.7072 0 0)
(35.7505 0 0)
(35.7939 0 0)
(35.8373 0 0)
(35.8807 0 0)
(35.9242 0 0)
(35.9677 0 0)
(36.0113 0 0)
(36.0549 0 0)
(36.0986 0 0)
(36.1422 0 0)
(36.186 0 0)
(36.2297 0 0)
(36.2735 0 0)
(36.3173 0 0)
(36.3611 0 0)
(36.405 0 0)
(36.4488 0 0)
(36.4927 0 0)
(36.5366 0 0)
(36.5805 0 0)
(36.6244 0 0)
(36.6684 0 0)
(36.7123 0 0)
(36.7562 0 0)
(36.8001 0 0)
(36.8441 0 0)
(36.888 0 0)
(36.9319 0 0)
(36.9758 0 0)
(37.0197 0 0)
(37.0635 0 0)
(37.1074 0 0)
(37.1512 0 0)
(37.195 0 0)
(37.2388 0 0)
(37.2826 0 0)
(37.3263 0 0)
(37.37 0 0)
(37.4137 0 0)
(37.4573 0 0)
(37.5009 0 0)
(37.5445 0 0)
(37.588 0 0)
(37.6315 0 0)
(37.675 0 0)
(37.7184 0 0)
(37.7617 0 0)
(37.8051 0 0)
(37.8483 0 0)
(37.8916 0 0)
(37.9348 0 0)
(37.9779 0 0)
(38.021 0 0)
(38.064 0 0)
(38.107 0 0)
(38.15 0 0)
(38.1929 0 0)
(38.2357 0 0)
(38.2786 0 0)
(38.3213 0 0)
(38.364 0 0)
(38.4067 0 0)
(38.4493 0 0)
(38.4919 0 0)
(38.5344 0 0)
(38.5769 0 0)
(38.6193 0 0)
(38.6617 0 0)
(38.7041 0 0)
(38.7464 0 0)
(38.7887 0 0)
(38.8309 0 0)
(38.8731 0 0)
(38.9153 0 0)
(38.9574 0 0)
(38.9995 0 0)
(39.0416 0 0)
(39.0837 0 0)
(39.1257 0 0)
(39.1677 0 0)
(39.2097 0 0)
(39.2517 0 0)
(39.2936 0 0)
(39.3355 0 0)
(39.3775 0 0)
(39.4194 0 0)
(39.4613 0 0)
(39.5032 0 0)
(39.5451 0 0)
(39.5871 0 0)
(39.629 0 0)
(39.6709 0 0)
(39.7129 0 0)
(39.7548 0 0)
(39.7968 0 0)
(39.8388 0 0)
(39.8808 0 0)
(39.9228 0 0)
(39.9649 0 0)
(40.007 0 0)
(40.0491 0 0)
(40.0913 0 0)
(40.1335 0 0)
(40.1757 0 0)
(40.218 0 0)
(40.2603 0 0)
(40.3027 0 0)
(40.3451 0 0)
(40.3876 0 0)
(40.4302 0 0)
(40.4728 0 0)
(40.5154 0 0)
(40.5581 0 0)
(40.6009 0 0)
(40.6437 0 0)
(40.6866 0 0)
(40.7295 0 0)
(40.7725 0 0)
(40.8156 0 0)
(40.8587 0 0)
(40.9019 0 0)
(40.9452 0 0)
(40.9885 0 0)
(41.0319 0 0)
(41.0753 0 0)
(41.1188 0 0)
(41.1623 0 0)
(41.2059 0 0)
(41.2495 0 0)
(41.2932 0 0)
(41.337 0 0)
(41.3808 0 0)
(41.4246 0 0)
(41.4685 0 0)
(41.5124 0 0)
(41.5563 0 0)
(41.6003 0 0)
(41.6443 0 0)
(41.6883 0 0)
(41.7324 0 0)
(41.7765 0 0)
(41.8206 0 0)
(41.8647 0 0)
(41.9088 0 0)
(41.953 0 0)
(41.9971 0 0)
(42.0413 0 0)
(42.0854 0 0)
(42.1296 0 0)
(42.1737 0 0)
(42.2178 0 0)
(42.262 0 0)
(42.3061 0 0)
(42.3502 0 0)
(42.3942 0 0)
(42.4383 0 0)
(42.4823 0 0)
(42.5263 0 0)
(42.5703 0 0)
(42.6142 0 0)
(42.6581 0 0)
(42.7019 0 0)
(42.7458 0 0)
(42.7895 0 0)
(42.8333 0 0)
(42.877 0 0)
(42.9206 0 0)
(42.9642 0 0)
(43.0078 0 0)
(43.0513 0 0)
(43.0947 0 0)
(43.1381 0 0)
(43.1814 0 0)
(43.2247 0 0)
(43.268 0 0)
(43.3111 0 0)
(43.3542 0 0)
(43.3973 0 0)
(43.4403 0 0)
(43.4832 0 0)
(43.5261 0 0)
(43.5689 0 0)
(43.6116 0 0)
(43.6543 0 0)
(43.697 0 0)
(43.7395 0 0)
(43.7821 0 0)
(43.8245 0 0)
(43.8669 0 0)
(43.9093 0 0)
(43.9516 0 0)
(43.9938 0 0)
(44.036 0 0)
(44.0782 0 0)
(44.1203 0 0)
(44.1623 0 0)
(44.2044 0 0)
(44.2463 0 0)
(44.2883 0 0)
(44.3302 0 0)
(44.3721 0 0)
(44.4139 0 0)
(44.4557 0 0)
(44.4975 0 0)
(44.5393 0 0)
(44.581 0 0)
(44.6228 0 0)
(44.6645 0 0)
(44.7062 0 0)
(44.7479 0 0)
(44.7896 0 0)
(44.8313 0 0)
(44.873 0 0)
(44.9147 0 0)
(44.9564 0 0)
(44.9981 0 0)
(45.0399 0 0)
(45.0816 0 0)
(45.1234 0 0)
(45.1652 0 0)
(45.2071 0 0)
(45.2489 0 0)
(45.2908 0 0)
(45.3328 0 0)
(45.3748 0 0)
(45.4168 0 0)
(45.4589 0 0)
(45.501 0 0)
(45.5432 0 0)
(45.5854 0 0)
(45.6277 0 0)
(45.6701 0 0)
(45.7125 0 0)
(45.755 0 0)
(45.7976 0 0)
(45.8402 0 0)
(45.8829 0 0)
(45.9257 0 0)
(45.9685 0 0)
(46.0114 0 0)
(46.0544 0 0)
(46.0974 0 0)
(46.1406 0 0)
(46.1837 0 0)
(46.227 0 0)
(46.2703 0 0)
(46.3137 0 0)
(46.3572 0 0)
(46.4008 0 0)
(46.4444 0 0)
(46.488 0 0)
(46.5317 0 0)
(46.5755 0 0)
(46.6194 0 0)
(46.6632 0 0)
(46.7072 0 0)
(46.7512 0 0)
(46.7952 0 0)
(46.8393 0 0)
(46.8834 0 0)
(46.9276 0 0)
(46.9718 0 0)
(47.016 0 0)
(47.0602 0 0)
(47.1045 0 0)
(47.1488 0 0)
(47.1931 0 0)
(47.2375 0 0)
(47.2818 0 0)
(47.3261 0 0)
(47.3705 0 0)
(47.4148 0 0)
(47.4592 0 0)
(47.5035 0 0)
(47.5478 0 0)
(47.5922 0 0)
(47.6365 0 0)
(47.6807 0 0)
(47.725 0 0)
(47.7692 0 0)
(47.8134 0 0)
(47.8576 0 0)
(47.9017 0 0)
(47.9458 0 0)
(47.9898 0 0)
(48.0338 0 0)
(48.0778 0 0)
(48.1217 0 0)
(48.1656 0 0)
(48.2095 0 0)
(48.2532 0 0)
(48.297 0 0)
(48.3406 0 0)
(48.3843 0 0)
(48.4278 0 0)
(48.4713 0 0)
(48.5148 0 0)
(48.5582 0 0)
(48.6015 0 0)
(48.6447 0 0)
(48.6879 0 0)
(48.7311 0 0)
(48.7741 0 0)
(48.8171 0 0)
(48.8601 0 0)
(48.9029 0 0)
(48.9457 0 0)
(48.9885 0 0)
(49.0312 0 0)
(49.0738 0 0)
(49.1163 0 0)
(49.1588 0 0)
(49.2012 0 0)
(49.2436 0 0)
(49.2859 0 0)
(49.3281 0 0)
(49.3703 0 0)
(49.4125 0 0)
(49.4546 0 0)
(49.4966 0 0)
(49.5386 0 0)
(49.5805 0 0)
(49.6224 0 0)
(49.6643 0 0)
(49.7061 0 0)
(49.7479 0 0)
(49.7896 0 0)
(49.8313 0 0)
(49.873 0 0)
(49.9147 0 0)
(49.9563 0 0)
(49.9979 0 0)
(50.0395 0 0)
(50.0811 0 0)
(50.1227 0 0)
(50.1643 0 0)
(50.2059 0 0)
(50.2474 0 0)
(50.289 0 0)
(50.3306 0 0)
(50.3722 0 0)
(50.4138 0 0)
(50.4554 0 0)
(50.497 0 0)
(50.5386 0 0)
(50.5803 0 0)
(50.622 0 0)
(50.6637 0 0)
(50.7054 0 0)
(50.7472 0 0)
(50.789 0 0)
(50.8309 0 0)
(50.8728 0 0)
(50.9148 0 0)
(50.9568 0 0)
(50.9989 0 0)
(51.041 0 0)
(51.0832 0 0)
(51.1255 0 0)
(51.1679 0 0)
(51.2103 0 0)
(51.2527 0 0)
(51.2953 0 0)
(51.3379 0 0)
(51.3806 0 0)
(51.4234 0 0)
(51.4662 0 0)
(51.5091 0 0)
(51.5521 0 0)
(51.5952 0 0)
(51.6384 0 0)
(51.6816 0 0)
(51.7249 0 0)
(51.7683 0 0)
(51.8117 0 0)
(51.8552 0 0)
(51.8988 0 0)
(51.9425 0 0)
(51.9862 0 0)
(52.03 0 0)
(52.0738 0 0)
(52.1178 0 0)
(52.1617 0 0)
(52.2058 0 0)
(52.2498 0 0)
(52.294 0 0)
(52.3381 0 0)
(52.3824 0 0)
(52.4266 0 0)
(52.4709 0 0)
(52.5153 0 0)
(52.5596 0 0)
(52.604 0 0)
(52.6484 0 0)
(52.6929 0 0)
(52.7374 0 0)
(52.7818 0 0)
(52.8263 0 0)
(52.8708 0 0)
(52.9154 0 0)
(52.9599 0 0)
(53.0044 0 0)
(53.0489 0 0)
(53.0933 0 0)
(53.1378 0 0)
(53.1823 0 0)
(53.2267 0 0)
(53.2711 0 0)
(53.3155 0 0)
(53.3599 0 0)
(53.4042 0 0)
(53.4485 0 0)
(53.4928 0 0)
(53.537 0 0)
(53.5812 0 0)
(53.6253 0 0)
(53.6694 0 0)
(53.7134 0 0)
(53.7574 0 0)
(53.8014 0 0)
(53.8452 0 0)
(53.8891 0 0)
(53.9328 0 0)
(53.9766 0 0)
(54.0202 0 0)
(54.0638 0 0)
(54.1073 0 0)
(54.1508 0 0)
(54.1942 0 0)
(54.2375 0 0)
(54.2807 0 0)
(54.3239 0 0)
(54.367 0 0)
(54.4101 0 0)
(54.453 0 0)
(54.4959 0 0)
(54.5388 0 0)
(54.5815 0 0)
(54.6242 0 0)
(54.6668 0 0)
(54.7093 0 0)
(54.7518 0 0)
(54.7942 0 0)
(54.8365 0 0)
(54.8788 0 0)
(54.921 0 0)
(54.9631 0 0)
(55.0051 0 0)
(55.0472 0 0)
(55.0891 0 0)
(55.131 0 0)
(55.1728 0 0)
(55.2146 0 0)
(55.2563 0 0)
(55.298 0 0)
(55.3397 0 0)
(55.3813 0 0)
(55.4228 0 0)
(55.4643 0 0)
(55.5058 0 0)
(55.5473 0 0)
(55.5888 0 0)
(55.6302 0 0)
(55.6717 0 0)
(55.7131 0 0)
(55.7545 0 0)
(55.7959 0 0)
(55.8372 0 0)
(55.8786 0 0)
(55.92 0 0)
(55.9613 0 0)
(56.0027 0 0)
(56.0441 0 0)
(56.0855 0 0)
(56.1269 0 0)
(56.1683 0 0)
(56.2098 0 0)
(56.2512 0 0)
(56.2927 0 0)
(56.3342 0 0)
(56.3758 0 0)
(56.4174 0 0)
(56.459 0 0)
(56.5007 0 0)
(56.5424 0 0)
(56.5842 0 0)
(56.6261 0 0)
(56.668 0 0)
(56.71 0 0)
(56.7521 0 0)
(56.7943 0 0)
(56.8365 0 0)
(56.8788 0 0)
(56.9212 0 0)
(56.9636 0 0)
(57.0062 0 0)
(57.0488 0 0)
(57.0916 0 0)
(57.1344 0 0)
(57.1773 0 0)
(57.2203 0 0)
(57.2634 0 0)
(57.3065 0 0)
(57.3498 0 0)
(57.3932 0 0)
(57.4366 0 0)
(57.4801 0 0)
(57.5237 0 0)
(57.5674 0 0)
(57.6112 0 0)
(57.655 0 0)
(57.6989 0 0)
(57.7429 0 0)
(57.787 0 0)
(57.8311 0 0)
(57.8753 0 0)
(57.9195 0 0)
(57.9638 0 0)
(58.0082 0 0)
(58.0526 0 0)
(58.097 0 0)
(58.1415 0 0)
(58.186 0 0)
(58.2306 0 0)
(58.2752 0 0)
(58.3199 0 0)
(58.3645 0 0)
(58.4092 0 0)
(58.4539 0 0)
(58.4987 0 0)
(58.5434 0 0)
(58.5881 0 0)
(58.6329 0 0)
(58.6776 0 0)
(58.7224 0 0)
(58.7671 0 0)
(58.8118 0 0)
(58.8565 0 0)
(58.9012 0 0)
(58.9458 0 0)
(58.9904 0 0)
(59.035 0 0)
(59.0796 0 0)
(59.1241 0 0)
(59.1686 0 0)
(59.213 0 0)
(59.2574 0 0)
(59.3017 0 0)
(59.346 0 0)
(59.3903 0 0)
(59.4345 0 0)
(59.4786 0 0)
(59.5227 0 0)
(59.5667 0 0)
(59.6106 0 0)
(59.6545 0 0)
(59.6983 0 0)
(59.7421 0 0)
(59.7857 0 0)
(59.8293 0 0)
(59.8728 0 0)
(59.9163 0 0)
(59.9597 0 0)
(60.003 0 0)
(60.0462 0 0)
(60.0893 0 0)
(60.1324 0 0)
(60.1754 0 0)
(60.2183 0 0)
(60.2611 0 0)
(60.3038 0 0)
(60.3465 0 0)
(60.3891 0 0)
(60.4316 0 0)
(60.474 0 0)
(60.5163 0 0)
(60.5586 0 0)
(60.6008 0 0)
(60.6429 0 0)
(60.685 0 0)
(60.727 0 0)
(60.7689 0 0)
(60.8107 0 0)
(60.8525 0 0)
(60.8943 0 0)
(60.936 0 0)
(60.9776 0 0)
(61.0191 0 0)
(61.0607 0 0)
(61.1021 0 0)
(61.1436 0 0)
(61.185 0 0)
(61.2264 0 0)
(61.2677 0 0)
(61.309 0 0)
(61.3504 0 0)
(61.3916 0 0)
(61.4329 0 0)
(61.4741 0 0)
(61.5154 0 0)
(61.5566 0 0)
(61.5978 0 0)
(61.639 0 0)
(61.6802 0 0)
(61.7214 0 0)
(61.7626 0 0)
(61.8038 0 0)
(61.845 0 0)
(61.8862 0 0)
(61.9275 0 0)
(61.9688 0 0)
(62.0101 0 0)
(62.0514 0 0)
(62.0927 0 0)
(62.1341 0 0)
(62.1756 0 0)
(62.217 0 0)
(62.2584 0 0)
(62.3 0 0)
(62.3415 0 0)
(62.3832 0 0)
(62.4249 0 0)
(62.4666 0 0)
(62.5085 0 0)
(62.5504 0 0)
(62.5924 0 0)
(62.6345 0 0)
(62.6766 0 0)
(62.7189 0 0)
(62.7612 0 0)
(62.8036 0 0)
(62.8461 0 0)
(62.8887 0 0)
(62.9314 0 0)
(62.9742 0 0)
(63.0171 0 0)
(63.0601 0 0)
(63.1032 0 0)
(63.1464 0 0)
(63.1896 0 0)
(63.233 0 0)
(63.2765 0 0)
(63.32 0 0)
(63.3636 0 0)
(63.4074 0 0)
(63.4512 0 0)
(63.4951 0 0)
(63.539 0 0)
(63.5831 0 0)
(63.6272 0 0)
(63.6714 0 0)
(63.7157 0 0)
(63.76 0 0)
(63.8044 0 0)
(63.8489 0 0)
(63.8934 0 0)
(63.9379 0 0)
(63.9826 0 0)
(64.0272 0 0)
(64.0719 0 0)
(64.1167 0 0)
(64.1615 0 0)
(64.2063 0 0)
(64.2511 0 0)
(64.296 0 0)
(64.3409 0 0)
(64.3858 0 0)
(64.4307 0 0)
(64.4756 0 0)
(64.5205 0 0)
(64.5655 0 0)
(64.6104 0 0)
(64.6553 0 0)
(64.7002 0 0)
(64.7451 0 0)
(64.79 0 0)
(64.8349 0 0)
(64.8797 0 0)
(64.9245 0 0)
(64.9693 0 0)
(65.0141 0 0)
(65.0588 0 0)
(65.1035 0 0)
(65.1481 0 0)
(65.1927 0 0)
(65.2372 0 0)
(65.2817 0 0)
(65.3262 0 0)
(65.3706 0 0)
(65.4149 0 0)
(65.4592 0 0)
(65.5034 0 0)
(65.5475 0 0)
(65.5916 0 0)
(65.6356 0 0)
(65.6795 0 0)
(65.7233 0 0)
(65.7671 0 0)
(65.8108 0 0)
(65.8544 0 0)
(65.8979 0 0)
(65.9413 0 0)
(65.9847 0 0)
(66.028 0 0)
(66.0712 0 0)
(66.1143 0 0)
(66.1573 0 0)
(66.2002 0 0)
(66.2431 0 0)
(66.2858 0 0)
(66.3285 0 0)
(66.3711 0 0)
(66.4135 0 0)
(66.456 0 0)
(66.4983 0 0)
(66.5405 0 0)
(66.5827 0 0)
(66.6247 0 0)
(66.6667 0 0)
(66.7086 0 0)
(66.7505 0 0)
(66.7922 0 0)
(66.834 0 0)
(66.8756 0 0)
(66.9172 0 0)
(66.9587 0 0)
(67.0001 0 0)
(67.0415 0 0)
(67.0829 0 0)
(67.1242 0 0)
(67.1655 0 0)
(67.2067 0 0)
(67.248 0 0)
(67.2891 0 0)
(67.3303 0 0)
(67.3714 0 0)
(67.4125 0 0)
(67.4535 0 0)
(67.4946 0 0)
(67.5356 0 0)
(67.5766 0 0)
(67.6175 0 0)
(67.6585 0 0)
(67.6994 0 0)
(67.7404 0 0)
(67.7813 0 0)
(67.8223 0 0)
(67.8632 0 0)
(67.9041 0 0)
(67.9451 0 0)
(67.9861 0 0)
(68.0271 0 0)
(68.0681 0 0)
(68.1091 0 0)
(68.1502 0 0)
(68.1913 0 0)
(68.2325 0 0)
(68.2737 0 0)
(68.3149 0 0)
(68.3562 0 0)
(68.3975 0 0)
(68.4388 0 0)
(68.4802 0 0)
(68.5217 0 0)
(68.5632 0 0)
(68.6048 0 0)
(68.6465 0 0)
(68.6882 0 0)
(68.7301 0 0)
(68.772 0 0)
(68.814 0 0)
(68.856 0 0)
(68.8982 0 0)
(68.9405 0 0)
(68.9829 0 0)
(69.0253 0 0)
(69.0679 0 0)
(69.1106 0 0)
(69.1535 0 0)
(69.1964 0 0)
(69.2394 0 0)
(69.2826 0 0)
(69.3258 0 0)
(69.3692 0 0)
(69.4126 0 0)
(69.4562 0 0)
(69.4998 0 0)
(69.5436 0 0)
(69.5874 0 0)
(69.6314 0 0)
(69.6754 0 0)
(69.7195 0 0)
(69.7638 0 0)
(69.808 0 0)
(69.8524 0 0)
(69.8969 0 0)
(69.9414 0 0)
(69.986 0 0)
(70.0306 0 0)
(70.0754 0 0)
(70.1202 0 0)
(70.165 0 0)
(70.2099 0 0)
(70.2549 0 0)
(70.2999 0 0)
(70.3449 0 0)
(70.39 0 0)
(70.4351 0 0)
(70.4803 0 0)
(70.5255 0 0)
(70.5707 0 0)
(70.6159 0 0)
(70.6612 0 0)
(70.7065 0 0)
(70.7517 0 0)
(70.797 0 0)
(70.8423 0 0)
(70.8875 0 0)
(70.9328 0 0)
(70.978 0 0)
(71.0232 0 0)
(71.0684 0 0)
(71.1135 0 0)
(71.1586 0 0)
(71.2037 0 0)
(71.2487 0 0)
(71.2937 0 0)
(71.3387 0 0)
(71.3836 0 0)
(71.4284 0 0)
(71.4732 0 0)
(71.5179 0 0)
(71.5626 0 0)
(71.6071 0 0)
(71.6517 0 0)
(71.6961 0 0)
(71.7405 0 0)
(71.7848 0 0)
(71.829 0 0)
(71.8731 0 0)
(71.9172 0 0)
(71.9611 0 0)
(72.005 0 0)
(72.0488 0 0)
(72.0924 0 0)
(72.136 0 0)
(72.1795 0 0)
(72.2229 0 0)
(72.2661 0 0)
(72.3093 0 0)
(72.3523 0 0)
(72.3953 0 0)
(72.4381 0 0)
(72.4809 0 0)
(72.5235 0 0)
(72.566 0 0)
(72.6084 0 0)
(72.6507 0 0)
(72.693 0 0)
(72.7351 0 0)
(72.7771 0 0)
(72.819 0 0)
(72.8608 0 0)
(72.9025 0 0)
(72.9441 0 0)
(72.9857 0 0)
(73.0272 0 0)
(73.0686 0 0)
(73.1099 0 0)
(73.1512 0 0)
(73.1924 0 0)
(73.2336 0 0)
(73.2747 0 0)
(73.3157 0 0)
(73.3567 0 0)
(73.3976 0 0)
(73.4385 0 0)
(73.4794 0 0)
(73.5202 0 0)
(73.561 0 0)
(73.6017 0 0)
(73.6424 0 0)
(73.6831 0 0)
(73.7237 0 0)
(73.7643 0 0)
(73.8048 0 0)
(73.8454 0 0)
(73.8859 0 0)
(73.9264 0 0)
(73.9669 0 0)
(74.0074 0 0)
(74.0479 0 0)
(74.0884 0 0)
(74.1289 0 0)
(74.1694 0 0)
(74.2099 0 0)
(74.2504 0 0)
(74.2909 0 0)
(74.3315 0 0)
(74.3721 0 0)
(74.4127 0 0)
(74.4533 0 0)
(74.494 0 0)
(74.5347 0 0)
(74.5755 0 0)
(74.6163 0 0)
(74.6572 0 0)
(74.6981 0 0)
(74.7391 0 0)
(74.7801 0 0)
(74.8212 0 0)
(74.8624 0 0)
(74.9037 0 0)
(74.945 0 0)
(74.9864 0 0)
(75.0279 0 0)
(75.0695 0 0)
(75.1112 0 0)
(75.153 0 0)
(75.1949 0 0)
(75.2369 0 0)
(75.2791 0 0)
(75.3214 0 0)
(75.3639 0 0)
(75.4065 0 0)
(75.4493 0 0)
(75.4922 0 0)
(75.5352 0 0)
(75.5784 0 0)
(75.6217 0 0)
(75.6652 0 0)
(75.7088 0 0)
(75.7526 0 0)
(75.7965 0 0)
(75.8405 0 0)
(75.8847 0 0)
(75.9289 0 0)
(75.9733 0 0)
(76.0178 0 0)
(76.0624 0 0)
(76.1072 0 0)
(76.152 0 0)
(76.1969 0 0)
(76.2419 0 0)
(76.287 0 0)
(76.3322 0 0)
(76.3775 0 0)
(76.4228 0 0)
(76.4682 0 0)
(76.5136 0 0)
(76.5591 0 0)
(76.6046 0 0)
(76.6502 0 0)
(76.6958 0 0)
(76.7414 0 0)
(76.787 0 0)
(76.8327 0 0)
(76.8783 0 0)
(76.924 0 0)
(76.9696 0 0)
(77.0152 0 0)
(77.0607 0 0)
(77.1062 0 0)
(77.1517 0 0)
(77.1972 0 0)
(77.2426 0 0)
(77.2879 0 0)
(77.3332 0 0)
(77.3785 0 0)
(77.4236 0 0)
(77.4688 0 0)
(77.5138 0 0)
(77.5587 0 0)
(77.6036 0 0)
(77.6484 0 0)
(77.6931 0 0)
(77.7377 0 0)
(77.7822 0 0)
(77.8266 0 0)
(77.8709 0 0)
(77.9152 0 0)
(77.9593 0 0)
(78.0033 0 0)
(78.0472 0 0)
(78.0909 0 0)
(78.1346 0 0)
(78.1782 0 0)
(78.2216 0 0)
(78.265 0 0)
(78.3082 0 0)
(78.3513 0 0)
(78.3943 0 0)
(78.4372 0 0)
(78.48 0 0)
(78.5227 0 0)
(78.5652 0 0)
(78.6077 0 0)
(78.65 0 0)
(78.6923 0 0)
(78.7344 0 0)
(78.7764 0 0)
(78.8184 0 0)
(78.8602 0 0)
(78.902 0 0)
(78.9437 0 0)
(78.9854 0 0)
(79.027 0 0)
(79.0685 0 0)
(79.11 0 0)
(79.1514 0 0)
(79.1928 0 0)
(79.2342 0 0)
(79.2756 0 0)
(79.3168 0 0)
(79.3581 0 0)
(79.3992 0 0)
(79.4404 0 0)
(79.4815 0 0)
(79.5226 0 0)
(79.5637 0 0)
(79.6048 0 0)
(79.6459 0 0)
(79.6869 0 0)
(79.728 0 0)
(79.769 0 0)
(79.81 0 0)
(79.8511 0 0)
(79.8922 0 0)
(79.9332 0 0)
(79.9743 0 0)
(80.0154 0 0)
(80.0566 0 0)
(80.0977 0 0)
(80.139 0 0)
(80.1802 0 0)
(80.2215 0 0)
(80.2629 0 0)
(80.3043 0 0)
(80.3457 0 0)
(80.3872 0 0)
(80.4289 0 0)
(80.4706 0 0)
(80.5123 0 0)
(80.5541 0 0)
(80.596 0 0)
(80.638 0 0)
(80.6801 0 0)
(80.7222 0 0)
(80.7645 0 0)
(80.8069 0 0)
(80.8495 0 0)
(80.8922 0 0)
(80.9351 0 0)
(80.9781 0 0)
(81.0213 0 0)
(81.0647 0 0)
(81.1082 0 0)
(81.1518 0 0)
(81.1956 0 0)
(81.2395 0 0)
(81.2836 0 0)
(81.3278 0 0)
(81.3722 0 0)
(81.4166 0 0)
(81.4613 0 0)
(81.506 0 0)
(81.5509 0 0)
(81.5958 0 0)
(81.6409 0 0)
(81.6861 0 0)
(81.7313 0 0)
(81.7767 0 0)
(81.8221 0 0)
(81.8676 0 0)
(81.9132 0 0)
(81.9588 0 0)
(82.0045 0 0)
(82.0502 0 0)
(82.096 0 0)
(82.1417 0 0)
(82.1875 0 0)
(82.2333 0 0)
(82.2791 0 0)
(82.3248 0 0)
(82.3706 0 0)
(82.4163 0 0)
(82.462 0 0)
(82.5077 0 0)
(82.5533 0 0)
(82.5988 0 0)
(82.6444 0 0)
(82.6898 0 0)
(82.7352 0 0)
(82.7806 0 0)
(82.8258 0 0)
(82.871 0 0)
(82.9161 0 0)
(82.9612 0 0)
(83.0061 0 0)
(83.051 0 0)
(83.0958 0 0)
(83.1405 0 0)
(83.1851 0 0)
(83.2296 0 0)
(83.274 0 0)
(83.3183 0 0)
(83.3625 0 0)
(83.4066 0 0)
(83.4506 0 0)
(83.4945 0 0)
(83.5383 0 0)
(83.5819 0 0)
(83.6255 0 0)
(83.6689 0 0)
(83.7123 0 0)
(83.7556 0 0)
(83.7987 0 0)
(83.8418 0 0)
(83.8847 0 0)
(83.9276 0 0)
(83.9703 0 0)
(84.013 0 0)
(84.0555 0 0)
(84.098 0 0)
(84.1403 0 0)
(84.1826 0 0)
(84.2248 0 0)
(84.267 0 0)
(84.3091 0 0)
(84.3511 0 0)
(84.393 0 0)
(84.4349 0 0)
(84.4768 0 0)
(84.5186 0 0)
(84.5603 0 0)
(84.6021 0 0)
(84.6438 0 0)
(84.6854 0 0)
(84.7271 0 0)
(84.7687 0 0)
(84.8103 0 0)
(84.8519 0 0)
(84.8934 0 0)
(84.935 0 0)
(84.9765 0 0)
(85.018 0 0)
(85.0596 0 0)
(85.1011 0 0)
(85.1427 0 0)
(85.1842 0 0)
(85.2258 0 0)
(85.2674 0 0)
(85.3091 0 0)
(85.3508 0 0)
(85.3925 0 0)
(85.4342 0 0)
(85.476 0 0)
(85.5179 0 0)
(85.5597 0 0)
(85.6017 0 0)
(85.6437 0 0)
(85.6857 0 0)
(85.7279 0 0)
(85.77 0 0)
(85.8122 0 0)
(85.8546 0 0)
(85.8972 0 0)
(85.9398 0 0)
(85.9827 0 0)
(86.0256 0 0)
(86.0687 0 0)
(86.1119 0 0)
(86.1553 0 0)
(86.1987 0 0)
(86.2424 0 0)
(86.2861 0 0)
(86.33 0 0)
(86.374 0 0)
(86.4182 0 0)
(86.4625 0 0)
(86.5068 0 0)
(86.5513 0 0)
(86.596 0 0)
(86.6407 0 0)
(86.6855 0 0)
(86.7304 0 0)
(86.7754 0 0)
(86.8206 0 0)
(86.8657 0 0)
(86.911 0 0)
(86.9564 0 0)
(87.0018 0 0)
(87.0473 0 0)
(87.0928 0 0)
(87.1384 0 0)
(87.184 0 0)
(87.2297 0 0)
(87.2754 0 0)
(87.3211 0 0)
(87.3668 0 0)
(87.4126 0 0)
(87.4583 0 0)
(87.5041 0 0)
(87.5498 0 0)
(87.5955 0 0)
(87.6412 0 0)
(87.6869 0 0)
(87.7325 0 0)
(87.7781 0 0)
(87.8237 0 0)
(87.8692 0 0)
(87.9146 0 0)
(87.96 0 0)
(88.0053 0 0)
(88.0505 0 0)
(88.0957 0 0)
(88.1408 0 0)
(88.1858 0 0)
(88.2308 0 0)
(88.2756 0 0)
(88.3204 0 0)
(88.365 0 0)
(88.4096 0 0)
(88.4541 0 0)
(88.4984 0 0)
(88.5427 0 0)
(88.5868 0 0)
(88.6309 0 0)
(88.6748 0 0)
(88.7186 0 0)
(88.7623 0 0)
(88.8058 0 0)
(88.8493 0 0)
(88.8926 0 0)
(88.9358 0 0)
(88.9789 0 0)
(89.0219 0 0)
(89.0647 0 0)
(89.1074 0 0)
(89.15 0 0)
(89.1925 0 0)
(89.2349 0 0)
(89.2771 0 0)
(89.3193 0 0)
(89.3613 0 0)
(89.4033 0 0)
(89.4451 0 0)
(89.4868 0 0)
(89.5284 0 0)
(89.57 0 0)
(89.6114 0 0)
(89.6528 0 0)
(89.6941 0 0)
(89.7353 0 0)
(89.7765 0 0)
(89.8177 0 0)
(89.8589 0 0)
(89.9 0 0)
(89.9411 0 0)
(89.9821 0 0)
(90.0231 0 0)
(90.064 0 0)
(90.1049 0 0)
(90.1457 0 0)
(90.1865 0 0)
(90.2273 0 0)
(90.2681 0 0)
(90.3089 0 0)
(90.3496 0 0)
(90.3904 0 0)
(90.4311 0 0)
(90.4718 0 0)
(90.5126 0 0)
(90.5533 0 0)
(90.594 0 0)
(90.6348 0 0)
(90.6756 0 0)
(90.7163 0 0)
(90.7572 0 0)
(90.798 0 0)
(90.8389 0 0)
(90.8798 0 0)
(90.9207 0 0)
(90.9617 0 0)
(91.0028 0 0)
(91.0439 0 0)
(91.0851 0 0)
(91.1264 0 0)
(91.1677 0 0)
(91.2091 0 0)
(91.2506 0 0)
(91.2921 0 0)
(91.3336 0 0)
(91.3752 0 0)
(91.417 0 0)
(91.4588 0 0)
(91.5009 0 0)
(91.543 0 0)
(91.5854 0 0)
(91.6279 0 0)
(91.6705 0 0)
(91.7133 0 0)
(91.7563 0 0)
(91.7994 0 0)
(91.8427 0 0)
(91.8861 0 0)
(91.9297 0 0)
(91.9735 0 0)
(92.0174 0 0)
(92.0615 0 0)
(92.1057 0 0)
(92.15 0 0)
(92.1945 0 0)
(92.2391 0 0)
(92.2839 0 0)
(92.3287 0 0)
(92.3737 0 0)
(92.4188 0 0)
(92.464 0 0)
(92.5093 0 0)
(92.5546 0 0)
(92.6001 0 0)
(92.6456 0 0)
(92.6912 0 0)
(92.7369 0 0)
(92.7826 0 0)
(92.8284 0 0)
(92.8743 0 0)
(92.9202 0 0)