/*--------------------------------*- C++ -*----------------------------------*\
  =========                 |
  \\      /  F ield         | OpenFOAM: The Open Source CFD Toolbox
   \\    /   O peration     | Website:  https://openfoam.org
    \\  /    A nd           | Version:  9
     \\/     M anipulation  |
\*---------------------------------------------------------------------------*/
FoamFile
{
    format      ascii;
    class       volScalarField;
    location    "0.022";
    object      p;
}
// * * * * * * * * * * * * * * * * * * * * * * * * * * * * * * * * * * * * * //

dimensions      [1 -1 -2 0 0 0 0];

internalField   nonuniform List<scalar> 
100
(
40151.7
39977.8
39754.9
39583.8
39414.7
39241.9
39069
38896.5
38724.7
38553.3
38383.4
38213.1
38045.9
37875.5
37710.3
37541
37376.1
37210.4
37045.3
36883.8
36719.9
36556.8
36399.4
36238.5
36077.2
35919.8
35764.2
35605.7
35447.2
35293.2
35135.3
34979.3
34819.6
34665.4
34503.9
34346.6
34181.8
34017.8
33850.6
33679.2
33502
33318.9
33132.5
32939.4
32741.4
32537.2
32331.5
32125.9
31921.9
31722
31528.8
31345.6
31173.9
31019
30872.9
30755
30648.9
30558.4
30485.4
30430
30379.4
30345.4
30329.2
30309
30301.9
30295.1
30292.1
30292.3
30292.7
30293.6
30294.2
30295.1
30297
30299.5
30304.1
30313.6
30324.1
30333.5
30346.9
30362.7
30382.8
30407.8
30435.7
30461.2
30473.5
30494.8
30517.1
30533.7
30543.8
30548.8
30552.5
30555.6
30555.7
30555.7
30556.1
30556.4
30558
30559.6
30561
30560.6
)
;

boundaryField
{
    sides
    {
        type            zeroGradient;
    }
    empty
    {
        type            empty;
    }
}


// ************************************************************************* //
