/*--------------------------------*- C++ -*----------------------------------*\
  =========                 |
  \\      /  F ield         | OpenFOAM: The Open Source CFD Toolbox
   \\    /   O peration     | Website:  https://openfoam.org
    \\  /    A nd           | Version:  9
     \\/     M anipulation  |
\*---------------------------------------------------------------------------*/
FoamFile
{
    format      ascii;
    class       volScalarField;
    location    "0.009";
    object      mag(U);
}
// * * * * * * * * * * * * * * * * * * * * * * * * * * * * * * * * * * * * * //

dimensions      [0 1 -1 0 0 0 0];

internalField   nonuniform List<scalar> 
1000
(
1.66295e-12
1.73589e-12
1.50249e-12
1.69213e-12
1.88176e-12
2.17351e-12
2.1881e-12
2.20268e-12
2.47984e-12
2.27562e-12
2.96122e-12
2.68406e-12
3.03416e-12
2.69865e-12
2.72783e-12
2.81535e-12
2.81535e-12
2.56736e-12
2.46525e-12
2.78617e-12
2.58195e-12
3.03416e-12
2.93205e-12
3.12168e-12
3.25297e-12
3.48636e-12
3.50095e-12
3.60306e-12
3.74894e-12
3.53013e-12
4.23032e-12
3.76352e-12
3.96775e-12
4.17197e-12
3.85105e-12
4.43454e-12
3.51554e-12
4.31784e-12
3.38425e-12
3.7927e-12
3.57389e-12
3.64683e-12
3.61765e-12
3.5593e-12
3.89481e-12
3.47178e-12
4.11362e-12
3.86563e-12
3.80729e-12
3.86563e-12
3.83646e-12
3.66141e-12
3.7927e-12
3.99692e-12
3.82187e-12
4.12821e-12
4.01151e-12
3.89481e-12
4.3616e-12
3.82187e-12
4.58041e-12
3.96775e-12
5.04721e-12
4.84298e-12
6.40382e-12
7.95008e-12
1.06779e-11
1.56084e-11
2.33834e-11
3.66579e-11
5.61903e-11
8.98432e-11
1.40913e-10
2.23375e-10
3.52546e-10
5.56739e-10
8.75253e-10
1.37408e-09
2.14928e-09
3.35057e-09
5.20622e-09
8.05907e-09
1.24313e-08
1.91049e-08
2.9251e-08
4.46202e-08
6.78034e-08
1.02644e-07
1.54788e-07
2.32523e-07
3.47933e-07
5.18589e-07
7.69895e-07
1.13844e-06
1.67666e-06
2.45937e-06
3.5928e-06
5.2271e-06
7.57342e-06
1.09273e-05
1.57005e-05
2.24634e-05
3.20026e-05
4.53972e-05
6.41199e-05
9.01697e-05
0.000126246
0.000175974
0.000244195
0.000337341
0.000463902
0.00063503
0.000865276
0.00117352
0.00158412
0.00212827
0.0028457
0.00378669
0.00501439
0.00660767
0.00866426
0.0113045
0.0146753
0.0189549
0.0243578
0.03114
0.0396048
0.0501082
0.0630647
0.0789525
0.0983183
0.121781
0.150036
0.183852
0.224077
0.27163
0.327499
0.392732
0.468429
0.555729
0.655794
0.769795
0.898893
1.04422
1.20687
1.38785
1.58812
1.8085
2.04974
2.31244
2.5971
2.90405
3.23353
3.58562
3.96028
4.35735
4.77657
5.21757
5.67989
6.16299
6.66628
7.18909
7.73074
8.29051
8.86764
9.4614
10.071
10.6958
11.3349
11.9877
12.6534
13.3314
14.021
14.7216
15.4327
16.1535
16.8836
17.6225
18.3697
19.1247
19.8871
20.6565
21.4326
22.2149
23.0031
23.7969
24.5961
25.4002
26.2092
27.0228
27.8406
28.6626
29.4885
30.3181
31.1512
31.9878
32.8276
33.6704
34.5162
35.3649
36.2162
37.0701
37.9265
38.7852
39.6463
40.5094
41.3747
42.242
43.1112
43.9822
44.855
45.7295
46.6056
47.4832
48.3624
49.2431
50.1251
51.0084
51.8931
52.7789
53.666
54.5542
55.4435
56.3339
57.2253
58.1176
59.0109
59.9052
60.8003
61.6962
62.593
63.4905
64.3888
65.2879
66.1876
67.0881
67.9891
68.8909
69.7932
70.6961
71.5996
72.5037
73.4082
74.3133
75.2189
76.125
77.0316
77.9386
78.846
79.7539
80.6621
81.5708
82.4798
83.3892
84.299
85.2091
86.1196
87.0304
87.9415
88.8529
89.7646
90.6766
91.5889
92.5014
93.4142
94.3273
95.2406
96.1541
97.0679
97.9818
98.8961
99.8105
100.725
101.64
102.555
103.47
104.385
105.301
106.217
107.133
108.049
108.965
109.881
110.797
111.714
112.631
113.548
114.465
115.382
116.299
117.216
118.133
119.051
119.969
120.886
121.804
122.722
123.64
124.558
125.476
126.394
127.312
128.231
129.149
130.067
130.986
131.904
132.823
133.742
134.66
135.579
136.498
137.416
138.335
139.254
140.173
141.092
142.01
142.929
143.848
144.767
145.686
146.605
147.524
148.443
149.362
150.28
151.199
152.118
153.037
153.956
154.875
155.793
156.712
157.631
158.55
159.468
160.387
161.306
162.224
163.143
164.061
164.979
165.898
166.816
167.734
168.652
169.57
170.489
171.406
172.324
173.242
174.16
175.077
175.995
176.912
177.83
178.747
179.664
180.581
181.498
182.415
183.331
184.248
185.164
186.081
186.997
187.913
188.829
189.744
190.66
191.575
192.49
193.405
194.32
195.235
196.149
197.064
197.978
198.892
199.805
200.719
201.632
202.545
203.458
204.37
205.282
206.194
207.106
208.017
208.929
209.839
210.75
211.66
212.57
213.479
214.388
215.297
216.205
217.113
218.021
218.928
219.835
220.741
221.647
222.552
223.457
224.361
225.264
226.167
227.07
227.972
228.873
229.774
230.673
231.573
232.471
233.369
234.265
235.161
236.057
236.951
237.844
238.736
239.628
240.518
241.407
242.295
243.182
244.067
244.951
245.834
246.715
247.595
248.473
249.35
250.224
251.097
251.968
252.837
253.704
254.569
255.431
256.291
257.149
258.003
258.855
259.704
260.55
261.392
262.231
263.066
263.898
264.725
265.548
266.367
267.181
267.99
268.793
269.591
270.383
271.169
271.948
272.721
273.486
274.243
274.992
275.733
276.465
277.187
277.899
278.6
279.291
279.969
280.636
281.29
281.93
282.556
283.167
283.763
284.344
284.907
285.454
285.982
286.492
286.983
287.455
287.907
288.338
288.749
289.138
289.507
289.854
290.181
290.486
290.769
291.033
291.276
291.499
291.703
291.889
292.057
292.208
292.343
292.463
292.57
292.663
292.745
292.816
292.877
292.93
292.975
293.013
293.045
293.072
293.094
293.112
293.127
293.14
293.15
293.158
293.164
293.17
293.174
293.177
293.18
293.182
293.184
293.185
293.186
293.187
293.188
293.189
293.189
293.19
293.19
293.19
293.191
293.191
293.191
293.191
293.191
293.191
293.192
293.192
293.192
293.192
293.192
293.193
293.193
293.193
293.193
293.193
293.194
293.194
293.194
293.194
293.195
293.195
293.195
293.195
293.196
293.196
293.196
293.196
293.196
293.197
293.197
293.197
293.197
293.197
293.197
293.198
293.198
293.198
293.198
293.198
293.198
293.199
293.199
293.199
293.199
293.199
293.199
293.199
293.2
293.2
293.2
293.2
293.2
293.2
293.2
293.2
293.2
293.2
293.2
293.2
293.2
293.2
293.199
293.199
293.199
293.199
293.199
293.199
293.198
293.198
293.198
293.198
293.198
293.198
293.198
293.197
293.197
293.197
293.197
293.197
293.197
293.197
293.197
293.197
293.197
293.197
293.197
293.197
293.197
293.197
293.197
293.197
293.197
293.197
293.197
293.197
293.198
293.198
293.198
293.198
293.198
293.198
293.198
293.198
293.198
293.198
293.198
293.198
293.198
293.198
293.198
293.198
293.198
293.198
293.198
293.198
293.198
293.198
293.198
293.198
293.198
293.198
293.198
293.198
293.198
293.198
293.198
293.198
293.198
293.198
293.198
293.198
293.198
293.198
293.198
293.198
293.198
293.198
293.198
293.198
293.198
293.198
293.198
293.198
293.198
293.198
293.198
293.198
293.198
293.198
293.198
293.198
293.198
293.198
293.198
293.198
293.198
293.198
293.198
293.198
293.198
293.198
293.198
293.198
293.198
293.198
293.198
293.198
293.198
293.198
293.198
293.198
293.198
293.198
293.198
293.198
293.198
293.198
293.198
293.198
293.198
293.198
293.198
293.198
293.198
293.198
293.198
293.198
293.198
293.198
293.198
293.198
293.198
293.198
293.198
293.198
293.198
293.198
293.198
293.198
293.198
293.198
293.198
293.198
293.198
293.198
293.198
293.198
293.198
293.197
293.197
293.196
293.195
293.194
293.192
293.19
293.187
293.184
293.181
293.178
293.175
293.172
293.17
293.168
293.166
293.166
293.166
293.167
293.169
293.171
293.173
293.176
293.179
293.182
293.184
293.187
293.189
293.191
293.192
293.193
293.194
293.195
293.196
293.196
293.196
293.196
293.197
293.197
293.197
293.197
293.197
293.197
293.197
293.197
293.196
293.196
293.196
293.196
293.196
293.196
293.196
293.196
293.196
293.196
293.196
293.196
293.196
293.196
293.196
293.196
293.196
293.196
293.196
293.196
293.196
293.196
293.196
293.196
293.196
293.196
293.195
293.195
293.195
293.195
293.195
293.195
293.195
293.195
293.195
293.195
293.195
293.195
293.195
293.195
293.195
293.195
293.195
293.195
293.195
293.195
293.195
293.194
293.194
293.194
293.194
293.194
293.195
293.195
293.195
293.195
293.195
293.194
293.194
293.194
293.194
293.194
293.194
293.194
293.194
293.194
293.194
293.193
293.193
293.193
293.193
293.193
293.193
293.193
293.194
293.194
293.194
293.194
293.194
293.194
293.193
293.193
293.193
293.193
293.193
293.193
293.193
293.192
293.192
293.192
293.192
293.192
293.192
293.192
293.192
293.192
293.192
293.192
293.192
293.192
293.192
293.192
293.192
293.192
293.192
293.192
293.191
293.191
293.191
293.191
293.191
293.191
293.191
293.191
293.191
293.191
293.191
293.191
293.191
293.191
293.191
293.191
293.191
293.191
293.19
293.19
293.19
293.189
293.189
293.189
293.189
293.188
293.188
293.188
293.188
293.188
293.189
293.189
293.189
293.189
293.189
293.189
293.189
293.189
293.188
293.188
293.187
293.187
293.186
293.186
293.186
293.185
293.185
293.185
293.185
293.185
293.185
293.185
293.185
293.185
293.185
293.185
293.185
293.185
293.185
293.184
293.184
293.184
293.183
293.183
293.182
293.182
293.181
293.181
293.181
293.18
293.18
293.181
293.181
293.181
293.181
293.181
293.181
293.182
293.182
293.181
293.181
293.18
293.178
293.176
293.175
293.173
293.169
293.163
293.155
293.134
293.094
293.007
292.845
292.546
291.86
290.354
287.047
279.433
261.808
223.493
159
85.8728
27.0329
)
;

boundaryField
{
    sides
    {
        type            calculated;
        value           nonuniform List<scalar> 2(27.0329 1.66295e-12);
    }
    empty
    {
        type            empty;
    }
}


// ************************************************************************* //
