/*--------------------------------*- C++ -*----------------------------------*\
  =========                 |
  \\      /  F ield         | OpenFOAM: The Open Source CFD Toolbox
   \\    /   O peration     | Website:  https://openfoam.org
    \\  /    A nd           | Version:  9
     \\/     M anipulation  |
\*---------------------------------------------------------------------------*/
FoamFile
{
    format      ascii;
    class       surfaceScalarField;
    location    "0.009";
    object      phi;
}
// * * * * * * * * * * * * * * * * * * * * * * * * * * * * * * * * * * * * * //

dimensions      [1 0 -1 0 0 0 0];

internalField   nonuniform List<scalar> 
999
(
7.21911e-12
6.48015e-12
6.36646e-12
7.38964e-12
7.67386e-12
9.09495e-12
8.92442e-12
9.26548e-12
9.54969e-12
1.06297e-11
1.10276e-11
1.18234e-11
1.14255e-11
1.13118e-11
1.09708e-11
1.13118e-11
1.04023e-11
1.05729e-11
1.02887e-11
1.09139e-11
1.11413e-11
1.14255e-11
1.23919e-11
1.27329e-11
1.30171e-11
1.39835e-11
1.44382e-11
1.46088e-11
1.47793e-11
1.51772e-11
1.56888e-11
1.59162e-11
1.56888e-11
1.62572e-11
1.63141e-11
1.57456e-11
1.55183e-11
1.4893e-11
1.46656e-11
1.4154e-11
1.46088e-11
1.45519e-11
1.43245e-11
1.46656e-11
1.49498e-11
1.50635e-11
1.56888e-11
1.56888e-11
1.55183e-11
1.51772e-11
1.52909e-11
1.52909e-11
1.53477e-11
1.55183e-11
1.52909e-11
1.60867e-11
1.61435e-11
1.63141e-11
1.60298e-11
1.65983e-11
1.66551e-11
1.7792e-11
1.9611e-11
2.251e-11
2.79101e-11
3.61524e-11
5.05338e-11
7.48628e-11
1.14369e-10
1.77977e-10
2.79215e-10
4.40536e-10
6.96446e-10
1.10128e-09
1.73986e-09
2.7411e-09
4.30879e-09
6.75266e-09
1.05479e-08
1.642e-08
2.54718e-08
3.93705e-08
6.06307e-08
9.30263e-08
1.42199e-07
2.16547e-07
3.28514e-07
4.96473e-07
7.47415e-07
1.12083e-06
1.67425e-06
2.49108e-06
3.69175e-06
5.44929e-06
8.0112e-06
1.17299e-05
1.71046e-05
2.48395e-05
3.59229e-05
5.17349e-05
7.41934e-05
0.000105951
0.000150655
0.000213299
0.000300681
0.000422008
0.00058968
0.000820311
0.00113603
0.00156617
0.00214933
0.00293609
0.00399227
0.00540304
0.00727791
0.00975683
0.0130175
0.0172839
0.0228368
0.0300255
0.0392816
0.0511345
0.0662284
0.0853423
0.10941
0.13954
0.177044
0.223452
0.280538
0.35034
0.435176
0.53766
0.660703
0.80752
0.981621
1.18679
1.42708
1.70672
2.03016
2.40192
2.82659
3.30874
3.85282
4.46313
5.14371
5.89826
6.73011
7.64211
8.63664
9.71554
10.8801
12.131
13.4684
14.8919
16.4007
17.9933
19.668
21.4225
23.2542
25.1605
27.1382
29.184
31.2947
33.4668
35.6968
37.9812
40.3166
42.6997
45.127
47.5955
50.1019
52.6432
55.2168
57.8197
60.4494
63.1035
65.7796
68.4756
71.1894
73.9191
76.6628
79.4189
82.1857
84.9619
87.7459
90.5366
93.3327
96.133
98.9365
101.742
104.549
107.357
110.164
112.97
115.775
118.577
121.376
124.171
126.962
129.748
132.529
135.305
138.075
140.838
143.594
146.343
149.085
151.819
154.545
157.263
159.971
162.671
165.362
168.044
170.716
173.378
176.03
178.672
181.304
183.926
186.536
189.136
191.726
194.304
196.871
199.427
201.971
204.504
207.026
209.536
212.034
214.521
216.995
219.458
221.909
224.348
226.775
229.19
231.592
233.983
236.361
238.727
241.08
243.422
245.751
248.068
250.372
252.664
254.943
257.211
259.465
261.708
263.937
266.155
268.36
270.553
272.733
274.9
277.056
279.199
281.329
283.447
285.553
287.646
289.727
291.796
293.852
295.896
297.927
299.947
301.954
303.948
305.931
307.901
309.859
311.805
313.739
315.66
317.57
319.467
321.353
323.226
325.087
326.937
328.774
330.599
332.413
334.214
336.004
337.782
339.548
341.302
343.045
344.776
346.495
348.202
349.898
351.582
353.255
354.916
356.566
358.204
359.831
361.446
363.05
364.643
366.224
367.794
369.352
370.9
372.436
373.961
375.475
376.978
378.47
379.951
381.421
382.88
384.328
385.765
387.191
388.606
390.011
391.405
392.788
394.16
395.522
396.873
398.214
399.544
400.863
402.172
403.471
404.759
406.037
407.304
408.561
409.807
411.045
412.269
413.489
414.69
415.892
417.07
418.255
419.411
420.576
421.714
422.855
423.981
425.091
426.209
427.29
428.394
429.455
430.534
431.587
432.634
433.678
434.7
435.725
436.734
437.733
438.727
439.706
440.68
441.644
442.597
443.543
444.478
445.404
446.322
447.23
448.129
449.019
449.9
450.772
451.635
452.49
453.335
454.172
454.999
455.818
456.628
457.43
458.223
459.007
459.782
460.549
461.308
462.058
462.799
463.532
464.256
464.973
465.68
466.38
467.071
467.754
468.428
469.094
469.753
470.403
471.045
471.678
472.304
472.922
473.532
474.133
474.727
475.313
475.891
476.461
477.023
477.578
478.125
478.664
479.195
479.719
480.235
480.743
481.244
481.737
482.222
482.701
483.171
483.634
484.09
484.538
484.979
485.413
485.839
486.258
486.669
487.073
487.471
487.86
488.243
488.619
488.987
489.348
489.702
490.049
490.389
490.722
491.048
491.367
491.679
491.985
492.283
492.574
492.858
493.136
493.407
493.671
493.928
494.178
494.422
494.659
494.889
495.112
495.329
495.539
495.743
495.94
496.13
496.314
496.491
496.662
496.827
496.985
497.137
497.282
497.421
497.554
497.681
497.802
497.916
498.025
498.128
498.225
498.316
498.402
498.482
498.557
498.627
498.692
498.752
498.807
498.857
498.903
498.945
498.982
499.016
499.046
499.073
499.097
499.118
499.136
499.151
499.165
499.176
499.185
499.193
499.199
499.204
499.208
499.211
499.213
499.215
499.216
499.216
499.216
499.216
499.215
499.214
499.213
499.212
499.211
499.21
499.209
499.208
499.206
499.205
499.204
499.202
499.201
499.199
499.198
499.197
499.195
499.194
499.192
499.191
499.189
499.188
499.186
499.185
499.183
499.182
499.18
499.179
499.177
499.175
499.174
499.172
499.17
499.169
499.167
499.166
499.164
499.162
499.16
499.159
499.157
499.155
499.153
499.151
499.15
499.148
499.146
499.144
499.142
499.14
499.138
499.136
499.134
499.132
499.13
499.128
499.126
499.124
499.122
499.12
499.118
499.115
499.113
499.111
499.109
499.106
499.104
499.102
499.099
499.097
499.095
499.092
499.09
499.087
499.085
499.082
499.08
499.077
499.074
499.072
499.069
499.066
499.063
499.06
499.058
499.055
499.052
499.049
499.046
499.043
499.04
499.037
499.033
499.03
499.027
499.024
499.021
499.017
499.014
499.01
499.007
499.003
499
498.996
498.993
498.989
498.985
498.981
498.978
498.974
498.97
498.966
498.962
498.957
498.953
498.949
498.945
498.94
498.936
498.931
498.927
498.922
498.917
498.913
498.908
498.903
498.898
498.893
498.888
498.882
498.877
498.871
498.866
498.86
498.855
498.849
498.843
498.837
498.831
498.824
498.818
498.811
498.805
498.798
498.791
498.784
498.777
498.77
498.762
498.755
498.747
498.739
498.731
498.723
498.715
498.706
498.698
498.689
498.68
498.67
498.661
498.651
498.641
498.631
498.621
498.61
498.599
498.588
498.576
498.565
498.553
498.54
498.528
498.515
498.501
498.488
498.473
498.459
498.444
498.429
498.413
498.397
498.38
498.363
498.345
498.326
498.308
498.288
498.268
498.247
498.225
498.203
498.179
498.155
498.13
498.104
498.077
498.049
498.02
497.989
497.957
497.924
497.889
497.852
497.814
497.773
497.731
497.686
497.64
497.59
497.538
497.483
497.423
497.359
497.289
497.213
497.132
497.047
496.958
496.867
496.776
496.686
496.595
496.498
496.384
496.238
496.034
495.739
495.311
494.698
493.84
492.671
491.124
489.129
486.621
483.542
479.848
475.506
470.505
464.854
458.58
451.735
444.386
436.621
428.539
420.247
411.857
403.48
395.223
387.183
379.446
372.085
365.157
358.705
352.756
347.323
342.408
338.002
334.086
330.635
327.62
325.005
322.756
320.836
319.21
317.842
316.701
315.755
314.976
314.34
313.824
313.408
313.075
312.809
312.6
312.435
312.306
312.206
312.128
312.068
312.023
311.987
311.96
311.94
311.924
311.912
311.902
311.895
311.889
311.884
311.88
311.877
311.874
311.872
311.87
311.868
311.866
311.865
311.864
311.863
311.862
311.861
311.86
311.86
311.859
311.858
311.858
311.858
311.857
311.857
311.857
311.856
311.856
311.856
311.856
311.855
311.855
311.855
311.855
311.855
311.854
311.854
311.854
311.854
311.854
311.853
311.853
311.853
311.853
311.853
311.853
311.852
311.852
311.852
311.852
311.852
311.852
311.851
311.851
311.851
311.851
311.85
311.85
311.85
311.85
311.85
311.849
311.849
311.849
311.849
311.849
311.848
311.848
311.848
311.848
311.848
311.847
311.847
311.847
311.847
311.847
311.846
311.846
311.846
311.846
311.846
311.846
311.845
311.845
311.845
311.845
311.845
311.845
311.844
311.844
311.844
311.844
311.844
311.843
311.843
311.843
311.843
311.843
311.842
311.842
311.842
311.842
311.842
311.841
311.841
311.841
311.841
311.841
311.841
311.841
311.84
311.84
311.84
311.84
311.839
311.839
311.839
311.839
311.838
311.838
311.838
311.837
311.837
311.837
311.836
311.836
311.836
311.836
311.836
311.835
311.835
311.835
311.835
311.834
311.834
311.834
311.833
311.833
311.832
311.832
311.832
311.831
311.831
311.831
311.83
311.83
311.829
311.829
311.829
311.829
311.828
311.828
311.828
311.827
311.827
311.827
311.826
311.826
311.825
311.825
311.824
311.824
311.823
311.823
311.823
311.822
311.822
311.821
311.821
311.82
311.82
311.82
311.819
311.819
311.818
311.818
311.817
311.816
311.816
311.815
311.814
311.813
311.811
311.806
311.798
311.784
311.759
311.711
311.615
311.411
311.011
310.165
308.336
304.285
294.695
272.722
224.043
153.475
81.7078
32.5622
)
;

boundaryField
{
    sides
    {
        type            calculated;
        value           nonuniform List<scalar> 2(10.0824 -6.69388e-12);
    }
    empty
    {
        type            empty;
        value           nonuniform List<scalar> 0();
    }
}


// ************************************************************************* //
