/*--------------------------------*- C++ -*----------------------------------*\
  =========                 |
  \\      /  F ield         | OpenFOAM: The Open Source CFD Toolbox
   \\    /   O peration     | Website:  https://openfoam.org
    \\  /    A nd           | Version:  9
     \\/     M anipulation  |
\*---------------------------------------------------------------------------*/
FoamFile
{
    format      ascii;
    class       volScalarField;
    location    "0.009";
    object      rho;
}
// * * * * * * * * * * * * * * * * * * * * * * * * * * * * * * * * * * * * * //

dimensions      [1 -3 0 0 0 0 0];

internalField   nonuniform List<scalar> 
1000
(
0.997574
0.997574
0.997574
0.997574
0.997574
0.997574
0.997574
0.997574
0.997574
0.997574
0.997574
0.997574
0.997574
0.997574
0.997574
0.997574
0.997574
0.997574
0.997574
0.997574
0.997574
0.997574
0.997574
0.997574
0.997574
0.997574
0.997574
0.997574
0.997574
0.997574
0.997574
0.997574
0.997574
0.997574
0.997574
0.997574
0.997574
0.997574
0.997574
0.997574
0.997574
0.997574
0.997574
0.997574
0.997574
0.997574
0.997574
0.997574
0.997574
0.997574
0.997574
0.997574
0.997574
0.997574
0.997574
0.997574
0.997574
0.997574
0.997574
0.997574
0.997574
0.997574
0.997574
0.997574
0.997574
0.997574
0.997574
0.997574
0.997574
0.997574
0.997574
0.997574
0.997574
0.997574
0.997574
0.997574
0.997574
0.997574
0.997574
0.997574
0.997574
0.997574
0.997574
0.997574
0.997574
0.997574
0.997574
0.997574
0.997574
0.997574
0.997574
0.997574
0.997574
0.997574
0.997574
0.997574
0.997574
0.997574
0.997574
0.997574
0.997574
0.997574
0.997574
0.997574
0.997574
0.997574
0.997574
0.997574
0.997574
0.997573
0.997573
0.997573
0.997572
0.997571
0.99757
0.997569
0.997567
0.997564
0.997561
0.997557
0.997551
0.997544
0.997535
0.997524
0.99751
0.997492
0.997469
0.997442
0.997407
0.997365
0.997314
0.997252
0.997177
0.997087
0.99698
0.996854
0.996706
0.996532
0.996331
0.9961
0.995834
0.995531
0.995188
0.994803
0.994371
0.993891
0.99336
0.992775
0.992136
0.99144
0.990686
0.989874
0.989002
0.988072
0.987082
0.986034
0.984929
0.983767
0.98255
0.98128
0.979958
0.978586
0.977167
0.975702
0.974193
0.972642
0.971053
0.969425
0.967763
0.966068
0.964341
0.962586
0.960803
0.958994
0.957161
0.955305
0.953429
0.951533
0.94962
0.947689
0.945742
0.943781
0.941807
0.93982
0.937821
0.935812
0.933793
0.931764
0.929727
0.927682
0.92563
0.923572
0.921507
0.919437
0.917361
0.915281
0.913197
0.911109
0.909018
0.906923
0.904826
0.902726
0.900624
0.89852
0.896415
0.894308
0.892201
0.890092
0.887983
0.885873
0.883763
0.881653
0.879543
0.877433
0.875324
0.873215
0.871108
0.869001
0.866895
0.86479
0.862686
0.860584
0.858483
0.856384
0.854287
0.852191
0.850098
0.848006
0.845916
0.843829
0.841744
0.839661
0.83758
0.835502
0.833426
0.831353
0.829283
0.827215
0.82515
0.823087
0.821028
0.818971
0.816917
0.814867
0.812819
0.810774
0.808732
0.806694
0.804658
0.802626
0.800597
0.798571
0.796548
0.794529
0.792513
0.7905
0.788491
0.786485
0.784482
0.782483
0.780487
0.778495
0.776506
0.77452
0.772538
0.77056
0.768585
0.766614
0.764646
0.762681
0.760721
0.758764
0.75681
0.75486
0.752914
0.750971
0.749032
0.747097
0.745165
0.743237
0.741313
0.739392
0.737475
0.735562
0.733652
0.731746
0.729844
0.727945
0.72605
0.724159
0.722272
0.720388
0.718508
0.716632
0.71476
0.712891
0.711026
0.709164
0.707307
0.705453
0.703603
0.701757
0.699914
0.698075
0.69624
0.694409
0.692581
0.690758
0.688938
0.687121
0.685309
0.6835
0.681695
0.679894
0.678096
0.676302
0.674512
0.672726
0.670944
0.669165
0.66739
0.665619
0.663851
0.662088
0.660328
0.658572
0.656819
0.65507
0.653325
0.651584
0.649847
0.648113
0.646383
0.644657
0.642934
0.641217
0.639499
0.637792
0.636078
0.634385
0.632667
0.630998
0.629265
0.627634
0.62587
0.624293
0.622483
0.620968
0.619117
0.617644
0.615789
0.614306
0.612507
0.610955
0.609256
0.607619
0.606004
0.604327
0.602731
0.60108
0.599458
0.597847
0.596213
0.59461
0.592997
0.591385
0.589789
0.588185
0.586589
0.585001
0.583409
0.581825
0.580246
0.578667
0.577094
0.575525
0.573958
0.572397
0.570838
0.569283
0.567732
0.566186
0.564642
0.563102
0.561566
0.560034
0.558506
0.556981
0.55546
0.553944
0.55243
0.550921
0.549415
0.547913
0.546416
0.544921
0.543431
0.541945
0.540463
0.538984
0.537509
0.536039
0.534571
0.533109
0.53165
0.530195
0.528744
0.527297
0.525854
0.524415
0.52298
0.521549
0.520123
0.5187
0.517283
0.515868
0.514459
0.513053
0.511652
0.510255
0.508862
0.507475
0.506091
0.504712
0.503337
0.501968
0.500602
0.499242
0.497886
0.496535
0.495189
0.493849
0.492513
0.491182
0.489857
0.488536
0.487222
0.485912
0.484609
0.483311
0.482019
0.480733
0.479454
0.47818
0.476913
0.475652
0.474399
0.473152
0.471912
0.47068
0.469455
0.468238
0.467029
0.465828
0.464636
0.463453
0.462278
0.461114
0.459959
0.458814
0.45768
0.456556
0.455444
0.454344
0.453257
0.452182
0.45112
0.450072
0.449039
0.44802
0.447018
0.446031
0.445062
0.44411
0.443177
0.442262
0.441368
0.440494
0.439641
0.438811
0.438004
0.43722
0.436461
0.435728
0.43502
0.434338
0.433684
0.433058
0.43246
0.431891
0.43135
0.430839
0.430357
0.429904
0.42948
0.429086
0.428719
0.428381
0.42807
0.427785
0.427525
0.42729
0.427078
0.426887
0.426718
0.426567
0.426435
0.426318
0.426217
0.426129
0.426054
0.425989
0.425934
0.425887
0.425848
0.425815
0.425788
0.425765
0.425746
0.42573
0.425718
0.425707
0.425698
0.425691
0.425685
0.42568
0.425675
0.425672
0.425668
0.425666
0.425663
0.425661
0.425658
0.425656
0.425654
0.425653
0.425651
0.425649
0.425648
0.425646
0.425645
0.425643
0.425641
0.42564
0.425638
0.425637
0.425635
0.425633
0.425631
0.42563
0.425628
0.425626
0.425624
0.425623
0.425621
0.425619
0.425617
0.425615
0.425613
0.425611
0.425609
0.425608
0.425606
0.425604
0.425602
0.4256
0.425598
0.425596
0.425594
0.425592
0.42559
0.425588
0.425586
0.425584
0.425582
0.42558
0.425577
0.425575
0.425573
0.425571
0.425569
0.425567
0.425564
0.425562
0.42556
0.425558
0.425556
0.425553
0.425551
0.425549
0.425547
0.425544
0.425542
0.42554
0.425538
0.425535
0.425533
0.425531
0.425528
0.425526
0.425524
0.425522
0.425519
0.425517
0.425515
0.425512
0.42551
0.425507
0.425505
0.425502
0.4255
0.425497
0.425494
0.425492
0.425489
0.425486
0.425483
0.42548
0.425477
0.425474
0.425471
0.425467
0.425464
0.425461
0.425457
0.425454
0.42545
0.425447
0.425443
0.42544
0.425436
0.425432
0.425428
0.425425
0.425421
0.425417
0.425413
0.425409
0.425404
0.4254
0.425396
0.425392
0.425387
0.425383
0.425378
0.425373
0.425369
0.425364
0.425359
0.425354
0.425349
0.425344
0.425339
0.425333
0.425328
0.425323
0.425317
0.425311
0.425305
0.4253
0.425293
0.425287
0.425281
0.425275
0.425268
0.425262
0.425255
0.425248
0.425241
0.425234
0.425226
0.425219
0.425211
0.425203
0.425195
0.425187
0.425179
0.42517
0.425161
0.425152
0.425143
0.425134
0.425124
0.425114
0.425104
0.425094
0.425083
0.425072
0.425061
0.425049
0.425037
0.425025
0.425013
0.425
0.424986
0.424973
0.424959
0.424944
0.424929
0.424914
0.424898
0.424882
0.424865
0.424847
0.424829
0.42481
0.424791
0.424771
0.42475
0.424728
0.424705
0.424682
0.424657
0.424632
0.424605
0.424577
0.424548
0.424518
0.424485
0.424452
0.424417
0.42438
0.424341
0.4243
0.424257
0.424211
0.424162
0.42411
0.424052
0.42399
0.423924
0.423852
0.423777
0.4237
0.423623
0.423546
0.423469
0.42339
0.423303
0.423197
0.423054
0.422849
0.422551
0.422119
0.421505
0.420656
0.419514
0.418019
0.416113
0.413744
0.410866
0.407447
0.403468
0.398926
0.393837
0.388235
0.382171
0.375711
0.368936
0.361934
0.354799
0.347628
0.340514
0.333546
0.3268
0.320347
0.314242
0.308527
0.303232
0.298375
0.293962
0.289988
0.286442
0.283306
0.280554
0.278159
0.276092
0.274322
0.272817
0.271547
0.270484
0.2696
0.26887
0.268272
0.267785
0.267392
0.267075
0.266823
0.266623
0.266466
0.266342
0.266246
0.266171
0.266114
0.26607
0.266036
0.26601
0.26599
0.265974
0.265963
0.265954
0.265946
0.265941
0.265936
0.265932
0.265929
0.265927
0.265925
0.265923
0.265922
0.26592
0.265919
0.265918
0.265917
0.265917
0.265916
0.265915
0.265915
0.265914
0.265914
0.265913
0.265913
0.265913
0.265912
0.265912
0.265912
0.265912
0.265911
0.265911
0.265911
0.265911
0.265911
0.265911
0.265911
0.265911
0.265911
0.26591
0.26591
0.26591
0.26591
0.26591
0.26591
0.26591
0.26591
0.265909
0.265909
0.265909
0.265909
0.265909
0.265909
0.265909
0.265909
0.265908
0.265908
0.265908
0.265908
0.265908
0.265908
0.265908
0.265908
0.265908
0.265908
0.265907
0.265907
0.265907
0.265907
0.265907
0.265906
0.265906
0.265906
0.265906
0.265906
0.265906
0.265906
0.265906
0.265906
0.265906
0.265906
0.265906
0.265906
0.265905
0.265905
0.265905
0.265905
0.265905
0.265905
0.265905
0.265904
0.265904
0.265904
0.265904
0.265904
0.265904
0.265904
0.265904
0.265904
0.265904
0.265904
0.265904
0.265904
0.265903
0.265903
0.265903
0.265903
0.265903
0.265903
0.265903
0.265902
0.265902
0.265902
0.265902
0.265902
0.265902
0.265902
0.265902
0.265901
0.265901
0.265901
0.265902
0.265902
0.265901
0.265901
0.265901
0.265901
0.265901
0.265901
0.265901
0.2659
0.2659
0.2659
0.265899
0.265899
0.265899
0.265899
0.265899
0.265899
0.265899
0.265899
0.265899
0.265899
0.265899
0.265899
0.265899
0.265899
0.265899
0.265898
0.265898
0.265898
0.265897
0.265897
0.265897
0.265896
0.265896
0.265896
0.265896
0.265896
0.265896
0.265896
0.265896
0.265896
0.265896
0.265896
0.265896
0.265896
0.265896
0.265896
0.265895
0.265895
0.265895
0.265894
0.265894
0.265893
0.265893
0.265892
0.265892
0.265891
0.265891
0.265891
0.265891
0.265892
0.265892
0.265891
0.26589
0.265888
0.265885
0.265878
0.265865
0.265841
0.265782
0.265678
0.265455
0.264982
0.264
0.261743
0.256428
0.244105
0.21942
0.18662
0.156253
0.136868
)
;

boundaryField
{
    sides
    {
        type            calculated;
        value           nonuniform List<scalar> 2(0.136868 0.997574);
    }
    empty
    {
        type            empty;
    }
}


// ************************************************************************* //
