/*--------------------------------*- C++ -*----------------------------------*\
  =========                 |
  \\      /  F ield         | OpenFOAM: The Open Source CFD Toolbox
   \\    /   O peration     | Website:  https://openfoam.org
    \\  /    A nd           | Version:  9
     \\/     M anipulation  |
\*---------------------------------------------------------------------------*/
FoamFile
{
    format      ascii;
    class       volScalarField;
    location    "0.035";
    object      p_0;
}
// * * * * * * * * * * * * * * * * * * * * * * * * * * * * * * * * * * * * * //

dimensions      [1 -1 -2 0 0 0 0];

internalField   nonuniform List<scalar> 
1000
(
15581.6
15579.3
15575.6
15572.4
15569.6
15566.8
15564
15561.2
15558.3
15555.5
15552.7
15549.9
15547
15544.2
15541.4
15538.6
15535.7
15532.9
15530.1
15527.3
15524.5
15521.7
15518.8
15516
15513.2
15510.4
15507.6
15504.8
15502
15499.2
15496.4
15493.6
15490.8
15488
15485.2
15482.4
15479.6
15476.8
15474.1
15471.3
15468.5
15465.7
15462.9
15460.1
15457.3
15454.6
15451.8
15449
15446.2
15443.4
15440.7
15437.9
15435.1
15432.3
15429.6
15426.8
15424
15421.3
15418.5
15415.7
15413
15410.2
15407.4
15404.7
15401.9
15399.1
15396.4
15393.6
15390.9
15388.1
15385.4
15382.6
15379.8
15377.1
15374.3
15371.6
15368.9
15366.1
15363.4
15360.6
15357.9
15355.1
15352.4
15349.6
15346.9
15344.2
15341.4
15338.7
15336
15333.2
15330.5
15327.8
15325.1
15322.3
15319.6
15316.9
15314.2
15311.4
15308.7
15306
15303.3
15300.6
15297.9
15295.2
15292.4
15289.7
15287
15284.3
15281.6
15278.9
15276.2
15273.5
15270.8
15268.1
15265.5
15262.8
15260.1
15257.4
15254.7
15252
15249.3
15246.7
15244
15241.3
15238.6
15236
15233.3
15230.6
15228
15225.3
15222.6
15220
15217.3
15214.7
15212
15209.4
15206.7
15204.1
15201.5
15198.8
15196.2
15193.5
15190.9
15188.3
15185.7
15183
15180.4
15177.8
15175.2
15172.6
15170
15167.4
15164.8
15162.2
15159.6
15157
15154.4
15151.8
15149.2
15146.7
15144.1
15141.5
15138.9
15136.4
15133.8
15131.3
15128.7
15126.2
15123.6
15121.1
15118.5
15116
15113.5
15110.9
15108.4
15105.9
15103.4
15100.9
15098.4
15095.9
15093.4
15090.9
15088.4
15086
15083.5
15081
15078.6
15076.1
15073.6
15071.2
15068.8
15066.3
15063.9
15061.5
15059.1
15056.7
15054.3
15051.9
15049.5
15047.1
15044.7
15042.3
15040
15037.6
15035.3
15032.9
15030.6
15028.3
15026
15023.7
15021.4
15019.1
15016.8
15014.5
15012.3
15010
15007.8
15005.5
15003.3
15001.1
14998.9
14996.7
14994.5
14992.3
14990.1
14988
14985.8
14983.7
14981.6
14979.5
14977.4
14975.3
14973.2
14971.2
14969.1
14967.1
14965.1
14963.1
14961.1
14959.1
14957.2
14955.2
14953.3
14951.4
14949.5
14947.6
14945.8
14943.9
14942.1
14940.3
14938.5
14936.7
14935
14933.3
14931.6
14929.9
14928.2
14926.6
14924.9
14923.3
14921.8
14920.2
14918.7
14917.2
14915.7
14914.2
14912.8
14911.4
14910
14908.7
14907.4
14906.1
14904.9
14903.6
14902.4
14901.3
14900.2
14899.1
14898
14897
14896
14895.1
14894.2
14893.3
14892.5
14891.7
14891
14890.3
14889.7
14889
14888.5
14888
14887.5
14887.1
14886.8
14886.4
14886.2
14886
14885.8
14885.7
14885.7
14885.7
14885.7
14885.7
14885.8
14885.9
14886.2
14886.5
14887
14887.5
14888.2
14888.9
14889.7
14890.6
14891.5
14892.5
14893.7
14894.8
14896.1
14897.5
14899
14900.5
14902.1
14903.9
14905.7
14907.7
14909.7
14911.8
14914.1
14916.4
14918.9
14921.5
14924.2
14927
14930
14933
14936.2
14939.5
14942.9
14946.5
14950.2
14954
14958
14962.1
14966.4
14970.7
14975.3
14980
14984.8
14989.7
14994.9
15000.1
15005.5
15011.1
15016.8
15022.7
15028.8
15034.9
15041.3
15047.8
15054.5
15061.3
15068.3
15075.4
15082.7
15090.1
15097.7
15105.5
15113.4
15121.4
15129.7
15138
15146.5
15155.2
15164
15172.9
15182
15191.2
15200.5
15210
15219.6
15229.4
15239.2
15249.2
15259.3
15269.5
15279.8
15290.2
15300.7
15311.4
15322.1
15332.9
15343.8
15354.8
15365.9
15377
15388.2
15399.5
15410.9
15422.3
15433.8
15445.4
15457
15468.7
15480.4
15492.2
15504
15515.8
15527.7
15539.7
15551.7
15563.7
15575.7
15587.8
15599.9
15612.1
15624.2
15636.4
15648.7
15660.9
15673.2
15685.5
15697.8
15710.1
15722.4
15734.8
15747.2
15759.6
15772
15784.4
15796.9
15809.4
15821.8
15834.3
15846.8
15859.4
15871.9
15884.4
15897
15909.6
15922.2
15934.8
15947.4
15960
15972.6
15985.3
15998
16010.6
16023.3
16036
16048.7
16061.4
16074.2
16086.9
16099.7
16112.5
16125.2
16138
16150.8
16163.7
16176.5
16189.3
16202.2
16215.1
16227.9
16240.8
16253.7
16266.6
16279.6
16292.5
16305.4
16318.4
16331.4
16344.4
16357.3
16370.4
16383.4
16396.4
16409.4
16422.5
16435.6
16448.6
16461.7
16474.8
16488
16501.1
16514.2
16527.4
16540.5
16553.7
16566.9
16580.1
16593.3
16606.5
16619.8
16633
16646.3
16659.5
16672.8
16686.1
16699.4
16712.7
16726.1
16739.4
16752.8
16766.1
16779.5
16792.9
16806.3
16819.7
16833.2
16846.6
16860.1
16873.5
16887
16900.5
16914
16927.6
16941.1
16954.6
16968.2
16981.8
16995.3
17008.9
17022.5
17036.2
17049.8
17063.5
17077.1
17090.8
17104.5
17118.2
17131.9
17145.6
17159.4
17173.1
17186.9
17200.6
17214.4
17228.2
17242.1
17255.9
17269.7
17283.6
17297.5
17311.3
17325.2
17339.2
17353.1
17367
17381
17394.9
17408.9
17422.9
17436.9
17450.9
17464.9
17479
17493
17507.1
17521.2
17535.3
17549.4
17563.5
17577.7
17591.8
17606
17620.2
17634.4
17648.6
17662.8
17677
17691.3
17705.6
17719.8
17734.1
17748.4
17762.7
17777.1
17791.4
17805.8
17820.1
17834.5
17848.9
17863.3
17877.8
17892.2
17906.7
17921.1
17935.6
17950.1
17964.6
17979.2
17993.7
18008.3
18022.8
18037.4
18052
18066.6
18081.3
18095.9
18110.5
18125.2
18139.9
18154.6
18169.3
18184
18198.8
18213.5
18228.3
18243.1
18257.9
18272.7
18287.5
18302.3
18317.2
18332.1
18346.9
18361.8
18376.8
18391.7
18406.6
18421.6
18436.5
18451.5
18466.5
18481.5
18496.6
18511.6
18526.7
18541.7
18556.8
18571.9
18587
18602.2
18617.3
18632.5
18647.6
18662.8
18678
18693.2
18708.5
18723.7
18739
18754.2
18769.5
18784.8
18800.2
18815.5
18830.8
18846.2
18861.6
18877
18892.4
18907.8
18923.2
18938.7
18954.2
18969.6
18985.1
19000.7
19016.2
19031.7
19047.3
19062.9
19078.4
19094
19109.7
19125.3
19140.9
19156.6
19172.3
19188
19203.7
19219.4
19235.1
19250.9
19266.6
19282.4
19298.2
19314
19329.8
19345.7
19361.5
19377.4
19393.3
19409.2
19425.1
19441.1
19457
19473
19488.9
19504.9
19520.9
19537
19553
19569.1
19585.1
19601.2
19617.3
19633.4
19649.5
19665.7
19681.9
19698
19714.2
19730.4
19746.7
19762.9
19779.1
19795.4
19811.7
19828
19844.3
19860.6
19877
19893.4
19909.7
19926.1
19942.5
19959
19975.4
19991.9
20008.3
20024.8
20041.3
20057.9
20074.4
20091
20107.6
20124.1
20140.8
20157.4
20174
20190.7
20207.4
20224.1
20240.8
20257.5
20274.3
20291
20307.8
20324.6
20341.5
20358.3
20375.2
20392.1
20409
20425.9
20442.9
20459.8
20476.8
20493.8
20510.9
20528
20545
20562.2
20579.3
20596.5
20613.7
20630.9
20648.1
20665.4
20682.7
20700.1
20717.4
20734.8
20752.3
20769.7
20787.2
20804.8
20822.4
20840
20857.6
20875.4
20893.1
20910.9
20928.7
20946.6
20964.6
20982.5
21000.6
21018.7
21036.8
21055
21073.3
21091.7
21110.1
21128.5
21147.1
21165.7
21184.4
21203.1
21221.9
21240.9
21259.9
21279
21298.1
21317.4
21336.8
21356.3
21375.8
21395.5
21415.3
21435.1
21455.1
21475.2
21495.5
21515.8
21536.3
21556.9
21577.6
21598.4
21619.4
21640.5
21661.8
21683.2
21704.7
21726.4
21748.3
21770.2
21792.4
21814.7
21837.1
21859.7
21882.4
21905.3
21928.4
21951.6
21975
21998.5
22022.2
22046.1
22070.1
22094.2
22118.6
22143.1
22167.7
22192.5
22217.4
22242.5
22267.7
22293.1
22318.6
22344.2
22370
22395.9
22421.9
22448.1
22474.3
22500.7
22527.2
22553.7
22580.4
22607.1
22634
22660.8
22687.8
22714.8
22741.9
22769
22796.2
22823.4
22850.6
22877.9
22905.1
22932.4
22959.6
22986.9
23014.1
23041.3
23068.5
23095.7
23122.8
23149.8
23176.8
23203.8
23230.7
23257.5
23284.2
23310.8
23337.4
23363.9
23390.2
23416.5
23442.7
23468.8
23494.7
23520.6
23546.3
23571.9
23597.4
23622.8
23648.1
23673.2
23698.2
23723.1
23747.9
23772.5
23797.1
23821.5
23845.8
23870
23894
23918
23941.8
23965.5
23989.2
24012.7
24036.1
24059.4
24082.6
24105.7
24128.7
24151.6
24174.5
24197.2
24219.9
24242.4
24264.9
24287.4
24309.7
24332
24354.2
24376.3
24398.4
24420.5
24442.5
24464.4
24486.2
24508.1
24529.9
24551.6
24573.3
24595
24616.6
24638.2
24659.8
24681.3
24702.9
24724.4
24745.8
24767.3
24788.7
24810.1
24831.5
24852.9
24874.2
24895.6
24916.9
24938.3
24959.6
24980.9
25002.3
25023.6
25045
25066.3
25087.7
25109.1
25130.6
25152.2
25173.8
25195.5
25217.4
25239.4
25261.7
25284.1
25306.9
25330
25353.5
25377.4
25401.8
25426.8
25452.4
25478.7
25505.6
25533.4
25561.8
25591.1
25621.1
25651.9
25683.4
25715.6
25748.4
25781.7
25815.5
25849.7
25884.1
25918.7
25953.4
25988.1
26022.7
26057.3
26091.6
26125.7
26159.6
26193.3
26226.4
26259.6
26291.3
)
;

boundaryField
{
    sides
    {
        type            zeroGradient;
    }
    empty
    {
        type            empty;
    }
}


// ************************************************************************* //
