/*--------------------------------*- C++ -*----------------------------------*\
  =========                 |
  \\      /  F ield         | OpenFOAM: The Open Source CFD Toolbox
   \\    /   O peration     | Website:  https://openfoam.org
    \\  /    A nd           | Version:  9
     \\/     M anipulation  |
\*---------------------------------------------------------------------------*/
FoamFile
{
    format      ascii;
    class       surfaceScalarField;
    location    "0.035";
    object      phi_0;
}
// * * * * * * * * * * * * * * * * * * * * * * * * * * * * * * * * * * * * * //

dimensions      [1 0 -1 0 0 0 0];

internalField   nonuniform List<scalar> 
999
(
19.9849
20.3466
20.708
21.0693
21.4304
21.7913
22.152
22.5126
22.8731
23.2333
23.5932
23.9529
24.3124
24.672
25.0316
25.3909
25.7499
26.1084
26.4667
26.8247
27.1828
27.541
27.8994
28.2578
28.6159
28.9737
29.3309
29.6875
30.0436
30.3993
30.7548
31.1105
31.4665
31.8229
32.1798
32.5374
32.8953
33.2536
33.6121
33.9707
34.3292
34.6876
35.0461
35.4047
35.7639
36.1237
36.4835
36.8432
37.203
37.5626
37.9222
38.2818
38.6412
39.0005
39.3598
39.719
40.0781
40.4371
40.7962
41.155
41.5139
41.8726
42.2313
42.59
42.9485
43.307
43.6653
44.0237
44.3819
44.7402
45.0981
45.4563
45.8142
46.172
46.53
46.8875
47.2454
47.6029
47.9603
48.318
48.6751
49.0325
49.3898
49.7467
50.104
50.461
50.8176
51.1748
51.5314
51.8879
52.2449
52.6012
52.9575
53.3142
53.6703
54.0263
54.3829
54.7388
55.0944
55.4508
55.8066
56.1619
56.5179
56.8738
57.2287
57.5843
57.9401
58.2949
58.6499
59.0056
59.3604
59.7148
60.0702
60.4253
60.7792
61.1339
61.4892
61.8432
62.197
62.552
62.9064
63.2597
63.6138
63.9685
64.322
64.6752
65.0294
65.3834
65.7363
66.0895
66.4435
66.7968
67.1492
67.5025
67.8561
68.2087
68.5609
68.9141
69.2672
69.6192
69.9712
70.3242
70.6768
71.0283
71.3801
71.7328
72.0849
72.436
72.7875
73.1399
73.4916
73.8422
74.1934
74.5454
74.8968
75.247
75.5977
75.9494
76.3005
76.6503
77.0004
77.3517
77.7026
78.0521
78.4015
78.7523
79.103
79.4523
79.8012
80.1512
80.5017
80.851
81.1993
81.5484
81.8986
82.2479
82.5959
82.9441
83.2936
83.6429
83.9909
84.3383
84.6868
85.0359
85.384
85.7309
86.0784
86.4269
86.7751
87.1219
87.4684
87.816
88.1641
88.5111
88.8569
89.2032
89.5507
89.898
90.2438
90.589
90.9352
91.2823
91.6286
91.9734
92.3181
92.664
93.0106
93.356
93.6999
94.0441
94.3896
94.7354
95.0798
95.4231
95.7668
96.1118
96.4567
96.8002
97.1428
97.486
97.8304
98.1744
98.517
98.8588
99.2015
99.5452
99.8884
100.23
100.571
100.913
101.256
101.598
101.939
102.279
102.62
102.962
103.304
103.645
103.984
104.323
104.664
105.005
105.345
105.683
106.022
106.362
106.702
107.041
107.378
107.716
108.054
108.393
108.732
109.068
109.404
109.741
110.079
110.417
110.753
111.088
111.423
111.759
112.096
112.432
112.766
113.099
113.433
113.769
114.104
114.437
114.769
115.101
115.435
115.769
116.101
116.432
116.763
117.094
117.426
117.758
118.088
118.417
118.745
119.074
119.405
119.735
120.063
120.389
120.716
121.043
121.371
121.698
122.024
122.349
122.673
122.998
123.323
123.648
123.971
124.294
124.616
124.939
125.262
125.585
125.907
126.227
126.547
126.866
127.186
127.504
127.822
128.138
128.454
128.77
129.085
129.401
129.715
130.028
130.341
130.653
130.965
131.276
131.587
131.896
132.205
132.513
132.821
133.128
133.435
133.74
134.044
134.348
134.651
134.954
135.256
135.557
135.856
136.155
136.454
136.751
137.048
137.344
137.639
137.933
138.226
138.519
138.811
139.101
139.391
139.679
139.966
140.254
140.54
140.826
141.11
141.393
141.675
141.957
142.238
142.518
142.796
143.074
143.35
143.627
143.902
144.177
144.451
144.723
144.995
145.266
145.536
145.806
146.076
146.344
146.611
146.877
147.143
147.409
147.674
147.938
148.202
148.464
148.727
148.989
149.251
149.513
149.774
150.034
150.293
150.553
150.812
151.072
151.331
151.59
151.848
152.106
152.364
152.623
152.881
153.139
153.396
153.653
153.911
154.169
154.427
154.686
154.943
155.201
155.459
155.717
155.976
156.235
156.493
156.752
157.01
157.269
157.529
157.789
158.05
158.31
158.57
158.83
159.09
159.352
159.613
159.875
160.137
160.399
160.661
160.924
161.187
161.451
161.715
161.978
162.242
162.506
162.771
163.036
163.302
163.568
163.834
164.1
164.366
164.634
164.901
165.169
165.437
165.705
165.973
166.242
166.511
166.781
167.051
167.321
167.591
167.862
168.133
168.404
168.677
168.949
169.221
169.494
169.766
170.039
170.313
170.588
170.862
171.137
171.412
171.687
171.962
172.239
172.515
172.792
173.069
173.346
173.623
173.901
174.18
174.459
174.738
175.017
175.296
175.576
175.856
176.137
176.419
176.7
176.982
177.263
177.545
177.828
178.111
178.395
178.679
178.962
179.246
179.531
179.816
180.101
180.387
180.674
180.96
181.246
181.533
181.82
182.108
182.397
182.685
182.974
183.262
183.551
183.841
184.131
184.422
184.713
185.004
185.295
185.586
185.878
186.171
186.464
186.757
187.051
187.344
187.638
187.932
188.227
188.523
188.819
189.115
189.41
189.707
190.004
190.301
190.599
190.897
191.196
191.494
191.793
192.092
192.392
192.692
192.993
193.294
193.595
193.896
194.198
194.5
194.803
195.106
195.409
195.713
196.016
196.32
196.625
196.93
197.236
197.542
197.848
198.154
198.46
198.768
199.076
199.384
199.692
200.001
200.309
200.618
200.928
201.238
201.549
201.86
202.171
202.482
202.794
203.106
203.419
203.732
204.046
204.359
204.673
204.987
205.302
205.617
205.933
206.249
206.565
206.881
207.198
207.515
207.833
208.152
208.47
208.789
209.107
209.427
209.747
210.068
210.389
210.709
211.031
211.352
211.674
211.997
212.32
212.644
212.967
213.291
213.615
213.94
214.265
214.591
214.917
215.243
215.569
215.896
216.224
216.552
216.88
217.209
217.538
217.867
218.196
218.526
218.857
219.188
219.52
219.851
220.183
220.515
220.847
221.181
221.515
221.849
222.183
222.517
222.852
223.187
223.523
223.86
224.197
224.534
224.871
225.208
225.546
225.885
226.224
226.564
226.904
227.243
227.584
227.925
228.266
228.608
228.95
229.293
229.635
229.978
230.322
230.666
231.011
231.356
231.701
232.046
232.392
232.738
233.085
233.433
233.78
234.129
234.477
234.826
235.174
235.524
235.874
236.225
236.576
236.927
237.279
237.63
237.983
238.336
238.689
239.043
239.396
239.751
240.105
240.461
240.816
241.173
241.529
241.886
242.244
242.601
242.959
243.317
243.677
244.035
244.396
244.756
245.116
245.477
245.838
246.201
246.562
246.925
247.288
247.652
248.016
248.38
248.745
249.109
249.475
249.841
250.207
250.574
250.941
251.309
251.676
252.045
252.413
252.783
253.152
253.523
253.893
254.264
254.635
255.007
255.379
255.752
256.125
256.498
256.873
257.246
257.621
257.996
258.372
258.747
259.124
259.5
259.877
260.255
260.633
261.012
261.39
261.77
262.149
262.529
262.91
263.29
263.672
264.053
264.436
264.817
265.201
265.584
265.967
266.352
266.736
267.121
267.506
267.892
268.278
268.664
269.051
269.438
269.826
270.213
270.602
270.99
271.379
271.768
272.158
272.548
272.938
273.33
273.72
274.112
274.504
274.894
275.288
275.68
276.073
276.466
276.86
277.253
277.647
278.042
278.435
278.831
279.226
279.62
280.017
280.412
280.807
281.205
281.6
281.996
282.394
282.79
283.186
283.585
283.981
284.378
284.776
285.174
285.57
285.969
286.367
286.764
287.163
287.561
287.959
288.357
288.756
289.153
289.552
289.95
290.348
290.747
291.146
291.544
291.942
292.341
292.739
293.138
293.537
293.935
294.334
294.733
295.131
295.53
295.929
296.328
296.726
297.126
297.525
297.924
298.323
298.723
299.122
299.522
299.922
300.322
300.722
301.122
301.524
301.924
302.325
302.727
303.129
303.531
303.934
304.337
304.74
305.144
305.548
305.953
306.358
306.763
307.171
307.577
307.984
308.393
308.802
309.211
309.621
310.033
310.444
310.857
311.271
311.685
312.1
312.516
312.933
313.35
313.769
314.189
314.61
315.031
315.454
315.878
316.303
316.728
317.155
317.583
318.012
318.441
318.873
319.304
319.738
320.172
320.607
321.043
321.481
321.919
322.359
322.799
323.242
323.683
324.127
324.572
325.019
325.465
325.913
326.361
326.811
327.262
327.714
328.166
328.62
329.075
329.53
329.986
330.443
330.902
331.361
331.82
332.281
332.744
333.206
333.668
334.132
334.599
335.065
335.529
335.995
336.464
336.935
337.404
337.872
338.342
338.815
339.289
339.761
340.233
340.707
341.183
341.659
342.135
342.611
343.088
343.567
344.047
344.526
345.005
345.485
345.967
346.449
346.932
347.414
347.897
348.381
348.866
349.352
349.838
350.323
350.81
351.296
351.783
352.271
352.759
353.246
353.734
354.221
354.708
355.194
355.68
356.165
356.649
357.132
357.614
358.094
358.573
359.05
359.526
360
360.472
360.943
361.413
361.882
362.349
362.816
363.282
363.748
364.215
364.682
365.149
365.617
366.086
366.556
367.029
367.502
367.977
368.453
368.931
369.41
369.891
)
;

boundaryField
{
    sides
    {
        type            calculated;
        value           nonuniform List<scalar> 2(370.374 -19.6231);
    }
    empty
    {
        type            empty;
        value           nonuniform List<scalar> 0();
    }
}


// ************************************************************************* //
