/*--------------------------------*- C++ -*----------------------------------*\
  =========                 |
  \\      /  F ield         | OpenFOAM: The Open Source CFD Toolbox
   \\    /   O peration     | Website:  https://openfoam.org
    \\  /    A nd           | Version:  9
     \\/     M anipulation  |
\*---------------------------------------------------------------------------*/
FoamFile
{
    format      ascii;
    class       volScalarField;
    location    "0.035";
    object      rho;
}
// * * * * * * * * * * * * * * * * * * * * * * * * * * * * * * * * * * * * * //

dimensions      [1 -3 0 0 0 0 0];

internalField   nonuniform List<scalar> 
1000
(
0.266185
0.266132
0.266043
0.26596
0.265883
0.265806
0.265727
0.265649
0.265572
0.265496
0.265418
0.265338
0.265259
0.265182
0.265106
0.265032
0.264956
0.264878
0.264798
0.264717
0.264637
0.26456
0.264487
0.264416
0.264346
0.264275
0.2642
0.264122
0.26404
0.263956
0.263872
0.263789
0.263709
0.263634
0.263566
0.263502
0.263445
0.263392
0.263341
0.263293
0.263246
0.263199
0.263152
0.263106
0.263063
0.263027
0.262994
0.26296
0.262927
0.262894
0.262861
0.262827
0.262794
0.262761
0.262727
0.262694
0.26266
0.262628
0.262593
0.262562
0.262525
0.262496
0.262458
0.262429
0.262391
0.262362
0.262324
0.262295
0.262258
0.262227
0.262193
0.262158
0.262128
0.262091
0.262061
0.262026
0.261992
0.261962
0.261924
0.261894
0.261861
0.261825
0.261795
0.26176
0.261726
0.261696
0.261659
0.261627
0.261596
0.261559
0.261528
0.261497
0.26146
0.261429
0.261398
0.261361
0.261329
0.261299
0.261262
0.26123
0.261201
0.261164
0.26113
0.261102
0.261067
0.261031
0.261002
0.26097
0.260932
0.260902
0.260872
0.260835
0.260802
0.260774
0.260739
0.260703
0.260674
0.260643
0.260606
0.260574
0.260546
0.260511
0.260475
0.260446
0.260416
0.260379
0.260346
0.260318
0.260285
0.260248
0.260218
0.260189
0.260154
0.260119
0.26009
0.26006
0.260024
0.259991
0.259963
0.259931
0.259895
0.259863
0.259835
0.259802
0.259767
0.259736
0.259708
0.259675
0.259639
0.259609
0.259581
0.259547
0.259512
0.259482
0.259455
0.259421
0.259386
0.259356
0.259329
0.259296
0.25926
0.25923
0.259203
0.259172
0.259136
0.259104
0.259078
0.259048
0.259013
0.25898
0.258953
0.258925
0.258891
0.258856
0.258828
0.258801
0.258769
0.258735
0.258704
0.258678
0.258649
0.258615
0.258582
0.258555
0.258528
0.258496
0.258462
0.258433
0.258407
0.258378
0.258344
0.258313
0.258287
0.25826
0.258228
0.258195
0.258167
0.258142
0.258114
0.258081
0.258049
0.258023
0.257998
0.257969
0.257936
0.257906
0.257881
0.257856
0.257826
0.257793
0.257765
0.257741
0.257715
0.257685
0.257654
0.257627
0.257603
0.257577
0.257548
0.257517
0.257492
0.257468
0.257443
0.257413
0.257384
0.257359
0.257337
0.257311
0.257282
0.257254
0.25723
0.257208
0.257184
0.257156
0.257127
0.257103
0.257083
0.257061
0.257034
0.257006
0.256982
0.256962
0.256941
0.256916
0.256889
0.256865
0.256845
0.256826
0.256803
0.256777
0.256754
0.256734
0.256716
0.256696
0.256671
0.256648
0.256629
0.256613
0.256595
0.256573
0.256549
0.25653
0.256515
0.2565
0.256482
0.25646
0.256439
0.256424
0.256411
0.256397
0.256379
0.256359
0.256343
0.256331
0.25632
0.256306
0.256289
0.256273
0.256262
0.256253
0.256243
0.256229
0.256215
0.256203
0.256195
0.256189
0.256181
0.256171
0.256161
0.256152
0.256146
0.256144
0.256139
0.256133
0.256127
0.256121
0.25612
0.25612
0.256117
0.256116
0.256114
0.256113
0.256114
0.256116
0.256117
0.256119
0.256121
0.256125
0.256131
0.256139
0.256148
0.256157
0.256166
0.256176
0.256187
0.256201
0.256216
0.256231
0.256246
0.256262
0.25628
0.2563
0.256321
0.256342
0.256364
0.256387
0.256413
0.25644
0.256469
0.256498
0.256528
0.256558
0.256591
0.256627
0.256664
0.256702
0.256741
0.256781
0.256823
0.256867
0.256913
0.256961
0.257009
0.257059
0.257111
0.257165
0.257222
0.25728
0.257339
0.257399
0.257461
0.257526
0.257593
0.257663
0.257733
0.257805
0.257878
0.257954
0.258032
0.258113
0.258195
0.258278
0.258363
0.258449
0.258539
0.258632
0.258725
0.25882
0.258916
0.259013
0.259114
0.259217
0.259322
0.259428
0.259535
0.259644
0.259754
0.259867
0.259982
0.260098
0.260215
0.260333
0.260453
0.260575
0.260699
0.260824
0.26095
0.261077
0.261204
0.261333
0.261463
0.261596
0.261729
0.261863
0.261997
0.262132
0.262269
0.262407
0.262546
0.262685
0.262824
0.262964
0.263104
0.263246
0.263389
0.263533
0.263677
0.26382
0.263964
0.264108
0.264254
0.2644
0.264546
0.264692
0.264838
0.264985
0.265132
0.26528
0.265429
0.265578
0.265726
0.265874
0.266022
0.266171
0.26632
0.26647
0.26662
0.266769
0.266919
0.267068
0.267219
0.26737
0.267521
0.267672
0.267822
0.267972
0.268123
0.268274
0.268426
0.268578
0.26873
0.268881
0.269032
0.269184
0.269336
0.269489
0.269641
0.269794
0.269945
0.270097
0.27025
0.270403
0.270556
0.27071
0.270863
0.271015
0.271168
0.271321
0.271476
0.27163
0.271784
0.271937
0.272091
0.272244
0.272398
0.272553
0.272708
0.272863
0.273017
0.273171
0.273325
0.27348
0.273636
0.273792
0.273947
0.274102
0.274257
0.274412
0.274568
0.274724
0.27488
0.275036
0.275192
0.275347
0.275503
0.27566
0.275817
0.275974
0.276131
0.276287
0.276444
0.2766
0.276758
0.276915
0.277073
0.277231
0.277388
0.277545
0.277702
0.27786
0.278019
0.278178
0.278336
0.278494
0.278652
0.27881
0.278969
0.279128
0.279288
0.279447
0.279605
0.279764
0.279923
0.280082
0.280242
0.280402
0.280562
0.280721
0.28088
0.28104
0.2812
0.281361
0.281522
0.281682
0.281843
0.282003
0.282163
0.282324
0.282486
0.282647
0.282809
0.28297
0.283131
0.283292
0.283454
0.283616
0.283779
0.283941
0.284103
0.284265
0.284427
0.28459
0.284753
0.284916
0.28508
0.285243
0.285405
0.285568
0.285731
0.285895
0.286059
0.286224
0.286387
0.286551
0.286714
0.286878
0.287043
0.287208
0.287373
0.287538
0.287702
0.287866
0.288031
0.288197
0.288363
0.288529
0.288694
0.288859
0.289024
0.28919
0.289357
0.289524
0.28969
0.289857
0.290023
0.290189
0.290355
0.290523
0.29069
0.290858
0.291025
0.291192
0.291358
0.291526
0.291694
0.291863
0.292031
0.292199
0.292366
0.292534
0.292703
0.292872
0.293041
0.29321
0.293379
0.293547
0.293716
0.293886
0.294055
0.294226
0.294395
0.294565
0.294734
0.294904
0.295074
0.295245
0.295416
0.295587
0.295757
0.295927
0.296098
0.296269
0.296441
0.296613
0.296784
0.296955
0.297126
0.297298
0.29747
0.297642
0.297815
0.297988
0.29816
0.298331
0.298504
0.298677
0.29885
0.299024
0.299197
0.29937
0.299543
0.299716
0.29989
0.300064
0.300239
0.300413
0.300587
0.30076
0.300934
0.301109
0.301284
0.30146
0.301635
0.301809
0.301984
0.302159
0.302335
0.30251
0.302687
0.302862
0.303038
0.303214
0.30339
0.303566
0.303743
0.30392
0.304097
0.304274
0.30445
0.304627
0.304804
0.304982
0.305159
0.305337
0.305515
0.305692
0.305871
0.306048
0.306227
0.306405
0.306584
0.306763
0.30694
0.30712
0.307297
0.307478
0.307656
0.307837
0.308016
0.308195
0.308376
0.308554
0.308736
0.308914
0.309097
0.309275
0.309457
0.309637
0.309817
0.31
0.310177
0.310363
0.31054
0.310726
0.310904
0.311087
0.311269
0.311449
0.311635
0.311812
0.312001
0.312176
0.312365
0.312542
0.312729
0.31291
0.313093
0.313278
0.313458
0.313646
0.313825
0.314013
0.314194
0.314379
0.314563
0.314746
0.314933
0.315115
0.315303
0.315484
0.315672
0.315854
0.316042
0.316226
0.316411
0.316598
0.316782
0.316971
0.317153
0.317344
0.317526
0.317716
0.3179
0.318088
0.318276
0.31846
0.318652
0.318835
0.319027
0.31921
0.319402
0.319586
0.319778
0.319964
0.320154
0.320343
0.320529
0.320724
0.320906
0.321104
0.321285
0.321482
0.321667
0.321861
0.32205
0.322241
0.322434
0.322622
0.322817
0.323007
0.323199
0.323393
0.323583
0.32378
0.323968
0.324167
0.324356
0.324554
0.324747
0.324942
0.325138
0.325332
0.325531
0.325724
0.325925
0.326119
0.326318
0.326519
0.326711
0.326919
0.327112
0.327316
0.327517
0.327716
0.327921
0.328121
0.328328
0.328528
0.328738
0.328939
0.329147
0.329356
0.329561
0.329771
0.329982
0.33019
0.330402
0.330617
0.330827
0.331041
0.331261
0.331472
0.331692
0.331912
0.332129
0.33235
0.332575
0.332795
0.33302
0.333249
0.333472
0.333704
0.333932
0.334165
0.334396
0.334631
0.334868
0.335103
0.335343
0.335583
0.335824
0.336068
0.336314
0.336559
0.336809
0.337059
0.337309
0.337563
0.337818
0.338074
0.338332
0.338594
0.338854
0.339116
0.339383
0.339648
0.339916
0.340187
0.340458
0.34073
0.341005
0.341281
0.341557
0.341836
0.342117
0.342398
0.34268
0.342964
0.343251
0.343535
0.343823
0.344112
0.344401
0.344691
0.344983
0.345274
0.345567
0.34586
0.346154
0.346449
0.346742
0.347038
0.347334
0.347628
0.347923
0.348221
0.348515
0.348809
0.349106
0.349402
0.349695
0.34999
0.350284
0.350576
0.350869
0.351162
0.351453
0.351742
0.352032
0.352321
0.352608
0.352894
0.353181
0.353464
0.353748
0.354029
0.354312
0.354589
0.35487
0.355143
0.355424
0.355692
0.355972
0.356234
0.356515
0.356772
0.357053
0.357303
0.357584
0.35783
0.358112
0.35835
0.358632
0.358866
0.359149
0.359377
0.359659
0.359882
0.360164
0.360384
0.360664
0.360881
0.361159
0.361375
0.361649
0.361862
0.362136
0.362348
0.362618
0.362828
0.363098
0.363308
0.363573
0.363778
0.364046
0.364254
0.364517
0.364718
0.364981
0.365187
0.36545
0.36565
0.365909
0.36611
0.366372
0.366574
0.366831
0.367029
0.367288
0.367488
0.367747
0.367943
0.368199
0.368397
0.368654
0.368852
0.369108
0.369303
0.369559
0.369756
0.370012
0.370208
0.370463
0.370658
0.370913
0.371109
0.371366
0.371562
0.371818
0.372014
0.372272
0.37247
0.37273
0.37293
0.373193
0.373396
0.373664
0.373872
0.374147
0.374362
0.374647
0.37487
0.375167
0.3754
0.375713
0.375959
0.376288
0.376547
0.376895
0.377168
0.377534
0.37782
0.378202
0.3785
0.378896
0.379202
0.379607
0.379919
0.38033
0.380645
0.381056
0.38137
0.381778
0.38209
0.382494
0.382801
0.383199
0.383491
0.383899
0.384129
)
;

boundaryField
{
    sides
    {
        type            calculated;
        value           nonuniform List<scalar> 2(0.384129 0.266185);
    }
    empty
    {
        type            empty;
    }
}


// ************************************************************************* //
