/*--------------------------------*- C++ -*----------------------------------*\
  =========                 |
  \\      /  F ield         | OpenFOAM: The Open Source CFD Toolbox
   \\    /   O peration     | Website:  https://openfoam.org
    \\  /    A nd           | Version:  9
     \\/     M anipulation  |
\*---------------------------------------------------------------------------*/
FoamFile
{
    format      ascii;
    class       volVectorField;
    location    "0.035";
    object      U_0;
}
// * * * * * * * * * * * * * * * * * * * * * * * * * * * * * * * * * * * * * //

dimensions      [0 1 -1 0 0 0 0];

internalField   nonuniform List<vector> 
1000
(
(18.426 0 0)
(18.8059 0 0)
(19.2714 0 0)
(19.6473 0 0)
(19.9812 0 0)
(20.3163 0 0)
(20.6598 0 0)
(21.0065 0 0)
(21.3528 0 0)
(21.6983 0 0)
(22.0435 0 0)
(22.389 0 0)
(22.7345 0 0)
(23.0801 0 0)
(23.4257 0 0)
(23.7713 0 0)
(24.1168 0 0)
(24.4624 0 0)
(24.8081 0 0)
(25.1538 0 0)
(25.4996 0 0)
(25.8454 0 0)
(26.1912 0 0)
(26.537 0 0)
(26.8828 0 0)
(27.2286 0 0)
(27.5744 0 0)
(27.9202 0 0)
(28.2661 0 0)
(28.612 0 0)
(28.9581 0 0)
(29.3041 0 0)
(29.6503 0 0)
(29.9964 0 0)
(30.3426 0 0)
(30.6888 0 0)
(31.035 0 0)
(31.3811 0 0)
(31.7273 0 0)
(32.0735 0 0)
(32.4197 0 0)
(32.7659 0 0)
(33.1122 0 0)
(33.4585 0 0)
(33.8048 0 0)
(34.1512 0 0)
(34.4975 0 0)
(34.8439 0 0)
(35.1902 0 0)
(35.5366 0 0)
(35.883 0 0)
(36.2294 0 0)
(36.5759 0 0)
(36.9224 0 0)
(37.2688 0 0)
(37.6153 0 0)
(37.9619 0 0)
(38.3084 0 0)
(38.655 0 0)
(39.0015 0 0)
(39.3482 0 0)
(39.6948 0 0)
(40.0414 0 0)
(40.3881 0 0)
(40.7348 0 0)
(41.0814 0 0)
(41.4282 0 0)
(41.7749 0 0)
(42.1216 0 0)
(42.4684 0 0)
(42.8152 0 0)
(43.162 0 0)
(43.5088 0 0)
(43.8556 0 0)
(44.2025 0 0)
(44.5493 0 0)
(44.8962 0 0)
(45.2431 0 0)
(45.59 0 0)
(45.9369 0 0)
(46.2838 0 0)
(46.6308 0 0)
(46.9778 0 0)
(47.3247 0 0)
(47.6717 0 0)
(48.0187 0 0)
(48.3657 0 0)
(48.7128 0 0)
(49.0598 0 0)
(49.4069 0 0)
(49.754 0 0)
(50.101 0 0)
(50.4481 0 0)
(50.7952 0 0)
(51.1423 0 0)
(51.4894 0 0)
(51.8366 0 0)
(52.1837 0 0)
(52.5308 0 0)
(52.878 0 0)
(53.2252 0 0)
(53.5723 0 0)
(53.9195 0 0)
(54.2667 0 0)
(54.6139 0 0)
(54.9611 0 0)
(55.3083 0 0)
(55.6555 0 0)
(56.0028 0 0)
(56.35 0 0)
(56.6972 0 0)
(57.0444 0 0)
(57.3917 0 0)
(57.7389 0 0)
(58.0862 0 0)
(58.4335 0 0)
(58.7807 0 0)
(59.1279 0 0)
(59.4752 0 0)
(59.8225 0 0)
(60.1698 0 0)
(60.517 0 0)
(60.8643 0 0)
(61.2116 0 0)
(61.5588 0 0)
(61.9061 0 0)
(62.2534 0 0)
(62.6006 0 0)
(62.9478 0 0)
(63.2951 0 0)
(63.6424 0 0)
(63.9896 0 0)
(64.3369 0 0)
(64.6841 0 0)
(65.0314 0 0)
(65.3786 0 0)
(65.7258 0 0)
(66.073 0 0)
(66.4202 0 0)
(66.7674 0 0)
(67.1146 0 0)
(67.4618 0 0)
(67.809 0 0)
(68.1561 0 0)
(68.5033 0 0)
(68.8504 0 0)
(69.1975 0 0)
(69.5446 0 0)
(69.8918 0 0)
(70.2389 0 0)
(70.5859 0 0)
(70.9329 0 0)
(71.28 0 0)
(71.627 0 0)
(71.974 0 0)
(72.321 0 0)
(72.668 0 0)
(73.0149 0 0)
(73.3618 0 0)
(73.7087 0 0)
(74.0556 0 0)
(74.4025 0 0)
(74.7493 0 0)
(75.0961 0 0)
(75.4429 0 0)
(75.7897 0 0)
(76.1364 0 0)
(76.4831 0 0)
(76.8297 0 0)
(77.1764 0 0)
(77.523 0 0)
(77.8696 0 0)
(78.2161 0 0)
(78.5626 0 0)
(78.9091 0 0)
(79.2555 0 0)
(79.6019 0 0)
(79.9483 0 0)
(80.2946 0 0)
(80.6409 0 0)
(80.9871 0 0)
(81.3333 0 0)
(81.6795 0 0)
(82.0256 0 0)
(82.3716 0 0)
(82.7176 0 0)
(83.0636 0 0)
(83.4095 0 0)
(83.7553 0 0)
(84.1011 0 0)
(84.4468 0 0)
(84.7925 0 0)
(85.1382 0 0)
(85.4837 0 0)
(85.8292 0 0)
(86.1747 0 0)
(86.5201 0 0)
(86.8654 0 0)
(87.2106 0 0)
(87.5558 0 0)
(87.9009 0 0)
(88.2459 0 0)
(88.5908 0 0)
(88.9357 0 0)
(89.2805 0 0)
(89.6253 0 0)
(89.9699 0 0)
(90.3144 0 0)
(90.6589 0 0)
(91.0033 0 0)
(91.3476 0 0)
(91.6918 0 0)
(92.0358 0 0)
(92.3798 0 0)
(92.7237 0 0)
(93.0675 0 0)
(93.4112 0 0)
(93.7548 0 0)
(94.0982 0 0)
(94.4416 0 0)
(94.7849 0 0)
(95.128 0 0)
(95.471 0 0)
(95.8139 0 0)
(96.1566 0 0)
(96.4993 0 0)
(96.8417 0 0)
(97.1841 0 0)
(97.5263 0 0)
(97.8684 0 0)
(98.2103 0 0)
(98.5521 0 0)
(98.8937 0 0)
(99.2351 0 0)
(99.5764 0 0)
(99.9176 0 0)
(100.259 0 0)
(100.599 0 0)
(100.94 0 0)
(101.28 0 0)
(101.621 0 0)
(101.961 0 0)
(102.301 0 0)
(102.64 0 0)
(102.98 0 0)
(103.319 0 0)
(103.658 0 0)
(103.997 0 0)
(104.335 0 0)
(104.674 0 0)
(105.012 0 0)
(105.35 0 0)
(105.688 0 0)
(106.025 0 0)
(106.362 0 0)
(106.699 0 0)
(107.036 0 0)
(107.372 0 0)
(107.708 0 0)
(108.044 0 0)
(108.379 0 0)
(108.714 0 0)
(109.049 0 0)
(109.384 0 0)
(109.718 0 0)
(110.052 0 0)
(110.385 0 0)
(110.719 0 0)
(111.051 0 0)
(111.384 0 0)
(111.716 0 0)
(112.048 0 0)
(112.379 0 0)
(112.71 0 0)
(113.04 0 0)
(113.37 0 0)
(113.7 0 0)
(114.029 0 0)
(114.357 0 0)
(114.686 0 0)
(115.013 0 0)
(115.34 0 0)
(115.667 0 0)
(115.993 0 0)
(116.319 0 0)
(116.644 0 0)
(116.969 0 0)
(117.292 0 0)
(117.616 0 0)
(117.938 0 0)
(118.26 0 0)
(118.582 0 0)
(118.903 0 0)
(119.223 0 0)
(119.543 0 0)
(119.861 0 0)
(120.18 0 0)
(120.497 0 0)
(120.814 0 0)
(121.131 0 0)
(121.446 0 0)
(121.761 0 0)
(122.076 0 0)
(122.39 0 0)
(122.704 0 0)
(123.017 0 0)
(123.329 0 0)
(123.639 0 0)
(123.947 0 0)
(124.254 0 0)
(124.561 0 0)
(124.866 0 0)
(125.17 0 0)
(125.473 0 0)
(125.775 0 0)
(126.076 0 0)
(126.376 0 0)
(126.675 0 0)
(126.973 0 0)
(127.269 0 0)
(127.565 0 0)
(127.859 0 0)
(128.152 0 0)
(128.443 0 0)
(128.734 0 0)
(129.023 0 0)
(129.31 0 0)
(129.596 0 0)
(129.881 0 0)
(130.165 0 0)
(130.446 0 0)
(130.727 0 0)
(131.006 0 0)
(131.283 0 0)
(131.559 0 0)
(131.833 0 0)
(132.105 0 0)
(132.376 0 0)
(132.645 0 0)
(132.912 0 0)
(133.178 0 0)
(133.442 0 0)
(133.704 0 0)
(133.964 0 0)
(134.223 0 0)
(134.479 0 0)
(134.734 0 0)
(134.987 0 0)
(135.237 0 0)
(135.486 0 0)
(135.733 0 0)
(135.978 0 0)
(136.221 0 0)
(136.462 0 0)
(136.701 0 0)
(136.938 0 0)
(137.173 0 0)
(137.406 0 0)
(137.637 0 0)
(137.866 0 0)
(138.093 0 0)
(138.317 0 0)
(138.54 0 0)
(138.761 0 0)
(138.98 0 0)
(139.196 0 0)
(139.411 0 0)
(139.624 0 0)
(139.835 0 0)
(140.043 0 0)
(140.25 0 0)
(140.456 0 0)
(140.659 0 0)
(140.86 0 0)
(141.06 0 0)
(141.258 0 0)
(141.454 0 0)
(141.648 0 0)
(141.841 0 0)
(142.032 0 0)
(142.222 0 0)
(142.41 0 0)
(142.596 0 0)
(142.781 0 0)
(142.965 0 0)
(143.148 0 0)
(143.329 0 0)
(143.508 0 0)
(143.687 0 0)
(143.864 0 0)
(144.041 0 0)
(144.216 0 0)
(144.39 0 0)
(144.563 0 0)
(144.736 0 0)
(144.907 0 0)
(145.078 0 0)
(145.248 0 0)
(145.417 0 0)
(145.586 0 0)
(145.753 0 0)
(145.921 0 0)
(146.087 0 0)
(146.253 0 0)
(146.419 0 0)
(146.584 0 0)
(146.749 0 0)
(146.913 0 0)
(147.077 0 0)
(147.241 0 0)
(147.404 0 0)
(147.567 0 0)
(147.73 0 0)
(147.893 0 0)
(148.055 0 0)
(148.218 0 0)
(148.38 0 0)
(148.542 0 0)
(148.703 0 0)
(148.865 0 0)
(149.027 0 0)
(149.188 0 0)
(149.35 0 0)
(149.511 0 0)
(149.673 0 0)
(149.834 0 0)
(149.995 0 0)
(150.157 0 0)
(150.318 0 0)
(150.479 0 0)
(150.64 0 0)
(150.802 0 0)
(150.963 0 0)
(151.124 0 0)
(151.286 0 0)
(151.447 0 0)
(151.608 0 0)
(151.77 0 0)
(151.931 0 0)
(152.093 0 0)
(152.254 0 0)
(152.416 0 0)
(152.577 0 0)
(152.739 0 0)
(152.901 0 0)
(153.062 0 0)
(153.224 0 0)
(153.386 0 0)
(153.548 0 0)
(153.71 0 0)
(153.872 0 0)
(154.034 0 0)
(154.196 0 0)
(154.358 0 0)
(154.52 0 0)
(154.682 0 0)
(154.844 0 0)
(155.007 0 0)
(155.169 0 0)
(155.331 0 0)
(155.494 0 0)
(155.656 0 0)
(155.819 0 0)
(155.982 0 0)
(156.144 0 0)
(156.307 0 0)
(156.47 0 0)
(156.633 0 0)
(156.796 0 0)
(156.959 0 0)
(157.122 0 0)
(157.285 0 0)
(157.448 0 0)
(157.611 0 0)
(157.774 0 0)
(157.938 0 0)
(158.101 0 0)
(158.264 0 0)
(158.428 0 0)
(158.591 0 0)
(158.755 0 0)
(158.918 0 0)
(159.082 0 0)
(159.246 0 0)
(159.41 0 0)
(159.574 0 0)
(159.737 0 0)
(159.901 0 0)
(160.065 0 0)
(160.229 0 0)
(160.394 0 0)
(160.558 0 0)
(160.722 0 0)
(160.886 0 0)
(161.051 0 0)
(161.215 0 0)
(161.379 0 0)
(161.544 0 0)
(161.708 0 0)
(161.873 0 0)
(162.038 0 0)
(162.202 0 0)
(162.367 0 0)
(162.532 0 0)
(162.697 0 0)
(162.862 0 0)
(163.027 0 0)
(163.192 0 0)
(163.357 0 0)
(163.522 0 0)
(163.687 0 0)
(163.852 0 0)
(164.018 0 0)
(164.183 0 0)
(164.348 0 0)
(164.514 0 0)
(164.679 0 0)
(164.845 0 0)
(165.01 0 0)
(165.176 0 0)
(165.342 0 0)
(165.507 0 0)
(165.673 0 0)
(165.839 0 0)
(166.005 0 0)
(166.171 0 0)
(166.337 0 0)
(166.503 0 0)
(166.669 0 0)
(166.835 0 0)
(167.001 0 0)
(167.167 0 0)
(167.333 0 0)
(167.5 0 0)
(167.666 0 0)
(167.833 0 0)
(167.999 0 0)
(168.166 0 0)
(168.332 0 0)
(168.499 0 0)
(168.665 0 0)
(168.832 0 0)
(168.999 0 0)
(169.166 0 0)
(169.332 0 0)
(169.499 0 0)
(169.666 0 0)
(169.833 0 0)
(170 0 0)
(170.167 0 0)
(170.334 0 0)
(170.502 0 0)
(170.669 0 0)
(170.836 0 0)
(171.003 0 0)
(171.171 0 0)
(171.338 0 0)
(171.506 0 0)
(171.673 0 0)
(171.841 0 0)
(172.008 0 0)
(172.176 0 0)
(172.343 0 0)
(172.511 0 0)
(172.679 0 0)
(172.847 0 0)
(173.015 0 0)
(173.183 0 0)
(173.351 0 0)
(173.519 0 0)
(173.687 0 0)
(173.855 0 0)
(174.023 0 0)
(174.191 0 0)
(174.359 0 0)
(174.528 0 0)
(174.696 0 0)
(174.864 0 0)
(175.033 0 0)
(175.201 0 0)
(175.37 0 0)
(175.538 0 0)
(175.707 0 0)
(175.875 0 0)
(176.044 0 0)
(176.213 0 0)
(176.382 0 0)
(176.55 0 0)
(176.719 0 0)
(176.888 0 0)
(177.057 0 0)
(177.226 0 0)
(177.395 0 0)
(177.564 0 0)
(177.733 0 0)
(177.903 0 0)
(178.072 0 0)
(178.241 0 0)
(178.411 0 0)
(178.58 0 0)
(178.749 0 0)
(178.919 0 0)
(179.088 0 0)
(179.258 0 0)
(179.427 0 0)
(179.597 0 0)
(179.767 0 0)
(179.937 0 0)
(180.106 0 0)
(180.276 0 0)
(180.446 0 0)
(180.616 0 0)
(180.786 0 0)
(180.956 0 0)
(181.126 0 0)
(181.296 0 0)
(181.466 0 0)
(181.637 0 0)
(181.807 0 0)
(181.977 0 0)
(182.147 0 0)
(182.318 0 0)
(182.488 0 0)
(182.659 0 0)
(182.829 0 0)
(183 0 0)
(183.17 0 0)
(183.341 0 0)
(183.512 0 0)
(183.682 0 0)
(183.853 0 0)
(184.024 0 0)
(184.195 0 0)
(184.366 0 0)
(184.537 0 0)
(184.708 0 0)
(184.879 0 0)
(185.05 0 0)
(185.221 0 0)
(185.392 0 0)
(185.564 0 0)
(185.735 0 0)
(185.906 0 0)
(186.077 0 0)
(186.249 0 0)
(186.42 0 0)
(186.592 0 0)
(186.763 0 0)
(186.935 0 0)
(187.107 0 0)
(187.278 0 0)
(187.45 0 0)
(187.622 0 0)
(187.794 0 0)
(187.965 0 0)
(188.137 0 0)
(188.309 0 0)
(188.481 0 0)
(188.653 0 0)
(188.825 0 0)
(188.998 0 0)
(189.17 0 0)
(189.342 0 0)
(189.514 0 0)
(189.687 0 0)
(189.859 0 0)
(190.031 0 0)
(190.204 0 0)
(190.376 0 0)
(190.549 0 0)
(190.721 0 0)
(190.894 0 0)
(191.067 0 0)
(191.239 0 0)
(191.412 0 0)
(191.585 0 0)
(191.758 0 0)
(191.931 0 0)
(192.104 0 0)
(192.277 0 0)
(192.45 0 0)
(192.623 0 0)
(192.796 0 0)
(192.969 0 0)
(193.142 0 0)
(193.315 0 0)
(193.489 0 0)
(193.662 0 0)
(193.835 0 0)
(194.009 0 0)
(194.182 0 0)
(194.356 0 0)
(194.529 0 0)
(194.703 0 0)
(194.877 0 0)
(195.05 0 0)
(195.224 0 0)
(195.398 0 0)
(195.572 0 0)
(195.746 0 0)
(195.92 0 0)
(196.094 0 0)
(196.268 0 0)
(196.442 0 0)
(196.616 0 0)
(196.79 0 0)
(196.964 0 0)
(197.138 0 0)
(197.312 0 0)
(197.487 0 0)
(197.661 0 0)
(197.835 0 0)
(198.01 0 0)
(198.184 0 0)
(198.359 0 0)
(198.533 0 0)
(198.708 0 0)
(198.883 0 0)
(199.057 0 0)
(199.232 0 0)
(199.407 0 0)
(199.582 0 0)
(199.756 0 0)
(199.931 0 0)
(200.106 0 0)
(200.281 0 0)
(200.456 0 0)
(200.631 0 0)
(200.806 0 0)
(200.981 0 0)
(201.156 0 0)
(201.331 0 0)
(201.506 0 0)
(201.682 0 0)
(201.857 0 0)
(202.032 0 0)
(202.207 0 0)
(202.382 0 0)
(202.558 0 0)
(202.733 0 0)
(202.908 0 0)
(203.084 0 0)
(203.259 0 0)
(203.434 0 0)
(203.61 0 0)
(203.785 0 0)
(203.96 0 0)
(204.136 0 0)
(204.311 0 0)
(204.486 0 0)
(204.661 0 0)
(204.837 0 0)
(205.012 0 0)
(205.187 0 0)
(205.362 0 0)
(205.537 0 0)
(205.712 0 0)
(205.888 0 0)
(206.062 0 0)
(206.237 0 0)
(206.412 0 0)
(206.587 0 0)
(206.762 0 0)
(206.936 0 0)
(207.111 0 0)
(207.285 0 0)
(207.459 0 0)
(207.633 0 0)
(207.807 0 0)
(207.981 0 0)
(208.154 0 0)
(208.328 0 0)
(208.501 0 0)
(208.674 0 0)
(208.847 0 0)
(209.019 0 0)
(209.192 0 0)
(209.364 0 0)
(209.536 0 0)
(209.707 0 0)
(209.878 0 0)
(210.049 0 0)
(210.22 0 0)
(210.39 0 0)
(210.56 0 0)
(210.729 0 0)
(210.898 0 0)
(211.067 0 0)
(211.235 0 0)
(211.402 0 0)
(211.57 0 0)
(211.736 0 0)
(211.902 0 0)
(212.068 0 0)
(212.232 0 0)
(212.397 0 0)
(212.56 0 0)
(212.723 0 0)
(212.886 0 0)
(213.047 0 0)
(213.208 0 0)
(213.368 0 0)
(213.527 0 0)
(213.686 0 0)
(213.843 0 0)
(214 0 0)
(214.156 0 0)
(214.311 0 0)
(214.464 0 0)
(214.617 0 0)
(214.769 0 0)
(214.92 0 0)
(215.07 0 0)
(215.219 0 0)
(215.367 0 0)
(215.514 0 0)
(215.659 0 0)
(215.804 0 0)
(215.947 0 0)
(216.089 0 0)
(216.23 0 0)
(216.37 0 0)
(216.508 0 0)
(216.646 0 0)
(216.782 0 0)
(216.916 0 0)
(217.05 0 0)
(217.182 0 0)
(217.313 0 0)
(217.443 0 0)
(217.572 0 0)
(217.699 0 0)
(217.825 0 0)
(217.95 0 0)
(218.074 0 0)
(218.196 0 0)
(218.318 0 0)
(218.438 0 0)
(218.557 0 0)
(218.675 0 0)
(218.792 0 0)
(218.907 0 0)
(219.022 0 0)
(219.136 0 0)
(219.249 0 0)
(219.361 0 0)
(219.472 0 0)
(219.582 0 0)
(219.691 0 0)
(219.8 0 0)
(219.908 0 0)
(220.015 0 0)
(220.122 0 0)
(220.229 0 0)
(220.335 0 0)
(220.44 0 0)
(220.545 0 0)
(220.65 0 0)
(220.755 0 0)
(220.86 0 0)
(220.964 0 0)
(221.069 0 0)
(221.174 0 0)
(221.278 0 0)
(221.383 0 0)
(221.489 0 0)
(221.594 0 0)
(221.7 0 0)
(221.807 0 0)
(221.914 0 0)
(222.021 0 0)
(222.129 0 0)
(222.238 0 0)
(222.348 0 0)
(222.458 0 0)
(222.57 0 0)
(222.682 0 0)
(222.795 0 0)
(222.91 0 0)
(223.025 0 0)
(223.142 0 0)
(223.259 0 0)
(223.378 0 0)
(223.498 0 0)
(223.62 0 0)
(223.742 0 0)
(223.866 0 0)
(223.992 0 0)
(224.118 0 0)
(224.246 0 0)
(224.376 0 0)
(224.507 0 0)
(224.639 0 0)
(224.773 0 0)
(224.908 0 0)
(225.044 0 0)
(225.182 0 0)
(225.321 0 0)
(225.462 0 0)
(225.604 0 0)
(225.748 0 0)
(225.893 0 0)
(226.039 0 0)
(226.187 0 0)
(226.335 0 0)
(226.486 0 0)
(226.637 0 0)
(226.79 0 0)
(226.944 0 0)
(227.099 0 0)
(227.255 0 0)
(227.413 0 0)
(227.571 0 0)
(227.731 0 0)
(227.892 0 0)
(228.054 0 0)
(228.217 0 0)
(228.381 0 0)
(228.545 0 0)
(228.711 0 0)
(228.878 0 0)
(229.046 0 0)
(229.214 0 0)
(229.383 0 0)
(229.554 0 0)
(229.724 0 0)
(229.896 0 0)
(230.068 0 0)
(230.241 0 0)
(230.415 0 0)
(230.589 0 0)
(230.764 0 0)
(230.94 0 0)
(231.116 0 0)
(231.292 0 0)
(231.469 0 0)
(231.647 0 0)
(231.825 0 0)
(232.004 0 0)
(232.182 0 0)
(232.362 0 0)
(232.542 0 0)
(232.722 0 0)
(232.902 0 0)
(233.083 0 0)
(233.265 0 0)
(233.446 0 0)
(233.628 0 0)
(233.811 0 0)
(233.993 0 0)
(234.176 0 0)
(234.359 0 0)
(234.542 0 0)
(234.726 0 0)
(234.909 0 0)
(235.093 0 0)
(235.277 0 0)
(235.46 0 0)
(235.644 0 0)
(235.827 0 0)
(236.01 0 0)
(236.192 0 0)
(236.374 0 0)
(236.554 0 0)
(236.734 0 0)
(236.911 0 0)
(237.087 0 0)
(237.261 0 0)
(237.432 0 0)
(237.599 0 0)
(237.763 0 0)
(237.923 0 0)
(238.078 0 0)
(238.227 0 0)
(238.372 0 0)
(238.51 0 0)
(238.643 0 0)
(238.769 0 0)
(238.889 0 0)
(239.002 0 0)
(239.109 0 0)
(239.211 0 0)
(239.307 0 0)
(239.398 0 0)
(239.486 0 0)
(239.57 0 0)
(239.651 0 0)
(239.731 0 0)
(239.809 0 0)
(239.887 0 0)
(239.966 0 0)
(240.046 0 0)
(240.127 0 0)
(240.211 0 0)
(240.296 0 0)
(240.384 0 0)
(240.476 0 0)
(240.57 0 0)
(240.672 0 0)
(240.953 0 0)
)
;

boundaryField
{
    sides
    {
        type            zeroGradient;
    }
    empty
    {
        type            empty;
    }
}


// ************************************************************************* //
