/*--------------------------------*- C++ -*----------------------------------*\
  =========                 |
  \\      /  F ield         | OpenFOAM: The Open Source CFD Toolbox
   \\    /   O peration     | Website:  https://openfoam.org
    \\  /    A nd           | Version:  9
     \\/     M anipulation  |
\*---------------------------------------------------------------------------*/
FoamFile
{
    format      ascii;
    class       volVectorField;
    location    "0.02";
    object      ddtCorrDdt0(rho,U);
}
// * * * * * * * * * * * * * * * * * * * * * * * * * * * * * * * * * * * * * //

dimensions      [1 -2 -2 0 0 0 0];

internalField   nonuniform List<vector> 
100
(
(99.663 0 0)
(-561.038 0 0)
(-897.782 0 0)
(-1319.37 0 0)
(-1727.18 0 0)
(-2127.66 0 0)
(-2527.71 0 0)
(-2925.37 0 0)
(-3319.4 0 0)
(-3709.43 0 0)
(-4093.86 0 0)
(-4472.75 0 0)
(-4844.79 0 0)
(-5206.36 0 0)
(-5574.39 0 0)
(-5904.89 0 0)
(-6230.35 0 0)
(-6551.95 0 0)
(-6831.83 0 0)
(-7114.22 0 0)
(-7293.69 0 0)
(-7533.11 0 0)
(-7768.37 0 0)
(-7751.24 0 0)
(-7815.82 0 0)
(-8021.01 0 0)
(-7778.01 0 0)
(-7492.47 0 0)
(-7465.9 0 0)
(-7128.78 0 0)
(-6386.89 0 0)
(-5897.57 0 0)
(-5578.18 0 0)
(-4682.11 0 0)
(-3665.24 0 0)
(-3108.83 0 0)
(-2833.2 0 0)
(-2214.23 0 0)
(-1313.87 0 0)
(-812.599 0 0)
(-892.94 0 0)
(-929.342 0 0)
(-434.502 0 0)
(175.85 0 0)
(192.313 0 0)
(-291.701 0 0)
(-498.514 0 0)
(-75.7071 0 0)
(414.338 0 0)
(471.335 0 0)
(-95.773 0 0)
(-499.455 0 0)
(-260.562 0 0)
(211.304 0 0)
(377.207 0 0)
(499.315 0 0)
(-218.208 0 0)
(-494.159 0 0)
(-131.48 0 0)
(72.4134 0 0)
(191.626 0 0)
(242.195 0 0)
(210.566 0 0)
(-7.57218 0 0)
(-212.011 0 0)
(-99.7729 0 0)
(-22.4419 0 0)
(150.159 0 0)
(202.799 0 0)
(-71.4163 0 0)
(128.218 0 0)
(215.78 0 0)
(-634.696 0 0)
(-187.787 0 0)
(15.2016 0 0)
(76.9905 0 0)
(98.8102 0 0)
(40.5054 0 0)
(-39.3697 0 0)
(-235.709 0 0)
(433.427 0 0)
(2214.5 0 0)
(-2253.62 0 0)
(-528.814 0 0)
(4254.39 0 0)
(-684.618 0 0)
(-3373.6 0 0)
(-729.377 0 0)
(-731.214 0 0)
(-1194.24 0 0)
(-2108.66 0 0)
(-3614.11 0 0)
(3793.82 0 0)
(16000.3 0 0)
(417.652 0 0)
(-18686.8 0 0)
(-1330.17 0 0)
(19965.9 0 0)
(3853.21 0 0)
(-13779 0 0)
)
;

boundaryField
{
    sides
    {
        type            calculated;
        value           nonuniform List<vector> 2((-13779 0 0) (99.663 0 0));
    }
    empty
    {
        type            empty;
    }
}


// ************************************************************************* //
