/*--------------------------------*- C++ -*----------------------------------*\
  =========                 |
  \\      /  F ield         | OpenFOAM: The Open Source CFD Toolbox
   \\    /   O peration     | Website:  https://openfoam.org
    \\  /    A nd           | Version:  9
     \\/     M anipulation  |
\*---------------------------------------------------------------------------*/
FoamFile
{
    format      ascii;
    class       volScalarField;
    location    "0.02";
    object      p;
}
// * * * * * * * * * * * * * * * * * * * * * * * * * * * * * * * * * * * * * //

dimensions      [1 -1 -2 0 0 0 0];

internalField   nonuniform List<scalar> 
100
(
47148.5
46911.4
46641.1
46430.4
46212.2
45992
45772.2
45552.5
45332.8
45113
44893.3
44673
44453.3
44230.6
44013.1
43787.4
43572
43344.7
43123
42892.3
42659.6
42428.7
42187.1
41938.3
41691.9
41431.3
41156.8
40882.6
40582.9
40265.6
39938.4
39588.7
39220.1
38821.6
38410.7
37983.7
37539.9
37086.7
36629.9
36172.3
35717.3
35269.4
34831.7
34405.8
33994.5
33601.3
33228
32873.4
32540
32226.5
31939.8
31676.6
31440.2
31220.9
31037.7
30867
30730.2
30625.4
30530.9
30462.2
30412.2
30381.4
30359
30353.5
30353.6
30354.7
30355.6
30357
30359.5
30365.2
30375.6
30379.8
30385.9
30404.4
30414.9
30424.7
30428
30430.1
30434.1
30442.3
30454.6
30439
30420.9
30480.2
30463.7
30414.5
30472.7
30518.4
30540.4
30565.5
30618.1
30672.1
30763
30589.2
30388.6
30541.2
30802.5
30620.9
30371.9
30666.9
)
;

boundaryField
{
    sides
    {
        type            zeroGradient;
    }
    empty
    {
        type            empty;
    }
}


// ************************************************************************* //
