/*--------------------------------*- C++ -*----------------------------------*\
  =========                 |
  \\      /  F ield         | OpenFOAM: The Open Source CFD Toolbox
   \\    /   O peration     | Website:  https://openfoam.org
    \\  /    A nd           | Version:  9
     \\/     M anipulation  |
\*---------------------------------------------------------------------------*/
FoamFile
{
    format      ascii;
    class       volScalarField;
    location    "0.02";
    object      p_0;
}
// * * * * * * * * * * * * * * * * * * * * * * * * * * * * * * * * * * * * * //

dimensions      [1 -1 -2 0 0 0 0];

internalField   nonuniform List<scalar> 
100
(
47187.8
46950.3
46679.9
46468.8
46250.3
46029.9
45809.8
45589.9
45369.9
45149.8
44929.8
44709.2
44489.3
44266.3
44048.3
43822.2
43606.4
43378.8
43156.7
42925.5
42692.2
42460.6
42218.3
41968.9
41721.4
41460.1
41184.4
40908.8
40607.7
40289
39960
39608.3
39237.6
38837.1
38424.3
37995.3
37549.8
37095
36636.9
36178.1
35722.1
35273.5
34835
34408.5
33996.9
33603.3
33229.7
32874.8
32541.2
32227.2
31940.6
31677.2
31440.6
31221.2
31038
30866.8
30730.7
30625.3
30530.7
30462.1
30412
30381.4
30358.7
30353.5
30353.6
30354.8
30355.5
30356.8
30359.3
30365.5
30375.2
30379
30387.5
30404.9
30414.9
30424.7
30427.9
30430.1
30434.2
30443
30454.1
30432.1
30426.7
30484.4
30450.9
30414.7
30484.6
30520.5
30542.7
30568.9
30624
30682.4
30759.1
30538.6
30382.1
30602.3
30814.3
30557.9
30348.6
30715.1
)
;

boundaryField
{
    sides
    {
        type            zeroGradient;
    }
    empty
    {
        type            empty;
    }
}


// ************************************************************************* //
