/*--------------------------------*- C++ -*----------------------------------*\
  =========                 |
  \\      /  F ield         | OpenFOAM: The Open Source CFD Toolbox
   \\    /   O peration     | Website:  https://openfoam.org
    \\  /    A nd           | Version:  9
     \\/     M anipulation  |
\*---------------------------------------------------------------------------*/
FoamFile
{
    format      ascii;
    class       volScalarField;
    location    "0.02";
    object      T;
}
// * * * * * * * * * * * * * * * * * * * * * * * * * * * * * * * * * * * * * //

dimensions      [0 0 0 1 0 0 0];

internalField   nonuniform List<scalar> 
100
(
280.393
280.267
280.076
279.747
279.35
278.946
278.552
278.163
277.778
277.393
277.011
276.62
276.252
275.823
275.525
275
274.759
274.245
273.958
273.471
273.039
272.784
272.198
271.704
271.468
270.922
270.262
269.988
269.521
268.58
268.055
267.685
266.865
265.746
265.086
264.584
263.604
262.325
261.394
260.835
260.058
258.809
257.576
256.862
256.429
255.654
254.455
253.39
252.856
252.606
252.161
251.28
250.395
249.894
249.785
249.727
249.542
249.037
248.596
248.487
248.512
248.642
248.702
248.686
248.599
248.548
248.55
248.596
248.731
248.815
248.842
248.833
248.828
248.871
248.941
249.056
249.136
249.175
249.193
249.218
249.273
249.295
249.326
249.558
249.589
249.516
249.693
249.873
250.007
250.159
250.382
250.611
250.938
250.673
250.317
250.808
251.653
251.447
250.959
251.851
)
;

boundaryField
{
    sides
    {
        type            zeroGradient;
    }
    empty
    {
        type            empty;
    }
}


// ************************************************************************* //
