/*--------------------------------*- C++ -*----------------------------------*\
  =========                 |
  \\      /  F ield         | OpenFOAM: The Open Source CFD Toolbox
   \\    /   O peration     | Website:  https://openfoam.org
    \\  /    A nd           | Version:  9
     \\/     M anipulation  |
\*---------------------------------------------------------------------------*/
FoamFile
{
    format      ascii;
    class       volScalarField;
    location    "0.05";
    object      ddt0(rho);
}
// * * * * * * * * * * * * * * * * * * * * * * * * * * * * * * * * * * * * * //

dimensions      [1 -3 -1 0 0 0 0];

internalField   nonuniform List<scalar> 
10000
(
-3.09282
-3.09237
-3.09162
-3.09096
-3.09035
-3.08976
-3.08917
-3.0886
-3.08802
-3.08745
-3.08687
-3.08629
-3.08571
-3.08512
-3.08452
-3.08391
-3.08329
-3.08267
-3.08202
-3.08137
-3.0807
-3.08003
-3.07933
-3.07862
-3.0779
-3.07716
-3.07641
-3.07565
-3.07486
-3.07406
-3.07325
-3.07242
-3.07158
-3.07072
-3.06983
-3.06894
-3.06803
-3.06711
-3.06617
-3.0652
-3.06422
-3.06323
-3.06223
-3.0612
-3.06016
-3.05909
-3.058
-3.05691
-3.05581
-3.05469
-3.0536
-3.05249
-3.05121
-3.04999
-3.04869
-3.0475
-3.04633
-3.04501
-3.04365
-3.04238
-3.04115
-3.03978
-3.03837
-3.03702
-3.03566
-3.03421
-3.03275
-3.03138
-3.02995
-3.0284
-3.02687
-3.02539
-3.02386
-3.02228
-3.02074
-3.0192
-3.01755
-3.01587
-3.01424
-3.01261
-3.01092
-3.00924
-3.00756
-3.0058
-3.00398
-3.0022
-3.00044
-2.99864
-2.99684
-2.99504
-2.99315
-2.99121
-2.98928
-2.98736
-2.98544
-2.98353
-2.9816
-2.9796
-2.97754
-2.97547
-2.97338
-2.9713
-2.96926
-2.96722
-2.96512
-2.96298
-2.96077
-2.95852
-2.95627
-2.95405
-2.95185
-2.94966
-2.94745
-2.94516
-2.94279
-2.94039
-2.93796
-2.93555
-2.93319
-2.93085
-2.9285
-2.9261
-2.92362
-2.92106
-2.91845
-2.91584
-2.91326
-2.91074
-2.90825
-2.90575
-2.90318
-2.90053
-2.89779
-2.89499
-2.89218
-2.88942
-2.88671
-2.88406
-2.88142
-2.87873
-2.87596
-2.87309
-2.87013
-2.86714
-2.86416
-2.86124
-2.85839
-2.8556
-2.85282
-2.84999
-2.84706
-2.84401
-2.84087
-2.83767
-2.83447
-2.83134
-2.82829
-2.82531
-2.82236
-2.81938
-2.81632
-2.81312
-2.8098
-2.80637
-2.80291
-2.79946
-2.79609
-2.79281
-2.78961
-2.78646
-2.78327
-2.78
-2.7766
-2.77306
-2.76939
-2.76565
-2.76191
-2.75823
-2.75465
-2.75119
-2.74782
-2.74448
-2.7411
-2.73763
-2.73403
-2.73026
-2.72637
-2.7224
-2.71841
-2.71447
-2.71063
-2.70693
-2.70334
-2.69984
-2.69635
-2.69281
-2.68916
-2.68535
-2.68138
-2.67726
-2.67305
-2.66881
-2.66461
-2.66052
-2.65655
-2.65273
-2.64903
-2.64539
-2.64176
-2.63806
-2.63424
-2.63026
-2.6261
-2.62178
-2.61735
-2.61286
-2.60839
-2.604
-2.59973
-2.59561
-2.59164
-2.5878
-2.58403
-2.58027
-2.57646
-2.57254
-2.56846
-2.56421
-2.55978
-2.5552
-2.55052
-2.5458
-2.54109
-2.53646
-2.53196
-2.52762
-2.52344
-2.51941
-2.51549
-2.51164
-2.5078
-2.50391
-2.49991
-2.49576
-2.49145
-2.48695
-2.48229
-2.47749
-2.47261
-2.46768
-2.46278
-2.45794
-2.45323
-2.44866
-2.44426
-2.44004
-2.43596
-2.43201
-2.42814
-2.42431
-2.42046
-2.41655
-2.41253
-2.40837
-2.40405
-2.39956
-2.39491
-2.39011
-2.3852
-2.3802
-2.37517
-2.37015
-2.36519
-2.36031
-2.35556
-2.35096
-2.34652
-2.34225
-2.33815
-2.3342
-2.33037
-2.32664
-2.32298
-2.31934
-2.31569
-2.312
-2.30824
-2.30438
-2.30039
-2.29628
-2.29201
-2.28761
-2.28307
-2.2784
-2.27362
-2.26876
-2.26383
-2.25888
-2.25391
-2.24896
-2.24406
-2.23922
-2.23448
-2.22986
-2.22536
-2.221
-2.2168
-2.21275
-2.20886
-2.20513
-2.20155
-2.19813
-2.19484
-2.19168
-2.18865
-2.18572
-2.1829
-2.18017
-2.17752
-2.17493
-2.17239
-2.16988
-2.16739
-2.16488
-2.16233
-2.15974
-2.1571
-2.15438
-2.15155
-2.14862
-2.14563
-2.14255
-2.13938
-2.13611
-2.13279
-2.12946
-2.12614
-2.12282
-2.11952
-2.11629
-2.1132
-2.11028
-2.10754
-2.10493
-2.10238
-2.09978
-2.09711
-2.09434
-2.09147
-2.08853
-2.08556
-2.08257
-2.07958
-2.07661
-2.07366
-2.07073
-2.06783
-2.06496
-2.06212
-2.05931
-2.05652
-2.05376
-2.05103
-2.04833
-2.04566
-2.04301
-2.0404
-2.03781
-2.03526
-2.03274
-2.03024
-2.02778
-2.02534
-2.02294
-2.02056
-2.01822
-2.0159
-2.01361
-2.01136
-2.00913
-2.00693
-2.00477
-2.00262
-2.00052
-1.99843
-1.99639
-1.99436
-1.99237
-1.99042
-1.98847
-1.98658
-1.9847
-1.98285
-1.98104
-1.97924
-1.97748
-1.97575
-1.97405
-1.97236
-1.97073
-1.96909
-1.9675
-1.96595
-1.96438
-1.96289
-1.9614
-1.95993
-1.9585
-1.95711
-1.95573
-1.95435
-1.95306
-1.95174
-1.95045
-1.94922
-1.948
-1.94679
-1.9456
-1.94447
-1.94335
-1.94222
-1.94115
-1.94009
-1.93908
-1.93807
-1.93704
-1.93611
-1.9352
-1.93425
-1.93332
-1.93247
-1.93168
-1.93079
-1.92994
-1.92921
-1.92846
-1.92768
-1.92692
-1.92625
-1.92558
-1.92486
-1.92424
-1.92364
-1.923
-1.92239
-1.92183
-1.92131
-1.92074
-1.92019
-1.91974
-1.91924
-1.91875
-1.9183
-1.91787
-1.91748
-1.91704
-1.91663
-1.91629
-1.91593
-1.91559
-1.91526
-1.91494
-1.91467
-1.91436
-1.91407
-1.91384
-1.91359
-1.91337
-1.91314
-1.91292
-1.91277
-1.91257
-1.91239
-1.91224
-1.91208
-1.91197
-1.91186
-1.91172
-1.91164
-1.91154
-1.91146
-1.91141
-1.91132
-1.91129
-1.91128
-1.91123
-1.91122
-1.91119
-1.91117
-1.91122
-1.91123
-1.91125
-1.9113
-1.9113
-1.91136
-1.91143
-1.91148
-1.91158
-1.91165
-1.91171
-1.91183
-1.91191
-1.91202
-1.91217
-1.91226
-1.91238
-1.91253
-1.91264
-1.91281
-1.91297
-1.91309
-1.91327
-1.91343
-1.91359
-1.91381
-1.91397
-1.91413
-1.91435
-1.91453
-1.91474
-1.91496
-1.91513
-1.91535
-1.91559
-1.91579
-1.91603
-1.91625
-1.91645
-1.91672
-1.91697
-1.91718
-1.91744
-1.91768
-1.91792
-1.91822
-1.91845
-1.91868
-1.91899
-1.91924
-1.9195
-1.91979
-1.92003
-1.92031
-1.92063
-1.92086
-1.92114
-1.92145
-1.92172
-1.92202
-1.92231
-1.92257
-1.92289
-1.92321
-1.92346
-1.92377
-1.92409
-1.92437
-1.92469
-1.92498
-1.92526
-1.92561
-1.92591
-1.92617
-1.92652
-1.92684
-1.92712
-1.92746
-1.92776
-1.92806
-1.92842
-1.92871
-1.929
-1.92936
-1.92968
-1.92996
-1.9303
-1.93064
-1.93093
-1.93127
-1.93158
-1.9319
-1.93226
-1.93256
-1.93285
-1.93323
-1.93355
-1.93382
-1.93419
-1.93453
-1.93482
-1.93517
-1.9355
-1.9358
-1.93616
-1.93648
-1.93677
-1.93714
-1.93748
-1.93775
-1.93811
-1.93847
-1.93875
-1.93908
-1.93945
-1.93975
-1.94006
-1.94043
-1.94074
-1.94106
-1.94141
-1.94172
-1.94204
-1.94241
-1.9427
-1.94302
-1.9434
-1.94369
-1.94398
-1.94438
-1.9447
-1.94496
-1.94534
-1.9457
-1.94596
-1.94631
-1.94668
-1.94695
-1.94727
-1.94766
-1.94795
-1.94824
-1.94863
-1.94894
-1.94922
-1.94959
-1.94992
-1.9502
-1.95055
-1.9509
-1.95117
-1.95151
-1.95187
-1.95216
-1.95247
-1.95284
-1.95314
-1.95344
-1.9538
-1.95411
-1.9544
-1.95476
-1.95509
-1.95536
-1.95571
-1.95605
-1.95633
-1.95666
-1.95701
-1.9573
-1.9576
-1.95797
-1.95827
-1.95855
-1.95891
-1.95924
-1.95951
-1.95985
-1.9602
-1.96047
-1.96078
-1.96115
-1.96143
-1.96171
-1.96209
-1.96239
-1.96265
-1.96301
-1.96335
-1.9636
-1.96393
-1.9643
-1.96456
-1.96485
-1.96523
-1.96551
-1.96578
-1.96616
-1.96647
-1.96671
-1.96707
-1.96741
-1.96765
-1.96798
-1.96834
-1.9686
-1.96889
-1.96926
-1.96955
-1.96982
-1.97016
-1.97049
-1.97075
-1.97106
-1.9714
-1.9717
-1.97197
-1.97231
-1.97263
-1.97289
-1.9732
-1.97356
-1.97382
-1.9741
-1.97447
-1.97475
-1.975
-1.97536
-1.97568
-1.97592
-1.97625
-1.97659
-1.97685
-1.97714
-1.97748
-1.97778
-1.97804
-1.97836
-1.97871
-1.97896
-1.97923
-1.9796
-1.97989
-1.98012
-1.98047
-1.98081
-1.98104
-1.98134
-1.9817
-1.98197
-1.98222
-1.98255
-1.98289
-1.98314
-1.98341
-1.98377
-1.98405
-1.98429
-1.98465
-1.98496
-1.98519
-1.98551
-1.98585
-1.98611
-1.98637
-1.9867
-1.98702
-1.98726
-1.98755
-1.98791
-1.98817
-1.98841
-1.98877
-1.98908
-1.9893
-1.98961
-1.98995
-1.99023
-1.99047
-1.99079
-1.99113
-1.99136
-1.99163
-1.992
-1.99226
-1.9925
-1.99284
-1.99315
-1.99339
-1.99367
-1.99401
-1.9943
-1.99452
-1.99484
-1.99519
-1.99541
-1.99568
-1.99603
-1.99632
-1.99655
-1.99684
-1.99719
-1.99745
-1.99768
-1.99803
-1.99833
-1.99855
-1.99885
-1.99919
-1.99945
-1.99969
-2
-2.00035
-2.00057
-2.00082
-2.00118
-2.00146
-2.00168
-2.00198
-2.00232
-2.00258
-2.0028
-2.00314
-2.00346
-2.00367
-2.00395
-2.0043
-2.00456
-2.00479
-2.00509
-2.00544
-2.00567
-2.0059
-2.00625
-2.00655
-2.00677
-2.00705
-2.00738
-2.00766
-2.00787
-2.00818
-2.00853
-2.00874
-2.00899
-2.00933
-2.00963
-2.00985
-2.0101
-2.01047
-2.01073
-2.01093
-2.01125
-2.01158
-2.01182
-2.01205
-2.01238
-2.0127
-2.0129
-2.01317
-2.01351
-2.01378
-2.014
-2.01428
-2.01463
-2.01487
-2.01508
-2.01542
-2.01573
-2.01595
-2.01619
-2.01653
-2.01683
-2.01702
-2.0173
-2.01764
-2.01791
-2.01812
-2.0184
-2.01875
-2.01898
-2.0192
-2.01953
-2.01983
-2.02006
-2.02029
-2.02064
-2.02093
-2.02112
-2.0214
-2.02174
-2.02201
-2.0222
-2.02249
-2.02284
-2.02307
-2.02329
-2.0236
-2.02392
-2.02414
-2.02436
-2.02471
-2.02499
-2.02519
-2.02546
-2.02579
-2.02607
-2.02625
-2.02654
-2.02689
-2.02713
-2.02733
-2.02762
-2.02797
-2.0282
-2.02841
-2.02872
-2.02903
-2.02926
-2.02947
-2.02981
-2.0301
-2.0303
-2.03055
-2.03089
-2.03119
-2.03135
-2.03161
-2.03196
-2.03223
-2.03244
-2.03269
-2.03304
-2.03328
-2.03348
-2.03378
-2.03411
-2.03434
-2.03452
-2.03485
-2.03518
-2.0354
-2.0356
-2.0359
-2.03624
-2.03644
-2.03666
-2.03698
-2.03729
-2.03749
-2.03771
-2.03806
-2.03835
-2.03854
-2.03876
-2.0391
-2.03941
-2.03959
-2.03983
-2.04016
-2.04045
-2.04063
-2.04088
-2.04123
-2.0415
-2.04168
-2.04192
-2.04228
-2.04255
-2.04273
-2.04299
-2.04332
-2.04359
-2.04376
-2.04404
-2.04438
-2.04464
-2.0448
-2.04508
-2.04543
-2.04568
-2.04586
-2.04612
-2.04647
-2.04672
-2.0469
-2.04718
-2.04752
-2.04776
-2.04793
-2.04822
-2.04856
-2.04881
-2.04897
-2.04925
-2.0496
-2.04983
-2.05002
-2.05029
-2.05064
-2.05087
-2.05105
-2.05133
-2.05167
-2.05192
-2.05208
-2.05237
-2.0527
-2.05295
-2.05312
-2.05341
-2.05374
-2.05398
-2.05415
-2.05442
-2.05478
-2.05502
-2.0552
-2.05546
-2.05581
-2.05605
-2.05622
-2.05649
-2.05684
-2.05709
-2.05725
-2.05752
-2.05785
-2.05812
-2.05829
-2.05854
-2.05888
-2.05915
-2.05932
-2.05956
-2.05992
-2.06018
-2.06036
-2.06058
-2.06093
-2.06121
-2.06139
-2.06161
-2.06195
-2.06224
-2.06241
-2.06263
-2.06296
-2.06328
-2.06345
-2.06366
-2.06398
-2.0643
-2.06448
-2.06468
-2.06499
-2.06532
-2.06552
-2.06569
-2.06601
-2.06633
-2.06656
-2.06672
-2.06702
-2.06735
-2.06758
-2.06775
-2.06802
-2.06837
-2.06861
-2.06878
-2.06903
-2.06938
-2.06964
-2.06981
-2.07004
-2.07039
-2.07067
-2.07084
-2.07105
-2.07139
-2.0717
-2.07187
-2.07207
-2.07239
-2.07271
-2.07291
-2.07309
-2.07338
-2.07373
-2.07394
-2.07411
-2.07438
-2.07473
-2.07497
-2.07513
-2.07539
-2.07573
-2.076
-2.07616
-2.07639
-2.07672
-2.07703
-2.0772
-2.0774
-2.07772
-2.07805
-2.07823
-2.07841
-2.07871
-2.07905
-2.07927
-2.07943
-2.0797
-2.08005
-2.0803
-2.08045
-2.0807
-2.08105
-2.08133
-2.08148
-2.0817
-2.08203
-2.08235
-2.08252
-2.08271
-2.08302
-2.08335
-2.08356
-2.08372
-2.084
-2.08435
-2.08459
-2.08474
-2.08499
-2.08534
-2.08562
-2.08577
-2.08599
-2.08632
-2.08664
-2.08681
-2.087
-2.0873
-2.08764
-2.08785
-2.08801
-2.08828
-2.08864
-2.08889
-2.08904
-2.08927
-2.08962
-2.0899
-2.09007
-2.09027
-2.09059
-2.09092
-2.09111
-2.09128
-2.09156
-2.09192
-2.09215
-2.0923
-2.09254
-2.0929
-2.09317
-2.09333
-2.09353
-2.09387
-2.09418
-2.09437
-2.09454
-2.09483
-2.09518
-2.09541
-2.09556
-2.09581
-2.09616
-2.09644
-2.09659
-2.09679
-2.09713
-2.09745
-2.09764
-2.0978
-2.0981
-2.09844
-2.09867
-2.09882
-2.09906
-2.09941
-2.0997
-2.09986
-2.10005
-2.10037
-2.10071
-2.1009
-2.10105
-2.10133
-2.10169
-2.10194
-2.10208
-2.1023
-2.10265
-2.10295
-2.10312
-2.1033
-2.10361
-2.10394
-2.10417
-2.10431
-2.10456
-2.10492
-2.1052
-2.10535
-2.10554
-2.10587
-2.10621
-2.1064
-2.10655
-2.10683
-2.10718
-2.10743
-2.10758
-2.10779
-2.10814
-2.10845
-2.10863
-2.10879
-2.10908
-2.10943
-2.10967
-2.10981
-2.11003
-2.11039
-2.11069
-2.11085
-2.11102
-2.11133
-2.11168
-2.1119
-2.11204
-2.11228
-2.11263
-2.11292
-2.11308
-2.11326
-2.11358
-2.11392
-2.11413
-2.11427
-2.11452
-2.11488
-2.11516
-2.11531
-2.11549
-2.11581
-2.11615
-2.11636
-2.1165
-2.11675
-2.11711
-2.11739
-2.11753
-2.11772
-2.11805
-2.11838
-2.11858
-2.11873
-2.11898
-2.11934
-2.11961
-2.11977
-2.11995
-2.12027
-2.12061
-2.12082
-2.12095
-2.12121
-2.12157
-2.12185
-2.122
-2.12217
-2.12249
-2.12283
-2.12304
-2.12318
-2.12343
-2.12379
-2.12407
-2.12422
-2.12439
-2.12471
-2.12505
-2.12527
-2.12541
-2.12564
-2.12598
-2.12629
-2.12646
-2.12661
-2.1269
-2.12726
-2.1275
-2.12764
-2.12784
-2.12819
-2.12851
-2.12869
-2.12883
-2.1291
-2.12947
-2.12974
-2.12987
-2.13005
-2.13038
-2.13072
-2.13092
-2.13106
-2.1313
-2.13165
-2.13195
-2.1321
-2.13226
-2.13256
-2.13292
-2.13316
-2.13328
-2.13348
-2.13383
-2.13416
-2.13434
-2.13447
-2.13473
-2.1351
-2.13538
-2.13552
-2.13569
-2.136
-2.13635
-2.13657
-2.1367
-2.13692
-2.13728
-2.13759
-2.13775
-2.13789
-2.13817
-2.13853
-2.1388
-2.13893
-2.13911
-2.13943
-2.13977
-2.13998
-2.14012
-2.14034
-2.14069
-2.14099
-2.14116
-2.14131
-2.14159
-2.14195
-2.1422
-2.14233
-2.14252
-2.14285
-2.14319
-2.14339
-2.14351
-2.14375
-2.1441
-2.14441
-2.14457
-2.14471
-2.14499
-2.14535
-2.1456
-2.14575
-2.14593
-2.14625
-2.14658
-2.14679
-2.14693
-2.14716
-2.1475
-2.1478
-2.14796
-2.14812
-2.14839
-2.14874
-2.149
-2.14914
-2.14932
-2.14962
-2.14997
-2.1502
-2.15033
-2.15053
-2.15086
-2.15119
-2.15139
-2.15152
-2.15175
-2.1521
-2.1524
-2.15257
-2.15271
-2.15298
-2.15333
-2.1536
-2.15374
-2.15391
-2.15421
-2.15456
-2.15479
-2.15491
-2.15511
-2.15545
-2.15578
-2.15597
-2.15609
-2.15633
-2.15668
-2.15699
-2.15715
-2.15729
-2.15755
-2.15791
-2.15819
-2.15833
-2.15849
-2.15877
-2.15912
-2.15937
-2.15951
-2.15969
-2.16
-2.16033
-2.16055
-2.16069
-2.1609
-2.16123
-2.16154
-2.16173
-2.16187
-2.16211
-2.16245
-2.16274
-2.16291
-2.16306
-2.16333
-2.16367
-2.16394
-2.16409
-2.16426
-2.16454
-2.16488
-2.16513
-2.16527
-2.16545
-2.16576
-2.16609
-2.16631
-2.16645
-2.16665
-2.16697
-2.16729
-2.16749
-2.16763
-2.16786
-2.16819
-2.16849
-2.16867
-2.16882
-2.16907
-2.1694
-2.16968
-2.16985
-2.17001
-2.17028
-2.17062
-2.17088
-2.17103
-2.1712
-2.17149
-2.17182
-2.17207
-2.17221
-2.17238
-2.17269
-2.17302
-2.17326
-2.17339
-2.17357
-2.17389
-2.17423
-2.17445
-2.17458
-2.17477
-2.17509
-2.17543
-2.17564
-2.17577
-2.17597
-2.17629
-2.17662
-2.17683
-2.17696
-2.17717
-2.17749
-2.17781
-2.17801
-2.17815
-2.17836
-2.17869
-2.179
-2.1792
-2.17934
-2.17956
-2.17989
-2.18019
-2.18038
-2.18053
-2.18076
-2.18109
-2.18138
-2.18156
-2.18172
-2.18196
-2.18229
-2.18257
-2.18275
-2.18291
-2.18317
-2.18349
-2.18376
-2.18394
-2.18411
-2.18436
-2.18468
-2.18495
-2.18512
-2.18529
-2.18556
-2.18588
-2.18614
-2.18631
-2.18648
-2.18675
-2.18707
-2.18733
-2.18749
-2.18767
-2.18794
-2.18827
-2.18852
-2.18869
-2.18886
-2.18914
-2.18947
-2.18972
-2.18988
-2.19005
-2.19033
-2.19066
-2.19092
-2.19108
-2.19124
-2.19152
-2.19185
-2.19212
-2.19227
-2.19243
-2.1927
-2.19304
-2.19331
-2.19347
-2.19362
-2.19389
-2.19423
-2.1945
-2.19466
-2.19482
-2.19508
-2.19542
-2.19569
-2.19586
-2.19602
-2.19627
-2.19661
-2.19689
-2.19707
-2.19722
-2.19747
-2.19779
-2.19808
-2.19827
-2.19842
-2.19866
-2.19898
-2.19928
-2.19946
-2.19962
-2.19985
-2.20017
-2.20046
-2.20066
-2.20081
-2.20104
-2.20136
-2.20166
-2.20186
-2.20201
-2.20224
-2.20255
-2.20285
-2.20306
-2.20321
-2.20343
-2.20374
-2.20404
-2.20426
-2.20442
-2.20463
-2.20493
-2.20524
-2.20546
-2.20562
-2.20583
-2.20612
-2.20643
-2.20666
-2.20682
-2.20702
-2.20731
-2.20762
-2.20785
-2.20802
-2.20822
-2.2085
-2.20881
-2.20905
-2.20923
-2.20941
-2.20968
-2.21
-2.21026
-2.21044
-2.21061
-2.21087
-2.21119
-2.21146
-2.21165
-2.21182
-2.21206
-2.21238
-2.21266
-2.21286
-2.21303
-2.21326
-2.21356
-2.21386
-2.21407
-2.21423
-2.21445
-2.21475
-2.21504
-2.21527
-2.21544
-2.21565
-2.21593
-2.21623
-2.21647
-2.21666
-2.21686
-2.21712
-2.21742
-2.21768
-2.21787
-2.21807
-2.21831
-2.2186
-2.21888
-2.21909
-2.21928
-2.21951
-2.21979
-2.22007
-2.2203
-2.22049
-2.22071
-2.22098
-2.22127
-2.2215
-2.2217
-2.22191
-2.22217
-2.22246
-2.22271
-2.2229
-2.22311
-2.22337
-2.22366
-2.22391
-2.22411
-2.22431
-2.22456
-2.22485
-2.22512
-2.22533
-2.22552
-2.22575
-2.22604
-2.22633
-2.22654
-2.22673
-2.22695
-2.22724
-2.22753
-2.22776
-2.22794
-2.22815
-2.22842
-2.22873
-2.22897
-2.22916
-2.22935
-2.22961
-2.22992
-2.23018
-2.23037
-2.23056
-2.2308
-2.2311
-2.23138
-2.23159
-2.23177
-2.232
-2.23229
-2.23258
-2.23281
-2.233
-2.2332
-2.23348
-2.23377
-2.23402
-2.23422
-2.23442
-2.23467
-2.23496
-2.23523
-2.23545
-2.23564
-2.23586
-2.23614
-2.23643
-2.23666
-2.23686
-2.23707
-2.23733
-2.23762
-2.23787
-2.23808
-2.23828
-2.23853
-2.23881
-2.23908
-2.23929
-2.2395
-2.23973
-2.24
-2.24028
-2.24051
-2.24071
-2.24093
-2.2412
-2.24148
-2.24173
-2.24193
-2.24214
-2.2424
-2.24269
-2.24294
-2.24314
-2.24335
-2.2436
-2.24388
-2.24415
-2.24436
-2.24456
-2.24479
-2.24507
-2.24535
-2.24558
-2.24578
-2.246
-2.24626
-2.24654
-2.2468
-2.24701
-2.24721
-2.24745
-2.24774
-2.24801
-2.24823
-2.24843
-2.24865
-2.24892
-2.24921
-2.24946
-2.24966
-2.24987
-2.25012
-2.2504
-2.25067
-2.25089
-2.25109
-2.25132
-2.25159
-2.25187
-2.25211
-2.25231
-2.25252
-2.25278
-2.25306
-2.25332
-2.25353
-2.25374
-2.25398
-2.25426
-2.25453
-2.25475
-2.25496
-2.25519
-2.25545
-2.25573
-2.25597
-2.25618
-2.2564
-2.25665
-2.25692
-2.25718
-2.25741
-2.25762
-2.25785
-2.25812
-2.25839
-2.25862
-2.25884
-2.25906
-2.25932
-2.25959
-2.25984
-2.26006
-2.26027
-2.26052
-2.26079
-2.26105
-2.26128
-2.26149
-2.26172
-2.26198
-2.26226
-2.2625
-2.26271
-2.26293
-2.26317
-2.26345
-2.26372
-2.26394
-2.26415
-2.26438
-2.26465
-2.26492
-2.26516
-2.26537
-2.26559
-2.26584
-2.26611
-2.26637
-2.2666
-2.26681
-2.26704
-2.2673
-2.26758
-2.26782
-2.26803
-2.26825
-2.2685
-2.26877
-2.26903
-2.26926
-2.26947
-2.2697
-2.26996
-2.27023
-2.27048
-2.2707
-2.27092
-2.27116
-2.27143
-2.27169
-2.27192
-2.27213
-2.27237
-2.27263
-2.27289
-2.27313
-2.27335
-2.27358
-2.27383
-2.27409
-2.27434
-2.27457
-2.27479
-2.27503
-2.27529
-2.27555
-2.27579
-2.27601
-2.27624
-2.27649
-2.27675
-2.277
-2.27723
-2.27745
-2.27768
-2.27795
-2.27821
-2.27845
-2.27867
-2.27889
-2.27914
-2.27941
-2.27967
-2.27989
-2.28011
-2.28034
-2.2806
-2.28087
-2.28111
-2.28133
-2.28155
-2.28179
-2.28206
-2.28232
-2.28256
-2.28277
-2.283
-2.28325
-2.28352
-2.28377
-2.284
-2.28421
-2.28445
-2.28471
-2.28497
-2.28522
-2.28544
-2.28566
-2.2859
-2.28617
-2.28642
-2.28666
-2.28688
-2.28711
-2.28736
-2.28762
-2.28787
-2.28809
-2.28832
-2.28856
-2.28882
-2.28907
-2.28931
-2.28953
-2.28977
-2.29002
-2.29027
-2.29052
-2.29075
-2.29097
-2.29122
-2.29148
-2.29173
-2.29196
-2.29218
-2.29242
-2.29267
-2.29293
-2.29318
-2.2934
-2.29362
-2.29387
-2.29413
-2.29439
-2.29462
-2.29484
-2.29507
-2.29532
-2.29558
-2.29584
-2.29607
-2.29628
-2.29651
-2.29677
-2.29703
-2.29728
-2.29751
-2.29772
-2.29796
-2.29822
-2.29848
-2.29872
-2.29895
-2.29917
-2.29941
-2.29967
-2.29993
-2.30017
-2.30039
-2.30062
-2.30086
-2.30112
-2.30137
-2.30161
-2.30183
-2.30207
-2.30232
-2.30257
-2.30281
-2.30305
-2.30328
-2.30352
-2.30377
-2.30402
-2.30425
-2.30448
-2.30472
-2.30497
-2.30522
-2.30546
-2.30569
-2.30592
-2.30617
-2.30642
-2.30667
-2.30691
-2.30713
-2.30736
-2.30761
-2.30787
-2.30812
-2.30835
-2.30857
-2.30881
-2.30906
-2.30932
-2.30957
-2.30979
-2.31001
-2.31025
-2.31051
-2.31077
-2.31101
-2.31124
-2.31146
-2.3117
-2.31196
-2.31222
-2.31246
-2.31268
-2.31291
-2.31315
-2.31341
-2.31366
-2.3139
-2.31413
-2.31436
-2.3146
-2.31485
-2.3151
-2.31534
-2.31557
-2.3158
-2.31605
-2.3163
-2.31655
-2.31678
-2.31702
-2.31726
-2.3175
-2.31775
-2.31799
-2.31823
-2.31846
-2.31871
-2.31895
-2.3192
-2.31943
-2.31967
-2.31991
-2.32016
-2.32041
-2.32064
-2.32088
-2.32111
-2.32135
-2.32161
-2.32186
-2.32209
-2.32232
-2.32255
-2.3228
-2.32306
-2.32331
-2.32354
-2.32377
-2.324
-2.32425
-2.32451
-2.32476
-2.32499
-2.32521
-2.32545
-2.3257
-2.32595
-2.32621
-2.32644
-2.32666
-2.3269
-2.32715
-2.3274
-2.32765
-2.32789
-2.32812
-2.32835
-2.3286
-2.32885
-2.3291
-2.32934
-2.32957
-2.3298
-2.33005
-2.3303
-2.33055
-2.33078
-2.33102
-2.33126
-2.3315
-2.33175
-2.33199
-2.33223
-2.33247
-2.33271
-2.33296
-2.3332
-2.33344
-2.33368
-2.33392
-2.33417
-2.33441
-2.33465
-2.33489
-2.33512
-2.33537
-2.33562
-2.33587
-2.33611
-2.33634
-2.33657
-2.33682
-2.33707
-2.33732
-2.33756
-2.33779
-2.33803
-2.33827
-2.33853
-2.33878
-2.33902
-2.33925
-2.33948
-2.33972
-2.33998
-2.34023
-2.34047
-2.3407
-2.34093
-2.34118
-2.34143
-2.34168
-2.34192
-2.34216
-2.34239
-2.34263
-2.34288
-2.34313
-2.34338
-2.34361
-2.34385
-2.34409
-2.34434
-2.34459
-2.34483
-2.34507
-2.34531
-2.34555
-2.3458
-2.34604
-2.34628
-2.34652
-2.34677
-2.34701
-2.34726
-2.3475
-2.34774
-2.34798
-2.34822
-2.34847
-2.34872
-2.34896
-2.34919
-2.34943
-2.34968
-2.34993
-2.35018
-2.35042
-2.35065
-2.35089
-2.35114
-2.35139
-2.35164
-2.35188
-2.35211
-2.35235
-2.35259
-2.35285
-2.3531
-2.35334
-2.35358
-2.35381
-2.35405
-2.3543
-2.35456
-2.3548
-2.35504
-2.35527
-2.35551
-2.35576
-2.35601
-2.35626
-2.3565
-2.35674
-2.35698
-2.35723
-2.35747
-2.35772
-2.35796
-2.3582
-2.35844
-2.35869
-2.35894
-2.35918
-2.35942
-2.35966
-2.35991
-2.36016
-2.3604
-2.36064
-2.36088
-2.36112
-2.36137
-2.36162
-2.36187
-2.3621
-2.36234
-2.36259
-2.36284
-2.36309
-2.36333
-2.36357
-2.36381
-2.36405
-2.3643
-2.36455
-2.3648
-2.36504
-2.36527
-2.36551
-2.36576
-2.36601
-2.36626
-2.3665
-2.36674
-2.36698
-2.36723
-2.36748
-2.36773
-2.36797
-2.36821
-2.36845
-2.36869
-2.36894
-2.36919
-2.36944
-2.36968
-2.36992
-2.37016
-2.37041
-2.37066
-2.3709
-2.37115
-2.37139
-2.37163
-2.37188
-2.37213
-2.37237
-2.37261
-2.37286
-2.3731
-2.37335
-2.3736
-2.37384
-2.37408
-2.37433
-2.37457
-2.37482
-2.37507
-2.37531
-2.37555
-2.37579
-2.37604
-2.37629
-2.37654
-2.37678
-2.37702
-2.37726
-2.37751
-2.37776
-2.37801
-2.37826
-2.3785
-2.37873
-2.37898
-2.37923
-2.37948
-2.37973
-2.37997
-2.38021
-2.38045
-2.3807
-2.38095
-2.3812
-2.38144
-2.38168
-2.38193
-2.38217
-2.38242
-2.38267
-2.38292
-2.38316
-2.3834
-2.38365
-2.3839
-2.38414
-2.38439
-2.38463
-2.38488
-2.38512
-2.38537
-2.38562
-2.38586
-2.3861
-2.38635
-2.3866
-2.38685
-2.38709
-2.38733
-2.38758
-2.38782
-2.38808
-2.38832
-2.38857
-2.38881
-2.38905
-2.3893
-2.38955
-2.3898
-2.39005
-2.39029
-2.39053
-2.39077
-2.39102
-2.39127
-2.39152
-2.39177
-2.39201
-2.39225
-2.3925
-2.39275
-2.393
-2.39325
-2.39349
-2.39373
-2.39398
-2.39423
-2.39448
-2.39472
-2.39497
-2.39521
-2.39546
-2.39571
-2.39595
-2.3962
-2.39645
-2.39669
-2.39694
-2.39719
-2.39743
-2.39768
-2.39792
-2.39817
-2.39842
-2.39866
-2.39891
-2.39916
-2.3994
-2.39965
-2.3999
-2.40015
-2.40039
-2.40064
-2.40089
-2.40113
-2.40137
-2.40162
-2.40187
-2.40212
-2.40237
-2.40261
-2.40286
-2.4031
-2.40335
-2.4036
-2.40385
-2.40409
-2.40434
-2.40458
-2.40483
-2.40509
-2.40533
-2.40558
-2.40582
-2.40607
-2.40632
-2.40657
-2.40681
-2.40706
-2.40731
-2.40755
-2.4078
-2.40805
-2.4083
-2.40854
-2.40879
-2.40904
-2.40928
-2.40953
-2.40978
-2.41003
-2.41027
-2.41052
-2.41077
-2.41102
-2.41126
-2.41151
-2.41176
-2.412
-2.41225
-2.4125
-2.41275
-2.41299
-2.41324
-2.41349
-2.41374
-2.41398
-2.41423
-2.41448
-2.41473
-2.41497
-2.41522
-2.41547
-2.41572
-2.41597
-2.41621
-2.41646
-2.4167
-2.41695
-2.4172
-2.41745
-2.4177
-2.41795
-2.41819
-2.41844
-2.41869
-2.41894
-2.41919
-2.41943
-2.41968
-2.41993
-2.42017
-2.42042
-2.42067
-2.42092
-2.42117
-2.42141
-2.42166
-2.42191
-2.42216
-2.42241
-2.42265
-2.4229
-2.42315
-2.4234
-2.42365
-2.42389
-2.42414
-2.42439
-2.42464
-2.42489
-2.42514
-2.42538
-2.42563
-2.42588
-2.42613
-2.42638
-2.42663
-2.42687
-2.42712
-2.42737
-2.42761
-2.42786
-2.42811
-2.42836
-2.42861
-2.42886
-2.4291
-2.42935
-2.4296
-2.42985
-2.4301
-2.43035
-2.43059
-2.43084
-2.43109
-2.43134
-2.43159
-2.43184
-2.43208
-2.43233
-2.43258
-2.43283
-2.43308
-2.43333
-2.43358
-2.43382
-2.43407
-2.43432
-2.43457
-2.43482
-2.43507
-2.43532
-2.43556
-2.43581
-2.43606
-2.43631
-2.43656
-2.43681
-2.43706
-2.43731
-2.43755
-2.4378
-2.43805
-2.4383
-2.43855
-2.4388
-2.43905
-2.4393
-2.43954
-2.43979
-2.44004
-2.44029
-2.44054
-2.44079
-2.44104
-2.44129
-2.44153
-2.44178
-2.44203
-2.44228
-2.44253
-2.44278
-2.44303
-2.44327
-2.44352
-2.44377
-2.44403
-2.44427
-2.44452
-2.44477
-2.44502
-2.44527
-2.44552
-2.44577
-2.44602
-2.44626
-2.44651
-2.44676
-2.44701
-2.44726
-2.44751
-2.44776
-2.44801
-2.44826
-2.44851
-2.44875
-2.449
-2.44925
-2.4495
-2.44975
-2.45
-2.45025
-2.4505
-2.45075
-2.451
-2.45125
-2.4515
-2.45175
-2.452
-2.45224
-2.45249
-2.45274
-2.45299
-2.45324
-2.45349
-2.45374
-2.45399
-2.45424
-2.45449
-2.45474
-2.45499
-2.45524
-2.45549
-2.45574
-2.45598
-2.45623
-2.45648
-2.45674
-2.45699
-2.45723
-2.45748
-2.45773
-2.45798
-2.45823
-2.45848
-2.45873
-2.45898
-2.45923
-2.45948
-2.45973
-2.45998
-2.46023
-2.46048
-2.46073
-2.46098
-2.46123
-2.46148
-2.46173
-2.46198
-2.46223
-2.46248
-2.46273
-2.46298
-2.46323
-2.46348
-2.46372
-2.46397
-2.46423
-2.46448
-2.46473
-2.46498
-2.46522
-2.46547
-2.46572
-2.46597
-2.46623
-2.46648
-2.46673
-2.46697
-2.46722
-2.46747
-2.46773
-2.46798
-2.46823
-2.46848
-2.46873
-2.46897
-2.46922
-2.46948
-2.46973
-2.46998
-2.47023
-2.47048
-2.47073
-2.47098
-2.47123
-2.47148
-2.47173
-2.47198
-2.47223
-2.47248
-2.47273
-2.47298
-2.47323
-2.47348
-2.47373
-2.47398
-2.47423
-2.47448
-2.47473
-2.47498
-2.47523
-2.47548
-2.47574
-2.47599
-2.47624
-2.47649
-2.47674
-2.47699
-2.47724
-2.47749
-2.47774
-2.47799
-2.47824
-2.47849
-2.47874
-2.47899
-2.47924
-2.4795
-2.47975
-2.48
-2.48025
-2.4805
-2.48075
-2.481
-2.48125
-2.4815
-2.48175
-2.482
-2.48225
-2.4825
-2.48275
-2.48301
-2.48326
-2.48351
-2.48376
-2.48401
-2.48426
-2.48451
-2.48476
-2.48501
-2.48527
-2.48552
-2.48577
-2.48602
-2.48627
-2.48652
-2.48677
-2.48703
-2.48728
-2.48753
-2.48778
-2.48803
-2.48828
-2.48853
-2.48878
-2.48904
-2.48929
-2.48954
-2.48979
-2.49004
-2.49029
-2.49054
-2.4908
-2.49105
-2.4913
-2.49155
-2.4918
-2.49205
-2.4923
-2.49256
-2.49281
-2.49306
-2.49331
-2.49356
-2.49382
-2.49407
-2.49432
-2.49457
-2.49482
-2.49508
-2.49533
-2.49558
-2.49583
-2.49608
-2.49633
-2.49658
-2.49684
-2.49709
-2.49734
-2.49759
-2.49784
-2.4981
-2.49835
-2.4986
-2.49886
-2.49911
-2.49936
-2.49961
-2.49986
-2.50011
-2.50037
-2.50062
-2.50087
-2.50113
-2.50138
-2.50163
-2.50188
-2.50213
-2.50238
-2.50264
-2.50289
-2.50314
-2.5034
-2.50365
-2.5039
-2.50415
-2.5044
-2.50466
-2.50491
-2.50517
-2.50542
-2.50567
-2.50592
-2.50617
-2.50643
-2.50668
-2.50693
-2.50719
-2.50744
-2.50769
-2.50794
-2.5082
-2.50845
-2.5087
-2.50896
-2.50921
-2.50946
-2.50971
-2.50997
-2.51022
-2.51047
-2.51073
-2.51098
-2.51123
-2.51149
-2.51174
-2.51199
-2.51224
-2.5125
-2.51275
-2.51301
-2.51326
-2.51351
-2.51376
-2.51402
-2.51427
-2.51453
-2.51478
-2.51503
-2.51529
-2.51554
-2.51579
-2.51604
-2.5163
-2.51655
-2.51681
-2.51706
-2.51732
-2.51757
-2.51782
-2.51807
-2.51833
-2.51858
-2.51884
-2.51909
-2.51935
-2.5196
-2.51985
-2.5201
-2.52036
-2.52061
-2.52087
-2.52112
-2.52138
-2.52163
-2.52188
-2.52214
-2.52239
-2.52265
-2.5229
-2.52315
-2.52341
-2.52366
-2.52391
-2.52417
-2.52442
-2.52468
-2.52493
-2.52519
-2.52544
-2.5257
-2.52595
-2.5262
-2.52646
-2.52671
-2.52697
-2.52722
-2.52748
-2.52773
-2.52798
-2.52824
-2.52849
-2.52875
-2.52901
-2.52926
-2.52952
-2.52977
-2.53002
-2.53028
-2.53053
-2.53079
-2.53104
-2.5313
-2.53155
-2.53181
-2.53206
-2.53232
-2.53257
-2.53283
-2.53308
-2.53334
-2.53359
-2.53385
-2.5341
-2.53436
-2.53461
-2.53487
-2.53512
-2.53538
-2.53563
-2.53589
-2.53614
-2.5364
-2.53665
-2.53691
-2.53717
-2.53742
-2.53768
-2.53793
-2.53819
-2.53844
-2.5387
-2.53895
-2.53921
-2.53946
-2.53972
-2.53997
-2.54023
-2.54048
-2.54074
-2.541
-2.54125
-2.54151
-2.54176
-2.54202
-2.54227
-2.54253
-2.54279
-2.54304
-2.5433
-2.54355
-2.54381
-2.54407
-2.54432
-2.54458
-2.54483
-2.54509
-2.54535
-2.5456
-2.54586
-2.54611
-2.54637
-2.54662
-2.54688
-2.54714
-2.54739
-2.54765
-2.54791
-2.54816
-2.54842
-2.54867
-2.54893
-2.54919
-2.54944
-2.5497
-2.54996
-2.55021
-2.55047
-2.55072
-2.55098
-2.55124
-2.55149
-2.55175
-2.55201
-2.55226
-2.55252
-2.55278
-2.55303
-2.55329
-2.55355
-2.5538
-2.55406
-2.55432
-2.55457
-2.55483
-2.55509
-2.55534
-2.5556
-2.55586
-2.55611
-2.55637
-2.55663
-2.55688
-2.55714
-2.5574
-2.55765
-2.55791
-2.55817
-2.55842
-2.55868
-2.55894
-2.55919
-2.55945
-2.55971
-2.55996
-2.56022
-2.56048
-2.56074
-2.56099
-2.56125
-2.56151
-2.56176
-2.56202
-2.56228
-2.56254
-2.56279
-2.56305
-2.56331
-2.56356
-2.56382
-2.56408
-2.56434
-2.56459
-2.56485
-2.56511
-2.56537
-2.56562
-2.56588
-2.56614
-2.5664
-2.56665
-2.56691
-2.56717
-2.56743
-2.56768
-2.56794
-2.5682
-2.56846
-2.56871
-2.56897
-2.56923
-2.56949
-2.56974
-2.57
-2.57026
-2.57052
-2.57078
-2.57103
-2.57129
-2.57155
-2.57181
-2.57206
-2.57232
-2.57258
-2.57284
-2.5731
-2.57335
-2.57361
-2.57387
-2.57413
-2.57439
-2.57464
-2.5749
-2.57516
-2.57542
-2.57568
-2.57593
-2.57619
-2.57645
-2.57671
-2.57697
-2.57722
-2.57748
-2.57774
-2.578
-2.57826
-2.57852
-2.57877
-2.57903
-2.57929
-2.57955
-2.57981
-2.58007
-2.58032
-2.58058
-2.58084
-2.5811
-2.58136
-2.58161
-2.58187
-2.58213
-2.58239
-2.58265
-2.58291
-2.58317
-2.58342
-2.58368
-2.58394
-2.5842
-2.58446
-2.58472
-2.58498
-2.58524
-2.5855
-2.58575
-2.58601
-2.58627
-2.58653
-2.58679
-2.58705
-2.58731
-2.58757
-2.58782
-2.58808
-2.58834
-2.5886
-2.58886
-2.58912
-2.58938
-2.58964
-2.5899
-2.59016
-2.59041
-2.59067
-2.59093
-2.59119
-2.59145
-2.59171
-2.59197
-2.59223
-2.59249
-2.59275
-2.59301
-2.59326
-2.59352
-2.59378
-2.59404
-2.5943
-2.59456
-2.59482
-2.59508
-2.59534
-2.5956
-2.59586
-2.59612
-2.59638
-2.59664
-2.5969
-2.59716
-2.59742
-2.59768
-2.59794
-2.5982
-2.59846
-2.59871
-2.59897
-2.59923
-2.59949
-2.59975
-2.60001
-2.60027
-2.60053
-2.60079
-2.60105
-2.60131
-2.60157
-2.60183
-2.60209
-2.60235
-2.60261
-2.60287
-2.60313
-2.60339
-2.60365
-2.60391
-2.60417
-2.60443
-2.60469
-2.60495
-2.60521
-2.60547
-2.60573
-2.60599
-2.60625
-2.60651
-2.60677
-2.60704
-2.6073
-2.60756
-2.60782
-2.60808
-2.60834
-2.6086
-2.60886
-2.60912
-2.60938
-2.60964
-2.6099
-2.61016
-2.61042
-2.61068
-2.61094
-2.6112
-2.61146
-2.61172
-2.61199
-2.61225
-2.61251
-2.61277
-2.61303
-2.61329
-2.61355
-2.61381
-2.61407
-2.61433
-2.61459
-2.61485
-2.61511
-2.61537
-2.61563
-2.6159
-2.61616
-2.61642
-2.61668
-2.61694
-2.6172
-2.61746
-2.61772
-2.61798
-2.61825
-2.61851
-2.61877
-2.61903
-2.61929
-2.61955
-2.61981
-2.62007
-2.62034
-2.6206
-2.62086
-2.62112
-2.62138
-2.62164
-2.6219
-2.62216
-2.62243
-2.62269
-2.62295