/*--------------------------------*- C++ -*----------------------------------*\
  =========                 |
  \\      /  F ield         | OpenFOAM: The Open Source CFD Toolbox
   \\    /   O peration     | Website:  https://openfoam.org
    \\  /    A nd           | Version:  9
     \\/     M anipulation  |
\*---------------------------------------------------------------------------*/
FoamFile
{
    format      ascii;
    class       volVectorField;
    location    "0.05";
    object      ddt0(rho,U);
}
// * * * * * * * * * * * * * * * * * * * * * * * * * * * * * * * * * * * * * //

dimensions      [1 -2 -2 0 0 0 0];

internalField   nonuniform List<vector> 
10000
(
(-10.9121 0 0)
(-12.0232 0 0)
(-13.3458 0 0)
(-14.4171 0 0)
(-15.3752 0 0)
(-16.339 0 0)
(-17.3253 0 0)
(-18.3193 0 0)
(-19.3125 0 0)
(-20.3043 0 0)
(-21.2963 0 0)
(-22.2891 0 0)
(-23.2825 0 0)
(-24.2764 0 0)
(-25.271 0 0)
(-26.2662 0 0)
(-27.2621 0 0)
(-28.2587 0 0)
(-29.2559 0 0)
(-30.2538 0 0)
(-31.2524 0 0)
(-32.2517 0 0)
(-33.2518 0 0)
(-34.2527 0 0)
(-35.2543 0 0)
(-36.2567 0 0)
(-37.2599 0 0)
(-38.264 0 0)
(-39.2689 0 0)
(-40.2747 0 0)
(-41.2813 0 0)
(-42.2889 0 0)
(-43.2975 0 0)
(-44.307 0 0)
(-45.3175 0 0)
(-46.3289 0 0)
(-47.3415 0 0)
(-48.3551 0 0)
(-49.3698 0 0)
(-50.3854 0 0)
(-51.4022 0 0)
(-52.4201 0 0)
(-53.4393 0 0)
(-54.4596 0 0)
(-55.4809 0 0)
(-56.5035 0 0)
(-57.5273 0 0)
(-58.5525 0 0)
(-59.5797 0 0)
(-60.6031 0 0)
(-61.5599 0 0)
(-62.5794 0 0)
(-63.6986 0 0)
(-64.7536 0 0)
(-65.7717 0 0)
(-66.8113 0 0)
(-67.8622 0 0)
(-68.8936 0 0)
(-69.9181 0 0)
(-70.965 0 0)
(-72.0205 0 0)
(-73.0578 0 0)
(-74.0921 0 0)
(-75.1469 0 0)
(-76.2057 0 0)
(-77.2482 0 0)
(-78.2931 0 0)
(-79.3566 0 0)
(-80.4185 0 0)
(-81.4668 0 0)
(-82.5227 0 0)
(-83.5934 0 0)
(-84.6579 0 0)
(-85.7143 0 0)
(-86.7826 0 0)
(-87.8592 0 0)
(-88.9265 0 0)
(-89.9924 0 0)
(-91.0714 0 0)
(-92.1521 0 0)
(-93.225 0 0)
(-94.3037 0 0)
(-95.3919 0 0)
(-96.4753 0 0)
(-97.5561 0 0)
(-98.6466 0 0)
(-99.7406 0 0)
(-100.83 0 0)
(-101.923 0 0)
(-103.024 0 0)
(-104.122 0 0)
(-105.219 0 0)
(-106.324 0 0)
(-107.431 0 0)
(-108.536 0 0)
(-109.646 0 0)
(-110.761 0 0)
(-111.873 0 0)
(-112.988 0 0)
(-114.108 0 0)
(-115.228 0 0)
(-116.35 0 0)
(-117.477 0 0)
(-118.606 0 0)
(-119.736 0 0)
(-120.869 0 0)
(-122.004 0 0)
(-123.14 0 0)
(-124.279 0 0)
(-125.423 0 0)
(-126.567 0 0)
(-127.714 0 0)
(-128.866 0 0)
(-130.017 0 0)
(-131.171 0 0)
(-132.328 0 0)
(-133.486 0 0)
(-134.647 0 0)
(-135.812 0 0)
(-136.98 0 0)
(-138.15 0 0)
(-139.323 0 0)
(-140.497 0 0)
(-141.673 0 0)
(-142.852 0 0)
(-144.033 0 0)
(-145.218 0 0)
(-146.406 0 0)
(-147.597 0 0)
(-148.792 0 0)
(-149.988 0 0)
(-151.187 0 0)
(-152.388 0 0)
(-153.591 0 0)
(-154.797 0 0)
(-156.007 0 0)
(-157.221 0 0)
(-158.439 0 0)
(-159.66 0 0)
(-160.885 0 0)
(-162.113 0 0)
(-163.343 0 0)
(-164.575 0 0)
(-165.812 0 0)
(-167.052 0 0)
(-168.297 0 0)
(-169.546 0 0)
(-170.8 0 0)
(-172.057 0 0)
(-173.318 0 0)
(-174.58 0 0)
(-175.845 0 0)
(-177.111 0 0)
(-178.38 0 0)
(-179.652 0 0)
(-180.927 0 0)
(-182.206 0 0)
(-183.488 0 0)
(-184.773 0 0)
(-186.06 0 0)
(-187.349 0 0)
(-188.638 0 0)
(-189.927 0 0)
(-191.218 0 0)
(-192.51 0 0)
(-193.804 0 0)
(-195.102 0 0)
(-196.402 0 0)
(-197.706 0 0)
(-199.012 0 0)
(-200.321 0 0)
(-201.63 0 0)
(-202.941 0 0)
(-204.252 0 0)
(-205.564 0 0)
(-206.877 0 0)
(-208.194 0 0)
(-209.514 0 0)
(-210.838 0 0)
(-212.166 0 0)
(-213.499 0 0)
(-214.835 0 0)
(-216.174 0 0)
(-217.515 0 0)
(-218.857 0 0)
(-220.201 0 0)
(-221.547 0 0)
(-222.895 0 0)
(-224.246 0 0)
(-225.601 0 0)
(-226.96 0 0)
(-228.324 0 0)
(-229.693 0 0)
(-231.065 0 0)
(-232.441 0 0)
(-233.819 0 0)
(-235.199 0 0)
(-236.579 0 0)
(-237.96 0 0)
(-239.343 0 0)
(-240.727 0 0)
(-242.113 0 0)
(-243.503 0 0)
(-244.897 0 0)
(-246.295 0 0)
(-247.697 0 0)
(-249.104 0 0)
(-250.514 0 0)
(-251.926 0 0)
(-253.34 0 0)
(-254.755 0 0)
(-256.17 0 0)
(-257.585 0 0)
(-259 0 0)
(-260.415 0 0)
(-261.832 0 0)
(-263.25 0 0)
(-264.672 0 0)
(-266.097 0 0)
(-267.526 0 0)
(-268.958 0 0)
(-270.394 0 0)
(-271.832 0 0)
(-273.272 0 0)
(-274.714 0 0)
(-276.155 0 0)
(-277.596 0 0)
(-279.036 0 0)
(-280.476 0 0)
(-281.915 0 0)
(-283.353 0 0)
(-284.793 0 0)
(-286.234 0 0)
(-287.677 0 0)
(-289.123 0 0)
(-290.571 0 0)
(-292.023 0 0)
(-293.477 0 0)
(-294.934 0 0)
(-296.391 0 0)
(-297.85 0 0)
(-299.309 0 0)
(-300.766 0 0)
(-302.222 0 0)
(-303.677 0 0)
(-305.129 0 0)
(-306.579 0 0)
(-308.028 0 0)
(-309.476 0 0)
(-310.923 0 0)
(-312.37 0 0)
(-313.819 0 0)
(-315.269 0 0)
(-316.72 0 0)
(-318.174 0 0)
(-319.629 0 0)
(-321.086 0 0)
(-322.544 0 0)
(-324.002 0 0)
(-325.46 0 0)
(-326.917 0 0)
(-328.373 0 0)
(-329.826 0 0)
(-331.276 0 0)
(-332.722 0 0)
(-334.165 0 0)
(-335.605 0 0)
(-337.041 0 0)
(-338.474 0 0)
(-339.904 0 0)
(-341.332 0 0)
(-342.758 0 0)
(-344.184 0 0)
(-345.608 0 0)
(-347.032 0 0)
(-348.457 0 0)
(-349.881 0 0)
(-351.306 0 0)
(-352.731 0 0)
(-354.155 0 0)
(-355.579 0 0)
(-357.001 0 0)
(-358.421 0 0)
(-359.839 0 0)
(-361.254 0 0)
(-362.666 0 0)
(-364.073 0 0)
(-365.476 0 0)
(-366.873 0 0)
(-368.266 0 0)
(-369.653 0 0)
(-371.035 0 0)
(-372.411 0 0)
(-373.781 0 0)
(-375.147 0 0)
(-376.507 0 0)
(-377.862 0 0)
(-379.212 0 0)
(-380.558 0 0)
(-381.9 0 0)
(-383.239 0 0)
(-384.573 0 0)
(-385.904 0 0)
(-387.232 0 0)
(-388.557 0 0)
(-389.879 0 0)
(-391.198 0 0)
(-392.515 0 0)
(-393.828 0 0)
(-395.139 0 0)
(-396.446 0 0)
(-397.751 0 0)
(-399.052 0 0)
(-400.35 0 0)
(-401.643 0 0)
(-402.933 0 0)
(-404.219 0 0)
(-405.501 0 0)
(-406.778 0 0)
(-408.05 0 0)
(-409.317 0 0)
(-410.578 0 0)
(-411.834 0 0)
(-413.084 0 0)
(-414.327 0 0)
(-415.563 0 0)
(-416.792 0 0)
(-418.014 0 0)
(-419.227 0 0)
(-420.432 0 0)
(-421.63 0 0)
(-422.82 0 0)
(-424.001 0 0)
(-425.173 0 0)
(-426.338 0 0)
(-427.496 0 0)
(-428.647 0 0)
(-429.79 0 0)
(-430.927 0 0)
(-432.057 0 0)
(-433.182 0 0)
(-434.302 0 0)
(-435.418 0 0)
(-436.528 0 0)
(-437.631 0 0)
(-438.726 0 0)
(-439.813 0 0)
(-440.89 0 0)
(-441.958 0 0)
(-443.018 0 0)
(-444.069 0 0)
(-445.111 0 0)
(-446.146 0 0)
(-447.173 0 0)
(-448.193 0 0)
(-449.204 0 0)
(-450.208 0 0)
(-451.204 0 0)
(-452.193 0 0)
(-453.174 0 0)
(-454.147 0 0)
(-455.112 0 0)
(-456.07 0 0)
(-457.02 0 0)
(-457.962 0 0)
(-458.896 0 0)
(-459.822 0 0)
(-460.741 0 0)
(-461.651 0 0)
(-462.554 0 0)
(-463.449 0 0)
(-464.336 0 0)
(-465.216 0 0)
(-466.087 0 0)
(-466.951 0 0)
(-467.807 0 0)
(-468.654 0 0)
(-469.494 0 0)
(-470.327 0 0)
(-471.151 0 0)
(-471.967 0 0)
(-472.776 0 0)
(-473.576 0 0)
(-474.369 0 0)
(-475.154 0 0)
(-475.932 0 0)
(-476.702 0 0)
(-477.464 0 0)
(-478.218 0 0)
(-478.965 0 0)
(-479.704 0 0)
(-480.436 0 0)
(-481.16 0 0)
(-481.877 0 0)
(-482.586 0 0)
(-483.287 0 0)
(-483.981 0 0)
(-484.668 0 0)
(-485.347 0 0)
(-486.019 0 0)
(-486.683 0 0)
(-487.341 0 0)
(-487.991 0 0)
(-488.633 0 0)
(-489.269 0 0)
(-489.897 0 0)
(-490.518 0 0)
(-491.133 0 0)
(-491.74 0 0)
(-492.341 0 0)
(-492.934 0 0)
(-493.522 0 0)
(-494.101 0 0)
(-494.675 0 0)
(-495.242 0 0)
(-495.802 0 0)
(-496.355 0 0)
(-496.902 0 0)
(-497.443 0 0)
(-497.977 0 0)
(-498.504 0 0)
(-499.025 0 0)
(-499.54 0 0)
(-500.049 0 0)
(-500.552 0 0)
(-501.048 0 0)
(-501.539 0 0)
(-502.024 0 0)
(-502.502 0 0)
(-502.975 0 0)
(-503.442 0 0)
(-503.904 0 0)
(-504.359 0 0)
(-504.808 0 0)
(-505.253 0 0)
(-505.693 0 0)
(-506.126 0 0)
(-506.553 0 0)
(-506.977 0 0)
(-507.395 0 0)
(-507.806 0 0)
(-508.214 0 0)
(-508.617 0 0)
(-509.013 0 0)
(-509.405 0 0)
(-509.793 0 0)
(-510.176 0 0)
(-510.553 0 0)
(-510.926 0 0)
(-511.295 0 0)
(-511.658 0 0)
(-512.017 0 0)
(-512.372 0 0)
(-512.722 0 0)
(-513.068 0 0)
(-513.41 0 0)
(-513.747 0 0)
(-514.08 0 0)
(-514.41 0 0)
(-514.735 0 0)
(-515.056 0 0)
(-515.373 0 0)
(-515.687 0 0)
(-515.997 0 0)
(-516.302 0 0)
(-516.605 0 0)
(-516.903 0 0)
(-517.198 0 0)
(-517.489 0 0)
(-517.777 0 0)
(-518.062 0 0)
(-518.342 0 0)
(-518.62 0 0)
(-518.894 0 0)
(-519.165 0 0)
(-519.433 0 0)
(-519.698 0 0)
(-519.96 0 0)
(-520.219 0 0)
(-520.475 0 0)
(-520.728 0 0)
(-520.978 0 0)
(-521.225 0 0)
(-521.47 0 0)
(-521.713 0 0)
(-521.952 0 0)
(-522.189 0 0)
(-522.422 0 0)
(-522.654 0 0)
(-522.883 0 0)
(-523.11 0 0)
(-523.334 0 0)
(-523.556 0 0)
(-523.775 0 0)
(-523.992 0 0)
(-524.208 0 0)
(-524.42 0 0)
(-524.632 0 0)
(-524.84 0 0)
(-525.046 0 0)
(-525.252 0 0)
(-525.454 0 0)
(-525.655 0 0)
(-525.854 0 0)
(-526.05 0 0)
(-526.246 0 0)
(-526.439 0 0)
(-526.63 0 0)
(-526.821 0 0)
(-527.009 0 0)
(-527.195 0 0)
(-527.381 0 0)
(-527.564 0 0)
(-527.746 0 0)
(-527.927 0 0)
(-528.105 0 0)
(-528.282 0 0)
(-528.459 0 0)
(-528.633 0 0)
(-528.806 0 0)
(-528.978 0 0)
(-529.148 0 0)
(-529.317 0 0)
(-529.486 0 0)
(-529.652 0 0)
(-529.818 0 0)
(-529.982 0 0)
(-530.145 0 0)
(-530.308 0 0)
(-530.469 0 0)
(-530.628 0 0)
(-530.787 0 0)
(-530.945 0 0)
(-531.102 0 0)
(-531.259 0 0)
(-531.413 0 0)
(-531.567 0 0)
(-531.721 0 0)
(-531.872 0 0)
(-532.023 0 0)
(-532.174 0 0)
(-532.323 0 0)
(-532.472 0 0)
(-532.62 0 0)
(-532.767 0 0)
(-532.913 0 0)
(-533.059 0 0)
(-533.204 0 0)
(-533.348 0 0)
(-533.492 0 0)
(-533.634 0 0)
(-533.777 0 0)
(-533.919 0 0)
(-534.059 0 0)
(-534.199 0 0)
(-534.339 0 0)
(-534.478 0 0)
(-534.617 0 0)
(-534.754 0 0)
(-534.891 0 0)
(-535.029 0 0)
(-535.165 0 0)
(-535.3 0 0)
(-535.436 0 0)
(-535.571 0 0)
(-535.704 0 0)
(-535.839 0 0)
(-535.972 0 0)
(-536.104 0 0)
(-536.237 0 0)
(-536.369 0 0)
(-536.5 0 0)
(-536.632 0 0)
(-536.763 0 0)
(-536.893 0 0)
(-537.023 0 0)
(-537.153 0 0)
(-537.282 0 0)
(-537.411 0 0)
(-537.539 0 0)
(-537.667 0 0)
(-537.796 0 0)
(-537.923 0 0)
(-538.05 0 0)
(-538.178 0 0)
(-538.305 0 0)
(-538.43 0 0)
(-538.557 0 0)
(-538.683 0 0)
(-538.808 0 0)
(-538.933 0 0)
(-539.058 0 0)
(-539.183 0 0)
(-539.308 0 0)
(-539.432 0 0)
(-539.555 0 0)
(-539.679 0 0)
(-539.803 0 0)
(-539.925 0 0)
(-540.049 0 0)
(-540.172 0 0)
(-540.294 0 0)
(-540.417 0 0)
(-540.54 0 0)
(-540.661 0 0)
(-540.783 0 0)
(-540.905 0 0)
(-541.026 0 0)
(-541.147 0 0)
(-541.269 0 0)
(-541.389 0 0)
(-541.51 0 0)
(-541.631 0 0)
(-541.751 0 0)
(-541.871 0 0)
(-541.992 0 0)
(-542.111 0 0)
(-542.23 0 0)
(-542.351 0 0)
(-542.47 0 0)
(-542.588 0 0)
(-542.708 0 0)
(-542.828 0 0)
(-542.945 0 0)
(-543.065 0 0)
(-543.184 0 0)
(-543.301 0 0)
(-543.42 0 0)
(-543.539 0 0)
(-543.656 0 0)
(-543.774 0 0)
(-543.893 0 0)
(-544.01 0 0)
(-544.127 0 0)
(-544.245 0 0)
(-544.363 0 0)
(-544.479 0 0)
(-544.597 0 0)
(-544.714 0 0)
(-544.83 0 0)
(-544.947 0 0)
(-545.065 0 0)
(-545.181 0 0)
(-545.297 0 0)
(-545.414 0 0)
(-545.53 0 0)
(-545.646 0 0)
(-545.762 0 0)
(-545.878 0 0)
(-545.993 0 0)
(-546.11 0 0)
(-546.226 0 0)
(-546.341 0 0)
(-546.457 0 0)
(-546.573 0 0)
(-546.687 0 0)
(-546.803 0 0)
(-546.918 0 0)
(-547.033 0 0)
(-547.148 0 0)
(-547.263 0 0)
(-547.378 0 0)
(-547.492 0 0)
(-547.607 0 0)
(-547.722 0 0)
(-547.836 0 0)
(-547.951 0 0)
(-548.066 0 0)
(-548.179 0 0)
(-548.293 0 0)
(-548.408 0 0)
(-548.521 0 0)
(-548.635 0 0)
(-548.75 0 0)
(-548.864 0 0)
(-548.976 0 0)
(-549.091 0 0)
(-549.205 0 0)
(-549.317 0 0)
(-549.431 0 0)
(-549.546 0 0)
(-549.658 0 0)
(-549.771 0 0)
(-549.885 0 0)
(-549.998 0 0)
(-550.11 0 0)
(-550.224 0 0)
(-550.337 0 0)
(-550.448 0 0)
(-550.562 0 0)
(-550.675 0 0)
(-550.787 0 0)
(-550.899 0 0)
(-551.013 0 0)
(-551.125 0 0)
(-551.237 0 0)
(-551.35 0 0)
(-551.462 0 0)
(-551.573 0 0)
(-551.686 0 0)
(-551.799 0 0)
(-551.91 0 0)
(-552.022 0 0)
(-552.134 0 0)
(-552.246 0 0)
(-552.357 0 0)
(-552.469 0 0)
(-552.581 0 0)
(-552.692 0 0)
(-552.803 0 0)
(-552.916 0 0)
(-553.026 0 0)
(-553.137 0 0)
(-553.25 0 0)
(-553.361 0 0)
(-553.471 0 0)
(-553.583 0 0)
(-553.694 0 0)
(-553.804 0 0)
(-553.915 0 0)
(-554.027 0 0)
(-554.137 0 0)
(-554.247 0 0)
(-554.359 0 0)
(-554.47 0 0)
(-554.579 0 0)
(-554.69 0 0)
(-554.802 0 0)
(-554.911 0 0)
(-555.021 0 0)
(-555.133 0 0)
(-555.243 0 0)
(-555.352 0 0)
(-555.463 0 0)
(-555.573 0 0)
(-555.682 0 0)
(-555.792 0 0)
(-555.903 0 0)
(-556.013 0 0)
(-556.122 0 0)
(-556.232 0 0)
(-556.342 0 0)
(-556.451 0 0)
(-556.56 0 0)
(-556.671 0 0)
(-556.78 0 0)
(-556.889 0 0)
(-556.999 0 0)
(-557.109 0 0)
(-557.217 0 0)
(-557.327 0 0)
(-557.437 0 0)
(-557.546 0 0)
(-557.654 0 0)
(-557.764 0 0)
(-557.874 0 0)
(-557.982 0 0)
(-558.09 0 0)
(-558.201 0 0)
(-558.309 0 0)
(-558.416 0 0)
(-558.526 0 0)
(-558.635 0 0)
(-558.743 0 0)
(-558.852 0 0)
(-558.961 0 0)
(-559.069 0 0)
(-559.177 0 0)
(-559.286 0 0)
(-559.395 0 0)
(-559.502 0 0)
(-559.61 0 0)
(-559.72 0 0)
(-559.828 0 0)
(-559.935 0 0)
(-560.044 0 0)
(-560.152 0 0)
(-560.26 0 0)
(-560.367 0 0)
(-560.476 0 0)
(-560.584 0 0)
(-560.691 0 0)
(-560.799 0 0)
(-560.908 0 0)
(-561.015 0 0)
(-561.122 0 0)
(-561.231 0 0)
(-561.338 0 0)
(-561.445 0 0)
(-561.553 0 0)
(-561.661 0 0)
(-561.768 0 0)
(-561.874 0 0)
(-561.983 0 0)
(-562.091 0 0)
(-562.197 0 0)
(-562.304 0 0)
(-562.412 0 0)
(-562.519 0 0)
(-562.625 0 0)
(-562.733 0 0)
(-562.841 0 0)
(-562.947 0 0)
(-563.053 0 0)
(-563.162 0 0)
(-563.268 0 0)
(-563.374 0 0)
(-563.481 0 0)
(-563.589 0 0)
(-563.695 0 0)
(-563.801 0 0)
(-563.909 0 0)
(-564.016 0 0)
(-564.121 0 0)
(-564.228 0 0)
(-564.336 0 0)
(-564.442 0 0)
(-564.547 0 0)
(-564.654 0 0)
(-564.761 0 0)
(-564.867 0 0)
(-564.972 0 0)
(-565.08 0 0)
(-565.187 0 0)
(-565.292 0 0)
(-565.398 0 0)
(-565.505 0 0)
(-565.611 0 0)
(-565.716 0 0)
(-565.823 0 0)
(-565.93 0 0)
(-566.034 0 0)
(-566.14 0 0)
(-566.247 0 0)
(-566.353 0 0)
(-566.458 0 0)
(-566.563 0 0)
(-566.671 0 0)
(-566.776 0 0)
(-566.88 0 0)
(-566.987 0 0)
(-567.093 0 0)
(-567.198 0 0)
(-567.303 0 0)
(-567.41 0 0)
(-567.516 0 0)
(-567.62 0 0)
(-567.725 0 0)
(-567.832 0 0)
(-567.938 0 0)
(-568.042 0 0)
(-568.147 0 0)
(-568.254 0 0)
(-568.359 0 0)
(-568.463 0 0)
(-568.569 0 0)
(-568.675 0 0)
(-568.779 0 0)
(-568.883 0 0)
(-568.99 0 0)
(-569.096 0 0)
(-569.199 0 0)
(-569.304 0 0)
(-569.411 0 0)
(-569.515 0 0)
(-569.619 0 0)
(-569.724 0 0)
(-569.831 0 0)
(-569.934 0 0)
(-570.038 0 0)
(-570.144 0 0)
(-570.25 0 0)
(-570.353 0 0)
(-570.457 0 0)
(-570.564 0 0)
(-570.669 0 0)
(-570.772 0 0)
(-570.876 0 0)
(-570.982 0 0)
(-571.087 0 0)
(-571.19 0 0)
(-571.295 0 0)
(-571.401 0 0)
(-571.505 0 0)
(-571.608 0 0)
(-571.713 0 0)
(-571.819 0 0)
(-571.922 0 0)
(-572.025 0 0)
(-572.131 0 0)
(-572.236 0 0)
(-572.339 0 0)
(-572.443 0 0)
(-572.549 0 0)
(-572.653 0 0)
(-572.755 0 0)
(-572.86 0 0)
(-572.966 0 0)
(-573.069 0 0)
(-573.172 0 0)
(-573.276 0 0)
(-573.382 0 0)
(-573.485 0 0)
(-573.588 0 0)
(-573.693 0 0)
(-573.798 0 0)
(-573.901 0 0)
(-574.004 0 0)
(-574.109 0 0)
(-574.213 0 0)
(-574.316 0 0)
(-574.419 0 0)
(-574.524 0 0)
(-574.629 0 0)
(-574.73 0 0)
(-574.834 0 0)
(-574.94 0 0)
(-575.043 0 0)
(-575.146 0 0)
(-575.249 0 0)
(-575.354 0 0)
(-575.457 0 0)
(-575.56 0 0)
(-575.664 0 0)
(-575.769 0 0)
(-575.872 0 0)
(-575.973 0 0)
(-576.078 0 0)
(-576.183 0 0)
(-576.285 0 0)
(-576.387 0 0)
(-576.492 0 0)
(-576.596 0 0)
(-576.698 0 0)
(-576.801 0 0)
(-576.905 0 0)
(-577.009 0 0)
(-577.111 0 0)
(-577.214 0 0)
(-577.319 0 0)
(-577.422 0 0)
(-577.524 0 0)
(-577.626 0 0)
(-577.731 0 0)
(-577.835 0 0)
(-577.936 0 0)
(-578.039 0 0)
(-578.144 0 0)
(-578.247 0 0)
(-578.348 0 0)
(-578.451 0 0)
(-578.556 0 0)
(-578.659 0 0)
(-578.76 0 0)
(-578.862 0 0)
(-578.967 0 0)
(-579.07 0 0)
(-579.172 0 0)
(-579.274 0 0)
(-579.379 0 0)
(-579.482 0 0)
(-579.583 0 0)
(-579.686 0 0)
(-579.79 0 0)
(-579.893 0 0)
(-579.993 0 0)
(-580.096 0 0)
(-580.201 0 0)
(-580.303 0 0)
(-580.404 0 0)
(-580.506 0 0)
(-580.611 0 0)
(-580.713 0 0)
(-580.814 0 0)
(-580.917 0 0)
(-581.021 0 0)
(-581.123 0 0)
(-581.224 0 0)
(-581.327 0 0)
(-581.431 0 0)
(-581.533 0 0)
(-581.634 0 0)
(-581.736 0 0)
(-581.841 0 0)
(-581.942 0 0)
(-582.043 0 0)
(-582.146 0 0)
(-582.25 0 0)
(-582.351 0 0)
(-582.452 0 0)
(-582.554 0 0)
(-582.659 0 0)
(-582.76 0 0)
(-582.86 0 0)
(-582.963 0 0)
(-583.067 0 0)
(-583.169 0 0)
(-583.269 0 0)
(-583.372 0 0)
(-583.475 0 0)
(-583.577 0 0)
(-583.677 0 0)
(-583.779 0 0)
(-583.883 0 0)
(-583.985 0 0)
(-584.085 0 0)
(-584.187 0 0)
(-584.291 0 0)
(-584.392 0 0)
(-584.492 0 0)
(-584.594 0 0)
(-584.698 0 0)
(-584.8 0 0)
(-584.899 0 0)
(-585.001 0 0)
(-585.105 0 0)
(-585.207 0 0)
(-585.306 0 0)
(-585.408 0 0)
(-585.512 0 0)
(-585.614 0 0)
(-585.713 0 0)
(-585.815 0 0)
(-585.918 0 0)
(-586.02 0 0)
(-586.12 0 0)
(-586.221 0 0)
(-586.324 0 0)
(-586.426 0 0)
(-586.526 0 0)
(-586.627 0 0)
(-586.73 0 0)
(-586.832 0 0)
(-586.932 0 0)
(-587.032 0 0)
(-587.135 0 0)
(-587.238 0 0)
(-587.337 0 0)
(-587.438 0 0)
(-587.54 0 0)
(-587.643 0 0)
(-587.743 0 0)
(-587.843 0 0)
(-587.945 0 0)
(-588.048 0 0)
(-588.148 0 0)
(-588.247 0 0)
(-588.35 0 0)
(-588.453 0 0)
(-588.553 0 0)
(-588.652 0 0)
(-588.754 0 0)
(-588.857 0 0)
(-588.957 0 0)
(-589.056 0 0)
(-589.158 0 0)
(-589.261 0 0)
(-589.362 0 0)
(-589.461 0 0)
(-589.561 0 0)
(-589.665 0 0)
(-589.766 0 0)
(-589.865 0 0)
(-589.965 0 0)
(-590.068 0 0)
(-590.17 0 0)
(-590.269 0 0)
(-590.368 0 0)
(-590.471 0 0)
(-590.573 0 0)
(-590.672 0 0)
(-590.772 0 0)
(-590.874 0 0)
(-590.976 0 0)
(-591.075 0 0)
(-591.175 0 0)
(-591.276 0 0)
(-591.379 0 0)
(-591.479 0 0)
(-591.577 0 0)
(-591.678 0 0)
(-591.781 0 0)
(-591.882 0 0)
(-591.98 0 0)
(-592.081 0 0)
(-592.183 0 0)
(-592.284 0 0)
(-592.382 0 0)
(-592.482 0 0)
(-592.585 0 0)
(-592.686 0 0)
(-592.785 0 0)
(-592.884 0 0)
(-592.986 0 0)
(-593.088 0 0)
(-593.187 0 0)
(-593.286 0 0)
(-593.387 0 0)
(-593.489 0 0)
(-593.589 0 0)
(-593.687 0 0)
(-593.788 0 0)
(-593.89 0 0)
(-593.991 0 0)
(-594.089 0 0)
(-594.189 0 0)
(-594.291 0 0)
(-594.392 0 0)
(-594.49 0 0)
(-594.59 0 0)
(-594.692 0 0)
(-594.793 0 0)
(-594.892 0 0)
(-594.991 0 0)
(-595.092 0 0)
(-595.194 0 0)
(-595.293 0 0)
(-595.391 0 0)
(-595.492 0 0)
(-595.594 0 0)
(-595.694 0 0)
(-595.791 0 0)
(-595.891 0 0)
(-595.994 0 0)
(-596.094 0 0)
(-596.192 0 0)
(-596.291 0 0)
(-596.393 0 0)
(-596.494 0 0)
(-596.592 0 0)
(-596.691 0 0)
(-596.792 0 0)
(-596.894 0 0)
(-596.993 0 0)
(-597.091 0 0)
(-597.191 0 0)
(-597.293 0 0)
(-597.393 0 0)
(-597.491 0 0)
(-597.59 0 0)
(-597.692 0 0)
(-597.793 0 0)
(-597.891 0 0)
(-597.99 0 0)
(-598.091 0 0)
(-598.193 0 0)
(-598.291 0 0)
(-598.389 0 0)
(-598.489 0 0)
(-598.591 0 0)
(-598.691 0 0)
(-598.788 0 0)
(-598.887 0 0)
(-598.99 0 0)
(-599.09 0 0)
(-599.187 0 0)
(-599.286 0 0)
(-599.387 0 0)
(-599.488 0 0)
(-599.587 0 0)
(-599.684 0 0)
(-599.785 0 0)
(-599.887 0 0)
(-599.986 0 0)
(-600.083 0 0)
(-600.182 0 0)
(-600.285 0 0)
(-600.385 0 0)
(-600.482 0 0)
(-600.58 0 0)
(-600.682 0 0)
(-600.784 0 0)
(-600.882 0 0)
(-600.979 0 0)
(-601.08 0 0)
(-601.182 0 0)
(-601.281 0 0)
(-601.378 0 0)
(-601.477 0 0)
(-601.579 0 0)
(-601.68 0 0)
(-601.777 0 0)
(-601.875 0 0)
(-601.976 0 0)
(-602.077 0 0)
(-602.175 0 0)
(-602.272 0 0)
(-602.372 0 0)
(-602.474 0 0)
(-602.573 0 0)
(-602.67 0 0)
(-602.769 0 0)
(-602.871 0 0)
(-602.971 0 0)
(-603.069 0 0)
(-603.166 0 0)
(-603.267 0 0)
(-603.369 0 0)
(-603.467 0 0)
(-603.564 0 0)
(-603.664 0 0)
(-603.766 0 0)
(-603.866 0 0)
(-603.963 0 0)
(-604.061 0 0)
(-604.163 0 0)
(-604.264 0 0)
(-604.362 0 0)
(-604.459 0 0)
(-604.559 0 0)
(-604.661 0 0)
(-604.76 0 0)
(-604.857 0 0)
(-604.955 0 0)
(-605.057 0 0)
(-605.158 0 0)
(-605.255 0 0)
(-605.352 0 0)
(-605.452 0 0)
(-605.554 0 0)
(-605.653 0 0)
(-605.749 0 0)
(-605.848 0 0)
(-605.95 0 0)
(-606.05 0 0)
(-606.147 0 0)
(-606.244 0 0)
(-606.345 0 0)
(-606.447 0 0)
(-606.546 0 0)
(-606.642 0 0)
(-606.741 0 0)
(-606.843 0 0)
(-606.944 0 0)
(-607.041 0 0)
(-607.138 0 0)
(-607.239 0 0)
(-607.341 0 0)
(-607.439 0 0)
(-607.536 0 0)
(-607.635 0 0)
(-607.737 0 0)
(-607.837 0 0)
(-607.934 0 0)
(-608.032 0 0)
(-608.133 0 0)
(-608.234 0 0)
(-608.332 0 0)
(-608.428 0 0)
(-608.528 0 0)
(-608.63 0 0)
(-608.729 0 0)
(-608.826 0 0)
(-608.923 0 0)
(-609.025 0 0)
(-609.126 0 0)
(-609.224 0 0)
(-609.321 0 0)
(-609.42 0 0)
(-609.522 0 0)
(-609.622 0 0)
(-609.719 0 0)
(-609.817 0 0)
(-609.918 0 0)
(-610.019 0 0)
(-610.118 0 0)
(-610.214 0 0)
(-610.314 0 0)
(-610.416 0 0)
(-610.516 0 0)
(-610.613 0 0)
(-610.71 0 0)
(-610.811 0 0)
(-610.913 0 0)
(-611.011 0 0)
(-611.108 0 0)
(-611.207 0 0)
(-611.309 0 0)
(-611.409 0 0)
(-611.505 0 0)
(-611.603 0 0)
(-611.703 0 0)
(-611.805 0 0)
(-611.904 0 0)
(-612 0 0)
(-612.099 0 0)
(-612.2 0 0)
(-612.301 0 0)
(-612.398 0 0)
(-612.495 0 0)
(-612.596 0 0)
(-612.698 0 0)
(-612.797 0 0)
(-612.894 0 0)
(-612.992 0 0)
(-613.094 0 0)
(-613.195 0 0)
(-613.293 0 0)
(-613.389 0 0)
(-613.49 0 0)
(-613.592 0 0)
(-613.692 0 0)
(-613.788 0 0)
(-613.886 0 0)
(-613.987 0 0)
(-614.089 0 0)
(-614.187 0 0)
(-614.284 0 0)
(-614.383 0 0)
(-614.485 0 0)
(-614.585 0 0)
(-614.682 0 0)
(-614.779 0 0)
(-614.88 0 0)
(-614.982 0 0)
(-615.081 0 0)
(-615.178 0 0)
(-615.276 0 0)
(-615.378 0 0)
(-615.479 0 0)
(-615.577 0 0)
(-615.673 0 0)
(-615.773 0 0)
(-615.876 0 0)
(-615.976 0 0)
(-616.073 0 0)
(-616.171 0 0)
(-616.272 0 0)
(-616.374 0 0)
(-616.473 0 0)
(-616.569 0 0)
(-616.669 0 0)
(-616.771 0 0)
(-616.872 0 0)
(-616.969 0 0)
(-617.066 0 0)
(-617.167 0 0)
(-617.269 0 0)
(-617.369 0 0)
(-617.465 0 0)
(-617.563 0 0)
(-617.665 0 0)
(-617.767 0 0)
(-617.865 0 0)
(-617.962 0 0)
(-618.061 0 0)
(-618.163 0 0)
(-618.264 0 0)
(-618.362 0 0)
(-618.459 0 0)
(-618.559 0 0)
(-618.662 0 0)
(-618.761 0 0)
(-618.858 0 0)
(-618.956 0 0)
(-619.058 0 0)
(-619.16 0 0)
(-619.259 0 0)
(-619.356 0 0)
(-619.455 0 0)
(-619.558 0 0)
(-619.659 0 0)
(-619.757 0 0)
(-619.854 0 0)
(-619.955 0 0)
(-620.057 0 0)
(-620.157 0 0)
(-620.254 0 0)
(-620.352 0 0)
(-620.454 0 0)
(-620.556 0 0)
(-620.655 0 0)
(-620.752 0 0)
(-620.851 0 0)
(-620.953 0 0)
(-621.055 0 0)
(-621.152 0 0)
(-621.25 0 0)
(-621.35 0 0)
(-621.453 0 0)
(-621.553 0 0)
(-621.65 0 0)
(-621.748 0 0)
(-621.849 0 0)
(-621.952 0 0)
(-622.052 0 0)
(-622.149 0 0)
(-622.247 0 0)
(-622.35 0 0)
(-622.452 0 0)
(-622.551 0 0)
(-622.648 0 0)
(-622.748 0 0)
(-622.85 0 0)
(-622.952 0 0)
(-623.05 0 0)
(-623.147 0 0)
(-623.248 0 0)
(-623.351 0 0)
(-623.451 0 0)
(-623.549 0 0)
(-623.646 0 0)
(-623.748 0 0)
(-623.851 0 0)
(-623.95 0 0)
(-624.047 0 0)
(-624.146 0 0)
(-624.249 0 0)
(-624.351 0 0)
(-624.45 0 0)
(-624.547 0 0)
(-624.647 0 0)
(-624.75 0 0)
(-624.852 0 0)
(-624.95 0 0)
(-625.047 0 0)
(-625.148 0 0)
(-625.251 0 0)
(-625.352 0 0)
(-625.45 0 0)
(-625.547 0 0)
(-625.649 0 0)
(-625.752 0 0)
(-625.852 0 0)
(-625.95 0 0)
(-626.048 0 0)
(-626.15 0 0)
(-626.253 0 0)
(-626.352 0 0)
(-626.45 0 0)
(-626.549 0 0)
(-626.652 0 0)
(-626.754 0 0)
(-626.853 0 0)
(-626.951 0 0)
(-627.051 0 0)
(-627.154 0 0)
(-627.255 0 0)
(-627.354 0 0)
(-627.452 0 0)
(-627.553 0 0)
(-627.656 0 0)
(-627.757 0 0)
(-627.855 0 0)
(-627.953 0 0)
(-628.055 0 0)
(-628.157 0 0)
(-628.258 0 0)
(-628.355 0 0)
(-628.454 0 0)
(-628.556 0 0)
(-628.659 0 0)
(-628.759 0 0)
(-628.857 0 0)
(-628.956 0 0)
(-629.059 0 0)
(-629.161 0 0)
(-629.26 0 0)
(-629.358 0 0)
(-629.458 0 0)
(-629.562 0 0)
(-629.664 0 0)
(-629.763 0 0)
(-629.861 0 0)
(-629.962 0 0)
(-630.065 0 0)
(-630.166 0 0)
(-630.265 0 0)
(-630.363 0 0)
(-630.464 0 0)
(-630.567 0 0)
(-630.668 0 0)
(-630.767 0 0)
(-630.865 0 0)
(-630.967 0 0)
(-631.07 0 0)
(-631.17 0 0)
(-631.268 0 0)
(-631.367 0 0)
(-631.469 0 0)
(-631.572 0 0)
(-631.673 0 0)
(-631.77 0 0)
(-631.869 0 0)
(-631.972 0 0)
(-632.075 0 0)
(-632.176 0 0)
(-632.273 0 0)
(-632.373 0 0)
(-632.476 0 0)
(-632.579 0 0)
(-632.679 0 0)
(-632.777 0 0)
(-632.877 0 0)
(-632.98 0 0)
(-633.083 0 0)
(-633.183 0 0)
(-633.28 0 0)
(-633.38 0 0)
(-633.483 0 0)
(-633.586 0 0)
(-633.685 0 0)
(-633.783 0 0)
(-633.883 0 0)
(-633.986 0 0)
(-634.088 0 0)
(-634.187 0 0)
(-634.285 0 0)
(-634.385 0 0)
(-634.489 0 0)
(-634.591 0 0)
(-634.69 0 0)
(-634.788 0 0)
(-634.889 0 0)
(-634.992 0 0)
(-635.095 0 0)
(-635.194 0 0)
(-635.293 0 0)
(-635.394 0 0)
(-635.497 0 0)
(-635.599 0 0)
(-635.698 0 0)
(-635.797 0 0)
(-635.898 0 0)
(-636.002 0 0)
(-636.103 0 0)
(-636.203 0 0)
(-636.301 0 0)
(-636.402 0 0)
(-636.505 0 0)
(-636.607 0 0)
(-636.706 0 0)
(-636.804 0 0)
(-636.906 0 0)
(-637.009 0 0)
(-637.11 0 0)
(-637.209 0 0)
(-637.308 0 0)
(-637.409 0 0)
(-637.512 0 0)
(-637.613 0 0)
(-637.712 0 0)
(-637.811 0 0)
(-637.913 0 0)
(-638.016 0 0)
(-638.118 0 0)
(-638.217 0 0)
(-638.316 0 0)
(-638.418 0 0)
(-638.521 0 0)
(-638.623 0 0)
(-638.722 0 0)
(-638.821 0 0)
(-638.923 0 0)
(-639.026 0 0)
(-639.128 0 0)
(-639.226 0 0)
(-639.325 0 0)
(-639.427 0 0)
(-639.531 0 0)
(-639.632 0 0)
(-639.73 0 0)
(-639.829 0 0)
(-639.931 0 0)
(-640.034 0 0)
(-640.136 0 0)
(-640.234 0 0)
(-640.333 0 0)
(-640.434 0 0)
(-640.538 0 0)
(-640.64 0 0)
(-640.738 0 0)
(-640.837 0 0)
(-640.938 0 0)
(-641.042 0 0)
(-641.144 0 0)
(-641.243 0 0)
(-641.342 0 0)
(-641.443 0 0)
(-641.547 0 0)
(-641.649 0 0)
(-641.749 0 0)
(-641.847 0 0)
(-641.949 0 0)
(-642.052 0 0)
(-642.155 0 0)
(-642.254 0 0)
(-642.352 0 0)
(-642.453 0 0)
(-642.557 0 0)
(-642.659 0 0)
(-642.758 0 0)
(-642.857 0 0)
(-642.957 0 0)
(-643.061 0 0)
(-643.163 0 0)
(-643.263 0 0)
(-643.361 0 0)
(-643.461 0 0)
(-643.565 0 0)
(-643.667 0 0)
(-643.767 0 0)
(-643.866 0 0)
(-643.966 0 0)
(-644.069 0 0)
(-644.172 0 0)
(-644.272 0 0)
(-644.371 0 0)
(-644.471 0 0)
(-644.575 0 0)
(-644.678 0 0)
(-644.778 0 0)
(-644.877 0 0)
(-644.977 0 0)
(-645.08 0 0)
(-645.183 0 0)
(-645.283 0 0)
(-645.382 0 0)
(-645.482 0 0)
(-645.585 0 0)
(-645.688 0 0)
(-645.788 0 0)
(-645.887 0 0)
(-645.987 0 0)
(-646.089 0 0)
(-646.192 0 0)
(-646.293 0 0)
(-646.392 0 0)
(-646.491 0 0)
(-646.593 0 0)
(-646.697 0 0)
(-646.798 0 0)
(-646.897 0 0)
(-646.996 0 0)
(-647.098 0 0)
(-647.202 0 0)
(-647.303 0 0)
(-647.403 0 0)
(-647.502 0 0)
(-647.604 0 0)
(-647.707 0 0)
(-647.809 0 0)
(-647.909 0 0)
(-648.008 0 0)
(-648.109 0 0)
(-648.213 0 0)
(-648.315 0 0)
(-648.415 0 0)
(-648.514 0 0)
(-648.615 0 0)
(-648.718 0 0)
(-648.82 0 0)
(-648.92 0 0)
(-649.019 0 0)
(-649.12 0 0)
(-649.222 0 0)
(-649.325 0 0)
(-649.426 0 0)
(-649.525 0 0)
(-649.625 0 0)
(-649.727 0 0)
(-649.83 0 0)
(-649.931 0 0)
(-650.031 0 0)
(-650.13 0 0)
(-650.232 0 0)
(-650.335 0 0)
(-650.437 0 0)
(-650.537 0 0)
(-650.637 0 0)
(-650.738 0 0)
(-650.841 0 0)
(-650.943 0 0)
(-651.044 0 0)
(-651.143 0 0)
(-651.244 0 0)
(-651.347 0 0)
(-651.449 0 0)
(-651.55 0 0)
(-651.65 0 0)
(-651.75 0 0)
(-651.852 0 0)
(-651.955 0 0)
(-652.056 0 0)
(-652.156 0 0)
(-652.256 0 0)
(-652.358 0 0)
(-652.46 0 0)
(-652.562 0 0)
(-652.662 0 0)
(-652.762 0 0)
(-652.863 0 0)
(-652.966 0 0)
(-653.068 0 0)
(-653.168 0 0)
(-653.268 0 0)
(-653.369 0 0)
(-653.472 0 0)
(-653.574 0 0)
(-653.675 0 0)
(-653.774 0 0)
(-653.876 0 0)
(-653.979 0 0)
(-654.081 0 0)
(-654.182 0 0)
(-654.281 0 0)
(-654.382 0 0)
(-654.485 0 0)
(-654.588 0 0)
(-654.689 0 0)
(-654.788 0 0)
(-654.889 0 0)
(-654.991 0 0)
(-655.094 0 0)
(-655.196 0 0)
(-655.295 0 0)
(-655.395 0 0)
(-655.497 0 0)
(-655.6 0 0)
(-655.702 0 0)
(-655.802 0 0)
(-655.902 0 0)
(-656.003 0 0)
(-656.106 0 0)
(-656.209 0 0)
(-656.309 0 0)
(-656.409 0 0)
(-656.51 0 0)
(-656.613 0 0)
(-656.716 0 0)
(-656.817 0 0)
(-656.917 0 0)
(-657.017 0 0)
(-657.12 0 0)
(-657.223 0 0)
(-657.325 0 0)
(-657.425 0 0)
(-657.525 0 0)
(-657.627 0 0)
(-657.73 0 0)
(-657.832 0 0)
(-657.933 0 0)
(-658.033 0 0)
(-658.134 0 0)
(-658.236 0 0)
(-658.339 0 0)
(-658.441 0 0)
(-658.541 0 0)
(-658.641 0 0)
(-658.743 0 0)
(-658.846 0 0)
(-658.948 0 0)
(-659.048 0 0)
(-659.149 0 0)
(-659.25 0 0)
(-659.353 0 0)
(-659.456 0 0)
(-659.557 0 0)
(-659.657 0 0)
(-659.758 0 0)
(-659.861 0 0)
(-659.964 0 0)
(-660.065 0 0)
(-660.165 0 0)
(-660.266 0 0)
(-660.369 0 0)
(-660.472 0 0)
(-660.574 0 0)
(-660.674 0 0)
(-660.775 0 0)
(-660.877 0 0)
(-660.98 0 0)
(-661.082 0 0)
(-661.183 0 0)
(-661.283 0 0)
(-661.385 0 0)
(-661.488 0 0)
(-661.59 0 0)
(-661.691 0 0)
(-661.792 0 0)
(-661.893 0 0)
(-661.996 0 0)
(-662.099 0 0)
(-662.2 0 0)
(-662.3 0 0)
(-662.401 0 0)
(-662.504 0 0)
(-662.607 0 0)
(-662.709 0 0)
(-662.81 0 0)
(-662.91 0 0)
(-663.012 0 0)
(-663.115 0 0)
(-663.218 0 0)
(-663.319 0 0)
(-663.42 0 0)
(-663.521 0 0)
(-663.624 0 0)
(-663.727 0 0)
(-663.829 0 0)
(-663.93 0 0)
(-664.031 0 0)
(-664.133 0 0)
(-664.236 0 0)
(-664.339 0 0)
(-664.44 0 0)
(-664.541 0 0)
(-664.642 0 0)
(-664.745 0 0)
(-664.848 0 0)
(-664.95 0 0)
(-665.05 0 0)
(-665.151 0 0)
(-665.254 0 0)
(-665.357 0 0)
(-665.46 0 0)
(-665.561 0 0)
(-665.661 0 0)
(-665.763 0 0)
(-665.867 0 0)
(-665.969 0 0)
(-666.071 0 0)
(-666.172 0 0)
(-666.274 0 0)
(-666.376 0 0)
(-666.48 0 0)
(-666.582 0 0)
(-666.683 0 0)
(-666.784 0 0)
(-666.887 0 0)
(-666.99 0 0)
(-667.092 0 0)
(-667.194 0 0)
(-667.295 0 0)
(-667.397 0 0)
(-667.5 0 0)
(-667.603 0 0)
(-667.705 0 0)
(-667.806 0 0)
(-667.908 0 0)
(-668.01 0 0)
(-668.114 0 0)
(-668.216 0 0)
(-668.317 0 0)
(-668.419 0 0)
(-668.521 0 0)
(-668.624 0 0)
(-668.727 0 0)
(-668.829 0 0)
(-668.93 0 0)
(-669.032 0 0)
(-669.135 0 0)
(-669.238 0 0)
(-669.341 0 0)
(-669.442 0 0)
(-669.544 0 0)
(-669.646 0 0)
(-669.75 0 0)
(-669.853 0 0)
(-669.955 0 0)
(-670.056 0 0)
(-670.158 0 0)
(-670.261 0 0)
(-670.365 0 0)
(-670.467 0 0)
(-670.569 0 0)
(-670.67 0 0)
(-670.773 0 0)
(-670.877 0 0)
(-670.98 0 0)
(-671.082 0 0)
(-671.183 0 0)
(-671.285 0 0)
(-671.388 0 0)
(-671.492 0 0)
(-671.594 0 0)
(-671.696 0 0)
(-671.798 0 0)
(-671.901 0 0)
(-672.004 0 0)
(-672.107 0 0)
(-672.21 0 0)
(-672.311 0 0)
(-672.414 0 0)
(-672.517 0 0)
(-672.62 0 0)
(-672.723 0 0)
(-672.825 0 0)
(-672.927 0 0)
(-673.03 0 0)
(-673.134 0 0)
(-673.237 0 0)
(-673.339 0 0)
(-673.441 0 0)
(-673.544 0 0)
(-673.647 0 0)
(-673.751 0 0)
(-673.853 0 0)
(-673.955 0 0)
(-674.058 0 0)
(-674.161 0 0)
(-674.264 0 0)
(-674.368 0 0)
(-674.47 0 0)
(-674.572 0 0)
(-674.675 0 0)
(-674.778 0 0)
(-674.882 0 0)
(-674.985 0 0)
(-675.087 0 0)
(-675.189 0 0)
(-675.293 0 0)
(-675.396 0 0)
(-675.5 0 0)
(-675.602 0 0)
(-675.704 0 0)
(-675.807 0 0)
(-675.911 0 0)
(-676.015 0 0)
(-676.118 0 0)
(-676.22 0 0)
(-676.323 0 0)
(-676.426 0 0)
(-676.53 0 0)
(-676.634 0 0)
(-676.737 0 0)
(-676.839 0 0)
(-676.942 0 0)
(-677.046 0 0)
(-677.15 0 0)
(-677.253 0 0)
(-677.355 0 0)
(-677.458 0 0)
(-677.561 0 0)
(-677.665 0 0)
(-677.769 0 0)
(-677.872 0 0)
(-677.974 0 0)
(-678.077 0 0)
(-678.181 0 0)
(-678.285 0 0)
(-678.389 0 0)
(-678.492 0 0)
(-678.594 0 0)
(-678.697 0 0)
(-678.801 0 0)
(-678.906 0 0)
(-679.009 0 0)
(-679.112 0 0)
(-679.215 0 0)
(-679.318 0 0)
(-679.423 0 0)
(-679.527 0 0)
(-679.63 0 0)
(-679.733 0 0)
(-679.836 0 0)
(-679.94 0 0)
(-680.044 0 0)
(-680.148 0 0)
(-680.251 0 0)
(-680.354 0 0)
(-680.458 0 0)
(-680.562 0 0)
(-680.666 0 0)
(-680.769 0 0)
(-680.872 0 0)
(-680.976 0 0)
(-681.08 0 0)
(-681.184 0 0)