/*--------------------------------*- C++ -*----------------------------------*\
  =========                 |
  \\      /  F ield         | OpenFOAM: The Open Source CFD Toolbox
   \\    /   O peration     | Website:  https://openfoam.org
    \\  /    A nd           | Version:  9
     \\/     M anipulation  |
\*---------------------------------------------------------------------------*/
FoamFile
{
    format      ascii;
    class       volScalarField;
    location    "0.05";
    object      ddt0(p);
}
// * * * * * * * * * * * * * * * * * * * * * * * * * * * * * * * * * * * * * //

dimensions      [1 -1 -3 0 0 0 0];

internalField   nonuniform List<scalar> 
10000
(
-209749
-209735
-209713
-209692
-209672
-209651
-209629
-209606
-209581
-209555
-209529
-209501
-209472
-209441
-209410
-209378
-209344
-209310
-209274
-209237
-209199
-209159
-209119
-209078
-209035
-208991
-208946
-208900
-208853
-208805
-208755
-208704
-208653
-208600
-208545
-208490
-208434
-208376
-208317
-208257
-208196
-208134
-208071
-208006
-207940
-207874
-207805
-207736
-207666
-207594
-207526
-207456
-207375
-207296
-207213
-207137
-207062
-206979
-206892
-206811
-206731
-206642
-206551
-206466
-206380
-206286
-206192
-206102
-206009
-205910
-205813
-205718
-205619
-205516
-205414
-205314
-205209
-205101
-204997
-204891
-204779
-204668
-204559
-204446
-204330
-204216
-204101
-203982
-203862
-203744
-203622
-203498
-203375
-203250
-203122
-202995
-202867
-202736
-202604
-202472
-202337
-202201
-202065
-201927
-201787
-201647
-201506
-201362
-201218
-201073
-200925
-200777
-200628
-200477
-200324
-200171
-200016
-199860
-199703
-199544
-199384
-199223
-199060
-198896
-198731
-198564
-198396
-198227
-198056
-197885
-197712
-197537
-197361
-197185
-197006
-196827
-196646
-196465
-196282
-196097
-195912
-195726
-195538
-195350
-195160
-194970
-194778
-194585
-194391
-194195
-193999
-193801
-193602
-193401
-193200
-192997
-192792
-192586
-192379
-192170
-191960
-191748
-191535
-191320
-191104
-190886
-190667
-190446
-190223
-190000
-189774
-189548
-189319
-189090
-188859
-188627
-188394
-188159
-187923
-187686
-187448
-187208
-186968
-186726
-186484
-186240
-185995
-185749
-185503
-185255
-185006
-184756
-184505
-184253
-184000
-183746
-183492
-183236
-182979
-182721
-182462
-182202
-181941
-181680
-181417
-181153
-180889
-180623
-180357
-180090
-179822
-179553
-179283
-179012
-178740
-178467
-178194
-177919
-177644
-177368
-177091
-176813
-176535
-176256
-175976
-175695
-175414
-175131
-174849
-174565
-174281
-173997
-173711
-173425
-173139
-172852
-172564
-172275
-171987
-171697
-171407
-171117
-170826
-170534
-170243
-169950
-169658
-169365
-169072
-168778
-168485
-168191
-167896
-167602
-167307
-167012
-166717
-166422
-166126
-165831
-165535
-165240
-164944
-164648
-164352
-164057
-163761
-163465
-163170
-162874
-162579
-162284
-161989
-161695
-161400
-161106
-160812
-160519
-160226
-159933
-159641
-159349
-159058
-158767
-158476
-158186
-157897
-157608
-157320
-157032
-156745
-156458
-156173
-155888
-155604
-155320
-155038
-154756
-154475
-154195
-153916
-153638
-153361
-153084
-152809
-152535
-152262
-151990
-151718
-151449
-151180
-150912
-150646
-150380
-150116
-149854
-149592
-149332
-149073
-148816
-148560
-148305
-148052
-147800
-147550
-147301
-147054
-146808
-146564
-146321
-146080
-145840
-145602
-145366
-145131
-144898
-144666
-144436
-144208
-143982
-143758
-143535
-143314
-143095
-142877
-142662
-142448
-142236
-142026
-141818
-141612
-141407
-141205
-141004
-140805
-140608
-140413
-140220
-140029
-139840
-139653
-139468
-139285
-139103
-138924
-138747
-138572
-138398
-138227
-138058
-137891
-137726
-137562
-137401
-137242
-137085
-136930
-136777
-136625
-136476
-136329
-136184
-136041
-135899
-135760
-135623
-135488
-135355
-135223
-135094
-134967
-134841
-134718
-134597
-134477
-134359
-134244
-134130
-134018
-133908
-133800
-133694
-133589
-133487
-133386
-133287
-133190
-133095
-133001
-132910
-132820
-132732
-132645
-132561
-132478
-132397
-132317
-132239
-132163
-132089
-132016
-131945
-131875
-131807
-131740
-131676
-131612
-131550
-131490
-131431
-131374
-131318
-131264
-131211
-131159
-131109
-131060
-131013
-130967
-130922
-130879
-130837
-130796
-130757
-130719
-130682
-130646
-130612
-130579
-130546
-130515
-130486
-130457
-130429
-130403
-130378
-130353
-130330
-130308
-130287
-130267
-130247
-130229
-130212
-130196
-130181
-130166
-130153
-130140
-130128
-130117
-130107
-130098
-130089
-130082
-130075
-130069
-130063
-130059
-130055
-130052
-130049
-130047
-130046
-130046
-130046
-130047
-130048
-130051
-130053
-130056
-130060
-130065
-130070
-130075
-130081
-130088
-130095
-130102
-130110
-130119
-130128
-130137
-130147
-130158
-130168
-130180
-130191
-130203
-130216
-130228
-130241
-130255
-130269
-130283
-130297
-130312
-130327
-130343
-130359
-130375
-130391
-130408
-130425
-130442
-130459
-130477
-130495
-130513
-130531
-130550
-130569
-130588
-130607
-130627
-130647
-130667
-130687
-130707
-130727
-130748
-130768
-130789
-130810
-130832
-130853
-130874
-130896
-130918
-130940
-130962
-130984
-131006
-131029
-131051
-131074
-131096
-131119
-131142
-131165
-131188
-131211
-131234
-131258
-131281
-131305
-131328
-131352
-131375
-131399
-131423
-131447
-131471
-131494
-131518
-131542
-131567
-131591
-131615
-131639
-131663
-131687
-131712
-131736
-131760
-131785
-131809
-131834
-131858
-131883
-131907
-131932
-131956
-131981
-132005
-132030
-132054
-132079
-132104
-132128
-132153
-132177
-132202
-132227
-132251
-132276
-132301
-132325
-132350
-132375
-132399
-132424
-132449
-132473
-132498
-132522
-132547
-132572
-132596
-132621
-132646
-132670
-132695
-132719
-132744
-132768
-132793
-132817
-132842
-132866
-132891
-132915
-132940
-132964
-132989
-133013
-133038
-133062
-133086
-133111
-133135
-133159
-133184
-133208
-133232
-133257
-133281
-133305
-133329
-133354
-133378
-133402
-133426
-133450
-133474
-133498
-133523
-133547
-133571
-133595
-133619
-133643
-133667
-133691
-133715
-133739
-133762
-133786
-133810
-133834
-133858
-133882
-133905
-133929
-133953
-133977
-134001
-134024
-134048
-134072
-134095
-134119
-134143
-134166
-134190
-134213
-134237
-134260
-134284
-134307
-134331
-134354
-134378
-134401
-134425
-134448
-134471
-134495
-134518
-134541
-134565
-134588
-134611
-134634
-134658
-134681
-134704
-134727
-134750
-134774
-134797
-134820
-134843
-134866
-134889
-134912
-134935
-134958
-134981
-135004
-135027
-135050
-135073
-135096
-135119
-135142
-135165
-135187
-135210
-135233
-135256
-135279
-135301
-135324
-135347
-135370
-135392
-135415
-135438
-135460
-135483
-135506
-135528
-135551
-135573
-135596
-135619
-135641
-135664
-135686
-135709
-135731
-135754
-135776
-135799
-135821
-135844
-135866
-135888
-135911
-135933
-135955
-135978
-136000
-136022
-136045
-136067
-136089
-136111
-136134
-136156
-136178
-136200
-136223
-136245
-136267
-136289
-136311
-136333
-136355
-136377
-136399
-136422
-136444
-136466
-136488
-136510
-136532
-136554
-136576
-136598
-136620
-136642
-136663
-136685
-136707
-136729
-136751
-136773
-136795
-136817
-136838
-136860
-136882
-136904
-136926
-136947
-136969
-136991
-137013
-137034
-137056
-137078
-137099
-137121
-137143
-137164
-137186
-137208
-137229
-137251
-137273
-137294
-137316
-137337
-137359
-137380
-137402
-137423
-137445
-137466
-137488
-137509
-137531
-137552
-137574
-137595
-137617
-137638
-137659
-137681
-137702
-137724
-137745
-137766
-137788
-137809
-137830
-137852
-137873
-137894
-137915
-137937
-137958
-137979
-138000
-138022
-138043
-138064
-138085
-138106
-138128
-138149
-138170
-138191
-138212
-138233
-138254
-138276
-138297
-138318
-138339
-138360
-138381
-138402
-138423
-138444
-138465
-138486
-138507
-138528
-138549
-138570
-138591
-138612
-138633
-138654
-138675
-138696
-138717
-138737
-138758
-138779
-138800
-138821
-138842
-138863
-138883
-138904
-138925
-138946
-138967
-138988
-139008
-139029
-139050
-139071
-139091
-139112
-139133
-139154
-139174
-139195
-139216
-139237
-139257
-139278
-139299
-139319
-139340
-139361
-139381
-139402
-139423
-139443
-139464
-139484
-139505
-139526
-139546
-139567
-139587
-139608
-139628
-139649
-139670
-139690
-139711
-139731
-139752
-139772
-139793
-139813
-139834
-139854
-139875
-139895
-139916
-139936
-139956
-139977
-139997
-140018
-140038
-140059
-140079
-140099
-140120
-140140
-140161
-140181
-140201
-140222
-140242
-140262
-140283
-140303
-140323
-140344
-140364
-140384
-140405
-140425
-140445
-140466
-140486
-140506
-140527
-140547
-140567
-140587
-140608
-140628
-140648
-140669
-140689
-140709
-140729
-140749
-140770
-140790
-140810
-140830
-140851
-140871
-140891
-140911
-140931
-140952
-140972
-140992
-141012
-141032
-141052
-141073
-141093
-141113
-141133
-141153
-141173
-141193
-141214
-141234
-141254
-141274
-141294
-141314
-141334
-141354
-141375
-141395
-141415
-141435
-141455
-141475
-141495
-141515
-141535
-141555
-141575
-141595
-141615
-141636
-141656
-141676
-141696
-141716
-141736
-141756
-141776
-141796
-141816
-141836
-141856
-141876
-141896
-141916
-141936
-141956
-141976
-141996
-142016
-142036
-142056
-142076
-142096
-142116
-142136
-142156
-142176
-142196
-142216
-142236
-142256
-142276
-142296
-142316
-142336
-142356
-142376
-142396
-142415
-142435
-142455
-142475
-142495
-142515
-142535
-142555
-142575
-142595
-142615
-142635
-142655
-142675
-142695
-142714
-142734
-142754
-142774
-142794
-142814
-142834
-142854
-142874
-142894
-142913
-142933
-142953
-142973
-142993
-143013
-143033
-143053
-143073
-143092
-143112
-143132
-143152
-143172
-143192
-143212
-143232
-143251
-143271
-143291
-143311
-143331
-143351
-143371
-143390
-143410
-143430
-143450
-143470
-143490
-143509
-143529
-143549
-143569
-143589
-143609
-143628
-143648
-143668
-143688
-143708
-143728
-143747
-143767
-143787
-143807
-143827
-143847
-143866
-143886
-143906
-143926
-143946
-143965
-143985
-144005
-144025
-144045
-144064
-144084
-144104
-144124
-144144
-144163
-144183
-144203
-144223
-144242
-144262
-144282
-144302
-144322
-144341
-144361
-144381
-144401
-144421
-144440
-144460
-144480
-144500
-144519
-144539
-144559
-144579
-144598
-144618
-144638
-144658
-144677
-144697
-144717
-144737
-144756
-144776
-144796
-144815
-144835
-144855
-144875
-144894
-144914
-144934
-144954
-144973
-144993
-145013
-145033
-145052
-145072
-145092
-145112
-145131
-145151
-145171
-145190
-145210
-145230
-145249
-145269
-145289
-145308
-145328
-145348
-145367
-145387
-145407
-145426
-145446
-145466
-145485
-145505
-145525
-145544
-145564
-145584
-145604
-145623
-145643
-145663
-145682
-145702
-145722
-145741
-145761
-145781
-145800
-145820
-145840
-145859
-145879
-145898
-145918
-145938
-145957
-145977
-145996
-146016
-146036
-146055
-146075
-146095
-146114
-146134
-146153
-146173
-146193
-146212
-146232
-146252
-146271
-146291
-146310
-146330
-146350
-146369
-146389
-146408
-146428
-146448
-146467
-146487
-146506
-146526
-146545
-146565
-146584
-146604
-146624
-146643
-146663
-146682
-146702
-146721
-146741
-146760
-146780
-146800
-146819
-146839
-146858
-146878
-146897
-146917
-146936
-146956
-146975
-146995
-147015
-147034
-147054
-147073
-147093
-147112
-147132
-147151
-147170
-147190
-147209
-147229
-147248
-147268
-147287
-147307
-147326
-147346
-147365
-147385
-147404
-147424
-147443
-147463
-147482
-147502
-147521
-147541
-147560
-147580
-147599
-147618
-147638
-147657
-147677
-147696
-147716
-147735
-147754
-147774
-147793
-147813
-147832
-147851
-147871
-147890
-147910
-147929
-147948
-147968
-147987
-148007
-148026
-148045
-148065
-148084
-148104
-148123
-148142
-148162
-148181
-148201
-148220
-148239
-148259
-148278
-148297
-148317
-148336
-148355
-148375
-148394
-148413
-148433
-148452
-148471
-148491
-148510
-148529
-148549
-148568
-148587
-148607
-148626
-148645
-148665
-148684
-148703
-148723
-148742
-148761
-148780
-148800
-148819
-148838
-148858
-148877
-148896
-148915
-148935
-148954
-148973
-148992
-149012
-149031
-149050
-149070
-149089
-149108
-149127
-149147
-149166
-149185
-149204
-149224
-149243
-149262
-149281
-149301
-149320
-149339
-149358
-149378
-149397
-149416
-149435
-149455
-149474
-149493
-149512
-149531
-149551
-149570
-149589
-149608
-149628
-149647
-149666
-149685
-149704
-149724
-149743
-149762
-149781
-149800
-149820
-149839
-149858
-149877
-149896
-149915
-149935
-149954
-149973
-149992
-150012
-150031
-150050
-150069
-150088
-150108
-150127
-150146
-150165
-150184
-150204
-150223
-150242
-150261
-150280
-150299
-150318
-150338
-150357
-150376
-150395
-150414
-150433
-150452
-150472
-150491
-150510
-150529
-150548
-150568
-150587
-150606
-150625
-150644
-150664
-150683
-150702
-150721
-150740
-150760
-150779
-150798
-150817
-150836
-150855
-150874
-150893
-150913
-150932
-150951
-150970
-150989
-151008
-151027
-151047
-151066
-151085
-151104
-151123
-151143
-151162
-151181
-151200
-151220
-151239
-151258
-151277
-151296
-151316
-151335
-151354
-151373
-151392
-151411
-151430
-151450
-151469
-151488
-151507
-151526
-151545
-151564
-151584
-151603
-151622
-151641
-151660
-151680
-151699
-151718
-151737
-151757
-151776
-151795
-151814
-151833
-151853
-151872
-151891
-151910
-151929
-151949
-151968
-151987
-152006
-152025
-152044
-152064
-152083
-152102
-152121
-152140
-152160
-152179
-152198
-152217
-152237
-152256
-152275
-152294
-152314
-152333
-152352
-152371
-152391
-152410
-152429
-152448
-152468
-152487
-152506
-152525
-152545
-152564
-152583
-152602
-152621
-152641
-152660
-152679
-152698
-152718
-152737
-152756
-152775
-152795
-152814
-152833
-152853
-152872
-152891
-152910
-152930
-152949
-152968
-152988
-153007
-153026
-153046
-153065
-153084
-153103
-153123
-153142
-153161
-153180
-153200
-153219
-153238
-153258
-153277
-153296
-153315
-153335
-153354
-153373
-153393
-153412
-153431
-153451
-153470
-153489
-153509
-153528
-153548
-153567
-153586
-153606
-153625
-153644
-153664
-153683
-153702
-153722
-153741
-153760
-153780
-153799
-153818
-153838
-153857
-153876
-153896
-153915
-153934
-153954
-153973
-153992
-154012
-154031
-154051
-154070
-154089
-154109
-154128
-154148
-154167
-154186
-154206
-154225
-154245
-154264
-154283
-154303
-154322
-154342
-154361
-154380
-154400
-154419
-154439
-154458
-154477
-154497
-154516
-154536
-154555
-154574
-154594
-154613
-154633
-154652
-154672
-154691
-154711
-154730
-154749
-154769
-154788
-154808
-154827
-154847
-154866
-154886
-154905
-154924
-154944
-154963
-154983
-155002
-155022
-155041
-155061
-155080
-155099
-155119
-155138
-155158
-155177
-155197
-155216
-155236
-155255
-155275
-155294
-155314
-155333
-155353
-155372
-155392
-155411
-155431
-155450
-155470
-155489
-155509
-155528
-155548
-155567
-155587
-155606
-155626
-155645
-155665
-155684
-155704
-155723
-155743
-155762
-155782
-155801
-155821
-155840
-155860
-155879
-155899
-155919
-155938
-155958
-155977
-155997
-156016
-156036
-156055
-156075
-156094
-156114
-156134
-156153
-156173
-156192
-156212
-156231
-156251
-156270
-156290
-156309
-156329
-156349
-156368
-156388
-156407
-156427
-156446
-156466
-156486
-156505
-156525
-156544
-156564
-156583
-156603
-156623
-156642
-156662
-156681
-156701
-156721
-156740
-156760
-156779
-156799
-156818
-156838
-156858
-156877
-156897
-156916
-156936
-156956
-156975
-156995
-157014
-157034
-157054
-157073
-157093
-157112
-157132
-157152
-157171
-157191
-157211
-157230
-157250
-157269
-157289
-157309
-157328
-157348
-157367
-157387
-157407
-157426
-157446
-157466
-157485
-157505
-157524
-157544
-157564
-157583
-157603
-157623
-157642
-157662
-157682
-157701
-157721
-157740
-157760
-157780
-157799
-157819
-157839
-157858
-157878
-157898
-157917
-157937
-157957
-157976
-157996
-158015
-158035
-158055
-158074
-158094
-158114
-158133
-158153
-158173
-158192
-158212
-158232
-158251
-158271
-158291
-158310
-158330
-158350
-158369
-158389
-158408
-158428
-158448
-158467
-158487
-158507
-158526
-158546
-158566
-158585
-158605
-158625
-158644
-158664
-158684
-158703
-158723
-158743
-158762
-158782
-158802
-158821
-158841
-158861
-158880
-158900
-158920
-158939
-158959
-158979
-158998
-159018
-159038
-159057
-159077
-159097
-159116
-159136
-159156
-159175
-159195
-159215
-159234
-159254
-159274
-159293
-159313
-159333
-159352
-159372
-159392
-159411
-159431
-159451
-159470
-159490
-159510
-159529
-159549
-159569
-159588
-159608
-159628
-159647
-159667
-159687
-159706
-159726
-159746
-159765
-159785
-159805
-159824
-159844
-159864
-159883
-159903
-159923
-159942
-159962
-159982
-160001
-160021
-160041
-160060
-160080
-160100
-160119
-160139
-160159
-160179
-160198
-160218
-160238
-160257
-160277
-160297
-160316
-160336
-160356
-160375
-160395
-160415
-160434
-160454
-160474
-160493
-160513
-160533
-160552
-160572
-160592
-160611
-160631
-160651
-160670
-160690
-160710
-160730
-160749
-160769
-160789
-160808
-160828
-160848
-160867
-160887
-160907
-160926
-160946
-160966
-160985
-161005
-161025
-161045
-161064
-161084
-161104
-161123
-161143
-161163
-161182
-161202
-161222
-161241
-161261
-161281
-161301
-161320
-161340
-161360
-161379
-161399
-161419
-161438
-161458
-161478
-161498
-161517
-161537
-161557
-161576
-161596
-161616
-161636
-161655
-161675
-161695
-161714
-161734
-161754
-161774
-161793
-161813
-161833
-161852
-161872
-161892
-161912
-161931
-161951
-161971
-161990
-162010
-162030
-162050
-162069
-162089
-162109
-162129
-162148
-162168
-162188
-162208
-162227
-162247
-162267
-162287
-162306
-162326
-162346
-162366
-162385
-162405
-162425
-162445
-162464
-162484
-162504
-162524
-162543
-162563
-162583
-162603
-162622
-162642
-162662
-162682
-162702
-162721
-162741
-162761
-162781
-162800
-162820
-162840
-162860
-162880
-162899
-162919
-162939
-162959
-162979
-162998
-163018
-163038
-163058
-163078
-163097
-163117
-163137
-163157
-163177
-163197
-163216
-163236
-163256
-163276
-163296
-163315
-163335
-163355
-163375
-163395
-163415
-163434
-163454
-163474
-163494
-163514
-163534
-163553
-163573
-163593
-163613
-163633
-163653
-163673
-163692
-163712
-163732
-163752
-163772
-163792
-163812
-163832
-163851
-163871
-163891
-163911
-163931
-163951
-163971
-163991
-164011
-164030
-164050
-164070
-164090
-164110
-164130
-164150
-164170
-164190
-164210
-164229
-164249
-164269
-164289
-164309
-164329
-164349
-164369
-164389
-164409
-164429
-164449
-164469
-164488
-164508
-164528
-164548
-164568
-164588
-164608
-164628
-164648
-164668
-164688
-164708
-164728
-164748
-164768
-164788
-164808
-164828
-164848
-164868
-164888
-164908
-164928
-164948
-164968
-164988
-165008
-165028
-165048
-165068
-165088
-165108
-165128
-165148
-165168
-165188
-165208
-165228
-165248
-165268
-165288
-165308
-165328
-165348
-165368
-165388
-165408
-165428
-165448
-165468
-165488
-165508
-165528
-165548
-165568
-165588
-165608
-165628
-165648
-165668
-165688
-165709
-165729
-165749
-165769
-165789
-165809
-165829
-165849
-165869
-165889
-165909
-165929
-165949
-165969
-165990
-166010
-166030
-166050
-166070
-166090
-166110
-166130
-166150
-166170
-166191
-166211
-166231
-166251
-166271
-166291
-166311
-166331
-166352
-166372
-166392
-166412
-166432
-166452
-166472
-166492
-166513
-166533
-166553
-166573
-166593
-166613
-166633
-166654
-166674
-166694
-166714
-166734
-166754
-166775
-166795
-166815
-166835
-166855
-166875
-166896
-166916
-166936
-166956
-166976
-166997
-167017
-167037
-167057
-167077
-167098
-167118
-167138
-167158
-167178
-167199
-167219
-167239
-167259
-167279
-167300
-167320
-167340
-167360
-167381
-167401
-167421
-167441
-167461
-167482
-167502
-167522
-167542
-167563
-167583
-167603
-167623
-167644
-167664
-167684
-167704
-167725
-167745
-167765
-167785
-167806
-167826
-167846
-167867
-167887
-167907
-167927
-167948
-167968
-167988
-168008
-168029
-168049
-168069
-168090
-168110
-168130
-168151
-168171
-168191
-168211
-168232
-168252
-168272
-168293
-168313
-168333
-168354
-168374
-168394
-168415
-168435
-168455
-168476
-168496
-168516
-168537
-168557
-168577
-168598
-168618
-168638
-168659
-168679
-168699
-168720
-168740
-168760
-168781
-168801
-168821
-168842
-168862
-168882
-168903
-168923
-168944
-168964
-168984
-169005
-169025
-169045
-169066
-169086
-169107
-169127
-169147
-169168
-169188
-169209
-169229
-169249
-169270
-169290
-169311
-169331
-169351
-169372
-169392
-169413
-169433
-169453
-169474
-169494
-169515
-169535
-169555
-169576
-169596
-169617
-169637
-169658
-169678
-169698
-169719
-169739
-169760
-169780
-169801
-169821
-169842
-169862
-169882
-169903
-169923
-169944
-169964
-169985
-170005
-170026
-170046
-170067
-170087
-170107
-170128
-170148
-170169
-170189
-170210
-170230
-170251
-170271
-170292
-170312
-170333
-170353
-170374
-170394
-170415
-170435
-170456
-170476
-170497
-170517
-170538
-170558
-170579
-170599
-170620
-170640
-170661
-170681
-170702
-170722
-170743
-170763
-170784
-170804
-170825
-170845
-170866
-170886
-170907
-170927
-170948
-170969
-170989
-171010
-171030
-171051
-171071
-171092
-171112
-171133
-171153
-171174
-171195
-171215
-171236
-171256
-171277
-171297
-171318
-171338
-171359
-171380
-171400
-171421
-171441
-171462
-171482
-171503
-171524
-171544
-171565
-171585
-171606
-171626
-171647
-171668
-171688
-171709
-171729
-171750
-171771
-171791
-171812
-171832
-171853
-171874
-171894
-171915
-171935
-171956
-171977
-171997
-172018
-172038
-172059
-172080
-172100
-172121
-172142
-172162
-172183
-172203
-172224
-172245
-172265
-172286
-172307
-172327
-172348
-172368
-172389
-172410
-172430
-172451
-172472
-172492
-172513
-172534
-172554
-172575
-172596
-172616
-172637
-172658
-172678
-172699
-172720
-172740
-172761
-172782
-172802
-172823
-172844
-172864
-172885
-172906
-172926
-172947
-172968
-172988
-173009
-173030
-173050
-173071
-173092
-173112
-173133
-173154
-173174
-173195
-173216
-173237
-173257
-173278
-173299
-173319
-173340
-173361
-173382
-173402
-173423
-173444
-173464
-173485
-173506
-173527
-173547
-173568
-173589
-173609
-173630
-173651
-173672
-173692
-173713
-173734
-173755
-173775
-173796
-173817
-173838
-173858
-173879
-173900
-173921
-173941
-173962
-173983
-174004
-174024
-174045
-174066
-174087
-174107
-174128
-174149
-174170
-174190
-174211
-174232
-174253
-174274
-174294
-174315
-174336
-174357
-174377
-174398
-174419
-174440
-174461
-174481
-174502
-174523
-174544
-174565
-174585
-174606
-174627
-174648
-174669
-174689
-174710
-174731
-174752
-174773
-174794
-174814
-174835
-174856
-174877
-174898
-174919
-174939
-174960
-174981
-175002
-175023
-175044
-175064
-175085
-175106
-175127
-175148
-175169
-175189
-175210
-175231
-175252
-175273
-175294
-175315
-175336
-175356
-175377
-175398
-175419
-175440
-175461
-175482
-175503
-175523
-175544
-175565
-175586
-175607
-175628
-175649
-175670
-175691
-175711
-175732
-175753
-175774
-175795
-175816
-175837
-175858
-175879
-175900
-175921
-175941
-175962
-175983
-176004
-176025
-176046
-176067
-176088
-176109
-176130
-176151
-176172
-176193
-176214
-176235
-176255
-176276
-176297
-176318
-176339
-176360
-176381
-176402
-176423
-176444
-176465
-176486
-176507
-176528
-176549
-176570
-176591
-176612
-176633
-176654
-176675
-176696
-176717
-176738
-176759
-176780
-176801
-176822
-176843
-176864
-176885
-176906
-176927
-176948
-176969
-176990
-177011
-177032
-177053
-177074
-177095
-177116
-177137
-177158
-177179
-177200
-177221
-177242
-177263
-177284
-177306
-177327
-177348
-177369
-177390
-177411
-177432
-177453
-177474
-177495
-177516
-177537
-177558
-177579
-177600
-177622
-177643
-177664
-177685
-177706
-177727
-177748
-177769
-177790
-177811
-177833
-177854
-177875
-177896
-177917
-177938
-177959
-177980
-178001
-178023
-178044
-178065
-178086
-178107
-178128
-178149
-178171
-178192
-178213
-178234
-178255
-178276
-178297
-178319
-178340
-178361
-178382
-178403
-178424
-178446
-178467
-178488
-178509
-178530
-178552
-178573
-178594
-178615
-178636
-178657
-178679
-178700
-178721
-178742
-178763
-178785
-178806
-178827
-178848
-178870
-178891
-178912
-178933
-178954
-178976
-178997
-179018
-179039
-179061
-179082
-179103
-179124
-179146
-179167
-179188
-179209
-179231
-179252
-179273
-179294
-179316
-179337
-179358
-179379
-179401
-179422
-179443
-179465
-179486
-179507
-179528
-179550
-179571
-179592
-179614
-179635
-179656
-179677
-179699
-179720
-179741
-179763
-179784
-179805
-179827
-179848
-179869
-179891
-179912
-179933
-179955
-179976
-179997
-180019
-180040
-180061
-180083
-180104
-180125
-180147
-180168
-180189
-180211
-180232
-180254
-180275
-180296
-180318
-180339
-180360
-180382
-180403
-180425
-180446
-180467
-180489
-180510
-180531
-180553
-180574
-180596
-180617
-180638
-180660
-180681
-180703
-180724
-180746
-180767
-180788
-180810
-180831
-180853
-180874
-180896
-180917
-180938
-180960
-180981
-181003
-181024
-181046
-181067
-181088
-181110
-181131
-181153
-181174
-181196
-181217
-181239
-181260
-181282
-181303
-181325
-181346
-181367
-181389
-181410
-181432
-181453
-181475
-181496
-181518
-181539
-181561
-181582
-181604
-181625
-181647
-181668
-181690
-181711
-181733
-181754
-181776
-181797
-181819
-181841
-181862
-181884
-181905
-181927
-181948
-181970
-181991
-182013
-182034
-182056
-182077
-182099
-182120
-182142
-182164
-182185
-182207
-182228
-182250
-182271
-182293
-182314
-182336
-182358
-182379
-182401
-182422
-182444
-182465
-182487
-182509
-182530
-182552
-182573
-182595
-182617
-182638
-182660
-182681
-182703
-182725
-182746
-182768
-182789
-182811
-182833
-182854
-182876
-182897
-182919
-182941
-182962
-182984
-183006
-183027
-183049
-183070
-183092
-183114
-183135
-183157
-183179
-183200
-183222
-183244
-183265
-183287
-183309
-183330
-183352
-183374
-183395
-183417
-183439
-183460
-183482
-183504
-183525
-183547
-183569
-183590
-183612
-183634
-183655
-183677
-183699
-183720
-183742
-183764
-183786
-183807
-183829
-183851
-183872
-183894
-183916
-183938
-183959
-183981
-184003
-184024
-184046
-184068
-184090
-184111
-184133
-184155
-184177
-184198
-184220
-184242
-184263
-184285
-184307
-184329
-184350
-184372
-184394
-184416
-184437
-184459
-184481
-184503
-184525
-184546
-184568
-184590
-184612
-184633
-184655
-184677
-184699
-184721
-184742
-184764
-184786
-184808
-184830
-184851
-184873
-184895
-184917
-184939
-184960
-184982
-185004
-185026
-185048
-185069
-185091
-185113
-185135
-185157
-185179
-185200
-185222
-185244
-185266
-185288
-185310
-185331
-185353
-185375
-185397
-185419
-185441
-185463
-185484
-185506
-185528
-185550
-185572
-185594
-185616
-185638
-185659
-185681
-185703
-185725
-185747
-185769
-185791
-185813
-185835
-185856
-185878
-185900
-185922
-185944
-185966
-185988
-186010
-186032
-186054
-186076
-186097
-186119
-186141
-186163
-186185
-186207
-186229
-186251
-186273
-186295
-186317
-186339
-186361
-186383
-186405
-186427
-186449
-186470
-186492
-186514
-186536
-186558
-186580
-186602
-186624
-186646
-186668
-186690
-186712
-186734
-186756
-186778
-186800
-186822
-186844
-186866
-186888
-186910
-186932
-186954
-186976
-186998
-187020
-187042
-187064
-187086
-187108
-187130
-187152
-187174
-187196
-187218
-187240
-187262
-187284
-187306
-187329
-187351
-187373
-187395
-187417
-187439
-187461
-187483
-187505
-187527
-187549
-187571
-187593
-187615
-187637
-187659
-187681
-187704
-187726
-187748
-187770
-187792
-187814
-187836
-187858
-187880
-187902
-187924
-187947
-187969
-187991
-188013
-188035
-188057
-188079
-188101
-188123
-188146
-188168
-188190
-188212
-188234
-188256
-188278
-188300
-188323
-188345
-188367
-188389
-188411
-188433
-188455
-188478
-188500
-188522
-188544
-188566
-188588
-188611
-188633
-188655
-188677
-188699
-188721
-188744
-188766
-188788
-188810
-188832
-188854
-188877
-188899
-188921
-188943
-188965
-188988
-189010
-189032
-189054
-189076
-189099
-189121
-189143
-189165
-189188
-189210
-189232
-189254
-189276
-189299
-189321
-189343
-189365
-189388
-189410
-189432
-189454
-189477
-189499
-189521
-189543
-189566
-189588
-189610
-189632
-189655
-189677
-189699
-189721
-189744
-189766
-189788
-189810
-189833
-189855
-189877
-189900
-189922
-189944
-189966
-189989
-190011
-190033
-190056
-190078
-190100
-190122
-190145
-190167
-190189
-190212
-190234
-190256
-190279
-190301
-190323
-190346
-190368
-190390
-190413
-190435
-190457
-190480
-190502
-190524
-190547
-190569
-190591
-190614
-190636
-190658
-190681
-190703
-190725
-190748
-190770
-190792
-190815
-190837
-190860
-190882
-190904
-190927
-190949
-190971
-190994
-191016
-191039
-191061
-191083
-191106
-191128
-191151
-191173
-191195
-191218
-191240
-191263
-191285
-191307
-191330
-191352
-191375
-191397
-191419
-191442
-191464
-191487
-191509
-191532
-191554
-191576
-191599
-191621
-191644
-191666
-191689
-191711
-191733
-191756
-191778
-191801
-191823
-191846
-191868
-191891
-191913
-191936
-191958
-191981
-192003
-192025
-192048
-192070
-192093
-192115
-192138
-192160
-192183
-192205
-192228
-192250
-192273
-192295
-192318
-192340
-192363
-192385
-192408
-192430
-192453
-192475
-192498
-192520
-192543
-192565
-192588
-192611
-192633
-192656
-192678
-192701
-192723
-192746
-192768
-192791
-192813
-192836
-192858
-192881
-192904
-192926
-192949
-192971
-192994
-193016
-193039
-193062
-193084
-193107
-193129
-193152
-193174
-193197
-193220
-193242
-193265
-193287
-193310
-193333
-193355
-193378
-193400
-193423
-193446
-193468
-193491
-193513
-193536
-193559
-193581
-193604
-193627
-193649
-193672
-193694
-193717
-193740
-193762
-193785
-193808
-193830
-193853
-193876
-193898
-193921
-193944
-193966
-193989
-194012
-194034
-194057
-194080
-194102
-194125
-194148
-194170
-194193
-194216
-194238
-194261
-194284
-194306
-194329
-194352
-194374
-194397
-194420
-194443
-194465
-194488
-194511
-194533
-194556
-194579
-194602
-194624
-194647
-194670
-194692
-194715
-194738
-194761
-194783
-194806
-194829
-194852
-194874
-194897
-194920
-194943
-194965
-194988
-195011
-195034
-195056
-195079
-195102
-195125
-195147
-195170
-195193
-195216
-195239
-195261
-195284
-195307
-195330
-195353
-195375
-195398
-195421
-195444
-195467
-195489
-195512
-195535
-195558
-195581
-195603
-195626
-195649
-195672
-195695
-195718