/*--------------------------------*- C++ -*----------------------------------*\
  =========                 |
  \\      /  F ield         | OpenFOAM: The Open Source CFD Toolbox
   \\    /   O peration     | Website:  https://openfoam.org
    \\  /    A nd           | Version:  9
     \\/     M anipulation  |
\*---------------------------------------------------------------------------*/
FoamFile
{
    format      ascii;
    class       surfaceScalarField;
    location    "0.05";
    object      ddtCorrDdt0(phi);
}
// * * * * * * * * * * * * * * * * * * * * * * * * * * * * * * * * * * * * * //

dimensions      [1 0 -2 0 0 0 0];

internalField   nonuniform List<scalar> 
9999
(
-47.5784
-51.5252
-55.4756
-59.4295
-63.3861
-67.3453
-71.3067
-75.2706
-79.2366
-83.2048
-87.1752
-91.1477
-95.1223
-99.0994
-103.079
-107.061
-111.046
-115.034
-119.024
-123.017
-127.013
-131.012
-135.014
-139.019
-143.027
-147.038
-151.053
-155.071
-159.092
-163.117
-167.145
-171.178
-175.214
-179.254
-183.298
-187.346
-191.398
-195.455
-199.515
-203.58
-207.65
-211.724
-215.803
-219.886
-223.974
-228.067
-232.165
-236.268
-240.382
-244.457
-248.57
-252.784
-256.933
-260.985
-265.086
-269.315
-273.502
-277.581
-281.713
-285.963
-290.161
-294.27
-298.445
-302.711
-306.917
-311.058
-315.282
-319.566
-323.777
-327.958
-332.228
-336.522
-340.744
-344.978
-349.291
-353.589
-357.832
-362.12
-366.463
-370.764
-375.049
-379.395
-383.752
-388.064
-392.401
-396.788
-401.151
-405.501
-409.899
-414.307
-418.684
-423.085
-427.523
-431.941
-436.362
-440.822
-445.279
-449.723
-454.198
-458.686
-463.161
-467.659
-472.179
-476.69
-481.212
-485.756
-490.296
-494.842
-499.411
-503.988
-508.567
-513.167
-517.776
-522.381
-527.003
-531.638
-536.272
-540.925
-545.595
-550.266
-554.952
-559.649
-564.347
-569.058
-573.778
-578.509
-583.256
-588.015
-592.786
-597.569
-602.358
-607.156
-611.965
-616.782
-621.615
-626.463
-631.326
-636.206
-641.098
-646.003
-650.918
-655.844
-660.782
-665.735
-670.705
-675.693
-680.699
-685.722
-690.758
-695.803
-700.858
-705.919
-710.99
-716.071
-721.165
-726.273
-731.395
-736.53
-741.675
-746.827
-751.982
-757.139
-762.3
-767.465
-772.638
-777.821
-783.017
-788.226
-793.446
-798.675
-803.911
-809.151
-814.394
-819.64
-824.892
-830.152
-835.424
-840.712
-846.016
-851.338
-856.675
-862.025
-867.385
-872.753
-878.126
-883.506
-888.893
-894.291
-899.703
-905.131
-910.578
-916.043
-921.525
-927.021
-932.529
-938.044
-943.565
-949.088
-954.616
-960.148
-965.689
-971.241
-976.808
-982.391
-987.992
-993.61
-999.244
-1004.89
-1010.54
-1016.2
-1021.86
-1027.52
-1033.18
-1038.84
-1044.5
-1050.17
-1055.85
-1061.55
-1067.25
-1072.98
-1078.71
-1084.46
-1090.22
-1095.98
-1101.75
-1107.51
-1113.27
-1119.03
-1124.79
-1130.55
-1136.3
-1142.06
-1147.83
-1153.61
-1159.4
-1165.2
-1171.01
-1176.83
-1182.66
-1188.49
-1194.33
-1200.16
-1205.99
-1211.81
-1217.62
-1223.43
-1229.22
-1235.02
-1240.81
-1246.6
-1252.39
-1258.18
-1263.99
-1269.8
-1275.61
-1281.44
-1287.27
-1293.1
-1298.93
-1304.76
-1310.59
-1316.4
-1322.21
-1328
-1333.78
-1339.55
-1345.3
-1351.04
-1356.77
-1362.48
-1368.19
-1373.89
-1379.59
-1385.29
-1390.99
-1396.68
-1402.38
-1408.08
-1413.78
-1419.47
-1425.17
-1430.85
-1436.53
-1442.19
-1447.85
-1453.48
-1459.1
-1464.71
-1470.29
-1475.85
-1481.38
-1486.9
-1492.39
-1497.86
-1503.32
-1508.75
-1514.16
-1519.55
-1524.93
-1530.29
-1535.63
-1540.96
-1546.28
-1551.59
-1556.88
-1562.16
-1567.43
-1572.69
-1577.94
-1583.18
-1588.4
-1593.61
-1598.81
-1603.99
-1609.16
-1614.31
-1619.44
-1624.56
-1629.66
-1634.74
-1639.79
-1644.83
-1649.84
-1654.83
-1659.78
-1664.71
-1669.62
-1674.48
-1679.32
-1684.13
-1688.9
-1693.64
-1698.35
-1703.03
-1707.67
-1712.29
-1716.88
-1721.44
-1725.97
-1730.48
-1734.97
-1739.44
-1743.89
-1748.32
-1752.72
-1757.08
-1761.41
-1765.7
-1769.96
-1774.18
-1778.36
-1782.52
-1786.64
-1790.73
-1794.8
-1798.83
-1802.83
-1806.8
-1810.74
-1814.64
-1818.52
-1822.37
-1826.18
-1829.96
-1833.72
-1837.44
-1841.13
-1844.79
-1848.41
-1852.01
-1855.57
-1859.11
-1862.61
-1866.08
-1869.52
-1872.92
-1876.3
-1879.64
-1882.96
-1886.24
-1889.49
-1892.71
-1895.89
-1899.05
-1902.17
-1905.27
-1908.33
-1911.36
-1914.37
-1917.34
-1920.28
-1923.19
-1926.07
-1928.93
-1931.75
-1934.54
-1937.3
-1940.03
-1942.73
-1945.41
-1948.05
-1950.66
-1953.25
-1955.8
-1958.33
-1960.83
-1963.3
-1965.75
-1968.16
-1970.55
-1972.91
-1975.25
-1977.55
-1979.83
-1982.09
-1984.31
-1986.51
-1988.69
-1990.84
-1992.96
-1995.06
-1997.13
-1999.18
-2001.2
-2003.2
-2005.17
-2007.13
-2009.05
-2010.95
-2012.83
-2014.69
-2016.53
-2018.33
-2020.12
-2021.89
-2023.64
-2025.36
-2027.06
-2028.74
-2030.4
-2032.04
-2033.66
-2035.26
-2036.84
-2038.4
-2039.94
-2041.46
-2042.96
-2044.44
-2045.91
-2047.35
-2048.78
-2050.19
-2051.58
-2052.96
-2054.31
-2055.65
-2056.98
-2058.29
-2059.58
-2060.86
-2062.12
-2063.37
-2064.6
-2065.81
-2067.02
-2068.2
-2069.38
-2070.53
-2071.68
-2072.81
-2073.92
-2075.03
-2076.12
-2077.2
-2078.26
-2079.32
-2080.36
-2081.39
-2082.41
-2083.41
-2084.41
-2085.39
-2086.37
-2087.33
-2088.28
-2089.22
-2090.15
-2091.07
-2091.99
-2092.89
-2093.78
-2094.66
-2095.53
-2096.4
-2097.26
-2098.1
-2098.94
-2099.77
-2100.6
-2101.41
-2102.22
-2103.02
-2103.81
-2104.59
-2105.37
-2106.14
-2106.9
-2107.66
-2108.41
-2109.15
-2109.89
-2110.62
-2111.34
-2112.06
-2112.77
-2113.48
-2114.18
-2114.88
-2115.57
-2116.25
-2116.93
-2117.61
-2118.28
-2118.94
-2119.6
-2120.25
-2120.9
-2121.55
-2122.19
-2122.83
-2123.47
-2124.09
-2124.72
-2125.34
-2125.96
-2126.57
-2127.19
-2127.79
-2128.4
-2128.99
-2129.59
-2130.19
-2130.77
-2131.36
-2131.94
-2132.53
-2133.1
-2133.68
-2134.25
-2134.82
-2135.39
-2135.96
-2136.52
-2137.08
-2137.63
-2138.19
-2138.74
-2139.29
-2139.84
-2140.39
-2140.93
-2141.47
-2142.01
-2142.55
-2143.09
-2143.62
-2144.15
-2144.68
-2145.21
-2145.74
-2146.27
-2146.79
-2147.31
-2147.83
-2148.35
-2148.87
-2149.39
-2149.9
-2150.41
-2150.93
-2151.44
-2151.95
-2152.46
-2152.97
-2153.47
-2153.97
-2154.48
-2154.98
-2155.48
-2155.98
-2156.48
-2156.98
-2157.48
-2157.97
-2158.47
-2158.96
-2159.46
-2159.95
-2160.44
-2160.93
-2161.42
-2161.91
-2162.4
-2162.89
-2163.38
-2163.86
-2164.35
-2164.83
-2165.32
-2165.8
-2166.28
-2166.76
-2167.24
-2167.72
-2168.21
-2168.68
-2169.16
-2169.64
-2170.12
-2170.59
-2171.07
-2171.55
-2172.02
-2172.5
-2172.97
-2173.44
-2173.92
-2174.39
-2174.86
-2175.33
-2175.81
-2176.27
-2176.74
-2177.22
-2177.68
-2178.15
-2178.62
-2179.09
-2179.56
-2180.02
-2180.49
-2180.96
-2181.42
-2181.89
-2182.35
-2182.82
-2183.28
-2183.74
-2184.21
-2184.67
-2185.13
-2185.6
-2186.06
-2186.52
-2186.98
-2187.44
-2187.9
-2188.36
-2188.82
-2189.28
-2189.74
-2190.2
-2190.66
-2191.12
-2191.57
-2192.03
-2192.49
-2192.94
-2193.4
-2193.86
-2194.31
-2194.77
-2195.23
-2195.68
-2196.14
-2196.59
-2197.05
-2197.5
-2197.95
-2198.41
-2198.86
-2199.31
-2199.77
-2200.22
-2200.67
-2201.12
-2201.57
-2202.02
-2202.48
-2202.92
-2203.37
-2203.83
-2204.28
-2204.72
-2205.17
-2205.62
-2206.07
-2206.52
-2206.97
-2207.42
-2207.86
-2208.31
-2208.76
-2209.21
-2209.65
-2210.1
-2210.55
-2210.99
-2211.44
-2211.89
-2212.33
-2212.77
-2213.22
-2213.66
-2214.11
-2214.56
-2215
-2215.44
-2215.89
-2216.33
-2216.77
-2217.21
-2217.66
-2218.1
-2218.54
-2218.98
-2219.43
-2219.86
-2220.31
-2220.75
-2221.19
-2221.63
-2222.07
-2222.51
-2222.95
-2223.39
-2223.83
-2224.27
-2224.71
-2225.15
-2225.59
-2226.02
-2226.46
-2226.9
-2227.34
-2227.78
-2228.22
-2228.65
-2229.09
-2229.53
-2229.97
-2230.4
-2230.84
-2231.28
-2231.71
-2232.14
-2232.58
-2233.02
-2233.45
-2233.89
-2234.32
-2234.76
-2235.19
-2235.63
-2236.06
-2236.49
-2236.93
-2237.36
-2237.8
-2238.23
-2238.66
-2239.1
-2239.53
-2239.96
-2240.39
-2240.82
-2241.25
-2241.69
-2242.12
-2242.55
-2242.98
-2243.42
-2243.85
-2244.27
-2244.71
-2245.14
-2245.57
-2246
-2246.43
-2246.86
-2247.29
-2247.72
-2248.15
-2248.58
-2249
-2249.43
-2249.86
-2250.29
-2250.72
-2251.15
-2251.58
-2252
-2252.43
-2252.86
-2253.29
-2253.71
-2254.14
-2254.57
-2254.99
-2255.42
-2255.85
-2256.27
-2256.7
-2257.13
-2257.55
-2257.98
-2258.4
-2258.83
-2259.26
-2259.68
-2260.1
-2260.53
-2260.96
-2261.38
-2261.81
-2262.23
-2262.65
-2263.08
-2263.51
-2263.93
-2264.35
-2264.77
-2265.2
-2265.62
-2266.04
-2266.47
-2266.89
-2267.31
-2267.74
-2268.16
-2268.58
-2269
-2269.43
-2269.85
-2270.27
-2270.69
-2271.12
-2271.54
-2271.96
-2272.38
-2272.8
-2273.23
-2273.64
-2274.06
-2274.49
-2274.91
-2275.33
-2275.75
-2276.17
-2276.59
-2277.01
-2277.43
-2277.85
-2278.27
-2278.69
-2279.11
-2279.53
-2279.95
-2280.37
-2280.79
-2281.21
-2281.62
-2282.04
-2282.47
-2282.88
-2283.3
-2283.72
-2284.14
-2284.55
-2284.97
-2285.39
-2285.81
-2286.23
-2286.64
-2287.06
-2287.48
-2287.9
-2288.31
-2288.74
-2289.15
-2289.56
-2289.98
-2290.4
-2290.82
-2291.23
-2291.65
-2292.07
-2292.48
-2292.9
-2293.32
-2293.74
-2294.15
-2294.56
-2294.98
-2295.4
-2295.81
-2296.23
-2296.65
-2297.06
-2297.47
-2297.89
-2298.31
-2298.72
-2299.13
-2299.55
-2299.97
-2300.38
-2300.79
-2301.21
-2301.62
-2302.03
-2302.45
-2302.87
-2303.28
-2303.69
-2304.1
-2304.52
-2304.94
-2305.35
-2305.76
-2306.18
-2306.59
-2307
-2307.41
-2307.83
-2308.24
-2308.65
-2309.07
-2309.48
-2309.89
-2310.3
-2310.72
-2311.13
-2311.54
-2311.95
-2312.37
-2312.78
-2313.19
-2313.6
-2314.01
-2314.43
-2314.84
-2315.25
-2315.66
-2316.08
-2316.48
-2316.89
-2317.31
-2317.72
-2318.13
-2318.54
-2318.95
-2319.37
-2319.77
-2320.18
-2320.59
-2321.01
-2321.41
-2321.82
-2322.24
-2322.65
-2323.06
-2323.46
-2323.88
-2324.29
-2324.69
-2325.1
-2325.52
-2325.93
-2326.33
-2326.74
-2327.15
-2327.57
-2327.97
-2328.38
-2328.79
-2329.2
-2329.61
-2330.01
-2330.43
-2330.84
-2331.24
-2331.65
-2332.06
-2332.47
-2332.88
-2333.28
-2333.69
-2334.1
-2334.51
-2334.91
-2335.33
-2335.74
-2336.14
-2336.54
-2336.96
-2337.37
-2337.77
-2338.17
-2338.59
-2339
-2339.4
-2339.8
-2340.21
-2340.62
-2341.03
-2341.43
-2341.84
-2342.25
-2342.65
-2343.06
-2343.47
-2343.88
-2344.28
-2344.68
-2345.09
-2345.5
-2345.9
-2346.31
-2346.71
-2347.12
-2347.53
-2347.93
-2348.34
-2348.75
-2349.15
-2349.55
-2349.96
-2350.37
-2350.77
-2351.17
-2351.58
-2351.99
-2352.39
-2352.79
-2353.2
-2353.61
-2354.01
-2354.41
-2354.81
-2355.22
-2355.63
-2356.03
-2356.43
-2356.84
-2357.25
-2357.65
-2358.04
-2358.45
-2358.86
-2359.26
-2359.66
-2360.07
-2360.48
-2360.88
-2361.27
-2361.68
-2362.09
-2362.49
-2362.89
-2363.29
-2363.7
-2364.1
-2364.5
-2364.9
-2365.31
-2365.72
-2366.11
-2366.51
-2366.92
-2367.33
-2367.72
-2368.12
-2368.53
-2368.94
-2369.33
-2369.73
-2370.13
-2370.54
-2370.94
-2371.34
-2371.74
-2372.15
-2372.55
-2372.95
-2373.35
-2373.75
-2374.16
-2374.55
-2374.95
-2375.36
-2375.76
-2376.16
-2376.56
-2376.96
-2377.37
-2377.77
-2378.16
-2378.56
-2378.97
-2379.37
-2379.77
-2380.17
-2380.57
-2380.97
-2381.37
-2381.77
-2382.17
-2382.58
-2382.97
-2383.37
-2383.77
-2384.18
-2384.57
-2384.97
-2385.37
-2385.77
-2386.17
-2386.57
-2386.97
-2387.37
-2387.77
-2388.17
-2388.56
-2388.97
-2389.37
-2389.77
-2390.16
-2390.57
-2390.97
-2391.37
-2391.76
-2392.16
-2392.57
-2392.97
-2393.36
-2393.76
-2394.16
-2394.56
-2394.96
-2395.35
-2395.75
-2396.16
-2396.55
-2396.95
-2397.35
-2397.75
-2398.15
-2398.54
-2398.94
-2399.34
-2399.75
-2400.14
-2400.53
-2400.93
-2401.34
-2401.73
-2402.13
-2402.53
-2402.93
-2403.33
-2403.72
-2404.12
-2404.52
-2404.93
-2405.32
-2405.71
-2406.11
-2406.52
-2406.91
-2407.3
-2407.7
-2408.11
-2408.51
-2408.9
-2409.29
-2409.69
-2410.1
-2410.49
-2410.88
-2411.28
-2411.68
-2412.08
-2412.47
-2412.87
-2413.27
-2413.67
-2414.06
-2414.46
-2414.86
-2415.26
-2415.66
-2416.05
-2416.45
-2416.85
-2417.25
-2417.64
-2418.04
-2418.44
-2418.84
-2419.23
-2419.62
-2420.02
-2420.43
-2420.83
-2421.21
-2421.61
-2422.01
-2422.41
-2422.8
-2423.19
-2423.6
-2424
-2424.4
-2424.78
-2425.18
-2425.59
-2425.99
-2426.38
-2426.77
-2427.17
-2427.57
-2427.97
-2428.36
-2428.76
-2429.16
-2429.56
-2429.95
-2430.34
-2430.75
-2431.15
-2431.54
-2431.93
-2432.33
-2432.73
-2433.13
-2433.52
-2433.91
-2434.32
-2434.72
-2435.11
-2435.5
-2435.9
-2436.3
-2436.7
-2437.09
-2437.48
-2437.88
-2438.29
-2438.68
-2439.07
-2439.47
-2439.87
-2440.27
-2440.66
-2441.06
-2441.46
-2441.86
-2442.26
-2442.65
-2443.04
-2443.45
-2443.85
-2444.24
-2444.63
-2445.03
-2445.43
-2445.83
-2446.22
-2446.61
-2447.02
-2447.42
-2447.81
-2448.2
-2448.6
-2449
-2449.4
-2449.79
-2450.18
-2450.59
-2450.99
-2451.38
-2451.77
-2452.17
-2452.58
-2452.98
-2453.37
-2453.76
-2454.16
-2454.57
-2454.96
-2455.35
-2455.75
-2456.15
-2456.55
-2456.94
-2457.33
-2457.74
-2458.14
-2458.54
-2458.92
-2459.32
-2459.72
-2460.13
-2460.52
-2460.91
-2461.31
-2461.71
-2462.11
-2462.5
-2462.89
-2463.3
-2463.7
-2464.1
-2464.49
-2464.89
-2465.29
-2465.69
-2466.09
-2466.48
-2466.88
-2467.29
-2467.68
-2468.07
-2468.47
-2468.87
-2469.28
-2469.67
-2470.06
-2470.46
-2470.86
-2471.26
-2471.65
-2472.05
-2472.45
-2472.86
-2473.25
-2473.64
-2474.04
-2474.44
-2474.85
-2475.24
-2475.63
-2476.03
-2476.44
-2476.84
-2477.23
-2477.62
-2478.03
-2478.43
-2478.83
-2479.22
-2479.62
-2480.02
-2480.43
-2480.82
-2481.21
-2481.61
-2482.02
-2482.42
-2482.81
-2483.21
-2483.61
-2484.02
-2484.41
-2484.8
-2485.2
-2485.61
-2486.01
-2486.41
-2486.8
-2487.2
-2487.6
-2488.01
-2488.4
-2488.79
-2489.19
-2489.6
-2490.01
-2490.4
-2490.79
-2491.2
-2491.61
-2492
-2492.39
-2492.79
-2493.2
-2493.61
-2494
-2494.39
-2494.79
-2495.2
-2495.6
-2496
-2496.39
-2496.79
-2497.2
-2497.6
-2497.99
-2498.39
-2498.79
-2499.2
-2499.6
-2499.99
-2500.39
-2500.8
-2501.21
-2501.6
-2501.99
-2502.39
-2502.8
-2503.21
-2503.6
-2504
-2504.4
-2504.81
-2505.21
-2505.6
-2506
-2506.4
-2506.81
-2507.21
-2507.61
-2508
-2508.41
-2508.82
-2509.22
-2509.61
-2510.01
-2510.42
-2510.83
-2511.22
-2511.62
-2512.02
-2512.42
-2512.83
-2513.23
-2513.62
-2514.02
-2514.43
-2514.84
-2515.23
-2515.63
-2516.03
-2516.44
-2516.84
-2517.24
-2517.63
-2518.04
-2518.45
-2518.85
-2519.25
-2519.64
-2520.05
-2520.46
-2520.86
-2521.26
-2521.66
-2522.06
-2522.47
-2522.87
-2523.26
-2523.66
-2524.07
-2524.48
-2524.88
-2525.27
-2525.67
-2526.08
-2526.49
-2526.89
-2527.28
-2527.68
-2528.09
-2528.5
-2528.9
-2529.29
-2529.7
-2530.11
-2530.52
-2530.91
-2531.31
-2531.71
-2532.13
-2532.53
-2532.93
-2533.32
-2533.73
-2534.14
-2534.54
-2534.94
-2535.33
-2535.74
-2536.15
-2536.55
-2536.95
-2537.34
-2537.75
-2538.16
-2538.56
-2538.96
-2539.36
-2539.76
-2540.17
-2540.58
-2540.97
-2541.37
-2541.78
-2542.19
-2542.6
-2542.99
-2543.39
-2543.8
-2544.21
-2544.61
-2545.01
-2545.41
-2545.82
-2546.23
-2546.63
-2547.02
-2547.42
-2547.83
-2548.24
-2548.64
-2549.03
-2549.43
-2549.84
-2550.25
-2550.65
-2551.05
-2551.45
-2551.86
-2552.27
-2552.67
-2553.06
-2553.47
-2553.88
-2554.29
-2554.69
-2555.08
-2555.49
-2555.9
-2556.31
-2556.71
-2557.1
-2557.5
-2557.92
-2558.33
-2558.73
-2559.12
-2559.52
-2559.93
-2560.34
-2560.74
-2561.13
-2561.53
-2561.94
-2562.36
-2562.76
-2563.15
-2563.55
-2563.96
-2564.37
-2564.78
-2565.17
-2565.57
-2565.98
-2566.39
-2566.8
-2567.19
-2567.59
-2568
-2568.41
-2568.82
-2569.21
-2569.61
-2570.02
-2570.43
-2570.84
-2571.23
-2571.63
-2572.04
-2572.45
-2572.85
-2573.25
-2573.65
-2574.05
-2574.46
-2574.87
-2575.27
-2575.66
-2576.07
-2576.48
-2576.89
-2577.29
-2577.69
-2578.09
-2578.5
-2578.91
-2579.31
-2579.71
-2580.11
-2580.53
-2580.93
-2581.33
-2581.73
-2582.13
-2582.55
-2582.95
-2583.35
-2583.75
-2584.15
-2584.56
-2584.97
-2585.37
-2585.77
-2586.17
-2586.58
-2586.99
-2587.39
-2587.79
-2588.19
-2588.6
-2589.01
-2589.41
-2589.81
-2590.21
-2590.62
-2591.03
-2591.44
-2591.83
-2592.23
-2592.64
-2593.06
-2593.46
-2593.86
-2594.26
-2594.66
-2595.08
-2595.48
-2595.88
-2596.28
-2596.68
-2597.1
-2597.5
-2597.9
-2598.3
-2598.7
-2599.11
-2599.52
-2599.92
-2600.32
-2600.73
-2601.14
-2601.54
-2601.95
-2602.35
-2602.75
-2603.16
-2603.57
-2603.97
-2604.37
-2604.78
-2605.18
-2605.59
-2606
-2606.4
-2606.8
-2607.21
-2607.62
-2608.02
-2608.42
-2608.82
-2609.23
-2609.64
-2610.04
-2610.45
-2610.85
-2611.25
-2611.66
-2612.07
-2612.47
-2612.87
-2613.27
-2613.68
-2614.09
-2614.5
-2614.9
-2615.3
-2615.71
-2616.12
-2616.53
-2616.93
-2617.33
-2617.73
-2618.15
-2618.55
-2618.96
-2619.35
-2619.76
-2620.17
-2620.58
-2620.98
-2621.38
-2621.78
-2622.2
-2622.61
-2623.01
-2623.41
-2623.81
-2624.22
-2624.63
-2625.04
-2625.44
-2625.84
-2626.25
-2626.66
-2627.07
-2627.47
-2627.87
-2628.27
-2628.69
-2629.1
-2629.5
-2629.9
-2630.3
-2630.71
-2631.12
-2631.53
-2631.93
-2632.33
-2632.74
-2633.15
-2633.56
-2633.96
-2634.36
-2634.77
-2635.18
-2635.59
-2635.99
-2636.39
-2636.8
-2637.21
-2637.62
-2638.02
-2638.43
-2638.83
-2639.24
-2639.65
-2640.06
-2640.46
-2640.86
-2641.27
-2641.68
-2642.09
-2642.5
-2642.9
-2643.3
-2643.71
-2644.12
-2644.53
-2644.93
-2645.34
-2645.75
-2646.16
-2646.56
-2646.97
-2647.37
-2647.78
-2648.19
-2648.6
-2649
-2649.4
-2649.81
-2650.22
-2650.63
-2651.04
-2651.44
-2651.85
-2652.26
-2652.67
-2653.08
-2653.48
-2653.88
-2654.29
-2654.7
-2655.11
-2655.52
-2655.92
-2656.33
-2656.74
-2657.15
-2657.56
-2657.96
-2658.37
-2658.77
-2659.19
-2659.6
-2660
-2660.4
-2660.81
-2661.22
-2661.63
-2662.04
-2662.44
-2662.85
-2663.26
-2663.67
-2664.08
-2664.49
-2664.89
-2665.3
-2665.71
-2666.12
-2666.53
-2666.93
-2667.34
-2667.75
-2668.16
-2668.57
-2668.98
-2669.39
-2669.79
-2670.21
-2670.62
-2671.02
-2671.43
-2671.84
-2672.25
-2672.66
-2673.07
-2673.47
-2673.88
-2674.29
-2674.7
-2675.11
-2675.52
-2675.92
-2676.33
-2676.75
-2677.16
-2677.57
-2677.97
-2678.38
-2678.79
-2679.21
-2679.62
-2680.02
-2680.43
-2680.84
-2681.25
-2681.66
-2682.07
-2682.48
-2682.89
-2683.3
-2683.71
-2684.12
-2684.53
-2684.94
-2685.35
-2685.76
-2686.17
-2686.58
-2686.99
-2687.4
-2687.81
-2688.22
-2688.63
-2689.04
-2689.45
-2689.86
-2690.27
-2690.69
-2691.1
-2691.51
-2691.91
-2692.33
-2692.74
-2693.15
-2693.56
-2693.97
-2694.38
-2694.8
-2695.21
-2695.62
-2696.03
-2696.44
-2696.85
-2697.26
-2697.68
-2698.08
-2698.49
-2698.91
-2699.32
-2699.73
-2700.14
-2700.55
-2700.96
-2701.38
-2701.79
-2702.2
-2702.61
-2703.02
-2703.44
-2703.85
-2704.27
-2704.68
-2705.09
-2705.5
-2705.91
-2706.33
-2706.74
-2707.15
-2707.56
-2707.97
-2708.39
-2708.81
-2709.22
-2709.63
-2710.04
-2710.45
-2710.87
-2711.28
-2711.69
-2712.1
-2712.52
-2712.93
-2713.35
-2713.76
-2714.17
-2714.58
-2715
-2715.41
-2715.83
-2716.24
-2716.65
-2717.07
-2717.48
-2717.9
-2718.31
-2718.73
-2719.14
-2719.55
-2719.97
-2720.38
-2720.8
-2721.21
-2721.62
-2722.04
-2722.46
-2722.87
-2723.28
-2723.7
-2724.11
-2724.53
-2724.94
-2725.36
-2725.77
-2726.19
-2726.6
-2727.02
-2727.43
-2727.85
-2728.26
-2728.68
-2729.1
-2729.51
-2729.93
-2730.34
-2730.75
-2731.17
-2731.59
-2732.01
-2732.42
-2732.83
-2733.25
-2733.67
-2734.09
-2734.5
-2734.92
-2735.33
-2735.75
-2736.17
-2736.58
-2737
-2737.41
-2737.83
-2738.25
-2738.67
-2739.08
-2739.5
-2739.91
-2740.33
-2740.75
-2741.17
-2741.58
-2742
-2742.42
-2742.83
-2743.25
-2743.67
-2744.09
-2744.5
-2744.92
-2745.34
-2745.76
-2746.18
-2746.59
-2747.01
-2747.43
-2747.84
-2748.26
-2748.68
-2749.1
-2749.52
-2749.93
-2750.35
-2750.77
-2751.19
-2751.61
-2752.02
-2752.44
-2752.86
-2753.28
-2753.7
-2754.12
-2754.54
-2754.96
-2755.38
-2755.79
-2756.21
-2756.63
-2757.05
-2757.47
-2757.89
-2758.31
-2758.73
-2759.14
-2759.56
-2759.98
-2760.41
-2760.82
-2761.24
-2761.66
-2762.08
-2762.5
-2762.92
-2763.34
-2763.76
-2764.18
-2764.6
-2765.02
-2765.44
-2765.86
-2766.28
-2766.7
-2767.12
-2767.54
-2767.96
-2768.38
-2768.8
-2769.22
-2769.64
-2770.06
-2770.48
-2770.9
-2771.32
-2771.74
-2772.16
-2772.58
-2773
-2773.42
-2773.85
-2774.27
-2774.69
-2775.11
-2775.53
-2775.95
-2776.37
-2776.79
-2777.21
-2777.63
-2778.05
-2778.48
-2778.9
-2779.32
-2779.74
-2780.16
-2780.58
-2781
-2781.43
-2781.85
-2782.27
-2782.69
-2783.11
-2783.53
-2783.96
-2784.38
-2784.8
-2785.22
-2785.64
-2786.07
-2786.49
-2786.91
-2787.33
-2787.76
-2788.18
-2788.6
-2789.02
-2789.45
-2789.87
-2790.29
-2790.71
-2791.13
-2791.56
-2791.98
-2792.4
-2792.83
-2793.25
-2793.67
-2794.09
-2794.52
-2794.94
-2795.36
-2795.78
-2796.21
-2796.63
-2797.05
-2797.48
-2797.9
-2798.32
-2798.75
-2799.17
-2799.59
-2800.02
-2800.44
-2800.86
-2801.29
-2801.71
-2802.13
-2802.56
-2802.98
-2803.4
-2803.83
-2804.25
-2804.68
-2805.1
-2805.52
-2805.95
-2806.37
-2806.8
-2807.22
-2807.64
-2808.07
-2808.49
-2808.92
-2809.34
-2809.77
-2810.19
-2810.61
-2811.04
-2811.46
-2811.89
-2812.31
-2812.73
-2813.16
-2813.58
-2814.01
-2814.44
-2814.86
-2815.28
-2815.71
-2816.13
-2816.56
-2816.98
-2817.41
-2817.83
-2818.26
-2818.68
-2819.11
-2819.53
-2819.96
-2820.38
-2820.81
-2821.23
-2821.66
-2822.09
-2822.51
-2822.94
-2823.36
-2823.79
-2824.21
-2824.64
-2825.06
-2825.49
-2825.92
-2826.34
-2826.77
-2827.19
-2827.62
-2828.04
-2828.47
-2828.9
-2829.32
-2829.75
-2830.17
-2830.6
-2831.03
-2831.45
-2831.88
-2832.31
-2832.73
-2833.16
-2833.58
-2834.01
-2834.44
-2834.86
-2835.29
-2835.72
-2836.14
-2836.57
-2837
-2837.42
-2837.85
-2838.28
-2838.7
-2839.13
-2839.56
-2839.99
-2840.41
-2840.84
-2841.27
-2841.69
-2842.12
-2842.55
-2842.98
-2843.4
-2843.83
-2844.26
-2844.69
-2845.11
-2845.54
-2845.97
-2846.4
-2846.82
-2847.25
-2847.68
-2848.11
-2848.53
-2848.96
-2849.39
-2849.82
-2850.24
-2850.67
-2851.1
-2851.53
-2851.96
-2852.39
-2852.81
-2853.24
-2853.67
-2854.1
-2854.53
-2854.96
-2855.38
-2855.81
-2856.24
-2856.67
-2857.1
-2857.53
-2857.96
-2858.38
-2858.81
-2859.24
-2859.67
-2860.1
-2860.53
-2860.96
-2861.38
-2861.81
-2862.24
-2862.67
-2863.1
-2863.53
-2863.96
-2864.39
-2864.82
-2865.25
-2865.68
-2866.11
-2866.54
-2866.97
-2867.4
-2867.83
-2868.26
-2868.68
-2869.11
-2869.54
-2869.97
-2870.4
-2870.83
-2871.26
-2871.69
-2872.12
-2872.55
-2872.98
-2873.41
-2873.84
-2874.27
-2874.71
-2875.14
-2875.57
-2876
-2876.43
-2876.86
-2877.29
-2877.72
-2878.15
-2878.58
-2879.01
-2879.44
-2879.87
-2880.3
-2880.73
-2881.17
-2881.6
-2882.03
-2882.46
-2882.89
-2883.32
-2883.75
-2884.18
-2884.61
-2885.04
-2885.48
-2885.91
-2886.34
-2886.77
-2887.2
-2887.63
-2888.07
-2888.5
-2888.93
-2889.36
-2889.79
-2890.22
-2890.66
-2891.09
-2891.52
-2891.95
-2892.38
-2892.82
-2893.25
-2893.68
-2894.11
-2894.54
-2894.98
-2895.41
-2895.84
-2896.27
-2896.71
-2897.14
-2897.57
-2898
-2898.44
-2898.87
-2899.3
-2899.74
-2900.17
-2900.6
-2901.03
-2901.47
-2901.9
-2902.33
-2902.77
-2903.2
-2903.63
-2904.07
-2904.5
-2904.93
-2905.37
-2905.8
-2906.23
-2906.67
-2907.1
-2907.53
-2907.97
-2908.4
-2908.83
-2909.27
-2909.7
-2910.14
-2910.57
-2911
-2911.44
-2911.87
-2912.31
-2912.74
-2913.17
-2913.61
-2914.04
-2914.48
-2914.91
-2915.35
-2915.78
-2916.22
-2916.65
-2917.09
-2917.52
-2917.95
-2918.39
-2918.82
-2919.26
-2919.69
-2920.13
-2920.56
-2921
-2921.43
-2921.87
-2922.3
-2922.74
-2923.18
-2923.61
-2924.05
-2924.48
-2924.92
-2925.35
-2925.79
-2926.22
-2926.66
-2927.09
-2927.53
-2927.97
-2928.4
-2928.84
-2929.27
-2929.71
-2930.15
-2930.58
-2931.02
-2931.46
-2931.89
-2932.33
-2932.76
-2933.2
-2933.64
-2934.07
-2934.51
-2934.95
-2935.38
-2935.82
-2936.26
-2936.69
-2937.13
-2937.57
-2938
-2938.44
-2938.88
-2939.32
-2939.75
-2940.19
-2940.63
-2941.06
-2941.5
-2941.94
-2942.38
-2942.81
-2943.25
-2943.69
-2944.13
-2944.57
-2945
-2945.44
-2945.88
-2946.32
-2946.75
-2947.19
-2947.63
-2948.07
-2948.51
-2948.94
-2949.38
-2949.82
-2950.26
-2950.7
-2951.14
-2951.57
-2952.01
-2952.45
-2952.89
-2953.33
-2953.77
-2954.21
-2954.65
-2955.09
-2955.52
-2955.96
-2956.4
-2956.84
-2957.28
-2957.72
-2958.16
-2958.6
-2959.04
-2959.48
-2959.92
-2960.36
-2960.8
-2961.24
-2961.68
-2962.12
-2962.55
-2963
-2963.44
-2963.88
-2964.32
-2964.75
-2965.19
-2965.64
-2966.08
-2966.52
-2966.96
-2967.4
-2967.84
-2968.28
-2968.72
-2969.16
-2969.6
-2970.04
-2970.48
-2970.92
-2971.36
-2971.8
-2972.24
-2972.69
-2973.13
-2973.57
-2974.01
-2974.45
-2974.89
-2975.33
-2975.77
-2976.22
-2976.66
-2977.1
-2977.54
-2977.98
-2978.42
-2978.87
-2979.31
-2979.75
-2980.19
-2980.63
-2981.07
-2981.52
-2981.96
-2982.4
-2982.84
-2983.29
-2983.73
-2984.17
-2984.61
-2985.06
-2985.5
-2985.94
-2986.38
-2986.83
-2987.27
-2987.71
-2988.15
-2988.6
-2989.04
-2989.48
-2989.93
-2990.37
-2990.81
-2991.26
-2991.7
-2992.14
-2992.59
-2993.03
-2993.47
-2993.92
-2994.36
-2994.81
-2995.25
-2995.69
-2996.14
-2996.58
-2997.02
-2997.47
-2997.91
-2998.36
-2998.8
-2999.24
-2999.69
-3000.13
-3000.58
-3001.02
-3001.47
-3001.91
-3002.36
-3002.8
-3003.25
-3003.69
-3004.14
-3004.58
-3005.03
-3005.47
-3005.92
-3006.36
-3006.81
-3007.25
-3007.7
-3008.14
-3008.59
-3009.03
-3009.48
-3009.92
-3010.37
-3010.81
-3011.26
-3011.71
-3012.15
-3012.6
-3013.04
-3013.49
-3013.94
-3014.38
-3014.83
-3015.27
-3015.72
-3016.17
-3016.61
-3017.06
-3017.51
-3017.95
-3018.4
-3018.85
-3019.29
-3019.74
-3020.19
-3020.63
-3021.08
-3021.53
-3021.97
-3022.42
-3022.87
-3023.31
-3023.76
-3024.21
-3024.66
-3025.1
-3025.55
-3026
-3026.45
-3026.89
-3027.34
-3027.79
-3028.24
-3028.69
-3029.13
-3029.58
-3030.03
-3030.48
-3030.93
-3031.37
-3031.82
-3032.27
-3032.72
-3033.17
-3033.62
-3034.06
-3034.51
-3034.96
-3035.41
-3035.86
-3036.31
-3036.76
-3037.2
-3037.65
-3038.1
-3038.55
-3039
-3039.45
-3039.9
-3040.35
-3040.8
-3041.25
-3041.7
-3042.15
-3042.59
-3043.04
-3043.49
-3043.94
-3044.39
-3044.84
-3045.29
-3045.74
-3046.19
-3046.64
-3047.09
-3047.54
-3047.99
-3048.44
-3048.89
-3049.34
-3049.79
-3050.24
-3050.7
-3051.15
-3051.6
-3052.05
-3052.5
-3052.95
-3053.4
-3053.85
-3054.3
-3054.75
-3055.2
-3055.65
-3056.1
-3056.56
-3057.01
-3057.46
-3057.91
-3058.36
-3058.81
-3059.26
-3059.72
-3060.17
-3060.62
-3061.07
-3061.52
-3061.97
-3062.43
-3062.88
-3063.33
-3063.78
-3064.23
-3064.69
-3065.14
-3065.59
-3066.04
-3066.49
-3066.95
-3067.4
-3067.85
-3068.3
-3068.76
-3069.21
-3069.66
-3070.11
-3070.57
-3071.02
-3071.47
-3071.93
-3072.38
-3072.83
-3073.28
-3073.74
-3074.19
-3074.64
-3075.1
-3075.55
-3076
-3076.46
-3076.91
-3077.36
-3077.82
-3078.27
-3078.73
-3079.18
-3079.63
-3080.09
-3080.54
-3080.99
-3081.45
-3081.9
-3082.36
-3082.81
-3083.26
-3083.72
-3084.17
-3084.63
-3085.08
-3085.54
-3085.99
-3086.45
-3086.9
-3087.35
-3087.81
-3088.26
-3088.72
-3089.17
-3089.63
-3090.08
-3090.54
-3090.99
-3091.45
-3091.9
-3092.36
-3092.81
-3093.27
-3093.73
-3094.18
-3094.64
-3095.09
-3095.55
-3096
-3096.46
-3096.91
-3097.37
-3097.82
-3098.28
-3098.74
-3099.19
-3099.65
-3100.1
-3100.56
-3101.02
-3101.47
-3101.93
-3102.39
-3102.84
-3103.3
-3103.75
-3104.21
-3104.67
-3105.12
-3105.58
-3106.04
-3106.49
-3106.95
-3107.41
-3107.86
-3108.32
-3108.78
-3109.24
-3109.69
-3110.15
-3110.61
-3111.06
-3111.52
-3111.98
-3112.44
-3112.89
-3113.35
-3113.81
-3114.27
-3114.72
-3115.18
-3115.64
-3116.1
-3116.55
-3117.01
-3117.47
-3117.93
-3118.39
-3118.84
-3119.3
-3119.76
-3120.22
-3120.68
-3121.13
-3121.59
-3122.05
-3122.51
-3122.97
-3123.43
-3123.89
-3124.34
-3124.8
-3125.26
-3125.72
-3126.18
-3126.64
-3127.1
-3127.56
-3128.01
-3128.47
-3128.93
-3129.39
-3129.85
-3130.31
-3130.77
-3131.23
-3131.69
-3132.15
-3132.61
-3133.07
-3133.53
-3133.99
-3134.45
-3134.91
-3135.37
-3135.83
-3136.29
-3136.75
-3137.21
-3137.67
-3138.13
-3138.59
-3139.05
-3139.51
-3139.97
-3140.43
-3140.89
-3141.35
-3141.81
-3142.27
-3142.73
-3143.19
-3143.65
-3144.11
-3144.57
-3145.03
-3145.49
-3145.96
-3146.42
-3146.88
-3147.34
-3147.8
-3148.26
-3148.72
-3149.18
-3149.64
-3150.11
-3150.57
-3151.03
-3151.49
-3151.95
-3152.41
-3152.88
-3153.34
-3153.8
-3154.26
-3154.72
-3155.19
-3155.65
-3156.11
-3156.57
-3157.03
-3157.5
-3157.96
-3158.42
-3158.88
-3159.35
-3159.81
-3160.27
-3160.73
-3161.19
-3161.66
-3162.12
-3162.58
-3163.05
-3163.51
-3163.97
-3164.43
-3164.9
-3165.36
-3165.82
-3166.29
-3166.75
-3167.21
-3167.68
-3168.14
-3168.6
-3169.07
-3169.53
-3169.99
-3170.46
-3170.92
-3171.39
-3171.85
-3172.31
-3172.78
-3173.24
-3173.71
-3174.17
-3174.63
-3175.1
-3175.56
-3176.03
-3176.49
-3176.95
-3177.42
-3177.88
-3178.35
-3178.81
-3179.28
-3179.74
-3180.21
-3180.67
-3181.14
-3181.6
-3182.07
-3182.53
-3183
-3183.46
-3183.93
-3184.39
-3184.86
-3185.32
-3185.79
-3186.25
-3186.72
-3187.18
-3187.65
-3188.12
-3188.58
-3189.05
-3189.51
-3189.98
-3190.44
-3190.91
-3191.38
-3191.84
-3192.31
-3192.77
-3193.24
-3193.71
-3194.17
-3194.64
-3195.11
-3195.57
-3196.04
-3196.51
-3196.97
-3197.44
-3197.91
-3198.37
-3198.84
-3199.31
-3199.77
-3200.24
-3200.71
-3201.17
-3201.64
-3202.11
-3202.58
-3203.04
-3203.51
-3203.98
-3204.45
-3204.91
-3205.38
-3205.85
-3206.32
-3206.78
-3207.25
-3207.72
-3208.19
-3208.66
-3209.13
-3209.59
-3210.06
-3210.53
-3211
-3211.47
-3211.93
-3212.4
-3212.87
-3213.34
-3213.81
-3214.28
-3214.75
-3215.22
-3215.68
-3216.15
-3216.62
-3217.09
-3217.56
-3218.03
-3218.5
-3218.97
-3219.44
-3219.91
-3220.38
-3220.85
-3221.31
-3221.78
-3222.25
-3222.72
-3223.19
-3223.66
-3224.13
-3224.6
-3225.07
-3225.54
-3226.01
-3226.48
-3226.95
-3227.42
-3227.89
-3228.36
-3228.83
-3229.31
-3229.78
-3230.25
-3230.72
-3231.19
-3231.66
-3232.13
-3232.6
-3233.07
-3233.54
-3234.01
-3234.48
-3234.96
-3235.43
-3235.9
-3236.37
-3236.84
-3237.31
-3237.78
-3238.26
-3238.73
-3239.2
-3239.67
-3240.14
-3240.61
-3241.09
-3241.56
-3242.03
-3242.5
-3242.97
-3243.45
-3243.92
-3244.39
-3244.86
-3245.33
-3245.81
-3246.28
-3246.75
-3247.22
-3247.7
-3248.17
-3248.64
-3249.12
-3249.59
-3250.06
-3250.53
-3251.01
-3251.48
-3251.95
-3252.43
-3252.9
-3253.37
-3253.85
-3254.32
-3254.79
-3255.27
-3255.74
-3256.21
-3256.69
-3257.16
-3257.64
-3258.11
-3258.58
-3259.06
-3259.53
-3260.01
-3260.48
-3260.95
-3261.43
-3261.9
-3262.38
-3262.85
-3263.33
-3263.8
-3264.27
-3264.75
-3265.22
-3265.7
-3266.17
-3266.65
-3267.12
-3267.6
-3268.07
-3268.55
-3269.02
-3269.5
-3269.97
-3270.45
-3270.92
-3271.4
-3271.88
-3272.35
-3272.83
-3273.3
-3273.78
-3274.25
-3274.73
-3275.21
-3275.68
-3276.16
-3276.63
-3277.11
-3277.59
-3278.06
-3278.54
-3279.01
-3279.49
-3279.97
-3280.44
-3280.92
-3281.4
-3281.87
-3282.35
-3282.83
-3283.3
-3283.78
-3284.26
-3284.73
-3285.21
-3285.69
-3286.17
-3286.64
-3287.12
-3287.6
-3288.07
-3288.55
-3289.03
-3289.51
-3289.98
-3290.46
-3290.94
-3291.42
-3291.89
-3292.37
-3292.85
-3293.33
-3293.81
-3294.28
-3294.76
-3295.24
-3295.72
-3296.2
-3296.68
-3297.15
-3297.63
-3298.11
-3298.59
-3299.07
-3299.55
-3300.03
-3300.5
-3300.98
-3301.46
-3301.94
-3302.42
-3302.9
-3303.38
-3303.86
-3304.34
-3304.82
-3305.29
-3305.77
-3306.25
-3306.73
-3307.21
-3307.69
-3308.17
-3308.65
-3309.13
-3309.61
-3310.09
-3310.57
-3311.05
-3311.53
-3312.01
-3312.49
-3312.97
-3313.45
-3313.93
-3314.41
-3314.89
-3315.37
-3315.85
-3316.33
-3316.82
-3317.3
-3317.78
-3318.26
-3318.74
-3319.22
-3319.7
-3320.18
-3320.66