/*--------------------------------*- C++ -*----------------------------------*\
  =========                 |
  \\      /  F ield         | OpenFOAM: The Open Source CFD Toolbox
   \\    /   O peration     | Website:  https://openfoam.org
    \\  /    A nd           | Version:  9
     \\/     M anipulation  |
\*---------------------------------------------------------------------------*/
FoamFile
{
    format      ascii;
    class       volScalarField;
    location    "0.05";
    object      p;
}
// * * * * * * * * * * * * * * * * * * * * * * * * * * * * * * * * * * * * * //

dimensions      [1 -1 -2 0 0 0 0];

internalField   nonuniform List<scalar> 
10000
(
7841.75
7841.72
7841.66
7841.61
7841.57
7841.53
7841.49
7841.45
7841.41
7841.37
7841.34
7841.3
7841.27
7841.23
7841.2
7841.17
7841.14
7841.11
7841.08
7841.05
7841.02
7841
7840.97
7840.95
7840.92
7840.9
7840.88
7840.86
7840.84
7840.82
7840.8
7840.78
7840.77
7840.75
7840.73
7840.72
7840.71
7840.7
7840.68
7840.67
7840.67
7840.66
7840.65
7840.64
7840.64
7840.63
7840.63
7840.63
7840.62
7840.62
7840.62
7840.62
7840.63
7840.63
7840.63
7840.64
7840.64
7840.65
7840.66
7840.67
7840.68
7840.69
7840.7
7840.71
7840.72
7840.74
7840.75
7840.77
7840.79
7840.8
7840.82
7840.84
7840.86
7840.89
7840.91
7840.93
7840.96
7840.99
7841.01
7841.04
7841.07
7841.1
7841.13
7841.16
7841.2
7841.23
7841.27
7841.3
7841.34
7841.38
7841.42
7841.46
7841.5
7841.54
7841.58
7841.63
7841.67
7841.72
7841.77
7841.82
7841.87
7841.92
7841.97
7842.02
7842.08
7842.13
7842.19
7842.24
7842.3
7842.36
7842.42
7842.48
7842.55
7842.61
7842.67
7842.74
7842.81
7842.88
7842.95
7843.02
7843.09
7843.16
7843.23
7843.31
7843.38
7843.46
7843.54
7843.62
7843.7
7843.78
7843.86
7843.95
7844.03
7844.12
7844.21
7844.3
7844.39
7844.48
7844.57
7844.66
7844.76
7844.85
7844.95
7845.05
7845.15
7845.25
7845.35
7845.45
7845.56
7845.66
7845.77
7845.88
7845.99
7846.1
7846.21
7846.32
7846.44
7846.55
7846.67
7846.79
7846.91
7847.03
7847.15
7847.27
7847.4
7847.52
7847.65
7847.78
7847.91
7848.04
7848.17
7848.3
7848.44
7848.57
7848.71
7848.85
7848.99
7849.13
7849.27
7849.42
7849.56
7849.71
7849.86
7850.01
7850.16
7850.31
7850.46
7850.62
7850.77
7850.93
7851.09
7851.25
7851.41
7851.57
7851.74
7851.9
7852.07
7852.24
7852.41
7852.58
7852.75
7852.93
7853.1
7853.28
7853.46
7853.64
7853.82
7854
7854.19
7854.37
7854.56
7854.75
7854.94
7855.13
7855.32
7855.51
7855.71
7855.91
7856.1
7856.3
7856.51
7856.71
7856.91
7857.12
7857.33
7857.53
7857.74
7857.96
7858.17
7858.38
7858.6
7858.82
7859.04
7859.26
7859.48
7859.7
7859.93
7860.15
7860.38
7860.61
7860.84
7861.07
7861.31
7861.54
7861.78
7862.02
7862.26
7862.5
7862.74
7862.99
7863.23
7863.48
7863.73
7863.98
7864.23
7864.49
7864.74
7865
7865.25
7865.51
7865.77
7866.04
7866.3
7866.57
7866.83
7867.1
7867.37
7867.64
7867.92
7868.19
7868.47
7868.74
7869.02
7869.3
7869.59
7869.87
7870.15
7870.44
7870.73
7871.02
7871.31
7871.6
7871.89
7872.19
7872.49
7872.78
7873.08
7873.39
7873.69
7873.99
7874.3
7874.6
7874.91
7875.22
7875.53
7875.85
7876.16
7876.48
7876.79
7877.11
7877.43
7877.75
7878.07
7878.4
7878.72
7879.05
7879.38
7879.71
7880.04
7880.37
7880.71
7881.04
7881.38
7881.71
7882.05
7882.39
7882.74
7883.08
7883.42
7883.77
7884.12
7884.46
7884.81
7885.16
7885.52
7885.87
7886.22
7886.58
7886.94
7887.3
7887.66
7888.02
7888.38
7888.74
7889.11
7889.47
7889.84
7890.21
7890.58
7890.95
7891.32
7891.69
7892.07
7892.44
7892.82
7893.2
7893.58
7893.96
7894.34
7894.72
7895.1
7895.49
7895.87
7896.26
7896.64
7897.03
7897.42
7897.81
7898.2
7898.6
7898.99
7899.39
7899.78
7900.18
7900.58
7900.97
7901.37
7901.77
7902.18
7902.58
7902.98
7903.39
7903.79
7904.2
7904.6
7905.01
7905.42
7905.83
7906.24
7906.65
7907.06
7907.48
7907.89
7908.31
7908.72
7909.14
7909.55
7909.97
7910.39
7910.81
7911.23
7911.65
7912.07
7912.49
7912.92
7913.34
7913.77
7914.19
7914.62
7915.04
7915.47
7915.9
7916.33
7916.76
7917.19
7917.62
7918.05
7918.48
7918.91
7919.35
7919.78
7920.21
7920.65
7921.08
7921.52
7921.96
7922.39
7922.83
7923.27
7923.71
7924.15
7924.59
7925.03
7925.47
7925.91
7926.35
7926.79
7927.23
7927.68
7928.12
7928.56
7929.01
7929.45
7929.9
7930.35
7930.79
7931.24
7931.68
7932.13
7932.58
7933.03
7933.48
7933.93
7934.38
7934.83
7935.28
7935.73
7936.18
7936.63
7937.08
7937.53
7937.98
7938.44
7938.89
7939.34
7939.8
7940.25
7940.7
7941.16
7941.61
7942.07
7942.52
7942.98
7943.43
7943.89
7944.35
7944.8
7945.26
7945.72
7946.18
7946.63
7947.09
7947.55
7948.01
7948.47
7948.93
7949.39
7949.84
7950.3
7950.76
7951.22
7951.68
7952.15
7952.61
7953.07
7953.53
7953.99
7954.45
7954.91
7955.37
7955.84
7956.3
7956.76
7957.22
7957.69
7958.15
7958.61
7959.08
7959.54
7960
7960.47
7960.93
7961.4
7961.86
7962.32
7962.79
7963.25
7963.72
7964.18
7964.65
7965.11
7965.58
7966.05
7966.51
7966.98
7967.44
7967.91
7968.38
7968.84
7969.31
7969.78
7970.24
7970.71
7971.18
7971.64
7972.11
7972.58
7973.05
7973.51
7973.98
7974.45
7974.92
7975.38
7975.85
7976.32
7976.79
7977.26
7977.73
7978.2
7978.66
7979.13
7979.6
7980.07
7980.54
7981.01
7981.48
7981.95
7982.42
7982.89
7983.36
7983.83
7984.3
7984.77
7985.24
7985.71
7986.18
7986.65
7987.12
7987.59
7988.06
7988.53
7989
7989.47
7989.95
7990.42
7990.89
7991.36
7991.83
7992.3
7992.77
7993.25
7993.72
7994.19
7994.66
7995.13
7995.61
7996.08
7996.55
7997.02
7997.49
7997.97
7998.44
7998.91
7999.38
7999.86
8000.33
8000.8
8001.28
8001.75
8002.22
8002.7
8003.17
8003.64
8004.12
8004.59
8005.06
8005.54
8006.01
8006.48
8006.96
8007.43
8007.91
8008.38
8008.85
8009.33
8009.8
8010.28
8010.75
8011.23
8011.7
8012.18
8012.65
8013.12
8013.6
8014.07
8014.55
8015.02
8015.5
8015.97
8016.45
8016.93
8017.4
8017.88
8018.35
8018.83
8019.3
8019.78
8020.25
8020.73
8021.21
8021.68
8022.16
8022.63
8023.11
8023.59
8024.06
8024.54
8025.02
8025.49
8025.97
8026.45
8026.92
8027.4
8027.88
8028.35
8028.83
8029.31
8029.78
8030.26
8030.74
8031.22
8031.69
8032.17
8032.65
8033.13
8033.6
8034.08
8034.56
8035.04
8035.51
8035.99
8036.47
8036.95
8037.43
8037.91
8038.38
8038.86
8039.34
8039.82
8040.3
8040.78
8041.25
8041.73
8042.21
8042.69
8043.17
8043.65
8044.13
8044.61
8045.09
8045.56
8046.04
8046.52
8047
8047.48
8047.96
8048.44
8048.92
8049.4
8049.88
8050.36
8050.84
8051.32
8051.8
8052.28
8052.76
8053.24
8053.72
8054.2
8054.68
8055.16
8055.64
8056.12
8056.6
8057.08
8057.56
8058.04
8058.53
8059.01
8059.49
8059.97
8060.45
8060.93
8061.41
8061.89
8062.37
8062.86
8063.34
8063.82
8064.3
8064.78
8065.26
8065.74
8066.23
8066.71
8067.19
8067.67
8068.15
8068.64
8069.12
8069.6
8070.08
8070.56
8071.05
8071.53
8072.01
8072.49
8072.98
8073.46
8073.94
8074.43
8074.91
8075.39
8075.87
8076.36
8076.84
8077.32
8077.81
8078.29
8078.77
8079.26
8079.74
8080.22
8080.71
8081.19
8081.67
8082.16
8082.64
8083.12
8083.61
8084.09
8084.58
8085.06
8085.54
8086.03
8086.51
8087
8087.48
8087.96
8088.45
8088.93
8089.42
8089.9
8090.39
8090.87
8091.36
8091.84
8092.33
8092.81
8093.3
8093.78
8094.27
8094.75
8095.24
8095.72
8096.21
8096.69
8097.18
8097.66
8098.15
8098.63
8099.12
8099.61
8100.09
8100.58
8101.06
8101.55
8102.03
8102.52
8103.01
8103.49
8103.98
8104.46
8104.95
8105.44
8105.92
8106.41
8106.9
8107.38
8107.87
8108.36
8108.84
8109.33
8109.82
8110.3
8110.79
8111.28
8111.76
8112.25
8112.74
8113.23
8113.71
8114.2
8114.69
8115.17
8115.66
8116.15
8116.64
8117.13
8117.61
8118.1
8118.59
8119.08
8119.56
8120.05
8120.54
8121.03
8121.52
8122
8122.49
8122.98
8123.47
8123.96
8124.45
8124.93
8125.42
8125.91
8126.4
8126.89
8127.38
8127.87
8128.35
8128.84
8129.33
8129.82
8130.31
8130.8
8131.29
8131.78
8132.27
8132.76
8133.25
8133.73
8134.22
8134.71
8135.2
8135.69
8136.18
8136.67
8137.16
8137.65
8138.14
8138.63
8139.12
8139.61
8140.1
8140.59
8141.08
8141.57
8142.06
8142.55
8143.04
8143.53
8144.02
8144.51
8145
8145.5
8145.99
8146.48
8146.97
8147.46
8147.95
8148.44
8148.93
8149.42
8149.91
8150.4
8150.9
8151.39
8151.88
8152.37
8152.86
8153.35
8153.84
8154.34
8154.83
8155.32
8155.81
8156.3
8156.79
8157.29
8157.78
8158.27
8158.76
8159.25
8159.75
8160.24
8160.73
8161.22
8161.71
8162.21
8162.7
8163.19
8163.68
8164.18
8164.67
8165.16
8165.65
8166.15
8166.64
8167.13
8167.63
8168.12
8168.61
8169.11
8169.6
8170.09
8170.58
8171.08
8171.57
8172.06
8172.56
8173.05
8173.54
8174.04
8174.53
8175.03
8175.52
8176.01
8176.51
8177
8177.49
8177.99
8178.48
8178.98
8179.47
8179.96
8180.46
8180.95
8181.45
8181.94
8182.44
8182.93
8183.43
8183.92
8184.41
8184.91
8185.4
8185.9
8186.39
8186.89
8187.38
8187.88
8188.37
8188.87
8189.36
8189.86
8190.35
8190.85
8191.34
8191.84
8192.33
8192.83
8193.33
8193.82
8194.32
8194.81
8195.31
8195.8
8196.3
8196.79
8197.29
8197.79
8198.28
8198.78
8199.27
8199.77
8200.27
8200.76
8201.26
8201.76
8202.25
8202.75
8203.24
8203.74
8204.24
8204.73
8205.23
8205.73
8206.22
8206.72
8207.22
8207.71
8208.21
8208.71
8209.21
8209.7
8210.2
8210.7
8211.19
8211.69
8212.19
8212.69
8213.18
8213.68
8214.18
8214.68
8215.17
8215.67
8216.17
8216.67
8217.16
8217.66
8218.16
8218.66
8219.15
8219.65
8220.15
8220.65
8221.15
8221.65
8222.14
8222.64
8223.14
8223.64
8224.14
8224.64
8225.13
8225.63
8226.13
8226.63
8227.13
8227.63
8228.13
8228.62
8229.12
8229.62
8230.12
8230.62
8231.12
8231.62
8232.12
8232.62
8233.12
8233.62
8234.11
8234.61
8235.11
8235.61
8236.11
8236.61
8237.11
8237.61
8238.11
8238.61
8239.11
8239.61
8240.11
8240.61
8241.11
8241.61
8242.11
8242.61
8243.11
8243.61
8244.11
8244.61
8245.11
8245.61
8246.11
8246.61
8247.11
8247.61
8248.12
8248.62
8249.12
8249.62
8250.12
8250.62
8251.12
8251.62
8252.12
8252.62
8253.12
8253.63
8254.13
8254.63
8255.13
8255.63
8256.13
8256.63
8257.13
8257.64
8258.14
8258.64
8259.14
8259.64
8260.14
8260.65
8261.15
8261.65
8262.15
8262.65
8263.16
8263.66
8264.16
8264.66
8265.16
8265.67
8266.17
8266.67
8267.17
8267.68
8268.18
8268.68
8269.18
8269.69
8270.19
8270.69
8271.19
8271.7
8272.2
8272.7
8273.2
8273.71
8274.21
8274.71
8275.22
8275.72
8276.22
8276.73
8277.23
8277.73
8278.24
8278.74
8279.24
8279.75
8280.25
8280.75
8281.26
8281.76
8282.26
8282.77
8283.27
8283.78
8284.28
8284.78
8285.29
8285.79
8286.29
8286.8
8287.3
8287.81
8288.31
8288.82
8289.32
8289.82
8290.33
8290.83
8291.34
8291.84
8292.35
8292.85
8293.36
8293.86
8294.37
8294.87
8295.38
8295.88
8296.38
8296.89
8297.39
8297.9
8298.41
8298.91
8299.42
8299.92
8300.43
8300.93
8301.44
8301.94
8302.45
8302.95
8303.46
8303.96
8304.47
8304.98
8305.48
8305.99
8306.49
8307
8307.5
8308.01
8308.52
8309.02
8309.53
8310.03
8310.54
8311.05
8311.55
8312.06
8312.57
8313.07
8313.58
8314.08
8314.59
8315.1
8315.6
8316.11
8316.62
8317.12
8317.63
8318.14
8318.64
8319.15
8319.66
8320.16
8320.67
8321.18
8321.69
8322.19
8322.7
8323.21
8323.71
8324.22
8324.73
8325.24
8325.74
8326.25
8326.76
8327.27
8327.77
8328.28
8328.79
8329.3
8329.81
8330.31
8330.82
8331.33
8331.84
8332.34
8332.85
8333.36
8333.87
8334.38
8334.89
8335.39
8335.9
8336.41
8336.92
8337.43
8337.94
8338.44
8338.95
8339.46
8339.97
8340.48
8340.99
8341.5
8342
8342.51
8343.02
8343.53
8344.04
8344.55
8345.06
8345.57
8346.08
8346.59
8347.09
8347.6
8348.11
8348.62
8349.13
8349.64
8350.15
8350.66
8351.17
8351.68
8352.19
8352.7
8353.21
8353.72
8354.23
8354.74
8355.25
8355.76
8356.27
8356.78
8357.29
8357.8
8358.31
8358.82
8359.33
8359.84
8360.35
8360.86
8361.37
8361.88
8362.39
8362.9
8363.41
8363.92
8364.43
8364.94
8365.46
8365.97
8366.48
8366.99
8367.5
8368.01
8368.52
8369.03
8369.54
8370.05
8370.57
8371.08
8371.59
8372.1
8372.61
8373.12
8373.63
8374.14
8374.66
8375.17
8375.68
8376.19
8376.7
8377.21
8377.73
8378.24
8378.75
8379.26
8379.77
8380.29
8380.8
8381.31
8381.82
8382.33
8382.85
8383.36
8383.87
8384.38
8384.9
8385.41
8385.92
8386.43
8386.95
8387.46
8387.97
8388.48
8389
8389.51
8390.02
8390.53
8391.05
8391.56
8392.07
8392.59
8393.1
8393.61
8394.13
8394.64
8395.15
8395.67
8396.18
8396.69
8397.21
8397.72
8398.23
8398.75
8399.26
8399.77
8400.29
8400.8
8401.31
8401.83
8402.34
8402.86
8403.37
8403.88
8404.4
8404.91
8405.43
8405.94
8406.45
8406.97
8407.48
8408
8408.51
8409.03
8409.54
8410.05
8410.57
8411.08
8411.6
8412.11
8412.63
8413.14
8413.66
8414.17
8414.69
8415.2
8415.72
8416.23
8416.75
8417.26
8417.78
8418.29
8418.81
8419.32
8419.84
8420.35
8420.87
8421.38
8421.9
8422.41
8422.93
8423.45
8423.96
8424.48
8424.99
8425.51
8426.02
8426.54
8427.06
8427.57
8428.09
8428.6
8429.12
8429.64
8430.15
8430.67
8431.18
8431.7
8432.22
8432.73
8433.25
8433.77
8434.28
8434.8
8435.32
8435.83
8436.35
8436.86
8437.38
8437.9
8438.42
8438.93
8439.45
8439.97
8440.48
8441
8441.52
8442.03
8442.55
8443.07
8443.59
8444.1
8444.62
8445.14
8445.65
8446.17
8446.69
8447.21
8447.72
8448.24
8448.76
8449.28
8449.8
8450.31
8450.83
8451.35
8451.87
8452.38
8452.9
8453.42
8453.94
8454.46
8454.98
8455.49
8456.01
8456.53
8457.05
8457.57
8458.09
8458.6
8459.12
8459.64
8460.16
8460.68
8461.2
8461.72
8462.23
8462.75
8463.27
8463.79
8464.31
8464.83
8465.35
8465.87
8466.39
8466.9
8467.42
8467.94
8468.46
8468.98
8469.5
8470.02
8470.54
8471.06
8471.58
8472.1
8472.62
8473.14
8473.66
8474.18
8474.7
8475.22
8475.74
8476.26
8476.78
8477.3
8477.82
8478.34
8478.86
8479.38
8479.9
8480.42
8480.94
8481.46
8481.98
8482.5
8483.02
8483.54
8484.06
8484.58
8485.1
8485.62
8486.14
8486.66
8487.18
8487.7
8488.23
8488.75
8489.27
8489.79
8490.31
8490.83
8491.35
8491.87
8492.39
8492.92
8493.44
8493.96
8494.48
8495
8495.52
8496.04
8496.57
8497.09
8497.61
8498.13
8498.65
8499.17
8499.7
8500.22
8500.74
8501.26
8501.78
8502.3
8502.83
8503.35
8503.87
8504.39
8504.92
8505.44
8505.96
8506.48
8507
8507.53
8508.05
8508.57
8509.09
8509.62
8510.14
8510.66
8511.19
8511.71
8512.23
8512.75
8513.28
8513.8
8514.32
8514.85
8515.37
8515.89
8516.41
8516.94
8517.46
8517.98
8518.51
8519.03
8519.55
8520.08
8520.6
8521.12
8521.65
8522.17
8522.7
8523.22
8523.74
8524.27
8524.79
8525.31
8525.84
8526.36
8526.89
8527.41
8527.93
8528.46
8528.98
8529.51
8530.03
8530.55
8531.08
8531.6
8532.13
8532.65
8533.18
8533.7
8534.23
8534.75
8535.27
8535.8
8536.32
8536.85
8537.37
8537.9
8538.42
8538.95
8539.47
8540
8540.52
8541.05
8541.57
8542.1
8542.62
8543.15
8543.67
8544.2
8544.72
8545.25
8545.78
8546.3
8546.83
8547.35
8547.88
8548.4
8548.93
8549.45
8549.98
8550.51
8551.03
8551.56
8552.08
8552.61
8553.14
8553.66
8554.19
8554.71
8555.24
8555.77
8556.29
8556.82
8557.35
8557.87
8558.4
8558.92
8559.45
8559.98
8560.5
8561.03
8561.56
8562.08
8562.61
8563.14
8563.66
8564.19
8564.72
8565.25
8565.77
8566.3
8566.83
8567.35
8567.88
8568.41
8568.94
8569.46
8569.99
8570.52
8571.04
8571.57
8572.1
8572.63
8573.15
8573.68
8574.21
8574.74
8575.27
8575.79
8576.32
8576.85
8577.38
8577.9
8578.43
8578.96
8579.49
8580.02
8580.54
8581.07
8581.6
8582.13
8582.66
8583.19
8583.71
8584.24
8584.77
8585.3
8585.83
8586.36
8586.89
8587.41
8587.94
8588.47
8589
8589.53
8590.06
8590.59
8591.12
8591.65
8592.17
8592.7
8593.23
8593.76
8594.29
8594.82
8595.35
8595.88
8596.41
8596.94
8597.47
8598
8598.53
8599.06
8599.59
8600.11
8600.64
8601.17
8601.7
8602.23
8602.76
8603.29
8603.82
8604.35
8604.88
8605.41
8605.94
8606.47
8607
8607.53
8608.06
8608.59
8609.12
8609.66
8610.19
8610.72
8611.25
8611.78
8612.31
8612.84
8613.37
8613.9
8614.43
8614.96
8615.49
8616.02
8616.55
8617.08
8617.62
8618.15
8618.68
8619.21
8619.74
8620.27
8620.8
8621.33
8621.87
8622.4
8622.93
8623.46
8623.99
8624.52
8625.05
8625.59
8626.12
8626.65
8627.18
8627.71
8628.24
8628.78
8629.31
8629.84
8630.37
8630.9
8631.44
8631.97
8632.5
8633.03
8633.56
8634.1
8634.63
8635.16
8635.69
8636.23
8636.76
8637.29
8637.82
8638.36
8638.89
8639.42
8639.95
8640.49
8641.02
8641.55
8642.08
8642.62
8643.15
8643.68
8644.22
8644.75
8645.28
8645.82
8646.35
8646.88
8647.42
8647.95
8648.48
8649.02
8649.55
8650.08
8650.62
8651.15
8651.68
8652.22
8652.75
8653.28
8653.82
8654.35
8654.89
8655.42
8655.95
8656.49
8657.02
8657.55
8658.09
8658.62
8659.16
8659.69
8660.23
8660.76
8661.29
8661.83
8662.36
8662.9
8663.43
8663.97
8664.5
8665.04
8665.57
8666.1
8666.64
8667.17
8667.71
8668.24
8668.78
8669.31
8669.85
8670.38
8670.92
8671.45
8671.99
8672.52
8673.06
8673.59
8674.13
8674.66
8675.2
8675.74
8676.27
8676.81
8677.34
8677.88
8678.41
8678.95
8679.48
8680.02
8680.56
8681.09
8681.63
8682.16
8682.7
8683.24
8683.77
8684.31
8684.84
8685.38
8685.92
8686.45
8686.99
8687.52
8688.06
8688.6
8689.13
8689.67
8690.21
8690.74
8691.28
8691.82
8692.35
8692.89
8693.43
8693.96
8694.5
8695.04
8695.57
8696.11
8696.65
8697.18
8697.72
8698.26
8698.8
8699.33
8699.87
8700.41
8700.95
8701.48
8702.02
8702.56
8703.09
8703.63
8704.17
8704.71
8705.24
8705.78
8706.32
8706.86
8707.4
8707.93
8708.47
8709.01
8709.55
8710.09
8710.62
8711.16
8711.7
8712.24
8712.78
8713.31
8713.85
8714.39
8714.93
8715.47
8716.01
8716.54
8717.08
8717.62
8718.16
8718.7
8719.24
8719.78
8720.32
8720.85
8721.39
8721.93
8722.47
8723.01
8723.55
8724.09
8724.63
8725.17
8725.71
8726.24
8726.78
8727.32
8727.86
8728.4
8728.94
8729.48
8730.02
8730.56
8731.1
8731.64
8732.18
8732.72
8733.26
8733.8
8734.34
8734.88
8735.42
8735.96
8736.5
8737.04
8737.58
8738.12
8738.66
8739.2
8739.74
8740.28
8740.82
8741.36
8741.9
8742.44
8742.98
8743.52
8744.06
8744.6
8745.14
8745.68
8746.22
8746.77
8747.31
8747.85
8748.39
8748.93
8749.47
8750.01
8750.55
8751.09
8751.63
8752.18
8752.72
8753.26
8753.8
8754.34
8754.88
8755.42
8755.97
8756.51
8757.05
8757.59
8758.13
8758.67
8759.22
8759.76
8760.3
8760.84
8761.38
8761.92
8762.47
8763.01
8763.55
8764.09
8764.63
8765.18
8765.72
8766.26
8766.8
8767.35
8767.89
8768.43
8768.97
8769.52
8770.06
8770.6
8771.14
8771.69
8772.23
8772.77
8773.31
8773.86
8774.4
8774.94
8775.49
8776.03
8776.57
8777.12
8777.66
8778.2
8778.74
8779.29
8779.83
8780.37
8780.92
8781.46
8782.01
8782.55
8783.09
8783.64
8784.18
8784.72
8785.27
8785.81
8786.35
8786.9
8787.44
8787.99
8788.53
8789.07
8789.62
8790.16
8790.71
8791.25
8791.79
8792.34
8792.88
8793.43
8793.97
8794.52
8795.06
8795.61
8796.15
8796.69
8797.24
8797.78
8798.33
8798.87
8799.42
8799.96
8800.51
8801.05
8801.6
8802.14
8802.69
8803.23
8803.78
8804.32
8804.87
8805.41
8805.96
8806.5
8807.05
8807.59
8808.14
8808.69
8809.23
8809.78
8810.32
8810.87
8811.41
8811.96
8812.5
8813.05
8813.6
8814.14
8814.69
8815.23
8815.78
8816.33
8816.87
8817.42
8817.96
8818.51
8819.06
8819.6
8820.15
8820.7
8821.24
8821.79
8822.34
8822.88
8823.43
8823.98
8824.52
8825.07
8825.62
8826.16
8826.71
8827.26
8827.8
8828.35
8828.9
8829.44
8829.99
8830.54
8831.09
8831.63
8832.18
8832.73
8833.27
8833.82
8834.37
8834.92
8835.46
8836.01
8836.56
8837.11
8837.65
8838.2
8838.75
8839.3
8839.85
8840.39
8840.94
8841.49
8842.04
8842.59
8843.13
8843.68
8844.23
8844.78
8845.33
8845.87
8846.42
8846.97
8847.52
8848.07
8848.62
8849.16
8849.71
8850.26
8850.81
8851.36
8851.91
8852.46
8853.01
8853.55
8854.1
8854.65
8855.2
8855.75
8856.3
8856.85
8857.4
8857.95
8858.5
8859.05
8859.59
8860.14
8860.69
8861.24
8861.79
8862.34
8862.89
8863.44
8863.99
8864.54
8865.09
8865.64
8866.19
8866.74
8867.29
8867.84
8868.39
8868.94
8869.49
8870.04
8870.59
8871.14
8871.69
8872.24
8872.79
8873.34
8873.89
8874.44
8874.99
8875.54
8876.09
8876.64
8877.19
8877.74
8878.3
8878.85
8879.4
8879.95
8880.5
8881.05
8881.6
8882.15
8882.7
8883.25
8883.8
8884.36
8884.91
8885.46
8886.01
8886.56
8887.11
8887.66
8888.21
8888.77
8889.32
8889.87
8890.42
8890.97
8891.52
8892.08
8892.63
8893.18
8893.73
8894.28
8894.84
8895.39
8895.94
8896.49
8897.04
8897.6
8898.15
8898.7
8899.25
8899.8
8900.36
8900.91
8901.46
8902.01
8902.57
8903.12
8903.67
8904.22
8904.78
8905.33
8905.88
8906.43
8906.99
8907.54
8908.09
8908.65
8909.2
8909.75
8910.31
8910.86
8911.41
8911.97
8912.52
8913.07
8913.62
8914.18
8914.73
8915.29
8915.84
8916.39
8916.95
8917.5
8918.05
8918.61
8919.16
8919.71
8920.27
8920.82
8921.38
8921.93
8922.48
8923.04
8923.59
8924.15
8924.7
8925.25
8925.81
8926.36
8926.92
8927.47
8928.03
8928.58
8929.13
8929.69
8930.24
8930.8
8931.35
8931.91
8932.46
8933.02
8933.57
8934.13
8934.68
8935.24
8935.79
8936.35
8936.9
8937.46
8938.01
8938.57
8939.12
8939.68
8940.23
8940.79
8941.34
8941.9
8942.45
8943.01
8943.56
8944.12
8944.68
8945.23
8945.79
8946.34
8946.9
8947.45
8948.01
8948.57
8949.12
8949.68
8950.23
8950.79
8951.35
8951.9
8952.46
8953.02
8953.57
8954.13
8954.68
8955.24
8955.8
8956.35
8956.91
8957.47
8958.02
8958.58
8959.14
8959.69
8960.25
8960.81
8961.36
8961.92
8962.48
8963.03
8963.59
8964.15
8964.71
8965.26
8965.82
8966.38
8966.93
8967.49
8968.05
8968.61
8969.16
8969.72
8970.28
8970.84
8971.39
8971.95
8972.51
8973.07
8973.62
8974.18
8974.74
8975.3
8975.86
8976.41
8976.97
8977.53
8978.09
8978.65
8979.2
8979.76
8980.32
8980.88
8981.44
8982
8982.55
8983.11
8983.67
8984.23
8984.79
8985.35
8985.91
8986.46
8987.02
8987.58
8988.14
8988.7
8989.26
8989.82
8990.38
8990.94
8991.49
8992.05
8992.61
8993.17
8993.73
8994.29
8994.85
8995.41
8995.97
8996.53
8997.09
8997.65
8998.21
8998.77
8999.33
8999.88
9000.44
9001
9001.56
9002.12
9002.68
9003.24
9003.8
9004.36
9004.92
9005.48
9006.04
9006.6
9007.16
9007.72
9008.29
9008.85
9009.41
9009.97
9010.53
9011.09
9011.65
9012.21
9012.77
9013.33
9013.89
9014.45
9015.01
9015.57
9016.13
9016.69
9017.26
9017.82
9018.38
9018.94
9019.5
9020.06
9020.62
9021.18
9021.74
9022.31
9022.87
9023.43
9023.99
9024.55
9025.11
9025.67
9026.24
9026.8
9027.36
9027.92
9028.48
9029.04
9029.61
9030.17
9030.73
9031.29
9031.85
9032.42
9032.98
9033.54
9034.1
9034.67
9035.23
9035.79
9036.35
9036.91
9037.48
9038.04
9038.6
9039.16
9039.73
9040.29
9040.85
9041.42
9041.98
9042.54
9043.1
9043.67
9044.23
9044.79
9045.36
9045.92
9046.48
9047.05
9047.61
9048.17
9048.73
9049.3
9049.86
9050.42
9050.99
9051.55
9052.12
9052.68
9053.24
9053.81
9054.37
9054.93
9055.5
9056.06
9056.62
9057.19
9057.75
9058.32
9058.88
9059.44
9060.01
9060.57
9061.14
9061.7
9062.27
9062.83
9063.39
9063.96
9064.52
9065.09
9065.65
9066.22
9066.78
9067.35
9067.91
9068.48
9069.04
9069.6
9070.17
9070.73
9071.3
9071.86
9072.43
9072.99
9073.56
9074.12
9074.69
9075.26
9075.82
9076.39
9076.95
9077.52
9078.08
9078.65
9079.21
9079.78
9080.34
9080.91
9081.48
9082.04
9082.61
9083.17
9083.74
9084.3
9084.87
9085.44
9086
9086.57
9087.13
9087.7
9088.27
9088.83
9089.4
9089.97
9090.53
9091.1
9091.66
9092.23
9092.8
9093.36
9093.93
9094.5
9095.06
9095.63
9096.2
9096.76
9097.33
9097.9
9098.46
9099.03
9099.6
9100.17
9100.73
9101.3
9101.87
9102.43
9103
9103.57
9104.14
9104.7
9105.27
9105.84
9106.41
9106.97
9107.54
9108.11
9108.68
9109.24
9109.81
9110.38
9110.95
9111.52
9112.08
9112.65
9113.22
9113.79
9114.36
9114.92
9115.49
9116.06
9116.63
9117.2
9117.76
9118.33
9118.9
9119.47
9120.04
9120.61
9121.18
9121.74
9122.31
9122.88
9123.45
9124.02
9124.59
9125.16
9125.73
9126.29
9126.86
9127.43
9128
9128.57
9129.14
9129.71
9130.28
9130.85
9131.42
9131.99
9132.56
9133.13
9133.7
9134.26
9134.83
9135.4
9135.97
9136.54
9137.11
9137.68
9138.25
9138.82
9139.39
9139.96
9140.53
9141.1
9141.67
9142.24
9142.81
9143.38
9143.95
9144.52
9145.09
9145.66
9146.23
9146.81
9147.38
9147.95
9148.52
9149.09
9149.66
9150.23
9150.8
9151.37
9151.94
9152.51
9153.08
9153.65
9154.23
9154.8
9155.37
9155.94
9156.51
9157.08
9157.65
9158.22
9158.79
9159.37
9159.94
9160.51
9161.08
9161.65
9162.22
9162.8
9163.37
9163.94
9164.51
9165.08
9165.65
9166.23
9166.8
9167.37
9167.94
9168.51
9169.09
9169.66
9170.23
9170.8
9171.38
9171.95
9172.52
9173.09
9173.66
9174.24
9174.81
9175.38
9175.95
9176.53
9177.1
9177.67
9178.25
9178.82
9179.39
9179.96
9180.54
9181.11
9181.68
9182.26
9182.83
9183.4
9183.98
9184.55
9185.12
9185.7
9186.27
9186.84
9187.42
9187.99
9188.56
9189.14
9189.71
9190.28
9190.86
9191.43
9192
9192.58
9193.15
9193.73
9194.3
9194.87
9195.45
9196.02
9196.6
9197.17
9197.74
9198.32
9198.89
9199.47
9200.04
9200.62
9201.19
9201.77
9202.34
9202.91
9203.49
9204.06
9204.64
9205.21
9205.79
9206.36
9206.94
9207.51
9208.09
9208.66
9209.24
9209.81
9210.39
9210.96
9211.54
9212.11
9212.69
9213.26
9213.84
9214.41
9214.99
9215.57
9216.14
9216.72
9217.29
9217.87
9218.44
9219.02
9219.6
9220.17
9220.75
9221.32
9221.9
9222.47
9223.05
9223.63
9224.2
9224.78
9225.36
9225.93
9226.51
9227.08
9227.66
9228.24
9228.81
9229.39
9229.97
9230.54
9231.12
9231.7
9232.27
9232.85
9233.43
9234
9234.58
9235.16
9235.73
9236.31
9236.89
9237.47
9238.04
9238.62
9239.2
9239.77
9240.35
9240.93
9241.51
9242.08
9242.66
9243.24
9243.82
9244.39
9244.97
9245.55
9246.13
9246.7
9247.28
9247.86
9248.44
9249.02
9249.59
9250.17
9250.75
9251.33
9251.91
9252.48
9253.06
9253.64
9254.22
9254.8
9255.38
9255.95
9256.53
9257.11
9257.69
9258.27
9258.85
9259.43
9260
9260.58
9261.16
9261.74
9262.32
9262.9
9263.48
9264.06
9264.64
9265.22
9265.79
9266.37
9266.95
9267.53
9268.11
9268.69
9269.27
9269.85
9270.43
9271.01
9271.59
9272.17
9272.75
9273.33
9273.91
9274.49
9275.07
9275.65
9276.23
9276.81
9277.39
9277.97
9278.55
9279.13
9279.71
9280.29
9280.87
9281.45
9282.03
9282.61
9283.19
9283.77
9284.35
9284.93
9285.51
9286.09
9286.67
9287.25
9287.83
9288.41
9288.99
9289.58
9290.16
9290.74
9291.32
9291.9
9292.48
9293.06
9293.64
9294.22
9294.81
9295.39
9295.97
9296.55
9297.13
9297.71
9298.29
9298.88
9299.46
9300.04
9300.62
9301.2
9301.78
9302.37
9302.95
9303.53
9304.11
9304.69
9305.27
9305.86
9306.44
9307.02
9307.6
9308.19
9308.77
9309.35
9309.93
9310.51
9311.1
9311.68
9312.26
9312.84
9313.43
9314.01
9314.59
9315.18
9315.76
9316.34
9316.92
9317.51
9318.09
9318.67
9319.26
9319.84
9320.42
9321.01
9321.59
9322.17
9322.75
9323.34
9323.92
9324.5
9325.09
9325.67
9326.26
9326.84
9327.42
9328.01
9328.59
9329.17
9329.76
9330.34
9330.92
9331.51
9332.09
9332.68
9333.26
9333.84
9334.43
9335.01
9335.6
9336.18
9336.77
9337.35
9337.93
9338.52
9339.1
9339.69
9340.27
9340.86
9341.44
9342.03
9342.61
9343.2
9343.78
9344.37
9344.95
9345.54
9346.12
9346.71
9347.29
9347.88
9348.46
9349.05
9349.63
9350.22
9350.8
9351.39
9351.97
9352.56
9353.14
9353.73
9354.31
9354.9
9355.49
9356.07
9356.66
9357.24
9357.83
9358.41
9359
9359.59
9360.17
9360.76
9361.34
9361.93
9362.52
9363.1
9363.69
9364.27
9364.86
9365.45
9366.03
9366.62
9367.21
9367.79
9368.38
9368.97
9369.55
9370.14
9370.73
9371.31
9371.9
9372.49
9373.07
9373.66
9374.25
9374.84
9375.42
9376.01
9376.6
9377.18
9377.77
9378.36
9378.95
9379.53
9380.12
9380.71
9381.3
9381.88
9382.47
9383.06
9383.65
9384.23
9384.82
9385.41
9386
9386.58
9387.17
9387.76
9388.35
9388.94
9389.52
9390.11
9390.7
9391.29
9391.88
9392.47
9393.05
9393.64
9394.23
9394.82
9395.41
9396
9396.59
9397.17
9397.76
9398.35
9398.94
9399.53
9400.12
9400.71
9401.3
9401.88
9402.47
9403.06
9403.65
9404.24
9404.83
9405.42
9406.01
9406.6
9407.19
9407.78
9408.37
9408.96
9409.55
9410.13
9410.72
9411.31
9411.9
9412.49
9413.08
9413.67
9414.26
9414.85
9415.44
9416.03
9416.62
9417.21
9417.8
9418.39
9418.98
9419.57
9420.16
9420.75
9421.34
9421.94
9422.53
9423.12
9423.71
9424.3
9424.89
9425.48
9426.07
9426.66
9427.25
9427.84
9428.43
9429.02
9429.61
9430.21
9430.8
9431.39
9431.98
9432.57
9433.16
9433.75
9434.34
9434.94
9435.53
9436.12
9436.71
9437.3
9437.89
9438.48
9439.08
9439.67
9440.26
9440.85
9441.44
9442.04
9442.63
9443.22
9443.81
9444.4
9445
9445.59
9446.18
9446.77
9447.36
9447.96
9448.55
9449.14
9449.73
9450.33
9450.92
9451.51
9452.1
9452.7
9453.29
9453.88
9454.47
9455.07
9455.66
9456.25
9456.85
9457.44
9458.03
9458.63
9459.22
9459.81
9460.4
9461
9461.59
9462.18
9462.78
9463.37
9463.96
9464.56
9465.15
9465.75
9466.34
9466.93
9467.53
9468.12
9468.71
9469.31
9469.9
9470.5
9471.09
9471.68
9472.28
9472.87
9473.47
9474.06
9474.65
9475.25
9475.84
9476.44
9477.03
9477.63
9478.22
9478.81
9479.41
9480
9480.6
9481.19
9481.79
9482.38
9482.98
9483.57
9484.17
9484.76
9485.36
9485.95
9486.55
9487.14
9487.74
9488.33
9488.93
9489.52
9490.12
9490.71
9491.31
9491.91
9492.5
9493.1
9493.69
9494.29
9494.88
9495.48
9496.07
9496.67
9497.27
9497.86
9498.46
9499.05
9499.65
9500.25
9500.84
9501.44
9502.03
9502.63
9503.23
9503.82
9504.42
9505.02
9505.61
9506.21
9506.81
9507.4
9508
9508.6
9509.19
9509.79
9510.39
9510.98
9511.58
9512.18
9512.77
9513.37
9513.97
9514.56
9515.16
9515.76
9516.36
9516.95
9517.55
9518.15
9518.75
9519.34
9519.94
9520.54
9521.14
9521.73
9522.33
9522.93
9523.53
9524.12
9524.72
9525.32
9525.92
9526.52
9527.11
9527.71
9528.31
9528.91
9529.51
9530.1
9530.7
9531.3
9531.9
9532.5
9533.1
9533.69
9534.29
9534.89
9535.49
9536.09
9536.69
9537.29
9537.88
9538.48
9539.08
9539.68
9540.28
9540.88
9541.48
9542.08
9542.68
9543.28
9543.87
9544.47
9545.07
9545.67
9546.27
9546.87
9547.47
9548.07
9548.67
9549.27
9549.87
9550.47
9551.07
9551.67
9552.27
9552.87
9553.47
9554.07
9554.67
9555.27
9555.87
9556.47
9557.07
9557.67
9558.27
9558.87
9559.47
9560.07
9560.67
9561.27
9561.87
9562.47
9563.07
9563.67
9564.27
9564.87
9565.47
9566.08
9566.68
9567.28
9567.88
9568.48
9569.08
9569.68
9570.28
9570.88
9571.48
9572.09
9572.69
9573.29
9573.89
9574.49
9575.09
9575.69
9576.3
9576.9
9577.5
9578.1
9578.7
9579.3
9579.91
9580.51
9581.11
9581.71
9582.31
9582.92
9583.52
9584.12
9584.72
9585.32
9585.93
9586.53
9587.13
9587.73
9588.34
9588.94
9589.54
9590.14
9590.75
9591.35
9591.95
9592.55
9593.16
9593.76
9594.36
9594.96
9595.57
9596.17
9596.77
9597.38
9597.98
9598.58
9599.19
9599.79
9600.39
9601
9601.6
9602.2
9602.81
9603.41
9604.01
9604.62
9605.22
9605.82
9606.43
9607.03
9607.63
9608.24
9608.84
9609.45
9610.05
9610.65
9611.26
9611.86
9612.47
9613.07
9613.67
9614.28
9614.88
9615.49
9616.09
9616.7
9617.3
9617.91
9618.51
9619.11
9619.72
9620.32
9620.93
9621.53
9622.14
9622.74
9623.35
9623.95
9624.56
9625.16
9625.77
9626.37
9626.98
9627.58
9628.19
9628.79
9629.4
9630
9630.61
9631.22
9631.82
9632.43
9633.03
9633.64
9634.24
9634.85
9635.46
9636.06
9636.67
9637.27
9637.88
9638.48
9639.09
9639.7
9640.3
9640.91
9641.52
9642.12
9642.73
9643.33
9643.94
9644.55
9645.15
9645.76
9646.37
9646.97
9647.58
9648.19
9648.79
9649.4
9650.01
9650.61
9651.22
9651.83
9652.43
9653.04
9653.65
9654.26
9654.86
9655.47
9656.08
9656.68
9657.29
9657.9
9658.51
9659.11
9659.72
9660.33
9660.94
9661.54
9662.15
9662.76
9663.37
9663.98
9664.58
9665.19
9665.8
9666.41
9667.02
9667.62
9668.23
9668.84
9669.45
9670.06
9670.66
9671.27
9671.88
9672.49
9673.1
9673.71
9674.32
9674.92
9675.53
9676.14
9676.75
9677.36
9677.97
9678.58
9679.19
9679.79
9680.4
9681.01
9681.62
9682.23
9682.84
9683.45
9684.06
9684.67
9685.28
9685.89
9686.5
9687.1
9687.71
9688.32
9688.93
9689.54
9690.15
9690.76
9691.37
9691.98
9692.59
9693.2
9693.81
9694.42
9695.03
9695.64
9696.25
9696.86
9697.47
9698.08
9698.69
9699.3
9699.91
9700.52
9701.13
9701.75
9702.36
9702.97
9703.58
9704.19
9704.8
9705.41
9706.02
9706.63
9707.24
9707.85
9708.46