/*--------------------------------*- C++ -*----------------------------------*\
  =========                 |
  \\      /  F ield         | OpenFOAM: The Open Source CFD Toolbox
   \\    /   O peration     | Website:  https://openfoam.org
    \\  /    A nd           | Version:  9
     \\/     M anipulation  |
\*---------------------------------------------------------------------------*/
FoamFile
{
    format      ascii;
    class       volScalarField;
    location    "0.05";
    object      p_0;
}
// * * * * * * * * * * * * * * * * * * * * * * * * * * * * * * * * * * * * * //

dimensions      [1 -1 -2 0 0 0 0];

internalField   nonuniform List<scalar> 
10000
(
7841.96
7841.93
7841.87
7841.82
7841.78
7841.74
7841.7
7841.66
7841.62
7841.58
7841.55
7841.51
7841.48
7841.44
7841.41
7841.38
7841.35
7841.32
7841.29
7841.26
7841.23
7841.21
7841.18
7841.16
7841.13
7841.11
7841.09
7841.07
7841.05
7841.03
7841.01
7840.99
7840.97
7840.96
7840.94
7840.93
7840.92
7840.9
7840.89
7840.88
7840.87
7840.86
7840.86
7840.85
7840.85
7840.84
7840.84
7840.83
7840.83
7840.83
7840.83
7840.83
7840.83
7840.84
7840.84
7840.84
7840.85
7840.86
7840.86
7840.87
7840.88
7840.89
7840.9
7840.92
7840.93
7840.94
7840.96
7840.97
7840.99
7841.01
7841.03
7841.05
7841.07
7841.09
7841.12
7841.14
7841.16
7841.19
7841.22
7841.25
7841.27
7841.3
7841.34
7841.37
7841.4
7841.43
7841.47
7841.51
7841.54
7841.58
7841.62
7841.66
7841.7
7841.74
7841.79
7841.83
7841.88
7841.92
7841.97
7842.02
7842.07
7842.12
7842.17
7842.22
7842.28
7842.33
7842.39
7842.45
7842.5
7842.56
7842.62
7842.68
7842.75
7842.81
7842.88
7842.94
7843.01
7843.08
7843.14
7843.22
7843.29
7843.36
7843.43
7843.51
7843.58
7843.66
7843.74
7843.82
7843.9
7843.98
7844.06
7844.15
7844.23
7844.32
7844.4
7844.49
7844.58
7844.67
7844.77
7844.86
7844.95
7845.05
7845.15
7845.24
7845.34
7845.44
7845.55
7845.65
7845.75
7845.86
7845.96
7846.07
7846.18
7846.29
7846.4
7846.52
7846.63
7846.75
7846.86
7846.98
7847.1
7847.22
7847.34
7847.46
7847.59
7847.71
7847.84
7847.97
7848.1
7848.23
7848.36
7848.49
7848.63
7848.76
7848.9
7849.04
7849.18
7849.32
7849.46
7849.61
7849.75
7849.9
7850.05
7850.19
7850.34
7850.5
7850.65
7850.8
7850.96
7851.12
7851.28
7851.44
7851.6
7851.76
7851.92
7852.09
7852.26
7852.42
7852.59
7852.76
7852.94
7853.11
7853.29
7853.46
7853.64
7853.82
7854
7854.18
7854.37
7854.55
7854.74
7854.93
7855.12
7855.31
7855.5
7855.69
7855.89
7856.08
7856.28
7856.48
7856.68
7856.89
7857.09
7857.29
7857.5
7857.71
7857.92
7858.13
7858.34
7858.56
7858.77
7858.99
7859.21
7859.43
7859.65
7859.87
7860.1
7860.33
7860.55
7860.78
7861.01
7861.24
7861.48
7861.71
7861.95
7862.19
7862.43
7862.67
7862.91
7863.16
7863.4
7863.65
7863.9
7864.15
7864.4
7864.65
7864.91
7865.16
7865.42
7865.68
7865.94
7866.2
7866.47
7866.73
7867
7867.27
7867.54
7867.81
7868.08
7868.35
7868.63
7868.91
7869.19
7869.47
7869.75
7870.03
7870.31
7870.6
7870.89
7871.18
7871.47
7871.76
7872.05
7872.35
7872.65
7872.94
7873.24
7873.54
7873.85
7874.15
7874.45
7874.76
7875.07
7875.38
7875.69
7876
7876.32
7876.63
7876.95
7877.27
7877.58
7877.91
7878.23
7878.55
7878.88
7879.2
7879.53
7879.86
7880.19
7880.52
7880.86
7881.19
7881.53
7881.86
7882.2
7882.54
7882.89
7883.23
7883.57
7883.92
7884.26
7884.61
7884.96
7885.31
7885.66
7886.02
7886.37
7886.73
7887.08
7887.44
7887.8
7888.16
7888.52
7888.89
7889.25
7889.62
7889.98
7890.35
7890.72
7891.09
7891.46
7891.84
7892.21
7892.59
7892.96
7893.34
7893.72
7894.1
7894.48
7894.86
7895.24
7895.63
7896.01
7896.4
7896.79
7897.17
7897.56
7897.95
7898.34
7898.74
7899.13
7899.53
7899.92
7900.32
7900.71
7901.11
7901.51
7901.91
7902.31
7902.72
7903.12
7903.52
7903.93
7904.33
7904.74
7905.15
7905.56
7905.97
7906.38
7906.79
7907.2
7907.61
7908.03
7908.44
7908.86
7909.27
7909.69
7910.11
7910.53
7910.94
7911.36
7911.79
7912.21
7912.63
7913.05
7913.48
7913.9
7914.33
7914.75
7915.18
7915.6
7916.03
7916.46
7916.89
7917.32
7917.75
7918.18
7918.61
7919.05
7919.48
7919.91
7920.35
7920.78
7921.22
7921.65
7922.09
7922.52
7922.96
7923.4
7923.84
7924.28
7924.72
7925.16
7925.6
7926.04
7926.48
7926.92
7927.37
7927.81
7928.25
7928.7
7929.14
7929.59
7930.03
7930.48
7930.92
7931.37
7931.82
7932.26
7932.71
7933.16
7933.61
7934.06
7934.51
7934.96
7935.41
7935.86
7936.31
7936.76
7937.21
7937.66
7938.11
7938.57
7939.02
7939.47
7939.93
7940.38
7940.83
7941.29
7941.74
7942.2
7942.65
7943.11
7943.57
7944.02
7944.48
7944.93
7945.39
7945.85
7946.31
7946.76
7947.22
7947.68
7948.14
7948.6
7949.06
7949.52
7949.97
7950.43
7950.89
7951.35
7951.81
7952.28
7952.74
7953.2
7953.66
7954.12
7954.58
7955.04
7955.5
7955.97
7956.43
7956.89
7957.35
7957.82
7958.28
7958.74
7959.21
7959.67
7960.13
7960.6
7961.06
7961.53
7961.99
7962.45
7962.92
7963.38
7963.85
7964.31
7964.78
7965.24
7965.71
7966.18
7966.64
7967.11
7967.57
7968.04
7968.51
7968.97
7969.44
7969.91
7970.37
7970.84
7971.31
7971.77
7972.24
7972.71
7973.18
7973.64
7974.11
7974.58
7975.05
7975.52
7975.98
7976.45
7976.92
7977.39
7977.86
7978.33
7978.8
7979.26
7979.73
7980.2
7980.67
7981.14
7981.61
7982.08
7982.55
7983.02
7983.49
7983.96
7984.43
7984.9
7985.37
7985.84
7986.31
7986.78
7987.25
7987.72
7988.19
7988.66
7989.13
7989.61
7990.08
7990.55
7991.02
7991.49
7991.96
7992.43
7992.91
7993.38
7993.85
7994.32
7994.79
7995.26
7995.74
7996.21
7996.68
7997.15
7997.63
7998.1
7998.57
7999.04
7999.52
7999.99
8000.46
8000.94
8001.41
8001.88
8002.35
8002.83
8003.3
8003.77
8004.25
8004.72
8005.19
8005.67
8006.14
8006.62
8007.09
8007.56
8008.04
8008.51
8008.99
8009.46
8009.93
8010.41
8010.88
8011.36
8011.83
8012.31
8012.78
8013.26
8013.73
8014.21
8014.68
8015.16
8015.63
8016.11
8016.58
8017.06
8017.53
8018.01
8018.48
8018.96
8019.44
8019.91
8020.39
8020.86
8021.34
8021.82
8022.29
8022.77
8023.24
8023.72
8024.2
8024.67
8025.15
8025.63
8026.1
8026.58
8027.06
8027.53
8028.01
8028.49
8028.96
8029.44
8029.92
8030.4
8030.87
8031.35
8031.83
8032.3
8032.78
8033.26
8033.74
8034.21
8034.69
8035.17
8035.65
8036.13
8036.6
8037.08
8037.56
8038.04
8038.52
8039
8039.47
8039.95
8040.43
8040.91
8041.39
8041.87
8042.35
8042.82
8043.3
8043.78
8044.26
8044.74
8045.22
8045.7
8046.18
8046.66
8047.14
8047.62
8048.1
8048.58
8049.05
8049.53
8050.01
8050.49
8050.97
8051.45
8051.93
8052.41
8052.89
8053.37
8053.85
8054.33
8054.82
8055.3
8055.78
8056.26
8056.74
8057.22
8057.7
8058.18
8058.66
8059.14
8059.62
8060.1
8060.58
8061.07
8061.55
8062.03
8062.51
8062.99
8063.47
8063.95
8064.43
8064.92
8065.4
8065.88
8066.36
8066.84
8067.33
8067.81
8068.29
8068.77
8069.25
8069.74
8070.22
8070.7
8071.18
8071.66
8072.15
8072.63
8073.11
8073.6
8074.08
8074.56
8075.04
8075.53
8076.01
8076.49
8076.98
8077.46
8077.94
8078.42
8078.91
8079.39
8079.87
8080.36
8080.84
8081.33
8081.81
8082.29
8082.78
8083.26
8083.74
8084.23
8084.71
8085.2
8085.68
8086.16
8086.65
8087.13
8087.62
8088.1
8088.59
8089.07
8089.55
8090.04
8090.52
8091.01
8091.49
8091.98
8092.46
8092.95
8093.43
8093.92
8094.4
8094.89
8095.37
8095.86
8096.34
8096.83
8097.31
8097.8
8098.29
8098.77
8099.26
8099.74
8100.23
8100.71
8101.2
8101.69
8102.17
8102.66
8103.14
8103.63
8104.12
8104.6
8105.09
8105.57
8106.06
8106.55
8107.03
8107.52
8108.01
8108.49
8108.98
8109.47
8109.95
8110.44
8110.93
8111.41
8111.9
8112.39
8112.88
8113.36
8113.85
8114.34
8114.82
8115.31
8115.8
8116.29
8116.77
8117.26
8117.75
8118.24
8118.73
8119.21
8119.7
8120.19
8120.68
8121.17
8121.65
8122.14
8122.63
8123.12
8123.61
8124.09
8124.58
8125.07
8125.56
8126.05
8126.54
8127.03
8127.51
8128
8128.49
8128.98
8129.47
8129.96
8130.45
8130.94
8131.43
8131.92
8132.4
8132.89
8133.38
8133.87
8134.36
8134.85
8135.34
8135.83
8136.32
8136.81
8137.3
8137.79
8138.28
8138.77
8139.26
8139.75
8140.24
8140.73
8141.22
8141.71
8142.2
8142.69
8143.18
8143.67
8144.16
8144.65
8145.14
8145.63
8146.12
8146.62
8147.11
8147.6
8148.09
8148.58
8149.07
8149.56
8150.05
8150.54
8151.03
8151.53
8152.02
8152.51
8153
8153.49
8153.98
8154.47
8154.97
8155.46
8155.95
8156.44
8156.93
8157.42
8157.92
8158.41
8158.9
8159.39
8159.89
8160.38
8160.87
8161.36
8161.85
8162.35
8162.84
8163.33
8163.82
8164.32
8164.81
8165.3
8165.79
8166.29
8166.78
8167.27
8167.77
8168.26
8168.75
8169.24
8169.74
8170.23
8170.72
8171.22
8171.71
8172.2
8172.7
8173.19
8173.68
8174.18
8174.67
8175.17
8175.66
8176.15
8176.65
8177.14
8177.63
8178.13
8178.62
8179.12
8179.61
8180.1
8180.6
8181.09
8181.59
8182.08
8182.58
8183.07
8183.57
8184.06
8184.55
8185.05
8185.54
8186.04
8186.53
8187.03
8187.52
8188.02
8188.51
8189.01
8189.5
8190
8190.49
8190.99
8191.48
8191.98
8192.47
8192.97
8193.47
8193.96
8194.46
8194.95
8195.45
8195.94
8196.44
8196.94
8197.43
8197.93
8198.42
8198.92
8199.42
8199.91
8200.41
8200.9
8201.4
8201.9
8202.39
8202.89
8203.39
8203.88
8204.38
8204.87
8205.37
8205.87
8206.37
8206.86
8207.36
8207.86
8208.35
8208.85
8209.35
8209.84
8210.34
8210.84
8211.33
8211.83
8212.33
8212.83
8213.32
8213.82
8214.32
8214.82
8215.31
8215.81
8216.31
8216.81
8217.31
8217.8
8218.3
8218.8
8219.3
8219.79
8220.29
8220.79
8221.29
8221.79
8222.29
8222.78
8223.28
8223.78
8224.28
8224.78
8225.28
8225.77
8226.27
8226.77
8227.27
8227.77
8228.27
8228.77
8229.27
8229.76
8230.26
8230.76
8231.26
8231.76
8232.26
8232.76
8233.26
8233.76
8234.26
8234.76
8235.26
8235.76
8236.26
8236.75
8237.25
8237.75
8238.25
8238.75
8239.25
8239.75
8240.25
8240.75
8241.25
8241.75
8242.25
8242.75
8243.25
8243.75
8244.25
8244.75
8245.25
8245.76
8246.26
8246.76
8247.26
8247.76
8248.26
8248.76
8249.26
8249.76
8250.26
8250.76
8251.26
8251.76
8252.26
8252.77
8253.27
8253.77
8254.27
8254.77
8255.27
8255.77
8256.27
8256.78
8257.28
8257.78
8258.28
8258.78
8259.28
8259.79
8260.29
8260.79
8261.29
8261.79
8262.29
8262.8
8263.3
8263.8
8264.3
8264.81
8265.31
8265.81
8266.31
8266.81
8267.32
8267.82
8268.32
8268.82
8269.33
8269.83
8270.33
8270.83
8271.34
8271.84
8272.34
8272.85
8273.35
8273.85
8274.35
8274.86
8275.36
8275.86
8276.37
8276.87
8277.37
8277.88
8278.38
8278.88
8279.39
8279.89
8280.39
8280.9
8281.4
8281.9
8282.41
8282.91
8283.42
8283.92
8284.42
8284.93
8285.43
8285.94
8286.44
8286.94
8287.45
8287.95
8288.46
8288.96
8289.46
8289.97
8290.47
8290.98
8291.48
8291.99
8292.49
8293
8293.5
8294.01
8294.51
8295.02
8295.52
8296.02
8296.53
8297.03
8297.54
8298.04
8298.55
8299.05
8299.56
8300.07
8300.57
8301.08
8301.58
8302.09
8302.59
8303.1
8303.6
8304.11
8304.61
8305.12
8305.63
8306.13
8306.64
8307.14
8307.65
8308.16
8308.66
8309.17
8309.67
8310.18
8310.69
8311.19
8311.7
8312.2
8312.71
8313.22
8313.72
8314.23
8314.74
8315.24
8315.75
8316.26
8316.76
8317.27
8317.78
8318.28
8318.79
8319.3
8319.8
8320.31
8320.82
8321.32
8321.83
8322.34
8322.85
8323.35
8323.86
8324.37
8324.88
8325.38
8325.89
8326.4
8326.91
8327.41
8327.92
8328.43
8328.94
8329.44
8329.95
8330.46
8330.97
8331.47
8331.98
8332.49
8333
8333.51
8334.02
8334.52
8335.03
8335.54
8336.05
8336.56
8337.06
8337.57
8338.08
8338.59
8339.1
8339.61
8340.12
8340.62
8341.13
8341.64
8342.15
8342.66
8343.17
8343.68
8344.19
8344.7
8345.2
8345.71
8346.22
8346.73
8347.24
8347.75
8348.26
8348.77
8349.28
8349.79
8350.3
8350.81
8351.32
8351.83
8352.34
8352.85
8353.36
8353.87
8354.38
8354.89
8355.4
8355.91
8356.42
8356.93
8357.44
8357.95
8358.46
8358.97
8359.48
8359.99
8360.5
8361.01
8361.52
8362.03
8362.54
8363.05
8363.56
8364.07
8364.58
8365.09
8365.6
8366.11
8366.62
8367.14
8367.65
8368.16
8368.67
8369.18
8369.69
8370.2
8370.71
8371.22
8371.74
8372.25
8372.76
8373.27
8373.78
8374.29
8374.8
8375.32
8375.83
8376.34
8376.85
8377.36
8377.87
8378.39
8378.9
8379.41
8379.92
8380.43
8380.95
8381.46
8381.97
8382.48
8382.99
8383.51
8384.02
8384.53
8385.04
8385.56
8386.07
8386.58
8387.09
8387.61
8388.12
8388.63
8389.14
8389.66
8390.17
8390.68
8391.2
8391.71
8392.22
8392.73
8393.25
8393.76
8394.27
8394.79
8395.3
8395.81
8396.33
8396.84
8397.35
8397.87
8398.38
8398.89
8399.41
8399.92
8400.44
8400.95
8401.46
8401.98
8402.49
8403
8403.52
8404.03
8404.55
8405.06
8405.57
8406.09
8406.6
8407.12
8407.63
8408.15
8408.66
8409.17
8409.69
8410.2
8410.72
8411.23
8411.75
8412.26
8412.78
8413.29
8413.81
8414.32
8414.84
8415.35
8415.87
8416.38
8416.9
8417.41
8417.93
8418.44
8418.96
8419.47
8419.99
8420.5
8421.02
8421.53
8422.05
8422.56
8423.08
8423.59
8424.11
8424.63
8425.14
8425.66
8426.17
8426.69
8427.21
8427.72
8428.24
8428.75
8429.27
8429.79
8430.3
8430.82
8431.33
8431.85
8432.37
8432.88
8433.4
8433.92
8434.43
8434.95
8435.47
8435.98
8436.5
8437.02
8437.53
8438.05
8438.57
8439.08
8439.6
8440.12
8440.63
8441.15
8441.67
8442.18
8442.7
8443.22
8443.74
8444.25
8444.77
8445.29
8445.81
8446.32
8446.84
8447.36
8447.88
8448.39
8448.91
8449.43
8449.95
8450.46
8450.98
8451.5
8452.02
8452.54
8453.05
8453.57
8454.09
8454.61
8455.13
8455.64
8456.16
8456.68
8457.2
8457.72
8458.24
8458.75
8459.27
8459.79
8460.31
8460.83
8461.35
8461.87
8462.39
8462.9
8463.42
8463.94
8464.46
8464.98
8465.5
8466.02
8466.54
8467.06
8467.58
8468.09
8468.61
8469.13
8469.65
8470.17
8470.69
8471.21
8471.73
8472.25
8472.77
8473.29
8473.81
8474.33
8474.85
8475.37
8475.89
8476.41
8476.93
8477.45
8477.97
8478.49
8479.01
8479.53
8480.05
8480.57
8481.09
8481.61
8482.13
8482.65
8483.17
8483.69
8484.21
8484.73
8485.25
8485.77
8486.29
8486.82
8487.34
8487.86
8488.38
8488.9
8489.42
8489.94
8490.46
8490.98
8491.5
8492.02
8492.55
8493.07
8493.59
8494.11
8494.63
8495.15
8495.67
8496.2
8496.72
8497.24
8497.76
8498.28
8498.8
8499.33
8499.85
8500.37
8500.89
8501.41
8501.94
8502.46
8502.98
8503.5
8504.02
8504.55
8505.07
8505.59
8506.11
8506.63
8507.16
8507.68
8508.2
8508.72
8509.25
8509.77
8510.29
8510.82
8511.34
8511.86
8512.38
8512.91
8513.43
8513.95
8514.48
8515
8515.52
8516.04
8516.57
8517.09
8517.61
8518.14
8518.66
8519.18
8519.71
8520.23
8520.75
8521.28
8521.8
8522.32
8522.85
8523.37
8523.9
8524.42
8524.94
8525.47
8525.99
8526.51
8527.04
8527.56
8528.09
8528.61
8529.14
8529.66
8530.18
8530.71
8531.23
8531.76
8532.28
8532.81
8533.33
8533.85
8534.38
8534.9
8535.43
8535.95
8536.48
8537
8537.53
8538.05
8538.58
8539.1
8539.63
8540.15
8540.68
8541.2
8541.73
8542.25
8542.78
8543.3
8543.83
8544.35
8544.88
8545.4
8545.93
8546.45
8546.98
8547.51
8548.03
8548.56
8549.08
8549.61
8550.13
8550.66
8551.19
8551.71
8552.24
8552.76
8553.29
8553.82
8554.34
8554.87
8555.39
8555.92
8556.45
8556.97
8557.5
8558.03
8558.55
8559.08
8559.61
8560.13
8560.66
8561.19
8561.71
8562.24
8562.77
8563.29
8563.82
8564.35
8564.87
8565.4
8565.93
8566.45
8566.98
8567.51
8568.04
8568.56
8569.09
8569.62
8570.14
8570.67
8571.2
8571.73
8572.25
8572.78
8573.31
8573.84
8574.37
8574.89
8575.42
8575.95
8576.48
8577
8577.53
8578.06
8578.59
8579.12
8579.64
8580.17
8580.7
8581.23
8581.76
8582.29
8582.81
8583.34
8583.87
8584.4
8584.93
8585.46
8585.98
8586.51
8587.04
8587.57
8588.1
8588.63
8589.16
8589.69
8590.21
8590.74
8591.27
8591.8
8592.33
8592.86
8593.39
8593.92
8594.45
8594.98
8595.51
8596.03
8596.56
8597.09
8597.62
8598.15
8598.68
8599.21
8599.74
8600.27
8600.8
8601.33
8601.86
8602.39
8602.92
8603.45
8603.98
8604.51
8605.04
8605.57
8606.1
8606.63
8607.16
8607.69
8608.22
8608.75
8609.28
8609.81
8610.34
8610.87
8611.4
8611.93
8612.46
8612.99
8613.53
8614.06
8614.59
8615.12
8615.65
8616.18
8616.71
8617.24
8617.77
8618.3
8618.83
8619.37
8619.9
8620.43
8620.96
8621.49
8622.02
8622.55
8623.08
8623.62
8624.15
8624.68
8625.21
8625.74
8626.27
8626.81
8627.34
8627.87
8628.4
8628.93
8629.46
8630
8630.53
8631.06
8631.59
8632.12
8632.66
8633.19
8633.72
8634.25
8634.79
8635.32
8635.85
8636.38
8636.92
8637.45
8637.98
8638.51
8639.05
8639.58
8640.11
8640.64
8641.18
8641.71
8642.24
8642.78
8643.31
8643.84
8644.37
8644.91
8645.44
8645.97
8646.51
8647.04
8647.57
8648.11
8648.64
8649.17
8649.71
8650.24
8650.77
8651.31
8651.84
8652.37
8652.91
8653.44
8653.98
8654.51
8655.04
8655.58
8656.11
8656.65
8657.18
8657.71
8658.25
8658.78
8659.32
8659.85
8660.38
8660.92
8661.45
8661.99
8662.52
8663.06
8663.59
8664.12
8664.66
8665.19
8665.73
8666.26
8666.8
8667.33
8667.87
8668.4
8668.94
8669.47
8670.01
8670.54
8671.08
8671.61
8672.15
8672.68
8673.22
8673.75
8674.29
8674.82
8675.36
8675.89
8676.43
8676.97
8677.5
8678.04
8678.57
8679.11
8679.64
8680.18
8680.72
8681.25
8681.79
8682.32
8682.86
8683.39
8683.93
8684.47
8685
8685.54
8686.08
8686.61
8687.15
8687.68
8688.22
8688.76
8689.29
8689.83
8690.37
8690.9
8691.44
8691.98
8692.51
8693.05
8693.59
8694.12
8694.66
8695.2
8695.73
8696.27
8696.81
8697.34
8697.88
8698.42
8698.96
8699.49
8700.03
8700.57
8701.1
8701.64
8702.18
8702.72
8703.25
8703.79
8704.33
8704.87
8705.4
8705.94
8706.48
8707.02
8707.56
8708.09
8708.63
8709.17
8709.71
8710.25
8710.78
8711.32
8711.86
8712.4
8712.94
8713.47
8714.01
8714.55
8715.09
8715.63
8716.17
8716.71
8717.24
8717.78
8718.32
8718.86
8719.4
8719.94
8720.48
8721.01
8721.55
8722.09
8722.63
8723.17
8723.71
8724.25
8724.79
8725.33
8725.87
8726.41
8726.94
8727.48
8728.02
8728.56
8729.1
8729.64
8730.18
8730.72
8731.26
8731.8
8732.34
8732.88
8733.42
8733.96
8734.5
8735.04
8735.58
8736.12
8736.66
8737.2
8737.74
8738.28
8738.82
8739.36
8739.9
8740.44
8740.98
8741.52
8742.06
8742.6
8743.14
8743.68
8744.22
8744.76
8745.3
8745.85
8746.39
8746.93
8747.47
8748.01
8748.55
8749.09
8749.63
8750.17
8750.71
8751.26
8751.8
8752.34
8752.88
8753.42
8753.96
8754.5
8755.04
8755.59
8756.13
8756.67
8757.21
8757.75
8758.29
8758.84
8759.38
8759.92
8760.46
8761
8761.54
8762.09
8762.63
8763.17
8763.71
8764.25
8764.8
8765.34
8765.88
8766.42
8766.97
8767.51
8768.05
8768.59
8769.14
8769.68
8770.22
8770.76
8771.31
8771.85
8772.39
8772.93
8773.48
8774.02
8774.56
8775.11
8775.65
8776.19
8776.73
8777.28
8777.82
8778.36
8778.91
8779.45
8779.99
8780.54
8781.08
8781.62
8782.17
8782.71
8783.25
8783.8
8784.34
8784.89
8785.43
8785.97
8786.52
8787.06
8787.6
8788.15
8788.69
8789.24
8789.78
8790.33
8790.87
8791.41
8791.96
8792.5
8793.05
8793.59
8794.13
8794.68
8795.22
8795.77
8796.31
8796.86
8797.4
8797.95
8798.49
8799.04
8799.58
8800.13
8800.67
8801.22
8801.76
8802.31
8802.85
8803.4
8803.94
8804.49
8805.03
8805.58
8806.12
8806.67
8807.21
8807.76
8808.3
8808.85
8809.39
8809.94
8810.49
8811.03
8811.58
8812.12
8812.67
8813.21
8813.76
8814.31
8814.85
8815.4
8815.94
8816.49
8817.04
8817.58
8818.13
8818.67
8819.22
8819.77
8820.31
8820.86
8821.41
8821.95
8822.5
8823.05
8823.59
8824.14
8824.69
8825.23
8825.78
8826.33
8826.87
8827.42
8827.97
8828.51
8829.06
8829.61
8830.16
8830.7
8831.25
8831.8
8832.34
8832.89
8833.44
8833.99
8834.53
8835.08
8835.63
8836.18
8836.72
8837.27
8837.82
8838.37
8838.91
8839.46
8840.01
8840.56
8841.11
8841.65
8842.2
8842.75
8843.3
8843.85
8844.39
8844.94
8845.49
8846.04
8846.59
8847.14
8847.68
8848.23
8848.78
8849.33
8849.88
8850.43
8850.98
8851.52
8852.07
8852.62
8853.17
8853.72
8854.27
8854.82
8855.37
8855.92
8856.46
8857.01
8857.56
8858.11
8858.66
8859.21
8859.76
8860.31
8860.86
8861.41
8861.96
8862.51
8863.06
8863.61
8864.16
8864.71
8865.26
8865.81
8866.36
8866.91
8867.45
8868
8868.55
8869.1
8869.65
8870.2
8870.76
8871.31
8871.86
8872.41
8872.96
8873.51
8874.06
8874.61
8875.16
8875.71
8876.26
8876.81
8877.36
8877.91
8878.46
8879.01
8879.56
8880.11
8880.66
8881.22
8881.77
8882.32
8882.87
8883.42
8883.97
8884.52
8885.07
8885.62
8886.18
8886.73
8887.28
8887.83
8888.38
8888.93
8889.48
8890.04
8890.59
8891.14
8891.69
8892.24
8892.79
8893.35
8893.9
8894.45
8895
8895.55
8896.11
8896.66
8897.21
8897.76
8898.31
8898.87
8899.42
8899.97
8900.52
8901.08
8901.63
8902.18
8902.73
8903.29
8903.84
8904.39
8904.94
8905.5
8906.05
8906.6
8907.16
8907.71
8908.26
8908.81
8909.37
8909.92
8910.47
8911.03
8911.58
8912.13
8912.69
8913.24
8913.79
8914.35
8914.9
8915.45
8916.01
8916.56
8917.11
8917.67
8918.22
8918.77
8919.33
8919.88
8920.44
8920.99
8921.54
8922.1
8922.65
8923.21
8923.76
8924.31
8924.87
8925.42
8925.98
8926.53
8927.08
8927.64
8928.19
8928.75
8929.3
8929.86
8930.41
8930.97
8931.52
8932.08
8932.63
8933.19
8933.74
8934.29
8934.85
8935.4
8935.96
8936.51
8937.07
8937.62
8938.18
8938.74
8939.29
8939.85
8940.4
8940.96
8941.51
8942.07
8942.62
8943.18
8943.73
8944.29
8944.84
8945.4
8945.96
8946.51
8947.07
8947.62
8948.18
8948.74
8949.29
8949.85
8950.4
8950.96
8951.52
8952.07
8952.63
8953.18
8953.74
8954.3
8954.85
8955.41
8955.97
8956.52
8957.08
8957.64
8958.19
8958.75
8959.31
8959.86
8960.42
8960.98
8961.53
8962.09
8962.65
8963.2
8963.76
8964.32
8964.87
8965.43
8965.99
8966.55
8967.1
8967.66
8968.22
8968.78
8969.33
8969.89
8970.45
8971.01
8971.56
8972.12
8972.68
8973.24
8973.79
8974.35
8974.91
8975.47
8976.03
8976.58
8977.14
8977.7
8978.26
8978.82
8979.37
8979.93
8980.49
8981.05
8981.61
8982.17
8982.72
8983.28
8983.84
8984.4
8984.96
8985.52
8986.08
8986.63
8987.19
8987.75
8988.31
8988.87
8989.43
8989.99
8990.55
8991.11
8991.66
8992.22
8992.78
8993.34
8993.9
8994.46
8995.02
8995.58
8996.14
8996.7
8997.26
8997.82
8998.38
8998.94
8999.5
9000.06
9000.62
9001.18
9001.74
9002.29
9002.85
9003.41
9003.97
9004.53
9005.09
9005.65
9006.22
9006.78
9007.34
9007.9
9008.46
9009.02
9009.58
9010.14
9010.7
9011.26
9011.82
9012.38
9012.94
9013.5
9014.06
9014.62
9015.18
9015.74
9016.3
9016.87
9017.43
9017.99
9018.55
9019.11
9019.67
9020.23
9020.79
9021.35
9021.92
9022.48
9023.04
9023.6
9024.16
9024.72
9025.28
9025.85
9026.41
9026.97
9027.53
9028.09
9028.65
9029.22
9029.78
9030.34
9030.9
9031.46
9032.03
9032.59
9033.15
9033.71
9034.28
9034.84
9035.4
9035.96
9036.52
9037.09
9037.65
9038.21
9038.77
9039.34
9039.9
9040.46
9041.02
9041.59
9042.15
9042.71
9043.28
9043.84
9044.4
9044.97
9045.53
9046.09
9046.65
9047.22
9047.78
9048.34
9048.91
9049.47
9050.03
9050.6
9051.16
9051.72
9052.29
9052.85
9053.42
9053.98
9054.54
9055.11
9055.67
9056.23
9056.8
9057.36
9057.93
9058.49
9059.05
9059.62
9060.18
9060.75
9061.31
9061.87
9062.44
9063
9063.57
9064.13
9064.7
9065.26
9065.83
9066.39
9066.95
9067.52
9068.08
9068.65
9069.21
9069.78
9070.34
9070.91
9071.47
9072.04
9072.6
9073.17
9073.73
9074.3
9074.86
9075.43
9075.99
9076.56
9077.12
9077.69
9078.26
9078.82
9079.39
9079.95
9080.52
9081.08
9081.65
9082.21
9082.78
9083.35
9083.91
9084.48
9085.04
9085.61
9086.18
9086.74
9087.31
9087.87
9088.44
9089.01
9089.57
9090.14
9090.71
9091.27
9091.84
9092.4
9092.97
9093.54
9094.1
9094.67
9095.24
9095.8
9096.37
9096.94
9097.51
9098.07
9098.64
9099.21
9099.77
9100.34
9100.91
9101.47
9102.04
9102.61
9103.18
9103.74
9104.31
9104.88
9105.45
9106.01
9106.58
9107.15
9107.72
9108.28
9108.85
9109.42
9109.99
9110.55
9111.12
9111.69
9112.26
9112.83
9113.39
9113.96
9114.53
9115.1
9115.67
9116.23
9116.8
9117.37
9117.94
9118.51
9119.08
9119.65
9120.21
9120.78
9121.35
9121.92
9122.49
9123.06
9123.63
9124.19
9124.76
9125.33
9125.9
9126.47
9127.04
9127.61
9128.18
9128.75
9129.32
9129.88
9130.45
9131.02
9131.59
9132.16
9132.73
9133.3
9133.87
9134.44
9135.01
9135.58
9136.15
9136.72
9137.29
9137.86
9138.43
9139
9139.57
9140.14
9140.71
9141.28
9141.85
9142.42
9142.99
9143.56
9144.13
9144.7
9145.27
9145.84
9146.41
9146.98
9147.55
9148.12
9148.69
9149.26
9149.83
9150.41
9150.98
9151.55
9152.12
9152.69
9153.26
9153.83
9154.4
9154.97
9155.54
9156.12
9156.69
9157.26
9157.83
9158.4
9158.97
9159.54
9160.11
9160.69
9161.26
9161.83
9162.4
9162.97
9163.54
9164.12
9164.69
9165.26
9165.83
9166.4
9166.97
9167.55
9168.12
9168.69
9169.26
9169.84
9170.41
9170.98
9171.55
9172.12
9172.7
9173.27
9173.84
9174.41
9174.99
9175.56
9176.13
9176.7
9177.28
9177.85
9178.42
9179
9179.57
9180.14
9180.71
9181.29
9181.86
9182.43
9183.01
9183.58
9184.15
9184.73
9185.3
9185.87
9186.45
9187.02
9187.59
9188.17
9188.74
9189.31
9189.89
9190.46
9191.03
9191.61
9192.18
9192.76
9193.33
9193.9
9194.48
9195.05
9195.63
9196.2
9196.77
9197.35
9197.92
9198.5
9199.07
9199.65
9200.22
9200.79
9201.37
9201.94
9202.52
9203.09
9203.67
9204.24
9204.82
9205.39
9205.97
9206.54
9207.12
9207.69
9208.27
9208.84
9209.42
9209.99
9210.57
9211.14
9211.72
9212.29
9212.87
9213.44
9214.02
9214.59
9215.17
9215.74
9216.32
9216.9
9217.47
9218.05
9218.62
9219.2
9219.77
9220.35
9220.93
9221.5
9222.08
9222.65
9223.23
9223.81
9224.38
9224.96
9225.53
9226.11
9226.69
9227.26
9227.84
9228.42
9228.99
9229.57
9230.15
9230.72
9231.3
9231.88
9232.45
9233.03
9233.61
9234.18
9234.76
9235.34
9235.91
9236.49
9237.07
9237.64
9238.22
9238.8
9239.38
9239.95
9240.53
9241.11
9241.69
9242.26
9242.84
9243.42
9244
9244.57
9245.15
9245.73
9246.31
9246.88
9247.46
9248.04
9248.62
9249.2
9249.77
9250.35
9250.93
9251.51
9252.09
9252.66
9253.24
9253.82
9254.4
9254.98
9255.56
9256.13
9256.71
9257.29
9257.87
9258.45
9259.03
9259.61
9260.19
9260.76
9261.34
9261.92
9262.5
9263.08
9263.66
9264.24
9264.82
9265.4
9265.97
9266.55
9267.13
9267.71
9268.29
9268.87
9269.45
9270.03
9270.61
9271.19
9271.77
9272.35
9272.93
9273.51
9274.09
9274.67
9275.25
9275.83
9276.41
9276.99
9277.57
9278.15
9278.73
9279.31
9279.89
9280.47
9281.05
9281.63
9282.21
9282.79
9283.37
9283.95
9284.53
9285.11
9285.69
9286.27
9286.85
9287.43
9288.01
9288.6
9289.18
9289.76
9290.34
9290.92
9291.5
9292.08
9292.66
9293.24
9293.82
9294.41
9294.99
9295.57
9296.15
9296.73
9297.31
9297.89
9298.48
9299.06
9299.64
9300.22
9300.8
9301.38
9301.97
9302.55
9303.13
9303.71
9304.29
9304.87
9305.46
9306.04
9306.62
9307.2
9307.79
9308.37
9308.95
9309.53
9310.11
9310.7
9311.28
9311.86
9312.44
9313.03
9313.61
9314.19
9314.78
9315.36
9315.94
9316.52
9317.11
9317.69
9318.27
9318.86
9319.44
9320.02
9320.6
9321.19
9321.77
9322.35
9322.94
9323.52
9324.1
9324.69
9325.27
9325.85
9326.44
9327.02
9327.61
9328.19
9328.77
9329.36
9329.94
9330.52
9331.11
9331.69
9332.28
9332.86
9333.44
9334.03
9334.61
9335.2
9335.78
9336.36
9336.95
9337.53
9338.12
9338.7
9339.29
9339.87
9340.46
9341.04
9341.62
9342.21
9342.79
9343.38
9343.96
9344.55
9345.13
9345.72
9346.3
9346.89
9347.47
9348.06
9348.64
9349.23
9349.81
9350.4
9350.99
9351.57
9352.16
9352.74
9353.33
9353.91
9354.5
9355.08
9355.67
9356.25
9356.84
9357.43
9358.01
9358.6
9359.18
9359.77
9360.36
9360.94
9361.53
9362.11
9362.7
9363.29
9363.87
9364.46
9365.05
9365.63
9366.22
9366.8
9367.39
9367.98
9368.56
9369.15
9369.74
9370.32
9370.91
9371.5
9372.08
9372.67
9373.26
9373.85
9374.43
9375.02
9375.61
9376.19
9376.78
9377.37
9377.96
9378.54
9379.13
9379.72
9380.3
9380.89
9381.48
9382.07
9382.66
9383.24
9383.83
9384.42
9385.01
9385.59
9386.18
9386.77
9387.36
9387.95
9388.53
9389.12
9389.71
9390.3
9390.89
9391.47
9392.06
9392.65
9393.24
9393.83
9394.42
9395
9395.59
9396.18
9396.77
9397.36
9397.95
9398.54
9399.13
9399.71
9400.3
9400.89
9401.48
9402.07
9402.66
9403.25
9403.84
9404.43
9405.02
9405.6
9406.19
9406.78
9407.37
9407.96
9408.55
9409.14
9409.73
9410.32
9410.91
9411.5
9412.09
9412.68
9413.27
9413.86
9414.45
9415.04
9415.63
9416.22
9416.81
9417.4
9417.99
9418.58
9419.17
9419.76
9420.35
9420.94
9421.53
9422.12
9422.71
9423.3
9423.89
9424.48
9425.07
9425.67
9426.26
9426.85
9427.44
9428.03
9428.62
9429.21
9429.8
9430.39
9430.98
9431.57
9432.17
9432.76
9433.35
9433.94
9434.53
9435.12
9435.71
9436.31
9436.9
9437.49
9438.08
9438.67
9439.26
9439.85
9440.45
9441.04
9441.63
9442.22
9442.81
9443.41
9444
9444.59
9445.18
9445.77
9446.37
9446.96
9447.55
9448.14
9448.74
9449.33
9449.92
9450.51
9451.11
9451.7
9452.29
9452.88
9453.48
9454.07
9454.66
9455.25
9455.85
9456.44
9457.03
9457.63
9458.22
9458.81
9459.41
9460
9460.59
9461.19
9461.78
9462.37
9462.97
9463.56
9464.15
9464.75
9465.34
9465.93
9466.53
9467.12
9467.71
9468.31
9468.9
9469.5
9470.09
9470.68
9471.28
9471.87
9472.47
9473.06
9473.65
9474.25
9474.84
9475.44
9476.03
9476.63
9477.22
9477.81
9478.41
9479
9479.6
9480.19
9480.79
9481.38
9481.98
9482.57
9483.17
9483.76
9484.36
9484.95
9485.55
9486.14
9486.74
9487.33
9487.93
9488.52
9489.12
9489.71
9490.31
9490.9
9491.5
9492.09
9492.69
9493.29
9493.88
9494.48
9495.07
9495.67
9496.26
9496.86
9497.46
9498.05
9498.65
9499.24
9499.84
9500.44
9501.03
9501.63
9502.22
9502.82
9503.42
9504.01
9504.61
9505.21
9505.8
9506.4
9507
9507.59
9508.19
9508.79
9509.38
9509.98
9510.58
9511.17
9511.77
9512.37
9512.96
9513.56
9514.16
9514.75
9515.35
9515.95
9516.55
9517.14
9517.74
9518.34
9518.94
9519.53
9520.13
9520.73
9521.33
9521.92
9522.52
9523.12
9523.72
9524.31
9524.91
9525.51
9526.11
9526.71
9527.3
9527.9
9528.5
9529.1
9529.7
9530.29
9530.89
9531.49
9532.09
9532.69
9533.29
9533.88
9534.48
9535.08
9535.68
9536.28
9536.88
9537.48
9538.08
9538.67
9539.27
9539.87
9540.47
9541.07
9541.67
9542.27
9542.87
9543.47
9544.07
9544.66
9545.26
9545.86
9546.46
9547.06
9547.66
9548.26
9548.86
9549.46
9550.06
9550.66
9551.26
9551.86
9552.46
9553.06
9553.66
9554.26
9554.86
9555.46
9556.06
9556.66
9557.26
9557.86
9558.46
9559.06
9559.66
9560.26
9560.86
9561.46
9562.06
9562.66
9563.26
9563.86
9564.46
9565.07
9565.67
9566.27
9566.87
9567.47
9568.07
9568.67
9569.27
9569.87
9570.47
9571.08
9571.68
9572.28
9572.88
9573.48
9574.08
9574.68
9575.28
9575.89
9576.49
9577.09
9577.69
9578.29
9578.89
9579.5
9580.1
9580.7
9581.3
9581.9
9582.51
9583.11
9583.71
9584.31
9584.91
9585.52
9586.12
9586.72
9587.32
9587.93
9588.53
9589.13
9589.73
9590.34
9590.94
9591.54
9592.14
9592.75
9593.35
9593.95
9594.55
9595.16
9595.76
9596.36
9596.97
9597.57
9598.17
9598.78
9599.38
9599.98
9600.59
9601.19
9601.79
9602.4
9603
9603.6
9604.21
9604.81
9605.41
9606.02
9606.62
9607.22
9607.83
9608.43
9609.04
9609.64
9610.24
9610.85
9611.45
9612.06
9612.66
9613.26
9613.87
9614.47
9615.08
9615.68
9616.29
9616.89
9617.49
9618.1
9618.7
9619.31
9619.91
9620.52
9621.12
9621.73
9622.33
9622.94
9623.54
9624.15
9624.75
9625.36
9625.96
9626.57
9627.17
9627.78
9628.38
9628.99
9629.59
9630.2
9630.8
9631.41
9632.02
9632.62
9633.23
9633.83
9634.44
9635.04
9635.65
9636.26
9636.86
9637.47
9638.07
9638.68
9639.29
9639.89
9640.5
9641.1
9641.71
9642.32
9642.92
9643.53
9644.14
9644.74
9645.35
9645.95
9646.56
9647.17
9647.77
9648.38
9648.99
9649.59
9650.2
9650.81
9651.42
9652.02
9652.63
9653.24
9653.84
9654.45
9655.06
9655.67
9656.27
9656.88
9657.49
9658.09
9658.7
9659.31
9659.92
9660.52
9661.13
9661.74
9662.35
9662.96
9663.56
9664.17
9664.78
9665.39
9665.99
9666.6
9667.21
9667.82
9668.43
9669.04
9669.64
9670.25
9670.86
9671.47
9672.08
9672.69
9673.29
9673.9
9674.51
9675.12
9675.73
9676.34
9676.95
9677.55
9678.16
9678.77
9679.38
9679.99
9680.6
9681.21
9681.82
9682.43
9683.04
9683.64
9684.25
9684.86
9685.47
9686.08
9686.69
9687.3
9687.91
9688.52
9689.13
9689.74
9690.35
9690.96
9691.57
9692.18
9692.79
9693.4
9694.01
9694.62
9695.23
9695.84
9696.45
9697.06
9697.67
9698.28
9698.89
9699.5
9700.11
9700.72
9701.33
9701.94
9702.55
9703.16
9703.77