/*--------------------------------*- C++ -*----------------------------------*\
  =========                 |
  \\      /  F ield         | OpenFOAM: The Open Source CFD Toolbox
   \\    /   O peration     | Website:  https://openfoam.org
    \\  /    A nd           | Version:  9
     \\/     M anipulation  |
\*---------------------------------------------------------------------------*/
FoamFile
{
    format      ascii;
    class       surfaceScalarField;
    location    "0.05";
    object      phi;
}
// * * * * * * * * * * * * * * * * * * * * * * * * * * * * * * * * * * * * * //

dimensions      [1 0 -1 0 0 0 0];

internalField   nonuniform List<scalar> 
9999
(
5.89431
5.90668
5.91904
5.9314
5.94376
5.95611
5.96846
5.98081
5.99316
6.00551
6.01785
6.03019
6.04253
6.05487
6.0672
6.07953
6.09186
6.10419
6.11651
6.12884
6.14115
6.15347
6.16578
6.17809
6.1904
6.20271
6.21501
6.22731
6.2396
6.25189
6.26418
6.27647
6.28875
6.30103
6.31331
6.32558
6.33785
6.35011
6.36237
6.37463
6.38688
6.39913
6.41137
6.42361
6.43585
6.44808
6.46031
6.47253
6.48475
6.49697
6.50918
6.52138
6.53358
6.54578
6.55797
6.57016
6.58234
6.59451
6.60668
6.61885
6.63101
6.64317
6.65531
6.66746
6.6796
6.69173
6.70386
6.71598
6.72809
6.7402
6.75231
6.7644
6.77649
6.78858
6.80066
6.81273
6.8248
6.83686
6.84891
6.86095
6.87299
6.88503
6.89705
6.90907
6.92108
6.93309
6.94508
6.95707
6.96906
6.98103
6.993
7.00496
7.01691
7.02886
7.0408
7.05273
7.06465
7.07656
7.08847
7.10037
7.11225
7.12414
7.13601
7.14787
7.15973
7.17158
7.18341
7.19524
7.20706
7.21888
7.23068
7.24247
7.25426
7.26603
7.2778
7.28956
7.3013
7.31304
7.32477
7.33649
7.3482
7.3599
7.37159
7.38327
7.39494
7.40659
7.41824
7.42988
7.44151
7.45313
7.46474
7.47633
7.48792
7.49949
7.51106
7.52261
7.53415
7.54568
7.55721
7.56872
7.58021
7.5917
7.60318
7.61464
7.62609
7.63753
7.64896
7.66038
7.67178
7.68318
7.69456
7.70593
7.71729
7.72864
7.73997
7.75129
7.7626
7.7739
7.78518
7.79645
7.80771
7.81896
7.83019
7.84141
7.85262
7.86381
7.87499
7.88616
7.89731
7.90845
7.91958
7.93069
7.9418
7.95288
7.96395
7.97501
7.98605
7.99708
8.0081
8.01909
8.03008
8.04105
8.05201
8.06296
8.07389
8.0848
8.0957
8.10659
8.11746
8.12831
8.13915
8.14997
8.16078
8.17157
8.18235
8.19312
8.20387
8.2146
8.22532
8.23603
8.24671
8.25738
8.26804
8.27867
8.28929
8.2999
8.31049
8.32106
8.33163
8.34217
8.3527
8.36322
8.37372
8.3842
8.39466
8.40511
8.41554
8.42595
8.43634
8.44672
8.45708
8.46742
8.47775
8.48807
8.49837
8.50865
8.51892
8.52917
8.53941
8.54962
8.55982
8.56999
8.58015
8.59029
8.60041
8.61052
8.62061
8.63068
8.64074
8.65078
8.6608
8.67081
8.68081
8.69078
8.70074
8.71068
8.72061
8.73051
8.7404
8.75026
8.76011
8.76993
8.77974
8.78953
8.7993
8.80905
8.81879
8.82851
8.83822
8.84791
8.85759
8.86725
8.87689
8.88652
8.89613
8.90572
8.9153
8.92485
8.93439
8.9439
8.9534
8.96287
8.97233
8.98176
8.99118
9.00058
9.00996
9.01932
9.02867
9.038
9.04732
9.05662
9.0659
9.07517
9.08443
9.09367
9.1029
9.11211
9.12131
9.13049
9.13965
9.1488
9.15792
9.16703
9.17612
9.18519
9.19424
9.20327
9.21228
9.22127
9.23024
9.23919
9.24813
9.25704
9.26594
9.27481
9.28368
9.29252
9.30135
9.31017
9.31897
9.32776
9.33653
9.34529
9.35404
9.36278
9.37151
9.38022
9.38893
9.39762
9.4063
9.41498
9.42364
9.4323
9.44094
9.44958
9.4582
9.46681
9.47541
9.484
9.49258
9.50115
9.5097
9.51824
9.52677
9.53528
9.54378
9.55227
9.56074
9.5692
9.57765
9.58609
9.59451
9.60293
9.61133
9.61973
9.62811
9.63648
9.64485
9.65319
9.66153
9.66986
9.67817
9.68648
9.69477
9.70305
9.71131
9.71957
9.72781
9.73605
9.74427
9.75248
9.76068
9.76887
9.77705
9.78522
9.79337
9.80152
9.80966
9.81779
9.8259
9.83401
9.84211
9.8502
9.85828
9.86635
9.87441
9.88246
9.8905
9.89853
9.90656
9.91457
9.92258
9.93058
9.93857
9.94655
9.95453
9.96249
9.97045
9.9784
9.98635
9.99428
10.0022
10.0101
10.018
10.026
10.0339
10.0417
10.0496
10.0575
10.0654
10.0733
10.0811
10.089
10.0968
10.1047
10.1125
10.1203
10.1282
10.136
10.1438
10.1516
10.1594
10.1672
10.175
10.1828
10.1906
10.1984
10.2061
10.2139
10.2217
10.2294
10.2372
10.2449
10.2527
10.2604
10.2682
10.2759
10.2837
10.2914
10.2991
10.3068
10.3146
10.3223
10.33
10.3377
10.3454
10.3531
10.3608
10.3685
10.3762
10.3839
10.3916
10.3993
10.407
10.4147
10.4224
10.43
10.4377
10.4454
10.4531
10.4608
10.4684
10.4761
10.4838
10.4914
10.4991
10.5068
10.5144
10.5221
10.5297
10.5374
10.5451
10.5527
10.5604
10.568
10.5757
10.5833
10.591
10.5986
10.6063
10.6139
10.6216
10.6292
10.6369
10.6445
10.6522
10.6598
10.6675
10.6751
10.6827
10.6904
10.698
10.7057
10.7133
10.721
10.7286
10.7363
10.7439
10.7515
10.7592
10.7668
10.7745
10.7821
10.7898
10.7974
10.8051
10.8127
10.8203
10.828
10.8356
10.8433
10.8509
10.8586
10.8662
10.8739
10.8815
10.8892
10.8968
10.9045
10.9121
10.9198
10.9274
10.9351
10.9427
10.9504
10.9581
10.9657
10.9734
10.981
10.9887
10.9963
11.004
11.0117
11.0193
11.027
11.0347
11.0423
11.05
11.0577
11.0653
11.073
11.0807
11.0883
11.096
11.1037
11.1114
11.119
11.1267
11.1344
11.1421
11.1497
11.1574
11.1651
11.1728
11.1805
11.1882
11.1958
11.2035
11.2112
11.2189
11.2266
11.2343
11.242
11.2497
11.2574
11.2651
11.2728
11.2805
11.2882
11.2959
11.3036
11.3113
11.319
11.3267
11.3344
11.3421
11.3498
11.3575
11.3652
11.373
11.3807
11.3884
11.3961
11.4038
11.4115
11.4193
11.427
11.4347
11.4424
11.4502
11.4579
11.4656
11.4734
11.4811
11.4888
11.4966
11.5043
11.512
11.5198
11.5275
11.5353
11.543
11.5507
11.5585
11.5662
11.574
11.5817
11.5895
11.5972
11.605
11.6127
11.6205
11.6283
11.636
11.6438
11.6515
11.6593
11.6671
11.6748
11.6826
11.6904
11.6981
11.7059
11.7137
11.7214
11.7292
11.737
11.7448
11.7526
11.7603
11.7681
11.7759
11.7837
11.7915
11.7992
11.807
11.8148
11.8226
11.8304
11.8382
11.846
11.8538
11.8616
11.8694
11.8772
11.885
11.8928
11.9006
11.9084
11.9162
11.924
11.9318
11.9396
11.9474
11.9552
11.9631
11.9709
11.9787
11.9865
11.9943
12.0021
12.01
12.0178
12.0256
12.0334
12.0413
12.0491
12.0569
12.0647
12.0726
12.0804
12.0882
12.0961
12.1039
12.1118
12.1196
12.1274
12.1353
12.1431
12.151
12.1588
12.1667
12.1745
12.1824
12.1902
12.1981
12.2059
12.2138
12.2216
12.2295
12.2373
12.2452
12.253
12.2609
12.2688
12.2766
12.2845
12.2924
12.3002
12.3081
12.316
12.3238
12.3317
12.3396
12.3475
12.3553
12.3632
12.3711
12.379
12.3869
12.3947
12.4026
12.4105
12.4184
12.4263
12.4342
12.4421
12.45
12.4579
12.4657
12.4736
12.4815
12.4894
12.4973
12.5052
12.5131
12.521
12.5289
12.5368
12.5447
12.5527
12.5606
12.5685
12.5764
12.5843
12.5922
12.6001
12.608
12.616
12.6239
12.6318
12.6397
12.6476
12.6556
12.6635
12.6714
12.6793
12.6873
12.6952
12.7031
12.711
12.719
12.7269
12.7348
12.7428
12.7507
12.7587
12.7666
12.7745
12.7825
12.7904
12.7984
12.8063
12.8143
12.8222
12.8302
12.8381
12.8461
12.854
12.862
12.8699
12.8779
12.8858
12.8938
12.9017
12.9097
12.9177
12.9256
12.9336
12.9416
12.9495
12.9575
12.9655
12.9734
12.9814
12.9894
12.9973
13.0053
13.0133
13.0213
13.0293
13.0372
13.0452
13.0532
13.0612
13.0692
13.0771
13.0851
13.0931
13.1011
13.1091
13.1171
13.1251
13.1331
13.1411
13.1491
13.1571
13.1651
13.173
13.181
13.189
13.1971
13.2051
13.2131
13.2211
13.2291
13.2371
13.2451
13.2531
13.2611
13.2691
13.2771
13.2851
13.2932
13.3012
13.3092
13.3172
13.3252
13.3333
13.3413
13.3493
13.3573
13.3654
13.3734
13.3814
13.3894
13.3975
13.4055
13.4135
13.4216
13.4296
13.4376
13.4457
13.4537
13.4617
13.4698
13.4778
13.4859
13.4939
13.502
13.51
13.5181
13.5261
13.5341
13.5422
13.5503
13.5583
13.5664
13.5744
13.5825
13.5905
13.5986
13.6066
13.6147
13.6228
13.6308
13.6389
13.647
13.655
13.6631
13.6712
13.6792
13.6873
13.6954
13.7034
13.7115
13.7196
13.7277
13.7357
13.7438
13.7519
13.76
13.7681
13.7761
13.7842
13.7923
13.8004
13.8085
13.8166
13.8246
13.8327
13.8408
13.8489
13.857
13.8651
13.8732
13.8813
13.8894
13.8975
13.9056
13.9137
13.9218
13.9299
13.938
13.9461
13.9542
13.9623
13.9704
13.9785
13.9866
13.9948
14.0029
14.011
14.0191
14.0272
14.0353
14.0434
14.0516
14.0597
14.0678
14.0759
14.0841
14.0922
14.1003
14.1084
14.1166
14.1247
14.1328
14.1409
14.1491
14.1572
14.1653
14.1735
14.1816
14.1897
14.1979
14.206
14.2142
14.2223
14.2304
14.2386
14.2467
14.2549
14.263
14.2712
14.2793
14.2875
14.2956
14.3038
14.3119
14.3201
14.3282
14.3364
14.3446
14.3527
14.3609
14.369
14.3772
14.3854
14.3935
14.4017
14.4098
14.418
14.4262
14.4343
14.4425
14.4507
14.4589
14.467
14.4752
14.4834
14.4916
14.4997
14.5079
14.5161
14.5243
14.5325
14.5406
14.5488
14.557
14.5652
14.5734
14.5816
14.5897
14.5979
14.6061
14.6143
14.6225
14.6307
14.6389
14.6471
14.6553
14.6635
14.6717
14.6799
14.6881
14.6963
14.7045
14.7127
14.7209
14.7291
14.7373
14.7455
14.7537
14.7619
14.7702
14.7784
14.7866
14.7948
14.803
14.8112
14.8194
14.8277
14.8359
14.8441
14.8523
14.8605
14.8688
14.877
14.8852
14.8934
14.9017
14.9099
14.9181
14.9264
14.9346
14.9428
14.9511
14.9593
14.9675
14.9758
14.984
14.9923
15.0005
15.0087
15.017
15.0252
15.0335
15.0417
15.05
15.0582
15.0664
15.0747
15.0829
15.0912
15.0995
15.1077
15.116
15.1242
15.1325
15.1407
15.149
15.1572
15.1655
15.1738
15.182
15.1903
15.1986
15.2068
15.2151
15.2234
15.2316
15.2399
15.2482
15.2564
15.2647
15.273
15.2813
15.2895
15.2978
15.3061
15.3144
15.3227
15.3309
15.3392
15.3475
15.3558
15.3641
15.3724
15.3806
15.3889
15.3972
15.4055
15.4138
15.4221
15.4304
15.4387
15.447
15.4553
15.4636
15.4719
15.4802
15.4885
15.4968
15.5051
15.5134
15.5217
15.53
15.5383
15.5466
15.5549
15.5632
15.5715
15.5798
15.5882
15.5965
15.6048
15.6131
15.6214
15.6297
15.638
15.6464
15.6547
15.663
15.6713
15.6797
15.688
15.6963
15.7046
15.713
15.7213
15.7296
15.7379
15.7463
15.7546
15.7629
15.7713
15.7796
15.788
15.7963
15.8046
15.813
15.8213
15.8297
15.838
15.8463
15.8547
15.863
15.8714
15.8797
15.8881
15.8964
15.9048
15.9131
15.9215
15.9298
15.9382
15.9465
15.9549
15.9633
15.9716
15.98
15.9883
15.9967
16.0051
16.0134
16.0218
16.0302
16.0385
16.0469
16.0553
16.0636
16.072
16.0804
16.0887
16.0971
16.1055
16.1139
16.1223
16.1306
16.139
16.1474
16.1558
16.1642
16.1725
16.1809
16.1893
16.1977
16.2061
16.2145
16.2229
16.2312
16.2396
16.248
16.2564
16.2648
16.2732
16.2816
16.29
16.2984
16.3068
16.3152
16.3236
16.332
16.3404
16.3488
16.3572
16.3656
16.374
16.3824
16.3908
16.3993
16.4077
16.4161
16.4245
16.4329
16.4413
16.4497
16.4582
16.4666
16.475
16.4834
16.4918
16.5003
16.5087
16.5171
16.5255
16.534
16.5424
16.5508
16.5592
16.5677
16.5761
16.5845
16.593
16.6014
16.6098
16.6183
16.6267
16.6351
16.6436
16.652
16.6605
16.6689
16.6773
16.6858
16.6942
16.7027
16.7111
16.7196
16.728
16.7365
16.7449
16.7534
16.7618
16.7703
16.7787
16.7872
16.7957
16.8041
16.8126
16.821
16.8295
16.838
16.8464
16.8549
16.8633
16.8718
16.8803
16.8887
16.8972
16.9057
16.9142
16.9226
16.9311
16.9396
16.9481
16.9565
16.965
16.9735
16.982
16.9904
16.9989
17.0074
17.0159
17.0244
17.0329
17.0413
17.0498
17.0583
17.0668
17.0753
17.0838
17.0923
17.1008
17.1093
17.1178
17.1263
17.1347
17.1432
17.1517
17.1602
17.1687
17.1772
17.1857
17.1942
17.2028
17.2113
17.2198
17.2283
17.2368
17.2453
17.2538
17.2623
17.2708
17.2793
17.2879
17.2964
17.3049
17.3134
17.3219
17.3304
17.339
17.3475
17.356
17.3645
17.373
17.3816
17.3901
17.3986
17.4072
17.4157
17.4242
17.4327
17.4413
17.4498
17.4583
17.4669
17.4754
17.484
17.4925
17.501
17.5096
17.5181
17.5267
17.5352
17.5437
17.5523
17.5608
17.5694
17.5779
17.5865
17.595
17.6036
17.6121
17.6207
17.6292
17.6378
17.6463
17.6549
17.6635
17.672
17.6806
17.6891
17.6977
17.7063
17.7148
17.7234
17.7319
17.7405
17.7491
17.7576
17.7662
17.7748
17.7834
17.7919
17.8005
17.8091
17.8177
17.8262
17.8348
17.8434
17.852
17.8605
17.8691
17.8777
17.8863
17.8949
17.9035
17.912
17.9206
17.9292
17.9378
17.9464
17.955
17.9636
17.9722
17.9808
17.9894
17.9979
18.0065
18.0151
18.0237
18.0323
18.0409
18.0495
18.0581
18.0667
18.0754
18.084
18.0926
18.1012
18.1098
18.1184
18.127
18.1356
18.1442
18.1528
18.1614
18.1701
18.1787
18.1873
18.1959
18.2045
18.2131
18.2218
18.2304
18.239
18.2476
18.2563
18.2649
18.2735
18.2821
18.2908
18.2994
18.308
18.3167
18.3253
18.3339
18.3426
18.3512
18.3598
18.3685
18.3771
18.3857
18.3944
18.403
18.4117
18.4203
18.4289
18.4376
18.4462
18.4549
18.4635
18.4722
18.4808
18.4895
18.4981
18.5068
18.5154
18.5241
18.5327
18.5414
18.5501
18.5587
18.5674
18.576
18.5847
18.5934
18.602
18.6107
18.6193
18.628
18.6367
18.6453
18.654
18.6627
18.6714
18.68
18.6887
18.6974
18.706
18.7147
18.7234
18.7321
18.7408
18.7494
18.7581
18.7668
18.7755
18.7842
18.7928
18.8015
18.8102
18.8189
18.8276
18.8363
18.845
18.8537
18.8623
18.871
18.8797
18.8884
18.8971
18.9058
18.9145
18.9232
18.9319
18.9406
18.9493
18.958
18.9667
18.9754
18.9841
18.9928
19.0015
19.0102
19.019
19.0277
19.0364
19.0451
19.0538
19.0625
19.0712
19.0799
19.0887
19.0974
19.1061
19.1148
19.1235
19.1323
19.141
19.1497
19.1584
19.1671
19.1759
19.1846
19.1933
19.2021
19.2108
19.2195
19.2282
19.237
19.2457
19.2544
19.2632
19.2719
19.2807
19.2894
19.2981
19.3069
19.3156
19.3244
19.3331
19.3418
19.3506
19.3593
19.3681
19.3768
19.3856
19.3943
19.4031
19.4118
19.4206
19.4293
19.4381
19.4468
19.4556
19.4644
19.4731
19.4819
19.4906
19.4994
19.5082
19.5169
19.5257
19.5344
19.5432
19.552
19.5607
19.5695
19.5783
19.5871
19.5958
19.6046
19.6134
19.6221
19.6309
19.6397
19.6485
19.6573
19.666
19.6748
19.6836
19.6924
19.7012
19.7099
19.7187
19.7275
19.7363
19.7451
19.7539
19.7627
19.7715
19.7803
19.789
19.7978
19.8066
19.8154
19.8242
19.833
19.8418
19.8506
19.8594
19.8682
19.877
19.8858
19.8946
19.9034
19.9122
19.921
19.9299
19.9387
19.9475
19.9563
19.9651
19.9739
19.9827
19.9915
20.0004
20.0092
20.018
20.0268
20.0356
20.0444
20.0533
20.0621
20.0709
20.0797
20.0886
20.0974
20.1062
20.115
20.1239
20.1327
20.1415
20.1504
20.1592
20.168
20.1769
20.1857
20.1945
20.2034
20.2122
20.2211
20.2299
20.2387
20.2476
20.2564
20.2653
20.2741
20.283
20.2918
20.3006
20.3095
20.3183
20.3272
20.3361
20.3449
20.3538
20.3626
20.3715
20.3803
20.3892
20.398
20.4069
20.4158
20.4246
20.4335
20.4423
20.4512
20.4601
20.4689
20.4778
20.4867
20.4955
20.5044
20.5133
20.5222
20.531
20.5399
20.5488
20.5577
20.5665
20.5754
20.5843
20.5932
20.6021
20.6109
20.6198
20.6287
20.6376
20.6465
20.6554
20.6642
20.6731
20.682
20.6909
20.6998
20.7087
20.7176
20.7265
20.7354
20.7443
20.7532
20.7621
20.771
20.7799
20.7888
20.7977
20.8066
20.8155
20.8244
20.8333
20.8422
20.8511
20.86
20.8689
20.8778
20.8867
20.8957
20.9046
20.9135
20.9224
20.9313
20.9402
20.9491
20.9581
20.967
20.9759
20.9848
20.9938
21.0027
21.0116
21.0205
21.0295
21.0384
21.0473
21.0562
21.0652
21.0741
21.083
21.092
21.1009
21.1098
21.1188
21.1277
21.1367
21.1456
21.1545
21.1635
21.1724
21.1814
21.1903
21.1992
21.2082
21.2171
21.2261
21.235
21.244
21.2529
21.2619
21.2708
21.2798
21.2888
21.2977
21.3067
21.3156
21.3246
21.3335
21.3425
21.3515
21.3604
21.3694
21.3784
21.3873
21.3963
21.4053
21.4142
21.4232
21.4322
21.4411
21.4501
21.4591
21.4681
21.477
21.486
21.495
21.504
21.5129
21.5219
21.5309
21.5399
21.5489
21.5578
21.5668
21.5758
21.5848
21.5938
21.6028
21.6118
21.6208
21.6298
21.6387
21.6477
21.6567
21.6657
21.6747
21.6837
21.6927
21.7017
21.7107
21.7197
21.7287
21.7377
21.7467
21.7557
21.7647
21.7737
21.7828
21.7918
21.8008
21.8098
21.8188
21.8278
21.8368
21.8458
21.8549
21.8639
21.8729
21.8819
21.8909
21.8999
21.909
21.918
21.927
21.936
21.9451
21.9541
21.9631
21.9721
21.9812
21.9902
21.9992
22.0083
22.0173
22.0263
22.0354
22.0444
22.0534
22.0625
22.0715
22.0806
22.0896
22.0986
22.1077
22.1167
22.1258
22.1348
22.1439
22.1529
22.162
22.171
22.1801
22.1891
22.1982
22.2072
22.2163
22.2253
22.2344
22.2434
22.2525
22.2616
22.2706
22.2797
22.2887
22.2978
22.3069
22.3159
22.325
22.3341
22.3431
22.3522
22.3613
22.3703
22.3794
22.3885
22.3976
22.4066
22.4157
22.4248
22.4339
22.4429
22.452
22.4611
22.4702
22.4793
22.4883
22.4974
22.5065
22.5156
22.5247
22.5338
22.5429
22.552
22.5611
22.5701
22.5792
22.5883
22.5974
22.6065
22.6156
22.6247
22.6338
22.6429
22.652
22.6611
22.6702
22.6793
22.6884
22.6975
22.7066
22.7157
22.7249
22.734
22.7431
22.7522
22.7613
22.7704
22.7795
22.7886
22.7978
22.8069
22.816
22.8251
22.8342
22.8434
22.8525
22.8616
22.8707
22.8798
22.889
22.8981
22.9072
22.9164
22.9255
22.9346
22.9437
22.9529
22.962
22.9711
22.9803
22.9894
22.9986
23.0077
23.0168
23.026
23.0351
23.0443
23.0534
23.0625
23.0717
23.0808
23.09
23.0991
23.1083
23.1174
23.1266
23.1357
23.1449
23.154
23.1632
23.1724
23.1815
23.1907
23.1998
23.209
23.2181
23.2273
23.2365
23.2456
23.2548
23.264
23.2731
23.2823
23.2915
23.3006
23.3098
23.319
23.3282
23.3373
23.3465
23.3557
23.3648
23.374
23.3832
23.3924
23.4016
23.4107
23.4199
23.4291
23.4383
23.4475
23.4567
23.4659
23.475
23.4842
23.4934
23.5026
23.5118
23.521
23.5302
23.5394
23.5486
23.5578
23.567
23.5762
23.5854
23.5946
23.6038
23.613
23.6222
23.6314
23.6406
23.6498
23.659
23.6682
23.6774
23.6866
23.6958
23.705
23.7143
23.7235
23.7327
23.7419
23.7511
23.7603
23.7696
23.7788
23.788
23.7972
23.8064
23.8157
23.8249
23.8341
23.8433
23.8526
23.8618
23.871
23.8802
23.8895
23.8987
23.9079
23.9172
23.9264
23.9356
23.9449
23.9541
23.9634
23.9726
23.9818
23.9911
24.0003
24.0096
24.0188
24.0281
24.0373
24.0466
24.0558
24.0651
24.0743
24.0836
24.0928
24.1021
24.1113
24.1206
24.1298
24.1391
24.1483
24.1576
24.1669
24.1761
24.1854
24.1946
24.2039
24.2132
24.2224
24.2317
24.241
24.2502
24.2595
24.2688
24.2781
24.2873
24.2966
24.3059
24.3151
24.3244
24.3337
24.343
24.3523
24.3615
24.3708
24.3801
24.3894
24.3987
24.408
24.4172
24.4265
24.4358
24.4451
24.4544
24.4637
24.473
24.4823
24.4916
24.5009
24.5102
24.5195
24.5287
24.538
24.5473
24.5566
24.5659
24.5753
24.5846
24.5939
24.6032
24.6125
24.6218
24.6311
24.6404
24.6497
24.659
24.6683
24.6776
24.687
24.6963
24.7056
24.7149
24.7242
24.7335
24.7429
24.7522
24.7615
24.7708
24.7801
24.7895
24.7988
24.8081
24.8175
24.8268
24.8361
24.8454
24.8548
24.8641
24.8734
24.8828
24.8921
24.9014
24.9108
24.9201
24.9295
24.9388
24.9481
24.9575
24.9668
24.9762
24.9855
24.9949
25.0042
25.0136
25.0229
25.0323
25.0416
25.051
25.0603
25.0697
25.079
25.0884
25.0977
25.1071
25.1164
25.1258
25.1352
25.1445
25.1539
25.1633
25.1726
25.182
25.1913
25.2007
25.2101
25.2195
25.2288
25.2382
25.2476
25.2569
25.2663
25.2757
25.2851
25.2944
25.3038
25.3132
25.3226
25.332
25.3413
25.3507
25.3601
25.3695
25.3789
25.3883
25.3977
25.407
25.4164
25.4258
25.4352
25.4446
25.454
25.4634
25.4728
25.4822
25.4916
25.501
25.5104
25.5198
25.5292
25.5386
25.548
25.5574
25.5668
25.5762
25.5856
25.595
25.6044
25.6138
25.6232
25.6327
25.6421
25.6515
25.6609
25.6703
25.6797
25.6891
25.6986
25.708
25.7174
25.7268
25.7363
25.7457
25.7551
25.7645
25.774
25.7834
25.7928
25.8022
25.8117
25.8211
25.8305
25.84
25.8494
25.8588
25.8683
25.8777
25.8871
25.8966
25.906
25.9155
25.9249
25.9344
25.9438
25.9532
25.9627
25.9721
25.9816
25.991
26.0005
26.0099
26.0194
26.0288
26.0383
26.0477
26.0572
26.0667
26.0761
26.0856
26.095
26.1045
26.114
26.1234
26.1329
26.1423
26.1518
26.1613
26.1707
26.1802
26.1897
26.1992
26.2086
26.2181
26.2276
26.237
26.2465
26.256
26.2655
26.275
26.2844
26.2939
26.3034
26.3129
26.3224
26.3318
26.3413
26.3508
26.3603
26.3698
26.3793
26.3888
26.3983
26.4078
26.4172
26.4267
26.4362
26.4457
26.4552
26.4647
26.4742
26.4837
26.4932
26.5027
26.5122
26.5217
26.5312
26.5407
26.5503
26.5598
26.5693
26.5788
26.5883
26.5978
26.6073
26.6168
26.6263
26.6359
26.6454
26.6549
26.6644
26.6739
26.6834
26.693
26.7025
26.712
26.7215
26.7311
26.7406
26.7501
26.7596
26.7692
26.7787
26.7882
26.7978
26.8073
26.8168
26.8264
26.8359
26.8454
26.855
26.8645
26.8741
26.8836
26.8931
26.9027
26.9122
26.9218
26.9313
26.9409
26.9504
26.96
26.9695
26.9791
26.9886
26.9982
27.0077
27.0173
27.0268
27.0364
27.046
27.0555
27.0651
27.0746
27.0842
27.0938
27.1033
27.1129
27.1225
27.132
27.1416
27.1512
27.1607
27.1703
27.1799
27.1894
27.199
27.2086
27.2182
27.2277
27.2373
27.2469
27.2565
27.2661
27.2756
27.2852
27.2948
27.3044
27.314
27.3236
27.3331
27.3427
27.3523
27.3619
27.3715
27.3811
27.3907
27.4003
27.4099
27.4195
27.4291
27.4387
27.4483
27.4579
27.4675
27.4771
27.4867
27.4963
27.5059
27.5155
27.5251
27.5347
27.5443
27.5539
27.5635
27.5731
27.5828
27.5924
27.602
27.6116
27.6212
27.6308
27.6405
27.6501
27.6597
27.6693
27.6789
27.6886
27.6982
27.7078
27.7174
27.7271
27.7367
27.7463
27.756
27.7656
27.7752
27.7849
27.7945
27.8041
27.8138
27.8234
27.833
27.8427
27.8523
27.862
27.8716
27.8813
27.8909
27.9005
27.9102
27.9198
27.9295
27.9391
27.9488
27.9584
27.9681
27.9777
27.9874
27.9971
28.0067
28.0164
28.026
28.0357
28.0453
28.055
28.0647
28.0743
28.084
28.0937
28.1033
28.113
28.1227
28.1323
28.142
28.1517
28.1613
28.171
28.1807
28.1904
28.2
28.2097
28.2194
28.2291
28.2388
28.2484
28.2581
28.2678
28.2775
28.2872
28.2969
28.3066
28.3162
28.3259
28.3356
28.3453
28.355
28.3647
28.3744
28.3841
28.3938
28.4035
28.4132
28.4229
28.4326
28.4423
28.452
28.4617
28.4714
28.4811
28.4908
28.5005
28.5102
28.5199
28.5296
28.5393
28.5491
28.5588
28.5685
28.5782
28.5879
28.5976
28.6073
28.6171
28.6268
28.6365
28.6462
28.656
28.6657
28.6754
28.6851
28.6949
28.7046
28.7143
28.724
28.7338
28.7435
28.7532
28.763
28.7727
28.7824
28.7922
28.8019
28.8117
28.8214
28.8311
28.8409
28.8506
28.8604
28.8701
28.8799
28.8896
28.8993
28.9091
28.9188
28.9286
28.9384
28.9481
28.9579
28.9676
28.9774
28.9871
28.9969
29.0066
29.0164
29.0262
29.0359
29.0457
29.0554
29.0652
29.075
29.0847
29.0945
29.1043
29.1141
29.1238
29.1336
29.1434
29.1531
29.1629
29.1727
29.1825
29.1922
29.202
29.2118
29.2216
29.2314
29.2411
29.2509
29.2607
29.2705
29.2803
29.2901
29.2999
29.3097
29.3194
29.3292
29.339
29.3488
29.3586
29.3684
29.3782
29.388
29.3978
29.4076
29.4174
29.4272
29.437
29.4468
29.4566
29.4664
29.4762
29.486
29.4958
29.5057
29.5155
29.5253
29.5351
29.5449
29.5547
29.5645
29.5744
29.5842
29.594
29.6038
29.6136
29.6234
29.6333
29.6431
29.6529
29.6627
29.6726
29.6824
29.6922
29.7021
29.7119
29.7217
29.7316
29.7414
29.7512
29.7611
29.7709
29.7807
29.7906
29.8004
29.8102
29.8201
29.8299
29.8398
29.8496
29.8595
29.8693
29.8792
29.889
29.8989
29.9087
29.9186
29.9284
29.9383
29.9481
29.958
29.9678
29.9777
29.9875
29.9974
30.0073
30.0171
30.027
30.0369
30.0467
30.0566
30.0664
30.0763
30.0862
30.0961
30.1059
30.1158
30.1257
30.1355
30.1454
30.1553
30.1652
30.175
30.1849
30.1948
30.2047
30.2146
30.2244
30.2343
30.2442
30.2541
30.264
30.2739
30.2838
30.2937
30.3035
30.3134
30.3233
30.3332
30.3431
30.353
30.3629
30.3728
30.3827
30.3926
30.4025
30.4124
30.4223
30.4322
30.4421
30.452
30.4619
30.4718
30.4817
30.4917
30.5016
30.5115
30.5214
30.5313
30.5412
30.5511
30.561
30.571
30.5809
30.5908
30.6007
30.6106
30.6206
30.6305
30.6404
30.6503
30.6603
30.6702
30.6801
30.6901
30.7
30.7099
30.7198
30.7298
30.7397
30.7497
30.7596
30.7695
30.7795
30.7894
30.7993
30.8093
30.8192
30.8292
30.8391
30.8491
30.859
30.869
30.8789
30.8889
30.8988
30.9088
30.9187
30.9287
30.9386
30.9486
30.9585
30.9685
30.9784
30.9884
30.9984
31.0083
31.0183
31.0283
31.0382
31.0482
31.0582
31.0681
31.0781
31.0881
31.098
31.108
31.118
31.1279
31.1379
31.1479
31.1579
31.1679
31.1778
31.1878
31.1978
31.2078
31.2178
31.2277
31.2377
31.2477
31.2577
31.2677
31.2777
31.2877
31.2977
31.3077
31.3176
31.3276
31.3376
31.3476
31.3576
31.3676
31.3776
31.3876
31.3976
31.4076
31.4176
31.4276
31.4376
31.4476
31.4577
31.4677
31.4777
31.4877
31.4977
31.5077
31.5177
31.5277
31.5377
31.5478
31.5578
31.5678
31.5778
31.5878
31.5979
31.6079
31.6179
31.6279
31.638
31.648
31.658
31.668
31.6781
31.6881
31.6981
31.7082
31.7182
31.7282
31.7383
31.7483
31.7583
31.7684
31.7784
31.7885
31.7985
31.8085
31.8186
31.8286
31.8387
31.8487
31.8588
31.8688
31.8789
31.8889
31.899
31.909
31.9191
31.9291
31.9392
31.9492
31.9593
31.9694
31.9794
31.9895
31.9995
32.0096
32.0197
32.0297
32.0398
32.0499
32.0599
32.07
32.0801
32.0901
32.1002
32.1103
32.1204
32.1304
32.1405
32.1506
32.1607
32.1707
32.1808
32.1909
32.201
32.2111
32.2211
32.2312
32.2413
32.2514
32.2615
32.2716
32.2817
32.2918
32.3019
32.3119
32.322
32.3321
32.3422
32.3523
32.3624
32.3725
32.3826
32.3927
32.4028
32.4129
32.423
32.4331
32.4433
32.4534
32.4635
32.4736
32.4837
32.4938
32.5039
32.514
32.5241
32.5343
32.5444
32.5545
32.5646
32.5747
32.5848
32.595
32.6051
32.6152
32.6253
32.6355
32.6456
32.6557
32.6659
32.676
32.6861
32.6962
32.7064
32.7165
32.7266
32.7368
32.7469
32.7571
32.7672
32.7773
32.7875
32.7976
32.8078
32.8179
32.8281
32.8382
32.8483
32.8585
32.8686
32.8788
32.8889
32.8991
32.9092
32.9194
32.9296
32.9397
32.9499
32.96
32.9702
32.9804
32.9905
33.0007
33.0108
33.021
33.0312
33.0413
33.0515
33.0617
33.0718
33.082
33.0922
33.1024
33.1125
33.1227
33.1329
33.1431
33.1532
33.1634
33.1736
33.1838
33.194
33.2041
33.2143
33.2245
33.2347
33.2449
33.2551
33.2653
33.2754
33.2856
33.2958
33.306
33.3162
33.3264
33.3366
33.3468
33.357
33.3672
33.3774
33.3876
33.3978
33.408
33.4182
33.4284
33.4386
33.4488
33.459
33.4693
33.4795
33.4897
33.4999
33.5101
33.5203
33.5305
33.5408
33.551
33.5612
33.5714
33.5816
33.5919
33.6021
33.6123
33.6225
33.6327
33.643
33.6532
33.6634
33.6737
33.6839
33.6941
33.7044
33.7146
33.7248
33.7351
33.7453
33.7555
33.7658
33.776
33.7863
33.7965
33.8067
33.817
33.8272
33.8375
33.8477
33.858
33.8682
33.8785
33.8887
33.899
33.9092
33.9195
33.9298
33.94
33.9503
33.9605
33.9708
33.981
33.9913
34.0016
34.0118
34.0221
34.0324
34.0426
34.0529
34.0632
34.0734
34.0837
34.094
34.1043
34.1145
34.1248
34.1351
34.1454
34.1556
34.1659
34.1762
34.1865
34.1968
34.207
34.2173
34.2276
34.2379
34.2482
34.2585
34.2688
34.2791
34.2894
34.2996
34.3099
34.3202
34.3305
34.3408
34.3511
34.3614
34.3717
34.382
34.3923
34.4026
34.4129
34.4232
34.4336
34.4439
34.4542
34.4645
34.4748
34.4851
34.4954
34.5057
34.516
34.5264
34.5367
34.547
34.5573
34.5676
34.5779
34.5883
34.5986
34.6089
34.6192
34.6296
34.6399
34.6502
34.6606
34.6709
34.6812
34.6915
34.7019
34.7122
34.7225
34.7329
34.7432
34.7536
34.7639
34.7742
34.7846
34.7949
34.8053
34.8156
34.826
34.8363
34.8467
34.857
34.8674
34.8777
34.8881
34.8984
34.9088
34.9191
34.9295
34.9398
34.9502
34.9605
34.9709
34.9813
34.9916
35.002
35.0124
35.0227
35.0331
35.0435
35.0538
35.0642
35.0746
35.0849
35.0953
35.1057
35.1161
35.1264
35.1368
35.1472
35.1576
35.1679
35.1783
35.1887
35.1991
35.2095
35.2199
35.2302
35.2406
35.251
35.2614
35.2718
35.2822
35.2926
35.303
35.3134
35.3238
35.3342
35.3446
35.355
35.3654
35.3758
35.3862
35.3966
35.407
35.4174
35.4278
35.4382
35.4486
35.459
35.4694
35.4798
35.4902
35.5006
35.5111
35.5215
35.5319
35.5423
35.5527
35.5631
35.5736
35.584
35.5944
35.6048
35.6153
35.6257
35.6361
35.6465
35.657
35.6674
35.6778
35.6883
35.6987
35.7091
35.7196
35.73
35.7404
35.7509
35.7613
35.7718
35.7822
35.7926
35.8031
35.8135
35.824
35.8344
35.8449
35.8553
35.8658
35.8762
35.8867
35.8971
35.9076
35.918
35.9285
35.9389
35.9494
35.9599
35.9703
35.9808
35.9912
36.0017
36.0122
36.0226
36.0331
36.0436
36.054
36.0645
36.075
36.0854
36.0959
36.1064
36.1169
36.1273
36.1378
36.1483
36.1588
36.1693
36.1797
36.1902
36.2007
36.2112
36.2217
36.2322
36.2426
36.2531
36.2636
36.2741
36.2846
36.2951
36.3056
36.3161
36.3266
36.3371
36.3476
36.3581
36.3686
36.3791
36.3896
36.4001
36.4106
36.4211
36.4316
36.4421
36.4526
36.4631
36.4736
36.4841
36.4946
36.5052
36.5157
36.5262
36.5367
36.5472
36.5577
36.5683
36.5788
36.5893
36.5998
36.6104
36.6209
36.6314
36.6419
36.6525
36.663
36.6735
36.684
36.6946
36.7051
36.7156
36.7262
36.7367
36.7473
36.7578
36.7683
36.7789
36.7894
36.8
36.8105
36.821
36.8316
36.8421
36.8527
36.8632
36.8738
36.8843
36.8949
36.9054
36.916
36.9266
36.9371
36.9477
36.9582
36.9688
36.9793
36.9899
37.0005
37.011
37.0216
37.0322
37.0427
37.0533
37.0639
37.0744
37.085
37.0956
37.1062
37.1167
37.1273
37.1379
37.1485
37.159
37.1696
37.1802
37.1908
37.2014
37.2119
37.2225
37.2331
37.2437
37.2543
37.2649
37.2755
37.2861
37.2966
37.3072
37.3178
37.3284
37.339
37.3496
37.3602
37.3708
37.3814
37.392
37.4026
37.4132
37.4238
37.4344
37.445
37.4557
37.4663
37.4769
37.4875
37.4981
37.5087
37.5193
37.5299
37.5406
37.5512
37.5618
37.5724
37.583
37.5937
37.6043
37.6149
37.6255
37.6362
37.6468
37.6574
37.668
37.6787
37.6893
37.6999
37.7106
37.7212
37.7318
37.7425
37.7531
37.7637
37.7744
37.785
37.7957
37.8063
37.817
37.8276
37.8382
37.8489
37.8595
37.8702
37.8808
37.8915
37.9021
37.9128
37.9234
37.9341
37.9448
37.9554
37.9661
37.9767
37.9874
37.9981
38.0087
38.0194
38.03
38.0407
38.0514
38.062
38.0727
38.0834
38.0941
38.1047
38.1154
38.1261
38.1368
38.1474
38.1581
38.1688
38.1795
38.1901
38.2008
38.2115
38.2222
38.2329
38.2436
38.2543
38.2649
38.2756
38.2863
38.297
38.3077
38.3184
38.3291
38.3398
38.3505
38.3612
38.3719
38.3826
38.3933
38.404
38.4147
38.4254
38.4361
38.4468
38.4575
38.4682
38.4789
38.4896
38.5004
38.5111
38.5218
38.5325
38.5432
38.5539
38.5646
38.5754
38.5861
38.5968
38.6075
38.6182
38.629
38.6397
38.6504
38.6612
38.6719
38.6826
38.6933
38.7041
38.7148
38.7255
38.7363
38.747
38.7577
38.7685
38.7792
38.79
38.8007
38.8114
38.8222
38.8329
38.8437
38.8544
38.8652
38.8759
38.8867
38.8974
38.9082
38.9189
38.9297
38.9404
38.9512
38.9619
38.9727
38.9835
38.9942
39.005
39.0158
39.0265
39.0373
39.048
39.0588
39.0696
39.0803
39.0911
39.1019
39.1127
39.1234
39.1342
39.145
39.1558
39.1665
39.1773
39.1881
39.1989
39.2097
39.2204
39.2312
39.242
39.2528
39.2636
39.2744
39.2852
39.296
39.3067
39.3175
39.3283
39.3391
39.3499
39.3607
39.3715
39.3823
39.3931
39.4039
39.4147
39.4255
39.4363
39.4471
39.4579
39.4687
39.4795
39.4904
39.5012
39.512
39.5228
39.5336
39.5444
39.5552
39.5661
39.5769
39.5877
39.5985
39.6093
39.6202
39.631
39.6418
39.6526
39.6635
39.6743
39.6851
39.6959
39.7068
39.7176
39.7284
39.7393
39.7501
39.7609
39.7718
39.7826
39.7935
39.8043
39.8151
39.826
39.8368
39.8477
39.8585
39.8694
39.8802
39.8911
39.9019
39.9128
39.9236
39.9345
39.9453
39.9562
39.967
39.9779
39.9887
39.9996
40.0105
40.0213
40.0322
40.0431
40.0539
40.0648
40.0757
40.0865
40.0974
40.1083
40.1191
40.13
40.1409
40.1518
40.1626
40.1735
40.1844
40.1953
40.2061
40.217
40.2279
40.2388
40.2497
40.2606
40.2714
40.2823
40.2932
40.3041
40.315
40.3259
40.3368
40.3477
40.3586
40.3695
40.3804
40.3913
40.4022
40.4131
40.424
40.4349
40.4458
40.4567
40.4676
40.4785
40.4894
40.5003
40.5112
40.5221
40.533
40.544
40.5549
40.5658
40.5767
40.5876
40.5985
40.6095
40.6204
40.6313
40.6422
40.6532
40.6641
40.675
40.6859
40.6969
40.7078
40.7187
40.7296
40.7406
40.7515