/*--------------------------------*- C++ -*----------------------------------*\
  =========                 |
  \\      /  F ield         | OpenFOAM: The Open Source CFD Toolbox
   \\    /   O peration     | Website:  https://openfoam.org
    \\  /    A nd           | Version:  9
     \\/     M anipulation  |
\*---------------------------------------------------------------------------*/
FoamFile
{
    format      ascii;
    class       volScalarField;
    location    "0.019";
    object      mag(U);
}
// * * * * * * * * * * * * * * * * * * * * * * * * * * * * * * * * * * * * * //

dimensions      [0 1 -1 0 0 0 0];

internalField   nonuniform List<scalar> 
1000
(
94.4737
95.1575
95.5569
95.9917
96.4177
96.8458
97.2734
97.7011
98.1288
98.5565
98.9842
99.412
99.8397
100.267
100.695
101.123
101.551
101.978
102.406
102.834
103.262
103.69
104.117
104.545
104.973
105.401
105.829
106.256
106.684
107.112
107.54
107.968
108.396
108.824
109.251
109.679
110.107
110.535
110.963
111.391
111.819
112.247
112.675
113.103
113.531
113.959
114.387
114.815
115.243
115.671
116.1
116.528
116.956
117.384
117.812
118.24
118.668
119.097
119.525
119.953
120.381
120.81
121.238
121.666
122.095
122.523
122.951
123.38
123.808
124.236
124.665
125.093
125.522
125.95
126.379
126.807
127.236
127.664
128.093
128.521
128.95
129.379
129.808
130.237
130.666
131.094
131.521
131.949
132.379
132.809
133.239
133.668
134.097
134.527
134.958
135.391
135.824
136.256
136.685
137.112
137.54
137.97
138.402
138.834
139.265
139.694
140.122
140.549
140.978
141.408
141.839
142.271
142.702
143.132
143.563
143.993
144.424
144.855
145.286
145.718
146.149
146.579
147.009
147.438
147.867
148.296
148.727
149.158
149.589
150.018
150.446
150.873
151.3
151.728
152.159
152.594
153.032
153.469
153.902
154.33
154.753
155.175
155.602
156.036
156.477
156.919
157.356
157.785
158.207
158.628
159.055
159.49
159.929
160.368
160.801
161.228
161.653
162.08
162.511
162.945
163.379
163.811
164.241
164.67
165.101
165.535
165.97
166.401
166.829
167.252
167.677
168.108
168.547
168.992
169.437
169.873
170.298
170.716
171.133
171.554
171.982
172.42
172.871
173.33
173.785
174.225
174.643
175.046
175.442
175.843
176.262
176.719
177.219
177.712
178.148
178.541
178.922
179.313
179.732
180.191
180.658
181.088
181.489
181.911
182.46
183.059
183.464
183.773
184.077
184.385
184.677
185.224
186.135
186.803
187.108
187.317
187.541
187.831
188.136
188.429
188.898
189.848
190.844
191.309
191.54
191.557
191.668
191.953
192.286
193.012
194.079
194.739
195.029
195.079
195.084
195.338
195.775
196.703
197.879
198.466
198.741
198.72
198.434
198.587
198.885
199.287
200.143
201.624
202.573
202.973
203.171
202.933
202.682
202.907
203.214
203.719
204.772
206.104
206.745
207.058
207.133
206.889
207.022
207.324
207.779
208.717
209.892
210.472
210.769
210.83
210.78
211.04
211.374
212.017
213.074
213.814
214.165
214.354
214.407
214.672
215.002
215.581
216.531
217.174
217.509
217.725
217.934
218.256
218.624
219.268
220.075
220.51
220.828
221.104
221.435
221.781
222.263
222.984
223.515
223.868
224.204
224.553
224.909
225.352
225.981
226.518
226.904
227.275
227.652
228.051
228.512
229.039
229.513
229.929
230.334
230.747
231.179
231.632
232.087
232.529
232.961
233.39
233.823
234.26
234.699
235.139
235.576
236.012
236.448
236.884
237.321
237.758
238.195
238.632
239.069
239.505
239.942
240.379
240.815
241.252
241.689
242.126
242.562
242.999
243.436
243.873
244.309
244.746
245.183
245.62
246.056
246.493
246.93
247.367
247.803
248.24
248.677
249.113
249.55
249.987
250.423
250.86
251.297
251.734
252.17
252.607
253.044
253.48
253.917
254.354
254.79
255.227
255.664
256.1
256.537
256.973
257.41
257.847
258.283
258.72
259.157
259.593
260.03
260.466
260.903
261.34
261.776
262.213
262.649
263.086
263.522
263.959
264.395
264.832
265.268
265.705
266.141
266.578
267.014
267.451
267.887
268.324
268.76
269.197
269.633
270.069
270.506
270.942
271.379
271.815
272.251
272.687
273.124
273.56
273.996
274.433
274.869
275.305
275.741
276.177
276.613
277.049
277.485
277.921
278.357
278.793
279.229
279.665
280.101
280.536
280.972
281.408
281.843
282.278
282.714
283.149
283.584
284.018
284.453
284.887
285.321
285.755
286.188
286.62
287.051
287.481
287.909
288.334
288.757
289.175
289.587
289.992
290.388
290.771
291.14
291.491
291.823
292.132
292.416
292.673
292.901
293.096
293.258
293.386
293.483
293.553
293.6
293.631
293.65
293.66
293.665
293.667
293.667
293.665
293.655
293.629
293.59
293.551
293.519
293.496
293.478
293.461
293.442
293.418
293.389
293.36
293.334
293.315
293.298
293.28
293.257
293.224
293.182
293.144
293.119
293.106
293.101
293.1
293.102
293.116
293.157
293.217
293.275
293.321
293.355
293.378
293.394
293.405
293.41
293.414
293.417
293.42
293.423
293.425
293.425
293.423
293.418
293.406
293.391
293.378
293.367
293.357
293.347
293.333
293.315
293.294
293.271
293.249
293.227
293.208
293.191
293.18
293.174
293.172
293.173
293.182
293.208
293.246
293.277
293.299
293.316
293.33
293.343
293.355
293.366
293.375
293.38
293.383
293.384
293.383
293.383
293.382
293.382
293.381
293.378
293.373
293.362
293.347
293.334
293.325
293.317
293.31
293.302
293.289
293.268
293.246
293.227
293.214
293.208
293.204
293.203
293.203
293.206
293.215
293.238
293.273
293.303
293.323
293.336
293.344
293.35
293.355
293.361
293.367
293.373
293.378
293.38
293.381
293.381
293.378
293.375
293.372
293.37
293.367
293.363
293.353
293.339
293.326
293.316
293.308
293.303
293.296
293.285
293.266
293.246
293.231
293.222
293.218
293.217
293.219
293.225
293.238
293.257
293.278
293.3
293.32
293.334
293.344
293.352
293.355
293.357
293.359
293.362
293.367
293.371
293.373
293.376
293.374
293.37
293.365
293.36
293.356
293.353
293.349
293.341
293.328
293.316
293.308
293.301
293.293
293.285
293.274
293.258
293.244
293.236
293.233
293.232
293.233
293.241
293.255
293.267
293.279
293.294
293.312
293.327
293.338
293.344
293.346
293.346
293.347
293.348
293.353
293.358
293.362
293.363
293.362
293.359
293.352
293.346
293.343
293.342
293.34
293.336
293.328
293.315
293.303
293.296
293.292
293.288
293.282
293.273
293.258
293.247
293.242
293.241
293.244
293.258
293.277
293.29
293.299
293.305
293.312
293.321
293.332
293.341
293.346
293.348
293.348
293.35
293.35
293.351
293.355
293.358
293.36
293.36
293.356
293.347
293.341
293.338
293.337
293.336
293.335
293.329
293.316
293.304
293.296
293.292
293.288
293.284
293.278
293.269
293.264
293.263
293.263
293.272
293.292
293.308
293.316
293.32
293.322
293.324
293.327
293.333
293.339
293.344
293.345
293.344
293.342
293.34
293.341
293.343
293.344
293.341
293.339
293.33
293.32
293.315
293.314
293.314
293.314
293.312
293.302
293.287
293.274
293.267
293.266
293.266
293.266
293.265
293.262
293.259
293.259
293.263
293.28
293.3
293.313
293.319
293.319
293.317
293.315
293.317
293.325
293.336
293.344
293.345
293.342
293.335
293.331
293.33
293.334
293.337
293.338
293.336
293.327
293.318
293.314
293.313
293.316
293.318
293.317
293.309
293.289
293.274
293.269
293.269
293.273
293.28
293.283
293.284
293.286
293.287
293.292
293.308
293.324
293.332
293.334
293.33
293.321
293.317
293.318
293.328
293.339
293.346
293.349
293.342
293.333
293.328
293.328
293.331
293.334
293.334
293.328
293.313
293.303
293.302
293.306
293.313
293.317
293.316
293.305
293.283
293.267
293.263
293.266
293.281
293.293
293.298
293.304
293.303
293.301
293.305
293.319
293.334
293.337
293.333
293.324
293.313
293.309
293.312
293.328
293.346
293.352
293.35
293.338
293.325
293.318
293.314
293.32
293.327
293.328
293.321
293.305
293.298
293.298
293.302
293.311
293.316
293.314
293.299
293.273
293.262
293.261
293.274
293.297
293.312
293.323
293.321
293.311
293.305
293.308
293.323
293.334
293.336
293.334
293.32
293.307
293.304
293.312
293.335
293.352
293.354
293.348
293.327
293.31
293.299
293.3
293.315
293.325
293.327
293.319
293.305
293.296
293.293
293.299
293.311
293.316
293.309
293.285
293.267
293.261
293.265
293.29
293.322
293.341
293.34
293.321
293.305
293.304
293.333
293.372
293.375
293.25
292.474
289.943
287.518
286.433
286.075
285.935
285.893
285.89
285.914
285.93
285.938
285.936
285.919
285.899
285.903
285.913
285.937
285.961
285.969
285.96
285.934
285.908
285.896
285.895
285.917
285.941
285.951
285.952
285.944
285.926
285.921
285.932
285.95
285.96
285.957
285.941
285.914
285.901
285.907
285.937
285.977
285.998
285.995
285.974
285.942
285.919
285.921
285.952
285.977
285.986
285.985
285.977
285.971
285.974
285.998
286.027
286.039
286.029
286.003
285.97
285.953
285.945
285.949
285.973
286.022
286.079
286.112
286.107
285.989
285.347
283.311
281.29
280.387
280.115
280.044
280.042
280.051
280.065
)
;

boundaryField
{
    sides
    {
        type            calculated;
        value           nonuniform List<scalar> 2(280.065 94.4737);
    }
    empty
    {
        type            empty;
    }
}


// ************************************************************************* //
