/*--------------------------------*- C++ -*----------------------------------*\
  =========                 |
  \\      /  F ield         | OpenFOAM: The Open Source CFD Toolbox
   \\    /   O peration     | Website:  https://openfoam.org
    \\  /    A nd           | Version:  9
     \\/     M anipulation  |
\*---------------------------------------------------------------------------*/
FoamFile
{
    format      ascii;
    class       volVectorField;
    location    "0.019";
    object      U;
}
// * * * * * * * * * * * * * * * * * * * * * * * * * * * * * * * * * * * * * //

dimensions      [0 1 -1 0 0 0 0];

internalField   nonuniform List<vector> 
1000
(
(94.4737 0 0)
(95.1575 0 0)
(95.5569 0 0)
(95.9917 0 0)
(96.4177 0 0)
(96.8458 0 0)
(97.2734 0 0)
(97.7011 0 0)
(98.1288 0 0)
(98.5565 0 0)
(98.9842 0 0)
(99.412 0 0)
(99.8397 0 0)
(100.267 0 0)
(100.695 0 0)
(101.123 0 0)
(101.551 0 0)
(101.978 0 0)
(102.406 0 0)
(102.834 0 0)
(103.262 0 0)
(103.69 0 0)
(104.117 0 0)
(104.545 0 0)
(104.973 0 0)
(105.401 0 0)
(105.829 0 0)
(106.256 0 0)
(106.684 0 0)
(107.112 0 0)
(107.54 0 0)
(107.968 0 0)
(108.396 0 0)
(108.824 0 0)
(109.251 0 0)
(109.679 0 0)
(110.107 0 0)
(110.535 0 0)
(110.963 0 0)
(111.391 0 0)
(111.819 0 0)
(112.247 0 0)
(112.675 0 0)
(113.103 0 0)
(113.531 0 0)
(113.959 0 0)
(114.387 0 0)
(114.815 0 0)
(115.243 0 0)
(115.671 0 0)
(116.1 0 0)
(116.528 0 0)
(116.956 0 0)
(117.384 0 0)
(117.812 0 0)
(118.24 0 0)
(118.668 0 0)
(119.097 0 0)
(119.525 0 0)
(119.953 0 0)
(120.381 0 0)
(120.81 0 0)
(121.238 0 0)
(121.666 0 0)
(122.095 0 0)
(122.523 0 0)
(122.951 0 0)
(123.38 0 0)
(123.808 0 0)
(124.236 0 0)
(124.665 0 0)
(125.093 0 0)
(125.522 0 0)
(125.95 0 0)
(126.379 0 0)
(126.807 0 0)
(127.236 0 0)
(127.664 0 0)
(128.093 0 0)
(128.521 0 0)
(128.95 0 0)
(129.379 0 0)
(129.808 0 0)
(130.237 0 0)
(130.666 0 0)
(131.094 0 0)
(131.521 0 0)
(131.949 0 0)
(132.379 0 0)
(132.809 0 0)
(133.239 0 0)
(133.668 0 0)
(134.097 0 0)
(134.527 0 0)
(134.958 0 0)
(135.391 0 0)
(135.824 0 0)
(136.256 0 0)
(136.685 0 0)
(137.112 0 0)
(137.54 0 0)
(137.97 0 0)
(138.402 0 0)
(138.834 0 0)
(139.265 0 0)
(139.694 0 0)
(140.122 0 0)
(140.549 0 0)
(140.978 0 0)
(141.408 0 0)
(141.839 0 0)
(142.271 0 0)
(142.702 0 0)
(143.132 0 0)
(143.563 0 0)
(143.993 0 0)
(144.424 0 0)
(144.855 0 0)
(145.286 0 0)
(145.718 0 0)
(146.149 0 0)
(146.579 0 0)
(147.009 0 0)
(147.438 0 0)
(147.867 0 0)
(148.296 0 0)
(148.727 0 0)
(149.158 0 0)
(149.589 0 0)
(150.018 0 0)
(150.446 0 0)
(150.873 0 0)
(151.3 0 0)
(151.728 0 0)
(152.159 0 0)
(152.594 0 0)
(153.032 0 0)
(153.469 0 0)
(153.902 0 0)
(154.33 0 0)
(154.753 0 0)
(155.175 0 0)
(155.602 0 0)
(156.036 0 0)
(156.477 0 0)
(156.919 0 0)
(157.356 0 0)
(157.785 0 0)
(158.207 0 0)
(158.628 0 0)
(159.055 0 0)
(159.49 0 0)
(159.929 0 0)
(160.368 0 0)
(160.801 0 0)
(161.228 0 0)
(161.653 0 0)
(162.08 0 0)
(162.511 0 0)
(162.945 0 0)
(163.379 0 0)
(163.811 0 0)
(164.241 0 0)
(164.67 0 0)
(165.101 0 0)
(165.535 0 0)
(165.97 0 0)
(166.401 0 0)
(166.829 0 0)
(167.252 0 0)
(167.677 0 0)
(168.108 0 0)
(168.547 0 0)
(168.992 0 0)
(169.437 0 0)
(169.873 0 0)
(170.298 0 0)
(170.716 0 0)
(171.133 0 0)
(171.554 0 0)
(171.982 0 0)
(172.42 0 0)
(172.871 0 0)
(173.33 0 0)
(173.785 0 0)
(174.225 0 0)
(174.643 0 0)
(175.046 0 0)
(175.442 0 0)
(175.843 0 0)
(176.262 0 0)
(176.719 0 0)
(177.219 0 0)
(177.712 0 0)
(178.148 0 0)
(178.541 0 0)
(178.922 0 0)
(179.313 0 0)
(179.732 0 0)
(180.191 0 0)
(180.658 0 0)
(181.088 0 0)
(181.489 0 0)
(181.911 0 0)
(182.46 0 0)
(183.059 0 0)
(183.464 0 0)
(183.773 0 0)
(184.077 0 0)
(184.385 0 0)
(184.677 0 0)
(185.224 0 0)
(186.135 0 0)
(186.803 0 0)
(187.108 0 0)
(187.317 0 0)
(187.541 0 0)
(187.831 0 0)
(188.136 0 0)
(188.429 0 0)
(188.898 0 0)
(189.848 0 0)
(190.844 0 0)
(191.309 0 0)
(191.54 0 0)
(191.557 0 0)
(191.668 0 0)
(191.953 0 0)
(192.286 0 0)
(193.012 0 0)
(194.079 0 0)
(194.739 0 0)
(195.029 0 0)
(195.079 0 0)
(195.084 0 0)
(195.338 0 0)
(195.775 0 0)
(196.703 0 0)
(197.879 0 0)
(198.466 0 0)
(198.741 0 0)
(198.72 0 0)
(198.434 0 0)
(198.587 0 0)
(198.885 0 0)
(199.287 0 0)
(200.143 0 0)
(201.624 0 0)
(202.573 0 0)
(202.973 0 0)
(203.171 0 0)
(202.933 0 0)
(202.682 0 0)
(202.907 0 0)
(203.214 0 0)
(203.719 0 0)
(204.772 0 0)
(206.104 0 0)
(206.745 0 0)
(207.058 0 0)
(207.133 0 0)
(206.889 0 0)
(207.022 0 0)
(207.324 0 0)
(207.779 0 0)
(208.717 0 0)
(209.892 0 0)
(210.472 0 0)
(210.769 0 0)
(210.83 0 0)
(210.78 0 0)
(211.04 0 0)
(211.374 0 0)
(212.017 0 0)
(213.074 0 0)
(213.814 0 0)
(214.165 0 0)
(214.354 0 0)
(214.407 0 0)
(214.672 0 0)
(215.002 0 0)
(215.581 0 0)
(216.531 0 0)
(217.174 0 0)
(217.509 0 0)
(217.725 0 0)
(217.934 0 0)
(218.256 0 0)
(218.624 0 0)
(219.268 0 0)
(220.075 0 0)
(220.51 0 0)
(220.828 0 0)
(221.104 0 0)
(221.435 0 0)
(221.781 0 0)
(222.263 0 0)
(222.984 0 0)
(223.515 0 0)
(223.868 0 0)
(224.204 0 0)
(224.553 0 0)
(224.909 0 0)
(225.352 0 0)
(225.981 0 0)
(226.518 0 0)
(226.904 0 0)
(227.275 0 0)
(227.652 0 0)
(228.051 0 0)
(228.512 0 0)
(229.039 0 0)
(229.513 0 0)
(229.929 0 0)
(230.334 0 0)
(230.747 0 0)
(231.179 0 0)
(231.632 0 0)
(232.087 0 0)
(232.529 0 0)
(232.961 0 0)
(233.39 0 0)
(233.823 0 0)
(234.26 0 0)
(234.699 0 0)
(235.139 0 0)
(235.576 0 0)
(236.012 0 0)
(236.448 0 0)
(236.884 0 0)
(237.321 0 0)
(237.758 0 0)
(238.195 0 0)
(238.632 0 0)
(239.069 0 0)
(239.505 0 0)
(239.942 0 0)
(240.379 0 0)
(240.815 0 0)
(241.252 0 0)
(241.689 0 0)
(242.126 0 0)
(242.562 0 0)
(242.999 0 0)
(243.436 0 0)
(243.873 0 0)
(244.309 0 0)
(244.746 0 0)
(245.183 0 0)
(245.62 0 0)
(246.056 0 0)
(246.493 0 0)
(246.93 0 0)
(247.367 0 0)
(247.803 0 0)
(248.24 0 0)
(248.677 0 0)
(249.113 0 0)
(249.55 0 0)
(249.987 0 0)
(250.423 0 0)
(250.86 0 0)
(251.297 0 0)
(251.734 0 0)
(252.17 0 0)
(252.607 0 0)
(253.044 0 0)
(253.48 0 0)
(253.917 0 0)
(254.354 0 0)
(254.79 0 0)
(255.227 0 0)
(255.664 0 0)
(256.1 0 0)
(256.537 0 0)
(256.973 0 0)
(257.41 0 0)
(257.847 0 0)
(258.283 0 0)
(258.72 0 0)
(259.157 0 0)
(259.593 0 0)
(260.03 0 0)
(260.466 0 0)
(260.903 0 0)
(261.34 0 0)
(261.776 0 0)
(262.213 0 0)
(262.649 0 0)
(263.086 0 0)
(263.522 0 0)
(263.959 0 0)
(264.395 0 0)
(264.832 0 0)
(265.268 0 0)
(265.705 0 0)
(266.141 0 0)
(266.578 0 0)
(267.014 0 0)
(267.451 0 0)
(267.887 0 0)
(268.324 0 0)
(268.76 0 0)
(269.197 0 0)
(269.633 0 0)
(270.069 0 0)
(270.506 0 0)
(270.942 0 0)
(271.379 0 0)
(271.815 0 0)
(272.251 0 0)
(272.687 0 0)
(273.124 0 0)
(273.56 0 0)
(273.996 0 0)
(274.433 0 0)
(274.869 0 0)
(275.305 0 0)
(275.741 0 0)
(276.177 0 0)
(276.613 0 0)
(277.049 0 0)
(277.485 0 0)
(277.921 0 0)
(278.357 0 0)
(278.793 0 0)
(279.229 0 0)
(279.665 0 0)
(280.101 0 0)
(280.536 0 0)
(280.972 0 0)
(281.408 0 0)
(281.843 0 0)
(282.278 0 0)
(282.714 0 0)
(283.149 0 0)
(283.584 0 0)
(284.018 0 0)
(284.453 0 0)
(284.887 0 0)
(285.321 0 0)
(285.755 0 0)
(286.188 0 0)
(286.62 0 0)
(287.051 0 0)
(287.481 0 0)
(287.909 0 0)
(288.334 0 0)
(288.757 0 0)
(289.175 0 0)
(289.587 0 0)
(289.992 0 0)
(290.388 0 0)
(290.771 0 0)
(291.14 0 0)
(291.491 0 0)
(291.823 0 0)
(292.132 0 0)
(292.416 0 0)
(292.673 0 0)
(292.901 0 0)
(293.096 0 0)
(293.258 0 0)
(293.386 0 0)
(293.483 0 0)
(293.553 0 0)
(293.6 0 0)
(293.631 0 0)
(293.65 0 0)
(293.66 0 0)
(293.665 0 0)
(293.667 0 0)
(293.667 0 0)
(293.665 0 0)
(293.655 0 0)
(293.629 0 0)
(293.59 0 0)
(293.551 0 0)
(293.519 0 0)
(293.496 0 0)
(293.478 0 0)
(293.461 0 0)
(293.442 0 0)
(293.418 0 0)
(293.389 0 0)
(293.36 0 0)
(293.334 0 0)
(293.315 0 0)
(293.298 0 0)
(293.28 0 0)
(293.257 0 0)
(293.224 0 0)
(293.182 0 0)
(293.144 0 0)
(293.119 0 0)
(293.106 0 0)
(293.101 0 0)
(293.1 0 0)
(293.102 0 0)
(293.116 0 0)
(293.157 0 0)
(293.217 0 0)
(293.275 0 0)
(293.321 0 0)
(293.355 0 0)
(293.378 0 0)
(293.394 0 0)
(293.405 0 0)
(293.41 0 0)
(293.414 0 0)
(293.417 0 0)
(293.42 0 0)
(293.423 0 0)
(293.425 0 0)
(293.425 0 0)
(293.423 0 0)
(293.418 0 0)
(293.406 0 0)
(293.391 0 0)
(293.378 0 0)
(293.367 0 0)
(293.357 0 0)
(293.347 0 0)
(293.333 0 0)
(293.315 0 0)
(293.294 0 0)
(293.271 0 0)
(293.249 0 0)
(293.227 0 0)
(293.208 0 0)
(293.191 0 0)
(293.18 0 0)
(293.174 0 0)
(293.172 0 0)
(293.173 0 0)
(293.182 0 0)
(293.208 0 0)
(293.246 0 0)
(293.277 0 0)
(293.299 0 0)
(293.316 0 0)
(293.33 0 0)
(293.343 0 0)
(293.355 0 0)
(293.366 0 0)
(293.375 0 0)
(293.38 0 0)
(293.383 0 0)
(293.384 0 0)
(293.383 0 0)
(293.383 0 0)
(293.382 0 0)
(293.382 0 0)
(293.381 0 0)
(293.378 0 0)
(293.373 0 0)
(293.362 0 0)
(293.347 0 0)
(293.334 0 0)
(293.325 0 0)
(293.317 0 0)
(293.31 0 0)
(293.302 0 0)
(293.289 0 0)
(293.268 0 0)
(293.246 0 0)
(293.227 0 0)
(293.214 0 0)
(293.208 0 0)
(293.204 0 0)
(293.203 0 0)
(293.203 0 0)
(293.206 0 0)
(293.215 0 0)
(293.238 0 0)
(293.273 0 0)
(293.303 0 0)
(293.323 0 0)
(293.336 0 0)
(293.344 0 0)
(293.35 0 0)
(293.355 0 0)
(293.361 0 0)
(293.367 0 0)
(293.373 0 0)
(293.378 0 0)
(293.38 0 0)
(293.381 0 0)
(293.381 0 0)
(293.378 0 0)
(293.375 0 0)
(293.372 0 0)
(293.37 0 0)
(293.367 0 0)
(293.363 0 0)
(293.353 0 0)
(293.339 0 0)
(293.326 0 0)
(293.316 0 0)
(293.308 0 0)
(293.303 0 0)
(293.296 0 0)
(293.285 0 0)
(293.266 0 0)
(293.246 0 0)
(293.231 0 0)
(293.222 0 0)
(293.218 0 0)
(293.217 0 0)
(293.219 0 0)
(293.225 0 0)
(293.238 0 0)
(293.257 0 0)
(293.278 0 0)
(293.3 0 0)
(293.32 0 0)
(293.334 0 0)
(293.344 0 0)
(293.352 0 0)
(293.355 0 0)
(293.357 0 0)
(293.359 0 0)
(293.362 0 0)
(293.367 0 0)
(293.371 0 0)
(293.373 0 0)
(293.376 0 0)
(293.374 0 0)
(293.37 0 0)
(293.365 0 0)
(293.36 0 0)
(293.356 0 0)
(293.353 0 0)
(293.349 0 0)
(293.341 0 0)
(293.328 0 0)
(293.316 0 0)
(293.308 0 0)
(293.301 0 0)
(293.293 0 0)
(293.285 0 0)
(293.274 0 0)
(293.258 0 0)
(293.244 0 0)
(293.236 0 0)
(293.233 0 0)
(293.232 0 0)
(293.233 0 0)
(293.241 0 0)
(293.255 0 0)
(293.267 0 0)
(293.279 0 0)
(293.294 0 0)
(293.312 0 0)
(293.327 0 0)
(293.338 0 0)
(293.344 0 0)
(293.346 0 0)
(293.346 0 0)
(293.347 0 0)
(293.348 0 0)
(293.353 0 0)
(293.358 0 0)
(293.362 0 0)
(293.363 0 0)
(293.362 0 0)
(293.359 0 0)
(293.352 0 0)
(293.346 0 0)
(293.343 0 0)
(293.342 0 0)
(293.34 0 0)
(293.336 0 0)
(293.328 0 0)
(293.315 0 0)
(293.303 0 0)
(293.296 0 0)
(293.292 0 0)
(293.288 0 0)
(293.282 0 0)
(293.273 0 0)
(293.258 0 0)
(293.247 0 0)
(293.242 0 0)
(293.241 0 0)
(293.244 0 0)
(293.258 0 0)
(293.277 0 0)
(293.29 0 0)
(293.299 0 0)
(293.305 0 0)
(293.312 0 0)
(293.321 0 0)
(293.332 0 0)
(293.341 0 0)
(293.346 0 0)
(293.348 0 0)
(293.348 0 0)
(293.35 0 0)
(293.35 0 0)
(293.351 0 0)
(293.355 0 0)
(293.358 0 0)
(293.36 0 0)
(293.36 0 0)
(293.356 0 0)
(293.347 0 0)
(293.341 0 0)
(293.338 0 0)
(293.337 0 0)
(293.336 0 0)
(293.335 0 0)
(293.329 0 0)
(293.316 0 0)
(293.304 0 0)
(293.296 0 0)
(293.292 0 0)
(293.288 0 0)
(293.284 0 0)
(293.278 0 0)
(293.269 0 0)
(293.264 0 0)
(293.263 0 0)
(293.263 0 0)
(293.272 0 0)
(293.292 0 0)
(293.308 0 0)
(293.316 0 0)
(293.32 0 0)
(293.322 0 0)
(293.324 0 0)
(293.327 0 0)
(293.333 0 0)
(293.339 0 0)
(293.344 0 0)
(293.345 0 0)
(293.344 0 0)
(293.342 0 0)
(293.34 0 0)
(293.341 0 0)
(293.343 0 0)
(293.344 0 0)
(293.341 0 0)
(293.339 0 0)
(293.33 0 0)
(293.32 0 0)
(293.315 0 0)
(293.314 0 0)
(293.314 0 0)
(293.314 0 0)
(293.312 0 0)
(293.302 0 0)
(293.287 0 0)
(293.274 0 0)
(293.267 0 0)
(293.266 0 0)
(293.266 0 0)
(293.266 0 0)
(293.265 0 0)
(293.262 0 0)
(293.259 0 0)
(293.259 0 0)
(293.263 0 0)
(293.28 0 0)
(293.3 0 0)
(293.313 0 0)
(293.319 0 0)
(293.319 0 0)
(293.317 0 0)
(293.315 0 0)
(293.317 0 0)
(293.325 0 0)
(293.336 0 0)
(293.344 0 0)
(293.345 0 0)
(293.342 0 0)
(293.335 0 0)
(293.331 0 0)
(293.33 0 0)
(293.334 0 0)
(293.337 0 0)
(293.338 0 0)
(293.336 0 0)
(293.327 0 0)
(293.318 0 0)
(293.314 0 0)
(293.313 0 0)
(293.316 0 0)
(293.318 0 0)
(293.317 0 0)
(293.309 0 0)
(293.289 0 0)
(293.274 0 0)
(293.269 0 0)
(293.269 0 0)
(293.273 0 0)
(293.28 0 0)
(293.283 0 0)
(293.284 0 0)
(293.286 0 0)
(293.287 0 0)
(293.292 0 0)
(293.308 0 0)
(293.324 0 0)
(293.332 0 0)
(293.334 0 0)
(293.33 0 0)
(293.321 0 0)
(293.317 0 0)
(293.318 0 0)
(293.328 0 0)
(293.339 0 0)
(293.346 0 0)
(293.349 0 0)
(293.342 0 0)
(293.333 0 0)
(293.328 0 0)
(293.328 0 0)
(293.331 0 0)
(293.334 0 0)
(293.334 0 0)
(293.328 0 0)
(293.313 0 0)
(293.303 0 0)
(293.302 0 0)
(293.306 0 0)
(293.313 0 0)
(293.317 0 0)
(293.316 0 0)
(293.305 0 0)
(293.283 0 0)
(293.267 0 0)
(293.263 0 0)
(293.266 0 0)
(293.281 0 0)
(293.293 0 0)
(293.298 0 0)
(293.304 0 0)
(293.303 0 0)
(293.301 0 0)
(293.305 0 0)
(293.319 0 0)
(293.334 0 0)
(293.337 0 0)
(293.333 0 0)
(293.324 0 0)
(293.313 0 0)
(293.309 0 0)
(293.312 0 0)
(293.328 0 0)
(293.346 0 0)
(293.352 0 0)
(293.35 0 0)
(293.338 0 0)
(293.325 0 0)
(293.318 0 0)
(293.314 0 0)
(293.32 0 0)
(293.327 0 0)
(293.328 0 0)
(293.321 0 0)
(293.305 0 0)
(293.298 0 0)
(293.298 0 0)
(293.302 0 0)
(293.311 0 0)
(293.316 0 0)
(293.314 0 0)
(293.299 0 0)
(293.273 0 0)
(293.262 0 0)
(293.261 0 0)
(293.274 0 0)
(293.297 0 0)
(293.312 0 0)
(293.323 0 0)
(293.321 0 0)
(293.311 0 0)
(293.305 0 0)
(293.308 0 0)
(293.323 0 0)
(293.334 0 0)
(293.336 0 0)
(293.334 0 0)
(293.32 0 0)
(293.307 0 0)
(293.304 0 0)
(293.312 0 0)
(293.335 0 0)
(293.352 0 0)
(293.354 0 0)
(293.348 0 0)
(293.327 0 0)
(293.31 0 0)
(293.299 0 0)
(293.3 0 0)
(293.315 0 0)
(293.325 0 0)
(293.327 0 0)
(293.319 0 0)
(293.305 0 0)
(293.296 0 0)
(293.293 0 0)
(293.299 0 0)
(293.311 0 0)
(293.316 0 0)
(293.309 0 0)
(293.285 0 0)
(293.267 0 0)
(293.261 0 0)
(293.265 0 0)
(293.29 0 0)
(293.322 0 0)
(293.341 0 0)
(293.34 0 0)
(293.321 0 0)
(293.305 0 0)
(293.304 0 0)
(293.333 0 0)
(293.372 0 0)
(293.375 0 0)
(293.25 0 0)
(292.474 0 0)
(289.943 0 0)
(287.518 0 0)
(286.433 0 0)
(286.075 0 0)
(285.935 0 0)
(285.893 0 0)
(285.89 0 0)
(285.914 0 0)
(285.93 0 0)
(285.938 0 0)
(285.936 0 0)
(285.919 0 0)
(285.899 0 0)
(285.903 0 0)
(285.913 0 0)
(285.937 0 0)
(285.961 0 0)
(285.969 0 0)
(285.96 0 0)
(285.934 0 0)
(285.908 0 0)
(285.896 0 0)
(285.895 0 0)
(285.917 0 0)
(285.941 0 0)
(285.951 0 0)
(285.952 0 0)
(285.944 0 0)
(285.926 0 0)
(285.921 0 0)
(285.932 0 0)
(285.95 0 0)
(285.96 0 0)
(285.957 0 0)
(285.941 0 0)
(285.914 0 0)
(285.901 0 0)
(285.907 0 0)
(285.937 0 0)
(285.977 0 0)
(285.998 0 0)
(285.995 0 0)
(285.974 0 0)
(285.942 0 0)
(285.919 0 0)
(285.921 0 0)
(285.952 0 0)
(285.977 0 0)
(285.986 0 0)
(285.985 0 0)
(285.977 0 0)
(285.971 0 0)
(285.974 0 0)
(285.998 0 0)
(286.027 0 0)
(286.039 0 0)
(286.029 0 0)
(286.003 0 0)
(285.97 0 0)
(285.953 0 0)
(285.945 0 0)
(285.949 0 0)
(285.973 0 0)
(286.022 0 0)
(286.079 0 0)
(286.112 0 0)
(286.107 0 0)
(285.989 0 0)
(285.347 0 0)
(283.311 0 0)
(281.29 0 0)
(280.387 0 0)
(280.115 0 0)
(280.044 0 0)
(280.042 0 0)
(280.051 0 0)
(280.065 0 0)
)
;

boundaryField
{
    sides
    {
        type            zeroGradient;
    }
    empty
    {
        type            empty;
    }
}


// ************************************************************************* //
