/*--------------------------------*- C++ -*----------------------------------*\
  =========                 |
  \\      /  F ield         | OpenFOAM: The Open Source CFD Toolbox
   \\    /   O peration     | Website:  https://openfoam.org
    \\  /    A nd           | Version:  9
     \\/     M anipulation  |
\*---------------------------------------------------------------------------*/
FoamFile
{
    format      ascii;
    class       volScalarField;
    location    "0.035";
    object      T;
}
// * * * * * * * * * * * * * * * * * * * * * * * * * * * * * * * * * * * * * //

dimensions      [0 0 0 1 0 0 0];

internalField   nonuniform List<scalar> 
100
(
217.281
217.14
217.011
216.868
216.773
216.667
216.604
216.561
216.491
216.448
216.399
216.271
216.146
216.044
215.861
215.664
215.546
215.44
215.257
215.056
214.938
214.877
214.765
214.583
214.42
214.343
214.315
214.267
214.148
214.008
213.938
213.932
213.94
213.938
213.894
213.853
213.851
213.865
213.898
213.914
213.934
213.973
214.042
214.178
214.35
214.562
214.76
214.94
215.162
215.405
215.659
215.971
216.318
216.634
216.935
217.272
217.657
218.067
218.489
218.892
219.253
219.631
220.079
220.571
221.046
221.464
221.84
222.239
222.706
223.237
223.787
224.284
224.69
225.08
225.535
226.066
226.617
227.168
227.663
228.124
228.537
229.031
229.508
230.087
230.544
231.124
231.494
232.069
232.377
232.991
233.313
233.968
234.333
235.016
235.38
236.109
236.519
237.401
237.798
238.812
)
;

boundaryField
{
    sides
    {
        type            zeroGradient;
    }
    empty
    {
        type            empty;
    }
}


// ************************************************************************* //
