/*--------------------------------*- C++ -*----------------------------------*\
  =========                 |
  \\      /  F ield         | OpenFOAM: The Open Source CFD Toolbox
   \\    /   O peration     | Website:  https://openfoam.org
    \\  /    A nd           | Version:  9
     \\/     M anipulation  |
\*---------------------------------------------------------------------------*/
FoamFile
{
    format      ascii;
    class       volScalarField;
    location    "0.023";
    object      p_0;
}
// * * * * * * * * * * * * * * * * * * * * * * * * * * * * * * * * * * * * * //

dimensions      [1 -1 -2 0 0 0 0];

internalField   nonuniform List<scalar> 
10000
(
31463.4
31463.1
31462.9
31462.6
31462.4
31462.2
31462
31461.7
31461.5
31461.3
31461
31460.8
31460.6
31460.3
31460.1
31459.9
31459.6
31459.4
31459.2
31458.9
31458.7
31458.5
31458.2
31458
31457.8
31457.5
31457.3
31457.1
31456.8
31456.6
31456.4
31456.1
31455.9
31455.7
31455.4
31455.2
31454.9
31454.7
31454.5
31454.2
31454
31453.8
31453.5
31453.3
31453.1
31452.8
31452.6
31452.3
31452.1
31451.9
31451.6
31451.4
31451.1
31450.9
31450.7
31450.4
31450.2
31450
31449.7
31449.5
31449.2
31449
31448.8
31448.5
31448.3
31448
31447.8
31447.6
31447.3
31447.1
31446.8
31446.6
31446.3
31446.1
31445.9
31445.6
31445.4
31445.1
31444.9
31444.7
31444.4
31444.2
31443.9
31443.7
31443.4
31443.2
31442.9
31442.7
31442.5
31442.2
31442
31441.7
31441.5
31441.2
31441
31440.7
31440.5
31440.3
31440
31439.8
31439.5
31439.3
31439
31438.8
31438.5
31438.3
31438
31437.8
31437.5
31437.3
31437
31436.8
31436.5
31436.3
31436.1
31435.8
31435.6
31435.3
31435.1
31434.8
31434.6
31434.3
31434.1
31433.8
31433.6
31433.3
31433.1
31432.8
31432.6
31432.3
31432.1
31431.8
31431.5
31431.3
31431
31430.8
31430.5
31430.3
31430
31429.8
31429.5
31429.3
31429
31428.8
31428.5
31428.3
31428
31427.8
31427.5
31427.3
31427
31426.7
31426.5
31426.2
31426
31425.7
31425.5
31425.2
31425
31424.7
31424.4
31424.2
31423.9
31423.7
31423.4
31423.2
31422.9
31422.6
31422.4
31422.1
31421.9
31421.6
31421.4
31421.1
31420.8
31420.6
31420.3
31420.1
31419.8
31419.5
31419.3
31419
31418.8
31418.5
31418.3
31418
31417.7
31417.5
31417.2
31416.9
31416.7
31416.4
31416.2
31415.9
31415.6
31415.4
31415.1
31414.9
31414.6
31414.3
31414.1
31413.8
31413.5
31413.3
31413
31412.8
31412.5
31412.2
31412
31411.7
31411.4
31411.2
31410.9
31410.6
31410.4
31410.1
31409.8
31409.6
31409.3
31409
31408.8
31408.5
31408.3
31408
31407.7
31407.5
31407.2
31406.9
31406.7
31406.4
31406.1
31405.8
31405.6
31405.3
31405
31404.8
31404.5
31404.2
31404
31403.7
31403.4
31403.2
31402.9
31402.6
31402.4
31402.1
31401.8
31401.5
31401.3
31401
31400.7
31400.5
31400.2
31399.9
31399.6
31399.4
31399.1
31398.8
31398.6
31398.3
31398
31397.7
31397.5
31397.2
31396.9
31396.7
31396.4
31396.1
31395.8
31395.6
31395.3
31395
31394.7
31394.5
31394.2
31393.9
31393.6
31393.4
31393.1
31392.8
31392.5
31392.3
31392
31391.7
31391.4
31391.2
31390.9
31390.6
31390.3
31390
31389.8
31389.5
31389.2
31388.9
31388.7
31388.4
31388.1
31387.8
31387.5
31387.3
31387
31386.7
31386.4
31386.1
31385.9
31385.6
31385.3
31385
31384.7
31384.5
31384.2
31383.9
31383.6
31383.3
31383.1
31382.8
31382.5
31382.2
31381.9
31381.7
31381.4
31381.1
31380.8
31380.5
31380.2
31380
31379.7
31379.4
31379.1
31378.8
31378.5
31378.3
31378
31377.7
31377.4
31377.1
31376.8
31376.5
31376.3
31376
31375.7
31375.4
31375.1
31374.8
31374.5
31374.3
31374
31373.7
31373.4
31373.1
31372.8
31372.5
31372.2
31372
31371.7
31371.4
31371.1
31370.8
31370.5
31370.2
31369.9
31369.6
31369.4
31369.1
31368.8
31368.5
31368.2
31367.9
31367.6
31367.3
31367
31366.7
31366.5
31366.2
31365.9
31365.6
31365.3
31365
31364.7
31364.4
31364.1
31363.8
31363.5
31363.2
31363
31362.7
31362.4
31362.1
31361.8
31361.5
31361.2
31360.9
31360.6
31360.3
31360
31359.7
31359.4
31359.1
31358.8
31358.5
31358.2
31357.9
31357.6
31357.4
31357.1
31356.8
31356.5
31356.2
31355.9
31355.6
31355.3
31355
31354.7
31354.4
31354.1
31353.8
31353.5
31353.2
31352.9
31352.6
31352.3
31352
31351.7
31351.4
31351.1
31350.8
31350.5
31350.2
31349.9
31349.6
31349.3
31349
31348.7
31348.4
31348.1
31347.8
31347.5
31347.2
31346.9
31346.6
31346.3
31346
31345.7
31345.4
31345.1
31344.8
31344.5
31344.2
31343.9
31343.5
31343.2
31342.9
31342.6
31342.3
31342
31341.7
31341.4
31341.1
31340.8
31340.5
31340.2
31339.9
31339.6
31339.3
31339
31338.7
31338.4
31338
31337.7
31337.4
31337.1
31336.8
31336.5
31336.2
31335.9
31335.6
31335.3
31335
31334.7
31334.4
31334
31333.7
31333.4
31333.1
31332.8
31332.5
31332.2
31331.9
31331.6
31331.3
31330.9
31330.6
31330.3
31330
31329.7
31329.4
31329.1
31328.8
31328.4
31328.1
31327.8
31327.5
31327.2
31326.9
31326.6
31326.3
31325.9
31325.6
31325.3
31325
31324.7
31324.4
31324.1
31323.7
31323.4
31323.1
31322.8
31322.5
31322.2
31321.9
31321.5
31321.2
31320.9
31320.6
31320.3
31320
31319.6
31319.3
31319
31318.7
31318.4
31318.1
31317.7
31317.4
31317.1
31316.8
31316.5
31316.1
31315.8
31315.5
31315.2
31314.9
31314.5
31314.2
31313.9
31313.6
31313.3
31312.9
31312.6
31312.3
31312
31311.7
31311.3
31311
31310.7
31310.4
31310.1
31309.7
31309.4
31309.1
31308.8
31308.4
31308.1
31307.8
31307.5
31307.1
31306.8
31306.5
31306.2
31305.8
31305.5
31305.2
31304.9
31304.5
31304.2
31303.9
31303.6
31303.2
31302.9
31302.6
31302.3
31301.9
31301.6
31301.3
31301
31300.6
31300.3
31300
31299.7
31299.3
31299
31298.7
31298.3
31298
31297.7
31297.4
31297
31296.7
31296.4
31296
31295.7
31295.4
31295.1
31294.7
31294.4
31294.1
31293.7
31293.4
31293.1
31292.7
31292.4
31292.1
31291.7
31291.4
31291.1
31290.7
31290.4
31290.1
31289.8
31289.4
31289.1
31288.8
31288.4
31288.1
31287.8
31287.4
31287.1
31286.7
31286.4
31286.1
31285.7
31285.4
31285.1
31284.7
31284.4
31284.1
31283.7
31283.4
31283.1
31282.7
31282.4
31282.1
31281.7
31281.4
31281
31280.7
31280.4
31280
31279.7
31279.4
31279
31278.7
31278.3
31278
31277.7
31277.3
31277
31276.6
31276.3
31276
31275.6
31275.3
31274.9
31274.6
31274.3
31273.9
31273.6
31273.2
31272.9
31272.6
31272.2
31271.9
31271.5
31271.2
31270.8
31270.5
31270.2
31269.8
31269.5
31269.1
31268.8
31268.4
31268.1
31267.8
31267.4
31267.1
31266.7
31266.4
31266
31265.7
31265.3
31265
31264.7
31264.3
31264
31263.6
31263.3
31262.9
31262.6
31262.2
31261.9
31261.5
31261.2
31260.8
31260.5
31260.2
31259.8
31259.5
31259.1
31258.8
31258.4
31258.1
31257.7
31257.4
31257
31256.7
31256.3
31256
31255.6
31255.3
31254.9
31254.6
31254.2
31253.9
31253.5
31253.2
31252.8
31252.5
31252.1
31251.8
31251.4
31251.1
31250.7
31250.3
31250
31249.6
31249.3
31248.9
31248.6
31248.2
31247.9
31247.5
31247.2
31246.8
31246.5
31246.1
31245.8
31245.4
31245
31244.7
31244.3
31244
31243.6
31243.3
31242.9
31242.6
31242.2
31241.8
31241.5
31241.1
31240.8
31240.4
31240.1
31239.7
31239.3
31239
31238.6
31238.3
31237.9
31237.5
31237.2
31236.8
31236.5
31236.1
31235.7
31235.4
31235
31234.7
31234.3
31233.9
31233.6
31233.2
31232.9
31232.5
31232.1
31231.8
31231.4
31231.1
31230.7
31230.3
31230
31229.6
31229.2
31228.9
31228.5
31228.2
31227.8
31227.4
31227.1
31226.7
31226.3
31226
31225.6
31225.2
31224.9
31224.5
31224.2
31223.8
31223.4
31223.1
31222.7
31222.3
31222
31221.6
31221.2
31220.9
31220.5
31220.1
31219.8
31219.4
31219
31218.7
31218.3
31217.9
31217.5
31217.2
31216.8
31216.4
31216.1
31215.7
31215.3
31215
31214.6
31214.2
31213.9
31213.5
31213.1
31212.7
31212.4
31212
31211.6
31211.3
31210.9
31210.5
31210.1
31209.8
31209.4
31209
31208.7
31208.3
31207.9
31207.5
31207.2
31206.8
31206.4
31206
31205.7
31205.3
31204.9
31204.5
31204.2
31203.8
31203.4
31203
31202.7
31202.3
31201.9
31201.5
31201.2
31200.8
31200.4
31200
31199.7
31199.3
31198.9
31198.5
31198.2
31197.8
31197.4
31197
31196.6
31196.3
31195.9
31195.5
31195.1
31194.8
31194.4
31194
31193.6
31193.2
31192.9
31192.5
31192.1
31191.7
31191.3
31191
31190.6
31190.2
31189.8
31189.4
31189
31188.7
31188.3
31187.9
31187.5
31187.1
31186.8
31186.4
31186
31185.6
31185.2
31184.8
31184.5
31184.1
31183.7
31183.3
31182.9
31182.5
31182.1
31181.8
31181.4
31181
31180.6
31180.2
31179.8
31179.4
31179.1
31178.7
31178.3
31177.9
31177.5
31177.1
31176.7
31176.4
31176
31175.6
31175.2
31174.8
31174.4
31174
31173.6
31173.2
31172.9
31172.5
31172.1
31171.7
31171.3
31170.9
31170.5
31170.1
31169.7
31169.4
31169
31168.6
31168.2
31167.8
31167.4
31167
31166.6
31166.2
31165.8
31165.4
31165
31164.6
31164.3
31163.9
31163.5
31163.1
31162.7
31162.3
31161.9
31161.5
31161.1
31160.7
31160.3
31159.9
31159.5
31159.1
31158.7
31158.3
31157.9
31157.6
31157.2
31156.8
31156.4
31156
31155.6
31155.2
31154.8
31154.4
31154
31153.6
31153.2
31152.8
31152.4
31152
31151.6
31151.2
31150.8
31150.4
31150
31149.6
31149.2
31148.8
31148.4
31148
31147.6
31147.2
31146.8
31146.4
31146
31145.6
31145.2
31144.8
31144.4
31144
31143.6
31143.2
31142.8
31142.4
31142
31141.6
31141.2
31140.8
31140.4
31140
31139.6
31139.1
31138.7
31138.3
31137.9
31137.5
31137.1
31136.7
31136.3
31135.9
31135.5
31135.1
31134.7
31134.3
31133.9
31133.5
31133.1
31132.7
31132.3
31131.8
31131.4
31131
31130.6
31130.2
31129.8
31129.4
31129
31128.6
31128.2
31127.8
31127.4
31126.9
31126.5
31126.1
31125.7
31125.3
31124.9
31124.5
31124.1
31123.7
31123.3
31122.8
31122.4
31122
31121.6
31121.2
31120.8
31120.4
31120
31119.5
31119.1
31118.7
31118.3
31117.9
31117.5
31117.1
31116.7
31116.2
31115.8
31115.4
31115
31114.6
31114.2
31113.7
31113.3
31112.9
31112.5
31112.1
31111.7
31111.3
31110.8
31110.4
31110
31109.6
31109.2
31108.8
31108.3
31107.9
31107.5
31107.1
31106.7
31106.2
31105.8
31105.4
31105
31104.6
31104.2
31103.7
31103.3
31102.9
31102.5
31102.1
31101.6
31101.2
31100.8
31100.4
31100
31099.5
31099.1
31098.7
31098.3
31097.8
31097.4
31097
31096.6
31096.2
31095.7
31095.3
31094.9
31094.5
31094
31093.6
31093.2
31092.8
31092.3
31091.9
31091.5
31091.1
31090.6
31090.2
31089.8
31089.4
31088.9
31088.5
31088.1
31087.7
31087.2
31086.8
31086.4
31086
31085.5
31085.1
31084.7
31084.2
31083.8
31083.4
31083
31082.5
31082.1
31081.7
31081.2
31080.8
31080.4
31080
31079.5
31079.1
31078.7
31078.2
31077.8
31077.4
31077
31076.5
31076.1
31075.7
31075.2
31074.8
31074.4
31073.9
31073.5
31073.1
31072.6
31072.2
31071.8
31071.3
31070.9
31070.5
31070
31069.6
31069.2
31068.7
31068.3
31067.9
31067.4
31067
31066.6
31066.1
31065.7
31065.3
31064.8
31064.4
31063.9
31063.5
31063.1
31062.6
31062.2
31061.8
31061.3
31060.9
31060.5
31060
31059.6
31059.1
31058.7
31058.3
31057.8
31057.4
31056.9
31056.5
31056.1
31055.6
31055.2
31054.7
31054.3
31053.9
31053.4
31053
31052.5
31052.1
31051.7
31051.2
31050.8
31050.3
31049.9
31049.5
31049
31048.6
31048.1
31047.7
31047.2
31046.8
31046.4
31045.9
31045.5
31045
31044.6
31044.1
31043.7
31043.3
31042.8
31042.4
31041.9
31041.5
31041
31040.6
31040.1
31039.7
31039.2
31038.8
31038.3
31037.9
31037.5
31037
31036.6
31036.1
31035.7
31035.2
31034.8
31034.3
31033.9
31033.4
31033
31032.5
31032.1
31031.6
31031.2
31030.7
31030.3
31029.8
31029.4
31028.9
31028.5
31028
31027.6
31027.1
31026.7
31026.2
31025.8
31025.3
31024.9
31024.4
31024
31023.5
31023.1
31022.6
31022.2
31021.7
31021.2
31020.8
31020.3
31019.9
31019.4
31019
31018.5
31018.1
31017.6
31017.2
31016.7
31016.2
31015.8
31015.3
31014.9
31014.4
31014
31013.5
31013.1
31012.6
31012.1
31011.7
31011.2
31010.8
31010.3
31009.9
31009.4
31008.9
31008.5
31008
31007.6
31007.1
31006.6
31006.2
31005.7
31005.3
31004.8
31004.3
31003.9
31003.4
31003
31002.5
31002
31001.6
31001.1
31000.7
31000.2
30999.7
30999.3
30998.8
30998.4
30997.9
30997.4
30997
30996.5
30996
30995.6
30995.1
30994.6
30994.2
30993.7
30993.3
30992.8
30992.3
30991.9
30991.4
30990.9
30990.5
30990
30989.5
30989.1
30988.6
30988.1
30987.7
30987.2
30986.7
30986.3
30985.8
30985.3
30984.9
30984.4
30983.9
30983.5
30983
30982.5
30982.1
30981.6
30981.1
30980.6
30980.2
30979.7
30979.2
30978.8
30978.3
30977.8
30977.4
30976.9
30976.4
30975.9
30975.5
30975
30974.5
30974.1
30973.6
30973.1
30972.6
30972.2
30971.7
30971.2
30970.7
30970.3
30969.8
30969.3
30968.9
30968.4
30967.9
30967.4
30967
30966.5
30966
30965.5
30965.1
30964.6
30964.1
30963.6
30963.2
30962.7
30962.2
30961.7
30961.2
30960.8
30960.3
30959.8
30959.3
30958.9
30958.4
30957.9
30957.4
30956.9
30956.5
30956
30955.5
30955
30954.6
30954.1
30953.6
30953.1
30952.6
30952.2
30951.7
30951.2
30950.7
30950.2
30949.7
30949.3
30948.8
30948.3
30947.8
30947.3
30946.9
30946.4
30945.9
30945.4
30944.9
30944.4
30944
30943.5
30943
30942.5
30942
30941.5
30941.1
30940.6
30940.1
30939.6
30939.1
30938.6
30938.1
30937.7
30937.2
30936.7
30936.2
30935.7
30935.2
30934.7
30934.3
30933.8
30933.3
30932.8
30932.3
30931.8
30931.3
30930.8
30930.4
30929.9
30929.4
30928.9
30928.4
30927.9
30927.4
30926.9
30926.4
30925.9
30925.5
30925
30924.5
30924
30923.5
30923
30922.5
30922
30921.5
30921
30920.5
30920.1
30919.6
30919.1
30918.6
30918.1
30917.6
30917.1
30916.6
30916.1
30915.6
30915.1
30914.6
30914.1
30913.6
30913.1
30912.6
30912.2
30911.7
30911.2
30910.7
30910.2
30909.7
30909.2
30908.7
30908.2
30907.7
30907.2
30906.7
30906.2
30905.7
30905.2
30904.7
30904.2
30903.7
30903.2
30902.7
30902.2
30901.7
30901.2
30900.7
30900.2
30899.7
30899.2
30898.7
30898.2
30897.7
30897.2
30896.7
30896.2
30895.7
30895.2
30894.7
30894.2
30893.7
30893.2
30892.7
30892.2
30891.7
30891.2
30890.7
30890.2
30889.7
30889.2
30888.7
30888.2
30887.7
30887.2
30886.7
30886.2
30885.6
30885.1
30884.6
30884.1
30883.6
30883.1
30882.6
30882.1
30881.6
30881.1
30880.6
30880.1
30879.6
30879.1
30878.6
30878.1
30877.5
30877
30876.5
30876
30875.5
30875
30874.5
30874
30873.5
30873
30872.5
30871.9
30871.4
30870.9
30870.4
30869.9
30869.4
30868.9
30868.4
30867.9
30867.3
30866.8
30866.3
30865.8
30865.3
30864.8
30864.3
30863.8
30863.2
30862.7
30862.2
30861.7
30861.2
30860.7
30860.2
30859.7
30859.1
30858.6
30858.1
30857.6
30857.1
30856.6
30856
30855.5
30855
30854.5
30854
30853.5
30853
30852.4
30851.9
30851.4
30850.9
30850.4
30849.8
30849.3
30848.8
30848.3
30847.8
30847.3
30846.7
30846.2
30845.7
30845.2
30844.7
30844.1
30843.6
30843.1
30842.6
30842.1
30841.5
30841
30840.5
30840
30839.5
30838.9
30838.4
30837.9
30837.4
30836.8
30836.3
30835.8
30835.3
30834.8
30834.2
30833.7
30833.2
30832.7
30832.1
30831.6
30831.1
30830.6
30830
30829.5
30829
30828.5
30827.9
30827.4
30826.9
30826.4
30825.8
30825.3
30824.8
30824.3
30823.7
30823.2
30822.7
30822.1
30821.6
30821.1
30820.6
30820
30819.5
30819
30818.4
30817.9
30817.4
30816.9
30816.3
30815.8
30815.3
30814.7
30814.2
30813.7
30813.1
30812.6
30812.1
30811.6
30811
30810.5
30810
30809.4
30808.9
30808.4
30807.8
30807.3
30806.8
30806.2
30805.7
30805.2
30804.6
30804.1
30803.6
30803
30802.5
30802
30801.4
30800.9
30800.4
30799.8
30799.3
30798.7
30798.2
30797.7
30797.1
30796.6
30796.1
30795.5
30795
30794.5
30793.9
30793.4
30792.8
30792.3
30791.8
30791.2
30790.7
30790.2
30789.6
30789.1
30788.5
30788
30787.5
30786.9
30786.4
30785.8
30785.3
30784.8
30784.2
30783.7
30783.1
30782.6
30782.1
30781.5
30781
30780.4
30779.9
30779.3
30778.8
30778.3
30777.7
30777.2
30776.6
30776.1
30775.5
30775
30774.5
30773.9
30773.4
30772.8
30772.3
30771.7
30771.2
30770.6
30770.1
30769.6
30769
30768.5
30767.9
30767.4
30766.8
30766.3
30765.7
30765.2
30764.6
30764.1
30763.5
30763
30762.4
30761.9
30761.3
30760.8
30760.3
30759.7
30759.2
30758.6
30758.1
30757.5
30757
30756.4
30755.9
30755.3
30754.8
30754.2
30753.7
30753.1
30752.5
30752
30751.4
30750.9
30750.3
30749.8
30749.2
30748.7
30748.1
30747.6
30747
30746.5
30745.9
30745.4
30744.8
30744.3
30743.7
30743.1
30742.6
30742
30741.5
30740.9
30740.4
30739.8
30739.3
30738.7
30738.2
30737.6
30737
30736.5
30735.9
30735.4
30734.8
30734.3
30733.7
30733.1
30732.6
30732
30731.5
30730.9
30730.3
30729.8
30729.2
30728.7
30728.1
30727.5
30727
30726.4
30725.9
30725.3
30724.7
30724.2
30723.6
30723.1
30722.5
30721.9
30721.4
30720.8
30720.3
30719.7
30719.1
30718.6
30718
30717.4
30716.9
30716.3
30715.8
30715.2
30714.6
30714.1
30713.5
30712.9
30712.4
30711.8
30711.2
30710.7
30710.1
30709.5
30709
30708.4
30707.8
30707.3
30706.7
30706.1
30705.6
30705
30704.4
30703.9
30703.3
30702.7
30702.2
30701.6
30701
30700.5
30699.9
30699.3
30698.8
30698.2
30697.6
30697.1
30696.5
30695.9
30695.3
30694.8
30694.2
30693.6
30693.1
30692.5
30691.9
30691.3
30690.8
30690.2
30689.6
30689.1
30688.5
30687.9
30687.3
30686.8
30686.2
30685.6
30685.1
30684.5
30683.9
30683.3
30682.8
30682.2
30681.6
30681
30680.5
30679.9
30679.3
30678.7
30678.2
30677.6
30677
30676.4
30675.8
30675.3
30674.7
30674.1
30673.5
30673
30672.4
30671.8
30671.2
30670.7
30670.1
30669.5
30668.9
30668.3
30667.8
30667.2
30666.6
30666
30665.4
30664.9
30664.3
30663.7
30663.1
30662.5
30662
30661.4
30660.8
30660.2
30659.6
30659
30658.5
30657.9
30657.3
30656.7
30656.1
30655.6
30655
30654.4
30653.8
30653.2
30652.6
30652.1
30651.5
30650.9
30650.3
30649.7
30649.1
30648.5
30648
30647.4
30646.8
30646.2
30645.6
30645
30644.4
30643.9
30643.3
30642.7
30642.1
30641.5
30640.9
30640.3
30639.7
30639.2
30638.6
30638
30637.4
30636.8
30636.2
30635.6
30635
30634.4
30633.9
30633.3
30632.7
30632.1
30631.5
30630.9
30630.3
30629.7
30629.1
30628.5
30627.9
30627.4
30626.8
30626.2
30625.6
30625
30624.4
30623.8
30623.2
30622.6
30622
30621.4
30620.8
30620.2
30619.6
30619
30618.5
30617.9
30617.3
30616.7
30616.1
30615.5
30614.9
30614.3
30613.7
30613.1
30612.5
30611.9
30611.3
30610.7
30610.1
30609.5
30608.9
30608.3
30607.7
30607.1
30606.5
30605.9
30605.3
30604.7
30604.1
30603.5
30602.9
30602.3
30601.7
30601.1
30600.5
30599.9
30599.3
30598.7
30598.1
30597.5
30596.9
30596.3
30595.7
30595.1
30594.5
30593.9
30593.3
30592.7
30592.1
30591.5
30590.9
30590.3
30589.7
30589.1
30588.5
30587.9
30587.3
30586.7
30586.1
30585.5
30584.8
30584.2
30583.6
30583
30582.4
30581.8
30581.2
30580.6
30580
30579.4
30578.8
30578.2
30577.6
30577
30576.4
30575.7
30575.1
30574.5
30573.9
30573.3
30572.7
30572.1
30571.5
30570.9
30570.3
30569.7
30569
30568.4
30567.8
30567.2
30566.6
30566
30565.4
30564.8
30564.2
30563.5
30562.9
30562.3
30561.7
30561.1
30560.5
30559.9
30559.3
30558.6
30558
30557.4
30556.8
30556.2
30555.6
30555
30554.4
30553.7
30553.1
30552.5
30551.9
30551.3
30550.7
30550
30549.4
30548.8
30548.2
30547.6
30547
30546.3
30545.7
30545.1
30544.5
30543.9
30543.3
30542.6
30542
30541.4
30540.8
30540.2
30539.5
30538.9
30538.3
30537.7
30537.1
30536.4
30535.8
30535.2
30534.6
30534
30533.3
30532.7
30532.1
30531.5
30530.9
30530.2
30529.6
30529
30528.4
30527.7
30527.1
30526.5
30525.9
30525.3
30524.6
30524
30523.4
30522.8
30522.1
30521.5
30520.9
30520.3
30519.6
30519
30518.4
30517.8
30517.1
30516.5
30515.9
30515.3
30514.6
30514
30513.4
30512.8
30512.1
30511.5
30510.9
30510.2
30509.6
30509
30508.4
30507.7
30507.1
30506.5
30505.8
30505.2
30504.6
30504
30503.3
30502.7
30502.1
30501.4
30500.8
30500.2
30499.5
30498.9
30498.3
30497.6
30497
30496.4
30495.7
30495.1
30494.5
30493.9
30493.2
30492.6
30492
30491.3
30490.7
30490.1
30489.4
30488.8
30488.1
30487.5
30486.9
30486.2
30485.6
30485
30484.3
30483.7
30483.1
30482.4
30481.8
30481.2
30480.5
30479.9
30479.2
30478.6
30478
30477.3
30476.7
30476.1
30475.4
30474.8
30474.1
30473.5
30472.9
30472.2
30471.6
30471
30470.3
30469.7
30469
30468.4
30467.8
30467.1
30466.5
30465.8
30465.2
30464.5
30463.9
30463.3
30462.6
30462
30461.3
30460.7
30460.1
30459.4
30458.8
30458.1
30457.5
30456.8
30456.2
30455.5
30454.9
30454.3
30453.6
30453
30452.3
30451.7
30451
30450.4
30449.7
30449.1
30448.5
30447.8
30447.2
30446.5
30445.9
30445.2
30444.6
30443.9
30443.3
30442.6
30442
30441.3
30440.7
30440
30439.4
30438.7
30438.1
30437.4
30436.8
30436.1
30435.5
30434.8
30434.2
30433.5
30432.9
30432.2
30431.6
30430.9
30430.3
30429.6
30429
30428.3
30427.7
30427
30426.4
30425.7
30425.1
30424.4
30423.8
30423.1
30422.5
30421.8
30421.2
30420.5
30419.8
30419.2
30418.5
30417.9
30417.2
30416.6
30415.9
30415.3
30414.6
30413.9
30413.3
30412.6
30412
30411.3
30410.7
30410
30409.3
30408.7
30408
30407.4
30406.7
30406.1
30405.4
30404.7
30404.1
30403.4
30402.8
30402.1
30401.4
30400.8
30400.1
30399.5
30398.8
30398.1
30397.5
30396.8
30396.2
30395.5
30394.8
30394.2
30393.5
30392.9
30392.2
30391.5
30390.9
30390.2
30389.5
30388.9
30388.2
30387.6
30386.9
30386.2
30385.6
30384.9
30384.2
30383.6
30382.9
30382.2
30381.6
30380.9
30380.2
30379.6
30378.9
30378.2
30377.6
30376.9
30376.2
30375.6
30374.9
30374.2
30373.6
30372.9
30372.2
30371.6
30370.9
30370.2
30369.6
30368.9
30368.2
30367.6
30366.9
30366.2
30365.6
30364.9
30364.2
30363.5
30362.9
30362.2
30361.5
30360.9
30360.2
30359.5
30358.8
30358.2
30357.5
30356.8
30356.2
30355.5
30354.8
30354.1
30353.5
30352.8
30352.1
30351.5
30350.8
30350.1
30349.4
30348.8
30348.1
30347.4
30346.7
30346.1
30345.4
30344.7
30344
30343.4
30342.7
30342
30341.3
30340.6
30340
30339.3
30338.6
30337.9
30337.3
30336.6
30335.9
30335.2
30334.6
30333.9
30333.2
30332.5
30331.8
30331.2
30330.5
30329.8
30329.1
30328.4
30327.8
30327.1
30326.4
30325.7
30325
30324.4
30323.7
30323
30322.3
30321.6
30320.9
30320.3
30319.6
30318.9
30318.2
30317.5
30316.8
30316.2
30315.5
30314.8
30314.1
30313.4
30312.7
30312.1
30311.4
30310.7
30310
30309.3
30308.6
30308
30307.3
30306.6
30305.9
30305.2
30304.5
30303.8
30303.1
30302.5
30301.8
30301.1
30300.4
30299.7
30299
30298.3
30297.6
30297
30296.3
30295.6
30294.9
30294.2
30293.5
30292.8
30292.1
30291.4
30290.8
30290.1
30289.4
30288.7
30288
30287.3
30286.6
30285.9
30285.2
30284.5
30283.8
30283.1
30282.5
30281.8
30281.1
30280.4
30279.7
30279
30278.3
30277.6
30276.9
30276.2
30275.5
30274.8
30274.1
30273.4
30272.7
30272
30271.3
30270.7
30270
30269.3
30268.6
30267.9
30267.2
30266.5
30265.8
30265.1
30264.4
30263.7
30263
30262.3
30261.6
30260.9
30260.2
30259.5
30258.8
30258.1
30257.4
30256.7
30256
30255.3
30254.6
30253.9
30253.2
30252.5
30251.8
30251.1
30250.4
30249.7
30249
30248.3
30247.6
30246.9
30246.2
30245.5
30244.8
30244.1
30243.4
30242.7
30242
30241.3
30240.6
30239.9
30239.2
30238.4
30237.7
30237
30236.3
30235.6
30234.9
30234.2
30233.5
30232.8
30232.1
30231.4
30230.7
30230
30229.3
30228.6
30227.9
30227.2
30226.4
30225.7
30225
30224.3
30223.6
30222.9
30222.2
30221.5
30220.8
30220.1
30219.4
30218.7
30217.9
30217.2
30216.5
30215.8
30215.1
30214.4
30213.7
30213
30212.3
30211.5
30210.8
30210.1
30209.4
30208.7
30208
30207.3
30206.6
30205.8
30205.1
30204.4
30203.7
30203
30202.3
30201.6
30200.9
30200.1
30199.4
30198.7
30198
30197.3
30196.6
30195.8
30195.1
30194.4
30193.7
30193
30192.3
30191.5
30190.8
30190.1
30189.4
30188.7
30188
30187.2
30186.5
30185.8
30185.1
30184.4
30183.7
30182.9
30182.2
30181.5
30180.8
30180.1
30179.3
30178.6
30177.9
30177.2
30176.5
30175.7
30175
30174.3
30173.6
30172.9
30172.1
30171.4
30170.7
30170
30169.2
30168.5
30167.8
30167.1
30166.3
30165.6
30164.9
30164.2
30163.5
30162.7
30162
30161.3
30160.6
30159.8
30159.1
30158.4
30157.7
30156.9
30156.2
30155.5
30154.8
30154
30153.3
30152.6
30151.8
30151.1
30150.4
30149.7
30148.9
30148.2
30147.5
30146.8
30146
30145.3
30144.6
30143.8
30143.1
30142.4
30141.7
30140.9
30140.2
30139.5
30138.7
30138
30137.3
30136.5
30135.8
30135.1
30134.3
30133.6
30132.9
30132.1
30131.4
30130.7
30130
30129.2
30128.5
30127.8
30127
30126.3
30125.6
30124.8
30124.1
30123.4
30122.6
30121.9
30121.1
30120.4
30119.7
30118.9
30118.2
30117.5
30116.7
30116
30115.3
30114.5
30113.8
30113.1
30112.3
30111.6
30110.8
30110.1
30109.4
30108.6
30107.9
30107.2
30106.4
30105.7
30104.9
30104.2
30103.5
30102.7
30102
30101.2
30100.5
30099.8
30099
30098.3
30097.5
30096.8
30096.1
30095.3
30094.6
30093.8
30093.1
30092.3
30091.6
30090.9
30090.1
30089.4
30088.6
30087.9
30087.1
30086.4
30085.7
30084.9
30084.2
30083.4
30082.7
30081.9
30081.2
30080.5
30079.7
30079
30078.2
30077.5
30076.7
30076
30075.2
30074.5
30073.7
30073
30072.2
30071.5
30070.8
30070
30069.3
30068.5
30067.8
30067
30066.3
30065.5
30064.8
30064
30063.3
30062.5
30061.8
30061
30060.3
30059.5
30058.8
30058
30057.3
30056.5
30055.8
30055
30054.3
30053.5
30052.8
30052
30051.3
30050.5
30049.7
30049
30048.2
30047.5
30046.7
30046
30045.2
30044.5
30043.7
30043
30042.2
30041.5
30040.7
30039.9
30039.2
30038.4
30037.7
30036.9
30036.2
30035.4
30034.7
30033.9
30033.1
30032.4
30031.6
30030.9
30030.1
30029.4
30028.6
30027.8
30027.1
30026.3
30025.6
30024.8
30024.1
30023.3
30022.5
30021.8
30021
30020.3
30019.5
30018.7
30018
30017.2
30016.5
30015.7
30014.9
30014.2
30013.4
30012.6
30011.9
30011.1
30010.4
30009.6
30008.8
30008.1
30007.3
30006.6
30005.8
30005
30004.3
30003.5
30002.7
30002
30001.2
30000.4
29999.7
29998.9
29998.1
29997.4
29996.6
29995.8
29995.1
29994.3
29993.6
29992.8
29992
29991.3
29990.5
29989.7
29988.9
29988.2
29987.4
29986.6
29985.9
29985.1
29984.3
29983.6
29982.8
29982
29981.3
29980.5
29979.7
29979
29978.2
29977.4
29976.6
29975.9
29975.1
29974.3
29973.6
29972.8
29972
29971.3
29970.5
29969.7
29968.9
29968.2
29967.4
29966.6
29965.8
29965.1
29964.3
29963.5
29962.8
29962
29961.2
29960.4
29959.7
29958.9
29958.1
29957.3
29956.6
29955.8
29955
29954.2
29953.5
29952.7
29951.9
29951.1
29950.4
29949.6
29948.8
29948
29947.2
29946.5
29945.7
29944.9
29944.1
29943.4
29942.6
29941.8
29941
29940.2
29939.5
29938.7
29937.9
29937.1
29936.3
29935.6
29934.8
29934
29933.2
29932.4
29931.7
29930.9
29930.1
29929.3
29928.5
29927.8
29927
29926.2
29925.4
29924.6
29923.8
29923.1
29922.3
29921.5
29920.7
29919.9
29919.1
29918.4
29917.6
29916.8
29916
29915.2
29914.4
29913.7
29912.9
29912.1
29911.3
29910.5
29909.7
29908.9
29908.2
29907.4
29906.6
29905.8
29905
29904.2
29903.4
29902.6
29901.9
29901.1
29900.3
29899.5
29898.7
29897.9
29897.1
29896.3
29895.6
29894.8
29894
29893.2
29892.4
29891.6
29890.8
29890
29889.2
29888.4
29887.6
29886.9
29886.1
29885.3
29884.5
29883.7
29882.9
29882.1
29881.3
29880.5
29879.7
29878.9
29878.1
29877.4
29876.6
29875.8
29875
29874.2
29873.4
29872.6
29871.8
29871
29870.2
29869.4
29868.6
29867.8
29867
29866.2
29865.4
29864.6
29863.8
29863
29862.2
29861.4
29860.6
29859.9
29859.1
29858.3
29857.5
29856.7
29855.9
29855.1
29854.3
29853.5
29852.7
29851.9
29851.1
29850.3
29849.5
29848.7
29847.9
29847.1
29846.3
29845.5
29844.7
29843.9
29843.1
29842.3
29841.5
29840.7
29839.9
29839.1
29838.3
29837.5
29836.7
29835.9
29835
29834.2
29833.4
29832.6
29831.8
29831
29830.2
29829.4
29828.6
29827.8
29827
29826.2
29825.4
29824.6
29823.8
29823
29822.2
29821.4
29820.6
29819.8
29819
29818.1
29817.3
29816.5
29815.7
29814.9
29814.1
29813.3
29812.5
29811.7
29810.9
29810.1
29809.3
29808.5
29807.6
29806.8
29806
29805.2
29804.4
29803.6
29802.8
29802
29801.2
29800.4
29799.6
29798.7
29797.9
29797.1
29796.3
29795.5
29794.7
29793.9
29793.1
29792.2
29791.4
29790.6
29789.8
29789
29788.2
29787.4
29786.6
29785.7
29784.9
29784.1
29783.3
29782.5
29781.7
29780.9
29780
29779.2
29778.4
29777.6
29776.8
29776
29775.2
29774.3
29773.5
29772.7
29771.9
29771.1
29770.3
29769.4
29768.6
29767.8
29767
29766.2
29765.3
29764.5
29763.7
29762.9
29762.1
29761.3
29760.4
29759.6
29758.8
29758
29757.2
29756.3
29755.5
29754.7
29753.9
29753.1
29752.2
29751.4
29750.6
29749.8
29749
29748.1
29747.3
29746.5
29745.7
29744.8
29744
29743.2
29742.4
29741.6
29740.7
29739.9
29739.1
29738.3
29737.4
29736.6
29735.8
29735
29734.1
29733.3
29732.5
29731.7
29730.8
29730
29729.2
29728.4
29727.5
29726.7
29725.9
29725.1
29724.2
29723.4
29722.6
29721.7
29720.9
29720.1
29719.3
29718.4
29717.6
29716.8
29716
29715.1
29714.3
29713.5
29712.6
29711.8
29711
29710.2
29709.3
29708.5
29707.7
29706.8
29706
29705.2
29704.3
29703.5
29702.7
29701.8
29701
29700.2
29699.4
29698.5
29697.7
29696.9
29696
29695.2
29694.4
29693.5
29692.7
29691.9
29691
29690.2
29689.4
29688.5
29687.7
29686.9
29686
29685.2
29684.4
29683.5
29682.7
29681.8
29681
29680.2
29679.3
29678.5
29677.7
29676.8
29676
29675.2
29674.3
29673.5
29672.7
29671.8
29671
29670.1
29669.3
29668.5
29667.6
29666.8
29665.9
29665.1
29664.3
29663.4
29662.6
29661.8
29660.9
29660.1
29659.2
29658.4
29657.6
29656.7
29655.9
29655
29654.2
29653.4
29652.5
29651.7
29650.8
29650
29649.1
29648.3
29647.5
29646.6
29645.8
29644.9
29644.1
29643.2
29642.4
29641.6
29640.7
29639.9
29639
29638.2
29637.3
29636.5
29635.7
29634.8
29634
29633.1
29632.3
29631.4
29630.6
29629.7
29628.9
29628
29627.2
29626.4
29625.5
29624.7
29623.8
29623
29622.1
29621.3
29620.4
29619.6
29618.7
29617.9
29617
29616.2
29615.3
29614.5
29613.6
29612.8
29611.9
29611.1
29610.3
29609.4
29608.6
29607.7
29606.9
29606
29605.2
29604.3
29603.5
29602.6
29601.8
29600.9
29600
29599.2
29598.3
29597.5
29596.6
29595.8
29594.9
29594.1
29593.2
29592.4
29591.5
29590.7
29589.8
29589
29588.1
29587.3
29586.4
29585.6
29584.7
29583.8
29583
29582.1
29581.3
29580.4
29579.6
29578.7
29577.9
29577
29576.2
29575.3
29574.4
29573.6
29572.7
29571.9
29571
29570.2
29569.3
29568.4
29567.6
29566.7
29565.9
29565
29564.2
29563.3
29562.4
29561.6
29560.7
29559.9
29559
29558.2
29557.3
29556.4
29555.6
29554.7
29553.9
29553
29552.1
29551.3
29550.4
29549.6
29548.7
29547.8
29547
29546.1
29545.3
29544.4
29543.5
29542.7
29541.8
29540.9
29540.1
29539.2
29538.4
29537.5
29536.6
29535.8
29534.9
29534.1
29533.2
29532.3
29531.5
29530.6
29529.7
29528.9
29528
29527.1
29526.3
29525.4
29524.5
29523.7
29522.8
29522
29521.1
29520.2
29519.4
29518.5
29517.6
29516.8
29515.9
29515
29514.2
29513.3
29512.4
29511.6
29510.7
29509.8
29509
29508.1
29507.2
29506.4
29505.5
29504.6
29503.8
29502.9
29502
29501.2
29500.3
29499.4
29498.5
29497.7
29496.8
29495.9
29495.1
29494.2
29493.3
29492.5
29491.6
29490.7
29489.9
29489
29488.1
29487.2
29486.4
29485.5
29484.6
29483.8
29482.9
29482
29481.1
29480.3
29479.4
29478.5
29477.7
29476.8
29475.9
29475
29474.2
29473.3
29472.4
29471.5
29470.7
29469.8
29468.9
29468.1
29467.2
29466.3
29465.4
29464.6
29463.7
29462.8
29461.9
29461.1
29460.2
29459.3
29458.4
29457.6
29456.7
29455.8
29454.9
29454.1
29453.2
29452.3
29451.4
29450.6
29449.7
29448.8
29447.9
29447
29446.2
29445.3
29444.4
29443.5
29442.7
29441.8
29440.9
29440
29439.2
29438.3
29437.4
29436.5
29435.6
29434.8
29433.9
29433
29432.1
29431.2
29430.4
29429.5
29428.6
29427.7
29426.8
29426
29425.1
29424.2
29423.3
29422.4
29421.6
29420.7
29419.8
29418.9
29418
29417.2
29416.3
29415.4
29414.5
29413.6
29412.8
29411.9
29411
29410.1
29409.2
29408.3
29407.5
29406.6
29405.7
29404.8
29403.9
29403.1
29402.2
29401.3
29400.4
29399.5
29398.6
29397.8
29396.9
29396
29395.1
29394.2
29393.3
29392.5
29391.6
29390.7
29389.8
29388.9
29388
29387.1
29386.3
29385.4
29384.5
29383.6
29382.7
29381.8
29381
29380.1
29379.2
29378.3
29377.4
29376.5
29375.6
29374.8
29373.9
29373
29372.1
29371.2
29370.3
29369.4
29368.5
29367.7
29366.8
29365.9
29365
29364.1
29363.2
29362.3
29361.4
29360.6
29359.7
29358.8
29357.9
29357
29356.1
29355.2
29354.3
29353.5
29352.6