/*--------------------------------*- C++ -*----------------------------------*\
  =========                 |
  \\      /  F ield         | OpenFOAM: The Open Source CFD Toolbox
   \\    /   O peration     | Website:  https://openfoam.org
    \\  /    A nd           | Version:  9
     \\/     M anipulation  |
\*---------------------------------------------------------------------------*/
FoamFile
{
    format      ascii;
    class       volScalarField;
    location    "0.023";
    object      rho_0;
}
// * * * * * * * * * * * * * * * * * * * * * * * * * * * * * * * * * * * * * //

dimensions      [1 -3 0 0 0 0 0];

internalField   nonuniform List<scalar> 
10000
(
0.4373
0.43729
0.437276
0.437261
0.437247
0.437233
0.437219
0.437206
0.437192
0.437177
0.437162
0.437148
0.437135
0.437123
0.437111
0.437098
0.437083
0.437068
0.437052
0.437037
0.437023
0.43701
0.437
0.436991
0.436985
0.436979
0.436975
0.436971
0.436968
0.436965
0.436961
0.436958
0.436956
0.436954
0.436952
0.436949
0.436947
0.436945
0.436942
0.43694
0.436938
0.436935
0.436933
0.436931
0.436928
0.436926
0.436924
0.436921
0.436919
0.436917
0.436914
0.436912
0.43691
0.436907
0.436905
0.436902
0.4369
0.436898
0.436895
0.436893
0.436891
0.436888
0.436886
0.436883
0.436881
0.436879
0.436876
0.436874
0.436872
0.436869
0.436867
0.436864
0.436862
0.43686
0.436857
0.436855
0.436852
0.43685
0.436848
0.436845
0.436843
0.43684
0.436838
0.436836
0.436833
0.436831
0.436828
0.436826
0.436823
0.436821
0.436819
0.436816
0.436814
0.436811
0.436809
0.436806
0.436804
0.436802
0.436799
0.436797
0.436794
0.436792
0.436789
0.436787
0.436785
0.436782
0.43678
0.436777
0.436775
0.436772
0.43677
0.436767
0.436765
0.436762
0.43676
0.436758
0.436755
0.436753
0.43675
0.436748
0.436745
0.436743
0.43674
0.436738
0.436735
0.436733
0.43673
0.436728
0.436725
0.436723
0.43672
0.436718
0.436715
0.436713
0.43671
0.436708
0.436705
0.436703
0.4367
0.436698
0.436695
0.436693
0.43669
0.436688
0.436685
0.436683
0.43668
0.436678
0.436675
0.436673
0.43667
0.436668
0.436665
0.436663
0.43666
0.436658
0.436655
0.436653
0.43665
0.436648
0.436645
0.436642
0.43664
0.436637
0.436635
0.436632
0.43663
0.436627
0.436625
0.436622
0.43662
0.436617
0.436614
0.436612
0.436609
0.436607
0.436604
0.436602
0.436599
0.436597
0.436594
0.436591
0.436589
0.436586
0.436584
0.436581
0.436578
0.436576
0.436573
0.436571
0.436568
0.436566
0.436563
0.43656
0.436558
0.436555
0.436553
0.43655
0.436547
0.436545
0.436542
0.43654
0.436537
0.436534
0.436532
0.436529
0.436527
0.436524
0.436521
0.436519
0.436516
0.436514
0.436511
0.436508
0.436506
0.436503
0.4365
0.436498
0.436495
0.436492
0.43649
0.436487
0.436485
0.436482
0.436479
0.436477
0.436474
0.436471
0.436469
0.436466
0.436463
0.436461
0.436458
0.436455
0.436453
0.43645
0.436447
0.436445
0.436442
0.43644
0.436437
0.436434
0.436431
0.436429
0.436426
0.436423
0.436421
0.436418
0.436415
0.436413
0.43641
0.436407
0.436405
0.436402
0.436399
0.436397
0.436394
0.436391
0.436389
0.436386
0.436383
0.43638
0.436378
0.436375
0.436372
0.43637
0.436367
0.436364
0.436362
0.436359
0.436356
0.436353
0.436351
0.436348
0.436345
0.436342
0.43634
0.436337
0.436334
0.436332
0.436329
0.436326
0.436323
0.436321
0.436318
0.436315
0.436312
0.43631
0.436307
0.436304
0.436301
0.436299
0.436296
0.436293
0.43629
0.436288
0.436285
0.436282
0.436279
0.436277
0.436274
0.436271
0.436268
0.436266
0.436263
0.43626
0.436257
0.436254
0.436252
0.436249
0.436246
0.436243
0.436241
0.436238
0.436235
0.436232
0.436229
0.436227
0.436224
0.436221
0.436218
0.436215
0.436213
0.43621
0.436207
0.436204
0.436201
0.436199
0.436196
0.436193
0.43619
0.436187
0.436184
0.436182
0.436179
0.436176
0.436173
0.43617
0.436168
0.436165
0.436162
0.436159
0.436156
0.436153
0.436151
0.436148
0.436145
0.436142
0.436139
0.436136
0.436133
0.436131
0.436128
0.436125
0.436122
0.436119
0.436116
0.436113
0.436111
0.436108
0.436105
0.436102
0.436099
0.436096
0.436093
0.436091
0.436088
0.436085
0.436082
0.436079
0.436076
0.436073
0.43607
0.436067
0.436065
0.436062
0.436059
0.436056
0.436053
0.43605
0.436047
0.436044
0.436041
0.436039
0.436036
0.436033
0.43603
0.436027
0.436024
0.436021
0.436018
0.436015
0.436012
0.436009
0.436006
0.436004
0.436001
0.435998
0.435995
0.435992
0.435989
0.435986
0.435983
0.43598
0.435977
0.435974
0.435971
0.435968
0.435965
0.435962
0.435959
0.435957
0.435954
0.435951
0.435948
0.435945
0.435942
0.435939
0.435936
0.435933
0.43593
0.435927
0.435924
0.435921
0.435918
0.435915
0.435912
0.435909
0.435906
0.435903
0.4359
0.435897
0.435894
0.435891
0.435888
0.435885
0.435882
0.435879
0.435876
0.435873
0.43587
0.435867
0.435864
0.435861
0.435858
0.435855
0.435852
0.435849
0.435846
0.435843
0.43584
0.435837
0.435834
0.435831
0.435828
0.435825
0.435822
0.435819
0.435816
0.435813
0.43581
0.435807
0.435804
0.435801
0.435798
0.435795
0.435792
0.435789
0.435786
0.435783
0.43578
0.435776
0.435773
0.43577
0.435767
0.435764
0.435761
0.435758
0.435755
0.435752
0.435749
0.435746
0.435743
0.43574
0.435737
0.435734
0.43573
0.435727
0.435724
0.435721
0.435718
0.435715
0.435712
0.435709
0.435706
0.435703
0.4357
0.435697
0.435693
0.43569
0.435687
0.435684
0.435681
0.435678
0.435675
0.435672
0.435669
0.435665
0.435662
0.435659
0.435656
0.435653
0.43565
0.435647
0.435644
0.435641
0.435637
0.435634
0.435631
0.435628
0.435625
0.435622
0.435619
0.435615
0.435612
0.435609
0.435606
0.435603
0.4356
0.435597
0.435593
0.43559
0.435587
0.435584
0.435581
0.435578
0.435575
0.435571
0.435568
0.435565
0.435562
0.435559
0.435556
0.435552
0.435549
0.435546
0.435543
0.43554
0.435536
0.435533
0.43553
0.435527
0.435524
0.435521
0.435517
0.435514
0.435511
0.435508
0.435505
0.435501
0.435498
0.435495
0.435492
0.435489
0.435485
0.435482
0.435479
0.435476
0.435472
0.435469
0.435466
0.435463
0.43546
0.435456
0.435453
0.43545
0.435447
0.435443
0.43544
0.435437
0.435434
0.435431
0.435427
0.435424
0.435421
0.435418
0.435414
0.435411
0.435408
0.435405
0.435401
0.435398
0.435395
0.435392
0.435388
0.435385
0.435382
0.435378
0.435375
0.435372
0.435369
0.435365
0.435362
0.435359
0.435356
0.435352
0.435349
0.435346
0.435342
0.435339
0.435336
0.435333
0.435329
0.435326
0.435323
0.435319
0.435316
0.435313
0.43531
0.435306
0.435303
0.4353
0.435296
0.435293
0.43529
0.435286
0.435283
0.43528
0.435276
0.435273
0.43527
0.435266
0.435263
0.43526
0.435256
0.435253
0.43525
0.435246
0.435243
0.43524
0.435236
0.435233
0.43523
0.435226
0.435223
0.43522
0.435216
0.435213
0.43521
0.435206
0.435203
0.4352
0.435196
0.435193
0.43519
0.435186
0.435183
0.435179
0.435176
0.435173
0.435169
0.435166
0.435163
0.435159
0.435156
0.435152
0.435149
0.435146
0.435142
0.435139
0.435136
0.435132
0.435129
0.435125
0.435122
0.435119
0.435115
0.435112
0.435108
0.435105
0.435102
0.435098
0.435095
0.435091
0.435088
0.435084
0.435081
0.435078
0.435074
0.435071
0.435067
0.435064
0.435061
0.435057
0.435054
0.43505
0.435047
0.435043
0.43504
0.435036
0.435033
0.43503
0.435026
0.435023
0.435019
0.435016
0.435012
0.435009
0.435005
0.435002
0.434999
0.434995
0.434992
0.434988
0.434985
0.434981
0.434978
0.434974
0.434971
0.434967
0.434964
0.43496
0.434957
0.434953
0.43495
0.434946
0.434943
0.434939
0.434936
0.434932
0.434929
0.434925
0.434922
0.434918
0.434915
0.434911
0.434908
0.434904
0.434901
0.434897
0.434894
0.43489
0.434887
0.434883
0.43488
0.434876
0.434873
0.434869
0.434866
0.434862
0.434859
0.434855
0.434852
0.434848
0.434845
0.434841
0.434838
0.434834
0.43483
0.434827
0.434823
0.43482
0.434816
0.434813
0.434809
0.434806
0.434802
0.434798
0.434795
0.434791
0.434788
0.434784
0.434781
0.434777
0.434774
0.43477
0.434766
0.434763
0.434759
0.434756
0.434752
0.434748
0.434745
0.434741
0.434738
0.434734
0.434731
0.434727
0.434723
0.43472
0.434716
0.434713
0.434709
0.434705
0.434702
0.434698
0.434695
0.434691
0.434687
0.434684
0.43468
0.434676
0.434673
0.434669
0.434666
0.434662
0.434658
0.434655
0.434651
0.434647
0.434644
0.43464
0.434637
0.434633
0.434629
0.434626
0.434622
0.434618
0.434615
0.434611
0.434607
0.434604
0.4346
0.434596
0.434593
0.434589
0.434585
0.434582
0.434578
0.434574
0.434571
0.434567
0.434563
0.43456
0.434556
0.434552
0.434549
0.434545
0.434541
0.434538
0.434534
0.43453
0.434527
0.434523
0.434519
0.434516
0.434512
0.434508
0.434504
0.434501
0.434497
0.434493
0.43449
0.434486
0.434482
0.434479
0.434475
0.434471
0.434467
0.434464
0.43446
0.434456
0.434452
0.434449
0.434445
0.434441
0.434438
0.434434
0.43443
0.434426
0.434423
0.434419
0.434415
0.434411
0.434408
0.434404
0.4344
0.434396
0.434393
0.434389
0.434385
0.434381
0.434378
0.434374
0.43437
0.434366
0.434363
0.434359
0.434355
0.434351
0.434348
0.434344
0.43434
0.434336
0.434332
0.434329
0.434325
0.434321
0.434317
0.434313
0.43431
0.434306
0.434302
0.434298
0.434294
0.434291
0.434287
0.434283
0.434279
0.434275
0.434272
0.434268
0.434264
0.43426
0.434256
0.434253
0.434249
0.434245
0.434241
0.434237
0.434233
0.43423
0.434226
0.434222
0.434218
0.434214
0.43421
0.434207
0.434203
0.434199
0.434195
0.434191
0.434187
0.434184
0.43418
0.434176
0.434172
0.434168
0.434164
0.43416
0.434157
0.434153
0.434149
0.434145
0.434141
0.434137
0.434133
0.43413
0.434126
0.434122
0.434118
0.434114
0.43411
0.434106
0.434102
0.434098
0.434095
0.434091
0.434087
0.434083
0.434079
0.434075
0.434071
0.434067
0.434063
0.434059
0.434056
0.434052
0.434048
0.434044
0.43404
0.434036
0.434032
0.434028
0.434024
0.43402
0.434016
0.434012
0.434009
0.434005
0.434001
0.433997
0.433993
0.433989
0.433985
0.433981
0.433977
0.433973
0.433969
0.433965
0.433961
0.433957
0.433953
0.433949
0.433945
0.433941
0.433938
0.433934
0.43393
0.433926
0.433922
0.433918
0.433914
0.43391
0.433906
0.433902
0.433898
0.433894
0.43389
0.433886
0.433882
0.433878
0.433874
0.43387
0.433866
0.433862
0.433858
0.433854
0.43385
0.433846
0.433842
0.433838
0.433834
0.43383
0.433826
0.433822
0.433818
0.433814
0.43381
0.433806
0.433802
0.433798
0.433794
0.43379
0.433786
0.433782
0.433778
0.433774
0.43377
0.433765
0.433761
0.433757
0.433753
0.433749
0.433745
0.433741
0.433737
0.433733
0.433729
0.433725
0.433721
0.433717
0.433713
0.433709
0.433705
0.433701
0.433697
0.433693
0.433688
0.433684
0.43368
0.433676
0.433672
0.433668
0.433664
0.43366
0.433656
0.433652
0.433648
0.433644
0.433639
0.433635
0.433631
0.433627
0.433623
0.433619
0.433615
0.433611
0.433607
0.433603
0.433598
0.433594
0.43359
0.433586
0.433582
0.433578
0.433574
0.43357
0.433565
0.433561
0.433557
0.433553
0.433549
0.433545
0.433541
0.433537
0.433532
0.433528
0.433524
0.43352
0.433516
0.433512
0.433508
0.433503
0.433499
0.433495
0.433491
0.433487
0.433483
0.433478
0.433474
0.43347
0.433466
0.433462
0.433458
0.433453
0.433449
0.433445
0.433441
0.433437
0.433433
0.433428
0.433424
0.43342
0.433416
0.433412
0.433407
0.433403
0.433399
0.433395
0.433391
0.433386
0.433382
0.433378
0.433374
0.43337
0.433365
0.433361
0.433357
0.433353
0.433348
0.433344
0.43334
0.433336
0.433332
0.433327
0.433323
0.433319
0.433315
0.43331
0.433306
0.433302
0.433298
0.433293
0.433289
0.433285
0.433281
0.433277
0.433272
0.433268
0.433264
0.433259
0.433255
0.433251
0.433247
0.433242
0.433238
0.433234
0.43323
0.433225
0.433221
0.433217
0.433213
0.433208
0.433204
0.4332
0.433195
0.433191
0.433187
0.433183
0.433178
0.433174
0.43317
0.433165
0.433161
0.433157
0.433152
0.433148
0.433144
0.43314
0.433135
0.433131
0.433127
0.433122
0.433118
0.433114
0.433109
0.433105
0.433101
0.433096
0.433092
0.433088
0.433083
0.433079
0.433075
0.43307
0.433066
0.433062
0.433057
0.433053
0.433049
0.433044
0.43304
0.433036
0.433031
0.433027
0.433023
0.433018
0.433014
0.43301
0.433005
0.433001
0.432996
0.432992
0.432988
0.432983
0.432979
0.432975
0.43297
0.432966
0.432961
0.432957
0.432953
0.432948
0.432944
0.43294
0.432935
0.432931
0.432926
0.432922
0.432918
0.432913
0.432909
0.432904
0.4329
0.432896
0.432891
0.432887
0.432882
0.432878
0.432873
0.432869
0.432865
0.43286
0.432856
0.432851
0.432847
0.432842
0.432838
0.432834
0.432829
0.432825
0.43282
0.432816
0.432811
0.432807
0.432803
0.432798
0.432794
0.432789
0.432785
0.43278
0.432776
0.432771
0.432767
0.432762
0.432758
0.432753
0.432749
0.432745
0.43274
0.432736
0.432731
0.432727
0.432722
0.432718
0.432713
0.432709
0.432704
0.4327
0.432695
0.432691
0.432686
0.432682
0.432677
0.432673
0.432668
0.432664
0.432659
0.432655
0.43265
0.432646
0.432641
0.432637
0.432632
0.432628
0.432623
0.432619
0.432614
0.43261
0.432605
0.432601
0.432596
0.432592
0.432587
0.432582
0.432578
0.432573
0.432569
0.432564
0.43256
0.432555
0.432551
0.432546
0.432541
0.432537
0.432532
0.432528
0.432523
0.432519
0.432514
0.43251
0.432505
0.432501
0.432496
0.432492
0.432486
0.432483
0.432477
0.432473
0.432468
0.432464
0.432459
0.432455
0.43245
0.432446
0.432441
0.432437
0.432431
0.432427
0.432422
0.432418
0.432413
0.432409
0.432404
0.4324
0.432395
0.432391
0.432385
0.432381
0.432376
0.432372
0.432367
0.432363
0.432358
0.432353
0.432349
0.432344
0.43234
0.432335
0.43233
0.432325
0.432321
0.432316
0.432312
0.432307
0.432302
0.432298
0.432293
0.432289
0.432284
0.432279
0.432274
0.43227
0.432265
0.43226
0.432256
0.432251
0.432247
0.432242
0.432237
0.432232
0.432228
0.432223
0.432218
0.432214
0.432209
0.432205
0.4322
0.432195
0.43219
0.432185
0.432181
0.432176
0.432172
0.432167
0.432162
0.432157
0.432152
0.432148
0.432143
0.432139
0.432134
0.432129
0.432125
0.432119
0.432115
0.43211
0.432106
0.432101
0.432096
0.432092
0.432086
0.432082
0.432077
0.432073
0.432068
0.432063
0.432058
0.432053
0.432049
0.432044
0.432039
0.432035
0.432029
0.432025
0.43202
0.432016
0.432011
0.432006
0.432001
0.431996
0.431992
0.431987
0.431982
0.431977
0.431972
0.431968
0.431963
0.431958
0.431953
0.431948
0.431944
0.431939
0.431934
0.431929
0.431925
0.43192
0.431915
0.431911
0.431905
0.431901
0.431896
0.431891
0.431887
0.431881
0.431877
0.431872
0.431867
0.431862
0.431857
0.431852
0.431848
0.431843
0.431838
0.431833
0.431828
0.431824
0.431818
0.431814
0.431809
0.431804
0.4318
0.431794
0.43179
0.431785
0.43178
0.431775
0.43177
0.431766
0.43176
0.431756
0.431751
0.431746
0.431741
0.431736
0.431731
0.431727
0.431721
0.431717
0.431712
0.431707
0.431703
0.431697
0.431693
0.431688
0.431682
0.431678
0.431673
0.431668
0.431663
0.431658
0.431654
0.431648
0.431643
0.431639
0.431633
0.431629
0.431624
0.431619
0.431614
0.431609
0.431604
0.431599
0.431594
0.43159
0.431584
0.43158
0.431575
0.431569
0.431565
0.43156
0.431555
0.43155
0.431545
0.43154
0.431535
0.43153
0.431526
0.43152
0.431515
0.431511
0.431505
0.431501
0.431496
0.43149
0.431486
0.43148
0.431476
0.431471
0.431466
0.431461
0.431456
0.431451
0.431446
0.431441
0.431436
0.431431
0.431426
0.431421
0.431416
0.431411
0.431406
0.431401
0.431396
0.431391
0.431386
0.431381
0.431376
0.431371
0.431366
0.431361
0.431356
0.431351
0.431346
0.431341
0.431336
0.431331
0.431326
0.431321
0.431316
0.431311
0.431306
0.431301
0.431296
0.431291
0.431286
0.43128
0.431276
0.431271
0.431265
0.431261
0.431256
0.43125
0.431246
0.43124
0.431235
0.431231
0.431225
0.43122
0.431215
0.43121
0.431205
0.4312
0.431195
0.43119
0.431185
0.43118
0.431175
0.431169
0.431165
0.431159
0.431154
0.431149
0.431144
0.431139
0.431134
0.431129
0.431124
0.431119
0.431113
0.431109
0.431103
0.431098
0.431093
0.431088
0.431083
0.431078
0.431073
0.431068
0.431063
0.431057
0.431052
0.431047
0.431042
0.431037
0.431032
0.431026
0.431022
0.431016
0.431011
0.431006
0.431001
0.430996
0.430991
0.430985
0.43098
0.430975
0.43097
0.430965
0.43096
0.430954
0.43095
0.430944
0.430939
0.430934
0.430929
0.430924
0.430919
0.430913
0.430908
0.430903
0.430898
0.430893
0.430888
0.430882
0.430877
0.430872
0.430867
0.430862
0.430856
0.430851
0.430846
0.430841
0.430836
0.430831
0.430825
0.43082
0.430815
0.430809
0.430804
0.430799
0.430794
0.430789
0.430784
0.430778
0.430773
0.430768
0.430763
0.430758
0.430752
0.430747
0.430742
0.430736
0.430731
0.430726
0.430721
0.430716
0.43071
0.430705
0.4307
0.430695
0.430689
0.430684
0.430679
0.430673
0.430668
0.430663
0.430658
0.430653
0.430647
0.430642
0.430637
0.430632
0.430626
0.430621
0.430616
0.43061
0.430605
0.4306
0.430594
0.430589
0.430584
0.430579
0.430574
0.430568
0.430563
0.430558
0.430552
0.430547
0.430542
0.430536
0.430531
0.430526
0.43052
0.430515
0.43051
0.430504
0.430499
0.430494
0.430488
0.430483
0.430478
0.430472
0.430467
0.430462
0.430456
0.430451
0.430446
0.43044
0.430435
0.43043
0.430424
0.430419
0.430414
0.430408
0.430403
0.430398
0.430392
0.430387
0.430382
0.430376
0.430371
0.430366
0.43036
0.430355
0.43035
0.430344
0.430339
0.430333
0.430328
0.430323
0.430317
0.430312
0.430307
0.430301
0.430296
0.43029
0.430285
0.43028
0.430274
0.430269
0.430263
0.430258
0.430253
0.430247
0.430242
0.430236
0.430231
0.430226
0.43022
0.430215
0.430209
0.430204
0.430198
0.430193
0.430188
0.430182
0.430177
0.430171
0.430166
0.43016
0.430155
0.43015
0.430144
0.430139
0.430133
0.430128
0.430122
0.430117
0.430111
0.430106
0.430101
0.430095
0.43009
0.430084
0.430079
0.430073
0.430068
0.430062
0.430057
0.430051
0.430046
0.430041
0.430035
0.430029
0.430024
0.430019
0.430013
0.430008
0.430002
0.429997
0.429991
0.429986
0.42998
0.429975
0.429969
0.429964
0.429958
0.429953
0.429947
0.429942
0.429936
0.429931
0.429925
0.42992
0.429914
0.429908
0.429903
0.429897
0.429892
0.429886
0.429881
0.429875
0.42987
0.429864
0.429859
0.429853
0.429848
0.429842
0.429837
0.429831
0.429825
0.42982
0.429814
0.429809
0.429803
0.429798
0.429792
0.429787
0.429781
0.429775
0.42977
0.429764
0.429759
0.429753
0.429748
0.429742
0.429736
0.429731
0.429725
0.42972
0.429714
0.429709
0.429703
0.429697
0.429692
0.429686
0.429681
0.429675
0.429669
0.429664
0.429658
0.429653
0.429647
0.429641
0.429636
0.42963
0.429625
0.429619
0.429613
0.429608
0.429602
0.429596
0.429591
0.429585
0.429579
0.429574
0.429568
0.429563
0.429557
0.429551
0.429546
0.42954
0.429534
0.429529
0.429523
0.429517
0.429512
0.429506
0.4295
0.429495
0.429489
0.429483
0.429478
0.429472
0.429466
0.429461
0.429455
0.429449
0.429444
0.429438
0.429432
0.429427
0.429421
0.429415
0.42941
0.429404
0.429398
0.429393
0.429387
0.429381
0.429376
0.42937
0.429364
0.429358
0.429353
0.429347
0.429341
0.429336
0.42933
0.429324
0.429318
0.429313
0.429307
0.429301
0.429296
0.42929
0.429284
0.429278
0.429273
0.429267
0.429261
0.429255
0.42925
0.429244
0.429238
0.429232
0.429227
0.429221
0.429215
0.429209
0.429204
0.429198
0.429192
0.429186
0.429181
0.429175
0.429169
0.429163
0.429158
0.429152
0.429146
0.42914
0.429135
0.429129
0.429123
0.429117
0.429111
0.429106
0.4291
0.429094
0.429088
0.429082
0.429077
0.429071
0.429065
0.429059
0.429053
0.429048
0.429042
0.429036
0.42903
0.429024
0.429019
0.429013
0.429007
0.429001
0.428995
0.428989
0.428984
0.428978
0.428972
0.428966
0.42896
0.428954
0.428949
0.428943
0.428937
0.428931
0.428925
0.428919
0.428914
0.428908
0.428902
0.428896
0.42889
0.428884
0.428878
0.428873
0.428867
0.428861
0.428855
0.428849
0.428843
0.428837
0.428831
0.428826
0.42882
0.428814
0.428808
0.428802
0.428796
0.42879
0.428784
0.428779
0.428773
0.428767
0.428761
0.428755
0.428749
0.428743
0.428737
0.428731
0.428725
0.428719
0.428714
0.428708
0.428702
0.428696
0.42869
0.428684
0.428678
0.428672
0.428666
0.42866
0.428654
0.428648
0.428642
0.428637
0.428631
0.428625
0.428619
0.428613
0.428607
0.428601
0.428595
0.428589
0.428583
0.428577
0.428571
0.428565
0.428559
0.428553
0.428547
0.428541
0.428535
0.428529
0.428523
0.428517
0.428511
0.428505
0.428499
0.428493
0.428487
0.428481
0.428475
0.428469
0.428463
0.428457
0.428451
0.428445
0.428439
0.428433
0.428427
0.428421
0.428415
0.428409
0.428403
0.428397
0.428391
0.428385
0.428379
0.428373
0.428367
0.428361
0.428355
0.428349
0.428343
0.428337
0.428331
0.428325
0.428319
0.428313
0.428307
0.428301
0.428295
0.428289
0.428283
0.428277
0.428271
0.428265
0.428259
0.428252
0.428246
0.42824
0.428234
0.428228
0.428222
0.428216
0.42821
0.428204
0.428198
0.428192
0.428186
0.42818
0.428174
0.428167
0.428161
0.428155
0.428149
0.428143
0.428137
0.428131
0.428125
0.428119
0.428113
0.428106
0.4281
0.428094
0.428088
0.428082
0.428076
0.42807
0.428064
0.428058
0.428051
0.428045
0.428039
0.428033
0.428027
0.428021
0.428015
0.428009
0.428002
0.427996
0.42799
0.427984
0.427978
0.427972
0.427966
0.427959
0.427953
0.427947
0.427941
0.427935
0.427929
0.427922
0.427916
0.42791
0.427904
0.427898
0.427892
0.427885
0.427879
0.427873
0.427867
0.427861
0.427855
0.427848
0.427842
0.427836
0.42783
0.427824
0.427817
0.427811
0.427805
0.427799
0.427793
0.427786
0.42778
0.427774
0.427768
0.427762
0.427755
0.427749
0.427743
0.427737
0.42773
0.427724
0.427718
0.427712
0.427706
0.427699
0.427693
0.427687
0.427681
0.427674
0.427668
0.427662
0.427656
0.427649
0.427643
0.427637
0.427631
0.427624
0.427618
0.427612
0.427606
0.427599
0.427593
0.427587
0.427581
0.427574
0.427568
0.427562
0.427555
0.427549
0.427543
0.427537
0.42753
0.427524
0.427518
0.427511
0.427505
0.427499
0.427493
0.427486
0.42748
0.427474
0.427467
0.427461
0.427455
0.427448
0.427442
0.427436
0.42743
0.427423
0.427417
0.427411
0.427404
0.427398
0.427392
0.427385
0.427379
0.427373
0.427366
0.42736
0.427354
0.427347
0.427341
0.427335
0.427328
0.427322
0.427316
0.427309
0.427303
0.427296
0.42729
0.427284
0.427277
0.427271
0.427265
0.427258
0.427252
0.427246
0.427239
0.427233
0.427226
0.42722
0.427214
0.427207
0.427201
0.427195
0.427188
0.427182
0.427175
0.427169
0.427163
0.427156
0.42715
0.427143
0.427137
0.427131
0.427124
0.427118
0.427111
0.427105
0.427099
0.427092
0.427086
0.427079
0.427073
0.427066
0.42706
0.427054
0.427047
0.427041
0.427034
0.427028
0.427021
0.427015
0.427009
0.427002
0.426996
0.426989
0.426983
0.426976
0.42697
0.426963
0.426957
0.426951
0.426944
0.426938
0.426931
0.426925
0.426918
0.426912
0.426905
0.426899
0.426892
0.426886
0.426879
0.426873
0.426866
0.42686
0.426853
0.426847
0.42684
0.426834
0.426827
0.426821
0.426814
0.426808
0.426801
0.426795
0.426788
0.426782
0.426775
0.426769
0.426762
0.426756
0.426749
0.426743
0.426736
0.42673
0.426723
0.426717
0.42671
0.426704
0.426697
0.426691
0.426684
0.426678
0.426671
0.426664
0.426658
0.426651
0.426645
0.426638
0.426632
0.426625
0.426619
0.426612
0.426606
0.426599
0.426592
0.426586
0.426579
0.426573
0.426566
0.42656
0.426553
0.426546
0.42654
0.426533
0.426527
0.42652
0.426513
0.426507
0.4265
0.426494
0.426487
0.426481
0.426474
0.426467
0.426461
0.426454
0.426448
0.426441
0.426434
0.426428
0.426421
0.426414
0.426408
0.426401
0.426395
0.426388
0.426381
0.426375
0.426368
0.426361
0.426355
0.426348
0.426342
0.426335
0.426328
0.426322
0.426315
0.426308
0.426302
0.426295
0.426288
0.426282
0.426275
0.426268
0.426262
0.426255
0.426248
0.426242
0.426235
0.426228
0.426222
0.426215
0.426208
0.426202
0.426195
0.426188
0.426182
0.426175
0.426168
0.426162
0.426155
0.426148
0.426142
0.426135
0.426128
0.426121
0.426115
0.426108
0.426101
0.426095
0.426088
0.426081
0.426075
0.426068
0.426061
0.426054
0.426048
0.426041
0.426034
0.426027
0.426021
0.426014
0.426007
0.426001
0.425994
0.425987
0.42598
0.425974
0.425967
0.42596
0.425953
0.425947
0.42594
0.425933
0.425926
0.42592
0.425913
0.425906
0.425899
0.425893
0.425886
0.425879
0.425872
0.425865
0.425859
0.425852
0.425845
0.425838
0.425832
0.425825
0.425818
0.425811
0.425804
0.425798
0.425791
0.425784
0.425777
0.42577
0.425764
0.425757
0.42575
0.425743
0.425736
0.42573
0.425723
0.425716
0.425709
0.425702
0.425696
0.425689
0.425682
0.425675
0.425668
0.425661
0.425655
0.425648
0.425641
0.425634
0.425627
0.42562
0.425614
0.425607
0.4256
0.425593
0.425586
0.425579
0.425572
0.425566
0.425559
0.425552
0.425545
0.425538
0.425531
0.425524
0.425518
0.425511
0.425504
0.425497
0.42549
0.425483
0.425476
0.425469
0.425462
0.425456
0.425449
0.425442
0.425435
0.425428
0.425421
0.425414
0.425407
0.4254
0.425394
0.425387
0.42538
0.425373
0.425366
0.425359
0.425352
0.425345
0.425338
0.425331
0.425324
0.425317
0.42531
0.425304
0.425297
0.42529
0.425283
0.425276
0.425269
0.425262
0.425255
0.425248
0.425241
0.425234
0.425227
0.42522
0.425213
0.425206
0.425199
0.425192
0.425185
0.425178
0.425172
0.425165
0.425158
0.425151
0.425144
0.425137
0.42513
0.425123
0.425116
0.425109
0.425102
0.425095
0.425088
0.425081
0.425074
0.425067
0.42506
0.425053
0.425046
0.425039
0.425032
0.425025
0.425018
0.425011
0.425004
0.424997
0.42499
0.424983
0.424976
0.424969
0.424962
0.424955
0.424948
0.424941
0.424933
0.424926
0.424919
0.424912
0.424905
0.424898
0.424891
0.424884
0.424877
0.42487
0.424863
0.424856
0.424849
0.424842
0.424835
0.424828
0.424821
0.424814
0.424807
0.424799
0.424792
0.424785
0.424778
0.424771
0.424764
0.424757
0.42475
0.424743
0.424736
0.424729
0.424722
0.424715
0.424707
0.4247
0.424693
0.424686
0.424679
0.424672
0.424665
0.424658
0.424651
0.424643
0.424636
0.424629
0.424622
0.424615
0.424608
0.424601
0.424594
0.424587
0.424579
0.424572
0.424565
0.424558
0.424551
0.424544
0.424537
0.424529
0.424522
0.424515
0.424508
0.424501
0.424494
0.424487
0.424479
0.424472
0.424465
0.424458
0.424451
0.424444
0.424436
0.424429
0.424422
0.424415
0.424408
0.424401
0.424393
0.424386
0.424379
0.424372
0.424365
0.424357
0.42435
0.424343
0.424336
0.424329
0.424321
0.424314
0.424307
0.4243
0.424293
0.424285
0.424278
0.424271
0.424264
0.424257
0.424249
0.424242
0.424235
0.424228
0.42422
0.424213
0.424206
0.424199
0.424192
0.424184
0.424177
0.42417
0.424163
0.424155
0.424148
0.424141
0.424134
0.424126
0.424119
0.424112
0.424105
0.424097
0.42409
0.424083
0.424076
0.424068
0.424061
0.424054
0.424047
0.424039
0.424032
0.424025
0.424017
0.42401
0.424003
0.423996
0.423988
0.423981
0.423974
0.423966
0.423959
0.423952
0.423945
0.423937
0.42393
0.423923
0.423915
0.423908
0.423901
0.423893
0.423886
0.423879
0.423871
0.423864
0.423857
0.423849
0.423842
0.423835
0.423827
0.42382
0.423813
0.423805
0.423798
0.423791
0.423783
0.423776
0.423769
0.423761
0.423754
0.423747
0.423739
0.423732
0.423725
0.423717
0.42371
0.423703
0.423695
0.423688
0.423681
0.423673
0.423666
0.423658
0.423651
0.423644
0.423636
0.423629
0.423622
0.423614
0.423607
0.423599
0.423592
0.423585
0.423577
0.42357
0.423562
0.423555
0.423548
0.42354
0.423533
0.423525
0.423518
0.423511
0.423503
0.423496
0.423488
0.423481
0.423473
0.423466
0.423459
0.423451
0.423444
0.423436
0.423429
0.423421
0.423414
0.423407
0.423399
0.423392
0.423384
0.423377
0.423369
0.423362
0.423354
0.423347
0.42334
0.423332
0.423325
0.423317
0.42331
0.423302
0.423295
0.423287
0.42328
0.423272
0.423265
0.423257
0.42325
0.423242
0.423235
0.423228
0.42322
0.423213
0.423205
0.423198
0.42319
0.423183
0.423175
0.423168
0.42316
0.423153
0.423145
0.423138
0.42313
0.423123
0.423115
0.423108
0.4231
0.423092
0.423085
0.423077
0.42307
0.423062
0.423055
0.423047
0.42304
0.423032
0.423025
0.423017
0.42301
0.423002
0.422995
0.422987
0.422979
0.422972
0.422964
0.422957
0.422949
0.422942
0.422934
0.422927
0.422919
0.422911
0.422904
0.422896
0.422889
0.422881
0.422874
0.422866
0.422858
0.422851
0.422843
0.422836
0.422828
0.42282
0.422813
0.422805
0.422798
0.42279
0.422782
0.422775
0.422767
0.42276
0.422752
0.422744
0.422737
0.422729
0.422722
0.422714
0.422706
0.422699
0.422691
0.422684
0.422676
0.422668
0.422661
0.422653
0.422645
0.422638
0.42263
0.422623
0.422615
0.422607
0.4226
0.422592
0.422584
0.422577
0.422569
0.422561
0.422554
0.422546
0.422538
0.422531
0.422523
0.422515
0.422508
0.4225
0.422492
0.422485
0.422477
0.422469
0.422462
0.422454
0.422446
0.422439
0.422431
0.422423
0.422416
0.422408
0.4224
0.422393
0.422385
0.422377
0.422369
0.422362
0.422354
0.422346
0.422339
0.422331
0.422323
0.422315
0.422308
0.4223
0.422292
0.422285
0.422277
0.422269
0.422261
0.422254
0.422246
0.422238
0.42223
0.422223
0.422215
0.422207
0.4222
0.422192
0.422184
0.422176
0.422169
0.422161
0.422153
0.422145
0.422138
0.42213
0.422122
0.422114
0.422106
0.422099
0.422091
0.422083
0.422075
0.422068
0.42206
0.422052
0.422044
0.422037
0.422029
0.422021
0.422013
0.422005
0.421998
0.42199
0.421982
0.421974
0.421966
0.421959
0.421951
0.421943
0.421935
0.421927
0.42192
0.421912
0.421904
0.421896
0.421888
0.42188
0.421873
0.421865
0.421857
0.421849
0.421841
0.421834
0.421826
0.421818
0.42181
0.421802
0.421794
0.421786
0.421779
0.421771
0.421763
0.421755
0.421747
0.421739
0.421732
0.421724
0.421716
0.421708
0.4217
0.421692
0.421684
0.421676
0.421669
0.421661
0.421653
0.421645
0.421637
0.421629
0.421621
0.421613
0.421606
0.421598
0.42159
0.421582
0.421574
0.421566
0.421558
0.42155
0.421542
0.421535
0.421527
0.421519
0.421511
0.421503
0.421495
0.421487
0.421479
0.421471
0.421463
0.421455
0.421447
0.42144
0.421432
0.421424
0.421416
0.421408
0.4214
0.421392
0.421384
0.421376
0.421368
0.42136
0.421352
0.421344
0.421336
0.421328
0.42132
0.421312
0.421305
0.421297
0.421289
0.421281
0.421273
0.421265
0.421257
0.421249
0.421241
0.421233
0.421225
0.421217
0.421209
0.421201
0.421193
0.421185
0.421177
0.421169
0.421161
0.421153
0.421145
0.421137
0.421129
0.421121
0.421113
0.421105
0.421097
0.421089
0.421081
0.421073
0.421065
0.421057
0.421049
0.421041
0.421033
0.421025
0.421017
0.421009
0.421001
0.420993
0.420985
0.420977
0.420969
0.420961
0.420953
0.420944
0.420936
0.420928
0.42092
0.420912
0.420904
0.420896
0.420888
0.42088
0.420872
0.420864
0.420856
0.420848
0.42084
0.420832
0.420824
0.420816
0.420808
0.420799
0.420791
0.420783
0.420775
0.420767
0.420759
0.420751
0.420743
0.420735
0.420727
0.420719
0.42071
0.420702
0.420694
0.420686
0.420678
0.42067
0.420662
0.420654
0.420646
0.420638
0.420629
0.420621
0.420613
0.420605
0.420597
0.420589
0.420581
0.420573
0.420564
0.420556
0.420548
0.42054
0.420532
0.420524
0.420516
0.420507
0.420499
0.420491
0.420483
0.420475
0.420467
0.420459
0.42045
0.420442
0.420434
0.420426
0.420418
0.42041
0.420401
0.420393
0.420385
0.420377
0.420369
0.420361
0.420352
0.420344
0.420336
0.420328
0.42032
0.420312
0.420303
0.420295
0.420287
0.420279
0.420271
0.420262
0.420254
0.420246
0.420238
0.42023
0.420221
0.420213
0.420205
0.420197
0.420189
0.42018
0.420172
0.420164
0.420156
0.420147
0.420139
0.420131
0.420123
0.420115
0.420106
0.420098
0.42009
0.420082
0.420073
0.420065
0.420057
0.420049
0.42004
0.420032
0.420024
0.420016
0.420007
0.419999
0.419991
0.419983
0.419974
0.419966
0.419958
0.41995
0.419941
0.419933
0.419925
0.419916
0.419908
0.4199
0.419892
0.419883