/*--------------------------------*- C++ -*----------------------------------*\
  =========                 |
  \\      /  F ield         | OpenFOAM: The Open Source CFD Toolbox
   \\    /   O peration     | Website:  https://openfoam.org
    \\  /    A nd           | Version:  9
     \\/     M anipulation  |
\*---------------------------------------------------------------------------*/
FoamFile
{
    format      ascii;
    class       volVectorField;
    location    "0.023";
    object      U_0;
}
// * * * * * * * * * * * * * * * * * * * * * * * * * * * * * * * * * * * * * //

dimensions      [0 1 -1 0 0 0 0];

internalField   nonuniform List<vector> 
10000
(
(3.45909 0 0)
(3.54478 0 0)
(3.61433 0 0)
(3.67343 0 0)
(3.73224 0 0)
(3.7927 0 0)
(3.85379 0 0)
(3.91476 0 0)
(3.97558 0 0)
(4.03638 0 0)
(4.0972 0 0)
(4.15805 0 0)
(4.21888 0 0)
(4.2797 0 0)
(4.34052 0 0)
(4.40132 0 0)
(4.46214 0 0)
(4.52297 0 0)
(4.58381 0 0)
(4.64466 0 0)
(4.70551 0 0)
(4.76637 0 0)
(4.82722 0 0)
(4.88807 0 0)
(4.94891 0 0)
(5.00975 0 0)
(5.07059 0 0)
(5.13142 0 0)
(5.19225 0 0)
(5.25309 0 0)
(5.31392 0 0)
(5.37475 0 0)
(5.43559 0 0)
(5.49642 0 0)
(5.55725 0 0)
(5.61808 0 0)
(5.67892 0 0)
(5.73975 0 0)
(5.80059 0 0)
(5.86142 0 0)
(5.92225 0 0)
(5.98309 0 0)
(6.04393 0 0)
(6.10476 0 0)
(6.1656 0 0)
(6.22644 0 0)
(6.28727 0 0)
(6.34811 0 0)
(6.40895 0 0)
(6.46979 0 0)
(6.53063 0 0)
(6.59147 0 0)
(6.65231 0 0)
(6.71315 0 0)
(6.77399 0 0)
(6.83483 0 0)
(6.89567 0 0)
(6.95651 0 0)
(7.01736 0 0)
(7.0782 0 0)
(7.13904 0 0)
(7.19989 0 0)
(7.26073 0 0)
(7.32158 0 0)
(7.38242 0 0)
(7.44327 0 0)
(7.50412 0 0)
(7.56496 0 0)
(7.62581 0 0)
(7.68666 0 0)
(7.74751 0 0)
(7.80835 0 0)
(7.8692 0 0)
(7.93005 0 0)
(7.9909 0 0)
(8.05175 0 0)
(8.1126 0 0)
(8.17346 0 0)
(8.23431 0 0)
(8.29516 0 0)
(8.35601 0 0)
(8.41686 0 0)
(8.47772 0 0)
(8.53857 0 0)
(8.59943 0 0)
(8.66028 0 0)
(8.72114 0 0)
(8.78199 0 0)
(8.84285 0 0)
(8.9037 0 0)
(8.96456 0 0)
(9.02542 0 0)
(9.08628 0 0)
(9.14714 0 0)
(9.20799 0 0)
(9.26885 0 0)
(9.32971 0 0)
(9.39057 0 0)
(9.45143 0 0)
(9.51229 0 0)
(9.57316 0 0)
(9.63402 0 0)
(9.69488 0 0)
(9.75574 0 0)
(9.81661 0 0)
(9.87747 0 0)
(9.93833 0 0)
(9.9992 0 0)
(10.0601 0 0)
(10.1209 0 0)
(10.1818 0 0)
(10.2427 0 0)
(10.3035 0 0)
(10.3644 0 0)
(10.4253 0 0)
(10.4861 0 0)
(10.547 0 0)
(10.6079 0 0)
(10.6687 0 0)
(10.7296 0 0)
(10.7905 0 0)
(10.8514 0 0)
(10.9122 0 0)
(10.9731 0 0)
(11.034 0 0)
(11.0948 0 0)
(11.1557 0 0)
(11.2166 0 0)
(11.2775 0 0)
(11.3383 0 0)
(11.3992 0 0)
(11.4601 0 0)
(11.521 0 0)
(11.5818 0 0)
(11.6427 0 0)
(11.7036 0 0)
(11.7645 0 0)
(11.8253 0 0)
(11.8862 0 0)
(11.9471 0 0)
(12.008 0 0)
(12.0689 0 0)
(12.1297 0 0)
(12.1906 0 0)
(12.2515 0 0)
(12.3124 0 0)
(12.3733 0 0)
(12.4341 0 0)
(12.495 0 0)
(12.5559 0 0)
(12.6168 0 0)
(12.6777 0 0)
(12.7386 0 0)
(12.7995 0 0)
(12.8603 0 0)
(12.9212 0 0)
(12.9821 0 0)
(13.043 0 0)
(13.1039 0 0)
(13.1648 0 0)
(13.2257 0 0)
(13.2866 0 0)
(13.3474 0 0)
(13.4083 0 0)
(13.4692 0 0)
(13.5301 0 0)
(13.591 0 0)
(13.6519 0 0)
(13.7128 0 0)
(13.7737 0 0)
(13.8346 0 0)
(13.8955 0 0)
(13.9564 0 0)
(14.0172 0 0)
(14.0781 0 0)
(14.139 0 0)
(14.1999 0 0)
(14.2608 0 0)
(14.3217 0 0)
(14.3826 0 0)
(14.4435 0 0)
(14.5044 0 0)
(14.5653 0 0)
(14.6262 0 0)
(14.6871 0 0)
(14.748 0 0)
(14.8089 0 0)
(14.8698 0 0)
(14.9307 0 0)
(14.9916 0 0)
(15.0525 0 0)
(15.1134 0 0)
(15.1743 0 0)
(15.2352 0 0)
(15.2961 0 0)
(15.357 0 0)
(15.4179 0 0)
(15.4788 0 0)
(15.5397 0 0)
(15.6007 0 0)
(15.6616 0 0)
(15.7225 0 0)
(15.7834 0 0)
(15.8443 0 0)
(15.9052 0 0)
(15.9661 0 0)
(16.027 0 0)
(16.0879 0 0)
(16.1488 0 0)
(16.2097 0 0)
(16.2706 0 0)
(16.3316 0 0)
(16.3925 0 0)
(16.4534 0 0)
(16.5143 0 0)
(16.5752 0 0)
(16.6361 0 0)
(16.697 0 0)
(16.7579 0 0)
(16.8189 0 0)
(16.8798 0 0)
(16.9407 0 0)
(17.0016 0 0)
(17.0625 0 0)
(17.1234 0 0)
(17.1844 0 0)
(17.2453 0 0)
(17.3062 0 0)
(17.3671 0 0)
(17.428 0 0)
(17.4889 0 0)
(17.5499 0 0)
(17.6108 0 0)
(17.6717 0 0)
(17.7326 0 0)
(17.7936 0 0)
(17.8545 0 0)
(17.9154 0 0)
(17.9763 0 0)
(18.0372 0 0)
(18.0982 0 0)
(18.1591 0 0)
(18.22 0 0)
(18.2809 0 0)
(18.3419 0 0)
(18.4028 0 0)
(18.4637 0 0)
(18.5246 0 0)
(18.5856 0 0)
(18.6465 0 0)
(18.7074 0 0)
(18.7684 0 0)
(18.8293 0 0)
(18.8902 0 0)
(18.9512 0 0)
(19.0121 0 0)
(19.073 0 0)
(19.1339 0 0)
(19.1949 0 0)
(19.2558 0 0)
(19.3167 0 0)
(19.3777 0 0)
(19.4386 0 0)
(19.4995 0 0)
(19.5605 0 0)
(19.6214 0 0)
(19.6823 0 0)
(19.7433 0 0)
(19.8042 0 0)
(19.8652 0 0)
(19.9261 0 0)
(19.987 0 0)
(20.048 0 0)
(20.1089 0 0)
(20.1698 0 0)
(20.2308 0 0)
(20.2917 0 0)
(20.3527 0 0)
(20.4136 0 0)
(20.4745 0 0)
(20.5355 0 0)
(20.5964 0 0)
(20.6574 0 0)
(20.7183 0 0)
(20.7793 0 0)
(20.8402 0 0)
(20.9011 0 0)
(20.9621 0 0)
(21.023 0 0)
(21.084 0 0)
(21.1449 0 0)
(21.2059 0 0)
(21.2668 0 0)
(21.3278 0 0)
(21.3887 0 0)
(21.4497 0 0)
(21.5106 0 0)
(21.5716 0 0)
(21.6325 0 0)
(21.6935 0 0)
(21.7544 0 0)
(21.8154 0 0)
(21.8763 0 0)
(21.9373 0 0)
(21.9982 0 0)
(22.0592 0 0)
(22.1201 0 0)
(22.1811 0 0)
(22.242 0 0)
(22.303 0 0)
(22.3639 0 0)
(22.4249 0 0)
(22.4859 0 0)
(22.5468 0 0)
(22.6078 0 0)
(22.6687 0 0)
(22.7297 0 0)
(22.7906 0 0)
(22.8516 0 0)
(22.9126 0 0)
(22.9735 0 0)
(23.0345 0 0)
(23.0954 0 0)
(23.1564 0 0)
(23.2174 0 0)
(23.2783 0 0)
(23.3393 0 0)
(23.4002 0 0)
(23.4612 0 0)
(23.5222 0 0)
(23.5831 0 0)
(23.6441 0 0)
(23.7051 0 0)
(23.766 0 0)
(23.827 0 0)
(23.888 0 0)
(23.9489 0 0)
(24.0099 0 0)
(24.0709 0 0)
(24.1318 0 0)
(24.1928 0 0)
(24.2538 0 0)
(24.3147 0 0)
(24.3757 0 0)
(24.4367 0 0)
(24.4976 0 0)
(24.5586 0 0)
(24.6196 0 0)
(24.6806 0 0)
(24.7415 0 0)
(24.8025 0 0)
(24.8635 0 0)
(24.9244 0 0)
(24.9854 0 0)
(25.0464 0 0)
(25.1074 0 0)
(25.1683 0 0)
(25.2293 0 0)
(25.2903 0 0)
(25.3513 0 0)
(25.4123 0 0)
(25.4732 0 0)
(25.5342 0 0)
(25.5952 0 0)
(25.6562 0 0)
(25.7171 0 0)
(25.7781 0 0)
(25.8391 0 0)
(25.9001 0 0)
(25.9611 0 0)
(26.022 0 0)
(26.083 0 0)
(26.144 0 0)
(26.205 0 0)
(26.266 0 0)
(26.327 0 0)
(26.3879 0 0)
(26.4489 0 0)
(26.5099 0 0)
(26.5709 0 0)
(26.6319 0 0)
(26.6929 0 0)
(26.7539 0 0)
(26.8148 0 0)
(26.8758 0 0)
(26.9368 0 0)
(26.9978 0 0)
(27.0588 0 0)
(27.1198 0 0)
(27.1808 0 0)
(27.2418 0 0)
(27.3028 0 0)
(27.3637 0 0)
(27.4247 0 0)
(27.4857 0 0)
(27.5467 0 0)
(27.6077 0 0)
(27.6687 0 0)
(27.7297 0 0)
(27.7907 0 0)
(27.8517 0 0)
(27.9127 0 0)
(27.9737 0 0)
(28.0347 0 0)
(28.0957 0 0)
(28.1567 0 0)
(28.2177 0 0)
(28.2787 0 0)
(28.3397 0 0)
(28.4007 0 0)
(28.4617 0 0)
(28.5227 0 0)
(28.5837 0 0)
(28.6447 0 0)
(28.7057 0 0)
(28.7667 0 0)
(28.8277 0 0)
(28.8887 0 0)
(28.9497 0 0)
(29.0107 0 0)
(29.0717 0 0)
(29.1327 0 0)
(29.1937 0 0)
(29.2547 0 0)
(29.3157 0 0)
(29.3767 0 0)
(29.4377 0 0)
(29.4987 0 0)
(29.5597 0 0)
(29.6207 0 0)
(29.6817 0 0)
(29.7427 0 0)
(29.8037 0 0)
(29.8647 0 0)
(29.9258 0 0)
(29.9868 0 0)
(30.0478 0 0)
(30.1088 0 0)
(30.1698 0 0)
(30.2308 0 0)
(30.2918 0 0)
(30.3528 0 0)
(30.4138 0 0)
(30.4749 0 0)
(30.5359 0 0)
(30.5969 0 0)
(30.6579 0 0)
(30.7189 0 0)
(30.7799 0 0)
(30.841 0 0)
(30.902 0 0)
(30.963 0 0)
(31.024 0 0)
(31.085 0 0)
(31.146 0 0)
(31.2071 0 0)
(31.2681 0 0)
(31.3291 0 0)
(31.3901 0 0)
(31.4511 0 0)
(31.5122 0 0)
(31.5732 0 0)
(31.6342 0 0)
(31.6952 0 0)
(31.7562 0 0)
(31.8173 0 0)
(31.8783 0 0)
(31.9393 0 0)
(32.0003 0 0)
(32.0614 0 0)
(32.1224 0 0)
(32.1834 0 0)
(32.2444 0 0)
(32.3055 0 0)
(32.3665 0 0)
(32.4275 0 0)
(32.4885 0 0)
(32.5496 0 0)
(32.6106 0 0)
(32.6716 0 0)
(32.7327 0 0)
(32.7937 0 0)
(32.8547 0 0)
(32.9157 0 0)
(32.9768 0 0)
(33.0378 0 0)
(33.0988 0 0)
(33.1599 0 0)
(33.2209 0 0)
(33.2819 0 0)
(33.343 0 0)
(33.404 0 0)
(33.465 0 0)
(33.5261 0 0)
(33.5871 0 0)
(33.6481 0 0)
(33.7092 0 0)
(33.7702 0 0)
(33.8313 0 0)
(33.8923 0 0)
(33.9533 0 0)
(34.0144 0 0)
(34.0754 0 0)
(34.1364 0 0)
(34.1975 0 0)
(34.2585 0 0)
(34.3196 0 0)
(34.3806 0 0)
(34.4417 0 0)
(34.5027 0 0)
(34.5637 0 0)
(34.6248 0 0)
(34.6858 0 0)
(34.7469 0 0)
(34.8079 0 0)
(34.869 0 0)
(34.93 0 0)
(34.991 0 0)
(35.0521 0 0)
(35.1131 0 0)
(35.1742 0 0)
(35.2352 0 0)
(35.2963 0 0)
(35.3573 0 0)
(35.4184 0 0)
(35.4794 0 0)
(35.5405 0 0)
(35.6015 0 0)
(35.6626 0 0)
(35.7236 0 0)
(35.7847 0 0)
(35.8457 0 0)
(35.9068 0 0)
(35.9678 0 0)
(36.0289 0 0)
(36.0899 0 0)
(36.151 0 0)
(36.212 0 0)
(36.2731 0 0)
(36.3342 0 0)
(36.3952 0 0)
(36.4563 0 0)
(36.5173 0 0)
(36.5784 0 0)
(36.6394 0 0)
(36.7005 0 0)
(36.7615 0 0)
(36.8226 0 0)
(36.8837 0 0)
(36.9447 0 0)
(37.0058 0 0)
(37.0668 0 0)
(37.1279 0 0)
(37.189 0 0)
(37.25 0 0)
(37.3111 0 0)
(37.3721 0 0)
(37.4332 0 0)
(37.4943 0 0)
(37.5553 0 0)
(37.6164 0 0)
(37.6775 0 0)
(37.7385 0 0)
(37.7996 0 0)
(37.8607 0 0)
(37.9217 0 0)
(37.9828 0 0)
(38.0439 0 0)
(38.1049 0 0)
(38.166 0 0)
(38.2271 0 0)
(38.2881 0 0)
(38.3492 0 0)
(38.4103 0 0)
(38.4713 0 0)
(38.5324 0 0)
(38.5935 0 0)
(38.6546 0 0)
(38.7156 0 0)
(38.7767 0 0)
(38.8378 0 0)
(38.8988 0 0)
(38.9599 0 0)
(39.021 0 0)
(39.0821 0 0)
(39.1431 0 0)
(39.2042 0 0)
(39.2653 0 0)
(39.3264 0 0)
(39.3874 0 0)
(39.4485 0 0)
(39.5096 0 0)
(39.5707 0 0)
(39.6317 0 0)
(39.6928 0 0)
(39.7539 0 0)
(39.815 0 0)
(39.8761 0 0)
(39.9371 0 0)
(39.9982 0 0)
(40.0593 0 0)
(40.1204 0 0)
(40.1815 0 0)
(40.2426 0 0)
(40.3036 0 0)
(40.3647 0 0)
(40.4258 0 0)
(40.4869 0 0)
(40.548 0 0)
(40.6091 0 0)
(40.6701 0 0)
(40.7312 0 0)
(40.7923 0 0)
(40.8534 0 0)
(40.9145 0 0)
(40.9756 0 0)
(41.0367 0 0)
(41.0978 0 0)
(41.1588 0 0)
(41.2199 0 0)
(41.281 0 0)
(41.3421 0 0)
(41.4032 0 0)
(41.4643 0 0)
(41.5254 0 0)
(41.5865 0 0)
(41.6476 0 0)
(41.7087 0 0)
(41.7698 0 0)
(41.8308 0 0)
(41.8919 0 0)
(41.953 0 0)
(42.0141 0 0)
(42.0752 0 0)
(42.1363 0 0)
(42.1974 0 0)
(42.2585 0 0)
(42.3196 0 0)
(42.3807 0 0)
(42.4418 0 0)
(42.5029 0 0)
(42.564 0 0)
(42.6251 0 0)
(42.6862 0 0)
(42.7473 0 0)
(42.8084 0 0)
(42.8695 0 0)
(42.9306 0 0)
(42.9917 0 0)
(43.0528 0 0)
(43.1139 0 0)
(43.175 0 0)
(43.2361 0 0)
(43.2972 0 0)
(43.3583 0 0)
(43.4194 0 0)
(43.4805 0 0)
(43.5416 0 0)
(43.6027 0 0)
(43.6638 0 0)
(43.725 0 0)
(43.7861 0 0)
(43.8472 0 0)
(43.9083 0 0)
(43.9694 0 0)
(44.0305 0 0)
(44.0916 0 0)
(44.1527 0 0)
(44.2138 0 0)
(44.2749 0 0)
(44.336 0 0)
(44.3972 0 0)
(44.4583 0 0)
(44.5194 0 0)
(44.5805 0 0)
(44.6416 0 0)
(44.7027 0 0)
(44.7638 0 0)
(44.8249 0 0)
(44.8861 0 0)
(44.9472 0 0)
(45.0083 0 0)
(45.0694 0 0)
(45.1305 0 0)
(45.1916 0 0)
(45.2528 0 0)
(45.3139 0 0)
(45.375 0 0)
(45.4361 0 0)
(45.4972 0 0)
(45.5584 0 0)
(45.6195 0 0)
(45.6806 0 0)
(45.7417 0 0)
(45.8028 0 0)
(45.864 0 0)
(45.9251 0 0)
(45.9862 0 0)
(46.0473 0 0)
(46.1084 0 0)
(46.1696 0 0)
(46.2307 0 0)
(46.2918 0 0)
(46.3529 0 0)
(46.4141 0 0)
(46.4752 0 0)
(46.5363 0 0)
(46.5974 0 0)
(46.6586 0 0)
(46.7197 0 0)
(46.7808 0 0)
(46.842 0 0)
(46.9031 0 0)
(46.9642 0 0)
(47.0253 0 0)
(47.0865 0 0)
(47.1476 0 0)
(47.2087 0 0)
(47.2699 0 0)
(47.331 0 0)
(47.3921 0 0)
(47.4533 0 0)
(47.5144 0 0)
(47.5755 0 0)
(47.6367 0 0)
(47.6978 0 0)
(47.7589 0 0)
(47.8201 0 0)
(47.8812 0 0)
(47.9423 0 0)
(48.0035 0 0)
(48.0646 0 0)
(48.1258 0 0)
(48.1869 0 0)
(48.248 0 0)
(48.3092 0 0)
(48.3703 0 0)
(48.4314 0 0)
(48.4926 0 0)
(48.5537 0 0)
(48.6149 0 0)
(48.676 0 0)
(48.7371 0 0)
(48.7983 0 0)
(48.8594 0 0)
(48.9206 0 0)
(48.9817 0 0)
(49.0429 0 0)
(49.104 0 0)
(49.1652 0 0)
(49.2263 0 0)
(49.2874 0 0)
(49.3486 0 0)
(49.4097 0 0)
(49.4709 0 0)
(49.532 0 0)
(49.5932 0 0)
(49.6543 0 0)
(49.7155 0 0)
(49.7766 0 0)
(49.8378 0 0)
(49.8989 0 0)
(49.9601 0 0)
(50.0212 0 0)
(50.0824 0 0)
(50.1435 0 0)
(50.2047 0 0)
(50.2658 0 0)
(50.327 0 0)
(50.3881 0 0)
(50.4493 0 0)
(50.5104 0 0)
(50.5716 0 0)
(50.6327 0 0)
(50.6939 0 0)
(50.7551 0 0)
(50.8162 0 0)
(50.8774 0 0)
(50.9385 0 0)
(50.9997 0 0)
(51.0608 0 0)
(51.122 0 0)
(51.1832 0 0)
(51.2443 0 0)
(51.3055 0 0)
(51.3666 0 0)
(51.4278 0 0)
(51.489 0 0)
(51.5501 0 0)
(51.6113 0 0)
(51.6724 0 0)
(51.7336 0 0)
(51.7948 0 0)
(51.8559 0 0)
(51.9171 0 0)
(51.9783 0 0)
(52.0394 0 0)
(52.1006 0 0)
(52.1618 0 0)
(52.2229 0 0)
(52.2841 0 0)
(52.3453 0 0)
(52.4064 0 0)
(52.4676 0 0)
(52.5288 0 0)
(52.5899 0 0)
(52.6511 0 0)
(52.7123 0 0)
(52.7734 0 0)
(52.8346 0 0)
(52.8958 0 0)
(52.9569 0 0)
(53.0181 0 0)
(53.0793 0 0)
(53.1405 0 0)
(53.2016 0 0)
(53.2628 0 0)
(53.324 0 0)
(53.3851 0 0)
(53.4463 0 0)
(53.5075 0 0)
(53.5687 0 0)
(53.6298 0 0)
(53.691 0 0)
(53.7522 0 0)
(53.8134 0 0)
(53.8745 0 0)
(53.9357 0 0)
(53.9969 0 0)
(54.0581 0 0)
(54.1193 0 0)
(54.1804 0 0)
(54.2416 0 0)
(54.3028 0 0)
(54.364 0 0)
(54.4252 0 0)
(54.4863 0 0)
(54.5475 0 0)
(54.6087 0 0)
(54.6699 0 0)
(54.7311 0 0)
(54.7922 0 0)
(54.8534 0 0)
(54.9146 0 0)
(54.9758 0 0)
(55.037 0 0)
(55.0982 0 0)
(55.1594 0 0)
(55.2205 0 0)
(55.2817 0 0)
(55.3429 0 0)
(55.4041 0 0)
(55.4653 0 0)
(55.5265 0 0)
(55.5877 0 0)
(55.6489 0 0)
(55.71 0 0)
(55.7712 0 0)
(55.8324 0 0)
(55.8936 0 0)
(55.9548 0 0)
(56.016 0 0)
(56.0772 0 0)
(56.1384 0 0)
(56.1996 0 0)
(56.2608 0 0)
(56.322 0 0)
(56.3832 0 0)
(56.4443 0 0)
(56.5055 0 0)
(56.5667 0 0)
(56.6279 0 0)
(56.6891 0 0)
(56.7503 0 0)
(56.8115 0 0)
(56.8727 0 0)
(56.9339 0 0)
(56.9951 0 0)
(57.0563 0 0)
(57.1175 0 0)
(57.1787 0 0)
(57.2399 0 0)
(57.3011 0 0)
(57.3623 0 0)
(57.4235 0 0)
(57.4847 0 0)
(57.5459 0 0)
(57.6071 0 0)
(57.6683 0 0)
(57.7295 0 0)
(57.7907 0 0)
(57.8519 0 0)
(57.9131 0 0)
(57.9743 0 0)
(58.0356 0 0)
(58.0968 0 0)
(58.158 0 0)
(58.2192 0 0)
(58.2804 0 0)
(58.3416 0 0)
(58.4028 0 0)
(58.464 0 0)
(58.5252 0 0)
(58.5864 0 0)
(58.6476 0 0)
(58.7088 0 0)
(58.77 0 0)
(58.8313 0 0)
(58.8925 0 0)
(58.9537 0 0)
(59.0149 0 0)
(59.0761 0 0)
(59.1373 0 0)
(59.1985 0 0)
(59.2597 0 0)
(59.321 0 0)
(59.3822 0 0)
(59.4434 0 0)
(59.5046 0 0)
(59.5658 0 0)
(59.627 0 0)
(59.6883 0 0)
(59.7495 0 0)
(59.8107 0 0)
(59.8719 0 0)
(59.9331 0 0)
(59.9943 0 0)
(60.0556 0 0)
(60.1168 0 0)
(60.178 0 0)
(60.2392 0 0)
(60.3004 0 0)
(60.3617 0 0)
(60.4229 0 0)
(60.4841 0 0)
(60.5453 0 0)
(60.6066 0 0)
(60.6678 0 0)
(60.729 0 0)
(60.7902 0 0)
(60.8515 0 0)
(60.9127 0 0)
(60.9739 0 0)
(61.0351 0 0)
(61.0964 0 0)
(61.1576 0 0)
(61.2188 0 0)
(61.28 0 0)
(61.3413 0 0)
(61.4025 0 0)
(61.4637 0 0)
(61.525 0 0)
(61.5862 0 0)
(61.6474 0 0)
(61.7086 0 0)
(61.7699 0 0)
(61.8311 0 0)
(61.8923 0 0)
(61.9536 0 0)
(62.0148 0 0)
(62.076 0 0)
(62.1373 0 0)
(62.1985 0 0)
(62.2597 0 0)
(62.321 0 0)
(62.3822 0 0)
(62.4434 0 0)
(62.5047 0 0)
(62.5659 0 0)
(62.6272 0 0)
(62.6884 0 0)
(62.7496 0 0)
(62.8109 0 0)
(62.8721 0 0)
(62.9333 0 0)
(62.9946 0 0)
(63.0558 0 0)
(63.1171 0 0)
(63.1783 0 0)
(63.2395 0 0)
(63.3008 0 0)
(63.362 0 0)
(63.4233 0 0)
(63.4845 0 0)
(63.5458 0 0)
(63.607 0 0)
(63.6682 0 0)
(63.7295 0 0)
(63.7907 0 0)
(63.852 0 0)
(63.9132 0 0)
(63.9745 0 0)
(64.0357 0 0)
(64.097 0 0)
(64.1582 0 0)
(64.2195 0 0)
(64.2807 0 0)
(64.3419 0 0)
(64.4032 0 0)
(64.4644 0 0)
(64.5257 0 0)
(64.5869 0 0)
(64.6482 0 0)
(64.7094 0 0)
(64.7707 0 0)
(64.832 0 0)
(64.8932 0 0)
(64.9545 0 0)
(65.0157 0 0)
(65.077 0 0)
(65.1382 0 0)
(65.1995 0 0)
(65.2607 0 0)
(65.322 0 0)
(65.3832 0 0)
(65.4445 0 0)
(65.5057 0 0)
(65.567 0 0)
(65.6283 0 0)
(65.6895 0 0)
(65.7508 0 0)
(65.812 0 0)
(65.8733 0 0)
(65.9346 0 0)
(65.9958 0 0)
(66.0571 0 0)
(66.1183 0 0)
(66.1796 0 0)
(66.2409 0 0)
(66.3021 0 0)
(66.3634 0 0)
(66.4246 0 0)
(66.4859 0 0)
(66.5472 0 0)
(66.6084 0 0)
(66.6697 0 0)
(66.731 0 0)
(66.7922 0 0)
(66.8535 0 0)
(66.9148 0 0)
(66.976 0 0)
(67.0373 0 0)
(67.0986 0 0)
(67.1598 0 0)
(67.2211 0 0)
(67.2824 0 0)
(67.3436 0 0)
(67.4049 0 0)
(67.4662 0 0)
(67.5274 0 0)
(67.5887 0 0)
(67.65 0 0)
(67.7113 0 0)
(67.7725 0 0)
(67.8338 0 0)
(67.8951 0 0)
(67.9563 0 0)
(68.0176 0 0)
(68.0789 0 0)
(68.1402 0 0)
(68.2014 0 0)
(68.2627 0 0)
(68.324 0 0)
(68.3853 0 0)
(68.4465 0 0)
(68.5078 0 0)
(68.5691 0 0)
(68.6304 0 0)
(68.6916 0 0)
(68.7529 0 0)
(68.8142 0 0)
(68.8755 0 0)
(68.9368 0 0)
(68.998 0 0)
(69.0593 0 0)
(69.1206 0 0)
(69.1819 0 0)
(69.2432 0 0)
(69.3045 0 0)
(69.3657 0 0)
(69.427 0 0)
(69.4883 0 0)
(69.5496 0 0)
(69.6109 0 0)
(69.6722 0 0)
(69.7334 0 0)
(69.7947 0 0)
(69.856 0 0)
(69.9173 0 0)
(69.9786 0 0)
(70.0399 0 0)
(70.1012 0 0)
(70.1624 0 0)
(70.2237 0 0)
(70.285 0 0)
(70.3463 0 0)
(70.4076 0 0)
(70.4689 0 0)
(70.5302 0 0)
(70.5915 0 0)
(70.6528 0 0)
(70.7141 0 0)
(70.7753 0 0)
(70.8366 0 0)
(70.8979 0 0)
(70.9592 0 0)
(71.0205 0 0)
(71.0818 0 0)
(71.1431 0 0)
(71.2044 0 0)
(71.2657 0 0)
(71.327 0 0)
(71.3883 0 0)
(71.4496 0 0)
(71.5109 0 0)
(71.5722 0 0)
(71.6335 0 0)
(71.6948 0 0)
(71.7561 0 0)
(71.8174 0 0)
(71.8787 0 0)
(71.94 0 0)
(72.0013 0 0)
(72.0626 0 0)
(72.1239 0 0)
(72.1852 0 0)
(72.2465 0 0)
(72.3078 0 0)
(72.3691 0 0)
(72.4304 0 0)
(72.4917 0 0)
(72.553 0 0)
(72.6143 0 0)
(72.6756 0 0)
(72.7369 0 0)
(72.7982 0 0)
(72.8595 0 0)
(72.9208 0 0)
(72.9821 0 0)
(73.0434 0 0)
(73.1047 0 0)
(73.1661 0 0)
(73.2274 0 0)
(73.2887 0 0)
(73.35 0 0)
(73.4113 0 0)
(73.4726 0 0)
(73.5339 0 0)
(73.5952 0 0)
(73.6565 0 0)
(73.7178 0 0)
(73.7792 0 0)
(73.8405 0 0)
(73.9018 0 0)
(73.9631 0 0)
(74.0244 0 0)
(74.0857 0 0)
(74.147 0 0)
(74.2084 0 0)
(74.2697 0 0)
(74.331 0 0)
(74.3923 0 0)
(74.4536 0 0)
(74.5149 0 0)
(74.5763 0 0)
(74.6376 0 0)
(74.6989 0 0)
(74.7602 0 0)
(74.8215 0 0)
(74.8829 0 0)
(74.9442 0 0)
(75.0055 0 0)
(75.0668 0 0)
(75.1281 0 0)
(75.1895 0 0)
(75.2508 0 0)
(75.3121 0 0)
(75.3734 0 0)
(75.4347 0 0)
(75.4961 0 0)
(75.5574 0 0)
(75.6187 0 0)
(75.68 0 0)
(75.7414 0 0)
(75.8027 0 0)
(75.864 0 0)
(75.9254 0 0)
(75.9867 0 0)
(76.048 0 0)
(76.1093 0 0)
(76.1707 0 0)
(76.232 0 0)
(76.2933 0 0)
(76.3546 0 0)
(76.416 0 0)
(76.4773 0 0)
(76.5386 0 0)
(76.6 0 0)
(76.6613 0 0)
(76.7226 0 0)
(76.784 0 0)
(76.8453 0 0)
(76.9066 0 0)
(76.968 0 0)
(77.0293 0 0)
(77.0906 0 0)
(77.152 0 0)
(77.2133 0 0)
(77.2746 0 0)
(77.336 0 0)
(77.3973 0 0)
(77.4587 0 0)
(77.52 0 0)
(77.5813 0 0)
(77.6427 0 0)
(77.704 0 0)
(77.7653 0 0)
(77.8267 0 0)
(77.888 0 0)
(77.9494 0 0)
(78.0107 0 0)
(78.072 0 0)
(78.1334 0 0)
(78.1947 0 0)
(78.2561 0 0)
(78.3174 0 0)
(78.3788 0 0)
(78.4401 0 0)
(78.5014 0 0)
(78.5628 0 0)
(78.6241 0 0)
(78.6855 0 0)
(78.7468 0 0)
(78.8082 0 0)
(78.8695 0 0)
(78.9309 0 0)
(78.9922 0 0)
(79.0536 0 0)
(79.1149 0 0)
(79.1763 0 0)
(79.2376 0 0)
(79.299 0 0)
(79.3603 0 0)
(79.4217 0 0)
(79.483 0 0)
(79.5444 0 0)
(79.6057 0 0)
(79.6671 0 0)
(79.7284 0 0)
(79.7898 0 0)
(79.8511 0 0)
(79.9125 0 0)
(79.9738 0 0)
(80.0352 0 0)
(80.0965 0 0)
(80.1579 0 0)
(80.2192 0 0)
(80.2806 0 0)
(80.342 0 0)
(80.4033 0 0)
(80.4647 0 0)
(80.526 0 0)
(80.5874 0 0)
(80.6487 0 0)
(80.7101 0 0)
(80.7715 0 0)
(80.8328 0 0)
(80.8942 0 0)
(80.9555 0 0)
(81.0169 0 0)
(81.0783 0 0)
(81.1396 0 0)
(81.201 0 0)
(81.2624 0 0)
(81.3237 0 0)
(81.3851 0 0)
(81.4464 0 0)
(81.5078 0 0)
(81.5692 0 0)
(81.6305 0 0)
(81.6919 0 0)
(81.7533 0 0)
(81.8146 0 0)
(81.876 0 0)
(81.9374 0 0)
(81.9987 0 0)
(82.0601 0 0)
(82.1215 0 0)
(82.1828 0 0)
(82.2442 0 0)
(82.3056 0 0)
(82.367 0 0)
(82.4283 0 0)
(82.4897 0 0)
(82.5511 0 0)
(82.6124 0 0)
(82.6738 0 0)
(82.7352 0 0)
(82.7966 0 0)
(82.8579 0 0)
(82.9193 0 0)
(82.9807 0 0)
(83.0421 0 0)
(83.1034 0 0)
(83.1648 0 0)
(83.2262 0 0)
(83.2876 0 0)
(83.3489 0 0)
(83.4103 0 0)
(83.4717 0 0)
(83.5331 0 0)
(83.5944 0 0)
(83.6558 0 0)
(83.7172 0 0)
(83.7786 0 0)
(83.84 0 0)
(83.9013 0 0)
(83.9627 0 0)
(84.0241 0 0)
(84.0855 0 0)
(84.1469 0 0)
(84.2082 0 0)
(84.2696 0 0)
(84.331 0 0)
(84.3924 0 0)
(84.4538 0 0)
(84.5152 0 0)
(84.5765 0 0)
(84.6379 0 0)
(84.6993 0 0)
(84.7607 0 0)
(84.8221 0 0)
(84.8835 0 0)
(84.9449 0 0)
(85.0063 0 0)
(85.0676 0 0)
(85.129 0 0)
(85.1904 0 0)
(85.2518 0 0)
(85.3132 0 0)
(85.3746 0 0)
(85.436 0 0)
(85.4974 0 0)
(85.5588 0 0)
(85.6202 0 0)
(85.6815 0 0)
(85.7429 0 0)
(85.8043 0 0)
(85.8657 0 0)
(85.9271 0 0)
(85.9885 0 0)
(86.0499 0 0)
(86.1113 0 0)
(86.1727 0 0)
(86.2341 0 0)
(86.2955 0 0)
(86.3569 0 0)
(86.4183 0 0)
(86.4797 0 0)
(86.5411 0 0)
(86.6025 0 0)
(86.6639 0 0)
(86.7253 0 0)
(86.7867 0 0)
(86.8481 0 0)
(86.9095 0 0)
(86.9709 0 0)
(87.0323 0 0)
(87.0937 0 0)
(87.1551 0 0)
(87.2165 0 0)
(87.2779 0 0)
(87.3393 0 0)
(87.4007 0 0)
(87.4621 0 0)
(87.5235 0 0)
(87.5849 0 0)
(87.6463 0 0)
(87.7077 0 0)
(87.7691 0 0)
(87.8305 0 0)
(87.8919 0 0)
(87.9534 0 0)
(88.0148 0 0)
(88.0762 0 0)
(88.1376 0 0)
(88.199 0 0)
(88.2604 0 0)
(88.3218 0 0)
(88.3832 0 0)
(88.4446 0 0)
(88.506 0 0)
(88.5674 0 0)
(88.6289 0 0)
(88.6903 0 0)
(88.7517 0 0)
(88.8131 0 0)
(88.8745 0 0)
(88.9359 0 0)
(88.9973 0 0)
(89.0588 0 0)
(89.1202 0 0)
(89.1816 0 0)
(89.243 0 0)
(89.3044 0 0)
(89.3658 0 0)
(89.4273 0 0)
(89.4887 0 0)
(89.5501 0 0)
(89.6115 0 0)
(89.6729 0 0)
(89.7343 0 0)
(89.7958 0 0)
(89.8572 0 0)
(89.9186 0 0)
(89.98 0 0)
(90.0415 0 0)
(90.1029 0 0)
(90.1643 0 0)
(90.2257 0 0)
(90.2871 0 0)
(90.3486 0 0)
(90.41 0 0)
(90.4714 0 0)
(90.5328 0 0)
(90.5943 0 0)
(90.6557 0 0)
(90.7171 0 0)
(90.7785 0 0)
(90.84 0 0)
(90.9014 0 0)
(90.9628 0 0)
(91.0243 0 0)
(91.0857 0 0)
(91.1471 0 0)
(91.2085 0 0)
(91.27 0 0)
(91.3314 0 0)
(91.3928 0 0)
(91.4543 0 0)
(91.5157 0 0)
(91.5771 0 0)
(91.6386 0 0)
(91.7 0 0)
(91.7614 0 0)
(91.8229 0 0)
(91.8843 0 0)
(91.9457 0 0)
(92.0072 0 0)
(92.0686 0 0)
(92.13 0 0)
(92.1915 0 0)
(92.2529 0 0)
(92.3143 0 0)
(92.3758 0 0)
(92.4372 0 0)
(92.4986 0 0)
(92.5601 0 0)
(92.6215 0 0)
(92.683 0 0)
(92.7444 0 0)
(92.8058 0 0)
(92.8673 0 0)
(92.9287 0 0)
(92.9902 0 0)
(93.0516 0 0)
(93.113 0 0)
(93.1745 0 0)
(93.2359 0 0)
(93.2974 0 0)
(93.3588 0 0)
(93.4203 0 0)
(93.4817 0 0)
(93.5432 0 0)
(93.6046 0 0)
(93.666 0 0)
(93.7275 0 0)
(93.7889 0 0)
(93.8504 0 0)
(93.9118 0 0)
(93.9733 0 0)
(94.0347 0 0)
(94.0962 0 0)
(94.1576 0 0)
(94.2191 0 0)
(94.2805 0 0)
(94.342 0 0)
(94.4034 0 0)
(94.4649 0 0)
(94.5263 0 0)
(94.5878 0 0)
(94.6492 0 0)
(94.7107 0 0)
(94.7721 0 0)
(94.8336 0 0)
(94.895 0 0)
(94.9565 0 0)
(95.018 0 0)
(95.0794 0 0)
(95.1409 0 0)
(95.2023 0 0)
(95.2638 0 0)
(95.3252 0 0)
(95.3867 0 0)
(95.4482 0 0)
(95.5096 0 0)
(95.5711 0 0)
(95.6325 0 0)
(95.694 0 0)
(95.7554 0 0)
(95.8169 0 0)
(95.8784 0 0)
(95.9398 0 0)
(96.0013 0 0)
(96.0628 0 0)
(96.1242 0 0)
(96.1857 0 0)
(96.2471 0 0)
(96.3086 0 0)
(96.3701 0 0)
(96.4315 0 0)
(96.493 0 0)
(96.5545 0 0)
(96.6159 0 0)
(96.6774 0 0)
(96.7389 0 0)
(96.8003 0 0)
(96.8618 0 0)
(96.9233 0 0)
(96.9847 0 0)
(97.0462 0 0)
(97.1077 0 0)
(97.1691 0 0)
(97.2306 0 0)
(97.2921 0 0)
(97.3535 0 0)
(97.415 0 0)
(97.4765 0 0)
(97.538 0 0)
(97.5994 0 0)
(97.6609 0 0)
(97.7224 0 0)
(97.7838 0 0)
(97.8453 0 0)
(97.9068 0 0)
(97.9683 0 0)
(98.0297 0 0)
(98.0912 0 0)
(98.1527 0 0)
(98.2142 0 0)
(98.2756 0 0)
(98.3371 0 0)
(98.3986 0 0)
(98.4601 0 0)
(98.5216 0 0)
(98.583 0 0)
(98.6445 0 0)
(98.706 0 0)
(98.7675 0 0)
(98.829 0 0)
(98.8904 0 0)
(98.9519 0 0)
(99.0134 0 0)
(99.0749 0 0)
(99.1364 0 0)
(99.1978 0 0)
(99.2593 0 0)
(99.3208 0 0)
(99.3823 0 0)
(99.4438 0 0)
(99.5053 0 0)
(99.5668 0 0)
(99.6282 0 0)
(99.6897 0 0)
(99.7512 0 0)
(99.8127 0 0)
(99.8742 0 0)
(99.9357 0 0)
(99.9972 0 0)
(100.059 0 0)
(100.12 0 0)
(100.182 0 0)
(100.243 0 0)
(100.305 0 0)
(100.366 0 0)
(100.428 0 0)
(100.489 0 0)
(100.551 0 0)
(100.612 0 0)
(100.674 0 0)
(100.735 0 0)
(100.797 0 0)
(100.858 0 0)
(100.92 0 0)
(100.981 0 0)
(101.043 0 0)
(101.104 0 0)
(101.166 0 0)
(101.227 0 0)
(101.289 0 0)
(101.35 0 0)
(101.412 0 0)
(101.473 0 0)
(101.534 0 0)
(101.596 0 0)
(101.657 0 0)
(101.719 0 0)
(101.78 0 0)
(101.842 0 0)
(101.903 0 0)
(101.965 0 0)
(102.026 0 0)
(102.088 0 0)
(102.15 0 0)
(102.211 0 0)
(102.273 0 0)
(102.334 0 0)
(102.396 0 0)
(102.457 0 0)
(102.519 0 0)
(102.58 0 0)
(102.642 0 0)
(102.703 0 0)
(102.765 0 0)
(102.826 0 0)
(102.888 0 0)
(102.949 0 0)
(103.011 0 0)
(103.072 0 0)
(103.134 0 0)
(103.195 0 0)
(103.257 0 0)
(103.318 0 0)
(103.38 0 0)
(103.441 0 0)
(103.503 0 0)
(103.564 0 0)
(103.626 0 0)
(103.687 0 0)
(103.749 0 0)
(103.81 0 0)
(103.872 0 0)
(103.933 0 0)
(103.995 0 0)
(104.056 0 0)
(104.118 0 0)
(104.179 0 0)
(104.241 0 0)
(104.302 0 0)
(104.364 0 0)
(104.425 0 0)
(104.487 0 0)
(104.548 0 0)
(104.61 0 0)
(104.671 0 0)
(104.733 0 0)
(104.795 0 0)
(104.856 0 0)
(104.918 0 0)
(104.979 0 0)
(105.041 0 0)
(105.102 0 0)
(105.164 0 0)
(105.225 0 0)
(105.287 0 0)
(105.348 0 0)
(105.41 0 0)
(105.471 0 0)
(105.533 0 0)
(105.594 0 0)
(105.656 0 0)
(105.717 0 0)
(105.779 0 0)
(105.84 0 0)
(105.902 0 0)
(105.963 0 0)
(106.025 0 0)
(106.087 0 0)
(106.148 0 0)
(106.21 0 0)
(106.271 0 0)
(106.333 0 0)
(106.394 0 0)
(106.456 0 0)
(106.517 0 0)
(106.579 0 0)
(106.64 0 0)
(106.702 0 0)
(106.763 0 0)
(106.825 0 0)
(106.886 0 0)
(106.948 0 0)
(107.01 0 0)
(107.071 0 0)
(107.133 0 0)
(107.194 0 0)
(107.256 0 0)
(107.317 0 0)
(107.379 0 0)
(107.44 0 0)
(107.502 0 0)
(107.563 0 0)
(107.625 0 0)
(107.686 0 0)
(107.748 0 0)
(107.809 0 0)
(107.871 0 0)
(107.933 0 0)
(107.994 0 0)
(108.056 0 0)
(108.117 0 0)
(108.179 0 0)
(108.24 0 0)
(108.302 0 0)
(108.363 0 0)
(108.425 0 0)
(108.486 0 0)
(108.548 0 0)
(108.61 0 0)
(108.671 0 0)
(108.733 0 0)
(108.794 0 0)
(108.856 0 0)
(108.917 0 0)
(108.979 0 0)
(109.04 0 0)
(109.102 0 0)
(109.163 0 0)
(109.225 0 0)
(109.287 0 0)
(109.348 0 0)
(109.41 0 0)
(109.471 0 0)
(109.533 0 0)
(109.594 0 0)
(109.656 0 0)
(109.717 0 0)
(109.779 0 0)
(109.841 0 0)
(109.902 0 0)
(109.964 0 0)
(110.025 0 0)
(110.087 0 0)
(110.148 0 0)
(110.21 0 0)
(110.271 0 0)
(110.333 0 0)
(110.395 0 0)
(110.456 0 0)
(110.518 0 0)
(110.579 0 0)
(110.641 0 0)
(110.702 0 0)
(110.764 0 0)
(110.825 0 0)
(110.887 0 0)
(110.949 0 0)
(111.01 0 0)
(111.072 0 0)
(111.133 0 0)
(111.195 0 0)
(111.256 0 0)
(111.318 0 0)
(111.38 0 0)
(111.441 0 0)
(111.503 0 0)
(111.564 0 0)
(111.626 0 0)
(111.687 0 0)
(111.749 0 0)
(111.811 0 0)
(111.872 0 0)
(111.934 0 0)
(111.995 0 0)
(112.057 0 0)
(112.118 0 0)
(112.18 0 0)
(112.241 0 0)
(112.303 0 0)
(112.365 0 0)
(112.426 0 0)
(112.488 0 0)
(112.549 0 0)
(112.611 0 0)
(112.673 0 0)
(112.734 0 0)
(112.796 0 0)
(112.857 0 0)
(112.919 0 0)
(112.98 0 0)
(113.042 0 0)
(113.104 0 0)
(113.165 0 0)
(113.227 0 0)
(113.288 0 0)
(113.35 0 0)
(113.411 0 0)
(113.473 0 0)
(113.535 0 0)
(113.596 0 0)
(113.658 0 0)
(113.719 0 0)
(113.781 0 0)
(113.842 0 0)
(113.904 0 0)
(113.966 0 0)
(114.027 0 0)
(114.089 0 0)
(114.15 0 0)
(114.212 0 0)
(114.274 0 0)
(114.335 0 0)
(114.397 0 0)
(114.458 0 0)
(114.52 0 0)
(114.581 0 0)
(114.643 0 0)
(114.705 0 0)
(114.766 0 0)
(114.828 0 0)
(114.889 0 0)
(114.951 0 0)
(115.013 0 0)
(115.074 0 0)
(115.136 0 0)
(115.197 0 0)
(115.259 0 0)
(115.321 0 0)
(115.382 0 0)
(115.444 0 0)
(115.505 0 0)
(115.567 0 0)
(115.629 0 0)
(115.69 0 0)
(115.752 0 0)
(115.813 0 0)
(115.875 0 0)
(115.936 0 0)
(115.998 0 0)
(116.06 0 0)
(116.121 0 0)
(116.183 0 0)
(116.244 0 0)
(116.306 0 0)
(116.368 0 0)
(116.429 0 0)
(116.491 0 0)
(116.552 0 0)
(116.614 0 0)
(116.676 0 0)
(116.737 0 0)
(116.799 0 0)
(116.86 0 0)
(116.922 0 0)
(116.984 0 0)
(117.045 0 0)
(117.107 0 0)
(117.168 0 0)
(117.23 0 0)
(117.292 0 0)
(117.353 0 0)
(117.415 0 0)
(117.476 0 0)
(117.538 0 0)
(117.6 0 0)
(117.661 0 0)
(117.723 0 0)
(117.785 0 0)
(117.846 0 0)
(117.908 0 0)
(117.969 0 0)
(118.031 0 0)
(118.093 0 0)
(118.154 0 0)
(118.216 0 0)
(118.277 0 0)
(118.339 0 0)
(118.401 0 0)
(118.462 0 0)
(118.524 0 0)
(118.585 0 0)
(118.647 0 0)
(118.709 0 0)
(118.77 0 0)
(118.832 0 0)
(118.894 0 0)
(118.955 0 0)
(119.017 0 0)
(119.078 0 0)
(119.14 0 0)
(119.202 0 0)
(119.263 0 0)
(119.325 0 0)
(119.386 0 0)
(119.448 0 0)
(119.51 0 0)
(119.571 0 0)
(119.633 0 0)
(119.695 0 0)
(119.756 0 0)
(119.818 0 0)
(119.879 0 0)
(119.941 0 0)
(120.003 0 0)
(120.064 0 0)
(120.126 0 0)
(120.188 0 0)
(120.249 0 0)
(120.311 0 0)
(120.372 0 0)
(120.434 0 0)
(120.496 0 0)
(120.557 0 0)
(120.619 0 0)
(120.681 0 0)
(120.742 0 0)
(120.804 0 0)
(120.865 0 0)
(120.927 0 0)
(120.989 0 0)
(121.05 0 0)
(121.112 0 0)
(121.174 0 0)
(121.235 0 0)
(121.297 0 0)
(121.358 0 0)
(121.42 0 0)
(121.482 0 0)
(121.543 0 0)
(121.605 0 0)
(121.667 0 0)
(121.728 0 0)
(121.79 0 0)
(121.852 0 0)
(121.913 0 0)
(121.975 0 0)
(122.036 0 0)
(122.098 0 0)
(122.16 0 0)
(122.221 0 0)
(122.283 0 0)
(122.345 0 0)
(122.406 0 0)
(122.468 0 0)
(122.53 0 0)
(122.591 0 0)
(122.653 0 0)
(122.714 0 0)
(122.776 0 0)
(122.838 0 0)
(122.899 0 0)
(122.961 0 0)
(123.023 0 0)
(123.084 0 0)
(123.146 0 0)
(123.208 0 0)
(123.269 0 0)
(123.331 0 0)
(123.393 0 0)
(123.454 0 0)
(123.516 0 0)
(123.577 0 0)
(123.639 0 0)
(123.701 0 0)
(123.762 0 0)
(123.824 0 0)
(123.886 0 0)
(123.947 0 0)
(124.009 0 0)
(124.071 0 0)
(124.132 0 0)
(124.194 0 0)
(124.256 0 0)
(124.317 0 0)
(124.379 0 0)
(124.441 0 0)
(124.502 0 0)
(124.564 0 0)
(124.626 0 0)
(124.687 0 0)
(124.749 0 0)
(124.81 0 0)
(124.872 0 0)
(124.934 0 0)
(124.995 0 0)
(125.057 0 0)
(125.119 0 0)
(125.18 0 0)
(125.242 0 0)
(125.304 0 0)
(125.365 0 0)
(125.427 0 0)
(125.489 0 0)
(125.55 0 0)
(125.612 0 0)
(125.674 0 0)
(125.735 0 0)
(125.797 0 0)
(125.859 0 0)
(125.92 0 0)
(125.982 0 0)
(126.044 0 0)
(126.105 0 0)
(126.167 0 0)
(126.229 0 0)
(126.29 0 0)
(126.352 0 0)
(126.414 0 0)
(126.475 0 0)
(126.537 0 0)
(126.599 0 0)
(126.66 0 0)
(126.722 0 0)
(126.784 0 0)
(126.845 0 0)
(126.907 0 0)
(126.969 0 0)
(127.03 0 0)
(127.092 0 0)
(127.154 0 0)
(127.215 0 0)
(127.277 0 0)
(127.339 0 0)
(127.4 0 0)
(127.462 0 0)
(127.524 0 0)
(127.585 0 0)
(127.647 0 0)
(127.709 0 0)
(127.77 0 0)
(127.832 0 0)
(127.894 0 0)
(127.955 0 0)
(128.017 0 0)
(128.079 0 0)
(128.14 0 0)
(128.202 0 0)
(128.264 0 0)
(128.325 0 0)
(128.387 0 0)
(128.449 0 0)
(128.511 0 0)
(128.572 0 0)
(128.634 0 0)
(128.696 0 0)
(128.757 0 0)
(128.819 0 0)
(128.881 0 0)
(128.942 0 0)
(129.004 0 0)
(129.066 0 0)
(129.127 0 0)
(129.189 0 0)
(129.251 0 0)
(129.312 0 0)
(129.374 0 0)
(129.436 0 0)
(129.497 0 0)
(129.559 0 0)
(129.621 0 0)
(129.683 0 0)
(129.744 0 0)
(129.806 0 0)
(129.868 0 0)
(129.929 0 0)
(129.991 0 0)
(130.053 0 0)
(130.114 0 0)
(130.176 0 0)
(130.238 0 0)
(130.299 0 0)
(130.361 0 0)
(130.423 0 0)
(130.484 0 0)
(130.546 0 0)
(130.608 0 0)
(130.67 0 0)
(130.731 0 0)
(130.793 0 0)
(130.855 0 0)
(130.916 0 0)
(130.978 0 0)
(131.04 0 0)
(131.101 0 0)
(131.163 0 0)
(131.225 0 0)
(131.287 0 0)
(131.348 0 0)
(131.41 0 0)
(131.472 0 0)
(131.533 0 0)
(131.595 0 0)
(131.657 0 0)
(131.718 0 0)
(131.78 0 0)
(131.842 0 0)
(131.904 0 0)
(131.965 0 0)
(132.027 0 0)
(132.089 0 0)
(132.15 0 0)
(132.212 0 0)
(132.274 0 0)
(132.335 0 0)
(132.397 0 0)
(132.459 0 0)
(132.521 0 0)
(132.582 0 0)
(132.644 0 0)
(132.706 0 0)
(132.767 0 0)
(132.829 0 0)