/*--------------------------------*- C++ -*----------------------------------*\
  =========                 |
  \\      /  F ield         | OpenFOAM: The Open Source CFD Toolbox
   \\    /   O peration     | Website:  https://openfoam.org
    \\  /    A nd           | Version:  9
     \\/     M anipulation  |
\*---------------------------------------------------------------------------*/
FoamFile
{
    format      ascii;
    class       volScalarField;
    location    "0.049";
    object      p;
}
// * * * * * * * * * * * * * * * * * * * * * * * * * * * * * * * * * * * * * //

dimensions      [1 -1 -2 0 0 0 0];

internalField   nonuniform List<scalar> 
100
(
42881.1
42398.1
42106.8
41796.2
41493
41190.5
40890.1
40591.5
40294.8
40000
39707
39415.8
39126.5
38839
38553.3
38269.4
37987.4
37707.1
37428.6
37152
36877.1
36603.9
36332.6
36063
35795.2
35529.2
35264.9
35002.4
34741.7
34482.7
34225.6
33970.4
33717.1
33466.2
33218.1
32973.8
32734.9
32504.4
32286.8
32089.8
31920.9
31790.9
31701.1
31643.6
31605.7
31575.4
31545.1
31516.3
31496.2
31485.7
31481.7
31480.4
31479.9
31477.4
31470.5
31462.6
31457.6
31455
31456.6
31459.8
31460.5
31458.7
31451.5
31442.7
31436.6
31432.9
31432.4
31433.6
31433.5
31431
31425.1
31417.2
31410.5
31405.2
31403.9
31405.1
31407.2
31408.2
31405.2
31396.2
31382.8
31374.6
31379.9
31436.3
31689.1
32036.3
32245.9
32403
32610.7
32841.9
32969.6
33019.2
33035.9
33038.3
33033.1
33025.3
33021.3
33019.2
33017
33008.6
)
;

boundaryField
{
    sides
    {
        type            zeroGradient;
    }
    empty
    {
        type            empty;
    }
}


// ************************************************************************* //
