/*--------------------------------*- C++ -*----------------------------------*\
  =========                 |
  \\      /  F ield         | OpenFOAM: The Open Source CFD Toolbox
   \\    /   O peration     | Website:  https://openfoam.org
    \\  /    A nd           | Version:  9
     \\/     M anipulation  |
\*---------------------------------------------------------------------------*/
FoamFile
{
    format      ascii;
    class       volScalarField;
    location    "0.049";
    object      T;
}
// * * * * * * * * * * * * * * * * * * * * * * * * * * * * * * * * * * * * * //

dimensions      [0 0 0 1 0 0 0];

internalField   nonuniform List<scalar> 
100
(
274.22
273.333
272.794
272.216
271.648
271.079
270.511
269.944
269.377
268.811
268.245
267.679
267.115
266.551
265.987
265.424
264.862
264.3
263.738
263.178
262.618
262.058
261.5
260.942
260.384
259.827
259.271
258.716
258.161
257.607
257.054
256.503
255.952
255.403
254.858
254.318
253.787
253.272
252.783
252.339
251.955
251.658
251.451
251.318
251.228
251.155
251.082
251.012
250.963
250.934
250.921
250.912
250.906
250.895
250.874
250.849
250.834
250.818
250.816
250.815
250.809
250.798
250.773
250.744
250.721
250.701
250.688
250.679
250.665
250.646
250.616
250.579
250.543
250.504
250.473
250.444
250.413
250.374
250.323
250.261
250.188
250.103
250.082
250.191
250.75
251.524
251.996
252.354
252.825
253.362
253.623
253.751
253.811
253.817
253.802
253.776
253.753
253.74
253.733
253.719
)
;

boundaryField
{
    sides
    {
        type            zeroGradient;
    }
    empty
    {
        type            empty;
    }
}


// ************************************************************************* //
