/*--------------------------------*- C++ -*----------------------------------*\
  =========                 |
  \\      /  F ield         | OpenFOAM: The Open Source CFD Toolbox
   \\    /   O peration     | Website:  https://openfoam.org
    \\  /    A nd           | Version:  9
     \\/     M anipulation  |
\*---------------------------------------------------------------------------*/
FoamFile
{
    format      ascii;
    class       volVectorField;
    location    "0.015";
    object      U_0;
}
// * * * * * * * * * * * * * * * * * * * * * * * * * * * * * * * * * * * * * //

dimensions      [0 1 -1 0 0 0 0];

internalField   nonuniform List<vector> 
1000
(
(3.41766 0 0)
(5.14454 0 0)
(5.88178 0 0)
(6.91853 0 0)
(7.94868 0 0)
(8.95653 0 0)
(9.96416 0 0)
(10.9742 0 0)
(11.9847 0 0)
(12.9951 0 0)
(14.0056 0 0)
(15.0161 0 0)
(16.0267 0 0)
(17.0373 0 0)
(18.048 0 0)
(19.0586 0 0)
(20.0692 0 0)
(21.0798 0 0)
(22.0904 0 0)
(23.1009 0 0)
(24.1114 0 0)
(25.1218 0 0)
(26.132 0 0)
(27.1422 0 0)
(28.1523 0 0)
(29.1622 0 0)
(30.172 0 0)
(31.1816 0 0)
(32.191 0 0)
(33.2002 0 0)
(34.2092 0 0)
(35.2179 0 0)
(36.2263 0 0)
(37.2344 0 0)
(38.2422 0 0)
(39.2496 0 0)
(40.2565 0 0)
(41.263 0 0)
(42.269 0 0)
(43.2743 0 0)
(44.279 0 0)
(45.2829 0 0)
(46.286 0 0)
(47.2882 0 0)
(48.2893 0 0)
(49.2892 0 0)
(50.2877 0 0)
(51.2847 0 0)
(52.2799 0 0)
(53.2731 0 0)
(54.264 0 0)
(55.2522 0 0)
(56.2373 0 0)
(57.2189 0 0)
(58.1964 0 0)
(59.1691 0 0)
(60.1364 0 0)
(61.0973 0 0)
(62.0509 0 0)
(62.9962 0 0)
(63.9318 0 0)
(64.8565 0 0)
(65.7689 0 0)
(66.6677 0 0)
(67.5514 0 0)
(68.4187 0 0)
(69.2683 0 0)
(70.0992 0 0)
(70.9105 0 0)
(71.7015 0 0)
(72.4719 0 0)
(73.2216 0 0)
(73.9508 0 0)
(74.6602 0 0)
(75.3504 0 0)
(76.0227 0 0)
(76.6782 0 0)
(77.3184 0 0)
(77.9446 0 0)
(78.5585 0 0)
(79.1615 0 0)
(79.7552 0 0)
(80.3407 0 0)
(80.9194 0 0)
(81.4925 0 0)
(82.0609 0 0)
(82.6254 0 0)
(83.1869 0 0)
(83.7459 0 0)
(84.3029 0 0)
(84.8585 0 0)
(85.4129 0 0)
(85.9664 0 0)
(86.5192 0 0)
(87.0715 0 0)
(87.6234 0 0)
(88.175 0 0)
(88.7264 0 0)
(89.2777 0 0)
(89.8289 0 0)
(90.3801 0 0)
(90.9312 0 0)
(91.4822 0 0)
(92.0333 0 0)
(92.5843 0 0)
(93.1354 0 0)
(93.6864 0 0)
(94.2375 0 0)
(94.7886 0 0)
(95.3397 0 0)
(95.8908 0 0)
(96.4419 0 0)
(96.993 0 0)
(97.5441 0 0)
(98.0953 0 0)
(98.6465 0 0)
(99.1976 0 0)
(99.7488 0 0)
(100.3 0 0)
(100.851 0 0)
(101.402 0 0)
(101.954 0 0)
(102.505 0 0)
(103.056 0 0)
(103.607 0 0)
(104.159 0 0)
(104.71 0 0)
(105.261 0 0)
(105.813 0 0)
(106.364 0 0)
(106.915 0 0)
(107.467 0 0)
(108.018 0 0)
(108.569 0 0)
(109.121 0 0)
(109.672 0 0)
(110.223 0 0)
(110.775 0 0)
(111.326 0 0)
(111.878 0 0)
(112.429 0 0)
(112.98 0 0)
(113.532 0 0)
(114.083 0 0)
(114.635 0 0)
(115.186 0 0)
(115.737 0 0)
(116.289 0 0)
(116.84 0 0)
(117.392 0 0)
(117.943 0 0)
(118.494 0 0)
(119.046 0 0)
(119.597 0 0)
(120.149 0 0)
(120.7 0 0)
(121.252 0 0)
(121.803 0 0)
(122.354 0 0)
(122.906 0 0)
(123.457 0 0)
(124.009 0 0)
(124.56 0 0)
(125.112 0 0)
(125.663 0 0)
(126.215 0 0)
(126.766 0 0)
(127.317 0 0)
(127.869 0 0)
(128.42 0 0)
(128.972 0 0)
(129.523 0 0)
(130.075 0 0)
(130.626 0 0)
(131.177 0 0)
(131.729 0 0)
(132.28 0 0)
(132.832 0 0)
(133.383 0 0)
(133.934 0 0)
(134.486 0 0)
(135.037 0 0)
(135.589 0 0)
(136.14 0 0)
(136.691 0 0)
(137.243 0 0)
(137.794 0 0)
(138.345 0 0)
(138.897 0 0)
(139.448 0 0)
(139.999 0 0)
(140.551 0 0)
(141.102 0 0)
(141.653 0 0)
(142.205 0 0)
(142.756 0 0)
(143.307 0 0)
(143.859 0 0)
(144.41 0 0)
(144.961 0 0)
(145.512 0 0)
(146.064 0 0)
(146.615 0 0)
(147.166 0 0)
(147.717 0 0)
(148.268 0 0)
(148.82 0 0)
(149.371 0 0)
(149.922 0 0)
(150.473 0 0)
(151.024 0 0)
(151.575 0 0)
(152.127 0 0)
(152.678 0 0)
(153.229 0 0)
(153.78 0 0)
(154.331 0 0)
(154.882 0 0)
(155.433 0 0)
(155.984 0 0)
(156.535 0 0)
(157.086 0 0)
(157.637 0 0)
(158.188 0 0)
(158.739 0 0)
(159.29 0 0)
(159.841 0 0)
(160.392 0 0)
(160.943 0 0)
(161.494 0 0)
(162.044 0 0)
(162.595 0 0)
(163.146 0 0)
(163.697 0 0)
(164.248 0 0)
(164.798 0 0)
(165.349 0 0)
(165.9 0 0)
(166.451 0 0)
(167.001 0 0)
(167.552 0 0)
(168.103 0 0)
(168.653 0 0)
(169.204 0 0)
(169.754 0 0)
(170.305 0 0)
(170.856 0 0)
(171.406 0 0)
(171.956 0 0)
(172.507 0 0)
(173.057 0 0)
(173.608 0 0)
(174.158 0 0)
(174.709 0 0)
(175.259 0 0)
(175.809 0 0)
(176.359 0 0)
(176.91 0 0)
(177.46 0 0)
(178.01 0 0)
(178.56 0 0)
(179.11 0 0)
(179.661 0 0)
(180.211 0 0)
(180.761 0 0)
(181.311 0 0)
(181.861 0 0)
(182.411 0 0)
(182.961 0 0)
(183.511 0 0)
(184.06 0 0)
(184.61 0 0)
(185.16 0 0)
(185.71 0 0)
(186.26 0 0)
(186.809 0 0)
(187.359 0 0)
(187.908 0 0)
(188.458 0 0)
(189.008 0 0)
(189.557 0 0)
(190.107 0 0)
(190.656 0 0)
(191.205 0 0)
(191.755 0 0)
(192.304 0 0)
(192.853 0 0)
(193.403 0 0)
(193.952 0 0)
(194.501 0 0)
(195.05 0 0)
(195.599 0 0)
(196.148 0 0)
(196.697 0 0)
(197.246 0 0)
(197.794 0 0)
(198.343 0 0)
(198.892 0 0)
(199.441 0 0)
(199.989 0 0)
(200.538 0 0)
(201.086 0 0)
(201.635 0 0)
(202.183 0 0)
(202.731 0 0)
(203.28 0 0)
(203.828 0 0)
(204.376 0 0)
(204.924 0 0)
(205.472 0 0)
(206.02 0 0)
(206.568 0 0)
(207.116 0 0)
(207.664 0 0)
(208.211 0 0)
(208.759 0 0)
(209.306 0 0)
(209.854 0 0)
(210.401 0 0)
(210.949 0 0)
(211.496 0 0)
(212.043 0 0)
(212.59 0 0)
(213.137 0 0)
(213.684 0 0)
(214.23 0 0)
(214.777 0 0)
(215.324 0 0)
(215.87 0 0)
(216.417 0 0)
(216.963 0 0)
(217.509 0 0)
(218.055 0 0)
(218.601 0 0)
(219.147 0 0)
(219.693 0 0)
(220.239 0 0)
(220.784 0 0)
(221.33 0 0)
(221.875 0 0)
(222.42 0 0)
(222.965 0 0)
(223.51 0 0)
(224.055 0 0)
(224.6 0 0)
(225.144 0 0)
(225.689 0 0)
(226.233 0 0)
(226.777 0 0)
(227.321 0 0)
(227.865 0 0)
(228.408 0 0)
(228.952 0 0)
(229.495 0 0)
(230.038 0 0)
(230.581 0 0)
(231.124 0 0)
(231.667 0 0)
(232.209 0 0)
(232.752 0 0)
(233.294 0 0)
(233.836 0 0)
(234.377 0 0)
(234.919 0 0)
(235.46 0 0)
(236.001 0 0)
(236.542 0 0)
(237.082 0 0)
(237.623 0 0)
(238.163 0 0)
(238.703 0 0)
(239.242 0 0)
(239.782 0 0)
(240.321 0 0)
(240.859 0 0)
(241.398 0 0)
(241.936 0 0)
(242.474 0 0)
(243.012 0 0)
(243.549 0 0)
(244.086 0 0)
(244.622 0 0)
(245.159 0 0)
(245.694 0 0)
(246.23 0 0)
(246.765 0 0)
(247.3 0 0)
(247.834 0 0)
(248.368 0 0)
(248.902 0 0)
(249.435 0 0)
(249.967 0 0)
(250.499 0 0)
(251.031 0 0)
(251.562 0 0)
(252.093 0 0)
(252.623 0 0)
(253.152 0 0)
(253.681 0 0)
(254.21 0 0)
(254.737 0 0)
(255.264 0 0)
(255.791 0 0)
(256.317 0 0)
(256.842 0 0)
(257.366 0 0)
(257.89 0 0)
(258.413 0 0)
(258.935 0 0)
(259.456 0 0)
(259.976 0 0)
(260.496 0 0)
(261.014 0 0)
(261.532 0 0)
(262.048 0 0)
(262.564 0 0)
(263.079 0 0)
(263.592 0 0)
(264.104 0 0)
(264.615 0 0)
(265.125 0 0)
(265.634 0 0)
(266.141 0 0)
(266.647 0 0)
(267.151 0 0)
(267.654 0 0)
(268.155 0 0)
(268.655 0 0)
(269.153 0 0)
(269.649 0 0)
(270.143 0 0)
(270.636 0 0)
(271.126 0 0)
(271.614 0 0)
(272.101 0 0)
(272.585 0 0)
(273.066 0 0)
(273.545 0 0)
(274.022 0 0)
(274.496 0 0)
(274.967 0 0)
(275.436 0 0)
(275.901 0 0)
(276.363 0 0)
(276.822 0 0)
(277.278 0 0)
(277.73 0 0)
(278.178 0 0)
(278.623 0 0)
(279.063 0 0)
(279.499 0 0)
(279.931 0 0)
(280.359 0 0)
(280.782 0 0)
(281.199 0 0)
(281.612 0 0)
(282.02 0 0)
(282.422 0 0)
(282.818 0 0)
(283.208 0 0)
(283.592 0 0)
(283.97 0 0)
(284.341 0 0)
(284.705 0 0)
(285.062 0 0)
(285.412 0 0)
(285.755 0 0)
(286.089 0 0)
(286.416 0 0)
(286.734 0 0)
(287.044 0 0)
(287.345 0 0)
(287.637 0 0)
(287.921 0 0)
(288.195 0 0)
(288.459 0 0)
(288.714 0 0)
(288.96 0 0)
(289.195 0 0)
(289.421 0 0)
(289.637 0 0)
(289.842 0 0)
(290.038 0 0)
(290.223 0 0)
(290.399 0 0)
(290.565 0 0)
(290.721 0 0)
(290.867 0 0)
(291.004 0 0)
(291.132 0 0)
(291.25 0 0)
(291.36 0 0)
(291.461 0 0)
(291.554 0 0)
(291.639 0 0)
(291.717 0 0)
(291.787 0 0)
(291.85 0 0)
(291.907 0 0)
(291.959 0 0)
(292.004 0 0)
(292.044 0 0)
(292.079 0 0)
(292.11 0 0)
(292.137 0 0)
(292.16 0 0)
(292.18 0 0)
(292.197 0 0)
(292.21 0 0)
(292.221 0 0)
(292.231 0 0)
(292.239 0 0)
(292.245 0 0)
(292.25 0 0)
(292.254 0 0)
(292.256 0 0)
(292.257 0 0)
(292.258 0 0)
(292.258 0 0)
(292.258 0 0)
(292.259 0 0)
(292.258 0 0)
(292.258 0 0)
(292.257 0 0)
(292.256 0 0)
(292.255 0 0)
(292.255 0 0)
(292.254 0 0)
(292.253 0 0)
(292.253 0 0)
(292.251 0 0)
(292.25 0 0)
(292.249 0 0)
(292.248 0 0)
(292.246 0 0)
(292.245 0 0)
(292.245 0 0)
(292.243 0 0)
(292.241 0 0)
(292.24 0 0)
(292.239 0 0)
(292.237 0 0)
(292.236 0 0)
(292.236 0 0)
(292.234 0 0)
(292.231 0 0)
(292.231 0 0)
(292.23 0 0)
(292.229 0 0)
(292.227 0 0)
(292.226 0 0)
(292.225 0 0)
(292.223 0 0)
(292.222 0 0)
(292.222 0 0)
(292.22 0 0)
(292.218 0 0)
(292.218 0 0)
(292.217 0 0)
(292.216 0 0)
(292.214 0 0)
(292.214 0 0)
(292.213 0 0)
(292.212 0 0)
(292.211 0 0)
(292.211 0 0)
(292.21 0 0)
(292.208 0 0)
(292.208 0 0)
(292.207 0 0)
(292.206 0 0)
(292.206 0 0)
(292.206 0 0)
(292.205 0 0)
(292.204 0 0)
(292.204 0 0)
(292.203 0 0)
(292.202 0 0)
(292.202 0 0)
(292.202 0 0)
(292.201 0 0)
(292.2 0 0)
(292.2 0 0)
(292.2 0 0)
(292.199 0 0)
(292.199 0 0)
(292.199 0 0)
(292.199 0 0)
(292.198 0 0)
(292.198 0 0)
(292.198 0 0)
(292.198 0 0)
(292.197 0 0)
(292.197 0 0)
(292.197 0 0)
(292.196 0 0)
(292.196 0 0)
(292.196 0 0)
(292.196 0 0)
(292.196 0 0)
(292.195 0 0)
(292.195 0 0)
(292.195 0 0)
(292.195 0 0)
(292.195 0 0)
(292.194 0 0)
(292.195 0 0)
(292.195 0 0)
(292.194 0 0)
(292.194 0 0)
(292.193 0 0)
(292.194 0 0)
(292.195 0 0)
(292.194 0 0)
(292.193 0 0)
(292.193 0 0)
(292.194 0 0)
(292.195 0 0)
(292.194 0 0)
(292.193 0 0)
(292.194 0 0)
(292.195 0 0)
(292.195 0 0)
(292.194 0 0)
(292.194 0 0)
(292.194 0 0)
(292.195 0 0)
(292.195 0 0)
(292.195 0 0)
(292.195 0 0)
(292.195 0 0)
(292.195 0 0)
(292.195 0 0)
(292.195 0 0)
(292.195 0 0)
(292.195 0 0)
(292.195 0 0)
(292.195 0 0)
(292.195 0 0)
(292.195 0 0)
(292.195 0 0)
(292.195 0 0)
(292.195 0 0)
(292.195 0 0)
(292.195 0 0)
(292.195 0 0)
(292.195 0 0)
(292.195 0 0)
(292.195 0 0)
(292.195 0 0)
(292.195 0 0)
(292.195 0 0)
(292.195 0 0)
(292.195 0 0)
(292.194 0 0)
(292.194 0 0)
(292.195 0 0)
(292.195 0 0)
(292.194 0 0)
(292.194 0 0)
(292.195 0 0)
(292.195 0 0)
(292.195 0 0)
(292.194 0 0)
(292.195 0 0)
(292.195 0 0)
(292.195 0 0)
(292.195 0 0)
(292.195 0 0)
(292.195 0 0)
(292.195 0 0)
(292.195 0 0)
(292.195 0 0)
(292.195 0 0)
(292.195 0 0)
(292.195 0 0)
(292.195 0 0)
(292.195 0 0)
(292.195 0 0)
(292.195 0 0)
(292.195 0 0)
(292.196 0 0)
(292.196 0 0)
(292.195 0 0)
(292.195 0 0)
(292.196 0 0)
(292.196 0 0)
(292.195 0 0)
(292.195 0 0)
(292.195 0 0)
(292.195 0 0)
(292.195 0 0)
(292.195 0 0)
(292.195 0 0)
(292.195 0 0)
(292.195 0 0)
(292.195 0 0)
(292.195 0 0)
(292.195 0 0)
(292.195 0 0)
(292.195 0 0)
(292.195 0 0)
(292.195 0 0)
(292.195 0 0)
(292.195 0 0)
(292.195 0 0)
(292.194 0 0)
(292.194 0 0)
(292.195 0 0)
(292.194 0 0)
(292.194 0 0)
(292.194 0 0)
(292.195 0 0)
(292.194 0 0)
(292.194 0 0)
(292.195 0 0)
(292.194 0 0)
(292.194 0 0)
(292.194 0 0)
(292.195 0 0)
(292.195 0 0)
(292.194 0 0)
(292.195 0 0)
(292.195 0 0)
(292.195 0 0)
(292.195 0 0)
(292.195 0 0)
(292.195 0 0)
(292.195 0 0)
(292.195 0 0)
(292.195 0 0)
(292.195 0 0)
(292.195 0 0)
(292.195 0 0)
(292.195 0 0)
(292.195 0 0)
(292.195 0 0)
(292.195 0 0)
(292.195 0 0)
(292.195 0 0)
(292.195 0 0)
(292.194 0 0)
(292.194 0 0)
(292.194 0 0)
(292.194 0 0)
(292.194 0 0)
(292.194 0 0)
(292.194 0 0)
(292.194 0 0)
(292.194 0 0)
(292.194 0 0)
(292.194 0 0)
(292.194 0 0)
(292.194 0 0)
(292.194 0 0)
(292.193 0 0)
(292.193 0 0)
(292.193 0 0)
(292.193 0 0)
(292.193 0 0)
(292.193 0 0)
(292.193 0 0)
(292.193 0 0)
(292.193 0 0)
(292.193 0 0)
(292.193 0 0)
(292.193 0 0)
(292.193 0 0)
(292.193 0 0)
(292.193 0 0)
(292.193 0 0)
(292.193 0 0)
(292.193 0 0)
(292.193 0 0)
(292.193 0 0)
(292.193 0 0)
(292.193 0 0)
(292.192 0 0)
(292.193 0 0)
(292.192 0 0)
(292.192 0 0)
(292.192 0 0)
(292.192 0 0)
(292.192 0 0)
(292.192 0 0)
(292.192 0 0)
(292.192 0 0)
(292.192 0 0)
(292.192 0 0)
(292.193 0 0)
(292.193 0 0)
(292.193 0 0)
(292.193 0 0)
(292.193 0 0)
(292.193 0 0)
(292.193 0 0)
(292.193 0 0)
(292.193 0 0)
(292.193 0 0)
(292.193 0 0)
(292.193 0 0)
(292.193 0 0)
(292.193 0 0)
(292.193 0 0)
(292.193 0 0)
(292.193 0 0)
(292.193 0 0)
(292.193 0 0)
(292.193 0 0)
(292.194 0 0)
(292.194 0 0)
(292.194 0 0)
(292.194 0 0)
(292.194 0 0)
(292.194 0 0)
(292.194 0 0)
(292.194 0 0)
(292.194 0 0)
(292.194 0 0)
(292.194 0 0)
(292.194 0 0)
(292.194 0 0)
(292.194 0 0)
(292.194 0 0)
(292.194 0 0)
(292.194 0 0)
(292.194 0 0)
(292.194 0 0)
(292.194 0 0)
(292.194 0 0)
(292.194 0 0)
(292.194 0 0)
(292.194 0 0)
(292.194 0 0)
(292.194 0 0)
(292.194 0 0)
(292.194 0 0)
(292.194 0 0)
(292.194 0 0)
(292.194 0 0)
(292.194 0 0)
(292.194 0 0)
(292.194 0 0)
(292.194 0 0)
(292.194 0 0)
(292.194 0 0)
(292.194 0 0)
(292.194 0 0)
(292.194 0 0)
(292.194 0 0)
(292.194 0 0)
(292.194 0 0)
(292.194 0 0)
(292.193 0 0)
(292.193 0 0)
(292.193 0 0)
(292.193 0 0)
(292.193 0 0)
(292.193 0 0)
(292.193 0 0)
(292.193 0 0)
(292.193 0 0)
(292.193 0 0)
(292.193 0 0)
(292.193 0 0)
(292.193 0 0)
(292.193 0 0)
(292.193 0 0)
(292.193 0 0)
(292.193 0 0)
(292.192 0 0)
(292.192 0 0)
(292.192 0 0)
(292.192 0 0)
(292.192 0 0)
(292.192 0 0)
(292.192 0 0)
(292.192 0 0)
(292.192 0 0)
(292.192 0 0)
(292.191 0 0)
(292.191 0 0)
(292.191 0 0)
(292.191 0 0)
(292.191 0 0)
(292.191 0 0)
(292.19 0 0)
(292.189 0 0)
(292.189 0 0)
(292.188 0 0)
(292.187 0 0)
(292.186 0 0)
(292.186 0 0)
(292.184 0 0)
(292.183 0 0)
(292.182 0 0)
(292.181 0 0)
(292.179 0 0)
(292.176 0 0)
(292.17 0 0)
(292.166 0 0)
(292.161 0 0)
(292.151 0 0)
(292.143 0 0)
(292.138 0 0)
(292.122 0 0)
(292.103 0 0)
(292.091 0 0)
(292.069 0 0)
(292.033 0 0)
(292.009 0 0)
(292.002 0 0)
(291.962 0 0)
(291.911 0 0)
(291.877 0 0)
(291.797 0 0)
(291.714 0 0)
(291.678 0 0)
(291.584 0 0)
(291.477 0 0)
(291.424 0 0)
(291.295 0 0)
(291.133 0 0)
(291.027 0 0)
(290.84 0 0)
(290.599 0 0)
(290.474 0 0)
(290.34 0 0)
(290.109 0 0)
(289.965 0 0)
(290.143 0 0)
(290.132 0 0)
(289.54 0 0)
(288.912 0 0)
(288.592 0 0)
(288.299 0 0)
(287.872 0 0)
(287.678 0 0)
(287.509 0 0)
(287.08 0 0)
(286.784 0 0)
(286.76 0 0)
(286.583 0 0)
(286.175 0 0)
(285.91 0 0)
(285.861 0 0)
(285.77 0 0)
(285.509 0 0)
(285.219 0 0)
(285.064 0 0)
(285.03 0 0)
(285.018 0 0)
(285.002 0 0)
(284.976 0 0)
(284.947 0 0)
(284.919 0 0)
(284.889 0 0)
(284.854 0 0)
(284.807 0 0)
(284.763 0 0)
(284.731 0 0)
(284.686 0 0)
(284.622 0 0)
(284.564 0 0)
(284.551 0 0)
(284.615 0 0)
(284.782 0 0)
(284.987 0 0)
(285.091 0 0)
(285.018 0 0)
(284.837 0 0)
(284.718 0 0)
(284.71 0 0)
(284.746 0 0)
(284.754 0 0)
(284.719 0 0)
(284.684 0 0)
(284.684 0 0)
(284.699 0 0)
(284.699 0 0)
(284.688 0 0)
(284.696 0 0)
(284.713 0 0)
(284.708 0 0)
(284.686 0 0)
(284.678 0 0)
(284.681 0 0)
(284.671 0 0)
(284.646 0 0)
(284.629 0 0)
(284.624 0 0)
(284.624 0 0)
(284.62 0 0)
(284.614 0 0)
(284.612 0 0)
(284.616 0 0)
(284.618 0 0)
(284.611 0 0)
(284.604 0 0)
(284.606 0 0)
)
;

boundaryField
{
    sides
    {
        type            zeroGradient;
    }
    empty
    {
        type            empty;
    }
}


// ************************************************************************* //
