/*--------------------------------*- C++ -*----------------------------------*\
  =========                 |
  \\      /  F ield         | OpenFOAM: The Open Source CFD Toolbox
   \\    /   O peration     | Website:  https://openfoam.org
    \\  /    A nd           | Version:  9
     \\/     M anipulation  |
\*---------------------------------------------------------------------------*/
FoamFile
{
    format      ascii;
    class       volScalarField;
    location    "0.017";
    object      ddt0(rho,e);
}
// * * * * * * * * * * * * * * * * * * * * * * * * * * * * * * * * * * * * * //

dimensions      [1 -1 -3 0 0 0 0];

internalField   nonuniform List<scalar> 
100
(
-350845
-337489
-238293
-222487
-202945
-182479
-158871
-133952
-108082
-81194.4
-53201.6
-24022.9
6516.05
37595.4
70518.4
97260.6
136016
133188
207983
120301
270409
147821
125232
375335
-22407.8
367158
276248
-80670.9
385677
382338
-120694
173092
567308
115439
-195441
309354
593839
66075.8
-303434
159130
648371
302104
-361643
-291379
413172
672589
85856.8
-522122
-372819
323163
659058
221801
-373327
-546938
-274776
454866
484732
37443.4
-221549
-354049
-269942
-41148.6
206226
117712
19454.6
-72784.8
-279122
-140343
-11699.3
20385.8
5759.74
-11246.5
-201836
-227395
20539.2
-143445
-354891
315957
96800.1
-138351
-648331
-262626
377731
-353149
-678064
632910
-240437
-1.32482e+06
14682.8
476061
-722150
-1.03392e+06
1.42587e+06
-507417
-2.61576e+06
-3.1519e+06
-1.38625e+07
-3.15915e+07
-2.96537e+07
-1.72553e+07
)
;

boundaryField
{
    sides
    {
        type            calculated;
        value           nonuniform List<scalar> 2(-1.72553e+07 -350845);
    }
    empty
    {
        type            empty;
    }
}


// ************************************************************************* //
