/*--------------------------------*- C++ -*----------------------------------*\
  =========                 |
  \\      /  F ield         | OpenFOAM: The Open Source CFD Toolbox
   \\    /   O peration     | Website:  https://openfoam.org
    \\  /    A nd           | Version:  9
     \\/     M anipulation  |
\*---------------------------------------------------------------------------*/
FoamFile
{
    format      ascii;
    class       volScalarField;
    location    "0.017";
    object      ddt0(rho);
}
// * * * * * * * * * * * * * * * * * * * * * * * * * * * * * * * * * * * * * //

dimensions      [1 -3 -1 0 0 0 0];

internalField   nonuniform List<scalar> 
100
(
-51.0409
-50.447
-50.5678
-50.1545
-49.7071
-49.1814
-48.5723
-47.8554
-47.0075
-46.0057
-44.8228
-43.4228
-41.7591
-39.7824
-37.4702
-34.822
-31.9651
-28.8788
-26.0483
-22.9255
-20.7843
-18.1881
-16.1815
-15.4357
-12.7927
-12.9992
-11.7984
-9.84595
-10.6828
-10.0386
-7.79496
-8.21539
-8.99314
-6.98195
-5.4662
-6.68462
-7.18463
-4.9817
-3.33149
-4.48746
-5.74629
-4.20679
-1.62061
-1.53336
-3.60095
-4.17575
-1.90974
0.391129
0.171123
-2.07035
-3.00208
-1.18327
0.740064
1.69382
0.794771
-1.75788
-1.66083
0.00484277
0.777598
1.1175
1.43274
0.14631
-0.65381
-0.321618
0.0293652
0.312611
0.949544
0.520556
-0.260714
-0.127391
0.223144
0.375634
2.77179
2.15497
-4.18436
1.34164
6.26139
-4.96276
-4.57162
0.937457
10.6401
3.21174
-12.9139
4.49242
14.5225
-17.3063
-1.6164
22.2507
-0.303126
-21.2471
8.52823
23.3738
-23.1227
-8.50629
30.1653
16.6304
21.6463
101.688
121.26
50.9434
)
;

boundaryField
{
    sides
    {
        type            calculated;
        value           nonuniform List<scalar> 2(50.9434 -51.0409);
    }
    empty
    {
        type            empty;
    }
}


// ************************************************************************* //
