/*--------------------------------*- C++ -*----------------------------------*\
  =========                 |
  \\      /  F ield         | OpenFOAM: The Open Source CFD Toolbox
   \\    /   O peration     | Website:  https://openfoam.org
    \\  /    A nd           | Version:  9
     \\/     M anipulation  |
\*---------------------------------------------------------------------------*/
FoamFile
{
    format      ascii;
    class       surfaceScalarField;
    location    "0.017";
    object      phi_0;
}
// * * * * * * * * * * * * * * * * * * * * * * * * * * * * * * * * * * * * * //

dimensions      [1 0 -1 0 0 0 0];

internalField   nonuniform List<scalar> 
99
(
89.0387
109.218
129.445
149.506
169.389
189.062
208.491
227.633
246.436
264.838
282.767
300.136
316.84
332.753
347.741
361.67
374.456
386.007
396.427
405.597
413.911
421.186
427.659
433.833
438.95
444.15
448.869
452.807
457.08
461.096
464.214
467.5
471.097
473.89
476.077
478.75
481.624
483.617
484.95
486.744
489.043
490.726
491.374
491.987
493.428
495.098
495.862
495.705
495.637
496.465
497.666
498.139
497.843
497.166
496.848
497.551
498.215
498.213
497.902
497.455
496.882
496.824
497.085
497.214
497.202
497.077
496.697
496.489
496.593
496.644
496.555
496.405
495.296
494.434
496.108
495.571
493.067
495.052
496.88
496.505
492.249
490.965
496.13
494.333
488.524
495.447
496.093
487.193
487.314
495.813
492.402
483.052
492.301
495.704
483.638
476.986
468.327
427.652
379.148
)
;

boundaryField
{
    sides
    {
        type            calculated;
        value           nonuniform List<scalar> 2(358.77 -68.6224);
    }
    empty
    {
        type            empty;
        value           nonuniform List<scalar> 0();
    }
}


// ************************************************************************* //
