/*--------------------------------*- C++ -*----------------------------------*\
  =========                 |
  \\      /  F ield         | OpenFOAM: The Open Source CFD Toolbox
   \\    /   O peration     | Website:  https://openfoam.org
    \\  /    A nd           | Version:  9
     \\/     M anipulation  |
\*---------------------------------------------------------------------------*/
FoamFile
{
    format      ascii;
    class       surfaceScalarField;
    location    "0.006";
    object      phi;
}
// * * * * * * * * * * * * * * * * * * * * * * * * * * * * * * * * * * * * * //

dimensions      [0 3 -1 0 0 0 0];

internalField   nonuniform List<scalar> 
99
(
1.32439e-22
1.32439e-22
1.32439e-22
1.32439e-22
1.32439e-22
1.32439e-22
1.32439e-22
1.32439e-22
1.32439e-22
1.32439e-22
1.32439e-22
1.32438e-22
1.32438e-22
1.32438e-22
1.32437e-22
1.32437e-22
1.32437e-22
1.32436e-22
1.32436e-22
1.32435e-22
1.32435e-22
1.32435e-22
1.32435e-22
1.32435e-22
1.32435e-22
1.32435e-22
1.32435e-22
1.32435e-22
1.32434e-22
1.32433e-22
1.32431e-22
1.32428e-22
1.32424e-22
1.32419e-22
1.32413e-22
1.32407e-22
1.32401e-22
1.32394e-22
1.32388e-22
1.32383e-22
1.32381e-22
1.32383e-22
1.32389e-22
1.32399e-22
1.32412e-22
1.32428e-22
1.32443e-22
1.32456e-22
1.32467e-22
1.32473e-22
1.32475e-22
1.32472e-22
1.32465e-22
1.32454e-22
1.32441e-22
1.32428e-22
1.32418e-22
1.3241e-22
1.32406e-22
1.32405e-22
1.32406e-22
1.32409e-22
1.32412e-22
1.32416e-22
1.3242e-22
1.32423e-22
1.32427e-22
1.3243e-22
1.32432e-22
1.32434e-22
1.32435e-22
1.32435e-22
1.32435e-22
1.32435e-22
1.32435e-22
1.32435e-22
1.32435e-22
1.32435e-22
1.32435e-22
1.32435e-22
1.32436e-22
1.32436e-22
1.32437e-22
1.32437e-22
1.32437e-22
1.32438e-22
1.32438e-22
1.32438e-22
1.32438e-22
1.32439e-22
1.32439e-22
1.32439e-22
1.32439e-22
1.32439e-22
1.32439e-22
1.32439e-22
1.32439e-22
1.32439e-22
1.32439e-22
)
;

boundaryField
{
    inlet
    {
        type            calculated;
        value           uniform -1.32439e-22;
    }
    outlet
    {
        type            calculated;
        value           uniform 1.32439e-22;
    }
    lowerWall
    {
        type            empty;
        value           nonuniform List<scalar> 0();
    }
    upperWall
    {
        type            empty;
        value           nonuniform List<scalar> 0();
    }
    frontAndBack
    {
        type            empty;
        value           nonuniform List<scalar> 0();
    }
}


// ************************************************************************* //
