/*--------------------------------*- C++ -*----------------------------------*\
  =========                 |
  \\      /  F ield         | OpenFOAM: The Open Source CFD Toolbox
   \\    /   O peration     | Website:  https://openfoam.org
    \\  /    A nd           | Version:  9
     \\/     M anipulation  |
\*---------------------------------------------------------------------------*/
FoamFile
{
    format      ascii;
    class       volScalarField;
    location    "0.006";
    object      Ux;
}
// * * * * * * * * * * * * * * * * * * * * * * * * * * * * * * * * * * * * * //

dimensions      [0 1 -1 0 0 0 0];

internalField   nonuniform List<scalar> 
100
(
3.31099e-23
3.31098e-23
3.31097e-23
3.31097e-23
3.31098e-23
3.31098e-23
3.31098e-23
3.31097e-23
3.31097e-23
3.31097e-23
3.31097e-23
3.31096e-23
3.31095e-23
3.31094e-23
3.31094e-23
3.31094e-23
3.31093e-23
3.31091e-23
3.31089e-23
3.31088e-23
3.31087e-23
3.31087e-23
3.31086e-23
3.31086e-23
3.31087e-23
3.31088e-23
3.31088e-23
3.31085e-23
3.31087e-23
3.31118e-23
3.31143e-23
3.30873e-23
3.30115e-23
3.31262e-23
3.40513e-23
3.462e-23
2.68003e-23
7.19832e-24
4.63921e-23
3.04579e-22
3.97585e-22
-1.90045e-21
-6.94848e-21
5.89238e-21
7.73649e-20
8.15812e-20
-6.03077e-19
4.36496e-19
4.36496e-19
-6.03077e-19
8.15813e-20
7.73649e-20
5.8924e-21
-6.94846e-21
-1.90043e-21
3.97599e-22
3.0459e-22
4.63983e-23
7.20027e-24
2.67994e-23
3.46178e-23
3.40489e-23
3.31236e-23
3.30085e-23
3.30842e-23
3.31114e-23
3.31096e-23
3.31072e-23
3.31075e-23
3.31082e-23
3.31086e-23
3.31088e-23
3.31089e-23
3.31089e-23
3.31088e-23
3.31087e-23
3.31086e-23
3.31087e-23
3.31087e-23
3.31087e-23
3.31088e-23
3.31089e-23
3.31091e-23
3.31093e-23
3.31094e-23
3.31094e-23
3.31094e-23
3.31095e-23
3.31096e-23
3.31097e-23
3.31097e-23
3.31097e-23
3.31097e-23
3.31097e-23
3.31097e-23
3.31097e-23
3.31097e-23
3.31097e-23
3.31097e-23
3.31097e-23
)
;

boundaryField
{
    inlet
    {
        type            calculated;
        value           uniform 3.31099e-23;
    }
    outlet
    {
        type            calculated;
        value           uniform 3.31097e-23;
    }
    lowerWall
    {
        type            empty;
    }
    upperWall
    {
        type            empty;
    }
    frontAndBack
    {
        type            empty;
    }
}


// ************************************************************************* //
