/*--------------------------------*- C++ -*----------------------------------*\
  =========                 |
  \\      /  F ield         | OpenFOAM: The Open Source CFD Toolbox
   \\    /   O peration     | Website:  https://openfoam.org
    \\  /    A nd           | Version:  9
     \\/     M anipulation  |
\*---------------------------------------------------------------------------*/
FoamFile
{
    format      ascii;
    class       volScalarField;
    location    "0.041";
    object      mag(U);
}
// * * * * * * * * * * * * * * * * * * * * * * * * * * * * * * * * * * * * * //

dimensions      [0 1 -1 0 0 0 0];

internalField   nonuniform List<scalar> 
100
(
216.972
220.141
221.994
223.995
225.96
227.933
229.904
231.876
233.847
235.819
237.79
239.76
241.731
243.701
245.671
247.641
249.61
251.579
253.547
255.515
257.482
259.449
261.415
263.381
265.346
267.31
269.273
271.235
273.197
275.157
277.116
279.073
281.029
282.982
284.932
286.876
288.808
290.717
292.585
294.372
296.029
297.453
298.565
299.309
299.727
299.936
300.056
300.175
300.312
300.397
300.398
300.343
300.254
300.159
300.077
300.022
299.987
299.937
299.862
299.758
299.639
299.522
299.423
299.375
299.336
299.288
299.219
299.124
299.014
298.901
298.802
298.736
298.679
298.627
298.566
298.48
298.374
298.252
298.124
298.012
297.931
297.905
297.908
297.851
297.672
296.839
294.281
292.05
290.948
290.182
289.038
287.1
285.683
285.063
284.826
284.69
284.597
284.49
284.406
284.303
)
;

boundaryField
{
    sides
    {
        type            calculated;
        value           nonuniform List<scalar> 2(284.303 216.972);
    }
    empty
    {
        type            empty;
    }
}


// ************************************************************************* //
