/*--------------------------------*- C++ -*----------------------------------*\
  =========                 |
  \\      /  F ield         | OpenFOAM: The Open Source CFD Toolbox
   \\    /   O peration     | Website:  https://openfoam.org
    \\  /    A nd           | Version:  9
     \\/     M anipulation  |
\*---------------------------------------------------------------------------*/
FoamFile
{
    format      ascii;
    class       volScalarField;
    location    "0.041";
    object      T;
}
// * * * * * * * * * * * * * * * * * * * * * * * * * * * * * * * * * * * * * //

dimensions      [0 0 0 1 0 0 0];

internalField   nonuniform List<scalar> 
100
(
278.899
277.831
277.181
276.484
275.8
275.115
274.431
273.747
273.064
272.382
271.7
271.019
270.339
269.66
268.981
268.304
267.626
266.95
266.274
265.599
264.925
264.252
263.579
262.907
262.236
261.566
260.897
260.228
259.56
258.893
258.227
257.562
256.898
256.235
255.573
254.914
254.259
253.611
252.978
252.368
251.805
251.307
250.911
250.632
250.454
250.341
250.252
250.161
250.063
249.978
249.919
249.865
249.823
249.78
249.729
249.671
249.603
249.548
249.502
249.467
249.449
249.446
249.44
249.421
249.405
249.394
249.392
249.389
249.386
249.384
249.377
249.359
249.336
249.31
249.283
249.261
249.261
249.267
249.269
249.261
249.238
249.199
249.148
249.138
249.16
249.386
250.145
250.796
251.092
251.295
251.618
252.192
252.572
252.722
252.782
252.785
252.757
252.727
252.707
252.684
)
;

boundaryField
{
    sides
    {
        type            zeroGradient;
    }
    empty
    {
        type            empty;
    }
}


// ************************************************************************* //
