/*--------------------------------*- C++ -*----------------------------------*\
  =========                 |
  \\      /  F ield         | OpenFOAM: The Open Source CFD Toolbox
   \\    /   O peration     | Website:  https://openfoam.org
    \\  /    A nd           | Version:  9
     \\/     M anipulation  |
\*---------------------------------------------------------------------------*/
FoamFile
{
    format      ascii;
    class       volVectorField;
    location    "0.041";
    object      U;
}
// * * * * * * * * * * * * * * * * * * * * * * * * * * * * * * * * * * * * * //

dimensions      [0 1 -1 0 0 0 0];

internalField   nonuniform List<vector> 
100
(
(216.972 0 0)
(220.141 0 0)
(221.994 0 0)
(223.995 0 0)
(225.96 0 0)
(227.933 0 0)
(229.904 0 0)
(231.876 0 0)
(233.847 0 0)
(235.819 0 0)
(237.79 0 0)
(239.76 0 0)
(241.731 0 0)
(243.701 0 0)
(245.671 0 0)
(247.641 0 0)
(249.61 0 0)
(251.579 0 0)
(253.547 0 0)
(255.515 0 0)
(257.482 0 0)
(259.449 0 0)
(261.415 0 0)
(263.381 0 0)
(265.346 0 0)
(267.31 0 0)
(269.273 0 0)
(271.235 0 0)
(273.197 0 0)
(275.157 0 0)
(277.116 0 0)
(279.073 0 0)
(281.029 0 0)
(282.982 0 0)
(284.932 0 0)
(286.876 0 0)
(288.808 0 0)
(290.717 0 0)
(292.585 0 0)
(294.372 0 0)
(296.029 0 0)
(297.453 0 0)
(298.565 0 0)
(299.309 0 0)
(299.727 0 0)
(299.936 0 0)
(300.056 0 0)
(300.175 0 0)
(300.312 0 0)
(300.397 0 0)
(300.398 0 0)
(300.343 0 0)
(300.254 0 0)
(300.159 0 0)
(300.077 0 0)
(300.022 0 0)
(299.987 0 0)
(299.937 0 0)
(299.862 0 0)
(299.758 0 0)
(299.639 0 0)
(299.522 0 0)
(299.423 0 0)
(299.375 0 0)
(299.336 0 0)
(299.288 0 0)
(299.219 0 0)
(299.124 0 0)
(299.014 0 0)
(298.901 0 0)
(298.802 0 0)
(298.736 0 0)
(298.679 0 0)
(298.627 0 0)
(298.566 0 0)
(298.48 0 0)
(298.374 0 0)
(298.252 0 0)
(298.124 0 0)
(298.012 0 0)
(297.931 0 0)
(297.905 0 0)
(297.908 0 0)
(297.851 0 0)
(297.672 0 0)
(296.839 0 0)
(294.281 0 0)
(292.05 0 0)
(290.948 0 0)
(290.182 0 0)
(289.038 0 0)
(287.1 0 0)
(285.683 0 0)
(285.063 0 0)
(284.826 0 0)
(284.69 0 0)
(284.597 0 0)
(284.49 0 0)
(284.406 0 0)
(284.303 0 0)
)
;

boundaryField
{
    sides
    {
        type            zeroGradient;
    }
    empty
    {
        type            empty;
    }
}


// ************************************************************************* //
