/*--------------------------------*- C++ -*----------------------------------*\
  =========                 |
  \\      /  F ield         | OpenFOAM: The Open Source CFD Toolbox
   \\    /   O peration     | Website:  https://openfoam.org
    \\  /    A nd           | Version:  9
     \\/     M anipulation  |
\*---------------------------------------------------------------------------*/
FoamFile
{
    format      ascii;
    class       volScalarField;
    location    "0.034";
    object      p;
}
// * * * * * * * * * * * * * * * * * * * * * * * * * * * * * * * * * * * * * //

dimensions      [1 -1 -2 0 0 0 0];

internalField   nonuniform List<scalar> 
100
(
20403.5
20363.8
20275.7
20203.1
20142.5
20082.9
20023.1
19963.9
19905.6
19848.7
19792.5
19737
19683.4
19630.6
19578.6
19528.3
19479.5
19431.4
19384.3
19339.1
19295.7
19253.3
19212
19172.7
19135.7
19101
19067.8
19037.1
19009
18984.3
18962.2
18944
18928
18916.5
18907.3
18902.6
18899.9
18900
18900.6
18901.9
18904.4
18909.9
18921.6
18945.2
18986.8
19035.8
19089.8
19149.5
19214.7
19285.3
19362.1
19445.1
19533.8
19628.4
19729.4
19836.2
19948.3
20065.4
20186.8
20312.2
20441.4
20574.3
20709.9
20848
20988.5
21131.6
21277.3
21425.4
21575.7
21728.1
21882.8
22040.1
22200.4
22363.6
22529.1
22696.5
22865.9
23037.2
23210
23384.6
23560.4
23737
23913.7
24091.2
24268.3
24446.6
24623.9
24803.2
24980.7
25161.2
25339.1
25521.5
25701.5
25889
26078.1
26281.1
26495.7
26732
26987.9
27273.7
)
;

boundaryField
{
    sides
    {
        type            zeroGradient;
    }
    empty
    {
        type            empty;
    }
}


// ************************************************************************* //
