/*--------------------------------*- C++ -*----------------------------------*\
  =========                 |
  \\      /  F ield         | OpenFOAM: The Open Source CFD Toolbox
   \\    /   O peration     | Website:  https://openfoam.org
    \\  /    A nd           | Version:  9
     \\/     M anipulation  |
\*---------------------------------------------------------------------------*/
FoamFile
{
    format      ascii;
    class       surfaceScalarField;
    location    "0.035";
    object      ddtCorrDdt0(phi);
}
// * * * * * * * * * * * * * * * * * * * * * * * * * * * * * * * * * * * * * //

dimensions      [1 0 -2 0 0 0 0];

internalField   nonuniform List<scalar> 
9999
(
-33.205
-35.7676
-38.3323
-40.8979
-43.4636
-46.0287
-48.5917
-51.1522
-53.7117
-56.2727
-58.8347
-61.3951
-63.9528
-66.51
-69.0699
-71.6323
-74.1935
-76.7512
-79.308
-81.8693
-84.4367
-87.0057
-89.5695
-92.1258
-94.6785
-97.2341
-99.7956
-102.36
-104.923
-107.479
-110.033
-112.589
-115.154
-117.724
-120.291
-122.849
-125.395
-127.939
-130.49
-133.053
-135.625
-138.194
-140.751
-143.295
-145.834
-148.38
-150.941
-153.518
-156.101
-158.676
-161.232
-163.769
-166.297
-168.829
-171.379
-173.948
-176.532
-179.118
-181.695
-184.254
-186.792
-189.315
-191.836
-194.371
-196.928
-199.505
-202.096
-204.688
-207.268
-209.826
-212.361
-214.879
-217.393
-219.912
-222.447
-225.003
-227.583
-230.182
-232.791
-235.395
-237.979
-240.534
-243.064
-245.573
-248.07
-250.564
-253.066
-255.591
-258.144
-260.721
-263.322
-265.941
-268.566
-271.186
-273.795
-276.385
-278.952
-281.497
-284.016
-286.505
-288.973
-291.432
-293.899
-296.38
-298.872
-301.378
-303.915
-306.483
-309.073
-311.687
-314.331
-316.995
-319.671
-322.365
-325.066
-327.766
-330.471
-333.165
-335.848
-338.519
-341.173
-343.829
-346.479
-349.101
-351.677
-354.253
-356.838
-359.388
-361.964
-364.543
-367.149
-369.86
-372.489
-375.062
-377.636
-380.186
-382.77
-385.324
-387.874
-390.46
-393.027
-395.575
-398.126
-400.685
-403.258
-405.828
-408.394
-410.964
-413.526
-416.089
-418.657
-421.218
-423.779
-426.346
-428.911
-431.471
-434.032
-436.6
-439.168
-441.728
-444.287
-446.852
-449.421
-451.989
-454.553
-457.11
-459.665
-462.224
-464.787
-467.353
-469.919
-472.487
-475.056
-477.621
-480.185
-482.751
-485.317
-487.881
-490.443
-493.006
-495.57
-498.135
-500.699
-503.259
-505.82
-508.383
-510.95
-513.517
-516.082
-518.644
-521.204
-523.763
-526.321
-528.881
-531.444
-534.008
-536.573
-539.138
-541.703
-544.27
-546.836
-549.4
-551.964
-554.528
-557.093
-559.658
-562.222
-564.784
-567.345
-569.908
-572.471
-575.036
-577.601
-580.165
-582.727
-585.288
-587.847
-590.407
-592.968
-595.529
-598.091
-600.653
-603.217
-605.781
-608.345
-610.909
-613.472
-616.036
-618.601
-621.166
-623.73
-626.294
-628.857
-631.42
-633.982
-636.546
-639.11
-641.675
-644.238
-646.801
-649.362
-651.922
-654.482
-657.042
-659.602
-662.163
-664.725
-667.288
-669.851
-672.414
-674.976
-677.539
-680.101
-682.664
-685.228
-687.791
-690.355
-692.917
-695.48
-698.043
-700.606
-703.17
-705.735
-708.299
-710.862
-713.424
-715.986
-718.546
-721.106
-723.665
-726.225
-728.786
-731.347
-733.909
-736.471
-739.034
-741.596
-744.158
-746.721
-749.283
-751.846
-754.408
-756.969
-759.531
-762.092
-764.655
-767.217
-769.781
-772.345
-774.908
-777.472
-780.034
-782.596
-785.157
-787.717
-790.277
-792.837
-795.397
-797.958
-800.519
-803.08
-805.642
-808.203
-810.765
-813.327
-815.89
-818.452
-821.013
-823.574
-826.135
-828.696
-831.257
-833.818
-836.38
-838.943
-841.505
-844.068
-846.63
-849.192
-851.753
-854.313
-856.874
-859.434
-861.995
-864.555
-867.116
-869.677
-872.237
-874.799
-877.36
-879.921
-882.483
-885.044
-887.606
-890.167
-892.727
-895.288
-897.849
-900.409
-902.97
-905.531
-908.093
-910.654
-913.215
-915.776
-918.336
-920.897
-923.457
-926.017
-928.577
-931.138
-933.698
-936.259
-938.819
-941.38
-943.941
-946.502
-949.063
-951.624
-954.185
-956.746
-959.306
-961.866
-964.427
-966.987
-969.548
-972.108
-974.669
-977.23
-979.79
-982.35
-984.91
-987.469
-990.028
-992.588
-995.147
-997.706
-1000.27
-1002.83
-1005.39
-1007.95
-1010.51
-1013.07
-1015.63
-1018.19
-1020.75
-1023.31
-1025.87
-1028.43
-1030.99
-1033.55
-1036.11
-1038.67
-1041.23
-1043.79
-1046.35
-1048.91
-1051.47
-1054.03
-1056.59
-1059.15
-1061.71
-1064.26
-1066.82
-1069.38
-1071.94
-1074.5
-1077.06
-1079.62
-1082.18
-1084.74
-1087.3
-1089.86
-1092.42
-1094.98
-1097.54
-1100.1
-1102.66
-1105.22
-1107.78
-1110.34
-1112.9
-1115.46
-1118.02
-1120.58
-1123.14
-1125.7
-1128.25
-1130.81
-1133.37
-1135.93
-1138.48
-1141.04
-1143.6
-1146.16
-1148.72
-1151.28
-1153.84
-1156.4
-1158.96
-1161.52
-1164.08
-1166.64
-1169.19
-1171.75
-1174.31
-1176.87
-1179.43
-1181.99
-1184.55
-1187.11
-1189.67
-1192.23
-1194.79
-1197.34
-1199.9
-1202.46
-1205.02
-1207.57
-1210.13
-1212.69
-1215.25
-1217.8
-1220.36
-1222.92
-1225.48
-1228.04
-1230.6
-1233.15
-1235.71
-1238.27
-1240.83
-1243.39
-1245.95
-1248.51
-1251.07
-1253.63
-1256.19
-1258.74
-1261.3
-1263.86
-1266.42
-1268.98
-1271.53
-1274.09
-1276.65
-1279.2
-1281.76
-1284.32
-1286.87
-1289.43
-1291.99
-1294.55
-1297.1
-1299.66
-1302.22
-1304.78
-1307.33
-1309.89
-1312.45
-1315.01
-1317.57
-1320.13
-1322.68
-1325.24
-1327.8
-1330.36
-1332.92
-1335.48
-1338.03
-1340.59
-1343.15
-1345.7
-1348.26
-1350.82
-1353.37
-1355.93
-1358.49
-1361.04
-1363.6
-1366.16
-1368.71
-1371.27
-1373.83
-1376.38
-1378.94
-1381.5
-1384.05
-1386.61
-1389.17
-1391.73
-1394.28
-1396.84
-1399.4
-1401.96
-1404.51
-1407.07
-1409.63
-1412.19
-1414.74
-1417.3
-1419.86
-1422.41
-1424.97
-1427.52
-1430.08
-1432.64
-1435.19
-1437.75
-1440.3
-1442.86
-1445.42
-1447.97
-1450.53
-1453.09
-1455.64
-1458.2
-1460.76
-1463.31
-1465.87
-1468.42
-1470.98
-1473.54
-1476.09
-1478.65
-1481.21
-1483.76
-1486.32
-1488.88
-1491.43
-1493.99
-1496.54
-1499.1
-1501.65
-1504.21
-1506.77
-1509.32
-1511.88
-1514.43
-1516.99
-1519.54
-1522.1
-1524.66
-1527.21
-1529.77
-1532.32
-1534.88
-1537.43
-1539.99
-1542.55
-1545.1
-1547.66
-1550.21
-1552.77
-1555.32
-1557.88
-1560.44
-1562.99
-1565.55
-1568.1
-1570.66
-1573.21
-1575.77
-1578.32
-1580.88
-1583.43
-1585.99
-1588.54
-1591.1
-1593.65
-1596.21
-1598.76
-1601.32
-1603.87
-1606.43
-1608.98
-1611.54
-1614.09
-1616.65
-1619.2
-1621.76
-1624.31
-1626.87
-1629.42
-1631.98
-1634.53
-1637.08
-1639.64
-1642.19
-1644.75
-1647.3
-1649.86
-1652.41
-1654.97
-1657.52
-1660.08
-1662.63
-1665.19
-1667.74
-1670.29
-1672.85
-1675.4
-1677.96
-1680.51
-1683.07
-1685.62
-1688.18
-1690.73
-1693.29
-1695.84
-1698.39
-1700.95
-1703.5
-1706.05
-1708.61
-1711.16
-1713.71
-1716.27
-1718.82
-1721.37
-1723.93
-1726.48
-1729.04
-1731.59
-1734.14
-1736.7
-1739.25
-1741.8
-1744.36
-1746.91
-1749.47
-1752.02
-1754.57
-1757.13
-1759.68
-1762.24
-1764.79
-1767.34
-1769.9
-1772.45
-1775
-1777.56
-1780.11
-1782.66
-1785.21
-1787.77
-1790.32
-1792.88
-1795.43
-1797.98
-1800.53
-1803.09
-1805.64
-1808.19
-1810.74
-1813.29
-1815.85
-1818.4
-1820.95
-1823.51
-1826.06
-1828.62
-1831.17
-1833.73
-1836.28
-1838.83
-1841.38
-1843.93
-1846.49
-1849.03
-1851.59
-1854.13
-1856.73
-1859.24
-1861.8
-1864.36
-1866.91
-1869.46
-1872.01
-1874.56
-1877.11
-1879.66
-1882.22
-1884.77
-1887.32
-1889.87
-1892.43
-1894.97
-1897.54
-1900.08
-1902.65
-1905.18
-1907.74
-1910.29
-1912.84
-1915.41
-1917.93
-1920.52
-1923.03
-1925.63
-1928.14
-1930.73
-1933.25
-1935.81
-1938.38
-1940.89
-1943.51
-1945.98
-1948.61
-1951.1
-1953.69
-1956.23
-1958.74
-1961.36
-1963.85
-1966.45
-1968.96
-1971.54
-1974.09
-1976.6
-1979.23
-1981.69
-1984.32
-1986.81
-1989.41
-1991.95
-1994.45
-1997.11
-1999.53
-2002.2
-2004.68
-2007.24
-2009.85
-2012.28
-2014.98
-2017.4
-2020.02
-2022.58
-2025.05
-2027.73
-2030.13
-2032.8
-2035.31
-2037.82
-2040.48
-2042.88
-2045.58
-2048.03
-2050.57
-2053.24
-2055.63
-2058.34
-2060.78
-2063.35
-2065.98
-2068.36
-2071.12
-2073.51
-2076.11
-2078.74
-2081.11
-2083.87
-2086.25
-2088.85
-2091.5
-2093.85
-2096.61
-2099.03
-2101.58
-2104.29
-2106.56
-2109.4
-2111.78
-2114.33
-2117.02
-2119.38
-2122.06
-2124.59
-2127.04
-2129.74
-2132.12
-2134.85
-2137.34
-2139.76
-2142.54
-2144.85
-2147.53
-2150.12
-2152.49
-2155.28
-2157.63
-2160.24
-2162.91
-2165.22
-2168.02
-2170.45
-2172.93
-2175.69
-2177.97
-2180.7
-2183.26
-2185.62
-2188.45
-2190.78
-2193.36
-2196.08
-2198.34
-2201.14
-2203.62
-2206.01
-2208.86
-2211.14
-2213.76
-2216.48
-2218.72
-2221.54
-2224.01
-2226.38
-2229.26
-2231.53
-2234.14
-2236.9
-2239.09
-2241.91
-2244.44
-2246.74
-2249.66
-2251.95
-2254.46
-2257.32
-2259.49
-2262.24
-2264.9
-2267.09
-2270.01
-2272.43
-2274.77
-2277.73
-2279.93
-2282.52
-2285.37
-2287.48
-2290.3
-2292.93
-2295.09
-2298.06
-2300.45
-2302.78
-2305.76
-2307.97
-2310.52
-2313.4
-2315.52
-2318.29
-2320.98
-2323.12
-2326.05
-2328.52
-2330.79
-2333.77
-2336.05
-2338.5
-2341.43
-2343.59
-2346.24
-2349.05
-2351.16
-2353.99
-2356.63
-2358.78
-2361.72
-2364.18
-2366.43
-2369.43
-2371.72
-2374.13
-2377.11
-2379.28
-2381.84
-2384.76
-2386.84
-2389.56
-2392.37
-2394.43
-2397.28
-2399.97
-2402.05
-2404.99
-2407.55
-2409.68
-2412.7
-2415.12
-2417.33
-2420.39
-2422.69
-2425
-2428.06
-2430.26
-2432.69
-2435.72
-2437.84
-2440.38
-2443.36
-2445.42
-2448.07
-2450.99
-2453.01
-2455.76
-2458.62
-2460.61
-2463.45
-2466.23
-2468.22
-2471.14
-2473.84
-2475.84
-2478.83
-2481.46
-2483.46
-2486.51
-2489.07
-2491.09
-2494.18
-2496.68
-2498.72
-2501.84
-2504.29
-2506.35
-2509.5
-2511.91
-2513.98
-2517.15
-2519.53
-2521.62
-2524.8
-2527.16
-2529.25
-2532.45
-2534.79
-2536.88
-2540.09
-2542.42
-2544.52
-2547.73
-2550.07
-2552.15
-2555.36
-2557.71
-2559.78
-2562.98
-2565.36
-2567.41
-2570.6
-2573.01
-2575.04
-2578.22
-2580.67
-2582.67
-2585.83
-2588.32
-2590.3
-2593.44
-2595.98
-2597.94
-2601.04
-2603.64
-2605.57
-2608.64
-2611.31
-2613.22
-2616.23
-2618.97
-2620.86
-2623.81
-2626.63
-2628.52
-2631.39
-2634.3
-2636.18
-2638.96
-2641.95
-2643.85
-2646.53
-2649.6
-2651.54
-2654.1
-2657.24
-2659.23
-2661.66
-2664.86
-2666.94
-2669.23
-2672.46
-2674.66
-2676.81
-2680.04
-2682.39
-2684.4
-2687.6
-2690.12
-2692.02
-2695.13
-2697.84
-2699.67
-2702.65
-2705.55
-2707.36
-2710.15
-2713.23
-2715.08
-2717.65
-2720.86
-2722.84
-2725.17
-2728.46
-2730.61
-2732.72
-2736
-2738.39
-2740.31
-2743.51
-2746.15
-2747.96
-2750.98
-2753.88
-2755.67
-2758.44
-2761.56
-2763.42
-2765.91
-2769.17
-2771.22
-2773.42
-2776.72
-2779.02
-2780.99
-2784.21
-2786.81
-2788.63
-2791.65
-2794.55
-2796.35
-2799.09
-2802.23
-2804.13
-2806.55
-2809.83
-2811.95
-2814.07
-2817.34
-2819.77
-2821.66
-2824.79
-2827.55
-2829.35
-2832.2
-2835.27
-2837.13
-2839.63
-2842.88
-2844.96
-2847.11
-2850.4
-2852.8
-2854.69
-2857.83
-2860.6
-2862.39
-2865.21
-2868.32
-2870.19
-2872.62
-2875.91
-2878.06
-2880.11
-2883.38
-2885.92
-2887.73
-2890.75
-2893.7
-2895.5
-2898.11
-2901.36
-2903.36
-2905.55
-2908.86
-2911.26
-2913.12
-2916.23
-2919.09
-2920.86
-2923.57
-2926.77
-2928.73
-2930.97
-2934.28
-2936.64
-2938.53
-2941.65
-2944.48
-2946.26
-2948.98
-2952.16
-2954.14
-2956.37
-2959.66
-2962.05
-2963.93
-2967.02
-2969.89
-2971.69
-2974.34
-2977.55
-2979.59
-2981.75
-2985.01
-2987.52
-2989.35
-2992.33
-2995.32
-2997.17
-2999.65
-3002.91
-3005.1
-3007.12
-3010.29
-3013
-3014.81
-3017.59
-3020.72
-3022.7
-3024.96
-3028.2
-3030.64
-3032.53
-3035.52
-3038.46
-3040.34
-3042.83
-3046.05
-3048.28
-3050.3
-3053.42
-3056.17
-3058.02
-3060.71
-3063.86
-3065.92
-3068.1
-3071.29
-3073.86
-3075.73
-3078.58
-3081.63
-3083.6
-3085.91
-3089.13
-3091.56
-3093.47
-3096.42
-3099.39
-3101.31
-3103.71
-3106.94
-3109.28
-3111.23
-3114.23
-3117.14
-3119.04
-3121.5
-3124.72
-3127.02
-3128.99
-3132.02
-3134.89
-3136.8
-3139.29
-3142.48
-3144.77
-3146.77
-3149.79
-3152.64
-3154.57
-3157.06
-3160.22
-3162.53
-3164.55
-3167.54
-3170.4
-3172.35
-3174.82
-3177.96
-3180.31
-3182.32
-3185.27
-3188.16
-3190.14
-3192.56
-3195.7
-3198.1
-3200.1
-3202.99
-3205.92
-3207.94
-3210.29
-3213.42
-3215.9
-3217.87
-3220.69
-3223.68
-3225.76
-3228.02
-3231.12
-3233.72
-3235.66
-3238.36
-3241.43
-3243.61
-3245.74
-3248.79
-3251.53
-3253.49
-3256.02
-3259.14
-3261.47
-3263.5
-3266.42
-3269.33
-3271.35
-3273.7
-3276.8
-3279.33
-3281.3
-3284.03
-3287.07
-3289.24
-3291.41
-3294.42
-3297.16
-3299.16
-3301.67
-3304.74
-3307.13
-3309.19
-3312.02
-3314.93
-3317.05
-3319.35
-3322.37
-3324.98
-3327.02
-3329.64
-3332.64
-3334.95
-3337.09
-3339.98
-3342.78
-3344.89
-3347.29
-3350.29
-3352.82
-3354.89
-3357.58
-3360.52
-3362.78
-3364.99
-3367.9
-3370.65
-3372.74
-3375.18
-3378.19
-3380.69
-3382.76
-3385.46
-3388.41
-3390.67
-3392.85
-3395.76
-3398.54
-3400.65
-3403.04
-3406.04
-3408.6
-3410.66
-3413.29
-3416.26
-3418.6
-3420.75
-3423.56
-3426.41
-3428.6
-3430.91
-3433.83
-3436.5
-3438.62
-3441.12
-3444.06
-3446.53
-3448.68
-3451.37
-3454.24
-3456.54
-3458.8
-3461.62
-3464.35
-3466.56
-3468.98
-3471.86
-3474.42
-3476.61
-3479.19
-3482.06
-3484.46
-3486.69
-3489.43
-3492.22
-3494.49
-3496.82
-3499.66
-3502.33
-3504.53
-3506.99
-3509.88
-3512.41
-3514.59
-3517.19
-3520.06
-3522.47
-3524.68
-3527.4
-3530.22
-3532.52
-3534.8
-3537.61
-3540.34
-3542.57
-3544.96
-3547.81
-3550.43
-3552.64
-3555.13
-3557.99
-3560.51
-3562.72
-3565.32
-3568.15
-3570.57
-3572.82
-3575.51
-3578.29
-3580.63
-3582.95
-3585.7
-3588.41
-3590.69
-3593.1
-3595.89
-3598.51
-3600.77
-3603.26
-3606.06
-3608.6
-3610.85
-3613.43
-3616.23
-3618.68
-3620.95
-3623.6
-3626.37
-3628.75
-3631.06
-3633.77
-3636.51
-3638.83
-3641.18
-3643.94
-3646.63
-3648.91
-3651.31
-3654.1
-3656.74
-3659
-3661.45
-3664.26
-3666.84
-3669.09
-3671.59
-3674.4
-3676.94
-3679.2
-3681.74
-3684.54
-3687.04
-3689.3
-3691.89
-3694.67
-3697.13
-3699.42
-3702.04
-3704.8
-3707.22
-3709.54
-3712.19
-3714.92
-3717.31
-3719.66
-3722.34
-3725.03
-3727.41
-3729.79
-3732.48
-3735.15
-3737.5
-3739.91
-3742.63
-3745.26
-3747.6
-3750.04
-3752.76
-3755.37
-3757.7
-3760.16
-3762.9
-3765.48
-3767.8
-3770.28
-3773.03
-3775.59
-3777.91
-3780.41
-3783.15
-3785.71
-3788.02
-3790.53
-3793.27
-3795.82
-3798.13
-3800.65
-3803.39
-3805.93
-3808.25
-3810.77
-3813.5
-3816.04
-3818.37
-3820.89
-3823.61
-3826.14
-3828.49
-3831.02
-3833.72
-3836.24
-3838.6
-3841.14
-3843.84
-3846.35
-3848.71
-3851.26
-3853.95
-3856.46
-3858.82
-3861.38
-3864.07
-3866.56
-3868.93
-3871.49
-3874.19
-3876.68
-3879.03
-3881.6
-3884.3
-3886.8
-3889.15
-3891.7
-3894.41
-3896.92
-3899.26
-3901.8
-3904.51
-3907.04
-3909.39
-3911.9
-3914.6
-3917.15
-3919.51
-3922.01
-3924.7
-3927.26
-3929.63
-3932.12
-3934.8
-3937.37
-3939.75
-3942.23
-3944.89
-3947.47
-3949.87
-3952.34
-3954.99
-3957.58
-3959.98
-3962.45
-3965.09
-3967.69
-3970.1
-3972.55
-3975.19
-3977.79
-3980.21
-3982.65
-3985.29
-3987.9
-3990.33
-3992.76
-3995.38
-3998.01
-4000.45
-4002.86
-4005.47
-4008.11
-4010.57
-4012.97
-4015.56
-4018.21
-4020.69
-4023.08
-4025.64
-4028.3
-4030.81
-4033.2
-4035.73
-4038.39
-4040.92
-4043.32
-4045.83
-4048.47
-4051.03
-4053.44
-4055.92
-4058.56
-4061.14
-4063.56
-4066.02
-4068.64
-4071.24
-4073.68
-4076.13
-4078.73
-4081.33
-4083.79
-4086.23
-4088.82
-4091.43
-4093.9
-4096.34
-4098.9
-4101.53
-4104.02
-4106.44
-4108.99
-4111.62
-4114.14
-4116.55
-4119.07
-4121.7
-4124.25
-4126.67
-4129.15
-4131.78
-4134.36
-4136.79
-4139.24
-4141.85
-4144.46
-4146.92
-4149.35
-4151.92
-4154.54
-4157.04
-4159.46
-4161.99
-4164.62
-4167.15
-4169.58
-4172.08
-4174.69
-4177.24
-4179.69
-4182.18
-4184.77
-4187.34
-4189.8
-4192.28
-4194.86
-4197.43
-4199.9
-4202.37
-4204.94
-4207.53
-4210.02
-4212.46
-4215.01
-4217.62
-4220.13
-4222.56
-4225.08
-4227.7
-4230.25
-4232.68
-4235.15
-4237.76
-4240.35
-4242.81
-4245.25
-4247.81
-4250.43
-4252.93
-4255.36
-4257.88
-4260.49
-4263.04
-4265.48
-4267.97
-4270.56
-4273.12
-4275.6
-4278.07
-4280.63
-4283.2
-4285.7
-4288.17
-4290.72
-4293.29
-4295.79
-4298.26
-4300.79
-4303.38
-4305.9
-4308.35
-4310.86
-4313.46
-4316.01
-4318.46
-4320.93
-4323.52
-4326.1
-4328.58
-4331.03
-4333.57
-4336.18
-4338.7
-4341.14
-4343.63
-4346.23
-4348.8
-4351.26
-4353.72
-4356.28
-4358.87
-4361.38
-4363.83
-4366.35
-4368.93
-4371.47
-4373.94
-4376.44
-4379
-4381.55
-4384.04
-4386.53
-4389.08
-4391.63
-4394.13
-4396.61
-4399.15
-4401.72
-4404.23
-4406.69
-4409.22
-4411.8
-4414.33
-4416.79
-4419.28
-4421.86
-4424.43
-4426.91
-4429.36
-4431.9
-4434.5
-4437.02
-4439.47
-4441.96
-4444.54
-4447.11
-4449.59
-4452.05
-4454.59
-4457.17
-4459.7
-4462.16
-4464.66
-4467.23
-4469.78
-4472.27
-4474.75
-4477.29
-4479.85
-4482.36
-4484.84
-4487.37
-4489.92
-4492.44
-4494.93
-4497.44
-4500
-4502.53
-4505.01
-4507.51
-4510.06
-4512.62
-4515.11
-4517.58
-4520.11
-4522.69
-4525.22
-4527.68
-4530.17
-4532.74
-4535.3
-4537.8
-4540.26
-4542.78
-4545.36
-4547.89
-4550.37
-4552.85
-4555.4
-4557.96
-4560.47
-4562.95
-4565.46
-4568.02
-4570.55
-4573.04
-4575.54
-4578.08
-4580.62
-4583.12
-4585.62
-4588.15
-4590.7
-4593.21
-4595.7
-4598.22
-4600.77
-4603.3
-4605.78
-4608.28
-4610.83
-4613.38
-4615.88
-4618.35
-4620.87
-4623.44
-4625.97
-4628.45
-4630.94
-4633.48
-4636.04
-4638.55
-4641.03
-4643.53
-4646.09
-4648.63
-4651.13
-4653.61
-4656.14
-4658.69
-4661.21
-4663.7
-4666.21
-4668.75
-4671.28
-4673.78
-4676.28
-4678.81
-4681.35
-4683.86
-4686.35
-4688.88
-4691.42
-4693.95
-4696.43
-4698.93
-4701.48
-4704.02
-4706.53
-4709.01
-4711.52
-4714.08
-4716.62
-4719.1
-4721.59
-4724.12
-4726.67
-4729.2
-4731.68
-4734.18
-4736.72
-4739.26
-4741.77
-4744.26
-4746.77
-4749.31
-4751.84
-4754.34
-4756.84
-4759.37
-4761.9
-4764.41
-4766.91
-4769.44
-4771.97
-4774.49
-4776.98
-4779.49
-4782.03
-4784.57
-4787.07
-4789.55
-4792.07
-4794.62
-4797.15
-4799.64
-4802.13
-4804.66
-4807.21
-4809.73
-4812.22
-4814.72
-4817.25
-4819.8
-4822.3
-4824.79
-4827.31
-4829.85
-4832.37
-4834.88
-4837.38
-4839.9
-4842.43
-4844.95
-4847.45
-4849.96
-4852.49
-4855.01
-4857.51
-4860.02
-4862.55
-4865.08
-4867.59
-4870.08
-4872.6
-4875.13
-4877.67
-4880.17
-4882.66
-4885.18
-4887.72
-4890.24
-4892.74
-4895.23
-4897.76
-4900.3
-4902.82
-4905.31
-4907.82
-4910.35
-4912.88
-4915.39
-4917.89
-4920.4
-4922.93
-4925.46
-4927.96
-4930.46
-4932.98
-4935.51
-4938.03
-4940.53
-4943.04
-4945.57
-4948.09
-4950.6
-4953.1
-4955.62
-4958.15
-4960.67
-4963.17
-4965.67
-4968.2
-4970.73
-4973.24
-4975.74
-4978.25
-4980.78
-4983.31
-4985.82
-4988.31
-4990.82
-4993.36
-4995.88
-4998.39
-5000.88
-5003.4
-5005.93
-5008.45
-5010.96
-5013.46
-5015.98
-5018.51
-5021.02
-5023.52
-5026.04
-5028.56
-5031.08
-5033.59
-5036.09
-5038.61
-5041.14
-5043.65
-5046.16
-5048.66
-5051.19
-5053.72
-5056.23
-5058.72
-5061.24
-5063.77
-5066.29
-5068.8
-5071.29
-5073.81
-5076.34
-5078.86
-5081.37
-5083.87
-5086.38
-5088.91
-5091.43
-5093.94
-5096.44
-5098.96
-5101.48
-5104
-5106.5
-5109.01
-5111.53
-5114.05
-5116.57
-5119.07
-5121.58
-5124.11
-5126.63
-5129.13
-5131.64
-5134.16
-5136.68
-5139.2
-5141.7
-5144.21
-5146.73
-5149.25
-5151.76
-5154.26
-5156.77
-5159.3
-5161.82
-5164.33
-5166.83
-5169.34
-5171.87
-5174.39
-5176.9
-5179.4
-5181.91
-5184.44
-5186.96
-5189.47
-5191.97
-5194.48
-5197.01
-5199.53
-5202.04
-5204.54
-5207.06
-5209.58
-5212.09
-5214.6
-5217.11
-5219.63
-5222.15
-5224.66
-5227.16
-5229.68
-5232.2
-5234.72
-5237.22
-5239.73
-5242.24
-5244.77
-5247.29
-5249.79
-5252.29
-5254.81
-5257.33
-5259.86
-5262.36
-5264.86
-5267.38
-5269.9
-5272.42
-5274.93
-5277.43
-5279.95
-5282.47
-5284.98
-5287.49
-5290
-5292.52
-5295.03
-5297.55
-5300.06
-5302.57
-5305.09
-5307.6
-5310.11
-5312.62
-5315.13
-5317.66
-5320.18
-5322.68
-5325.18
-5327.7
-5330.22
-5332.74
-5335.25
-5337.75
-5340.26
-5342.79
-5345.31
-5347.82
-5350.32
-5352.83
-5355.35
-5357.87
-5360.38
-5362.89
-5365.4
-5367.92
-5370.43
-5372.95
-5375.46
-5377.97
-5380.49
-5383
-5385.51
-5388.02
-5390.54
-5393.06
-5395.57
-5398.07
-5400.58
-5403.1
-5405.63
-5408.14
-5410.64
-5413.15
-5415.67
-5418.19
-5420.71
-5423.21
-5425.71
-5428.23
-5430.75
-5433.27
-5435.78
-5438.29
-5440.8
-5443.32
-5445.83
-5448.35
-5450.86
-5453.37
-5455.88
-5458.4
-5460.91
-5463.42
-5465.94
-5468.46
-5470.96
-5473.47
-5475.99
-5478.51
-5481.03
-5483.53
-5486.04
-5488.55
-5491.07
-5493.6
-5496.11
-5498.61
-5501.12
-5503.63
-5506.16
-5508.67
-5511.18
-5513.69
-5516.2
-5518.72
-5521.24
-5523.75
-5526.26
-5528.77
-5531.29
-5533.8
-5536.31
-5538.83
-5541.35
-5543.86
-5546.37
-5548.88
-5551.39
-5553.92
-5556.43
-5558.94
-5561.44
-5563.96
-5566.48
-5569
-5571.52
-5574.02
-5576.53
-5579.04
-5581.57
-5584.09
-5586.6
-5589.1
-5591.61
-5594.13
-5596.65
-5599.16
-5601.68
-5604.19
-5606.7
-5609.21
-5611.73
-5614.25
-5616.76
-5619.28
-5621.79
-5624.3
-5626.81
-5629.33
-5631.85
-5634.36
-5636.87
-5639.38
-5641.9
-5644.42
-5646.94
-5649.45
-5651.95
-5654.47
-5656.99
-5659.51
-5662.02
-5664.53
-5667.04
-5669.56
-5672.08
-5674.59
-5677.11
-5679.62
-5682.14
-5684.65
-5687.16
-5689.68
-5692.2
-5694.71
-5697.23
-5699.74
-5702.25
-5704.77
-5707.29
-5709.81
-5712.32
-5714.82
-5717.34
-5719.86
-5722.38
-5724.9
-5727.41
-5729.92
-5732.43
-5734.95
-5737.47
-5739.99
-5742.5
-5745.01
-5747.53
-5750.05
-5752.56
-5755.08
-5757.59
-5760.11
-5762.62
-5765.14
-5767.65
-5770.17
-5772.69
-5775.2
-5777.71
-5780.23
-5782.75
-5785.27
-5787.79
-5790.3
-5792.81
-5795.33
-5797.85
-5800.37
-5802.89
-5805.4
-5807.91
-5810.43
-5812.95
-5815.47
-5817.98
-5820.5
-5823.02
-5825.53
-5828.05
-5830.57
-5833.08
-5835.6
-5838.12
-5840.63
-5843.15
-5845.67
-5848.19
-5850.71
-5853.22
-5855.74
-5858.25
-5860.77
-5863.3
-5865.81
-5868.33
-5870.84
-5873.36
-5875.88
-5878.4
-5880.92
-5883.44
-5885.95
-5888.47
-5890.99
-5893.51
-5896.03
-5898.54
-5901.06
-5903.58
-5906.1
-5908.61
-5911.14
-5913.66
-5916.18
-5918.69
-5921.21
-5923.73
-5926.25
-5928.77
-5931.29
-5933.81
-5936.32
-5938.84
-5941.37
-5943.89
-5946.41
-5948.93
-5951.44
-5953.96
-5956.49
-5959.01
-5961.53
-5964.04
-5966.57
-5969.09
-5971.61
-5974.13
-5976.65
-5979.17
-5981.69
-5984.21
-5986.73
-5989.25
-5991.77
-5994.29
-5996.82
-5999.34
-6001.85
-6004.37
-6006.9
-6009.42
-6011.94
-6014.46
-6016.98
-6019.51
-6022.03
-6024.55
-6027.07
-6029.59
-6032.12
-6034.64
-6037.16
-6039.68
-6042.2
-6044.73
-6047.25
-6049.78
-6052.3
-6054.82
-6057.34
-6059.87
-6062.39
-6064.92
-6067.44
-6069.96
-6072.48
-6075.01
-6077.53
-6080.06
-6082.58
-6085.11
-6087.63
-6090.15
-6092.68
-6095.2
-6097.73
-6100.26
-6102.78
-6105.3
-6107.83
-6110.35
-6112.88
-6115.41
-6117.93
-6120.46
-6122.98
-6125.51
-6128.03
-6130.56
-6133.09
-6135.61
-6138.14
-6140.66
-6143.19
-6145.72
-6148.25
-6150.77
-6153.3
-6155.83
-6158.35
-6160.88
-6163.41
-6165.94
-6168.47
-6171
-6173.52
-6176.05
-6178.58
-6181.11
-6183.64
-6186.17
-6188.69
-6191.22
-6193.75
-6196.28
-6198.81
-6201.34
-6203.87
-6206.4
-6208.93
-6211.46
-6213.99
-6216.52
-6219.05
-6221.59
-6224.11
-6226.64
-6229.17
-6231.71
-6234.24
-6236.77
-6239.3
-6241.83
-6244.36
-6246.9
-6249.43
-6251.97
-6254.5
-6257.03
-6259.56
-6262.09
-6264.63
-6267.16
-6269.7
-6272.23
-6274.76
-6277.29
-6279.83
-6282.36
-6284.9
-6287.44
-6289.97
-6292.5
-6295.04
-6297.57
-6300.11
-6302.65
-6305.19
-6307.72
-6310.25
-6312.79
-6315.32
-6317.86
-6320.4
-6322.94
-6325.48
-6328.01
-6330.55
-6333.09
-6335.63
-6338.17
-6340.71
-6343.24
-6345.78
-6348.32
-6350.86
-6353.4
-6355.94
-6358.48
-6361.02
-6363.56
-6366.1
-6368.64
-6371.18
-6373.73
-6376.27
-6378.81
-6381.34
-6383.88
-6386.43
-6388.97
-6391.52
-6394.06
-6396.6
-6399.14
-6401.68
-6404.23
-6406.78
-6409.32
-6411.87
-6414.41
-6416.95
-6419.49
-6422.04
-6424.59
-6427.14
-6429.68
-6432.23
-6434.77
-6437.31
-6439.86
-6442.41
-6444.96
-6447.51
-6450.05
-6452.6
-6455.15
-6457.7
-6460.25
-6462.8
-6465.35
-6467.9
-6470.44
-6472.99
-6475.55
-6478.1
-6480.65
-6483.2
-6485.75
-6488.3
-6490.85
-6493.4
-6495.96
-6498.51
-6501.07
-6503.62
-6506.17
-6508.72
-6511.28
-6513.84
-6516.39
-6518.94
-6521.5
-6524.05
-6526.61
-6529.17
-6531.72
-6534.28
-6536.84
-6539.39
-6541.95
-6544.51
-6547.07
-6549.63
-6552.19
-6554.75
-6557.3
-6559.86
-6562.42
-6564.98
-6567.55
-6570.11
-6572.67
-6575.23
-6577.79
-6580.35
-6582.91
-6585.48
-6588.05
-6590.61
-6593.17
-6595.73
-6598.3
-6600.86
-6603.43
-6606
-6608.56
-6611.13
-6613.69
-6616.26
-6618.83
-6621.4
-6623.97
-6626.54
-6629.11
-6631.67
-6634.24
-6636.81
-6639.39
-6641.96
-6644.53
-6647.1
-6649.67
-6652.24
-6654.82
-6657.39
-6659.97
-6662.54
-6665.11
-6667.69
-6670.26
-6672.84
-6675.42
-6677.99
-6680.57
-6683.15
-6685.72
-6688.3
-6690.88
-6693.46
-6696.04
-6698.62
-6701.2
-6703.78
-6706.36
-6708.94
-6711.53
-6714.11
-6716.7
-6719.28
-6721.86
-6724.44
-6727.03
-6729.62
-6732.2
-6734.79
-6737.38
-6739.96
-6742.55
-6745.14
-6747.73
-6750.32
-6752.91
-6755.5
-6758.09
-6760.68
-6763.27
-6765.86
-6768.46
-6771.05
-6773.65
-6776.24
-6778.83
-6781.43
-6784.03
-6786.62
-6789.22
-6791.82
-6794.42
-6797.02
-6799.61
-6802.21
-6804.82
-6807.42
-6810.02
-6812.62
-6815.22
-6817.83
-6820.43
-6823.04
-6825.64
-6828.25
-6830.85
-6833.46
-6836.07
-6838.67
-6841.28
-6843.89
-6846.51
-6849.12
-6851.73
-6854.34
-6856.95
-6859.56
-6862.18
-6864.79
-6867.41
-6870.02
-6872.64
-6875.25
-6877.87
-6880.49
-6883.11
-6885.73
-6888.35
-6890.97
-6893.59
-6896.21
-6898.84
-6901.46
-6904.09
-6906.72
-6909.34
-6911.97
-6914.59
-6917.22
-6919.85
-6922.48
-6925.11
-6927.75
-6930.38
-6933.01
-6935.64
-6938.28
-6940.91
-6943.55
-6946.19
-6948.82
-6951.46
-6954.1
-6956.74
-6959.38
-6962.02
-6964.67
-6967.31
-6969.95
-6972.59
-6975.24
-6977.89
-6980.54
-6983.18
-6985.83
-6988.48
-6991.13
-6993.78
-6996.44
-6999.09
-7001.75
-7004.4
-7007.06
-7009.71
-7012.37
-7015.03
-7017.69
-7020.35
-7023.01
-7025.68
-7028.34
-7031
-7033.67
-7036.33
-7039
-7041.67
-7044.34
-7047.01
-7049.68
-7052.36
-7055.03
-7057.7
-7060.38
-7063.06
-7065.74
-7068.41
-7071.09
-7073.77
-7076.46
-7079.14
-7081.82
-7084.51
-7087.2
-7089.88
-7092.57
-7095.26
-7097.95
-7100.64
-7103.34
-7106.03
-7108.73
-7111.42
-7114.12
-7116.82
-7119.52
-7122.22
-7124.93
-7127.63
-7130.33
-7133.04
-7135.75
-7138.46
-7141.17
-7143.88
-7146.59
-7149.31
-7152.02
-7154.74
-7157.45
-7160.17
-7162.89
-7165.62
-7168.34
-7171.06
-7173.79
-7176.52
-7179.24
-7181.97
-7184.71
-7187.44
-7190.17
-7192.91
-7195.65
-7198.38
-7201.12
-7203.86
-7206.61
-7209.35
-7212.1
-7214.85
-7217.59
-7220.34
-7223.1
-7225.85
-7228.6
-7231.36
-7234.12
-7236.88
-7239.64
-7242.4
-7245.17
-7247.94
-7250.7
-7253.47
-7256.24
-7259.02
-7261.79
-7264.57
-7267.35
-7270.13
-7272.91
-7275.69
-7278.47
-7281.26
-7284.05
-7286.84
-7289.63
-7292.43
-7295.22
-7298.02
-7300.82
-7303.62
-7306.42
-7309.23
-7312.04
-7314.85
-7317.66
-7320.47
-7323.28
-7326.1
-7328.92
-7331.74
-7334.56
-7337.39
-7340.21
-7343.04
-7345.87
-7348.71
-7351.54
-7354.38
-7357.22
-7360.06
-7362.9
-7365.75
-7368.6
-7371.45
-7374.3
-7377.16
-7380.01
-7382.87
-7385.73
-7388.6
-7391.46
-7394.33
-7397.21
-7400.08
-7402.95
-7405.83
-7408.71
-7411.59
-7414.48
-7417.37
-7420.26
-7423.15
-7426.05
-7428.94
-7431.84
-7434.74
-7437.65
-7440.56
-7443.47
-7446.39
-7449.31
-7452.22
-7455.14
-7458.06
-7460.99
-7463.92
-7466.86
-7469.8
-7472.73
-7475.67
-7478.62
-7481.56
-7484.51
-7487.46
-7490.42
-7493.38
-7496.35
-7499.31
-7502.27
-7505.24
-7508.22
-7511.19
-7514.18
-7517.16
-7520.15
-7523.14
-7526.13
-7529.12
-7532.12
-7535.12
-7538.13
-7541.14
-7544.16
-7547.17
-7550.19
-7553.21
-7556.24
-7559.27
-7562.3
-7565.34
-7568.38
-7571.43
-7574.47
-7577.52
-7580.58
-7583.64
-7586.7
-7589.77
-7592.84
-7595.91
-7598.99
-7602.07
-7605.16
-7608.25
-7611.34
-7614.44
-7617.54
-7620.65
-7623.76
-7626.87
-7629.98
-7633.11
-7636.23
-7639.37
-7642.5
-7645.64
-7648.79
-7651.93
-7655.08
-7658.24
-7661.4
-7664.57
-7667.74
-7670.92
-7674.1
-7677.28
-7680.46
-7683.66
-7686.86
-7690.06
-7693.27
-7696.48
-7699.7
-7702.92
-7706.15
-7709.38
-7712.62
-7715.86
-7719.11
-7722.37
-7725.63
-7728.89
-7732.15
-7735.43
-7738.71
-7741.99
-7745.29
-7748.58
-7751.89
-7755.19
-7758.5
-7761.82
-7765.14
-7768.48
-7771.81
-7775.16
-7778.51
-7781.86
-7785.22
-7788.58
-7791.95
-7795.33
-7798.72
-7802.11
-7805.51
-7808.92
-7812.33
-7815.74
-7819.16
-7822.59
-7826.03
-7829.48
-7832.93
-7836.39
-7839.86
-7843.33
-7846.81
-7850.29
-7853.79
-7857.29
-7860.8
-7864.32
-7867.85
-7871.38
-7874.92
-7878.47
-7882.03
-7885.6
-7889.18
-7892.76
-7896.36
-7899.96
-7903.58
-7907.2
-7911.16
-7912.07
-7915.15
-7919.06
-7924.41
-7926.07
-7931.45
-7934.76
-7938.86
-7942.6
-7946.33
-7950.16
-7953.8
-7957.62
-7961.28
-7965.06
-7968.77
-7972.53
-7976.27
-7980.03
-7983.8
-7987.58
-7991.36
-7995.15
-7998.95
-8002.76
-8006.58
-8010.41
-8014.25
-8018.1
-8021.96
-8025.83
-8029.71
-8033.59
-8037.49
-8041.39
-8045.31
-8049.24
-8053.18
-8057.13
-8061.08
-8065.05
-8069.03
-8073.02
-8077.01
-8081.02
-8085.04
-8089.08
-8093.12
-8097.17
-8101.23
-8105.31
-8109.39
-8113.49
-8117.6
-8121.72
-8125.85
-8129.99
-8134.15
-8138.31
-8142.49
-8146.68
-8150.88
-8155.09
-8159.32
-8163.56
-8167.8
-8172.06
-8176.34
-8180.62
-8184.92
-8189.23
-8193.56
-8197.89
-8202.24
-8206.6
-8210.98
-8215.36
-8219.76
-8224.18
-8228.61
-8233.05
-8237.5
-8241.97
-8246.45
-8250.94
-8255.45
-8259.98
-8264.51
-8269.06
-8273.63
-8278.2
-8282.8
-8287.4
-8292.03
-8296.66
-8301.31
-8305.98
-8310.66
-8315.35
-8320.06
-8324.79
-8329.53
-8334.28
-8339.05
-8343.84
-8348.64
-8353.46
-8358.29
-8363.14
-8368
-8372.88
-8377.77
-8382.68
-8387.61
-8392.55
-8397.51
-8402.49
-8407.48
-8412.49
-8417.52
-8422.56
-8427.62
-8432.69
-8437.79
-8442.9
-8448.02
-8453.17
-8458.33
-8463.5
-8468.7
-8473.91
-8479.14
-8484.39
-8489.65
-8494.93
-8500.23
-8505.55
-8510.89
-8516.24
-8521.61
-8527
-8532.41
-8537.83
-8543.28
-8548.74
-8554.22
-8559.72
-8565.23
-8570.77
-8576.32
-8581.89
-8587.48
-8593.09
-8598.72
-8604.37
-8610.03
-8615.72
-8621.42
-8627.14
-8632.88
-8638.64
-8644.42
-8650.21
-8656.03
-8661.86
-8667.72
-8673.59
-8679.48
-8685.39
-8691.32
-8697.27
-8703.23
-8709.22
-8715.23
-8721.25
-8727.29
-8733.36
-8739.44
-8745.53
-8751.65
-8757.79
-8763.95
-8770.12
-8776.32
-8782.53
-8788.76
-8795.01
-8801.28
-8807.56
-8813.87
-8820.19
-8826.53
-8832.89
-8839.28
-8845.67
-8852.08
-8858.51
-8864.96
-8871.43
-8877.91
-8884.42
-8890.94
-8897.48
-8904.04
-8910.61
-8917.19
-8923.8
-8930.42
-8937.06
-8943.72
-8950.39
-8957.08
-8963.79
-8970.5
-8977.24
-8983.99
-8990.75
-8997.53
-9004.33
-9011.14
-9017.97
-9024.81
-9031.67
-9038.53
-9045.41
-9052.3
-9059.21
-9066.13
-9073.07
-9080.01
-9086.98
-9093.94
-9100.93
-9107.92
-9114.92
-9121.93
-9128.96
-9136
-9143.05
-9150.1
-9157.17
-9164.24
-9171.32
-9178.41
-9185.5
-9192.61
-9199.73
-9206.85
-9213.98