/*--------------------------------*- C++ -*----------------------------------*\
  =========                 |
  \\      /  F ield         | OpenFOAM: The Open Source CFD Toolbox
   \\    /   O peration     | Website:  https://openfoam.org
    \\  /    A nd           | Version:  9
     \\/     M anipulation  |
\*---------------------------------------------------------------------------*/
FoamFile
{
    format      ascii;
    class       surfaceScalarField;
    location    "0.035";
    object      phi;
}
// * * * * * * * * * * * * * * * * * * * * * * * * * * * * * * * * * * * * * //

dimensions      [1 0 -1 0 0 0 0];

internalField   nonuniform List<scalar> 
9999
(
6.59651
6.63278
6.66904
6.70531
6.74157
6.77783
6.81409
6.85035
6.88661
6.92287
6.95912
6.99538
7.03163
7.06788
7.10413
7.14038
7.17663
7.21287
7.24912
7.28536
7.3216
7.35784
7.39408
7.43032
7.46656
7.50279
7.53902
7.57526
7.61149
7.64772
7.68395
7.72017
7.7564
7.79262
7.82885
7.86507
7.90129
7.93751
7.97372
8.00994
8.04615
8.08237
8.11859
8.1548
8.19101
8.22722
8.26342
8.29962
8.33583
8.37204
8.40824
8.44445
8.48065
8.51684
8.55304
8.58923
8.62542
8.66161
8.69781
8.73401
8.7702
8.80639
8.84258
8.87876
8.91494
8.95111
8.9873
9.02348
9.05967
9.09585
9.13204
9.16822
9.2044
9.24056
9.27673
9.31289
9.34905
9.38522
9.42139
9.45756
9.49374
9.52992
9.56609
9.60226
9.63843
9.67458
9.71073
9.74688
9.78302
9.81916
9.8553
9.89145
9.92761
9.96377
9.99994
10.0361
10.0723
10.1085
10.1446
10.1808
10.2169
10.2531
10.2892
10.3253
10.3614
10.3976
10.4337
10.4698
10.5059
10.542
10.5781
10.6142
10.6504
10.6865
10.7227
10.7589
10.795
10.8312
10.8674
10.9037
10.9399
10.9761
11.0124
11.0486
11.0849
11.1211
11.1574
11.1937
11.2299
11.2662
11.3024
11.3387
11.375
11.4113
11.4475
11.4838
11.5201
11.5564
11.5927
11.6289
11.6652
11.7015
11.7378
11.7741
11.8103
11.8466
11.8829
11.9192
11.9554
11.9917
12.028
12.0643
12.1005
12.1368
12.1731
12.2094
12.2456
12.2819
12.3182
12.3545
12.3907
12.427
12.4633
12.4996
12.5358
12.5721
12.6084
12.6447
12.6809
12.7172
12.7535
12.7897
12.826
12.8623
12.8986
12.9348
12.9711
13.0074
13.0436
13.0799
13.1162
13.1524
13.1887
13.225
13.2613
13.2975
13.3338
13.3701
13.4063
13.4426
13.4789
13.5151
13.5514
13.5877
13.6239
13.6602
13.6965
13.7327
13.769
13.8053
13.8415
13.8778
13.914
13.9503
13.9866
14.0228
14.0591
14.0954
14.1316
14.1679
14.2041
14.2404
14.2767
14.3129
14.3492
14.3855
14.4217
14.458
14.4942
14.5305
14.5668
14.603
14.6393
14.6755
14.7118
14.7481
14.7843
14.8206
14.8568
14.8931
14.9293
14.9656
15.0019
15.0381
15.0744
15.1106
15.1469
15.1831
15.2194
15.2556
15.2919
15.3282
15.3644
15.4007
15.4369
15.4732
15.5094
15.5457
15.5819
15.6182
15.6544
15.6907
15.7269
15.7632
15.7994
15.8357
15.872
15.9082
15.9445
15.9807
16.017
16.0532
16.0895
16.1257
16.162
16.1982
16.2344
16.2707
16.3069
16.3432
16.3794
16.4157
16.4519
16.4882
16.5244
16.5607
16.5969
16.6332
16.6694
16.7057
16.7419
16.7781
16.8144
16.8506
16.8869
16.9231
16.9594
16.9956
17.0319
17.0681
17.1043
17.1406
17.1768
17.2131
17.2493
17.2855
17.3218
17.358
17.3943
17.4305
17.4668
17.503
17.5392
17.5755
17.6117
17.6479
17.6842
17.7204
17.7567
17.7929
17.8291
17.8654
17.9016
17.9378
17.9741
18.0103
18.0466
18.0828
18.119
18.1553
18.1915
18.2277
18.264
18.3002
18.3364
18.3727
18.4089
18.4451
18.4814
18.5176
18.5538
18.5901
18.6263
18.6625
18.6988
18.735
18.7712
18.8075
18.8437
18.8799
18.9161
18.9524
18.9886
19.0248
19.0611
19.0973
19.1335
19.1697
19.206
19.2422
19.2784
19.3147
19.3509
19.3871
19.4233
19.4596
19.4958
19.532
19.5682
19.6045
19.6407
19.6769
19.7131
19.7494
19.7856
19.8218
19.858
19.8943
19.9305
19.9667
20.0029
20.0391
20.0754
20.1116
20.1478
20.184
20.2202
20.2565
20.2927
20.3289
20.3651
20.4013
20.4376
20.4738
20.51
20.5462
20.5824
20.6187
20.6549
20.6911
20.7273
20.7635
20.7997
20.8359
20.8722
20.9084
20.9446
20.9808
21.017
21.0532
21.0895
21.1257
21.1619
21.1981
21.2343
21.2705
21.3067
21.3429
21.3792
21.4154
21.4516
21.4878
21.524
21.5602
21.5964
21.6326
21.6688
21.705
21.7413
21.7775
21.8137
21.8499
21.8861
21.9223
21.9585
21.9947
22.0309
22.0671
22.1033
22.1395
22.1757
22.212
22.2482
22.2844
22.3206
22.3568
22.393
22.4292
22.4654
22.5016
22.5378
22.574
22.6102
22.6464
22.6826
22.7188
22.755
22.7912
22.8274
22.8636
22.8998
22.936
22.9722
23.0084
23.0446
23.0808
23.117
23.1532
23.1894
23.2256
23.2618
23.298
23.3342
23.3704
23.4066
23.4428
23.479
23.5152
23.5514
23.5876
23.6238
23.66
23.6961
23.7323
23.7685
23.8047
23.8409
23.8771
23.9133
23.9495
23.9857
24.0219
24.0581
24.0943
24.1305
24.1666
24.2028
24.239
24.2752
24.3114
24.3476
24.3838
24.42
24.4562
24.4923
24.5285
24.5647
24.6009
24.6371
24.6733
24.7095
24.7457
24.7818
24.818
24.8542
24.8904
24.9266
24.9628
24.999
25.0351
25.0713
25.1075
25.1437
25.1799
25.2161
25.2522
25.2884
25.3246
25.3608
25.397
25.4331
25.4693
25.5055
25.5417
25.5779
25.614
25.6502
25.6864
25.7226
25.7588
25.7949
25.8311
25.8673
25.9035
25.9396
25.9758
26.012
26.0482
26.0843
26.1205
26.1567
26.1929
26.229
26.2652
26.3014
26.3376
26.3737
26.4099
26.4461
26.4823
26.5184
26.5546
26.5908
26.6269
26.6631
26.6993
26.7355
26.7716
26.8078
26.844
26.8801
26.9163
26.9525
26.9886
27.0248
27.061
27.0971
27.1333
27.1695
27.2056
27.2418
27.278
27.3141
27.3503
27.3865
27.4226
27.4588
27.495
27.5311
27.5673
27.6035
27.6396
27.6758
27.7119
27.7481
27.7843
27.8204
27.8566
27.8927
27.9289
27.9651
28.0012
28.0374
28.0735
28.1097
28.1459
28.182
28.2182
28.2543
28.2905
28.3267
28.3628
28.399
28.4351
28.4713
28.5074
28.5436
28.5797
28.6159
28.6521
28.6882
28.7244
28.7605
28.7967
28.8328
28.869
28.9051
28.9413
28.9774
29.0136
29.0497
29.0859
29.122
29.1582
29.1943
29.2305
29.2666
29.3028
29.3389
29.3751
29.4112
29.4474
29.4835
29.5197
29.5558
29.592
29.6281
29.6643
29.7004
29.7365
29.7727
29.8088
29.845
29.8811
29.9173
29.9534
29.9896
30.0257
30.0618
30.098
30.1341
30.1703
30.2064
30.2426
30.2787
30.3148
30.351
30.3871
30.4233
30.4594
30.4955
30.5317
30.5678
30.6039
30.6401
30.6762
30.7124
30.7485
30.7846
30.8208
30.8569
30.893
30.9292
30.9653
31.0014
31.0376
31.0737
31.1098
31.146
31.1821
31.2182
31.2544
31.2905
31.3266
31.3628
31.3989
31.435
31.4712
31.5073
31.5434
31.5796
31.6157
31.6518
31.6879
31.7241
31.7602
31.7963
31.8325
31.8686
31.9047
31.9408
31.977
32.0131
32.0492
32.0853
32.1215
32.1576
32.1937
32.2298
32.266
32.3021
32.3382
32.3743
32.4105
32.4466
32.4827
32.5188
32.5549
32.5911
32.6272
32.6633
32.6994
32.7355
32.7717
32.8078
32.8439
32.88
32.9161
32.9523
32.9884
33.0245
33.0606
33.0967
33.1328
33.169
33.2051
33.2412
33.2773
33.3134
33.3495
33.3856
33.4218
33.4579
33.494
33.5301
33.5662
33.6023
33.6384
33.6745
33.7107
33.7468
33.7829
33.819
33.8551
33.8912
33.9273
33.9634
33.9995
34.0356
34.0717
34.1079
34.144
34.1801
34.2162
34.2523
34.2884
34.3245
34.3606
34.3967
34.4328
34.4689
34.505
34.5411
34.5772
34.6133
34.6494
34.6855
34.7216
34.7577
34.7938
34.8299
34.866
34.9021
34.9382
34.9743
35.0104
35.0465
35.0826
35.1187
35.1548
35.1909
35.227
35.2631
35.2992
35.3353
35.3714
35.4075
35.4436
35.4797
35.5158
35.5519
35.588
35.6241
35.6601
35.6963
35.7323
35.7684
35.8045
35.8406
35.8767
35.9128
35.9489
35.985
36.0211
36.0572
36.0932
36.1293
36.1654
36.2015
36.2376
36.2737
36.3098
36.3459
36.3819
36.418
36.4541
36.4902
36.5263
36.5624
36.5985
36.6346
36.6706
36.7067
36.7428
36.7789
36.815
36.851
36.8871
36.9232
36.9593
36.9954
37.0314
37.0675
37.1036
37.1397
37.1758
37.2118
37.2479
37.284
37.3201
37.3562
37.3922
37.4283
37.4644
37.5005
37.5365
37.5726
37.6087
37.6448
37.6808
37.7169
37.753
37.7891
37.8251
37.8612
37.8973
37.9333
37.9694
38.0055
38.0416
38.0776
38.1137
38.1498
38.1858
38.2219
38.258
38.294
38.3301
38.3662
38.4022
38.4383
38.4744
38.5104
38.5465
38.5826
38.6186
38.6547
38.6908
38.7268
38.7629
38.799
38.835
38.8711
38.9072
38.9432
38.9793
39.0153
39.0514
39.0875
39.1235
39.1596
39.1956
39.2317
39.2678
39.3038
39.3399
39.376
39.412
39.4481
39.4841
39.5202
39.5562
39.5923
39.6283
39.6644
39.7005
39.7365
39.7726
39.8086
39.8447
39.8807
39.9168
39.9528
39.9889
40.0249
40.061
40.097
40.1331
40.1691
40.2052
40.2412
40.2773
40.3133
40.3494
40.3854
40.4215
40.4575
40.4936
40.5296
40.5657
40.6017
40.6378
40.6738
40.7099
40.7459
40.7819
40.818
40.854
40.8901
40.9261
40.9622
40.9982
41.0342
41.0703
41.1063
41.1424
41.1784
41.2145
41.2505
41.2865
41.3226
41.3586
41.3946
41.4307
41.4667
41.5027
41.5388
41.5748
41.6109
41.6469
41.6829
41.719
41.755
41.791
41.8271
41.8631
41.8991
41.9352
41.9712
42.0072
42.0433
42.0793
42.1153
42.1514
42.1874
42.2234
42.2594
42.2955
42.3315
42.3675
42.4036
42.4396
42.4756
42.5117
42.5477
42.5837
42.6197
42.6558
42.6918
42.7278
42.7638
42.7999
42.8359
42.8719
42.9079
42.944
42.98
43.016
43.052
43.088
43.1241
43.1601
43.1961
43.2321
43.2681
43.3042
43.3402
43.3762
43.4122
43.4482
43.4843
43.5203
43.5563
43.5923
43.6283
43.6643
43.7003
43.7364
43.7724
43.8084
43.8444
43.8804
43.9164
43.9525
43.9885
44.0245
44.0605
44.0965
44.1325
44.1685
44.2045
44.2405
44.2765
44.3126
44.3485
44.3846
44.4206
44.4566
44.4926
44.5286
44.5646
44.6006
44.6366
44.6726
44.7086
44.7446
44.7806
44.8166
44.8526
44.8886
44.9246
44.9606
44.9966
45.0326
45.0686
45.1047
45.1406
45.1766
45.2127
45.2486
45.2846
45.3207
45.3566
45.3926
45.4286
45.4646
45.5006
45.5366
45.5726
45.6086
45.6446
45.6806
45.7166
45.7526
45.7886
45.8246
45.8606
45.8966
45.9325
45.9685
46.0045
46.0405
46.0765
46.1125
46.1485
46.1845
46.2205
46.2565
46.2924
46.3284
46.3644
46.4004
46.4364
46.4724
46.5084
46.5443
46.5803
46.6163
46.6523
46.6883
46.7243
46.7603
46.7962
46.8322
46.8682
46.9042
46.9402
46.9762
47.0121
47.0481
47.0841
47.1201
47.156
47.192
47.228
47.264
47.3
47.3359
47.3719
47.4079
47.4439
47.4798
47.5158
47.5518
47.5878
47.6237
47.6597
47.6957
47.7316
47.7676
47.8036
47.8396
47.8755
47.9115
47.9475
47.9834
48.0194
48.0554
48.0914
48.1273
48.1633
48.1993
48.2352
48.2712
48.3072
48.3431
48.3791
48.4151
48.451
48.487
48.523
48.5589
48.5949
48.6309
48.6668
48.7028
48.7387
48.7747
48.8106
48.8466
48.8826
48.9185
48.9545
48.9905
49.0264
49.0624
49.0983
49.1343
49.1702
49.2062
49.2422
49.2781
49.3141
49.35
49.386
49.4219
49.4579
49.4938
49.5298
49.5657
49.6017
49.6376
49.6736
49.7095
49.7455
49.7814
49.8174
49.8534
49.8893
49.9252
49.9612
49.9971
50.0331
50.069
50.105
50.1409
50.1769
50.2128
50.2488
50.2847
50.3206
50.3566
50.3925
50.4285
50.4644
50.5004
50.5363
50.5722
50.6082
50.6441
50.6801
50.716
50.752
50.7879
50.8238
50.8598
50.8957
50.9316
50.9676
51.0035
51.0394
51.0754
51.1113
51.1473
51.1832
51.2191
51.2551
51.291
51.3269
51.3629
51.3988
51.4347
51.4706
51.5066
51.5425
51.5784
51.6144
51.6503
51.6862
51.7222
51.7581
51.794
51.8299
51.8659
51.9018
51.9377
51.9736
52.0096
52.0455
52.0814
52.1173
52.1533
52.1892
52.2251
52.261
52.297
52.3329
52.3688
52.4047
52.4406
52.4765
52.5125
52.5484
52.5843
52.6202
52.6562
52.6921
52.728
52.7639
52.7998
52.8357
52.8716
52.9076
52.9435
52.9794
53.0153
53.0512
53.0871
53.123
53.1589
53.1949
53.2308
53.2667
53.3026
53.3385
53.3744
53.4103
53.4462
53.4821
53.518
53.554
53.5899
53.6258
53.6617
53.6976
53.7335
53.7694
53.8053
53.8412
53.8771
53.913
53.9489
53.9848
54.0207
54.0566
54.0925
54.1284
54.1643
54.2002
54.2361
54.272
54.3079
54.3438
54.3797
54.4156
54.4515
54.4874
54.5233
54.5592
54.5951
54.631
54.6669
54.7027
54.7386
54.7745
54.8104
54.8463
54.8822
54.9181
54.954
54.9899
55.0258
55.0617
55.0975
55.1334
55.1693
55.2052
55.2411
55.277
55.3129
55.3488
55.3846
55.4205
55.4564
55.4923
55.5282
55.5641
55.6
55.6358
55.6717
55.7076
55.7435
55.7794
55.8152
55.8511
55.887
55.9229
55.9588
55.9946
56.0305
56.0664
56.1023
56.1381
56.174
56.2099
56.2458
56.2816
56.3175
56.3534
56.3893
56.4251
56.461
56.4969
56.5328
56.5686
56.6045
56.6404
56.6762
56.7121
56.748
56.7838
56.8197
56.8556
56.8914
56.9273
56.9632
56.999
57.0349
57.0708
57.1066
57.1425
57.1784
57.2142
57.2501
57.286
57.3218
57.3577
57.3935
57.4294
57.4653
57.5011
57.537
57.5728
57.6087
57.6446
57.6804
57.7163
57.7521
57.788
57.8238
57.8597
57.8956
57.9314
57.9673
58.0031
58.039
58.0748
58.1107
58.1465
58.1824
58.2182
58.2541
58.2899
58.3258
58.3616
58.3975
58.4333
58.4692
58.505
58.5409
58.5767
58.6126
58.6484
58.6842
58.7201
58.7559
58.7918
58.8276
58.8635
58.8993
58.9351
58.971
59.0068
59.0427
59.0785
59.1144
59.1502
59.186
59.2219
59.2577
59.2935
59.3294
59.3652
59.4011
59.4369
59.4727
59.5086
59.5444
59.5802
59.6161
59.6519
59.6877
59.7236
59.7594
59.7952
59.8311
59.8669
59.9027
59.9385
59.9744
60.0102
60.046
60.0819
60.1177
60.1535
60.1893
60.2252
60.261
60.2968
60.3326
60.3685
60.4043
60.4401
60.4759
60.5117
60.5476
60.5834
60.6192
60.655
60.6909
60.7267
60.7625
60.7983
60.8341
60.8699
60.9058
60.9416
60.9774
61.0132
61.049
61.0848
61.1207
61.1565
61.1923
61.2281
61.2639
61.2997
61.3355
61.3713
61.4071
61.443
61.4788
61.5146
61.5504
61.5862
61.622
61.6578
61.6936
61.7294
61.7652
61.801
61.8368
61.8726
61.9084
61.9442
61.9801
62.0159
62.0517
62.0875
62.1233
62.1591
62.1949
62.2307
62.2665
62.3023
62.3381
62.3739
62.4096
62.4454
62.4812
62.517
62.5528
62.5886
62.6244
62.6602
62.696
62.7318
62.7676
62.8034
62.8392
62.875
62.9108
62.9466
62.9823
63.0181
63.0539
63.0897
63.1255
63.1613
63.1971
63.2329
63.2686
63.3044
63.3402
63.376
63.4118
63.4476
63.4834
63.5191
63.5549
63.5907
63.6265
63.6623
63.698
63.7338
63.7696
63.8054
63.8412
63.8769
63.9127
63.9485
63.9843
64.02
64.0558
64.0916
64.1274
64.1631
64.1989
64.2347
64.2705
64.3062
64.342
64.3778
64.4135
64.4493
64.4851
64.5209
64.5566
64.5924
64.6282
64.6639
64.6997
64.7355
64.7712
64.807
64.8427
64.8785
64.9143
64.95
64.9858
65.0216
65.0573
65.0931
65.1289
65.1646
65.2004
65.2361
65.2719
65.3076
65.3434
65.3792
65.4149
65.4507
65.4864
65.5222
65.5579
65.5937
65.6294
65.6652
65.701
65.7367
65.7725
65.8082
65.844
65.8797
65.9155
65.9512
65.987
66.0227
66.0585
66.0942
66.13
66.1657
66.2014
66.2372
66.2729
66.3087
66.3444
66.3802
66.4159
66.4517
66.4874
66.5231
66.5589
66.5946
66.6304
66.6661
66.7018
66.7376
66.7733
66.8091
66.8448
66.8805
66.9163
66.952
66.9877
67.0235
67.0592
67.0949
67.1307
67.1664
67.2021
67.2379
67.2736
67.3093
67.3451
67.3808
67.4165
67.4522
67.488
67.5237
67.5594
67.5952
67.6309
67.6666
67.7023
67.7381
67.7738
67.8095
67.8452
67.8809
67.9167
67.9524
67.9881
68.0238
68.0596
68.0953
68.131
68.1667
68.2024
68.2381
68.2739
68.3096
68.3453
68.381
68.4167
68.4524
68.4882
68.5239
68.5596
68.5953
68.631
68.6667
68.7024
68.7381
68.7738
68.8096
68.8453
68.881
68.9167
68.9524
68.9881
69.0238
69.0595
69.0952
69.1309
69.1666
69.2023
69.238
69.2737
69.3094
69.3451
69.3808
69.4165
69.4522
69.4879
69.5236
69.5593
69.595
69.6307
69.6664
69.7021
69.7378
69.7735
69.8092
69.8449
69.8806
69.9163
69.952
69.9877
70.0234
70.059
70.0947
70.1304
70.1661
70.2018
70.2375
70.2732
70.3089
70.3446
70.3802
70.4159
70.4516
70.4873
70.523
70.5587
70.5943
70.63
70.6657
70.7014
70.7371
70.7728
70.8084
70.8441
70.8798
70.9155
70.9512
70.9868
71.0225
71.0582
71.0939
71.1295
71.1652
71.2009
71.2366
71.2722
71.3079
71.3436
71.3792
71.4149
71.4506
71.4863
71.5219
71.5576
71.5933
71.6289
71.6646
71.7003
71.7359
71.7716
71.8073
71.8429
71.8786
71.9142
71.9499
71.9856
72.0212
72.0569
72.0926
72.1282
72.1639
72.1995
72.2352
72.2709
72.3065
72.3422
72.3778
72.4135
72.4491
72.4848
72.5204
72.5561
72.5917
72.6274
72.6631
72.6987
72.7344
72.77
72.8057
72.8413
72.877
72.9126
72.9482
72.9839
73.0195
73.0552
73.0908
73.1265
73.1621
73.1978
73.2334
73.2691
73.3047
73.3403
73.376
73.4116
73.4473
73.4829
73.5185
73.5542
73.5898
73.6254
73.6611
73.6967
73.7324
73.768
73.8036
73.8393
73.8749
73.9105
73.9462
73.9818
74.0174
74.053
74.0887
74.1243
74.1599
74.1956
74.2312
74.2668
74.3024
74.3381
74.3737
74.4093
74.4449
74.4806
74.5162
74.5518
74.5874
74.6231
74.6587
74.6943
74.7299
74.7655
74.8012
74.8368
74.8724
74.908
74.9436
74.9792
75.0149
75.0505
75.0861
75.1217
75.1573
75.1929
75.2285
75.2641
75.2998
75.3354
75.371
75.4066
75.4422
75.4778
75.5134
75.549
75.5846
75.6202
75.6558
75.6914
75.727
75.7626
75.7982
75.8338
75.8695
75.9051
75.9407
75.9763
76.0119
76.0475
76.083
76.1186
76.1542
76.1898
76.2254
76.261
76.2966
76.3322
76.3678
76.4034
76.439
76.4746
76.5102
76.5458
76.5814
76.6169
76.6525
76.6881
76.7237
76.7593
76.7949
76.8305
76.8661
76.9016
76.9372
76.9728
77.0084
77.044
77.0796
77.1151
77.1507
77.1863
77.2219
77.2575
77.293
77.3286
77.3642
77.3998
77.4353
77.4709
77.5065
77.5421
77.5776
77.6132
77.6488
77.6844
77.7199
77.7555
77.7911
77.8266
77.8622
77.8978
77.9333
77.9689
78.0045
78.04
78.0756
78.1112
78.1467
78.1823
78.2179
78.2534
78.289
78.3245
78.3601
78.3957
78.4312
78.4668
78.5023
78.5379
78.5735
78.609
78.6446
78.6801
78.7157
78.7512
78.7868
78.8223
78.8579
78.8934
78.929
78.9645
79.0001
79.0356
79.0712
79.1067
79.1423
79.1778
79.2134
79.2489
79.2845
79.32
79.3555
79.3911
79.4266
79.4622
79.4977
79.5333
79.5688
79.6043
79.6399
79.6754
79.7109
79.7465
79.782
79.8176
79.8531
79.8886
79.9242
79.9597
79.9952
80.0308
80.0663
80.1018
80.1373
80.1729
80.2084
80.2439
80.2795
80.315
80.3505
80.386
80.4216
80.4571
80.4926
80.5281
80.5637
80.5992
80.6347
80.6702
80.7057
80.7413
80.7768
80.8123
80.8478
80.8833
80.9188
80.9544
80.9899
81.0254
81.0609
81.0964
81.1319
81.1674
81.2029
81.2385
81.274
81.3095
81.345
81.3805
81.416
81.4515
81.487
81.5225
81.558
81.5935
81.629
81.6645
81.7
81.7355
81.771
81.8065
81.842
81.8775
81.913
81.9485
81.984
82.0195
82.055
82.0905
82.126
82.1615
82.197
82.2325
82.268
82.3035
82.339
82.3744
82.4099
82.4454
82.4809
82.5164
82.5519
82.5874
82.6228
82.6583
82.6938
82.7293
82.7648
82.8003
82.8357
82.8712
82.9067
82.9422
82.9777
83.0131
83.0486
83.0841
83.1196
83.155
83.1905
83.226
83.2615
83.2969
83.3324
83.3679
83.4034
83.4388
83.4743
83.5098
83.5452
83.5807
83.6162
83.6516
83.6871
83.7226
83.758
83.7935
83.8289
83.8644
83.8999
83.9353
83.9708
84.0062
84.0417
84.0772
84.1126
84.1481
84.1835
84.219
84.2544
84.2899
84.3253
84.3608
84.3962
84.4317
84.4672
84.5026
84.538
84.5735
84.6089
84.6444
84.6798
84.7153
84.7507
84.7862
84.8216
84.8571
84.8925
84.9279
84.9634
84.9988
85.0343
85.0697
85.1051
85.1406
85.176
85.2114
85.2469
85.2823
85.3177
85.3532
85.3886
85.424
85.4595
85.4949
85.5303
85.5658
85.6012
85.6366
85.672
85.7075
85.7429
85.7783
85.8137
85.8492
85.8846
85.92
85.9554
85.9908
86.0263
86.0617
86.0971
86.1325
86.1679
86.2034
86.2388
86.2742
86.3096
86.345
86.3804
86.4158
86.4512
86.4867
86.5221
86.5575
86.5929
86.6283
86.6637
86.6991
86.7345
86.7699
86.8053
86.8407
86.8761
86.9115
86.9469
86.9823
87.0177
87.0531
87.0885
87.1239
87.1593
87.1947
87.2301
87.2655
87.3009
87.3363
87.3717
87.4071
87.4425
87.4778
87.5132
87.5486
87.584
87.6194
87.6548
87.6902
87.7256
87.7609
87.7963
87.8317
87.8671
87.9025
87.9378
87.9732
88.0086
88.044
88.0794
88.1147
88.1501
88.1855
88.2209
88.2562
88.2916
88.327
88.3623
88.3977
88.4331
88.4684
88.5038
88.5392
88.5746
88.6099
88.6453
88.6806
88.716
88.7514
88.7867
88.8221
88.8575
88.8928
88.9282
88.9635
88.9989
89.0342
89.0696
89.105
89.1403
89.1757
89.211
89.2464
89.2817
89.3171
89.3524
89.3878
89.4231
89.4585
89.4938
89.5291
89.5645
89.5998
89.6352
89.6705
89.7059
89.7412
89.7765
89.8119
89.8472
89.8826
89.9179
89.9532
89.9886
90.0239
90.0592
90.0946
90.1299
90.1652
90.2006
90.2359
90.2712
90.3065
90.3419
90.3772
90.4125
90.4478
90.4832
90.5185
90.5538
90.5891
90.6245
90.6598
90.6951
90.7304
90.7657
90.801
90.8364
90.8717
90.907
90.9423
90.9776
91.0129
91.0482
91.0836
91.1189
91.1542
91.1895
91.2248
91.2601
91.2954
91.3307
91.366
91.4013
91.4366
91.4719
91.5072
91.5425
91.5778
91.6131
91.6484
91.6837
91.719
91.7543
91.7896
91.8249
91.8602
91.8954
91.9307
91.966
92.0013
92.0366
92.0719
92.1072
92.1425
92.1777
92.213
92.2483
92.2836
92.3189
92.3541
92.3894
92.4247
92.46
92.4952
92.5305
92.5658
92.6011
92.6363
92.6716
92.7069
92.7422
92.7774
92.8127
92.848
92.8832
92.9185
92.9538
92.989
93.0243
93.0595
93.0948
93.1301
93.1653
93.2006
93.2358
93.2711
93.3063
93.3416
93.3769
93.4121
93.4474
93.4826
93.5179
93.5531
93.5884
93.6236
93.6588
93.6941
93.7293
93.7646
93.7998
93.8351
93.8703
93.9055
93.9408
93.976
94.0113
94.0465
94.0817
94.117
94.1522
94.1874
94.2227
94.2579
94.2931
94.3283
94.3636
94.3988
94.434
94.4693
94.5045
94.5397
94.5749
94.6101
94.6454
94.6806
94.7158
94.751
94.7862
94.8214
94.8567
94.8919
94.9271
94.9623
94.9975
95.0327
95.0679
95.1031
95.1383
95.1735
95.2088
95.244
95.2792
95.3144
95.3496
95.3848
95.42
95.4552
95.4904
95.5255
95.5607
95.5959
95.6311
95.6663
95.7015
95.7367
95.7719
95.8071
95.8423
95.8774
95.9126
95.9478
95.983
96.0182
96.0534
96.0885
96.1237
96.1589
96.1941
96.2292
96.2644
96.2996
96.3348
96.3699
96.4051
96.4403
96.4754
96.5106
96.5458
96.5809
96.6161
96.6513
96.6864
96.7216
96.7568
96.7919
96.8271
96.8622
96.8974
96.9325
96.9677
97.0028
97.038
97.0731
97.1083
97.1434
97.1786
97.2137
97.2489
97.284
97.3192
97.3543
97.3894
97.4246
97.4597
97.4949
97.53
97.5651
97.6003
97.6354
97.6705
97.7057
97.7408
97.7759
97.811
97.8462
97.8813
97.9164
97.9515
97.9867
98.0218
98.0569
98.092
98.1271
98.1622
98.1974
98.2325
98.2676
98.3027
98.3378
98.3729
98.408
98.4431
98.4782
98.5133
98.5484
98.5835
98.6186
98.6537
98.6888
98.7239
98.759
98.7941
98.8292
98.8643
98.8994
98.9345
98.9696
99.0047
99.0398
99.0748
99.1099
99.145
99.1801
99.2152
99.2502
99.2853
99.3204
99.3555
99.3905
99.4256
99.4607
99.4958
99.5308
99.5659
99.601
99.636
99.6711
99.7062
99.7412
99.7763
99.8113
99.8464
99.8815
99.9165
99.9516
99.9866
100.022
100.057
100.092
100.127
100.162
100.197
100.232
100.267
100.302
100.337
100.372
100.407
100.442
100.477
100.512
100.547
100.582
100.617
100.652
100.687
100.722
100.757
100.792
100.827
100.863
100.898
100.933
100.968
101.003
101.038
101.073
101.108
101.143
101.178
101.213
101.248
101.283
101.318
101.353
101.388
101.423
101.458
101.493
101.528
101.563
101.598
101.633
101.668
101.703
101.738
101.773
101.808
101.842
101.877
101.912
101.947
101.982
102.017
102.052
102.087
102.122
102.157
102.192
102.227
102.262
102.297
102.332
102.367
102.402
102.437
102.472
102.507
102.542
102.577
102.612
102.647
102.682
102.717
102.751
102.786
102.821
102.856
102.891
102.926
102.961
102.996
103.031
103.066
103.101
103.136
103.171
103.206
103.24
103.275
103.31
103.345
103.38
103.415
103.45
103.485
103.52
103.555
103.59
103.624
103.659
103.694
103.729
103.764
103.799
103.834
103.869
103.904
103.938
103.973
104.008
104.043
104.078
104.113
104.148
104.183
104.217
104.252
104.287
104.322
104.357
104.392
104.427
104.462
104.496
104.531
104.566
104.601
104.636
104.671
104.705
104.74
104.775
104.81
104.845
104.88
104.914
104.949
104.984
105.019
105.054
105.089
105.123
105.158
105.193
105.228
105.263
105.298
105.332
105.367
105.402
105.437
105.472
105.506
105.541
105.576
105.611
105.646
105.68
105.715
105.75
105.785
105.819
105.854
105.889
105.924
105.959
105.993
106.028
106.063
106.098
106.132
106.167
106.202
106.237
106.271
106.306
106.341
106.376
106.41
106.445
106.48
106.515
106.549
106.584
106.619
106.654
106.688
106.723
106.758
106.792
106.827
106.862
106.897
106.931
106.966
107.001
107.035
107.07
107.105
107.14
107.174
107.209
107.244
107.278
107.313
107.348
107.382
107.417
107.452
107.486
107.521
107.556
107.59
107.625
107.66
107.694
107.729
107.764
107.798
107.833
107.868
107.902
107.937
107.971
108.006
108.041
108.075
108.11
108.145
108.179
108.214
108.248
108.283
108.318
108.352
108.387
108.422
108.456
108.491
108.525
108.56
108.594
108.629
108.664
108.698
108.733
108.767
108.802
108.836
108.871
108.906
108.94
108.975
109.009
109.044
109.078
109.113
109.147
109.182
109.217
109.251
109.286
109.32
109.355
109.389
109.424
109.458
109.493
109.527
109.562
109.596
109.631
109.665
109.7
109.734
109.769
109.803
109.838
109.872
109.906
109.941
109.975
110.01
110.044
110.079
110.113
110.148
110.182
110.217
110.251
110.285
110.32
110.354
110.389
110.423
110.457
110.492
110.526
110.561
110.595
110.629
110.664
110.698
110.733
110.767
110.801
110.836
110.87
110.904
110.939
110.973
111.008
111.042
111.076
111.111
111.145
111.179
111.214
111.248
111.282
111.316
111.351
111.385
111.419
111.454
111.488
111.522
111.557
111.591
111.625
111.659
111.694
111.728
111.762
111.796
111.831
111.865
111.899
111.933
111.968
112.002
112.036
112.07
112.104
112.139
112.173
112.207
112.241
112.275
112.31
112.344
112.378
112.412
112.446
112.48
112.515
112.549
112.583
112.617
112.651
112.685
112.719
112.753
112.788
112.822
112.856
112.89
112.924
112.958
112.992
113.026
113.06
113.094
113.128
113.162
113.197
113.231
113.265
113.299
113.333
113.367
113.401
113.435
113.469
113.503
113.537
113.571
113.605
113.639
113.673
113.706
113.74
113.774
113.808
113.842
113.876
113.91
113.944
113.978
114.012
114.046
114.08
114.113
114.147
114.181
114.215
114.249
114.283
114.317
114.35
114.384
114.418
114.452
114.486
114.519
114.553
114.587
114.621
114.655
114.688
114.722
114.756
114.79
114.823
114.857
114.891
114.924
114.958
114.992
115.026
115.059
115.093
115.127
115.16
115.194
115.227
115.261
115.295
115.328
115.362
115.396
115.429
115.463
115.496
115.53
115.563
115.597
115.631
115.664
115.698
115.731
115.765
115.798
115.832
115.865
115.899
115.932
115.965
115.999
116.032
116.066
116.099
116.133
116.166
116.199
116.233
116.266
116.299
116.333
116.366
116.399
116.433
116.466
116.499
116.533
116.566
116.599
116.632
116.666
116.699
116.732
116.765
116.799
116.832
116.865
116.898
116.931
116.964
116.998
117.031
117.064
117.097
117.13
117.163
117.196
117.229
117.262
117.295
117.328
117.361
117.394
117.427
117.46
117.493
117.526
117.559
117.592
117.625
117.658
117.691
117.723
117.756
117.789
117.822
117.855
117.888
117.92
117.953
117.986
118.019
118.051
118.084
118.117
118.149
118.182
118.215
118.247
118.28
118.313
118.345
118.378
118.41
118.443
118.476
118.508
118.541
118.573
118.606
118.638
118.67
118.703
118.735
118.768
118.8
118.832
118.865
118.897
118.929
118.962
118.994
119.026
119.059
119.091
119.123
119.155
119.187
119.22
119.252
119.284
119.316
119.348
119.38
119.412
119.444
119.476
119.508
119.54
119.572
119.604
119.636
119.668
119.7
119.732
119.764
119.795
119.827
119.859
119.891
119.923
119.954
119.986
120.018
120.049
120.081
120.113
120.144
120.176
120.207
120.239
120.271
120.302
120.334
120.365
120.396
120.428
120.459
120.491
120.522
120.553
120.585
120.616
120.647
120.678
120.71
120.741
120.772
120.803
120.834
120.865
120.896
120.928
120.959
120.99
121.021
121.051
121.082
121.113
121.144
121.175
121.206
121.237
121.267
121.298
121.329
121.36
121.39
121.421
121.452
121.482
121.513
121.543
121.574
121.604
121.635
121.665
121.696
121.726
121.756
121.787
121.817
121.847
121.878
121.908
121.938
121.968
121.998
122.028
122.058
122.088
122.119
122.148
122.178
122.208
122.238
122.268
122.298
122.328
122.358
122.387
122.417
122.447
122.476
122.506
122.536
122.565
122.595
122.624
122.654
122.683
122.713
122.742
122.772
122.801
122.83
122.859
122.889
122.918
122.947
122.976
123.005
123.034
123.064
123.093
123.122
123.151
123.179
123.208
123.237
123.266
123.295
123.324
123.352
123.381
123.41
123.438
123.467
123.496
123.524
123.553
123.581
123.61
123.638
123.666
123.695
123.723
123.751
123.78
123.808
123.836
123.864
123.892
123.921
123.949
123.977
124.005
124.033
124.061
124.088
124.116
124.144
124.172
124.2
124.228
124.255
124.283
124.311
124.338
124.366
124.393
124.421
124.449
124.476
124.503
124.531
124.558
124.586
124.613
124.64
124.668
124.695
124.722
124.749
124.776
124.803
124.83
124.858
124.885
124.912
124.939
124.966
124.992
125.019
125.046
125.073
125.1
125.127
125.153
125.18
125.207
125.233
125.26
125.287
125.313
125.34
125.366
125.393
125.419
125.446
125.472
125.499
125.525
125.552
125.578
125.604
125.63
125.657
125.683
125.709
125.735
125.762
125.788
125.814
125.84
125.866
125.892
125.918
125.944
125.97
125.996
126.022
126.048
126.074
126.1
126.126
126.152
126.178
126.203
126.229
126.255
126.281
126.306
126.332
126.358
126.384
126.409
126.435
126.461
126.486
126.512
126.538
126.563
126.589
126.614
126.64
126.665
126.691
126.716
126.742
126.767
126.793
126.818
126.844
126.869
126.894
126.92
126.945
126.971
126.996
127.021
127.047
127.072
127.097
127.123
127.148
127.173
127.199
127.224
127.249
127.274
127.3
127.325
127.35
127.375
127.401
127.426
127.451
127.476
127.501
127.526
127.552
127.577
127.602
127.627
127.652
127.677
127.703
127.728
127.753
127.778
127.803
127.828
127.853
127.878
127.903
127.929
127.954
127.979
128.004
128.029
128.054
128.079
128.104
128.129
128.154
128.179
128.204
128.229
128.254
128.279
128.305
128.33
128.355
128.38
128.405
128.43
128.455
128.48
128.505
128.53
128.555
128.58
128.605
128.63
128.655
128.68
128.705
128.73
128.755
128.78
128.805
128.83
128.855
128.88
128.905
128.93
128.955
128.98
129.005
129.031
129.056
129.081
129.106
129.131
129.156
129.181
129.206
129.231
129.256
129.281
129.306
129.331
129.356
129.381
129.406
129.431
129.456
129.481
129.506
129.531
129.556
129.581
129.607
129.632
129.657
129.682
129.707
129.732
129.757
129.782
129.807
129.832
129.857
129.882
129.907
129.933
129.958
129.983
130.008
130.033
130.058
130.083
130.108
130.133
130.158
130.184
130.209
130.234
130.259
130.284
130.309
130.334
130.359
130.385
130.41
130.435
130.46
130.485
130.51
130.535
130.561
130.586
130.611
130.636
130.661
130.686
130.712
130.737
130.762
130.787
130.812
130.837
130.863
130.888
130.913
130.938
130.963
130.989
131.014
131.039
131.064
131.089
131.115
131.14
131.165
131.19
131.216
131.241
131.266
131.291
131.317
131.342
131.367
131.392
131.417
131.443
131.468
131.493
131.519
131.544
131.569
131.594
131.62
131.645
131.67
131.695
131.721
131.746
131.771
131.797
131.822
131.847
131.873
131.898
131.923
131.948
131.974
131.999
132.024
132.05
132.075
132.1
132.126
132.151
132.176
132.202
132.227
132.252
132.278
132.303
132.328
132.354
132.379
132.405
132.43
132.455
132.481
132.506
132.531
132.557
132.582
132.608
132.633
132.658
132.684
132.709
132.735
132.76
132.785
132.811
132.836
132.862
132.887
132.913
132.938
132.963
132.989
133.014
133.04
133.065
133.091
133.116
133.142
133.167
133.192
133.218
133.243
133.269
133.294
133.32
133.345
133.371
133.396
133.422
133.447
133.473
133.498
133.524
133.549
133.575
133.6
133.626
133.651
133.677
133.702
133.728
133.753
133.779
133.804
133.83
133.856
133.881
133.907