/*--------------------------------*- C++ -*----------------------------------*\
  =========                 |
  \\      /  F ield         | OpenFOAM: The Open Source CFD Toolbox
   \\    /   O peration     | Website:  https://openfoam.org
    \\  /    A nd           | Version:  9
     \\/     M anipulation  |
\*---------------------------------------------------------------------------*/
FoamFile
{
    format      ascii;
    class       surfaceScalarField;
    location    "0.035";
    object      phi_0;
}
// * * * * * * * * * * * * * * * * * * * * * * * * * * * * * * * * * * * * * //

dimensions      [1 0 -1 0 0 0 0];

internalField   nonuniform List<scalar> 
9999
(
6.59654
6.63281
6.66908
6.70535
6.74161
6.77788
6.81414
6.8504
6.88666
6.92292
6.95918
6.99544
7.03169
7.06795
7.1042
7.14045
7.1767
7.21295
7.2492
7.28544
7.32168
7.35793
7.39417
7.43041
7.46665
7.50289
7.53912
7.57536
7.61159
7.64783
7.68406
7.72028
7.75651
7.79274
7.82897
7.86519
7.90142
7.93764
7.97386
8.01007
8.04629
8.08251
8.11873
8.15494
8.19116
8.22736
8.26357
8.29978
8.33599
8.37219
8.4084
8.44461
8.48081
8.51701
8.55321
8.5894
8.6256
8.66179
8.69799
8.73419
8.77039
8.80658
8.84277
8.87895
8.91513
8.95131
8.9875
9.02368
9.05987
9.09606
9.13225
9.16844
9.20461
9.24078
9.27695
9.31311
9.34928
9.38545
9.42162
9.4578
9.49398
9.53016
9.56634
9.60251
9.63868
9.67484
9.71099
9.74713
9.78328
9.81942
9.85557
9.89172
9.92788
9.96404
10.0002
10.0364
10.0726
10.1087
10.1449
10.1811
10.2172
10.2534
10.2895
10.3256
10.3617
10.3979
10.434
10.4701
10.5062
10.5423
10.5784
10.6145
10.6507
10.6868
10.723
10.7592
10.7954
10.8316
10.8678
10.904
10.9402
10.9765
11.0127
11.049
11.0852
11.1215
11.1578
11.194
11.2303
11.2665
11.3028
11.3391
11.3753
11.4116
11.4479
11.4842
11.5205
11.5568
11.593
11.6293
11.6656
11.7019
11.7382
11.7745
11.8107
11.847
11.8833
11.9196
11.9559
11.9921
12.0284
12.0647
12.101
12.1372
12.1735
12.2098
12.2461
12.2824
12.3186
12.3549
12.3912
12.4275
12.4637
12.5
12.5363
12.5726
12.6088
12.6451
12.6814
12.7177
12.7539
12.7902
12.8265
12.8628
12.899
12.9353
12.9716
13.0079
13.0441
13.0804
13.1167
13.1529
13.1892
13.2255
13.2618
13.298
13.3343
13.3706
13.4068
13.4431
13.4794
13.5156
13.5519
13.5882
13.6245
13.6607
13.697
13.7333
13.7695
13.8058
13.8421
13.8783
13.9146
13.9509
13.9871
14.0234
14.0597
14.0959
14.1322
14.1685
14.2047
14.241
14.2773
14.3135
14.3498
14.386
14.4223
14.4586
14.4948
14.5311
14.5674
14.6036
14.6399
14.6761
14.7124
14.7487
14.7849
14.8212
14.8574
14.8937
14.93
14.9662
15.0025
15.0387
15.075
15.1113
15.1475
15.1838
15.22
15.2563
15.2926
15.3288
15.3651
15.4013
15.4376
15.4738
15.5101
15.5463
15.5826
15.6189
15.6551
15.6914
15.7276
15.7639
15.8001
15.8364
15.8726
15.9089
15.9451
15.9814
16.0177
16.0539
16.0902
16.1264
16.1627
16.1989
16.2352
16.2714
16.3077
16.3439
16.3802
16.4164
16.4527
16.4889
16.5252
16.5614
16.5977
16.6339
16.6702
16.7064
16.7427
16.7789
16.8151
16.8514
16.8876
16.9239
16.9601
16.9964
17.0326
17.0689
17.1051
17.1414
17.1776
17.2139
17.2501
17.2863
17.3226
17.3588
17.3951
17.4313
17.4676
17.5038
17.54
17.5763
17.6125
17.6488
17.685
17.7212
17.7575
17.7937
17.83
17.8662
17.9024
17.9387
17.9749
18.0112
18.0474
18.0836
18.1199
18.1561
18.1924
18.2286
18.2648
18.3011
18.3373
18.3735
18.4098
18.446
18.4822
18.5185
18.5547
18.5909
18.6272
18.6634
18.6997
18.7359
18.7721
18.8084
18.8446
18.8808
18.917
18.9533
18.9895
19.0257
19.062
19.0982
19.1344
19.1707
19.2069
19.2431
19.2794
19.3156
19.3518
19.388
19.4243
19.4605
19.4967
19.533
19.5692
19.6054
19.6416
19.6779
19.7141
19.7503
19.7865
19.8228
19.859
19.8952
19.9315
19.9677
20.0039
20.0401
20.0763
20.1126
20.1488
20.185
20.2212
20.2575
20.2937
20.3299
20.3661
20.4024
20.4386
20.4748
20.511
20.5472
20.5835
20.6197
20.6559
20.6921
20.7283
20.7646
20.8008
20.837
20.8732
20.9094
20.9456
20.9819
21.0181
21.0543
21.0905
21.1267
21.1629
21.1992
21.2354
21.2716
21.3078
21.344
21.3802
21.4164
21.4527
21.4889
21.5251
21.5613
21.5975
21.6337
21.6699
21.7062
21.7424
21.7786
21.8148
21.851
21.8872
21.9234
21.9596
21.9958
22.032
22.0683
22.1045
22.1407
22.1769
22.2131
22.2493
22.2855
22.3217
22.3579
22.3941
22.4303
22.4665
22.5027
22.539
22.5752
22.6114
22.6476
22.6838
22.72
22.7562
22.7924
22.8286
22.8648
22.901
22.9372
22.9734
23.0096
23.0458
23.082
23.1182
23.1544
23.1906
23.2268
23.263
23.2992
23.3354
23.3716
23.4078
23.444
23.4802
23.5164
23.5526
23.5888
23.625
23.6612
23.6974
23.7336
23.7698
23.806
23.8422
23.8784
23.9146
23.9508
23.987
24.0231
24.0593
24.0955
24.1317
24.1679
24.2041
24.2403
24.2765
24.3127
24.3489
24.3851
24.4213
24.4575
24.4936
24.5298
24.566
24.6022
24.6384
24.6746
24.7108
24.747
24.7832
24.8194
24.8555
24.8917
24.9279
24.9641
25.0003
25.0365
25.0727
25.1088
25.145
25.1812
25.2174
25.2536
25.2898
25.326
25.3621
25.3983
25.4345
25.4707
25.5069
25.5431
25.5792
25.6154
25.6516
25.6878
25.724
25.7601
25.7963
25.8325
25.8687
25.9049
25.941
25.9772
26.0134
26.0496
26.0858
26.1219
26.1581
26.1943
26.2305
26.2666
26.3028
26.339
26.3752
26.4113
26.4475
26.4837
26.5199
26.556
26.5922
26.6284
26.6646
26.7007
26.7369
26.7731
26.8093
26.8454
26.8816
26.9178
26.9539
26.9901
27.0263
27.0625
27.0986
27.1348
27.171
27.2071
27.2433
27.2795
27.3156
27.3518
27.388
27.4241
27.4603
27.4965
27.5326
27.5688
27.605
27.6411
27.6773
27.7135
27.7496
27.7858
27.822
27.8581
27.8943
27.9304
27.9666
28.0028
28.0389
28.0751
28.1113
28.1474
28.1836
28.2197
28.2559
28.2921
28.3282
28.3644
28.4005
28.4367
28.4729
28.509
28.5452
28.5813
28.6175
28.6536
28.6898
28.726
28.7621
28.7983
28.8344
28.8706
28.9067
28.9429
28.979
29.0152
29.0514
29.0875
29.1237
29.1598
29.196
29.2321
29.2683
29.3044
29.3406
29.3767
29.4129
29.449
29.4852
29.5213
29.5575
29.5936
29.6298
29.6659
29.7021
29.7382
29.7744
29.8105
29.8467
29.8828
29.919
29.9551
29.9912
30.0274
30.0635
30.0997
30.1358
30.172
30.2081
30.2443
30.2804
30.3165
30.3527
30.3888
30.425
30.4611
30.4973
30.5334
30.5695
30.6057
30.6418
30.678
30.7141
30.7502
30.7864
30.8225
30.8587
30.8948
30.9309
30.9671
31.0032
31.0393
31.0755
31.1116
31.1478
31.1839
31.22
31.2562
31.2923
31.3284
31.3646
31.4007
31.4368
31.473
31.5091
31.5452
31.5814
31.6175
31.6536
31.6898
31.7259
31.762
31.7981
31.8343
31.8704
31.9065
31.9427
31.9788
32.0149
32.051
32.0872
32.1233
32.1594
32.1956
32.2317
32.2678
32.3039
32.3401
32.3762
32.4123
32.4484
32.4846
32.5207
32.5568
32.5929
32.6291
32.6652
32.7013
32.7374
32.7735
32.8097
32.8458
32.8819
32.918
32.9542
32.9903
33.0264
33.0625
33.0986
33.1347
33.1709
33.207
33.2431
33.2792
33.3153
33.3515
33.3876
33.4237
33.4598
33.4959
33.532
33.5681
33.6043
33.6404
33.6765
33.7126
33.7487
33.7848
33.8209
33.8571
33.8932
33.9293
33.9654
34.0015
34.0376
34.0737
34.1098
34.1459
34.182
34.2182
34.2543
34.2904
34.3265
34.3626
34.3987
34.4348
34.4709
34.507
34.5431
34.5792
34.6153
34.6514
34.6875
34.7237
34.7597
34.7959
34.832
34.8681
34.9042
34.9403
34.9764
35.0125
35.0486
35.0847
35.1208
35.1569
35.193
35.2291
35.2652
35.3013
35.3374
35.3735
35.4096
35.4457
35.4818
35.5179
35.554
35.59
35.6262
35.6622
35.6983
35.7344
35.7705
35.8066
35.8427
35.8788
35.9149
35.951
35.9871
36.0232
36.0593
36.0954
36.1315
36.1676
36.2036
36.2397
36.2758
36.3119
36.348
36.3841
36.4202
36.4563
36.4923
36.5284
36.5645
36.6006
36.6367
36.6728
36.7089
36.745
36.781
36.8171
36.8532
36.8893
36.9254
36.9615
36.9976
37.0336
37.0697
37.1058
37.1419
37.178
37.214
37.2501
37.2862
37.3223
37.3584
37.3945
37.4305
37.4666
37.5027
37.5388
37.5748
37.6109
37.647
37.6831
37.7191
37.7552
37.7913
37.8274
37.8635
37.8995
37.9356
37.9717
38.0077
38.0438
38.0799
38.116
38.152
38.1881
38.2242
38.2603
38.2963
38.3324
38.3685
38.4045
38.4406
38.4767
38.5127
38.5488
38.5849
38.6209
38.657
38.6931
38.7292
38.7652
38.8013
38.8374
38.8734
38.9095
38.9456
38.9816
39.0177
39.0537
39.0898
39.1259
39.1619
39.198
39.2341
39.2701
39.3062
39.3422
39.3783
39.4144
39.4504
39.4865
39.5225
39.5586
39.5947
39.6307
39.6668
39.7028
39.7389
39.775
39.811
39.8471
39.8831
39.9192
39.9552
39.9913
40.0273
40.0634
40.0994
40.1355
40.1716
40.2076
40.2436
40.2797
40.3158
40.3518
40.3879
40.4239
40.46
40.496
40.5321
40.5681
40.6042
40.6402
40.6763
40.7123
40.7483
40.7844
40.8204
40.8565
40.8925
40.9286
40.9646
41.0007
41.0367
41.0727
41.1088
41.1448
41.1809
41.2169
41.253
41.289
41.3251
41.3611
41.3971
41.4332
41.4692
41.5053
41.5413
41.5773
41.6134
41.6494
41.6855
41.7215
41.7575
41.7936
41.8296
41.8656
41.9017
41.9377
41.9738
42.0098
42.0458
42.0819
42.1179
42.1539
42.19
42.226
42.262
42.2981
42.3341
42.3701
42.4061
42.4422
42.4782
42.5142
42.5503
42.5863
42.6223
42.6583
42.6944
42.7304
42.7664
42.8024
42.8385
42.8745
42.9105
42.9466
42.9826
43.0186
43.0546
43.0907
43.1267
43.1627
43.1987
43.2347
43.2708
43.3068
43.3428
43.3788
43.4149
43.4509
43.4869
43.5229
43.5589
43.595
43.631
43.667
43.703
43.739
43.775
43.8111
43.8471
43.8831
43.9191
43.9551
43.9911
44.0271
44.0632
44.0992
44.1352
44.1712
44.2072
44.2432
44.2792
44.3153
44.3512
44.3873
44.4233
44.4593
44.4953
44.5313
44.5673
44.6033
44.6393
44.6753
44.7113
44.7474
44.7834
44.8194
44.8554
44.8914
44.9274
44.9634
44.9994
45.0354
45.0714
45.1074
45.1434
45.1794
45.2154
45.2514
45.2874
45.3234
45.3594
45.3954
45.4314
45.4674
45.5034
45.5394
45.5754
45.6114
45.6474
45.6834
45.7194
45.7554
45.7914
45.8274
45.8634
45.8994
45.9354
45.9714
46.0074
46.0433
46.0793
46.1153
46.1513
46.1873
46.2233
46.2593
46.2953
46.3313
46.3673
46.4033
46.4392
46.4752
46.5112
46.5472
46.5832
46.6192
46.6552
46.6912
46.7272
46.7631
46.7991
46.8351
46.8711
46.9071
46.9431
46.979
47.015
47.051
47.087
47.123
47.1589
47.1949
47.2309
47.2669
47.3029
47.3389
47.3748
47.4108
47.4468
47.4828
47.5187
47.5547
47.5907
47.6267
47.6627
47.6986
47.7346
47.7706
47.8066
47.8425
47.8785
47.9145
47.9504
47.9864
48.0224
48.0584
48.0943
48.1303
48.1663
48.2022
48.2382
48.2742
48.3101
48.3461
48.3821
48.4181
48.454
48.49
48.526
48.5619
48.5979
48.6339
48.6698
48.7058
48.7417
48.7777
48.8137
48.8496
48.8856
48.9216
48.9575
48.9935
49.0294
49.0654
49.1014
49.1373
49.1733
49.2092
49.2452
49.2812
49.3171
49.3531
49.389
49.425
49.4609
49.4969
49.5329
49.5688
49.6048
49.6407
49.6767
49.7126
49.7486
49.7845
49.8205
49.8564
49.8924
49.9283
49.9643
50.0002
50.0362
50.0721
50.1081
50.144
50.18
50.2159
50.2519
50.2878
50.3238
50.3597
50.3957
50.4316
50.4676
50.5035
50.5394
50.5754
50.6113
50.6473
50.6832
50.7192
50.7551
50.791
50.827
50.8629
50.8989
50.9348
50.9707
51.0067
51.0426
51.0786
51.1145
51.1504
51.1864
51.2223
51.2583
51.2942
51.3301
51.3661
51.402
51.4379
51.4739
51.5098
51.5457
51.5816
51.6176
51.6535
51.6894
51.7254
51.7613
51.7972
51.8332
51.8691
51.905
51.9409
51.9769
52.0128
52.0487
52.0847
52.1206
52.1565
52.1924
52.2284
52.2643
52.3002
52.3361
52.3721
52.408
52.4439
52.4798
52.5158
52.5517
52.5876
52.6235
52.6594
52.6954
52.7313
52.7672
52.8031
52.839
52.8749
52.9109
52.9468
52.9827
53.0186
53.0545
53.0904
53.1264
53.1623
53.1982
53.2341
53.27
53.3059
53.3418
53.3777
53.4137
53.4496
53.4855
53.5214
53.5573
53.5932
53.6291
53.665
53.7009
53.7368
53.7727
53.8087
53.8446
53.8805
53.9164
53.9523
53.9882
54.0241
54.06
54.0959
54.1318
54.1677
54.2036
54.2395
54.2754
54.3113
54.3472
54.3831
54.419
54.4549
54.4908
54.5267
54.5626
54.5985
54.6344
54.6703
54.7062
54.7421
54.778
54.8139
54.8498
54.8857
54.9216
54.9574
54.9933
55.0292
55.0651
55.101
55.1369
55.1728
55.2087
55.2446
55.2805
55.3164
55.3522
55.3881
55.424
55.4599
55.4958
55.5317
55.5676
55.6034
55.6393
55.6752
55.7111
55.747
55.7829
55.8188
55.8546
55.8905
55.9264
55.9623
55.9982
56.034
56.0699
56.1058
56.1417
56.1776
56.2134
56.2493
56.2852
56.3211
56.3569
56.3928
56.4287
56.4646
56.5004
56.5363
56.5722
56.6081
56.6439
56.6798
56.7157
56.7516
56.7874
56.8233
56.8592
56.895
56.9309
56.9668
57.0026
57.0385
57.0744
57.1102
57.1461
57.182
57.2178
57.2537
57.2896
57.3254
57.3613
57.3972
57.433
57.4689
57.5048
57.5406
57.5765
57.6123
57.6482
57.6841
57.7199
57.7558
57.7916
57.8275
57.8634
57.8992
57.9351
57.9709
58.0068
58.0426
58.0785
58.1143
58.1502
58.1861
58.2219
58.2578
58.2936
58.3295
58.3653
58.4012
58.437
58.4729
58.5087
58.5446
58.5804
58.6163
58.6521
58.688
58.7238
58.7597
58.7955
58.8313
58.8672
58.903
58.9389
58.9747
59.0106
59.0464
59.0823
59.1181
59.1539
59.1898
59.2256
59.2615
59.2973
59.3331
59.369
59.4048
59.4407
59.4765
59.5123
59.5482
59.584
59.6198
59.6557
59.6915
59.7274
59.7632
59.799
59.8349
59.8707
59.9065
59.9423
59.9782
60.014
60.0498
60.0857
60.1215
60.1573
60.1932
60.229
60.2648
60.3006
60.3365
60.3723
60.4081
60.4439
60.4798
60.5156
60.5514
60.5872
60.6231
60.6589
60.6947
60.7305
60.7663
60.8022
60.838
60.8738
60.9096
60.9454
60.9813
61.0171
61.0529
61.0887
61.1245
61.1604
61.1962
61.232
61.2678
61.3036
61.3394
61.3752
61.4111
61.4469
61.4827
61.5185
61.5543
61.5901
61.6259
61.6617
61.6975
61.7334
61.7692
61.805
61.8408
61.8766
61.9124
61.9482
61.984
62.0198
62.0556
62.0914
62.1272
62.163
62.1988
62.2346
62.2704
62.3062
62.342
62.3778
62.4136
62.4494
62.4852
62.521
62.5568
62.5926
62.6284
62.6642
62.7
62.7358
62.7716
62.8074
62.8432
62.879
62.9148
62.9506
62.9864
63.0222
63.0579
63.0937
63.1295
63.1653
63.2011
63.2369
63.2727
63.3085
63.3443
63.38
63.4158
63.4516
63.4874
63.5232
63.559
63.5948
63.6305
63.6663
63.7021
63.7379
63.7737
63.8095
63.8452
63.881
63.9168
63.9526
63.9883
64.0241
64.0599
64.0957
64.1315
64.1672
64.203
64.2388
64.2746
64.3103
64.3461
64.3819
64.4177
64.4534
64.4892
64.525
64.5607
64.5965
64.6323
64.6681
64.7038
64.7396
64.7754
64.8111
64.8469
64.8827
64.9184
64.9542
64.99
65.0257
65.0615
65.0973
65.133
65.1688
65.2045
65.2403
65.2761
65.3118
65.3476
65.3833
65.4191
65.4549
65.4906
65.5264
65.5621
65.5979
65.6337
65.6694
65.7052
65.7409
65.7767
65.8124
65.8482
65.8839
65.9197
65.9554
65.9912
66.0269
66.0627
66.0984
66.1342
66.1699
66.2057
66.2414
66.2772
66.3129
66.3487
66.3844
66.4202
66.4559
66.4917
66.5274
66.5631
66.5989
66.6346
66.6704
66.7061
66.7419
66.7776
66.8133
66.8491
66.8848
66.9206
66.9563
66.992
67.0278
67.0635
67.0992
67.135
67.1707
67.2064
67.2422
67.2779
67.3136
67.3494
67.3851
67.4208
67.4566
67.4923
67.528
67.5638
67.5995
67.6352
67.671
67.7067
67.7424
67.7781
67.8139
67.8496
67.8853
67.921
67.9568
67.9925
68.0282
68.0639
68.0996
68.1354
68.1711
68.2068
68.2425
68.2783
68.314
68.3497
68.3854
68.4211
68.4568
68.4926
68.5283
68.564
68.5997
68.6354
68.6711
68.7068
68.7426
68.7783
68.814
68.8497
68.8854
68.9211
68.9568
68.9925
69.0282
69.0639
69.0997
69.1354
69.1711
69.2068
69.2425
69.2782
69.3139
69.3496
69.3853
69.421
69.4567
69.4924
69.5281
69.5638
69.5995
69.6352
69.6709
69.7066
69.7423
69.778
69.8137
69.8494
69.8851
69.9208
69.9565
69.9922
70.0279
70.0636
70.0993
70.1349
70.1706
70.2063
70.242
70.2777
70.3134
70.3491
70.3848
70.4205
70.4562
70.4918
70.5275
70.5632
70.5989
70.6346
70.6703
70.706
70.7416
70.7773
70.813
70.8487
70.8844
70.9201
70.9557
70.9914
71.0271
71.0628
71.0984
71.1341
71.1698
71.2055
71.2412
71.2768
71.3125
71.3482
71.3839
71.4195
71.4552
71.4909
71.5265
71.5622
71.5979
71.6336
71.6692
71.7049
71.7406
71.7762
71.8119
71.8476
71.8832
71.9189
71.9546
71.9902
72.0259
72.0616
72.0972
72.1329
72.1685
72.2042
72.2399
72.2755
72.3112
72.3468
72.3825
72.4182
72.4538
72.4895
72.5251
72.5608
72.5964
72.6321
72.6678
72.7034
72.7391
72.7747
72.8104
72.846
72.8817
72.9173
72.953
72.9886
73.0243
73.0599
73.0956
73.1312
73.1669
73.2025
73.2382
73.2738
73.3094
73.3451
73.3807
73.4164
73.452
73.4877
73.5233
73.5589
73.5946
73.6302
73.6659
73.7015
73.7371
73.7728
73.8084
73.844
73.8797
73.9153
73.9509
73.9866
74.0222
74.0578
74.0935
74.1291
74.1647
74.2004
74.236
74.2716
74.3073
74.3429
74.3785
74.4141
74.4498
74.4854
74.521
74.5567
74.5923
74.6279
74.6635
74.6991
74.7348
74.7704
74.806
74.8416
74.8773
74.9129
74.9485
74.9841
75.0197
75.0553
75.091
75.1266
75.1622
75.1978
75.2334
75.269
75.3046
75.3403
75.3759
75.4115
75.4471
75.4827
75.5183
75.5539
75.5895
75.6251
75.6607
75.6964
75.732
75.7676
75.8032
75.8388
75.8744
75.91
75.9456
75.9812
76.0168
76.0524
76.088
76.1236
76.1592
76.1948
76.2304
76.266
76.3016
76.3372
76.3728
76.4084
76.444
76.4796
76.5152
76.5507
76.5863
76.6219
76.6575
76.6931
76.7287
76.7643
76.7999
76.8355
76.8711
76.9066
76.9422
76.9778
77.0134
77.049
77.0846
77.1202
77.1557
77.1913
77.2269
77.2625
77.2981
77.3336
77.3692
77.4048
77.4404
77.476
77.5115
77.5471
77.5827
77.6183
77.6538
77.6894
77.725
77.7606
77.7961
77.8317
77.8673
77.9028
77.9384
77.974
78.0096
78.0451
78.0807
78.1163
78.1518
78.1874
78.223
78.2585
78.2941
78.3296
78.3652
78.4008
78.4363
78.4719
78.5075
78.543
78.5786
78.6141
78.6497
78.6852
78.7208
78.7564
78.7919
78.8275
78.863
78.8986
78.9341
78.9697
79.0052
79.0408
79.0763
79.1119
79.1474
79.183
79.2185
79.2541
79.2896
79.3252
79.3607
79.3963
79.4318
79.4674
79.5029
79.5384
79.574
79.6095
79.6451
79.6806
79.7161
79.7517
79.7872
79.8228
79.8583
79.8938
79.9294
79.9649
80.0004
80.036
80.0715
80.107
80.1426
80.1781
80.2136
80.2492
80.2847
80.3202
80.3558
80.3913
80.4268
80.4623
80.4979
80.5334
80.5689
80.6044
80.64
80.6755
80.711
80.7465
80.782
80.8176
80.8531
80.8886
80.9241
80.9596
80.9952
81.0307
81.0662
81.1017
81.1372
81.1727
81.2082
81.2438
81.2793
81.3148
81.3503
81.3858
81.4213
81.4568
81.4923
81.5278
81.5633
81.5989
81.6344
81.6699
81.7054
81.7409
81.7764
81.8119
81.8474
81.8829
81.9184
81.9539
81.9894
82.0249
82.0604
82.0959
82.1314
82.1669
82.2024
82.2379
82.2733
82.3088
82.3443
82.3798
82.4153
82.4508
82.4863
82.5218
82.5573
82.5928
82.6283
82.6637
82.6992
82.7347
82.7702
82.8057
82.8412
82.8766
82.9121
82.9476
82.9831
83.0186
83.0541
83.0895
83.125
83.1605
83.196
83.2314
83.2669
83.3024
83.3379
83.3733
83.4088
83.4443
83.4798
83.5152
83.5507
83.5862
83.6216
83.6571
83.6926
83.728
83.7635
83.799
83.8344
83.8699
83.9054
83.9408
83.9763
84.0117
84.0472
84.0827
84.1181
84.1536
84.189
84.2245
84.26
84.2954
84.3309
84.3663
84.4018
84.4372
84.4727
84.5081
84.5436
84.579
84.6145
84.6499
84.6854
84.7208
84.7563
84.7917
84.8272
84.8626
84.8981
84.9335
84.969
85.0044
85.0398
85.0753
85.1107
85.1462
85.1816
85.217
85.2525
85.2879
85.3233
85.3588
85.3942
85.4296
85.4651
85.5005
85.5359
85.5714
85.6068
85.6422
85.6777
85.7131
85.7485
85.7839
85.8194
85.8548
85.8902
85.9256
85.9611
85.9965
86.0319
86.0673
86.1028
86.1382
86.1736
86.209
86.2444
86.2798
86.3153
86.3507
86.3861
86.4215
86.4569
86.4923
86.5277
86.5632
86.5986
86.634
86.6694
86.7048
86.7402
86.7756
86.811
86.8464
86.8818
86.9172
86.9526
86.988
87.0234
87.0588
87.0942
87.1296
87.165
87.2004
87.2358
87.2712
87.3066
87.342
87.3774
87.4128
87.4482
87.4836
87.519
87.5544
87.5898
87.6252
87.6605
87.6959
87.7313
87.7667
87.8021
87.8375
87.8729
87.9082
87.9436
87.979
88.0144
88.0498
88.0851
88.1205
88.1559
88.1913
88.2267
88.262
88.2974
88.3328
88.3682
88.4035
88.4389
88.4743
88.5096
88.545
88.5804
88.6157
88.6511
88.6865
88.7218
88.7572
88.7926
88.8279
88.8633
88.8987
88.934
88.9694
89.0047
89.0401
89.0755
89.1108
89.1462
89.1815
89.2169
89.2522
89.2876
89.3229
89.3583
89.3936
89.429
89.4643
89.4997
89.535
89.5704
89.6057
89.6411
89.6764
89.7118
89.7471
89.7825
89.8178
89.8531
89.8885
89.9238
89.9592
89.9945
90.0298
90.0652
90.1005
90.1358
90.1712
90.2065
90.2418
90.2772
90.3125
90.3478
90.3832
90.4185
90.4538
90.4891
90.5245
90.5598
90.5951
90.6304
90.6658
90.7011
90.7364
90.7717
90.807
90.8424
90.8777
90.913
90.9483
90.9836
91.0189
91.0542
91.0896
91.1249
91.1602
91.1955
91.2308
91.2661
91.3014
91.3367
91.372
91.4073
91.4426
91.4779
91.5132
91.5485
91.5838
91.6191
91.6544
91.6897
91.725
91.7603
91.7956
91.8309
91.8662
91.9015
91.9368
91.9721
92.0074
92.0427
92.078
92.1132
92.1485
92.1838
92.2191
92.2544
92.2897
92.325
92.3602
92.3955
92.4308
92.4661
92.5014
92.5366
92.5719
92.6072
92.6425
92.6777
92.713
92.7483
92.7836
92.8188
92.8541
92.8894
92.9246
92.9599
92.9952
93.0304
93.0657
93.101
93.1362
93.1715
93.2067
93.242
93.2773
93.3125
93.3478
93.383
93.4183
93.4535
93.4888
93.524
93.5593
93.5945
93.6298
93.665
93.7003
93.7355
93.7708
93.806
93.8413
93.8765
93.9118
93.947
93.9822
94.0175
94.0527
94.088
94.1232
94.1584
94.1937
94.2289
94.2641
94.2994
94.3346
94.3698
94.405
94.4403
94.4755
94.5107
94.546
94.5812
94.6164
94.6516
94.6868
94.7221
94.7573
94.7925
94.8277
94.8629
94.8982
94.9334
94.9686
95.0038
95.039
95.0742
95.1094
95.1446
95.1798
95.2151
95.2503
95.2855
95.3207
95.3559
95.3911
95.4263
95.4615
95.4967
95.5319
95.5671
95.6023
95.6375
95.6727
95.7078
95.743
95.7782
95.8134
95.8486
95.8838
95.919
95.9542
95.9894
96.0245
96.0597
96.0949
96.1301
96.1653
96.2004
96.2356
96.2708
96.306
96.3411
96.3763
96.4115
96.4467
96.4818
96.517
96.5522
96.5873
96.6225
96.6577
96.6928
96.728
96.7632
96.7983
96.8335
96.8686
96.9038
96.939
96.9741
97.0093
97.0444
97.0796
97.1147
97.1499
97.185
97.2202
97.2553
97.2905
97.3256
97.3608
97.3959
97.431
97.4662
97.5013
97.5365
97.5716
97.6067
97.6419
97.677
97.7121
97.7473
97.7824
97.8175
97.8527
97.8878
97.9229
97.958
97.9932
98.0283
98.0634
98.0985
98.1336
98.1688
98.2039
98.239
98.2741
98.3092
98.3443
98.3794
98.4146
98.4497
98.4848
98.5199
98.555
98.5901
98.6252
98.6603
98.6954
98.7305
98.7656
98.8007
98.8358
98.8709
98.906
98.9411
98.9762
99.0112
99.0463
99.0814
99.1165
99.1516
99.1867
99.2218
99.2568
99.2919
99.327
99.3621
99.3972
99.4322
99.4673
99.5024
99.5374
99.5725
99.6076
99.6427
99.6777
99.7128
99.7479
99.7829
99.818
99.853
99.8881
99.9232
99.9582
99.9933
100.028
100.063
100.098
100.133
100.169
100.204
100.239
100.274
100.309
100.344
100.379
100.414
100.449
100.484
100.519
100.554
100.589
100.624
100.659
100.694
100.729
100.764
100.799
100.834
100.869
100.904
100.939
100.974
101.009
101.044
101.079
101.114
101.149
101.184
101.219
101.254
101.289
101.324
101.359
101.394
101.429
101.464
101.499
101.534
101.569
101.604
101.639
101.674
101.709
101.744
101.779
101.814
101.849
101.884
101.919
101.954
101.989
102.024
102.059
102.094
102.129
102.164
102.199
102.234
102.269
102.304
102.339
102.374
102.409
102.444
102.479
102.514
102.549
102.584
102.619
102.653
102.688
102.723
102.758
102.793
102.828
102.863
102.898
102.933
102.968
103.003
103.038
103.073
103.108
103.143
103.177
103.212
103.247
103.282
103.317
103.352
103.387
103.422
103.457
103.492
103.527
103.562
103.596
103.631
103.666
103.701
103.736
103.771
103.806
103.841
103.876
103.911
103.945
103.98
104.015
104.05
104.085
104.12
104.155
104.19
104.224
104.259
104.294
104.329
104.364
104.399
104.434
104.468
104.503
104.538
104.573
104.608
104.643
104.678
104.712
104.747
104.782
104.817
104.852
104.887
104.922
104.956
104.991
105.026
105.061
105.096
105.13
105.165
105.2
105.235
105.27
105.305
105.339
105.374
105.409
105.444
105.479
105.513
105.548
105.583
105.618
105.653
105.687
105.722
105.757
105.792
105.827
105.861
105.896
105.931
105.966
106
106.035
106.07
106.105
106.14
106.174
106.209
106.244
106.279
106.313
106.348
106.383
106.418
106.452
106.487
106.522
106.557
106.591
106.626
106.661
106.695
106.73
106.765
106.8
106.834
106.869
106.904
106.938
106.973
107.008
107.043
107.077
107.112
107.147
107.181
107.216
107.251
107.285
107.32
107.355
107.39
107.424
107.459
107.494
107.528
107.563
107.598
107.632
107.667
107.702
107.736
107.771
107.806
107.84
107.875
107.909
107.944
107.979
108.013
108.048
108.083
108.117
108.152
108.187
108.221
108.256
108.29
108.325
108.36
108.394
108.429
108.463
108.498
108.533
108.567
108.602
108.636
108.671
108.706
108.74
108.775
108.809
108.844
108.878
108.913
108.947
108.982
109.017
109.051
109.086
109.12
109.155
109.189
109.224
109.258
109.293
109.327
109.362
109.396
109.431
109.466
109.5
109.535
109.569
109.604
109.638
109.673
109.707
109.742
109.776
109.81
109.845
109.879
109.914
109.948
109.983
110.017
110.052
110.086
110.121
110.155
110.19
110.224
110.258
110.293
110.327
110.362
110.396
110.431
110.465
110.499
110.534
110.568
110.603
110.637
110.671
110.706
110.74
110.774
110.809
110.843
110.878
110.912
110.946
110.981
111.015
111.049
111.084
111.118
111.152
111.187
111.221
111.255
111.29
111.324
111.358
111.393
111.427
111.461
111.496
111.53
111.564
111.598
111.633
111.667
111.701
111.735
111.77
111.804
111.838
111.872
111.907
111.941
111.975
112.009
112.044
112.078
112.112
112.146
112.18
112.215
112.249
112.283
112.317
112.351
112.386
112.42
112.454
112.488
112.522
112.556
112.591
112.625
112.659
112.693
112.727
112.761
112.795
112.829
112.863
112.898
112.932
112.966
113
113.034
113.068
113.102
113.136
113.17
113.204
113.238
113.272
113.306
113.34
113.374
113.408
113.442
113.476
113.51
113.544
113.578
113.612
113.646
113.68
113.714
113.748
113.782
113.816
113.85
113.884
113.918
113.952
113.986
114.02
114.053
114.087
114.121
114.155
114.189
114.223
114.257
114.291
114.324
114.358
114.392
114.426
114.46
114.494
114.527
114.561
114.595
114.629
114.662
114.696
114.73
114.764
114.797
114.831
114.865
114.899
114.932
114.966
115
115.033
115.067
115.101
115.134
115.168
115.202
115.235
115.269
115.303
115.336
115.37
115.404
115.437
115.471
115.504
115.538
115.571
115.605
115.639
115.672
115.706
115.739
115.773
115.806
115.84
115.873
115.907
115.94
115.973
116.007
116.04
116.074
116.107
116.141
116.174
116.207
116.241
116.274
116.307
116.341
116.374
116.408
116.441
116.474
116.507
116.541
116.574
116.607
116.641
116.674
116.707
116.74
116.773
116.807
116.84
116.873
116.906
116.939
116.972
117.006
117.039
117.072
117.105
117.138
117.171
117.204
117.237
117.27
117.303
117.336
117.369
117.402
117.435
117.468
117.501
117.534
117.567
117.6
117.633
117.666
117.699
117.732
117.764
117.797
117.83
117.863
117.896
117.929
117.961
117.994
118.027
118.06
118.092
118.125
118.158
118.19
118.223
118.256
118.288
118.321
118.354
118.386
118.419
118.451
118.484
118.516
118.549
118.581
118.614
118.646
118.679
118.711
118.744
118.776
118.808
118.841
118.873
118.906
118.938
118.97
119.002
119.035
119.067
119.099
119.131
119.164
119.196
119.228
119.26
119.292
119.324
119.357
119.389
119.421
119.453
119.485
119.517
119.549
119.581
119.613
119.645
119.677
119.708
119.74
119.772
119.804
119.836
119.868
119.899
119.931
119.963
119.995
120.026
120.058
120.09
120.121
120.153
120.185
120.216
120.248
120.279
120.311
120.342
120.374
120.405
120.437
120.468
120.499
120.531
120.562
120.593
120.625
120.656
120.687
120.718
120.75
120.781
120.812
120.843
120.874
120.905
120.936
120.967
120.998
121.029
121.06
121.091
121.122
121.153
121.184
121.215
121.245
121.276
121.307
121.338
121.368
121.399
121.43
121.46
121.491
121.522
121.552
121.583
121.613
121.644
121.674
121.705
121.735
121.765
121.796
121.826
121.856
121.886
121.917
121.947
121.977
122.007
122.037
122.067
122.097
122.127
122.157
122.187
122.217
122.247
122.277
122.307
122.337
122.367
122.396
122.426
122.456
122.486
122.515
122.545
122.574
122.604
122.633
122.663
122.692
122.722
122.751
122.781
122.81
122.839
122.869
122.898
122.927
122.956
122.985
123.015
123.044
123.073
123.102
123.131
123.16
123.189
123.218
123.246
123.275
123.304
123.333
123.362
123.39
123.419
123.448
123.476
123.505
123.533
123.562
123.59
123.619
123.647
123.676
123.704
123.732
123.761
123.789
123.817
123.845
123.874
123.902
123.93
123.958
123.986
124.014
124.042
124.07
124.098
124.126
124.154
124.182
124.209
124.237
124.265
124.293
124.32
124.348
124.375
124.403
124.431
124.458
124.486
124.513
124.54
124.568
124.595
124.623
124.65
124.677
124.704
124.732
124.759
124.786
124.813
124.84
124.867
124.894
124.921
124.948
124.975
125.002
125.029
125.056
125.083
125.11
125.136
125.163
125.19
125.217
125.243
125.27
125.296
125.323
125.35
125.376
125.403
125.429
125.456
125.482
125.509
125.535
125.561
125.588
125.614
125.64
125.667
125.693
125.719
125.745
125.771
125.798
125.824
125.85
125.876
125.902
125.928
125.954
125.98
126.006
126.032
126.058
126.084
126.11
126.136
126.162
126.187
126.213
126.239
126.265
126.291
126.316
126.342
126.368
126.394
126.419
126.445
126.471
126.496
126.522
126.548
126.573
126.599
126.624
126.65
126.675
126.701
126.726
126.752
126.777
126.803
126.828
126.854
126.879
126.905
126.93
126.955
126.981
127.006
127.031
127.057
127.082
127.107
127.133
127.158
127.183
127.209
127.234
127.259
127.284
127.31
127.335
127.36
127.385
127.411
127.436
127.461
127.486
127.511
127.537
127.562
127.587
127.612
127.637
127.662
127.688
127.713
127.738
127.763
127.788
127.813
127.838
127.863
127.889
127.914
127.939
127.964
127.989
128.014
128.039
128.064
128.089
128.114
128.139
128.164
128.19
128.215
128.24
128.265
128.29
128.315
128.34
128.365
128.39
128.415
128.44
128.465
128.49
128.515
128.54
128.565
128.59
128.615
128.64
128.665
128.69
128.715
128.74
128.765
128.79
128.816
128.841
128.866
128.891
128.916
128.941
128.966
128.991
129.016
129.041
129.066
129.091
129.116
129.141
129.166
129.191
129.216
129.241
129.266
129.291
129.316
129.341
129.366
129.391
129.416
129.442
129.467
129.492
129.517
129.542
129.567
129.592
129.617
129.642
129.667
129.692
129.717
129.742
129.767
129.792
129.818
129.843
129.868
129.893
129.918
129.943
129.968
129.993
130.018
130.043
130.068
130.094
130.119
130.144
130.169
130.194
130.219
130.244
130.269
130.294
130.32
130.345
130.37
130.395
130.42
130.445
130.47
130.496
130.521
130.546
130.571
130.596
130.621
130.647
130.672
130.697
130.722
130.747
130.772
130.798
130.823
130.848
130.873
130.898
130.923
130.949
130.974
130.999
131.024
131.05
131.075
131.1
131.125
131.15
131.176
131.201
131.226
131.251
131.277
131.302
131.327
131.352
131.377
131.403
131.428
131.453
131.478
131.504
131.529
131.554
131.58
131.605
131.63
131.655
131.681
131.706
131.731
131.757
131.782
131.807
131.832
131.858
131.883
131.908
131.934
131.959
131.984
132.01
132.035
132.06
132.086
132.111
132.136
132.162
132.187
132.212
132.238
132.263
132.288
132.314
132.339
132.364
132.39
132.415
132.441
132.466
132.491
132.517
132.542
132.567
132.593
132.618
132.644
132.669
132.694
132.72
132.745
132.771
132.796
132.821
132.847
132.872
132.898
132.923
132.949
132.974
132.999
133.025
133.05
133.076
133.101
133.127
133.152
133.178
133.203
133.229
133.254
133.279
133.305
133.33
133.356
133.381
133.407
133.432
133.458
133.483
133.509
133.534
133.56
133.585
133.611
133.636
133.662
133.687
133.713
133.738
133.764
133.79
133.815
133.841
133.866
133.892
133.917
133.943
133.968