/*--------------------------------*- C++ -*----------------------------------*\
  =========                 |
  \\      /  F ield         | OpenFOAM: The Open Source CFD Toolbox
   \\    /   O peration     | Website:  https://openfoam.org
    \\  /    A nd           | Version:  9
     \\/     M anipulation  |
\*---------------------------------------------------------------------------*/
FoamFile
{
    format      ascii;
    class       volVectorField;
    location    "0.035";
    object      U_0;
}
// * * * * * * * * * * * * * * * * * * * * * * * * * * * * * * * * * * * * * //

dimensions      [0 1 -1 0 0 0 0];

internalField   nonuniform List<vector> 
10000
(
(6.5504 0 0)
(6.59273 0 0)
(6.6405 0 0)
(6.67951 0 0)
(6.71467 0 0)
(6.75006 0 0)
(6.78628 0 0)
(6.82277 0 0)
(6.85922 0 0)
(6.89559 0 0)
(6.93194 0 0)
(6.9683 0 0)
(7.00466 0 0)
(7.04103 0 0)
(7.07739 0 0)
(7.11376 0 0)
(7.15012 0 0)
(7.18649 0 0)
(7.22285 0 0)
(7.25922 0 0)
(7.29558 0 0)
(7.33195 0 0)
(7.36831 0 0)
(7.40468 0 0)
(7.44105 0 0)
(7.47741 0 0)
(7.51378 0 0)
(7.55015 0 0)
(7.58652 0 0)
(7.62288 0 0)
(7.65925 0 0)
(7.69562 0 0)
(7.73199 0 0)
(7.76835 0 0)
(7.80472 0 0)
(7.84109 0 0)
(7.87746 0 0)
(7.91383 0 0)
(7.9502 0 0)
(7.98657 0 0)
(8.02294 0 0)
(8.05931 0 0)
(8.09568 0 0)
(8.13205 0 0)
(8.16842 0 0)
(8.20479 0 0)
(8.24116 0 0)
(8.27753 0 0)
(8.3139 0 0)
(8.35027 0 0)
(8.38664 0 0)
(8.42302 0 0)
(8.45939 0 0)
(8.49576 0 0)
(8.53213 0 0)
(8.5685 0 0)
(8.60488 0 0)
(8.64125 0 0)
(8.67762 0 0)
(8.714 0 0)
(8.75037 0 0)
(8.78674 0 0)
(8.82312 0 0)
(8.85949 0 0)
(8.89586 0 0)
(8.93224 0 0)
(8.96862 0 0)
(9.00499 0 0)
(9.04137 0 0)
(9.07774 0 0)
(9.11412 0 0)
(9.15049 0 0)
(9.18687 0 0)
(9.22324 0 0)
(9.25962 0 0)
(9.29599 0 0)
(9.33237 0 0)
(9.36875 0 0)
(9.40513 0 0)
(9.44151 0 0)
(9.47788 0 0)
(9.51426 0 0)
(9.55064 0 0)
(9.58701 0 0)
(9.62339 0 0)
(9.65977 0 0)
(9.69615 0 0)
(9.73252 0 0)
(9.7689 0 0)
(9.80528 0 0)
(9.84166 0 0)
(9.87804 0 0)
(9.91443 0 0)
(9.95081 0 0)
(9.98719 0 0)
(10.0236 0 0)
(10.0599 0 0)
(10.0963 0 0)
(10.1327 0 0)
(10.1691 0 0)
(10.2055 0 0)
(10.2418 0 0)
(10.2782 0 0)
(10.3146 0 0)
(10.351 0 0)
(10.3874 0 0)
(10.4238 0 0)
(10.4601 0 0)
(10.4965 0 0)
(10.5329 0 0)
(10.5693 0 0)
(10.6057 0 0)
(10.6421 0 0)
(10.6784 0 0)
(10.7148 0 0)
(10.7512 0 0)
(10.7876 0 0)
(10.824 0 0)
(10.8604 0 0)
(10.8968 0 0)
(10.9331 0 0)
(10.9695 0 0)
(11.0059 0 0)
(11.0423 0 0)
(11.0787 0 0)
(11.1151 0 0)
(11.1515 0 0)
(11.1879 0 0)
(11.2242 0 0)
(11.2606 0 0)
(11.297 0 0)
(11.3334 0 0)
(11.3698 0 0)
(11.4062 0 0)
(11.4426 0 0)
(11.479 0 0)
(11.5153 0 0)
(11.5517 0 0)
(11.5881 0 0)
(11.6245 0 0)
(11.6609 0 0)
(11.6973 0 0)
(11.7337 0 0)
(11.7701 0 0)
(11.8065 0 0)
(11.8428 0 0)
(11.8792 0 0)
(11.9156 0 0)
(11.952 0 0)
(11.9884 0 0)
(12.0248 0 0)
(12.0612 0 0)
(12.0976 0 0)
(12.134 0 0)
(12.1704 0 0)
(12.2067 0 0)
(12.2431 0 0)
(12.2795 0 0)
(12.3159 0 0)
(12.3523 0 0)
(12.3887 0 0)
(12.4251 0 0)
(12.4615 0 0)
(12.4979 0 0)
(12.5343 0 0)
(12.5707 0 0)
(12.6071 0 0)
(12.6435 0 0)
(12.6799 0 0)
(12.7163 0 0)
(12.7526 0 0)
(12.789 0 0)
(12.8254 0 0)
(12.8618 0 0)
(12.8982 0 0)
(12.9346 0 0)
(12.971 0 0)
(13.0074 0 0)
(13.0438 0 0)
(13.0802 0 0)
(13.1166 0 0)
(13.153 0 0)
(13.1894 0 0)
(13.2258 0 0)
(13.2622 0 0)
(13.2986 0 0)
(13.335 0 0)
(13.3714 0 0)
(13.4078 0 0)
(13.4442 0 0)
(13.4806 0 0)
(13.517 0 0)
(13.5534 0 0)
(13.5898 0 0)
(13.6262 0 0)
(13.6626 0 0)
(13.699 0 0)
(13.7354 0 0)
(13.7718 0 0)
(13.8082 0 0)
(13.8446 0 0)
(13.881 0 0)
(13.9174 0 0)
(13.9538 0 0)
(13.9902 0 0)
(14.0266 0 0)
(14.063 0 0)
(14.0994 0 0)
(14.1358 0 0)
(14.1722 0 0)
(14.2086 0 0)
(14.245 0 0)
(14.2814 0 0)
(14.3178 0 0)
(14.3542 0 0)
(14.3906 0 0)
(14.427 0 0)
(14.4634 0 0)
(14.4998 0 0)
(14.5362 0 0)
(14.5726 0 0)
(14.609 0 0)
(14.6454 0 0)
(14.6818 0 0)
(14.7182 0 0)
(14.7546 0 0)
(14.791 0 0)
(14.8274 0 0)
(14.8639 0 0)
(14.9003 0 0)
(14.9367 0 0)
(14.9731 0 0)
(15.0095 0 0)
(15.0459 0 0)
(15.0823 0 0)
(15.1187 0 0)
(15.1551 0 0)
(15.1915 0 0)
(15.2279 0 0)
(15.2643 0 0)
(15.3007 0 0)
(15.3371 0 0)
(15.3736 0 0)
(15.41 0 0)
(15.4464 0 0)
(15.4828 0 0)
(15.5192 0 0)
(15.5556 0 0)
(15.592 0 0)
(15.6284 0 0)
(15.6648 0 0)
(15.7012 0 0)
(15.7376 0 0)
(15.7741 0 0)
(15.8105 0 0)
(15.8469 0 0)
(15.8833 0 0)
(15.9197 0 0)
(15.9561 0 0)
(15.9925 0 0)
(16.0289 0 0)
(16.0653 0 0)
(16.1018 0 0)
(16.1382 0 0)
(16.1746 0 0)
(16.211 0 0)
(16.2474 0 0)
(16.2838 0 0)
(16.3202 0 0)
(16.3566 0 0)
(16.3931 0 0)
(16.4295 0 0)
(16.4659 0 0)
(16.5023 0 0)
(16.5387 0 0)
(16.5751 0 0)
(16.6115 0 0)
(16.648 0 0)
(16.6844 0 0)
(16.7208 0 0)
(16.7572 0 0)
(16.7936 0 0)
(16.83 0 0)
(16.8664 0 0)
(16.9029 0 0)
(16.9393 0 0)
(16.9757 0 0)
(17.0121 0 0)
(17.0485 0 0)
(17.0849 0 0)
(17.1214 0 0)
(17.1578 0 0)
(17.1942 0 0)
(17.2306 0 0)
(17.267 0 0)
(17.3034 0 0)
(17.3399 0 0)
(17.3763 0 0)
(17.4127 0 0)
(17.4491 0 0)
(17.4855 0 0)
(17.522 0 0)
(17.5584 0 0)
(17.5948 0 0)
(17.6312 0 0)
(17.6676 0 0)
(17.7041 0 0)
(17.7405 0 0)
(17.7769 0 0)
(17.8133 0 0)
(17.8497 0 0)
(17.8862 0 0)
(17.9226 0 0)
(17.959 0 0)
(17.9954 0 0)
(18.0318 0 0)
(18.0683 0 0)
(18.1047 0 0)
(18.1411 0 0)
(18.1775 0 0)
(18.214 0 0)
(18.2504 0 0)
(18.2868 0 0)
(18.3232 0 0)
(18.3597 0 0)
(18.3961 0 0)
(18.4325 0 0)
(18.4689 0 0)
(18.5053 0 0)
(18.5418 0 0)
(18.5782 0 0)
(18.6146 0 0)
(18.651 0 0)
(18.6875 0 0)
(18.7239 0 0)
(18.7603 0 0)
(18.7967 0 0)
(18.8332 0 0)
(18.8696 0 0)
(18.906 0 0)
(18.9425 0 0)
(18.9789 0 0)
(19.0153 0 0)
(19.0517 0 0)
(19.0882 0 0)
(19.1246 0 0)
(19.161 0 0)
(19.1974 0 0)
(19.2339 0 0)
(19.2703 0 0)
(19.3067 0 0)
(19.3432 0 0)
(19.3796 0 0)
(19.416 0 0)
(19.4524 0 0)
(19.4889 0 0)
(19.5253 0 0)
(19.5617 0 0)
(19.5982 0 0)
(19.6346 0 0)
(19.671 0 0)
(19.7074 0 0)
(19.7439 0 0)
(19.7803 0 0)
(19.8167 0 0)
(19.8532 0 0)
(19.8896 0 0)
(19.926 0 0)
(19.9625 0 0)
(19.9989 0 0)
(20.0353 0 0)
(20.0718 0 0)
(20.1082 0 0)
(20.1446 0 0)
(20.1811 0 0)
(20.2175 0 0)
(20.2539 0 0)
(20.2904 0 0)
(20.3268 0 0)
(20.3632 0 0)
(20.3997 0 0)
(20.4361 0 0)
(20.4725 0 0)
(20.509 0 0)
(20.5454 0 0)
(20.5818 0 0)
(20.6183 0 0)
(20.6547 0 0)
(20.6911 0 0)
(20.7276 0 0)
(20.764 0 0)
(20.8004 0 0)
(20.8369 0 0)
(20.8733 0 0)
(20.9098 0 0)
(20.9462 0 0)
(20.9826 0 0)
(21.0191 0 0)
(21.0555 0 0)
(21.0919 0 0)
(21.1284 0 0)
(21.1648 0 0)
(21.2012 0 0)
(21.2377 0 0)
(21.2741 0 0)
(21.3106 0 0)
(21.347 0 0)
(21.3834 0 0)
(21.4199 0 0)
(21.4563 0 0)
(21.4928 0 0)
(21.5292 0 0)
(21.5656 0 0)
(21.6021 0 0)
(21.6385 0 0)
(21.675 0 0)
(21.7114 0 0)
(21.7478 0 0)
(21.7843 0 0)
(21.8207 0 0)
(21.8572 0 0)
(21.8936 0 0)
(21.93 0 0)
(21.9665 0 0)
(22.0029 0 0)
(22.0394 0 0)
(22.0758 0 0)
(22.1122 0 0)
(22.1487 0 0)
(22.1851 0 0)
(22.2216 0 0)
(22.258 0 0)
(22.2945 0 0)
(22.3309 0 0)
(22.3673 0 0)
(22.4038 0 0)
(22.4402 0 0)
(22.4767 0 0)
(22.5131 0 0)
(22.5496 0 0)
(22.586 0 0)
(22.6225 0 0)
(22.6589 0 0)
(22.6953 0 0)
(22.7318 0 0)
(22.7682 0 0)
(22.8047 0 0)
(22.8411 0 0)
(22.8776 0 0)
(22.914 0 0)
(22.9505 0 0)
(22.9869 0 0)
(23.0234 0 0)
(23.0598 0 0)
(23.0963 0 0)
(23.1327 0 0)
(23.1692 0 0)
(23.2056 0 0)
(23.242 0 0)
(23.2785 0 0)
(23.3149 0 0)
(23.3514 0 0)
(23.3878 0 0)
(23.4243 0 0)
(23.4607 0 0)
(23.4972 0 0)
(23.5336 0 0)
(23.5701 0 0)
(23.6065 0 0)
(23.643 0 0)
(23.6794 0 0)
(23.7159 0 0)
(23.7523 0 0)
(23.7888 0 0)
(23.8252 0 0)
(23.8617 0 0)
(23.8981 0 0)
(23.9346 0 0)
(23.971 0 0)
(24.0075 0 0)
(24.0439 0 0)
(24.0804 0 0)
(24.1168 0 0)
(24.1533 0 0)
(24.1898 0 0)
(24.2262 0 0)
(24.2627 0 0)
(24.2991 0 0)
(24.3356 0 0)
(24.372 0 0)
(24.4085 0 0)
(24.4449 0 0)
(24.4814 0 0)
(24.5178 0 0)
(24.5543 0 0)
(24.5907 0 0)
(24.6272 0 0)
(24.6637 0 0)
(24.7001 0 0)
(24.7366 0 0)
(24.773 0 0)
(24.8095 0 0)
(24.8459 0 0)
(24.8824 0 0)
(24.9188 0 0)
(24.9553 0 0)
(24.9918 0 0)
(25.0282 0 0)
(25.0647 0 0)
(25.1011 0 0)
(25.1376 0 0)
(25.174 0 0)
(25.2105 0 0)
(25.247 0 0)
(25.2834 0 0)
(25.3199 0 0)
(25.3563 0 0)
(25.3928 0 0)
(25.4292 0 0)
(25.4657 0 0)
(25.5022 0 0)
(25.5386 0 0)
(25.5751 0 0)
(25.6115 0 0)
(25.648 0 0)
(25.6845 0 0)
(25.7209 0 0)
(25.7574 0 0)
(25.7938 0 0)
(25.8303 0 0)
(25.8668 0 0)
(25.9032 0 0)
(25.9397 0 0)
(25.9761 0 0)
(26.0126 0 0)
(26.0491 0 0)
(26.0855 0 0)
(26.122 0 0)
(26.1585 0 0)
(26.1949 0 0)
(26.2314 0 0)
(26.2678 0 0)
(26.3043 0 0)
(26.3408 0 0)
(26.3772 0 0)
(26.4137 0 0)
(26.4502 0 0)
(26.4866 0 0)
(26.5231 0 0)
(26.5595 0 0)
(26.596 0 0)
(26.6325 0 0)
(26.6689 0 0)
(26.7054 0 0)
(26.7419 0 0)
(26.7783 0 0)
(26.8148 0 0)
(26.8513 0 0)
(26.8877 0 0)
(26.9242 0 0)
(26.9607 0 0)
(26.9971 0 0)
(27.0336 0 0)
(27.0701 0 0)
(27.1065 0 0)
(27.143 0 0)
(27.1795 0 0)
(27.2159 0 0)
(27.2524 0 0)
(27.2889 0 0)
(27.3253 0 0)
(27.3618 0 0)
(27.3983 0 0)
(27.4347 0 0)
(27.4712 0 0)
(27.5077 0 0)
(27.5441 0 0)
(27.5806 0 0)
(27.6171 0 0)
(27.6535 0 0)
(27.69 0 0)
(27.7265 0 0)
(27.763 0 0)
(27.7994 0 0)
(27.8359 0 0)
(27.8724 0 0)
(27.9088 0 0)
(27.9453 0 0)
(27.9818 0 0)
(28.0182 0 0)
(28.0547 0 0)
(28.0912 0 0)
(28.1277 0 0)
(28.1641 0 0)
(28.2006 0 0)
(28.2371 0 0)
(28.2735 0 0)
(28.31 0 0)
(28.3465 0 0)
(28.383 0 0)
(28.4194 0 0)
(28.4559 0 0)
(28.4924 0 0)
(28.5289 0 0)
(28.5653 0 0)
(28.6018 0 0)
(28.6383 0 0)
(28.6748 0 0)
(28.7112 0 0)
(28.7477 0 0)
(28.7842 0 0)
(28.8207 0 0)
(28.8571 0 0)
(28.8936 0 0)
(28.9301 0 0)
(28.9666 0 0)
(29.003 0 0)
(29.0395 0 0)
(29.076 0 0)
(29.1125 0 0)
(29.1489 0 0)
(29.1854 0 0)
(29.2219 0 0)
(29.2584 0 0)
(29.2948 0 0)
(29.3313 0 0)
(29.3678 0 0)
(29.4043 0 0)
(29.4408 0 0)
(29.4772 0 0)
(29.5137 0 0)
(29.5502 0 0)
(29.5867 0 0)
(29.6231 0 0)
(29.6596 0 0)
(29.6961 0 0)
(29.7326 0 0)
(29.7691 0 0)
(29.8055 0 0)
(29.842 0 0)
(29.8785 0 0)
(29.915 0 0)
(29.9515 0 0)
(29.9879 0 0)
(30.0244 0 0)
(30.0609 0 0)
(30.0974 0 0)
(30.1339 0 0)
(30.1703 0 0)
(30.2068 0 0)
(30.2433 0 0)
(30.2798 0 0)
(30.3163 0 0)
(30.3528 0 0)
(30.3892 0 0)
(30.4257 0 0)
(30.4622 0 0)
(30.4987 0 0)
(30.5352 0 0)
(30.5716 0 0)
(30.6081 0 0)
(30.6446 0 0)
(30.6811 0 0)
(30.7176 0 0)
(30.7541 0 0)
(30.7905 0 0)
(30.827 0 0)
(30.8635 0 0)
(30.9 0 0)
(30.9365 0 0)
(30.973 0 0)
(31.0095 0 0)
(31.0459 0 0)
(31.0824 0 0)
(31.1189 0 0)
(31.1554 0 0)
(31.1919 0 0)
(31.2284 0 0)
(31.2649 0 0)
(31.3013 0 0)
(31.3378 0 0)
(31.3743 0 0)
(31.4108 0 0)
(31.4473 0 0)
(31.4838 0 0)
(31.5203 0 0)
(31.5568 0 0)
(31.5932 0 0)
(31.6297 0 0)
(31.6662 0 0)
(31.7027 0 0)
(31.7392 0 0)
(31.7757 0 0)
(31.8122 0 0)
(31.8487 0 0)
(31.8851 0 0)
(31.9216 0 0)
(31.9581 0 0)
(31.9946 0 0)
(32.0311 0 0)
(32.0676 0 0)
(32.1041 0 0)
(32.1406 0 0)
(32.1771 0 0)
(32.2136 0 0)
(32.25 0 0)
(32.2865 0 0)
(32.323 0 0)
(32.3595 0 0)
(32.396 0 0)
(32.4325 0 0)
(32.469 0 0)
(32.5055 0 0)
(32.542 0 0)
(32.5785 0 0)
(32.615 0 0)
(32.6515 0 0)
(32.688 0 0)
(32.7244 0 0)
(32.7609 0 0)
(32.7974 0 0)
(32.8339 0 0)
(32.8704 0 0)
(32.9069 0 0)
(32.9434 0 0)
(32.9799 0 0)
(33.0164 0 0)
(33.0529 0 0)
(33.0894 0 0)
(33.1259 0 0)
(33.1624 0 0)
(33.1989 0 0)
(33.2354 0 0)
(33.2719 0 0)
(33.3084 0 0)
(33.3449 0 0)
(33.3813 0 0)
(33.4178 0 0)
(33.4543 0 0)
(33.4908 0 0)
(33.5273 0 0)
(33.5638 0 0)
(33.6003 0 0)
(33.6368 0 0)
(33.6733 0 0)
(33.7098 0 0)
(33.7463 0 0)
(33.7828 0 0)
(33.8193 0 0)
(33.8558 0 0)
(33.8923 0 0)
(33.9288 0 0)
(33.9653 0 0)
(34.0018 0 0)
(34.0383 0 0)
(34.0748 0 0)
(34.1113 0 0)
(34.1478 0 0)
(34.1843 0 0)
(34.2208 0 0)
(34.2573 0 0)
(34.2938 0 0)
(34.3303 0 0)
(34.3668 0 0)
(34.4033 0 0)
(34.4398 0 0)
(34.4763 0 0)
(34.5128 0 0)
(34.5493 0 0)
(34.5858 0 0)
(34.6223 0 0)
(34.6588 0 0)
(34.6953 0 0)
(34.7318 0 0)
(34.7683 0 0)
(34.8048 0 0)
(34.8413 0 0)
(34.8778 0 0)
(34.9143 0 0)
(34.9508 0 0)
(34.9873 0 0)
(35.0238 0 0)
(35.0603 0 0)
(35.0969 0 0)
(35.1334 0 0)
(35.1699 0 0)
(35.2064 0 0)
(35.2429 0 0)
(35.2794 0 0)
(35.3159 0 0)
(35.3524 0 0)
(35.3889 0 0)
(35.4254 0 0)
(35.4619 0 0)
(35.4984 0 0)
(35.5349 0 0)
(35.5714 0 0)
(35.6079 0 0)
(35.6444 0 0)
(35.6809 0 0)
(35.7174 0 0)
(35.754 0 0)
(35.7905 0 0)
(35.827 0 0)
(35.8635 0 0)
(35.9 0 0)
(35.9365 0 0)
(35.973 0 0)
(36.0095 0 0)
(36.046 0 0)
(36.0825 0 0)
(36.119 0 0)
(36.1555 0 0)
(36.192 0 0)
(36.2286 0 0)
(36.2651 0 0)
(36.3016 0 0)
(36.3381 0 0)
(36.3746 0 0)
(36.4111 0 0)
(36.4476 0 0)
(36.4841 0 0)
(36.5206 0 0)
(36.5571 0 0)
(36.5937 0 0)
(36.6302 0 0)
(36.6667 0 0)
(36.7032 0 0)
(36.7397 0 0)
(36.7762 0 0)
(36.8127 0 0)
(36.8492 0 0)
(36.8857 0 0)
(36.9223 0 0)
(36.9588 0 0)
(36.9953 0 0)
(37.0318 0 0)
(37.0683 0 0)
(37.1048 0 0)
(37.1413 0 0)
(37.1778 0 0)
(37.2144 0 0)
(37.2509 0 0)
(37.2874 0 0)
(37.3239 0 0)
(37.3604 0 0)
(37.3969 0 0)
(37.4334 0 0)
(37.47 0 0)
(37.5065 0 0)
(37.543 0 0)
(37.5795 0 0)
(37.616 0 0)
(37.6525 0 0)
(37.689 0 0)
(37.7256 0 0)
(37.7621 0 0)
(37.7986 0 0)
(37.8351 0 0)
(37.8716 0 0)
(37.9081 0 0)
(37.9447 0 0)
(37.9812 0 0)
(38.0177 0 0)
(38.0542 0 0)
(38.0907 0 0)
(38.1272 0 0)
(38.1638 0 0)
(38.2003 0 0)
(38.2368 0 0)
(38.2733 0 0)
(38.3098 0 0)
(38.3464 0 0)
(38.3829 0 0)
(38.4194 0 0)
(38.4559 0 0)
(38.4924 0 0)
(38.5289 0 0)
(38.5655 0 0)
(38.602 0 0)
(38.6385 0 0)
(38.675 0 0)
(38.7115 0 0)
(38.7481 0 0)
(38.7846 0 0)
(38.8211 0 0)
(38.8576 0 0)
(38.8941 0 0)
(38.9307 0 0)
(38.9672 0 0)
(39.0037 0 0)
(39.0402 0 0)
(39.0768 0 0)
(39.1133 0 0)
(39.1498 0 0)
(39.1863 0 0)
(39.2228 0 0)
(39.2594 0 0)
(39.2959 0 0)
(39.3324 0 0)
(39.3689 0 0)
(39.4055 0 0)
(39.442 0 0)
(39.4785 0 0)
(39.515 0 0)
(39.5515 0 0)
(39.5881 0 0)
(39.6246 0 0)
(39.6611 0 0)
(39.6976 0 0)
(39.7342 0 0)
(39.7707 0 0)
(39.8072 0 0)
(39.8437 0 0)
(39.8803 0 0)
(39.9168 0 0)
(39.9533 0 0)
(39.9898 0 0)
(40.0264 0 0)
(40.0629 0 0)
(40.0994 0 0)
(40.1359 0 0)
(40.1725 0 0)
(40.209 0 0)
(40.2455 0 0)
(40.2821 0 0)
(40.3186 0 0)
(40.3551 0 0)
(40.3916 0 0)
(40.4282 0 0)
(40.4647 0 0)
(40.5012 0 0)
(40.5377 0 0)
(40.5743 0 0)
(40.6108 0 0)
(40.6473 0 0)
(40.6839 0 0)
(40.7204 0 0)
(40.7569 0 0)
(40.7934 0 0)
(40.83 0 0)
(40.8665 0 0)
(40.903 0 0)
(40.9396 0 0)
(40.9761 0 0)
(41.0126 0 0)
(41.0491 0 0)
(41.0857 0 0)
(41.1222 0 0)
(41.1587 0 0)
(41.1953 0 0)
(41.2318 0 0)
(41.2683 0 0)
(41.3049 0 0)
(41.3414 0 0)
(41.3779 0 0)
(41.4145 0 0)
(41.451 0 0)
(41.4875 0 0)
(41.5241 0 0)
(41.5606 0 0)
(41.5971 0 0)
(41.6337 0 0)
(41.6702 0 0)
(41.7067 0 0)
(41.7433 0 0)
(41.7798 0 0)
(41.8163 0 0)
(41.8529 0 0)
(41.8894 0 0)
(41.9259 0 0)
(41.9625 0 0)
(41.999 0 0)
(42.0355 0 0)
(42.0721 0 0)
(42.1086 0 0)
(42.1451 0 0)
(42.1817 0 0)
(42.2182 0 0)
(42.2547 0 0)
(42.2913 0 0)
(42.3278 0 0)
(42.3643 0 0)
(42.4009 0 0)
(42.4374 0 0)
(42.4739 0 0)
(42.5105 0 0)
(42.547 0 0)
(42.5836 0 0)
(42.6201 0 0)
(42.6566 0 0)
(42.6932 0 0)
(42.7297 0 0)
(42.7662 0 0)
(42.8028 0 0)
(42.8393 0 0)
(42.8759 0 0)
(42.9124 0 0)
(42.9489 0 0)
(42.9855 0 0)
(43.022 0 0)
(43.0585 0 0)
(43.0951 0 0)
(43.1316 0 0)
(43.1682 0 0)
(43.2047 0 0)
(43.2412 0 0)
(43.2778 0 0)
(43.3143 0 0)
(43.3509 0 0)
(43.3874 0 0)
(43.4239 0 0)
(43.4605 0 0)
(43.497 0 0)
(43.5336 0 0)
(43.5701 0 0)
(43.6066 0 0)
(43.6432 0 0)
(43.6797 0 0)
(43.7163 0 0)
(43.7528 0 0)
(43.7893 0 0)
(43.8259 0 0)
(43.8624 0 0)
(43.899 0 0)
(43.9355 0 0)
(43.9721 0 0)
(44.0086 0 0)
(44.0451 0 0)
(44.0817 0 0)
(44.1182 0 0)
(44.1548 0 0)
(44.1913 0 0)
(44.2279 0 0)
(44.2644 0 0)
(44.3009 0 0)
(44.3375 0 0)
(44.374 0 0)
(44.4106 0 0)
(44.4471 0 0)
(44.4837 0 0)
(44.5202 0 0)
(44.5568 0 0)
(44.5933 0 0)
(44.6298 0 0)
(44.6664 0 0)
(44.7029 0 0)
(44.7395 0 0)
(44.776 0 0)
(44.8126 0 0)
(44.8491 0 0)
(44.8857 0 0)
(44.9222 0 0)
(44.9588 0 0)
(44.9953 0 0)
(45.0319 0 0)
(45.0684 0 0)
(45.1049 0 0)
(45.1415 0 0)
(45.178 0 0)
(45.2146 0 0)
(45.2511 0 0)
(45.2877 0 0)
(45.3242 0 0)
(45.3608 0 0)
(45.3973 0 0)
(45.4339 0 0)
(45.4704 0 0)
(45.507 0 0)
(45.5435 0 0)
(45.5801 0 0)
(45.6166 0 0)
(45.6532 0 0)
(45.6897 0 0)
(45.7263 0 0)
(45.7628 0 0)
(45.7994 0 0)
(45.8359 0 0)
(45.8725 0 0)
(45.909 0 0)
(45.9456 0 0)
(45.9821 0 0)
(46.0187 0 0)
(46.0552 0 0)
(46.0918 0 0)
(46.1283 0 0)
(46.1649 0 0)
(46.2014 0 0)
(46.238 0 0)
(46.2745 0 0)
(46.3111 0 0)
(46.3476 0 0)
(46.3842 0 0)
(46.4207 0 0)
(46.4573 0 0)
(46.4938 0 0)
(46.5304 0 0)
(46.5669 0 0)
(46.6035 0 0)
(46.6401 0 0)
(46.6766 0 0)
(46.7132 0 0)
(46.7497 0 0)
(46.7863 0 0)
(46.8228 0 0)
(46.8594 0 0)
(46.8959 0 0)
(46.9325 0 0)
(46.969 0 0)
(47.0056 0 0)
(47.0421 0 0)
(47.0787 0 0)
(47.1153 0 0)
(47.1518 0 0)
(47.1884 0 0)
(47.2249 0 0)
(47.2615 0 0)
(47.298 0 0)
(47.3346 0 0)
(47.3711 0 0)
(47.4077 0 0)
(47.4443 0 0)
(47.4808 0 0)
(47.5174 0 0)
(47.5539 0 0)
(47.5905 0 0)
(47.627 0 0)
(47.6636 0 0)
(47.7002 0 0)
(47.7367 0 0)
(47.7733 0 0)
(47.8098 0 0)
(47.8464 0 0)
(47.883 0 0)
(47.9195 0 0)
(47.9561 0 0)
(47.9926 0 0)
(48.0292 0 0)
(48.0657 0 0)
(48.1023 0 0)
(48.1389 0 0)
(48.1754 0 0)
(48.212 0 0)
(48.2485 0 0)
(48.2851 0 0)
(48.3217 0 0)
(48.3582 0 0)
(48.3948 0 0)
(48.4313 0 0)
(48.4679 0 0)
(48.5045 0 0)
(48.541 0 0)
(48.5776 0 0)
(48.6141 0 0)
(48.6507 0 0)
(48.6873 0 0)
(48.7238 0 0)
(48.7604 0 0)
(48.797 0 0)
(48.8335 0 0)
(48.8701 0 0)
(48.9066 0 0)
(48.9432 0 0)
(48.9798 0 0)
(49.0163 0 0)
(49.0529 0 0)
(49.0895 0 0)
(49.126 0 0)
(49.1626 0 0)
(49.1991 0 0)
(49.2357 0 0)
(49.2723 0 0)
(49.3088 0 0)
(49.3454 0 0)
(49.382 0 0)
(49.4185 0 0)
(49.4551 0 0)
(49.4917 0 0)
(49.5282 0 0)
(49.5648 0 0)
(49.6013 0 0)
(49.6379 0 0)
(49.6745 0 0)
(49.711 0 0)
(49.7476 0 0)
(49.7842 0 0)
(49.8207 0 0)
(49.8573 0 0)
(49.8939 0 0)
(49.9304 0 0)
(49.967 0 0)
(50.0036 0 0)
(50.0401 0 0)
(50.0767 0 0)
(50.1133 0 0)
(50.1498 0 0)
(50.1864 0 0)
(50.223 0 0)
(50.2595 0 0)
(50.2961 0 0)
(50.3327 0 0)
(50.3692 0 0)
(50.4058 0 0)
(50.4424 0 0)
(50.4789 0 0)
(50.5155 0 0)
(50.5521 0 0)
(50.5887 0 0)
(50.6252 0 0)
(50.6618 0 0)
(50.6984 0 0)
(50.7349 0 0)
(50.7715 0 0)
(50.8081 0 0)
(50.8446 0 0)
(50.8812 0 0)
(50.9178 0 0)
(50.9543 0 0)
(50.9909 0 0)
(51.0275 0 0)
(51.0641 0 0)
(51.1006 0 0)
(51.1372 0 0)
(51.1738 0 0)
(51.2103 0 0)
(51.2469 0 0)
(51.2835 0 0)
(51.3201 0 0)
(51.3566 0 0)
(51.3932 0 0)
(51.4298 0 0)
(51.4663 0 0)
(51.5029 0 0)
(51.5395 0 0)
(51.5761 0 0)
(51.6126 0 0)
(51.6492 0 0)
(51.6858 0 0)
(51.7223 0 0)
(51.7589 0 0)
(51.7955 0 0)
(51.8321 0 0)
(51.8686 0 0)
(51.9052 0 0)
(51.9418 0 0)
(51.9784 0 0)
(52.0149 0 0)
(52.0515 0 0)
(52.0881 0 0)
(52.1247 0 0)
(52.1612 0 0)
(52.1978 0 0)
(52.2344 0 0)
(52.271 0 0)
(52.3075 0 0)
(52.3441 0 0)
(52.3807 0 0)
(52.4173 0 0)
(52.4538 0 0)
(52.4904 0 0)
(52.527 0 0)
(52.5636 0 0)
(52.6001 0 0)
(52.6367 0 0)
(52.6733 0 0)
(52.7099 0 0)
(52.7464 0 0)
(52.783 0 0)
(52.8196 0 0)
(52.8562 0 0)
(52.8928 0 0)
(52.9293 0 0)
(52.9659 0 0)
(53.0025 0 0)
(53.0391 0 0)
(53.0756 0 0)
(53.1122 0 0)
(53.1488 0 0)
(53.1854 0 0)
(53.222 0 0)
(53.2585 0 0)
(53.2951 0 0)
(53.3317 0 0)
(53.3683 0 0)
(53.4048 0 0)
(53.4414 0 0)
(53.478 0 0)
(53.5146 0 0)
(53.5512 0 0)
(53.5877 0 0)
(53.6243 0 0)
(53.6609 0 0)
(53.6975 0 0)
(53.7341 0 0)
(53.7706 0 0)
(53.8072 0 0)
(53.8438 0 0)
(53.8804 0 0)
(53.917 0 0)
(53.9535 0 0)
(53.9901 0 0)
(54.0267 0 0)
(54.0633 0 0)
(54.0999 0 0)
(54.1365 0 0)
(54.173 0 0)
(54.2096 0 0)
(54.2462 0 0)
(54.2828 0 0)
(54.3194 0 0)
(54.3559 0 0)
(54.3925 0 0)
(54.4291 0 0)
(54.4657 0 0)
(54.5023 0 0)
(54.5389 0 0)
(54.5754 0 0)
(54.612 0 0)
(54.6486 0 0)
(54.6852 0 0)
(54.7218 0 0)
(54.7584 0 0)
(54.7949 0 0)
(54.8315 0 0)
(54.8681 0 0)
(54.9047 0 0)
(54.9413 0 0)
(54.9779 0 0)
(55.0145 0 0)
(55.051 0 0)
(55.0876 0 0)
(55.1242 0 0)
(55.1608 0 0)
(55.1974 0 0)
(55.234 0 0)
(55.2705 0 0)
(55.3071 0 0)
(55.3437 0 0)
(55.3803 0 0)
(55.4169 0 0)
(55.4535 0 0)
(55.4901 0 0)
(55.5267 0 0)
(55.5632 0 0)
(55.5998 0 0)
(55.6364 0 0)
(55.673 0 0)
(55.7096 0 0)
(55.7462 0 0)
(55.7828 0 0)
(55.8193 0 0)
(55.8559 0 0)
(55.8925 0 0)
(55.9291 0 0)
(55.9657 0 0)
(56.0023 0 0)
(56.0389 0 0)
(56.0755 0 0)
(56.1121 0 0)
(56.1486 0 0)
(56.1852 0 0)
(56.2218 0 0)
(56.2584 0 0)
(56.295 0 0)
(56.3316 0 0)
(56.3682 0 0)
(56.4048 0 0)
(56.4414 0 0)
(56.4779 0 0)
(56.5145 0 0)
(56.5511 0 0)
(56.5877 0 0)
(56.6243 0 0)
(56.6609 0 0)
(56.6975 0 0)
(56.7341 0 0)
(56.7707 0 0)
(56.8073 0 0)
(56.8439 0 0)
(56.8804 0 0)
(56.917 0 0)
(56.9536 0 0)
(56.9902 0 0)
(57.0268 0 0)
(57.0634 0 0)
(57.1 0 0)
(57.1366 0 0)
(57.1732 0 0)
(57.2098 0 0)
(57.2464 0 0)
(57.283 0 0)
(57.3195 0 0)
(57.3561 0 0)
(57.3927 0 0)
(57.4293 0 0)
(57.4659 0 0)
(57.5025 0 0)
(57.5391 0 0)
(57.5757 0 0)
(57.6123 0 0)
(57.6489 0 0)
(57.6855 0 0)
(57.7221 0 0)
(57.7587 0 0)
(57.7953 0 0)
(57.8319 0 0)
(57.8684 0 0)
(57.905 0 0)
(57.9416 0 0)
(57.9782 0 0)
(58.0148 0 0)
(58.0514 0 0)
(58.088 0 0)
(58.1246 0 0)
(58.1612 0 0)
(58.1978 0 0)
(58.2344 0 0)
(58.271 0 0)
(58.3076 0 0)
(58.3442 0 0)
(58.3808 0 0)
(58.4174 0 0)
(58.454 0 0)
(58.4906 0 0)
(58.5272 0 0)
(58.5638 0 0)
(58.6004 0 0)
(58.637 0 0)
(58.6736 0 0)
(58.7102 0 0)
(58.7468 0 0)
(58.7833 0 0)
(58.8199 0 0)
(58.8565 0 0)
(58.8931 0 0)
(58.9297 0 0)
(58.9663 0 0)
(59.0029 0 0)
(59.0395 0 0)
(59.0761 0 0)
(59.1127 0 0)
(59.1493 0 0)
(59.1859 0 0)
(59.2225 0 0)
(59.2591 0 0)
(59.2957 0 0)
(59.3323 0 0)
(59.3689 0 0)
(59.4055 0 0)
(59.4421 0 0)
(59.4787 0 0)
(59.5153 0 0)
(59.5519 0 0)
(59.5885 0 0)
(59.6251 0 0)
(59.6617 0 0)
(59.6983 0 0)
(59.7349 0 0)
(59.7715 0 0)
(59.8081 0 0)
(59.8447 0 0)
(59.8813 0 0)
(59.9179 0 0)
(59.9545 0 0)
(59.9911 0 0)
(60.0277 0 0)
(60.0643 0 0)
(60.1009 0 0)
(60.1375 0 0)
(60.1741 0 0)
(60.2107 0 0)
(60.2473 0 0)
(60.2839 0 0)
(60.3205 0 0)
(60.3571 0 0)
(60.3937 0 0)
(60.4303 0 0)
(60.4669 0 0)
(60.5036 0 0)
(60.5402 0 0)
(60.5768 0 0)
(60.6134 0 0)
(60.65 0 0)
(60.6866 0 0)
(60.7232 0 0)
(60.7598 0 0)
(60.7964 0 0)
(60.833 0 0)
(60.8696 0 0)
(60.9062 0 0)
(60.9428 0 0)
(60.9794 0 0)
(61.016 0 0)
(61.0526 0 0)
(61.0892 0 0)
(61.1258 0 0)
(61.1624 0 0)
(61.199 0 0)
(61.2356 0 0)
(61.2722 0 0)
(61.3088 0 0)
(61.3454 0 0)
(61.382 0 0)
(61.4187 0 0)
(61.4553 0 0)
(61.4919 0 0)
(61.5285 0 0)
(61.5651 0 0)
(61.6017 0 0)
(61.6383 0 0)
(61.6749 0 0)
(61.7115 0 0)
(61.7481 0 0)
(61.7847 0 0)
(61.8213 0 0)
(61.8579 0 0)
(61.8945 0 0)
(61.9311 0 0)
(61.9677 0 0)
(62.0044 0 0)
(62.041 0 0)
(62.0776 0 0)
(62.1142 0 0)
(62.1508 0 0)
(62.1874 0 0)
(62.224 0 0)
(62.2606 0 0)
(62.2972 0 0)
(62.3338 0 0)
(62.3704 0 0)
(62.407 0 0)
(62.4436 0 0)
(62.4803 0 0)
(62.5169 0 0)
(62.5535 0 0)
(62.5901 0 0)
(62.6267 0 0)
(62.6633 0 0)
(62.6999 0 0)
(62.7365 0 0)
(62.7731 0 0)
(62.8097 0 0)
(62.8463 0 0)
(62.883 0 0)
(62.9196 0 0)
(62.9562 0 0)
(62.9928 0 0)
(63.0294 0 0)
(63.066 0 0)
(63.1026 0 0)
(63.1392 0 0)
(63.1758 0 0)
(63.2124 0 0)
(63.2491 0 0)
(63.2857 0 0)
(63.3223 0 0)
(63.3589 0 0)
(63.3955 0 0)
(63.4321 0 0)
(63.4687 0 0)
(63.5053 0 0)
(63.5419 0 0)
(63.5786 0 0)
(63.6152 0 0)
(63.6518 0 0)
(63.6884 0 0)
(63.725 0 0)
(63.7616 0 0)
(63.7982 0 0)
(63.8348 0 0)
(63.8715 0 0)
(63.9081 0 0)
(63.9447 0 0)
(63.9813 0 0)
(64.0179 0 0)
(64.0545 0 0)
(64.0911 0 0)
(64.1277 0 0)
(64.1644 0 0)
(64.201 0 0)
(64.2376 0 0)
(64.2742 0 0)
(64.3108 0 0)
(64.3474 0 0)
(64.384 0 0)
(64.4207 0 0)
(64.4573 0 0)
(64.4939 0 0)
(64.5305 0 0)
(64.5671 0 0)
(64.6037 0 0)
(64.6403 0 0)
(64.6769 0 0)
(64.7136 0 0)
(64.7502 0 0)
(64.7868 0 0)
(64.8234 0 0)
(64.86 0 0)
(64.8966 0 0)
(64.9333 0 0)
(64.9699 0 0)
(65.0065 0 0)
(65.0431 0 0)
(65.0797 0 0)
(65.1163 0 0)
(65.1529 0 0)
(65.1896 0 0)
(65.2262 0 0)
(65.2628 0 0)
(65.2994 0 0)
(65.336 0 0)
(65.3726 0 0)
(65.4093 0 0)
(65.4459 0 0)
(65.4825 0 0)
(65.5191 0 0)
(65.5557 0 0)
(65.5923 0 0)
(65.629 0 0)
(65.6656 0 0)
(65.7022 0 0)
(65.7388 0 0)
(65.7754 0 0)
(65.812 0 0)
(65.8487 0 0)
(65.8853 0 0)
(65.9219 0 0)
(65.9585 0 0)
(65.9951 0 0)
(66.0317 0 0)
(66.0684 0 0)
(66.105 0 0)
(66.1416 0 0)
(66.1782 0 0)
(66.2148 0 0)
(66.2515 0 0)
(66.2881 0 0)
(66.3247 0 0)
(66.3613 0 0)
(66.3979 0 0)
(66.4345 0 0)
(66.4712 0 0)
(66.5078 0 0)
(66.5444 0 0)
(66.581 0 0)
(66.6176 0 0)
(66.6543 0 0)
(66.6909 0 0)
(66.7275 0 0)
(66.7641 0 0)
(66.8007 0 0)
(66.8374 0 0)
(66.874 0 0)
(66.9106 0 0)
(66.9472 0 0)
(66.9838 0 0)
(67.0205 0 0)
(67.0571 0 0)
(67.0937 0 0)
(67.1303 0 0)
(67.1669 0 0)
(67.2036 0 0)
(67.2402 0 0)
(67.2768 0 0)
(67.3134 0 0)
(67.35 0 0)
(67.3867 0 0)
(67.4233 0 0)
(67.4599 0 0)
(67.4965 0 0)
(67.5331 0 0)
(67.5698 0 0)
(67.6064 0 0)
(67.643 0 0)
(67.6796 0 0)
(67.7163 0 0)
(67.7529 0 0)
(67.7895 0 0)
(67.8261 0 0)
(67.8627 0 0)
(67.8994 0 0)
(67.936 0 0)
(67.9726 0 0)
(68.0092 0 0)
(68.0459 0 0)
(68.0825 0 0)
(68.1191 0 0)
(68.1557 0 0)
(68.1923 0 0)
(68.229 0 0)
(68.2656 0 0)
(68.3022 0 0)
(68.3388 0 0)
(68.3755 0 0)
(68.4121 0 0)
(68.4487 0 0)
(68.4853 0 0)
(68.522 0 0)
(68.5586 0 0)
(68.5952 0 0)
(68.6318 0 0)
(68.6684 0 0)
(68.7051 0 0)
(68.7417 0 0)
(68.7783 0 0)
(68.8149 0 0)
(68.8516 0 0)
(68.8882 0 0)
(68.9248 0 0)
(68.9614 0 0)
(68.9981 0 0)
(69.0347 0 0)
(69.0713 0 0)
(69.1079 0 0)
(69.1446 0 0)
(69.1812 0 0)
(69.2178 0 0)
(69.2544 0 0)
(69.2911 0 0)
(69.3277 0 0)
(69.3643 0 0)
(69.4009 0 0)
(69.4376 0 0)
(69.4742 0 0)
(69.5108 0 0)
(69.5474 0 0)
(69.5841 0 0)
(69.6207 0 0)
(69.6573 0 0)
(69.6939 0 0)
(69.7306 0 0)
(69.7672 0 0)
(69.8038 0 0)
(69.8404 0 0)
(69.8771 0 0)
(69.9137 0 0)
(69.9503 0 0)
(69.9869 0 0)
(70.0236 0 0)
(70.0602 0 0)
(70.0968 0 0)
(70.1334 0 0)
(70.1701 0 0)
(70.2067 0 0)
(70.2433 0 0)
(70.28 0 0)
(70.3166 0 0)
(70.3532 0 0)
(70.3898 0 0)
(70.4265 0 0)
(70.4631 0 0)
(70.4997 0 0)
(70.5363 0 0)
(70.573 0 0)
(70.6096 0 0)
(70.6462 0 0)
(70.6828 0 0)
(70.7195 0 0)
(70.7561 0 0)
(70.7927 0 0)
(70.8294 0 0)
(70.866 0 0)
(70.9026 0 0)
(70.9392 0 0)
(70.9759 0 0)
(71.0125 0 0)
(71.0491 0 0)
(71.0858 0 0)
(71.1224 0 0)
(71.159 0 0)
(71.1956 0 0)
(71.2323 0 0)
(71.2689 0 0)
(71.3055 0 0)
(71.3421 0 0)
(71.3788 0 0)
(71.4154 0 0)
(71.452 0 0)
(71.4887 0 0)
(71.5253 0 0)
(71.5619 0 0)
(71.5985 0 0)
(71.6352 0 0)
(71.6718 0 0)
(71.7084 0 0)
(71.7451 0 0)
(71.7817 0 0)
(71.8183 0 0)
(71.855 0 0)
(71.8916 0 0)
(71.9282 0 0)
(71.9648 0 0)
(72.0015 0 0)
(72.0381 0 0)
(72.0747 0 0)
(72.1114 0 0)
(72.148 0 0)
(72.1846 0 0)
(72.2212 0 0)
(72.2579 0 0)
(72.2945 0 0)
(72.3311 0 0)
(72.3678 0 0)
(72.4044 0 0)
(72.441 0 0)
(72.4777 0 0)
(72.5143 0 0)
(72.5509 0 0)
(72.5875 0 0)
(72.6242 0 0)
(72.6608 0 0)
(72.6974 0 0)
(72.7341 0 0)
(72.7707 0 0)
(72.8073 0 0)
(72.844 0 0)
(72.8806 0 0)
(72.9172 0 0)
(72.9539 0 0)
(72.9905 0 0)
(73.0271 0 0)
(73.0637 0 0)
(73.1004 0 0)
(73.137 0 0)
(73.1736 0 0)
(73.2103 0 0)
(73.2469 0 0)
(73.2835 0 0)
(73.3202 0 0)
(73.3568 0 0)
(73.3934 0 0)
(73.4301 0 0)
(73.4667 0 0)
(73.5033 0 0)
(73.5399 0 0)
(73.5766 0 0)
(73.6132 0 0)
(73.6498 0 0)
(73.6865 0 0)
(73.7231 0 0)
(73.7597 0 0)
(73.7964 0 0)
(73.833 0 0)
(73.8696 0 0)
(73.9063 0 0)
(73.9429 0 0)
(73.9795 0 0)
(74.0162 0 0)
(74.0528 0 0)
(74.0894 0 0)
(74.1261 0 0)
(74.1627 0 0)
(74.1993 0 0)
(74.2359 0 0)
(74.2726 0 0)
(74.3092 0 0)
(74.3458 0 0)
(74.3825 0 0)
(74.4191 0 0)
(74.4557 0 0)
(74.4924 0 0)
(74.529 0 0)
(74.5656 0 0)
(74.6023 0 0)
(74.6389 0 0)
(74.6755 0 0)
(74.7122 0 0)
(74.7488 0 0)
(74.7854 0 0)
(74.8221 0 0)
(74.8587 0 0)
(74.8953 0 0)
(74.932 0 0)
(74.9686 0 0)
(75.0052 0 0)
(75.0419 0 0)
(75.0785 0 0)
(75.1151 0 0)
(75.1518 0 0)
(75.1884 0 0)
(75.225 0 0)
(75.2617 0 0)
(75.2983 0 0)
(75.3349 0 0)
(75.3716 0 0)
(75.4082 0 0)
(75.4448 0 0)
(75.4815 0 0)
(75.5181 0 0)
(75.5547 0 0)
(75.5914 0 0)
(75.628 0 0)
(75.6646 0 0)
(75.7013 0 0)
(75.7379 0 0)
(75.7745 0 0)
(75.8112 0 0)
(75.8478 0 0)
(75.8844 0 0)
(75.9211 0 0)
(75.9577 0 0)
(75.9943 0 0)
(76.031 0 0)
(76.0676 0 0)
(76.1042 0 0)
(76.1409 0 0)
(76.1775 0 0)
(76.2141 0 0)
(76.2508 0 0)
(76.2874 0 0)
(76.324 0 0)
(76.3607 0 0)
(76.3973 0 0)
(76.4339 0 0)
(76.4706 0 0)
(76.5072 0 0)
(76.5438 0 0)
(76.5805 0 0)
(76.6171 0 0)
(76.6537 0 0)
(76.6904 0 0)
(76.727 0 0)
(76.7636 0 0)
(76.8003 0 0)
(76.8369 0 0)
(76.8735 0 0)
(76.9102 0 0)
(76.9468 0 0)
(76.9834 0 0)
(77.0201 0 0)
(77.0567 0 0)
(77.0933 0 0)
(77.13 0 0)
(77.1666 0 0)
(77.2032 0 0)
(77.2399 0 0)
(77.2765 0 0)
(77.3131 0 0)
(77.3498 0 0)
(77.3864 0 0)
(77.423 0 0)
(77.4597 0 0)
(77.4963 0 0)
(77.5329 0 0)
(77.5696 0 0)
(77.6062 0 0)
(77.6428 0 0)
(77.6795 0 0)
(77.7161 0 0)
(77.7527 0 0)
(77.7894 0 0)
(77.826 0 0)
(77.8626 0 0)
(77.8993 0 0)
(77.9359 0 0)
(77.9725 0 0)
(78.0092 0 0)
(78.0458 0 0)
(78.0824 0 0)
(78.1191 0 0)
(78.1557 0 0)
(78.1923 0 0)
(78.229 0 0)
(78.2656 0 0)
(78.3022 0 0)
(78.3389 0 0)
(78.3755 0 0)
(78.4121 0 0)
(78.4488 0 0)
(78.4854 0 0)
(78.522 0 0)
(78.5587 0 0)
(78.5953 0 0)
(78.6319 0 0)
(78.6686 0 0)
(78.7052 0 0)
(78.7418 0 0)
(78.7785 0 0)
(78.8151 0 0)
(78.8517 0 0)
(78.8884 0 0)
(78.925 0 0)
(78.9616 0 0)
(78.9983 0 0)
(79.0349 0 0)
(79.0715 0 0)
(79.1082 0 0)
(79.1448 0 0)
(79.1814 0 0)
(79.2181 0 0)
(79.2547 0 0)
(79.2913 0 0)
(79.328 0 0)
(79.3646 0 0)
(79.4012 0 0)
(79.4379 0 0)
(79.4745 0 0)
(79.5111 0 0)
(79.5478 0 0)
(79.5844 0 0)
(79.621 0 0)
(79.6577 0 0)
(79.6943 0 0)
(79.7309 0 0)
(79.7676 0 0)
(79.8042 0 0)
(79.8408 0 0)
(79.8775 0 0)
(79.9141 0 0)
(79.9507 0 0)
(79.9874 0 0)
(80.024 0 0)
(80.0606 0 0)
(80.0973 0 0)
(80.1339 0 0)
(80.1705 0 0)
(80.2072 0 0)
(80.2438 0 0)
(80.2804 0 0)
(80.3171 0 0)
(80.3537 0 0)
(80.3903 0 0)
(80.427 0 0)
(80.4636 0 0)
(80.5002 0 0)
(80.5369 0 0)
(80.5735 0 0)
(80.6101 0 0)
(80.6468 0 0)
(80.6834 0 0)
(80.72 0 0)
(80.7567 0 0)
(80.7933 0 0)
(80.8299 0 0)
(80.8666 0 0)
(80.9032 0 0)
(80.9398 0 0)
(80.9765 0 0)
(81.0131 0 0)
(81.0497 0 0)
(81.0864 0 0)
(81.123 0 0)
(81.1596 0 0)
(81.1962 0 0)
(81.2329 0 0)
(81.2695 0 0)
(81.3061 0 0)
(81.3428 0 0)
(81.3794 0 0)
(81.416 0 0)
(81.4527 0 0)
(81.4893 0 0)
(81.5259 0 0)
(81.5626 0 0)
(81.5992 0 0)
(81.6358 0 0)
(81.6725 0 0)
(81.7091 0 0)
(81.7457 0 0)
(81.7824 0 0)
(81.819 0 0)
(81.8556 0 0)
(81.8922 0 0)
(81.9289 0 0)
(81.9655 0 0)
(82.0021 0 0)
(82.0388 0 0)
(82.0754 0 0)
(82.112 0 0)
(82.1487 0 0)
(82.1853 0 0)
(82.2219 0 0)
(82.2586 0 0)
(82.2952 0 0)
(82.3318 0 0)
(82.3684 0 0)
(82.4051 0 0)
(82.4417 0 0)
(82.4783 0 0)
(82.515 0 0)
(82.5516 0 0)
(82.5882 0 0)
(82.6249 0 0)
(82.6615 0 0)
(82.6981 0 0)
(82.7347 0 0)
(82.7714 0 0)
(82.808 0 0)
(82.8446 0 0)
(82.8813 0 0)
(82.9179 0 0)
(82.9545 0 0)
(82.9911 0 0)
(83.0278 0 0)
(83.0644 0 0)
(83.101 0 0)
(83.1377 0 0)
(83.1743 0 0)
(83.2109 0 0)
(83.2475 0 0)
(83.2842 0 0)
(83.3208 0 0)
(83.3574 0 0)
(83.3941 0 0)
(83.4307 0 0)
(83.4673 0 0)
(83.5039 0 0)
(83.5406 0 0)
(83.5772 0 0)
(83.6138 0 0)