/*--------------------------------*- C++ -*----------------------------------*\
  =========                 |
  \\      /  F ield         | OpenFOAM: The Open Source CFD Toolbox
   \\    /   O peration     | Website:  https://openfoam.org
    \\  /    A nd           | Version:  9
     \\/     M anipulation  |
\*---------------------------------------------------------------------------*/
FoamFile
{
    format      ascii;
    class       volScalarField;
    location    "0.048";
    object      rho;
}
// * * * * * * * * * * * * * * * * * * * * * * * * * * * * * * * * * * * * * //

dimensions      [1 -3 0 0 0 0 0];

internalField   nonuniform List<scalar> 
1000
(
0.182407
0.182396
0.182369
0.182349
0.182334
0.182319
0.182304
0.182288
0.182272
0.182256
0.18224
0.182225
0.182209
0.182194
0.182178
0.182163
0.182147
0.182132
0.182116
0.182101
0.182086
0.18207
0.182055
0.182039
0.182024
0.182008
0.181993
0.181977
0.181962
0.181946
0.181931
0.181915
0.1819
0.181886
0.181872
0.181858
0.181844
0.181831
0.181817
0.181805
0.181793
0.181782
0.181772
0.181764
0.181756
0.18175
0.181744
0.181739
0.181734
0.181728
0.181721
0.181714
0.181706
0.181698
0.181692
0.181685
0.181678
0.181671
0.181664
0.181657
0.181651
0.181645
0.181639
0.181635
0.181631
0.181628
0.181626
0.181624
0.181623
0.181624
0.181627
0.181631
0.181637
0.181645
0.181655
0.181665
0.181676
0.181687
0.181699
0.181711
0.181724
0.181737
0.18175
0.181764
0.181778
0.181791
0.181805
0.181819
0.181832
0.181845
0.181858
0.18187
0.181883
0.181897
0.181911
0.181927
0.181943
0.181961
0.18198
0.182001
0.182023
0.182046
0.182071
0.182097
0.182124
0.182153
0.182183
0.182213
0.182245
0.182278
0.182311
0.182345
0.182379
0.182413
0.182448
0.182484
0.182521
0.182559
0.182597
0.182635
0.182673
0.182712
0.182752
0.182792
0.182832
0.182871
0.18291
0.182949
0.182989
0.183028
0.183069
0.18311
0.183151
0.183193
0.183236
0.183278
0.183321
0.183364
0.183408
0.183452
0.183497
0.183541
0.183586
0.183632
0.183678
0.183724
0.183771
0.183818
0.183865
0.183913
0.18396
0.184008
0.184057
0.184107
0.184158
0.184208
0.184258
0.184309
0.18436
0.184411
0.184461
0.18451
0.184558
0.184605
0.184649
0.184692
0.184736
0.184782
0.184835
0.184898
0.184973
0.185059
0.185154
0.18525
0.185345
0.185436
0.185524
0.185609
0.18569
0.185769
0.185846
0.185921
0.185995
0.186068
0.186141
0.186213
0.186287
0.186361
0.186436
0.186513
0.186591
0.186671
0.186755
0.186841
0.186932
0.187029
0.187137
0.187261
0.18741
0.187544
0.187074
0.186786
0.186639
0.18704
0.187685
0.187817
0.187357
0.187093
0.187444
0.187933
0.187894
0.187543
0.187524
0.187995
0.188155
0.188239
0.188317
0.188394
0.188472
0.18855
0.188628
0.188706
0.188785
0.188865
0.188946
0.189027
0.189108
0.189188
0.189268
0.189347
0.189425
0.189503
0.189581
0.189658
0.189734
0.18981
0.189887
0.189963
0.190038
0.190113
0.19019
0.19027
0.190354
0.190442
0.190533
0.190627
0.190722
0.19082
0.190919
0.19102
0.19112
0.191221
0.191322
0.191423
0.191524
0.191623
0.191722
0.191819
0.191915
0.192009
0.192102
0.192192
0.192282
0.192372
0.19246
0.192546
0.192632
0.192717
0.192804
0.19289
0.192975
0.19306
0.193145
0.193229
0.193313
0.193397
0.193483
0.193568
0.193654
0.193738
0.193821
0.193904
0.193988
0.194071
0.194154
0.194235
0.194316
0.194395
0.194473
0.194556
0.194651
0.194752
0.194851
0.194944
0.195037
0.19513
0.195226
0.19532
0.195415
0.195525
0.195657
0.195807
0.195978
0.195953
0.195462
0.195388
0.195505
0.195509
0.195426
0.196179
0.196499
0.196669
0.196836
0.196477
0.196161
0.196107
0.19605
0.19641
0.19663
0.196708
0.196772
0.19683
0.196881
0.196907
0.196841
0.197018
0.197235
0.197293
0.197306
0.19725
0.197495
0.197646
0.197684
0.197626
0.197768
0.19801
0.19807
0.198066
0.19803
0.198329
0.198453
0.198496
0.198443
0.198524
0.198817
0.198886
0.198909
0.198837
0.199018
0.19921
0.199252
0.199209
0.199274
0.199516
0.199569
0.199529
0.199601
0.199877
0.199945
0.199935
0.199905
0.200247
0.200384
0.200448
0.20047
0.200372
0.200661
0.200948
0.201027
0.200874
0.200848
0.201531
0.201676
0.201265
0.201136
0.202008
0.202394
0.202551
0.202037
0.201786
0.201715
0.201713
0.202204
0.202372
0.202456
0.202526
0.202435
0.202308
0.202829
0.203058
0.20284
0.202628
0.203151
0.203489
0.203603
0.203693
0.203782
0.203876
0.203975
0.204069
0.204166
0.204267
0.204365
0.204465
0.204584
0.204723
0.204877
0.205036
0.205209
0.205396
0.205023
0.204642
0.204618
0.204834
0.204814
0.204715
0.205709
0.206144
0.205909
0.205353
0.205343
0.205623
0.205698
0.205676
0.205721
0.205981
0.205888
0.205924
0.206955
0.207319
0.207109
0.206373
0.206142
0.206635
0.207546
0.207673
0.207031
0.206746
0.207474
0.208034
0.207863
0.207293
0.207371
0.208434
0.20869
0.208151
0.207761
0.207845
0.208961
0.209307
0.209528
0.209234
0.208736
0.208663
0.208547
0.208973
0.209545
0.209702
0.209811
0.209624
0.209394
0.209992
0.210292
0.210002
0.209679
0.209821
0.210997
0.211324
0.210902
0.210373
0.210394
0.211454
0.211767
0.211411
0.210969
0.211349
0.212121
0.21232
0.212471
0.212615
0.212769
0.212947
0.213145
0.213345
0.213556
0.213629
0.213056
0.212902
0.21309
0.213249
0.213081
0.213918
0.214598
0.214814
0.214391
0.214009
0.214162
0.214803
0.214973
0.215059
0.214875
0.215106
0.21603
0.216102
0.215635
0.215404
0.216076
0.216794
0.216857
0.21651
0.216418
0.217047
0.217337
0.217439
0.217405
0.217412
0.217966
0.218122
0.218216
0.218238
0.218148
0.218937
0.219262
0.219312
0.21925
0.219088
0.219536
0.220218
0.220354
0.220405
0.220266
0.22037
0.221142
0.221351
0.221451
0.221433
0.221415
0.222123
0.222398
0.222511
0.222509
0.222503
0.223207
0.223476
0.223584
0.223546
0.223666
0.224379
0.224583
0.224666
0.224575
0.224983
0.225563
0.225721
0.225759
0.225702
0.226433
0.226809
0.226937
0.226896
0.22712
0.227913
0.228135
0.228219
0.22813
0.228807
0.229364
0.229546
0.229612
0.229537
0.230328
0.23083
0.231008
0.231069
0.231007
0.231855
0.232334
0.232514
0.232578
0.232514
0.233352
0.233832
0.233991
0.23399
0.23411
0.235009
0.235272
0.235324
0.235306
0.236168
0.236532
0.236619
0.236548
0.237314
0.237788
0.237905
0.237823
0.238443
0.239035
0.239179
0.239112
0.239564
0.240271
0.240442
0.240406
0.240687
0.241492
0.241694
0.241695
0.241819
0.242681
0.242929
0.242967
0.242975
0.243826
0.244147
0.244221
0.24416
0.244922
0.24534
0.245446
0.245361
0.245964
0.2465
0.246635
0.246565
0.246963
0.247625
0.247786
0.247758
0.247925
0.24869
0.24889
0.248913
0.248904
0.249664
0.249949
0.25002
0.249929
0.250533
0.250963
0.251074
0.250996
0.251341
0.251943
0.252092
0.252079
0.252143
0.252867
0.253087
0.253143
0.253062
0.253677
0.25406
0.254169
0.254099
0.254401
0.255009
0.255168
0.255187
0.255167
0.255859
0.256139
0.256236
0.256158
0.256491
0.257063
0.257221
0.25727
0.257184
0.25776
0.258147
0.25828
0.258316
0.258232
0.258827
0.259187
0.259326
0.259402
0.259309
0.259615
0.260153
0.260314
0.26042
0.260436
0.260375
0.260911
0.261167
0.261257
0.261232
0.261258
0.261718
0.261837
0.261841
0.26178
0.262163
0.262327
0.262335
0.26226
0.262603
0.262775
0.262787
0.262701
0.263003
0.263188
0.263203
0.263106
0.263374
0.263575
0.263595
0.263469
0.263675
0.263937
0.263968
0.263856
0.263979
0.26419
0.264289
0.264225
0.264147
0.264435
0.264656
0.264653
0.264443
0.264544
0.264853
0.264894
0.264797
0.264621
0.264832
0.265237
0.265274
0.265059
0.264809
0.265138
0.265536
0.265695
0.265364
0.265014
0.265425
0.266001
0.266212
0.265822
0.265319
0.265572
0.26645
0.266733
0.266578
0.26583
0.265665
0.266586
0.267099
0.267308
0.266719
0.266206
0.26622
0.267125
0.267469
0.267712
0.267416
0.266666
0.266714
0.267823
0.268152
0.267495
0.266917
0.267332
0.268369
0.268469
0.267581
0.267266
0.268308
0.268944
0.268445
0.267668
0.26803
0.269225
0.269289
0.268236
0.26794
0.269159
0.269811
0.269113
0.268245
0.268543
0.26991
0.270126
0.268912
0.268329
0.269083
0.270265
0.270296
0.268924
0.268416
0.269133
0.270382
0.27059
0.26923
0.268585
0.268696
0.270204
0.270668
0.269815
0.268973
0.268655
0.268818
0.270296
0.270648
0.269611
0.268984
0.269796
0.270671
0.270046
0.269154
0.269738
0.270828
0.270369
0.269201
0.269242
0.270722
0.271125
0.269849
0.269067
0.269091
0.270705
0.271264
0.270303
0.269203
0.268925
0.270327
0.271206
0.27072
0.269319
0.268939
0.270084
0.271153
0.270877
0.269392
0.268953
0.26996
0.271139
0.270974
0.269437
0.268949
0.269759
0.271097
0.271144
0.269575
0.268991
0.269331
0.270955
0.27134
0.269989
0.269122
0.268899
0.270456
0.271294
0.270816
0.269343
0.2689
0.26935
0.270977
0.27139
0.270108
0.269141
0.268774
0.269941
0.271111
0.2714
0.269888
0.269076
0.268688
0.269569
0.271001
0.27127
0.269714
0.268907
0.268747
0.27042
0.271191
0.270408
0.269062
0.268639
0.269635
0.270995
0.271054
0.269378
0.268763
0.268813
0.270607
0.271215
0.270195
0.268982
0.268563
0.269528
0.270963
0.271142
0.26948
0.268768
0.268694
0.270481
0.271186
0.27025
0.268953
0.268551
0.269803
0.271036
0.270894
0.269208
0.268669
0.268839
0.27069
0.27125
0.270094
0.268906
0.26851
0.269775
0.271048
0.27098
0.269233
0.26865
0.268924
0.27076
0.271222
0.269824
0.268818
0.268528
0.270163
0.271161
0.270645
0.269062
0.268587
0.269044
0.270877
0.271289
0.26985
0.268904
0.268508
0.269736
0.271124
0.27118
0.269462
0.268859
0.268559
0.2702
0.271289
0.271015
0.269337
0.268861
0.268682
0.270538
0.271437
0.27089
0.269327
0.268886
0.268827
0.270784
0.271553
0.270769
0.269322
0.268879
0.269031
0.271034
0.271652
0.270558
0.269295
0.268854
0.269348
0.271246
0.271688
0.270262
0.269236
0.268809
0.269626
0.271383
0.271701
0.270067
0.269218
0.268799
0.26995
0.271502
0.271657
0.269888
0.269207
0.268809
0.270143
0.271551
0.271567
0.269785
0.269188
0.268795
0.270009
0.271342
0.271424
0.269613
0.269274
0.268901
0.269052
0.270289
0.271205
)
;

boundaryField
{
    sides
    {
        type            calculated;
        value           nonuniform List<scalar> 2(0.271205 0.182407);
    }
    empty
    {
        type            empty;
    }
}


// ************************************************************************* //
