/*--------------------------------*- C++ -*----------------------------------*\
  =========                 |
  \\      /  F ield         | OpenFOAM: The Open Source CFD Toolbox
   \\    /   O peration     | Website:  https://openfoam.org
    \\  /    A nd           | Version:  9
     \\/     M anipulation  |
\*---------------------------------------------------------------------------*/
FoamFile
{
    format      ascii;
    class       volScalarField;
    location    "0.031";
    object      mag(U);
}
// * * * * * * * * * * * * * * * * * * * * * * * * * * * * * * * * * * * * * //

dimensions      [0 1 -1 0 0 0 0];

internalField   nonuniform List<scalar> 
10000
(
4.37663
4.42873
4.48251
4.52683
4.56774
4.60917
4.65147
4.69398
4.73643
4.77879
4.82114
4.8635
4.90587
4.94824
4.99061
5.03297
5.07534
5.11771
5.16008
5.20245
5.24481
5.28718
5.32955
5.37192
5.41429
5.45666
5.49903
5.5414
5.58377
5.62614
5.66851
5.71089
5.75326
5.79563
5.838
5.88037
5.92274
5.96511
6.00748
6.04986
6.09223
6.13461
6.17698
6.21936
6.26173
6.3041
6.34647
6.38885
6.43122
6.47359
6.51597
6.55834
6.60072
6.64309
6.68547
6.72785
6.77023
6.81261
6.85499
6.89737
6.93975
6.98213
7.02451
7.06688
7.10926
7.15164
7.19402
7.2364
7.27878
7.32116
7.36354
7.40592
7.4483
7.49068
7.53306
7.57544
7.61782
7.6602
7.70258
7.74496
7.78734
7.82972
7.8721
7.91448
7.95687
7.99925
8.04163
8.08401
8.1264
8.16878
8.21116
8.25355
8.29593
8.33831
8.3807
8.42308
8.46547
8.50785
8.55024
8.59262
8.63501
8.67739
8.71978
8.76216
8.80455
8.84694
8.88932
8.93171
8.9741
9.01648
9.05887
9.10126
9.14365
9.18604
9.22842
9.27081
9.3132
9.35559
9.39798
9.44037
9.48276
9.52515
9.56754
9.60993
9.65232
9.69471
9.7371
9.77949
9.82188
9.86427
9.90667
9.94906
9.99145
10.0338
10.0762
10.1186
10.161
10.2034
10.2458
10.2882
10.3306
10.373
10.4154
10.4578
10.5002
10.5426
10.585
10.6274
10.6698
10.7122
10.7545
10.7969
10.8393
10.8817
10.9241
10.9665
11.0089
11.0513
11.0937
11.1361
11.1785
11.2209
11.2633
11.3057
11.3481
11.3905
11.4329
11.4753
11.5177
11.5601
11.6025
11.6449
11.6873
11.7297
11.7721
11.8145
11.8569
11.8993
11.9417
11.9841
12.0265
12.0689
12.1113
12.1537
12.1961
12.2385
12.2809
12.3233
12.3658
12.4082
12.4506
12.493
12.5354
12.5778
12.6202
12.6626
12.705
12.7474
12.7898
12.8322
12.8746
12.917
12.9594
13.0018
13.0442
13.0867
13.1291
13.1715
13.2139
13.2563
13.2987
13.3411
13.3835
13.4259
13.4683
13.5107
13.5531
13.5956
13.638
13.6804
13.7228
13.7652
13.8076
13.85
13.8924
13.9348
13.9773
14.0197
14.0621
14.1045
14.1469
14.1893
14.2317
14.2741
14.3166
14.359
14.4014
14.4438
14.4862
14.5286
14.571
14.6135
14.6559
14.6983
14.7407
14.7831
14.8255
14.868
14.9104
14.9528
14.9952
15.0376
15.08
15.1225
15.1649
15.2073
15.2497
15.2921
15.3346
15.377
15.4194
15.4618
15.5042
15.5467
15.5891
15.6315
15.6739
15.7163
15.7588
15.8012
15.8436
15.886
15.9284
15.9709
16.0133
16.0557
16.0981
16.1405
16.183
16.2254
16.2678
16.3102
16.3527
16.3951
16.4375
16.4799
16.5224
16.5648
16.6072
16.6496
16.6921
16.7345
16.7769
16.8193
16.8618
16.9042
16.9466
16.989
17.0315
17.0739
17.1163
17.1588
17.2012
17.2436
17.286
17.3285
17.3709
17.4133
17.4558
17.4982
17.5406
17.583
17.6255
17.6679
17.7103
17.7528
17.7952
17.8376
17.8801
17.9225
17.9649
18.0074
18.0498
18.0922
18.1346
18.1771
18.2195
18.2619
18.3044
18.3468
18.3892
18.4317
18.4741
18.5165
18.559
18.6014
18.6439
18.6863
18.7287
18.7712
18.8136
18.856
18.8985
18.9409
18.9833
19.0258
19.0682
19.1106
19.1531
19.1955
19.238
19.2804
19.3228
19.3653
19.4077
19.4502
19.4926
19.535
19.5775
19.6199
19.6623
19.7048
19.7472
19.7897
19.8321
19.8746
19.917
19.9594
20.0019
20.0443
20.0868
20.1292
20.1716
20.2141
20.2565
20.299
20.3414
20.3839
20.4263
20.4687
20.5112
20.5536
20.5961
20.6385
20.681
20.7234
20.7659
20.8083
20.8507
20.8932
20.9356
20.9781
21.0205
21.063
21.1054
21.1479
21.1903
21.2328
21.2752
21.3177
21.3601
21.4026
21.445
21.4875
21.5299
21.5724
21.6148
21.6572
21.6997
21.7421
21.7846
21.827
21.8695
21.912
21.9544
21.9969
22.0393
22.0818
22.1242
22.1667
22.2091
22.2516
22.294
22.3365
22.3789
22.4214
22.4638
22.5063
22.5487
22.5912
22.6336
22.6761
22.7186
22.761
22.8035
22.8459
22.8884
22.9308
22.9733
23.0157
23.0582
23.1006
23.1431
23.1856
23.228
23.2705
23.3129
23.3554
23.3978
23.4403
23.4828
23.5252
23.5677
23.6101
23.6526
23.6951
23.7375
23.78
23.8224
23.8649
23.9074
23.9498
23.9923
24.0347
24.0772
24.1197
24.1621
24.2046
24.247
24.2895
24.332
24.3744
24.4169
24.4594
24.5018
24.5443
24.5867
24.6292
24.6717
24.7141
24.7566
24.7991
24.8415
24.884
24.9265
24.9689
25.0114
25.0539
25.0963
25.1388
25.1813
25.2237
25.2662
25.3087
25.3511
25.3936
25.4361
25.4785
25.521
25.5635
25.6059
25.6484
25.6909
25.7333
25.7758
25.8183
25.8607
25.9032
25.9457
25.9882
26.0306
26.0731
26.1156
26.158
26.2005
26.243
26.2854
26.3279
26.3704
26.4129
26.4553
26.4978
26.5403
26.5828
26.6252
26.6677
26.7102
26.7526
26.7951
26.8376
26.8801
26.9225
26.965
27.0075
27.05
27.0924
27.1349
27.1774
27.2199
27.2623
27.3048
27.3473
27.3898
27.4322
27.4747
27.5172
27.5597
27.6022
27.6446
27.6871
27.7296
27.7721
27.8145
27.857
27.8995
27.942
27.9845
28.0269
28.0694
28.1119
28.1544
28.1969
28.2393
28.2818
28.3243
28.3668
28.4093
28.4518
28.4942
28.5367
28.5792
28.6217
28.6642
28.7066
28.7491
28.7916
28.8341
28.8766
28.9191
28.9615
29.004
29.0465
29.089
29.1315
29.174
29.2165
29.2589
29.3014
29.3439
29.3864
29.4289
29.4714
29.5139
29.5563
29.5988
29.6413
29.6838
29.7263
29.7688
29.8113
29.8538
29.8962
29.9387
29.9812
30.0237
30.0662
30.1087
30.1512
30.1937
30.2362
30.2786
30.3211
30.3636
30.4061
30.4486
30.4911
30.5336
30.5761
30.6186
30.6611
30.7036
30.7461
30.7885
30.831
30.8735
30.916
30.9585
31.001
31.0435
31.086
31.1285
31.171
31.2135
31.256
31.2985
31.341
31.3835
31.426
31.4684
31.5109
31.5534
31.5959
31.6384
31.6809
31.7234
31.7659
31.8084
31.8509
31.8934
31.9359
31.9784
32.0209
32.0634
32.1059
32.1484
32.1909
32.2334
32.2759
32.3184
32.3609
32.4034
32.4459
32.4884
32.5309
32.5734
32.6159
32.6584
32.7009
32.7434
32.7859
32.8284
32.8709
32.9134
32.9559
32.9984
33.0409
33.0834
33.1259
33.1684
33.2109
33.2534
33.2959
33.3384
33.381
33.4235
33.466
33.5085
33.551
33.5935
33.636
33.6785
33.721
33.7635
33.806
33.8485
33.891
33.9335
33.976
34.0185
34.0611
34.1036
34.1461
34.1886
34.2311
34.2736
34.3161
34.3586
34.4011
34.4436
34.4861
34.5286
34.5712
34.6137
34.6562
34.6987
34.7412
34.7837
34.8262
34.8687
34.9112
34.9538
34.9963
35.0388
35.0813
35.1238
35.1663
35.2088
35.2513
35.2939
35.3364
35.3789
35.4214
35.4639
35.5064
35.5489
35.5915
35.634
35.6765
35.719
35.7615
35.804
35.8465
35.8891
35.9316
35.9741
36.0166
36.0591
36.1016
36.1442
36.1867
36.2292
36.2717
36.3142
36.3567
36.3993
36.4418
36.4843
36.5268
36.5693
36.6119
36.6544
36.6969
36.7394
36.7819
36.8245
36.867
36.9095
36.952
36.9945
37.0371
37.0796
37.1221
37.1646
37.2071
37.2497
37.2922
37.3347
37.3772
37.4198
37.4623
37.5048
37.5473
37.5899
37.6324
37.6749
37.7174
37.7599
37.8025
37.845
37.8875
37.93
37.9726
38.0151
38.0576
38.1001
38.1427
38.1852
38.2277
38.2703
38.3128
38.3553
38.3978
38.4404
38.4829
38.5254
38.5679
38.6105
38.653
38.6955
38.7381
38.7806
38.8231
38.8656
38.9082
38.9507
38.9932
39.0358
39.0783
39.1208
39.1634
39.2059
39.2484
39.291
39.3335
39.376
39.4185
39.4611
39.5036
39.5461
39.5887
39.6312
39.6737
39.7163
39.7588
39.8013
39.8439
39.8864
39.9289
39.9715
40.014
40.0565
40.0991
40.1416
40.1842
40.2267
40.2692
40.3118
40.3543
40.3968
40.4394
40.4819
40.5244
40.567
40.6095
40.6521
40.6946
40.7371
40.7797
40.8222
40.8647
40.9073
40.9498
40.9924
41.0349
41.0774
41.12
41.1625
41.2051
41.2476
41.2901
41.3327
41.3752
41.4178
41.4603
41.5028
41.5454
41.5879
41.6305
41.673
41.7155
41.7581
41.8006
41.8432
41.8857
41.9283
41.9708
42.0133
42.0559
42.0984
42.141
42.1835
42.2261
42.2686
42.3112
42.3537
42.3962
42.4388
42.4813
42.5239
42.5664
42.609
42.6515
42.6941
42.7366
42.7792
42.8217
42.8643
42.9068
42.9494
42.9919
43.0344
43.077
43.1195
43.1621
43.2046
43.2472
43.2897
43.3323
43.3748
43.4174
43.4599
43.5025
43.545
43.5876
43.6301
43.6727
43.7152
43.7578
43.8003
43.8429
43.8854
43.928
43.9705
44.0131
44.0557
44.0982
44.1408
44.1833
44.2259
44.2684
44.311
44.3535
44.3961
44.4386
44.4812
44.5237
44.5663
44.6089
44.6514
44.694
44.7365
44.7791
44.8216
44.8642
44.9067
44.9493
44.9919
45.0344
45.077
45.1195
45.1621
45.2046
45.2472
45.2898
45.3323
45.3749
45.4174
45.46
45.5025
45.5451
45.5877
45.6302
45.6728
45.7153
45.7579
45.8005
45.843
45.8856
45.9281
45.9707
46.0133
46.0558
46.0984
46.141
46.1835
46.2261
46.2686
46.3112
46.3538
46.3963
46.4389
46.4815
46.524
46.5666
46.6091
46.6517
46.6943
46.7368
46.7794
46.822
46.8645
46.9071
46.9497
46.9922
47.0348
47.0774
47.1199
47.1625
47.2051
47.2476
47.2902
47.3328
47.3753
47.4179
47.4605
47.503
47.5456
47.5882
47.6307
47.6733
47.7159
47.7584
47.801
47.8436
47.8861
47.9287
47.9713
48.0138
48.0564
48.099
48.1416
48.1841
48.2267
48.2693
48.3118
48.3544
48.397
48.4396
48.4821
48.5247
48.5673
48.6098
48.6524
48.695
48.7376
48.7801
48.8227
48.8653
48.9079
48.9504
48.993
49.0356
49.0781
49.1207
49.1633
49.2059
49.2484
49.291
49.3336
49.3762
49.4187
49.4613
49.5039
49.5465
49.5891
49.6316
49.6742
49.7168
49.7594
49.8019
49.8445
49.8871
49.9297
49.9723
50.0148
50.0574
50.1
50.1426
50.1851
50.2277
50.2703
50.3129
50.3555
50.398
50.4406
50.4832
50.5258
50.5684
50.6109
50.6535
50.6961
50.7387
50.7813
50.8239
50.8664
50.909
50.9516
50.9942
51.0368
51.0793
51.1219
51.1645
51.2071
51.2497
51.2923
51.3349
51.3774
51.42
51.4626
51.5052
51.5478
51.5904
51.6329
51.6755
51.7181
51.7607
51.8033
51.8459
51.8885
51.931
51.9736
52.0162
52.0588
52.1014
52.144
52.1866
52.2292
52.2717
52.3143
52.3569
52.3995
52.4421
52.4847
52.5273
52.5699
52.6125
52.655
52.6976
52.7402
52.7828
52.8254
52.868
52.9106
52.9532
52.9958
53.0384
53.081
53.1235
53.1661
53.2087
53.2513
53.2939
53.3365
53.3791
53.4217
53.4643
53.5069
53.5495
53.5921
53.6347
53.6773
53.7198
53.7624
53.805
53.8476
53.8902
53.9328
53.9754
54.018
54.0606
54.1032
54.1458
54.1884
54.231
54.2736
54.3162
54.3588
54.4014
54.444
54.4866
54.5292
54.5718
54.6144
54.657
54.6996
54.7422
54.7848
54.8274
54.87
54.9126
54.9552
54.9978
55.0404
55.083
55.1256
55.1682
55.2108
55.2534
55.296
55.3386
55.3812
55.4238
55.4664
55.509
55.5516
55.5942
55.6368
55.6794
55.722
55.7646
55.8072
55.8498
55.8924
55.935
55.9776
56.0202
56.0628
56.1054
56.148
56.1906
56.2332
56.2758
56.3184
56.361
56.4036
56.4462
56.4889
56.5315
56.5741
56.6167
56.6593
56.7019
56.7445
56.7871
56.8297
56.8723
56.9149
56.9575
57.0001
57.0427
57.0854
57.128
57.1706
57.2132
57.2558
57.2984
57.341
57.3836
57.4262
57.4688
57.5114
57.5541
57.5967
57.6393
57.6819
57.7245
57.7671
57.8097
57.8523
57.8949
57.9376
57.9802
58.0228
58.0654
58.108
58.1506
58.1932
58.2358
58.2785
58.3211
58.3637
58.4063
58.4489
58.4915
58.5341
58.5768
58.6194
58.662
58.7046
58.7472
58.7898
58.8324
58.8751
58.9177
58.9603
59.0029
59.0455
59.0881
59.1308
59.1734
59.216
59.2586
59.3012
59.3438
59.3865
59.4291
59.4717
59.5143
59.5569
59.5996
59.6422
59.6848
59.7274
59.77
59.8126
59.8553
59.8979
59.9405
59.9831
60.0257
60.0684
60.111
60.1536
60.1962
60.2389
60.2815
60.3241
60.3667
60.4093
60.452
60.4946
60.5372
60.5798
60.6225
60.6651
60.7077
60.7503
60.7929
60.8356
60.8782
60.9208
60.9634
61.0061
61.0487
61.0913
61.1339
61.1766
61.2192
61.2618
61.3044
61.3471
61.3897
61.4323
61.4749
61.5176
61.5602
61.6028
61.6455
61.6881
61.7307
61.7733
61.816
61.8586
61.9012
61.9438
61.9865
62.0291
62.0717
62.1144
62.157
62.1996
62.2423
62.2849
62.3275
62.3701
62.4128
62.4554
62.498
62.5407
62.5833
62.6259
62.6686
62.7112
62.7538
62.7965
62.8391
62.8817
62.9243
62.967
63.0096
63.0522
63.0949
63.1375
63.1801
63.2228
63.2654
63.308
63.3507
63.3933
63.4359
63.4786
63.5212
63.5639
63.6065
63.6491
63.6918
63.7344
63.777
63.8197
63.8623
63.9049
63.9476
63.9902
64.0328
64.0755
64.1181
64.1608
64.2034
64.246
64.2887
64.3313
64.3739
64.4166
64.4592
64.5019
64.5445
64.5871
64.6298
64.6724
64.7151
64.7577
64.8003
64.843
64.8856
64.9283
64.9709
65.0135
65.0562
65.0988
65.1415
65.1841
65.2267
65.2694
65.312
65.3547
65.3973
65.44
65.4826
65.5252
65.5679
65.6105
65.6532
65.6958
65.7385
65.7811
65.8237
65.8664
65.909
65.9517
65.9943
66.037
66.0796
66.1223
66.1649
66.2075
66.2502
66.2928
66.3355
66.3781
66.4208
66.4634
66.5061
66.5487
66.5914
66.634
66.6767
66.7193
66.7619
66.8046
66.8472
66.8899
66.9325
66.9752
67.0178
67.0605
67.1031
67.1458
67.1884
67.2311
67.2737
67.3164
67.359
67.4017
67.4443
67.487
67.5296
67.5723
67.6149
67.6576
67.7002
67.7429
67.7855
67.8282
67.8708
67.9135
67.9561
67.9988
68.0415
68.0841
68.1268
68.1694
68.2121
68.2547
68.2974
68.34
68.3827
68.4253
68.468
68.5106
68.5533
68.596
68.6386
68.6813
68.7239
68.7666
68.8092
68.8519
68.8945
68.9372
68.9799
69.0225
69.0652
69.1078
69.1505
69.1931
69.2358
69.2785
69.3211
69.3638
69.4064
69.4491
69.4917
69.5344
69.5771
69.6197
69.6624
69.705
69.7477
69.7904
69.833
69.8757
69.9183
69.961
70.0037
70.0463
70.089
70.1316
70.1743
70.217
70.2596
70.3023
70.3449
70.3876
70.4303
70.4729
70.5156
70.5583
70.6009
70.6436
70.6862
70.7289
70.7716
70.8142
70.8569
70.8996
70.9422
70.9849
71.0275
71.0702
71.1129
71.1555
71.1982
71.2409
71.2835
71.3262
71.3689
71.4115
71.4542
71.4969
71.5395
71.5822
71.6249
71.6675
71.7102
71.7529
71.7955
71.8382
71.8809
71.9235
71.9662
72.0089
72.0515
72.0942
72.1369
72.1795
72.2222
72.2649
72.3075
72.3502
72.3929
72.4356
72.4782
72.5209
72.5636
72.6062
72.6489
72.6916
72.7342
72.7769
72.8196
72.8623
72.9049
72.9476
72.9903
73.0329
73.0756
73.1183
73.161
73.2036
73.2463
73.289
73.3317
73.3743
73.417
73.4597
73.5023
73.545
73.5877
73.6304
73.673
73.7157
73.7584
73.8011
73.8437
73.8864
73.9291
73.9718
74.0144
74.0571
74.0998
74.1425
74.1851
74.2278
74.2705
74.3132
74.3559
74.3985
74.4412
74.4839
74.5266
74.5692
74.6119
74.6546
74.6973
74.74
74.7826
74.8253
74.868
74.9107
74.9533
74.996
75.0387
75.0814
75.1241
75.1667
75.2094
75.2521
75.2948
75.3375
75.3801
75.4228
75.4655
75.5082
75.5509
75.5936
75.6362
75.6789
75.7216
75.7643
75.807
75.8496
75.8923
75.935
75.9777
76.0204
76.0631
76.1057
76.1484
76.1911
76.2338
76.2765
76.3192
76.3618
76.4045
76.4472
76.4899
76.5326
76.5753
76.618
76.6606
76.7033
76.746
76.7887
76.8314
76.8741
76.9168
76.9594
77.0021
77.0448
77.0875
77.1302
77.1729
77.2156
77.2582
77.3009
77.3436
77.3863
77.429
77.4717
77.5144
77.5571
77.5998
77.6424
77.6851
77.7278
77.7705
77.8132
77.8559
77.8986
77.9413
77.984
78.0266
78.0693
78.112
78.1547
78.1974
78.2401
78.2828
78.3255
78.3682
78.4109
78.4536
78.4963
78.5389
78.5816
78.6243
78.667
78.7097
78.7524
78.7951
78.8378
78.8805
78.9232
78.9659
79.0086
79.0513
79.094
79.1366
79.1793
79.222
79.2647
79.3074
79.3501
79.3928
79.4355
79.4782
79.5209
79.5636
79.6063
79.649
79.6917
79.7344
79.7771
79.8198
79.8625
79.9052
79.9479
79.9906
80.0333
80.076
80.1187
80.1614
80.2041
80.2468
80.2895
80.3322
80.3748
80.4175
80.4602
80.5029
80.5456
80.5883
80.631
80.6737
80.7164
80.7591
80.8018
80.8445
80.8872
80.9299
80.9726
81.0153
81.058
81.1008
81.1435
81.1862
81.2289
81.2716
81.3143
81.357
81.3997
81.4424
81.4851
81.5278
81.5705
81.6132
81.6559
81.6986
81.7413
81.784
81.8267
81.8694
81.9121
81.9548
81.9975
82.0402
82.0829
82.1256
82.1683
82.211
82.2537
82.2964
82.3392
82.3819
82.4246
82.4673
82.51
82.5527
82.5954
82.6381
82.6808
82.7235
82.7662
82.8089
82.8516
82.8943
82.937
82.9798
83.0225
83.0652
83.1079
83.1506
83.1933
83.236
83.2787
83.3214
83.3641
83.4068
83.4496
83.4923
83.535
83.5777
83.6204
83.6631
83.7058
83.7485
83.7912
83.8339
83.8767
83.9194
83.9621
84.0048
84.0475
84.0902
84.1329
84.1756
84.2183
84.2611
84.3038
84.3465
84.3892
84.4319
84.4746
84.5173
84.56
84.6028
84.6455
84.6882
84.7309
84.7736
84.8163
84.859
84.9018
84.9445
84.9872
85.0299
85.0726
85.1153
85.158
85.2008
85.2435
85.2862
85.3289
85.3716
85.4143
85.4571
85.4998
85.5425
85.5852
85.6279
85.6706
85.7134
85.7561
85.7988
85.8415
85.8842
85.9269
85.9697
86.0124
86.0551
86.0978
86.1405
86.1833
86.226
86.2687
86.3114
86.3541
86.3969
86.4396
86.4823
86.525
86.5677
86.6105
86.6532
86.6959
86.7386
86.7813
86.8241
86.8668
86.9095
86.9522
86.9949
87.0377
87.0804
87.1231
87.1658
87.2085
87.2513
87.294
87.3367
87.3794
87.4222
87.4649
87.5076
87.5503
87.5931
87.6358
87.6785
87.7212
87.7639
87.8067
87.8494
87.8921
87.9348
87.9776
88.0203
88.063
88.1057
88.1485
88.1912
88.2339
88.2766
88.3194
88.3621
88.4048
88.4475
88.4903
88.533
88.5757
88.6184
88.6612
88.7039
88.7466
88.7894
88.8321
88.8748
88.9175
88.9603
89.003
89.0457
89.0884
89.1312
89.1739
89.2166
89.2594
89.3021
89.3448
89.3875
89.4303
89.473
89.5157
89.5585
89.6012
89.6439
89.6867
89.7294
89.7721
89.8148
89.8576
89.9003
89.943
89.9858
90.0285
90.0712
90.114
90.1567
90.1994
90.2422
90.2849
90.3276
90.3704
90.4131
90.4558
90.4985
90.5413
90.584
90.6267
90.6695
90.7122
90.7549
90.7977
90.8404
90.8831
90.9259
90.9686
91.0113
91.0541
91.0968
91.1395
91.1823
91.225
91.2678
91.3105
91.3532
91.396
91.4387
91.4814
91.5242
91.5669
91.6096
91.6524
91.6951
91.7378
91.7806
91.8233
91.8661
91.9088
91.9515
91.9943
92.037
92.0797
92.1225
92.1652
92.2079
92.2507
92.2934
92.3362
92.3789
92.4216
92.4644
92.5071
92.5499
92.5926
92.6353
92.6781
92.7208
92.7635
92.8063
92.849
92.8918
92.9345
92.9772
93.02
93.0627
93.1055
93.1482
93.1909
93.2337
93.2764
93.3192
93.3619
93.4047
93.4474
93.4901
93.5329
93.5756
93.6184
93.6611
93.7038
93.7466
93.7893
93.8321
93.8748
93.9176
93.9603
94.003
94.0458
94.0885
94.1313
94.174
94.2168
94.2595
94.3022
94.345
94.3877
94.4305
94.4732
94.516
94.5587
94.6015
94.6442
94.6869
94.7297
94.7724
94.8152
94.8579
94.9007
94.9434
94.9862
95.0289
95.0716
95.1144
95.1571
95.1999
95.2426
95.2854
95.3281
95.3709
95.4136
95.4564
95.4991
95.5419
95.5846
95.6274
95.6701
95.7128
95.7556
95.7983
95.8411
95.8838
95.9266
95.9693
96.0121
96.0548
96.0976
96.1403
96.1831
96.2258
96.2686
96.3113
96.3541
96.3968
96.4396
96.4823
96.5251
96.5678
96.6106
96.6533
96.6961
96.7388
96.7816
96.8243
96.8671
96.9098
96.9526
96.9953
97.0381
97.0808
97.1236
97.1663
97.2091
97.2518
97.2946
97.3373
97.3801
97.4228
97.4656
97.5084
97.5511
97.5939
97.6366
97.6794
97.7221
97.7649
97.8076
97.8504
97.8931
97.9359
97.9786
98.0214
98.0641
98.1069
98.1496
98.1924
98.2352
98.2779
98.3207
98.3634
98.4062
98.4489
98.4917
98.5344
98.5772
98.6199
98.6627
98.7055
98.7482
98.791
98.8337
98.8765
98.9192
98.962
99.0048
99.0475
99.0903
99.133
99.1758
99.2185
99.2613
99.304
99.3468
99.3896
99.4323
99.4751
99.5178
99.5606
99.6033
99.6461
99.6889
99.7316
99.7744
99.8171
99.8599
99.9027
99.9454
99.9882
100.031
100.074
100.116
100.159
100.202
100.245
100.287
100.33
100.373
100.416
100.459
100.501
100.544
100.587
100.63
100.672
100.715
100.758
100.801
100.843
100.886
100.929
100.972
101.014
101.057
101.1
101.143
101.185
101.228
101.271
101.314
101.356
101.399
101.442
101.485
101.528
101.57
101.613
101.656
101.699
101.741
101.784
101.827
101.87
101.912
101.955
101.998
102.041
102.083
102.126
102.169
102.212
102.255
102.297
102.34
102.383
102.426
102.468
102.511
102.554
102.597
102.639
102.682
102.725
102.768
102.81
102.853
102.896
102.939
102.982
103.024
103.067
103.11
103.153
103.195
103.238
103.281
103.324
103.366
103.409
103.452
103.495
103.537
103.58
103.623
103.666
103.709
103.751
103.794
103.837
103.88
103.922
103.965
104.008
104.051
104.093
104.136
104.179
104.222
104.265
104.307
104.35
104.393
104.436
104.478
104.521
104.564
104.607
104.649
104.692
104.735
104.778
104.82
104.863
104.906
104.949
104.992
105.034
105.077
105.12
105.163
105.205
105.248
105.291
105.334
105.376
105.419
105.462
105.505
105.548
105.59
105.633
105.676
105.719
105.761
105.804
105.847
105.89
105.933
105.975
106.018
106.061
106.104
106.146
106.189
106.232
106.275
106.317
106.36
106.403
106.446
106.489
106.531
106.574
106.617
106.66
106.702
106.745
106.788
106.831
106.873
106.916
106.959
107.002
107.045
107.087
107.13
107.173
107.216
107.258
107.301
107.344
107.387
107.43
107.472
107.515
107.558
107.601
107.643
107.686
107.729
107.772
107.814
107.857
107.9
107.943
107.986
108.028
108.071
108.114
108.157
108.199
108.242
108.285
108.328
108.371
108.413
108.456
108.499
108.542
108.584
108.627
108.67
108.713
108.756
108.798
108.841
108.884
108.927
108.969
109.012
109.055
109.098
109.141
109.183
109.226
109.269
109.312
109.354
109.397
109.44
109.483
109.525
109.568
109.611
109.654
109.697
109.739
109.782
109.825
109.868
109.91
109.953
109.996
110.039
110.082
110.124
110.167
110.21
110.253
110.295
110.338
110.381
110.424
110.467
110.509
110.552
110.595
110.638
110.68
110.723
110.766
110.809
110.852
110.894
110.937
110.98
111.023
111.065
111.108
111.151
111.194
111.237
111.279
111.322
111.365
111.408
111.45
111.493
111.536
111.579
111.622
111.664
111.707
111.75
111.793
111.835
111.878
111.921
111.964
112.007
112.049
112.092
112.135
112.178
112.22
112.263
112.306
112.349
112.392
112.434
112.477
112.52
112.563
112.605
112.648
112.691
112.734
112.777
112.819
112.862
112.905
112.948
112.99
113.033
113.076
113.119
113.162
113.204
113.247
113.29
113.333
113.375
113.418
113.461
113.504
113.547
113.589
113.632
113.675
113.718
113.761
113.803
113.846
113.889
113.932
113.974
114.017
114.06
114.103
114.146
114.188
114.231
114.274
114.317
114.359
114.402
114.445
114.488
114.531
114.573
114.616
114.659
114.702
114.744
114.787
114.83
114.873
114.916
114.958
115.001
115.044
115.087
115.129
115.172
115.215
115.258
115.301
115.343
115.386
115.429
115.472
115.514
115.557
115.6
115.643
115.686
115.728
115.771
115.814
115.857
115.899
115.942
115.985
116.028
116.071
116.113
116.156
116.199
116.242
116.284
116.327
116.37
116.413
116.456
116.498
116.541
116.584
116.627
116.67
116.712
116.755
116.798
116.841
116.883
116.926
116.969
117.012
117.055
117.097
117.14
117.183
117.226
117.268
117.311
117.354
117.397
117.44
117.482
117.525
117.568
117.611
117.653
117.696
117.739
117.782
117.825
117.867
117.91
117.953
117.996
118.038
118.081
118.124
118.167
118.21
118.252
118.295
118.338
118.381
118.423
118.466
118.509
118.552
118.595
118.637
118.68
118.723
118.766
118.808
118.851
118.894
118.937
118.98
119.022
119.065
119.108
119.151
119.193
119.236
119.279
119.322
119.365
119.407
119.45
119.493
119.536
119.578
119.621
119.664
119.707
119.75
119.792
119.835
119.878
119.921
119.963
120.006
120.049
120.092
120.135
120.177
120.22
120.263
120.306
120.348
120.391
120.434
120.477
120.519
120.562
120.605
120.648
120.691
120.733
120.776
120.819
120.862
120.904
120.947
120.99
121.033
121.076
121.118
121.161
121.204
121.247
121.289
121.332
121.375
121.418
121.461
121.503
121.546
121.589
121.632
121.674
121.717
121.76
121.803
121.845
121.888
121.931
121.974
122.017
122.059
122.102
122.145
122.188
122.23
122.273
122.316
122.359
122.402
122.444
122.487
122.53
122.573
122.615
122.658
122.701
122.744
122.786
122.829
122.872
122.915
122.958
123
123.043
123.086
123.129
123.171
123.214
123.257
123.3
123.342
123.385
123.428
123.471
123.514
123.556
123.599
123.642
123.685
123.727
123.77
123.813
123.856
123.898
123.941
123.984
124.027
124.07
124.112
124.155
124.198
124.241
124.283
124.326
124.369
124.412
124.454
124.497
124.54
124.583
124.626
124.668
124.711
124.754
124.797
124.839
124.882
124.925
124.968
125.01
125.053
125.096
125.139
125.181
125.224
125.267
125.31
125.352
125.395
125.438
125.481
125.524
125.566
125.609
125.652
125.695
125.737
125.78
125.823
125.866
125.908
125.951
125.994
126.037
126.079
126.122
126.165
126.208
126.25
126.293
126.336
126.379
126.421
126.464
126.507
126.55
126.593
126.635
126.678
126.721
126.764
126.806
126.849
126.892
126.935
126.977
127.02
127.063
127.106
127.148
127.191
127.234
127.277
127.319
127.362
127.405
127.448
127.49
127.533
127.576
127.619
127.661
127.704
127.747
127.79
127.832
127.875
127.918
127.961
128.003
128.046
128.089
128.132
128.174
128.217
128.26
128.303
128.345
128.388
128.431
128.474
128.516
128.559
128.602
128.645
128.687
128.73
128.773
128.816
128.858
128.901
128.944
128.987
129.029
129.072
129.115
129.158
129.2
129.243
129.286
129.329
129.371
129.414
129.457
129.499
129.542
129.585
129.628
129.67
129.713
129.756
129.799
129.841
129.884
129.927
129.97
130.012
130.055
130.098
130.141
130.183
130.226
130.269
130.312
130.354
130.397
130.44
130.482
130.525
130.568
130.611
130.653
130.696
130.739
130.782
130.824
130.867
130.91
130.952
130.995
131.038
131.081
131.123
131.166
131.209
131.252
131.294
131.337
131.38
131.423
131.465
131.508
131.551
131.593
131.636
131.679
131.722
131.764
131.807
131.85
131.892
131.935
131.978
132.021
132.063
132.106
132.149
132.192
132.234
132.277
132.32
132.362
132.405
132.448
132.491
132.533
132.576
132.619
132.661
132.704
132.747
132.79
132.832
132.875
132.918
132.96
133.003
133.046
133.089
133.131
133.174
133.217
133.259
133.302
133.345
133.387
133.43
133.473
133.516
133.558
133.601
133.644
133.686
133.729
133.772
133.815
133.857
133.9
133.943
133.985
134.028
134.071
134.113
134.156
134.199
134.242
134.284
134.327
134.37
134.412
134.455
134.498
134.54
134.583
134.626
134.668
134.711
134.754
134.797
134.839
134.882
134.925
134.967
135.01
135.053
135.095
135.138
135.181
135.223
135.266
135.309
135.351
135.394
135.437
135.48
135.522
135.565
135.608
135.65
135.693
135.736
135.778
135.821
135.864
135.906
135.949
135.992
136.034
136.077
136.12
136.162
136.205
136.248
136.29
136.333
136.376
136.418
136.461
136.504
136.546
136.589
136.632
136.674
136.717
136.76
136.802
136.845
136.888
136.93
136.973
137.016
137.058
137.101
137.144
137.186
137.229
137.272
137.314
137.357
137.4
137.442
137.485
137.528
137.57
137.613
137.655
137.698
137.741
137.783
137.826
137.869
137.911
137.954
137.997
138.039
138.082
138.125
138.167
138.21
138.252
138.295
138.338
138.38
138.423
138.466
138.508
138.551
138.594
138.636
138.679
138.721
138.764
138.807
138.849
138.892
138.935
138.977
139.02
139.062
139.105
139.148
139.19
139.233
139.276
139.318
139.361
139.403
139.446
139.489
139.531
139.574
139.616
139.659
139.702
139.744
139.787
139.829
139.872
139.915
139.957
140
140.043
140.085
140.128
140.17
140.213
140.255
140.298
140.341
140.383
140.426
140.468
140.511
140.554
140.596
140.639
140.681
140.724
140.767
140.809
140.852
140.894
140.937
140.979
141.022
141.065
141.107
141.15
141.192
141.235
141.277
141.32
141.363
141.405
141.448
141.49
141.533
141.575
141.618
141.661
141.703
141.746
141.788
141.831
141.873
141.916
141.958
142.001
142.044
142.086
142.129
142.171
142.214
142.256
142.299
142.341
142.384
142.426
142.469
142.511
142.554
142.597
142.639
142.682
142.724
142.767
142.809
142.852
142.894
142.937
142.979
143.022
143.064
143.107
143.149
143.192
143.234
143.277
143.319
143.362
143.404
143.447
143.489
143.532
143.574
143.617
143.659
143.702
143.744
143.787
143.829
143.872
143.914
143.957
143.999
144.042
144.084
144.127
144.169
144.212
144.254
144.297
144.339
144.382
144.424
144.467
144.509
144.552
144.594
144.636
144.679
144.721
144.764
144.806
144.849
144.891
144.934
144.976
145.018
145.061
145.103
145.146
145.188
145.231
145.273
145.316
145.358
145.4
145.443
145.485
145.528
145.57
145.613
145.655
145.697
145.74
145.782
145.825
145.867
145.909
145.952
145.994
146.037
146.079
146.121
146.164
146.206
146.249
146.291
146.333
146.376
146.418
146.46
146.503
146.545
146.588
146.63
146.672
146.715
146.757
146.799
146.842
146.884
146.927
146.969
147.011
147.054
147.096
147.138
147.181
147.223
147.265
147.308
147.35
147.392
147.435
147.477
147.519
147.562
147.604
147.646
147.689
147.731
147.773
147.815
147.858
147.9
147.942
147.985
148.027
148.069
148.111
148.154
148.196
148.238
148.281
148.323
148.365
148.407
148.45
148.492
148.534
148.576
148.619
148.661
148.703
148.745
148.788
148.83
148.872
148.914
148.957
148.999
149.041
149.083
149.126
149.168
149.21
149.252
149.294
149.337
149.379
149.421
149.463
149.505
149.548
149.59
149.632
149.674
149.716
149.758
149.801
149.843
149.885
149.927
149.969
150.011
150.054
150.096
150.138
150.18
150.222
150.264
150.306
150.349
150.391
150.433
150.475
150.517
150.559
150.601
150.643
150.685
150.727
150.77
150.812
150.854
150.896
150.938
150.98
151.022
151.064
151.106
151.148
151.19
151.232
151.274
151.316
151.358
151.4
151.442
151.484
151.526
151.568
151.61
151.653
151.694
151.736
151.778
151.82
151.862
151.904
151.946
151.988
152.03
152.072
152.114
152.156
152.198
152.24
152.282
152.324
152.366
152.408
152.45
152.492
152.534
152.575
152.617
152.659
152.701
152.743
152.785
152.827
152.869
152.91
152.952
152.994
153.036
153.078
153.12
153.162
153.203
153.245
153.287
153.329
153.371
153.412
153.454
153.496
153.538
153.58
153.621
153.663
153.705
153.747
153.788
153.83
153.872
153.914
153.955
153.997
154.039
154.08
154.122
154.164
154.205
154.247
154.289
154.33
154.372
154.414
154.455
154.497
154.539
154.58
154.622
154.664
154.705
154.747
154.788
154.83
154.872
154.913
154.955
154.996
155.038
155.079
155.121
155.162
155.204
155.245
155.287
155.328
155.37
155.411
155.453
155.494
155.536
155.577
155.619
155.66
155.702
155.743
155.784
155.826
155.867
155.909
155.95
155.991
156.033
156.074
156.115
156.157
156.198
156.239
156.281
156.322
156.363
156.405
156.446
156.487
156.528
156.57
156.611
156.652
156.693
156.735
156.776
156.817
156.858
156.899
156.94
156.982
157.023
157.064
157.105
157.146
157.187
157.228
157.269
157.311
157.352
157.393
157.434
157.475
157.516
157.557
157.598
157.639
157.68
157.721
157.762
157.803
157.843
157.884
157.925
157.966
158.007
158.048
158.089
158.13
158.171
158.211
158.252
158.293
158.334
158.374
158.415
158.456
158.497
158.537
158.578
158.619
158.66
158.7
158.741
158.782
158.822
158.863
158.903
158.944
158.985
159.025
159.066
159.106
159.147
159.187
159.228
159.268
159.309
159.349
159.389
159.43
159.47
159.511
159.551
159.591
159.632
159.672
159.712
159.753
159.793
159.833
159.873
159.914
159.954
159.994
160.034
160.074
160.114
160.155
160.195
160.235
160.275
160.315
160.355
160.395
160.435
160.475
160.515
160.555
160.595
160.635
160.675
160.714
160.754
160.794
160.834
160.874
160.913
160.953
160.993
161.033
161.072
161.112
161.152
161.191
161.231
161.27
161.31
161.349
161.389
161.428
161.468
161.507
161.547
161.586
161.626
161.665
161.704
161.744
161.783
161.822
161.861
161.901
161.94
161.979
162.018
162.057
162.096
162.135
162.174
162.213