/*--------------------------------*- C++ -*----------------------------------*\
  =========                 |
  \\      /  F ield         | OpenFOAM: The Open Source CFD Toolbox
   \\    /   O peration     | Website:  https://openfoam.org
    \\  /    A nd           | Version:  9
     \\/     M anipulation  |
\*---------------------------------------------------------------------------*/
FoamFile
{
    format      ascii;
    class       surfaceScalarField;
    location    "0.035";
    object      phi;
}
// * * * * * * * * * * * * * * * * * * * * * * * * * * * * * * * * * * * * * //

dimensions      [1 0 -1 0 0 0 0];

internalField   nonuniform List<scalar> 
999
(
16.5116
16.8727
17.2335
17.5942
17.9548
18.3152
18.6753
19.0353
19.3952
19.755
20.1147
20.4741
20.8331
21.192
21.5507
21.9095
22.2683
22.6272
22.9859
23.3443
23.7022
24.0597
24.4168
24.7737
25.1304
25.4873
25.8445
26.2021
26.5601
26.9186
27.2774
27.6365
27.9956
28.3547
28.7138
29.0729
29.4322
29.7919
30.1519
30.5119
30.8719
31.2319
31.5918
31.9517
32.3115
32.6713
33.031
33.3906
33.7502
34.1097
34.4691
34.8285
35.1879
35.5472
35.9064
36.2655
36.6247
36.9837
37.3427
37.7016
38.0605
38.4193
38.7781
39.1368
39.4954
39.854
40.2125
40.571
40.9294
41.2877
41.646
42.0043
42.3623
42.7206
43.0785
43.4366
43.7944
44.1523
44.5101
44.8677
45.2255
45.5831
45.9406
46.2982
46.6555
47.0129
47.3702
47.7274
48.0846
48.4417
48.7987
49.1557
49.5126
49.8694
50.2262
50.5829
50.9395
51.2962
51.6527
52.0091
52.3655
52.7218
53.078
53.4342
53.7903
54.1464
54.5024
54.8583
55.2141
55.5699
55.9256
56.2812
56.6368
56.9923
57.3477
57.703
58.0583
58.4135
58.7687
59.1237
59.4787
59.8337
60.1885
60.5433
60.898
61.2526
61.6072
61.9617
62.3161
62.6704
63.0247
63.3789
63.733
64.087
64.4409
64.7948
65.1486
65.5024
65.856
66.2096
66.5631
66.9165
67.2698
67.6231
67.9762
68.3293
68.6823
69.0353
69.3881
69.7409
70.0936
70.4462
70.7987
71.1511
71.5035
71.8557
72.2079
72.56
72.912
73.2639
73.6158
73.9675
74.3192
74.6707
75.0222
75.3736
75.7249
76.0761
76.4272
76.7783
77.1292
77.48
77.8308
78.1814
78.532
78.8825
79.2328
79.5831
79.9333
80.2834
80.6333
80.9832
81.333
81.6827
82.0323
82.3817
82.7311
83.0804
83.4296
83.7786
84.1276
84.4764
84.8252
85.1738
85.5223
85.8707
86.219
86.5672
86.9153
87.2633
87.6111
87.9589
88.3065
88.654
89.0014
89.3487
89.6958
90.0429
90.3898
90.7366
91.0832
91.4297
91.7762
92.1224
92.4686
92.8146
93.1605
93.5063
93.8519
94.1974
94.5427
94.8879
95.233
95.5779
95.9227
96.2674
96.6119
96.9562
97.3005
97.6445
97.9884
98.3322
98.6758
99.0192
99.3625
99.7056
100.049
100.391
100.734
101.076
101.419
101.761
102.103
102.445
102.786
103.128
103.469
103.81
104.151
104.491
104.832
105.172
105.512
105.852
106.192
106.531
106.871
107.21
107.548
107.887
108.225
108.564
108.902
109.239
109.577
109.914
110.251
110.588
110.924
111.261
111.596
111.932
112.268
112.603
112.938
113.272
113.607
113.941
114.275
114.608
114.941
115.274
115.607
115.939
116.271
116.602
116.934
117.265
117.595
117.926
118.255
118.585
118.914
119.243
119.571
119.9
120.227
120.555
120.882
121.209
121.535
121.861
122.186
122.511
122.835
123.159
123.482
123.805
124.128
124.449
124.771
125.092
125.412
125.732
126.051
126.37
126.688
127.005
127.323
127.639
127.955
128.27
128.585
128.899
129.212
129.525
129.837
130.149
130.46
130.77
131.079
131.388
131.696
132.003
132.31
132.616
132.921
133.225
133.529
133.831
134.134
134.435
134.735
135.035
135.334
135.632
135.929
136.225
136.521
136.816
137.109
137.402
137.695
137.986
138.276
138.566
138.855
139.143
139.43
139.716
140.001
140.286
140.569
140.852
141.134
141.415
141.696
141.975
142.254
142.532
142.809
143.086
143.362
143.637
143.911
144.185
144.457
144.73
145.001
145.272
145.543
145.813
146.082
146.351
146.619
146.887
147.154
147.421
147.687
147.953
148.219
148.484
148.749
149.014
149.278
149.543
149.807
150.07
150.334
150.597
150.861
151.124
151.387
151.65
151.913
152.176
152.439
152.702
152.965
153.228
153.491
153.755
154.018
154.281
154.545
154.809
155.072
155.336
155.601
155.865
156.129
156.394
156.659
156.924
157.19
157.455
157.721
157.987
158.254
158.52
158.787
159.055
159.322
159.59
159.858
160.126
160.395
160.664
160.933
161.202
161.472
161.742
162.013
162.283
162.554
162.826
163.097
163.369
163.641
163.914
164.187
164.46
164.734
165.007
165.282
165.556
165.831
166.106
166.381
166.657
166.933
167.21
167.486
167.764
168.041
168.319
168.597
168.875
169.154
169.433
169.712
169.992
170.272
170.552
170.833
171.114
171.395
171.677
171.959
172.241
172.524
172.807
173.09
173.374
173.658
173.942
174.227
174.512
174.797
175.083
175.369
175.655
175.941
176.228
176.516
176.804
177.092
177.38
177.669
177.958
178.247
178.537
178.827
179.117
179.408
179.699
179.99
180.282
180.574
180.867
181.159
181.453
181.746
182.04
182.334
182.629
182.923
183.219
183.514
183.81
184.106
184.403
184.7
184.997
185.295
185.593
185.891
186.19
186.489
186.788
187.088
187.388
187.688
187.989
188.29
188.592
188.894
189.196
189.498
189.801
190.104
190.408
190.712
191.016
191.321
191.626
191.931
192.237
192.543
192.85
193.157
193.464
193.771
194.079
194.387
194.696
195.005
195.314
195.624
195.934
196.244
196.555
196.866
197.178
197.49
197.802
198.114
198.427
198.741
199.054
199.368
199.683
199.997
200.313
200.628
200.944
201.26
201.577
201.894
202.211
202.529
202.847
203.165
203.484
203.803
204.123
204.442
204.763
205.083
205.404
205.726
206.047
206.37
206.692
207.015
207.338
207.662
207.986
208.31
208.635
208.96
209.285
209.611
209.938
210.264
210.591
210.918
211.246
211.574
211.903
212.232
212.561
212.89
213.22
213.551
213.882
214.213
214.544
214.876
215.208
215.541
215.874
216.208
216.541
216.876
217.21
217.545
217.88
218.216
218.552
218.889
219.226
219.563
219.9
220.239
220.577
220.916
221.255
221.594
221.934
222.275
222.616
222.957
223.298
223.64
223.982
224.325
224.668
225.012
225.355
225.7
226.044
226.389
226.735
227.081
227.427
227.773
228.12
228.468
228.816
229.164
229.512
229.861
230.211
230.56
230.911
231.261
231.612
231.963
232.315
232.667
233.02
233.373
233.726
234.08
234.434
234.788
235.144
235.499
235.855
236.21
236.568
236.924
237.282
237.639
237.998
238.356
238.715
239.074
239.434
239.794
240.155
240.516
240.877
241.239
241.601
241.964
242.327
242.69
243.054
243.418
243.783
244.148
244.514
244.879
245.246
245.612
245.98
246.347
246.715
247.083
247.452
247.821
248.191
248.561
248.931
249.302
249.673
250.045
250.417
250.79
251.162
251.536
251.91
252.284
252.658
253.033
253.409
253.785
254.161
254.537
254.915
255.292
255.67
256.048
256.427
256.806
257.186
257.566
257.946
258.327
258.709
259.09
259.472
259.855
260.238
260.622
261.005
261.39
261.774
262.16
262.545
262.931
263.317
263.704
264.092
264.479
264.867
265.256
265.645
266.034
266.424
266.815
267.205
267.596
267.988
268.38
268.772
269.165
269.559
269.952
270.346
270.741
271.136
271.532
271.927
272.324
272.721
273.118
273.516
273.914
274.312
274.711
275.111
275.511
275.911
276.312
276.713
277.115
277.517
277.92
278.323
278.726
279.13
279.534
279.939
280.344
280.75
281.156
281.563
281.97
282.377
282.785
283.193
283.602
284.011
284.421
284.831
285.241
285.652
286.063
286.475
286.887
287.299
287.712
288.126
288.539
288.953
289.368
289.783
290.198
290.613
291.029
291.446
291.862
292.279
292.697
293.114
293.532
293.95
294.369
294.788
295.207
295.626
296.046
296.465
296.886
297.305
297.727
298.146
298.569
298.989
299.41
299.832
300.253
300.675
301.097
301.519
301.941
302.364
302.786
303.209
303.631
304.054
304.477
304.901
305.323
305.747
306.171
306.595
307.018
307.443
307.867
308.292
308.717
309.142
309.567
309.994
310.419
310.846
311.272
311.7
312.128
312.556
312.985
313.415
313.845
314.276
314.707
315.139
315.572
316.005
316.44
316.875
317.31
317.747
318.184
318.622
319.061
319.501
319.941
320.382
320.824
321.267
321.711
322.155
322.601
323.047
323.494
323.942
324.39
324.84
325.29
325.74
326.192
326.644
327.098
327.551
328.006
328.461
328.917
329.373
329.83
330.288
330.747
331.206
331.665
332.126
332.586
333.048
333.51
333.973
334.436
334.899
335.364
335.829
336.294
336.76
337.226
337.693
338.161
338.629
339.097
339.566
340.036
340.506
340.977
341.448
341.92
342.392
342.865
343.338
343.812
344.286
344.761
345.236
345.712
346.188
346.665
347.142
347.62
348.098
348.577
349.056
349.536
350.015
350.496
350.976
351.458
351.939
352.421
352.902
353.384
353.866
354.349
354.831
355.313
355.795
356.277
356.758
357.239
357.719
358.198
358.677
359.154
359.631
360.106
360.58
361.054
361.525
361.996
362.466
362.935
363.403
363.87
364.337
364.804
365.27
365.737
366.204
366.672
367.14
367.609
368.079
368.551
369.024
369.498
369.973
370.451
)
;

boundaryField
{
    sides
    {
        type            calculated;
        value           nonuniform List<scalar> 2(370.929 -16.1504);
    }
    empty
    {
        type            empty;
        value           nonuniform List<scalar> 0();
    }
}


// ************************************************************************* //
