/*--------------------------------*- C++ -*----------------------------------*\
  =========                 |
  \\      /  F ield         | OpenFOAM: The Open Source CFD Toolbox
   \\    /   O peration     | Website:  https://openfoam.org
    \\  /    A nd           | Version:  9
     \\/     M anipulation  |
\*---------------------------------------------------------------------------*/
FoamFile
{
    format      ascii;
    class       volVectorField;
    location    "0.049";
    object      ddt0(rho,U);
}
// * * * * * * * * * * * * * * * * * * * * * * * * * * * * * * * * * * * * * //

dimensions      [1 -2 -2 0 0 0 0];

internalField   nonuniform List<vector> 
10000
(
(-11.8254 0 0)
(-12.3196 0 0)
(-12.8968 0 0)
(-13.3649 0 0)
(-13.7849 0 0)
(-14.2078 0 0)
(-14.641 0 0)
(-15.0776 0 0)
(-15.5139 0 0)
(-15.9496 0 0)
(-16.3852 0 0)
(-16.821 0 0)
(-17.257 0 0)
(-17.693 0 0)
(-18.1291 0 0)
(-18.5652 0 0)
(-19.0014 0 0)
(-19.4375 0 0)
(-19.8737 0 0)
(-20.3099 0 0)
(-20.7462 0 0)
(-21.1826 0 0)
(-21.6192 0 0)
(-22.056 0 0)
(-22.493 0 0)
(-22.9304 0 0)
(-23.3682 0 0)
(-23.8065 0 0)
(-24.2453 0 0)
(-24.6847 0 0)
(-25.1244 0 0)
(-25.5646 0 0)
(-26.0051 0 0)
(-26.4458 0 0)
(-26.8867 0 0)
(-27.3277 0 0)
(-27.7686 0 0)
(-28.2095 0 0)
(-28.6505 0 0)
(-29.0916 0 0)
(-29.5329 0 0)
(-29.9743 0 0)
(-30.4159 0 0)
(-30.8577 0 0)
(-31.3 0 0)
(-31.7427 0 0)
(-32.1857 0 0)
(-32.6291 0 0)
(-33.0728 0 0)
(-33.5169 0 0)
(-33.9616 0 0)
(-34.407 0 0)
(-34.8529 0 0)
(-35.2993 0 0)
(-35.746 0 0)
(-36.193 0 0)
(-36.6405 0 0)
(-37.0883 0 0)
(-37.5362 0 0)
(-37.984 0 0)
(-38.4314 0 0)
(-38.8784 0 0)
(-39.3253 0 0)
(-39.7722 0 0)
(-40.2191 0 0)
(-40.6661 0 0)
(-41.1131 0 0)
(-41.5602 0 0)
(-42.0076 0 0)
(-42.4557 0 0)
(-42.9045 0 0)
(-43.3539 0 0)
(-43.8034 0 0)
(-44.2529 0 0)
(-44.702 0 0)
(-45.1509 0 0)
(-45.5997 0 0)
(-46.0484 0 0)
(-46.4969 0 0)
(-46.9448 0 0)
(-47.3922 0 0)
(-47.8392 0 0)
(-48.2862 0 0)
(-48.7338 0 0)
(-49.1823 0 0)
(-49.6318 0 0)
(-50.082 0 0)
(-50.533 0 0)
(-50.9846 0 0)
(-51.4372 0 0)
(-51.8913 0 0)
(-52.3473 0 0)
(-52.8054 0 0)
(-53.2655 0 0)
(-53.7272 0 0)
(-54.1905 0 0)
(-54.6553 0 0)
(-55.1219 0 0)
(-55.5909 0 0)
(-56.0625 0 0)
(-56.5365 0 0)
(-57.0126 0 0)
(-57.4903 0 0)
(-57.969 0 0)
(-58.4487 0 0)
(-58.9295 0 0)
(-59.4118 0 0)
(-59.8957 0 0)
(-60.3812 0 0)
(-60.8678 0 0)
(-61.3547 0 0)
(-61.8412 0 0)
(-62.3271 0 0)
(-62.8124 0 0)
(-63.2974 0 0)
(-63.7827 0 0)
(-64.2686 0 0)
(-64.7549 0 0)
(-65.2413 0 0)
(-65.7273 0 0)
(-66.2125 0 0)
(-66.6969 0 0)
(-67.181 0 0)
(-67.6655 0 0)
(-68.1511 0 0)
(-68.6381 0 0)
(-69.1266 0 0)
(-69.616 0 0)
(-70.1059 0 0)
(-70.5956 0 0)
(-71.085 0 0)
(-71.5744 0 0)
(-72.0645 0 0)
(-72.5562 0 0)
(-73.05 0 0)
(-73.5461 0 0)
(-74.0442 0 0)
(-74.5437 0 0)
(-75.0436 0 0)
(-75.5435 0 0)
(-76.0432 0 0)
(-76.5432 0 0)
(-77.044 0 0)
(-77.5466 0 0)
(-78.0514 0 0)
(-78.5586 0 0)
(-79.0678 0 0)
(-79.5783 0 0)
(-80.0893 0 0)
(-80.6 0 0)
(-81.1104 0 0)
(-81.6206 0 0)
(-82.1315 0 0)
(-82.6438 0 0)
(-83.1584 0 0)
(-83.6757 0 0)
(-84.1956 0 0)
(-84.7175 0 0)
(-85.2408 0 0)
(-85.7644 0 0)
(-86.2877 0 0)
(-86.8104 0 0)
(-87.3329 0 0)
(-87.8557 0 0)
(-88.38 0 0)
(-88.9065 0 0)
(-89.436 0 0)
(-89.9685 0 0)
(-90.5037 0 0)
(-91.0409 0 0)
(-91.579 0 0)
(-92.117 0 0)
(-92.6545 0 0)
(-93.1913 0 0)
(-93.6848 0 0)
(-94.1817 0 0)
(-94.7555 0 0)
(-95.3533 0 0)
(-95.9012 0 0)
(-96.4468 0 0)
(-96.9973 0 0)
(-97.5486 0 0)
(-98.1025 0 0)
(-98.6563 0 0)
(-99.2103 0 0)
(-99.7635 0 0)
(-100.316 0 0)
(-100.869 0 0)
(-101.422 0 0)
(-101.978 0 0)
(-102.535 0 0)
(-103.098 0 0)
(-103.662 0 0)
(-104.232 0 0)
(-104.802 0 0)
(-105.376 0 0)
(-105.95 0 0)
(-106.525 0 0)
(-107.099 0 0)
(-107.672 0 0)
(-108.244 0 0)
(-108.816 0 0)
(-109.39 0 0)
(-109.965 0 0)
(-110.543 0 0)
(-111.125 0 0)
(-111.712 0 0)
(-112.302 0 0)
(-112.895 0 0)
(-113.492 0 0)
(-114.091 0 0)
(-114.69 0 0)
(-115.29 0 0)
(-115.889 0 0)
(-116.486 0 0)
(-117.083 0 0)
(-117.68 0 0)
(-118.277 0 0)
(-118.876 0 0)
(-119.477 0 0)
(-120.081 0 0)
(-120.69 0 0)
(-121.303 0 0)
(-121.921 0 0)
(-122.543 0 0)
(-123.168 0 0)
(-123.795 0 0)
(-124.425 0 0)
(-125.055 0 0)
(-125.685 0 0)
(-126.315 0 0)
(-126.943 0 0)
(-127.571 0 0)
(-128.198 0 0)
(-128.826 0 0)
(-129.455 0 0)
(-130.086 0 0)
(-130.72 0 0)
(-131.357 0 0)
(-131.999 0 0)
(-132.646 0 0)
(-133.297 0 0)
(-133.953 0 0)
(-134.614 0 0)
(-135.277 0 0)
(-135.944 0 0)
(-136.612 0 0)
(-137.282 0 0)
(-137.952 0 0)
(-138.621 0 0)
(-139.291 0 0)
(-139.959 0 0)
(-140.628 0 0)
(-141.296 0 0)
(-141.964 0 0)
(-142.634 0 0)
(-143.304 0 0)
(-143.978 0 0)
(-144.654 0 0)
(-145.335 0 0)
(-146.019 0 0)
(-146.708 0 0)
(-147.403 0 0)
(-148.102 0 0)
(-148.806 0 0)
(-149.515 0 0)
(-150.228 0 0)
(-150.945 0 0)
(-151.665 0 0)
(-152.388 0 0)
(-153.113 0 0)
(-153.839 0 0)
(-154.566 0 0)
(-155.293 0 0)
(-156.021 0 0)
(-156.748 0 0)
(-157.476 0 0)
(-158.203 0 0)
(-158.93 0 0)
(-159.658 0 0)
(-160.386 0 0)
(-161.115 0 0)
(-161.845 0 0)
(-162.578 0 0)
(-163.313 0 0)
(-164.051 0 0)
(-164.792 0 0)
(-165.538 0 0)
(-166.287 0 0)
(-167.042 0 0)
(-167.801 0 0)
(-168.566 0 0)
(-169.335 0 0)
(-170.11 0 0)
(-170.89 0 0)
(-171.676 0 0)
(-172.466 0 0)
(-173.262 0 0)
(-174.063 0 0)
(-174.868 0 0)
(-175.678 0 0)
(-176.492 0 0)
(-177.311 0 0)
(-178.133 0 0)
(-178.96 0 0)
(-179.79 0 0)
(-180.623 0 0)
(-181.459 0 0)
(-182.297 0 0)
(-183.138 0 0)
(-183.98 0 0)
(-184.824 0 0)
(-185.669 0 0)
(-186.515 0 0)
(-187.362 0 0)
(-188.21 0 0)
(-189.059 0 0)
(-189.91 0 0)
(-190.761 0 0)
(-191.615 0 0)
(-192.471 0 0)
(-193.33 0 0)
(-194.191 0 0)
(-195.057 0 0)
(-195.927 0 0)
(-196.803 0 0)
(-197.683 0 0)
(-198.568 0 0)
(-199.459 0 0)
(-200.355 0 0)
(-201.253 0 0)
(-202.152 0 0)
(-203.052 0 0)
(-203.952 0 0)
(-204.853 0 0)
(-205.756 0 0)
(-206.662 0 0)
(-207.572 0 0)
(-208.484 0 0)
(-209.401 0 0)
(-210.32 0 0)
(-211.243 0 0)
(-212.17 0 0)
(-213.1 0 0)
(-214.033 0 0)
(-214.97 0 0)
(-215.91 0 0)
(-216.854 0 0)
(-217.801 0 0)
(-218.752 0 0)
(-219.706 0 0)
(-220.664 0 0)
(-221.625 0 0)
(-222.589 0 0)
(-223.557 0 0)
(-224.529 0 0)
(-225.504 0 0)
(-226.483 0 0)
(-227.466 0 0)
(-228.452 0 0)
(-229.442 0 0)
(-230.435 0 0)
(-231.432 0 0)
(-232.433 0 0)
(-233.437 0 0)
(-234.445 0 0)
(-235.457 0 0)
(-236.472 0 0)
(-237.491 0 0)
(-238.513 0 0)
(-239.54 0 0)
(-240.569 0 0)
(-241.603 0 0)
(-242.64 0 0)
(-243.681 0 0)
(-244.726 0 0)
(-245.774 0 0)
(-246.827 0 0)
(-247.883 0 0)
(-248.942 0 0)
(-250.006 0 0)
(-251.073 0 0)
(-252.144 0 0)
(-253.219 0 0)
(-254.297 0 0)
(-255.379 0 0)
(-256.465 0 0)
(-257.554 0 0)
(-258.648 0 0)
(-259.745 0 0)
(-260.845 0 0)
(-261.95 0 0)
(-263.058 0 0)
(-264.17 0 0)
(-265.286 0 0)
(-266.406 0 0)
(-267.529 0 0)
(-268.657 0 0)
(-269.788 0 0)
(-270.922 0 0)
(-272.061 0 0)
(-273.203 0 0)
(-274.349 0 0)
(-275.498 0 0)
(-276.652 0 0)
(-277.808 0 0)
(-278.969 0 0)
(-280.133 0 0)
(-281.301 0 0)
(-282.473 0 0)
(-283.648 0 0)
(-284.827 0 0)
(-286.009 0 0)
(-287.196 0 0)
(-288.386 0 0)
(-289.579 0 0)
(-290.777 0 0)
(-291.978 0 0)
(-293.182 0 0)
(-294.39 0 0)
(-295.602 0 0)
(-296.816 0 0)
(-298.035 0 0)
(-299.257 0 0)
(-300.483 0 0)
(-301.712 0 0)
(-302.943 0 0)
(-304.179 0 0)
(-305.42 0 0)
(-306.662 0 0)
(-307.907 0 0)
(-309.156 0 0)
(-310.411 0 0)
(-311.666 0 0)
(-312.924 0 0)
(-314.188 0 0)
(-315.454 0 0)
(-316.722 0 0)
(-317.994 0 0)
(-319.27 0 0)
(-320.549 0 0)
(-321.829 0 0)
(-323.114 0 0)
(-324.402 0 0)
(-325.692 0 0)
(-326.985 0 0)
(-328.282 0 0)
(-329.582 0 0)
(-330.883 0 0)
(-332.187 0 0)
(-333.496 0 0)
(-334.807 0 0)
(-336.12 0 0)
(-337.436 0 0)
(-338.755 0 0)
(-340.076 0 0)
(-341.399 0 0)
(-342.725 0 0)
(-344.054 0 0)
(-345.385 0 0)
(-346.718 0 0)
(-348.053 0 0)
(-349.392 0 0)
(-350.732 0 0)
(-352.074 0 0)
(-353.419 0 0)
(-354.765 0 0)
(-356.114 0 0)
(-357.465 0 0)
(-358.818 0 0)
(-360.172 0 0)
(-361.529 0 0)
(-362.887 0 0)
(-364.247 0 0)
(-365.607 0 0)
(-366.971 0 0)
(-368.336 0 0)
(-369.701 0 0)
(-371.069 0 0)
(-372.437 0 0)
(-373.807 0 0)
(-375.179 0 0)
(-376.55 0 0)
(-377.924 0 0)
(-379.298 0 0)
(-380.673 0 0)
(-382.05 0 0)
(-383.427 0 0)
(-384.805 0 0)
(-386.184 0 0)
(-387.563 0 0)
(-388.943 0 0)
(-390.323 0 0)
(-391.703 0 0)
(-393.085 0 0)
(-394.466 0 0)
(-395.847 0 0)
(-397.228 0 0)
(-398.609 0 0)
(-399.991 0 0)
(-401.372 0 0)
(-402.752 0 0)
(-404.133 0 0)
(-405.513 0 0)
(-406.893 0 0)
(-408.273 0 0)
(-409.651 0 0)
(-411.028 0 0)
(-412.406 0 0)
(-413.782 0 0)
(-415.157 0 0)
(-416.532 0 0)
(-417.904 0 0)
(-419.276 0 0)
(-420.647 0 0)
(-422.015 0 0)
(-423.383 0 0)
(-424.749 0 0)
(-426.113 0 0)
(-427.476 0 0)
(-428.837 0 0)
(-430.195 0 0)
(-431.552 0 0)
(-432.906 0 0)
(-434.259 0 0)
(-435.61 0 0)
(-436.957 0 0)
(-438.302 0 0)
(-439.645 0 0)
(-440.985 0 0)
(-442.323 0 0)
(-443.657 0 0)
(-444.987 0 0)
(-446.317 0 0)
(-447.642 0 0)
(-448.964 0 0)
(-450.283 0 0)
(-451.598 0 0)
(-452.91 0 0)
(-454.22 0 0)
(-455.523 0 0)
(-456.824 0 0)
(-458.122 0 0)
(-459.414 0 0)
(-460.704 0 0)
(-461.989 0 0)
(-463.269 0 0)
(-464.547 0 0)
(-465.82 0 0)
(-467.086 0 0)
(-468.35 0 0)
(-469.609 0 0)
(-470.863 0 0)
(-472.112 0 0)
(-473.355 0 0)
(-474.594 0 0)
(-475.829 0 0)
(-477.058 0 0)
(-478.281 0 0)
(-479.5 0 0)
(-480.713 0 0)
(-481.921 0 0)
(-483.124 0 0)
(-484.319 0 0)
(-485.511 0 0)
(-486.696 0 0)
(-487.874 0 0)
(-489.048 0 0)
(-490.216 0 0)
(-491.376 0 0)
(-492.532 0 0)
(-493.681 0 0)
(-494.823 0 0)
(-495.961 0 0)
(-497.091 0 0)
(-498.213 0 0)
(-499.331 0 0)
(-500.442 0 0)
(-501.544 0 0)
(-502.642 0 0)
(-503.733 0 0)
(-504.816 0 0)
(-505.892 0 0)
(-506.962 0 0)
(-508.025 0 0)
(-509.082 0 0)
(-510.13 0 0)
(-511.171 0 0)
(-512.207 0 0)
(-513.234 0 0)
(-514.253 0 0)
(-515.266 0 0)
(-516.272 0 0)
(-517.269 0 0)
(-518.26 0 0)
(-519.244 0 0)
(-520.219 0 0)
(-521.188 0 0)
(-522.149 0 0)
(-523.101 0 0)
(-524.048 0 0)
(-524.986 0 0)
(-525.916 0 0)
(-526.839 0 0)
(-527.755 0 0)
(-528.66 0 0)
(-529.561 0 0)
(-530.454 0 0)
(-531.337 0 0)
(-532.213 0 0)
(-533.083 0 0)
(-533.944 0 0)
(-534.797 0 0)
(-535.643 0 0)
(-536.481 0 0)
(-537.31 0 0)
(-538.133 0 0)
(-538.947 0 0)
(-539.753 0 0)
(-540.553 0 0)
(-541.343 0 0)
(-542.127 0 0)
(-542.904 0 0)
(-543.671 0 0)
(-544.431 0 0)
(-545.185 0 0)
(-545.93 0 0)
(-546.666 0 0)
(-547.397 0 0)
(-548.119 0 0)
(-548.831 0 0)
(-549.539 0 0)
(-550.239 0 0)
(-550.929 0 0)
(-551.613 0 0)
(-552.292 0 0)
(-552.96 0 0)
(-553.622 0 0)
(-554.278 0 0)
(-554.924 0 0)
(-555.564 0 0)
(-556.198 0 0)
(-556.823 0 0)
(-557.44 0 0)
(-558.052 0 0)
(-558.656 0 0)
(-559.251 0 0)
(-559.842 0 0)
(-560.425 0 0)
(-561 0 0)
(-561.57 0 0)
(-562.133 0 0)
(-562.687 0 0)
(-563.236 0 0)
(-563.779 0 0)
(-564.313 0 0)
(-564.841 0 0)
(-565.364 0 0)
(-565.879 0 0)
(-566.388 0 0)
(-566.891 0 0)
(-567.388 0 0)
(-567.877 0 0)
(-568.362 0 0)
(-568.84 0 0)
(-569.311 0 0)
(-569.777 0 0)
(-570.237 0 0)
(-570.69 0 0)
(-571.138 0 0)
(-571.581 0 0)
(-572.016 0 0)
(-572.445 0 0)
(-572.871 0 0)
(-573.29 0 0)
(-573.703 0 0)
(-574.112 0 0)
(-574.516 0 0)
(-574.912 0 0)
(-575.305 0 0)
(-575.693 0 0)
(-576.074 0 0)
(-576.45 0 0)
(-576.823 0 0)
(-577.189 0 0)
(-577.55 0 0)
(-577.908 0 0)
(-578.26 0 0)
(-578.606 0 0)
(-578.95 0 0)
(-579.289 0 0)
(-579.621 0 0)
(-579.951 0 0)
(-580.277 0 0)
(-580.596 0 0)
(-580.912 0 0)
(-581.226 0 0)
(-581.533 0 0)
(-581.835 0 0)
(-582.136 0 0)
(-582.432 0 0)
(-582.722 0 0)
(-583.01 0 0)
(-583.295 0 0)
(-583.574 0 0)
(-583.85 0 0)
(-584.124 0 0)
(-584.393 0 0)
(-584.658 0 0)
(-584.921 0 0)
(-585.18 0 0)
(-585.435 0 0)
(-585.687 0 0)
(-585.937 0 0)
(-586.182 0 0)
(-586.424 0 0)
(-586.664 0 0)
(-586.9 0 0)
(-587.132 0 0)
(-587.364 0 0)
(-587.592 0 0)
(-587.816 0 0)
(-588.038 0 0)
(-588.259 0 0)
(-588.474 0 0)
(-588.688 0 0)
(-588.901 0 0)
(-589.109 0 0)
(-589.314 0 0)
(-589.519 0 0)
(-589.721 0 0)
(-589.919 0 0)
(-590.115 0 0)
(-590.311 0 0)
(-590.503 0 0)
(-590.692 0 0)
(-590.882 0 0)
(-591.068 0 0)
(-591.251 0 0)
(-591.433 0 0)
(-591.615 0 0)
(-591.792 0 0)
(-591.967 0 0)
(-592.143 0 0)
(-592.315 0 0)
(-592.484 0 0)
(-592.654 0 0)
(-592.822 0 0)
(-592.987 0 0)
(-593.15 0 0)
(-593.314 0 0)
(-593.475 0 0)
(-593.633 0 0)
(-593.792 0 0)
(-593.949 0 0)
(-594.103 0 0)
(-594.256 0 0)
(-594.41 0 0)
(-594.56 0 0)
(-594.709 0 0)
(-594.858 0 0)
(-595.006 0 0)
(-595.15 0 0)
(-595.295 0 0)
(-595.44 0 0)
(-595.582 0 0)
(-595.722 0 0)
(-595.864 0 0)
(-596.004 0 0)
(-596.14 0 0)
(-596.277 0 0)
(-596.416 0 0)
(-596.55 0 0)
(-596.683 0 0)
(-596.817 0 0)
(-596.95 0 0)
(-597.081 0 0)
(-597.211 0 0)
(-597.343 0 0)
(-597.472 0 0)
(-597.599 0 0)
(-597.728 0 0)
(-597.856 0 0)
(-597.981 0 0)
(-598.106 0 0)
(-598.233 0 0)
(-598.356 0 0)
(-598.479 0 0)
(-598.602 0 0)
(-598.726 0 0)
(-598.846 0 0)
(-598.966 0 0)
(-599.089 0 0)
(-599.209 0 0)
(-599.326 0 0)
(-599.446 0 0)
(-599.566 0 0)
(-599.683 0 0)
(-599.799 0 0)
(-599.918 0 0)
(-600.035 0 0)
(-600.149 0 0)
(-600.265 0 0)
(-600.382 0 0)
(-600.496 0 0)
(-600.609 0 0)
(-600.724 0 0)
(-600.839 0 0)
(-600.951 0 0)
(-601.063 0 0)
(-601.177 0 0)
(-601.29 0 0)
(-601.4 0 0)
(-601.513 0 0)
(-601.626 0 0)
(-601.735 0 0)
(-601.845 0 0)
(-601.958 0 0)
(-602.068 0 0)
(-602.176 0 0)
(-602.286 0 0)
(-602.398 0 0)
(-602.506 0 0)
(-602.613 0 0)
(-602.724 0 0)
(-602.833 0 0)
(-602.94 0 0)
(-603.048 0 0)
(-603.158 0 0)
(-603.266 0 0)
(-603.372 0 0)
(-603.48 0 0)
(-603.589 0 0)
(-603.695 0 0)
(-603.8 0 0)
(-603.909 0 0)
(-604.016 0 0)
(-604.121 0 0)
(-604.226 0 0)
(-604.334 0 0)
(-604.44 0 0)
(-604.544 0 0)
(-604.651 0 0)
(-604.758 0 0)
(-604.863 0 0)
(-604.967 0 0)
(-605.074 0 0)
(-605.181 0 0)
(-605.284 0 0)
(-605.389 0 0)
(-605.496 0 0)
(-605.6 0 0)
(-605.703 0 0)
(-605.809 0 0)
(-605.915 0 0)
(-606.019 0 0)
(-606.121 0 0)
(-606.228 0 0)
(-606.333 0 0)
(-606.436 0 0)
(-606.54 0 0)
(-606.646 0 0)
(-606.75 0 0)
(-606.852 0 0)
(-606.956 0 0)
(-607.062 0 0)
(-607.165 0 0)
(-607.267 0 0)
(-607.372 0 0)
(-607.477 0 0)
(-607.579 0 0)
(-607.681 0 0)
(-607.787 0 0)
(-607.891 0 0)
(-607.992 0 0)
(-608.096 0 0)
(-608.201 0 0)
(-608.305 0 0)
(-608.406 0 0)
(-608.51 0 0)
(-608.615 0 0)
(-608.717 0 0)
(-608.819 0 0)
(-608.923 0 0)
(-609.028 0 0)
(-609.13 0 0)
(-609.232 0 0)
(-609.337 0 0)
(-609.441 0 0)
(-609.542 0 0)
(-609.646 0 0)
(-609.751 0 0)
(-609.854 0 0)
(-609.954 0 0)
(-610.059 0 0)
(-610.163 0 0)
(-610.265 0 0)
(-610.366 0 0)
(-610.47 0 0)
(-610.575 0 0)
(-610.675 0 0)
(-610.777 0 0)
(-610.881 0 0)
(-610.985 0 0)
(-611.086 0 0)
(-611.188 0 0)
(-611.293 0 0)
(-611.396 0 0)
(-611.496 0 0)
(-611.6 0 0)
(-611.705 0 0)
(-611.807 0 0)
(-611.907 0 0)
(-612.011 0 0)
(-612.116 0 0)
(-612.218 0 0)
(-612.319 0 0)
(-612.423 0 0)
(-612.528 0 0)
(-612.629 0 0)
(-612.731 0 0)
(-612.836 0 0)
(-612.939 0 0)
(-613.04 0 0)
(-613.142 0 0)
(-613.247 0 0)
(-613.35 0 0)
(-613.45 0 0)
(-613.553 0 0)
(-613.657 0 0)
(-613.76 0 0)
(-613.86 0 0)
(-613.963 0 0)
(-614.068 0 0)
(-614.169 0 0)
(-614.27 0 0)
(-614.373 0 0)
(-614.478 0 0)
(-614.58 0 0)
(-614.68 0 0)
(-614.784 0 0)
(-614.888 0 0)
(-614.99 0 0)
(-615.091 0 0)
(-615.195 0 0)
(-615.3 0 0)
(-615.4 0 0)
(-615.502 0 0)
(-615.606 0 0)
(-615.711 0 0)
(-615.812 0 0)
(-615.913 0 0)
(-616.018 0 0)
(-616.122 0 0)
(-616.223 0 0)
(-616.324 0 0)
(-616.429 0 0)
(-616.532 0 0)
(-616.632 0 0)
(-616.734 0 0)
(-616.839 0 0)
(-616.943 0 0)
(-617.042 0 0)
(-617.144 0 0)
(-617.249 0 0)
(-617.352 0 0)
(-617.452 0 0)
(-617.554 0 0)
(-617.659 0 0)
(-617.762 0 0)
(-617.862 0 0)
(-617.964 0 0)
(-618.07 0 0)
(-618.173 0 0)
(-618.273 0 0)
(-618.376 0 0)
(-618.481 0 0)
(-618.584 0 0)
(-618.684 0 0)
(-618.787 0 0)
(-618.892 0 0)
(-618.995 0 0)
(-619.095 0 0)
(-619.198 0 0)
(-619.304 0 0)
(-619.405 0 0)
(-619.506 0 0)
(-619.609 0 0)
(-619.714 0 0)
(-619.816 0 0)
(-619.916 0 0)
(-620.019 0 0)
(-620.124 0 0)
(-620.226 0 0)
(-620.325 0 0)
(-620.429 0 0)
(-620.534 0 0)
(-620.636 0 0)
(-620.736 0 0)
(-620.839 0 0)
(-620.944 0 0)
(-621.045 0 0)
(-621.146 0 0)
(-621.25 0 0)
(-621.355 0 0)
(-621.457 0 0)
(-621.557 0 0)
(-621.661 0 0)
(-621.766 0 0)
(-621.868 0 0)
(-621.968 0 0)
(-622.072 0 0)
(-622.177 0 0)
(-622.279 0 0)
(-622.38 0 0)
(-622.483 0 0)
(-622.588 0 0)
(-622.69 0 0)
(-622.79 0 0)
(-622.893 0 0)
(-622.999 0 0)
(-623.101 0 0)
(-623.201 0 0)
(-623.304 0 0)
(-623.409 0 0)
(-623.511 0 0)
(-623.611 0 0)
(-623.714 0 0)
(-623.819 0 0)
(-623.922 0 0)
(-624.021 0 0)
(-624.124 0 0)
(-624.229 0 0)
(-624.332 0 0)
(-624.432 0 0)
(-624.535 0 0)
(-624.641 0 0)
(-624.744 0 0)
(-624.844 0 0)
(-624.946 0 0)
(-625.053 0 0)
(-625.156 0 0)
(-625.256 0 0)
(-625.358 0 0)
(-625.464 0 0)
(-625.567 0 0)
(-625.667 0 0)
(-625.769 0 0)
(-625.874 0 0)
(-625.978 0 0)
(-626.078 0 0)
(-626.18 0 0)
(-626.285 0 0)
(-626.389 0 0)
(-626.489 0 0)
(-626.59 0 0)
(-626.695 0 0)
(-626.8 0 0)
(-626.901 0 0)
(-627.001 0 0)
(-627.106 0 0)
(-627.211 0 0)
(-627.312 0 0)
(-627.412 0 0)
(-627.517 0 0)
(-627.622 0 0)
(-627.724 0 0)
(-627.824 0 0)
(-627.928 0 0)
(-628.034 0 0)
(-628.136 0 0)
(-628.236 0 0)
(-628.339 0 0)
(-628.445 0 0)
(-628.548 0 0)
(-628.648 0 0)
(-628.751 0 0)
(-628.857 0 0)
(-628.96 0 0)
(-629.06 0 0)
(-629.163 0 0)
(-629.268 0 0)
(-629.372 0 0)
(-629.473 0 0)
(-629.574 0 0)
(-629.679 0 0)
(-629.784 0 0)
(-629.884 0 0)
(-629.985 0 0)
(-630.09 0 0)
(-630.195 0 0)
(-630.296 0 0)
(-630.396 0 0)
(-630.5 0 0)
(-630.606 0 0)
(-630.708 0 0)
(-630.808 0 0)
(-630.912 0 0)
(-631.018 0 0)
(-631.121 0 0)
(-631.221 0 0)
(-631.324 0 0)
(-631.43 0 0)
(-631.534 0 0)
(-631.635 0 0)
(-631.737 0 0)
(-631.843 0 0)
(-631.947 0 0)
(-632.048 0 0)
(-632.149 0 0)
(-632.254 0 0)
(-632.359 0 0)
(-632.46 0 0)
(-632.56 0 0)
(-632.665 0 0)
(-632.771 0 0)
(-632.873 0 0)
(-632.973 0 0)
(-633.076 0 0)
(-633.182 0 0)
(-633.286 0 0)
(-633.385 0 0)
(-633.488 0 0)
(-633.595 0 0)
(-633.699 0 0)
(-633.799 0 0)
(-633.901 0 0)
(-634.007 0 0)
(-634.112 0 0)
(-634.213 0 0)
(-634.314 0 0)
(-634.419 0 0)
(-634.525 0 0)
(-634.627 0 0)
(-634.727 0 0)
(-634.831 0 0)
(-634.937 0 0)
(-635.04 0 0)
(-635.14 0 0)
(-635.243 0 0)
(-635.349 0 0)
(-635.453 0 0)
(-635.554 0 0)
(-635.655 0 0)
(-635.761 0 0)
(-635.867 0 0)
(-635.968 0 0)
(-636.069 0 0)
(-636.174 0 0)
(-636.28 0 0)
(-636.383 0 0)
(-636.483 0 0)
(-636.587 0 0)
(-636.693 0 0)
(-636.797 0 0)
(-636.897 0 0)
(-636.999 0 0)
(-637.105 0 0)
(-637.21 0 0)
(-637.311 0 0)
(-637.412 0 0)
(-637.517 0 0)
(-637.623 0 0)
(-637.725 0 0)
(-637.825 0 0)
(-637.929 0 0)
(-638.036 0 0)
(-638.139 0 0)
(-638.239 0 0)
(-638.342 0 0)
(-638.449 0 0)
(-638.554 0 0)
(-638.655 0 0)
(-638.757 0 0)
(-638.863 0 0)
(-638.969 0 0)
(-639.07 0 0)
(-639.171 0 0)
(-639.276 0 0)
(-639.383 0 0)
(-639.486 0 0)
(-639.586 0 0)
(-639.688 0 0)
(-639.795 0 0)
(-639.9 0 0)
(-640 0 0)
(-640.101 0 0)
(-640.207 0 0)
(-640.313 0 0)
(-640.414 0 0)
(-640.514 0 0)
(-640.619 0 0)
(-640.726 0 0)
(-640.829 0 0)
(-640.929 0 0)
(-641.032 0 0)
(-641.139 0 0)
(-641.244 0 0)
(-641.346 0 0)
(-641.447 0 0)
(-641.553 0 0)
(-641.66 0 0)
(-641.762 0 0)
(-641.863 0 0)
(-641.967 0 0)
(-642.074 0 0)
(-642.179 0 0)
(-642.279 0 0)
(-642.381 0 0)
(-642.487 0 0)
(-642.593 0 0)
(-642.694 0 0)
(-642.795 0 0)
(-642.899 0 0)
(-643.006 0 0)
(-643.109 0 0)
(-643.209 0 0)
(-643.311 0 0)
(-643.418 0 0)
(-643.523 0 0)
(-643.624 0 0)
(-643.725 0 0)
(-643.831 0 0)
(-643.938 0 0)
(-644.04 0 0)
(-644.14 0 0)
(-644.245 0 0)
(-644.352 0 0)
(-644.457 0 0)
(-644.558 0 0)
(-644.66 0 0)
(-644.767 0 0)
(-644.873 0 0)
(-644.975 0 0)
(-645.076 0 0)
(-645.18 0 0)
(-645.288 0 0)
(-645.392 0 0)
(-645.492 0 0)
(-645.594 0 0)
(-645.701 0 0)
(-645.806 0 0)
(-645.907 0 0)
(-646.007 0 0)
(-646.112 0 0)
(-646.219 0 0)
(-646.322 0 0)
(-646.422 0 0)
(-646.525 0 0)
(-646.632 0 0)
(-646.737 0 0)
(-646.838 0 0)
(-646.939 0 0)
(-647.045 0 0)
(-647.152 0 0)
(-647.256 0 0)
(-647.356 0 0)
(-647.459 0 0)
(-647.567 0 0)
(-647.673 0 0)
(-647.774 0 0)
(-647.875 0 0)
(-647.981 0 0)
(-648.088 0 0)
(-648.191 0 0)
(-648.292 0 0)
(-648.395 0 0)
(-648.502 0 0)
(-648.608 0 0)
(-648.708 0 0)
(-648.809 0 0)
(-648.915 0 0)
(-649.022 0 0)
(-649.124 0 0)
(-649.224 0 0)
(-649.327 0 0)
(-649.434 0 0)
(-649.539 0 0)
(-649.64 0 0)
(-649.741 0 0)
(-649.847 0 0)
(-649.954 0 0)
(-650.057 0 0)
(-650.157 0 0)
(-650.261 0 0)
(-650.368 0 0)
(-650.474 0 0)
(-650.575 0 0)
(-650.676 0 0)
(-650.782 0 0)
(-650.89 0 0)
(-650.993 0 0)
(-651.093 0 0)
(-651.196 0 0)
(-651.304 0 0)
(-651.41 0 0)
(-651.511 0 0)
(-651.611 0 0)
(-651.716 0 0)
(-651.824 0 0)
(-651.928 0 0)
(-652.027 0 0)
(-652.129 0 0)
(-652.236 0 0)
(-652.343 0 0)
(-652.444 0 0)
(-652.544 0 0)
(-652.648 0 0)
(-652.756 0 0)
(-652.861 0 0)
(-652.961 0 0)
(-653.062 0 0)
(-653.169 0 0)
(-653.276 0 0)
(-653.379 0 0)
(-653.479 0 0)
(-653.583 0 0)
(-653.691 0 0)
(-653.796 0 0)
(-653.897 0 0)
(-653.998 0 0)
(-654.104 0 0)
(-654.212 0 0)
(-654.316 0 0)
(-654.415 0 0)
(-654.518 0 0)
(-654.626 0 0)
(-654.732 0 0)
(-654.833 0 0)
(-654.933 0 0)
(-655.038 0 0)
(-655.146 0 0)
(-655.25 0 0)
(-655.35 0 0)
(-655.452 0 0)
(-655.558 0 0)
(-655.665 0 0)
(-655.767 0 0)
(-655.867 0 0)
(-655.971 0 0)
(-656.078 0 0)
(-656.184 0 0)
(-656.285 0 0)
(-656.386 0 0)
(-656.492 0 0)
(-656.599 0 0)
(-656.703 0 0)
(-656.803 0 0)
(-656.906 0 0)
(-657.013 0 0)
(-657.12 0 0)
(-657.222 0 0)
(-657.322 0 0)
(-657.427 0 0)
(-657.535 0 0)
(-657.64 0 0)
(-657.741 0 0)
(-657.842 0 0)
(-657.948 0 0)
(-658.055 0 0)
(-658.158 0 0)
(-658.258 0 0)
(-658.361 0 0)
(-658.468 0 0)
(-658.574 0 0)
(-658.676 0 0)
(-658.776 0 0)
(-658.881 0 0)
(-658.989 0 0)
(-659.093 0 0)
(-659.193 0 0)
(-659.295 0 0)
(-659.402 0 0)
(-659.509 0 0)
(-659.612 0 0)
(-659.712 0 0)
(-659.816 0 0)
(-659.923 0 0)
(-660.03 0 0)
(-660.132 0 0)
(-660.232 0 0)
(-660.337 0 0)
(-660.445 0 0)
(-660.55 0 0)
(-660.651 0 0)
(-660.752 0 0)
(-660.858 0 0)
(-660.966 0 0)
(-661.07 0 0)
(-661.17 0 0)
(-661.272 0 0)
(-661.379 0 0)
(-661.486 0 0)
(-661.588 0 0)
(-661.688 0 0)
(-661.792 0 0)
(-661.9 0 0)
(-662.006 0 0)
(-662.107 0 0)
(-662.207 0 0)
(-662.312 0 0)
(-662.421 0 0)
(-662.526 0 0)
(-662.626 0 0)
(-662.727 0 0)
(-662.834 0 0)
(-662.942 0 0)
(-663.046 0 0)
(-663.146 0 0)
(-663.249 0 0)
(-663.356 0 0)
(-663.463 0 0)
(-663.566 0 0)
(-663.666 0 0)
(-663.771 0 0)
(-663.878 0 0)
(-663.984 0 0)
(-664.086 0 0)
(-664.187 0 0)
(-664.292 0 0)
(-664.4 0 0)
(-664.504 0 0)
(-664.605 0 0)
(-664.707 0 0)
(-664.813 0 0)
(-664.921 0 0)
(-665.024 0 0)
(-665.125 0 0)
(-665.228 0 0)
(-665.335 0 0)
(-665.442 0 0)
(-665.544 0 0)
(-665.645 0 0)
(-665.749 0 0)
(-665.857 0 0)
(-665.963 0 0)
(-666.065 0 0)
(-666.166 0 0)
(-666.271 0 0)
(-666.379 0 0)
(-666.485 0 0)
(-666.586 0 0)
(-666.688 0 0)
(-666.794 0 0)
(-666.902 0 0)
(-667.006 0 0)
(-667.107 0 0)
(-667.21 0 0)
(-667.317 0 0)
(-667.424 0 0)
(-667.527 0 0)
(-667.628 0 0)
(-667.732 0 0)
(-667.839 0 0)
(-667.946 0 0)
(-668.048 0 0)
(-668.149 0 0)
(-668.254 0 0)
(-668.362 0 0)
(-668.467 0 0)
(-668.569 0 0)
(-668.67 0 0)
(-668.776 0 0)
(-668.884 0 0)
(-668.989 0 0)
(-669.09 0 0)
(-669.193 0 0)
(-669.3 0 0)
(-669.408 0 0)
(-669.512 0 0)
(-669.613 0 0)
(-669.716 0 0)
(-669.823 0 0)
(-669.931 0 0)
(-670.035 0 0)
(-670.136 0 0)
(-670.239 0 0)
(-670.347 0 0)
(-670.455 0 0)
(-670.558 0 0)
(-670.658 0 0)
(-670.762 0 0)
(-670.87 0 0)
(-670.978 0 0)
(-671.08 0 0)
(-671.181 0 0)
(-671.285 0 0)
(-671.393 0 0)
(-671.5 0 0)
(-671.603 0 0)
(-671.704 0 0)
(-671.809 0 0)
(-671.917 0 0)
(-672.024 0 0)
(-672.126 0 0)
(-672.228 0 0)
(-672.333 0 0)
(-672.442 0 0)
(-672.548 0 0)
(-672.65 0 0)
(-672.752 0 0)
(-672.858 0 0)
(-672.966 0 0)
(-673.072 0 0)
(-673.174 0 0)
(-673.277 0 0)
(-673.383 0 0)
(-673.491 0 0)
(-673.596 0 0)
(-673.698 0 0)
(-673.801 0 0)
(-673.908 0 0)
(-674.016 0 0)
(-674.121 0 0)
(-674.223 0 0)
(-674.326 0 0)
(-674.433 0 0)
(-674.541 0 0)
(-674.645 0 0)
(-674.747 0 0)
(-674.851 0 0)
(-674.959 0 0)
(-675.066 0 0)
(-675.17 0 0)
(-675.272 0 0)
(-675.377 0 0)
(-675.485 0 0)
(-675.592 0 0)
(-675.695 0 0)
(-675.798 0 0)
(-675.903 0 0)
(-676.011 0 0)
(-676.118 0 0)
(-676.222 0 0)
(-676.324 0 0)
(-676.429 0 0)
(-676.538 0 0)
(-676.645 0 0)
(-676.748 0 0)
(-676.85 0 0)
(-676.956 0 0)
(-677.065 0 0)
(-677.172 0 0)
(-677.275 0 0)
(-677.377 0 0)
(-677.483 0 0)
(-677.591 0 0)
(-677.698 0 0)
(-677.801 0 0)
(-677.903 0 0)
(-678.009 0 0)
(-678.118 0 0)
(-678.225 0 0)
(-678.328 0 0)
(-678.431 0 0)
(-678.537 0 0)
(-678.646 0 0)
(-678.753 0 0)
(-678.856 0 0)
(-678.959 0 0)
(-679.065 0 0)
(-679.174 0 0)
(-679.281 0 0)
(-679.385 0 0)
(-679.487 0 0)
(-679.593 0 0)
(-679.703 0 0)
(-679.81 0 0)
(-679.913 0 0)
(-680.016 0 0)
(-680.122 0 0)
(-680.231 0 0)
(-680.339 0 0)
(-680.442 0 0)
(-680.545 0 0)
(-680.651 0 0)
(-680.76 0 0)
(-680.867 0 0)
(-680.971 0 0)
(-681.074 0 0)
(-681.18 0 0)
(-681.289 0 0)
(-681.397 0 0)
(-681.5 0 0)
(-681.603 0 0)
(-681.71 0 0)
(-681.819 0 0)
(-681.927 0 0)
(-682.031 0 0)
(-682.134 0 0)
(-682.24 0 0)
(-682.349 0 0)
(-682.457 0 0)
(-682.561 0 0)
(-682.665 0 0)
(-682.771 0 0)
(-682.88 0 0)
(-682.988 0 0)
(-683.092 0 0)
(-683.196 0 0)
(-683.302 0 0)
(-683.411 0 0)
(-683.519 0 0)
(-683.623 0 0)
(-683.727 0 0)
(-683.833 0 0)
(-683.942 0 0)
(-684.05 0 0)
(-684.155 0 0)
(-684.258 0 0)
(-684.364 0 0)
(-684.473 0 0)
(-684.582 0 0)
(-684.686 0 0)
(-684.79 0 0)
(-684.896 0 0)
(-685.005 0 0)
(-685.114 0 0)
(-685.219 0 0)
(-685.323 0 0)
(-685.429 0 0)
(-685.538 0 0)
(-685.647 0 0)
(-685.752 0 0)
(-685.856 0 0)
(-685.962 0 0)
(-686.071 0 0)
(-686.18 0 0)
(-686.286 0 0)
(-686.39 0 0)
(-686.495 0 0)
(-686.604 0 0)
(-686.713 0 0)
(-686.82 0 0)
(-686.923 0 0)
(-687.029 0 0)
(-687.137 0 0)
(-687.247 0 0)
(-687.353 0 0)
(-687.458 0 0)
(-687.563 0 0)
(-687.671 0 0)
(-687.781 0 0)
(-687.888 0 0)
(-687.992 0 0)
(-688.097 0 0)
(-688.205 0 0)
(-688.315 0 0)
(-688.422 0 0)
(-688.527 0 0)
(-688.632 0 0)
(-688.74 0 0)
(-688.849 0 0)
(-688.958 0 0)
(-689.063 0 0)
(-689.168 0 0)
(-689.275 0 0)
(-689.385 0 0)
(-689.493 0 0)
(-689.599 0 0)
(-689.704 0 0)
(-689.811 0 0)
(-689.92 0 0)
(-690.029 0 0)
(-690.135 0 0)
(-690.241 0 0)
(-690.347 0 0)
(-690.456 0 0)
(-690.565 0 0)
(-690.672 0 0)
(-690.777 0 0)
(-690.883 0 0)
(-690.992 0 0)
(-691.101 0 0)
(-691.208 0 0)
(-691.314 0 0)
(-691.42 0 0)
(-691.528 0 0)
(-691.638 0 0)
(-691.745 0 0)
(-691.851 0 0)
(-691.957 0 0)
(-692.065 0 0)
(-692.175 0 0)
(-692.283 0 0)
(-692.389 0 0)
(-692.495 0 0)
(-692.603 0 0)
(-692.712 0 0)
(-692.821 0 0)
(-692.927 0 0)
(-693.033 0 0)
(-693.14 0 0)
(-693.25 0 0)
(-693.359 0 0)
(-693.466 0 0)
(-693.571 0 0)
(-693.678 0 0)
(-693.788 0 0)
(-693.898 0 0)
(-694.005 0 0)
(-694.11 0 0)
(-694.217 0 0)
(-694.326 0 0)
(-694.436 0 0)
(-694.544 0 0)
(-694.649 0 0)
(-694.755 0 0)
(-694.864 0 0)
(-694.975 0 0)
(-695.083 0 0)
(-695.189 0 0)
(-695.295 0 0)
(-695.403 0 0)
(-695.514 0 0)
(-695.623 0 0)
(-695.729 0 0)
(-695.835 0 0)
(-695.943 0 0)
(-696.053 0 0)
(-696.162 0 0)
(-696.269 0 0)
(-696.375 0 0)
(-696.482 0 0)
(-696.592 0 0)
(-696.702 0 0)
(-696.81 0 0)
(-696.916 0 0)
(-697.023 0 0)
(-697.132 0 0)
(-697.242 0 0)
(-697.35 0 0)
(-697.457 0 0)
(-697.563 0 0)
(-697.672 0 0)
(-697.781 0 0)
(-697.891 0 0)
(-697.998 0 0)
(-698.104 0 0)
(-698.212 0 0)
(-698.322 0 0)
(-698.431 0 0)
(-698.539 0 0)
(-698.646 0 0)
(-698.753 0 0)
(-698.863 0 0)
(-698.972 0 0)
(-699.081 0 0)
(-699.187 0 0)
(-699.295 0 0)
(-699.404 0 0)
(-699.514 0 0)
(-699.622 0 0)
(-699.729 0 0)
(-699.836 0 0)
(-699.945 0 0)
(-700.055 0 0)
(-700.164 0 0)
(-700.271 0 0)
(-700.378 0 0)
(-700.486 0 0)
(-700.596 0 0)
(-700.706 0 0)
(-700.814 0 0)
(-700.92 0 0)
(-701.028 0 0)
(-701.138 0 0)
(-701.248 0 0)
(-701.356 0 0)
(-701.463 0 0)
(-701.57 0 0)
(-701.68 0 0)
(-701.79 0 0)
(-701.899 0 0)
(-702.006 0 0)
(-702.113 0 0)
(-702.222 0 0)
(-702.332 0 0)
(-702.442 0 0)
(-702.549 0 0)
(-702.656 0 0)
(-702.764 0 0)
(-702.874 0 0)
(-702.984 0 0)
(-703.093 0 0)
(-703.2 0 0)
(-703.307 0 0)
(-703.416 0 0)
(-703.527 0 0)
(-703.636 0 0)
(-703.743 0 0)
(-703.851 0 0)
(-703.959 0 0)
(-704.069 0 0)
(-704.179 0 0)
(-704.287 0 0)
(-704.394 0 0)
(-704.502 0 0)
(-704.612 0 0)
(-704.722 0 0)
(-704.831 0 0)
(-704.938 0 0)
(-705.046 0 0)
(-705.155 0 0)
(-705.266 0 0)
(-705.375 0 0)
(-705.483 0 0)
(-705.59 0 0)
(-705.699 0 0)
(-705.809 0 0)
(-705.919 0 0)
(-706.027 0 0)
(-706.134 0 0)
(-706.243 0 0)
(-706.353 0 0)
(-706.463 0 0)
(-706.571 0 0)
(-706.679 0 0)
(-706.787 0 0)
(-706.896 0 0)
(-707.006 0 0)
(-707.116 0 0)
(-707.224 0 0)
(-707.332 0 0)
(-707.44 0 0)
(-707.55 0 0)
(-707.66 0 0)
(-707.769 0 0)
(-707.876 0 0)
(-707.985 0 0)
(-708.095 0 0)
(-708.205 0 0)
(-708.314 0 0)
(-708.422 0 0)
(-708.53 0 0)
(-708.639 0 0)
(-708.749 0 0)
(-708.859 0 0)
(-708.967 0 0)
(-709.075 0 0)
(-709.184 0 0)
(-709.294 0 0)
(-709.404 0 0)
(-709.513 0 0)
(-709.621 0 0)
(-709.729 0 0)
(-709.838 0 0)
(-709.949 0 0)
(-710.058 0 0)
(-710.166 0 0)
(-710.274 0 0)
(-710.383 0 0)
(-710.494 0 0)
(-710.604 0 0)
(-710.712 0 0)
(-710.82 0 0)
(-710.929 0 0)
(-711.039 0 0)
(-711.149 0 0)
(-711.259 0 0)
(-711.367 0 0)
(-711.475 0 0)
(-711.584 0 0)
(-711.694 0 0)
(-711.804 0 0)
(-711.913 0 0)
(-712.021 0 0)
(-712.13 0 0)
(-712.24 0 0)
(-712.35 0 0)
(-712.46 0 0)
(-712.568 0 0)
(-712.676 0 0)
(-712.786 0 0)
(-712.896 0 0)
(-713.006 0 0)
(-713.115 0 0)
(-713.223 0 0)
(-713.332 0 0)
(-713.442 0 0)
(-713.552 0 0)
(-713.661 0 0)
(-713.77 0 0)
(-713.878 0 0)
(-713.988 0 0)
(-714.099 0 0)
(-714.208 0 0)
(-714.317 0 0)
(-714.425 0 0)
(-714.535 0 0)
(-714.645 0 0)
(-714.755 0 0)
(-714.864 0 0)
(-714.973 0 0)
(-715.082 0 0)
(-715.192 0 0)
(-715.302 0 0)
(-715.412 0 0)
(-715.52 0 0)
(-715.629 0 0)
(-715.739 0 0)
(-715.849 0 0)
(-715.959 0 0)
(-716.068 0 0)
(-716.177 0 0)
(-716.286 0 0)
(-716.396 0 0)
(-716.507 0 0)
(-716.616 0 0)
(-716.725 0 0)
(-716.833 0 0)
(-716.943 0 0)
(-717.054 0 0)
(-717.164 0 0)
(-717.273 0 0)
(-717.382 0 0)
(-717.491 0 0)
(-717.601 0 0)
(-717.712 0 0)
(-717.822 0 0)
(-717.93 0 0)
(-718.039 0 0)
(-718.149 0 0)
(-718.259 0 0)
(-718.37 0 0)
(-718.479 0 0)
(-718.588 0 0)
(-718.697 0 0)
(-718.807 0 0)
(-718.918 0 0)
(-719.028 0 0)
(-719.137 0 0)
(-719.246 0 0)
(-719.355 0 0)
(-719.466 0 0)
(-719.576 0 0)
(-719.686 0 0)
(-719.795 0 0)
(-719.904 0 0)
(-720.014 0 0)
(-720.125 0 0)
(-720.235 0 0)
(-720.344 0 0)
(-720.453 0 0)
(-720.563 0 0)
(-720.674 0 0)
(-720.784 0 0)
(-720.894 0 0)
(-721.003 0 0)
(-721.113 0 0)
(-721.223 0 0)
(-721.333 0 0)
(-721.443 0 0)
(-721.553 0 0)
(-721.662 0 0)
(-721.772 0 0)
(-721.883 0 0)
(-721.993 0 0)
(-722.103 0 0)
(-722.212 0 0)
(-722.322 0 0)
(-722.432 0 0)
(-722.543 0 0)
(-722.653 0 0)
(-722.763 0 0)
(-722.872 0 0)
(-722.982 0 0)
(-723.093 0 0)
(-723.203 0 0)
(-723.313 0 0)