/*--------------------------------*- C++ -*----------------------------------*\
  =========                 |
  \\      /  F ield         | OpenFOAM: The Open Source CFD Toolbox
   \\    /   O peration     | Website:  https://openfoam.org
    \\  /    A nd           | Version:  9
     \\/     M anipulation  |
\*---------------------------------------------------------------------------*/
FoamFile
{
    format      ascii;
    class       surfaceScalarField;
    location    "0.049";
    object      ddtCorrDdt0(phi);
}
// * * * * * * * * * * * * * * * * * * * * * * * * * * * * * * * * * * * * * //

dimensions      [1 0 -2 0 0 0 0];

internalField   nonuniform List<scalar> 
9999
(
-49.0274
-50.7601
-52.4943
-54.2299
-55.9671
-57.7056
-59.4455
-61.1865
-62.9285
-64.6713
-66.4147
-68.1585
-69.9025
-71.6468
-73.3912
-75.1357
-76.8802
-78.6249
-80.3698
-82.1148
-83.8601
-85.6059
-87.3525
-89.1002
-90.849
-92.5993
-94.3514
-96.1055
-97.8619
-99.6203
-101.38
-103.142
-104.904
-106.668
-108.432
-110.195
-111.959
-113.723
-115.487
-117.252
-119.017
-120.783
-122.55
-124.318
-126.088
-127.859
-129.632
-131.406
-133.182
-134.959
-136.74
-138.522
-140.307
-142.093
-143.881
-145.67
-147.46
-149.252
-151.044
-152.834
-154.623
-156.41
-158.198
-159.985
-161.773
-163.561
-165.349
-167.138
-168.929
-170.723
-172.519
-174.317
-176.116
-177.913
-179.709
-181.505
-183.3
-185.094
-186.887
-188.677
-190.466
-192.254
-194.043
-195.834
-197.63
-199.43
-201.232
-203.037
-204.845
-206.659
-208.479
-210.307
-212.143
-213.987
-215.837
-217.693
-219.556
-221.427
-223.308
-225.2
-227.1
-229.008
-230.921
-232.838
-234.759
-236.686
-238.618
-240.557
-242.501
-244.449
-246.396
-248.341
-250.284
-252.224
-254.165
-256.107
-258.051
-259.996
-261.941
-263.883
-265.823
-267.76
-269.697
-271.637
-273.581
-275.532
-277.488
-279.447
-281.406
-283.365
-285.322
-287.281
-289.245
-291.215
-293.195
-295.183
-297.178
-299.177
-301.177
-303.177
-305.176
-307.178
-309.184
-311.199
-313.223
-315.256
-317.295
-319.338
-321.382
-323.425
-325.466
-327.508
-329.554
-331.608
-333.671
-335.745
-337.829
-339.92
-342.013
-344.108
-346.2
-348.291
-350.382
-352.475
-354.577
-356.688
-358.812
-360.947
-363.092
-365.243
-367.396
-369.547
-371.696
-373.843
-375.877
-377.927
-380.263
-382.525
-384.658
-386.873
-389.078
-391.271
-393.523
-395.694
-397.966
-400.118
-402.396
-404.541
-406.825
-408.994
-411.281
-413.5
-415.789
-418.061
-420.351
-422.655
-424.94
-427.256
-429.53
-431.84
-434.117
-436.416
-438.711
-441.017
-443.341
-445.672
-448.031
-450.392
-452.777
-455.168
-457.563
-459.963
-462.358
-464.754
-467.142
-469.531
-471.92
-474.31
-476.709
-479.12
-481.547
-483.989
-486.451
-488.93
-491.423
-493.929
-496.443
-498.963
-501.484
-504.003
-506.52
-509.034
-511.544
-514.054
-516.568
-519.087
-521.616
-524.159
-526.717
-529.294
-531.89
-534.505
-537.137
-539.785
-542.445
-545.115
-547.791
-550.47
-553.15
-555.829
-558.506
-561.18
-563.853
-566.527
-569.202
-571.883
-574.571
-577.271
-579.984
-582.713
-585.46
-588.227
-591.013
-593.82
-596.646
-599.489
-602.349
-605.223
-608.109
-611.004
-613.906
-616.812
-619.722
-622.633
-625.544
-628.454
-631.364
-634.273
-637.182
-640.094
-643.008
-645.928
-648.854
-651.788
-654.734
-657.693
-660.667
-663.657
-666.665
-669.692
-672.739
-675.806
-678.895
-682.005
-685.136
-688.288
-691.46
-694.652
-697.863
-701.093
-704.342
-707.607
-710.889
-714.187
-717.5
-720.826
-724.164
-727.514
-730.872
-734.239
-737.612
-740.99
-744.372
-747.759
-751.149
-754.543
-757.942
-761.347
-764.757
-768.176
-771.606
-775.046
-778.501
-781.973
-785.465
-788.976
-792.506
-796.058
-799.631
-803.219
-806.815
-810.413
-814.012
-817.615
-821.223
-824.842
-828.473
-832.117
-835.775
-839.447
-843.132
-846.832
-850.545
-854.271
-858.012
-861.766
-865.534
-869.316
-873.112
-876.921
-880.745
-884.582
-888.434
-892.299
-896.179
-900.073
-903.981
-907.904
-911.841
-915.793
-919.76
-923.741
-927.736
-931.746
-935.771
-939.81
-943.863
-947.931
-952.014
-956.112
-960.224
-964.35
-968.492
-972.649
-976.82
-981.007
-985.208
-989.425
-993.656
-997.903
-1002.16
-1006.44
-1010.73
-1015.04
-1019.36
-1023.69
-1028.04
-1032.41
-1036.79
-1041.19
-1045.6
-1050.02
-1054.46
-1058.92
-1063.39
-1067.88
-1072.38
-1076.89
-1081.43
-1085.97
-1090.53
-1095.11
-1099.7
-1104.31
-1108.93
-1113.56
-1118.21
-1122.87
-1127.55
-1132.25
-1136.96
-1141.68
-1146.42
-1151.17
-1155.94
-1160.72
-1165.52
-1170.33
-1175.15
-1179.99
-1184.84
-1189.71
-1194.59
-1199.49
-1204.4
-1209.32
-1214.25
-1219.2
-1224.17
-1229.14
-1234.13
-1239.14
-1244.16
-1249.19
-1254.23
-1259.29
-1264.36
-1269.44
-1274.53
-1279.64
-1284.76
-1289.89
-1295.04
-1300.19
-1305.36
-1310.54
-1315.73
-1320.94
-1326.15
-1331.37
-1336.61
-1341.86
-1347.12
-1352.39
-1357.67
-1362.96
-1368.25
-1373.56
-1378.88
-1384.21
-1389.55
-1394.9
-1400.26
-1405.62
-1410.99
-1416.37
-1421.77
-1427.17
-1432.57
-1437.99
-1443.41
-1448.84
-1454.27
-1459.71
-1465.16
-1470.62
-1476.08
-1481.55
-1487.02
-1492.49
-1497.98
-1503.46
-1508.96
-1514.45
-1519.95
-1525.45
-1530.96
-1536.47
-1541.98
-1547.5
-1553.02
-1558.54
-1564.06
-1569.58
-1575.11
-1580.63
-1586.16
-1591.68
-1597.2
-1602.73
-1608.25
-1613.78
-1619.3
-1624.82
-1630.34
-1635.85
-1641.36
-1646.87
-1652.38
-1657.88
-1663.38
-1668.88
-1674.37
-1679.85
-1685.33
-1690.8
-1696.27
-1701.73
-1707.18
-1712.63
-1718.07
-1723.5
-1728.92
-1734.33
-1739.74
-1745.14
-1750.52
-1755.9
-1761.26
-1766.62
-1771.96
-1777.29
-1782.61
-1787.92
-1793.22
-1798.5
-1803.77
-1809.02
-1814.26
-1819.49
-1824.7
-1829.9
-1835.08
-1840.24
-1845.39
-1850.52
-1855.64
-1860.74
-1865.82
-1870.88
-1875.92
-1880.95
-1885.95
-1890.94
-1895.9
-1900.85
-1905.78
-1910.68
-1915.57
-1920.43
-1925.27
-1930.09
-1934.89
-1939.66
-1944.42
-1949.15
-1953.85
-1958.53
-1963.19
-1967.82
-1972.43
-1977.01
-1981.57
-1986.11
-1990.61
-1995.09
-1999.55
-2003.98
-2008.37
-2012.75
-2017.1
-2021.42
-2025.71
-2029.98
-2034.22
-2038.43
-2042.61
-2046.76
-2050.89
-2054.98
-2059.04
-2063.08
-2067.08
-2071.06
-2075.01
-2078.93
-2082.82
-2086.68
-2090.5
-2094.3
-2098.07
-2101.81
-2105.51
-2109.19
-2112.83
-2116.44
-2120.03
-2123.58
-2127.1
-2130.59
-2134.06
-2137.48
-2140.88
-2144.25
-2147.58
-2150.89
-2154.16
-2157.4
-2160.61
-2163.79
-2166.94
-2170.06
-2173.15
-2176.21
-2179.23
-2182.23
-2185.19
-2188.13
-2191.03
-2193.9
-2196.74
-2199.56
-2202.34
-2205.09
-2207.81
-2210.5
-2213.16
-2215.8
-2218.4
-2220.98
-2223.52
-2226.04
-2228.53
-2230.98
-2233.42
-2235.81
-2238.19
-2240.53
-2242.85
-2245.14
-2247.4
-2249.64
-2251.85
-2254.03
-2256.18
-2258.31
-2260.41
-2262.49
-2264.53
-2266.56
-2268.56
-2270.53
-2272.48
-2274.4
-2276.3
-2278.18
-2280.03
-2281.86
-2283.66
-2285.44
-2287.19
-2288.92
-2290.63
-2292.32
-2293.99
-2295.63
-2297.26
-2298.86
-2300.43
-2302
-2303.53
-2305.05
-2306.55
-2308.03
-2309.48
-2310.92
-2312.34
-2313.73
-2315.11
-2316.48
-2317.82
-2319.14
-2320.46
-2321.75
-2323.02
-2324.28
-2325.52
-2326.74
-2327.94
-2329.14
-2330.31
-2331.46
-2332.61
-2333.74
-2334.85
-2335.95
-2337.03
-2338.1
-2339.16
-2340.2
-2341.23
-2342.24
-2343.25
-2344.24
-2345.21
-2346.18
-2347.13
-2348.07
-2348.99
-2349.91
-2350.82
-2351.71
-2352.59
-2353.47
-2354.32
-2355.18
-2356.02
-2356.85
-2357.67
-2358.48
-2359.28
-2360.07
-2360.85
-2361.63
-2362.39
-2363.15
-2363.9
-2364.64
-2365.37
-2366.1
-2366.81
-2367.52
-2368.22
-2368.92
-2369.6
-2370.28
-2370.95
-2371.62
-2372.27
-2372.93
-2373.58
-2374.22
-2374.85
-2375.48
-2376.1
-2376.72
-2377.33
-2377.94
-2378.54
-2379.13
-2379.73
-2380.31
-2380.89
-2381.47
-2382.05
-2382.61
-2383.17
-2383.74
-2384.29
-2384.84
-2385.39
-2385.93
-2386.47
-2387
-2387.54
-2388.06
-2388.58
-2389.11
-2389.63
-2390.14
-2390.65
-2391.17
-2391.67
-2392.17
-2392.68
-2393.18
-2393.67
-2394.16
-2394.66
-2395.14
-2395.62
-2396.11
-2396.59
-2397.07
-2397.55
-2398.02
-2398.5
-2398.96
-2399.43
-2399.91
-2400.37
-2400.83
-2401.29
-2401.76
-2402.21
-2402.67
-2403.13
-2403.58
-2404.03
-2404.48
-2404.93
-2405.38
-2405.83
-2406.28
-2406.72
-2407.16
-2407.61
-2408.05
-2408.49
-2408.93
-2409.37
-2409.81
-2410.24
-2410.68
-2411.12
-2411.55
-2411.98
-2412.41
-2412.85
-2413.28
-2413.7
-2414.14
-2414.57
-2414.99
-2415.42
-2415.85
-2416.27
-2416.69
-2417.12
-2417.55
-2417.97
-2418.39
-2418.82
-2419.24
-2419.66
-2420.08
-2420.51
-2420.93
-2421.35
-2421.77
-2422.19
-2422.61
-2423.02
-2423.45
-2423.87
-2424.28
-2424.7
-2425.12
-2425.54
-2425.95
-2426.37
-2426.79
-2427.21
-2427.62
-2428.04
-2428.45
-2428.86
-2429.28
-2429.7
-2430.11
-2430.52
-2430.94
-2431.36
-2431.77
-2432.18
-2432.6
-2433.01
-2433.42
-2433.83
-2434.25
-2434.67
-2435.07
-2435.49
-2435.9
-2436.32
-2436.72
-2437.14
-2437.56
-2437.97
-2438.38
-2438.79
-2439.21
-2439.62
-2440.03
-2440.44
-2440.86
-2441.26
-2441.67
-2442.09
-2442.5
-2442.91
-2443.32
-2443.73
-2444.14
-2444.55
-2444.96
-2445.38
-2445.78
-2446.19
-2446.61
-2447.02
-2447.43
-2447.84
-2448.25
-2448.67
-2449.07
-2449.49
-2449.9
-2450.31
-2450.72
-2451.13
-2451.55
-2451.96
-2452.36
-2452.78
-2453.19
-2453.6
-2454.01
-2454.42
-2454.83
-2455.24
-2455.65
-2456.06
-2456.47
-2456.88
-2457.29
-2457.7
-2458.12
-2458.52
-2458.93
-2459.34
-2459.76
-2460.16
-2460.57
-2460.99
-2461.4
-2461.8
-2462.22
-2462.64
-2463.05
-2463.45
-2463.86
-2464.28
-2464.69
-2465.09
-2465.51
-2465.92
-2466.33
-2466.73
-2467.15
-2467.56
-2467.97
-2468.37
-2468.79
-2469.2
-2469.61
-2470.01
-2470.43
-2470.84
-2471.25
-2471.65
-2472.07
-2472.49
-2472.89
-2473.3
-2473.71
-2474.13
-2474.54
-2474.94
-2475.36
-2475.77
-2476.18
-2476.59
-2477
-2477.42
-2477.82
-2478.23
-2478.64
-2479.06
-2479.46
-2479.87
-2480.29
-2480.7
-2481.1
-2481.51
-2481.93
-2482.34
-2482.74
-2483.15
-2483.57
-2483.98
-2484.38
-2484.79
-2485.21
-2485.62
-2486.03
-2486.44
-2486.85
-2487.27
-2487.67
-2488.08
-2488.5
-2488.91
-2489.32
-2489.73
-2490.14
-2490.56
-2490.96
-2491.37
-2491.79
-2492.2
-2492.6
-2493.01
-2493.43
-2493.84
-2494.24
-2494.65
-2495.07
-2495.48
-2495.89
-2496.29
-2496.71
-2497.12
-2497.53
-2497.94
-2498.35
-2498.77
-2499.18
-2499.58
-2500
-2500.42
-2500.82
-2501.23
-2501.64
-2502.06
-2502.47
-2502.87
-2503.29
-2503.71
-2504.11
-2504.52
-2504.93
-2505.35
-2505.76
-2506.16
-2506.57
-2506.99
-2507.4
-2507.8
-2508.21
-2508.63
-2509.05
-2509.45
-2509.86
-2510.28
-2510.69
-2511.1
-2511.5
-2511.92
-2512.34
-2512.74
-2513.15
-2513.57
-2513.99
-2514.39
-2514.8
-2515.22
-2515.63
-2516.04
-2516.45
-2516.86
-2517.28
-2517.69
-2518.09
-2518.51
-2518.93
-2519.34
-2519.74
-2520.15
-2520.57
-2520.98
-2521.38
-2521.79
-2522.21
-2522.63
-2523.03
-2523.44
-2523.86
-2524.28
-2524.68
-2525.09
-2525.51
-2525.93
-2526.34
-2526.74
-2527.16
-2527.58
-2527.99
-2528.39
-2528.81
-2529.23
-2529.64
-2530.04
-2530.45
-2530.87
-2531.29
-2531.69
-2532.1
-2532.52
-2532.94
-2533.34
-2533.75
-2534.17
-2534.59
-2535
-2535.4
-2535.82
-2536.24
-2536.65
-2537.06
-2537.47
-2537.89
-2538.3
-2538.71
-2539.12
-2539.54
-2539.95
-2540.36
-2540.77
-2541.18
-2541.61
-2542.01
-2542.42
-2542.83
-2543.26
-2543.67
-2544.07
-2544.49
-2544.91
-2545.33
-2545.73
-2546.14
-2546.56
-2546.98
-2547.39
-2547.79
-2548.21
-2548.63
-2549.04
-2549.45
-2549.86
-2550.28
-2550.7
-2551.1
-2551.51
-2551.93
-2552.35
-2552.76
-2553.16
-2553.58
-2554.01
-2554.42
-2554.82
-2555.24
-2555.66
-2556.08
-2556.48
-2556.89
-2557.32
-2557.74
-2558.14
-2558.55
-2558.97
-2559.39
-2559.8
-2560.2
-2560.62
-2561.04
-2561.45
-2561.86
-2562.27
-2562.69
-2563.11
-2563.52
-2563.92
-2564.34
-2564.77
-2565.18
-2565.59
-2566
-2566.43
-2566.85
-2567.25
-2567.66
-2568.08
-2568.51
-2568.92
-2569.32
-2569.74
-2570.16
-2570.57
-2570.98
-2571.39
-2571.81
-2572.23
-2572.64
-2573.04
-2573.46
-2573.88
-2574.29
-2574.7
-2575.11
-2575.54
-2575.96
-2576.36
-2576.77
-2577.19
-2577.62
-2578.03
-2578.44
-2578.85
-2579.28
-2579.7
-2580.1
-2580.51
-2580.94
-2581.36
-2581.77
-2582.17
-2582.59
-2583.01
-2583.43
-2583.83
-2584.24
-2584.66
-2585.08
-2585.49
-2585.89
-2586.31
-2586.74
-2587.15
-2587.56
-2587.97
-2588.4
-2588.82
-2589.22
-2589.63
-2590.05
-2590.48
-2590.89
-2591.3
-2591.71
-2592.14
-2592.56
-2592.97
-2593.37
-2593.8
-2594.22
-2594.63
-2595.03
-2595.45
-2595.87
-2596.29
-2596.7
-2597.1
-2597.52
-2597.95
-2598.36
-2598.76
-2599.18
-2599.6
-2600.02
-2600.43
-2600.84
-2601.26
-2601.68
-2602.1
-2602.5
-2602.92
-2603.34
-2603.77
-2604.17
-2604.58
-2605
-2605.43
-2605.84
-2606.25
-2606.66
-2607.08
-2607.5
-2607.91
-2608.31
-2608.73
-2609.16
-2609.57
-2609.98
-2610.38
-2610.81
-2611.23
-2611.64
-2612.05
-2612.46
-2612.89
-2613.31
-2613.72
-2614.12
-2614.55
-2614.97
-2615.39
-2615.79
-2616.21
-2616.63
-2617.06
-2617.46
-2617.87
-2618.29
-2618.72
-2619.13
-2619.53
-2619.94
-2620.37
-2620.79
-2621.2
-2621.6
-2622.02
-2622.45
-2622.86
-2623.27
-2623.68
-2624.1
-2624.52
-2624.94
-2625.34
-2625.75
-2626.18
-2626.61
-2627.01
-2627.42
-2627.84
-2628.27
-2628.69
-2629.09
-2629.5
-2629.92
-2630.35
-2630.76
-2631.17
-2631.58
-2632.01
-2632.43
-2632.83
-2633.24
-2633.66
-2634.09
-2634.5
-2634.9
-2635.31
-2635.74
-2636.16
-2636.57
-2636.98
-2637.39
-2637.82
-2638.24
-2638.65
-2639.06
-2639.48
-2639.91
-2640.32
-2640.73
-2641.14
-2641.56
-2641.99
-2642.4
-2642.81
-2643.22
-2643.65
-2644.07
-2644.48
-2644.88
-2645.3
-2645.73
-2646.15
-2646.55
-2646.96
-2647.38
-2647.81
-2648.23
-2648.63
-2649.04
-2649.47
-2649.89
-2650.3
-2650.71
-2651.12
-2651.55
-2651.98
-2652.38
-2652.79
-2653.21
-2653.64
-2654.06
-2654.46
-2654.87
-2655.3
-2655.73
-2656.14
-2656.55
-2656.96
-2657.38
-2657.81
-2658.22
-2658.62
-2659.04
-2659.47
-2659.89
-2660.3
-2660.7
-2661.13
-2661.55
-2661.97
-2662.38
-2662.79
-2663.21
-2663.64
-2664.06
-2664.46
-2664.88
-2665.3
-2665.73
-2666.14
-2666.55
-2666.96
-2667.39
-2667.82
-2668.23
-2668.63
-2669.05
-2669.48
-2669.9
-2670.31
-2670.72
-2671.14
-2671.57
-2671.99
-2672.39
-2672.81
-2673.23
-2673.66
-2674.07
-2674.48
-2674.89
-2675.32
-2675.75
-2676.16
-2676.57
-2676.98
-2677.41
-2677.84
-2678.25
-2678.66
-2679.08
-2679.51
-2679.93
-2680.34
-2680.75
-2681.17
-2681.6
-2682.02
-2682.43
-2682.84
-2683.27
-2683.7
-2684.12
-2684.52
-2684.93
-2685.36
-2685.79
-2686.21
-2686.61
-2687.03
-2687.45
-2687.88
-2688.3
-2688.71
-2689.12
-2689.55
-2689.98
-2690.4
-2690.8
-2691.22
-2691.65
-2692.08
-2692.49
-2692.9
-2693.32
-2693.75
-2694.18
-2694.59
-2695
-2695.42
-2695.85
-2696.27
-2696.69
-2697.1
-2697.52
-2697.95
-2698.37
-2698.78
-2699.2
-2699.62
-2700.05
-2700.47
-2700.88
-2701.3
-2701.72
-2702.15
-2702.57
-2702.99
-2703.4
-2703.83
-2704.26
-2704.68
-2705.09
-2705.51
-2705.93
-2706.37
-2706.79
-2707.2
-2707.61
-2708.04
-2708.47
-2708.89
-2709.3
-2709.72
-2710.15
-2710.58
-2711
-2711.41
-2711.83
-2712.26
-2712.69
-2713.11
-2713.52
-2713.94
-2714.37
-2714.8
-2715.22
-2715.63
-2716.05
-2716.48
-2716.91
-2717.33
-2717.74
-2718.16
-2718.59
-2719.03
-2719.45
-2719.86
-2720.28
-2720.71
-2721.14
-2721.56
-2721.97
-2722.39
-2722.82
-2723.26
-2723.68
-2724.09
-2724.51
-2724.94
-2725.37
-2725.79
-2726.21
-2726.63
-2727.06
-2727.49
-2727.91
-2728.33
-2728.75
-2729.18
-2729.61
-2730.04
-2730.45
-2730.87
-2731.3
-2731.74
-2732.16
-2732.58
-2733
-2733.43
-2733.86
-2734.28
-2734.7
-2735.12
-2735.55
-2735.98
-2736.41
-2736.83
-2737.25
-2737.68
-2738.11
-2738.54
-2738.95
-2739.37
-2739.8
-2740.24
-2740.67
-2741.08
-2741.5
-2741.93
-2742.37
-2742.8
-2743.22
-2743.64
-2744.07
-2744.5
-2744.93
-2745.35
-2745.77
-2746.2
-2746.64
-2747.07
-2747.49
-2747.9
-2748.33
-2748.77
-2749.2
-2749.62
-2750.04
-2750.47
-2750.9
-2751.34
-2751.76
-2752.18
-2752.6
-2753.04
-2753.47
-2753.9
-2754.32
-2754.74
-2755.18
-2755.61
-2756.04
-2756.46
-2756.89
-2757.32
-2757.76
-2758.18
-2758.61
-2759.03
-2759.46
-2759.9
-2760.33
-2760.75
-2761.18
-2761.61
-2762.04
-2762.47
-2762.9
-2763.32
-2763.75
-2764.19
-2764.62
-2765.04
-2765.47
-2765.9
-2766.33
-2766.77
-2767.19
-2767.62
-2768.05
-2768.48
-2768.92
-2769.34
-2769.77
-2770.2
-2770.63
-2771.07
-2771.5
-2771.92
-2772.35
-2772.78
-2773.22
-2773.65
-2774.08
-2774.5
-2774.93
-2775.37
-2775.81
-2776.23
-2776.65
-2777.09
-2777.52
-2777.96
-2778.39
-2778.81
-2779.24
-2779.68
-2780.12
-2780.54
-2780.97
-2781.4
-2781.83
-2782.27
-2782.7
-2783.13
-2783.55
-2783.99
-2784.43
-2784.86
-2785.29
-2785.72
-2786.15
-2786.59
-2787.02
-2787.45
-2787.88
-2788.31
-2788.75
-2789.18
-2789.61
-2790.04
-2790.47
-2790.91
-2791.34
-2791.78
-2792.2
-2792.63
-2793.07
-2793.51
-2793.94
-2794.37
-2794.8
-2795.23
-2795.67
-2796.11
-2796.54
-2796.96
-2797.4
-2797.83
-2798.27
-2798.7
-2799.13
-2799.56
-2800
-2800.44
-2800.87
-2801.3
-2801.73
-2802.17
-2802.61
-2803.04
-2803.47
-2803.9
-2804.33
-2804.77
-2805.21
-2805.64
-2806.07
-2806.5
-2806.94
-2807.38
-2807.81
-2808.24
-2808.67
-2809.11
-2809.55
-2809.98
-2810.41
-2810.84
-2811.28
-2811.72
-2812.15
-2812.59
-2813.01
-2813.45
-2813.89
-2814.33
-2814.76
-2815.19
-2815.62
-2816.06
-2816.5
-2816.93
-2817.36
-2817.79
-2818.23
-2818.67
-2819.11
-2819.54
-2819.97
-2820.4
-2820.84
-2821.28
-2821.72
-2822.15
-2822.58
-2823.02
-2823.46
-2823.89
-2824.32
-2824.75
-2825.19
-2825.63
-2826.07
-2826.5
-2826.93
-2827.37
-2827.81
-2828.24
-2828.68
-2829.11
-2829.54
-2829.98
-2830.42
-2830.86
-2831.29
-2831.72
-2832.16
-2832.6
-2833.04
-2833.47
-2833.9
-2834.34
-2834.78
-2835.22
-2835.65
-2836.08
-2836.52
-2836.95
-2837.4
-2837.83
-2838.27
-2838.7
-2839.13
-2839.57
-2840.01
-2840.45
-2840.88
-2841.32
-2841.75
-2842.2
-2842.63
-2843.07
-2843.5
-2843.94
-2844.38
-2844.82
-2845.25
-2845.68
-2846.12
-2846.56
-2847
-2847.44
-2847.87
-2848.3
-2848.74
-2849.18
-2849.62
-2850.06
-2850.49
-2850.92
-2851.36
-2851.8
-2852.24
-2852.67
-2853.11
-2853.55
-2853.99
-2854.43
-2854.86
-2855.3
-2855.73
-2856.17
-2856.61
-2857.05
-2857.48
-2857.92
-2858.36
-2858.8
-2859.24
-2859.67
-2860.11
-2860.55
-2860.99
-2861.43
-2861.86
-2862.3
-2862.74
-2863.18
-2863.62
-2864.05
-2864.49
-2864.92
-2865.36
-2865.81
-2866.25
-2866.68
-2867.12
-2867.55
-2867.99
-2868.44
-2868.87
-2869.31
-2869.74
-2870.18
-2870.63
-2871.07
-2871.5
-2871.94
-2872.38
-2872.82
-2873.26
-2873.7
-2874.13
-2874.57
-2875.01
-2875.45
-2875.89
-2876.33
-2876.77
-2877.2
-2877.64
-2878.08
-2878.52
-2878.96
-2879.4
-2879.84
-2880.28
-2880.72
-2881.16
-2881.6
-2882.03
-2882.47
-2882.92
-2883.36
-2883.79
-2884.23
-2884.67
-2885.11
-2885.55
-2885.99
-2886.43
-2886.87
-2887.31
-2887.75
-2888.19
-2888.63
-2889.07
-2889.51
-2889.95
-2890.39
-2890.83
-2891.27
-2891.71
-2892.15
-2892.59
-2893.03
-2893.47
-2893.91
-2894.35
-2894.79
-2895.24
-2895.68
-2896.11
-2896.55
-2896.99
-2897.44
-2897.88
-2898.32
-2898.76
-2899.19
-2899.64
-2900.08
-2900.52
-2900.96
-2901.4
-2901.84
-2902.28
-2902.73
-2903.17
-2903.61
-2904.05
-2904.49
-2904.93
-2905.37
-2905.82
-2906.26
-2906.7
-2907.14
-2907.58
-2908.02
-2908.46
-2908.9
-2909.35
-2909.79
-2910.23
-2910.67
-2911.11
-2911.55
-2912
-2912.44
-2912.88
-2913.32
-2913.76
-2914.21
-2914.65
-2915.09
-2915.54
-2915.98
-2916.42
-2916.86
-2917.31
-2917.75
-2918.19
-2918.63
-2919.07
-2919.52
-2919.96
-2920.41
-2920.85
-2921.29
-2921.73
-2922.18
-2922.62
-2923.06
-2923.5
-2923.94
-2924.39
-2924.83
-2925.28
-2925.72
-2926.16
-2926.6
-2927.05
-2927.49
-2927.94
-2928.38
-2928.82
-2929.27
-2929.71
-2930.16
-2930.6
-2931.04
-2931.49
-2931.93
-2932.38
-2932.82
-2933.27
-2933.71
-2934.15
-2934.6
-2935.04
-2935.49
-2935.93
-2936.37
-2936.82
-2937.26
-2937.71
-2938.15
-2938.6
-2939.04
-2939.49
-2939.93
-2940.38
-2940.82
-2941.27
-2941.71
-2942.16
-2942.6
-2943.05
-2943.49
-2943.94
-2944.38
-2944.83
-2945.28
-2945.72
-2946.17
-2946.61
-2947.06
-2947.5
-2947.95
-2948.4
-2948.84
-2949.29
-2949.73
-2950.18
-2950.63
-2951.07
-2951.52
-2951.96
-2952.41
-2952.86
-2953.31
-2953.75
-2954.2
-2954.64
-2955.09
-2955.54
-2955.99
-2956.43
-2956.88
-2957.33
-2957.77
-2958.22
-2958.67
-2959.12
-2959.56
-2960.01
-2960.46
-2960.91
-2961.35
-2961.8
-2962.25
-2962.7
-2963.14
-2963.59
-2964.04
-2964.49
-2964.94
-2965.38
-2965.83
-2966.28
-2966.73
-2967.18
-2967.63
-2968.08
-2968.52
-2968.97
-2969.42
-2969.87
-2970.32
-2970.77
-2971.22
-2971.67
-2972.11
-2972.56
-2973.01
-2973.46
-2973.91
-2974.36
-2974.81
-2975.26
-2975.71
-2976.16
-2976.61
-2977.06
-2977.51
-2977.96
-2978.41
-2978.86
-2979.31
-2979.76
-2980.21
-2980.66
-2981.11
-2981.56
-2982.01
-2982.46
-2982.91
-2983.36
-2983.81
-2984.26
-2984.71
-2985.17
-2985.62
-2986.07
-2986.52
-2986.97
-2987.42
-2987.87
-2988.32
-2988.78
-2989.23
-2989.68
-2990.13
-2990.58
-2991.03
-2991.49
-2991.94
-2992.39
-2992.84
-2993.29
-2993.75
-2994.2
-2994.65
-2995.1
-2995.56
-2996.01
-2996.46
-2996.91
-2997.37
-2997.82
-2998.27
-2998.72
-2999.18
-2999.63
-3000.09
-3000.54
-3000.99
-3001.44
-3001.9
-3002.35
-3002.81
-3003.26
-3003.71
-3004.16
-3004.62
-3005.07
-3005.53
-3005.98
-3006.44
-3006.89
-3007.34
-3007.8
-3008.25
-3008.71
-3009.16
-3009.61
-3010.07
-3010.52
-3010.98
-3011.43
-3011.89
-3012.34
-3012.8
-3013.25
-3013.71
-3014.16
-3014.62
-3015.07
-3015.53
-3015.99
-3016.44
-3016.9
-3017.35
-3017.81
-3018.26
-3018.72
-3019.18
-3019.63
-3020.09
-3020.54
-3021
-3021.46
-3021.91
-3022.37
-3022.82
-3023.28
-3023.74
-3024.19
-3024.65
-3025.11
-3025.56
-3026.02
-3026.48
-3026.93
-3027.39
-3027.85
-3028.3
-3028.76
-3029.22
-3029.68
-3030.13
-3030.59
-3031.05
-3031.51
-3031.96
-3032.42
-3032.88
-3033.34
-3033.79
-3034.25
-3034.71
-3035.17
-3035.63
-3036.08
-3036.54
-3037
-3037.46
-3037.92
-3038.38
-3038.83
-3039.29
-3039.75
-3040.21
-3040.67
-3041.13
-3041.59
-3042.04
-3042.5
-3042.96
-3043.42
-3043.88
-3044.34
-3044.8
-3045.26
-3045.72
-3046.18
-3046.64
-3047.1
-3047.55
-3048.01
-3048.47
-3048.93
-3049.39
-3049.85
-3050.31
-3050.77
-3051.23
-3051.69
-3052.15
-3052.61
-3053.07
-3053.53
-3053.99
-3054.45
-3054.91
-3055.37
-3055.83
-3056.3
-3056.76
-3057.22
-3057.68
-3058.14
-3058.6
-3059.06
-3059.52
-3059.98
-3060.44
-3060.9
-3061.36
-3061.83
-3062.29
-3062.75
-3063.21
-3063.67
-3064.13
-3064.59
-3065.06
-3065.52
-3065.98
-3066.44
-3066.9
-3067.36
-3067.83
-3068.29
-3068.75
-3069.21
-3069.67
-3070.13
-3070.6
-3071.06
-3071.52
-3071.98
-3072.45
-3072.91
-3073.37
-3073.83
-3074.3
-3074.76
-3075.22
-3075.68
-3076.15
-3076.61
-3077.07
-3077.54
-3078
-3078.46
-3078.92
-3079.39
-3079.85
-3080.31
-3080.78
-3081.24
-3081.7
-3082.17
-3082.63
-3083.09
-3083.56
-3084.02
-3084.48
-3084.95
-3085.41
-3085.88
-3086.34
-3086.8
-3087.27
-3087.73
-3088.19
-3088.66
-3089.12
-3089.59
-3090.05
-3090.52
-3090.98
-3091.44
-3091.91
-3092.37
-3092.84
-3093.3
-3093.77
-3094.23
-3094.7
-3095.16
-3095.62
-3096.09
-3096.56
-3097.02
-3097.48
-3097.95
-3098.41
-3098.88
-3099.34
-3099.81
-3100.28
-3100.74
-3101.21
-3101.67
-3102.14
-3102.6
-3103.07
-3103.53
-3104
-3104.46
-3104.93
-3105.4
-3105.86
-3106.33
-3106.79
-3107.26
-3107.73
-3108.19
-3108.66
-3109.12
-3109.59
-3110.06
-3110.52
-3110.99
-3111.46
-3111.92
-3112.39
-3112.85
-3113.32
-3113.79
-3114.25
-3114.72
-3115.19
-3115.65
-3116.12
-3116.59
-3117.06
-3117.52
-3117.99
-3118.46
-3118.92
-3119.39
-3119.86
-3120.33
-3120.79
-3121.26
-3121.73
-3122.2
-3122.66
-3123.13
-3123.6
-3124.07
-3124.53
-3125
-3125.47
-3125.94
-3126.41
-3126.87
-3127.34
-3127.81
-3128.28
-3128.75
-3129.21
-3129.68
-3130.15
-3130.62
-3131.09
-3131.56
-3132.02
-3132.49
-3132.96
-3133.43
-3133.9
-3134.37
-3134.84
-3135.31
-3135.77
-3136.24
-3136.71
-3137.18
-3137.65
-3138.12
-3138.59
-3139.06
-3139.53
-3140
-3140.47
-3140.94
-3141.4
-3141.87
-3142.34
-3142.81
-3143.28
-3143.75
-3144.22
-3144.69
-3145.16
-3145.63
-3146.1
-3146.57
-3147.04
-3147.51
-3147.98
-3148.45
-3148.92
-3149.4
-3149.87
-3150.34
-3150.81
-3151.28
-3151.75
-3152.22
-3152.69
-3153.16
-3153.63
-3154.1
-3154.57
-3155.04
-3155.51
-3155.99
-3156.46
-3156.93
-3157.4
-3157.87
-3158.34
-3158.81
-3159.28
-3159.76
-3160.23
-3160.7
-3161.17
-3161.64
-3162.11
-3162.59
-3163.06
-3163.53
-3164
-3164.47
-3164.95
-3165.42
-3165.89
-3166.36
-3166.84
-3167.31
-3167.78
-3168.25
-3168.72
-3169.2
-3169.67
-3170.14
-3170.61
-3171.09
-3171.56
-3172.03
-3172.51
-3172.98
-3173.45
-3173.92
-3174.4
-3174.87
-3175.34
-3175.82
-3176.29
-3176.76
-3177.24
-3177.71
-3178.18
-3178.66
-3179.13
-3179.61
-3180.08
-3180.55
-3181.03
-3181.5
-3181.97
-3182.45
-3182.92
-3183.4
-3183.87
-3184.35
-3184.82
-3185.29
-3185.77
-3186.24
-3186.72
-3187.19
-3187.67
-3188.14
-3188.62
-3189.09
-3189.57
-3190.04
-3190.52
-3190.99
-3191.47
-3191.94
-3192.42
-3192.89
-3193.37
-3193.84
-3194.32
-3194.79
-3195.27
-3195.74
-3196.22
-3196.69
-3197.17
-3197.65
-3198.12
-3198.6
-3199.07
-3199.55
-3200.03
-3200.5
-3200.98
-3201.45
-3201.93
-3202.41
-3202.88
-3203.36
-3203.84
-3204.31
-3204.79
-3205.27
-3205.74
-3206.22
-3206.69
-3207.17
-3207.65
-3208.13
-3208.6
-3209.08
-3209.56
-3210.03
-3210.51
-3210.99
-3211.47
-3211.94
-3212.42
-3212.9
-3213.38
-3213.85
-3214.33
-3214.81
-3215.29
-3215.76
-3216.24
-3216.72
-3217.2
-3217.68
-3218.16
-3218.63
-3219.11
-3219.59
-3220.07
-3220.55
-3221.02
-3221.5
-3221.98
-3222.46
-3222.94
-3223.42
-3223.9
-3224.38
-3224.85
-3225.33
-3225.81
-3226.29
-3226.77
-3227.25
-3227.73
-3228.21
-3228.69
-3229.17
-3229.65
-3230.13
-3230.61
-3231.09
-3231.57
-3232.05
-3232.53
-3233.01
-3233.49
-3233.97
-3234.45
-3234.93
-3235.41
-3235.89
-3236.37
-3236.85
-3237.33
-3237.81
-3238.29
-3238.77
-3239.25
-3239.73
-3240.21
-3240.69
-3241.17
-3241.66
-3242.14
-3242.62
-3243.1
-3243.58
-3244.06
-3244.54
-3245.02
-3245.5
-3245.99
-3246.47
-3246.95
-3247.43
-3247.91
-3248.4
-3248.88
-3249.36
-3249.84
-3250.32
-3250.8
-3251.29
-3251.77
-3252.25
-3252.73
-3253.22
-3253.7
-3254.18
-3254.66
-3255.15
-3255.63
-3256.11
-3256.6
-3257.08
-3257.56
-3258.04
-3258.53
-3259.01
-3259.49
-3259.98
-3260.46
-3260.94
-3261.43
-3261.91
-3262.39
-3262.88
-3263.36
-3263.85
-3264.33
-3264.81
-3265.3
-3265.78
-3266.27
-3266.75
-3267.23
-3267.72
-3268.2
-3268.69
-3269.17
-3269.66
-3270.14
-3270.62
-3271.11
-3271.59
-3272.08
-3272.56
-3273.05
-3273.53
-3274.02
-3274.5
-3274.99
-3275.47
-3275.96
-3276.44
-3276.93
-3277.42
-3277.9
-3278.39
-3278.87
-3279.36
-3279.84
-3280.33
-3280.82
-3281.3
-3281.79
-3282.27
-3282.76
-3283.25
-3283.73
-3284.22
-3284.71
-3285.19
-3285.68
-3286.17
-3286.65
-3287.14
-3287.62
-3288.11
-3288.6
-3289.09
-3289.57
-3290.06
-3290.55
-3291.03
-3291.52
-3292.01
-3292.5
-3292.98
-3293.47
-3293.96
-3294.45
-3294.93
-3295.42
-3295.91
-3296.4
-3296.89
-3297.37
-3297.86
-3298.35
-3298.84
-3299.33
-3299.81
-3300.3
-3300.79
-3301.28
-3301.77
-3302.26
-3302.75
-3303.23
-3303.72
-3304.21
-3304.7
-3305.19
-3305.68
-3306.17
-3306.66
-3307.15
-3307.64
-3308.13
-3308.62
-3309.1
-3309.59
-3310.08
-3310.57
-3311.06
-3311.55
-3312.04
-3312.53
-3313.02
-3313.51
-3314
-3314.49
-3314.98
-3315.47
-3315.96
-3316.45
-3316.95
-3317.44
-3317.93
-3318.42
-3318.91
-3319.4
-3319.89
-3320.38
-3320.87
-3321.36
-3321.85
-3322.34
-3322.84
-3323.33
-3323.82
-3324.31
-3324.8
-3325.29
-3325.78
-3326.28
-3326.77
-3327.26
-3327.75
-3328.24
-3328.74
-3329.23
-3329.72
-3330.21
-3330.7
-3331.2
-3331.69
-3332.18
-3332.67
-3333.17
-3333.66
-3334.15
-3334.64
-3335.14
-3335.63
-3336.12
-3336.62
-3337.11
-3337.6
-3338.1
-3338.59
-3339.08
-3339.58
-3340.07
-3340.56
-3341.06
-3341.55
-3342.04
-3342.54
-3343.03
-3343.52
-3344.02
-3344.51
-3345.01
-3345.5
-3345.99
-3346.49
-3346.98
-3347.48
-3347.97
-3348.47
-3348.96
-3349.45
-3349.95
-3350.44
-3350.94
-3351.43
-3351.93
-3352.42
-3352.92
-3353.41
-3353.91
-3354.4
-3354.9
-3355.39
-3355.89
-3356.38
-3356.88
-3357.37
-3357.87
-3358.37
-3358.86
-3359.36
-3359.85
-3360.35
-3360.84
-3361.34
-3361.84
-3362.33
-3362.83
-3363.33
-3363.82
-3364.32
-3364.81
-3365.31
-3365.81
-3366.3
-3366.8
-3367.3
-3367.79
-3368.29
-3368.79
-3369.28
-3369.78
-3370.28
-3370.78
-3371.27
-3371.77
-3372.27
-3372.77
-3373.26
-3373.76
-3374.26
-3374.76
-3375.25
-3375.75
-3376.25
-3376.75
-3377.24
-3377.74
-3378.24
-3378.74
-3379.24
-3379.73
-3380.23
-3380.73
-3381.23
-3381.73
-3382.23
-3382.72
-3383.22
-3383.72
-3384.22
-3384.72
-3385.22
-3385.72
-3386.21
-3386.71
-3387.21
-3387.71
-3388.21
-3388.71
-3389.21
-3389.71
-3390.21
-3390.71
-3391.21
-3391.71
-3392.21
-3392.71
-3393.21
-3393.7
-3394.2
-3394.7
-3395.2
-3395.7
-3396.2
-3396.7
-3397.2
-3397.71
-3398.21
-3398.71
-3399.21
-3399.71
-3400.21
-3400.71
-3401.21
-3401.71
-3402.21
-3402.71
-3403.21
-3403.71
-3404.21
-3404.71
-3405.22
-3405.72
-3406.22
-3406.72
-3407.22
-3407.72
-3408.22
-3408.73
-3409.23
-3409.73
-3410.23
-3410.73
-3411.23
-3411.74
-3412.24
-3412.74
-3413.24
-3413.74
-3414.25
-3414.75
-3415.25
-3415.75
-3416.25
-3416.76
-3417.26
-3417.76
-3418.26
-3418.77
-3419.27
-3419.77
-3420.27
-3420.78
-3421.28
-3421.78
-3422.29
-3422.79
-3423.29
-3423.8
-3424.3
-3424.8
-3425.31
-3425.81
-3426.31
-3426.82
-3427.32
-3427.82
-3428.33
-3428.83
-3429.33
-3429.84
-3430.34
-3430.85
-3431.35
-3431.85
-3432.36
-3432.86
-3433.37
-3433.87
-3434.37
-3434.88
-3435.38
-3435.89
-3436.39
-3436.9
-3437.4
-3437.91
-3438.41
-3438.92
-3439.42
-3439.93
-3440.43
-3440.94
-3441.44
-3441.95
-3442.45
-3442.96
-3443.46
-3443.97
-3444.47
-3444.98
-3445.48
-3445.99
-3446.5
-3447
-3447.51
-3448.01
-3448.52
-3449.02
-3449.53
-3450.04
-3450.54
-3451.05
-3451.56
-3452.06
-3452.57
-3453.08
-3453.58
-3454.09
-3454.59
-3455.1
-3455.61
-3456.12
-3456.62
-3457.13
-3457.64
-3458.14
-3458.65
-3459.16
-3459.66
-3460.17
-3460.68
-3461.19
-3461.69
-3462.2
-3462.71
-3463.22
-3463.72
-3464.23
-3464.74
-3465.25
-3465.75
-3466.26
-3466.77
-3467.28
-3467.79
-3468.29
-3468.8
-3469.31
-3469.82
-3470.33
-3470.84
-3471.34
-3471.85
-3472.36
-3472.87
-3473.38
-3473.89
-3474.4
-3474.91
-3475.41
-3475.92
-3476.43
-3476.94
-3477.45
-3477.96
-3478.47
-3478.98
-3479.49
-3480
-3480.51
-3481.02
-3481.53
-3482.04
-3482.55
-3483.06
-3483.57
-3484.08
-3484.59
-3485.1
-3485.61
-3486.12
-3486.63
-3487.14
-3487.65
-3488.16
-3488.67
-3489.18
-3489.69
-3490.2
-3490.71
-3491.22
-3491.73
-3492.24
-3492.76
-3493.27
-3493.78
-3494.29
-3494.8
-3495.31
-3495.82
-3496.33
-3496.85
-3497.36
-3497.87
-3498.38
-3498.89
-3499.4
-3499.92
-3500.43
-3500.94
-3501.45
-3501.96
-3502.48
-3502.99
-3503.5
-3504.01
-3504.53
-3505.04
-3505.55
-3506.06
-3506.58
-3507.09
-3507.6
-3508.11
-3508.63
-3509.14
-3509.65
-3510.17
-3510.68
-3511.19
-3511.7
-3512.22
-3512.73
-3513.25
-3513.76
-3514.27
-3514.79
-3515.3
-3515.81
-3516.33
-3516.84
-3517.35
-3517.87
-3518.38
-3518.9
-3519.41
-3519.93
-3520.44
-3520.95
-3521.47
-3521.98
-3522.5
-3523.01
-3523.53
-3524.04
-3524.56
-3525.07
-3525.59
-3526.1
-3526.62