/*--------------------------------*- C++ -*----------------------------------*\
  =========                 |
  \\      /  F ield         | OpenFOAM: The Open Source CFD Toolbox
   \\    /   O peration     | Website:  https://openfoam.org
    \\  /    A nd           | Version:  9
     \\/     M anipulation  |
\*---------------------------------------------------------------------------*/
FoamFile
{
    format      ascii;
    class       volScalarField;
    location    "0.049";
    object      mag(U);
}
// * * * * * * * * * * * * * * * * * * * * * * * * * * * * * * * * * * * * * //

dimensions      [0 1 -1 0 0 0 0];

internalField   nonuniform List<scalar> 
10000
(
8.91964
8.94379
8.97469
9.00005
9.02212
9.04399
9.06643
9.08914
9.11184
9.13448
9.1571
9.17972
9.20235
9.22498
9.24761
9.27023
9.29286
9.31548
9.3381
9.36072
9.38334
9.40596
9.42858
9.4512
9.47382
9.49643
9.51904
9.54166
9.56427
9.58688
9.60948
9.63209
9.6547
9.6773
9.6999
9.72251
9.74511
9.7677
9.7903
9.81289
9.83549
9.85808
9.88067
9.90326
9.92584
9.94843
9.97101
9.99359
10.0162
10.0387
10.0613
10.0839
10.1065
10.129
10.1516
10.1742
10.1967
10.2193
10.2419
10.2644
10.287
10.3095
10.3321
10.3546
10.3772
10.3997
10.4222
10.4448
10.4673
10.4899
10.5124
10.5349
10.5574
10.58
10.6025
10.625
10.6475
10.67
10.6925
10.7151
10.7376
10.7601
10.7826
10.8051
10.8276
10.8501
10.8725
10.895
10.9175
10.94
10.9625
10.9849
11.0074
11.0299
11.0524
11.0748
11.0973
11.1197
11.1422
11.1646
11.1871
11.2095
11.232
11.2544
11.2768
11.2992
11.3217
11.3441
11.3665
11.3889
11.4113
11.4337
11.4561
11.4785
11.5009
11.5233
11.5457
11.568
11.5904
11.6128
11.6352
11.6575
11.6799
11.7022
11.7246
11.7469
11.7692
11.7916
11.8139
11.8362
11.8586
11.8809
11.9032
11.9255
11.9478
11.9701
11.9924
12.0147
12.0369
12.0592
12.0815
12.1038
12.126
12.1483
12.1705
12.1928
12.215
12.2373
12.2595
12.2817
12.3039
12.3261
12.3484
12.3706
12.3928
12.415
12.4371
12.4593
12.4815
12.5037
12.5258
12.548
12.5701
12.5923
12.6144
12.6366
12.6587
12.6808
12.7029
12.725
12.7471
12.7692
12.7913
12.8134
12.8355
12.8576
12.8796
12.9017
12.9237
12.9458
12.9678
12.9898
13.0119
13.0339
13.0559
13.0779
13.0999
13.1219
13.1439
13.1658
13.1878
13.2098
13.2317
13.2537
13.2756
13.2975
13.3194
13.3414
13.3633
13.3852
13.4071
13.4289
13.4508
13.4727
13.4945
13.5164
13.5382
13.5601
13.5819
13.6037
13.6255
13.6473
13.6691
13.6909
13.7127
13.7345
13.7562
13.778
13.7997
13.8214
13.8432
13.8649
13.8866
13.9083
13.93
13.9517
13.9733
13.995
14.0166
14.0383
14.0599
14.0815
14.1031
14.1247
14.1463
14.1679
14.1895
14.2111
14.2326
14.2542
14.2757
14.2972
14.3187
14.3402
14.3617
14.3832
14.4047
14.4261
14.4476
14.469
14.4904
14.5119
14.5333
14.5547
14.576
14.5974
14.6188
14.6401
14.6615
14.6828
14.7041
14.7254
14.7467
14.768
14.7893
14.8105
14.8318
14.853
14.8742
14.8954
14.9166
14.9378
14.959
14.9801
15.0013
15.0224
15.0435
15.0646
15.0857
15.1068
15.1279
15.1489
15.17
15.191
15.212
15.233
15.254
15.275
15.296
15.3169
15.3378
15.3588
15.3797
15.4006
15.4214
15.4423
15.4631
15.484
15.5048
15.5256
15.5464
15.5672
15.5879
15.6087
15.6294
15.6501
15.6708
15.6915
15.7122
15.7328
15.7535
15.7741
15.7947
15.8153
15.8359
15.8564
15.877
15.8975
15.918
15.9385
15.959
15.9795
15.9999
16.0203
16.0407
16.0611
16.0815
16.1019
16.1222
16.1425
16.1628
16.1831
16.2034
16.2237
16.2439
16.2641
16.2843
16.3045
16.3247
16.3448
16.3649
16.385
16.4051
16.4252
16.4452
16.4653
16.4853
16.5053
16.5253
16.5452
16.5652
16.5851
16.605
16.6248
16.6447
16.6645
16.6843
16.7041
16.7239
16.7437
16.7634
16.7831
16.8028
16.8225
16.8421
16.8618
16.8814
16.901
16.9205
16.9401
16.9596
16.9791
16.9986
17.018
17.0375
17.0569
17.0763
17.0956
17.115
17.1343
17.1536
17.1729
17.1921
17.2113
17.2305
17.2497
17.2689
17.288
17.3071
17.3262
17.3453
17.3643
17.3833
17.4023
17.4213
17.4402
17.4592
17.478
17.4969
17.5158
17.5346
17.5534
17.5721
17.5909
17.6096
17.6283
17.6469
17.6656
17.6842
17.7028
17.7213
17.7399
17.7584
17.7769
17.7953
17.8138
17.8322
17.8505
17.8689
17.8872
17.9055
17.9237
17.942
17.9602
17.9784
17.9965
18.0147
18.0328
18.0508
18.0689
18.0869
18.1049
18.1228
18.1407
18.1586
18.1765
18.1944
18.2122
18.2299
18.2477
18.2654
18.2831
18.3008
18.3184
18.336
18.3536
18.3711
18.3887
18.4061
18.4236
18.441
18.4584
18.4758
18.4931
18.5104
18.5277
18.5449
18.5621
18.5793
18.5965
18.6136
18.6307
18.6477
18.6648
18.6818
18.6987
18.7156
18.7325
18.7494
18.7662
18.783
18.7998
18.8166
18.8333
18.8499
18.8666
18.8832
18.8998
18.9163
18.9328
18.9493
18.9658
18.9822
18.9986
19.0149
19.0312
19.0475
19.0638
19.08
19.0962
19.1123
19.1285
19.1445
19.1606
19.1766
19.1926
19.2086
19.2245
19.2404
19.2563
19.2721
19.2879
19.3036
19.3194
19.3351
19.3507
19.3664
19.382
19.3975
19.4131
19.4286
19.444
19.4595
19.4749
19.4902
19.5056
19.5209
19.5361
19.5514
19.5666
19.5817
19.5969
19.612
19.6271
19.6421
19.6571
19.6721
19.687
19.7019
19.7168
19.7317
19.7465
19.7613
19.776
19.7907
19.8054
19.8201
19.8347
19.8493
19.8639
19.8784
19.8929
19.9074
19.9218
19.9362
19.9506
19.965
19.9793
19.9936
20.0078
20.022
20.0362
20.0504
20.0645
20.0786
20.0927
20.1068
20.1208
20.1348
20.1487
20.1627
20.1766
20.1904
20.2043
20.2181
20.2319
20.2456
20.2594
20.2731
20.2867
20.3004
20.314
20.3276
20.3412
20.3547
20.3682
20.3817
20.3952
20.4086
20.422
20.4354
20.4487
20.4621
20.4754
20.4887
20.5019
20.5151
20.5284
20.5415
20.5547
20.5678
20.5809
20.594
20.6071
20.6201
20.6331
20.6461
20.6591
20.6721
20.685
20.6979
20.7108
20.7236
20.7365
20.7493
20.7621
20.7749
20.7876
20.8004
20.8131
20.8258
20.8385
20.8511
20.8638
20.8764
20.889
20.9015
20.9141
20.9267
20.9392
20.9517
20.9642
20.9767
20.9891
21.0015
21.014
21.0264
21.0388
21.0511
21.0635
21.0758
21.0881
21.1005
21.1127
21.125
21.1373
21.1495
21.1618
21.174
21.1862
21.1984
21.2106
21.2227
21.2349
21.247
21.2591
21.2713
21.2834
21.2954
21.3075
21.3196
21.3316
21.3437
21.3557
21.3677
21.3797
21.3917
21.4037
21.4157
21.4276
21.4396
21.4515
21.4635
21.4754
21.4873
21.4992
21.5111
21.523
21.5349
21.5467
21.5586
21.5705
21.5823
21.5941
21.606
21.6178
21.6296
21.6414
21.6532
21.665
21.6768
21.6885
21.7003
21.7121
21.7238
21.7356
21.7473
21.7591
21.7708
21.7825
21.7942
21.8059
21.8177
21.8294
21.8411
21.8527
21.8644
21.8761
21.8878
21.8995
21.9111
21.9228
21.9344
21.9461
21.9578
21.9694
21.981
21.9927
22.0043
22.0159
22.0276
22.0392
22.0508
22.0624
22.074
22.0856
22.0972
22.1088
22.1204
22.132
22.1436
22.1552
22.1668
22.1784
22.19
22.2016
22.2131
22.2247
22.2363
22.2479
22.2594
22.271
22.2826
22.2941
22.3057
22.3173
22.3288
22.3404
22.3519
22.3635
22.375
22.3866
22.3981
22.4097
22.4212
22.4328
22.4443
22.4558
22.4674
22.4789
22.4905
22.502
22.5135
22.5251
22.5366
22.5481
22.5597
22.5712
22.5827
22.5943
22.6058
22.6173
22.6289
22.6404
22.6519
22.6634
22.675
22.6865
22.698
22.7095
22.7211
22.7326
22.7441
22.7556
22.7672
22.7787
22.7902
22.8017
22.8132
22.8248
22.8363
22.8478
22.8593
22.8708
22.8824
22.8939
22.9054
22.9169
22.9284
22.94
22.9515
22.963
22.9745
22.986
22.9976
23.0091
23.0206
23.0321
23.0437
23.0552
23.0667
23.0782
23.0897
23.1013
23.1128
23.1243
23.1358
23.1473
23.1589
23.1704
23.1819
23.1934
23.205
23.2165
23.228
23.2395
23.2511
23.2626
23.2741
23.2856
23.2971
23.3087
23.3202
23.3317
23.3433
23.3548
23.3663
23.3778
23.3894
23.4009
23.4124
23.4239
23.4355
23.447
23.4585
23.4701
23.4816
23.4931
23.5047
23.5162
23.5277
23.5393
23.5508
23.5623
23.5739
23.5854
23.5969
23.6085
23.62
23.6315
23.6431
23.6546
23.6661
23.6777
23.6892
23.7007
23.7123
23.7238
23.7354
23.7469
23.7584
23.77
23.7815
23.7931
23.8046
23.8161
23.8277
23.8392
23.8508
23.8623
23.8739
23.8854
23.897
23.9085
23.92
23.9316
23.9431
23.9547
23.9662
23.9778
23.9893
24.0009
24.0124
24.024
24.0355
24.0471
24.0586
24.0702
24.0817
24.0933
24.1048
24.1164
24.1279
24.1395
24.151
24.1626
24.1742
24.1857
24.1973
24.2088
24.2204
24.2319
24.2435
24.2551
24.2666
24.2782
24.2897
24.3013
24.3129
24.3244
24.336
24.3475
24.3591
24.3707
24.3822
24.3938
24.4053
24.4169
24.4285
24.44
24.4516
24.4632
24.4747
24.4863
24.4979
24.5094
24.521
24.5326
24.5441
24.5557
24.5673
24.5789
24.5904
24.602
24.6136
24.6251
24.6367
24.6483
24.6599
24.6714
24.683
24.6946
24.7062
24.7177
24.7293
24.7409
24.7525
24.764
24.7756
24.7872
24.7988
24.8103
24.8219
24.8335
24.8451
24.8567
24.8682
24.8798
24.8914
24.903
24.9146
24.9261
24.9377
24.9493
24.9609
24.9725
24.9841
24.9956
25.0072
25.0188
25.0304
25.042
25.0536
25.0652
25.0767
25.0883
25.0999
25.1115
25.1231
25.1347
25.1463
25.1579
25.1695
25.1811
25.1926
25.2042
25.2158
25.2274
25.239
25.2506
25.2622
25.2738
25.2854
25.297
25.3086
25.3202
25.3318
25.3434
25.355
25.3666
25.3782
25.3898
25.4014
25.413
25.4246
25.4362
25.4478
25.4594
25.471
25.4826
25.4942
25.5058
25.5174
25.529
25.5406
25.5522
25.5638
25.5754
25.587
25.5986
25.6102
25.6218
25.6334
25.645
25.6566
25.6682
25.6798
25.6914
25.7031
25.7147
25.7263
25.7379
25.7495
25.7611
25.7727
25.7843
25.7959
25.8076
25.8192
25.8308
25.8424
25.854
25.8656
25.8772
25.8888
25.9005
25.9121
25.9237
25.9353
25.9469
25.9585
25.9702
25.9818
25.9934
26.005
26.0166
26.0282
26.0399
26.0515
26.0631
26.0747
26.0863
26.098
26.1096
26.1212
26.1328
26.1445
26.1561
26.1677
26.1793
26.191
26.2026
26.2142
26.2258
26.2375
26.2491
26.2607
26.2723
26.284
26.2956
26.3072
26.3188
26.3305
26.3421
26.3537
26.3654
26.377
26.3886
26.4003
26.4119
26.4235
26.4351
26.4468
26.4584
26.47
26.4817
26.4933
26.5049
26.5166
26.5282
26.5398
26.5515
26.5631
26.5748
26.5864
26.598
26.6097
26.6213
26.6329
26.6446
26.6562
26.6679
26.6795
26.6911
26.7028
26.7144
26.7261
26.7377
26.7493
26.761
26.7726
26.7843
26.7959
26.8076
26.8192
26.8308
26.8425
26.8541
26.8658
26.8774
26.8891
26.9007
26.9124
26.924
26.9356
26.9473
26.9589
26.9706
26.9822
26.9939
27.0055
27.0172
27.0288
27.0405
27.0521
27.0638
27.0754
27.0871
27.0987
27.1104
27.122
27.1337
27.1454
27.157
27.1687
27.1803
27.192
27.2036
27.2153
27.2269
27.2386
27.2502
27.2619
27.2736
27.2852
27.2969
27.3085
27.3202
27.3318
27.3435
27.3552
27.3668
27.3785
27.3901
27.4018
27.4135
27.4251
27.4368
27.4485
27.4601
27.4718
27.4834
27.4951
27.5068
27.5184
27.5301
27.5418
27.5534
27.5651
27.5768
27.5884
27.6001
27.6118
27.6234
27.6351
27.6468
27.6584
27.6701
27.6818
27.6934
27.7051
27.7168
27.7284
27.7401
27.7518
27.7634
27.7751
27.7868
27.7985
27.8101
27.8218
27.8335
27.8451
27.8568
27.8685
27.8802
27.8918
27.9035
27.9152
27.9269
27.9385
27.9502
27.9619
27.9736
27.9853
27.9969
28.0086
28.0203
28.032
28.0436
28.0553
28.067
28.0787
28.0904
28.102
28.1137
28.1254
28.1371
28.1488
28.1604
28.1721
28.1838
28.1955
28.2072
28.2189
28.2305
28.2422
28.2539
28.2656
28.2773
28.289
28.3006
28.3123
28.324
28.3357
28.3474
28.3591
28.3708
28.3825
28.3941
28.4058
28.4175
28.4292
28.4409
28.4526
28.4643
28.476
28.4877
28.4994
28.511
28.5227
28.5344
28.5461
28.5578
28.5695
28.5812
28.5929
28.6046
28.6163
28.628
28.6397
28.6514
28.6631
28.6748
28.6865
28.6982
28.7098
28.7215
28.7332
28.7449
28.7566
28.7683
28.78
28.7917
28.8034
28.8151
28.8268
28.8385
28.8502
28.8619
28.8736
28.8853
28.897
28.9087
28.9204
28.9322
28.9439
28.9556
28.9673
28.979
28.9907
29.0024
29.0141
29.0258
29.0375
29.0492
29.0609
29.0726
29.0843
29.096
29.1077
29.1194
29.1311
29.1429
29.1546
29.1663
29.178
29.1897
29.2014
29.2131
29.2248
29.2365
29.2483
29.26
29.2717
29.2834
29.2951
29.3068
29.3185
29.3302
29.342
29.3537
29.3654
29.3771
29.3888
29.4005
29.4122
29.424
29.4357
29.4474
29.4591
29.4708
29.4825
29.4943
29.506
29.5177
29.5294
29.5411
29.5529
29.5646
29.5763
29.588
29.5997
29.6115
29.6232
29.6349
29.6466
29.6584
29.6701
29.6818
29.6935
29.7053
29.717
29.7287
29.7404
29.7522
29.7639
29.7756
29.7873
29.7991
29.8108
29.8225
29.8342
29.846
29.8577
29.8694
29.8812
29.8929
29.9046
29.9163
29.9281
29.9398
29.9515
29.9633
29.975
29.9867
29.9985
30.0102
30.0219
30.0337
30.0454
30.0571
30.0689
30.0806
30.0923
30.1041
30.1158
30.1275
30.1393
30.151
30.1627
30.1745
30.1862
30.1979
30.2097
30.2214
30.2332
30.2449
30.2566
30.2684
30.2801
30.2919
30.3036
30.3153
30.3271
30.3388
30.3506
30.3623
30.374
30.3858
30.3975
30.4093
30.421
30.4328
30.4445
30.4563
30.468
30.4797
30.4915
30.5032
30.515
30.5267
30.5385
30.5502
30.562
30.5737
30.5855
30.5972
30.609
30.6207
30.6325
30.6442
30.656
30.6677
30.6795
30.6912
30.703
30.7147
30.7265
30.7382
30.75
30.7617
30.7735
30.7852
30.797
30.8087
30.8205
30.8322
30.844
30.8558
30.8675
30.8793
30.891
30.9028
30.9145
30.9263
30.938
30.9498
30.9616
30.9733
30.9851
30.9968
31.0086
31.0204
31.0321
31.0439
31.0556
31.0674
31.0792
31.0909
31.1027
31.1144
31.1262
31.138
31.1497
31.1615
31.1733
31.185
31.1968
31.2085
31.2203
31.2321
31.2438
31.2556
31.2674
31.2791
31.2909
31.3027
31.3144
31.3262
31.338
31.3497
31.3615
31.3733
31.3851
31.3968
31.4086
31.4204
31.4321
31.4439
31.4557
31.4674
31.4792
31.491
31.5028
31.5145
31.5263
31.5381
31.5499
31.5616
31.5734
31.5852
31.5969
31.6087
31.6205
31.6323
31.644
31.6558
31.6676
31.6794
31.6912
31.7029
31.7147
31.7265
31.7383
31.75
31.7618
31.7736
31.7854
31.7972
31.8089
31.8207
31.8325
31.8443
31.8561
31.8678
31.8796
31.8914
31.9032
31.915
31.9268
31.9385
31.9503
31.9621
31.9739
31.9857
31.9975
32.0092
32.021
32.0328
32.0446
32.0564
32.0682
32.08
32.0917
32.1035
32.1153
32.1271
32.1389
32.1507
32.1625
32.1743
32.1861
32.1978
32.2096
32.2214
32.2332
32.245
32.2568
32.2686
32.2804
32.2922
32.304
32.3158
32.3276
32.3393
32.3511
32.3629
32.3747
32.3865
32.3983
32.4101
32.4219
32.4337
32.4455
32.4573
32.4691
32.4809
32.4927
32.5045
32.5163
32.5281
32.5399
32.5517
32.5635
32.5753
32.5871
32.5989
32.6107
32.6225
32.6343
32.6461
32.6579
32.6697
32.6815
32.6933
32.7051
32.7169
32.7287
32.7405
32.7523
32.7641
32.7759
32.7877
32.7995
32.8113
32.8231
32.8349
32.8467
32.8585
32.8703
32.8821
32.8939
32.9057
32.9176
32.9294
32.9412
32.953
32.9648
32.9766
32.9884
33.0002
33.012
33.0238
33.0356
33.0475
33.0593
33.0711
33.0829
33.0947
33.1065
33.1183
33.1301
33.1419
33.1538
33.1656
33.1774
33.1892
33.201
33.2128
33.2246
33.2364
33.2483
33.2601
33.2719
33.2837
33.2955
33.3073
33.3192
33.331
33.3428
33.3546
33.3664
33.3782
33.3901
33.4019
33.4137
33.4255
33.4373
33.4491
33.461
33.4728
33.4846
33.4964
33.5082
33.5201
33.5319
33.5437
33.5555
33.5674
33.5792
33.591
33.6028
33.6146
33.6265
33.6383
33.6501
33.6619
33.6738
33.6856
33.6974
33.7092
33.7211
33.7329
33.7447
33.7565
33.7684
33.7802
33.792
33.8038
33.8157
33.8275
33.8393
33.8512
33.863
33.8748
33.8866
33.8985
33.9103
33.9221
33.934
33.9458
33.9576
33.9695
33.9813
33.9931
34.0049
34.0168
34.0286
34.0404
34.0523
34.0641
34.0759
34.0878
34.0996
34.1114
34.1233
34.1351
34.1469
34.1588
34.1706
34.1825
34.1943
34.2061
34.218
34.2298
34.2416
34.2535
34.2653
34.2771
34.289
34.3008
34.3127
34.3245
34.3363
34.3482
34.36
34.3719
34.3837
34.3955
34.4074
34.4192
34.4311
34.4429
34.4547
34.4666
34.4784
34.4903
34.5021
34.5139
34.5258
34.5376
34.5495
34.5613
34.5732
34.585
34.5969
34.6087
34.6205
34.6324
34.6442
34.6561
34.6679
34.6798
34.6916
34.7035
34.7153
34.7272
34.739
34.7509
34.7627
34.7746
34.7864
34.7982
34.8101
34.8219
34.8338
34.8456
34.8575
34.8693
34.8812
34.893
34.9049
34.9168
34.9286
34.9405
34.9523
34.9642
34.976
34.9879
34.9997
35.0116
35.0234
35.0353
35.0471
35.059
35.0708
35.0827
35.0946
35.1064
35.1183
35.1301
35.142
35.1538
35.1657
35.1775
35.1894
35.2013
35.2131
35.225
35.2368
35.2487
35.2606
35.2724
35.2843
35.2961
35.308
35.3199
35.3317
35.3436
35.3554
35.3673
35.3792
35.391
35.4029
35.4147
35.4266
35.4385
35.4503
35.4622
35.4741
35.4859
35.4978
35.5097
35.5215
35.5334
35.5453
35.5571
35.569
35.5809
35.5927
35.6046
35.6165
35.6283
35.6402
35.6521
35.6639
35.6758
35.6877
35.6995
35.7114
35.7233
35.7351
35.747
35.7589
35.7707
35.7826
35.7945
35.8064
35.8182
35.8301
35.842
35.8538
35.8657
35.8776
35.8895
35.9013
35.9132
35.9251
35.937
35.9488
35.9607
35.9726
35.9845
35.9963
36.0082
36.0201
36.032
36.0438
36.0557
36.0676
36.0795
36.0913
36.1032
36.1151
36.127
36.1389
36.1507
36.1626
36.1745
36.1864
36.1983
36.2101
36.222
36.2339
36.2458
36.2577
36.2695
36.2814
36.2933
36.3052
36.3171
36.329
36.3408
36.3527
36.3646
36.3765
36.3884
36.4003
36.4121
36.424
36.4359
36.4478
36.4597
36.4716
36.4835
36.4953
36.5072
36.5191
36.531
36.5429
36.5548
36.5667
36.5786
36.5904
36.6023
36.6142
36.6261
36.638
36.6499
36.6618
36.6737
36.6856
36.6975
36.7093
36.7212
36.7331
36.745
36.7569
36.7688
36.7807
36.7926
36.8045
36.8164
36.8283
36.8402
36.8521
36.864
36.8759
36.8877
36.8996
36.9115
36.9234
36.9353
36.9472
36.9591
36.971
36.9829
36.9948
37.0067
37.0186
37.0305
37.0424
37.0543
37.0662
37.0781
37.09
37.1019
37.1138
37.1257
37.1376
37.1495
37.1614
37.1733
37.1852
37.1971
37.209
37.2209
37.2328
37.2447
37.2566
37.2685
37.2804
37.2923
37.3043
37.3162
37.3281
37.34
37.3519
37.3638
37.3757
37.3876
37.3995
37.4114
37.4233
37.4352
37.4471
37.459
37.4709
37.4829
37.4948
37.5067
37.5186
37.5305
37.5424
37.5543
37.5662
37.5781
37.59
37.602
37.6139
37.6258
37.6377
37.6496
37.6615
37.6734
37.6853
37.6973
37.7092
37.7211
37.733
37.7449
37.7568
37.7687
37.7807
37.7926
37.8045
37.8164
37.8283
37.8402
37.8522
37.8641
37.876
37.8879
37.8998
37.9118
37.9237
37.9356
37.9475
37.9594
37.9713
37.9833
37.9952
38.0071
38.019
38.031
38.0429
38.0548
38.0667
38.0786
38.0906
38.1025
38.1144
38.1263
38.1383
38.1502
38.1621
38.174
38.1859
38.1979
38.2098
38.2217
38.2336
38.2456
38.2575
38.2694
38.2814
38.2933
38.3052
38.3171
38.3291
38.341
38.3529
38.3648
38.3768
38.3887
38.4006
38.4126
38.4245
38.4364
38.4484
38.4603
38.4722
38.4841
38.4961
38.508
38.5199
38.5319
38.5438
38.5557
38.5677
38.5796
38.5915
38.6035
38.6154
38.6273
38.6393
38.6512
38.6631
38.6751
38.687
38.699
38.7109
38.7228
38.7348
38.7467
38.7586
38.7706
38.7825
38.7944
38.8064
38.8183
38.8303
38.8422
38.8541
38.8661
38.878
38.89
38.9019
38.9138
38.9258
38.9377
38.9497
38.9616
38.9735
38.9855
38.9974
39.0094
39.0213
39.0333
39.0452
39.0571
39.0691
39.081
39.093
39.1049
39.1169
39.1288
39.1408
39.1527
39.1647
39.1766
39.1885
39.2005
39.2124
39.2244
39.2363
39.2483
39.2602
39.2722
39.2841
39.2961
39.308
39.32
39.3319
39.3439
39.3558
39.3678
39.3797
39.3917
39.4036
39.4156
39.4275
39.4395
39.4514
39.4634
39.4753
39.4873
39.4992
39.5112
39.5232
39.5351
39.5471
39.559
39.571
39.5829
39.5949
39.6068
39.6188
39.6307
39.6427
39.6547
39.6666
39.6786
39.6905
39.7025
39.7144
39.7264
39.7384
39.7503
39.7623
39.7742
39.7862
39.7982
39.8101
39.8221
39.834
39.846
39.858
39.8699
39.8819
39.8938
39.9058
39.9178
39.9297
39.9417
39.9536
39.9656
39.9776
39.9895
40.0015
40.0135
40.0254
40.0374
40.0494
40.0613
40.0733
40.0852
40.0972
40.1092
40.1211
40.1331
40.1451
40.157
40.169
40.181
40.1929
40.2049
40.2169
40.2288
40.2408
40.2528
40.2648
40.2767
40.2887
40.3007
40.3126
40.3246
40.3366
40.3485
40.3605
40.3725
40.3845
40.3964
40.4084
40.4204
40.4323
40.4443
40.4563
40.4683
40.4802
40.4922
40.5042
40.5162
40.5281
40.5401
40.5521
40.5641
40.576
40.588
40.6
40.612
40.6239
40.6359
40.6479
40.6599
40.6718
40.6838
40.6958
40.7078
40.7198
40.7317
40.7437
40.7557
40.7677
40.7796
40.7916
40.8036
40.8156
40.8276
40.8395
40.8515
40.8635
40.8755
40.8875
40.8995
40.9114
40.9234
40.9354
40.9474
40.9594
40.9713
40.9833
40.9953
41.0073
41.0193
41.0313
41.0433
41.0552
41.0672
41.0792
41.0912
41.1032
41.1152
41.1271
41.1391
41.1511
41.1631
41.1751
41.1871
41.1991
41.2111
41.223
41.235
41.247
41.259
41.271
41.283
41.295
41.307
41.319
41.331
41.3429
41.3549
41.3669
41.3789
41.3909
41.4029
41.4149
41.4269
41.4389
41.4509
41.4629
41.4749
41.4868
41.4988
41.5108
41.5228
41.5348
41.5468
41.5588
41.5708
41.5828
41.5948
41.6068
41.6188
41.6308
41.6428
41.6548
41.6668
41.6788
41.6908
41.7028
41.7148
41.7268
41.7388
41.7508
41.7628
41.7748
41.7868
41.7988
41.8108
41.8228
41.8348
41.8468
41.8588
41.8708
41.8828
41.8948
41.9068
41.9188
41.9308
41.9428
41.9548
41.9668
41.9788
41.9908
42.0028
42.0148
42.0268
42.0388
42.0508
42.0628
42.0748
42.0868
42.0988
42.1108
42.1228
42.1348
42.1468
42.1589
42.1709
42.1829
42.1949
42.2069
42.2189
42.2309
42.2429
42.2549
42.2669
42.2789
42.2909
42.303
42.315
42.327
42.339
42.351
42.363
42.375
42.387
42.399
42.4111
42.4231
42.4351
42.4471
42.4591
42.4711
42.4831
42.4951
42.5072
42.5192
42.5312
42.5432
42.5552
42.5672
42.5792
42.5913
42.6033
42.6153
42.6273
42.6393
42.6513
42.6634
42.6754
42.6874
42.6994
42.7114
42.7234
42.7355
42.7475
42.7595
42.7715
42.7835
42.7956
42.8076
42.8196
42.8316
42.8436
42.8557
42.8677
42.8797
42.8917
42.9037
42.9158
42.9278
42.9398
42.9518
42.9638
42.9759
42.9879
42.9999
43.0119
43.024
43.036
43.048
43.06
43.0721
43.0841
43.0961
43.1081
43.1202
43.1322
43.1442
43.1562
43.1683
43.1803
43.1923
43.2044
43.2164
43.2284
43.2404
43.2525
43.2645
43.2765
43.2886
43.3006
43.3126
43.3246
43.3367
43.3487
43.3607
43.3728
43.3848
43.3968
43.4089
43.4209
43.4329
43.445
43.457
43.469
43.4811
43.4931
43.5051
43.5172
43.5292
43.5412
43.5533
43.5653
43.5773
43.5894
43.6014
43.6134
43.6255
43.6375
43.6495
43.6616
43.6736
43.6857
43.6977
43.7097
43.7218
43.7338
43.7458
43.7579
43.7699
43.782
43.794
43.806
43.8181
43.8301
43.8422
43.8542
43.8662
43.8783
43.8903
43.9024
43.9144
43.9264
43.9385
43.9505
43.9626
43.9746
43.9867
43.9987
44.0107
44.0228
44.0348
44.0469
44.0589
44.071
44.083
44.0951
44.1071
44.1191
44.1312
44.1432
44.1553
44.1673
44.1794
44.1914
44.2035
44.2155
44.2276
44.2396
44.2517
44.2637
44.2758
44.2878
44.2999
44.3119
44.324
44.336
44.3481
44.3601
44.3722
44.3842
44.3963
44.4083
44.4204
44.4324
44.4445
44.4565
44.4686
44.4806
44.4927
44.5047
44.5168
44.5288
44.5409
44.553
44.565
44.5771
44.5891
44.6012
44.6132
44.6253
44.6373
44.6494
44.6615
44.6735
44.6856
44.6976
44.7097
44.7217
44.7338
44.7459
44.7579
44.77
44.782
44.7941
44.8062
44.8182
44.8303
44.8423
44.8544
44.8665
44.8785
44.8906
44.9026
44.9147
44.9268
44.9388
44.9509
44.9629
44.975
44.9871
44.9991
45.0112
45.0233
45.0353
45.0474
45.0595
45.0715
45.0836
45.0957
45.1077
45.1198
45.1319
45.1439
45.156
45.1681
45.1801
45.1922
45.2043
45.2163
45.2284
45.2405
45.2525
45.2646
45.2767
45.2887
45.3008
45.3129
45.3249
45.337
45.3491
45.3611
45.3732
45.3853
45.3974
45.4094
45.4215
45.4336
45.4456
45.4577
45.4698
45.4819
45.4939
45.506
45.5181
45.5302
45.5422
45.5543
45.5664
45.5785
45.5905
45.6026
45.6147
45.6268
45.6388
45.6509
45.663
45.6751
45.6871
45.6992
45.7113
45.7234
45.7355
45.7475
45.7596
45.7717
45.7838
45.7958
45.8079
45.82
45.8321
45.8442
45.8562
45.8683
45.8804
45.8925
45.9046
45.9166
45.9287
45.9408
45.9529
45.965
45.9771
45.9891
46.0012
46.0133
46.0254
46.0375
46.0496
46.0616
46.0737
46.0858
46.0979
46.11
46.1221
46.1342
46.1462
46.1583
46.1704
46.1825
46.1946
46.2067
46.2188
46.2308
46.2429
46.255
46.2671
46.2792
46.2913
46.3034
46.3155
46.3276
46.3396
46.3517
46.3638
46.3759
46.388
46.4001
46.4122
46.4243
46.4364
46.4485
46.4606
46.4726
46.4847
46.4968
46.5089
46.521
46.5331
46.5452
46.5573
46.5694
46.5815
46.5936
46.6057
46.6178
46.6299
46.642
46.6541
46.6662
46.6783
46.6903
46.7024
46.7145
46.7266
46.7387
46.7508
46.7629
46.775
46.7871
46.7992
46.8113
46.8234
46.8355
46.8476
46.8597
46.8718
46.8839
46.896
46.9081
46.9202
46.9323
46.9444
46.9565
46.9686
46.9807
46.9928
47.0049
47.017
47.0291
47.0412
47.0534
47.0655
47.0776
47.0897
47.1018
47.1139
47.126
47.1381
47.1502
47.1623
47.1744
47.1865
47.1986
47.2107
47.2228
47.2349
47.247
47.2591
47.2713
47.2834
47.2955
47.3076
47.3197
47.3318
47.3439
47.356
47.3681
47.3802
47.3923
47.4045
47.4166
47.4287
47.4408
47.4529
47.465
47.4771
47.4892
47.5013
47.5135
47.5256
47.5377
47.5498
47.5619
47.574
47.5861
47.5982
47.6104
47.6225
47.6346
47.6467
47.6588
47.6709
47.6831
47.6952
47.7073
47.7194
47.7315
47.7436
47.7558
47.7679
47.78
47.7921
47.8042
47.8163
47.8285
47.8406
47.8527
47.8648
47.8769
47.8891
47.9012
47.9133
47.9254
47.9375
47.9497
47.9618
47.9739
47.986
47.9981
48.0103
48.0224
48.0345
48.0466
48.0587
48.0709
48.083
48.0951
48.1072
48.1194
48.1315
48.1436
48.1557
48.1679
48.18
48.1921
48.2042
48.2164
48.2285
48.2406
48.2527
48.2649
48.277
48.2891
48.3012
48.3134
48.3255
48.3376
48.3498
48.3619
48.374
48.3861
48.3983
48.4104
48.4225
48.4347
48.4468
48.4589
48.4711
48.4832
48.4953
48.5074
48.5196
48.5317
48.5438
48.556
48.5681
48.5802
48.5924
48.6045
48.6166
48.6288
48.6409
48.653
48.6652
48.6773
48.6894
48.7016
48.7137
48.7258
48.738
48.7501
48.7622
48.7744
48.7865
48.7987
48.8108
48.8229
48.8351
48.8472
48.8593
48.8715
48.8836
48.8958
48.9079
48.92
48.9322
48.9443
48.9565
48.9686
48.9807
48.9929
49.005
49.0172
49.0293
49.0414
49.0536
49.0657
49.0779
49.09
49.1021
49.1143
49.1264
49.1386
49.1507
49.1629
49.175
49.1871
49.1993
49.2114
49.2236
49.2357
49.2479
49.26
49.2722
49.2843
49.2964
49.3086
49.3207
49.3329
49.345
49.3572
49.3693
49.3815
49.3936
49.4058
49.4179
49.4301
49.4422
49.4544
49.4665
49.4787
49.4908
49.503
49.5151
49.5273
49.5394
49.5516
49.5637
49.5759
49.588
49.6002
49.6123
49.6245
49.6366
49.6488
49.6609
49.6731
49.6852
49.6974
49.7095
49.7217
49.7338
49.746
49.7582
49.7703
49.7825
49.7946
49.8068
49.8189
49.8311
49.8432
49.8554
49.8676
49.8797
49.8919
49.904
49.9162
49.9283
49.9405
49.9527
49.9648
49.977
49.9891
50.0013
50.0134
50.0256
50.0378
50.0499
50.0621
50.0742
50.0864
50.0986
50.1107
50.1229
50.135
50.1472
50.1594
50.1715
50.1837
50.1959
50.208
50.2202
50.2323
50.2445
50.2567
50.2688
50.281
50.2932
50.3053
50.3175
50.3297
50.3418
50.354
50.3662
50.3783
50.3905
50.4027
50.4148
50.427
50.4392
50.4513
50.4635
50.4757
50.4878
50.5
50.5122
50.5243
50.5365
50.5487
50.5608
50.573
50.5852
50.5973
50.6095
50.6217
50.6339
50.646
50.6582
50.6704
50.6825
50.6947
50.7069
50.7191
50.7312
50.7434
50.7556
50.7678
50.7799
50.7921
50.8043
50.8164
50.8286
50.8408
50.853
50.8651
50.8773
50.8895
50.9017
50.9138
50.926
50.9382
50.9504
50.9626
50.9747
50.9869
50.9991
51.0113
51.0234
51.0356
51.0478
51.06
51.0722
51.0843
51.0965
51.1087
51.1209
51.133
51.1452
51.1574
51.1696
51.1818
51.194
51.2061
51.2183
51.2305
51.2427
51.2549
51.267
51.2792
51.2914
51.3036
51.3158
51.328
51.3401
51.3523
51.3645
51.3767
51.3889
51.4011
51.4133
51.4254
51.4376
51.4498
51.462
51.4742
51.4864
51.4986
51.5107
51.5229
51.5351
51.5473
51.5595
51.5717
51.5839
51.5961
51.6082
51.6204
51.6326
51.6448
51.657
51.6692
51.6814
51.6936
51.7058
51.718
51.7301
51.7423
51.7545
51.7667
51.7789
51.7911
51.8033
51.8155
51.8277
51.8399
51.8521
51.8643
51.8765
51.8886
51.9008
51.913
51.9252
51.9374
51.9496
51.9618
51.974
51.9862
51.9984
52.0106
52.0228
52.035
52.0472
52.0594
52.0716
52.0838
52.096
52.1082
52.1204
52.1326
52.1448
52.157
52.1692
52.1814
52.1936
52.2058
52.218
52.2302
52.2424
52.2546
52.2668
52.279
52.2912
52.3034
52.3156
52.3278
52.34
52.3522
52.3644
52.3766
52.3888
52.401
52.4132
52.4254
52.4376
52.4498
52.462
52.4742
52.4864
52.4986
52.5108
52.523
52.5353
52.5475
52.5597
52.5719
52.5841
52.5963
52.6085
52.6207
52.6329
52.6451
52.6573
52.6695
52.6817
52.694
52.7062
52.7184
52.7306
52.7428
52.755
52.7672
52.7794
52.7916
52.8038
52.8161
52.8283
52.8405
52.8527
52.8649
52.8771
52.8893
52.9015
52.9138
52.926
52.9382
52.9504
52.9626
52.9748
52.987
52.9992
53.0115
53.0237
53.0359
53.0481
53.0603
53.0725
53.0848
53.097
53.1092
53.1214
53.1336
53.1458
53.1581
53.1703
53.1825
53.1947
53.2069
53.2192
53.2314
53.2436
53.2558
53.268
53.2802
53.2925
53.3047
53.3169
53.3291
53.3413
53.3536
53.3658
53.378
53.3902
53.4025
53.4147
53.4269
53.4391
53.4513
53.4636
53.4758
53.488
53.5002
53.5125
53.5247
53.5369
53.5491
53.5614
53.5736
53.5858
53.598
53.6103
53.6225
53.6347
53.6469
53.6592
53.6714
53.6836
53.6959
53.7081
53.7203
53.7325
53.7448
53.757
53.7692
53.7815
53.7937
53.8059
53.8181
53.8304
53.8426
53.8548
53.8671
53.8793
53.8915
53.9038
53.916
53.9282
53.9404
53.9527
53.9649
53.9771
53.9894
54.0016
54.0138
54.0261
54.0383
54.0505
54.0628
54.075
54.0872
54.0995
54.1117
54.124
54.1362
54.1484
54.1607
54.1729
54.1851
54.1974
54.2096
54.2218
54.2341
54.2463
54.2586
54.2708
54.283
54.2953
54.3075
54.3197
54.332
54.3442
54.3565
54.3687
54.3809
54.3932
54.4054
54.4177
54.4299
54.4421
54.4544
54.4666
54.4789
54.4911
54.5034
54.5156
54.5278
54.5401
54.5523
54.5646
54.5768
54.5891
54.6013
54.6135
54.6258
54.638
54.6503
54.6625
54.6748
54.687
54.6993
54.7115
54.7238
54.736
54.7482
54.7605
54.7727
54.785
54.7972
54.8095
54.8217
54.834
54.8462
54.8585
54.8707
54.883
54.8952
54.9075
54.9197
54.932
54.9442
54.9565
54.9687
54.981
54.9932
55.0055
55.0177
55.03
55.0422
55.0545
55.0667
55.079
55.0912
55.1035
55.1158
55.128
55.1403
55.1525
55.1648
55.177
55.1893
55.2015
55.2138
55.226
55.2383
55.2506
55.2628
55.2751
55.2873
55.2996
55.3118
55.3241
55.3364
55.3486
55.3609
55.3731
55.3854
55.3976
55.4099
55.4222
55.4344
55.4467
55.4589
55.4712
55.4835
55.4957
55.508
55.5202
55.5325
55.5448
55.557
55.5693
55.5815
55.5938
55.6061
55.6183
55.6306
55.6429
55.6551
55.6674
55.6796
55.6919
55.7042
55.7164
55.7287
55.741
55.7532
55.7655
55.7778
55.79
55.8023
55.8146
55.8268
55.8391
55.8514
55.8636
55.8759
55.8882
55.9004
55.9127
55.925
55.9372
55.9495
55.9618
55.974
55.9863
55.9986
56.0109
56.0231
56.0354
56.0477
56.0599
56.0722
56.0845
56.0967
56.109
56.1213
56.1336
56.1458
56.1581
56.1704
56.1826
56.1949
56.2072
56.2195
56.2317
56.244
56.2563
56.2686
56.2808
56.2931
56.3054
56.3177
56.3299
56.3422
56.3545
56.3668
56.379
56.3913
56.4036
56.4159
56.4281
56.4404
56.4527
56.465
56.4773
56.4895
56.5018
56.5141
56.5264
56.5387
56.5509
56.5632
56.5755
56.5878
56.6001
56.6123
56.6246
56.6369
56.6492
56.6615
56.6737
56.686
56.6983
56.7106
56.7229
56.7352
56.7474
56.7597
56.772
56.7843
56.7966
56.8089
56.8211
56.8334
56.8457
56.858
56.8703
56.8826
56.8948
56.9071
56.9194
56.9317
56.944
56.9563
56.9686
56.9809
56.9931
57.0054
57.0177
57.03
57.0423
57.0546
57.0669
57.0792
57.0914
57.1037
57.116
57.1283
57.1406
57.1529
57.1652
57.1775
57.1898
57.2021
57.2143
57.2266
57.2389
57.2512
57.2635
57.2758
57.2881
57.3004
57.3127
57.325
57.3373
57.3496
57.3619
57.3742
57.3864
57.3987
57.411
57.4233
57.4356
57.4479
57.4602
57.4725
57.4848
57.4971
57.5094
57.5217
57.534
57.5463
57.5586
57.5709
57.5832
57.5955
57.6078
57.6201
57.6324
57.6447
57.657
57.6693
57.6816
57.6939
57.7062
57.7185
57.7308
57.7431
57.7554
57.7677
57.78
57.7923
57.8046
57.8169
57.8292
57.8415
57.8538
57.8661
57.8784
57.8907
57.903
57.9153
57.9276
57.9399
57.9522