/*--------------------------------*- C++ -*----------------------------------*\
  =========                 |
  \\      /  F ield         | OpenFOAM: The Open Source CFD Toolbox
   \\    /   O peration     | Website:  https://openfoam.org
    \\  /    A nd           | Version:  9
     \\/     M anipulation  |
\*---------------------------------------------------------------------------*/
FoamFile
{
    format      ascii;
    class       volScalarField;
    location    "0.049";
    object      rho;
}
// * * * * * * * * * * * * * * * * * * * * * * * * * * * * * * * * * * * * * //

dimensions      [1 -3 0 0 0 0 0];

internalField   nonuniform List<scalar> 
10000
(
0.166145
0.166143
0.16614
0.166138
0.166135
0.166133
0.16613
0.166127
0.166125
0.166122
0.16612
0.166117
0.166115
0.166112
0.166109
0.166107
0.166104
0.166102
0.166099
0.166097
0.166094
0.166091
0.166089
0.166086
0.166084
0.166081
0.166079
0.166076
0.166074
0.166071
0.166069
0.166066
0.166064
0.166061
0.166058
0.166056
0.166053
0.166051
0.166048
0.166046
0.166043
0.166041
0.166038
0.166036
0.166033
0.166031
0.166028
0.166026
0.166024
0.166021
0.166019
0.166016
0.166014
0.166011
0.166009
0.166006
0.166004
0.166002
0.165999
0.165997
0.165994
0.165992
0.165989
0.165987
0.165985
0.165982
0.16598
0.165977
0.165975
0.165973
0.16597
0.165968
0.165966
0.165963
0.165961
0.165959
0.165956
0.165954
0.165952
0.165949
0.165947
0.165945
0.165942
0.16594
0.165938
0.165935
0.165933
0.165931
0.165928
0.165926
0.165924
0.165922
0.165919
0.165917
0.165915
0.165913
0.16591
0.165908
0.165906
0.165904
0.165901
0.165899
0.165897
0.165895
0.165892
0.16589
0.165888
0.165886
0.165884
0.165881
0.165879
0.165877
0.165875
0.165873
0.165871
0.165868
0.165866
0.165864
0.165862
0.16586
0.165858
0.165856
0.165854
0.165851
0.165849
0.165847
0.165845
0.165843
0.165841
0.165839
0.165837
0.165835
0.165833
0.165831
0.165829
0.165827
0.165825
0.165823
0.165821
0.165819
0.165817
0.165815
0.165813
0.165811
0.165808
0.165806
0.165804
0.165803
0.165801
0.165799
0.165797
0.165795
0.165793
0.165791
0.165789
0.165787
0.165785
0.165783
0.165781
0.165779
0.165778
0.165776
0.165774
0.165772
0.16577
0.165768
0.165766
0.165764
0.165763
0.165761
0.165759
0.165757
0.165755
0.165754
0.165752
0.16575
0.165748
0.165746
0.165745
0.165743
0.165741
0.165739
0.165737
0.165736
0.165734
0.165732
0.165731
0.165729
0.165727
0.165726
0.165724
0.165722
0.16572
0.165719
0.165717
0.165715
0.165714
0.165712
0.165711
0.165709
0.165707
0.165706
0.165704
0.165703
0.165701
0.165699
0.165698
0.165696
0.165694
0.165693
0.165691
0.16569
0.165688
0.165687
0.165686
0.165684
0.165683
0.165681
0.16568
0.165678
0.165677
0.165675
0.165674
0.165672
0.165671
0.165669
0.165668
0.165666
0.165665
0.165664
0.165663
0.165661
0.16566
0.165659
0.165658
0.165656
0.165655
0.165654
0.165652
0.165651
0.165649
0.165648
0.165646
0.165645
0.165644
0.165643
0.165641
0.16564
0.165639
0.165638
0.165637
0.165636
0.165635
0.165634
0.165633
0.165632
0.165631
0.16563
0.165628
0.165627
0.165626
0.165625
0.165624
0.165622
0.165621
0.16562
0.165619
0.165618
0.165617
0.165616
0.165615
0.165614
0.165613
0.165613
0.165612
0.165611
0.165611
0.16561
0.165609
0.165609
0.165608
0.165607
0.165606
0.165606
0.165605
0.165604
0.165603
0.165602
0.165601
0.1656
0.165599
0.165598
0.165597
0.165596
0.165594
0.165593
0.165593
0.165592
0.165591
0.16559
0.165589
0.165589
0.165588
0.165588
0.165588
0.165588
0.165588
0.165588
0.165588
0.165588
0.165588
0.165589
0.165589
0.16559
0.165591
0.165591
0.165592
0.165593
0.165594
0.165595
0.165595
0.165596
0.165597
0.165598
0.165599
0.1656
0.165601
0.165602
0.165603
0.165605
0.165606
0.165607
0.165608
0.16561
0.165611
0.165613
0.165614
0.165615
0.165617
0.165618
0.16562
0.165621
0.165623
0.165624
0.165626
0.165627
0.165629
0.165631
0.165632
0.165634
0.165635
0.165637
0.165639
0.16564
0.165642
0.165644
0.165645
0.165647
0.165649
0.16565
0.165652
0.165654
0.165656
0.165657
0.165659
0.165661
0.165663
0.165665
0.165667
0.165668
0.16567
0.165672
0.165674
0.165676
0.165678
0.16568
0.165682
0.165684
0.165686
0.165688
0.16569
0.165692
0.165694
0.165696
0.165698
0.165701
0.165703
0.165705
0.165707
0.165709
0.165711
0.165714
0.165716
0.165718
0.16572
0.165723
0.165725
0.165727
0.16573
0.165732
0.165734
0.165737
0.165739
0.165741
0.165744
0.165746
0.165749
0.165751
0.165754
0.165756
0.165759
0.165761
0.165764
0.165767
0.165769
0.165772
0.165774
0.165777
0.16578
0.165782
0.165785
0.165788
0.165791
0.165793
0.165796
0.165799
0.165802
0.165805
0.165808
0.16581
0.165813
0.165816
0.165819
0.165822
0.165825
0.165828
0.165831
0.165834
0.165837
0.16584
0.165844
0.165847
0.16585
0.165853
0.165856
0.165859
0.165863
0.165866
0.165869
0.165872
0.165876
0.165879
0.165882
0.165886
0.165889
0.165892
0.165896
0.165899
0.165903
0.165906
0.16591
0.165913
0.165917
0.16592
0.165924
0.165927
0.165931
0.165935
0.165938
0.165942
0.165946
0.16595
0.165953
0.165957
0.165961
0.165965
0.165969
0.165972
0.165976
0.16598
0.165984
0.165988
0.165992
0.165996
0.166
0.166004
0.166008
0.166012
0.166016
0.16602
0.166024
0.166029
0.166033
0.166037
0.166041
0.166046
0.16605
0.166054
0.166058
0.166063
0.166067
0.166071
0.166076
0.16608
0.166085
0.166089
0.166094
0.166098
0.166103
0.166107
0.166112
0.166116
0.166121
0.166126
0.16613
0.166135
0.16614
0.166144
0.166149
0.166154
0.166159
0.166164
0.166168
0.166173
0.166178
0.166183
0.166188
0.166193
0.166198
0.166203
0.166208
0.166213
0.166218
0.166223
0.166228
0.166233
0.166238
0.166244
0.166249
0.166254
0.166259
0.166264
0.16627
0.166275
0.16628
0.166285
0.166291
0.166296
0.166302
0.166307
0.166312
0.166318
0.166323
0.166329
0.166334
0.16634
0.166345
0.166351
0.166356
0.166362
0.166368
0.166373
0.166379
0.166385
0.16639
0.166396
0.166402
0.166408
0.166413
0.166419
0.166425
0.166431
0.166437
0.166442
0.166448
0.166454
0.16646
0.166466
0.166472
0.166478
0.166484
0.16649
0.166496
0.166502
0.166508
0.166514
0.16652
0.166526
0.166532
0.166539
0.166545
0.166551
0.166557
0.166563
0.166569
0.166576
0.166582
0.166588
0.166594
0.166601
0.166607
0.166613
0.16662
0.166626
0.166632
0.166639
0.166645
0.166652
0.166658
0.166665
0.166671
0.166677
0.166684
0.16669
0.166697
0.166703
0.16671
0.166716
0.166723
0.16673
0.166736
0.166743
0.166749
0.166756
0.166763
0.166769
0.166776
0.166783
0.166789
0.166796
0.166803
0.166809
0.166816
0.166823
0.166829
0.166836
0.166843
0.16685
0.166857
0.166863
0.16687
0.166877
0.166884
0.166891
0.166897
0.166904
0.166911
0.166918
0.166925
0.166932
0.166939
0.166946
0.166952
0.166959
0.166966
0.166973
0.16698
0.166987
0.166994
0.167001
0.167008
0.167015
0.167022
0.167029
0.167036
0.167043
0.16705
0.167057
0.167064
0.167071
0.167078
0.167085
0.167092
0.167099
0.167106
0.167113
0.16712
0.167128
0.167135
0.167142
0.167149
0.167156
0.167163
0.16717
0.167177
0.167184
0.167191
0.167199
0.167206
0.167213
0.16722
0.167227
0.167234
0.167242
0.167249
0.167256
0.167263
0.16727
0.167277
0.167285
0.167292
0.167299
0.167306
0.167313
0.167321
0.167328
0.167335
0.167342
0.167349
0.167357
0.167364
0.167371
0.167378
0.167386
0.167393
0.1674
0.167407
0.167415
0.167422
0.167429
0.167436
0.167444
0.167451
0.167458
0.167465
0.167473
0.16748
0.167487
0.167494
0.167502
0.167509
0.167516
0.167524
0.167531
0.167538
0.167545
0.167553
0.16756
0.167567
0.167575
0.167582
0.167589
0.167596
0.167604
0.167611
0.167618
0.167626
0.167633
0.16764
0.167648
0.167655
0.167662
0.16767
0.167677
0.167684
0.167692
0.167699
0.167706
0.167714
0.167721
0.167728
0.167736
0.167743
0.16775
0.167758
0.167765
0.167772
0.16778
0.167787
0.167794
0.167802
0.167809
0.167816
0.167824
0.167831
0.167838
0.167846
0.167853
0.16786
0.167868
0.167875
0.167882
0.16789
0.167897
0.167905
0.167912
0.167919
0.167927
0.167934
0.167941
0.167949
0.167956
0.167963
0.167971
0.167978
0.167986
0.167993
0.168
0.168008
0.168015
0.168022
0.16803
0.168037
0.168044
0.168052
0.168059
0.168067
0.168074
0.168081
0.168089
0.168096
0.168104
0.168111
0.168118
0.168126
0.168133
0.16814
0.168148
0.168155
0.168163
0.16817
0.168177
0.168185
0.168192
0.1682
0.168207
0.168214
0.168222
0.168229
0.168236
0.168244
0.168251
0.168259
0.168266
0.168273
0.168281
0.168288
0.168296
0.168303
0.16831
0.168318
0.168325
0.168333
0.16834
0.168347
0.168355
0.168362
0.16837
0.168377
0.168384
0.168392
0.168399
0.168407
0.168414
0.168421
0.168429
0.168436
0.168444
0.168451
0.168459
0.168466
0.168473
0.168481
0.168488
0.168496
0.168503
0.16851
0.168518
0.168525
0.168533
0.16854
0.168547
0.168555
0.168562
0.16857
0.168577
0.168585
0.168592
0.168599
0.168607
0.168614
0.168622
0.168629
0.168637
0.168644
0.168651
0.168659
0.168666
0.168674
0.168681
0.168689
0.168696
0.168703
0.168711
0.168718
0.168726
0.168733
0.168741
0.168748
0.168755
0.168763
0.16877
0.168778
0.168785
0.168793
0.1688
0.168807
0.168815
0.168822
0.16883
0.168837
0.168845
0.168852
0.168859
0.168867
0.168874
0.168882
0.168889
0.168897
0.168904
0.168912
0.168919
0.168926
0.168934
0.168941
0.168949
0.168956
0.168964
0.168971
0.168979
0.168986
0.168993
0.169001
0.169008
0.169016
0.169023
0.169031
0.169038
0.169046
0.169053
0.169061
0.169068
0.169075
0.169083
0.16909
0.169098
0.169105
0.169113
0.16912
0.169128
0.169135
0.169143
0.16915
0.169157
0.169165
0.169172
0.16918
0.169187
0.169195
0.169202
0.16921
0.169217
0.169225
0.169232
0.16924
0.169247
0.169255
0.169262
0.169269
0.169277
0.169284
0.169292
0.169299
0.169307
0.169314
0.169322
0.169329
0.169337
0.169344
0.169352
0.169359
0.169367
0.169374
0.169382
0.169389
0.169396
0.169404
0.169411
0.169419
0.169426
0.169434
0.169441
0.169449
0.169456
0.169464
0.169471
0.169479
0.169486
0.169494
0.169501
0.169509
0.169516
0.169524
0.169531
0.169539
0.169546
0.169554
0.169561
0.169569
0.169576
0.169584
0.169591
0.169599
0.169606
0.169614
0.169621
0.169629
0.169636
0.169643
0.169651
0.169658
0.169666
0.169673
0.169681
0.169688
0.169696
0.169703
0.169711
0.169718
0.169726
0.169733
0.169741
0.169748
0.169756
0.169763
0.169771
0.169778
0.169786
0.169793
0.169801
0.169808
0.169816
0.169823
0.169831
0.169839
0.169846
0.169854
0.169861
0.169869
0.169876
0.169884
0.169891
0.169899
0.169906
0.169914
0.169921
0.169929
0.169936
0.169944
0.169951
0.169959
0.169966
0.169974
0.169981
0.169989
0.169996
0.170004
0.170011
0.170019
0.170026
0.170034
0.170041
0.170049
0.170056
0.170064
0.170071
0.170079
0.170087
0.170094
0.170102
0.170109
0.170117
0.170124
0.170132
0.170139
0.170147
0.170154
0.170162
0.170169
0.170177
0.170184
0.170192
0.170199
0.170207
0.170214
0.170222
0.17023
0.170237
0.170245
0.170252
0.17026
0.170267
0.170275
0.170282
0.17029
0.170297
0.170305
0.170312
0.17032
0.170328
0.170335
0.170343
0.17035
0.170358
0.170365
0.170373
0.17038
0.170388
0.170395
0.170403
0.170411
0.170418
0.170426
0.170433
0.170441
0.170448
0.170456
0.170463
0.170471
0.170478
0.170486
0.170494
0.170501
0.170509
0.170516
0.170524
0.170531
0.170539
0.170546
0.170554
0.170562
0.170569
0.170577
0.170584
0.170592
0.170599
0.170607
0.170614
0.170622
0.17063
0.170637
0.170645
0.170652
0.17066
0.170667
0.170675
0.170682
0.17069
0.170698
0.170705
0.170713
0.17072
0.170728
0.170735
0.170743
0.170751
0.170758
0.170766
0.170773
0.170781
0.170788
0.170796
0.170804
0.170811
0.170819
0.170826
0.170834
0.170841
0.170849
0.170857
0.170864
0.170872
0.170879
0.170887
0.170894
0.170902
0.17091
0.170917
0.170925
0.170932
0.17094
0.170948
0.170955
0.170963
0.17097
0.170978
0.170985
0.170993
0.171001
0.171008
0.171016
0.171023
0.171031
0.171039
0.171046
0.171054
0.171061
0.171069
0.171076
0.171084
0.171092
0.171099
0.171107
0.171114
0.171122
0.17113
0.171137
0.171145
0.171152
0.17116
0.171168
0.171175
0.171183
0.17119
0.171198
0.171206
0.171213
0.171221
0.171228
0.171236
0.171244
0.171251
0.171259
0.171266
0.171274
0.171282
0.171289
0.171297
0.171304
0.171312
0.17132
0.171327
0.171335
0.171342
0.17135
0.171358
0.171365
0.171373
0.17138
0.171388
0.171396
0.171403
0.171411
0.171418
0.171426
0.171434
0.171441
0.171449
0.171457
0.171464
0.171472
0.171479
0.171487
0.171495
0.171502
0.17151
0.171517
0.171525
0.171533
0.17154
0.171548
0.171556
0.171563
0.171571
0.171578
0.171586
0.171594
0.171601
0.171609
0.171617
0.171624
0.171632
0.171639
0.171647
0.171655
0.171662
0.17167
0.171678
0.171685
0.171693
0.1717
0.171708
0.171716
0.171723
0.171731
0.171739
0.171746
0.171754
0.171761
0.171769
0.171777
0.171784
0.171792
0.1718
0.171807
0.171815
0.171823
0.17183
0.171838
0.171845
0.171853
0.171861
0.171868
0.171876
0.171884
0.171891
0.171899
0.171907
0.171914
0.171922
0.17193
0.171937
0.171945
0.171952
0.17196
0.171968
0.171975
0.171983
0.171991
0.171998
0.172006
0.172014
0.172021
0.172029
0.172037
0.172044
0.172052
0.17206
0.172067
0.172075
0.172083
0.17209
0.172098
0.172105
0.172113
0.172121
0.172128
0.172136
0.172144
0.172151
0.172159
0.172167
0.172174
0.172182
0.17219
0.172197
0.172205
0.172213
0.17222
0.172228
0.172236
0.172243
0.172251
0.172259
0.172266
0.172274
0.172282
0.172289
0.172297
0.172305
0.172312
0.17232
0.172328
0.172335
0.172343
0.172351
0.172358
0.172366
0.172374
0.172381
0.172389
0.172397
0.172404
0.172412
0.17242
0.172427
0.172435
0.172443
0.17245
0.172458
0.172466
0.172473
0.172481
0.172489
0.172497
0.172504
0.172512
0.17252
0.172527
0.172535
0.172543
0.17255
0.172558
0.172566
0.172573
0.172581
0.172589
0.172596
0.172604
0.172612
0.172619
0.172627
0.172635
0.172642
0.17265
0.172658
0.172666
0.172673
0.172681
0.172689
0.172696
0.172704
0.172712
0.172719
0.172727
0.172735
0.172742
0.17275
0.172758
0.172766
0.172773
0.172781
0.172789
0.172796
0.172804
0.172812
0.172819
0.172827
0.172835
0.172843
0.17285
0.172858
0.172866
0.172873
0.172881
0.172889
0.172896
0.172904
0.172912
0.17292
0.172927
0.172935
0.172943
0.17295
0.172958
0.172966
0.172973
0.172981
0.172989
0.172997
0.173004
0.173012
0.17302
0.173027
0.173035
0.173043
0.173051
0.173058
0.173066
0.173074
0.173081
0.173089
0.173097
0.173105
0.173112
0.17312
0.173128
0.173135
0.173143
0.173151
0.173159
0.173166
0.173174
0.173182
0.173189
0.173197
0.173205
0.173213
0.17322
0.173228
0.173236
0.173244
0.173251
0.173259
0.173267
0.173274
0.173282
0.17329
0.173298
0.173305
0.173313
0.173321
0.173329
0.173336
0.173344
0.173352
0.173359
0.173367
0.173375
0.173383
0.17339
0.173398
0.173406
0.173414
0.173421
0.173429
0.173437
0.173445
0.173452
0.17346
0.173468
0.173475
0.173483
0.173491
0.173499
0.173506
0.173514
0.173522
0.17353
0.173537
0.173545
0.173553
0.173561
0.173568
0.173576
0.173584
0.173592
0.173599
0.173607
0.173615
0.173623
0.17363
0.173638
0.173646
0.173654
0.173661
0.173669
0.173677
0.173685
0.173692
0.1737
0.173708
0.173716
0.173723
0.173731
0.173739
0.173747
0.173754
0.173762
0.17377
0.173778
0.173785
0.173793
0.173801
0.173809
0.173816
0.173824
0.173832
0.17384
0.173847
0.173855
0.173863
0.173871
0.173878
0.173886
0.173894
0.173902
0.17391
0.173917
0.173925
0.173933
0.173941
0.173948
0.173956
0.173964
0.173972
0.173979
0.173987
0.173995
0.174003
0.17401
0.174018
0.174026
0.174034
0.174042
0.174049
0.174057
0.174065
0.174073
0.17408
0.174088
0.174096
0.174104
0.174112
0.174119
0.174127
0.174135
0.174143
0.17415
0.174158
0.174166
0.174174
0.174182
0.174189
0.174197
0.174205
0.174213
0.17422
0.174228
0.174236
0.174244
0.174252
0.174259
0.174267
0.174275
0.174283
0.17429
0.174298
0.174306
0.174314
0.174322
0.174329
0.174337
0.174345
0.174353
0.174361
0.174368
0.174376
0.174384
0.174392
0.1744
0.174407
0.174415
0.174423
0.174431
0.174439
0.174446
0.174454
0.174462
0.17447
0.174478
0.174485
0.174493
0.174501
0.174509
0.174517
0.174524
0.174532
0.17454
0.174548
0.174556
0.174563
0.174571
0.174579
0.174587
0.174595
0.174602
0.17461
0.174618
0.174626
0.174634
0.174641
0.174649
0.174657
0.174665
0.174673
0.17468
0.174688
0.174696
0.174704
0.174712
0.174719
0.174727
0.174735
0.174743
0.174751
0.174759
0.174766
0.174774
0.174782
0.17479
0.174798
0.174805
0.174813
0.174821
0.174829
0.174837
0.174845
0.174852
0.17486
0.174868
0.174876
0.174884
0.174891
0.174899
0.174907
0.174915
0.174923
0.174931
0.174938
0.174946
0.174954
0.174962
0.17497
0.174978
0.174985
0.174993
0.175001
0.175009
0.175017
0.175025
0.175032
0.17504
0.175048
0.175056
0.175064
0.175072
0.175079
0.175087
0.175095
0.175103
0.175111
0.175119
0.175126
0.175134
0.175142
0.17515
0.175158
0.175166
0.175173
0.175181
0.175189
0.175197
0.175205
0.175213
0.17522
0.175228
0.175236
0.175244
0.175252
0.17526
0.175267
0.175275
0.175283
0.175291
0.175299
0.175307
0.175315
0.175322
0.17533
0.175338
0.175346
0.175354
0.175362
0.17537
0.175377
0.175385
0.175393
0.175401
0.175409
0.175417
0.175424
0.175432
0.17544
0.175448
0.175456
0.175464
0.175472
0.175479
0.175487
0.175495
0.175503
0.175511
0.175519
0.175527
0.175535
0.175542
0.17555
0.175558
0.175566
0.175574
0.175582
0.17559
0.175597
0.175605
0.175613
0.175621
0.175629
0.175637
0.175645
0.175652
0.17566
0.175668
0.175676
0.175684
0.175692
0.1757
0.175708
0.175715
0.175723
0.175731
0.175739
0.175747
0.175755
0.175763
0.175771
0.175778
0.175786
0.175794
0.175802
0.17581
0.175818
0.175826
0.175834
0.175841
0.175849
0.175857
0.175865
0.175873
0.175881
0.175889
0.175897
0.175905
0.175912
0.17592
0.175928
0.175936
0.175944
0.175952
0.17596
0.175968
0.175975
0.175983
0.175991
0.175999
0.176007
0.176015
0.176023
0.176031
0.176039
0.176046
0.176054
0.176062
0.17607
0.176078
0.176086
0.176094
0.176102
0.17611
0.176118
0.176125
0.176133
0.176141
0.176149
0.176157
0.176165
0.176173
0.176181
0.176189
0.176197
0.176204
0.176212
0.17622
0.176228
0.176236
0.176244
0.176252
0.17626
0.176268
0.176276
0.176283
0.176291
0.176299
0.176307
0.176315
0.176323
0.176331
0.176339
0.176347
0.176355
0.176363
0.17637
0.176378
0.176386
0.176394
0.176402
0.17641
0.176418
0.176426
0.176434
0.176442
0.17645
0.176457
0.176465
0.176473
0.176481
0.176489
0.176497
0.176505
0.176513
0.176521
0.176529
0.176537
0.176545
0.176553
0.17656
0.176568
0.176576
0.176584
0.176592
0.1766
0.176608
0.176616
0.176624
0.176632
0.17664
0.176648
0.176656
0.176663
0.176671
0.176679
0.176687
0.176695
0.176703
0.176711
0.176719
0.176727
0.176735
0.176743
0.176751
0.176759
0.176767
0.176774
0.176782
0.17679
0.176798
0.176806
0.176814
0.176822
0.17683
0.176838
0.176846
0.176854
0.176862
0.17687
0.176878
0.176886
0.176894
0.176901
0.176909
0.176917
0.176925
0.176933
0.176941
0.176949
0.176957
0.176965
0.176973
0.176981
0.176989
0.176997
0.177005
0.177013
0.177021
0.177029
0.177037
0.177045
0.177052
0.17706
0.177068
0.177076
0.177084
0.177092
0.1771
0.177108
0.177116
0.177124
0.177132
0.17714
0.177148
0.177156
0.177164
0.177172
0.17718
0.177188
0.177196
0.177204
0.177212
0.17722
0.177227
0.177235
0.177243
0.177251
0.177259
0.177267
0.177275
0.177283
0.177291
0.177299
0.177307
0.177315
0.177323
0.177331
0.177339
0.177347
0.177355
0.177363
0.177371
0.177379
0.177387
0.177395
0.177403
0.177411
0.177419
0.177427
0.177435
0.177443
0.177451
0.177458
0.177466
0.177474
0.177482
0.17749
0.177498
0.177506
0.177514
0.177522
0.17753
0.177538
0.177546
0.177554
0.177562
0.17757
0.177578
0.177586
0.177594
0.177602
0.17761
0.177618
0.177626
0.177634
0.177642
0.17765
0.177658
0.177666
0.177674
0.177682
0.17769
0.177698
0.177706
0.177714
0.177722
0.17773
0.177738
0.177746
0.177754
0.177762
0.17777
0.177778
0.177786
0.177794
0.177802
0.17781
0.177818
0.177826
0.177834
0.177842
0.17785
0.177858
0.177866
0.177874
0.177882
0.17789
0.177898
0.177906
0.177914
0.177922
0.17793
0.177938
0.177946
0.177954
0.177962
0.17797
0.177978
0.177986
0.177994
0.178002
0.17801
0.178018
0.178026
0.178034
0.178042
0.17805
0.178058
0.178066
0.178074
0.178082
0.17809
0.178098
0.178106
0.178114
0.178122
0.17813
0.178138
0.178146
0.178154
0.178162
0.17817
0.178178
0.178186
0.178194
0.178202
0.17821
0.178218
0.178226
0.178234
0.178242
0.17825
0.178258
0.178266
0.178274
0.178282
0.17829
0.178298
0.178306
0.178314
0.178322
0.17833
0.178338
0.178346
0.178354
0.178362
0.17837
0.178378
0.178386
0.178394
0.178402
0.178411
0.178419
0.178427
0.178435
0.178443
0.178451
0.178459
0.178467
0.178475
0.178483
0.178491
0.178499
0.178507
0.178515
0.178523
0.178531
0.178539
0.178547
0.178555
0.178563
0.178571
0.178579
0.178587
0.178595
0.178603
0.178611
0.178619
0.178627
0.178635
0.178643
0.178652
0.17866
0.178668
0.178676
0.178684
0.178692
0.1787
0.178708
0.178716
0.178724
0.178732
0.17874
0.178748
0.178756
0.178764
0.178772
0.17878
0.178788
0.178796
0.178804
0.178812
0.17882
0.178829
0.178837
0.178845
0.178853
0.178861
0.178869
0.178877
0.178885
0.178893
0.178901
0.178909
0.178917
0.178925
0.178933
0.178941
0.178949
0.178957
0.178965
0.178974
0.178982
0.17899
0.178998
0.179006
0.179014
0.179022
0.17903
0.179038
0.179046
0.179054
0.179062
0.17907
0.179078
0.179086
0.179094
0.179103
0.179111
0.179119
0.179127
0.179135
0.179143
0.179151
0.179159
0.179167
0.179175
0.179183
0.179191
0.179199
0.179207
0.179216
0.179224
0.179232
0.17924
0.179248
0.179256
0.179264
0.179272
0.17928
0.179288
0.179296
0.179304
0.179312
0.17932
0.179329
0.179337
0.179345
0.179353
0.179361
0.179369
0.179377
0.179385
0.179393
0.179401
0.179409
0.179417
0.179426
0.179434
0.179442
0.17945
0.179458
0.179466
0.179474
0.179482
0.17949
0.179498
0.179506
0.179515
0.179523
0.179531
0.179539
0.179547
0.179555
0.179563
0.179571
0.179579
0.179587
0.179595
0.179604
0.179612
0.17962
0.179628
0.179636
0.179644
0.179652
0.17966
0.179668
0.179676
0.179685
0.179693
0.179701
0.179709
0.179717
0.179725
0.179733
0.179741
0.179749
0.179757
0.179766
0.179774
0.179782
0.17979
0.179798
0.179806
0.179814
0.179822
0.17983
0.179838
0.179847
0.179855
0.179863
0.179871
0.179879
0.179887
0.179895
0.179903
0.179911
0.17992
0.179928
0.179936
0.179944
0.179952
0.17996
0.179968
0.179976
0.179985
0.179993
0.180001
0.180009
0.180017
0.180025
0.180033
0.180041
0.180049
0.180058
0.180066
0.180074
0.180082
0.18009
0.180098
0.180106
0.180114
0.180123
0.180131
0.180139
0.180147
0.180155
0.180163
0.180171
0.180179
0.180188
0.180196
0.180204
0.180212
0.18022
0.180228
0.180236
0.180244
0.180253
0.180261
0.180269
0.180277
0.180285
0.180293
0.180301
0.18031
0.180318
0.180326
0.180334
0.180342
0.18035
0.180358
0.180367
0.180375
0.180383
0.180391
0.180399
0.180407
0.180415
0.180423
0.180432
0.18044
0.180448
0.180456
0.180464
0.180472
0.180481
0.180489
0.180497
0.180505
0.180513
0.180521
0.180529
0.180538
0.180546
0.180554
0.180562
0.18057
0.180578
0.180586
0.180595
0.180603
0.180611
0.180619
0.180627
0.180635
0.180643
0.180652
0.18066
0.180668
0.180676
0.180684
0.180692
0.180701
0.180709
0.180717
0.180725
0.180733
0.180741
0.18075
0.180758
0.180766
0.180774
0.180782
0.18079
0.180799
0.180807
0.180815
0.180823
0.180831
0.180839
0.180848
0.180856
0.180864
0.180872
0.18088
0.180888
0.180897
0.180905
0.180913
0.180921
0.180929
0.180937
0.180946
0.180954
0.180962
0.18097
0.180978
0.180986
0.180995
0.181003
0.181011
0.181019
0.181027
0.181035
0.181044
0.181052
0.18106
0.181068
0.181076
0.181085
0.181093
0.181101
0.181109
0.181117
0.181125
0.181134
0.181142
0.18115
0.181158
0.181166
0.181175
0.181183
0.181191
0.181199
0.181207
0.181215
0.181224
0.181232
0.18124
0.181248
0.181256
0.181265
0.181273
0.181281
0.181289
0.181297
0.181306
0.181314
0.181322
0.18133
0.181338
0.181346
0.181355
0.181363
0.181371
0.181379
0.181387
0.181396
0.181404
0.181412
0.18142
0.181428
0.181437
0.181445
0.181453
0.181461
0.181469
0.181478
0.181486
0.181494
0.181502
0.18151
0.181519
0.181527
0.181535
0.181543
0.181551
0.18156
0.181568
0.181576
0.181584
0.181593
0.181601
0.181609
0.181617
0.181625
0.181634
0.181642
0.18165
0.181658
0.181666
0.181675
0.181683
0.181691
0.181699
0.181707
0.181716
0.181724
0.181732
0.18174
0.181749
0.181757
0.181765
0.181773
0.181781
0.18179
0.181798
0.181806
0.181814
0.181823
0.181831
0.181839
0.181847
0.181855
0.181864
0.181872
0.18188
0.181888
0.181897
0.181905
0.181913
0.181921
0.181929
0.181938
0.181946
0.181954
0.181962
0.181971
0.181979
0.181987
0.181995
0.182003
0.182012
0.18202
0.182028
0.182036
0.182045
0.182053
0.182061
0.182069
0.182078
0.182086
0.182094
0.182102
0.182111
0.182119
0.182127
0.182135
0.182143
0.182152
0.18216
0.182168
0.182176
0.182185
0.182193
0.182201
0.182209
0.182218
0.182226
0.182234
0.182242
0.182251
0.182259
0.182267
0.182275
0.182284
0.182292
0.1823
0.182308
0.182317
0.182325
0.182333
0.182341
0.18235
0.182358
0.182366
0.182374
0.182383
0.182391
0.182399
0.182407
0.182416
0.182424
0.182432
0.18244
0.182449
0.182457
0.182465
0.182473
0.182482
0.18249
0.182498
0.182506
0.182515
0.182523
0.182531
0.182539
0.182548
0.182556
0.182564
0.182573
0.182581
0.182589
0.182597
0.182606
0.182614
0.182622
0.18263
0.182639
0.182647
0.182655
0.182663
0.182672
0.18268
0.182688
0.182696
0.182705
0.182713
0.182721
0.18273
0.182738
0.182746
0.182754
0.182763
0.182771
0.182779
0.182787
0.182796
0.182804
0.182812
0.182821
0.182829
0.182837
0.182845
0.182854
0.182862
0.18287
0.182879
0.182887
0.182895
0.182903
0.182912
0.18292
0.182928
0.182937
0.182945
0.182953
0.182961
0.18297
0.182978
0.182986
0.182994
0.183003
0.183011
0.183019
0.183028
0.183036
0.183044
0.183053
0.183061
0.183069
0.183077
0.183086
0.183094
0.183102
0.183111
0.183119
0.183127
0.183135
0.183144
0.183152
0.18316
0.183169
0.183177
0.183185
0.183193
0.183202
0.18321
0.183218
0.183227
0.183235
0.183243
0.183252
0.18326
0.183268
0.183276
0.183285
0.183293
0.183301
0.18331
0.183318
0.183326
0.183335
0.183343
0.183351
0.18336
0.183368
0.183376
0.183384
0.183393
0.183401
0.183409
0.183418
0.183426
0.183434
0.183443
0.183451
0.183459
0.183468
0.183476
0.183484
0.183492
0.183501
0.183509
0.183517
0.183526
0.183534
0.183542
0.183551
0.183559
0.183567
0.183576
0.183584
0.183592
0.183601
0.183609
0.183617
0.183626
0.183634
0.183642
0.183651
0.183659
0.183667
0.183675
0.183684
0.183692
0.1837
0.183709
0.183717
0.183725
0.183734
0.183742
0.18375
0.183759
0.183767
0.183775
0.183784
0.183792
0.1838
0.183809
0.183817
0.183825
0.183834
0.183842
0.18385
0.183859
0.183867
0.183875
0.183884
0.183892
0.1839
0.183909
0.183917
0.183925
0.183934
0.183942
0.18395
0.183959
0.183967
0.183975
0.183984
0.183992
0.184
0.184009
0.184017
0.184025
0.184034
0.184042
0.184051
0.184059
0.184067
0.184076
0.184084
0.184092
0.184101
0.184109
0.184117
0.184126
0.184134
0.184142
0.184151
0.184159
0.184167
0.184176
0.184184
0.184192
0.184201
0.184209
0.184218
0.184226
0.184234
0.184243
0.184251
0.184259
0.184268
0.184276
0.184284
0.184293
0.184301
0.184309
0.184318
0.184326
0.184335
0.184343
0.184351
0.18436
0.184368
0.184376
0.184385
0.184393
0.184401
0.18441
0.184418
0.184427
0.184435
0.184443
0.184452
0.18446
0.184468
0.184477
0.184485
0.184493
0.184502
0.18451
0.184519
0.184527
0.184535
0.184544
0.184552
0.18456
0.184569
0.184577
0.184586
0.184594
0.184602
0.184611
0.184619
0.184627
0.184636
0.184644
0.184653
0.184661
0.184669
0.184678
0.184686
0.184694
0.184703
0.184711
0.18472
0.184728
0.184736
0.184745
0.184753
0.184761
0.18477
0.184778
0.184787
0.184795
0.184803
0.184812
0.18482
0.184829
0.184837
0.184845
0.184854
0.184862
0.184871
0.184879
0.184887
0.184896
0.184904
0.184912
0.184921
0.184929
0.184938
0.184946
0.184954
0.184963
0.184971
0.18498
0.184988
0.184996
0.185005
0.185013
0.185022
0.18503
0.185038
0.185047
0.185055
0.185064
0.185072
0.18508
0.185089
0.185097
0.185106
0.185114
0.185122
0.185131
0.185139
0.185148
0.185156
0.185164
0.185173
0.185181
0.18519
0.185198
0.185207
0.185215
0.185223
0.185232
0.18524
0.185249
0.185257
0.185265
0.185274
0.185282
0.185291
0.185299
0.185307
0.185316
0.185324
0.185333
0.185341
0.18535
0.185358
0.185366
0.185375
0.185383
0.185392
0.1854
0.185408
0.185417
0.185425
0.185434
0.185442
0.185451
0.185459
0.185467
0.185476
0.185484
0.185493
0.185501
0.18551
0.185518
0.185526
0.185535
0.185543
0.185552
0.18556
0.185569
0.185577
0.185585
0.185594
0.185602
0.185611
0.185619
0.185628
0.185636
0.185644
0.185653
0.185661
0.18567
0.185678
0.185687
0.185695
0.185703
0.185712
0.18572
0.185729
0.185737
0.185746
0.185754
0.185763
0.185771
0.185779
0.185788
0.185796
0.185805
0.185813
0.185822
0.18583
0.185838
0.185847
0.185855
0.185864
0.185872
0.185881
0.185889
0.185898
0.185906
0.185914
0.185923
0.185931
0.18594
0.185948
0.185957
0.185965
0.185974
0.185982
0.185991
0.185999
0.186007
0.186016
0.186024
0.186033
0.186041
0.18605
0.186058
0.186067
0.186075
0.186084
0.186092
0.1861
0.186109
0.186117
0.186126
0.186134
0.186143
0.186151
0.18616
0.186168
0.186177
0.186185
0.186194
0.186202
0.18621
0.186219
0.186227
0.186236
0.186244
0.186253
0.186261
0.18627
0.186278
0.186287
0.186295
0.186304
0.186312
0.186321
0.186329
0.186337
0.186346
0.186354
0.186363
0.186371
0.18638
0.186388
0.186397
0.186405
0.186414
0.186422
0.186431
0.186439
0.186448
0.186456
0.186465
0.186473
0.186482
0.18649
0.186499
0.186507
0.186515
0.186524
0.186532
0.186541
0.186549
0.186558
0.186566
0.186575
0.186583
0.186592
0.1866
0.186609
0.186617
0.186626
0.186634
0.186643
0.186651
0.18666
0.186668
0.186677
0.186685
0.186694
0.186702
0.186711
0.186719
0.186728
0.186736
0.186745
0.186753
0.186762
0.18677
0.186779
0.186787
0.186796
0.186804
0.186813
0.186821
0.18683
0.186838
0.186847
0.186855
0.186864
0.186872
0.186881
0.186889
0.186898
0.186906
0.186915
0.186923
0.186932
0.18694
0.186949
0.186957
0.186966
0.186974
0.186983
0.186991
0.187
0.187008
0.187017
0.187025
0.187034
0.187042
0.187051
0.187059
0.187068
0.187076
0.187085
0.187093
0.187102
0.18711
0.187119
0.187127
0.187136
0.187144
0.187153
0.187161
0.18717
0.187178
0.187187
0.187195
0.187204
0.187213
0.187221
0.18723
0.187238
0.187247
0.187255
0.187264
0.187272
0.187281
0.187289
0.187298
0.187306
0.187315
0.187323
0.187332
0.18734
0.187349
0.187357
0.187366
0.187374
0.187383
0.187392
0.1874
0.187409
0.187417
0.187426
0.187434
0.187443
0.187451
0.18746
0.187468
0.187477
0.187485
0.187494
0.187502
0.187511
0.18752
0.187528
0.187537
0.187545
0.187554
0.187562
0.187571
0.187579
0.187588
0.187596
0.187605
0.187613
0.187622
0.187631
0.187639
0.187648
0.187656
0.187665
0.187673
0.187682
0.18769
0.187699
0.187707
0.187716
0.187725
0.187733
0.187742
0.18775
0.187759
0.187767
0.187776
0.187784
0.187793
0.187801
0.18781
0.187819
0.187827
0.187836
0.187844
0.187853
0.187861
0.18787
0.187878
0.187887
0.187896
0.187904
0.187913
0.187921
0.18793
0.187938
0.187947