/*--------------------------------*- C++ -*----------------------------------*\
  =========                 |
  \\      /  F ield         | OpenFOAM: The Open Source CFD Toolbox
   \\    /   O peration     | Website:  https://openfoam.org
    \\  /    A nd           | Version:  9
     \\/     M anipulation  |
\*---------------------------------------------------------------------------*/
FoamFile
{
    format      ascii;
    class       volVectorField;
    location    "0.049";
    object      U_0;
}
// * * * * * * * * * * * * * * * * * * * * * * * * * * * * * * * * * * * * * //

dimensions      [0 1 -1 0 0 0 0];

internalField   nonuniform List<vector> 
10000
(
(8.91951 0 0)
(8.94366 0 0)
(8.97456 0 0)
(8.99993 0 0)
(9.022 0 0)
(9.04387 0 0)
(9.06631 0 0)
(9.08902 0 0)
(9.11173 0 0)
(9.13437 0 0)
(9.15699 0 0)
(9.17962 0 0)
(9.20225 0 0)
(9.22488 0 0)
(9.24751 0 0)
(9.27014 0 0)
(9.29276 0 0)
(9.31539 0 0)
(9.33801 0 0)
(9.36064 0 0)
(9.38326 0 0)
(9.40588 0 0)
(9.4285 0 0)
(9.45112 0 0)
(9.47374 0 0)
(9.49635 0 0)
(9.51897 0 0)
(9.54158 0 0)
(9.5642 0 0)
(9.58681 0 0)
(9.60942 0 0)
(9.63203 0 0)
(9.65464 0 0)
(9.67724 0 0)
(9.69985 0 0)
(9.72245 0 0)
(9.74505 0 0)
(9.76765 0 0)
(9.79025 0 0)
(9.81285 0 0)
(9.83545 0 0)
(9.85804 0 0)
(9.88063 0 0)
(9.90322 0 0)
(9.92581 0 0)
(9.9484 0 0)
(9.97098 0 0)
(9.99357 0 0)
(10.0161 0 0)
(10.0387 0 0)
(10.0613 0 0)
(10.0839 0 0)
(10.1065 0 0)
(10.129 0 0)
(10.1516 0 0)
(10.1742 0 0)
(10.1967 0 0)
(10.2193 0 0)
(10.2419 0 0)
(10.2644 0 0)
(10.287 0 0)
(10.3095 0 0)
(10.3321 0 0)
(10.3546 0 0)
(10.3772 0 0)
(10.3997 0 0)
(10.4223 0 0)
(10.4448 0 0)
(10.4673 0 0)
(10.4899 0 0)
(10.5124 0 0)
(10.5349 0 0)
(10.5575 0 0)
(10.58 0 0)
(10.6025 0 0)
(10.625 0 0)
(10.6476 0 0)
(10.6701 0 0)
(10.6926 0 0)
(10.7151 0 0)
(10.7376 0 0)
(10.7601 0 0)
(10.7826 0 0)
(10.8051 0 0)
(10.8276 0 0)
(10.8501 0 0)
(10.8726 0 0)
(10.8951 0 0)
(10.9176 0 0)
(10.9401 0 0)
(10.9625 0 0)
(10.985 0 0)
(11.0075 0 0)
(11.03 0 0)
(11.0524 0 0)
(11.0749 0 0)
(11.0974 0 0)
(11.1198 0 0)
(11.1423 0 0)
(11.1647 0 0)
(11.1872 0 0)
(11.2096 0 0)
(11.2321 0 0)
(11.2545 0 0)
(11.2769 0 0)
(11.2994 0 0)
(11.3218 0 0)
(11.3442 0 0)
(11.3666 0 0)
(11.389 0 0)
(11.4114 0 0)
(11.4338 0 0)
(11.4562 0 0)
(11.4786 0 0)
(11.501 0 0)
(11.5234 0 0)
(11.5458 0 0)
(11.5682 0 0)
(11.5906 0 0)
(11.6129 0 0)
(11.6353 0 0)
(11.6577 0 0)
(11.68 0 0)
(11.7024 0 0)
(11.7247 0 0)
(11.7471 0 0)
(11.7694 0 0)
(11.7917 0 0)
(11.8141 0 0)
(11.8364 0 0)
(11.8587 0 0)
(11.881 0 0)
(11.9033 0 0)
(11.9257 0 0)
(11.948 0 0)
(11.9703 0 0)
(11.9926 0 0)
(12.0148 0 0)
(12.0371 0 0)
(12.0594 0 0)
(12.0817 0 0)
(12.104 0 0)
(12.1262 0 0)
(12.1485 0 0)
(12.1707 0 0)
(12.193 0 0)
(12.2152 0 0)
(12.2375 0 0)
(12.2597 0 0)
(12.2819 0 0)
(12.3042 0 0)
(12.3264 0 0)
(12.3486 0 0)
(12.3708 0 0)
(12.393 0 0)
(12.4152 0 0)
(12.4374 0 0)
(12.4596 0 0)
(12.4817 0 0)
(12.5039 0 0)
(12.5261 0 0)
(12.5482 0 0)
(12.5704 0 0)
(12.5925 0 0)
(12.6147 0 0)
(12.6368 0 0)
(12.6589 0 0)
(12.6811 0 0)
(12.7032 0 0)
(12.7253 0 0)
(12.7474 0 0)
(12.7695 0 0)
(12.7916 0 0)
(12.8137 0 0)
(12.8358 0 0)
(12.8578 0 0)
(12.8799 0 0)
(12.902 0 0)
(12.924 0 0)
(12.9461 0 0)
(12.9681 0 0)
(12.9901 0 0)
(13.0122 0 0)
(13.0342 0 0)
(13.0562 0 0)
(13.0782 0 0)
(13.1002 0 0)
(13.1222 0 0)
(13.1442 0 0)
(13.1662 0 0)
(13.1881 0 0)
(13.2101 0 0)
(13.2321 0 0)
(13.254 0 0)
(13.2759 0 0)
(13.2979 0 0)
(13.3198 0 0)
(13.3417 0 0)
(13.3636 0 0)
(13.3855 0 0)
(13.4074 0 0)
(13.4293 0 0)
(13.4512 0 0)
(13.4731 0 0)
(13.4949 0 0)
(13.5168 0 0)
(13.5386 0 0)
(13.5605 0 0)
(13.5823 0 0)
(13.6041 0 0)
(13.6259 0 0)
(13.6477 0 0)
(13.6695 0 0)
(13.6913 0 0)
(13.7131 0 0)
(13.7349 0 0)
(13.7566 0 0)
(13.7784 0 0)
(13.8001 0 0)
(13.8219 0 0)
(13.8436 0 0)
(13.8653 0 0)
(13.887 0 0)
(13.9087 0 0)
(13.9304 0 0)
(13.9521 0 0)
(13.9738 0 0)
(13.9954 0 0)
(14.0171 0 0)
(14.0387 0 0)
(14.0604 0 0)
(14.082 0 0)
(14.1036 0 0)
(14.1252 0 0)
(14.1468 0 0)
(14.1684 0 0)
(14.19 0 0)
(14.2115 0 0)
(14.2331 0 0)
(14.2546 0 0)
(14.2762 0 0)
(14.2977 0 0)
(14.3192 0 0)
(14.3407 0 0)
(14.3622 0 0)
(14.3837 0 0)
(14.4052 0 0)
(14.4266 0 0)
(14.4481 0 0)
(14.4695 0 0)
(14.491 0 0)
(14.5124 0 0)
(14.5338 0 0)
(14.5552 0 0)
(14.5766 0 0)
(14.598 0 0)
(14.6193 0 0)
(14.6407 0 0)
(14.662 0 0)
(14.6834 0 0)
(14.7047 0 0)
(14.726 0 0)
(14.7473 0 0)
(14.7686 0 0)
(14.7898 0 0)
(14.8111 0 0)
(14.8323 0 0)
(14.8536 0 0)
(14.8748 0 0)
(14.896 0 0)
(14.9172 0 0)
(14.9384 0 0)
(14.9596 0 0)
(14.9807 0 0)
(15.0019 0 0)
(15.023 0 0)
(15.0442 0 0)
(15.0653 0 0)
(15.0864 0 0)
(15.1075 0 0)
(15.1285 0 0)
(15.1496 0 0)
(15.1706 0 0)
(15.1917 0 0)
(15.2127 0 0)
(15.2337 0 0)
(15.2547 0 0)
(15.2757 0 0)
(15.2966 0 0)
(15.3176 0 0)
(15.3385 0 0)
(15.3595 0 0)
(15.3804 0 0)
(15.4013 0 0)
(15.4221 0 0)
(15.443 0 0)
(15.4639 0 0)
(15.4847 0 0)
(15.5055 0 0)
(15.5263 0 0)
(15.5471 0 0)
(15.5679 0 0)
(15.5887 0 0)
(15.6094 0 0)
(15.6302 0 0)
(15.6509 0 0)
(15.6716 0 0)
(15.6923 0 0)
(15.713 0 0)
(15.7336 0 0)
(15.7543 0 0)
(15.7749 0 0)
(15.7955 0 0)
(15.8161 0 0)
(15.8367 0 0)
(15.8573 0 0)
(15.8778 0 0)
(15.8983 0 0)
(15.9189 0 0)
(15.9394 0 0)
(15.9598 0 0)
(15.9803 0 0)
(16.0007 0 0)
(16.0212 0 0)
(16.0416 0 0)
(16.062 0 0)
(16.0824 0 0)
(16.1027 0 0)
(16.1231 0 0)
(16.1434 0 0)
(16.1637 0 0)
(16.184 0 0)
(16.2043 0 0)
(16.2246 0 0)
(16.2448 0 0)
(16.265 0 0)
(16.2852 0 0)
(16.3054 0 0)
(16.3256 0 0)
(16.3457 0 0)
(16.3659 0 0)
(16.386 0 0)
(16.4061 0 0)
(16.4262 0 0)
(16.4462 0 0)
(16.4662 0 0)
(16.4863 0 0)
(16.5063 0 0)
(16.5262 0 0)
(16.5462 0 0)
(16.5661 0 0)
(16.5861 0 0)
(16.606 0 0)
(16.6259 0 0)
(16.6457 0 0)
(16.6656 0 0)
(16.6854 0 0)
(16.7052 0 0)
(16.725 0 0)
(16.7447 0 0)
(16.7645 0 0)
(16.7842 0 0)
(16.8039 0 0)
(16.8236 0 0)
(16.8432 0 0)
(16.8628 0 0)
(16.8825 0 0)
(16.9021 0 0)
(16.9216 0 0)
(16.9412 0 0)
(16.9607 0 0)
(16.9802 0 0)
(16.9997 0 0)
(17.0192 0 0)
(17.0386 0 0)
(17.058 0 0)
(17.0774 0 0)
(17.0968 0 0)
(17.1161 0 0)
(17.1355 0 0)
(17.1548 0 0)
(17.174 0 0)
(17.1933 0 0)
(17.2125 0 0)
(17.2317 0 0)
(17.2509 0 0)
(17.2701 0 0)
(17.2892 0 0)
(17.3084 0 0)
(17.3275 0 0)
(17.3465 0 0)
(17.3656 0 0)
(17.3846 0 0)
(17.4036 0 0)
(17.4226 0 0)
(17.4415 0 0)
(17.4604 0 0)
(17.4793 0 0)
(17.4982 0 0)
(17.5171 0 0)
(17.5359 0 0)
(17.5547 0 0)
(17.5735 0 0)
(17.5922 0 0)
(17.6109 0 0)
(17.6296 0 0)
(17.6483 0 0)
(17.6669 0 0)
(17.6856 0 0)
(17.7042 0 0)
(17.7227 0 0)
(17.7413 0 0)
(17.7598 0 0)
(17.7783 0 0)
(17.7967 0 0)
(17.8152 0 0)
(17.8336 0 0)
(17.852 0 0)
(17.8703 0 0)
(17.8886 0 0)
(17.9069 0 0)
(17.9252 0 0)
(17.9435 0 0)
(17.9617 0 0)
(17.9799 0 0)
(17.998 0 0)
(18.0162 0 0)
(18.0343 0 0)
(18.0523 0 0)
(18.0704 0 0)
(18.0884 0 0)
(18.1064 0 0)
(18.1244 0 0)
(18.1423 0 0)
(18.1602 0 0)
(18.1781 0 0)
(18.1959 0 0)
(18.2137 0 0)
(18.2315 0 0)
(18.2493 0 0)
(18.267 0 0)
(18.2847 0 0)
(18.3024 0 0)
(18.32 0 0)
(18.3377 0 0)
(18.3552 0 0)
(18.3728 0 0)
(18.3903 0 0)
(18.4078 0 0)
(18.4253 0 0)
(18.4427 0 0)
(18.4601 0 0)
(18.4775 0 0)
(18.4948 0 0)
(18.5121 0 0)
(18.5294 0 0)
(18.5467 0 0)
(18.5639 0 0)
(18.5811 0 0)
(18.5982 0 0)
(18.6154 0 0)
(18.6325 0 0)
(18.6495 0 0)
(18.6665 0 0)
(18.6835 0 0)
(18.7005 0 0)
(18.7175 0 0)
(18.7344 0 0)
(18.7512 0 0)
(18.7681 0 0)
(18.7849 0 0)
(18.8017 0 0)
(18.8184 0 0)
(18.8351 0 0)
(18.8518 0 0)
(18.8685 0 0)
(18.8851 0 0)
(18.9017 0 0)
(18.9182 0 0)
(18.9347 0 0)
(18.9512 0 0)
(18.9677 0 0)
(18.9841 0 0)
(19.0005 0 0)
(19.0169 0 0)
(19.0332 0 0)
(19.0495 0 0)
(19.0658 0 0)
(19.082 0 0)
(19.0982 0 0)
(19.1143 0 0)
(19.1305 0 0)
(19.1466 0 0)
(19.1626 0 0)
(19.1787 0 0)
(19.1947 0 0)
(19.2106 0 0)
(19.2266 0 0)
(19.2425 0 0)
(19.2584 0 0)
(19.2742 0 0)
(19.29 0 0)
(19.3058 0 0)
(19.3215 0 0)
(19.3372 0 0)
(19.3529 0 0)
(19.3685 0 0)
(19.3841 0 0)
(19.3997 0 0)
(19.4152 0 0)
(19.4307 0 0)
(19.4462 0 0)
(19.4617 0 0)
(19.4771 0 0)
(19.4924 0 0)
(19.5078 0 0)
(19.5231 0 0)
(19.5384 0 0)
(19.5536 0 0)
(19.5688 0 0)
(19.584 0 0)
(19.5992 0 0)
(19.6143 0 0)
(19.6294 0 0)
(19.6444 0 0)
(19.6594 0 0)
(19.6744 0 0)
(19.6894 0 0)
(19.7043 0 0)
(19.7192 0 0)
(19.734 0 0)
(19.7489 0 0)
(19.7636 0 0)
(19.7784 0 0)
(19.7931 0 0)
(19.8078 0 0)
(19.8225 0 0)
(19.8371 0 0)
(19.8517 0 0)
(19.8663 0 0)
(19.8809 0 0)
(19.8954 0 0)
(19.9098 0 0)
(19.9243 0 0)
(19.9387 0 0)
(19.9531 0 0)
(19.9674 0 0)
(19.9818 0 0)
(19.9961 0 0)
(20.0103 0 0)
(20.0246 0 0)
(20.0388 0 0)
(20.0529 0 0)
(20.0671 0 0)
(20.0812 0 0)
(20.0953 0 0)
(20.1093 0 0)
(20.1233 0 0)
(20.1373 0 0)
(20.1513 0 0)
(20.1652 0 0)
(20.1792 0 0)
(20.193 0 0)
(20.2069 0 0)
(20.2207 0 0)
(20.2345 0 0)
(20.2483 0 0)
(20.262 0 0)
(20.2757 0 0)
(20.2894 0 0)
(20.3031 0 0)
(20.3167 0 0)
(20.3303 0 0)
(20.3439 0 0)
(20.3574 0 0)
(20.3709 0 0)
(20.3844 0 0)
(20.3979 0 0)
(20.4113 0 0)
(20.4247 0 0)
(20.4381 0 0)
(20.4515 0 0)
(20.4648 0 0)
(20.4781 0 0)
(20.4914 0 0)
(20.5047 0 0)
(20.5179 0 0)
(20.5311 0 0)
(20.5443 0 0)
(20.5575 0 0)
(20.5706 0 0)
(20.5837 0 0)
(20.5968 0 0)
(20.6099 0 0)
(20.623 0 0)
(20.636 0 0)
(20.649 0 0)
(20.662 0 0)
(20.6749 0 0)
(20.6878 0 0)
(20.7008 0 0)
(20.7136 0 0)
(20.7265 0 0)
(20.7394 0 0)
(20.7522 0 0)
(20.765 0 0)
(20.7778 0 0)
(20.7905 0 0)
(20.8033 0 0)
(20.816 0 0)
(20.8287 0 0)
(20.8414 0 0)
(20.854 0 0)
(20.8667 0 0)
(20.8793 0 0)
(20.8919 0 0)
(20.9045 0 0)
(20.9171 0 0)
(20.9296 0 0)
(20.9421 0 0)
(20.9547 0 0)
(20.9672 0 0)
(20.9796 0 0)
(20.9921 0 0)
(21.0045 0 0)
(21.017 0 0)
(21.0294 0 0)
(21.0418 0 0)
(21.0541 0 0)
(21.0665 0 0)
(21.0788 0 0)
(21.0912 0 0)
(21.1035 0 0)
(21.1158 0 0)
(21.1281 0 0)
(21.1403 0 0)
(21.1526 0 0)
(21.1648 0 0)
(21.177 0 0)
(21.1892 0 0)
(21.2014 0 0)
(21.2136 0 0)
(21.2258 0 0)
(21.2379 0 0)
(21.2501 0 0)
(21.2622 0 0)
(21.2743 0 0)
(21.2864 0 0)
(21.2985 0 0)
(21.3106 0 0)
(21.3227 0 0)
(21.3347 0 0)
(21.3468 0 0)
(21.3588 0 0)
(21.3708 0 0)
(21.3828 0 0)
(21.3948 0 0)
(21.4068 0 0)
(21.4188 0 0)
(21.4308 0 0)
(21.4427 0 0)
(21.4547 0 0)
(21.4666 0 0)
(21.4785 0 0)
(21.4904 0 0)
(21.5024 0 0)
(21.5143 0 0)
(21.5261 0 0)
(21.538 0 0)
(21.5499 0 0)
(21.5618 0 0)
(21.5736 0 0)
(21.5855 0 0)
(21.5973 0 0)
(21.6091 0 0)
(21.6209 0 0)
(21.6328 0 0)
(21.6446 0 0)
(21.6564 0 0)
(21.6682 0 0)
(21.6799 0 0)
(21.6917 0 0)
(21.7035 0 0)
(21.7153 0 0)
(21.727 0 0)
(21.7388 0 0)
(21.7505 0 0)
(21.7622 0 0)
(21.774 0 0)
(21.7857 0 0)
(21.7974 0 0)
(21.8091 0 0)
(21.8208 0 0)
(21.8326 0 0)
(21.8442 0 0)
(21.8559 0 0)
(21.8676 0 0)
(21.8793 0 0)
(21.891 0 0)
(21.9027 0 0)
(21.9143 0 0)
(21.926 0 0)
(21.9377 0 0)
(21.9493 0 0)
(21.961 0 0)
(21.9726 0 0)
(21.9843 0 0)
(21.9959 0 0)
(22.0075 0 0)
(22.0192 0 0)
(22.0308 0 0)
(22.0424 0 0)
(22.054 0 0)
(22.0656 0 0)
(22.0773 0 0)
(22.0889 0 0)
(22.1005 0 0)
(22.1121 0 0)
(22.1237 0 0)
(22.1353 0 0)
(22.1469 0 0)
(22.1585 0 0)
(22.1701 0 0)
(22.1816 0 0)
(22.1932 0 0)
(22.2048 0 0)
(22.2164 0 0)
(22.228 0 0)
(22.2395 0 0)
(22.2511 0 0)
(22.2627 0 0)
(22.2742 0 0)
(22.2858 0 0)
(22.2974 0 0)
(22.3089 0 0)
(22.3205 0 0)
(22.3321 0 0)
(22.3436 0 0)
(22.3552 0 0)
(22.3667 0 0)
(22.3783 0 0)
(22.3898 0 0)
(22.4014 0 0)
(22.4129 0 0)
(22.4245 0 0)
(22.436 0 0)
(22.4476 0 0)
(22.4591 0 0)
(22.4706 0 0)
(22.4822 0 0)
(22.4937 0 0)
(22.5053 0 0)
(22.5168 0 0)
(22.5283 0 0)
(22.5399 0 0)
(22.5514 0 0)
(22.5629 0 0)
(22.5745 0 0)
(22.586 0 0)
(22.5975 0 0)
(22.6091 0 0)
(22.6206 0 0)
(22.6321 0 0)
(22.6436 0 0)
(22.6552 0 0)
(22.6667 0 0)
(22.6782 0 0)
(22.6898 0 0)
(22.7013 0 0)
(22.7128 0 0)
(22.7243 0 0)
(22.7359 0 0)
(22.7474 0 0)
(22.7589 0 0)
(22.7704 0 0)
(22.7819 0 0)
(22.7935 0 0)
(22.805 0 0)
(22.8165 0 0)
(22.828 0 0)
(22.8396 0 0)
(22.8511 0 0)
(22.8626 0 0)
(22.8741 0 0)
(22.8856 0 0)
(22.8972 0 0)
(22.9087 0 0)
(22.9202 0 0)
(22.9317 0 0)
(22.9432 0 0)
(22.9548 0 0)
(22.9663 0 0)
(22.9778 0 0)
(22.9893 0 0)
(23.0008 0 0)
(23.0124 0 0)
(23.0239 0 0)
(23.0354 0 0)
(23.0469 0 0)
(23.0585 0 0)
(23.07 0 0)
(23.0815 0 0)
(23.093 0 0)
(23.1045 0 0)
(23.1161 0 0)
(23.1276 0 0)
(23.1391 0 0)
(23.1506 0 0)
(23.1621 0 0)
(23.1737 0 0)
(23.1852 0 0)
(23.1967 0 0)
(23.2082 0 0)
(23.2198 0 0)
(23.2313 0 0)
(23.2428 0 0)
(23.2543 0 0)
(23.2659 0 0)
(23.2774 0 0)
(23.2889 0 0)
(23.3004 0 0)
(23.312 0 0)
(23.3235 0 0)
(23.335 0 0)
(23.3465 0 0)
(23.3581 0 0)
(23.3696 0 0)
(23.3811 0 0)
(23.3927 0 0)
(23.4042 0 0)
(23.4157 0 0)
(23.4272 0 0)
(23.4388 0 0)
(23.4503 0 0)
(23.4618 0 0)
(23.4734 0 0)
(23.4849 0 0)
(23.4964 0 0)
(23.508 0 0)
(23.5195 0 0)
(23.531 0 0)
(23.5425 0 0)
(23.5541 0 0)
(23.5656 0 0)
(23.5771 0 0)
(23.5887 0 0)
(23.6002 0 0)
(23.6118 0 0)
(23.6233 0 0)
(23.6348 0 0)
(23.6464 0 0)
(23.6579 0 0)
(23.6694 0 0)
(23.681 0 0)
(23.6925 0 0)
(23.704 0 0)
(23.7156 0 0)
(23.7271 0 0)
(23.7387 0 0)
(23.7502 0 0)
(23.7617 0 0)
(23.7733 0 0)
(23.7848 0 0)
(23.7964 0 0)
(23.8079 0 0)
(23.8194 0 0)
(23.831 0 0)
(23.8425 0 0)
(23.8541 0 0)
(23.8656 0 0)
(23.8772 0 0)
(23.8887 0 0)
(23.9003 0 0)
(23.9118 0 0)
(23.9233 0 0)
(23.9349 0 0)
(23.9464 0 0)
(23.958 0 0)
(23.9695 0 0)
(23.9811 0 0)
(23.9926 0 0)
(24.0042 0 0)
(24.0157 0 0)
(24.0273 0 0)
(24.0388 0 0)
(24.0504 0 0)
(24.0619 0 0)
(24.0735 0 0)
(24.085 0 0)
(24.0966 0 0)
(24.1081 0 0)
(24.1197 0 0)
(24.1312 0 0)
(24.1428 0 0)
(24.1544 0 0)
(24.1659 0 0)
(24.1775 0 0)
(24.189 0 0)
(24.2006 0 0)
(24.2121 0 0)
(24.2237 0 0)
(24.2353 0 0)
(24.2468 0 0)
(24.2584 0 0)
(24.2699 0 0)
(24.2815 0 0)
(24.293 0 0)
(24.3046 0 0)
(24.3162 0 0)
(24.3277 0 0)
(24.3393 0 0)
(24.3509 0 0)
(24.3624 0 0)
(24.374 0 0)
(24.3855 0 0)
(24.3971 0 0)
(24.4087 0 0)
(24.4202 0 0)
(24.4318 0 0)
(24.4434 0 0)
(24.4549 0 0)
(24.4665 0 0)
(24.4781 0 0)
(24.4896 0 0)
(24.5012 0 0)
(24.5128 0 0)
(24.5243 0 0)
(24.5359 0 0)
(24.5475 0 0)
(24.559 0 0)
(24.5706 0 0)
(24.5822 0 0)
(24.5937 0 0)
(24.6053 0 0)
(24.6169 0 0)
(24.6285 0 0)
(24.64 0 0)
(24.6516 0 0)
(24.6632 0 0)
(24.6748 0 0)
(24.6863 0 0)
(24.6979 0 0)
(24.7095 0 0)
(24.721 0 0)
(24.7326 0 0)
(24.7442 0 0)
(24.7558 0 0)
(24.7674 0 0)
(24.7789 0 0)
(24.7905 0 0)
(24.8021 0 0)
(24.8137 0 0)
(24.8252 0 0)
(24.8368 0 0)
(24.8484 0 0)
(24.86 0 0)
(24.8716 0 0)
(24.8831 0 0)
(24.8947 0 0)
(24.9063 0 0)
(24.9179 0 0)
(24.9295 0 0)
(24.9411 0 0)
(24.9526 0 0)
(24.9642 0 0)
(24.9758 0 0)
(24.9874 0 0)
(24.999 0 0)
(25.0106 0 0)
(25.0221 0 0)
(25.0337 0 0)
(25.0453 0 0)
(25.0569 0 0)
(25.0685 0 0)
(25.0801 0 0)
(25.0917 0 0)
(25.1033 0 0)
(25.1148 0 0)
(25.1264 0 0)
(25.138 0 0)
(25.1496 0 0)
(25.1612 0 0)
(25.1728 0 0)
(25.1844 0 0)
(25.196 0 0)
(25.2076 0 0)
(25.2192 0 0)
(25.2308 0 0)
(25.2424 0 0)
(25.2539 0 0)
(25.2655 0 0)
(25.2771 0 0)
(25.2887 0 0)
(25.3003 0 0)
(25.3119 0 0)
(25.3235 0 0)
(25.3351 0 0)
(25.3467 0 0)
(25.3583 0 0)
(25.3699 0 0)
(25.3815 0 0)
(25.3931 0 0)
(25.4047 0 0)
(25.4163 0 0)
(25.4279 0 0)
(25.4395 0 0)
(25.4511 0 0)
(25.4627 0 0)
(25.4743 0 0)
(25.4859 0 0)
(25.4975 0 0)
(25.5091 0 0)
(25.5207 0 0)
(25.5323 0 0)
(25.5439 0 0)
(25.5555 0 0)
(25.5671 0 0)
(25.5787 0 0)
(25.5903 0 0)
(25.6019 0 0)
(25.6135 0 0)
(25.6252 0 0)
(25.6368 0 0)
(25.6484 0 0)
(25.66 0 0)
(25.6716 0 0)
(25.6832 0 0)
(25.6948 0 0)
(25.7064 0 0)
(25.718 0 0)
(25.7296 0 0)
(25.7412 0 0)
(25.7528 0 0)
(25.7645 0 0)
(25.7761 0 0)
(25.7877 0 0)
(25.7993 0 0)
(25.8109 0 0)
(25.8225 0 0)
(25.8341 0 0)
(25.8457 0 0)
(25.8574 0 0)
(25.869 0 0)
(25.8806 0 0)
(25.8922 0 0)
(25.9038 0 0)
(25.9154 0 0)
(25.927 0 0)
(25.9387 0 0)
(25.9503 0 0)
(25.9619 0 0)
(25.9735 0 0)
(25.9851 0 0)
(25.9967 0 0)
(26.0084 0 0)
(26.02 0 0)
(26.0316 0 0)
(26.0432 0 0)
(26.0548 0 0)
(26.0665 0 0)
(26.0781 0 0)
(26.0897 0 0)
(26.1013 0 0)
(26.1129 0 0)
(26.1246 0 0)
(26.1362 0 0)
(26.1478 0 0)
(26.1594 0 0)
(26.1711 0 0)
(26.1827 0 0)
(26.1943 0 0)
(26.2059 0 0)
(26.2176 0 0)
(26.2292 0 0)
(26.2408 0 0)
(26.2524 0 0)
(26.2641 0 0)
(26.2757 0 0)
(26.2873 0 0)
(26.2989 0 0)
(26.3106 0 0)
(26.3222 0 0)
(26.3338 0 0)
(26.3455 0 0)
(26.3571 0 0)
(26.3687 0 0)
(26.3804 0 0)
(26.392 0 0)
(26.4036 0 0)
(26.4152 0 0)
(26.4269 0 0)
(26.4385 0 0)
(26.4501 0 0)
(26.4618 0 0)
(26.4734 0 0)
(26.485 0 0)
(26.4967 0 0)
(26.5083 0 0)
(26.5199 0 0)
(26.5316 0 0)
(26.5432 0 0)
(26.5549 0 0)
(26.5665 0 0)
(26.5781 0 0)
(26.5898 0 0)
(26.6014 0 0)
(26.613 0 0)
(26.6247 0 0)
(26.6363 0 0)
(26.6479 0 0)
(26.6596 0 0)
(26.6712 0 0)
(26.6829 0 0)
(26.6945 0 0)
(26.7061 0 0)
(26.7178 0 0)
(26.7294 0 0)
(26.7411 0 0)
(26.7527 0 0)
(26.7644 0 0)
(26.776 0 0)
(26.7876 0 0)
(26.7993 0 0)
(26.8109 0 0)
(26.8226 0 0)
(26.8342 0 0)
(26.8459 0 0)
(26.8575 0 0)
(26.8691 0 0)
(26.8808 0 0)
(26.8924 0 0)
(26.9041 0 0)
(26.9157 0 0)
(26.9274 0 0)
(26.939 0 0)
(26.9507 0 0)
(26.9623 0 0)
(26.974 0 0)
(26.9856 0 0)
(26.9973 0 0)
(27.0089 0 0)
(27.0206 0 0)
(27.0322 0 0)
(27.0439 0 0)
(27.0555 0 0)
(27.0672 0 0)
(27.0788 0 0)
(27.0905 0 0)
(27.1021 0 0)
(27.1138 0 0)
(27.1254 0 0)
(27.1371 0 0)
(27.1487 0 0)
(27.1604 0 0)
(27.172 0 0)
(27.1837 0 0)
(27.1954 0 0)
(27.207 0 0)
(27.2187 0 0)
(27.2303 0 0)
(27.242 0 0)
(27.2536 0 0)
(27.2653 0 0)
(27.2769 0 0)
(27.2886 0 0)
(27.3003 0 0)
(27.3119 0 0)
(27.3236 0 0)
(27.3352 0 0)
(27.3469 0 0)
(27.3586 0 0)
(27.3702 0 0)
(27.3819 0 0)
(27.3935 0 0)
(27.4052 0 0)
(27.4169 0 0)
(27.4285 0 0)
(27.4402 0 0)
(27.4518 0 0)
(27.4635 0 0)
(27.4752 0 0)
(27.4868 0 0)
(27.4985 0 0)
(27.5102 0 0)
(27.5218 0 0)
(27.5335 0 0)
(27.5451 0 0)
(27.5568 0 0)
(27.5685 0 0)
(27.5801 0 0)
(27.5918 0 0)
(27.6035 0 0)
(27.6151 0 0)
(27.6268 0 0)
(27.6385 0 0)
(27.6501 0 0)
(27.6618 0 0)
(27.6735 0 0)
(27.6851 0 0)
(27.6968 0 0)
(27.7085 0 0)
(27.7202 0 0)
(27.7318 0 0)
(27.7435 0 0)
(27.7552 0 0)
(27.7668 0 0)
(27.7785 0 0)
(27.7902 0 0)
(27.8019 0 0)
(27.8135 0 0)
(27.8252 0 0)
(27.8369 0 0)
(27.8485 0 0)
(27.8602 0 0)
(27.8719 0 0)
(27.8836 0 0)
(27.8952 0 0)
(27.9069 0 0)
(27.9186 0 0)
(27.9303 0 0)
(27.9419 0 0)
(27.9536 0 0)
(27.9653 0 0)
(27.977 0 0)
(27.9887 0 0)
(28.0003 0 0)
(28.012 0 0)
(28.0237 0 0)
(28.0354 0 0)
(28.047 0 0)
(28.0587 0 0)
(28.0704 0 0)
(28.0821 0 0)
(28.0938 0 0)
(28.1054 0 0)
(28.1171 0 0)
(28.1288 0 0)
(28.1405 0 0)
(28.1522 0 0)
(28.1638 0 0)
(28.1755 0 0)
(28.1872 0 0)
(28.1989 0 0)
(28.2106 0 0)
(28.2223 0 0)
(28.2339 0 0)
(28.2456 0 0)
(28.2573 0 0)
(28.269 0 0)
(28.2807 0 0)
(28.2924 0 0)
(28.3041 0 0)
(28.3157 0 0)
(28.3274 0 0)
(28.3391 0 0)
(28.3508 0 0)
(28.3625 0 0)
(28.3742 0 0)
(28.3859 0 0)
(28.3976 0 0)
(28.4092 0 0)
(28.4209 0 0)
(28.4326 0 0)
(28.4443 0 0)
(28.456 0 0)
(28.4677 0 0)
(28.4794 0 0)
(28.4911 0 0)
(28.5028 0 0)
(28.5145 0 0)
(28.5262 0 0)
(28.5378 0 0)
(28.5495 0 0)
(28.5612 0 0)
(28.5729 0 0)
(28.5846 0 0)
(28.5963 0 0)
(28.608 0 0)
(28.6197 0 0)
(28.6314 0 0)
(28.6431 0 0)
(28.6548 0 0)
(28.6665 0 0)
(28.6782 0 0)
(28.6899 0 0)
(28.7016 0 0)
(28.7133 0 0)
(28.725 0 0)
(28.7367 0 0)
(28.7484 0 0)
(28.7601 0 0)
(28.7718 0 0)
(28.7835 0 0)
(28.7952 0 0)
(28.8069 0 0)
(28.8186 0 0)
(28.8303 0 0)
(28.842 0 0)
(28.8537 0 0)
(28.8654 0 0)
(28.8771 0 0)
(28.8888 0 0)
(28.9005 0 0)
(28.9122 0 0)
(28.9239 0 0)
(28.9356 0 0)
(28.9473 0 0)
(28.959 0 0)
(28.9707 0 0)
(28.9824 0 0)
(28.9941 0 0)
(29.0058 0 0)
(29.0175 0 0)
(29.0292 0 0)
(29.0409 0 0)
(29.0526 0 0)
(29.0643 0 0)
(29.076 0 0)
(29.0877 0 0)
(29.0995 0 0)
(29.1112 0 0)
(29.1229 0 0)
(29.1346 0 0)
(29.1463 0 0)
(29.158 0 0)
(29.1697 0 0)
(29.1814 0 0)
(29.1931 0 0)
(29.2048 0 0)
(29.2165 0 0)
(29.2283 0 0)
(29.24 0 0)
(29.2517 0 0)
(29.2634 0 0)
(29.2751 0 0)
(29.2868 0 0)
(29.2985 0 0)
(29.3102 0 0)
(29.322 0 0)
(29.3337 0 0)
(29.3454 0 0)
(29.3571 0 0)
(29.3688 0 0)
(29.3805 0 0)
(29.3922 0 0)
(29.404 0 0)
(29.4157 0 0)
(29.4274 0 0)
(29.4391 0 0)
(29.4508 0 0)
(29.4625 0 0)
(29.4743 0 0)
(29.486 0 0)
(29.4977 0 0)
(29.5094 0 0)
(29.5211 0 0)
(29.5329 0 0)
(29.5446 0 0)
(29.5563 0 0)
(29.568 0 0)
(29.5797 0 0)
(29.5915 0 0)
(29.6032 0 0)
(29.6149 0 0)
(29.6266 0 0)
(29.6383 0 0)
(29.6501 0 0)
(29.6618 0 0)
(29.6735 0 0)
(29.6852 0 0)
(29.697 0 0)
(29.7087 0 0)
(29.7204 0 0)
(29.7321 0 0)
(29.7439 0 0)
(29.7556 0 0)
(29.7673 0 0)
(29.779 0 0)
(29.7908 0 0)
(29.8025 0 0)
(29.8142 0 0)
(29.826 0 0)
(29.8377 0 0)
(29.8494 0 0)
(29.8611 0 0)
(29.8729 0 0)
(29.8846 0 0)
(29.8963 0 0)
(29.9081 0 0)
(29.9198 0 0)
(29.9315 0 0)
(29.9432 0 0)
(29.955 0 0)
(29.9667 0 0)
(29.9784 0 0)
(29.9902 0 0)
(30.0019 0 0)
(30.0136 0 0)
(30.0254 0 0)
(30.0371 0 0)
(30.0488 0 0)
(30.0606 0 0)
(30.0723 0 0)
(30.084 0 0)
(30.0958 0 0)
(30.1075 0 0)
(30.1192 0 0)
(30.131 0 0)
(30.1427 0 0)
(30.1544 0 0)
(30.1662 0 0)
(30.1779 0 0)
(30.1897 0 0)
(30.2014 0 0)
(30.2131 0 0)
(30.2249 0 0)
(30.2366 0 0)
(30.2484 0 0)
(30.2601 0 0)
(30.2718 0 0)
(30.2836 0 0)
(30.2953 0 0)
(30.3071 0 0)
(30.3188 0 0)
(30.3305 0 0)
(30.3423 0 0)
(30.354 0 0)
(30.3658 0 0)
(30.3775 0 0)
(30.3892 0 0)
(30.401 0 0)
(30.4127 0 0)
(30.4245 0 0)
(30.4362 0 0)
(30.448 0 0)
(30.4597 0 0)
(30.4715 0 0)
(30.4832 0 0)
(30.4949 0 0)
(30.5067 0 0)
(30.5184 0 0)
(30.5302 0 0)
(30.5419 0 0)
(30.5537 0 0)
(30.5654 0 0)
(30.5772 0 0)
(30.5889 0 0)
(30.6007 0 0)
(30.6124 0 0)
(30.6242 0 0)
(30.6359 0 0)
(30.6477 0 0)
(30.6594 0 0)
(30.6712 0 0)
(30.6829 0 0)
(30.6947 0 0)
(30.7064 0 0)
(30.7182 0 0)
(30.7299 0 0)
(30.7417 0 0)
(30.7534 0 0)
(30.7652 0 0)
(30.7769 0 0)
(30.7887 0 0)
(30.8004 0 0)
(30.8122 0 0)
(30.8239 0 0)
(30.8357 0 0)
(30.8475 0 0)
(30.8592 0 0)
(30.871 0 0)
(30.8827 0 0)
(30.8945 0 0)
(30.9062 0 0)
(30.918 0 0)
(30.9298 0 0)
(30.9415 0 0)
(30.9533 0 0)
(30.965 0 0)
(30.9768 0 0)
(30.9885 0 0)
(31.0003 0 0)
(31.0121 0 0)
(31.0238 0 0)
(31.0356 0 0)
(31.0473 0 0)
(31.0591 0 0)
(31.0709 0 0)
(31.0826 0 0)
(31.0944 0 0)
(31.1061 0 0)
(31.1179 0 0)
(31.1297 0 0)
(31.1414 0 0)
(31.1532 0 0)
(31.165 0 0)
(31.1767 0 0)
(31.1885 0 0)
(31.2003 0 0)
(31.212 0 0)
(31.2238 0 0)
(31.2355 0 0)
(31.2473 0 0)
(31.2591 0 0)
(31.2708 0 0)
(31.2826 0 0)
(31.2944 0 0)
(31.3061 0 0)
(31.3179 0 0)
(31.3297 0 0)
(31.3415 0 0)
(31.3532 0 0)
(31.365 0 0)
(31.3768 0 0)
(31.3885 0 0)
(31.4003 0 0)
(31.4121 0 0)
(31.4238 0 0)
(31.4356 0 0)
(31.4474 0 0)
(31.4591 0 0)
(31.4709 0 0)
(31.4827 0 0)
(31.4945 0 0)
(31.5062 0 0)
(31.518 0 0)
(31.5298 0 0)
(31.5416 0 0)
(31.5533 0 0)
(31.5651 0 0)
(31.5769 0 0)
(31.5887 0 0)
(31.6004 0 0)
(31.6122 0 0)
(31.624 0 0)
(31.6358 0 0)
(31.6475 0 0)
(31.6593 0 0)
(31.6711 0 0)
(31.6829 0 0)
(31.6946 0 0)
(31.7064 0 0)
(31.7182 0 0)
(31.73 0 0)
(31.7417 0 0)
(31.7535 0 0)
(31.7653 0 0)
(31.7771 0 0)
(31.7889 0 0)
(31.8006 0 0)
(31.8124 0 0)
(31.8242 0 0)
(31.836 0 0)
(31.8478 0 0)
(31.8595 0 0)
(31.8713 0 0)
(31.8831 0 0)
(31.8949 0 0)
(31.9067 0 0)
(31.9185 0 0)
(31.9302 0 0)
(31.942 0 0)
(31.9538 0 0)
(31.9656 0 0)
(31.9774 0 0)
(31.9892 0 0)
(32.0009 0 0)
(32.0127 0 0)
(32.0245 0 0)
(32.0363 0 0)
(32.0481 0 0)
(32.0599 0 0)
(32.0717 0 0)
(32.0835 0 0)
(32.0952 0 0)
(32.107 0 0)
(32.1188 0 0)
(32.1306 0 0)
(32.1424 0 0)
(32.1542 0 0)
(32.166 0 0)
(32.1778 0 0)
(32.1895 0 0)
(32.2013 0 0)
(32.2131 0 0)
(32.2249 0 0)
(32.2367 0 0)
(32.2485 0 0)
(32.2603 0 0)
(32.2721 0 0)
(32.2839 0 0)
(32.2957 0 0)
(32.3075 0 0)
(32.3193 0 0)
(32.331 0 0)
(32.3428 0 0)
(32.3546 0 0)
(32.3664 0 0)
(32.3782 0 0)
(32.39 0 0)
(32.4018 0 0)
(32.4136 0 0)
(32.4254 0 0)
(32.4372 0 0)
(32.449 0 0)
(32.4608 0 0)
(32.4726 0 0)
(32.4844 0 0)
(32.4962 0 0)
(32.508 0 0)
(32.5198 0 0)
(32.5316 0 0)
(32.5434 0 0)
(32.5552 0 0)
(32.567 0 0)
(32.5788 0 0)
(32.5906 0 0)
(32.6024 0 0)
(32.6142 0 0)
(32.626 0 0)
(32.6378 0 0)
(32.6496 0 0)
(32.6614 0 0)
(32.6732 0 0)
(32.685 0 0)
(32.6968 0 0)
(32.7086 0 0)
(32.7204 0 0)
(32.7322 0 0)
(32.744 0 0)
(32.7558 0 0)
(32.7676 0 0)
(32.7794 0 0)
(32.7912 0 0)
(32.803 0 0)
(32.8148 0 0)
(32.8266 0 0)
(32.8384 0 0)
(32.8502 0 0)
(32.862 0 0)
(32.8738 0 0)
(32.8856 0 0)
(32.8974 0 0)
(32.9093 0 0)
(32.9211 0 0)
(32.9329 0 0)
(32.9447 0 0)
(32.9565 0 0)
(32.9683 0 0)
(32.9801 0 0)
(32.9919 0 0)
(33.0037 0 0)
(33.0155 0 0)
(33.0273 0 0)
(33.0391 0 0)
(33.051 0 0)
(33.0628 0 0)
(33.0746 0 0)
(33.0864 0 0)
(33.0982 0 0)
(33.11 0 0)
(33.1218 0 0)
(33.1336 0 0)
(33.1455 0 0)
(33.1573 0 0)
(33.1691 0 0)
(33.1809 0 0)
(33.1927 0 0)
(33.2045 0 0)
(33.2163 0 0)
(33.2281 0 0)
(33.24 0 0)
(33.2518 0 0)
(33.2636 0 0)
(33.2754 0 0)
(33.2872 0 0)
(33.299 0 0)
(33.3109 0 0)
(33.3227 0 0)
(33.3345 0 0)
(33.3463 0 0)
(33.3581 0 0)
(33.3699 0 0)
(33.3818 0 0)
(33.3936 0 0)
(33.4054 0 0)
(33.4172 0 0)
(33.429 0 0)
(33.4408 0 0)
(33.4527 0 0)
(33.4645 0 0)
(33.4763 0 0)
(33.4881 0 0)
(33.4999 0 0)
(33.5118 0 0)
(33.5236 0 0)
(33.5354 0 0)
(33.5472 0 0)
(33.5591 0 0)
(33.5709 0 0)
(33.5827 0 0)
(33.5945 0 0)
(33.6063 0 0)
(33.6182 0 0)
(33.63 0 0)
(33.6418 0 0)
(33.6536 0 0)
(33.6655 0 0)
(33.6773 0 0)
(33.6891 0 0)
(33.7009 0 0)
(33.7128 0 0)
(33.7246 0 0)
(33.7364 0 0)
(33.7482 0 0)
(33.7601 0 0)
(33.7719 0 0)
(33.7837 0 0)
(33.7955 0 0)
(33.8074 0 0)
(33.8192 0 0)
(33.831 0 0)
(33.8429 0 0)
(33.8547 0 0)
(33.8665 0 0)
(33.8783 0 0)
(33.8902 0 0)
(33.902 0 0)
(33.9138 0 0)
(33.9257 0 0)
(33.9375 0 0)
(33.9493 0 0)
(33.9612 0 0)
(33.973 0 0)
(33.9848 0 0)
(33.9966 0 0)
(34.0085 0 0)
(34.0203 0 0)
(34.0321 0 0)
(34.044 0 0)
(34.0558 0 0)
(34.0676 0 0)
(34.0795 0 0)
(34.0913 0 0)
(34.1031 0 0)
(34.115 0 0)
(34.1268 0 0)
(34.1386 0 0)
(34.1505 0 0)
(34.1623 0 0)
(34.1741 0 0)
(34.186 0 0)
(34.1978 0 0)
(34.2097 0 0)
(34.2215 0 0)
(34.2333 0 0)
(34.2452 0 0)
(34.257 0 0)
(34.2688 0 0)
(34.2807 0 0)
(34.2925 0 0)
(34.3044 0 0)
(34.3162 0 0)
(34.328 0 0)
(34.3399 0 0)
(34.3517 0 0)
(34.3635 0 0)
(34.3754 0 0)
(34.3872 0 0)
(34.3991 0 0)
(34.4109 0 0)
(34.4228 0 0)
(34.4346 0 0)
(34.4464 0 0)
(34.4583 0 0)
(34.4701 0 0)
(34.482 0 0)
(34.4938 0 0)
(34.5056 0 0)
(34.5175 0 0)
(34.5293 0 0)
(34.5412 0 0)
(34.553 0 0)
(34.5649 0 0)
(34.5767 0 0)
(34.5886 0 0)
(34.6004 0 0)
(34.6122 0 0)
(34.6241 0 0)
(34.6359 0 0)
(34.6478 0 0)
(34.6596 0 0)
(34.6715 0 0)
(34.6833 0 0)
(34.6952 0 0)
(34.707 0 0)
(34.7189 0 0)
(34.7307 0 0)
(34.7426 0 0)
(34.7544 0 0)
(34.7662 0 0)
(34.7781 0 0)
(34.7899 0 0)
(34.8018 0 0)
(34.8136 0 0)
(34.8255 0 0)
(34.8373 0 0)
(34.8492 0 0)
(34.861 0 0)
(34.8729 0 0)
(34.8847 0 0)
(34.8966 0 0)
(34.9084 0 0)
(34.9203 0 0)
(34.9322 0 0)
(34.944 0 0)
(34.9559 0 0)
(34.9677 0 0)
(34.9796 0 0)
(34.9914 0 0)
(35.0033 0 0)
(35.0151 0 0)
(35.027 0 0)
(35.0388 0 0)
(35.0507 0 0)
(35.0625 0 0)
(35.0744 0 0)
(35.0863 0 0)
(35.0981 0 0)
(35.11 0 0)
(35.1218 0 0)
(35.1337 0 0)
(35.1455 0 0)
(35.1574 0 0)
(35.1692 0 0)
(35.1811 0 0)
(35.193 0 0)
(35.2048 0 0)
(35.2167 0 0)
(35.2285 0 0)
(35.2404 0 0)
(35.2523 0 0)
(35.2641 0 0)
(35.276 0 0)
(35.2878 0 0)
(35.2997 0 0)
(35.3116 0 0)
(35.3234 0 0)
(35.3353 0 0)
(35.3471 0 0)
(35.359 0 0)
(35.3709 0 0)
(35.3827 0 0)
(35.3946 0 0)
(35.4064 0 0)
(35.4183 0 0)
(35.4302 0 0)
(35.442 0 0)
(35.4539 0 0)
(35.4658 0 0)
(35.4776 0 0)
(35.4895 0 0)
(35.5014 0 0)
(35.5132 0 0)
(35.5251 0 0)
(35.537 0 0)
(35.5488 0 0)
(35.5607 0 0)
(35.5725 0 0)
(35.5844 0 0)
(35.5963 0 0)
(35.6081 0 0)
(35.62 0 0)
(35.6319 0 0)
(35.6438 0 0)
(35.6556 0 0)
(35.6675 0 0)
(35.6794 0 0)
(35.6912 0 0)
(35.7031 0 0)
(35.715 0 0)
(35.7268 0 0)
(35.7387 0 0)
(35.7506 0 0)
(35.7624 0 0)
(35.7743 0 0)
(35.7862 0 0)
(35.7981 0 0)
(35.8099 0 0)
(35.8218 0 0)
(35.8337 0 0)
(35.8455 0 0)
(35.8574 0 0)
(35.8693 0 0)
(35.8812 0 0)
(35.893 0 0)
(35.9049 0 0)
(35.9168 0 0)
(35.9287 0 0)
(35.9405 0 0)
(35.9524 0 0)
(35.9643 0 0)
(35.9762 0 0)
(35.988 0 0)
(35.9999 0 0)
(36.0118 0 0)
(36.0237 0 0)
(36.0355 0 0)
(36.0474 0 0)
(36.0593 0 0)
(36.0712 0 0)
(36.083 0 0)
(36.0949 0 0)
(36.1068 0 0)
(36.1187 0 0)
(36.1306 0 0)
(36.1424 0 0)
(36.1543 0 0)
(36.1662 0 0)
(36.1781 0 0)
(36.19 0 0)
(36.2018 0 0)
(36.2137 0 0)
(36.2256 0 0)
(36.2375 0 0)
(36.2494 0 0)
(36.2612 0 0)
(36.2731 0 0)
(36.285 0 0)
(36.2969 0 0)
(36.3088 0 0)
(36.3206 0 0)
(36.3325 0 0)
(36.3444 0 0)
(36.3563 0 0)
(36.3682 0 0)
(36.3801 0 0)
(36.392 0 0)
(36.4038 0 0)
(36.4157 0 0)
(36.4276 0 0)
(36.4395 0 0)
(36.4514 0 0)
(36.4633 0 0)
(36.4751 0 0)
(36.487 0 0)
(36.4989 0 0)
(36.5108 0 0)
(36.5227 0 0)
(36.5346 0 0)
(36.5465 0 0)
(36.5584 0 0)
(36.5702 0 0)
(36.5821 0 0)
(36.594 0 0)
(36.6059 0 0)
(36.6178 0 0)
(36.6297 0 0)
(36.6416 0 0)
(36.6535 0 0)
(36.6654 0 0)
(36.6773 0 0)
(36.6891 0 0)
(36.701 0 0)
(36.7129 0 0)
(36.7248 0 0)
(36.7367 0 0)
(36.7486 0 0)
(36.7605 0 0)
(36.7724 0 0)
(36.7843 0 0)
(36.7962 0 0)
(36.8081 0 0)
(36.82 0 0)
(36.8319 0 0)
(36.8438 0 0)
(36.8557 0 0)
(36.8675 0 0)
(36.8794 0 0)
(36.8913 0 0)
(36.9032 0 0)
(36.9151 0 0)
(36.927 0 0)
(36.9389 0 0)
(36.9508 0 0)
(36.9627 0 0)
(36.9746 0 0)
(36.9865 0 0)
(36.9984 0 0)
(37.0103 0 0)
(37.0222 0 0)
(37.0341 0 0)
(37.046 0 0)
(37.0579 0 0)
(37.0698 0 0)
(37.0817 0 0)
(37.0936 0 0)
(37.1055 0 0)
(37.1174 0 0)
(37.1293 0 0)
(37.1412 0 0)
(37.1531 0 0)
(37.165 0 0)
(37.1769 0 0)
(37.1888 0 0)
(37.2007 0 0)
(37.2126 0 0)
(37.2245 0 0)
(37.2364 0 0)
(37.2483 0 0)
(37.2602 0 0)
(37.2721 0 0)
(37.284 0 0)
(37.2959 0 0)
(37.3079 0 0)
(37.3198 0 0)
(37.3317 0 0)
(37.3436 0 0)
(37.3555 0 0)
(37.3674 0 0)
(37.3793 0 0)
(37.3912 0 0)
(37.4031 0 0)
(37.415 0 0)
(37.4269 0 0)
(37.4388 0 0)
(37.4507 0 0)
(37.4626 0 0)
(37.4746 0 0)
(37.4865 0 0)
(37.4984 0 0)
(37.5103 0 0)
(37.5222 0 0)
(37.5341 0 0)
(37.546 0 0)
(37.5579 0 0)
(37.5698 0 0)
(37.5817 0 0)
(37.5937 0 0)
(37.6056 0 0)
(37.6175 0 0)
(37.6294 0 0)
(37.6413 0 0)
(37.6532 0 0)
(37.6651 0 0)
(37.677 0 0)
(37.689 0 0)
(37.7009 0 0)
(37.7128 0 0)
(37.7247 0 0)
(37.7366 0 0)
(37.7485 0 0)
(37.7604 0 0)
(37.7724 0 0)
(37.7843 0 0)
(37.7962 0 0)
(37.8081 0 0)
(37.82 0 0)
(37.8319 0 0)
(37.8439 0 0)
(37.8558 0 0)
(37.8677 0 0)
(37.8796 0 0)
(37.8915 0 0)
(37.9034 0 0)
(37.9154 0 0)
(37.9273 0 0)
(37.9392 0 0)
(37.9511 0 0)
(37.963 0 0)
(37.975 0 0)
(37.9869 0 0)
(37.9988 0 0)
(38.0107 0 0)
(38.0226 0 0)
(38.0346 0 0)
(38.0465 0 0)
(38.0584 0 0)
(38.0703 0 0)
(38.0823 0 0)
(38.0942 0 0)
(38.1061 0 0)
(38.118 0 0)
(38.1299 0 0)
(38.1419 0 0)
(38.1538 0 0)
(38.1657 0 0)
(38.1776 0 0)
(38.1896 0 0)
(38.2015 0 0)
(38.2134 0 0)
(38.2253 0 0)
(38.2373 0 0)
(38.2492 0 0)
(38.2611 0 0)
(38.273 0 0)
(38.285 0 0)
(38.2969 0 0)
(38.3088 0 0)
(38.3208 0 0)
(38.3327 0 0)
(38.3446 0 0)
(38.3565 0 0)
(38.3685 0 0)
(38.3804 0 0)
(38.3923 0 0)
(38.4043 0 0)
(38.4162 0 0)
(38.4281 0 0)
(38.44 0 0)
(38.452 0 0)