/*--------------------------------*- C++ -*----------------------------------*\
  =========                 |
  \\      /  F ield         | OpenFOAM: The Open Source CFD Toolbox
   \\    /   O peration     | Website:  https://openfoam.org
    \\  /    A nd           | Version:  9
     \\/     M anipulation  |
\*---------------------------------------------------------------------------*/
FoamFile
{
    format      ascii;
    class       volScalarField;
    location    "0.012";
    object      mag(U);
}
// * * * * * * * * * * * * * * * * * * * * * * * * * * * * * * * * * * * * * //

dimensions      [0 1 -1 0 0 0 0];

internalField   nonuniform List<scalar> 
100
(
2.16049
5.34261
7.94931
11.2952
15.1559
19.5082
24.2766
29.3833
34.7556
40.3337
46.071
51.9323
57.8911
63.9275
70.0261
76.1747
82.3638
88.5855
94.8331
101.101
107.384
113.678
119.979
126.283
132.587
138.885
145.179
151.453
157.728
163.959
170.193
176.382
182.531
188.675
194.742
200.762
206.749
212.649
218.467
224.217
229.864
235.386
240.789
246.055
251.146
256.048
260.754
265.233
269.439
273.342
276.94
280.2
283.113
285.61
287.656
289.381
290.762
291.785
292.533
293.036
293.294
293.417
293.519
293.575
293.602
293.624
293.63
293.625
293.619
293.616
293.618
293.623
293.624
293.621
293.621
293.623
293.628
293.638
293.651
293.672
293.741
293.908
294.037
293.87
293.542
293.287
293.069
292.942
292.831
292.625
292.427
292.216
291.83
291.358
290.928
290.365
289.65
288.983
288.378
288.011
)
;

boundaryField
{
    sides
    {
        type            calculated;
        value           nonuniform List<scalar> 2(288.011 2.16049);
    }
    empty
    {
        type            empty;
    }
}


// ************************************************************************* //
