/*--------------------------------*- C++ -*----------------------------------*\
  =========                 |
  \\      /  F ield         | OpenFOAM: The Open Source CFD Toolbox
   \\    /   O peration     | Website:  https://openfoam.org
    \\  /    A nd           | Version:  9
     \\/     M anipulation  |
\*---------------------------------------------------------------------------*/
FoamFile
{
    format      ascii;
    class       volVectorField;
    location    "0.012";
    object      U;
}
// * * * * * * * * * * * * * * * * * * * * * * * * * * * * * * * * * * * * * //

dimensions      [0 1 -1 0 0 0 0];

internalField   nonuniform List<vector> 
100
(
(2.16049 0 0)
(5.34261 0 0)
(7.94931 0 0)
(11.2952 0 0)
(15.1559 0 0)
(19.5082 0 0)
(24.2766 0 0)
(29.3833 0 0)
(34.7556 0 0)
(40.3337 0 0)
(46.071 0 0)
(51.9323 0 0)
(57.8911 0 0)
(63.9275 0 0)
(70.0261 0 0)
(76.1747 0 0)
(82.3638 0 0)
(88.5855 0 0)
(94.8331 0 0)
(101.101 0 0)
(107.384 0 0)
(113.678 0 0)
(119.979 0 0)
(126.283 0 0)
(132.587 0 0)
(138.885 0 0)
(145.179 0 0)
(151.453 0 0)
(157.728 0 0)
(163.959 0 0)
(170.193 0 0)
(176.382 0 0)
(182.531 0 0)
(188.675 0 0)
(194.742 0 0)
(200.762 0 0)
(206.749 0 0)
(212.649 0 0)
(218.467 0 0)
(224.217 0 0)
(229.864 0 0)
(235.386 0 0)
(240.789 0 0)
(246.055 0 0)
(251.146 0 0)
(256.048 0 0)
(260.754 0 0)
(265.233 0 0)
(269.439 0 0)
(273.342 0 0)
(276.94 0 0)
(280.2 0 0)
(283.113 0 0)
(285.61 0 0)
(287.656 0 0)
(289.381 0 0)
(290.762 0 0)
(291.785 0 0)
(292.533 0 0)
(293.036 0 0)
(293.294 0 0)
(293.417 0 0)
(293.519 0 0)
(293.575 0 0)
(293.602 0 0)
(293.624 0 0)
(293.63 0 0)
(293.625 0 0)
(293.619 0 0)
(293.616 0 0)
(293.618 0 0)
(293.623 0 0)
(293.624 0 0)
(293.621 0 0)
(293.621 0 0)
(293.623 0 0)
(293.628 0 0)
(293.638 0 0)
(293.651 0 0)
(293.672 0 0)
(293.741 0 0)
(293.908 0 0)
(294.037 0 0)
(293.87 0 0)
(293.542 0 0)
(293.287 0 0)
(293.069 0 0)
(292.942 0 0)
(292.831 0 0)
(292.625 0 0)
(292.427 0 0)
(292.216 0 0)
(291.83 0 0)
(291.358 0 0)
(290.928 0 0)
(290.365 0 0)
(289.65 0 0)
(288.983 0 0)
(288.378 0 0)
(288.011 0 0)
)
;

boundaryField
{
    sides
    {
        type            zeroGradient;
    }
    empty
    {
        type            empty;
    }
}


// ************************************************************************* //
