/*--------------------------------*- C++ -*----------------------------------*\
  =========                 |
  \\      /  F ield         | OpenFOAM: The Open Source CFD Toolbox
   \\    /   O peration     | Website:  https://openfoam.org
    \\  /    A nd           | Version:  9
     \\/     M anipulation  |
\*---------------------------------------------------------------------------*/
FoamFile
{
    format      ascii;
    class       volVectorField;
    location    "0.043";
    object      U;
}
// * * * * * * * * * * * * * * * * * * * * * * * * * * * * * * * * * * * * * //

dimensions      [0 1 -1 0 0 0 0];

internalField   nonuniform List<vector> 
100
(
(49.818 0 0)
(51.751 0 0)
(54.8837 0 0)
(57.6687 0 0)
(59.9401 0 0)
(62.134 0 0)
(64.3788 0 0)
(66.6384 0 0)
(68.8818 0 0)
(71.1135 0 0)
(73.3387 0 0)
(75.5515 0 0)
(77.7507 0 0)
(79.9395 0 0)
(82.1182 0 0)
(84.283 0 0)
(86.4314 0 0)
(88.5653 0 0)
(90.6872 0 0)
(92.7917 0 0)
(94.873 0 0)
(96.9353 0 0)
(98.9835 0 0)
(101.017 0 0)
(103.032 0 0)
(105.021 0 0)
(106.985 0 0)
(108.946 0 0)
(110.916 0 0)
(112.889 0 0)
(114.848 0 0)
(116.77 0 0)
(118.608 0 0)
(120.308 0 0)
(121.887 0 0)
(123.41 0 0)
(124.904 0 0)
(126.376 0 0)
(127.83 0 0)
(129.257 0 0)
(130.651 0 0)
(132.014 0 0)
(133.345 0 0)
(134.641 0 0)
(135.902 0 0)
(137.133 0 0)
(138.333 0 0)
(139.504 0 0)
(140.655 0 0)
(141.79 0 0)
(142.907 0 0)
(144.007 0 0)
(145.094 0 0)
(146.173 0 0)
(147.242 0 0)
(148.303 0 0)
(149.361 0 0)
(150.415 0 0)
(151.463 0 0)
(152.503 0 0)
(153.535 0 0)
(154.562 0 0)
(155.586 0 0)
(156.609 0 0)
(157.631 0 0)
(158.651 0 0)
(159.664 0 0)
(160.675 0 0)
(161.689 0 0)
(162.713 0 0)
(163.744 0 0)
(164.78 0 0)
(165.823 0 0)
(166.869 0 0)
(167.925 0 0)
(168.992 0 0)
(170.08 0 0)
(171.178 0 0)
(172.282 0 0)
(173.385 0 0)
(174.493 0 0)
(175.598 0 0)
(176.694 0 0)
(177.78 0 0)
(178.85 0 0)
(179.884 0 0)
(180.869 0 0)
(181.796 0 0)
(182.672 0 0)
(183.491 0 0)
(184.253 0 0)
(184.983 0 0)
(185.704 0 0)
(186.431 0 0)
(187.19 0 0)
(187.997 0 0)
(188.876 0 0)
(189.82 0 0)
(190.815 0 0)
(192.929 0 0)
)
;

boundaryField
{
    sides
    {
        type            zeroGradient;
    }
    empty
    {
        type            empty;
    }
}


// ************************************************************************* //
