/*--------------------------------*- C++ -*----------------------------------*\
  =========                 |
  \\      /  F ield         | OpenFOAM: The Open Source CFD Toolbox
   \\    /   O peration     | Website:  https://openfoam.org
    \\  /    A nd           | Version:  9
     \\/     M anipulation  |
\*---------------------------------------------------------------------------*/
FoamFile
{
    format      ascii;
    class       surfaceScalarField;
    location    "0.036";
    object      phi;
}
// * * * * * * * * * * * * * * * * * * * * * * * * * * * * * * * * * * * * * //

dimensions      [1 0 -1 0 0 0 0];

internalField   nonuniform List<scalar> 
9999
(
5.10081
5.13466
5.16851
5.20236
5.2362
5.27005
5.30389
5.33773
5.37158
5.40542
5.43926
5.47309
5.50693
5.54077
5.5746
5.60843
5.64227
5.6761
5.70993
5.74376
5.77758
5.81141
5.84524
5.87906
5.91288
5.9467
5.98052
6.01434
6.04816
6.08198
6.1158
6.14961
6.18342
6.21724
6.25105
6.28486
6.31867
6.35248
6.38629
6.42009
6.45389
6.4877
6.5215
6.5553
6.58911
6.62291
6.65671
6.6905
6.7243
6.75809
6.79188
6.82567
6.85947
6.89327
6.92706
6.96085
6.99464
7.02842
7.0622
7.09598
7.12976
7.16354
7.19733
7.23111
7.2649
7.29869
7.33247
7.36625
7.40003
7.4338
7.46756
7.50133
7.53509
7.56885
7.60262
7.63639
7.67017
7.70395
7.73773
7.77151
7.80529
7.83907
7.87284
7.9066
7.94036
7.97411
8.00785
8.04159
8.07533
8.10906
8.1428
8.17654
8.21028
8.24403
8.27779
8.31155
8.34533
8.37911
8.41291
8.44671
8.48052
8.51434
8.54817
8.582
8.61584
8.64969
8.68353
8.71738
8.75123
8.78508
8.81893
8.85277
8.88663
8.92048
8.95434
8.98821
9.02207
9.05593
9.0898
9.12366
9.15752
9.19139
9.22525
9.25911
9.29297
9.32684
9.3607
9.39456
9.42842
9.46228
9.49614
9.53
9.56386
9.59772
9.63158
9.66544
9.6993
9.73316
9.76702
9.80088
9.83474
9.8686
9.90246
9.93632
9.97018
10.004
10.0379
10.0718
10.1056
10.1395
10.1733
10.2072
10.241
10.2749
10.3088
10.3426
10.3765
10.4103
10.4442
10.478
10.5119
10.5458
10.5796
10.6135
10.6473
10.6812
10.715
10.7489
10.7827
10.8166
10.8504
10.8843
10.9182
10.952
10.9859
11.0197
11.0536
11.0874
11.1213
11.1551
11.189
11.2228
11.2567
11.2905
11.3244
11.3582
11.3921
11.4259
11.4598
11.4937
11.5275
11.5614
11.5952
11.6291
11.6629
11.6968
11.7306
11.7645
11.7983
11.8322
11.866
11.8999
11.9337
11.9676
12.0014
12.0352
12.0691
12.1029
12.1368
12.1706
12.2045
12.2383
12.2722
12.306
12.3399
12.3737
12.4076
12.4414
12.4753
12.5091
12.543
12.5768
12.6107
12.6445
12.6783
12.7122
12.746
12.7799
12.8137
12.8476
12.8814
12.9153
12.9491
12.9829
13.0168
13.0506
13.0845
13.1183
13.1522
13.186
13.2198
13.2537
13.2875
13.3214
13.3552
13.3891
13.4229
13.4567
13.4906
13.5244
13.5583
13.5921
13.6259
13.6598
13.6936
13.7275
13.7613
13.7951
13.829
13.8628
13.8967
13.9305
13.9643
13.9982
14.032
14.0659
14.0997
14.1335
14.1674
14.2012
14.235
14.2689
14.3027
14.3365
14.3704
14.4042
14.4381
14.4719
14.5057
14.5396
14.5734
14.6072
14.6411
14.6749
14.7087
14.7426
14.7764
14.8102
14.8441
14.8779
14.9117
14.9456
14.9794
15.0132
15.0471
15.0809
15.1147
15.1486
15.1824
15.2162
15.2501
15.2839
15.3177
15.3516
15.3854
15.4192
15.4531
15.4869
15.5207
15.5546
15.5884
15.6222
15.656
15.6899
15.7237
15.7575
15.7914
15.8252
15.859
15.8928
15.9267
15.9605
15.9943
16.0282
16.062
16.0958
16.1296
16.1635
16.1973
16.2311
16.2649
16.2988
16.3326
16.3664
16.4002
16.4341
16.4679
16.5017
16.5355
16.5694
16.6032
16.637
16.6708
16.7047
16.7385
16.7723
16.8061
16.84
16.8738
16.9076
16.9414
16.9752
17.0091
17.0429
17.0767
17.1105
17.1444
17.1782
17.212
17.2458
17.2796
17.3135
17.3473
17.3811
17.4149
17.4487
17.4826
17.5164
17.5502
17.584
17.6178
17.6517
17.6855
17.7193
17.7531
17.7869
17.8207
17.8546
17.8884
17.9222
17.956
17.9898
18.0236
18.0575
18.0913
18.1251
18.1589
18.1927
18.2265
18.2604
18.2942
18.328
18.3618
18.3956
18.4294
18.4632
18.4971
18.5309
18.5647
18.5985
18.6323
18.6661
18.6999
18.7337
18.7676
18.8014
18.8352
18.869
18.9028
18.9366
18.9704
19.0042
19.038
19.0719
19.1057
19.1395
19.1733
19.2071
19.2409
19.2747
19.3085
19.3423
19.3761
19.4099
19.4438
19.4776
19.5114
19.5452
19.579
19.6128
19.6466
19.6804
19.7142
19.748
19.7818
19.8156
19.8494
19.8832
19.917
19.9508
19.9846
20.0185
20.0523
20.0861
20.1199
20.1537
20.1875
20.2213
20.2551
20.2889
20.3227
20.3565
20.3903
20.4241
20.4579
20.4917
20.5255
20.5593
20.5931
20.6269
20.6607
20.6945
20.7283
20.7621
20.7959
20.8297
20.8635
20.8973
20.9311
20.9649
20.9987
21.0325
21.0663
21.1001
21.1339
21.1677
21.2015
21.2353
21.2691
21.3029
21.3367
21.3705
21.4043
21.4381
21.4719
21.5056
21.5394
21.5732
21.607
21.6408
21.6746
21.7084
21.7422
21.776
21.8098
21.8436
21.8774
21.9112
21.945
21.9788
22.0126
22.0463
22.0801
22.1139
22.1477
22.1815
22.2153
22.2491
22.2829
22.3167
22.3505
22.3843
22.418
22.4518
22.4856
22.5194
22.5532
22.587
22.6208
22.6546
22.6884
22.7221
22.7559
22.7897
22.8235
22.8573
22.8911
22.9249
22.9586
22.9924
23.0262
23.06
23.0938
23.1276
23.1614
23.1951
23.2289
23.2627
23.2965
23.3303
23.3641
23.3978
23.4316
23.4654
23.4992
23.533
23.5668
23.6005
23.6343
23.6681
23.7019
23.7357
23.7694
23.8032
23.837
23.8708
23.9046
23.9384
23.9721
24.0059
24.0397
24.0735
24.1072
24.141
24.1748
24.2086
24.2424
24.2761
24.3099
24.3437
24.3775
24.4112
24.445
24.4788
24.5126
24.5463
24.5801
24.6139
24.6477
24.6815
24.7152
24.749
24.7828
24.8165
24.8503
24.8841
24.9179
24.9516
24.9854
25.0192
25.053
25.0867
25.1205
25.1543
25.188
25.2218
25.2556
25.2894
25.3231
25.3569
25.3907
25.4244
25.4582
25.492
25.5257
25.5595
25.5933
25.6271
25.6608
25.6946
25.7284
25.7621
25.7959
25.8297
25.8634
25.8972
25.931
25.9647
25.9985
26.0323
26.066
26.0998
26.1336
26.1673
26.2011
26.2348
26.2686
26.3024
26.3361
26.3699
26.4037
26.4374
26.4712
26.505
26.5387
26.5725
26.6062
26.64
26.6738
26.7075
26.7413
26.775
26.8088
26.8426
26.8763
26.9101
26.9438
26.9776
27.0114
27.0451
27.0789
27.1126
27.1464
27.1802
27.2139
27.2477
27.2814
27.3152
27.3489
27.3827
27.4165
27.4502
27.484
27.5177
27.5515
27.5852
27.619
27.6527
27.6865
27.7203
27.754
27.7878
27.8215
27.8553
27.889
27.9228
27.9565
27.9903
28.024
28.0578
28.0915
28.1253
28.159
28.1928
28.2265
28.2603
28.294
28.3278
28.3615
28.3953
28.429
28.4628
28.4965
28.5303
28.564
28.5978
28.6315
28.6653
28.699
28.7328
28.7665
28.8003
28.834
28.8677
28.9015
28.9352
28.969
29.0027
29.0365
29.0702
29.104
29.1377
29.1714
29.2052
29.2389
29.2727
29.3064
29.3402
29.3739
29.4076
29.4414
29.4751
29.5089
29.5426
29.5763
29.6101
29.6438
29.6776
29.7113
29.745
29.7788
29.8125
29.8463
29.88
29.9137
29.9475
29.9812
30.015
30.0487
30.0824
30.1162
30.1499
30.1836
30.2174
30.2511
30.2848
30.3186
30.3523
30.3861
30.4198
30.4535
30.4873
30.521
30.5547
30.5885
30.6222
30.6559
30.6897
30.7234
30.7571
30.7908
30.8246
30.8583
30.892
30.9258
30.9595
30.9932
31.027
31.0607
31.0944
31.1282
31.1619
31.1956
31.2293
31.2631
31.2968
31.3305
31.3642
31.398
31.4317
31.4654
31.4992
31.5329
31.5666
31.6003
31.6341
31.6678
31.7015
31.7352
31.769
31.8027
31.8364
31.8701
31.9038
31.9376
31.9713
32.005
32.0387
32.0725
32.1062
32.1399
32.1736
32.2073
32.2411
32.2748
32.3085
32.3422
32.3759
32.4097
32.4434
32.4771
32.5108
32.5445
32.5783
32.612
32.6457
32.6794
32.7131
32.7468
32.7806
32.8143
32.848
32.8817
32.9154
32.9491
32.9829
33.0166
33.0503
33.084
33.1177
33.1514
33.1851
33.2189
33.2526
33.2863
33.32
33.3537
33.3874
33.4211
33.4548
33.4885
33.5223
33.556
33.5897
33.6234
33.6571
33.6908
33.7245
33.7582
33.7919
33.8256
33.8593
33.8931
33.9268
33.9605
33.9942
34.0279
34.0616
34.0953
34.129
34.1627
34.1964
34.2301
34.2638
34.2975
34.3312
34.3649
34.3986
34.4323
34.466
34.4997
34.5335
34.5672
34.6009
34.6346
34.6683
34.702
34.7357
34.7694
34.8031
34.8368
34.8705
34.9042
34.9379
34.9716
35.0053
35.039
35.0727
35.1064
35.1401
35.1737
35.2074
35.2411
35.2748
35.3085
35.3422
35.3759
35.4096
35.4433
35.477
35.5107
35.5444
35.5781
35.6118
35.6455
35.6792
35.7129
35.7466
35.7803
35.8139
35.8476
35.8813
35.915
35.9487
35.9824
36.0161
36.0498
36.0835
36.1172
36.1509
36.1845
36.2182
36.2519
36.2856
36.3193
36.353
36.3867
36.4204
36.454
36.4877
36.5214
36.5551
36.5888
36.6225
36.6562
36.6898
36.7235
36.7572
36.7909
36.8246
36.8583
36.8919
36.9256
36.9593
36.993
37.0267
37.0604
37.094
37.1277
37.1614
37.1951
37.2288
37.2624
37.2961
37.3298
37.3635
37.3972
37.4308
37.4645
37.4982
37.5319
37.5656
37.5992
37.6329
37.6666
37.7003
37.7339
37.7676
37.8013
37.835
37.8686
37.9023
37.936
37.9697
38.0033
38.037
38.0707
38.1044
38.138
38.1717
38.2054
38.239
38.2727
38.3064
38.3401
38.3737
38.4074
38.4411
38.4747
38.5084
38.5421
38.5757
38.6094
38.6431
38.6767
38.7104
38.7441
38.7778
38.8114
38.8451
38.8788
38.9124
38.9461
38.9797
39.0134
39.0471
39.0807
39.1144
39.1481
39.1817
39.2154
39.2491
39.2827
39.3164
39.35
39.3837
39.4174
39.451
39.4847
39.5184
39.552
39.5857
39.6193
39.653
39.6867
39.7203
39.754
39.7876
39.8213
39.8549
39.8886
39.9223
39.9559
39.9896
40.0232
40.0569
40.0905
40.1242
40.1578
40.1915
40.2252
40.2588
40.2925
40.3261
40.3598
40.3934
40.4271
40.4607
40.4944
40.528
40.5617
40.5953
40.629
40.6626
40.6963
40.7299
40.7636
40.7972
40.8309
40.8645
40.8982
40.9318
40.9655
40.9991
41.0328
41.0664
41.1001
41.1337
41.1674
41.201
41.2346
41.2683
41.3019
41.3356
41.3692
41.4029
41.4365
41.4702
41.5038
41.5374
41.5711
41.6047
41.6384
41.672
41.7057
41.7393
41.7729
41.8066
41.8402
41.8739
41.9075
41.9411
41.9748
42.0084
42.042
42.0757
42.1093
42.143
42.1766
42.2102
42.2439
42.2775
42.3111
42.3448
42.3784
42.412
42.4457
42.4793
42.5129
42.5466
42.5802
42.6138
42.6475
42.6811
42.7147
42.7484
42.782
42.8156
42.8493
42.8829
42.9165
42.9502
42.9838
43.0174
43.051
43.0847
43.1183
43.1519
43.1856
43.2192
43.2528
43.2864
43.3201
43.3537
43.3873
43.4209
43.4546
43.4882
43.5218
43.5554
43.5891
43.6227
43.6563
43.6899
43.7235
43.7572
43.7908
43.8244
43.858
43.8917
43.9253
43.9589
43.9925
44.0261
44.0598
44.0934
44.127
44.1606
44.1942
44.2278
44.2615
44.2951
44.3287
44.3623
44.3959
44.4295
44.4632
44.4968
44.5304
44.564
44.5976
44.6312
44.6648
44.6985
44.7321
44.7657
44.7993
44.8329
44.8665
44.9001
44.9337
44.9673
45.001
45.0346
45.0682
45.1018
45.1354
45.169
45.2026
45.2362
45.2698
45.3034
45.337
45.3706
45.4042
45.4379
45.4715
45.5051
45.5387
45.5723
45.6059
45.6395
45.6731
45.7067
45.7403
45.7739
45.8075
45.8411
45.8747
45.9083
45.9419
45.9755
46.0091
46.0427
46.0763
46.1099
46.1435
46.1771
46.2107
46.2443
46.2779
46.3115
46.3451
46.3787
46.4123
46.4459
46.4795
46.5131
46.5467
46.5803
46.6139
46.6474
46.681
46.7146
46.7482
46.7818
46.8154
46.849
46.8826
46.9162
46.9498
46.9834
47.017
47.0505
47.0841
47.1177
47.1513
47.1849
47.2185
47.2521
47.2857
47.3193
47.3528
47.3864
47.42
47.4536
47.4872
47.5208
47.5544
47.5879
47.6215
47.6551
47.6887
47.7223
47.7559
47.7894
47.823
47.8566
47.8902
47.9238
47.9573
47.9909
48.0245
48.0581
48.0917
48.1252
48.1588
48.1924
48.226
48.2596
48.2931
48.3267
48.3603
48.3939
48.4274
48.461
48.4946
48.5282
48.5617
48.5953
48.6289
48.6625
48.696
48.7296
48.7632
48.7967
48.8303
48.8639
48.8975
48.931
48.9646
48.9982
49.0317
49.0653
49.0989
49.1324
49.166
49.1996
49.2332
49.2667
49.3003
49.3339
49.3674
49.401
49.4346
49.4681
49.5017
49.5352
49.5688
49.6024
49.6359
49.6695
49.7031
49.7366
49.7702
49.8037
49.8373
49.8709
49.9044
49.938
49.9716
50.0051
50.0387
50.0722
50.1058
50.1393
50.1729
50.2065
50.24
50.2736
50.3071
50.3407
50.3742
50.4078
50.4414
50.4749
50.5085
50.542
50.5756
50.6091
50.6427
50.6762
50.7098
50.7433
50.7769
50.8104
50.844
50.8775
50.9111
50.9446
50.9782
51.0117
51.0453
51.0788
51.1124
51.1459
51.1795
51.213
51.2466
51.2801
51.3137
51.3472
51.3807
51.4143
51.4478
51.4814
51.5149
51.5485
51.582
51.6155
51.6491
51.6826
51.7162
51.7497
51.7832
51.8168
51.8503
51.8839
51.9174
51.9509
51.9845
52.018
52.0516
52.0851
52.1186
52.1522
52.1857
52.2192
52.2528
52.2863
52.3198
52.3534
52.3869
52.4204
52.454
52.4875
52.521
52.5546
52.5881
52.6216
52.6552
52.6887
52.7222
52.7558
52.7893
52.8228
52.8563
52.8899
52.9234
52.9569
52.9905
53.024
53.0575
53.091
53.1246
53.1581
53.1916
53.2251
53.2587
53.2922
53.3257
53.3592
53.3928
53.4263
53.4598
53.4933
53.5268
53.5604
53.5939
53.6274
53.6609
53.6944
53.728
53.7615
53.795
53.8285
53.862
53.8955
53.9291
53.9626
53.9961
54.0296
54.0631
54.0966
54.1302
54.1637
54.1972
54.2307
54.2642
54.2977
54.3312
54.3647
54.3983
54.4318
54.4653
54.4988
54.5323
54.5658
54.5993
54.6328
54.6663
54.6998
54.7333
54.7669
54.8004
54.8339
54.8674
54.9009
54.9344
54.9679
55.0014
55.0349
55.0684
55.1019
55.1354
55.1689
55.2024
55.2359
55.2694
55.3029
55.3364
55.3699
55.4034
55.4369
55.4704
55.5039
55.5374
55.5709
55.6044
55.6379
55.6714
55.7049
55.7384
55.7719
55.8054
55.8389
55.8724
55.9059
55.9394
55.9728
56.0063
56.0398
56.0733
56.1068
56.1403
56.1738
56.2073
56.2408
56.2743
56.3078
56.3412
56.3747
56.4082
56.4417
56.4752
56.5087
56.5422
56.5757
56.6091
56.6426
56.6761
56.7096
56.7431
56.7766
56.81
56.8435
56.877
56.9105
56.944
56.9775
57.0109
57.0444
57.0779
57.1114
57.1449
57.1783
57.2118
57.2453
57.2788
57.3122
57.3457
57.3792
57.4127
57.4461
57.4796
57.5131
57.5466
57.58
57.6135
57.647
57.6805
57.7139
57.7474
57.7809
57.8143
57.8478
57.8813
57.9148
57.9482
57.9817
58.0152
58.0486
58.0821
58.1156
58.149
58.1825
58.216
58.2494
58.2829
58.3164
58.3498
58.3833
58.4168
58.4502
58.4837
58.5171
58.5506
58.5841
58.6175
58.651
58.6844
58.7179
58.7514
58.7848
58.8183
58.8517
58.8852
58.9187
58.9521
58.9856
59.019
59.0525
59.0859
59.1194
59.1528
59.1863
59.2198
59.2532
59.2867
59.3201
59.3536
59.387
59.4205
59.4539
59.4874
59.5208
59.5543
59.5877
59.6212
59.6546
59.6881
59.7215
59.755
59.7884
59.8219
59.8553
59.8887
59.9222
59.9556
59.9891
60.0225
60.056
60.0894
60.1228
60.1563
60.1897
60.2232
60.2566
60.2901
60.3235
60.3569
60.3904
60.4238
60.4572
60.4907
60.5241
60.5576
60.591
60.6244
60.6579
60.6913
60.7247
60.7582
60.7916
60.825
60.8585
60.8919
60.9253
60.9588
60.9922
61.0256
61.0591
61.0925
61.1259
61.1593
61.1928
61.2262
61.2596
61.2931
61.3265
61.3599
61.3933
61.4268
61.4602
61.4936
61.527
61.5605
61.5939
61.6273
61.6607
61.6941
61.7276
61.761
61.7944
61.8278
61.8613
61.8947
61.9281
61.9615
61.9949
62.0283
62.0618
62.0952
62.1286
62.162
62.1954
62.2288
62.2623
62.2957
62.3291
62.3625
62.3959
62.4293
62.4627
62.4961
62.5296
62.563
62.5964
62.6298
62.6632
62.6966
62.73
62.7634
62.7968
62.8302
62.8636
62.897
62.9305
62.9639
62.9973
63.0307
63.0641
63.0975
63.1309
63.1643
63.1977
63.2311
63.2645
63.2979
63.3313
63.3647
63.3981
63.4315
63.4649
63.4983
63.5317
63.5651
63.5985
63.6319
63.6653
63.6987
63.732
63.7654
63.7988
63.8322
63.8656
63.899
63.9324
63.9658
63.9992
64.0326
64.066
64.0994
64.1327
64.1661
64.1995
64.2329
64.2663
64.2997
64.3331
64.3665
64.3998
64.4332
64.4666
64.5
64.5334
64.5668
64.6001
64.6335
64.6669
64.7003
64.7337
64.7671
64.8004
64.8338
64.8672
64.9006
64.9339
64.9673
65.0007
65.0341
65.0675
65.1008
65.1342
65.1676
65.201
65.2343
65.2677
65.3011
65.3344
65.3678
65.4012
65.4346
65.4679
65.5013
65.5347
65.568
65.6014
65.6348
65.6681
65.7015
65.7349
65.7682
65.8016
65.835
65.8683
65.9017
65.9351
65.9684
66.0018
66.0352
66.0685
66.1019
66.1352
66.1686
66.202
66.2353
66.2687
66.302
66.3354
66.3688
66.4021
66.4355
66.4688
66.5022
66.5355
66.5689
66.6022
66.6356
66.669
66.7023
66.7357
66.769
66.8024
66.8357
66.8691
66.9024
66.9358
66.9691
67.0025
67.0358
67.0692
67.1025
67.1358
67.1692
67.2025
67.2359
67.2692
67.3026
67.3359
67.3693
67.4026
67.4359
67.4693
67.5026
67.536
67.5693
67.6026
67.636
67.6693
67.7027
67.736
67.7693
67.8027
67.836
67.8693
67.9027
67.936
67.9693
68.0027
68.036
68.0693
68.1027
68.136
68.1693
68.2027
68.236
68.2693
68.3027
68.336
68.3693
68.4026
68.436
68.4693
68.5026
68.5359
68.5693
68.6026
68.6359
68.6692
68.7026
68.7359
68.7692
68.8025
68.8358
68.8692
68.9025
68.9358
68.9691
69.0024
69.0358
69.0691
69.1024
69.1357
69.169
69.2023
69.2357
69.269
69.3023
69.3356
69.3689
69.4022
69.4355
69.4688
69.5021
69.5355
69.5688
69.6021
69.6354
69.6687
69.702
69.7353
69.7686
69.8019
69.8352
69.8685
69.9018
69.9351
69.9684
70.0017
70.035
70.0683
70.1016
70.1349
70.1682
70.2015
70.2348
70.2681
70.3014
70.3347
70.368
70.4013
70.4346
70.4679
70.5012
70.5345
70.5678
70.6011
70.6344
70.6677
70.701
70.7343
70.7676
70.8008
70.8341
70.8674
70.9007
70.934
70.9673
71.0006
71.0339
71.0671
71.1004
71.1337
71.167
71.2003
71.2336
71.2668
71.3001
71.3334
71.3667
71.4
71.4332
71.4665
71.4998
71.5331
71.5664
71.5996
71.6329
71.6662
71.6995
71.7327
71.766
71.7993
71.8326
71.8658
71.8991
71.9324
71.9656
71.9989
72.0322
72.0654
72.0987
72.132
72.1652
72.1985
72.2318
72.265
72.2983
72.3316
72.3648
72.3981
72.4314
72.4646
72.4979
72.5311
72.5644
72.5977
72.6309
72.6642
72.6974
72.7307
72.764
72.7972
72.8305
72.8637
72.897
72.9302
72.9635
72.9967
73.03
73.0632
73.0965
73.1298
73.163
73.1963
73.2295
73.2627
73.296
73.3292
73.3625
73.3957
73.429
73.4622
73.4955
73.5287
73.562
73.5952
73.6284
73.6617
73.6949
73.7282
73.7614
73.7946
73.8279
73.8611
73.8944
73.9276
73.9608
73.9941
74.0273
74.0605
74.0938
74.127
74.1602
74.1935
74.2267
74.2599
74.2932
74.3264
74.3596
74.3928
74.4261
74.4593
74.4925
74.5258
74.559
74.5922
74.6254
74.6587
74.6919
74.7251
74.7583
74.7915
74.8248
74.858
74.8912
74.9244
74.9576
74.9909
75.0241
75.0573
75.0905
75.1237
75.1569
75.1901
75.2234
75.2566
75.2898
75.323
75.3562
75.3894
75.4226
75.4558
75.489
75.5223
75.5555
75.5887
75.6219
75.6551
75.6883
75.7215
75.7547
75.7879
75.8211
75.8543
75.8875
75.9207
75.9539
75.9871
76.0203
76.0535
76.0867
76.1199
76.1531
76.1863
76.2195
76.2527
76.2859
76.3191
76.3522
76.3854
76.4186
76.4518
76.485
76.5182
76.5514
76.5846
76.6178
76.6509
76.6841
76.7173
76.7505
76.7837
76.8169
76.85
76.8832
76.9164
76.9496
76.9828
77.016
77.0491
77.0823
77.1155
77.1487
77.1818
77.215
77.2482
77.2814
77.3145
77.3477
77.3809
77.4141
77.4472
77.4804
77.5136
77.5467
77.5799
77.6131
77.6462
77.6794
77.7126
77.7457
77.7789
77.8121
77.8452
77.8784
77.9115
77.9447
77.9779
78.011
78.0442
78.0773
78.1105
78.1437
78.1768
78.21
78.2431
78.2763
78.3094
78.3426
78.3757
78.4089
78.442
78.4752
78.5083
78.5415
78.5746
78.6078
78.6409
78.6741
78.7072
78.7404
78.7735
78.8066
78.8398
78.8729
78.9061
78.9392
78.9723
79.0055
79.0386
79.0718
79.1049
79.138
79.1712
79.2043
79.2374
79.2706
79.3037
79.3368
79.37
79.4031
79.4362
79.4693
79.5025
79.5356
79.5687
79.6019
79.635
79.6681
79.7012
79.7343
79.7675
79.8006
79.8337
79.8668
79.9
79.9331
79.9662
79.9993
80.0324
80.0655
80.0987
80.1318
80.1649
80.198
80.2311
80.2642
80.2973
80.3304
80.3635
80.3967
80.4298
80.4629
80.496
80.5291
80.5622
80.5953
80.6284
80.6615
80.6946
80.7277
80.7608
80.7939
80.827
80.8601
80.8932
80.9263
80.9594
80.9925
81.0256
81.0587
81.0917
81.1248
81.1579
81.191
81.2241
81.2572
81.2903
81.3234
81.3565
81.3895
81.4226
81.4557
81.4888
81.5219
81.555
81.588
81.6211
81.6542
81.6873
81.7204
81.7534
81.7865
81.8196
81.8527
81.8857
81.9188
81.9519
81.9849
82.018
82.0511
82.0842
82.1172
82.1503
82.1834
82.2164
82.2495
82.2825
82.3156
82.3487
82.3817
82.4148
82.4479
82.4809
82.514
82.547
82.5801
82.6131
82.6462
82.6793
82.7123
82.7454
82.7784
82.8115
82.8445
82.8776
82.9106
82.9437
82.9767
83.0097
83.0428
83.0758
83.1089
83.1419
83.175
83.208
83.241
83.2741
83.3071
83.3402
83.3732
83.4062
83.4393
83.4723
83.5053
83.5384
83.5714
83.6044
83.6374
83.6705
83.7035
83.7365
83.7696
83.8026
83.8356
83.8686
83.9016
83.9347
83.9677
84.0007
84.0337
84.0667
84.0998
84.1328
84.1658
84.1988
84.2318
84.2648
84.2978
84.3309
84.3639
84.3969
84.4299
84.4629
84.4959
84.5289
84.5619
84.5949
84.6279
84.6609
84.6939
84.7269
84.7599
84.7929
84.8259
84.8589
84.8919
84.9249
84.9579
84.9909
85.0239
85.0569
85.0898
85.1228
85.1558
85.1888
85.2218
85.2548
85.2878
85.3207
85.3537
85.3867
85.4197
85.4527
85.4856
85.5186
85.5516
85.5846
85.6175
85.6505
85.6835
85.7165
85.7494
85.7824
85.8154
85.8483
85.8813
85.9143
85.9472
85.9802
86.0131
86.0461
86.0791
86.112
86.145
86.1779
86.2109
86.2439
86.2768
86.3098
86.3427
86.3757
86.4086
86.4416
86.4745
86.5075
86.5404
86.5733
86.6063
86.6392
86.6722
86.7051
86.7381
86.771
86.8039
86.8369
86.8698
86.9027
86.9357
86.9686
87.0015
87.0345
87.0674
87.1003
87.1332
87.1662
87.1991
87.232
87.2649
87.2979
87.3308
87.3637
87.3966
87.4295
87.4624
87.4954
87.5283
87.5612
87.5941
87.627
87.6599
87.6928
87.7257
87.7586
87.7915
87.8244
87.8573
87.8902
87.9231
87.956
87.9889
88.0218
88.0547
88.0876
88.1205
88.1534
88.1863
88.2192
88.2521
88.285
88.3178
88.3507
88.3836
88.4165
88.4494
88.4823
88.5151
88.548
88.5809
88.6138
88.6466
88.6795
88.7124
88.7453
88.7781
88.811
88.8439
88.8767
88.9096
88.9425
88.9753
89.0082
89.041
89.0739
89.1067
89.1396
89.1725
89.2053
89.2382
89.271
89.3039
89.3367
89.3696
89.4024
89.4352
89.4681
89.5009
89.5338
89.5666
89.5994
89.6323
89.6651
89.6979
89.7308
89.7636
89.7964
89.8293
89.8621
89.8949
89.9277
89.9606
89.9934
90.0262
90.059
90.0918
90.1247
90.1575
90.1903
90.2231
90.2559
90.2887
90.3215
90.3543
90.3871
90.4199
90.4527
90.4855
90.5183
90.5511
90.5839
90.6167
90.6495
90.6823
90.7151
90.7479
90.7807
90.8135
90.8463
90.879
90.9118
90.9446
90.9774
91.0102
91.0429
91.0757
91.1085
91.1413
91.174
91.2068
91.2396
91.2723
91.3051
91.3379
91.3706
91.4034
91.4361
91.4689
91.5016
91.5344
91.5672
91.5999
91.6327
91.6654
91.6981
91.7309
91.7636
91.7964
91.8291
91.8619
91.8946
91.9273
91.9601
91.9928
92.0255
92.0582
92.091
92.1237
92.1564
92.1891
92.2219
92.2546
92.2873
92.32
92.3527
92.3854
92.4181
92.4509
92.4836
92.5163
92.549
92.5817
92.6144
92.6471
92.6798
92.7125
92.7451
92.7778
92.8105
92.8432
92.8759
92.9086
92.9413
92.9739
93.0066
93.0393
93.072
93.1046
93.1373
93.17
93.2027
93.2353
93.268
93.3006
93.3333
93.366
93.3986
93.4313
93.4639
93.4966
93.5292
93.5619
93.5945
93.6272
93.6598
93.6924
93.7251
93.7577
93.7903
93.823
93.8556
93.8882
93.9209
93.9535
93.9861
94.0187
94.0513
94.084
94.1166
94.1492
94.1818
94.2144
94.247
94.2796
94.3122
94.3448
94.3774
94.41
94.4426
94.4752
94.5078
94.5404
94.5729
94.6055
94.6381
94.6707
94.7033
94.7358
94.7684
94.801
94.8335
94.8661
94.8987
94.9312
94.9638
94.9963
95.0289
95.0614
95.094
95.1265
95.1591
95.1916
95.2242
95.2567
95.2892
95.3218
95.3543
95.3868
95.4194
95.4519
95.4844
95.5169
95.5494
95.5819
95.6145
95.647
95.6795
95.712
95.7445
95.777
95.8095
95.842
95.8745
95.9069
95.9394
95.9719
96.0044
96.0369
96.0694
96.1018
96.1343
96.1668
96.1992
96.2317
96.2642
96.2966
96.3291
96.3615
96.394
96.4264
96.4589
96.4913
96.5237
96.5562
96.5886
96.621
96.6535
96.6859
96.7183
96.7507
96.7831
96.8156
96.848
96.8804
96.9128
96.9452
96.9776
97.01
97.0424
97.0748
97.1072
97.1395
97.1719
97.2043
97.2367
97.269
97.3014
97.3338
97.3661
97.3985
97.4309
97.4632
97.4956
97.5279
97.5603
97.5926
97.6249
97.6573
97.6896
97.7219
97.7543
97.7866
97.8189
97.8512
97.8835
97.9158
97.9481
97.9804
98.0127
98.045
98.0773
98.1096
98.1419
98.1742
98.2065
98.2387
98.271
98.3033
98.3355
98.3678
98.4001
98.4323
98.4646
98.4968
98.529
98.5613
98.5935
98.6257
98.658
98.6902
98.7224
98.7546
98.7868
98.8191
98.8513
98.8835
98.9157
98.9479
98.98
99.0122
99.0444
99.0766
99.1088
99.1409
99.1731
99.2053
99.2374
99.2696
99.3017
99.3339
99.366
99.3981
99.4303
99.4624
99.4945
99.5266
99.5588
99.5909
99.623
99.6551
99.6872
99.7193
99.7514
99.7834
99.8155
99.8476
99.8797
99.9117
99.9438
99.9758
100.008
100.04
100.072
100.104
100.136
100.168
100.2
100.232
100.264
100.296
100.328
100.36
100.392
100.424
100.456
100.488
100.52
100.552
100.584
100.616
100.648
100.68
100.712
100.744
100.776
100.808
100.84
100.871
100.903
100.935
100.967
100.999
101.031
101.063
101.095
101.127
101.158
101.19
101.222
101.254
101.286
101.318
101.35
101.381
101.413
101.445
101.477
101.509
101.54
101.572
101.604
101.636
101.668
101.699
101.731
101.763
101.795
101.826
101.858
101.89
101.922
101.953
101.985
102.017
102.048
102.08
102.112
102.143
102.175
102.207
102.238
102.27
102.302
102.333
102.365
102.397
102.428
102.46
102.491
102.523
102.555
102.586
102.618
102.649
102.681
102.712
102.744
102.775
102.807
102.839
102.87
102.902
102.933
102.965
102.996
103.027
103.059
103.09
103.122
103.153
103.185
103.216
103.248
103.279
103.31
103.342
103.373
103.404
103.436
103.467
103.499
103.53
103.561
103.593
103.624
103.655
103.686
103.718
103.749
103.78
103.812
103.843
103.874
103.905
103.936
103.968
103.999
104.03
104.061
104.092
104.124
104.155
104.186
104.217
104.248
104.279
104.31
104.341
104.372
104.404
104.435
104.466
104.497
104.528
104.559
104.59
104.621
104.652
104.683
104.714
104.745
104.775
104.806
104.837
104.868
104.899
104.93
104.961
104.992
105.023
105.053
105.084
105.115
105.146
105.177
105.207
105.238
105.269
105.3
105.33
105.361
105.392
105.422
105.453
105.484
105.514
105.545
105.576
105.606
105.637
105.667
105.698
105.729
105.759
105.79
105.82
105.851
105.881
105.912
105.942
105.972
106.003
106.033
106.064
106.094
106.124
106.155
106.185
106.215
106.246
106.276
106.306
106.337
106.367
106.397
106.427
106.457
106.488
106.518
106.548
106.578
106.608
106.638
106.668
106.698
106.728
106.759
106.789
106.819
106.849
106.878
106.908
106.938
106.968
106.998
107.028
107.058
107.088
107.118
107.147
107.177
107.207
107.237
107.266
107.296
107.326
107.356
107.385
107.415
107.444
107.474
107.504
107.533
107.563
107.592
107.622
107.651
107.681
107.71
107.74
107.769
107.798
107.828
107.857
107.886
107.916
107.945
107.974
108.003
108.033
108.062
108.091
108.12
108.149
108.178
108.207
108.236
108.266
108.295
108.324
108.352
108.381
108.41
108.439
108.468
108.497
108.526
108.555
108.583
108.612
108.641
108.67
108.698
108.727
108.756
108.784
108.813
108.841
108.87
108.898
108.927
108.955
108.984
109.012
109.041
109.069
109.097
109.126
109.154
109.182
109.21
109.239
109.267
109.295
109.323
109.351
109.379
109.407
109.435
109.463
109.491
109.519
109.547
109.575
109.603
109.631
109.659
109.687
109.714
109.742
109.77
109.797
109.825
109.853
109.88
109.908
109.935
109.963
109.99
110.018
110.045
110.073
110.1
110.127
110.155
110.182
110.209
110.236
110.264
110.291
110.318
110.345
110.372
110.399
110.426
110.453
110.48
110.507
110.534
110.561
110.588
110.614
110.641
110.668
110.695
110.721
110.748
110.775
110.801
110.828
110.854
110.881
110.907
110.934
110.96
110.987
111.013
111.039
111.066
111.092
111.118
111.144
111.171
111.197
111.223
111.249
111.275
111.301
111.327
111.353
111.379
111.405
111.431
111.457
111.483
111.508
111.534
111.56
111.586
111.611
111.637
111.663
111.688
111.714
111.739
111.765
111.79
111.816
111.841
111.867
111.892
111.918
111.943
111.968
111.993
112.019
112.044
112.069
112.094
112.119
112.145
112.17
112.195
112.22
112.245
112.27
112.295
112.32
112.345
112.369
112.394
112.419
112.444
112.469
112.493
112.518
112.543
112.568
112.592
112.617
112.642
112.666
112.691
112.715
112.74
112.764
112.789
112.813
112.838
112.862
112.886
112.911
112.935
112.959
112.984
113.008
113.032
113.057
113.081
113.105
113.129
113.153
113.177
113.202
113.226
113.25
113.274
113.298
113.322
113.346
113.37
113.394
113.418
113.442
113.466
113.49
113.514
113.538
113.561
113.585
113.609
113.633
113.657
113.681
113.704
113.728
113.752
113.776
113.799
113.823
113.847
113.87
113.894
113.918
113.941
113.965
113.989
114.012
114.036
114.059
114.083
114.106
114.13
114.154
114.177
114.201
114.224
114.248
114.271
114.295
114.318
114.342
114.365
114.388
114.412
114.435
114.459
114.482
114.505
114.529
114.552
114.576
114.599
114.622
114.646
114.669
114.692
114.716
114.739
114.762
114.786
114.809
114.832
114.856
114.879
114.902
114.926
114.949
114.972
114.995
115.019
115.042
115.065
115.089
115.112
115.135
115.158
115.182
115.205
115.228
115.251
115.274
115.298
115.321
115.344
115.367
115.391
115.414
115.437
115.46
115.483
115.507
115.53
115.553
115.576
115.6
115.623
115.646
115.669
115.692
115.716
115.739
115.762
115.785
115.808
115.832
115.855
115.878
115.901
115.924
115.948
115.971
115.994
116.017
116.04
116.064
116.087
116.11
116.133
116.156
116.18
116.203
116.226
116.249
116.272
116.296
116.319
116.342
116.365
116.388
116.412
116.435
116.458
116.481
116.504
116.528
116.551
116.574
116.597
116.62
116.644
116.667
116.69
116.713
116.737
116.76
116.783
116.806
116.829
116.853
116.876
116.899
116.922
116.946
116.969
116.992
117.015
117.039
117.062
117.085
117.108
117.132
117.155
117.178
117.201
117.225
117.248
117.271
117.295
117.318
117.341
117.364
117.388
117.411
117.434
117.458
117.481
117.504
117.527
117.551
117.574
117.597
117.621
117.644
117.667
117.691
117.714
117.737
117.76
117.784
117.807
117.83
117.854
117.877
117.9
117.924
117.947
117.97
117.994
118.017
118.041
118.064
118.087
118.111
118.134
118.157
118.181
118.204
118.227
118.251
118.274
118.298
118.321
118.344
118.368
118.391
118.414
118.438
118.461
118.485
118.508
118.531
118.555
118.578
118.602
118.625
118.649
118.672
118.695
118.719
118.742
118.766
118.789
118.813
118.836
118.859
118.883
118.906
118.93
118.953
118.977
119
119.024
119.047
119.071
119.094
119.117
119.141
119.164
119.188
119.211
119.235
119.258
119.282
119.305
119.329
119.352
119.376
119.399
119.423
119.446
119.47
119.493
119.517
119.54
119.564
119.587
119.611
119.635
119.658
119.682
119.705
119.729
119.752
119.776
119.799
119.823
119.846
119.87
119.894
119.917
119.941
119.964
119.988
120.011
120.035
120.059
120.082
120.106
120.129
120.153
120.177
120.2
120.224
120.247
120.271
120.295
120.318
120.342
120.365
120.389
120.413
120.436
120.46
120.484
120.507
120.531
120.554
120.578
120.602
120.625
120.649
120.673
120.696
120.72
120.744
120.767
120.791
120.815
120.838
120.862
120.886
120.909
120.933
120.957
120.98
121.004
121.028
121.052
121.075
121.099
121.123
121.146
121.17
121.194
121.217
121.241
121.265
121.289
121.312
121.336
121.36
121.384
121.407
121.431
121.455
121.479
121.502
121.526
121.55
121.574
121.597
121.621
121.645
121.669
121.692
121.716
121.74
121.764
121.788
121.811
121.835
121.859
121.883
121.906
121.93
121.954
121.978
122.002
122.025
122.049
122.073
122.097
122.121
122.145
122.168
122.192
122.216
122.24
122.264
122.288
122.311
122.335
122.359
122.383
122.407
122.431
122.455
122.478
122.502
122.526
122.55
122.574
122.598
122.622
122.646
122.669
122.693
122.717
122.741
122.765
122.789
122.813
122.837
122.861
122.885
122.908
122.932
122.956
122.98
123.004
123.028
123.052
123.076
123.1