/*--------------------------------*- C++ -*----------------------------------*\
  =========                 |
  \\      /  F ield         | OpenFOAM: The Open Source CFD Toolbox
   \\    /   O peration     | Website:  https://openfoam.org
    \\  /    A nd           | Version:  9
     \\/     M anipulation  |
\*---------------------------------------------------------------------------*/
FoamFile
{
    format      ascii;
    class       volScalarField;
    location    "0.016";
    object      p;
}
// * * * * * * * * * * * * * * * * * * * * * * * * * * * * * * * * * * * * * //

dimensions      [1 -1 -2 0 0 0 0];

internalField   nonuniform List<scalar> 
10000
(
66353.3
66353
66353
66352.8
66352.7
66352.6
66352.5
66352.3
66352.2
66352.1
66351.9
66351.8
66351.7
66351.6
66351.4
66351.3
66351.2
66351
66350.9
66350.7
66350.6
66350.5
66350.3
66350.2
66350
66349.9
66349.7
66349.6
66349.4
66349.3
66349.1
66349
66348.8
66348.6
66348.5
66348.3
66348.2
66348
66347.8
66347.7
66347.5
66347.3
66347.2
66347
66346.8
66346.6
66346.5
66346.3
66346.1
66345.9
66345.8
66345.6
66345.4
66345.2
66345
66344.8
66344.7
66344.5
66344.3
66344.1
66343.9
66343.7
66343.5
66343.3
66343.1
66342.9
66342.7
66342.5
66342.3
66342.1
66341.9
66341.7
66341.5
66341.3
66341
66340.8
66340.6
66340.4
66340.2
66340
66339.7
66339.5
66339.3
66339.1
66338.9
66338.6
66338.4
66338.2
66337.9
66337.7
66337.5
66337.2
66337
66336.8
66336.5
66336.3
66336.1
66335.8
66335.6
66335.3
66335.1
66334.8
66334.6
66334.3
66334.1
66333.8
66333.6
66333.3
66333.1
66332.8
66332.5
66332.3
66332
66331.8
66331.5
66331.2
66331
66330.7
66330.4
66330.2
66329.9
66329.6
66329.3
66329.1
66328.8
66328.5
66328.2
66327.9
66327.7
66327.4
66327.1
66326.8
66326.5
66326.2
66325.9
66325.6
66325.3
66325
66324.8
66324.5
66324.2
66323.9
66323.6
66323.3
66322.9
66322.6
66322.3
66322
66321.7
66321.4
66321.1
66320.8
66320.5
66320.2
66319.8
66319.5
66319.2
66318.9
66318.6
66318.2
66317.9
66317.6
66317.2
66316.9
66316.6
66316.3
66315.9
66315.6
66315.3
66314.9
66314.6
66314.2
66313.9
66313.6
66313.2
66312.9
66312.5
66312.2
66311.8
66311.5
66311.1
66310.8
66310.4
66310.1
66309.7
66309.3
66309
66308.6
66308.3
66307.9
66307.5
66307.2
66306.8
66306.4
66306.1
66305.7
66305.3
66304.9
66304.6
66304.2
66303.8
66303.4
66303
66302.7
66302.3
66301.9
66301.5
66301.1
66300.7
66300.3
66299.9
66299.5
66299.2
66298.8
66298.4
66298
66297.6
66297.2
66296.8
66296.4
66295.9
66295.5
66295.1
66294.7
66294.3
66293.9
66293.5
66293.1
66292.7
66292.2
66291.8
66291.4
66291
66290.6
66290.1
66289.7
66289.3
66288.9
66288.4
66288
66287.6
66287.1
66286.7
66286.3
66285.8
66285.4
66284.9
66284.5
66284.1
66283.6
66283.2
66282.7
66282.3
66281.8
66281.4
66280.9
66280.5
66280
66279.5
66279.1
66278.6
66278.2
66277.7
66277.2
66276.8
66276.3
66275.8
66275.4
66274.9
66274.4
66274
66273.5
66273
66272.5
66272.1
66271.6
66271.1
66270.6
66270.1
66269.6
66269.2
66268.7
66268.2
66267.7
66267.2
66266.7
66266.2
66265.7
66265.2
66264.7
66264.2
66263.7
66263.2
66262.7
66262.2
66261.7
66261.2
66260.7
66260.2
66259.7
66259.1
66258.6
66258.1
66257.6
66257.1
66256.6
66256
66255.5
66255
66254.5
66253.9
66253.4
66252.9
66252.3
66251.8
66251.3
66250.7
66250.2
66249.7
66249.1
66248.6
66248
66247.5
66246.9
66246.4
66245.9
66245.3
66244.7
66244.2
66243.6
66243.1
66242.5
66242
66241.4
66240.9
66240.3
66239.7
66239.2
66238.6
66238
66237.5
66236.9
66236.3
66235.7
66235.2
66234.6
66234
66233.4
66232.9
66232.3
66231.7
66231.1
66230.5
66229.9
66229.3
66228.8
66228.2
66227.6
66227
66226.4
66225.8
66225.2
66224.6
66224
66223.4
66222.8
66222.2
66221.6
66221
66220.3
66219.7
66219.1
66218.5
66217.9
66217.3
66216.7
66216
66215.4
66214.8
66214.2
66213.5
66212.9
66212.3
66211.7
66211
66210.4
66209.8
66209.1
66208.5
66207.9
66207.2
66206.6
66205.9
66205.3
66204.6
66204
66203.4
66202.7
66202.1
66201.4
66200.7
66200.1
66199.4
66198.8
66198.1
66197.5
66196.8
66196.1
66195.5
66194.8
66194.1
66193.5
66192.8
66192.1
66191.4
66190.8
66190.1
66189.4
66188.7
66188.1
66187.4
66186.7
66186
66185.3
66184.6
66183.9
66183.2
66182.6
66181.9
66181.2
66180.5
66179.8
66179.1
66178.4
66177.7
66177
66176.3
66175.5
66174.8
66174.1
66173.4
66172.7
66172
66171.3
66170.6
66169.8
66169.1
66168.4
66167.7
66166.9
66166.2
66165.5
66164.8
66164
66163.3
66162.6
66161.8
66161.1
66160.4
66159.6
66158.9
66158.1
66157.4
66156.6
66155.9
66155.2
66154.4
66153.6
66152.9
66152.1
66151.4
66150.6
66149.9
66149.1
66148.3
66147.6
66146.8
66146.1
66145.3
66144.5
66143.7
66143
66142.2
66141.4
66140.6
66139.9
66139.1
66138.3
66137.5
66136.7
66136
66135.2
66134.4
66133.6
66132.8
66132
66131.2
66130.4
66129.6
66128.8
66128
66127.2
66126.4
66125.6
66124.8
66124
66123.2
66122.4
66121.5
66120.7
66119.9
66119.1
66118.3
66117.5
66116.6
66115.8
66115
66114.2
66113.3
66112.5
66111.7
66110.8
66110
66109.2
66108.3
66107.5
66106.6
66105.8
66104.9
66104.1
66103.3
66102.4
66101.6
66100.7
66099.8
66099
66098.1
66097.3
66096.4
66095.6
66094.7
66093.8
66093
66092.1
66091.2
66090.3
66089.5
66088.6
66087.7
66086.8
66086
66085.1
66084.2
66083.3
66082.4
66081.5
66080.7
66079.8
66078.9
66078
66077.1
66076.2
66075.3
66074.4
66073.5
66072.6
66071.7
66070.8
66069.9
66068.9
66068
66067.1
66066.2
66065.3
66064.4
66063.4
66062.5
66061.6
66060.7
66059.7
66058.8
66057.9
66057
66056
66055.1
66054.1
66053.2
66052.3
66051.3
66050.4
66049.4
66048.5
66047.5
66046.6
66045.6
66044.7
66043.7
66042.8
66041.8
66040.8
66039.9
66038.9
66038
66037
66036
66035
66034.1
66033.1
66032.1
66031.1
66030.2
66029.2
66028.2
66027.2
66026.2
66025.2
66024.2
66023.3
66022.3
66021.3
66020.3
66019.3
66018.3
66017.3
66016.3
66015.2
66014.2
66013.2
66012.2
66011.2
66010.2
66009.2
66008.2
66007.1
66006.1
66005.1
66004.1
66003
66002
66001
65999.9
65998.9
65997.9
65996.8
65995.8
65994.7
65993.7
65992.6
65991.6
65990.5
65989.5
65988.4
65987.4
65986.3
65985.3
65984.2
65983.1
65982.1
65981
65979.9
65978.9
65977.8
65976.7
65975.6
65974.6
65973.5
65972.4
65971.3
65970.2
65969.1
65968.1
65967
65965.9
65964.8
65963.7
65962.6
65961.5
65960.4
65959.3
65958.1
65957
65955.9
65954.8
65953.7
65952.6
65951.5
65950.3
65949.2
65948.1
65947
65945.8
65944.7
65943.6
65942.4
65941.3
65940.1
65939
65937.9
65936.7
65935.6
65934.4
65933.3
65932.1
65930.9
65929.8
65928.6
65927.5
65926.3
65925.1
65923.9
65922.8
65921.6
65920.4
65919.2
65918.1
65916.9
65915.7
65914.5
65913.3
65912.1
65910.9
65909.7
65908.5
65907.3
65906.1
65904.9
65903.7
65902.5
65901.3
65900.1
65898.9
65897.6
65896.4
65895.2
65894
65892.7
65891.5
65890.3
65889
65887.8
65886.6
65885.3
65884.1
65882.8
65881.6
65880.3
65879.1
65877.8
65876.6
65875.3
65874
65872.8
65871.5
65870.2
65869
65867.7
65866.4
65865.1
65863.8
65862.5
65861.3
65860
65858.7
65857.4
65856.1
65854.8
65853.5
65852.2
65850.9
65849.5
65848.2
65846.9
65845.6
65844.3
65842.9
65841.6
65840.3
65839
65837.6
65836.3
65834.9
65833.6
65832.2
65830.9
65829.5
65828.2
65826.8
65825.5
65824.1
65822.7
65821.4
65820
65818.6
65817.2
65815.9
65814.5
65813.1
65811.7
65810.3
65808.9
65807.5
65806.1
65804.7
65803.3
65801.9
65800.5
65799.1
65797.6
65796.2
65794.8
65793.4
65791.9
65790.5
65789.1
65787.6
65786.2
65784.7
65783.3
65781.8
65780.4
65778.9
65777.4
65776
65774.5
65773
65771.5
65770.1
65768.6
65767.1
65765.6
65764.1
65762.6
65761.1
65759.6
65758.1
65756.6
65755.1
65753.5
65752
65750.5
65749
65747.4
65745.9
65744.3
65742.8
65741.3
65739.7
65738.1
65736.6
65735
65733.5
65731.9
65730.3
65728.7
65727.1
65725.6
65724
65722.4
65720.8
65719.2
65717.6
65715.9
65714.3
65712.7
65711.1
65709.5
65707.8
65706.2
65704.5
65702.9
65701.2
65699.6
65697.9
65696.3
65694.6
65692.9
65691.2
65689.6
65687.9
65686.2
65684.5
65682.8
65681.1
65679.4
65677.7
65675.9
65674.2
65672.5
65670.8
65669
65667.3
65665.5
65663.8
65662
65660.2
65658.5
65656.7
65654.9
65653.1
65651.3
65649.5
65647.7
65645.9
65644.1
65642.3
65640.5
65638.6
65636.8
65635
65633.1
65631.3
65629.4
65627.5
65625.7
65623.8
65621.9
65620
65618.1
65616.2
65614.3
65612.4
65610.5
65608.6
65606.6
65604.7
65602.7
65600.8
65598.8
65596.9
65594.9
65592.9
65590.9
65588.9
65586.9
65584.9
65582.9
65580.9
65578.8
65576.8
65574.8
65572.7
65570.6
65568.6
65566.5
65564.4
65562.3
65560.2
65558.1
65556
65553.9
65551.7
65549.6
65547.5
65545.3
65543.1
65541
65538.8
65536.6
65534.4
65532.2
65530
65527.7
65525.5
65523.2
65521
65518.7
65516.5
65514.2
65511.9
65509.6
65507.3
65504.9
65502.6
65500.2
65497.9
65495.5
65493.2
65490.8
65488.4
65486
65483.5
65481.1
65478.7
65476.2
65473.7
65471.3
65468.8
65466.3
65463.8
65461.2
65458.7
65456.2
65453.6
65451
65448.4
65445.8
65443.2
65440.6
65437.9
65435.3
65432.6
65429.9
65427.2
65424.5
65421.8
65419.1
65416.3
65413.6
65410.8
65408
65405.2
65402.3
65399.5
65396.6
65393.8
65390.9
65388
65385
65382.1
65379.1
65376.2
65373.2
65370.1
65367.1
65364.1
65361
65357.9
65354.8
65351.7
65348.6
65345.4
65342.2
65339
65335.8
65332.6
65329.3
65326
65322.7
65319.4
65316.1
65312.7
65309.3
65305.9
65302.5
65299.1
65295.6
65292.1
65288.6
65285
65281.4
65277.9
65274.2
65270.6
65266.9
65263.2
65259.5
65255.8
65252
65248.2
65244.4
65240.5
65236.7
65232.7
65228.8
65224.8
65220.9
65216.8
65212.8
65208.7
65204.6
65200.5
65196.3
65192.1
65187.8
65183.6
65179.3
65174.9
65170.6
65166.2
65161.7
65157.3
65152.8
65148.2
65143.7
65139.1
65134.4
65129.7
65125
65120.3
65115.5
65110.6
65105.8
65100.9
65095.9
65090.9
65085.9
65080.8
65075.7
65070.6
65065.4
65060.1
65054.9
65049.5
65044.2
65038.8
65033.3
65027.8
65022.3
65016.7
65011
65005.4
64999.6
64993.9
64988
64982.2
64976.2
64970.3
64964.2
64958.2
64952
64945.9
64939.6
64933.4
64927
64920.6
64914.2
64907.7
64901.2
64894.6
64887.9
64881.2
64874.5
64867.6
64860.8
64853.8
64846.9
64839.8
64832.7
64825.5
64818.3
64811
64803.7
64796.3
64788.9
64781.3
64773.8
64766.1
64758.4
64750.7
64742.9
64735
64727.1
64719
64711
64702.9
64694.7
64686.4
64678.1
64669.7
64661.3
64652.8
64644.2
64635.6
64626.9
64618.2
64609.4
64600.5
64591.5
64582.5
64573.5
64564.3
64555.2
64545.9
64536.6
64527.2
64517.8
64508.3
64498.7
64489.1
64479.4
64469.6
64459.8
64450
64440
64430
64420
64409.9
64399.7
64389.5
64379.2
64368.9
64358.5
64348
64337.5
64326.9
64316.3
64305.6
64294.9
64284.1
64273.3
64262.4
64251.4
64240.4
64229.4
64218.3
64207.1
64195.9
64184.7
64173.4
64162.1
64150.7
64139.2
64127.8
64116.2
64104.7
64093.1
64081.4
64069.7
64058
64046.2
64034.4
64022.5
64010.6
63998.7
63986.7
63974.7
63962.7
63950.6
63938.5
63926.4
63914.2
63902
63889.8
63877.5
63865.2
63852.9
63840.5
63828.1
63815.7
63803.3
63790.9
63778.4
63765.9
63753.3
63740.8
63728.2
63715.6
63703
63690.4
63677.7
63665.1
63652.4
63639.7
63627
63614.2
63601.5
63588.7
63575.9
63563.1
63550.3
63537.5
63524.6
63511.8
63498.9
63486
63473.2
63460.3
63447.4
63434.5
63421.5
63408.6
63395.7
63382.7
63369.8
63356.8
63343.8
63330.9
63317.9
63304.9
63291.9
63278.9
63265.9
63252.9
63239.9
63226.9
63213.9
63200.8
63187.8
63174.8
63161.8
63148.7
63135.7
63122.6
63109.6
63096.6
63083.5
63070.5
63057.4
63044.4
63031.3
63018.3
63005.3
62992.2
62979.2
62966.1
62953.1
62940
62927
62913.9
62900.9
62887.8
62874.8
62861.7
62848.7
62835.6
62822.6
62809.5
62796.5
62783.5
62770.4
62757.4
62744.4
62731.3
62718.3
62705.2
62692.2
62679.2
62666.2
62653.1
62640.1
62627.1
62614.1
62601
62588
62575
62562
62549
62536
62523
62510
62497
62483.9
62470.9
62457.9
62445
62432
62419
62406
62393
62380
62367
62354
62341.1
62328.1
62315.1
62302.1
62289.2
62276.2
62263.2
62250.3
62237.3
62224.3
62211.4
62198.4
62185.5
62172.5
62159.6
62146.6
62133.7
62120.7
62107.8
62094.9
62081.9
62069
62056.1
62043.1
62030.2
62017.3
62004.4
61991.5
61978.5
61965.6
61952.7
61939.8
61926.9
61914
61901.1
61888.2
61875.3
61862.4
61849.5
61836.6
61823.7
61810.8
61797.9
61785.1
61772.2
61759.3
61746.4
61733.6
61720.7
61707.8
61694.9
61682.1
61669.2
61656.4
61643.5
61630.7
61617.8
61605
61592.1
61579.3
61566.4
61553.6
61540.7
61527.9
61515.1
61502.2
61489.4
61476.6
61463.8
61450.9
61438.1
61425.3
61412.5
61399.7
61386.9
61374
61361.2
61348.4
61335.6
61322.8
61310
61297.2
61284.4
61271.7
61258.9
61246.1
61233.3
61220.5
61207.7
61195
61182.2
61169.4
61156.6
61143.9
61131.1
61118.4
61105.6
61092.8
61080.1
61067.3
61054.6
61041.8
61029.1
61016.3
61003.6
60990.8
60978.1
60965.4
60952.6
60939.9
60927.2
60914.5
60901.7
60889
60876.3
60863.6
60850.9
60838.1
60825.4
60812.7
60800
60787.3
60774.6
60761.9
60749.2
60736.5
60723.8
60711.1
60698.5
60685.8
60673.1
60660.4
60647.7
60635.1
60622.4
60609.7
60597
60584.4
60571.7
60559
60546.4
60533.7
60521.1
60508.4
60495.8
60483.1
60470.5
60457.8
60445.2
60432.5
60419.9
60407.3
60394.6
60382
60369.4
60356.8
60344.1
60331.5
60318.9
60306.3
60293.7
60281
60268.4
60255.8
60243.2
60230.6
60218
60205.4
60192.8
60180.2
60167.6
60155
60142.5
60129.9
60117.3
60104.7
60092.1
60079.6
60067
60054.4
60041.8
60029.3
60016.7
60004.1
59991.6
59979
59966.5
59953.9
59941.4
59928.8
59916.3
59903.7
59891.2
59878.6
59866.1
59853.6
59841
59828.5
59816
59803.4
59790.9
59778.4
59765.9
59753.4
59740.8
59728.3
59715.8
59703.3
59690.8
59678.3
59665.8
59653.3
59640.8
59628.3
59615.8
59603.3
59590.8
59578.3
59565.9
59553.4
59540.9
59528.4
59516
59503.5
59491
59478.5
59466.1
59453.6
59441.1
59428.7
59416.2
59403.8
59391.3
59378.9
59366.4
59354
59341.5
59329.1
59316.7
59304.2
59291.8
59279.4
59266.9
59254.5
59242.1
59229.6
59217.2
59204.8
59192.4
59180
59167.6
59155.2
59142.7
59130.3
59117.9
59105.5
59093.1
59080.7
59068.3
59056
59043.6
59031.2
59018.8
59006.4
58994
58981.6
58969.3
58956.9
58944.5
58932.2
58919.8
58907.4
58895.1
58882.7
58870.3
58858
58845.6
58833.3
58820.9
58808.6
58796.2
58783.9
58771.6
58759.2
58746.9
58734.5
58722.2
58709.9
58697.6
58685.2
58672.9
58660.6
58648.3
58635.9
58623.6
58611.3
58599
58586.7
58574.4
58562.1
58549.8
58537.5
58525.2
58512.9
58500.6
58488.3
58476
58463.8
58451.5
58439.2
58426.9
58414.6
58402.4
58390.1
58377.8
58365.6
58353.3
58341
58328.8
58316.5
58304.2
58292
58279.7
58267.5
58255.2
58243
58230.8
58218.5
58206.3
58194
58181.8
58169.6
58157.3
58145.1
58132.9
58120.7
58108.4
58096.2
58084
58071.8
58059.6
58047.4
58035.2
58023
58010.8
57998.6
57986.4
57974.2
57962
57949.8
57937.6
57925.4
57913.2
57901
57888.8
57876.7
57864.5
57852.3
57840.1
57828
57815.8
57803.6
57791.5
57779.3
57767.1
57755
57742.8
57730.7
57718.5
57706.4
57694.2
57682.1
57670
57657.8
57645.7
57633.5
57621.4
57609.3
57597.1
57585
57572.9
57560.8
57548.7
57536.5
57524.4
57512.3
57500.2
57488.1
57476
57463.9
57451.8
57439.7
57427.6
57415.5
57403.4
57391.3
57379.2
57367.1
57355
57343
57330.9
57318.8
57306.7
57294.6
57282.6
57270.5
57258.4
57246.4
57234.3
57222.2
57210.2
57198.1
57186.1
57174
57162
57149.9
57137.9
57125.8
57113.8
57101.8
57089.7
57077.7
57065.7
57053.6
57041.6
57029.6
57017.5
57005.5
56993.5
56981.5
56969.5
56957.5
56945.5
56933.4
56921.4
56909.4
56897.4
56885.4
56873.4
56861.4
56849.4
56837.5
56825.5
56813.5
56801.5
56789.5
56777.5
56765.6
56753.6
56741.6
56729.6
56717.7
56705.7
56693.7
56681.8
56669.8
56657.9
56645.9
56633.9
56622
56610
56598.1
56586.1
56574.2
56562.3
56550.3
56538.4
56526.4
56514.5
56502.6
56490.7
56478.7
56466.8
56454.9
56443
56431.1
56419.1
56407.2
56395.3
56383.4
56371.5
56359.6
56347.7
56335.8
56323.9
56312
56300.1
56288.2
56276.3
56264.4
56252.6
56240.7
56228.8
56216.9
56205
56193.2
56181.3
56169.4
56157.5
56145.7
56133.8
56122
56110.1
56098.2
56086.4
56074.5
56062.7
56050.8
56039
56027.1
56015.3
56003.5
55991.6
55979.8
55968
55956.1
55944.3
55932.5
55920.6
55908.8
55897
55885.2
55873.4
55861.6
55849.8
55838
55826.2
55814.4
55802.6
55790.8
55779
55767.2
55755.4
55743.6
55731.8
55720
55708.2
55696.4
55684.6
55672.8
55661.1
55649.3
55637.6
55625.9
55614.2
55602.5
55591
55579.4
55568
55556.6
55545.4
55534.2
55523
55511.8
55500.5
55488.9
55477
55464.8
55452.5
55440.3
55428.1
55416
55404.1
55392.2
55380.6
55369.1
55357.8
55346.7
55336
55325.5
55315.3
55305.6
55296.1
55287
55278
55269
55259.8
55249.9
55239.1
55227.3
55214.6
55201.3
55187.7
55174.2
55160.9
55147.8
55135
55122.4
55110.1
55098.1
55086.4
55075.1
55064
55053.3
55043
55033
55023.3
55013.9
55004.8
54995.9
54987.1
54978.2
54969.1
54959.3
54948.9
54937.6
54925.6
54913
54899.9
54886.5
54873
54859.6
54846.4
54833.3
54820.4
54807.7
54795.1
54782.8
54770.6
54758.6
54746.8
54735.2
54723.9
54712.7
54701.7
54691
54680.4
54670
54659.8
54649.7
54639.7
54629.8
54619.9
54610
54600
54589.7
54579.1
54568
54556.4
54544.4
54532.1
54519.4
54506.6
54493.7
54480.8
54468
54455.3
54442.7
54430.2
54417.8
54405.5
54393.3
54381.2
54369.2
54357.4
54345.7
54334.1
54322.6
54311.2
54300
54288.9
54277.8
54266.9
54256.1
54245.4
54234.8
54224.3
54213.8
54203.4
54193
54182.6
54172.2
54161.6
54150.9
54139.9
54128.7
54117.1
54105.3
54093.2
54080.9
54068.5
54056
54043.5
54031
54018.6
54006.3
53994
53981.7
53969.6
53957.5
53945.5
53933.5
53921.6
53909.8
53898.1
53886.4
53874.9
53863.4
53852
53840.6
53829.4
53818.2
53807.1
53796.1
53785.2
53774.3
53763.5
53752.7
53742
53731.4
53720.8
53710.2
53699.7
53689.1
53678.6
53667.9
53657.2
53646.2
53635.1
53623.7
53612.1
53600.3
53588.3
53576.2
53564
53551.7
53539.4
53527.2
53515
53502.8
53490.7
53478.6
53466.6
53454.6
53442.6
53430.7
53418.9
53407.1
53395.4
53383.7
53372.1
53360.5
53349
53337.5
53326.1
53314.8
53303.5
53292.3
53281.1
53270
53259
53248
53237.1
53226.2
53215.4
53204.6
53193.9
53183.3
53172.6
53162.1
53151.5
53141
53130.5
53120
53109.4
53098.9
53088.1
53077.3
53066.2
53055
53043.5
53031.8
53020
53008
52996
52983.8
52971.7
52959.5
52947.4
52935.4
52923.3
52911.3
52899.3
52887.4
52875.4
52863.5
52851.7
52839.9
52828.1
52816.3
52804.6
52793
52781.3
52769.7
52758.2
52746.7
52735.2
52723.8
52712.4
52701.1
52689.8
52678.5
52667.3
52656.2
52645.1
52634
52623
52612
52601.1
52590.2
52579.3
52568.5
52557.8
52547.1
52536.4
52525.8
52515.2
52504.7
52494.2
52483.7
52473.3
52462.9
52452.4
52442
52431.4
52420.7
52409.9
52398.9
52387.7
52376.3
52364.7
52352.9
52341
52329
52316.9
52304.9
52292.8
52280.7
52268.7
52256.7
52244.7
52232.7
52220.8
52208.8
52196.9
52185
52173.1
52161.3
52149.4
52137.6
52125.8
52113.9
52102.2
52090.4
52078.6
52066.9
52055.2
52043.4
52031.7
52020.1
52008.4
51996.7
51985.1
51973.5
51961.9
51950.3
51938.7
51927.1
51915.5
51904
51892.5
51880.9
51869.4
51857.9
51846.5
51835
51823.6
51812.1
51800.7
51789.3
51777.9
51766.5
51755.1
51743.8
51732.4
51721.1
51709.8
51698.5
51687.2
51675.9
51664.6
51653.4
51642.2
51631
51619.8
51608.6
51597.4
51586.3
51575.2
51564.1
51553
51541.9
51530.9
51519.9
51508.9
51497.9
51487
51476
51465.1
51454.2
51443.4
51432.5
51421.7
51410.9
51400
51389.2
51378.3
51367.4
51356.4
51345.4
51334.3
51323.3
51312.2
51301.1
51290
51279
51267.9
51256.9
51245.9
51235
51224
51213.1
51202.2
51191.4
51180.5
51169.8
51159
51148.4
51137.8
51127.2
51116.7
51106.3
51095.9
51085.7
51075.5
51065.3
51055.3
51045.2
51035.2
51025.2
51015.2
51004.9
50994.5
50983.8
50972.9
50961.7
50950.4
50939
50927.6
50916.2
50904.9
50893.6
50882.4
50871.2
50860
50848.9
50837.8
50826.8
50815.8
50804.9
50794.1
50783.3
50772.5
50761.9
50751.3
50740.7
50730.3
50719.9
50709.6
50699.4
50689.2
50679.1
50669.1
50659.1
50649
50638.9
50628.7
50618.3
50607.6
50596.7
50585.6
50574.3
50563
50551.6
50540.3
50529
50517.7
50506.5
50495.3
50484.2
50473.1
50462
50451
50440.1
50429.2
50418.3
50407.5
50396.8
50386.2
50375.6
50365.1
50354.6
50344.2
50333.9
50323.7
50313.5
50303.4
50293.2
50283.1
50273
50262.7
50252.3
50241.7
50230.9
50219.9
50208.7
50197.5
50186.2
50174.9
50163.7
50152.5
50141.3
50130.2
50119.1
50108
50097
50086.1
50075.2
50064.3
50053.5
50042.8
50032.1
50021.5
50011
50000.5
49990.2
49979.9
49969.6
49959.5
49949.4
49939.3
49929.3
49919.3
49909.2
49899
49888.7
49878.1
49867.4
49856.4
49845.3
49834.1
49822.8
49811.5
49800.3
49789.1
49777.9
49766.8
49755.7
49744.6
49733.6
49722.7
49711.8
49701
49690.2
49679.5
49668.9
49658.3
49647.8
49637.5
49627.2
49616.9
49606.8
49596.8
49586.8
49576.8
49566.9
49557.1
49547.2
49537.2
49527.1
49516.8
49506.2
49495.4
49484.4
49473.3
49462
49450.7
49439.4
49428.2
49417
49405.8
49394.7
49383.6
49372.6
49361.6
49350.6
49339.8
49329
49318.3
49307.6
49297
49286.6
49276.2
49265.8
49255.6
49245.5
49235.5
49225.5
49215.6
49205.8
49196.1
49186.3
49176.5
49166.7
49156.7
49146.6
49136.2
49125.5
49114.6
49103.6
49092.4
49081.1
49069.8
49058.6
49047.3
49036.2
49025
49013.9
49002.9
48991.9
48981
48970.1
48959.3
48948.6
48937.9
48927.3
48916.9
48906.5
48896.2
48885.9
48875.8
48865.8
48855.9
48846
48836.3
48826.5
48816.9
48807.2
48797.5
48787.8
48777.9
48767.8
48757.5
48746.9
48736.1
48725.1
48714
48702.8
48691.5
48680.3
48669.1
48658
48646.9
48635.8
48624.8
48613.8
48602.9
48592.1
48581.3
48570.6
48560
48549.4
48538.9
48528.6
48518.3
48508.1
48498
48488
48478.1
48468.3
48458.6
48448.9
48439.3
48429.7
48420.1
48410.5
48400.7
48390.9
48380.8
48370.4
48359.8
48349.1
48338.1
48327
48315.8
48304.7
48293.5
48282.4
48271.3
48260.3
48249.3
48238.3
48227.4
48216.6
48205.8
48195.1
48184.4
48173.9
48163.4
48153
48142.7
48132.4
48122.3
48112.3
48102.3
48092.5
48082.7
48073
48063.4
48053.8
48044.3
48034.8
48025.3
48015.6
48005.8
47995.9
47985.7
47975.3
47964.7
47953.8
47942.9
47931.8
47920.7
47909.6
47898.6
47887.5
47876.5
47865.6
47854.7
47843.8
47833
47822.2
47811.5
47800.9
47790.4
47779.9
47769.5
47759.2
47748.9
47738.8
47728.8
47718.8
47709
47699.2
47689.5
47679.9
47670.4
47660.9
47651.4
47642
47632.5
47622.9
47613.2
47603.2
47593.1
47582.8
47572.2
47561.5
47550.6
47539.6
47528.6
47517.6
47506.6
47495.6
47484.7
47473.8
47463
47452.2
47441.4
47430.7
47420.1
47409.5
47399
47388.6
47378.2
47368
47357.8
47347.7
47337.7
47327.8
47318
47308.2
47298.6
47289
47279.5
47270.1
47260.7
47251.3
47241.9
47232.5
47222.9
47213.1
47203.2
47193
47182.6
47172
47161.3
47150.5
47139.6
47128.6
47117.7
47106.8
47095.9
47085.1
47074.2
47063.5
47052.8
47042.1
47031.5
47020.9
47010.4
47000
46989.7
46979.4
46969.2
46959.1
46949.1
46939.2
46929.4
46919.7
46910.1
46900.5
46891
46881.6
46872.3
46863
46853.6
46844.3
46834.9
46825.4
46815.7
46805.8
46795.7
46785.4
46774.9
46764.3
46753.5
46742.7
46731.8
46720.9
46710.1
46699.3
46688.5
46677.8
46667.1
46656.4
46645.8
46635.2
46624.7
46614.3
46603.9
46593.7
46583.4
46573.3
46563.3
46553.3
46543.5
46533.7
46524
46514.5
46505
46495.6
46486.2
46476.9
46467.7
46458.5
46449.3
46440
46430.6
46421
46411.3
46401.4
46391.2
46380.9
46370.4
46359.7
46349
46338.2
46327.4
46316.6
46305.8
46295.1
46284.4
46273.7
46263.1
46252.5
46242
46231.5
46221.1
46210.8
46200.5
46190.3
46180.2
46170.2
46160.2
46150.4
46140.6
46131
46121.4
46112
46102.6
46093.3
46084.1
46074.9
46065.8
46056.7
46047.6
46038.4
46029
46019.6
46009.9
46000
45989.9
45979.6
45969.2
45958.6
45947.9
45937.2
45926.4
45915.7
45905
45894.3
45883.6
45873
45862.4
45851.9
45841.4
45831
45820.6
45810.3
45800.1
45790
45779.9
45769.9
45760.1
45750.3
45740.6
45731
45721.5
45712.1
45702.9
45693.6
45684.5
45675.4
45666.4
45657.4
45648.4
45639.3
45630.2
45620.9
45611.4
45601.7
45591.7
45581.6
45571.3
45560.8
45550.3
45539.6
45528.9
45518.2
45507.6
45496.9
45486.3
45475.7
45465.1
45454.6
45444.2
45433.8
45423.4
45413.1
45402.9
45392.7
45382.7
45372.7
45362.8
45353
45343.4
45333.8
45324.3
45314.9
45305.7
45296.5
45287.4
45278.4
45269.5
45260.6
45251.7
45242.8
45233.8
45224.7
45215.5
45206.1
45196.5
45186.7
45176.6
45166.4
45156
45145.5
45134.9
45124.3
45113.7
45103
45092.4
45081.8
45071.3
45060.8
45050.3
45039.9
45029.5
45019.2
45008.9
44998.7
44988.6
44978.6
44968.6
44958.8
44949.1
44939.4
44929.9
44920.5
44911.2
44902
44892.9
44883.8
44874.9
44866
44857.2
44848.5
44839.7
44830.9
44822
44812.9
44803.7
44794.3
44784.7
44774.8
44764.8
44754.6
44744.2
44733.8
44723.2
44712.6
44702.1
44691.5
44680.9
44670.4
44659.9
44649.4
44639
44628.6
44618.3
44608
44597.8
44587.7
44577.7
44567.7
44557.9
44548.1
44538.5
44528.9
44519.5
44510.2
44501
44491.9
44482.9
44474
44465.2
44456.4
44447.7
44439.1
44430.4
44421.7
44412.9
44404
44394.9
44385.6
44376.1
44366.4
44356.4
44346.3
44336.1
44325.7
44315.2
44304.7
44294.2
44283.6
44273.1
44262.6
44252.1
44241.7
44231.3
44221
44210.7
44200.4
44190.3
44180.2
44170.1
44160.2
44150.4
44140.6
44131
44121.5
44112.1
44102.8
44093.7
44084.6
44075.7
44066.8
44058.1
44049.4
44040.8
44032.2
44023.7
44015.1
44006.5
43997.8
43988.9
43979.9
43970.6
43961.2
43951.5
43941.6
43931.6
43921.4
43911
43900.6
43890.1
43879.6
43869.1
43858.7
43848.2
43837.8
43827.4
43817
43806.7
43796.4
43786.2
43776.1
43766.1
43756.1
43746.2
43736.4
43726.7
43717.2
43707.7
43698.4
43689.2
43680.1
43671.1
43662.2
43653.5
43644.8
43636.2
43627.7
43619.2
43610.8
43602.4
43593.9
43585.4
43576.7
43567.9
43558.8
43549.6
43540.1
43530.4
43520.6
43510.5
43500.3
43490
43479.7
43469.2
43458.8
43448.3
43437.9
43427.4
43417.1
43406.7
43396.4
43386.1
43375.9
43365.8
43355.7
43345.7
43335.8
43325.9
43316.2
43306.6
43297.1
43287.7
43278.5
43269.3
43260.3
43251.4
43242.6
43234
43225.4
43216.9
43208.5
43200.2
43191.9
43183.6
43175.3
43166.9
43158.4
43149.8
43140.9
43131.9
43122.6
43113.2
43103.5
43093.6
43083.6
43073.4
43063.2
43052.8
43042.4
43032
43021.6
43011.2
43000.8
42990.4
42980.1
42969.8
42959.6
42949.4
42939.3
42929.3
42919.4
42909.5
42899.7
42890.1
42880.5
42871.1
42861.8
42852.6
42843.5
42834.6
42825.8
42817.1
42808.5
42800.1
42791.7
42783.4
42775.2
42767
42758.8
42750.7
42742.4
42734.1
42725.6
42716.9
42708.1
42699
42689.7
42680.2
42670.6
42660.7
42650.7
42640.6
42630.3
42620
42609.6
42599.3
42588.9
42578.5
42568.2
42557.9
42547.6
42537.4
42527.2
42517.1
42507.1
42497.1
42487.2
42477.4
42467.7
42458.2
42448.7
42439.3
42430.1
42421
42412.1
42403.2
42394.5
42385.9
42377.5
42369.1
42360.9
42352.7
42344.6
42336.6
42328.5
42320.5
42312.4
42304.2
42295.9
42287.4
42278.8
42269.9
42260.8
42251.5
42242
42232.3
42222.5
42212.5
42202.3
42192.1
42181.8
42171.5
42161.1
42150.8
42140.4
42130.1
42119.9
42109.6
42099.4
42089.3
42079.2
42069.2
42059.3
42049.4
42039.7
42030
42020.5
42011.1
42001.8
41992.7
41983.6
41974.8
41966
41957.4
41948.9
41940.6
41932.3
41924.2
41916.1
41908.2
41900.2
41892.4
41884.5
41876.6
41868.6
41860.4
41852.2
41843.7
41835
41826.2
41817.1
41807.8
41798.4
41788.7
41778.9
41768.9
41758.9
41748.7
41738.4
41728.1
41717.8
41707.5
41697.2
41687
41676.7
41666.5
41656.4
41646.3
41636.3
41626.3
41616.4
41606.7
41597
41587.4
41577.9
41568.6
41559.4
41550.3
41541.4
41532.6
41523.9
41515.4
41507
41498.7
41490.6
41482.5
41474.6
41466.7
41458.9
41451.1
41443.4
41435.6
41427.7
41419.7
41411.6
41403.3
41394.8
41386.2
41377.3
41368.2
41358.9
41349.4
41339.8
41330
41320
41310
41299.8
41289.6
41279.3
41269.1
41258.8
41248.5
41238.3
41228.1
41218
41207.9
41197.8
41187.8
41177.9
41168.1
41158.3
41148.7
41139.2
41129.8
41120.5
41111.3
41102.3
41093.5
41084.7
41076.2
41067.7
41059.4
41051.2
41043.2
41035.3
41027.5
41019.7
41012.1
41004.4
40996.8
40989.2
40981.6
40973.8
40966
40958
40949.8
40941.4
40932.8
40924
40915
40905.8
40896.5
40886.9
40877.2
40867.3
40857.3
40847.3
40837.1
40826.8
40816.6
40806.3
40796.1
40785.8
40775.6
40765.4
40755.3
40745.2
40735.2
40725.3
40715.4
40705.6
40695.9
40686.4
40676.9
40667.6
40658.4
40649.3
40640.4
40631.6
40623
40614.6
40606.3
40598.1
40590.1
40582.2
40574.4
40566.7
40559.1
40551.6
40544.2
40536.7
40529.3
40521.8
40514.3
40506.6
40498.8
40490.9
40482.7
40474.3
40465.8
40457.1
40448.1
40439
40429.7
40420.2
40410.5
40400.7
40390.7
40380.7
40370.5
40360.3
40350.1
40339.8
40329.6
40319.4
40309.2
40299
40288.9
40278.8
40268.8
40258.9
40249.1
40239.3
40229.6
40220.1
40210.7
40201.4
40192.2
40183.2
40174.3
40165.6
40157
40148.6
40140.3
40132.2
40124.2
40116.4
40108.7
40101.1
40093.6
40086.2
40078.9
40071.6
40064.3
40057.1
40049.7
40042.3
40034.7
40027
40019.1
40011
40002.8
39994.3
39985.7
39976.9
39967.8
39958.6
39949.2
39939.6
39929.9
39920.1
39910.1
39900
39889.8
39879.6
39869.4
39859.2
39849
39838.8
39828.7
39818.5
39808.5
39798.5
39788.5
39778.7
39768.9
39759.2
39749.6
39740.2
39730.9
39721.7
39712.6
39703.7
39695
39686.4
39678
39669.7
39661.6
39653.7
39645.9
39638.2
39630.7
39623.3
39615.9
39608.7
39601.6
39594.4
39587.3
39580.2
39573.1
39565.8
39558.4
39550.9
39543.2
39535.3
39527.3
39519
39510.6
39502
39493.2
39484.2
39475
39465.6
39456
39446.4
39436.5
39426.6
39416.5
39406.4
39396.2
39386
39375.7
39365.5
39355.3
39345.2
39335.1
39325
39315
39305
39295.2
39285.4
39275.7
39266.2
39256.7
39247.4
39238.2
39229.2
39220.3
39211.6
39203
39194.7
39186.4
39178.4
39170.5
39162.8
39155.2
39147.8
39140.4
39133.3
39126.2
39119.1
39112.2
39105.2
39098.3
39091.4
39084.4
39077.2
39070
39062.6
39055.1
39047.3
39039.5
39031.4
39023.1
39014.6
39006
38997.2
38988.1
38978.9
38969.5
38960
38950.3
38940.4
38930.5
38920.4
38910.3
38900.1
38889.9
38879.7
38869.5
38859.3
38849.2
38839.1
38829
38819.1
38809.1
38799.3
38789.6
38779.9
38770.4
38761
38751.7
38742.6
38733.6
38724.8
38716.2
38707.7
38699.4
38691.2
38683.3
38675.5
38667.8
38660.4
38653
38645.8
38638.7
38631.8
38624.9
38618.1
38611.3
38604.5
38597.7
38590.9
38584
38577
38569.9
38562.6
38555.1
38547.5
38539.8
38531.8
38523.7
38515.4
38506.9
38498.2
38489.3
38480.3
38471.1
38461.7
38452.1
38442.4
38432.6
38422.7
38412.7
38402.6
38392.4
38382.3
38372.1
38361.9
38351.8
38341.7
38331.6
38321.6
38311.7
38301.8
38292
38282.2
38272.6
38263.1
38253.7
38244.4
38235.3
38226.3
38217.5
38208.9
38200.4
38192
38183.9
38175.9
38168.1
38160.5
38153
38145.7
38138.5
38131.5
38124.6
38117.8
38111.1
38104.4
38097.8
38091.2
38084.6
38078
38071.3
38064.5
38057.6
38050.5
38043.4
38036
38028.6
38020.9
38013.1
38005.2
37997
37988.7
37980.2
37971.6
37962.7
37953.7
37944.5
37935.2
37925.7
37916
37906.2
37896.3
37886.3
37876.2
37866.1
37855.8
37845.6
37835.4
37825.2
37815
37804.9
37794.7
37784.7
37774.7
37764.8
37754.9
37745.2
37735.6
37726.1
37716.7
37707.5
37698.4
37689.5
37680.8
37672.2
37663.9
37655.7
37647.7
37639.9
37632.3
37624.9
37617.7
37610.6
37603.7
37597
37590.4
37583.9
37577.5
37571.2
37564.9
37558.7
37552.5
37546.2
37539.9
37533.5
37526.9
37520.3
37513.4
37506.5
37499.3
37492
37484.5
37476.9
37469
37461
37452.7
37444.3
37435.6
37426.7
37417.6
37408.2
37398.7
37388.9
37379
37368.9
37358.6
37348.2
37337.8
37327.3
37316.7
37306.2
37295.8
37285.3
37274.9
37264.7
37254.5
37244.4
37234.4
37224.6
37214.9
37205.5
37196.2
37187.1
37178.2
37169.5
37161.1
37152.9
37144.9
37137.2
37129.6
37122.3
37115.3
37108.4
37101.7
37095.1
37088.7
37082.4
37076.2
37070.1
37064