/*--------------------------------*- C++ -*----------------------------------*\
  =========                 |
  \\      /  F ield         | OpenFOAM: The Open Source CFD Toolbox
   \\    /   O peration     | Website:  https://openfoam.org
    \\  /    A nd           | Version:  9
     \\/     M anipulation  |
\*---------------------------------------------------------------------------*/
FoamFile
{
    format      ascii;
    class       volScalarField;
    location    "0.001";
    object      mag(U);
}
// * * * * * * * * * * * * * * * * * * * * * * * * * * * * * * * * * * * * * //

dimensions      [0 1 -1 0 0 0 0];

internalField   nonuniform List<scalar> 
10000
(
9.09386e-13
9.00317e-13
8.00318e-13
7.50532e-13
8.06827e-13
7.66942e-13
6.20445e-13
5.90593e-13
5.20098e-13
4.7608e-13
5.1022e-13
4.07189e-13
4.2894e-13
5.29383e-13
4.85498e-13
4.74424e-13
6.03693e-13
6.60984e-13
6.43531e-13
6.66684e-13
7.06774e-13
6.48122e-13
7.26053e-13
7.74907e-13
7.65842e-13
7.51608e-13
7.47701e-13
6.88508e-13
5.89269e-13
4.93386e-13
4.18379e-13
5.0319e-13
6.03214e-13
5.87551e-13
4.79475e-13
5.19032e-13
6.32693e-13
6.23458e-13
5.65315e-13
6.21593e-13
7.01454e-13
8.2154e-13
1.05741e-12
1.07833e-12
8.61479e-13
7.18691e-13
5.01e-13
3.53944e-13
3.53227e-13
2.63366e-13
2.075e-13
2.35651e-13
2.29919e-13
2.9519e-13
3.33174e-13
3.56508e-13
4.13438e-13
4.5601e-13
4.90237e-13
5.3923e-13
6.13105e-13
6.18728e-13
7.99581e-13
7.55066e-13
7.19848e-13
7.48608e-13
6.56953e-13
6.3703e-13
5.4224e-13
4.47253e-13
4.59007e-13
5.50745e-13
5.14209e-13
6.46626e-13
8.11793e-13
8.41776e-13
7.66446e-13
7.33938e-13
6.14084e-13
5.26178e-13
4.41645e-13
3.66974e-13
2.948e-13
3.57198e-13
2.88189e-13
1.80888e-13
2.23047e-13
1.82698e-13
1.72225e-13
2.16241e-13
2.58029e-13
2.53451e-13
3.38524e-13
3.78042e-13
5.01585e-13
6.05803e-13
6.73807e-13
8.02161e-13
8.46469e-13
8.06851e-13
8.69931e-13
9.35166e-13
9.34789e-13
9.41165e-13
8.75284e-13
8.29156e-13
7.44231e-13
5.59359e-13
4.72403e-13
5.62753e-13
4.8166e-13
3.37228e-13
2.58481e-13
1.91211e-13
8.67702e-14
1.14901e-13
1.39631e-13
1.47349e-13
2.32337e-13
2.39543e-13
1.72062e-13
1.73699e-13
2.91344e-13
2.36246e-13
2.1673e-13
2.06636e-13
2.20498e-13
1.36597e-13
7.57191e-14
3.78901e-14
8.94084e-15
5.09311e-14
2.75536e-15
3.48479e-15
2.08254e-14
5.18118e-14
1.05821e-13
1.9242e-13
1.85704e-13
1.86137e-13
2.06742e-13
2.34704e-13
1.61146e-13
2.95798e-14
1.36962e-14
9.89427e-15
6.39826e-14
5.79052e-16
4.31347e-14
2.12418e-13
2.5495e-13
2.04685e-13
1.67749e-13
3.66282e-14
4.07982e-14
5.47224e-14
5.63417e-14
1.6412e-13
5.70624e-14
6.22099e-14
1.57568e-13
1.91369e-13
1.00764e-13
1.03189e-13
1.17549e-13
1.89681e-13
3.41731e-13
3.93155e-13
3.24687e-13
1.40889e-13
5.28827e-14
2.68469e-13
4.31702e-13
5.56053e-13
6.00255e-13
6.39513e-13
5.50437e-13
4.13591e-13
2.63815e-13
1.45986e-13
5.12178e-14
8.16656e-15
1.7066e-14
4.20835e-14
1.01321e-13
1.42241e-13
1.76796e-13
2.08015e-13
2.58978e-13
3.13947e-13
3.20034e-13
3.45334e-13
2.85114e-13
3.12304e-13
2.00311e-13
5.96283e-14
3.37031e-13
4.18258e-13
3.9702e-13
4.69143e-13
5.17964e-13
5.90313e-13
6.57086e-13
4.89305e-13
2.78576e-13
2.06712e-14
1.11777e-13
1.33821e-13
6.9301e-16
5.4231e-14
2.09946e-14
2.64665e-14
5.31249e-14
1.6781e-14
8.83855e-14
1.14719e-13
1.37952e-13
1.24152e-13
2.5738e-14
2.01122e-15
3.61547e-14
3.0069e-14
1.48094e-13
1.84188e-13
1.61603e-13
1.9126e-13
2.81853e-13
3.88286e-13
4.81035e-13
4.73767e-13
4.02463e-13
4.14673e-13
3.61568e-13
2.48635e-13
1.39953e-13
9.0461e-14
3.82091e-14
2.13813e-13
2.77487e-13
1.79685e-13
4.91756e-14
3.91098e-14
1.56276e-13
1.64404e-13
1.61178e-13
2.28638e-13
2.82495e-13
2.2753e-13
2.22833e-13
2.09882e-13
2.12823e-13
2.35422e-13
1.62361e-13
1.51585e-13
2.52552e-13
2.14721e-13
1.75306e-13
2.00598e-13
2.17853e-13
1.86907e-13
1.78458e-13
1.72788e-13
6.95381e-14
1.22181e-14
1.47581e-13
1.84281e-13
1.44759e-13
2.32719e-13
3.00025e-13
2.5337e-13
2.292e-13
1.62535e-13
8.15906e-14
1.0799e-13
1.82455e-13
1.57546e-13
6.98352e-14
3.20478e-14
1.91824e-14
2.46775e-14
3.4701e-16
2.05572e-14
4.93316e-16
9.37215e-15
2.50591e-14
3.4526e-15
7.48794e-14
1.15956e-13
1.25103e-13
1.69763e-13
2.4477e-13
2.69668e-13
3.00967e-13
1.37706e-13
4.07896e-14
1.44827e-13
4.97283e-14
1.54878e-13
2.04616e-13
1.79494e-13
2.24054e-13
2.26407e-13
1.90386e-13
2.8281e-13
2.983e-13
2.10057e-13
1.35334e-13
1.66077e-13
1.9673e-13
1.40907e-13
1.31048e-13
6.68725e-14
1.39504e-14
4.0006e-14
1.16881e-14
1.07272e-13
6.81818e-14
1.1582e-13
2.61227e-13
3.21858e-13
2.82877e-13
2.69257e-13
2.74399e-13
2.79973e-13
2.03782e-13
2.20235e-13
1.96086e-13
2.36496e-13
2.30968e-13
8.69433e-14
8.43991e-14
6.31027e-15
1.09874e-14
4.31463e-14
8.02578e-14
7.04271e-14
1.04686e-13
2.50027e-13
3.3969e-13
4.41023e-13
5.30637e-13
4.73339e-13
4.78503e-13
5.1023e-13
4.78158e-13
4.73135e-13
5.08422e-13
4.0383e-13
2.59895e-13
2.79015e-13
3.642e-13
4.20613e-13
3.1452e-13
3.22199e-13
3.23877e-13
2.85964e-13
2.89997e-13
2.52255e-13
1.24449e-13
5.66503e-14
7.35124e-14
1.0936e-14
1.04109e-13
4.62565e-14
2.25392e-18
2.38225e-14
2.20003e-14
1.58205e-14
4.12588e-14
8.67738e-14
2.92027e-14
1.07206e-13
1.45762e-13
7.42758e-15
1.07001e-13
5.13522e-14
2.97191e-14
6.93277e-14
5.48165e-14
2.15701e-14
9.80599e-14
1.37667e-13
1.97707e-13
2.82487e-13
3.84371e-13
3.181e-13
2.31712e-13
8.75347e-14
6.27594e-14
3.13872e-14
1.09463e-13
1.21338e-13
1.77256e-13
2.11065e-13
2.04458e-13
1.378e-13
1.0327e-13
2.98707e-14
7.40501e-15
1.42633e-13
1.92652e-13
1.87401e-13
2.30843e-13
2.81584e-13
2.45645e-13
2.88135e-13
3.44297e-13
3.40501e-13
3.13108e-13
3.55029e-13
3.4289e-13
3.86148e-13
3.36953e-13
2.79322e-13
2.67135e-13
2.24963e-13
2.60325e-13
2.88162e-13
2.68638e-13
3.31879e-13
2.93519e-13
2.4618e-13
3.01321e-13
2.11041e-13
1.46601e-13
1.09286e-13
2.03889e-14
7.38415e-14
7.22003e-14
4.91469e-14
1.13221e-13
1.63951e-13
1.05701e-13
8.98213e-15
9.27667e-14
1.73512e-13
1.99886e-13
5.16487e-14
2.04352e-14
1.50938e-14
1.66351e-13
1.74628e-13
1.94536e-13
3.4166e-13
2.38681e-13
1.99374e-13
2.37445e-13
2.10023e-13
1.01163e-13
3.95533e-14
5.42537e-14
4.71545e-14
2.04657e-14
9.92687e-15
7.66544e-14
1.87893e-13
2.70657e-13
2.16987e-13
1.63075e-13
1.26654e-13
4.59632e-15
1.02729e-13
1.48841e-13
2.30688e-13
3.26612e-13
4.74062e-13
5.06396e-13
4.85633e-13
4.50798e-13
4.27851e-13
3.65898e-13
3.5105e-13
4.20298e-13
3.76396e-13
4.60599e-13
6.36318e-13
6.93474e-13
6.5277e-13
6.18884e-13
5.54838e-13
4.84359e-13
4.30152e-13
2.92373e-13
1.73581e-13
2.53326e-14
9.94325e-14
2.34067e-13
3.36268e-13
2.69764e-13
1.8094e-13
1.25096e-13
8.66522e-14
1.44342e-14
8.17997e-14
4.53611e-14
4.57501e-14
4.97919e-14
2.00174e-14
1.77284e-14
7.29199e-14
1.74524e-13
2.01191e-13
2.1821e-13
1.29584e-13
2.92784e-14
1.31293e-13
1.13377e-13
7.42966e-14
1.66949e-13
2.01773e-13
2.67967e-13
2.72627e-13
1.2054e-13
1.43182e-13
2.87499e-13
3.41009e-13
3.77452e-13
3.34471e-13
3.01928e-13
2.54051e-13
3.03109e-13
2.60314e-13
4.64016e-14
7.35286e-14
7.6509e-14
6.04048e-14
1.62604e-13
2.96966e-13
2.98115e-13
2.78707e-13
3.21197e-13
3.27766e-13
3.07439e-13
3.4617e-13
3.96356e-13
3.59421e-13
3.77883e-13
3.36953e-13
2.79322e-13
3.16728e-13
2.82821e-13
2.93386e-13
2.96427e-13
2.76904e-13
3.23614e-13
2.93519e-13
2.4618e-13
3.01321e-13
2.11041e-13
1.46601e-13
1.09286e-13
2.03889e-14
7.38415e-14
7.22003e-14
4.91469e-14
1.13221e-13
1.63951e-13
1.05701e-13
8.98213e-15
9.27667e-14
1.73512e-13
1.99886e-13
5.16487e-14
3.69661e-14
1.43707e-15
1.58085e-13
1.41566e-13
1.8627e-13
2.17678e-13
1.97353e-13
2.0764e-13
1.87853e-13
2.10023e-13
1.75552e-13
2.95782e-13
2.51568e-13
2.42136e-13
2.93226e-13
3.4881e-13
3.53149e-13
2.50176e-13
7.64924e-14
3.92419e-14
8.04202e-14
1.59716e-13
1.45109e-13
3.77839e-14
1.15779e-13
2.38953e-13
2.43958e-13
3.58345e-13
3.08025e-13
2.87262e-13
3.51612e-13
3.03869e-13
2.25385e-13
2.35334e-13
2.71519e-13
1.697e-13
2.12934e-13
2.72758e-13
2.63554e-13
3.1399e-13
3.21057e-13
1.91373e-13
2.03703e-13
3.14612e-13
2.76156e-13
2.31004e-13
3.20762e-14
1.07965e-13
2.50507e-13
3.36352e-13
2.69848e-13
3.05358e-13
3.07442e-13
2.69506e-13
2.75338e-13
9.21083e-14
3.59312e-15
1.01876e-13
1.15489e-13
1.19289e-13
1.49159e-13
1.14322e-13
6.83037e-14
2.02114e-14
1.19401e-13
1.33106e-13
1.03025e-13
1.65318e-13
2.47404e-13
2.15827e-13
2.49255e-13
2.8308e-13
2.24487e-13
6.47813e-14
2.01803e-13
4.24558e-13
5.27389e-13
5.38243e-13
4.67978e-13
4.41545e-13
4.25614e-13
3.79361e-13
3.29651e-13
2.60317e-13
2.12029e-13
1.6572e-13
2.81316e-13
2.57889e-13
1.96216e-13
1.98827e-13
2.16352e-13
1.96547e-13
1.95991e-13
2.43958e-13
2.31963e-13
3.04475e-13
3.96887e-13
3.09171e-13
2.70919e-13
3.04946e-13
2.96151e-13
2.50394e-13
2.26443e-13
2.02817e-13
1.13328e-13
3.48063e-14
1.40664e-13
1.36664e-13
8.21667e-14
1.13552e-13
6.38557e-14
5.04912e-15
5.76857e-14
6.93114e-14
1.16385e-13
6.90327e-14
7.27898e-14
1.70327e-13
1.54304e-13
7.30299e-14
1.56594e-14
8.29716e-14
3.08645e-14
7.91849e-15
3.36736e-15
4.98919e-14
3.65395e-14
1.24306e-13
8.46694e-14
2.98466e-16
7.56352e-14
1.15036e-13
1.97559e-13
1.63465e-13
1.56248e-13
1.80942e-13
1.57067e-13
1.83331e-13
3.32432e-13
3.99692e-13
3.79835e-13
4.01641e-13
2.4816e-13
2.07025e-13
2.43237e-13
2.20125e-13
1.9068e-13
3.22825e-13
3.56231e-13
2.30438e-13
1.85199e-13
1.25358e-13
1.48855e-13
2.69234e-13
2.73088e-13
2.90835e-13
2.47642e-13
2.80016e-13
2.29473e-13
6.84378e-14
2.67475e-14
3.0085e-14
2.45177e-14
3.25135e-14
5.07297e-14
1.56519e-13
2.55677e-13
3.57969e-13
5.44901e-13
6.48553e-13
5.69631e-13
4.78432e-13
2.30569e-13
2.06509e-14
6.51694e-14
4.71842e-14
1.74483e-13
2.56636e-13
2.25943e-13
2.91245e-13
1.9835e-13
1.19547e-13
1.28595e-13
8.3871e-14
3.07629e-14
5.96007e-14
1.46784e-13
7.55956e-14
5.41713e-14
3.55435e-14
6.47177e-14
1.10925e-13
1.24126e-13
1.00919e-13
1.25802e-13
2.33501e-13
3.57267e-13
3.31852e-13
2.61899e-13
2.27264e-13
2.19693e-13
2.33573e-13
1.80472e-13
1.26599e-13
1.35374e-13
2.8892e-14
1.09508e-13
9.21819e-14
1.94453e-14
5.09872e-14
1.05364e-13
1.23677e-13
1.47192e-13
5.90938e-14
6.28749e-15
2.64682e-14
1.47544e-14
6.12763e-14
2.92316e-14
7.84609e-14
1.67664e-13
2.08696e-13
1.94e-13
1.05615e-13
7.28785e-14
1.0411e-13
7.5045e-14
4.33331e-14
6.18158e-14
1.23741e-13
6.96675e-14
9.03743e-14
3.7407e-13
3.92117e-13
3.35215e-13
2.70196e-13
2.21191e-13
2.34001e-13
1.77544e-13
1.3763e-13
1.56438e-13
1.65346e-13
1.85344e-13
2.16478e-13
1.49762e-13
1.38213e-13
9.08781e-14
1.64779e-14
5.19894e-15
4.62159e-14
3.18707e-14
1.79995e-14
1.19482e-14
3.56023e-14
1.13475e-13
2.09059e-13
3.12461e-13
3.39249e-13
5.75461e-13
6.6441e-13
6.13805e-13
5.57259e-13
4.5262e-13
3.73442e-13
2.98421e-13
2.05612e-13
1.03474e-13
3.66818e-14
3.47716e-15
9.99506e-14
2.16515e-14
2.71482e-14
9.32094e-14
7.52294e-14
1.53278e-13
8.33277e-14
8.39063e-14
1.31288e-13
2.25886e-13
1.80247e-13
1.55869e-13
1.7402e-13
1.52381e-13
1.47346e-13
6.78402e-14
3.70507e-14
1.19429e-14
4.89248e-14
1.64839e-13
2.40073e-13
3.13246e-13
3.06896e-13
3.36869e-13
2.83982e-13
1.61356e-13
1.22818e-15
1.15522e-13
2.3931e-13
3.40323e-13
3.42943e-13
2.77625e-13
2.98067e-13
3.14658e-13
3.15442e-13
2.73786e-13
2.28505e-13
2.31247e-13
2.59007e-13
2.33047e-13
1.22811e-13
8.42896e-14
7.80985e-14
7.27375e-14
3.59587e-14
7.79167e-14
4.07979e-14
1.10663e-14
3.24274e-14
9.38559e-15
7.94274e-14
9.30637e-14
6.86445e-14
1.16609e-13
1.30021e-13
9.56731e-14
2.78249e-13
1.92646e-13
7.18403e-14
8.6279e-14
1.79198e-13
1.71817e-13
2.91446e-13
3.30932e-13
3.49287e-13
4.1569e-13
4.63618e-13
4.87997e-13
4.78085e-13
4.82068e-13
3.95509e-13
3.85295e-13
4.14605e-13
4.07726e-13
4.51216e-13
5.02791e-13
4.87878e-13
4.92393e-13
4.63491e-13
5.28604e-13
5.41578e-13
4.94516e-13
5.35678e-13
5.16409e-13
5.14438e-13
5.11599e-13
3.41964e-13
2.39412e-13
9.64554e-14
3.00197e-14
1.47037e-13
2.61617e-13
3.44191e-13
3.53787e-13
3.72573e-13
4.26347e-13
4.27502e-13
3.67012e-13
2.98419e-13
2.07203e-13
1.17601e-13
1.00285e-13
9.69745e-14
2.03916e-13
3.10206e-13
3.38132e-13
2.9499e-13
3.14109e-13
3.32245e-13
3.13878e-13
3.28667e-13
2.8485e-13
3.05222e-13
2.83414e-13
2.20405e-13
3.25707e-13
4.73542e-13
6.07384e-13
6.18944e-13
5.90369e-13
6.55299e-13
5.94286e-13
5.33596e-13
4.32791e-13
4.5172e-13
4.31823e-13
4.59343e-13
3.7041e-13
2.06079e-13
2.54752e-13
2.40231e-13
1.73557e-13
1.61173e-13
8.86995e-14
7.94372e-14
9.76135e-14
8.11715e-14
1.53514e-14
6.2673e-14
1.47408e-13
2.32729e-13
3.11452e-13
2.81363e-13
2.07013e-13
2.73842e-13
3.58483e-13
3.96609e-13
2.01009e-13
2.62537e-13
3.24665e-13
4.18728e-13
3.74522e-13
3.05709e-13
3.97235e-13
4.89308e-13
5.85262e-13
5.40203e-13
6.09024e-13
7.60096e-13
8.34507e-13
7.53641e-13
7.28623e-13
6.80717e-13
6.64724e-13
6.92358e-13
6.44936e-13
5.33282e-13
5.02107e-13
4.84816e-13
4.76814e-13
4.27813e-13
4.2553e-13
4.32128e-13
3.82727e-13
3.76346e-13
4.35709e-13
4.6664e-13
5.02073e-13
6.50199e-13
6.04405e-13
5.51298e-13
5.86684e-13
5.77545e-13
4.94043e-13
4.96258e-13
4.90879e-13
5.79685e-13
6.35386e-13
6.46647e-13
5.23859e-13
4.89842e-13
5.09909e-13
4.6661e-13
4.64837e-13
5.05138e-13
5.62137e-13
5.50646e-13
6.17994e-13
6.85083e-13
7.22193e-13
7.66808e-13
7.49809e-13
7.39073e-13
7.56466e-13
6.28475e-13
5.41322e-13
5.35691e-13
4.27462e-13
4.23428e-13
3.86318e-13
4.08691e-13
4.75266e-13
4.47845e-13
4.84882e-13
5.5096e-13
5.49578e-13
5.94192e-13
5.72834e-13
4.80129e-13
4.14397e-13
4.38156e-13
3.56531e-13
2.90093e-13
3.08174e-13
4.02284e-13
3.06167e-13
2.10781e-13
2.50711e-13
2.72078e-13
3.43711e-13
4.76475e-13
5.50981e-13
6.74076e-13
6.92101e-13
6.94609e-13
6.83741e-13
6.04392e-13
5.36813e-13
5.07637e-13
5.38058e-13
5.47116e-13
5.65408e-13
5.70835e-13
5.48319e-13
4.27081e-13
4.41806e-13
4.77587e-13
4.31099e-13
5.10707e-13
5.76518e-13
5.73395e-13
4.72315e-13
4.81881e-13
5.54302e-13
5.25264e-13
6.10506e-13
5.66902e-13
4.62869e-13
3.98284e-13
3.97469e-13
3.69593e-13
3.54904e-13
3.62128e-13
3.91837e-13
3.94789e-13
3.24407e-13
2.34929e-13
2.18062e-13
1.92286e-13
6.58939e-14
6.77527e-14
3.35982e-14
6.68779e-14
1.35835e-13
4.89409e-14
2.06015e-14
1.8603e-14
2.08743e-14
5.29899e-14
1.44207e-13
1.3496e-13
1.72275e-13
1.4852e-13
1.18392e-13
4.67789e-14
8.12481e-14
1.92989e-13
2.46228e-13
2.85e-13
3.99953e-13
4.75315e-13
4.1091e-13
3.5288e-13
4.61903e-13
4.96475e-13
4.37978e-13
3.47635e-13
2.39217e-13
1.98587e-13
2.75939e-13
3.99742e-13
3.75934e-13
3.9751e-13
4.14556e-13
3.52564e-13
3.06606e-13
3.08319e-13
3.22036e-13
2.8352e-13
2.87473e-13
2.38954e-13
2.41133e-13
2.96401e-13
2.48076e-13
2.70735e-13
2.31379e-13
2.26938e-13
1.65568e-13
2.87177e-13
2.54562e-13
3.27978e-13
3.44162e-13
3.04867e-13
2.57843e-13
2.47101e-13
3.0212e-13
3.18697e-13
3.01376e-13
3.80176e-13
3.86115e-13
3.19192e-13
2.5928e-13
2.00938e-13
1.98616e-13
3.12302e-13
3.64019e-13
2.65986e-13
2.52479e-13
3.34358e-13
4.45216e-13
4.8019e-13
3.56163e-13
4.07222e-13
4.19009e-13
3.09963e-13
3.27598e-13
2.58544e-13
1.99673e-13
2.83235e-13
3.51494e-13
2.57326e-13
6.80427e-14
1.05215e-14
1.04621e-13
9.92635e-14
4.36842e-14
1.455e-13
1.71647e-13
3.48392e-13
5.03747e-13
5.68014e-13
4.65618e-13
3.98459e-13
3.44017e-13
4.50747e-13
4.77557e-13
5.22399e-13
5.96532e-13
5.74725e-13
4.88728e-13
3.92537e-13
3.59975e-13
2.93994e-13
2.47064e-13
2.0909e-13
2.60418e-13
2.93539e-13
2.81064e-13
2.72213e-13
3.12168e-13
3.44621e-13
3.60144e-13
2.90421e-13
2.56189e-13
1.58458e-13
1.0252e-13
1.28222e-14
5.42431e-14
1.55041e-13
1.64354e-13
2.98372e-13
3.66083e-13
2.57415e-13
2.04005e-13
7.64381e-14
8.98953e-14
1.0861e-13
5.91828e-14
2.94729e-14
2.71563e-14
7.42859e-15
8.29119e-14
1.63427e-13
1.78868e-13
1.96508e-13
1.18724e-13
5.95998e-16
8.80031e-14
1.26823e-13
1.81524e-13
2.05114e-13
2.12152e-13
2.90758e-13
3.25459e-13
3.62391e-13
3.8782e-13
2.70563e-13
1.31144e-13
5.53324e-14
1.44237e-13
1.67866e-13
1.14118e-13
2.5235e-14
6.49337e-14
8.00754e-14
2.54707e-13
2.0308e-13
2.03603e-13
3.25456e-13
4.38067e-13
4.54063e-13
3.59647e-13
3.47933e-13
1.84475e-13
2.20964e-13
3.12436e-13
3.02652e-13
1.84275e-13
7.95606e-14
7.29567e-15
5.17582e-14
1.04045e-13
9.61435e-14
1.23839e-13
8.62893e-14
1.47495e-13
1.22563e-13
9.04219e-14
1.65926e-13
1.26877e-13
1.25295e-13
1.34853e-13
2.08721e-14
5.86043e-14
1.14618e-13
3.93254e-14
2.71015e-14
5.03844e-14
7.65283e-14
5.8009e-14
5.52621e-14
2.58077e-14
6.74463e-14
4.59803e-14
9.6402e-14
8.04991e-14
1.12269e-13
1.22299e-13
1.7732e-13
2.0342e-13
1.74362e-13
1.52871e-13
1.15043e-13
4.15965e-14
6.13942e-14
1.06118e-13
1.63064e-13
1.25414e-13
1.94149e-13
9.98662e-14
7.56473e-14
1.912e-13
3.66239e-13
5.05341e-13
4.61344e-13
4.86654e-13
4.58714e-13
4.18716e-13
4.38175e-13
4.79595e-13
4.90012e-13
5.53898e-13
4.95824e-13
3.67177e-13
3.20683e-13
3.58074e-13
3.16097e-13
3.49019e-13
3.86244e-13
2.47949e-13
1.00721e-13
4.0942e-14
1.75208e-14
5.11154e-14
3.31437e-14
9.82535e-14
1.79527e-13
2.08537e-13
2.71511e-13
2.54429e-13
2.89912e-13
2.97145e-13
3.58332e-13
3.51369e-13
2.92331e-13
1.97408e-13
1.34704e-13
6.93567e-14
7.3312e-15
5.20713e-15
3.47397e-14
3.97484e-14
2.75653e-14
2.31415e-14
8.86849e-15
2.74219e-14
9.76604e-15
4.30755e-14
3.4046e-14
8.07684e-15
6.18303e-14
2.82706e-14
5.42627e-14
9.0862e-14
9.53501e-15
1.04335e-13
4.58659e-14
1.50416e-14
2.38254e-16
1.54803e-14
5.61042e-15
7.67531e-14
1.65775e-13
2.91359e-13
3.65909e-13
2.92962e-13
2.06931e-13
1.63643e-13
2.29209e-13
3.25765e-13
3.9022e-13
2.18187e-13
3.47544e-14
9.55162e-14
1.25967e-13
7.62906e-14
9.71789e-14
1.85277e-13
2.51475e-13
2.69742e-13
2.60419e-13
2.87063e-13
3.28739e-13
2.56411e-13
2.56884e-13
2.33308e-13
1.11506e-13
2.17336e-14
5.1848e-14
1.14549e-13
1.48063e-13
1.8773e-13
1.2247e-13
9.88722e-14
7.06248e-14
3.32446e-15
7.09473e-14
2.93184e-14
9.2567e-15
2.53298e-14
5.6091e-14
1.83523e-14
4.35154e-14
3.67803e-14
7.08228e-14
1.05708e-13
5.19176e-14
6.64893e-14
1.21636e-13
1.28353e-13
3.27977e-14
9.97159e-14
1.2476e-13
2.18231e-13
2.59706e-13
2.23075e-13
1.8587e-13
2.30583e-13
1.90637e-13
1.06529e-13
1.42087e-13
1.48517e-13
1.08571e-13
1.19574e-13
8.42051e-14
5.5594e-14
8.24226e-14
5.11984e-14
2.64489e-14
9.76125e-14
2.06776e-13
2.28676e-13
2.61279e-13
1.66079e-13
1.6485e-13
1.31419e-13
1.50786e-13
2.1665e-13
1.7286e-13
6.31129e-14
1.61011e-14
7.41691e-14
1.0786e-13
8.79444e-14
9.62553e-14
1.15202e-13
1.63453e-13
3.72155e-14
3.83547e-14
7.95347e-14
4.90563e-14
4.53993e-14
1.41389e-13
1.4879e-13
1.19566e-13
1.69587e-13
1.12848e-13
3.09317e-14
5.73881e-14
4.17896e-14
9.12037e-14
1.32768e-13
2.34452e-13
2.76311e-13
3.59702e-13
4.54057e-13
4.46565e-13
5.02888e-13
5.73173e-13
5.30635e-13
5.37542e-13
5.62824e-13
4.43569e-13
3.53206e-13
3.36709e-13
2.60308e-13
1.61784e-13
9.7431e-14
1.02559e-14
6.78196e-14
8.8237e-14
2.45314e-15
1.16174e-13
2.09772e-13
1.71532e-13
1.95349e-13
1.75588e-13
2.09167e-13
1.92848e-13
2.00402e-13
2.34613e-13
2.14043e-13
2.10936e-13
2.69801e-13
3.41228e-13
2.69265e-13
2.14794e-13
2.85435e-13
1.50938e-13
1.19301e-14
4.60493e-14
8.83961e-14
1.09204e-13
1.70034e-13
2.67143e-13
2.58521e-13
2.82209e-13
3.25148e-13
3.50334e-13
3.2371e-13
3.46754e-13
2.94664e-13
2.04148e-13
1.30928e-13
6.71829e-14
4.04226e-14
1.07948e-13
1.57619e-13
1.59722e-13
1.88936e-13
1.74856e-13
2.1761e-13
2.80794e-13
2.88628e-13
3.12837e-13
1.97445e-13
8.03608e-15
6.22218e-14
3.91903e-14
2.02929e-14
2.41368e-14
1.4384e-13
1.02787e-13
1.34563e-13
1.63202e-13
2.28722e-13
2.09033e-13
4.07596e-13
4.14456e-13
4.58589e-13
5.17463e-13
3.81507e-13
3.64055e-13
4.22286e-13
3.39505e-13
2.29672e-13
2.05652e-13
2.35694e-13
2.1821e-13
2.58785e-13
2.51529e-13
1.82199e-13
6.16705e-14
2.68973e-14
2.91277e-14
3.53363e-14
1.62208e-13
1.98243e-13
2.27797e-13
2.94316e-13
2.89173e-13
2.35976e-13
1.52961e-13
1.76694e-14
7.71713e-14
2.10079e-13
1.35705e-13
5.12866e-14
9.92632e-14
4.92917e-14
8.32606e-14
1.42682e-13
1.57808e-13
1.24364e-13
1.73883e-13
2.30659e-13
2.78146e-13
1.75484e-13
8.12886e-14
1.69122e-14
1.36155e-14
5.76994e-14
5.94874e-14
8.68616e-14
6.21745e-14
8.90122e-14
1.75048e-13
1.19255e-13
6.83027e-14
7.41586e-14
1.21681e-14
6.25879e-14
2.73416e-14
8.26293e-14
2.77629e-13
2.43687e-13
2.78624e-13
3.22468e-13
3.13609e-13
1.9801e-13
1.50906e-13
2.02479e-13
3.02665e-13
4.21315e-13
3.86806e-13
4.46555e-13
5.00011e-13
4.40813e-13
3.04464e-13
2.55036e-13
1.70542e-13
1.07556e-13
1.23156e-13
4.99115e-14
1.4723e-14
4.77612e-14
1.15844e-13
1.6053e-13
5.27556e-14
1.13186e-13
7.9285e-14
7.70428e-14
2.46547e-15
5.59311e-14
4.87132e-14
3.66732e-14
9.6866e-14
5.30589e-14
8.5972e-14
1.92358e-13
3.00334e-13
3.5295e-13
4.34565e-13
4.53212e-13
3.81314e-13
3.33889e-13
3.65719e-13
3.46913e-13
3.67542e-13
3.95748e-13
4.9479e-13
5.08038e-13
6.29003e-13
6.70117e-13
6.54798e-13
6.15003e-13
5.88811e-13
5.42299e-13
4.32778e-13
3.79854e-13
4.15486e-13
3.41075e-13
3.287e-13
2.38789e-13
1.34063e-13
1.75203e-13
5.96887e-14
4.21294e-14
1.4771e-14
2.78122e-14
5.66166e-15
8.60958e-14
1.01665e-13
1.0361e-13
1.20074e-13
1.29793e-13
1.00979e-13
1.25517e-13
3.59753e-14
3.74265e-14
1.71456e-14
8.30864e-14
1.39709e-13
1.15442e-13
1.42624e-13
1.44865e-13
1.90921e-13
1.60674e-13
1.20447e-13
3.35504e-14
1.35115e-13
2.55385e-13
2.38866e-13
1.66586e-13
2.55942e-13
2.39707e-13
1.6393e-13
1.03878e-13
4.17344e-14
1.61312e-13
1.21411e-13
1.54399e-13
2.11581e-13
1.81998e-13
7.74734e-14
9.50194e-14
1.09995e-13
6.57141e-14
9.17048e-14
5.85929e-14
1.71697e-14
1.08132e-13
1.10161e-13
1.29353e-13
1.66274e-13
1.14832e-13
1.34018e-13
1.645e-13
4.52548e-14
5.35578e-14
4.91145e-14
2.83999e-14
1.78751e-13
2.90613e-13
3.84763e-13
3.64909e-13
2.68336e-13
1.38011e-13
1.73441e-13
1.04697e-13
4.56714e-14
3.1473e-14
1.07762e-13
1.73975e-13
1.15147e-13
5.52238e-14
5.25803e-15
8.01421e-14
1.28353e-13
2.07199e-13
2.08956e-13
1.35311e-13
1.05894e-13
2.18601e-13
1.73288e-13
1.5829e-13
1.23768e-13
2.29628e-14
1.19062e-13
1.73598e-13
2.26644e-13
1.932e-13
1.04564e-13
1.87973e-13
2.91429e-13
3.11433e-13
2.22786e-13
1.88549e-13
2.10537e-13
1.54902e-13
1.45935e-13
1.42943e-13
1.02157e-13
6.18077e-14
1.78749e-13
2.43013e-13
3.07788e-13
4.10245e-13
4.24391e-13
3.61574e-13
2.90727e-13
2.93834e-13
2.80133e-13
1.54282e-13
1.12005e-13
1.11562e-13
1.17278e-15
1.13755e-13
2.36574e-13
1.9943e-13
1.7263e-13
1.57297e-13
1.11991e-13
1.5892e-13
1.07379e-13
6.389e-14
1.13907e-13
1.29761e-13
1.95772e-13
1.56163e-13
1.98078e-13
1.74083e-13
1.21797e-13
1.23729e-13
2.02522e-13
2.12845e-13
2.22319e-13
2.08094e-13
1.41987e-13
2.13728e-13
1.30373e-13
4.82566e-14
2.94491e-14
1.84992e-14
1.3817e-13
2.4152e-13
3.29264e-13
3.76653e-13
4.64407e-13
4.84556e-13
4.66811e-13
3.96751e-13
3.56258e-13
4.38457e-13
5.46123e-13
5.62402e-13
5.04439e-13
4.45661e-13
3.46126e-13
3.39776e-13
2.4017e-13
2.17539e-13
2.06308e-13
1.3541e-13
5.28178e-14
4.46935e-14
5.36704e-14
5.73445e-14
1.53419e-13
1.03103e-13
3.17072e-14
5.76661e-14
1.0635e-13
4.13782e-14
6.98193e-15
1.00619e-13
1.48454e-13
2.89167e-14
7.38344e-14
1.09715e-13
1.24636e-13
1.50056e-13
2.05446e-13
1.53108e-13
1.85122e-13
2.13267e-13
1.6816e-13
1.68006e-13
7.65734e-14
8.25526e-15
5.04953e-14
8.85769e-14
1.18197e-13
1.05241e-13
1.54285e-13
1.59096e-13
9.48408e-14
1.01946e-13
1.76137e-13
1.71094e-13
7.26903e-14
5.12919e-14
2.54308e-14
5.28791e-15
1.56739e-14
5.09833e-14
3.74931e-14
1.03799e-13
1.80359e-13
1.33997e-13
7.39445e-14
2.02097e-14
6.14286e-14
8.6935e-14
1.7177e-14
5.145e-14
4.4746e-14
1.27721e-13
1.83051e-13
1.91846e-13
1.63723e-13
1.30976e-13
2.39501e-13
2.16592e-13
2.35949e-13
2.50667e-13
2.65823e-13
2.92011e-13
3.24964e-13
3.11167e-13
2.7976e-13
2.37871e-13
2.10254e-13
2.02543e-13
1.21574e-13
1.95947e-17
3.5941e-14
1.13633e-13
1.21465e-13
1.21781e-13
1.12539e-13
1.1071e-13
1.45499e-13
1.77089e-13
1.31825e-13
1.70216e-13
2.5612e-13
1.08023e-13
1.34732e-13
7.5574e-14
7.75931e-15
6.31933e-16
1.28346e-13
9.8708e-18
9.54619e-14
7.09586e-14
1.53806e-13
1.20868e-13
1.70353e-13
2.38554e-13
1.43184e-13
1.47357e-13
1.0077e-13
4.88613e-14
4.25726e-14
5.65398e-15
7.22082e-14
7.07097e-14
6.71847e-15
4.00057e-14
6.01062e-14
1.35496e-13
1.32177e-13
1.20647e-13
1.39307e-13
1.77007e-13
1.08617e-13
2.3472e-14
6.07289e-14
6.22668e-14
2.77512e-14
8.35889e-15
4.03066e-15
1.98905e-14
4.89416e-15
1.79562e-15
1.97518e-14
1.84192e-14
7.70088e-14
1.52116e-13
1.13326e-13
1.45965e-13
1.38334e-13
1.2464e-13
1.49276e-13
1.60186e-13
1.35394e-13
1.09305e-13
8.93651e-14
3.86064e-14
8.75473e-14
1.62392e-13
2.61878e-14
2.4131e-14
9.08193e-14
1.4309e-13
1.49498e-13
1.18595e-13
1.10297e-13
6.07342e-14
1.36612e-14
2.09179e-14
9.11764e-15
1.47229e-13
1.14607e-13
1.04529e-13
6.39364e-14
6.38811e-14
1.40705e-13
7.3565e-14
1.67968e-14
6.71866e-14
3.88421e-14
2.50905e-15
7.98555e-14
1.72961e-13
1.8147e-13
1.84632e-13
2.91036e-13
2.24947e-13
1.88449e-13
1.43906e-13
3.64957e-14
4.85018e-14
1.34164e-13
1.65344e-13
2.23412e-13
2.2185e-13
1.36367e-13
8.65142e-14
8.37222e-14
1.62077e-13
3.23257e-13
3.07445e-13
3.20504e-13
3.61444e-13
3.81689e-13
4.49663e-13
5.2282e-13
4.71506e-13
4.22939e-13
4.7122e-13
4.12873e-13
3.98968e-13
3.80625e-13
3.13291e-13
2.2068e-13
1.12043e-13
4.60413e-14
2.01023e-14
3.69315e-14
9.14095e-14
1.61412e-13
1.32182e-13
1.63533e-13
3.19845e-14
5.48848e-15
1.20872e-13
8.94202e-14
2.84979e-14
2.11926e-15
9.21077e-15
1.22605e-14
1.07575e-14
8.51749e-14
1.13549e-13
3.98781e-14
1.38954e-14
9.23229e-15
7.95057e-14
1.09994e-14
4.09828e-14
4.17372e-14
3.18937e-14
2.64695e-14
4.50557e-14
3.20774e-14
2.91619e-14
1.65834e-14
8.39137e-15
3.81886e-14
1.28098e-13
1.15505e-13
2.26902e-14
7.47093e-14
4.90116e-14
5.52061e-14
9.71087e-15
3.6211e-14
8.92116e-14
1.19147e-13
1.13775e-13
1.60021e-14
8.13315e-14
1.08745e-13
2.33853e-13
3.23139e-13
2.79409e-13
2.6042e-13
3.00868e-13
1.90632e-13
9.06953e-14
6.83486e-14
4.68037e-14
4.04201e-15
1.61129e-14
2.11143e-14
1.0821e-14
5.26589e-14
9.30131e-14
6.7921e-14
1.71011e-14
7.32682e-14
7.16036e-14
2.06628e-14
2.29256e-14
5.73477e-14
3.36737e-15
5.84212e-15
9.19073e-14
9.16889e-14
1.17283e-13
1.45673e-13
7.87868e-14
1.33695e-13
2.08326e-13
1.52308e-13
2.00874e-13
2.41136e-13
1.9054e-13
1.46666e-13
1.51222e-13
1.9666e-13
1.60801e-13
1.72774e-13
2.25481e-13
2.26718e-13
2.92552e-13
3.40171e-13
3.09539e-13
2.39337e-13
1.21987e-13
1.12886e-13
1.198e-13
7.97144e-14
6.92701e-14
5.79714e-14
8.94643e-14
7.2292e-15
1.46385e-13
2.69183e-13
2.40807e-13
2.4212e-13
2.8541e-13
2.42116e-13
2.11405e-13
1.41208e-13
2.87813e-14
1.25313e-13
2.01025e-13
1.92038e-13
1.90217e-13
1.62282e-13
1.26407e-13
1.48892e-13
6.08176e-14
1.049e-13
7.09223e-14
2.99766e-14
1.24744e-15
9.31217e-14
3.65875e-14
1.51126e-13
2.68014e-13
1.77116e-13
1.69988e-13
3.22207e-13
2.86149e-13
7.20254e-14
1.42195e-16
2.54945e-14
1.72288e-14
9.93507e-14
1.46826e-13
1.13398e-13
1.66319e-14
3.80624e-15
3.25754e-14
3.50615e-14
6.49028e-15
1.04595e-13
1.57857e-13
1.04939e-13
1.5047e-13
8.14633e-14
2.75438e-14
6.62129e-14
6.48592e-14
1.04351e-13
1.13085e-13
9.43009e-14
1.60001e-13
1.91729e-13
2.67296e-13
3.28204e-13
3.69049e-13
3.1357e-13
3.31309e-13
4.37099e-13
5.1591e-13
4.64371e-13
4.0448e-13
2.80134e-13
1.48844e-13
3.7818e-14
2.7598e-14
7.99957e-14
5.95013e-14
1.33521e-14
8.03228e-16
7.64018e-14
1.24856e-13
8.02348e-14
3.71264e-14
1.11241e-13
1.14601e-13
1.63283e-13
2.72521e-13
2.19451e-13
2.0298e-13
1.65816e-13
1.66033e-13
1.26765e-13
5.02665e-14
2.32972e-14
4.49773e-14
1.09938e-13
1.67205e-13
2.14846e-13
1.6166e-13
1.04402e-13
1.13542e-13
8.60347e-14
8.48372e-14
9.08688e-14
1.73606e-13
2.04732e-13
1.65411e-13
1.82766e-13
2.126e-13
1.7472e-13
1.99224e-13
1.70384e-13
7.02554e-14
6.52802e-14
1.59101e-13
8.65842e-14
6.50044e-14
5.76588e-14
8.20969e-14
1.23893e-13
9.1476e-14
1.36173e-13
1.67113e-13
1.09554e-13
1.57321e-13
1.46006e-13
5.20425e-14
3.19122e-15
2.55537e-14
4.23669e-14
1.08315e-13
1.44273e-13
2.74322e-13
2.38426e-13
2.91825e-13
3.30441e-13
3.16529e-13
2.44709e-13
1.26584e-13
4.68249e-14
1.80802e-13
3.32413e-13
2.31744e-13
1.53935e-13
2.9441e-13
3.0111e-13
3.12823e-13
4.00963e-13
3.55093e-13
1.98612e-13
4.90239e-14
5.14445e-14
2.62307e-15
5.80483e-14
1.63501e-14
5.35835e-14
8.3056e-14
1.75875e-13
2.68664e-13
2.4584e-13
1.75617e-13
1.88494e-13
1.06919e-13
6.49673e-14
7.15958e-14
2.69276e-14
2.86205e-15
8.99747e-14
2.17083e-13
2.61946e-13
2.89799e-13
2.8161e-13
2.04909e-13
1.86198e-13
2.44665e-13
2.93103e-13
2.75728e-13
2.48629e-13
2.05816e-13
1.21651e-13
7.7951e-14
9.98713e-14
1.41247e-14
1.28661e-13
1.84895e-13
2.28565e-13
1.146e-13
4.51704e-14
1.6157e-14
3.3442e-14
7.72977e-15
7.78621e-15
8.9466e-14
1.41764e-13
1.33062e-13
1.7931e-13
2.1089e-13
2.44905e-13
2.00671e-13
1.18425e-13
5.66155e-14
3.75877e-14
3.81904e-14
3.44903e-14
8.00376e-14
3.69832e-14
5.15552e-14
6.70309e-14
5.40334e-14
7.49363e-14
9.69566e-14
1.06689e-13
1.92158e-14
2.14437e-14
1.12158e-13
2.12639e-13
2.28068e-13
1.96762e-13
1.79841e-13
8.74464e-14
1.30843e-14
9.9064e-14
2.00065e-13
2.53709e-13
2.04404e-13
1.343e-13
1.03485e-13
1.386e-13
1.21119e-13
9.37808e-14
3.30104e-14
1.43839e-14
8.01833e-14
1.46913e-13
2.25378e-13
2.1772e-13
1.59973e-13
2.05343e-13
2.14228e-13
2.40087e-13
3.00231e-13
4.00117e-13
4.01876e-13
3.5347e-13
2.89619e-13
1.30345e-13
1.09035e-13
2.24115e-13
3.17134e-13
4.2757e-13
3.29254e-13
2.13131e-13
1.0345e-13
2.34516e-14
5.77774e-14
9.87341e-14
2.03845e-14
6.38527e-14
1.16016e-13
9.95789e-14
9.31953e-14
1.20019e-13
4.93625e-14
4.40939e-14
6.10286e-14
2.9481e-14
1.26188e-13
1.73445e-13
1.67083e-13
2.00459e-13
2.40789e-13
2.36144e-13
2.39904e-13
2.20688e-13
1.63208e-13
1.37473e-13
1.43414e-13
1.43919e-13
6.7378e-14
8.23057e-16
1.13261e-13
2.38573e-13
2.22487e-13
2.41973e-13
3.18863e-13
2.98676e-13
2.96347e-13
3.10654e-13
1.96183e-13
1.43651e-13
8.10468e-14
8.0167e-14
2.61884e-13
1.98238e-13
2.20628e-13
5.14127e-14
2.00201e-14
5.42957e-14
8.6188e-14
1.27743e-13
1.26711e-13
1.25844e-13
1.76116e-13
1.61944e-13
1.15232e-13
9.86778e-14
3.97562e-15
1.09949e-13
1.81359e-13
1.35201e-13
1.71184e-13
2.3552e-13
2.4436e-13
3.20887e-13
3.31256e-13
4.37849e-13
3.87086e-13
2.97519e-13
3.57139e-13
4.25881e-13
4.37914e-13
3.83854e-13
4.22294e-13
4.93097e-13
4.58425e-13
4.55481e-13
4.723e-13
3.99695e-13
2.87175e-13
1.68944e-13
9.6747e-14
2.35683e-14
7.9386e-15
4.21233e-14
3.94076e-14
8.12e-14
1.48034e-13
7.01034e-14
3.22124e-14
1.43253e-14
2.62406e-14
3.78042e-14
1.08415e-14
4.03675e-14
3.02111e-14
1.79728e-13
2.05783e-13
2.48883e-13
2.28006e-13
2.41152e-13
2.03783e-13
3.21594e-13
3.26957e-13