/*--------------------------------*- C++ -*----------------------------------*\
  =========                 |
  \\      /  F ield         | OpenFOAM: The Open Source CFD Toolbox
   \\    /   O peration     | Website:  https://openfoam.org
    \\  /    A nd           | Version:  9
     \\/     M anipulation  |
\*---------------------------------------------------------------------------*/
FoamFile
{
    format      ascii;
    class       volScalarField;
    location    "0.013";
    object      mag(U);
}
// * * * * * * * * * * * * * * * * * * * * * * * * * * * * * * * * * * * * * //

dimensions      [0 1 -1 0 0 0 0];

internalField   nonuniform List<scalar> 
100
(
5.03896
13.4427
17.2657
23.2716
28.2477
33.7852
39.1991
44.7207
50.2912
55.9211
61.6061
67.3412
73.121
78.94
84.7932
90.676
96.5844
102.514
108.463
114.427
120.406
126.393
132.393
138.39
144.409
150.396
156.42
162.399
168.393
174.407
180.329
186.315
192.224
198.108
204.019
209.853
215.628
221.397
227.078
232.68
238.209
243.63
248.896
254.044
259.013
263.783
268.277
272.437
276.316
279.919
283.036
285.612
287.844
289.673
291.019
292.116
292.954
293.309
293.417
293.582
293.777
293.873
293.903
293.904
293.896
293.887
293.896
293.929
294.004
294.028
294.02
294.016
294.009
294.031
294.112
294.149
294.129
294.111
294.093
294.053
293.994
293.893
293.787
293.787
293.892
293.947
293.775
293.267
292.49
291.592
290.736
289.736
288.341
286.315
283.047
277.144
265.731
247.362
228.652
234.633
)
;

boundaryField
{
    sides
    {
        type            calculated;
        value           nonuniform List<scalar> 2(234.633 5.03896);
    }
    empty
    {
        type            empty;
    }
}


// ************************************************************************* //
