/*--------------------------------*- C++ -*----------------------------------*\
  =========                 |
  \\      /  F ield         | OpenFOAM: The Open Source CFD Toolbox
   \\    /   O peration     | Website:  https://openfoam.org
    \\  /    A nd           | Version:  9
     \\/     M anipulation  |
\*---------------------------------------------------------------------------*/
FoamFile
{
    format      ascii;
    class       volScalarField;
    location    "0.013";
    object      p;
}
// * * * * * * * * * * * * * * * * * * * * * * * * * * * * * * * * * * * * * //

dimensions      [1 -1 -2 0 0 0 0];

internalField   nonuniform List<scalar> 
100
(
94047.5
92812.6
92025.7
90561.7
89173.5
87543.3
85883
84159.9
82415.3
80662.5
78913.3
77175.2
75453.6
73751.9
72072.9
70418.2
68789.2
67186.8
65611.9
64064.6
62545.9
61054.7
59594
58158.2
56758.9
55377.3
54042.7
52713.4
51440.5
50168.8
48949.5
47751.6
46578.8
45442.1
44332.5
43252
42202.1
41185.2
40200.9
39248.8
38330.8
37451.4
36610.2
35810.2
35051.1
34340.5
33684.2
33080.4
32531.2
32050
31632.5
31268.4
30993.3
30768.6
30583.9
30461.5
30390.8
30328.7
30281
30280.6
30279.9
30280.5
30283.7
30286.2
30286.2
30284.3
30292
30293.5
30293
30296.6
30296.4
30317.1
30330.7
30349
30356.4
30364
30378.7
30403.8
30420.3
30441.4
30467.2
30485.6
30506.8
30543.7
30568.3
30569.6
30548.8
30599
30651.1
30696.3
30784.8
30880.7
30997.7
31165
31417.9
32016.8
33028.4
35034
37246.6
37205.7
)
;

boundaryField
{
    sides
    {
        type            zeroGradient;
    }
    empty
    {
        type            empty;
    }
}


// ************************************************************************* //
