/*--------------------------------*- C++ -*----------------------------------*\
  =========                 |
  \\      /  F ield         | OpenFOAM: The Open Source CFD Toolbox
   \\    /   O peration     | Website:  https://openfoam.org
    \\  /    A nd           | Version:  9
     \\/     M anipulation  |
\*---------------------------------------------------------------------------*/
FoamFile
{
    format      ascii;
    class       surfaceScalarField;
    location    "0.013";
    object      phi;
}
// * * * * * * * * * * * * * * * * * * * * * * * * * * * * * * * * * * * * * //

dimensions      [1 0 -1 0 0 0 0];

internalField   nonuniform List<scalar> 
99
(
38.7266
58.6711
78.0879
97.3604
116.089
134.499
152.422
169.912
186.96
203.566
219.723
235.417
250.637
265.373
279.617
293.363
306.607
319.348
331.587
343.326
354.569
365.319
375.588
385.358
394.693
403.462
411.944
419.72
427.304
434.418
440.68
447.299
452.951
457.906
463.425
468.159
471.726
475.666
479.87
482.923
485.009
487.452
490.389
492.669
493.637
494.133
495.373
497.216
498.334
498.098
497.184
497.066
498.246
499.019
498.733
498.357
497.853
496.871
496.791
497.239
497.365
497.602
497.47
496.926
496.023
496.313
496.545
495.991
495.402
494.896
494.545
496.78
496.842
496.878
496.824
496.689
496.225
495.702
495.394
495.179
494.824
494.282
493.387
490.443
482.262
457.436
409.028
377.768
350.451
330.965
321.167
313.367
308.113
303.644
302.314
305.685
302.923
295.188
291.891
)
;

boundaryField
{
    sides
    {
        type            calculated;
        value           nonuniform List<scalar> 2(288.144 -19.2295);
    }
    empty
    {
        type            empty;
        value           nonuniform List<scalar> 0();
    }
}


// ************************************************************************* //
