/*--------------------------------*- C++ -*----------------------------------*\
  =========                 |
  \\      /  F ield         | OpenFOAM: The Open Source CFD Toolbox
   \\    /   O peration     | Website:  https://openfoam.org
    \\  /    A nd           | Version:  9
     \\/     M anipulation  |
\*---------------------------------------------------------------------------*/
FoamFile
{
    format      ascii;
    class       volScalarField;
    location    "0.032";
    object      T;
}
// * * * * * * * * * * * * * * * * * * * * * * * * * * * * * * * * * * * * * //

dimensions      [0 0 0 1 0 0 0];

internalField   nonuniform List<scalar> 
100
(
287.235
285.85
285.005
284.1
283.213
282.323
281.435
280.547
279.66
278.774
277.889
277.004
276.12
275.237
274.354
273.472
272.59
271.708
270.827
269.945
269.062
268.178
267.292
266.404
265.514
264.621
263.726
262.83
261.934
261.04
260.15
259.266
258.39
257.524
256.667
255.821
254.984
254.155
253.334
252.523
251.732
250.973
250.284
249.695
249.259
248.984
248.836
248.754
248.687
248.604
248.514
248.453
248.428
248.413
248.399
248.386
248.365
248.338
248.312
248.291
248.273
248.258
248.26
248.256
248.235
248.202
248.172
248.152
248.139
248.128
248.107
248.078
248.066
248.057
248.046
248.031
248.007
247.956
247.926
247.934
247.943
247.946
247.942
247.916
247.841
247.772
247.773
247.936
248.684
249.489
249.768
249.843
249.92
250.251
250.947
251.42
251.482
251.5
251.469
251.446
)
;

boundaryField
{
    sides
    {
        type            zeroGradient;
    }
    empty
    {
        type            empty;
    }
}


// ************************************************************************* //
