/*--------------------------------*- C++ -*----------------------------------*\
  =========                 |
  \\      /  F ield         | OpenFOAM: The Open Source CFD Toolbox
   \\    /   O peration     | Website:  https://openfoam.org
    \\  /    A nd           | Version:  9
     \\/     M anipulation  |
\*---------------------------------------------------------------------------*/
FoamFile
{
    format      ascii;
    class       volScalarField;
    location    "0.042";
    object      ddt0(rho);
}
// * * * * * * * * * * * * * * * * * * * * * * * * * * * * * * * * * * * * * //

dimensions      [1 -3 -1 0 0 0 0];

internalField   nonuniform List<scalar> 
100
(
-5.87887
-5.86469
-5.81201
-5.78458
-5.75273
-5.71101
-5.68727
-5.66309
-5.61368
-5.55961
-5.51919
-5.47129
-5.41449
-5.36037
-5.3187
-5.29317
-5.24787
-5.21974
-5.2021
-5.21635
-5.23935
-5.15862
-5.09803
-5.07967
-5.10706
-5.11608
-5.06397
-5.035
-4.99684
-4.97607
-5.01733
-4.68912
-5.03919
-4.58952
-4.46379
-4.53489
-4.46301
-4.53466
-4.6449
-4.64131
-4.76259
-4.82609
-4.73612
-4.65975
-4.67989
-4.72252
-4.7274
-4.70338
-4.67627
-4.66541
-4.67434
-4.68996
-4.69008
-4.66406
-4.62637
-4.60568
-4.63059
-4.70178
-4.77921
-4.81512
-4.7986
-4.76239
-4.75941
-4.82875
-4.96977
-5.13487
-5.2554
-5.29563
-5.26863
-5.22092
-5.213
-5.28792
-5.39813
-5.47953
-5.4868
-5.43468
-5.38808
-5.43967
-5.61444
-5.84506
-6.01916
-6.06994
-5.98836
-5.89479
-5.88432
-5.9748
-6.10062
-6.22662
-6.3095
-6.3653
-6.45042
-6.54517
-6.73579
-6.94828
-7.07155
-7.27669
-7.3228
-7.38881
-6.82059
-5.74069
)
;

boundaryField
{
    sides
    {
        type            calculated;
        value           nonuniform List<scalar> 2(-5.74069 -5.87887);
    }
    empty
    {
        type            empty;
    }
}


// ************************************************************************* //
