/*--------------------------------*- C++ -*----------------------------------*\
  =========                 |
  \\      /  F ield         | OpenFOAM: The Open Source CFD Toolbox
   \\    /   O peration     | Website:  https://openfoam.org
    \\  /    A nd           | Version:  9
     \\/     M anipulation  |
\*---------------------------------------------------------------------------*/
FoamFile
{
    format      ascii;
    class       volScalarField;
    location    "0.042";
    object      ddt0(rho,K);
}
// * * * * * * * * * * * * * * * * * * * * * * * * * * * * * * * * * * * * * //

dimensions      [1 -1 -3 0 0 0 0];

internalField   nonuniform List<scalar> 
100
(
-2628.94
-4537.76
-6947.46
-8829.97
-10840.7
-13153.6
-15658.4
-18189.1
-20828.6
-23707.1
-26720
-29809.4
-33088.1
-36508.7
-40114.4
-43859.4
-47660.2
-51735.8
-55759.2
-60083.2
-64209.4
-68026.7
-72640.5
-77041
-81706.1
-85930.9
-89337.1
-93339.7
-97557
-102856
-109000
-114204
-127842
-134676
-140065
-145766
-147487
-150510
-154831
-157263
-164284
-171727
-174183
-175610
-180100
-186874
-194073
-201150
-207948
-214287
-220294
-226217
-232066
-237742
-243407
-249580
-256713
-264432
-271563
-277216
-281621
-285974
-291751
-299844
-310002
-320901
-330750
-338354
-343583
-347231
-350629
-354877
-359788
-365015
-370250
-375733
-382203
-390551
-400575
-410893
-419847
-426438
-430851
-435078
-440239
-446097
-451409
-455333
-457281
-458367
-461082
-466469
-475161
-484863
-492987
-500887
-514366
-544514
-566315
-546834
)
;

boundaryField
{
    sides
    {
        type            calculated;
        value           nonuniform List<scalar> 2(-546834 -2628.94);
    }
    empty
    {
        type            empty;
    }
}


// ************************************************************************* //
