/*--------------------------------*- C++ -*----------------------------------*\
  =========                 |
  \\      /  F ield         | OpenFOAM: The Open Source CFD Toolbox
   \\    /   O peration     | Website:  https://openfoam.org
    \\  /    A nd           | Version:  9
     \\/     M anipulation  |
\*---------------------------------------------------------------------------*/
FoamFile
{
    format      ascii;
    class       volScalarField;
    location    "0.042";
    object      p;
}
// * * * * * * * * * * * * * * * * * * * * * * * * * * * * * * * * * * * * * //

dimensions      [1 -1 -2 0 0 0 0];

internalField   nonuniform List<scalar> 
100
(
15304.1
15285
15236.9
15185.2
15148.4
15114.9
15081.5
15048.6
15017.2
14987.5
14959.1
14932.2
14907
14883.6
14861.9
14842.1
14824
14808.2
14794.2
14781.7
14771.7
14762.9
14756.5
14752.1
14749
14748.5
14748.6
14748.9
14749.6
14751.4
14756
14763.8
14779.2
14807.9
14844.9
14885.3
14926.5
14965.2
15004.9
15042.7
15080.6
15121.1
15162
15202.1
15242.9
15286.2
15332.9
15383.3
15437.2
15494.3
15554.4
15617.4
15683.5
15752.7
15825
15900.3
15978.6
16060
16144.1
16230.5
16318.7
16408.5
16499.9
16593.2
16688.9
16787.2
16888
16990.9
17095.2
17200
17305.1
17410
17515
17620.6
17727
17834.7
17943.4
18053.1
18163.3
18273.9
18384.9
18496.5
18608.1
18720
18830.9
18941.2
19049.9
19157.1
19260.6
19359.1
19449.3
19530.8
19604
19670
19730.8
19786.1
19832.2
19886.7
19954.2
20043.8
)
;

boundaryField
{
    sides
    {
        type            zeroGradient;
    }
    empty
    {
        type            empty;
    }
}


// ************************************************************************* //
