/*--------------------------------*- C++ -*----------------------------------*\
  =========                 |
  \\      /  F ield         | OpenFOAM: The Open Source CFD Toolbox
   \\    /   O peration     | Website:  https://openfoam.org
    \\  /    A nd           | Version:  9
     \\/     M anipulation  |
\*---------------------------------------------------------------------------*/
FoamFile
{
    format      ascii;
    class       volScalarField;
    location    "0.011";
    object      ddt0(rho,e);
}
// * * * * * * * * * * * * * * * * * * * * * * * * * * * * * * * * * * * * * //

dimensions      [1 -1 -3 0 0 0 0];

internalField   nonuniform List<scalar> 
10000
(
-2.43158e-05
-4.30579e-05
1.5059e-05
-4.3261e-05
-3.15786e-05
-4.0517e-05
-2.32922e-05
-1.53084e-05
6.45234e-05
2.8713e-05
2.50156e-05
-4.78944e-05
4.1327e-05
-4.63912e-05
-3.50274e-05
2.46184e-05
1.30647e-05
-8.51317e-06
-2.93198e-05
3.11749e-06
-4.16659e-05
-3.24382e-05
-3.39213e-05
4.02089e-06
-2.34945e-06
-2.19338e-05
-3.62825e-05
1.36619e-06
6.14659e-05
-2.54985e-05
3.45379e-05
3.62914e-05
2.78167e-05
4.18722e-05
7.65841e-06
2.24702e-05
2.69068e-05
1.47703e-05
3.24653e-05
-3.52524e-05
-1.07122e-05
5.17689e-05
2.84516e-05
1.46587e-05
5.31421e-05
3.44572e-05
3.88717e-05
2.30161e-05
6.76779e-06
-4.77362e-06
1.88825e-05
2.85118e-05
-3.86409e-05
-9.73995e-06
-2.24484e-06
-3.08887e-05
-6.66788e-06
3.46708e-05
4.67521e-06
8.7624e-06
4.16994e-05
1.57742e-05
1.49159e-05
-4.85173e-05
1.0861e-06
3.10631e-05
1.13559e-05
-4.12851e-06
1.6405e-05
-9.72815e-06
-5.62307e-05
2.66676e-05
-2.06161e-05
3.19474e-05
7.84521e-05
9.76134e-06
-2.42993e-05
3.10552e-05
4.21976e-05
-2.2887e-05
-4.49561e-05
4.08631e-05
1.14995e-05
3.65181e-05
2.61905e-05
1.78106e-05
8.00329e-08
-3.88374e-06
2.30911e-05
-1.29481e-05
2.53439e-05
-1.37042e-06
-3.60273e-05
-3.41396e-05
-9.865e-06
1.50014e-05
-2.75972e-05
-3.06582e-05
-2.53915e-05
-3.66574e-06
-5.03973e-06
-1.07468e-05
-8.52707e-05
-5.07952e-05
-5.88083e-05
-6.66426e-06
-3.44843e-05
-6.71934e-05
-4.75353e-05
-1.46908e-05
-2.82351e-05
2.35826e-06
-2.17551e-05
-1.87997e-05
-1.51714e-05
2.712e-05
1.19194e-05
-1.74767e-05
3.31703e-05
-2.85879e-05
-8.27589e-06
1.75233e-05
-1.0861e-05
2.85739e-05
-5.73742e-06
2.67294e-05
-5.90502e-06
8.91952e-06
5.07235e-08
-1.25204e-05
1.1149e-05
2.93678e-05
5.15798e-06
3.99535e-05
-5.79911e-05
9.3667e-05
5.5064e-05
5.02495e-05
4.2486e-06
-3.68967e-05
-6.09683e-05
-2.83727e-05
5.39862e-08
1.33482e-05
9.12274e-06
-3.62478e-05
-6.55691e-06
6.5968e-06
3.25294e-05
-8.96726e-06
-4.47234e-05
-4.18309e-05
-2.66757e-05
-2.42367e-05
-2.33063e-05
-9.22752e-06
4.65529e-05
-3.20972e-05
-3.09872e-05
2.16108e-05
-1.34319e-05
4.54432e-06
-7.13626e-07
8.39026e-06
-3.61695e-05
1.14856e-05
-1.31587e-05
5.65568e-05
-3.01334e-05
-1.421e-05
4.43269e-05
-1.62167e-05
-3.80071e-05
-2.45331e-05
5.95886e-06
-5.08877e-05
-2.30381e-05
-2.73281e-05
-3.66365e-05
1.01819e-05
8.96602e-06
2.60184e-05
-1.12691e-05
8.26563e-06
7.00924e-06
2.55635e-05
3.65641e-05
-3.05829e-05
1.92449e-06
6.80435e-05
-1.96898e-05
-8.94793e-06
4.03132e-05
-1.38348e-05
3.05917e-05
-3.52625e-06
2.01502e-05
2.3043e-06
-3.96693e-06
6.92874e-05
1.51199e-05
-3.85426e-07
2.58926e-05
2.8367e-05
8.99168e-06
1.40103e-05
-5.82275e-05
7.65912e-06
-5.50309e-05
-3.25594e-05
-4.74594e-05
-3.43633e-05
-4.51049e-05
-4.25191e-06
-5.17043e-05
-5.20412e-05
1.50682e-05
-7.43362e-05
3.26279e-05
6.34565e-06
7.08402e-06
-5.27624e-07
2.35847e-05
1.12122e-05
5.37677e-06
1.42917e-08
-4.88454e-06
-2.26446e-05
-8.17016e-06
-2.34534e-05
1.88692e-05
-8.05256e-06
1.31269e-05
-2.7929e-05
-1.08423e-05
7.89117e-07
-3.93582e-07
2.85801e-05
-5.33824e-06
3.0727e-05
7.32583e-06
3.97815e-05
-5.70413e-05
-2.6418e-05
-1.04028e-05
-4.38324e-05
5.18438e-06
-1.80919e-05
4.33413e-05
3.9547e-05
-3.56711e-05
-4.55014e-05
1.66765e-05
-4.3948e-05
1.99065e-05
1.47348e-05
5.49444e-05
-1.22184e-05
4.72763e-06
-6.2366e-06
3.26367e-05
3.25316e-05
1.66461e-05
-2.79816e-05
-1.72771e-05
1.36668e-05
-1.57565e-05
-3.03746e-05
2.05401e-05
4.35552e-05
-1.96799e-05
1.31783e-05
-3.36999e-05
9.58063e-06
-2.11606e-05
4.25331e-05
-5.56288e-05
-1.59346e-06
-2.3256e-06
-5.21388e-05
-3.99257e-05
4.3088e-06
-2.80347e-05
3.05464e-07
1.12617e-05
-5.2237e-05
-1.79053e-05
-3.93432e-05
4.40636e-05
1.64651e-05
5.79497e-05
1.55565e-05
2.77691e-05
-4.07537e-05
3.32111e-05
4.49262e-05
2.74845e-05
2.69423e-05
3.92079e-05
4.74272e-05
3.25598e-05
2.82282e-05
-1.76684e-07
2.96225e-05
-9.7885e-06
6.42996e-05
-1.43263e-05
3.8804e-05
-1.60589e-05
7.78165e-07
2.92626e-05
1.21751e-05
4.36575e-05
1.91341e-05
-3.26796e-07
4.60634e-05
-7.37259e-06
7.27723e-07
-3.48625e-06
-5.39119e-05
2.27663e-05
-2.28299e-05
-7.32628e-06
1.13373e-05
-2.1944e-05
2.69653e-06
-7.77602e-05
3.24399e-05
-3.92352e-05
-4.68643e-05
-2.02333e-05
-3.5831e-05
-1.64572e-05
-3.384e-05
-5.51742e-05
-4.69e-05
-8.68695e-05
1.51394e-05
1.58904e-05
-1.65996e-05
-1.40459e-05
4.93456e-06
-4.1639e-05
-2.53969e-05
-2.84043e-05
-2.02042e-05
-3.29055e-05
3.25771e-05
5.56309e-05
6.26399e-06
6.24625e-05
2.22343e-05
3.40198e-05
4.66438e-05
-3.44692e-05
3.86442e-05
5.7279e-05
5.92706e-06
5.07168e-05
2.89273e-05
2.07727e-06
1.46324e-05
4.31284e-05
5.94579e-05
3.03819e-05
1.94154e-05
-1.40743e-05
9.61072e-06
8.03821e-06
5.85181e-05
3.92542e-05
1.88291e-05
-2.7777e-05
-1.87533e-05
-3.141e-05
3.41007e-06
-4.79308e-05
-1.31491e-05
-4.9055e-05
1.27813e-05
3.1993e-05
-5.90416e-05
-3.8378e-05
-4.4847e-05
2.11898e-05
1.37749e-06
-1.43035e-05
-3.32564e-05
-3.97926e-05
-2.89766e-05
-6.52536e-05
3.29641e-05
7.10337e-05
-1.50484e-05
-2.7918e-05
-1.93693e-05
-2.75932e-05
-4.28859e-05
-1.87965e-05
1.90055e-05
4.46945e-05
-4.12364e-05
5.66613e-06
7.71065e-06
-3.65708e-06
1.58158e-06
-2.93067e-05
-4.82022e-06
4.90794e-06
2.4946e-06
2.90246e-05
1.79701e-05
-2.13816e-05
-4.29201e-05
-5.91491e-05
-2.35573e-05
-3.15782e-05
5.81383e-05
-4.22087e-07
9.7948e-07
2.37177e-06
-1.7825e-05
8.19203e-06
-1.08815e-05
-3.4351e-05
7.1337e-05
5.03561e-05
5.47806e-05
2.27219e-05
-2.33299e-05
-3.22655e-06
2.08616e-05
-9.81614e-07
6.02786e-06
3.45482e-05
-1.85698e-05
1.89163e-05
-1.50928e-05
-2.29853e-05
3.0719e-05
6.67396e-05
7.63756e-05
4.24061e-05
2.92127e-05
1.41201e-05
7.04261e-05
5.40871e-05
6.77837e-06
-5.10097e-05
-6.73746e-06
-4.47094e-05
2.50771e-05
-5.79942e-07
-3.56695e-05
5.85404e-06
-1.10572e-05
-2.51976e-05
-2.63114e-05
-7.06217e-05
2.41316e-05
-1.34853e-05
-3.38308e-05
1.13528e-05
-1.39062e-05
-2.85225e-05
-1.79645e-05
-5.82661e-05
1.25259e-05
-9.63476e-06
5.35794e-06
-2.74081e-05
-1.95115e-05
3.42427e-05
3.62622e-06
-6.0306e-05
-5.72368e-05
-5.58153e-05
-4.17668e-05
-3.91881e-05
-7.07713e-05
-1.33411e-05
-3.01898e-05
-3.98634e-05
-5.86012e-05
-2.65149e-05
1.70384e-05
4.27827e-05
-1.4945e-05
1.06186e-05
2.78201e-05
3.0063e-05
-7.03089e-06
3.57266e-05
5.17003e-05
3.21498e-05
-2.88273e-05
-4.1512e-05
1.77022e-05
6.81136e-06
2.87403e-05
3.75547e-05
-8.17456e-07
5.1237e-05
6.4333e-05
-3.41284e-06
4.0426e-05
2.47193e-05
3.65086e-05
4.66663e-05
5.46292e-05
-4.26569e-05
-1.90208e-05
-2.13266e-05
1.49464e-05
2.51839e-05
5.32362e-05
2.44967e-05
2.00636e-05
8.16424e-06
-2.23964e-05
-1.15526e-05
-3.74094e-05
-2.7358e-05
-7.98842e-05
-3.97627e-05
7.93382e-05
-5.37516e-05
-3.87407e-05
-9.77628e-06
1.725e-06
-7.88671e-05
-5.32422e-05
-5.56211e-05
-4.96993e-05
-4.21021e-05
-3.96703e-05
-3.70655e-05
6.58406e-06
-4.2195e-07
6.25836e-06
-2.58274e-06
-2.67781e-05
2.00547e-05
-7.40525e-06
2.61604e-05
-5.22122e-05
-8.12017e-06
2.7941e-05
-6.41636e-05
-9.16218e-06
-3.0965e-05
3.2002e-05
-1.4126e-05
9.30648e-06
6.41802e-05
4.3638e-05
7.16521e-06
7.03297e-07
1.4125e-05
4.90775e-05
3.75645e-05
-1.09797e-05
3.56261e-06
-3.2409e-05
4.63335e-05
-1.43382e-05
-3.4919e-05
9.97376e-07
-8.53063e-06
-2.68915e-05
8.1957e-06
2.18014e-05
2.19447e-05
-5.40821e-05
-4.55264e-05
-4.31132e-05
2.1967e-06
-4.69768e-06
-1.68443e-05
-5.42778e-05
-6.90051e-05
-4.71892e-05
-2.29795e-05
2.4325e-06
-7.14394e-05
-8.80258e-07
1.81957e-05
2.16668e-05
-9.23534e-06
-1.46509e-05
-7.29615e-06
5.326e-07
3.98371e-05
-2.58817e-05
4.73153e-05
-1.86877e-05
8.04802e-05
-2.79022e-06
-1.20141e-06
8.33516e-05
4.66957e-05
-7.72344e-06
5.90726e-05
1.36047e-05
1.33539e-05
6.49588e-05
-1.36231e-06
6.94904e-07
3.76673e-05
1.59322e-05
-8.12935e-06
-4.41792e-05
5.19696e-05
-1.69768e-05
-4.22107e-05
2.26438e-05
-1.37288e-05
-2.79723e-05
-2.49957e-05
-1.13584e-05
2.1562e-06
-1.32049e-05
-1.16824e-05
2.76561e-05
7.91632e-06
-5.32949e-05
1.14461e-05
1.5958e-05
-2.55336e-05
1.03836e-06
1.01179e-05
4.27054e-05
-4.46423e-05
5.44602e-06
6.5248e-06
-1.8399e-06
8.34477e-06
-1.86913e-05
1.23267e-05
3.07134e-05
1.00021e-05
-3.79047e-05
2.62444e-05
-2.42224e-05
1.88214e-05
1.37967e-05
1.09836e-05
9.51169e-05
3.49436e-05
1.94385e-05
2.68927e-05
-2.14203e-05
3.80625e-05
2.38928e-06
2.24052e-05
3.75105e-05
4.57392e-05
-2.04041e-05
-2.15745e-05
7.86945e-06
1.02985e-05
1.49726e-05
3.76619e-05
2.76148e-05
-4.7452e-05
-3.4388e-05
7.95861e-06
5.25398e-05
-3.37146e-06
-8.64387e-06
6.94371e-06
5.72722e-06
4.07105e-05
-2.01862e-06
-1.85641e-05
2.19732e-05
-9.78038e-06
7.40657e-05
1.45976e-05
1.25742e-05
-9.67027e-06
2.62072e-05
-1.41179e-05
-2.83899e-05
-9.30295e-06
-2.26959e-05
-5.66067e-05
-3.04361e-05
2.92127e-07
1.72469e-05
3.46306e-05
4.9447e-05
-4.13944e-05
-5.42416e-06
-3.36806e-05
-4.69168e-05
2.16999e-06
1.85001e-05
-2.34538e-05
-1.10028e-05
5.57707e-06
3.9398e-05
-1.72961e-05
-5.39114e-05
-9.71574e-06
2.20475e-05
-1.10904e-05
2.47252e-05
-4.64513e-05
-1.38062e-05
-2.81884e-05
-6.48677e-05
-3.06487e-05
-2.32315e-05
4.34873e-05
-4.6371e-06
-3.4999e-05
2.10349e-05
-9.25646e-05
-5.09758e-05
-1.97738e-05
-3.35988e-05
-4.43895e-05
3.29429e-05
1.89577e-05
7.7978e-06
1.54939e-05
2.83807e-05
-5.75906e-05
5.13031e-05
-5.36001e-05
1.21171e-07
3.10979e-05
-4.64265e-06
5.85002e-05
-4.38199e-06
4.80226e-05
3.90333e-05
1.17993e-05
1.80025e-05
-6.92714e-06
-9.88691e-07
3.09734e-05
-3.03201e-05
-6.5743e-06
-4.26999e-05
-5.64869e-05
-7.26782e-05
-0.000132889
-0.000113554
-0.000187687
-0.000276873
-0.000270226
-0.000404563
-0.000522311
-0.000708106
-0.000960915
-0.00125496
-0.00175972
-0.0023448
-0.00310888
-0.00416706
-0.00552833
-0.00734276
-0.00972505
-0.0129256
-0.0171303
-0.0225758
-0.0297743
-0.0392724
-0.0516893
-0.0679494
-0.0891715
-0.116851
-0.152839
-0.199734
-0.260606
-0.339387
-0.441525
-0.573435
-0.743638
-0.962999
-1.24509
-1.60738
-2.07185
-2.66643
-3.42633
-4.39561
-5.63035
-7.20029
-9.19304
-11.7183
-14.9127
-18.9466
-24.0314
-30.4296
-38.466
-48.5415
-61.1505
-76.9007
-96.5376
-120.974
-151.325
-188.947
-235.494
-292.966
-363.785
-450.875
-557.751
-688.636
-848.584
-1043.63
-1280.96
-1569.1
-1918.15
-2340.03
-2848.74
-3460.75
-4195.26
-5074.66
-6124.95
-7376.2
-8863.08
-10625.4
-12708.5
-15164.5
-18051.8
-21437
-25394.5
-30007.4
-35368.6
-41580.2
-48755
-57015.9
-66496.6
-77341
-89703.1
-103746
-119643
-137572
-157717
-180267
-205411
-233334
-264219
-298236
-335546
-376287
-420580
-468518
-520161
-575538
-634637
-697405
-763747
-833521
-906541
-982577
-1.06136e+06
-1.14257e+06
-1.22586e+06
-1.31087e+06
-1.39719e+06
-1.4844e+06
-1.57209e+06
-1.65982e+06
-1.74719e+06
-1.83377e+06
-1.9192e+06
-2.0031e+06
-2.08515e+06
-2.16506e+06
-2.24256e+06
-2.31744e+06
-2.38952e+06
-2.45866e+06
-2.52476e+06
-2.58775e+06
-2.6476e+06
-2.70432e+06
-2.75791e+06
-2.80844e+06
-2.85597e+06
-2.90058e+06
-2.94237e+06
-2.98146e+06
-3.01795e+06
-3.05199e+06
-3.08369e+06
-3.11319e+06
-3.14062e+06
-3.16609e+06
-3.18974e+06
-3.21167e+06
-3.232e+06
-3.25084e+06
-3.26828e+06
-3.28442e+06
-3.29935e+06
-3.31314e+06
-3.32589e+06
-3.33766e+06
-3.34852e+06
-3.35853e+06
-3.36775e+06
-3.37623e+06
-3.38402e+06
-3.39118e+06
-3.39774e+06
-3.40375e+06
-3.40923e+06
-3.41423e+06
-3.41878e+06
-3.42291e+06
-3.42664e+06
-3.43e+06
-3.43301e+06
-3.4357e+06
-3.43809e+06
-3.44019e+06
-3.44202e+06
-3.4436e+06
-3.44494e+06
-3.44607e+06
-3.44698e+06
-3.4477e+06
-3.44824e+06
-3.4486e+06
-3.4488e+06
-3.44884e+06
-3.44874e+06
-3.4485e+06
-3.44814e+06
-3.44765e+06
-3.44704e+06
-3.44633e+06
-3.44552e+06
-3.4446e+06
-3.4436e+06
-3.44251e+06
-3.44133e+06
-3.44008e+06
-3.43875e+06
-3.43735e+06
-3.43589e+06
-3.43437e+06
-3.43278e+06
-3.43114e+06
-3.42944e+06
-3.4277e+06
-3.4259e+06
-3.42406e+06
-3.42217e+06
-3.42024e+06
-3.41828e+06
-3.41627e+06
-3.41423e+06
-3.41216e+06
-3.41005e+06
-3.40791e+06
-3.40574e+06
-3.40355e+06
-3.40133e+06
-3.39908e+06
-3.3968e+06
-3.39451e+06
-3.39219e+06
-3.38985e+06
-3.38749e+06
-3.38511e+06
-3.38271e+06
-3.38029e+06
-3.37786e+06
-3.37541e+06
-3.37295e+06
-3.37046e+06
-3.36797e+06
-3.36546e+06
-3.36294e+06
-3.3604e+06
-3.35785e+06
-3.3553e+06
-3.35272e+06
-3.35014e+06
-3.34755e+06
-3.34495e+06
-3.34234e+06
-3.33971e+06
-3.33708e+06
-3.33444e+06
-3.33179e+06
-3.32914e+06
-3.32647e+06
-3.3238e+06
-3.32112e+06
-3.31843e+06
-3.31574e+06
-3.31303e+06
-3.31033e+06
-3.30761e+06
-3.30489e+06
-3.30216e+06
-3.29943e+06
-3.29669e+06
-3.29394e+06
-3.29119e+06
-3.28843e+06
-3.28567e+06
-3.28291e+06
-3.28013e+06
-3.27736e+06
-3.27457e+06
-3.27179e+06
-3.269e+06
-3.2662e+06
-3.2634e+06
-3.26059e+06
-3.25778e+06
-3.25497e+06
-3.25215e+06
-3.24933e+06
-3.2465e+06
-3.24367e+06
-3.24084e+06
-3.238e+06
-3.23516e+06
-3.23231e+06
-3.22946e+06
-3.22661e+06
-3.22375e+06
-3.22089e+06
-3.21803e+06
-3.21516e+06
-3.21229e+06
-3.20942e+06
-3.20654e+06
-3.20366e+06
-3.20078e+06
-3.19789e+06
-3.195e+06
-3.19211e+06
-3.18922e+06
-3.18632e+06
-3.18342e+06
-3.18051e+06
-3.17761e+06
-3.1747e+06
-3.17179e+06
-3.16887e+06
-3.16596e+06
-3.16304e+06
-3.16011e+06
-3.15719e+06
-3.15426e+06
-3.15133e+06
-3.1484e+06
-3.14547e+06
-3.14253e+06
-3.13959e+06
-3.13665e+06
-3.13371e+06
-3.13077e+06
-3.12782e+06
-3.12487e+06
-3.12192e+06
-3.11897e+06
-3.11602e+06
-3.11306e+06
-3.1101e+06
-3.10714e+06
-3.10418e+06
-3.10122e+06
-3.09826e+06
-3.09529e+06
-3.09232e+06
-3.08935e+06
-3.08638e+06
-3.08341e+06
-3.08044e+06
-3.07747e+06
-3.07449e+06
-3.07151e+06
-3.06854e+06
-3.06556e+06
-3.06258e+06
-3.0596e+06
-3.05661e+06
-3.05363e+06
-3.05065e+06
-3.04766e+06
-3.04468e+06
-3.04169e+06
-3.0387e+06
-3.03572e+06
-3.03273e+06
-3.02974e+06
-3.02675e+06
-3.02376e+06
-3.02076e+06
-3.01777e+06
-3.01478e+06
-3.01179e+06
-3.00879e+06
-3.0058e+06
-3.00281e+06
-2.99981e+06
-2.99682e+06
-2.99382e+06
-2.99083e+06
-2.98783e+06
-2.98484e+06
-2.98184e+06
-2.97884e+06
-2.97585e+06
-2.97285e+06
-2.96985e+06
-2.96686e+06
-2.96386e+06
-2.96087e+06
-2.95787e+06
-2.95487e+06
-2.95188e+06
-2.94888e+06
-2.94589e+06
-2.94289e+06
-2.93989e+06
-2.9369e+06
-2.9339e+06
-2.93091e+06
-2.92792e+06
-2.92492e+06
-2.92193e+06
-2.91894e+06
-2.91594e+06
-2.91295e+06
-2.90996e+06
-2.90697e+06
-2.90398e+06
-2.90099e+06
-2.898e+06
-2.89501e+06
-2.89202e+06
-2.88903e+06
-2.88604e+06
-2.88305e+06
-2.88007e+06
-2.87708e+06
-2.8741e+06
-2.87111e+06
-2.86813e+06
-2.86515e+06
-2.86217e+06
-2.85918e+06
-2.8562e+06
-2.85322e+06
-2.85025e+06
-2.84727e+06
-2.84429e+06
-2.84131e+06
-2.83834e+06
-2.83536e+06
-2.83239e+06
-2.82942e+06
-2.82644e+06
-2.82347e+06
-2.8205e+06
-2.81753e+06
-2.81457e+06
-2.8116e+06
-2.80863e+06
-2.80567e+06
-2.8027e+06
-2.79974e+06
-2.79678e+06
-2.79382e+06
-2.79086e+06
-2.7879e+06
-2.78494e+06
-2.78199e+06
-2.77903e+06
-2.77608e+06
-2.77312e+06
-2.77017e+06
-2.76722e+06
-2.76427e+06
-2.76132e+06
-2.75837e+06
-2.75543e+06
-2.75248e+06
-2.74954e+06
-2.7466e+06
-2.74365e+06
-2.74071e+06
-2.73777e+06
-2.73484e+06
-2.7319e+06
-2.72897e+06
-2.72603e+06
-2.7231e+06
-2.72017e+06
-2.71724e+06
-2.71431e+06
-2.71138e+06
-2.70845e+06
-2.70553e+06
-2.70261e+06
-2.69968e+06
-2.69676e+06
-2.69384e+06
-2.69092e+06
-2.68801e+06
-2.68509e+06
-2.68218e+06
-2.67926e+06
-2.67635e+06
-2.67344e+06
-2.67053e+06
-2.66763e+06
-2.66472e+06
-2.66182e+06
-2.65891e+06
-2.65601e+06
-2.65311e+06
-2.65021e+06
-2.64731e+06
-2.64442e+06
-2.64152e+06
-2.63863e+06
-2.63574e+06
-2.63285e+06
-2.62996e+06
-2.62707e+06
-2.62418e+06
-2.6213e+06
-2.61842e+06
-2.61554e+06
-2.61266e+06
-2.60978e+06
-2.6069e+06
-2.60402e+06
-2.60115e+06
-2.59828e+06
-2.5954e+06
-2.59254e+06
-2.58967e+06
-2.5868e+06
-2.58393e+06
-2.58107e+06
-2.57821e+06
-2.57535e+06
-2.57249e+06
-2.56963e+06
-2.56677e+06
-2.56392e+06
-2.56107e+06
-2.55821e+06
-2.55536e+06
-2.55252e+06
-2.54967e+06
-2.54682e+06
-2.54398e+06
-2.54114e+06
-2.5383e+06
-2.53546e+06
-2.53262e+06
-2.52978e+06
-2.52695e+06
-2.52412e+06
-2.52128e+06
-2.51845e+06
-2.51563e+06
-2.5128e+06
-2.50997e+06
-2.50715e+06
-2.50433e+06
-2.50151e+06
-2.49869e+06
-2.49587e+06
-2.49305e+06
-2.49024e+06
-2.48743e+06
-2.48462e+06
-2.48181e+06
-2.479e+06
-2.47619e+06
-2.47339e+06
-2.47059e+06
-2.46778e+06
-2.46498e+06
-2.46219e+06
-2.45939e+06
-2.45659e+06
-2.4538e+06
-2.45101e+06
-2.44822e+06
-2.44543e+06
-2.44264e+06
-2.43986e+06
-2.43707e+06
-2.43429e+06
-2.43151e+06
-2.42873e+06
-2.42596e+06
-2.42318e+06
-2.42041e+06
-2.41763e+06
-2.41486e+06
-2.41209e+06
-2.40933e+06
-2.40656e+06
-2.4038e+06
-2.40103e+06
-2.39827e+06
-2.39551e+06
-2.39275e+06
-2.39e+06
-2.38724e+06
-2.38449e+06
-2.38174e+06
-2.37899e+06
-2.37624e+06
-2.3735e+06
-2.37075e+06
-2.36801e+06
-2.36527e+06
-2.36253e+06
-2.35979e+06
-2.35705e+06
-2.35432e+06
-2.35159e+06
-2.34885e+06
-2.34612e+06
-2.3434e+06
-2.34067e+06
-2.33794e+06
-2.33522e+06
-2.3325e+06
-2.32978e+06
-2.32706e+06
-2.32435e+06
-2.32163e+06
-2.31892e+06
-2.31621e+06
-2.3135e+06
-2.31079e+06
-2.30808e+06
-2.30538e+06
-2.30267e+06
-2.29997e+06
-2.29727e+06
-2.29457e+06
-2.29188e+06
-2.28918e+06
-2.28649e+06
-2.2838e+06
-2.28111e+06
-2.27842e+06
-2.27573e+06
-2.27305e+06
-2.27036e+06
-2.26768e+06
-2.265e+06
-2.26232e+06
-2.25965e+06
-2.25697e+06
-2.2543e+06
-2.25163e+06
-2.24896e+06
-2.24629e+06
-2.24362e+06
-2.24096e+06
-2.23829e+06
-2.23563e+06
-2.23297e+06
-2.23031e+06
-2.22766e+06
-2.225e+06
-2.22235e+06
-2.2197e+06
-2.21705e+06
-2.2144e+06
-2.21175e+06
-2.20911e+06
-2.20647e+06
-2.20382e+06
-2.20118e+06
-2.19855e+06
-2.19591e+06
-2.19327e+06
-2.19064e+06
-2.18801e+06
-2.18538e+06
-2.18275e+06
-2.18013e+06
-2.1775e+06
-2.17488e+06
-2.17226e+06
-2.16964e+06
-2.16702e+06
-2.1644e+06
-2.16179e+06
-2.15917e+06
-2.15656e+06
-2.15395e+06
-2.15135e+06
-2.14874e+06
-2.14613e+06
-2.14353e+06
-2.14093e+06
-2.13833e+06
-2.13573e+06
-2.13314e+06
-2.13054e+06
-2.12795e+06
-2.12536e+06
-2.12277e+06
-2.12018e+06
-2.11759e+06
-2.11501e+06
-2.11243e+06
-2.10985e+06
-2.10727e+06
-2.10469e+06
-2.10211e+06
-2.09954e+06
-2.09697e+06
-2.09439e+06
-2.09183e+06
-2.08926e+06
-2.08669e+06
-2.08413e+06
-2.08156e+06
-2.079e+06
-2.07644e+06
-2.07389e+06
-2.07133e+06
-2.06878e+06
-2.06622e+06
-2.06367e+06
-2.06112e+06
-2.05858e+06
-2.05603e+06
-2.05349e+06
-2.05094e+06
-2.0484e+06
-2.04586e+06
-2.04333e+06
-2.04079e+06
-2.03826e+06
-2.03572e+06
-2.03319e+06
-2.03066e+06
-2.02814e+06
-2.02561e+06
-2.02309e+06
-2.02056e+06
-2.01804e+06
-2.01552e+06
-2.01301e+06
-2.01049e+06
-2.00798e+06
-2.00546e+06
-2.00295e+06
-2.00044e+06
-1.99794e+06
-1.99543e+06
-1.99293e+06
-1.99042e+06
-1.98792e+06
-1.98542e+06
-1.98293e+06
-1.98043e+06
-1.97794e+06
-1.97544e+06
-1.97295e+06
-1.97046e+06
-1.96798e+06
-1.96549e+06
-1.96301e+06
-1.96053e+06
-1.95804e+06
-1.95557e+06
-1.95309e+06
-1.95061e+06
-1.94814e+06
-1.94567e+06
-1.9432e+06
-1.94073e+06
-1.93826e+06
-1.93579e+06
-1.93333e+06
-1.93087e+06
-1.92841e+06
-1.92595e+06
-1.92349e+06
-1.92103e+06
-1.91858e+06
-1.91613e+06
-1.91368e+06
-1.91123e+06
-1.90878e+06
-1.90634e+06
-1.90389e+06
-1.90145e+06
-1.89901e+06
-1.89657e+06
-1.89413e+06
-1.8917e+06
-1.88926e+06
-1.88683e+06
-1.8844e+06
-1.88197e+06
-1.87954e+06
-1.87712e+06
-1.87469e+06
-1.87227e+06
-1.86985e+06
-1.86743e+06
-1.86501e+06
-1.8626e+06
-1.86018e+06
-1.85777e+06
-1.85536e+06
-1.85295e+06
-1.85054e+06
-1.84814e+06
-1.84573e+06
-1.84333e+06
-1.84093e+06
-1.83853e+06
-1.83613e+06
-1.83374e+06
-1.83134e+06
-1.82895e+06
-1.82656e+06
-1.82417e+06
-1.82178e+06
-1.81939e+06
-1.81701e+06
-1.81463e+06
-1.81225e+06
-1.80987e+06
-1.80749e+06
-1.80511e+06
-1.80274e+06
-1.80036e+06
-1.79799e+06
-1.79562e+06
-1.79326e+06
-1.79089e+06
-1.78852e+06
-1.78616e+06
-1.7838e+06
-1.78144e+06
-1.77908e+06
-1.77673e+06
-1.77437e+06
-1.77202e+06
-1.76967e+06
-1.76732e+06
-1.76497e+06
-1.76262e+06
-1.76028e+06
-1.75793e+06
-1.75559e+06
-1.75325e+06
-1.75091e+06
-1.74858e+06
-1.74624e+06
-1.74391e+06
-1.74157e+06
-1.73924e+06
-1.73692e+06
-1.73459e+06
-1.73226e+06
-1.72994e+06
-1.72762e+06
-1.7253e+06
-1.72298e+06
-1.72066e+06
-1.71835e+06
-1.71603e+06
-1.71372e+06
-1.71141e+06
-1.7091e+06
-1.70679e+06
-1.70449e+06
-1.70218e+06
-1.69988e+06
-1.69758e+06
-1.69528e+06
-1.69298e+06
-1.69069e+06
-1.68839e+06
-1.6861e+06
-1.68381e+06
-1.68152e+06
-1.67923e+06
-1.67694e+06
-1.67466e+06
-1.67238e+06
-1.67009e+06
-1.66781e+06
-1.66554e+06
-1.66326e+06
-1.66099e+06
-1.65871e+06
-1.65644e+06
-1.65417e+06
-1.6519e+06
-1.64963e+06
-1.64737e+06
-1.64511e+06
-1.64284e+06
-1.64058e+06
-1.63832e+06
-1.63607e+06
-1.63381e+06
-1.63156e+06
-1.62931e+06
-1.62706e+06
-1.62481e+06
-1.62256e+06
-1.62031e+06
-1.61807e+06
-1.61583e+06
-1.61358e+06
-1.61135e+06
-1.60911e+06
-1.60687e+06
-1.60464e+06
-1.6024e+06
-1.60017e+06
-1.59794e+06
-1.59571e+06
-1.59349e+06
-1.59126e+06
-1.58904e+06
-1.58682e+06
-1.5846e+06
-1.58238e+06
-1.58016e+06
-1.57795e+06
-1.57573e+06
-1.57352e+06
-1.57131e+06
-1.5691e+06
-1.56689e+06
-1.56469e+06
-1.56248e+06
-1.56028e+06
-1.55808e+06
-1.55588e+06
-1.55368e+06
-1.55149e+06
-1.54929e+06
-1.5471e+06
-1.54491e+06
-1.54272e+06
-1.54053e+06
-1.53834e+06
-1.53616e+06
-1.53398e+06
-1.53179e+06
-1.52961e+06
-1.52743e+06
-1.52526e+06
-1.52308e+06
-1.52091e+06
-1.51874e+06
-1.51657e+06
-1.5144e+06
-1.51223e+06
-1.51006e+06
-1.5079e+06
-1.50574e+06
-1.50357e+06
-1.50141e+06
-1.49926e+06
-1.4971e+06
-1.49495e+06
-1.49279e+06
-1.49064e+06
-1.48849e+06
-1.48634e+06
-1.48419e+06
-1.48205e+06
-1.47991e+06
-1.47776e+06
-1.47562e+06
-1.47348e+06
-1.47135e+06
-1.46921e+06
-1.46708e+06
-1.46494e+06
-1.46281e+06
-1.46068e+06
-1.45855e+06
-1.45643e+06
-1.4543e+06
-1.45218e+06
-1.45006e+06
-1.44794e+06
-1.44582e+06
-1.4437e+06
-1.44159e+06
-1.43947e+06
-1.43736e+06
-1.43525e+06
-1.43314e+06
-1.43103e+06
-1.42893e+06
-1.42682e+06
-1.42472e+06
-1.42262e+06
-1.42052e+06
-1.41842e+06
-1.41632e+06
-1.41423e+06
-1.41213e+06
-1.41004e+06
-1.40795e+06
-1.40586e+06
-1.40378e+06
-1.40169e+06
-1.39961e+06
-1.39752e+06
-1.39544e+06
-1.39336e+06
-1.39128e+06
-1.38921e+06
-1.38713e+06
-1.38506e+06
-1.38299e+06
-1.38092e+06
-1.37885e+06
-1.37678e+06
-1.37472e+06
-1.37265e+06
-1.37059e+06
-1.36853e+06
-1.36647e+06
-1.36441e+06
-1.36236e+06
-1.3603e+06
-1.35825e+06
-1.3562e+06
-1.35415e+06
-1.3521e+06
-1.35005e+06
-1.34801e+06
-1.34596e+06
-1.34392e+06
-1.34188e+06
-1.33984e+06
-1.3378e+06
-1.33576e+06
-1.33373e+06
-1.3317e+06
-1.32967e+06
-1.32764e+06
-1.32561e+06
-1.32358e+06
-1.32155e+06
-1.31953e+06
-1.31751e+06
-1.31549e+06
-1.31347e+06
-1.31145e+06
-1.30943e+06
-1.30742e+06
-1.30541e+06
-1.3034e+06
-1.30139e+06
-1.29938e+06
-1.29737e+06
-1.29536e+06
-1.29336e+06
-1.29136e+06
-1.28936e+06
-1.28736e+06
-1.28536e+06
-1.28336e+06
-1.28137e+06
-1.27938e+06
-1.27738e+06
-1.27539e+06
-1.2734e+06
-1.27142e+06
-1.26943e+06
-1.26745e+06
-1.26547e+06
-1.26348e+06
-1.2615e+06
-1.25953e+06
-1.25755e+06
-1.25558e+06
-1.2536e+06
-1.25163e+06
-1.24966e+06
-1.24769e+06
-1.24572e+06
-1.24376e+06
-1.24179e+06
-1.23983e+06
-1.23787e+06
-1.23591e+06
-1.23395e+06
-1.23199e+06
-1.23004e+06
-1.22808e+06
-1.22613e+06
-1.22418e+06
-1.22223e+06
-1.22028e+06
-1.21834e+06
-1.21639e+06
-1.21445e+06
-1.21251e+06
-1.21057e+06
-1.20863e+06
-1.20669e+06
-1.20476e+06
-1.20282e+06
-1.20089e+06
-1.19896e+06
-1.19703e+06
-1.1951e+06
-1.19317e+06
-1.19125e+06
-1.18933e+06
-1.1874e+06
-1.18548e+06
-1.18356e+06
-1.18165e+06
-1.17973e+06
-1.17781e+06
-1.1759e+06
-1.17399e+06
-1.17208e+06
-1.17017e+06
-1.16826e+06
-1.16636e+06
-1.16445e+06
-1.16255e+06
-1.16065e+06
-1.15875e+06
-1.15685e+06
-1.15496e+06
-1.15306e+06
-1.15117e+06
-1.14927e+06
-1.14738e+06
-1.14549e+06
-1.14361e+06
-1.14172e+06
-1.13983e+06
-1.13795e+06
-1.13607e+06
-1.13419e+06
-1.13231e+06
-1.13043e+06
-1.12856e+06
-1.12668e+06
-1.12481e+06
-1.12294e+06
-1.12107e+06
-1.1192e+06
-1.11733e+06
-1.11547e+06
-1.1136e+06
-1.11174e+06
-1.10988e+06
-1.10802e+06
-1.10616e+06
-1.1043e+06
-1.10245e+06
-1.10059e+06
-1.09874e+06
-1.09689e+06
-1.09504e+06
-1.09319e+06
-1.09135e+06
-1.0895e+06
-1.08766e+06
-1.08582e+06
-1.08398e+06
-1.08214e+06
-1.0803e+06
-1.07846e+06
-1.07663e+06
-1.0748e+06
-1.07296e+06
-1.07113e+06
-1.0693e+06
-1.06748e+06
-1.06565e+06
-1.06383e+06
-1.062e+06
-1.06018e+06
-1.05836e+06
-1.05654e+06
-1.05473e+06
-1.05291e+06
-1.0511e+06
-1.04928e+06
-1.04747e+06
-1.04566e+06
-1.04385e+06
-1.04205e+06
-1.04024e+06
-1.03844e+06
-1.03663e+06
-1.03483e+06
-1.03303e+06
-1.03124e+06
-1.02944e+06
-1.02764e+06
-1.02585e+06
-1.02406e+06
-1.02227e+06
-1.02048e+06
-1.01869e+06
-1.0169e+06
-1.01512e+06
-1.01333e+06
-1.01155e+06
-1.00977e+06
-1.00799e+06
-1.00621e+06
-1.00444e+06
-1.00266e+06
-1.00089e+06
-999115
-997344
-995575
-993807
-992040
-990275
-988512
-986749
-984989
-983230
-981472
-979715
-977960
-976207
-974455
-972704
-970955
-969207
-967461
-965716
-963972
-962230
-960490
-958750
-957013
-955276
-953541
-951808
-950076
-948345
-946616
-944888
-943162
-941437
-939713
-937991
-936270
-934551
-932833
-931117
-929402
-927688
-925976
-924265
-922556
-920848
-919141
-917436
-915733
-914030
-912329
-910630
-908932
-907235
-905540
-903846
-902154
-900463
-898773
-897085
-895398
-893713
-892029
-890347
-888665
-886986
-885307
-883630
-881955
-880281
-878608
-876937
-875267
-873598
-871931
-870266
-868601
-866938
-865277
-863617
-861958
-860301
-858645
-856990
-855337
-853685
-852035
-850386
-848738
-847092
-845447
-843804
-842162
-840521
-838882
-837244
-835608
-833973
-832339
-830707
-829076
-827446
-825818
-824191
-822566
-820942
-819319
-817698
-816078
-814460
-812843
-811227
-809612
-808000
-806388
-804778
-803169
-801561
-799955
-798351
-796747
-795145
-793545
-791945
-790348
-788751
-787156
-785562
-783970
-782379
-780789
-779201
-777614
-776029
-774444
-772862
-771280
-769700
-768121
-766544
-764968
-763393
-761820
-760248
-758678
-757108
-755541
-753974
-752409
-750845
-749283
-747722
-746162
-744604
-743047
-741491
-739937
-738384
-736832
-735282
-733733
-732186
-730640
-729095
-727551
-726009
-724469
-722929
-721391
-719854
-718319
-716785
-715252
-713721
-712191
-710662
-709135
-707609
-706084
-704561
-703039
-701518
-699999
-698481
-696965
-695449
-693935
-692423
-690912
-689402
-687893
-686386
-684880
-683375
-681872
-680370
-678869
-677370
-675872
-674376
-672880
-671386
-669894
-668403
-666913
-665424
-663937
-662451
-660966
-659483
-658001
-656520
-655041
-653562
-652086
-650610
-649136
-647663
-646192
-644722
-643253
-641786
-640319
-638854
-637391
-635929
-634468
-633008
-631550
-630093
-628637
-627183
-625730
-624278
-622828
-621378
-619931
-618484
-617039
-615595
-614153
-612711
-611271
-609833
-608395
-606959
-605524
-604091
-602659
-601228
-599798
-598370
-596943
-595518
-594093
-592670
-591248
-589828
-588409
-586991
-585574
-584159
-582745
-581332
-579921
-578511
-577102
-575695
-574288
-572883
-571480
-570077
-568676
-567277
-565878
-564481
-563085
-561690
-560297
-558905
-557514
-556125
-554737
-553350
-551964
-550580
-549197
-547815
-546434
-545055
-543677
-542300
-540925
-539551
-538178
-536806
-535436
-534067
-532699
-531333
-529968
-528604
-527241
-525880
-524520
-523161
-521803
-520447
-519092
-517738
-516386
-515034
-513684
-512336
-510988
-509642
-508297
-506954
-505611
-504270
-502930
-501592
-500254
-498918
-497583
-496250
-494918
-493587
-492257
-490928
-489601
-488275
-486950
-485627
-484305
-482984
-481664
-480345
-479028
-477712
-476398
-475084
-473772
-472461
-471151
-469843
-468536
-467230
-465925
-464621
-463319
-462018
-460719
-459420
-458123
-456827
-455532
-454239
-452946
-451655
-450365
-449077
-447790
-446504
-445219
-443935
-442653
-441372
-440092
-438813
-437536
-436260
-434985
-433711
-432438
-431167
-429897
-428628
-427361
-426095
-424830
-423566
-422303
-421042
-419781
-418523
-417265
-416008
-414753
-413499
-412246
-410995
-409744
-408495
-407247
-406001
-404755
-403511
-402268
-401026
-399785
-398546
-397308
-396071
-394835
-393601
-392367
-391135
-389904
-388675
-387446
-386219
-384993
-383768
-382545
-381322
-380101
-378881
-377663
-376445
-375229
-374014
-372800
-371587
-370375
-369165
-367956
-366748
-365542
-364336
-363132
-361929
-360727
-359526
-358327
-357129
-355932
-354736
-353541
-352348
-351155
-349964
-348774
-347586
-346398
-345212
-344027
-342843
-341660
-340479
-339298
-338119
-336941
-335765
-334589
-333415
-332242
-331070
-329899
-328729
-327561
-326394
-325228
-324063
-322899
-321737
-320575
-319415
-318256
-317099
-315942
-314787
-313632
-312479
-311328
-310177
-309027
-307879
-306732
-305586
-304441
-303298
-302155
-301014
-299874
-298735
-297597
-296461
-295325
-294191
-293058
-291926
-290796
-289666
-288538
-287411
-286284
-285160
-284036
-282913
-281792
-280672
-279553
-278435
-277318
-276203
-275089
-273975
-272863
-271752
-270643
-269534
-268427
-267321
-266215
-265112
-264009
-262907
-261807
-260707
-259609
-258512
-257417
-256322
-255228
-254136
-253045
-251955
-250866
-249778
-248692
-247606
-246522
-245439
-244357
-243276
-242196
-241118
-240040
-238964
-237889
-236815
-235742
-234670
-233600
-232530
-231462
-230395
-229329
-228264
-227200
-226138
-225076
-224016
-222957
-221899
-220842
-219787
-218732
-217678
-216626
-215575
-214525
-213476
-212428
-211382
-210336
-209292
-208248
-207206
-206165
-205125
-204087
-203049
-202013
-200977
-199943
-198910
-197878
-196847
-195817
-194789
-193761
-192735
-191710
-190686
-189663
-188641
-187620
-186600
-185582
-184565
-183548
-182533
-181519
-180506
-179494
-178484
-177474
-176466
-175458
-174452
-173447
-172443
-171440
-170439
-169438
-168438
-167440
-166443
-165446
-164451
-163457
-162464
-161473
-160482
-159492
-158504
-157517
-156530
-155545
-154561
-153578
-152596
-151616
-150636
-149657
-148680
-147704
-146729
-145754
-144781
-143809
-142839
-141869
-140900
-139933
-138966
-138001
-137037
-136073
-135111
-134150
-133191
-132232