/*--------------------------------*- C++ -*----------------------------------*\
  =========                 |
  \\      /  F ield         | OpenFOAM: The Open Source CFD Toolbox
   \\    /   O peration     | Website:  https://openfoam.org
    \\  /    A nd           | Version:  9
     \\/     M anipulation  |
\*---------------------------------------------------------------------------*/
FoamFile
{
    format      ascii;
    class       volScalarField;
    location    "0.011";
    object      ddt0(rho,K);
}
// * * * * * * * * * * * * * * * * * * * * * * * * * * * * * * * * * * * * * //

dimensions      [1 -1 -3 0 0 0 0];

internalField   nonuniform List<scalar> 
10000
(
-1.39069e-22
-1.40899e-19
2.34475e-21
3.95768e-19
5.07863e-19
-6.99127e-19
2.21839e-19
1.10514e-18
-1.08501e-19
-1.10466e-19
1.14927e-18
1.69505e-18
1.90416e-18
1.4521e-18
1.52153e-18
9.30362e-19
5.7287e-19
-5.72032e-19
-1.4507e-18
-1.22767e-18
-2.02031e-18
-2.21974e-18
-2.0073e-18
-1.60489e-18
-1.80446e-18
-2.45774e-18
-2.00639e-18
-1.42224e-18
-1.18382e-18
-9.19293e-19
-8.20558e-19
-4.05814e-19
9.09267e-20
2.94925e-19
1.07487e-19
-6.33356e-22
-3.57022e-19
-4.92455e-19
6.45081e-19
1.50356e-18
9.99608e-19
-6.74716e-22
-7.17643e-22
7.13414e-19
4.70449e-19
3.28314e-19
1.3487e-18
2.21062e-18
9.29244e-19
1.07324e-18
1.78117e-18
2.3686e-18
2.88092e-18
1.73165e-18
1.66379e-18
6.98826e-19
-1.7781e-19
8.87579e-19
2.06063e-18
9.10853e-19
-1.31195e-18
-1.90395e-18
-3.96195e-19
1.88568e-19
-9.05639e-19
-1.6217e-18
5.5794e-19
1.66464e-18
3.69055e-18
3.61227e-18
3.18638e-18
1.77619e-21
-3.19903e-18
-2.11716e-18
-3.88884e-18
-2.43666e-18
-8.4025e-19
-3.31216e-18
-2.68707e-18
2.22804e-19
1.76201e-18
1.05373e-18
1.13036e-18
2.02638e-18
1.40621e-18
1.43484e-18
4.75314e-19
-1.85241e-21
1.20555e-18
1.4366e-18
-3.75482e-18
-4.69785e-18
-4.68791e-19
-2.04747e-18
-1.76051e-18
-2.34989e-18
-3.76642e-18
-3.9806e-18
-2.03175e-18
-3.94453e-19
1.94901e-19
9.39964e-19
1.03976e-18
1.64197e-18
2.96012e-19
2.80415e-19
6.52986e-19
7.69094e-19
1.22283e-18
-9.0105e-20
-1.27502e-18
-1.17575e-18
-5.72422e-19
-5.26654e-19
-5.54055e-19
-6.12979e-19
-8.65407e-19
-9.41626e-19
-5.93627e-19
-7.14696e-19
9.57959e-22
2.66436e-19
-3.39094e-19
-8.6981e-20
-5.1365e-19
-1.78807e-19
9.5975e-19
1.37698e-18
7.93708e-19
3.59316e-19
7.01467e-19
1.41126e-18
1.5959e-18
8.45594e-19
9.08758e-19
1.68935e-18
2.57627e-18
2.95711e-18
2.01252e-18
5.67542e-19
1.35437e-18
1.56231e-18
6.1384e-19
9.1297e-19
2.65334e-19
-1.53585e-18
-7.70951e-19
-5.11469e-19
-7.05299e-19
-1.46532e-19
-4.22533e-19
-2.75087e-19
-1.82348e-18
-1.03112e-18
5.21456e-19
1.04376e-18
5.46613e-19
-2.80723e-19
-1.09501e-18
-6.48656e-19
-1.29395e-18
-1.86517e-18
-5.15158e-19
-1.33998e-19
5.08523e-19
7.77847e-19
1.08564e-18
1.88629e-18
1.79204e-18
3.32432e-18
1.65604e-18
-1.30753e-18
-1.50775e-18
-1.27403e-18
-8.64385e-19
-7.7936e-23
4.82407e-19
2.00484e-19
-8.40646e-19
-1.16677e-18
-1.92983e-18
-2.0565e-18
7.70655e-22
1.9487e-19
-9.86654e-19
-1.88206e-18
-1.48141e-18
-1.79441e-18
-7.44912e-19
8.04136e-19
6.12843e-19
1.24868e-19
1.70272e-18
2.69125e-18
5.39592e-19
-1.43028e-18
-1.07992e-18
-2.77859e-19
-5.60878e-19
-2.5518e-18
-3.34246e-18
-1.4193e-18
-1.95657e-18
-1.30614e-18
7.31538e-19
5.57875e-19
3.43327e-19
9.68836e-23
4.65323e-19
7.93684e-19
-1.04183e-18
-1.38234e-18
-1.11166e-18
-5.75027e-19
-1.4048e-19
2.72687e-19
2.59157e-19
-5.14339e-19
-7.56228e-19
2.50425e-19
8.34241e-19
2.33255e-19
2.85016e-21
7.61158e-19
1.69068e-18
1.83598e-18
2.05577e-18
1.26356e-18
-3.9468e-19
-1.17364e-18
-9.94288e-20
7.78451e-19
1.00486e-18
5.61398e-19
4.30571e-19
2.17623e-19
-1.28062e-18
-8.58117e-19
4.27294e-19
1.34973e-18
-1.10935e-21
-9.33947e-19
4.50072e-19
-4.48584e-22
3.9274e-19
4.65694e-19
3.56657e-19
1.17923e-18
6.87227e-19
-9.78804e-19
-1.11686e-18
-4.1449e-19
-2.11276e-19
-4.94614e-19
-9.6449e-20
1.74522e-19
-2.88401e-19
7.01649e-19
7.03215e-19
3.73774e-19
6.65729e-19
1.16664e-18
1.03855e-18
-6.22369e-22
-3.25059e-21
6.60808e-19
1.31884e-18
1.65771e-18
1.43e-18
6.18887e-19
2.26005e-19
7.36663e-19
5.62831e-19
3.11192e-19
1.48719e-18
2.38749e-18
2.34305e-18
9.77114e-19
4.15666e-19
9.22538e-20
-7.06629e-19
-6.56888e-19
-1.6481e-19
7.45751e-20
-1.26245e-18
-1.59008e-18
-6.61182e-19
-1.24657e-18
-1.52983e-18
-9.34931e-19
-8.69269e-19
-1.16958e-18
-1.02859e-18
-3.41949e-19
-8.1633e-19
-9.37521e-19
-2.05185e-19
1.01237e-19
-2.36841e-19
-1.37199e-18
-3.4237e-18
-2.40122e-18
4.57991e-19
1.43405e-19
-9.55217e-19
2.07789e-18
4.37475e-18
3.48218e-18
-1.91384e-19
-2.98583e-18
-9.95084e-19
5.84724e-19
1.7134e-18
-1.17197e-21
-1.378e-18
-1.33379e-18
-9.37053e-19
-1.80445e-18
-2.95281e-18
-2.84339e-18
-2.06332e-18
-1.08144e-18
-2.44624e-18
-3.35742e-18
-1.77913e-18
-1.09114e-21
-6.28045e-19
-7.67661e-19
1.32541e-18
-1.70962e-19
-3.27111e-18
-2.23523e-18
5.86764e-19
1.4687e-18
1.26208e-18
1.70093e-18
1.11114e-18
8.77339e-19
1.36822e-18
5.63469e-19
5.72566e-19
8.94086e-20
4.44403e-19
8.15422e-19
-3.17681e-19
7.66937e-20
9.36585e-19
1.28422e-18
1.17874e-18
8.74751e-19
6.6184e-19
-3.79325e-19
-6.74688e-19
7.56175e-19
6.60862e-19
1.00373e-21
-4.06372e-22
-1.44951e-19
1.11387e-18
1.37352e-21
-1.92074e-18
-1.04872e-18
-3.10208e-18
-2.32468e-18
9.50465e-19
-3.72959e-19
-1.14581e-18
-1.73068e-18
-1.57574e-18
-4.02107e-19
6.26925e-19
4.38045e-19
2.22763e-19
2.20452e-19
1.05286e-18
1.88523e-18
2.40617e-18
-1.91803e-19
5.51782e-19
2.74299e-18
-1.87186e-19
8.66375e-19
1.47335e-18
5.0682e-22
7.56096e-22
-1.48175e-18
-1.09748e-18
-3.17928e-19
-7.43937e-19
1.71778e-21
2.35282e-21
1.42102e-19
2.18271e-18
1.88877e-18
8.61511e-19
3.39573e-18
3.97731e-18
1.64558e-18
6.7928e-19
1.01709e-18
4.56205e-19
2.99267e-19
-4.27625e-19
4.24835e-19
1.41438e-19
-1.38286e-19
4.00124e-19
-7.51091e-19
-2.5356e-18
-2.66722e-18
-8.54881e-19
-5.4903e-19
-1.66918e-18
-1.03051e-18
-2.79572e-18
-3.89947e-18
-2.37721e-18
-1.64168e-18
-5.81185e-19
-6.16091e-23
-4.75395e-19
4.20855e-19
2.16155e-18
1.20486e-18
-1.90023e-19
-1.05147e-18
-1.29654e-18
-2.52726e-19
1.20558e-18
4.30551e-19
-1.08559e-18
-1.40877e-19
5.65121e-19
4.26752e-19
1.04526e-18
9.18052e-19
4.73722e-19
-1.09936e-18
-8.98226e-19
8.96559e-19
2.64804e-18
1.50712e-18
3.45212e-19
3.67598e-19
-1.35869e-18
-1.62229e-18
-2.35712e-18
-2.46019e-18
4.34882e-19
2.02799e-22
-1.27785e-18
1.53406e-18
-4.38854e-19
-1.0296e-18
1.02169e-18
-1.05715e-18
-8.22265e-19
-1.47317e-18
-5.21262e-18
-4.34463e-18
-9.59329e-19
9.58878e-19
2.04647e-18
1.33443e-18
1.80862e-19
-1.09774e-18
1.72913e-19
-6.74025e-19
4.93695e-19
1.33482e-18
9.54651e-19
2.12942e-18
1.84212e-18
1.51176e-18
7.37718e-19
4.03785e-19
1.23094e-19
-8.75322e-19
-1.28075e-18
-7.73671e-19
-1.63954e-19
2.20513e-21
5.8489e-19
6.91559e-19
-1.23722e-19
-5.90421e-19
3.03403e-21
1.56926e-19
-2.85903e-19
-4.8058e-19
4.0464e-19
1.77456e-18
1.54006e-18
1.24732e-18
1.33537e-18
1.18972e-19
1.91578e-19
6.00816e-19
-2.80745e-19
5.54818e-19
2.03645e-18
1.79166e-18
-6.42432e-19
-1.80828e-18
-3.09807e-19
3.40419e-19
6.90632e-19
-1.11626e-18
-2.2934e-18
-4.05647e-19
-8.28325e-19
-1.36874e-18
-5.83162e-19
7.92217e-19
2.02162e-19
-9.21799e-22
9.08005e-19
-1.61507e-18
-4.0359e-18
-3.48159e-18
-2.79985e-22
2.69096e-18
1.28154e-18
1.02162e-18
7.78369e-19
1.57313e-18
1.99417e-18
-1.13103e-18
-1.48125e-18
-5.33948e-19
-8.50139e-19
-1.03695e-18
-2.39945e-18
-9.22297e-19
4.90205e-19
1.02695e-19
-2.98244e-19
2.03602e-21
1.77446e-19
3.76089e-19
6.72491e-19
6.72622e-19
1.04835e-18
7.21074e-19
6.36665e-19
-1.59415e-19
-5.49236e-19
-8.58209e-19
-1.76377e-18
-4.71759e-19
-7.62279e-19
-5.30363e-19
6.16485e-19
-6.7127e-19
-1.95012e-18
-9.58017e-19
3.71153e-19
1.23333e-21
-6.58471e-19
-1.15013e-18
9.11874e-19
1.43139e-18
-3.14287e-19
7.18738e-19
1.10198e-18
1.53304e-18
1.97262e-18
1.52097e-18
3.11641e-18
3.66e-18
3.3476e-18
2.91194e-18
1.97336e-18
-6.47975e-19
-1.01998e-18
2.94267e-19
6.46635e-19
-6.9367e-19
-1.42391e-18
-1.78308e-18
-3.00934e-18
-2.81277e-18
-1.72852e-18
-7.3228e-19
-7.6391e-19
-6.15192e-19
-6.56525e-19
-3.33212e-19
-3.36986e-19
-7.073e-20
3.6524e-19
4.59581e-19
8.05962e-19
9.75528e-19
1.08089e-18
1.17863e-18
6.85136e-19
3.69596e-19
3.67107e-19
9.78138e-19
1.564e-18
1.79373e-21
-5.9215e-19
-8.27419e-19
8.09603e-19
2.17217e-18
2.57312e-21
4.73806e-19
9.66602e-19
-5.43705e-19
-5.49835e-19
-1.68074e-18
-1.88247e-18
-1.64894e-18
-2.41903e-18
-1.60926e-18
-1.8461e-18
-1.48458e-18
-1.47962e-18
-1.82743e-18
-3.00619e-18
-3.53385e-18
-2.52285e-18
-2.07643e-18
-1.68625e-18
-1.87064e-18
-1.78848e-18
-1.62796e-18
-1.6903e-18
-3.47364e-19
-1.64968e-19
5.24673e-19
2.57531e-18
1.63727e-19
-7.60861e-19
6.10556e-19
2.83188e-19
1.69217e-18
1.16584e-18
1.53711e-18
3.04474e-18
1.0802e-18
1.04363e-18
3.18485e-18
3.45862e-18
3.07375e-18
2.72762e-18
1.07914e-18
1.37067e-18
2.43617e-18
2.11375e-18
1.0675e-18
-4.22818e-19
2.10343e-19
4.45471e-19
-4.56123e-19
2.26377e-18
3.3992e-18
2.68261e-18
1.56422e-18
-1.1337e-18
-6.83884e-19
2.31832e-19
4.69298e-18
8.52299e-18
7.13359e-18
3.54055e-18
2.64891e-18
5.54328e-18
4.45741e-18
2.81714e-19
-8.35541e-19
-2.8705e-19
-1.69415e-18
-3.14594e-18
-1.13683e-18
1.17988e-18
2.89209e-18
3.58255e-18
4.55024e-18
3.47678e-18
3.43117e-18
3.6539e-18
4.16258e-18
5.05219e-18
-1.93328e-18
-4.8462e-18
-3.47498e-18
-2.26344e-18
-9.05168e-22
-1.8472e-23
8.3479e-19
-8.11836e-19
1.91353e-18
2.5153e-18
7.5218e-19
2.61969e-18
2.41914e-18
2.56247e-18
2.1384e-18
-2.06888e-18
-2.60854e-18
-1.16282e-18
-3.52902e-18
-4.18871e-18
-2.31348e-18
-1.82767e-18
-4.14252e-18
-3.87221e-18
-2.53e-18
-3.53915e-18
-3.37377e-18
-1.14479e-18
-1.97278e-18
-2.86492e-18
-2.86967e-18
-2.18202e-18
5.41282e-19
3.5353e-19
-1.15174e-18
-7.7458e-19
-4.42181e-19
-2.75989e-19
2.5812e-19
5.49073e-19
-1.3301e-21
-8.546e-19
-7.45714e-19
-7.80309e-19
7.8064e-19
2.17526e-18
1.81823e-18
1.60285e-18
6.59983e-19
-3.45517e-19
1.68241e-19
1.03856e-18
2.31778e-18
2.19546e-18
2.67387e-21
-7.46184e-19
2.41033e-18
1.75539e-18
-2.28619e-18
-1.17258e-18
1.82148e-19
-2.17492e-18
-4.73847e-18
-7.4062e-18
-5.92112e-18
-3.9472e-18
5.29271e-18
1.86971e-17
5.19231e-17
1.07625e-16
2.18828e-16
4.02971e-16
7.61623e-16
1.38115e-15
2.56469e-15
4.6798e-15
8.3874e-15
1.50322e-14
2.69313e-14
4.79413e-14
8.53068e-14
1.50459e-13
2.6465e-13
4.63875e-13
8.10474e-13
1.41153e-12
2.45204e-12
4.24616e-12
7.33178e-12
1.26166e-11
2.1653e-11
3.70538e-11
6.32253e-11
1.07558e-10
1.82431e-10
3.08508e-10
5.20178e-10
8.74449e-10
1.46554e-09
2.44877e-09
4.07928e-09
6.77458e-09
1.1216e-08
1.85117e-08
3.04576e-08
4.99543e-08
8.16713e-08
1.331e-07
2.16214e-07
3.5009e-07
5.65005e-07
9.08848e-07
1.45708e-06
2.3282e-06
3.70754e-06
5.88397e-06
9.30592e-06
1.4667e-05
2.30356e-05
3.60515e-05
5.62209e-05
8.73592e-05
0.000135251
0.000208631
0.000320631
0.000490916
0.0007488
0.0011378
0.00172221
0.00259665
0.00389964
0.00583316
0.0086902
0.0128939
0.019052
0.0280339
0.0410761
0.0599284
0.0870547
0.125905
0.181285
0.259848
0.370759
0.526564
0.744339
1.04718
1.46613
2.04267
2.8318
3.90605
5.36035
7.31803
9.93826
13.4248
18.0366
24.1001
32.0234
42.3125
55.5891
72.6108
94.2916
121.724
156.202
199.24
252.595
318.281
398.581
496.054
613.533
754.112
921.129
1118.13
1348.84
1617.08
1926.76
2281.74
2685.8
3142.56
3655.38
4227.3
4860.95
5558.53
6321.72
7151.66
8048.96
9013.63
10045.2
11142.6
12304.4
13528.6
14812.9
16154.7
17551.2
18999.3
20495.9
22037.8
23621.7
25244.3
26902.6
28593.5
30314.2
32061.9
33834.1
35628.4
37442.6
39274.8
41123.1
42985.7
44861.3
46748.2
48645.4
50551.6
52465.8
54387
56314.5
58247.3
60184.9
62126.6
64071.8
66020
67970.8
69923.8
71878.5
73834.7
75791.9
77750.1
79708.8
81667.9
83627.1
85586.4
87545.4
89504.1
91462.4
93420
95377
97333.1
99288.3
101243
103196
105148
107099
109048
110997
112944
114889
116834
118776
120718
122658
124596
126533
128468
130402
132334
134265
136194
138121
140047
141971
143894
145815
147734
149652
151568
153483
155396
157307
159217
161125
163031
164936
166839
168741
170641
172540
174437
176332
178226
180118
182008
183897
185785
187670
189555
191437
193318
195198
197076
198952
200827
202700
204572
206442
208311
210178
212043
213907
215770
217630
219489
221347
223203
225057
226910
228762
230611
232459
234306
236151
237994
239836
241676
243514
245351
247187
249020
250852
252683
254512
256339
258164
259988
261810
263631
265449
267267
269082
270896
272708
274518
276327
278134
279939
281743
283545
285345
287143
288940
290735
292528
294319
296109
297896
299682
301467
303249
305030
306808
308585
310361
312134
313906
315675
317443
319209
320973
322736
324496
326255
328011
329766
331519
333270
335019
336767
338512
340255
341997
343737
345474
347210
348944
350676
352406
354134
355860
357585
359307
361027
362746
364462
366177
367889
369600
371308
373015
374720
376422
378123
379822
381518
383213
384906
386597
388286
389973
391657
393340
395021
396700
398377
400052
401725
403396
405065
406732
408397
410060
411721
413380
415037
416692
418345
419995
421644
423291
424936
426579
428220
429859
431496
433131
434764
436395
438024
439651
441276
442899
444520
446139
447756
449372
450985
452596
454205
455812
457417
459020
460621
462220
463817
465413
467006
468597
470186
471773
473359
474942
476523
478103
479680
481255
482829
484400
485969
487537
489102
490666
492228
493787
495345
496901
498454
500006
501556
503104
504650
506193
507735
509275
510813
512350
513884
515416
516946
518474
520001
521525
523048
524568
526087
527603
529118
530631
532142
533651
535158
536663
538166
539667
541166
542663
544159
545652
547144
548633
550121
551607
553091
554572
556052
557531
559007
560481
561953
563424
564892
566359
567824
569286
570747
572206
573663
575118
576572
578023
579472
580920
582366
583809
585251
586691
588129
589566
591000
592432
593863
595291
596718
598143
599566
600987
602406
603824
605239
606653
608064
609474
610882
612288
613692
615095
616495
617894
619291
620685
622078
623470
624859
626246
627632
629015
630397
631777
633155
634532
635906
637279
638649
640018
641385
642750
644114
645475
646835
648192
649548
650902
652255
653605
654953
656300
657645
658988
660329
661669
663006
664342
665676
667008
668338
669666
670993
672318
673641
674962
676281
677599
678914
680228
681540
682850
684159
685465
686770
688073
689374
690673
691971
693266
694560
695852
697143
698431
699718
701003
702286
703567
704847
706124
707400
708674
709947
711217
712486
713753
715018
716281
717543
718803
720061
721317
722571
723824
725075
726324
727571
728817
730061
731303
732543
733781
735018
736253
737486
738718
739947
741175
742401
743625
744848
746069
747288
748505
749721
750934
752146
753357
754565
755772
756977
758180
759382
760581
761779
762976
764170
765363
766554
767743
768931
770117
771301
772483
773664
774843
776020
777195
778369
779541
780711
781879
783046
784211
785375
786536
787696
788854
790011
791165
792318
793470
794619
795767
796913
798057
799200
800341
801480
802618
803754
804888
806020
807151
808280
809408
810533
811657
812779
813900
815019
816136
817251
818365
819477
820588
821696
822803
823909
825012
826114
827214
828313
829410
830505
831599
832691
833781
834869
835956
837041
838125
839206
840287
841365
842442
843517
844590
845662
846732
847801
848868
849933
850996
852058
853118
854177
855233
856289
857342
858394
859444
860493
861540
862585
863629
864671
865711
866750
867787
868822
869856
870888
871918
872947
873975
875000
876024
877046
878067
879086
880103
881119
882133
883146
884157
885166
886174
887180
888184
889187
890188
891188
892186
893182
894177
895170
896161
897151
898139
899126
900111
901094
902076
903056
904035
905012
905987
906961
907933
908904
909873
910840
911806
912770
913733
914694
915653
916611
917567
918522
919475
920426
921376
922324
923271
924216
925160
926102
927042
927981
928918
929854
930788
931720
932651
933581
934508
935435
936359
937282
938204
939124
940042
940959
941874
942788
943700
944611
945520
946427
947333
948237
949140
950041
950941
951839
952736
953631
954524
955416
956306
957195
958083
958968
959853
960735
961616
962496
963374
964250
965125
965999
966871
967741
968610
969477
970343
971207
972070
972931
973791
974649
975506
976361
977215
978067
978917
979766
980614
981460
982304
983147
983989
984829
985667
986504
987339
988173
989006
989837
990666
991494
992320
993145
993968
994790
995611
996430
997247
998063
998877
999690
1.0005e+06
1.00131e+06
1.00212e+06
1.00293e+06
1.00373e+06
1.00454e+06
1.00534e+06
1.00614e+06
1.00694e+06
1.00774e+06
1.00853e+06
1.00933e+06
1.01012e+06
1.01091e+06
1.01171e+06
1.01249e+06
1.01328e+06
1.01407e+06
1.01485e+06
1.01564e+06
1.01642e+06
1.0172e+06
1.01798e+06
1.01875e+06
1.01953e+06
1.02031e+06
1.02108e+06
1.02185e+06
1.02262e+06
1.02339e+06
1.02416e+06
1.02492e+06
1.02569e+06
1.02645e+06
1.02721e+06
1.02797e+06
1.02873e+06
1.02948e+06
1.03024e+06
1.03099e+06
1.03175e+06
1.0325e+06
1.03325e+06
1.034e+06
1.03474e+06
1.03549e+06
1.03623e+06
1.03697e+06
1.03771e+06
1.03845e+06
1.03919e+06
1.03993e+06
1.04066e+06
1.0414e+06
1.04213e+06
1.04286e+06
1.04359e+06
1.04432e+06
1.04505e+06
1.04577e+06
1.04649e+06
1.04722e+06
1.04794e+06
1.04866e+06
1.04938e+06
1.05009e+06
1.05081e+06
1.05152e+06
1.05223e+06
1.05294e+06
1.05365e+06
1.05436e+06
1.05507e+06
1.05577e+06
1.05648e+06
1.05718e+06
1.05788e+06
1.05858e+06
1.05928e+06
1.05998e+06
1.06067e+06
1.06136e+06
1.06206e+06
1.06275e+06
1.06344e+06
1.06413e+06
1.06481e+06
1.0655e+06
1.06618e+06
1.06687e+06
1.06755e+06
1.06823e+06
1.06891e+06
1.06958e+06
1.07026e+06
1.07093e+06
1.07161e+06
1.07228e+06
1.07295e+06
1.07362e+06
1.07428e+06
1.07495e+06
1.07561e+06
1.07628e+06
1.07694e+06
1.0776e+06
1.07826e+06
1.07892e+06
1.07957e+06
1.08023e+06
1.08088e+06
1.08153e+06
1.08218e+06
1.08283e+06
1.08348e+06
1.08413e+06
1.08477e+06
1.08542e+06
1.08606e+06
1.0867e+06
1.08734e+06
1.08798e+06
1.08861e+06
1.08925e+06
1.08988e+06
1.09052e+06
1.09115e+06
1.09178e+06
1.09241e+06
1.09303e+06
1.09366e+06
1.09429e+06
1.09491e+06
1.09553e+06
1.09615e+06
1.09677e+06
1.09739e+06
1.09801e+06
1.09862e+06
1.09923e+06
1.09985e+06
1.10046e+06
1.10107e+06
1.10168e+06
1.10228e+06
1.10289e+06
1.10349e+06
1.1041e+06
1.1047e+06
1.1053e+06
1.1059e+06
1.1065e+06
1.10709e+06
1.10769e+06
1.10828e+06
1.10887e+06
1.10946e+06
1.11005e+06
1.11064e+06
1.11123e+06
1.11181e+06
1.1124e+06
1.11298e+06
1.11356e+06
1.11414e+06
1.11472e+06
1.1153e+06
1.11588e+06
1.11645e+06
1.11703e+06
1.1176e+06
1.11817e+06
1.11874e+06
1.11931e+06
1.11987e+06
1.12044e+06
1.121e+06
1.12157e+06
1.12213e+06
1.12269e+06
1.12325e+06
1.12381e+06
1.12436e+06
1.12492e+06
1.12547e+06
1.12603e+06
1.12658e+06
1.12713e+06
1.12768e+06
1.12822e+06
1.12877e+06
1.12931e+06
1.12986e+06
1.1304e+06
1.13094e+06
1.13148e+06
1.13202e+06
1.13256e+06
1.13309e+06
1.13363e+06
1.13416e+06
1.13469e+06
1.13522e+06
1.13575e+06
1.13628e+06
1.13681e+06
1.13733e+06
1.13786e+06
1.13838e+06
1.1389e+06
1.13942e+06
1.13994e+06
1.14046e+06
1.14097e+06
1.14149e+06
1.142e+06
1.14252e+06
1.14303e+06
1.14354e+06
1.14405e+06
1.14455e+06
1.14506e+06
1.14556e+06
1.14607e+06
1.14657e+06
1.14707e+06
1.14757e+06
1.14807e+06
1.14857e+06
1.14906e+06
1.14956e+06
1.15005e+06
1.15054e+06
1.15104e+06
1.15153e+06
1.15201e+06
1.1525e+06
1.15299e+06
1.15347e+06
1.15396e+06
1.15444e+06
1.15492e+06
1.1554e+06
1.15588e+06
1.15635e+06
1.15683e+06
1.1573e+06
1.15778e+06
1.15825e+06
1.15872e+06
1.15919e+06
1.15966e+06
1.16013e+06
1.16059e+06
1.16106e+06
1.16152e+06
1.16198e+06
1.16244e+06
1.1629e+06
1.16336e+06
1.16382e+06
1.16428e+06
1.16473e+06
1.16518e+06
1.16564e+06
1.16609e+06
1.16654e+06
1.16699e+06
1.16743e+06
1.16788e+06
1.16833e+06
1.16877e+06
1.16921e+06
1.16965e+06
1.17009e+06
1.17053e+06
1.17097e+06
1.17141e+06
1.17184e+06
1.17228e+06
1.17271e+06
1.17314e+06
1.17357e+06
1.174e+06
1.17443e+06
1.17485e+06
1.17528e+06
1.1757e+06
1.17613e+06
1.17655e+06
1.17697e+06
1.17739e+06
1.17781e+06
1.17822e+06
1.17864e+06
1.17905e+06
1.17947e+06
1.17988e+06
1.18029e+06
1.1807e+06
1.18111e+06
1.18152e+06
1.18192e+06
1.18233e+06
1.18273e+06
1.18313e+06
1.18354e+06
1.18394e+06
1.18433e+06
1.18473e+06
1.18513e+06
1.18552e+06
1.18592e+06
1.18631e+06
1.1867e+06
1.18709e+06
1.18748e+06
1.18787e+06
1.18826e+06
1.18865e+06
1.18903e+06
1.18941e+06
1.1898e+06
1.19018e+06
1.19056e+06
1.19094e+06
1.19131e+06
1.19169e+06
1.19207e+06
1.19244e+06
1.19281e+06
1.19319e+06
1.19356e+06
1.19393e+06
1.19429e+06
1.19466e+06
1.19503e+06
1.19539e+06
1.19576e+06
1.19612e+06
1.19648e+06
1.19684e+06
1.1972e+06
1.19756e+06
1.19791e+06
1.19827e+06
1.19862e+06
1.19898e+06
1.19933e+06
1.19968e+06
1.20003e+06
1.20038e+06
1.20073e+06
1.20107e+06
1.20142e+06
1.20176e+06
1.2021e+06
1.20245e+06
1.20279e+06
1.20313e+06
1.20347e+06
1.2038e+06
1.20414e+06
1.20447e+06
1.20481e+06
1.20514e+06
1.20547e+06
1.2058e+06
1.20613e+06
1.20646e+06
1.20679e+06
1.20711e+06
1.20744e+06
1.20776e+06
1.20808e+06
1.2084e+06
1.20872e+06
1.20904e+06
1.20936e+06
1.20968e+06
1.20999e+06
1.21031e+06
1.21062e+06
1.21093e+06
1.21124e+06
1.21155e+06
1.21186e+06
1.21217e+06
1.21248e+06
1.21278e+06
1.21309e+06
1.21339e+06
1.21369e+06
1.21399e+06
1.21429e+06
1.21459e+06
1.21489e+06
1.21519e+06
1.21548e+06
1.21578e+06
1.21607e+06
1.21636e+06
1.21665e+06
1.21694e+06
1.21723e+06
1.21752e+06
1.21781e+06
1.21809e+06
1.21837e+06
1.21866e+06
1.21894e+06
1.21922e+06
1.2195e+06
1.21978e+06
1.22006e+06
1.22034e+06
1.22061e+06
1.22089e+06
1.22116e+06
1.22143e+06
1.2217e+06
1.22197e+06
1.22224e+06
1.22251e+06
1.22278e+06
1.22304e+06
1.22331e+06
1.22357e+06
1.22383e+06
1.22409e+06
1.22435e+06
1.22461e+06
1.22487e+06
1.22513e+06
1.22539e+06
1.22564e+06
1.22589e+06
1.22615e+06
1.2264e+06
1.22665e+06
1.2269e+06
1.22715e+06
1.2274e+06
1.22764e+06
1.22789e+06
1.22813e+06
1.22837e+06
1.22862e+06
1.22886e+06
1.2291e+06
1.22934e+06
1.22957e+06
1.22981e+06
1.23005e+06
1.23028e+06
1.23051e+06
1.23075e+06
1.23098e+06
1.23121e+06
1.23144e+06
1.23167e+06
1.23189e+06
1.23212e+06
1.23235e+06
1.23257e+06
1.23279e+06
1.23301e+06
1.23324e+06
1.23346e+06
1.23367e+06
1.23389e+06
1.23411e+06
1.23432e+06
1.23454e+06
1.23475e+06
1.23497e+06
1.23518e+06
1.23539e+06
1.2356e+06
1.23581e+06
1.23601e+06
1.23622e+06
1.23642e+06
1.23663e+06
1.23683e+06
1.23703e+06
1.23723e+06
1.23743e+06
1.23763e+06
1.23783e+06
1.23803e+06
1.23822e+06
1.23842e+06
1.23861e+06
1.23881e+06
1.239e+06
1.23919e+06
1.23938e+06
1.23957e+06
1.23976e+06
1.23994e+06
1.24013e+06
1.24031e+06
1.2405e+06
1.24068e+06
1.24086e+06
1.24104e+06
1.24122e+06
1.2414e+06
1.24158e+06
1.24175e+06
1.24193e+06
1.2421e+06
1.24228e+06
1.24245e+06
1.24262e+06
1.24279e+06
1.24296e+06
1.24313e+06
1.2433e+06
1.24346e+06
1.24363e+06
1.24379e+06
1.24396e+06
1.24412e+06
1.24428e+06
1.24444e+06
1.2446e+06
1.24476e+06
1.24492e+06
1.24507e+06
1.24523e+06
1.24538e+06
1.24554e+06
1.24569e+06
1.24584e+06
1.24599e+06
1.24614e+06
1.24629e+06
1.24644e+06
1.24658e+06
1.24673e+06
1.24687e+06
1.24702e+06
1.24716e+06
1.2473e+06
1.24744e+06
1.24758e+06
1.24772e+06
1.24786e+06
1.24799e+06
1.24813e+06
1.24826e+06
1.2484e+06
1.24853e+06
1.24866e+06
1.24879e+06
1.24892e+06
1.24905e+06
1.24918e+06
1.24931e+06
1.24943e+06
1.24956e+06
1.24968e+06
1.2498e+06
1.24993e+06
1.25005e+06
1.25017e+06
1.25029e+06
1.25041e+06
1.25052e+06
1.25064e+06
1.25075e+06
1.25087e+06
1.25098e+06
1.25109e+06
1.25121e+06
1.25132e+06
1.25143e+06
1.25153e+06
1.25164e+06
1.25175e+06
1.25185e+06
1.25196e+06
1.25206e+06
1.25217e+06
1.25227e+06
1.25237e+06
1.25247e+06
1.25257e+06
1.25267e+06
1.25276e+06
1.25286e+06
1.25296e+06
1.25305e+06
1.25314e+06
1.25324e+06
1.25333e+06
1.25342e+06
1.25351e+06
1.2536e+06
1.25368e+06
1.25377e+06
1.25386e+06
1.25394e+06
1.25403e+06
1.25411e+06
1.25419e+06
1.25427e+06
1.25435e+06
1.25443e+06
1.25451e+06
1.25459e+06
1.25466e+06
1.25474e+06
1.25481e+06
1.25489e+06
1.25496e+06
1.25503e+06
1.2551e+06
1.25517e+06
1.25524e+06
1.25531e+06
1.25538e+06
1.25544e+06
1.25551e+06
1.25558e+06
1.25564e+06
1.2557e+06
1.25576e+06
1.25582e+06
1.25588e+06
1.25594e+06
1.256e+06
1.25606e+06
1.25611e+06
1.25617e+06
1.25622e+06
1.25628e+06
1.25633e+06
1.25638e+06
1.25643e+06
1.25648e+06
1.25653e+06
1.25658e+06
1.25663e+06
1.25667e+06
1.25672e+06
1.25676e+06
1.25681e+06
1.25685e+06
1.25689e+06
1.25693e+06
1.25697e+06
1.25701e+06
1.25705e+06
1.25709e+06
1.25713e+06
1.25716e+06
1.2572e+06
1.25723e+06
1.25726e+06
1.25729e+06
1.25733e+06
1.25736e+06
1.25739e+06
1.25741e+06
1.25744e+06
1.25747e+06
1.25749e+06
1.25752e+06
1.25754e+06
1.25757e+06
1.25759e+06
1.25761e+06
1.25763e+06
1.25765e+06
1.25767e+06
1.25769e+06
1.2577e+06
1.25772e+06
1.25774e+06
1.25775e+06
1.25776e+06
1.25778e+06
1.25779e+06
1.2578e+06
1.25781e+06
1.25782e+06
1.25783e+06
1.25783e+06
1.25784e+06
1.25785e+06
1.25785e+06
1.25785e+06
1.25786e+06
1.25786e+06
1.25786e+06
1.25786e+06
1.25786e+06
1.25786e+06
1.25786e+06
1.25786e+06
1.25785e+06
1.25785e+06
1.25784e+06
1.25784e+06
1.25783e+06
1.25782e+06
1.25781e+06
1.2578e+06
1.25779e+06
1.25778e+06
1.25777e+06
1.25775e+06
1.25774e+06
1.25772e+06
1.25771e+06
1.25769e+06
1.25768e+06
1.25766e+06
1.25764e+06
1.25762e+06
1.2576e+06
1.25758e+06
1.25755e+06
1.25753e+06
1.25751e+06
1.25748e+06
1.25746e+06
1.25743e+06
1.2574e+06
1.25737e+06
1.25734e+06
1.25731e+06
1.25728e+06
1.25725e+06
1.25722e+06
1.25719e+06
1.25715e+06
1.25712e+06
1.25708e+06
1.25704e+06
1.25701e+06
1.25697e+06
1.25693e+06
1.25689e+06
1.25685e+06
1.25681e+06
1.25676e+06
1.25672e+06
1.25668e+06
1.25663e+06
1.25659e+06
1.25654e+06
1.25649e+06
1.25645e+06
1.2564e+06
1.25635e+06
1.2563e+06
1.25624e+06
1.25619e+06
1.25614e+06
1.25609e+06
1.25603e+06
1.25598e+06
1.25592e+06
1.25586e+06
1.2558e+06
1.25575e+06
1.25569e+06
1.25563e+06
1.25556e+06
1.2555e+06
1.25544e+06
1.25538e+06
1.25531e+06
1.25525e+06
1.25518e+06
1.25511e+06
1.25505e+06
1.25498e+06
1.25491e+06
1.25484e+06
1.25477e+06
1.2547e+06
1.25463e+06
1.25455e+06
1.25448e+06
1.2544e+06
1.25433e+06
1.25425e+06
1.25418e+06
1.2541e+06
1.25402e+06
1.25394e+06
1.25386e+06
1.25378e+06
1.2537e+06
1.25361e+06
1.25353e+06
1.25345e+06
1.25336e+06
1.25328e+06
1.25319e+06
1.2531e+06
1.25302e+06
1.25293e+06
1.25284e+06
1.25275e+06
1.25266e+06
1.25256e+06
1.25247e+06
1.25238e+06
1.25228e+06
1.25219e+06
1.25209e+06
1.252e+06
1.2519e+06
1.2518e+06
1.2517e+06
1.2516e+06
1.2515e+06
1.2514e+06
1.2513e+06
1.2512e+06
1.25109e+06
1.25099e+06
1.25088e+06
1.25078e+06
1.25067e+06
1.25056e+06
1.25046e+06
1.25035e+06
1.25024e+06
1.25013e+06
1.25002e+06
1.24991e+06
1.24979e+06
1.24968e+06
1.24957e+06
1.24945e+06
1.24933e+06
1.24922e+06
1.2491e+06
1.24898e+06
1.24887e+06
1.24875e+06
1.24863e+06
1.2485e+06
1.24838e+06
1.24826e+06
1.24814e+06
1.24801e+06
1.24789e+06
1.24776e+06
1.24764e+06
1.24751e+06
1.24738e+06
1.24726e+06
1.24713e+06
1.247e+06
1.24687e+06
1.24674e+06
1.2466e+06
1.24647e+06
1.24634e+06
1.2462e+06
1.24607e+06
1.24593e+06
1.2458e+06
1.24566e+06
1.24552e+06
1.24538e+06
1.24524e+06
1.2451e+06
1.24496e+06
1.24482e+06
1.24468e+06
1.24454e+06
1.24439e+06
1.24425e+06
1.2441e+06
1.24396e+06
1.24381e+06
1.24366e+06
1.24352e+06
1.24337e+06
1.24322e+06
1.24307e+06
1.24292e+06
1.24277e+06
1.24261e+06
1.24246e+06
1.24231e+06
1.24215e+06
1.242e+06
1.24184e+06
1.24169e+06
1.24153e+06
1.24137e+06
1.24121e+06
1.24105e+06
1.24089e+06
1.24073e+06
1.24057e+06
1.24041e+06
1.24024e+06
1.24008e+06
1.23992e+06
1.23975e+06
1.23959e+06
1.23942e+06
1.23925e+06
1.23908e+06
1.23892e+06
1.23875e+06
1.23858e+06
1.23841e+06
1.23823e+06
1.23806e+06
1.23789e+06
1.23772e+06
1.23754e+06
1.23737e+06
1.23719e+06
1.23702e+06
1.23684e+06
1.23666e+06
1.23648e+06
1.2363e+06
1.23612e+06
1.23594e+06
1.23576e+06
1.23558e+06
1.2354e+06
1.23522e+06
1.23503e+06
1.23485e+06
1.23466e+06
1.23448e+06
1.23429e+06
1.2341e+06
1.23392e+06
1.23373e+06
1.23354e+06
1.23335e+06
1.23316e+06
1.23297e+06
1.23277e+06
1.23258e+06
1.23239e+06
1.23219e+06
1.232e+06
1.2318e+06
1.23161e+06
1.23141e+06
1.23121e+06
1.23102e+06
1.23082e+06
1.23062e+06
1.23042e+06
1.23022e+06
1.23002e+06
1.22981e+06
1.22961e+06
1.22941e+06
1.2292e+06
1.229e+06
1.22879e+06
1.22859e+06
1.22838e+06
1.22817e+06
1.22797e+06
1.22776e+06
1.22755e+06
1.22734e+06
1.22713e+06
1.22692e+06
1.2267e+06
1.22649e+06
1.22628e+06
1.22606e+06
1.22585e+06
1.22564e+06
1.22542e+06
1.2252e+06
1.22499e+06
1.22477e+06
1.22455e+06
1.22433e+06
1.22411e+06
1.22389e+06
1.22367e+06
1.22345e+06
1.22323e+06
1.223e+06
1.22278e+06
1.22255e+06
1.22233e+06
1.2221e+06
1.22188e+06
1.22165e+06
1.22142e+06
1.2212e+06
1.22097e+06
1.22074e+06
1.22051e+06
1.22028e+06
1.22005e+06
1.21981e+06
1.21958e+06
1.21935e+06
1.21911e+06
1.21888e+06
1.21864e+06
1.21841e+06
1.21817e+06
1.21794e+06
1.2177e+06
1.21746e+06
1.21722e+06
1.21698e+06
1.21674e+06
1.2165e+06
1.21626e+06
1.21602e+06
1.21578e+06
1.21553e+06
1.21529e+06
1.21504e+06
1.2148e+06
1.21455e+06
1.21431e+06
1.21406e+06
1.21381e+06
1.21356e+06
1.21332e+06
1.21307e+06
1.21282e+06
1.21257e+06
1.21231e+06
1.21206e+06
1.21181e+06
1.21156e+06
1.2113e+06
1.21105e+06
1.21079e+06
1.21054e+06
1.21028e+06
1.21003e+06
1.20977e+06
1.20951e+06
1.20925e+06
1.20899e+06
1.20873e+06
1.20847e+06
1.20821e+06
1.20795e+06
1.20769e+06
1.20742e+06
1.20716e+06
1.2069e+06
1.20663e+06
1.20637e+06
1.2061e+06
1.20584e+06
1.20557e+06
1.2053e+06
1.20503e+06
1.20476e+06
1.20449e+06
1.20422e+06
1.20395e+06
1.20368e+06
1.20341e+06
1.20314e+06
1.20287e+06
1.20259e+06
1.20232e+06
1.20204e+06
1.20177e+06
1.20149e+06
1.20122e+06
1.20094e+06
1.20066e+06
1.20038e+06
1.2001e+06
1.19983e+06
1.19955e+06
1.19927e+06
1.19898e+06
1.1987e+06
1.19842e+06
1.19814e+06
1.19785e+06
1.19757e+06
1.19729e+06
1.197e+06
1.19671e+06
1.19643e+06
1.19614e+06
1.19585e+06
1.19557e+06
1.19528e+06
1.19499e+06
1.1947e+06
1.19441e+06
1.19412e+06
1.19383e+06
1.19353e+06
1.19324e+06
1.19295e+06
1.19265e+06
1.19236e+06
1.19207e+06
1.19177e+06
1.19147e+06
1.19118e+06
1.19088e+06
1.19058e+06
1.19028e+06
1.18999e+06
1.18969e+06
1.18939e+06
1.18909e+06
1.18879e+06
1.18848e+06
1.18818e+06
1.18788e+06
1.18758e+06
1.18727e+06
1.18697e+06
1.18666e+06
1.18636e+06
1.18605e+06
1.18574e+06
1.18544e+06
1.18513e+06
1.18482e+06
1.18451e+06
1.1842e+06
1.18389e+06
1.18358e+06
1.18327e+06
1.18296e+06
1.18265e+06
1.18234e+06
1.18202e+06
1.18171e+06
1.18139e+06
1.18108e+06
1.18076e+06
1.18045e+06
1.18013e+06
1.17982e+06
1.1795e+06
1.17918e+06
1.17886e+06
1.17854e+06
1.17822e+06
1.1779e+06