/*--------------------------------*- C++ -*----------------------------------*\
  =========                 |
  \\      /  F ield         | OpenFOAM: The Open Source CFD Toolbox
   \\    /   O peration     | Website:  https://openfoam.org
    \\  /    A nd           | Version:  9
     \\/     M anipulation  |
\*---------------------------------------------------------------------------*/
FoamFile
{
    format      ascii;
    class       volScalarField;
    location    "0.011";
    object      ddt0(rho);
}
// * * * * * * * * * * * * * * * * * * * * * * * * * * * * * * * * * * * * * //

dimensions      [1 -3 -1 0 0 0 0];

internalField   nonuniform List<scalar> 
10000
(
1.70566e-10
-8.94891e-10
6.91775e-12
2.23743e-10
-2.7001e-10
-4.94697e-10
-3.18268e-10
-4.20113e-10
2.83503e-10
6.84132e-12
-2.50667e-11
1.15186e-10
2.56628e-10
-3.71738e-10
-4.40681e-10
5.76443e-10
1.91008e-10
5.24407e-10
-4.46376e-11
-2.33829e-10
-4.51055e-10
-4.97454e-10
-2.15903e-10
-1.83375e-11
-4.15978e-10
-3.89056e-10
-4.30919e-10
-3.5854e-10
3.31941e-10
-2.04113e-10
-4.27269e-10
-1.11947e-10
8.88039e-10
9.13422e-10
-4.26259e-11
1.08785e-09
3.64071e-10
7.06284e-10
-1.21155e-10
4.47534e-10
1.33019e-10
5.0992e-10
8.93477e-10
3.472e-10
1.11026e-09
7.38746e-12
1.81927e-10
2.7154e-10
6.57255e-10
3.03889e-10
9.10855e-10
6.25358e-10
-8.83999e-10
-8.73148e-10
-7.35871e-10
-4.78916e-10
1.91846e-11
1.46379e-10
1.96499e-10
-8.68912e-10
7.74239e-10
1.78517e-10
-1.95677e-10
-1.12856e-09
-4.68641e-10
2.70029e-10
1.69828e-11
-5.41958e-11
6.50476e-10
-2.42042e-11
-9.38849e-10
-6.51002e-10
1.54357e-10
5.51962e-10
1.69568e-09
-2.77748e-10
3.84525e-10
4.5934e-10
1.2959e-09
-1.96118e-10
-7.02841e-10
8.86114e-10
5.4833e-11
1.90543e-10
1.97132e-10
4.86823e-10
-5.30412e-11
-1.84253e-10
3.77662e-12
2.40323e-10
4.4716e-10
-6.92888e-10
-6.71548e-10
-1.40189e-10
-9.03109e-10
-1.91917e-11
1.36806e-10
-1.66517e-11
-6.06272e-10
-2.25462e-10
-5.06316e-10
-1.09563e-09
-4.9486e-10
-6.2254e-10
-6.19526e-10
-1.13338e-09
-5.53394e-10
-1.33469e-09
-4.50204e-10
4.16013e-12
-4.12862e-10
2.32013e-11
-5.33107e-10
-7.65496e-10
2.10347e-10
-1.72794e-10
6.37371e-10
-2.77247e-10
6.28175e-10
1.87423e-10
3.73378e-10
2.11923e-11
-1.60037e-10
-2.63042e-11
-2.69269e-10
4.63516e-10
-2.50647e-10
-5.35614e-10
-2.61215e-11
1.17262e-10
-2.90973e-11
1.68842e-10
-1.85842e-10
-1.50677e-10
-2.92741e-10
1.11046e-09
6.88212e-10
7.30605e-10
2.82186e-10
2.15201e-10
-1.14143e-10
-1.99872e-10
-7.60341e-11
6.59753e-10
2.80463e-10
-4.10237e-10
-7.20981e-10
7.12362e-10
1.2013e-09
1.40543e-10
-2.0998e-10
-1.5887e-10
-2.78797e-11
3.99065e-10
1.95233e-11
1.81157e-10
4.27832e-10
-1.35285e-10
-5.69439e-10
1.96993e-10
2.42494e-10
-2.06974e-10
-5.97777e-11
5.45535e-12
-2.33909e-10
-2.45693e-10
-4.24651e-12
2.68674e-10
-8.82259e-11
1.97741e-10
2.20285e-10
2.3577e-10
-5.07994e-10
-1.1025e-09
2.01233e-10
-2.43106e-10
-2.5769e-10
-1.038e-09
-3.35687e-10
3.998e-10
5.55535e-12
1.43184e-10
-4.74317e-10
-1.82112e-11
-1.43177e-10
7.15672e-10
-9.34129e-12
6.3708e-11
-5.66221e-11
5.05472e-10
2.25161e-10
6.3347e-10
3.91974e-10
4.49442e-10
2.77401e-10
5.17254e-11
-2.04885e-10
4.25974e-11
8.15047e-10
1.54533e-09
4.41261e-10
-3.16612e-11
5.98367e-10
3.69954e-10
-6.73631e-10
-4.46009e-10
-2.18343e-10
-5.00342e-10
-6.56765e-10
2.9193e-10
3.35486e-11
6.00649e-15
-8.23158e-10
6.65712e-10
5.97115e-10
-1.3226e-10
-4.14047e-10
1.80774e-10
5.36212e-11
-1.06344e-10
-7.26843e-10
-7.9405e-12
6.20723e-10
5.74861e-11
-2.19894e-10
-5.96608e-10
-5.92106e-10
-6.73423e-10
3.11735e-11
-2.44871e-10
1.07677e-09
1.02645e-11
-1.56843e-10
-3.31433e-11
3.85345e-11
-6.42708e-11
-7.07888e-10
1.36455e-10
1.90168e-10
6.597e-10
-2.04518e-10
-5.22064e-10
-8.16814e-10
-6.69576e-10
-4.67606e-10
-5.97472e-10
2.6215e-10
1.18308e-10
3.98217e-10
6.49802e-10
1.41066e-10
-1.86579e-10
-2.90381e-11
-2.4638e-11
-8.74301e-10
5.41417e-11
6.72468e-10
-2.8121e-10
2.08305e-10
-4.29612e-10
5.67945e-11
1.08354e-10
7.64046e-10
9.10889e-10
-1.03335e-10
-4.60646e-10
4.11964e-10
-4.71433e-10
-6.44742e-11
6.46741e-10
2.8278e-11
-1.75179e-10
-2.40535e-10
4.59452e-10
-7.4495e-12
1.92957e-11
-3.38396e-12
-2.40939e-10
-4.15239e-10
1.46682e-11
-5.94343e-10
-2.31006e-10
-2.79477e-10
-2.41569e-11
-6.96323e-12
-3.50245e-10
1.41844e-11
-4.86358e-10
8.43829e-12
-7.43574e-11
2.19465e-11
4.53282e-10
1.14215e-09
2.20608e-11
8.09359e-12
1.59314e-10
2.1487e-10
4.66278e-10
3.96952e-10
3.73669e-10
1.17658e-09
3.79556e-11
8.86105e-10
4.07035e-10
-7.70399e-11
3.95375e-10
2.4162e-10
1.52029e-09
5.64599e-10
3.15787e-10
4.18656e-10
2.07899e-10
9.65148e-10
1.94303e-10
4.03181e-10
5.59002e-11
4.58079e-10
4.48162e-10
2.46263e-10
-9.14631e-10
1.85076e-11
-2.62345e-10
-4.43753e-10
5.70691e-11
-4.25693e-10
-3.28492e-11
-1.06892e-09
-5.14085e-10
-8.21451e-10
-8.70884e-10
-1.37606e-09
1.85294e-10
-7.63554e-10
-4.82549e-10
-1.11369e-09
-2.16077e-10
-7.91635e-10
-7.55574e-11
4.48417e-10
-2.3229e-10
2.00175e-10
-3.75413e-10
-4.85752e-10
-4.9061e-10
2.48264e-10
-7.00145e-10
3.5534e-10
-1.82545e-10
2.5956e-10
-1.96808e-10
6.98803e-10
1.72005e-10
2.76757e-10
1.87651e-10
5.32731e-10
1.07367e-09
1.15775e-09
9.9515e-10
8.15437e-10
5.0343e-10
3.91524e-10
-1.66513e-10
-2.1647e-10
-3.63904e-10
4.07117e-10
2.59364e-10
1.5888e-10
3.99334e-10
1.68159e-10
4.68944e-10
-4.52789e-11
9.33442e-10
-4.65849e-10
-2.69437e-10
-7.82575e-11
-1.77432e-10
-3.26754e-10
-5.76392e-10
-4.94202e-10
-2.20045e-11
-2.05641e-10
-1.24302e-09
-2.67434e-10
-2.80831e-11
-2.12414e-11
3.54237e-10
-1.4702e-10
2.1408e-10
-5.01336e-10
-5.84954e-11
1.79903e-10
3.42833e-11
1.06194e-09
-2.24772e-10
-8.29768e-13
-4.52659e-10
-2.35159e-10
6.68742e-11
6.51877e-10
8.74643e-10
2.31427e-10
-1.10311e-09
-2.06023e-10
-2.50159e-10
4.33506e-10
-6.09216e-10
-4.3758e-10
-2.6081e-10
6.64959e-10
6.46684e-10
3.41871e-11
-3.59179e-10
-1.8116e-10
-4.74191e-10
-1.30574e-09
-8.99237e-10
-1.87572e-10
-1.69086e-10
-7.28643e-10
-2.04659e-10
4.94074e-10
6.26181e-10
-3.97595e-10
-7.93029e-10
-4.24758e-10
5.95462e-10
8.89089e-10
1.08837e-09
6.26289e-10
3.71182e-11
-3.57542e-10
5.64795e-12
7.05149e-10
-2.54285e-10
7.10447e-10
-1.85101e-11
4.43932e-10
-8.98365e-10
-6.35358e-10
1.3643e-11
6.29801e-10
4.40814e-10
8.62871e-12
1.58708e-09
4.37189e-10
8.29427e-10
6.10277e-10
3.86908e-10
-4.22319e-10
-8.81992e-11
2.02769e-10
2.31549e-10
-2.05863e-10
-9.60801e-10
2.60093e-10
-3.59156e-11
-4.61497e-10
6.67167e-10
-1.28439e-09
-4.58739e-10
-2.13675e-10
-1.98605e-11
-2.49916e-10
-3.87486e-10
-4.40263e-10
-5.98124e-11
-2.47597e-10
-8.47805e-10
-3.39607e-11
4.45494e-13
-8.07113e-10
7.2715e-11
4.60303e-10
1.91073e-10
-4.85835e-10
-5.00702e-10
-1.26259e-09
-3.99019e-10
2.6339e-10
-1.59499e-09
-4.21124e-10
-1.82429e-10
1.32185e-10
-2.52144e-10
3.82109e-10
6.79202e-10
1.12747e-10
-4.98164e-10
3.98577e-10
1.06264e-10
2.30519e-10
-2.42421e-10
2.20173e-10
8.99357e-10
6.51462e-10
-6.09996e-10
-5.45325e-10
-6.32453e-11
4.25194e-10
4.93227e-10
6.3284e-10
3.8193e-10
1.0699e-09
8.13611e-10
9.68492e-10
1.13224e-09
2.37808e-10
5.30033e-10
-2.3124e-11
1.32326e-09
-1.4126e-09
4.58371e-11
8.80827e-11
2.59896e-10
6.5673e-10
3.9517e-10
7.1108e-10
2.89264e-10
-3.33838e-11
-3.52573e-10
-4.54323e-10
-5.16016e-10
-5.02275e-10
-6.30568e-10
-2.5895e-10
4.29479e-10
-6.95376e-10
-6.76181e-10
-2.0731e-10
-8.99013e-10
-9.75187e-10
-6.86339e-10
-1.47141e-10
-8.20408e-10
-9.08586e-10
-2.52928e-10
-6.7472e-10
-4.39551e-10
-6.94255e-10
1.02097e-10
-1.35933e-11
6.62406e-10
4.01579e-10
-2.27385e-10
2.18733e-10
1.61906e-10
1.72968e-10
6.48156e-10
-6.55091e-10
4.12426e-10
-6.18097e-10
2.34592e-10
6.27521e-10
2.7537e-11
6.66742e-10
1.35187e-09
4.6147e-10
4.43223e-10
-2.07699e-11
6.34401e-10
1.13822e-09
4.48026e-10
5.27275e-10
-6.77465e-10
8.32828e-10
5.30303e-10
5.57925e-11
6.20746e-10
1.7267e-10
7.59547e-11
4.17585e-10
1.64069e-10
1.70206e-10
-2.63921e-10
-1.61304e-10
-3.53136e-10
-4.23911e-10
-7.94465e-10
-7.21592e-10
1.55962e-10
-1.53853e-09
-4.21718e-10
-1.34823e-09
1.94349e-10
-6.81589e-10
8.80557e-12
-5.06245e-10
-2.25402e-11
2.63429e-10
-9.58553e-10
3.47618e-11
8.73685e-10
2.69578e-10
-4.81974e-11
1.97011e-10
3.5986e-10
3.57389e-10
5.27626e-11
8.28404e-10
7.13808e-10
-3.65211e-11
-3.86167e-11
1.06214e-09
9.12917e-10
3.20357e-10
3.92808e-10
8.21216e-10
4.27345e-10
7.42983e-10
9.46778e-10
6.67991e-10
-2.31265e-10
2.44588e-10
-5.18826e-10
-7.35434e-11
-1.5698e-11
2.35095e-10
6.73817e-10
-6.69475e-10
8.93287e-10
2.4607e-10
-1.29243e-11
-3.37554e-11
5.81909e-10
-1.78472e-10
-4.70903e-10
-2.95399e-10
-3.93468e-10
-4.48515e-10
-2.17118e-11
-4.18003e-10
-3.94633e-10
-6.81761e-10
4.01185e-10
-7.8793e-10
-6.85666e-10
-5.51758e-12
5.05073e-10
-2.30864e-11
2.82427e-10
1.03598e-10
-3.63766e-10
6.6947e-10
1.62866e-10
8.75325e-10
3.19429e-10
2.44931e-10
7.02595e-10
8.89643e-10
5.036e-10
2.37075e-10
-6.82336e-10
-2.03229e-10
4.0639e-10
2.00134e-10
1.94363e-12
-2.64889e-10
-2.95887e-10
-5.45016e-12
8.90082e-10
1.43659e-11
2.86299e-11
1.05923e-09
2.22121e-10
6.65503e-10
2.1829e-10
2.67314e-10
-2.37145e-10
-1.02971e-11
2.33633e-10
1.6756e-09
2.55191e-10
-4.50188e-10
8.54303e-11
-1.38028e-10
9.34607e-10
-1.46611e-11
-4.51639e-10
3.54761e-11
-7.62005e-10
-1.75604e-11
-3.53332e-10
-8.87222e-10
-7.58447e-11
8.88553e-10
-4.47704e-10
-5.9173e-11
-1.2667e-09
4.99334e-10
7.04015e-11
9.13699e-10
4.63302e-10
-7.21195e-10
-9.13371e-10
-4.73958e-10
-5.66181e-10
-6.50467e-10
2.29947e-10
2.33993e-11
2.10603e-10
-4.28566e-10
-1.94827e-11
4.75285e-10
-9.31858e-10
-1.88975e-10
1.14663e-09
1.72938e-11
6.88975e-10
-1.09388e-09
-3.78422e-10
-7.0069e-10
-3.46113e-10
-6.85033e-10
-1.99942e-10
4.94571e-11
-4.957e-10
-8.87051e-10
1.32089e-10
-3.66128e-10
-2.16346e-10
-4.15991e-10
-6.35539e-10
-5.05948e-10
-2.13499e-10
-1.43397e-10
3.95215e-10
-2.15523e-13
1.08991e-09
6.31031e-10
3.1906e-10
-7.55838e-11
4.89017e-10
6.47359e-10
-2.61401e-10
4.25257e-10
-4.86606e-10
5.8818e-10
3.95112e-10
-2.26175e-10
-2.50285e-10
6.7178e-10
4.80464e-10
-1.63623e-10
-1.40453e-10
-2.01378e-10
-5.61592e-10
-9.12072e-10
-1.98938e-09
-2.30689e-09
-3.49226e-09
-4.27176e-09
-5.36202e-09
-6.86334e-09
-8.1512e-09
-1.06255e-08
-1.42534e-08
-1.90139e-08
-2.54114e-08
-3.53567e-08
-4.58935e-08
-6.11269e-08
-8.12075e-08
-1.09582e-07
-1.45687e-07
-1.92822e-07
-2.56164e-07
-3.38714e-07
-4.47256e-07
-5.90296e-07
-7.7738e-07
-1.02365e-06
-1.3444e-06
-1.76479e-06
-2.31183e-06
-3.02463e-06
-3.95336e-06
-5.15669e-06
-6.71802e-06
-8.73857e-06
-1.13488e-05
-1.47181e-05
-1.9059e-05
-2.46427e-05
-3.18123e-05
-4.10053e-05
-5.27721e-05
-6.78106e-05
-8.69944e-05
-0.00011143
-0.000142501
-0.000181939
-0.000231917
-0.000295136
-0.000374968
-0.0004756
-0.000602226
-0.000761268
-0.000960669
-0.00121021
-0.00152191
-0.00191053
-0.00239414
-0.00299478
-0.00373935
-0.00466051
-0.00579789
-0.00719942
-0.00892292
-0.011038
-0.0136282
-0.0167936
-0.0206535
-0.0253503
-0.0310525
-0.0379602
-0.046309
-0.0563764
-0.0684878
-0.0830236
-0.100427
-0.121212
-0.145974
-0.175398
-0.210274
-0.251499
-0.300101
-0.357242
-0.424235
-0.502553
-0.593844
-0.699942
-0.822874
-0.964868
-1.12836
-1.316
-1.53062
-1.7753
-2.05325
-2.3679
-2.72278
-3.12156
-3.56796
-4.06572
-4.61856
-5.23007
-5.90366
-6.64251
-7.44942
-8.32678
-9.27646
-10.2997
-11.3972
-12.5686
-13.813
-15.1286
-16.5127
-17.9616
-19.4708
-21.0351
-22.6483
-24.3037
-25.9939
-27.711
-29.4471
-31.1937
-32.9424
-34.6851
-36.4137
-38.1206
-39.7988
-41.4416
-43.0433
-44.5988
-46.1037
-47.5543
-48.9481
-50.2827
-51.557
-52.7702
-53.9222
-55.0135
-56.0448
-57.0176
-57.9333
-58.7939
-59.6016
-60.3586
-61.0673
-61.7304
-62.3503
-62.9294
-63.4703
-63.9753
-64.4467
-64.8866
-65.2971
-65.6802
-66.0377
-66.3714
-66.6828
-66.9736
-67.2451
-67.4987
-67.7355
-67.9568
-68.1636
-68.3569
-68.5375
-68.7064
-68.8643
-69.012
-69.1501
-69.2793
-69.4001
-69.5131
-69.6187
-69.7176
-69.8099
-69.8963
-69.977
-70.0525
-70.1229
-70.1887
-70.25
-70.3073
-70.3606
-70.4103
-70.4565
-70.4995
-70.5394
-70.5764
-70.6107
-70.6425
-70.6717
-70.6987
-70.7235
-70.7463
-70.7671
-70.786
-70.8032
-70.8188
-70.8328
-70.8453
-70.8564
-70.8662
-70.8747
-70.882
-70.8881
-70.8932
-70.8972
-70.9002
-70.9023
-70.9035
-70.9039
-70.9035
-70.9022
-70.9003
-70.8977
-70.8943
-70.8904
-70.8858
-70.8807
-70.875
-70.8688
-70.8621
-70.8549
-70.8472
-70.8391
-70.8305
-70.8216
-70.8122
-70.8025
-70.7924
-70.782
-70.7712
-70.7602
-70.7488
-70.7371
-70.7251
-70.7129
-70.7003
-70.6876
-70.6745
-70.6613
-70.6478
-70.6341
-70.6201
-70.606
-70.5916
-70.5771
-70.5624
-70.5474
-70.5323
-70.517
-70.5016
-70.4859
-70.4702
-70.4542
-70.4381
-70.4218
-70.4054
-70.3889
-70.3722
-70.3553
-70.3384
-70.3212
-70.304
-70.2866
-70.2691
-70.2515
-70.2337
-70.2159
-70.1979
-70.1797
-70.1615
-70.1432
-70.1247
-70.1061
-70.0875
-70.0687
-70.0498
-70.0308
-70.0117
-69.9925
-69.9731
-69.9537
-69.9342
-69.9146
-69.8949
-69.8751
-69.8552
-69.8352
-69.8151
-69.7949
-69.7746
-69.7542
-69.7337
-69.7132
-69.6925
-69.6718
-69.651
-69.6301
-69.6091
-69.588
-69.5669
-69.5456
-69.5243
-69.5029
-69.4814
-69.4598
-69.4382
-69.4164
-69.3946
-69.3728
-69.3508
-69.3288
-69.3067
-69.2845
-69.2622
-69.2399
-69.2175
-69.195
-69.1725
-69.1499
-69.1272
-69.1045
-69.0816
-69.0588
-69.0358
-69.0128
-68.9897
-68.9666
-68.9434
-68.9202
-68.8968
-68.8735
-68.85
-68.8265
-68.803
-68.7794
-68.7557
-68.732
-68.7082
-68.6844
-68.6605
-68.6365
-68.6125
-68.5885
-68.5644
-68.5403
-68.5161
-68.4918
-68.4676
-68.4432
-68.4188
-68.3944
-68.37
-68.3454
-68.3209
-68.2963
-68.2716
-68.247
-68.2222
-68.1975
-68.1727
-68.1478
-68.123
-68.098
-68.0731
-68.0481
-68.0231
-67.998
-67.9729
-67.9478
-67.9226
-67.8974
-67.8722
-67.8469
-67.8216
-67.7963
-67.771
-67.7456
-67.7202
-67.6947
-67.6692
-67.6438
-67.6182
-67.5927
-67.5671
-67.5415
-67.5159
-67.4902
-67.4645
-67.4388
-67.4131
-67.3874
-67.3616
-67.3358
-67.31
-67.2842
-67.2583
-67.2324
-67.2065
-67.1806
-67.1547
-67.1287
-67.1028
-67.0768
-67.0508
-67.0247
-66.9987
-66.9726
-66.9466
-66.9205
-66.8943
-66.8682
-66.8421
-66.8159
-66.7898
-66.7636
-66.7374
-66.7112
-66.6849
-66.6587
-66.6324
-66.6062
-66.5799
-66.5536
-66.5273
-66.501
-66.4747
-66.4483
-66.422
-66.3956
-66.3693
-66.3429
-66.3165
-66.2901
-66.2637
-66.2373
-66.2109
-66.1844
-66.158
-66.1315
-66.1051
-66.0786
-66.0521
-66.0256
-65.9991
-65.9726
-65.9461
-65.9196
-65.8931
-65.8666
-65.84
-65.8135
-65.7869
-65.7604
-65.7338
-65.7073
-65.6807
-65.6541
-65.6275
-65.601
-65.5744
-65.5478
-65.5212
-65.4946
-65.4679
-65.4413
-65.4147
-65.3881
-65.3615
-65.3348
-65.3082
-65.2815
-65.2549
-65.2283
-65.2016
-65.175
-65.1483
-65.1216
-65.095
-65.0683
-65.0416
-65.015
-64.9883
-64.9616
-64.935
-64.9083
-64.8816
-64.8549
-64.8282
-64.8015
-64.7748
-64.7482
-64.7215
-64.6948
-64.6681
-64.6414
-64.6147
-64.588
-64.5613
-64.5346
-64.5079
-64.4812
-64.4545
-64.4278
-64.4011
-64.3744
-64.3477
-64.3209
-64.2942
-64.2675
-64.2408
-64.2141
-64.1874
-64.1607
-64.134
-64.1073
-64.0806
-64.0539
-64.0272
-64.0005
-63.9738
-63.9471
-63.9204
-63.8937
-63.8669
-63.8402
-63.8135
-63.7868
-63.7601
-63.7334
-63.7067
-63.6801
-63.6534
-63.6267
-63.6
-63.5733
-63.5466
-63.5199
-63.4932
-63.4665
-63.4398
-63.4132
-63.3865
-63.3598
-63.3331
-63.3064
-63.2798
-63.2531
-63.2264
-63.1998
-63.1731
-63.1464
-63.1198
-63.0931
-63.0664
-63.0398
-63.0131
-62.9865
-62.9598
-62.9332
-62.9065
-62.8799
-62.8532
-62.8266
-62.8
-62.7733
-62.7467
-62.7201
-62.6934
-62.6668
-62.6402
-62.6136
-62.587
-62.5604
-62.5337
-62.5071
-62.4805
-62.4539
-62.4273
-62.4007
-62.3741
-62.3476
-62.321
-62.2944
-62.2678
-62.2412
-62.2147
-62.1881
-62.1615
-62.1349
-62.1084
-62.0818
-62.0553
-62.0287
-62.0022
-61.9756
-61.9491
-61.9226
-61.896
-61.8695
-61.843
-61.8164
-61.7899
-61.7634
-61.7369
-61.7104
-61.6839
-61.6574
-61.6309
-61.6044
-61.5779
-61.5514
-61.5249
-61.4984
-61.472
-61.4455
-61.419
-61.3925
-61.3661
-61.3396
-61.3132
-61.2867
-61.2603
-61.2338
-61.2074
-61.181
-61.1545
-61.1281
-61.1017
-61.0753
-61.0489
-61.0225
-60.996
-60.9696
-60.9433
-60.9169
-60.8905
-60.8641
-60.8377
-60.8113
-60.785
-60.7586
-60.7322
-60.7059
-60.6795
-60.6532
-60.6268
-60.6005
-60.5741
-60.5478
-60.5215
-60.4952
-60.4688
-60.4425
-60.4162
-60.3899
-60.3636
-60.3373
-60.311
-60.2847
-60.2585
-60.2322
-60.2059
-60.1796
-60.1534
-60.1271
-60.1009
-60.0746
-60.0484
-60.0221
-59.9959
-59.9697
-59.9434
-59.9172
-59.891
-59.8648
-59.8386
-59.8124
-59.7862
-59.76
-59.7338
-59.7076
-59.6814
-59.6552
-59.6291
-59.6029
-59.5768
-59.5506
-59.5244
-59.4983
-59.4722
-59.446
-59.4199
-59.3938
-59.3677
-59.3415
-59.3154
-59.2893
-59.2632
-59.2371
-59.211
-59.1849
-59.1589
-59.1328
-59.1067
-59.0807
-59.0546
-59.0285
-59.0025
-58.9764
-58.9504
-58.9244
-58.8983
-58.8723
-58.8463
-58.8203
-58.7943
-58.7683
-58.7423
-58.7163
-58.6903
-58.6643
-58.6383
-58.6123
-58.5864
-58.5604
-58.5345
-58.5085
-58.4826
-58.4566
-58.4307
-58.4047
-58.3788
-58.3529
-58.327
-58.3011
-58.2752
-58.2493
-58.2234
-58.1975
-58.1716
-58.1457
-58.1198
-58.094
-58.0681
-58.0423
-58.0164
-57.9906
-57.9647
-57.9389
-57.913
-57.8872
-57.8614
-57.8356
-57.8098
-57.784
-57.7582
-57.7324
-57.7066
-57.6808
-57.655
-57.6293
-57.6035
-57.5777
-57.552
-57.5262
-57.5005
-57.4747
-57.449
-57.4233
-57.3976
-57.3718
-57.3461
-57.3204
-57.2947
-57.269
-57.2433
-57.2177
-57.192
-57.1663
-57.1406
-57.115
-57.0893
-57.0637
-57.038
-57.0124
-56.9868
-56.9611
-56.9355
-56.9099
-56.8843
-56.8587
-56.8331
-56.8075
-56.7819
-56.7563
-56.7307
-56.7051
-56.6796
-56.654
-56.6285
-56.6029
-56.5774
-56.5518
-56.5263
-56.5008
-56.4752
-56.4497
-56.4242
-56.3987
-56.3732
-56.3477
-56.3222
-56.2967
-56.2713
-56.2458
-56.2203
-56.1949
-56.1694
-56.144
-56.1185
-56.0931
-56.0677
-56.0422
-56.0168
-55.9914
-55.966
-55.9406
-55.9152
-55.8898
-55.8644
-55.839
-55.8137
-55.7883
-55.7629
-55.7376
-55.7122
-55.6869
-55.6615
-55.6362
-55.6109
-55.5855
-55.5602
-55.5349
-55.5096
-55.4843
-55.459
-55.4337
-55.4084
-55.3832
-55.3579
-55.3326
-55.3074
-55.2821
-55.2569
-55.2316
-55.2064
-55.1812
-55.1559
-55.1307
-55.1055
-55.0803
-55.0551
-55.0299
-55.0047
-54.9795
-54.9543
-54.9292
-54.904
-54.8788
-54.8537
-54.8285
-54.8034
-54.7782
-54.7531
-54.728
-54.7029
-54.6777
-54.6526
-54.6275
-54.6024
-54.5773
-54.5523
-54.5272
-54.5021
-54.477
-54.452
-54.4269
-54.4019
-54.3768
-54.3518
-54.3268
-54.3017
-54.2767
-54.2517
-54.2267
-54.2017
-54.1767
-54.1517
-54.1267
-54.1017
-54.0767
-54.0518
-54.0268
-54.0019
-53.9769
-53.952
-53.927
-53.9021
-53.8772
-53.8522
-53.8273
-53.8024
-53.7775
-53.7526
-53.7277
-53.7028
-53.678
-53.6531
-53.6282
-53.6034
-53.5785
-53.5536
-53.5288
-53.504
-53.4791
-53.4543
-53.4295
-53.4047
-53.3799
-53.3551
-53.3303
-53.3055
-53.2807
-53.2559
-53.2311
-53.2064
-53.1816
-53.1568
-53.1321
-53.1073
-53.0826
-53.0579
-53.0331
-53.0084
-52.9837
-52.959
-52.9343
-52.9096
-52.8849
-52.8602
-52.8355
-52.8109
-52.7862
-52.7615
-52.7369
-52.7122
-52.6876
-52.663
-52.6383
-52.6137
-52.5891
-52.5645
-52.5399
-52.5153
-52.4907
-52.4661
-52.4415
-52.4169
-52.3923
-52.3678
-52.3432
-52.3187
-52.2941
-52.2696
-52.245
-52.2205
-52.196
-52.1715
-52.1469
-52.1224
-52.0979
-52.0734
-52.049
-52.0245
-52
-51.9755
-51.9511
-51.9266
-51.9021
-51.8777
-51.8533
-51.8288
-51.8044
-51.78
-51.7556
-51.7311
-51.7067
-51.6823
-51.6579
-51.6336
-51.6092
-51.5848
-51.5604
-51.5361
-51.5117
-51.4874
-51.463
-51.4387
-51.4143
-51.39
-51.3657
-51.3414
-51.3171
-51.2928
-51.2685
-51.2442
-51.2199
-51.1956
-51.1713
-51.1471
-51.1228
-51.0986
-51.0743
-51.0501
-51.0258
-51.0016
-50.9774
-50.9531
-50.9289
-50.9047
-50.8805
-50.8563
-50.8321
-50.8079
-50.7838
-50.7596
-50.7354
-50.7113
-50.6871
-50.663
-50.6388
-50.6147
-50.5906
-50.5664
-50.5423
-50.5182
-50.4941
-50.47
-50.4459
-50.4218
-50.3977
-50.3737
-50.3496
-50.3255
-50.3015
-50.2774
-50.2534
-50.2293
-50.2053
-50.1813
-50.1572
-50.1332
-50.1092
-50.0852
-50.0612
-50.0372
-50.0132
-49.9893
-49.9653
-49.9413
-49.9174
-49.8934
-49.8694
-49.8455
-49.8216
-49.7976
-49.7737
-49.7498
-49.7259
-49.702
-49.6781
-49.6542
-49.6303
-49.6064
-49.5825
-49.5586
-49.5348
-49.5109
-49.4871
-49.4632
-49.4394
-49.4155
-49.3917
-49.3679
-49.3441
-49.3202
-49.2964
-49.2726
-49.2488
-49.2251
-49.2013
-49.1775
-49.1537
-49.13
-49.1062
-49.0824
-49.0587
-49.035
-49.0112
-48.9875
-48.9638
-48.9401
-48.9163
-48.8926
-48.8689
-48.8453
-48.8216
-48.7979
-48.7742
-48.7505
-48.7269
-48.7032
-48.6796
-48.6559
-48.6323
-48.6087
-48.585
-48.5614
-48.5378
-48.5142
-48.4906
-48.467
-48.4434
-48.4198
-48.3962
-48.3727
-48.3491
-48.3255
-48.302
-48.2784
-48.2549
-48.2313
-48.2078
-48.1843
-48.1608
-48.1373
-48.1138
-48.0903
-48.0668
-48.0433
-48.0198
-47.9963
-47.9728
-47.9494
-47.9259
-47.9025
-47.879
-47.8556
-47.8321
-47.8087
-47.7853
-47.7619
-47.7385
-47.7151
-47.6917
-47.6683
-47.6449
-47.6215
-47.5981
-47.5747
-47.5514
-47.528
-47.5047
-47.4813
-47.458
-47.4347
-47.4113
-47.388
-47.3647
-47.3414
-47.3181
-47.2948
-47.2715
-47.2482
-47.2249
-47.2017
-47.1784
-47.1551
-47.1319
-47.1086
-47.0854
-47.0621
-47.0389
-47.0157
-46.9925
-46.9692
-46.946
-46.9228
-46.8996
-46.8764
-46.8533
-46.8301
-46.8069
-46.7837
-46.7606
-46.7374
-46.7143
-46.6911
-46.668
-46.6449
-46.6218
-46.5986
-46.5755
-46.5524
-46.5293
-46.5062
-46.4831
-46.46
-46.437
-46.4139
-46.3908
-46.3678
-46.3447
-46.3217
-46.2986
-46.2756
-46.2526
-46.2295
-46.2065
-46.1835
-46.1605
-46.1375
-46.1145
-46.0915
-46.0686
-46.0456
-46.0226
-45.9996
-45.9767
-45.9537
-45.9308
-45.9079
-45.8849
-45.862
-45.8391
-45.8162
-45.7932
-45.7703
-45.7474
-45.7246
-45.7017
-45.6788
-45.6559
-45.633
-45.6102
-45.5873
-45.5645
-45.5416
-45.5188
-45.496
-45.4731
-45.4503
-45.4275
-45.4047
-45.3819
-45.3591
-45.3363
-45.3135
-45.2907
-45.268
-45.2452
-45.2224
-45.1997
-45.1769
-45.1542
-45.1314
-45.1087
-45.086
-45.0633
-45.0406
-45.0178
-44.9951
-44.9724
-44.9498
-44.9271
-44.9044
-44.8817
-44.8591
-44.8364
-44.8137
-44.7911
-44.7685
-44.7458
-44.7232
-44.7006
-44.6779
-44.6553
-44.6327
-44.6101
-44.5875
-44.5649
-44.5423
-44.5198
-44.4972
-44.4746
-44.4521
-44.4295
-44.407
-44.3844
-44.3619
-44.3394
-44.3168
-44.2943
-44.2718
-44.2493
-44.2268
-44.2043
-44.1818
-44.1593
-44.1369
-44.1144
-44.0919
-44.0695
-44.047
-44.0246
-44.0021
-43.9797
-43.9573
-43.9348
-43.9124
-43.89
-43.8676
-43.8452
-43.8228
-43.8004
-43.778
-43.7557
-43.7333
-43.7109
-43.6886
-43.6662
-43.6439
-43.6215
-43.5992
-43.5769
-43.5545
-43.5322
-43.5099
-43.4876
-43.4653
-43.443
-43.4207
-43.3984
-43.3762
-43.3539
-43.3316
-43.3094
-43.2871
-43.2649
-43.2426
-43.2204
-43.1982
-43.1759
-43.1537
-43.1315
-43.1093
-43.0871
-43.0649
-43.0427
-43.0205
-42.9984
-42.9762
-42.954
-42.9319
-42.9097
-42.8876
-42.8654
-42.8433
-42.8212
-42.799
-42.7769
-42.7548
-42.7327
-42.7106
-42.6885
-42.6664
-42.6443
-42.6223
-42.6002
-42.5781
-42.5561
-42.534
-42.512
-42.4899
-42.4679
-42.4459
-42.4238
-42.4018
-42.3798
-42.3578
-42.3358
-42.3138
-42.2918
-42.2698
-42.2478
-42.2259
-42.2039
-42.1819
-42.16
-42.138
-42.1161
-42.0942
-42.0722
-42.0503
-42.0284
-42.0065
-41.9846
-41.9627
-41.9408
-41.9189
-41.897
-41.8751
-41.8533
-41.8314
-41.8095
-41.7877
-41.7658
-41.744
-41.7221
-41.7003
-41.6785
-41.6567
-41.6349
-41.6131
-41.5913
-41.5695
-41.5477
-41.5259
-41.5041
-41.4823
-41.4606
-41.4388
-41.417
-41.3953
-41.3736
-41.3518
-41.3301
-41.3084
-41.2866
-41.2649
-41.2432
-41.2215
-41.1998
-41.1781
-41.1564
-41.1348
-41.1131
-41.0914
-41.0698
-41.0481
-41.0264
-41.0048
-40.9832
-40.9615
-40.9399
-40.9183
-40.8967
-40.8751
-40.8534
-40.8319
-40.8103
-40.7887
-40.7671
-40.7455
-40.7239
-40.7024
-40.6808
-40.6593
-40.6377
-40.6162
-40.5947
-40.5731
-40.5516
-40.5301
-40.5086
-40.4871
-40.4656
-40.4441
-40.4226
-40.4011
-40.3796
-40.3582
-40.3367
-40.3152
-40.2938
-40.2723
-40.2509
-40.2295
-40.208
-40.1866
-40.1652
-40.1438
-40.1224
-40.101
-40.0796
-40.0582
-40.0368
-40.0154
-39.994
-39.9727
-39.9513
-39.93
-39.9086
-39.8873
-39.8659
-39.8446
-39.8233
-39.8019
-39.7806
-39.7593
-39.738
-39.7167
-39.6954
-39.6741
-39.6529
-39.6316
-39.6103
-39.5891
-39.5678
-39.5465
-39.5253
-39.5041
-39.4828
-39.4616
-39.4404
-39.4192
-39.3979
-39.3767
-39.3555
-39.3343
-39.3132
-39.292
-39.2708
-39.2496
-39.2285
-39.2073
-39.1861
-39.165
-39.1439
-39.1227
-39.1016
-39.0805
-39.0593
-39.0382
-39.0171
-38.996
-38.9749
-38.9538
-38.9327
-38.9117
-38.8906
-38.8695
-38.8485
-38.8274
-38.8064
-38.7853
-38.7643
-38.7432
-38.7222
-38.7012
-38.6802
-38.6592
-38.6382
-38.6172
-38.5962
-38.5752
-38.5542
-38.5332
-38.5122
-38.4913
-38.4703
-38.4494
-38.4284
-38.4075
-38.3865
-38.3656
-38.3447
-38.3238
-38.3029
-38.282
-38.261
-38.2402
-38.2193
-38.1984
-38.1775
-38.1566
-38.1358
-38.1149
-38.094
-38.0732
-38.0523
-38.0315
-38.0107
-37.9898
-37.969
-37.9482
-37.9274
-37.9066
-37.8858
-37.865
-37.8442
-37.8234
-37.8026
-37.7819
-37.7611
-37.7403
-37.7196
-37.6988
-37.6781
-37.6574
-37.6366
-37.6159
-37.5952
-37.5745
-37.5538
-37.5331
-37.5124
-37.4917
-37.471
-37.4503
-37.4296
-37.409
-37.3883
-37.3676
-37.347
-37.3263
-37.3057
-37.2851
-37.2644
-37.2438
-37.2232
-37.2026
-37.182
-37.1614
-37.1408
-37.1202
-37.0996
-37.079
-37.0585
-37.0379
-37.0173
-36.9968
-36.9762
-36.9557
-36.9351
-36.9146
-36.8941
-36.8736
-36.853
-36.8325
-36.812
-36.7915
-36.771
-36.7506
-36.7301
-36.7096
-36.6891
-36.6687
-36.6482
-36.6277
-36.6073
-36.5869
-36.5664
-36.546
-36.5256
-36.5051
-36.4847
-36.4643
-36.4439
-36.4235
-36.4031
-36.3827
-36.3624
-36.342
-36.3216
-36.3012
-36.2809
-36.2605
-36.2402
-36.2198
-36.1995
-36.1792
-36.1589
-36.1385
-36.1182
-36.0979
-36.0776
-36.0573
-36.037
-36.0167
-35.9965
-35.9762
-35.9559
-35.9357
-35.9154
-35.8951
-35.8749
-35.8547
-35.8344
-35.8142
-35.794
-35.7738
-35.7535
-35.7333
-35.7131
-35.6929
-35.6727
-35.6526
-35.6324
-35.6122
-35.592
-35.5719
-35.5517
-35.5316
-35.5114
-35.4913
-35.4712
-35.451
-35.4309
-35.4108
-35.3907
-35.3706
-35.3505
-35.3304
-35.3103
-35.2902
-35.2701
-35.25
-35.23
-35.2099
-35.1899
-35.1698
-35.1498
-35.1297
-35.1097
-35.0897
-35.0696
-35.0496
-35.0296
-35.0096
-34.9896
-34.9696
-34.9496
-34.9296
-34.9097
-34.8897
-34.8697
-34.8498
-34.8298
-34.8099
-34.7899
-34.77
-34.75
-34.7301
-34.7102
-34.6903
-34.6704
-34.6504
-34.6305
-34.6107
-34.5908
-34.5709
-34.551
-34.5311
-34.5113
-34.4914
-34.4715
-34.4517
-34.4319
-34.412
-34.3922
-34.3723
-34.3525
-34.3327
-34.3129
-34.2931
-34.2733
-34.2535
-34.2337
-34.2139
-34.1941
-34.1744
-34.1546
-34.1348
-34.1151
-34.0953
-34.0756
-34.0558
-34.0361
-34.0164
-33.9967
-33.9769
-33.9572
-33.9375
-33.9178
-33.8981
-33.8784
-33.8588
-33.8391
-33.8194
-33.7997
-33.7801
-33.7604
-33.7408
-33.7211
-33.7015
-33.6818
-33.6622
-33.6426
-33.623
-33.6034
-33.5837
-33.5641
-33.5445
-33.525
-33.5054
-33.4858
-33.4662
-33.4466
-33.4271
-33.4075
-33.388
-33.3684
-33.3489
-33.3293
-33.3098
-33.2903
-33.2708
-33.2513
-33.2318
-33.2122
-33.1928
-33.1733
-33.1538
-33.1343
-33.1148
-33.0953
-33.0759
-33.0564
-33.037
-33.0175
-32.9981
-32.9786
-32.9592
-32.9398
-32.9204
-32.9009
-32.8815
-32.8621
-32.8427
-32.8233
-32.8039
-32.7846
-32.7652
-32.7458
-32.7264
-32.7071
-32.6877
-32.6684
-32.649
-32.6297
-32.6104
-32.591
-32.5717
-32.5524
-32.5331
-32.5138
-32.4945
-32.4752
-32.4559
-32.4366
-32.4173
-32.3981
-32.3788
-32.3595
-32.3403
-32.321
-32.3018
-32.2825
-32.2633
-32.2441
-32.2248
-32.2056
-32.1864
-32.1672
-32.148
-32.1288
-32.1096
-32.0904
-32.0712
-32.0521
-32.0329
-32.0137
-31.9946
-31.9754
-31.9563
-31.9371
-31.918
-31.8988
-31.8797
-31.8606
-31.8415
-31.8224
-31.8033
-31.7842
-31.7651
-31.746
-31.7269
-31.7078
-31.6888
-31.6697
-31.6506
-31.6316
-31.6125
-31.5935
-31.5744
-31.5554
-31.5364
-31.5173
-31.4983
-31.4793
-31.4603
-31.4413
-31.4223
-31.4033
-31.3843
-31.3653
-31.3464
-31.3274
-31.3084
-31.2895
-31.2705
-31.2516
-31.2326
-31.2137
-31.1948
-31.1758
-31.1569
-31.138
-31.1191
-31.1002
-31.0813
-31.0624
-31.0435
-31.0246
-31.0057
-30.9869
-30.968
-30.9491
-30.9303
-30.9114
-30.8926
-30.8737
-30.8549
-30.8361
-30.8172
-30.7984
-30.7796
-30.7608
-30.742
-30.7232
-30.7044
-30.6856
-30.6668
-30.6481
-30.6293
-30.6105
-30.5918
-30.573
-30.5543
-30.5355
-30.5168
-30.498
-30.4793
-30.4606
-30.4419
-30.4232
-30.4044
-30.3857
-30.3671
-30.3484
-30.3297
-30.311
-30.2923
-30.2736
-30.255
-30.2363
-30.2177
-30.199
-30.1804
-30.1617
-30.1431
-30.1245
-30.1059
-30.0872
-30.0686
-30.05
-30.0314
-30.0128
-29.9942
-29.9757
-29.9571
-29.9385
-29.9199
-29.9014
-29.8828
-29.8643
-29.8457
-29.8272
-29.8086
-29.7901
-29.7716
-29.7531
-29.7346
-29.716
-29.6975
-29.679
-29.6605
-29.6421
-29.6236
-29.6051
-29.5866
-29.5682
-29.5497
-29.5312
-29.5128
-29.4943
-29.4759
-29.4575
-29.439
-29.4206
-29.4022
-29.3838
-29.3654
-29.347
-29.3286
-29.3102
-29.2918
-29.2734
-29.255
-29.2367
-29.2183
-29.1999
-29.1816
-29.1632
-29.1449
-29.1265
-29.1082
-29.0899
-29.0715
-29.0532
-29.0349
-29.0166
-28.9983
-28.98
-28.9617
-28.9434
-28.9251
-28.9069
-28.8886
-28.8703
-28.8521
-28.8338
-28.8156
-28.7973
-28.7791
-28.7608
-28.7426
-28.7244
-28.7062
-28.688
-28.6698
-28.6515
-28.6334
-28.6152
-28.597
-28.5788
-28.5606
-28.5424
-28.5243
-28.5061
-28.488
-28.4698
-28.4517
-28.4335
-28.4154
-28.3973
-28.3791
-28.361
-28.3429
-28.3248
-28.3067
-28.2886
-28.2705
-28.2524
-28.2343
-28.2163
-28.1982
-28.1801
-28.1621
-28.144
-28.1259
-28.1079
-28.0899
-28.0718
-28.0538
-28.0358
-28.0178
-27.9997
-27.9817
-27.9637
-27.9457
-27.9277
-27.9097
-27.8918
-27.8738
-27.8558
-27.8378
-27.8199
-27.8019
-27.784
-27.766
-27.7481
-27.7302
-27.7122
-27.6943
-27.6764
-27.6585
-27.6406
-27.6226
-27.6048
-27.5869
-27.569
-27.5511
-27.5332
-27.5153
-27.4975
-27.4796
-27.4617
-27.4439
-27.426
-27.4082
-27.3904
-27.3725
-27.3547
-27.3369
-27.3191
-27.3013
-27.2835
-27.2657
-27.2479
-27.2301
-27.2123
-27.1945
-27.1767
-27.159
-27.1412
-27.1234
-27.1057
-27.0879
-27.0702
-27.0524
-27.0347
-27.017
-26.9993
-26.9815
-26.9638
-26.9461
-26.9284
-26.9107
-26.893
-26.8754
-26.8577
-26.84
-26.8223
-26.8047
-26.787
-26.7693
-26.7517
-26.734
-26.7164
-26.6988
-26.6811
-26.6635
-26.6459
-26.6283
-26.6107
-26.5931
-26.5755
-26.5579
-26.5403
-26.5227
-26.5051
-26.4876
-26.47
-26.4524
-26.4349
-26.4173
-26.3998
-26.3822
-26.3647
-26.3472
-26.3296
-26.3121
-26.2946
-26.2771
-26.2596
-26.2421
-26.2246
-26.2071
-26.1896
-26.1721
-26.1546
-26.1372
-26.1197
-26.1022
-26.0848
-26.0673