/*--------------------------------*- C++ -*----------------------------------*\
  =========                 |
  \\      /  F ield         | OpenFOAM: The Open Source CFD Toolbox
   \\    /   O peration     | Website:  https://openfoam.org
    \\  /    A nd           | Version:  9
     \\/     M anipulation  |
\*---------------------------------------------------------------------------*/
FoamFile
{
    format      ascii;
    class       volScalarField;
    location    "0.011";
    object      p_0;
}
// * * * * * * * * * * * * * * * * * * * * * * * * * * * * * * * * * * * * * //

dimensions      [1 -1 -2 0 0 0 0];

internalField   nonuniform List<scalar> 
10000
(
100000
100000
100000
100000
100000
100000
100000
100000
100000
100000
100000
100000
100000
100000
100000
100000
100000
100000
100000
100000
100000
100000
100000
100000
100000
100000
100000
100000
100000
100000
100000
100000
100000
100000
100000
100000
100000
100000
100000
100000
100000
100000
100000
100000
100000
100000
100000
100000
100000
100000
100000
100000
100000
100000
100000
100000
100000
100000
100000
100000
100000
100000
100000
100000
100000
100000
100000
100000
100000
100000
100000
100000
100000
100000
100000
100000
100000
100000
100000
100000
100000
100000
100000
100000
100000
100000
100000
100000
100000
100000
100000
100000
100000
100000
100000
100000
100000
100000
100000
100000
100000
100000
100000
100000
100000
100000
100000
100000
100000
100000
100000
100000
100000
100000
100000
100000
100000
100000
100000
100000
100000
100000
100000
100000
100000
100000
100000
100000
100000
100000
100000
100000
100000
100000
100000
100000
100000
100000
100000
100000
100000
100000
100000
100000
100000
100000
100000
100000
100000
100000
100000
100000
100000
100000
100000
100000
100000
100000
100000
100000
100000
100000
100000
100000
100000
100000
100000
100000
100000
100000
100000
100000
100000
100000
100000
100000
100000
100000
100000
100000
100000
100000
100000
100000
100000
100000
100000
100000
100000
100000
100000
100000
100000
100000
100000
100000
100000
100000
100000
100000
100000
100000
100000
100000
100000
100000
100000
100000
100000
100000
100000
100000
100000
100000
100000
100000
100000
100000
100000
100000
100000
100000
100000
100000
100000
100000
100000
100000
100000
100000
100000
100000
100000
100000
100000
100000
100000
100000
100000
100000
100000
100000
100000
100000
100000
100000
100000
100000
100000
100000
100000
100000
100000
100000
100000
100000
100000
100000
100000
100000
100000
100000
100000
100000
100000
100000
100000
100000
100000
100000
100000
100000
100000
100000
100000
100000
100000
100000
100000
100000
100000
100000
100000
100000
100000
100000
100000
100000
100000
100000
100000
100000
100000
100000
100000
100000
100000
100000
100000
100000
100000
100000
100000
100000
100000
100000
100000
100000
100000
100000
100000
100000
100000
100000
100000
100000
100000
100000
100000
100000
100000
100000
100000
100000
100000
100000
100000
100000
100000
100000
100000
100000
100000
100000
100000
100000
100000
100000
100000
100000
100000
100000
100000
100000
100000
100000
100000
100000
100000
100000
100000
100000
100000
100000
100000
100000
100000
100000
100000
100000
100000
100000
100000
100000
100000
100000
100000
100000
100000
100000
100000
100000
100000
100000
100000
100000
100000
100000
100000
100000
100000
100000
100000
100000
100000
100000
100000
100000
100000
100000
100000
100000
100000
100000
100000
100000
100000
100000
100000
100000
100000
100000
100000
100000
100000
100000
100000
100000
100000
100000
100000
100000
100000
100000
100000
100000
100000
100000
100000
100000
100000
100000
100000
100000
100000
100000
100000
100000
100000
100000
100000
100000
100000
100000
100000
100000
100000
100000
100000
100000
100000
100000
100000
100000
100000
100000
100000
100000
100000
100000
100000
100000
100000
100000
100000
100000
100000
100000
100000
100000
100000
100000
100000
100000
100000
100000
100000
100000
100000
100000
100000
100000
100000
100000
100000
100000
100000
100000
100000
100000
100000
100000
100000
100000
100000
100000
100000
100000
100000
100000
100000
100000
100000
100000
100000
100000
100000
100000
100000
100000
100000
100000
100000
100000
100000
100000
100000
100000
100000
100000
100000
100000
100000
100000
100000
100000
100000
100000
100000
100000
100000
100000
100000
100000
100000
100000
100000
100000
100000
100000
100000
100000
100000
100000
100000
100000
100000
100000
100000
100000
100000
100000
100000
100000
100000
100000
100000
100000
100000
100000
100000
100000
100000
100000
100000
100000
100000
100000
100000
100000
100000
100000
100000
100000
100000
100000
100000
100000
100000
100000
100000
100000
100000
100000
100000
100000
100000
100000
100000
100000
100000
100000
100000
100000
100000
100000
100000
100000
100000
100000
100000
100000
100000
100000
100000
100000
100000
100000
100000
100000
100000
100000
100000
100000
100000
100000
100000
100000
100000
100000
100000
100000
100000
100000
100000
100000
100000
100000
100000
100000
100000
100000
100000
100000
100000
100000
100000
100000
100000
100000
100000
100000
100000
100000
100000
100000
100000
100000
100000
100000
100000
100000
100000
100000
100000
100000
100000
100000
100000
100000
100000
100000
100000
100000
100000
100000
100000
100000
100000
100000
100000
100000
100000
100000
100000
100000
100000
100000
100000
100000
100000
100000
100000
100000
100000
100000
100000
100000
100000
100000
100000
100000
100000
100000
100000
100000
100000
100000
100000
100000
100000
100000
100000
100000
100000
100000
100000
100000
100000
100000
100000
100000
100000
100000
100000
100000
100000
100000
100000
100000
100000
100000
100000
100000
100000
100000
100000
100000
100000
100000
100000
100000
100000
100000
100000
100000
100000
100000
100000
100000
100000
100000
100000
100000
100000
100000
100000
100000
100000
100000
100000
100000
100000
100000
100000
100000
100000
100000
100000
100000
100000
100000
100000
100000
100000
100000
100000
100000
100000
100000
100000
100000
100000
100000
100000
100000
100000
100000
100000
100000
100000
100000
100000
100000
100000
100000
100000
100000
100000
100000
100000
100000
100000
100000
100000
100000
100000
100000
100000
100000
100000
100000
100000
100000
100000
100000
100000
100000
100000
100000
100000
100000
100000
100000
100000
100000
100000
100000
100000
100000
100000
100000
100000
99999.9
99999.9
99999.9
99999.9
99999.9
99999.8
99999.8
99999.8
99999.7
99999.7
99999.6
99999.5
99999.4
99999.3
99999.1
99999
99998.8
99998.5
99998.2
99997.9
99997.5
99997
99996.5
99995.9
99995.2
99994.4
99993.4
99992.3
99991.1
99989.6
99988
99986.2
99984.1
99981.7
99979.1
99976.1
99972.8
99969.2
99965.1
99960.6
99955.7
99950.3
99944.3
99937.9
99930.9
99923.3
99915.1
99906.3
99896.9
99886.8
99876.1
99864.7
99852.7
99840
99826.7
99812.7
99798.1
99782.8
99767
99750.5
99733.5
99715.9
99697.8
99679.2
99660.1
99640.5
99620.5
99600
99579.1
99557.9
99536.3
99514.4
99492.1
99469.6
99446.8
99423.7
99400.4
99376.8
99353
99329.1
99304.9
99280.6
99256.1
99231.4
99206.6
99181.7
99156.7
99131.5
99106.2
99080.8
99055.4
99029.8
99004.2
98978.4
98952.6
98926.8
98900.8
98874.8
98848.8
98822.7
98796.5
98770.3
98744
98717.7
98691.4
98665
98638.6
98612.2
98585.7
98559.2
98532.6
98506.1
98479.5
98452.9
98426.2
98399.6
98372.9
98346.2
98319.5
98292.8
98266
98239.3
98212.5
98185.7
98158.9
98132.1
98105.3
98078.5
98051.6
98024.8
97997.9
97971
97944.2
97917.3
97890.4
97863.5
97836.6
97809.7
97782.8
97755.9
97728.9
97702
97675.1
97648.1
97621.2
97594.3
97567.3
97540.4
97513.4
97486.5
97459.5
97432.5
97405.6
97378.6
97351.7
97324.7
97297.7
97270.8
97243.8
97216.8
97189.9
97162.9
97135.9
97109
97082
97055
97028.1
97001.1
96974.1
96947.2
96920.2
96893.2
96866.3
96839.3
96812.3
96785.4
96758.4
96731.5
96704.5
96677.5
96650.6
96623.6
96596.7
96569.7
96542.8
96515.8
96488.9
96461.9
96435
96408.1
96381.1
96354.2
96327.2
96300.3
96273.4
96246.5
96219.5
96192.6
96165.7
96138.8
96111.8
96084.9
96058
96031.1
96004.2
95977.3
95950.4
95923.5
95896.6
95869.7
95842.8
95815.9
95789
95762.2
95735.3
95708.4
95681.5
95654.7
95627.8
95600.9
95574.1
95547.2
95520.4
95493.5
95466.7
95439.8
95413
95386.2
95359.3
95332.5
95305.7
95278.8
95252
95225.2
95198.4
95171.6
95144.8
95118
95091.2
95064.4
95037.6
95010.8
94984.1
94957.3
94930.5
94903.7
94877
94850.2
94823.5
94796.7
94770
94743.2
94716.5
94689.7
94663
94636.3
94609.6
94582.8
94556.1
94529.4
94502.7
94476
94449.3
94422.6
94396
94369.3
94342.6
94315.9
94289.3
94262.6
94235.9
94209.3
94182.6
94156
94129.3
94102.7
94076.1
94049.4
94022.8
93996.2
93969.6
93943
93916.4
93889.8
93863.2
93836.6
93810
93783.5
93756.9
93730.3
93703.8
93677.2
93650.7
93624.1
93597.6
93571
93544.5
93518
93491.5
93464.9
93438.4
93411.9
93385.4
93358.9
93332.4
93306
93279.5
93253
93226.5
93200.1
93173.6
93147.2
93120.7
93094.3
93067.8
93041.4
93015
92988.6
92962.1
92935.7
92909.3
92882.9
92856.5
92830.1
92803.8
92777.4
92751
92724.7
92698.3
92671.9
92645.6
92619.2
92592.9
92566.6
92540.2
92513.9
92487.6
92461.3
92435
92408.7
92382.4
92356.1
92329.8
92303.5
92277.3
92251
92224.8
92198.5
92172.2
92146
92119.8
92093.5
92067.3
92041.1
92014.9
91988.7
91962.5
91936.3
91910.1
91883.9
91857.7
91831.5
91805.4
91779.2
91753
91726.9
91700.7
91674.6
91648.5
91622.3
91596.2
91570.1
91544
91517.9
91491.8
91465.7
91439.6
91413.5
91387.4
91361.4
91335.3
91309.2
91283.2
91257.1
91231.1
91205.1
91179
91153
91127
91101
91075
91049
91023
90997
90971
90945
90919.1
90893.1
90867.1
90841.2
90815.2
90789.3
90763.3
90737.4
90711.5
90685.6
90659.7
90633.8
90607.9
90582
90556.1
90530.2
90504.3
90478.4
90452.6
90426.7
90400.9
90375
90349.2
90323.3
90297.5
90271.7
90245.9
90220
90194.2
90168.4
90142.6
90116.8
90091.1
90065.3
90039.5
90013.8
89988
89962.2
89936.5
89910.8
89885
89859.3
89833.6
89807.8
89782.1
89756.4
89730.7
89705
89679.3
89653.7
89628
89602.3
89576.7
89551
89525.3
89499.7
89474.1
89448.4
89422.8
89397.2
89371.6
89346
89320.3
89294.7
89269.2
89243.6
89218
89192.4
89166.8
89141.3
89115.7
89090.2
89064.6
89039.1
89013.6
88988
88962.5
88937
88911.5
88886
88860.5
88835
88809.5
88784
88758.6
88733.1
88707.6
88682.2
88656.7
88631.3
88605.9
88580.4
88555
88529.6
88504.2
88478.8
88453.4
88428
88402.6
88377.2
88351.8
88326.4
88301.1
88275.7
88250.4
88225
88199.7
88174.3
88149
88123.7
88098.4
88073.1
88047.8
88022.5
87997.2
87971.9
87946.6
87921.3
87896.1
87870.8
87845.5
87820.3
87795
87769.8
87744.6
87719.3
87694.1
87668.9
87643.7
87618.5
87593.3
87568.1
87542.9
87517.8
87492.6
87467.4
87442.3
87417.1
87391.9
87366.8
87341.7
87316.5
87291.4
87266.3
87241.2
87216.1
87191
87165.9
87140.8
87115.7
87090.6
87065.6
87040.5
87015.4
86990.4
86965.3
86940.3
86915.3
86890.2
86865.2
86840.2
86815.2
86790.2
86765.2
86740.2
86715.2
86690.2
86665.2
86640.3
86615.3
86590.4
86565.4
86540.5
86515.5
86490.6
86465.7
86440.7
86415.8
86390.9
86366
86341.1
86316.2
86291.3
86266.5
86241.6
86216.7
86191.9
86167
86142.2
86117.3
86092.5
86067.6
86042.8
86018
85993.2
85968.4
85943.6
85918.8
85894
85869.2
85844.4
85819.7
85794.9
85770.1
85745.4
85720.6
85695.9
85671.2
85646.4
85621.7
85597
85572.3
85547.6
85522.9
85498.2
85473.5
85448.8
85424.1
85399.5
85374.8
85350.1
85325.5
85300.8
85276.2
85251.6
85226.9
85202.3
85177.7
85153.1
85128.5
85103.9
85079.3
85054.7
85030.1
85005.6
84981
84956.4
84931.9
84907.3
84882.8
84858.2
84833.7
84809.2
84784.7
84760.1
84735.6
84711.1
84686.6
84662.2
84637.7
84613.2
84588.7
84564.2
84539.8
84515.3
84490.9
84466.4
84442
84417.6
84393.1
84368.7
84344.3
84319.9
84295.5
84271.1
84246.7
84222.3
84198
84173.6
84149.2
84124.9
84100.5
84076.2
84051.8
84027.5
84003.1
83978.8
83954.5
83930.2
83905.9
83881.6
83857.3
83833
83808.7
83784.4
83760.2
83735.9
83711.6
83687.4
83663.1
83638.9
83614.7
83590.4
83566.2
83542
83517.8
83493.6
83469.4
83445.2
83421
83396.8
83372.6
83348.5
83324.3
83300.1
83276
83251.8
83227.7
83203.6
83179.4
83155.3
83131.2
83107.1
83083
83058.9
83034.8
83010.7
82986.6
82962.5
82938.5
82914.4
82890.4
82866.3
82842.3
82818.2
82794.2
82770.2
82746.1
82722.1
82698.1
82674.1
82650.1
82626.1
82602.1
82578.1
82554.2
82530.2
82506.2
82482.3
82458.3
82434.4
82410.4
82386.5
82362.6
82338.6
82314.7
82290.8
82266.9
82243
82219.1
82195.2
82171.3
82147.5
82123.6
82099.7
82075.9
82052
82028.2
82004.3
81980.5
81956.7
81932.9
81909
81885.2
81861.4
81837.6
81813.8
81790
81766.3
81742.5
81718.7
81694.9
81671.2
81647.4
81623.7
81599.9
81576.2
81552.5
81528.8
81505
81481.3
81457.6
81433.9
81410.2
81386.5
81362.9
81339.2
81315.5
81291.8
81268.2
81244.5
81220.9
81197.2
81173.6
81150
81126.4
81102.7
81079.1
81055.5
81031.9
81008.3
80984.7
80961.2
80937.6
80914
80890.4
80866.9
80843.3
80819.8
80796.2
80772.7
80749.2
80725.6
80702.1
80678.6
80655.1
80631.6
80608.1
80584.6
80561.1
80537.6
80514.2
80490.7
80467.2
80443.8
80420.3
80396.9
80373.5
80350
80326.6
80303.2
80279.8
80256.4
80232.9
80209.6
80186.2
80162.8
80139.4
80116
80092.7
80069.3
80045.9
80022.6
79999.2
79975.9
79952.6
79929.2
79905.9
79882.6
79859.3
79836
79812.7
79789.4
79766.1
79742.8
79719.5
79696.3
79673
79649.7
79626.5
79603.2
79580
79556.8
79533.5
79510.3
79487.1
79463.9
79440.7
79417.5
79394.3
79371.1
79347.9
79324.7
79301.6
79278.4
79255.2
79232.1
79208.9
79185.8
79162.6
79139.5
79116.4
79093.3
79070.1
79047
79023.9
79000.8
78977.7
78954.7
78931.6
78908.5
78885.4
78862.4
78839.3
78816.3
78793.2
78770.2
78747.1
78724.1
78701.1
78678.1
78655.1
78632.1
78609.1
78586.1
78563.1
78540.1
78517.1
78494.1
78471.2
78448.2
78425.3
78402.3
78379.4
78356.4
78333.5
78310.6
78287.6
78264.7
78241.8
78218.9
78196
78173.1
78150.2
78127.4
78104.5
78081.6
78058.8
78035.9
78013.1
77990.2
77967.4
77944.5
77921.7
77898.9
77876.1
77853.2
77830.4
77807.6
77784.8
77762.1
77739.3
77716.5
77693.7
77671
77648.2
77625.4
77602.7
77579.9
77557.2
77534.5
77511.7
77489
77466.3
77443.6
77420.9
77398.2
77375.5
77352.8
77330.1
77307.5
77284.8
77262.1
77239.5
77216.8
77194.2
77171.5
77148.9
77126.3
77103.6
77081
77058.4
77035.8
77013.2
76990.6
76968
76945.4
76922.8
76900.3
76877.7
76855.1
76832.6
76810
76787.5
76764.9
76742.4
76719.9
76697.4
76674.8
76652.3
76629.8
76607.3
76584.8
76562.3
76539.8
76517.4
76494.9
76472.4
76450
76427.5
76405.1
76382.6
76360.2
76337.7
76315.3
76292.9
76270.5
76248.1
76225.7
76203.3
76180.9
76158.5
76136.1
76113.7
76091.4
76069
76046.6
76024.3
76001.9
75979.6
75957.2
75934.9
75912.6
75890.3
75867.9
75845.6
75823.3
75801
75778.7
75756.5
75734.2
75711.9
75689.6
75667.4
75645.1
75622.8
75600.6
75578.4
75556.1
75533.9
75511.7
75489.4
75467.2
75445
75422.8
75400.6
75378.4
75356.2
75334
75311.9
75289.7
75267.5
75245.4
75223.2
75201.1
75178.9
75156.8
75134.7
75112.5
75090.4
75068.3
75046.2
75024.1
75002
74979.9
74957.8
74935.7
74913.7
74891.6
74869.5
74847.5
74825.4
74803.4
74781.3
74759.3
74737.2
74715.2
74693.2
74671.2
74649.2
74627.2
74605.2
74583.2
74561.2
74539.2
74517.2
74495.3
74473.3
74451.3
74429.4
74407.4
74385.5
74363.6
74341.6
74319.7
74297.8
74275.9
74254
74232.1
74210.2
74188.3
74166.4
74144.5
74122.6
74100.7
74078.9
74057
74035.2
74013.3
73991.5
73969.6
73947.8
73926
73904.1
73882.3
73860.5
73838.7
73816.9
73795.1
73773.3
73751.5
73729.8
73708
73686.2
73664.5
73642.7
73621
73599.2
73577.5
73555.7
73534
73512.3
73490.6
73468.9
73447.2
73425.5
73403.8
73382.1
73360.4
73338.7
73317
73295.4
73273.7
73252
73230.4
73208.7
73187.1
73165.5
73143.8
73122.2
73100.6
73079
73057.4
73035.8
73014.2
72992.6
72971
72949.4
72927.8
72906.3
72884.7
72863.1
72841.6
72820
72798.5
72777
72755.4
72733.9
72712.4
72690.9
72669.4
72647.9
72626.4
72604.9
72583.4
72561.9
72540.4
72518.9
72497.5
72476
72454.6
72433.1
72411.7
72390.2
72368.8
72347.4
72325.9
72304.5
72283.1
72261.7
72240.3
72218.9
72197.5
72176.1
72154.7
72133.4
72112
72090.6
72069.3
72047.9
72026.6
72005.2
71983.9
71962.6
71941.2
71919.9
71898.6
71877.3
71856
71834.7
71813.4
71792.1
71770.8
71749.6
71728.3
71707
71685.8
71664.5
71643.3
71622
71600.8
71579.5
71558.3
71537.1
71515.9
71494.6
71473.4
71452.2
71431
71409.9
71388.7
71367.5
71346.3
71325.1
71304
71282.8
71261.7
71240.5
71219.4
71198.2
71177.1
71156
71134.9
71113.7
71092.6
71071.5
71050.4
71029.3
71008.2
70987.2
70966.1
70945
70923.9
70902.9
70881.8
70860.8
70839.7
70818.7
70797.6
70776.6
70755.6
70734.6
70713.6
70692.5
70671.5
70650.5
70629.5
70608.6
70587.6
70566.6
70545.6
70524.7
70503.7
70482.7
70461.8
70440.9
70419.9
70399
70378
70357.1
70336.2
70315.3
70294.4
70273.5
70252.6
70231.7
70210.8
70189.9
70169
70148.2
70127.3
70106.5
70085.6
70064.7
70043.9
70023.1
70002.2
69981.4
69960.6
69939.8
69919
69898.1
69877.3
69856.5
69835.8
69815
69794.2
69773.4
69752.6
69731.9
69711.1
69690.4
69669.6
69648.9
69628.1
69607.4
69586.7
69566
69545.2
69524.5
69503.8
69483.1
69462.4
69441.7
69421
69400.4
69379.7
69359
69338.4
69317.7
69297
69276.4
69255.7
69235.1
69214.5
69193.8
69173.2
69152.6
69132
69111.4
69090.8
69070.2
69049.6
69029
69008.4
68987.9
68967.3
68946.7
68926.2
68905.6
68885.1
68864.5
68844
68823.4
68802.9
68782.4
68761.9
68741.4
68720.9
68700.4
68679.9
68659.4
68638.9
68618.4
68597.9
68577.5
68557
68536.5
68516.1
68495.6
68475.2
68454.7
68434.3
68413.9
68393.5
68373
68352.6
68332.2
68311.8
68291.4
68271
68250.6
68230.3
68209.9
68189.5
68169.2
68148.8
68128.4
68108.1
68087.7
68067.4
68047.1
68026.7
68006.4
67986.1
67965.8
67945.5
67925.2
67904.9
67884.6
67864.3
67844
67823.7
67803.5
67783.2
67762.9
67742.7
67722.4
67702.2
67681.9
67661.7
67641.5
67621.2
67601
67580.8
67560.6
67540.4
67520.2
67500
67479.8
67459.6
67439.4
67419.3
67399.1
67378.9
67358.8
67338.6
67318.5
67298.3
67278.2
67258.1
67237.9
67217.8
67197.7
67177.6
67157.5
67137.4
67117.3
67097.2
67077.1
67057
67036.9
67016.9
66996.8
66976.7
66956.7
66936.6
66916.6
66896.5
66876.5
66856.5
66836.5
66816.4
66796.4
66776.4
66756.4
66736.4
66716.4
66696.4
66676.4
66656.5
66636.5
66616.5
66596.6
66576.6
66556.6
66536.7
66516.8
66496.8
66476.9
66457
66437
66417.1
66397.2
66377.3
66357.4
66337.5
66317.6
66297.7
66277.8
66258
66238.1
66218.2
66198.4
66178.5
66158.7
66138.8
66119
66099.1
66079.3
66059.5
66039.7
66019.8
66000
65980.2
65960.4
65940.6
65920.8
65901.1
65881.3
65861.5
65841.7
65822
65802.2
65782.5
65762.7
65743
65723.2
65703.5
65683.8
65664
65644.3
65624.6
65604.9
65585.2
65565.5
65545.8
65526.1
65506.4
65486.8
65467.1
65447.4
65427.8
65408.1
65388.4
65368.8
65349.2
65329.5
65309.9
65290.3
65270.6
65251
65231.4
65211.8
65192.2
65172.6
65153
65133.4
65113.8
65094.3
65074.7
65055.1
65035.6
65016
64996.5
64976.9
64957.4
64937.8
64918.3
64898.8
64879.2
64859.7
64840.2
64820.7
64801.2
64781.7
64762.2
64742.7
64723.3
64703.8
64684.3
64664.8
64645.4
64625.9
64606.5
64587
64567.6
64548.1
64528.7
64509.3
64489.9
64470.5
64451
64431.6
64412.2
64392.8
64373.4
64354.1
64334.7
64315.3
64295.9
64276.6
64257.2
64237.8
64218.5
64199.2
64179.8
64160.5
64141.1
64121.8
64102.5
64083.2
64063.9
64044.6
64025.3
64006
63986.7
63967.4
63948.1
63928.8
63909.6
63890.3
63871
63851.8
63832.5
63813.3
63794
63774.8
63755.6
63736.3
63717.1
63697.9
63678.7
63659.5
63640.3
63621.1
63601.9
63582.7
63563.5
63544.3
63525.2
63506
63486.8
63467.7
63448.5
63429.4
63410.2
63391.1
63372
63352.8
63333.7
63314.6
63295.5
63276.4
63257.3
63238.2
63219.1
63200
63180.9
63161.8
63142.8
63123.7
63104.6
63085.6
63066.5
63047.5
63028.4
63009.4
62990.4
62971.3
62952.3
62933.3
62914.3
62895.3
62876.3
62857.3
62838.3
62819.3
62800.3
62781.3
62762.3
62743.4
62724.4
62705.4
62686.5
62667.5
62648.6
62629.7
62610.7
62591.8
62572.9
62553.9
62535
62516.1
62497.2
62478.3
62459.4
62440.5
62421.6
62402.8
62383.9
62365
62346.1
62327.3
62308.4
62289.6
62270.7
62251.9
62233
62214.2
62195.4
62176.6
62157.7
62138.9
62120.1
62101.3
62082.5
62063.7
62044.9
62026.2
62007.4
61988.6
61969.8
61951.1
61932.3
61913.6
61894.8
61876.1
61857.3
61838.6
61819.9
61801.1
61782.4
61763.7
61745
61726.3
61707.6
61688.9
61670.2
61651.5
61632.8
61614.1
61595.5
61576.8
61558.1
61539.5
61520.8
61502.2
61483.5
61464.9
61446.3
61427.6
61409
61390.4
61371.8
61353.2
61334.6
61316
61297.4
61278.8
61260.2
61241.6
61223
61204.5
61185.9
61167.3
61148.8
61130.2
61111.7
61093.2
61074.6
61056.1
61037.6
61019
61000.5
60982
60963.5
60945
60926.5
60908
60889.5
60871
60852.6
60834.1
60815.6
60797.1
60778.7
60760.2
60741.8
60723.3
60704.9
60686.5
60668
60649.6
60631.2
60612.8
60594.4
60575.9
60557.5
60539.2
60520.8
60502.4
60484
60465.6
60447.2
60428.9
60410.5
60392.1
60373.8
60355.4
60337.1
60318.8
60300.4
60282.1
60263.8
60245.4
60227.1
60208.8
60190.5
60172.2
60153.9
60135.6
60117.3
60099.1
60080.8
60062.5
60044.2
60026
60007.7
59989.5
59971.2
59953
59934.7
59916.5
59898.3
59880
59861.8
59843.6
59825.4
59807.2
59789
59770.8
59752.6
59734.4
59716.2
59698
59679.9
59661.7
59643.5
59625.4
59607.2
59589.1
59570.9
59552.8
59534.7
59516.5
59498.4
59480.3
59462.2
59444.1
59425.9
59407.8
59389.7
59371.7
59353.6
59335.5
59317.4
59299.3
59281.3
59263.2
59245.1
59227.1
59209
59191
59172.9
59154.9
59136.9
59118.9
59100.8
59082.8
59064.8
59046.8
59028.8
59010.8
58992.8
58974.8
58956.8
58938.9
58920.9
58902.9
58884.9
58867
58849
58831.1
58813.1
58795.2
58777.2
58759.3
58741.4
58723.5
58705.5
58687.6
58669.7
58651.8
58633.9
58616
58598.1
58580.2
58562.4
58544.5
58526.6
58508.8
58490.9
58473
58455.2
58437.3
58419.5
58401.7
58383.8
58366
58348.2
58330.3
58312.5
58294.7
58276.9
58259.1
58241.3
58223.5
58205.7
58188
58170.2
58152.4
58134.6
58116.9
58099.1
58081.4
58063.6
58045.9
58028.1
58010.4
57992.6
57974.9
57957.2
57939.5
57921.8
57904.1
57886.4
57868.7
57851
57833.3
57815.6
57797.9
57780.2
57762.6
57744.9
57727.2
57709.6
57691.9
57674.3
57656.6
57639
57621.4
57603.7
57586.1
57568.5
57550.9
57533.3
57515.7
57498
57480.5
57462.9
57445.3
57427.7
57410.1
57392.5
57375
57357.4
57339.8
57322.3
57304.7
57287.2
57269.6
57252.1
57234.6
57217
57199.5
57182
57164.5
57147
57129.5
57112
57094.5
57077
57059.5
57042
57024.5
57007.1
56989.6
56972.1
56954.7
56937.2
56919.8
56902.3
56884.9
56867.5
56850
56832.6
56815.2
56797.8
56780.3
56762.9
56745.5
56728.1
56710.7
56693.3
56676
56658.6
56641.2
56623.8
56606.5
56589.1
56571.7
56554.4
56537
56519.7
56502.4
56485
56467.7
56450.4
56433
56415.7
56398.4
56381.1
56363.8
56346.5
56329.2
56311.9
56294.6
56277.4
56260.1
56242.8
56225.5
56208.3
56191
56173.8
56156.5
56139.3
56122
56104.8
56087.6
56070.3
56053.1
56035.9
56018.7
56001.5
55984.3
55967.1
55949.9
55932.7
55915.5
55898.3
55881.2
55864
55846.8
55829.7
55812.5
55795.3
55778.2
55761
55743.9
55726.8
55709.6
55692.5
55675.4
55658.3
55641.2
55624.1
55607
55589.9
55572.8
55555.7
55538.6
55521.5
55504.4
55487.4
55470.3
55453.2
55436.2
55419.1
55402.1
55385
55368
55350.9
55333.9
55316.9
55299.9
55282.8
55265.8
55248.8
55231.8
55214.8
55197.8
55180.8
55163.8
55146.9
55129.9
55112.9
55095.9
55079
55062
55045.1
55028.1
55011.2
54994.2
54977.3
54960.3
54943.4
54926.5
54909.6
54892.7
54875.7
54858.8
54841.9
54825
54808.1
54791.3
54774.4
54757.5
54740.6
54723.8
54706.9
54690
54673.2
54656.3
54639.5
54622.6
54605.8
54588.9
54572.1
54555.3
54538.5
54521.7
54504.8
54488
54471.2
54454.4
54437.6
54420.8
54404.1
54387.3
54370.5
54353.7
54337
54320.2
54303.4
54286.7
54269.9
54253.2
54236.4
54219.7
54203
54186.3
54169.5
54152.8
54136.1
54119.4
54102.7
54086
54069.3
54052.6
54035.9
54019.2
54002.5
53985.9
53969.2
53952.5
53935.9
53919.2
53902.6
53885.9
53869.3
53852.6
53836
53819.4
53802.7
53786.1
53769.5
53752.9
53736.3
53719.7
53703.1
53686.5
53669.9
53653.3
53636.7
53620.1
53603.6
53587
53570.4
53553.9
53537.3
53520.8
53504.2
53487.7
53471.1
53454.6
53438.1
53421.5
53405
53388.5
53372
53355.5
53339
53322.5
53306
53289.5
53273
53256.5
53240.1
53223.6
53207.1
53190.6
53174.2
53157.7
53141.3
53124.8
53108.4
53092
53075.5
53059.1
53042.7
53026.3
53009.8
52993.4
52977
52960.6
52944.2
52927.8
52911.4
52895
52878.7
52862.3
52845.9
52829.6
52813.2
52796.8
52780.5
52764.1
52747.8
52731.4
52715.1
52698.8
52682.4
52666.1
52649.8
52633.5
52617.2
52600.9
52584.6
52568.3
52552
52535.7
52519.4
52503.1
52486.8
52470.6
52454.3
52438
52421.8
52405.5
52389.3
52373
52356.8
52340.5
52324.3
52308.1
52291.9
52275.6
52259.4
52243.2
52227
52210.8
52194.6
52178.4
52162.2
52146
52129.8
52113.7
52097.5
52081.3
52065.2
52049
52032.9
52016.7
52000.6
51984.4
51968.3
51952.1
51936
51919.9
51903.8
51887.6
51871.5
51855.4
51839.3
51823.2
51807.1
51791
51775
51758.9
51742.8
51726.7
51710.6
51694.6
51678.5
51662.5
51646.4
51630.4
51614.3
51598.3
51582.2
51566.2
51550.2
51534.2
51518.1
51502.1
51486.1
51470.1
51454.1
51438.1
51422.1
51406.1
51390.2
51374.2
51358.2
51342.2
51326.3
51310.3
51294.3
51278.4
51262.4
51246.5
51230.6
51214.6
51198.7
51182.8
51166.8
51150.9
51135
51119.1
51103.2
51087.3
51071.4
51055.5
51039.6
51023.7
51007.8
50992
50976.1
50960.2
50944.3
50928.5
50912.6
50896.8
50880.9
50865.1
50849.2
50833.4
50817.6
50801.8
50785.9
50770.1
50754.3
50738.5
50722.7
50706.9
50691.1
50675.3
50659.5
50643.7
50627.9
50612.2
50596.4
50580.6
50564.9
50549.1
50533.4
50517.6
50501.9
50486.1
50470.4
50454.7
50438.9
50423.2
50407.5
50391.8
50376
50360.3
50344.6
50328.9
50313.2
50297.5
50281.9
50266.2
50250.5
50234.8
50219.2
50203.5
50187.8
50172.2
50156.5
50140.9
50125.2
50109.6
50093.9
50078.3
50062.7
50047.1
50031.4
50015.8
50000.2
49984.6
49969
49953.4
49937.8
49922.2
49906.6
49891.1
49875.5
49859.9
49844.3
49828.8
49813.2
49797.6
49782.1
49766.5
49751
49735.5
49719.9
49704.4
49688.9
49673.3
49657.8
49642.3
49626.8
49611.3
49595.8
49580.3
49564.8
49549.3
49533.8
49518.3
49502.9
49487.4
49471.9
49456.5
49441
49425.5
49410.1
49394.6
49379.2
49363.7
49348.3
49332.9
49317.5
49302
49286.6
49271.2
49255.8
49240.4
49225
49209.6
49194.2
49178.8
49163.4
49148
49132.6
49117.3
49101.9
49086.5
49071.2
49055.8
49040.5
49025.1
49009.8
48994.4
48979.1
48963.8
48948.4
48933.1
48917.8
48902.5
48887.2
48871.8
48856.5
48841.2
48825.9
48810.7
48795.4
48780.1
48764.8
48749.5
48734.3
48719
48703.7
48688.5
48673.2
48658
48642.7
48627.5
48612.2
48597
48581.8
48566.6
48551.3
48536.1
48520.9
48505.7
48490.5
48475.3
48460.1
48444.9
48429.7
48414.5
48399.3
48384.2
48369
48353.8
48338.7
48323.5
48308.3
48293.2
48278
48262.9
48247.8
48232.6
48217.5
48202.4
48187.2
48172.1
48157
48141.9
48126.8
48111.7
48096.6
48081.5
48066.4
48051.3
48036.2
48021.2
48006.1
47991
47976
47960.9
47945.8
47930.8
47915.7
47900.7
47885.6
47870.6
47855.6
47840.5
47825.5
47810.5
47795.5
47780.5
47765.5
47750.5
47735.5
47720.5
47705.5
47690.5
47675.5
47660.5
47645.5
47630.6
47615.6
47600.6
47585.7
47570.7
47555.8
47540.8
47525.9
47510.9
47496
47481.1
47466.1
47451.2
47436.3
47421.4
47406.5
47391.5
47376.6
47361.7
47346.8
47332
47317.1
47302.2
47287.3
47272.4
47257.6
47242.7
47227.8
47213
47198.1
47183.3
47168.4
47153.6
47138.7
47123.9
47109.1
47094.2
47079.4
47064.6
47049.8
47035
47020.2
47005.4
46990.6
46975.8
46961
46946.2
46931.4
46916.6
46901.9
46887.1
46872.3
46857.6
46842.8
46828
46813.3
46798.5
46783.8
46769.1
46754.3
46739.6
46724.9
46710.1
46695.4
46680.7
46666
46651.3
46636.6
46621.9
46607.2
46592.5
46577.8
46563.1
46548.5
46533.8
46519.1
46504.4
46489.8
46475.1
46460.5
46445.8
46431.2
46416.5
46401.9
46387.2
46372.6
46358
46343.4
46328.7
46314.1
46299.5
46284.9
46270.3
46255.7
46241.1
46226.5
46211.9
46197.4
46182.8
46168.2
46153.6
46139.1
46124.5
46109.9
46095.4
46080.8
46066.3
46051.7
46037.2
46022.7
46008.1
45993.6
45979.1
45964.6
45950
45935.5
45921
45906.5
45892
45877.5
45863
45848.5
45834.1
45819.6
45805.1
45790.6
45776.2
45761.7
45747.2
45732.8
45718.3
45703.9
45689.4
45675
45660.5
45646.1
45631.7
45617.3
45602.8
45588.4
45574
45559.6
45545.2
45530.8
45516.4
45502
45487.6
45473.2
45458.8
45444.5
45430.1
45415.7
45401.4
45387
45372.6
45358.3
45343.9
45329.6
45315.2
45300.9
45286.6
45272.2
45257.9
45243.6
45229.3
45214.9
45200.6
45186.3
45172
45157.7
45143.4
45129.1
45114.8
45100.6
45086.3
45072
45057.7
45043.5
45029.2
45014.9
45000.7
44986.4
44972.2
44957.9
44943.7
44929.5
44915.2
44901
44886.8
44872.5
44858.3
44844.1
44829.9
44815.7
44801.5
44787.3
44773.1
44758.9
44744.7
44730.5
44716.4
44702.2
44688
44673.9
44659.7
44645.5
44631.4
44617.2
44603.1
44588.9
44574.8
44560.7
44546.5
44532.4
44518.3
44504.1
44490
44475.9
44461.8
44447.7
44433.6
44419.5
44405.4
44391.3
44377.2
44363.1
44349.1
44335
44320.9
44306.9
44292.8
44278.7
44264.7
44250.6
44236.6
44222.5
44208.5
44194.5
44180.4
44166.4
44152.4
44138.4
44124.3
44110.3
44096.3
44082.3
44068.3
44054.3
44040.3
44026.3
44012.3
43998.4
43984.4
43970.4
43956.4
43942.5
43928.5
43914.6
43900.6
43886.6
43872.7
43858.8
43844.8
43830.9
43816.9
43803
43789.1
43775.2
43761.3
43747.3
43733.4
43719.5
43705.6
43691.7
43677.8
43663.9
43650.1
43636.2
43622.3
43608.4
43594.6
43580.7
43566.8
43553
43539.1
43525.3
43511.4
43497.6
43483.7
43469.9
43456.1
43442.2
43428.4
43414.6
43400.8
43387
43373.1
43359.3
43345.5
43331.7
43317.9
43304.1
43290.4
43276.6
43262.8
43249
43235.3
43221.5
43207.7
43194
43180.2
43166.5
43152.7
43139
43125.2
43111.5
43097.7
43084
43070.3
43056.6
43042.8
43029.1
43015.4
43001.7
42988
42974.3
42960.6
42946.9
42933.2
42919.5
42905.9
42892.2
42878.5
42864.8
42851.2
42837.5
42823.9
42810.2
42796.6
42782.9
42769.3
42755.6
42742
42728.4
42714.7
42701.1
42687.5
42673.9
42660.3
42646.6
42633
42619.4
42605.8
42592.3
42578.7
42565.1
42551.5
42537.9
42524.3
42510.8
42497.2
42483.6
42470.1
42456.5
42443
42429.4
42415.9
42402.3
42388.8
42375.3
42361.7
42348.2
42334.7
42321.2
42307.6
42294.1
42280.6
42267.1
42253.6
42240.1
42226.6
42213.1
42199.7
42186.2
42172.7
42159.2
42145.8
42132.3
42118.8
42105.4
42091.9
42078.5
42065
42051.6
42038.1
42024.7
42011.3
41997.8
41984.4
41971
41957.6
41944.2
41930.7
41917.3
41903.9
41890.5
41877.1
41863.7
41850.4
41837
41823.6
41810.2
41796.8
41783.5
41770.1
41756.7
41743.4
41730
41716.7
41703.3
41690
41676.6
41663.3
41650
41636.7
41623.3
41610
41596.7
41583.4
41570.1
41556.8
41543.5
41530.2
41516.9
41503.6
41490.3
41477
41463.7
41450.4
41437.2
41423.9
41410.6
41397.4
41384.1
41370.9
41357.6
41344.4
41331.1
41317.9
41304.6
41291.4
41278.2
41265
41251.7
41238.5
41225.3
41212.1
41198.9
41185.7
41172.5
41159.3
41146.1
41132.9
41119.7
41106.5
41093.4
41080.2
41067
41053.9
41040.7
41027.5
41014.4
41001.2
40988.1
40974.9
40961.8
40948.7
40935.5
40922.4