/*--------------------------------*- C++ -*----------------------------------*\
  =========                 |
  \\      /  F ield         | OpenFOAM: The Open Source CFD Toolbox
   \\    /   O peration     | Website:  https://openfoam.org
    \\  /    A nd           | Version:  9
     \\/     M anipulation  |
\*---------------------------------------------------------------------------*/
FoamFile
{
    format      ascii;
    class       surfaceScalarField;
    location    "0.011";
    object      phi;
}
// * * * * * * * * * * * * * * * * * * * * * * * * * * * * * * * * * * * * * //

dimensions      [1 0 -1 0 0 0 0];

internalField   nonuniform List<scalar> 
9999
(
-3.9762e-11
-3.67493e-11
-3.64082e-11
-3.58966e-11
-3.35092e-11
-3.05533e-11
-2.98712e-11
-2.83364e-11
-2.97291e-11
-3.09797e-11
-3.26565e-11
-3.24007e-11
-3.33102e-11
-3.15765e-11
-2.8848e-11
-3.07239e-11
-3.12923e-11
-3.18323e-11
-3.22871e-11
-3.29692e-11
-3.05249e-11
-2.85922e-11
-2.68869e-11
-2.69154e-11
-2.59774e-11
-2.38742e-11
-2.34479e-11
-2.197e-11
-2.413e-11
-2.23679e-11
-2.18279e-11
-2.28795e-11
-2.62332e-11
-2.85922e-11
-3.0127e-11
-3.14628e-11
-3.35376e-11
-3.41061e-11
-3.62093e-11
-3.49019e-11
-3.46461e-11
-3.59535e-11
-3.92504e-11
-4.11831e-11
-4.47073e-11
-4.53042e-11
-4.73506e-11
-4.95959e-11
-5.01643e-11
-5.19833e-11
-5.52234e-11
-5.74119e-11
-5.47686e-11
-5.23244e-11
-4.99654e-11
-4.76348e-11
-4.88569e-11
-5.09033e-11
-5.15286e-11
-4.99085e-11
-5.1358e-11
-5.24096e-11
-5.34044e-11
-5.0278e-11
-4.82316e-11
-5.00222e-11
-5.14717e-11
-5.18412e-11
-5.45981e-11
-5.32054e-11
-5.09601e-11
-4.80895e-11
-4.73221e-11
-4.91411e-11
-5.3717e-11
-5.66729e-11
-5.61045e-11
-5.7355e-11
-6.17888e-11
-6.11351e-11
-5.84066e-11
-6.01119e-11
-6.20162e-11
-6.36646e-11
-6.47447e-11
-6.60236e-11
-6.55689e-11
-6.56826e-11
-6.71321e-11
-6.69331e-11
-6.65068e-11
-6.62226e-11
-6.26414e-11
-6.07088e-11
-5.86624e-11
-5.69287e-11
-5.64455e-11
-5.57066e-11
-5.42855e-11
-5.40581e-11
-5.3177e-11
-4.99085e-11
-4.65263e-11
-4.38547e-11
-3.89377e-11
-3.75735e-11
-3.30829e-11
-2.97291e-11
-2.6688e-11
-2.44427e-11
-2.22542e-11
-2.27658e-11
-2.12879e-11
-1.90425e-11
-1.95257e-11
-2.04352e-11
-2.23395e-11
-2.22542e-11
-2.40732e-11
-2.30784e-11
-2.33911e-11
-2.44142e-11
-2.33342e-11
-2.39595e-11
-2.28795e-11
-2.62901e-11
-2.67733e-11
-2.56648e-11
-2.46985e-11
-2.45564e-11
-2.48974e-11
-2.67164e-11
-2.69722e-11
-2.78533e-11
-2.73985e-11
-3.20597e-11
-3.58682e-11
-3.94778e-11
-3.95346e-11
-3.84546e-11
-3.6863e-11
-3.49019e-11
-3.42766e-11
-3.67777e-11
-3.74598e-11
-3.53566e-11
-3.51861e-11
-3.5925e-11
-3.98188e-11
-3.91935e-11
-3.79998e-11
-3.62945e-11
-3.38218e-11
-3.60671e-11
-3.57545e-11
-3.72609e-11
-3.87104e-11
-3.79146e-11
-3.53282e-11
-3.58398e-11
-3.4504e-11
-3.58398e-11
-3.51577e-11
-3.64082e-11
-3.56977e-11
-3.48734e-11
-3.52145e-11
-3.7403e-11
-3.72893e-11
-3.79714e-11
-3.70619e-11
-3.70619e-11
-3.45324e-11
-3.06102e-11
-3.15481e-11
-2.94733e-11
-2.73133e-11
-2.36753e-11
-2.143e-11
-2.33626e-11
-2.26237e-11
-2.54374e-11
-2.53806e-11
-2.57501e-11
-2.47837e-11
-2.80806e-11
-2.92744e-11
-2.89617e-11
-2.97575e-11
-3.39639e-11
-3.41913e-11
-3.58398e-11
-3.87956e-11
-3.91935e-11
-3.81419e-11
-3.72893e-11
-3.76872e-11
-3.8483e-11
-3.98757e-11
-4.39684e-11
-4.63842e-11
-4.78622e-11
-4.90843e-11
-5.15001e-11
-5.09033e-11
-4.91696e-11
-4.77769e-11
-4.51337e-11
-4.30305e-11
-4.24905e-11
-4.12967e-11
-3.96483e-11
-3.80567e-11
-3.86535e-11
-3.82556e-11
-3.57829e-11
-3.59819e-11
-3.39355e-11
-3.44755e-11
-3.44471e-11
-3.22018e-11
-3.27987e-11
-3.40208e-11
-3.49587e-11
-3.45608e-11
-3.36797e-11
-3.14344e-11
-2.75406e-11
-2.65459e-11
-2.57216e-11
-2.9587e-11
-3.09797e-11
-3.18039e-11
-2.9786e-11
-3.0326e-11
-2.95302e-11
-2.79101e-11
-2.93312e-11
-2.99849e-11
-3.28839e-11
-3.0866e-11
-3.18039e-11
-2.98996e-11
-2.75691e-11
-2.68301e-11
-2.44142e-11
-2.53237e-11
-2.66596e-11
-2.82512e-11
-2.99281e-11
-2.96154e-11
-2.7768e-11
-2.81659e-11
-2.66027e-11
-2.58069e-11
-2.467e-11
-2.73133e-11
-2.81943e-11
-2.67448e-11
-2.62617e-11
-2.67733e-11
-2.85354e-11
-3.01554e-11
-3.15197e-11
-3.07807e-11
-3.05249e-11
-3.05533e-11
-2.89617e-11
-2.85638e-11
-3.00133e-11
-3.01554e-11
-3.04965e-11
-2.88765e-11
-3.0667e-11
-3.08376e-11
-3.21165e-11
-2.90186e-11
-2.79101e-11
-2.73133e-11
-2.50964e-11
-2.20837e-11
-2.23395e-11
-2.17426e-11
-2.22258e-11
-2.08331e-11
-2.0691e-11
-1.91278e-11
-1.62856e-11
-1.76215e-11
-1.84173e-11
-1.96962e-11
-2.06057e-11
-2.37321e-11
-2.35616e-11
-2.31353e-11
-2.62617e-11
-2.79954e-11
-3.00417e-11
-3.18323e-11
-3.29408e-11
-3.5925e-11
-3.86535e-11
-4.11831e-11
-4.13252e-11
-4.1382e-11
-4.56737e-11
-4.664e-11
-5.07612e-11
-5.0818e-11
-5.22391e-11
-5.44276e-11
-5.60192e-11
-5.91456e-11
-6.01688e-11
-6.1533e-11
-6.19877e-11
-6.3153e-11
-6.34088e-11
-6.43468e-11
-5.96287e-11
-6.15898e-11
-5.9373e-11
-5.79519e-11
-5.84635e-11
-5.83782e-11
-5.74687e-11
-5.42002e-11
-5.24096e-11
-5.06475e-11
-4.50768e-11
-4.09841e-11
-4.04725e-11
-3.91083e-11
-3.67493e-11
-3.26281e-11
-2.99849e-11
-2.5409e-11
-2.66027e-11
-2.77964e-11
-2.55795e-11
-2.61764e-11
-2.45564e-11
-2.44427e-11
-2.21689e-11
-2.12026e-11
-2.07763e-11
-2.01226e-11
-2.02931e-11
-2.21405e-11
-2.25668e-11
-2.51816e-11
-2.53237e-11
-2.80522e-11
-3.13776e-11
-3.11502e-11
-3.41913e-11
-3.81135e-11
-4.14104e-11
-4.6299e-11
-4.72085e-11
-4.75495e-11
-4.87432e-11
-4.80327e-11
-5.03917e-11
-5.21254e-11
-5.15854e-11
-5.14149e-11
-5.29496e-11
-5.38023e-11
-5.67297e-11
-5.94014e-11
-6.15898e-11
-6.05951e-11
-5.88614e-11
-5.79803e-11
-5.72697e-11
-5.46265e-11
-5.13012e-11
-5.09885e-11
-5.01075e-11
-4.96243e-11
-4.67537e-11
-4.40536e-11
-4.28599e-11
-4.37694e-11
-4.34568e-11
-4.36842e-11
-4.21778e-11
-4.02167e-11
-3.93641e-11
-3.7204e-11
-3.9222e-11
-4.38831e-11
-4.10978e-11
-4.03872e-11
-4.02167e-11
-3.91367e-11
-3.70051e-11
-3.90799e-11
-4.09273e-11
-4.2661e-11
-3.88809e-11
-3.92504e-11
-3.95062e-11
-3.86251e-11
-3.76588e-11
-3.49303e-11
-3.34239e-11
-3.43334e-11
-3.70051e-11
-3.83125e-11
-3.79146e-11
-3.56124e-11
-3.39355e-11
-2.7228e-11
-2.58069e-11
-2.46132e-11
-2.61196e-11
-2.57216e-11
-2.5949e-11
-2.71996e-11
-3.05533e-11
-3.08091e-11
-2.6489e-11
-2.46416e-11
-2.70006e-11
-3.12355e-11
-3.63798e-11
-3.85114e-11
-3.78861e-11
-3.74314e-11
-3.87956e-11
-3.96767e-11
-3.9023e-11
-4.28599e-11
-4.22062e-11
-4.36842e-11
-4.10125e-11
-4.08136e-11
-4.19504e-11
-4.59011e-11
-4.67253e-11
-4.87717e-11
-5.22675e-11
-5.36033e-11
-5.69287e-11
-5.92308e-11
-6.10498e-11
-5.97424e-11
-5.8094e-11
-5.8975e-11
-6.09077e-11
-5.81792e-11
-5.59055e-11
-5.70992e-11
-5.67013e-11
-5.6815e-11
-5.57634e-11
-5.17275e-11
-5.30349e-11
-5.22959e-11
-5.23244e-11
-5.21254e-11
-5.15286e-11
-4.95106e-11
-4.8658e-11
-4.68674e-11
-4.50484e-11
-4.64411e-11
-4.53895e-11
-4.34568e-11
-4.20926e-11
-4.28315e-11
-4.22915e-11
-3.86819e-11
-3.56977e-11
-3.14628e-11
-2.89617e-11
-2.77396e-11
-2.38174e-11
-2.24816e-11
-2.09184e-11
-2.01794e-11
-1.86162e-11
-1.75646e-11
-1.9952e-11
-2.14015e-11
-2.04068e-11
-2.03784e-11
-2.1771e-11
-2.36753e-11
-2.39311e-11
-2.49827e-11
-2.84217e-11
-3.01839e-11
-2.79954e-11
-2.7029e-11
-2.68301e-11
-2.73985e-11
-3.17755e-11
-3.45608e-11
-3.54703e-11
-3.72609e-11
-4.17231e-11
-4.41389e-11
-4.76916e-11
-4.96243e-11
-5.04201e-11
-5.38591e-11
-5.80087e-11
-5.34897e-11
-5.33191e-11
-5.28075e-11
-5.53655e-11
-5.69571e-11
-6.0993e-11
-6.26699e-11
-6.36931e-11
-6.38067e-11
-6.24993e-11
-6.27267e-11
-6.06803e-11
-5.8094e-11
-5.4996e-11
-5.27223e-11
-5.65024e-11
-5.32054e-11
-5.00506e-11
-5.01359e-11
-4.74358e-11
-4.37126e-11
-3.99041e-11
-3.76588e-11
-3.54987e-11
-3.10365e-11
-2.82512e-11
-2.56364e-11
-2.4329e-11
-2.27374e-11
-2.29647e-11
-2.17426e-11
-2.29932e-11
-2.41869e-11
-2.36753e-11
-2.47269e-11
-2.25384e-11
-2.41016e-11
-2.39311e-11
-2.1771e-11
-2.305e-11
-2.02647e-11
-2.29363e-11
-2.39595e-11
-2.33342e-11
-2.67448e-11
-3.24576e-11
-3.38787e-11
-3.45892e-11
-3.45324e-11
-3.76588e-11
-4.2462e-11
-4.07283e-11
-4.17515e-11
-4.09841e-11
-4.30873e-11
-4.49631e-11
-4.37126e-11
-4.58442e-11
-4.62705e-11
-4.54463e-11
-4.56168e-11
-4.77485e-11
-4.75495e-11
-4.48495e-11
-4.34e-11
-4.2462e-11
-4.14104e-11
-3.78009e-11
-3.59819e-11
-3.42482e-11
-2.87343e-11
-2.52953e-11
-2.33342e-11
-2.22826e-11
-2.01794e-11
-2.0151e-11
-2.01226e-11
-2.11173e-11
-2.10321e-11
-1.9611e-11
-1.92983e-11
-2.08615e-11
-2.24247e-11
-2.13447e-11
-2.25384e-11
-2.30216e-11
-2.52385e-11
-2.52669e-11
-2.73133e-11
-3.16049e-11
-3.34524e-11
-3.1747e-11
-3.51861e-11
-3.73461e-11
-3.91367e-11
-4.08704e-11
-4.14104e-11
-4.394e-11
-4.718e-11
-4.94538e-11
-5.1557e-11
-4.91696e-11
-5.09885e-11
-5.00222e-11
-4.86011e-11
-4.96811e-11
-5.01359e-11
-5.06475e-11
-4.94822e-11
-5.05906e-11
-5.01359e-11
-4.93117e-11
-4.92548e-11
-5.1358e-11
-5.1557e-11
-4.88285e-11
-4.85727e-11
-4.77201e-11
-4.54463e-11
-4.69527e-11
-4.64411e-11
-4.71516e-11
-4.51053e-11
-4.28315e-11
-4.14957e-11
-4.06715e-11
-4.06715e-11
-4.26041e-11
-4.07283e-11
-4.36273e-11
-4.32294e-11
-4.09273e-11
-4.34e-11
-4.4821e-11
-4.6299e-11
-4.75211e-11
-4.82601e-11
-5.16991e-11
-5.55929e-11
-5.76108e-11
-5.96572e-11
-5.76108e-11
-5.84635e-11
-5.96856e-11
-6.14193e-11
-6.22151e-11
-6.37499e-11
-6.21299e-11
-6.17604e-11
-6.24709e-11
-6.1732e-11
-6.3352e-11
-6.66773e-11
-7.12532e-11
-7.2049e-11
-7.12816e-11
-7.10827e-11
-7.34133e-11
-7.40954e-11
-7.37828e-11
-7.69091e-11
-7.77334e-11
-7.84439e-11
-7.76197e-11
-7.65397e-11
-8.05471e-11
-8.03482e-11
-8.12292e-11
-8.10019e-11
-7.97229e-11
-7.8586e-11
-7.88987e-11
-7.73639e-11
-7.70797e-11
-7.76765e-11
-7.29585e-11
-7.29869e-11
-6.97469e-11
-7.07132e-11
-7.14806e-11
-7.49196e-11
-7.69944e-11
-7.39533e-11
-7.32427e-11
-6.94342e-11
-6.67342e-11
-6.6251e-11
-6.59384e-11
-6.5512e-11
-6.40057e-11
-6.26414e-11
-6.39773e-11
-6.46025e-11
-6.0794e-11
-5.99982e-11
-6.34373e-11
-6.39488e-11
-6.41762e-11
-6.13056e-11
-5.91456e-11
-5.64171e-11
-5.46265e-11
-5.30918e-11
-5.14149e-11
-5.17844e-11
-5.09317e-11
-4.85727e-11
-5.0278e-11
-4.55316e-11
-4.34852e-11
-4.18652e-11
-3.90514e-11
-3.69766e-11
-3.64935e-11
-3.71756e-11
-3.81135e-11
-3.86535e-11
-4.20926e-11
-4.2462e-11
-4.39684e-11
-4.26894e-11
-4.32578e-11
-4.60147e-11
-4.52474e-11
-4.68674e-11
-4.60147e-11
-4.87148e-11
-5.13012e-11
-5.01359e-11
-4.91127e-11
-5.1358e-11
-5.36602e-11
-5.2836e-11
-5.17275e-11
-5.19833e-11
-4.93969e-11
-4.45937e-11
-3.60103e-11
-2.55227e-11
-1.17666e-11
7.10543e-12
2.99849e-11
5.70139e-11
9.3678e-11
1.41512e-10
2.05148e-10
2.90385e-10
4.03787e-10
5.58146e-10
7.65681e-10
1.03839e-09
1.40253e-09
1.89013e-09
2.53769e-09
3.39696e-09
4.53548e-09
6.0395e-09
8.02632e-09
1.0646e-08
1.40953e-08
1.86353e-08
2.45965e-08
3.24169e-08
4.26538e-08
5.60412e-08
7.35277e-08
9.6326e-08
1.26008e-07
1.64596e-07
2.14683e-07
2.79601e-07
3.63619e-07
4.72184e-07
6.12253e-07
7.92693e-07
1.02477e-06
1.32281e-06
1.70493e-06
2.19408e-06
2.81924e-06
3.61693e-06
4.63309e-06
5.92545e-06
7.56633e-06
9.64625e-06
1.22782e-05
1.56031e-05
1.97962e-05
2.50749e-05
3.17087e-05
4.0031e-05
5.04526e-05
6.34799e-05
7.97349e-05
9.99799e-05
0.000125148
0.000156377
0.000195055
0.000242866
0.000301853
0.000374487
0.000463748
0.000573223
0.000707222
0.0008709
0.00107042
0.00131312
0.00160772
0.00196456
0.00239584
0.00291594
0.00354176
0.00429308
0.005193
0.0062684
0.00755047
0.00907526
0.0108843
0.0130253
0.0155528
0.018529
0.0220245
0.026119
0.0309025
0.0364757
0.042951
0.0504534
0.0591211
0.069106
0.0805745
0.0937078
0.108702
0.125768
0.145132
0.167033
0.191725
0.219473
0.250554
0.285251
0.323856
0.366666
0.413976
0.466081
0.523272
0.585828
0.65402
0.728099
0.8083
0.894833
0.987886
1.08761
1.19415
1.30758
1.42798
1.55536
1.68974
1.83107
1.97929
2.13429
2.29595
2.46412
2.63864
2.8193
3.0059
3.19821
3.39602
3.59907
3.80712
4.01994
4.23727
4.45888
4.68452
4.91397
5.147
5.38339
5.62293
5.86542
6.11068
6.35853
6.6088
6.86132
7.11595
7.37255
7.63098
7.89113
8.15288
8.41613
8.68076
8.9467
9.21385
9.48214
9.75148
10.0218
10.2931
10.5652
10.8381
11.1118
11.3862
11.6612
11.9369
12.2131
12.4899
12.7672
13.0449
13.3231
13.6017
13.8807
14.16
14.4397
14.7197
15
15.2806
15.5614
15.8424
16.1237
16.4052
16.6869
16.9688
17.2508
17.533
17.8153
18.0978
18.3804
18.6631
18.9459
19.2288
19.5118
19.7949
20.078
20.3612
20.6445
20.9278
21.2112
21.4946
21.7781
22.0615
22.3451
22.6286
22.9122
23.1957
23.4793
23.7629
24.0465
24.3301
24.6137
24.8972
25.1808
25.4644
25.7479
26.0314
26.315
26.5984
26.8819
27.1654
27.4488
27.7321
28.0155
28.2988
28.5821
28.8653
29.1486
29.4317
29.7149
29.9979
30.281
30.564
30.8469
31.1298
31.4127
31.6955
31.9783
32.261
32.5436
32.8262
33.1088
33.3913
33.6737
33.9561
34.2384
34.5207
34.8029
35.085
35.3671
35.6491
35.9311
36.213
36.4948
36.7766
37.0583
37.3399
37.6215
37.903
38.1844
38.4658
38.7471
39.0283
39.3095
39.5906
39.8716
40.1526
40.4335
40.7143
40.995
41.2757
41.5563
41.8368
42.1172
42.3976
42.6779
42.9581
43.2383
43.5184
43.7983
44.0783
44.3581
44.6379
44.9175
45.1972
45.4767
45.7561
46.0355
46.3148
46.594
46.8731
47.1522
47.4311
47.71
47.9888
48.2675
48.5461
48.8247
49.1032
49.3815
49.6598
49.938
50.2162
50.4942
50.7722
51.05
51.3278
51.6055
51.8831
52.1607
52.4381
52.7154
52.9927
53.2699
53.5469
53.8239
54.1008
54.3776
54.6544
54.931
55.2075
55.484
55.7604
56.0366
56.3128
56.5889
56.8649
57.1408
57.4166
57.6923
57.9679
58.2435
58.5189
58.7942
59.0695
59.3446
59.6197
59.8947
60.1695
60.4443
60.719
60.9936
61.2681
61.5424
61.8167
62.0909
62.365
62.639
62.913
63.1868
63.4605
63.7341
64.0076
64.281
64.5544
64.8276
65.1007
65.3737
65.6467
65.9195
66.1922
66.4649
66.7374
67.0098
67.2822
67.5544
67.8265
68.0985
68.3705
68.6423
68.914
69.1857
69.4572
69.7286
70
70.2712
70.5423
70.8133
71.0843
71.3551
71.6258
71.8964
72.1669
72.4373
72.7076
72.9779
73.248
73.518
73.7879
74.0577
74.3274
74.597
74.8664
75.1358
75.4051
75.6743
75.9434
76.2123
76.4812
76.75
77.0186
77.2872
77.5556
77.824
78.0922
78.3604
78.6284
78.8964
79.1642
79.4319
79.6995
79.9671
80.2345
80.5018
80.769
81.0361
81.3031
81.57
81.8367
82.1034
82.37
82.6365
82.9028
83.1691
83.4352
83.7013
83.9672
84.2331
84.4988
84.7644
85.0299
85.2954
85.5607
85.8259
86.091
86.356
86.6209
86.8856
87.1503
87.4149
87.6794
87.9437
88.208
88.4721
88.7362
89.0001
89.2639
89.5277
89.7913
90.0548
90.3182
90.5815
90.8447
91.1078
91.3708
91.6336
91.8964
92.1591
92.4216
92.6841
92.9464
93.2086
93.4708
93.7328
93.9947
94.2565
94.5182
94.7798
95.0413
95.3027
95.564
95.8252
96.0862
96.3472
96.608
96.8688
97.1294
97.39
97.6504
97.9107
98.1709
98.431
98.691
98.9509
99.2107
99.4704
99.73
99.9894
100.249
100.508
100.767
101.026
101.285
101.544
101.803
102.061
102.32
102.578
102.837
103.095
103.353
103.611
103.869
104.126
104.384
104.642
104.899
105.156
105.414
105.671
105.928
106.185
106.441
106.698
106.955
107.211
107.468
107.724
107.98
108.236
108.492
108.748
109.003
109.259
109.515
109.77
110.025
110.281
110.536
110.791
111.045
111.3
111.555
111.809
112.064
112.318
112.572
112.827
113.081
113.335
113.588
113.842
114.096
114.349
114.602
114.856
115.109
115.362
115.615
115.868
116.121
116.373
116.626
116.878
117.13
117.383
117.635
117.887
118.139
118.39
118.642
118.894
119.145
119.396
119.648
119.899
120.15
120.401
120.652
120.902
121.153
121.403
121.654
121.904
122.154
122.404
122.654
122.904
123.154
123.404
123.653
123.903
124.152
124.401
124.65
124.899
125.148
125.397
125.646
125.894
126.143
126.391
126.639
126.888
127.136
127.384
127.631
127.879
128.127
128.374
128.622
128.869
129.116
129.363
129.61
129.857
130.104
130.351
130.597
130.844
131.09
131.336
131.583
131.829
132.075
132.32
132.566
132.812
133.057
133.303
133.548
133.793
134.038
134.283
134.528
134.773
135.018
135.262
135.507
135.751
135.995
136.239
136.483
136.727
136.971
137.215
137.458
137.702
137.945
138.189
138.432
138.675
138.918
139.161
139.403
139.646
139.889
140.131
140.373
140.616
140.858
141.1
141.342
141.584
141.825
142.067
142.308
142.55
142.791
143.032
143.273
143.514
143.755
143.996
144.237
144.477
144.718
144.958
145.198
145.438
145.678
145.918
146.158
146.398
146.638
146.877
147.116
147.356
147.595
147.834
148.073
148.312
148.551
148.789
149.028
149.266
149.505
149.743
149.981
150.219
150.457
150.695
150.933
151.17
151.408
151.645
151.883
152.12
152.357
152.594
152.831
153.068
153.304
153.541
153.777
154.014
154.25
154.486
154.722
154.958
155.194
155.43
155.665
155.901
156.136
156.372
156.607
156.842
157.077
157.312
157.547
157.781
158.016
158.251
158.485
158.719
158.953
159.187
159.421
159.655
159.889
160.123
160.356
160.59
160.823
161.056
161.29
161.523
161.756
161.988
162.221
162.454
162.686
162.919
163.151
163.383
163.615
163.847
164.079
164.311
164.543
164.774
165.006
165.237
165.469
165.7
165.931
166.162
166.393
166.623
166.854
167.085
167.315
167.546
167.776
168.006
168.236
168.466
168.696
168.926
169.155
169.385
169.614
169.843
170.073
170.302
170.531
170.76
170.989
171.217
171.446
171.674
171.903
172.131
172.359
172.587
172.815
173.043
173.271
173.499
173.726
173.954
174.181
174.409
174.636
174.863
175.09
175.317
175.543
175.77
175.997
176.223
176.449
176.676
176.902
177.128
177.354
177.58
177.805
178.031
178.257
178.482
178.707
178.933
179.158
179.383
179.608
179.833
180.057
180.282
180.506
180.731
180.955
181.179
181.404
181.628
181.851
182.075
182.299
182.523
182.746
182.969
183.193
183.416
183.639
183.862
184.085
184.308
184.53
184.753
184.976
185.198
185.42
185.642
185.865
186.087
186.308
186.53
186.752
186.973
187.195
187.416
187.638
187.859
188.08
188.301
188.522
188.742
188.963
189.184
189.404
189.625
189.845
190.065
190.285
190.505
190.725
190.945
191.164
191.384
191.603
191.823
192.042
192.261
192.48
192.699
192.918
193.137
193.355
193.574
193.792
194.011
194.229
194.447
194.665
194.883
195.101
195.319
195.537
195.754
195.972
196.189
196.406
196.623
196.84
197.057
197.274
197.491
197.708
197.924
198.141
198.357
198.573
198.789
199.005
199.221
199.437
199.653
199.869
200.084
200.3
200.515
200.73
200.945
201.161
201.376
201.59
201.805
202.02
202.234
202.449
202.663
202.877
203.092
203.306
203.52
203.734
203.947
204.161
204.375
204.588
204.801
205.015
205.228
205.441
205.654
205.867
206.08
206.292
206.505
206.717
206.93
207.142
207.354
207.566
207.778
207.99
208.202
208.414
208.625
208.837
209.048
209.259
209.47
209.682
209.893
210.103
210.314
210.525
210.736
210.946
211.156
211.367
211.577
211.787
211.997
212.207
212.417
212.627
212.836
213.046
213.255
213.464
213.674
213.883
214.092
214.301
214.51
214.718
214.927
215.136
215.344
215.552
215.761
215.969
216.177
216.385
216.593
216.8
217.008
217.216
217.423
217.63
217.838
218.045
218.252
218.459
218.666
218.873
219.079
219.286
219.492
219.699
219.905
220.111
220.317
220.523
220.729
220.935
221.141
221.346
221.552
221.757
221.962
222.168
222.373
222.578
222.783
222.988
223.192
223.397
223.602
223.806
224.01
224.215
224.419
224.623
224.827
225.031
225.234
225.438
225.642
225.845
226.048
226.252
226.455
226.658
226.861
227.064
227.267
227.469
227.672
227.875
228.077
228.279
228.481
228.684
228.886
229.088
229.289
229.491
229.693
229.894
230.096
230.297
230.498
230.7
230.901
231.102
231.302
231.503
231.704
231.904
232.105
232.305
232.506
232.706
232.906
233.106
233.306
233.506
233.705
233.905
234.105
234.304
234.503
234.703
234.902
235.101
235.3
235.499
235.697
235.896
236.095
236.293
236.491
236.69
236.888
237.086
237.284
237.482
237.68
237.877
238.075
238.273
238.47
238.667
238.865
239.062
239.259
239.456
239.653
239.849
240.046
240.243
240.439
240.635
240.832
241.028
241.224
241.42
241.616
241.812
242.007
242.203
242.399
242.594
242.789
242.985
243.18
243.375
243.57
243.765
243.959
244.154
244.349
244.543
244.737
244.932
245.126
245.32
245.514
245.708
245.902
246.096
246.289
246.483
246.676
246.87
247.063
247.256
247.449
247.642
247.835
248.028
248.22
248.413
248.605
248.798
248.99
249.182
249.375
249.567
249.758
249.95
250.142
250.334
250.525
250.717
250.908
251.099
251.291
251.482
251.673
251.864
252.054
252.245
252.436
252.626
252.817
253.007
253.197
253.388
253.578
253.768
253.958
254.147
254.337
254.527
254.716
254.906
255.095
255.284
255.473
255.662
255.851
256.04
256.229
256.417
256.606
256.795
256.983
257.171
257.359
257.548
257.736
257.923
258.111
258.299
258.487
258.674
258.862
259.049
259.236
259.424
259.611
259.798
259.985
260.171
260.358
260.545
260.731
260.918
261.104
261.29
261.477
261.663
261.849
262.034
262.22
262.406
262.592
262.777
262.963
263.148
263.333
263.518
263.703
263.888
264.073
264.258
264.443
264.627
264.812
264.996
265.18
265.365
265.549
265.733
265.917
266.101
266.284
266.468
266.652
266.835
267.019
267.202
267.385
267.568
267.751
267.934
268.117
268.3
268.483
268.665
268.848
269.03
269.212
269.395
269.577
269.759
269.941
270.123
270.304
270.486
270.668
270.849
271.03
271.212
271.393
271.574
271.755
271.936
272.117
272.298
272.478
272.659
272.839
273.02
273.2
273.38
273.56
273.74
273.92
274.1
274.28
274.46
274.639
274.819
274.998
275.177
275.357
275.536
275.715
275.894
276.073
276.251
276.43
276.609
276.787
276.966
277.144
277.322
277.5
277.678
277.856
278.034
278.212
278.389
278.567
278.745
278.922
279.099
279.276
279.454
279.631
279.808
279.984
280.161
280.338
280.515
280.691
280.867
281.044
281.22
281.396
281.572
281.748
281.924
282.1
282.276
282.451
282.627
282.802
282.977
283.153
283.328
283.503
283.678
283.853
284.028
284.202
284.377
284.552
284.726
284.9
285.075
285.249
285.423
285.597
285.771
285.945
286.118
286.292
286.466
286.639
286.812
286.986
287.159
287.332
287.505
287.678
287.851
288.024
288.196
288.369
288.541
288.714
288.886
289.058
289.23
289.402
289.574
289.746
289.918
290.09
290.261
290.433
290.604
290.776
290.947
291.118
291.289
291.46
291.631
291.802
291.972
292.143
292.314
292.484
292.654
292.825
292.995
293.165
293.335
293.505
293.675
293.844
294.014
294.184
294.353
294.523
294.692
294.861
295.03
295.199
295.368
295.537
295.706
295.875
296.043
296.212
296.38
296.548
296.717
296.885
297.053
297.221
297.389
297.557
297.724
297.892
298.059
298.227
298.394
298.562
298.729
298.896
299.063
299.23
299.397
299.564
299.73
299.897
300.063
300.23
300.396
300.562
300.728
300.894
301.06
301.226
301.392
301.558
301.723
301.889
302.055
302.22
302.385
302.55
302.715
302.88
303.045
303.21
303.375
303.54
303.704
303.869
304.033
304.198
304.362
304.526
304.69
304.854
305.018
305.182
305.345
305.509
305.673
305.836
305.999
306.163
306.326
306.489
306.652
306.815
306.978
307.141
307.303
307.466
307.628
307.791
307.953
308.115
308.278
308.44
308.602
308.764
308.925
309.087
309.249
309.41
309.572
309.733
309.895
310.056
310.217
310.378
310.539
310.7
310.861
311.021
311.182
311.343
311.503
311.663
311.824
311.984
312.144
312.304
312.464
312.624
312.784
312.943
313.103
313.262
313.422
313.581
313.74
313.9
314.059
314.218
314.377
314.535
314.694
314.853
315.011
315.17
315.328
315.487
315.645
315.803
315.961
316.119
316.277
316.435
316.592
316.75
316.908
317.065
317.223
317.38
317.537
317.694
317.851
318.008
318.165
318.322
318.479
318.635
318.792
318.948
319.105
319.261
319.417
319.573
319.729
319.885
320.041
320.197
320.352
320.508
320.664
320.819
320.974
321.13
321.285
321.44
321.595
321.75
321.905
322.06
322.214
322.369
322.523
322.678
322.832
322.986
323.141
323.295
323.449
323.603
323.757
323.91
324.064
324.218
324.371
324.525
324.678
324.831
324.984
325.137
325.29
325.443
325.596
325.749
325.902
326.054
326.207
326.359
326.511
326.664
326.816
326.968
327.12
327.272
327.424
327.576
327.727
327.879
328.03
328.182
328.333
328.484
328.636
328.787
328.938
329.089
329.239
329.39
329.541
329.691
329.842
329.992
330.143
330.293
330.443
330.593
330.743
330.893
331.043
331.193
331.343
331.492
331.642
331.791
331.94
332.09
332.239
332.388
332.537
332.686
332.835
332.984
333.132
333.281
333.429
333.578
333.726
333.875
334.023
334.171
334.319
334.467
334.615
334.763
334.91
335.058
335.205
335.353
335.5
335.648
335.795
335.942
336.089
336.236
336.383
336.53
336.676
336.823
336.97
337.116
337.262
337.409
337.555
337.701
337.847
337.993
338.139
338.285
338.431
338.576
338.722
338.867
339.013
339.158
339.303
339.449
339.594
339.739
339.884
340.028
340.173
340.318
340.462
340.607
340.751
340.896
341.04
341.184
341.328
341.472
341.616
341.76
341.904
342.048
342.191
342.335
342.478
342.622
342.765
342.908
343.051
343.195
343.338
343.48
343.623
343.766
343.909
344.051
344.194
344.336
344.478
344.621
344.763
344.905
345.047
345.189
345.331
345.473
345.614
345.756
345.897
346.039
346.18
346.322
346.463
346.604
346.745
346.886
347.027
347.168
347.308
347.449
347.59
347.73
347.87
348.011
348.151
348.291
348.431
348.571
348.711
348.851
348.991
349.13
349.27
349.41
349.549
349.688
349.828
349.967
350.106
350.245
350.384
350.523
350.662
350.8
350.939
351.078
351.216
351.355
351.493
351.631
351.769
351.907
352.045
352.183
352.321
352.459
352.597
352.734
352.872
353.009
353.147
353.284
353.421
353.558
353.695
353.832
353.969
354.106
354.243
354.38
354.516
354.653
354.789
354.925
355.062
355.198
355.334
355.47
355.606
355.742
355.878
356.013
356.149
356.285
356.42
356.556
356.691
356.826
356.961
357.096
357.231
357.366
357.501
357.636
357.771
357.905
358.04
358.174
358.309
358.443
358.577
358.711
358.845
358.979
359.113
359.247
359.381
359.515
359.648
359.782
359.915
360.049
360.182
360.315
360.448
360.581
360.714
360.847
360.98
361.113
361.245
361.378
361.51
361.643
361.775
361.907
362.04
362.172
362.304
362.436
362.568
362.699
362.831
362.963
363.094
363.226
363.357
363.489
363.62
363.751
363.882
364.013
364.144
364.275
364.406
364.537
364.667
364.798
364.928
365.059
365.189
365.319
365.45
365.58
365.71
365.84
365.969
366.099
366.229
366.359
366.488
366.618
366.747
366.876
367.006
367.135
367.264
367.393
367.522
367.651
367.78
367.908
368.037
368.166
368.294
368.422
368.551
368.679
368.807
368.935
369.063
369.191
369.319
369.447
369.575
369.702
369.83
369.957
370.085
370.212
370.339
370.467
370.594
370.721
370.848
370.975
371.101
371.228
371.355
371.481
371.608
371.734
371.861
371.987
372.113
372.239
372.365
372.491
372.617
372.743
372.869
372.994
373.12
373.245
373.371
373.496
373.621
373.747
373.872
373.997
374.122
374.247
374.372
374.496
374.621
374.746
374.87
374.995
375.119
375.243
375.367
375.492
375.616
375.74
375.864
375.987
376.111
376.235
376.358
376.482
376.605
376.729
376.852
376.975
377.099
377.222
377.345
377.468
377.591
377.713
377.836
377.959
378.081
378.204
378.326
378.448
378.571
378.693
378.815
378.937
379.059
379.181
379.303
379.425
379.546
379.668
379.789
379.911
380.032
380.153
380.275
380.396
380.517
380.638
380.759
380.88
381
381.121
381.242
381.362
381.483
381.603
381.723
381.844
381.964
382.084
382.204
382.324
382.444
382.564
382.683
382.803
382.923
383.042
383.161
383.281
383.4
383.519
383.638
383.758
383.876
383.995
384.114
384.233
384.352
384.47
384.589
384.707
384.826
384.944
385.062
385.18
385.299
385.417
385.535
385.652
385.77
385.888
386.006
386.123
386.241
386.358
386.476
386.593
386.71
386.827
386.944
387.061
387.178
387.295
387.412
387.528
387.645
387.762
387.878
387.995
388.111
388.227
388.343
388.459
388.575
388.691
388.807
388.923
389.039
389.155
389.27
389.386
389.501
389.617
389.732
389.847
389.962
390.077
390.192
390.307
390.422
390.537
390.652
390.766
390.881
390.995
391.11
391.224
391.339
391.453
391.567
391.681
391.795
391.909
392.023
392.137
392.25
392.364
392.477
392.591
392.704
392.818
392.931
393.044
393.157
393.27
393.383
393.496
393.609
393.722
393.835
393.947
394.06
394.172
394.285
394.397
394.509
394.621
394.734
394.846
394.958
395.069
395.181
395.293
395.405
395.516
395.628
395.739
395.851
395.962
396.073
396.185
396.296
396.407
396.518
396.629
396.739
396.85
396.961
397.071
397.182
397.292
397.403
397.513
397.623
397.734
397.844
397.954
398.064
398.174
398.283
398.393
398.503
398.612
398.722
398.831
398.941
399.05
399.159
399.269
399.378
399.487
399.596
399.705
399.813
399.922
400.031
400.14
400.248
400.357
400.465
400.573
400.682
400.79
400.898
401.006
401.114
401.222
401.33
401.437
401.545
401.653
401.76
401.868
401.975
402.082
402.19
402.297
402.404
402.511
402.618
402.725
402.832
402.939
403.045
403.152
403.258
403.365
403.471
403.578
403.684
403.79
403.896
404.002
404.108
404.214
404.32
404.426
404.532
404.637
404.743
404.848
404.954
405.059
405.165
405.27
405.375
405.48
405.585
405.69
405.795
405.9
406.004
406.109
406.214
406.318
406.423
406.527
406.631
406.736
406.84
406.944
407.048
407.152
407.256
407.36
407.463
407.567
407.671
407.774
407.878
407.981
408.084
408.188
408.291
408.394
408.497
408.6
408.703
408.806
408.909
409.011
409.114
409.217
409.319
409.422
409.524
409.626
409.728
409.831
409.933
410.035
410.137
410.239
410.34
410.442
410.544
410.645
410.747
410.848
410.95
411.051
411.152
411.254
411.355
411.456
411.557
411.658
411.759
411.859
411.96
412.061
412.161
412.262
412.362
412.463
412.563
412.663
412.763
412.863
412.963
413.063
413.163
413.263
413.363
413.463
413.562
413.662
413.761
413.861
413.96
414.059
414.158
414.258
414.357
414.456
414.555
414.654
414.752
414.851
414.95
415.048
415.147
415.245
415.344
415.442
415.54
415.638
415.737
415.835
415.933
416.031
416.128
416.226
416.324
416.421
416.519
416.617
416.714
416.811
416.909
417.006
417.103
417.2
417.297
417.394
417.491
417.588
417.685
417.781
417.878
417.975
418.071
418.167
418.264
418.36
418.456
418.552
418.649
418.745
418.841
418.936
419.032
419.128
419.224
419.319
419.415
419.51
419.606
419.701
419.796
419.892
419.987
420.082
420.177
420.272
420.367
420.462
420.556
420.651
420.745
420.84
420.934
421.029
421.123
421.218
421.312
421.406
421.5
421.594
421.688
421.782
421.875
421.97
422.063
422.157
422.25
422.344
422.437
422.53
422.624
422.717
422.81
422.903
422.997
423.089
423.183
423.274
423.368
423.46
423.553
423.645
423.738
423.83
423.923
424.015
424.107
424.2
424.291
424.384
424.475
424.568
424.659
424.751
424.842
424.934
425.026
425.117
425.209
425.299
425.392
425.482
425.574
425.665
425.755
425.847
425.937
426.029
426.118
426.21
426.3
426.391
426.482
426.571
426.663
426.752
426.843
426.933
427.023
427.113
427.203
427.294
427.382
427.473
427.562
427.652
427.742
427.831
427.921
428.009
428.1
428.188
428.278
428.367
428.455
428.546
428.633
428.723
428.812
428.9