/*--------------------------------*- C++ -*----------------------------------*\
  =========                 |
  \\      /  F ield         | OpenFOAM: The Open Source CFD Toolbox
   \\    /   O peration     | Website:  https://openfoam.org
    \\  /    A nd           | Version:  9
     \\/     M anipulation  |
\*---------------------------------------------------------------------------*/
FoamFile
{
    format      ascii;
    class       volVectorField;
    location    "0.049";
    object      U;
}
// * * * * * * * * * * * * * * * * * * * * * * * * * * * * * * * * * * * * * //

dimensions      [0 1 -1 0 0 0 0];

internalField   nonuniform List<vector> 
1000
(
(235.555 0 0)
(235.822 0 0)
(235.979 0 0)
(236.15 0 0)
(236.317 0 0)
(236.485 0 0)
(236.653 0 0)
(236.821 0 0)
(236.989 0 0)
(237.157 0 0)
(237.325 0 0)
(237.493 0 0)
(237.661 0 0)
(237.829 0 0)
(237.997 0 0)
(238.165 0 0)
(238.333 0 0)
(238.5 0 0)
(238.668 0 0)
(238.836 0 0)
(239.004 0 0)
(239.172 0 0)
(239.34 0 0)
(239.508 0 0)
(239.676 0 0)
(239.844 0 0)
(240.012 0 0)
(240.18 0 0)
(240.348 0 0)
(240.516 0 0)
(240.683 0 0)
(240.851 0 0)
(241.019 0 0)
(241.187 0 0)
(241.355 0 0)
(241.523 0 0)
(241.691 0 0)
(241.859 0 0)
(242.026 0 0)
(242.194 0 0)
(242.362 0 0)
(242.53 0 0)
(242.698 0 0)
(242.866 0 0)
(243.034 0 0)
(243.202 0 0)
(243.37 0 0)
(243.537 0 0)
(243.705 0 0)
(243.873 0 0)
(244.041 0 0)
(244.209 0 0)
(244.377 0 0)
(244.545 0 0)
(244.713 0 0)
(244.88 0 0)
(245.048 0 0)
(245.216 0 0)
(245.384 0 0)
(245.552 0 0)
(245.72 0 0)
(245.888 0 0)
(246.055 0 0)
(246.223 0 0)
(246.391 0 0)
(246.559 0 0)
(246.727 0 0)
(246.895 0 0)
(247.063 0 0)
(247.231 0 0)
(247.399 0 0)
(247.566 0 0)
(247.734 0 0)
(247.902 0 0)
(248.07 0 0)
(248.238 0 0)
(248.406 0 0)
(248.574 0 0)
(248.741 0 0)
(248.909 0 0)
(249.077 0 0)
(249.245 0 0)
(249.413 0 0)
(249.581 0 0)
(249.749 0 0)
(249.916 0 0)
(250.084 0 0)
(250.252 0 0)
(250.42 0 0)
(250.588 0 0)
(250.756 0 0)
(250.924 0 0)
(251.091 0 0)
(251.259 0 0)
(251.427 0 0)
(251.595 0 0)
(251.763 0 0)
(251.931 0 0)
(252.098 0 0)
(252.266 0 0)
(252.434 0 0)
(252.603 0 0)
(252.772 0 0)
(252.938 0 0)
(253.103 0 0)
(253.27 0 0)
(253.441 0 0)
(253.615 0 0)
(253.783 0 0)
(253.946 0 0)
(254.107 0 0)
(254.271 0 0)
(254.445 0 0)
(254.628 0 0)
(254.798 0 0)
(254.957 0 0)
(255.114 0 0)
(255.273 0 0)
(255.441 0 0)
(255.627 0 0)
(255.808 0 0)
(255.97 0 0)
(256.127 0 0)
(256.285 0 0)
(256.446 0 0)
(256.618 0 0)
(256.806 0 0)
(256.979 0 0)
(257.14 0 0)
(257.298 0 0)
(257.457 0 0)
(257.626 0 0)
(257.813 0 0)
(257.987 0 0)
(258.146 0 0)
(258.304 0 0)
(258.465 0 0)
(258.645 0 0)
(258.833 0 0)
(258.996 0 0)
(259.152 0 0)
(259.308 0 0)
(259.473 0 0)
(259.665 0 0)
(259.846 0 0)
(260.004 0 0)
(260.158 0 0)
(260.312 0 0)
(260.477 0 0)
(260.674 0 0)
(260.857 0 0)
(261.013 0 0)
(261.166 0 0)
(261.319 0 0)
(261.475 0 0)
(261.654 0 0)
(261.86 0 0)
(262.027 0 0)
(262.18 0 0)
(262.332 0 0)
(262.485 0 0)
(262.64 0 0)
(262.815 0 0)
(263.024 0 0)
(263.196 0 0)
(263.35 0 0)
(263.503 0 0)
(263.656 0 0)
(263.813 0 0)
(263.991 0 0)
(264.195 0 0)
(264.363 0 0)
(264.518 0 0)
(264.673 0 0)
(264.828 0 0)
(264.99 0 0)
(265.18 0 0)
(265.37 0 0)
(265.53 0 0)
(265.686 0 0)
(265.842 0 0)
(266.001 0 0)
(266.177 0 0)
(266.371 0 0)
(266.538 0 0)
(266.696 0 0)
(266.853 0 0)
(267.012 0 0)
(267.183 0 0)
(267.372 0 0)
(267.543 0 0)
(267.703 0 0)
(267.862 0 0)
(268.024 0 0)
(268.196 0 0)
(268.376 0 0)
(268.545 0 0)
(268.708 0 0)
(268.871 0 0)
(269.037 0 0)
(269.209 0 0)
(269.38 0 0)
(269.547 0 0)
(269.713 0 0)
(269.879 0 0)
(270.047 0 0)
(270.216 0 0)
(270.384 0 0)
(270.551 0 0)
(270.719 0 0)
(270.886 0 0)
(271.054 0 0)
(271.222 0 0)
(271.39 0 0)
(271.557 0 0)
(271.725 0 0)
(271.892 0 0)
(272.06 0 0)
(272.228 0 0)
(272.395 0 0)
(272.563 0 0)
(272.731 0 0)
(272.898 0 0)
(273.066 0 0)
(273.234 0 0)
(273.401 0 0)
(273.569 0 0)
(273.737 0 0)
(273.904 0 0)
(274.072 0 0)
(274.24 0 0)
(274.407 0 0)
(274.575 0 0)
(274.742 0 0)
(274.91 0 0)
(275.078 0 0)
(275.246 0 0)
(275.413 0 0)
(275.581 0 0)
(275.748 0 0)
(275.916 0 0)
(276.084 0 0)
(276.251 0 0)
(276.419 0 0)
(276.587 0 0)
(276.754 0 0)
(276.922 0 0)
(277.09 0 0)
(277.257 0 0)
(277.425 0 0)
(277.593 0 0)
(277.76 0 0)
(277.928 0 0)
(278.095 0 0)
(278.263 0 0)
(278.431 0 0)
(278.598 0 0)
(278.766 0 0)
(278.933 0 0)
(279.101 0 0)
(279.268 0 0)
(279.436 0 0)
(279.604 0 0)
(279.771 0 0)
(279.938 0 0)
(280.106 0 0)
(280.273 0 0)
(280.441 0 0)
(280.609 0 0)
(280.776 0 0)
(280.943 0 0)
(281.111 0 0)
(281.278 0 0)
(281.446 0 0)
(281.613 0 0)
(281.78 0 0)
(281.948 0 0)
(282.115 0 0)
(282.283 0 0)
(282.452 0 0)
(282.619 0 0)
(282.785 0 0)
(282.951 0 0)
(283.118 0 0)
(283.288 0 0)
(283.458 0 0)
(283.625 0 0)
(283.791 0 0)
(283.956 0 0)
(284.121 0 0)
(284.289 0 0)
(284.462 0 0)
(284.632 0 0)
(284.798 0 0)
(284.962 0 0)
(285.125 0 0)
(285.291 0 0)
(285.463 0 0)
(285.638 0 0)
(285.805 0 0)
(285.968 0 0)
(286.131 0 0)
(286.295 0 0)
(286.464 0 0)
(286.641 0 0)
(286.81 0 0)
(286.974 0 0)
(287.137 0 0)
(287.3 0 0)
(287.467 0 0)
(287.644 0 0)
(287.814 0 0)
(287.978 0 0)
(288.141 0 0)
(288.305 0 0)
(288.473 0 0)
(288.649 0 0)
(288.817 0 0)
(288.981 0 0)
(289.144 0 0)
(289.309 0 0)
(289.482 0 0)
(289.655 0 0)
(289.82 0 0)
(289.984 0 0)
(290.147 0 0)
(290.314 0 0)
(290.488 0 0)
(290.66 0 0)
(290.824 0 0)
(290.987 0 0)
(291.151 0 0)
(291.317 0 0)
(291.491 0 0)
(291.663 0 0)
(291.828 0 0)
(291.991 0 0)
(292.155 0 0)
(292.32 0 0)
(292.493 0 0)
(292.666 0 0)
(292.831 0 0)
(292.995 0 0)
(293.159 0 0)
(293.324 0 0)
(293.494 0 0)
(293.667 0 0)
(293.833 0 0)
(293.998 0 0)
(294.162 0 0)
(294.327 0 0)
(294.496 0 0)
(294.669 0 0)
(294.835 0 0)
(295 0 0)
(295.165 0 0)
(295.334 0 0)
(295.505 0 0)
(295.672 0 0)
(295.837 0 0)
(296.001 0 0)
(296.167 0 0)
(296.337 0 0)
(296.507 0 0)
(296.673 0 0)
(296.837 0 0)
(297.001 0 0)
(297.166 0 0)
(297.335 0 0)
(297.506 0 0)
(297.671 0 0)
(297.835 0 0)
(297.999 0 0)
(298.163 0 0)
(298.33 0 0)
(298.5 0 0)
(298.665 0 0)
(298.828 0 0)
(298.991 0 0)
(299.154 0 0)
(299.317 0 0)
(299.484 0 0)
(299.648 0 0)
(299.809 0 0)
(299.97 0 0)
(300.129 0 0)
(300.289 0 0)
(300.45 0 0)
(300.61 0 0)
(300.766 0 0)
(300.921 0 0)
(301.075 0 0)
(301.227 0 0)
(301.379 0 0)
(301.53 0 0)
(301.678 0 0)
(301.823 0 0)
(301.965 0 0)
(302.105 0 0)
(302.242 0 0)
(302.377 0 0)
(302.506 0 0)
(302.631 0 0)
(302.748 0 0)
(302.857 0 0)
(302.959 0 0)
(303.052 0 0)
(303.135 0 0)
(303.207 0 0)
(303.268 0 0)
(303.317 0 0)
(303.355 0 0)
(303.383 0 0)
(303.401 0 0)
(303.409 0 0)
(303.409 0 0)
(303.399 0 0)
(303.391 0 0)
(303.383 0 0)
(303.372 0 0)
(303.351 0 0)
(303.318 0 0)
(303.279 0 0)
(303.244 0 0)
(303.213 0 0)
(303.186 0 0)
(303.16 0 0)
(303.135 0 0)
(303.11 0 0)
(303.082 0 0)
(303.045 0 0)
(303.003 0 0)
(302.967 0 0)
(302.931 0 0)
(302.898 0 0)
(302.868 0 0)
(302.842 0 0)
(302.815 0 0)
(302.794 0 0)
(302.784 0 0)
(302.779 0 0)
(302.778 0 0)
(302.785 0 0)
(302.808 0 0)
(302.842 0 0)
(302.885 0 0)
(302.924 0 0)
(302.956 0 0)
(302.982 0 0)
(303 0 0)
(303.008 0 0)
(303.011 0 0)
(303.017 0 0)
(303.023 0 0)
(303.025 0 0)
(303.025 0 0)
(303.02 0 0)
(303.007 0 0)
(302.997 0 0)
(302.991 0 0)
(302.983 0 0)
(302.974 0 0)
(302.962 0 0)
(302.943 0 0)
(302.92 0 0)
(302.902 0 0)
(302.884 0 0)
(302.863 0 0)
(302.841 0 0)
(302.815 0 0)
(302.783 0 0)
(302.76 0 0)
(302.744 0 0)
(302.731 0 0)
(302.721 0 0)
(302.711 0 0)
(302.696 0 0)
(302.688 0 0)
(302.694 0 0)
(302.713 0 0)
(302.74 0 0)
(302.765 0 0)
(302.78 0 0)
(302.789 0 0)
(302.804 0 0)
(302.818 0 0)
(302.829 0 0)
(302.838 0 0)
(302.843 0 0)
(302.844 0 0)
(302.837 0 0)
(302.832 0 0)
(302.827 0 0)
(302.815 0 0)
(302.803 0 0)
(302.798 0 0)
(302.794 0 0)
(302.789 0 0)
(302.783 0 0)
(302.776 0 0)
(302.767 0 0)
(302.757 0 0)
(302.746 0 0)
(302.733 0 0)
(302.713 0 0)
(302.683 0 0)
(302.662 0 0)
(302.646 0 0)
(302.632 0 0)
(302.618 0 0)
(302.601 0 0)
(302.58 0 0)
(302.57 0 0)
(302.566 0 0)
(302.566 0 0)
(302.573 0 0)
(302.589 0 0)
(302.604 0 0)
(302.616 0 0)
(302.633 0 0)
(302.648 0 0)
(302.661 0 0)
(302.671 0 0)
(302.676 0 0)
(302.671 0 0)
(302.671 0 0)
(302.675 0 0)
(302.678 0 0)
(302.679 0 0)
(302.678 0 0)
(302.671 0 0)
(302.658 0 0)
(302.653 0 0)
(302.649 0 0)
(302.644 0 0)
(302.638 0 0)
(302.628 0 0)
(302.61 0 0)
(302.594 0 0)
(302.583 0 0)
(302.572 0 0)
(302.56 0 0)
(302.546 0 0)
(302.526 0 0)
(302.502 0 0)
(302.487 0 0)
(302.475 0 0)
(302.464 0 0)
(302.453 0 0)
(302.441 0 0)
(302.424 0 0)
(302.418 0 0)
(302.419 0 0)
(302.429 0 0)
(302.447 0 0)
(302.463 0 0)
(302.47 0 0)
(302.48 0 0)
(302.491 0 0)
(302.501 0 0)
(302.508 0 0)
(302.513 0 0)
(302.512 0 0)
(302.504 0 0)
(302.505 0 0)
(302.507 0 0)
(302.508 0 0)
(302.507 0 0)
(302.504 0 0)
(302.494 0 0)
(302.481 0 0)
(302.475 0 0)
(302.471 0 0)
(302.465 0 0)
(302.458 0 0)
(302.447 0 0)
(302.428 0 0)
(302.412 0 0)
(302.401 0 0)
(302.391 0 0)
(302.379 0 0)
(302.365 0 0)
(302.342 0 0)
(302.324 0 0)
(302.314 0 0)
(302.305 0 0)
(302.299 0 0)
(302.294 0 0)
(302.292 0 0)
(302.291 0 0)
(302.294 0 0)
(302.297 0 0)
(302.287 0 0)
(302.29 0 0)
(302.303 0 0)
(302.314 0 0)
(302.323 0 0)
(302.33 0 0)
(302.336 0 0)
(302.34 0 0)
(302.343 0 0)
(302.342 0 0)
(302.333 0 0)
(302.33 0 0)
(302.33 0 0)
(302.329 0 0)
(302.329 0 0)
(302.327 0 0)
(302.324 0 0)
(302.32 0 0)
(302.314 0 0)
(302.301 0 0)
(302.267 0 0)
(302.245 0 0)
(302.236 0 0)
(302.228 0 0)
(302.22 0 0)
(302.212 0 0)
(302.203 0 0)
(302.194 0 0)
(302.186 0 0)
(302.177 0 0)
(302.17 0 0)
(302.161 0 0)
(302.142 0 0)
(302.125 0 0)
(302.121 0 0)
(302.124 0 0)
(302.133 0 0)
(302.146 0 0)
(302.158 0 0)
(302.168 0 0)
(302.167 0 0)
(302.164 0 0)
(302.169 0 0)
(302.173 0 0)
(302.177 0 0)
(302.18 0 0)
(302.182 0 0)
(302.182 0 0)
(302.173 0 0)
(302.153 0 0)
(302.147 0 0)
(302.145 0 0)
(302.143 0 0)
(302.141 0 0)
(302.135 0 0)
(302.122 0 0)
(302.109 0 0)
(302.103 0 0)
(302.098 0 0)
(302.093 0 0)
(302.087 0 0)
(302.08 0 0)
(302.073 0 0)
(302.063 0 0)
(302.046 0 0)
(302.013 0 0)
(301.997 0 0)
(301.989 0 0)
(301.984 0 0)
(301.98 0 0)
(301.978 0 0)
(301.978 0 0)
(301.98 0 0)
(301.987 0 0)
(301.996 0 0)
(301.999 0 0)
(301.982 0 0)
(301.977 0 0)
(301.982 0 0)
(301.988 0 0)
(301.993 0 0)
(301.998 0 0)
(302.001 0 0)
(302.004 0 0)
(302.006 0 0)
(302.006 0 0)
(302.004 0 0)
(301.992 0 0)
(301.964 0 0)
(301.956 0 0)
(301.953 0 0)
(301.951 0 0)
(301.948 0 0)
(301.945 0 0)
(301.942 0 0)
(301.939 0 0)
(301.934 0 0)
(301.93 0 0)
(301.924 0 0)
(301.916 0 0)
(301.898 0 0)
(301.86 0 0)
(301.842 0 0)
(301.834 0 0)
(301.829 0 0)
(301.825 0 0)
(301.822 0 0)
(301.821 0 0)
(301.822 0 0)
(301.829 0 0)
(301.837 0 0)
(301.846 0 0)
(301.855 0 0)
(301.863 0 0)
(301.869 0 0)
(301.873 0 0)
(301.873 0 0)
(301.853 0 0)
(301.815 0 0)
(301.807 0 0)
(301.808 0 0)
(301.809 0 0)
(301.81 0 0)
(301.811 0 0)
(301.811 0 0)
(301.811 0 0)
(301.81 0 0)
(301.809 0 0)
(301.806 0 0)
(301.799 0 0)
(301.773 0 0)
(301.72 0 0)
(301.703 0 0)
(301.697 0 0)
(301.692 0 0)
(301.688 0 0)
(301.683 0 0)
(301.678 0 0)
(301.674 0 0)
(301.674 0 0)
(301.687 0 0)
(301.69 0 0)
(301.688 0 0)
(301.686 0 0)
(301.685 0 0)
(301.685 0 0)
(301.687 0 0)
(301.692 0 0)
(301.697 0 0)
(301.694 0 0)
(301.657 0 0)
(301.615 0 0)
(301.611 0 0)
(301.613 0 0)
(301.615 0 0)
(301.618 0 0)
(301.621 0 0)
(301.623 0 0)
(301.625 0 0)
(301.626 0 0)
(301.626 0 0)
(301.625 0 0)
(301.62 0 0)
(301.605 0 0)
(301.587 0 0)
(301.582 0 0)
(301.579 0 0)
(301.575 0 0)
(301.57 0 0)
(301.561 0 0)
(301.54 0 0)
(301.531 0 0)
(301.526 0 0)
(301.521 0 0)
(301.516 0 0)
(301.512 0 0)
(301.507 0 0)
(301.503 0 0)
(301.498 0 0)
(301.492 0 0)
(301.477 0 0)
(301.443 0 0)
(301.429 0 0)
(301.43 0 0)
(301.434 0 0)
(301.439 0 0)
(301.445 0 0)
(301.451 0 0)
(301.456 0 0)
(301.461 0 0)
(301.464 0 0)
(301.465 0 0)
(301.465 0 0)
(301.463 0 0)
(301.452 0 0)
(301.432 0 0)
(301.423 0 0)
(301.417 0 0)
(301.414 0 0)
(301.413 0 0)
(301.416 0 0)
(301.416 0 0)
(301.415 0 0)
(301.413 0 0)
(301.411 0 0)
(301.407 0 0)
(301.399 0 0)
(301.378 0 0)
(301.344 0 0)
(301.325 0 0)
(301.321 0 0)
(301.32 0 0)
(301.318 0 0)
(301.317 0 0)
(301.316 0 0)
(301.317 0 0)
(301.316 0 0)
(301.316 0 0)
(301.316 0 0)
(301.318 0 0)
(301.319 0 0)
(301.317 0 0)
(301.287 0 0)
(301.244 0 0)
(301.239 0 0)
(301.241 0 0)
(301.243 0 0)
(301.246 0 0)
(301.248 0 0)
(301.25 0 0)
(301.254 0 0)
(301.262 0 0)
(301.27 0 0)
(301.273 0 0)
(301.275 0 0)
(301.276 0 0)
(301.276 0 0)
(301.273 0 0)
(301.267 0 0)
(301.251 0 0)
(301.206 0 0)
(301.181 0 0)
(301.176 0 0)
(301.174 0 0)
(301.172 0 0)
(301.171 0 0)
(301.174 0 0)
(301.176 0 0)
(301.173 0 0)
(301.17 0 0)
(301.167 0 0)
(301.162 0 0)
(301.149 0 0)
(301.1 0 0)
(301.029 0 0)
(300.821 0 0)
(299.906 0 0)
(297.277 0 0)
(295.018 0 0)
(294.155 0 0)
(293.87 0 0)
(293.778 0 0)
(293.751 0 0)
(293.743 0 0)
(293.743 0 0)
(293.716 0 0)
(293.65 0 0)
(293.633 0 0)
(293.627 0 0)
(293.623 0 0)
(293.636 0 0)
(293.641 0 0)
(293.649 0 0)
(293.661 0 0)
(293.669 0 0)
(293.677 0 0)
(293.69 0 0)
(293.691 0 0)
(293.691 0 0)
(293.69 0 0)
(293.679 0 0)
(293.625 0 0)
(293.572 0 0)
(293.564 0 0)
(293.561 0 0)
(293.564 0 0)
(293.572 0 0)
(293.58 0 0)
(293.591 0 0)
(293.605 0 0)
(293.62 0 0)
(293.636 0 0)
(293.645 0 0)
(293.648 0 0)
(293.652 0 0)
(293.652 0 0)
(293.634 0 0)
(293.567 0 0)
(293.505 0 0)
(293.403 0 0)
(293.07 0 0)
(291.956 0 0)
(290.042 0 0)
(288.686 0 0)
(288.099 0 0)
(287.832 0 0)
(287.718 0 0)
(287.666 0 0)
(287.653 0 0)
(287.648 0 0)
(287.621 0 0)
(287.565 0 0)
(287.532 0 0)
(287.523 0 0)
(287.523 0 0)
(287.529 0 0)
(287.547 0 0)
(287.557 0 0)
(287.56 0 0)
(287.556 0 0)
(287.543 0 0)
(287.508 0 0)
(287.488 0 0)
(287.486 0 0)
(287.489 0 0)
(287.496 0 0)
(287.513 0 0)
(287.518 0 0)
(287.517 0 0)
(287.514 0 0)
(287.494 0 0)
(287.44 0 0)
(287.42 0 0)
(287.416 0 0)
(287.416 0 0)
(287.417 0 0)
(287.426 0 0)
(287.442 0 0)
(287.446 0 0)
(287.447 0 0)
(287.447 0 0)
(287.445 0 0)
(287.437 0 0)
(287.4 0 0)
(287.348 0 0)
(287.338 0 0)
(287.337 0 0)
(287.336 0 0)
(287.339 0 0)
(287.356 0 0)
(287.372 0 0)
(287.374 0 0)
(287.373 0 0)
(287.371 0 0)
(287.368 0 0)
(287.36 0 0)
(287.333 0 0)
(287.288 0 0)
(287.276 0 0)
(287.272 0 0)
(287.27 0 0)
(287.269 0 0)
(287.276 0 0)
(287.278 0 0)
(287.275 0 0)
(287.272 0 0)
(287.266 0 0)
(287.248 0 0)
(287.195 0 0)
(287.166 0 0)
(287.158 0 0)
(287.155 0 0)
(287.152 0 0)
(287.151 0 0)
(287.156 0 0)
(287.17 0 0)
(287.171 0 0)
(287.168 0 0)
(287.164 0 0)
(287.156 0 0)
(287.126 0 0)
(287.069 0 0)
(287.051 0 0)
(287.046 0 0)
(287.043 0 0)
(287.042 0 0)
(287.046 0 0)
(287.06 0 0)
(287.062 0 0)
(287.059 0 0)
(287.056 0 0)
(287.049 0 0)
(287.025 0 0)
(286.968 0 0)
(286.948 0 0)
(286.942 0 0)
(286.939 0 0)
(286.937 0 0)
(286.939 0 0)
(286.95 0 0)
(286.955 0 0)
(286.953 0 0)
(286.951 0 0)
(286.947 0 0)
(286.935 0 0)
(286.891 0 0)
(286.856 0 0)
(286.849 0 0)
)
;

boundaryField
{
    sides
    {
        type            zeroGradient;
    }
    empty
    {
        type            empty;
    }
}


// ************************************************************************* //
