/*--------------------------------*- C++ -*----------------------------------*\
  =========                 |
  \\      /  F ield         | OpenFOAM: The Open Source CFD Toolbox
   \\    /   O peration     | Website:  https://openfoam.org
    \\  /    A nd           | Version:  9
     \\/     M anipulation  |
\*---------------------------------------------------------------------------*/
FoamFile
{
    format      ascii;
    class       volScalarField;
    location    "0.045";
    object      T;
}
// * * * * * * * * * * * * * * * * * * * * * * * * * * * * * * * * * * * * * //

dimensions      [0 0 0 1 0 0 0];

internalField   nonuniform List<scalar> 
100
(
193.513
193.429
193.317
193.238
193.212
193.157
193.128
193.112
193.075
193.071
193.076
193.096
193.119
193.145
193.183
193.216
193.228
193.227
193.22
193.217
193.211
193.185
193.131
193.117
193.118
193.128
193.132
193.127
193.109
193.108
193.118
193.153
193.223
193.335
193.528
193.912
194.36
194.739
195.067
195.43
195.672
195.956
196.358
196.616
196.943
197.429
197.596
197.782
198.165
198.467
198.654
198.94
199.476
199.83
200.027
200.381
200.922
201.281
201.41
201.584
202.026
202.532
202.753
203.049
203.761
205.413
208.912
216.058
230.21
248.414
244.321
232.661
226.42
226.503
226.561
226.46
226.492
226.687
226.881
226.879
226.788
226.713
226.712
226.766
226.829
226.828
226.788
226.678
226.636
226.63
226.645
226.726
226.764
226.755
226.709
226.671
226.643
226.651
226.589
226.691
)
;

boundaryField
{
    sides
    {
        type            zeroGradient;
    }
    empty
    {
        type            empty;
    }
}


// ************************************************************************* //
