/*--------------------------------*- C++ -*----------------------------------*\
  =========                 |
  \\      /  F ield         | OpenFOAM: The Open Source CFD Toolbox
   \\    /   O peration     | Website:  https://openfoam.org
    \\  /    A nd           | Version:  9
     \\/     M anipulation  |
\*---------------------------------------------------------------------------*/
FoamFile
{
    format      ascii;
    class       volScalarField;
    location    "0.048";
    object      mag(U);
}
// * * * * * * * * * * * * * * * * * * * * * * * * * * * * * * * * * * * * * //

dimensions      [0 1 -1 0 0 0 0];

internalField   nonuniform List<scalar> 
1000
(
233.681
233.954
234.114
234.288
234.459
234.631
234.802
234.973
235.145
235.316
235.487
235.659
235.83
236.002
236.173
236.344
236.516
236.687
236.859
237.03
237.201
237.373
237.544
237.715
237.887
238.058
238.229
238.401
238.572
238.743
238.914
239.086
239.257
239.428
239.6
239.771
239.943
240.114
240.285
240.457
240.628
240.799
240.97
241.142
241.313
241.484
241.656
241.827
241.998
242.169
242.341
242.512
242.683
242.855
243.026
243.197
243.369
243.54
243.711
243.882
244.054
244.225
244.397
244.568
244.739
244.91
245.081
245.253
245.424
245.595
245.767
245.938
246.109
246.281
246.452
246.623
246.794
246.966
247.137
247.308
247.48
247.651
247.822
247.993
248.164
248.337
248.509
248.679
248.848
249.018
249.19
249.367
249.542
249.711
249.875
250.04
250.211
250.393
250.576
250.745
250.908
251.069
251.234
251.408
251.594
251.773
251.939
252.103
252.268
252.438
252.615
252.793
252.964
253.132
253.3
253.47
253.643
253.817
253.988
254.158
254.329
254.5
254.671
254.843
255.014
255.185
255.356
255.527
255.699
255.87
256.041
256.212
256.383
256.554
256.726
256.897
257.068
257.239
257.41
257.582
257.753
257.924
258.095
258.267
258.438
258.61
258.781
258.952
259.124
259.295
259.466
259.638
259.809
259.98
260.151
260.322
260.493
260.665
260.836
261.007
261.178
261.349
261.52
261.691
261.862
262.033
262.204
262.375
262.546
262.717
262.888
263.059
263.23
263.401
263.572
263.743
263.915
264.086
264.257
264.428
264.599
264.77
264.941
265.113
265.284
265.455
265.626
265.797
265.968
266.139
266.31
266.481
266.653
266.824
266.995
267.166
267.337
267.508
267.679
267.85
268.021
268.192
268.363
268.534
268.705
268.876
269.047
269.218
269.39
269.561
269.732
269.903
270.074
270.245
270.416
270.587
270.758
270.929
271.1
271.271
271.442
271.613
271.784
271.955
272.126
272.297
272.469
272.64
272.811
272.982
273.153
273.324
273.495
273.666
273.837
274.008
274.179
274.35
274.521
274.692
274.863
275.034
275.205
275.377
275.548
275.719
275.89
276.061
276.232
276.403
276.574
276.745
276.916
277.087
277.258
277.429
277.6
277.771
277.942
278.113
278.284
278.455
278.626
278.797
278.967
279.138
279.309
279.481
279.653
279.823
279.992
280.162
280.335
280.508
280.679
280.848
281.016
281.186
281.359
281.535
281.706
281.874
282.041
282.21
282.384
282.561
282.731
282.898
283.065
283.235
283.411
283.586
283.755
283.921
284.089
284.261
284.44
284.611
284.778
284.944
285.112
285.288
285.467
285.636
285.802
285.968
286.136
286.313
286.493
286.661
286.827
286.993
287.161
287.337
287.517
287.686
287.852
288.018
288.185
288.359
288.541
288.711
288.878
289.044
289.211
289.382
289.563
289.736
289.903
290.069
290.236
290.406
290.584
290.76
290.927
291.094
291.261
291.43
291.607
291.783
291.951
292.118
292.286
292.455
292.632
292.806
292.975
293.142
293.31
293.479
293.657
293.83
293.998
294.165
294.332
294.499
294.669
294.847
295.02
295.188
295.356
295.524
295.694
295.873
296.051
296.22
296.388
296.555
296.721
296.889
297.057
297.231
297.404
297.572
297.739
297.906
298.074
298.243
298.417
298.585
298.751
298.916
299.082
299.248
299.417
299.585
299.748
299.911
300.073
300.234
300.396
300.558
300.716
300.873
301.026
301.179
301.331
301.482
301.629
301.774
301.914
302.051
302.185
302.314
302.438
302.554
302.661
302.758
302.845
302.922
302.989
303.045
303.089
303.121
303.14
303.15
303.155
303.154
303.15
303.142
303.128
303.106
303.078
303.044
303.01
302.977
302.943
302.908
302.879
302.854
302.828
302.8
302.761
302.719
302.683
302.649
302.618
302.592
302.572
302.558
302.547
302.537
302.522
302.514
302.53
302.569
302.617
302.659
302.688
302.705
302.724
302.741
302.754
302.764
302.769
302.764
302.756
302.754
302.752
302.748
302.742
302.731
302.712
302.697
302.685
302.672
302.657
302.639
302.612
302.58
302.556
302.535
302.515
302.497
302.479
302.455
302.441
302.435
302.432
302.434
302.445
302.46
302.48
302.503
302.524
302.541
302.554
302.56
302.56
302.565
302.57
302.574
302.575
302.571
302.559
302.552
302.549
302.545
302.539
302.531
302.517
302.497
302.484
302.472
302.46
302.446
302.429
302.404
302.38
302.364
302.351
302.339
302.328
302.316
302.298
302.291
302.293
302.306
302.327
302.348
302.358
302.368
302.38
302.392
302.401
302.408
302.412
302.408
302.404
302.404
302.404
302.401
302.39
302.378
302.372
302.368
302.363
302.357
302.349
302.337
302.316
302.301
302.29
302.278
302.265
302.252
302.237
302.215
302.19
302.177
302.167
302.16
302.152
302.138
302.137
302.151
302.173
302.194
302.211
302.225
302.235
302.24
302.232
302.225
302.228
302.232
302.235
302.237
302.237
302.234
302.222
302.211
302.206
302.202
302.197
302.191
302.183
302.172
302.152
302.127
302.111
302.099
302.088
302.076
302.064
302.049
302.028
302.016
302.01
302.006
302.005
302.006
302.014
302.028
302.037
302.028
302.031
302.04
302.048
302.054
302.06
302.064
302.068
302.071
302.072
302.066
302.042
302.027
302.024
302.022
302.019
302.016
302.012
302.007
302.001
301.995
301.985
301.966
301.93
301.911
301.901
301.892
301.884
301.877
301.871
301.867
301.864
301.862
301.863
301.867
301.868
301.849
301.848
301.858
301.867
301.874
301.88
301.886
301.892
301.9
301.903
301.905
301.907
301.908
301.908
301.906
301.901
301.88
301.833
301.816
301.81
301.806
301.801
301.795
301.789
301.783
301.775
301.768
301.759
301.748
301.72
301.664
301.643
301.638
301.636
301.637
301.642
301.651
301.663
301.677
301.7
301.719
301.727
301.733
301.738
301.741
301.743
301.74
301.722
301.693
301.684
301.679
301.673
301.656
301.638
301.632
301.628
301.624
301.62
301.616
301.611
301.605
301.594
301.57
301.552
301.543
301.536
301.53
301.524
301.517
301.501
301.486
301.483
301.487
301.495
301.504
301.512
301.519
301.524
301.526
301.52
301.489
301.477
301.477
301.479
301.48
301.481
301.481
301.481
301.481
301.48
301.479
301.476
301.472
301.46
301.428
301.411
301.406
301.401
301.396
301.391
301.386
301.38
301.375
301.37
301.365
301.356
301.329
301.307
301.304
301.306
301.312
301.319
301.326
301.333
301.338
301.342
301.345
301.348
301.349
301.35
301.347
301.322
301.285
301.277
301.274
301.271
301.269
301.266
301.263
301.261
301.263
301.265
301.263
301.259
301.255
301.251
301.246
301.24
301.229
301.201
301.157
301.142
301.14
301.141
301.143
301.147
301.153
301.159
301.165
301.171
301.176
301.172
301.14
301.117
301.114
301.115
301.115
301.117
301.124
301.133
301.133
301.132
301.13
301.125
301.114
301.079
301.045
301.035
301.032
301.031
301.029
301.028
301.028
301.036
301.038
301.036
301.033
301.029
301.025
301.019
300.999
300.945
300.923
300.922
300.925
300.929
300.933
300.938
300.946
300.962
300.971
300.974
300.976
300.976
300.976
300.973
300.955
300.907
300.89
300.887
300.886
300.885
300.884
300.886
300.886
300.885
300.883
300.881
300.878
300.873
300.861
300.826
300.795
300.787
300.784
300.78
300.768
300.725
300.539
299.698
297.138
294.801
293.873
293.528
293.41
293.373
293.375
293.386
293.386
293.377
293.349
293.323
293.313
293.307
293.31
293.312
293.313
293.312
293.316
293.319
293.321
293.324
293.318
293.285
293.247
293.237
293.236
293.24
293.252
293.264
293.27
293.274
293.279
293.281
293.281
293.282
293.276
293.247
293.236
293.238
293.237
293.232
293.2
293.087
292.694
291.426
289.52
288.28
287.671
287.402
287.294
287.246
287.225
287.217
287.222
287.227
287.236
287.251
287.251
287.246
287.224
287.162
287.139
287.137
287.136
287.138
287.146
287.16
287.172
287.175
287.176
287.173
287.156
287.1
287.071
287.065
287.065
287.066
287.068
287.08
287.097
287.1
287.101
287.1
287.092
287.058
287.012
287.002
287.001
287
287.001
287.007
287.018
287.02
287.019
287.017
287.012
286.996
286.949
286.927
286.923
286.921
286.924
286.932
286.931
286.928
286.92
286.896
286.87
286.864
286.86
286.858
286.855
286.853
286.85
286.842
286.824
286.809
286.802
286.795
286.785
286.756
286.714
286.703
286.698
286.695
286.693
286.692
286.694
286.7
286.706
286.708
286.706
286.703
286.7
286.696
286.687
286.655
286.589
286.568
286.563
286.561
286.559
286.565
286.579
286.58
286.579
286.577
286.57
)
;

boundaryField
{
    sides
    {
        type            calculated;
        value           nonuniform List<scalar> 2(286.57 233.681);
    }
    empty
    {
        type            empty;
    }
}


// ************************************************************************* //
