/*--------------------------------*- C++ -*----------------------------------*\
  =========                 |
  \\      /  F ield         | OpenFOAM: The Open Source CFD Toolbox
   \\    /   O peration     | Website:  https://openfoam.org
    \\  /    A nd           | Version:  9
     \\/     M anipulation  |
\*---------------------------------------------------------------------------*/
FoamFile
{
    format      ascii;
    class       volScalarField;
    location    "0.039";
    object      p;
}
// * * * * * * * * * * * * * * * * * * * * * * * * * * * * * * * * * * * * * //

dimensions      [1 -1 -2 0 0 0 0];

internalField   nonuniform List<scalar> 
1000
(
12757.7
12756
12753.4
12751.1
12749.1
12747.2
12745.2
12743.1
12741.1
12739.1
12737.1
12735.1
12733.1
12731.1
12729.1
12727.1
12725.1
12723.1
12721.1
12719.2
12717.2
12715.2
12713.2
12711.2
12709.3
12707.3
12705.3
12703.4
12701.4
12699.4
12697.5
12695.5
12693.6
12691.6
12689.7
12687.7
12685.8
12683.9
12681.9
12680
12678.1
12676.1
12674.2
12672.3
12670.3
12668.4
12666.5
12664.6
12662.7
12660.8
12658.9
12657
12655.1
12653.2
12651.3
12649.4
12647.5
12645.6
12643.7
12641.8
12639.9
12638.1
12636.2
12634.3
12632.4
12630.6
12628.7
12626.9
12625
12623.1
12621.3
12619.4
12617.6
12615.7
12613.9
12612.1
12610.2
12608.4
12606.6
12604.7
12602.9
12601.1
12599.3
12597.5
12595.7
12593.9
12592.1
12590.3
12588.5
12586.7
12584.9
12583.1
12581.3
12579.5
12577.8
12576
12574.2
12572.5
12570.7
12568.9
12567.2
12565.5
12563.7
12562
12560.2
12558.5
12556.8
12555.1
12553.3
12551.6
12549.9
12548.2
12546.5
12544.8
12543.1
12541.4
12539.8
12538.1
12536.4
12534.8
12533.1
12531.4
12529.8
12528.1
12526.5
12524.9
12523.2
12521.6
12520
12518.4
12516.8
12515.2
12513.6
12512
12510.4
12508.9
12507.3
12505.7
12504.2
12502.6
12501.1
12499.6
12498
12496.5
12495
12493.5
12492
12490.5
12489
12487.5
12486.1
12484.6
12483.2
12481.7
12480.3
12478.9
12477.5
12476.1
12474.7
12473.3
12471.9
12470.5
12469.2
12467.8
12466.5
12465.2
12463.9
12462.5
12461.3
12460
12458.7
12457.4
12456.2
12454.9
12453.7
12452.5
12451.3
12450.1
12449
12447.8
12446.6
12445.5
12444.4
12443.3
12442.2
12441.1
12440.1
12439
12438
12437
12436
12435
12434
12433.1
12432.2
12431.3
12430.4
12429.5
12428.7
12427.8
12427
12426.2
12425.5
12424.7
12424
12423.3
12422.6
12421.9
12421.3
12420.7
12420.1
12419.5
12419
12418.5
12418
12417.5
12417.1
12416.7
12416.3
12416
12415.7
12415.4
12415.1
12414.9
12414.7
12414.5
12414.4
12414.3
12414.2
12414.2
12414.2
12414.2
12414.3
12414.4
12414.5
12414.7
12415
12415.3
12415.6
12416
12416.4
12416.9
12417.4
12418
12418.6
12419.3
12420
12420.8
12421.6
12422.5
12423.4
12424.4
12425.4
12426.5
12427.7
12428.9
12430.1
12431.5
12432.9
12434.4
12435.9
12437.5
12439.2
12440.9
12442.7
12444.6
12446.5
12448.6
12450.7
12452.9
12455.1
12457.5
12459.9
12462.4
12465
12467.6
12470.4
12473.2
12476.2
12479.2
12482.3
12485.5
12488.8
12492.2
12495.7
12499.3
12502.9
12506.7
12510.6
12514.6
12518.6
12522.8
12527.1
12531.5
12535.9
12540.5
12545.2
12550
12554.9
12559.9
12565
12570.2
12575.5
12580.9
12586.4
12592.1
12597.8
12603.6
12609.6
12615.6
12621.7
12628
12634.3
12640.8
12647.3
12653.9
12660.7
12667.5
12674.4
12681.4
12688.5
12695.7
12703
12710.3
12717.8
12725.3
12732.9
12740.6
12748.3
12756.1
12764
12772
12780
12788.1
12796.3
12804.5
12812.8
12821.2
12829.6
12838
12846.6
12855.1
12863.7
12872.4
12881.1
12889.8
12898.6
12907.4
12916.3
12925.2
12934.1
12943.1
12952.1
12961.1
12970.2
12979.3
12988.4
12997.5
13006.7
13015.8
13025
13034.3
13043.5
13052.8
13062.1
13071.4
13080.7
13090
13099.4
13108.8
13118.2
13127.6
13137
13146.4
13155.8
13165.3
13174.8
13184.2
13193.7
13203.2
13212.7
13222.3
13231.8
13241.3
13250.9
13260.5
13270
13279.6
13289.2
13298.8
13308.4
13318.1
13327.7
13337.3
13347
13356.7
13366.3
13376
13385.7
13395.4
13405.1
13414.8
13424.6
13434.3
13444.1
13453.8
13463.6
13473.3
13483.1
13492.9
13502.7
13512.5
13522.3
13532.2
13542
13551.9
13561.7
13571.6
13581.4
13591.3
13601.2
13611.1
13621
13630.9
13640.9
13650.8
13660.7
13670.7
13680.7
13690.6
13700.6
13710.6
13720.6
13730.6
13740.6
13750.6
13760.7
13770.7
13780.8
13790.8
13800.9
13811
13821.1
13831.2
13841.3
13851.4
13861.5
13871.6
13881.8
13891.9
13902.1
13912.3
13922.4
13932.6
13942.8
13953
13963.2
13973.5
13983.7
13993.9
14004.2
14014.4
14024.7
14035
14045.3
14055.6
14065.9
14076.2
14086.5
14096.8
14107.2
14117.5
14127.9
14138.2
14148.6
14159
14169.4
14179.8
14190.2
14200.6
14211.1
14221.5
14232
14242.4
14252.9
14263.4
14273.9
14284.4
14294.9
14305.4
14315.9
14326.4
14337
14347.5
14358.1
14368.7
14379.3
14389.9
14400.5
14411.1
14421.7
14432.3
14442.9
14453.6
14464.3
14474.9
14485.6
14496.3
14507
14517.7
14528.4
14539.1
14549.8
14560.6
14571.3
14582.1
14592.9
14603.7
14614.4
14625.2
14636
14646.9
14657.7
14668.5
14679.4
14690.2
14701.1
14712
14722.9
14733.8
14744.7
14755.6
14766.5
14777.4
14788.4
14799.3
14810.3
14821.3
14832.3
14843.2
14854.2
14865.3
14876.3
14887.3
14898.4
14909.4
14920.5
14931.5
14942.6
14953.7
14964.8
14975.9
14987
14998.2
15009.3
15020.4
15031.6
15042.8
15054
15065.1
15076.3
15087.5
15098.8
15110
15121.2
15132.5
15143.7
15155
15166.3
15177.6
15188.9
15200.2
15211.5
15222.8
15234.1
15245.5
15256.9
15268.2
15279.6
15291
15302.4
15313.8
15325.2
15336.6
15348.1
15359.5
15371
15382.4
15393.9
15405.4
15416.9
15428.4
15439.9
15451.4
15463
15474.5
15486.1
15497.7
15509.2
15520.8
15532.4
15544
15555.7
15567.3
15578.9
15590.6
15602.2
15613.9
15625.6
15637.3
15649
15660.7
15672.4
15684.1
15695.9
15707.6
15719.4
15731.2
15743
15754.7
15766.6
15778.4
15790.2
15802
15813.9
15825.7
15837.6
15849.5
15861.4
15873.3
15885.2
15897.1
15909
15920.9
15932.9
15944.9
15956.8
15968.8
15980.8
15992.8
16004.8
16016.8
16028.9
16040.9
16053
16065
16077.1
16089.2
16101.3
16113.4
16125.5
16137.6
16149.8
16161.9
16174.1
16186.3
16198.4
16210.6
16222.8
16235.1
16247.3
16259.5
16271.8
16284
16296.3
16308.6
16320.8
16333.1
16345.5
16357.8
16370.1
16382.5
16394.8
16407.2
16419.5
16431.9
16444.3
16456.7
16469.1
16481.6
16494
16506.5
16518.9
16531.4
16543.9
16556.4
16568.9
16581.4
16593.9
16606.5
16619
16631.6
16644.1
16656.7
16669.3
16681.9
16694.5
16707.2
16719.8
16732.4
16745.1
16757.8
16770.4
16783.1
16795.8
16808.6
16821.3
16834
16846.8
16859.5
16872.3
16885.1
16897.9
16910.7
16923.5
16936.3
16949.2
16962
16974.9
16987.8
17000.6
17013.5
17026.4
17039.4
17052.3
17065.2
17078.2
17091.2
17104.1
17117.1
17130.1
17143.1
17156.2
17169.2
17182.2
17195.3
17208.4
17221.5
17234.5
17247.6
17260.8
17273.9
17287
17300.2
17313.3
17326.5
17339.6
17352.8
17366
17379.3
17392.5
17405.7
17419
17432.2
17445.5
17458.8
17472.1
17485.4
17498.7
17512
17525.4
17538.8
17552.1
17565.5
17578.9
17592.4
17605.8
17619.3
17632.8
17646.2
17659.8
17673.3
17686.9
17700.4
17714
17727.7
17741.3
17755
17768.7
17782.4
17796.2
17809.9
17823.8
17837.6
17851.5
17865.4
17879.4
17893.4
17907.4
17921.5
17935.7
17949.8
17964.1
17978.3
17992.7
18007.1
18021.5
18036
18050.6
18065.2
18079.9
18094.7
18109.5
18124.4
18139.4
18154.4
18169.6
18184.8
18200.1
18215.5
18230.9
18246.5
18262.1
18277.8
18293.6
18309.5
18325.4
18341.5
18357.6
18373.9
18390.2
18406.5
18423
18439.5
18456.1
18472.8
18489.5
18506.4
18523.2
18540.1
18557.1
18574.1
18591.2
18608.3
18625.5
18642.6
18659.8
18677
18694.3
18711.5
18728.7
18746
18763.2
18780.4
18797.6
18814.8
18832
18849.1
18866.2
18883.3
18900.4
18917.4
18934.3
18951.2
18968.1
18984.9
19001.6
19018.3
19035
19051.6
19068.1
19084.6
19101.1
19117.5
19133.8
19150.1
19166.3
19182.5
19198.6
19214.7
19230.8
19246.8
19262.7
19278.7
19294.5
19310.4
19326.2
19342
19357.7
19373.5
19389.1
19404.8
19420.5
19436.1
19451.7
19467.3
19482.9
19498.5
19514
19529.6
19545.1
19560.6
19576.1
19591.6
19607.1
19622.6
19638.1
19653.6
19669.1
19684.6
19700.1
19715.5
19731
19746.5
19762
19777.4
19792.9
19808.4
19823.9
19839.4
19854.9
19870.4
19885.9
19901.4
19917
19932.5
19948.1
19963.7
19979.3
19995
20010.6
20026.4
20042.1
20057.9
20073.8
20089.8
20105.8
20121.9
20138.1
20154.5
20170.9
20187.6
20204.3
20221.3
20238.4
20255.8
20273.4
20291.2
20309.3
20327.7
20346.4
20365.4
20384.8
20404.5
20424.5
20444.9
20465.7
20486.8
20508.3
20530.1
20552.3
20574.8
20597.6
20620.7
20644.1
20667.7
20691.6
20715.6
20739.7
20764
20788.4
20812.8
20837.2
20861.7
20886.1
20910.4
20934.7
20958.9
20982.9
21006.8
21030.6
21054.2
21077.7
21101
21124.1
21147
21169.8
21192.5
21214.9
21237.2
21259.4
21281.3
21303.2
21324.9
21346.4
21367.8
21389.1
21410.3
21431.3
21452.2
21473
21493.7
21514.3
21534.8
21555.2
21575.5
21595.6
21615.6
21635.6
21654.9
)
;

boundaryField
{
    sides
    {
        type            zeroGradient;
    }
    empty
    {
        type            empty;
    }
}


// ************************************************************************* //
