/*--------------------------------*- C++ -*----------------------------------*\
  =========                 |
  \\      /  F ield         | OpenFOAM: The Open Source CFD Toolbox
   \\    /   O peration     | Website:  https://openfoam.org
    \\  /    A nd           | Version:  9
     \\/     M anipulation  |
\*---------------------------------------------------------------------------*/
FoamFile
{
    format      ascii;
    class       volScalarField;
    location    "0.02";
    object      ddt0(rho);
}
// * * * * * * * * * * * * * * * * * * * * * * * * * * * * * * * * * * * * * //

dimensions      [1 -3 -1 0 0 0 0];

internalField   nonuniform List<scalar> 
10000
(
-38.7026
-38.7001
-38.6973
-38.6989
-38.699
-38.693
-38.6843
-38.6787
-38.6798
-38.6869
-38.6971
-38.7075
-38.7161
-38.7222
-38.7258
-38.7272
-38.7276
-38.7288
-38.7317
-38.7315
-38.7311
-38.7309
-38.7307
-38.7306
-38.7305
-38.7304
-38.7303
-38.7302
-38.7301
-38.73
-38.7299
-38.7298
-38.7297
-38.7296
-38.7295
-38.7294
-38.7293
-38.7292
-38.7291
-38.729
-38.7289
-38.7288
-38.7287
-38.7286
-38.7285
-38.7283
-38.7282
-38.7281
-38.728
-38.7279
-38.7278
-38.7277
-38.7276
-38.7275
-38.7274
-38.7272
-38.7271
-38.727
-38.7269
-38.7268
-38.7267
-38.7266
-38.7264
-38.7263
-38.7262
-38.7261
-38.726
-38.7258
-38.7257
-38.7256
-38.7255
-38.7253
-38.7252
-38.7251
-38.725
-38.7248
-38.7247
-38.7246
-38.7244
-38.7243
-38.7242
-38.7241
-38.7239
-38.7238
-38.7237
-38.7235
-38.7234
-38.7233
-38.7231
-38.723
-38.7228
-38.7227
-38.7226
-38.7224
-38.7223
-38.7221
-38.722
-38.7219
-38.7217
-38.7216
-38.7214
-38.7213
-38.7211
-38.721
-38.7208
-38.7207
-38.7205
-38.7204
-38.7202
-38.7201
-38.7199
-38.7198
-38.7196
-38.7195
-38.7193
-38.7192
-38.719
-38.7189
-38.7187
-38.7185
-38.7184
-38.7182
-38.7181
-38.7179
-38.7177
-38.7176
-38.7174
-38.7173
-38.7171
-38.7169
-38.7168
-38.7166
-38.7164
-38.7163
-38.7161
-38.7159
-38.7157
-38.7156
-38.7154
-38.7152
-38.7151
-38.7149
-38.7147
-38.7145
-38.7144
-38.7142
-38.714
-38.7138
-38.7137
-38.7135
-38.7133
-38.7131
-38.7129
-38.7128
-38.7126
-38.7124
-38.7122
-38.712
-38.7118
-38.7116
-38.7115
-38.7113
-38.7111
-38.7109
-38.7107
-38.7105
-38.7103
-38.7101
-38.7099
-38.7097
-38.7096
-38.7094
-38.7092
-38.709
-38.7088
-38.7086
-38.7084
-38.7082
-38.708
-38.7078
-38.7076
-38.7074
-38.7072
-38.707
-38.7068
-38.7066
-38.7064
-38.7062
-38.7059
-38.7057
-38.7055
-38.7053
-38.7051
-38.7049
-38.7047
-38.7045
-38.7043
-38.7041
-38.7038
-38.7036
-38.7034
-38.7032
-38.703
-38.7028
-38.7026
-38.7023
-38.7021
-38.7019
-38.7017
-38.7015
-38.7012
-38.701
-38.7008
-38.7006
-38.7003
-38.7001
-38.6999
-38.6997
-38.6994
-38.6992
-38.699
-38.6987
-38.6985
-38.6983
-38.6981
-38.6978
-38.6976
-38.6974
-38.6971
-38.6969
-38.6967
-38.6964
-38.6962
-38.6959
-38.6957
-38.6955
-38.6952
-38.695
-38.6947
-38.6945
-38.6943
-38.694
-38.6938
-38.6935
-38.6933
-38.693
-38.6928
-38.6925
-38.6923
-38.692
-38.6918
-38.6915
-38.6913
-38.691
-38.6908
-38.6905
-38.6903
-38.69
-38.6898
-38.6895
-38.6893
-38.689
-38.6887
-38.6885
-38.6882
-38.688
-38.6877
-38.6874
-38.6872
-38.6869
-38.6866
-38.6864
-38.6861
-38.6858
-38.6856
-38.6853
-38.685
-38.6848
-38.6845
-38.6842
-38.684
-38.6837
-38.6834
-38.6831
-38.6829
-38.6826
-38.6823
-38.682
-38.6818
-38.6815
-38.6812
-38.6809
-38.6807
-38.6804
-38.6801
-38.6798
-38.6795
-38.6793
-38.679
-38.6787
-38.6784
-38.6781
-38.6778
-38.6775
-38.6773
-38.677
-38.6767
-38.6764
-38.6761
-38.6758
-38.6755
-38.6752
-38.6749
-38.6746
-38.6743
-38.674
-38.6737
-38.6734
-38.6731
-38.6728
-38.6725
-38.6722
-38.6719
-38.6716
-38.6713
-38.671
-38.6707
-38.6704
-38.6701
-38.6698
-38.6695
-38.6692
-38.6689
-38.6686
-38.6683
-38.668
-38.6677
-38.6674
-38.667
-38.6667
-38.6664
-38.6661
-38.6658
-38.6655
-38.6652
-38.6648
-38.6645
-38.6642
-38.6639
-38.6636
-38.6632
-38.6629
-38.6626
-38.6623
-38.662
-38.6616
-38.6613
-38.661
-38.6607
-38.6603
-38.66
-38.6597
-38.6594
-38.659
-38.6587
-38.6584
-38.658
-38.6577
-38.6574
-38.657
-38.6567
-38.6564
-38.656
-38.6557
-38.6554
-38.655
-38.6547
-38.6543
-38.654
-38.6537
-38.6533
-38.653
-38.6526
-38.6523
-38.6519
-38.6516
-38.6513
-38.6509
-38.6506
-38.6502
-38.6499
-38.6495
-38.6492
-38.6488
-38.6485
-38.6481
-38.6478
-38.6474
-38.6471
-38.6467
-38.6463
-38.646
-38.6456
-38.6453
-38.6449
-38.6446
-38.6442
-38.6438
-38.6435
-38.6431
-38.6427
-38.6424
-38.642
-38.6417
-38.6413
-38.6409
-38.6406
-38.6402
-38.6398
-38.6395
-38.6391
-38.6387
-38.6383
-38.638
-38.6376
-38.6372
-38.6369
-38.6365
-38.6361
-38.6357
-38.6354
-38.635
-38.6346
-38.6342
-38.6338
-38.6335
-38.6331
-38.6327
-38.6323
-38.6319
-38.6316
-38.6312
-38.6308
-38.6304
-38.63
-38.6296
-38.6292
-38.6289
-38.6285
-38.6281
-38.6277
-38.6273
-38.6269
-38.6265
-38.6261
-38.6257
-38.6253
-38.6249
-38.6245
-38.6241
-38.6237
-38.6233
-38.6229
-38.6225
-38.6221
-38.6217
-38.6213
-38.6209
-38.6205
-38.6201
-38.6197
-38.6193
-38.6189
-38.6185
-38.6181
-38.6177
-38.6173
-38.6169
-38.6165
-38.6161
-38.6156
-38.6152
-38.6148
-38.6144
-38.614
-38.6136
-38.6132
-38.6127
-38.6123
-38.6119
-38.6115
-38.6111
-38.6107
-38.6102
-38.6098
-38.6094
-38.609
-38.6085
-38.6081
-38.6077
-38.6073
-38.6068
-38.6064
-38.606
-38.6056
-38.6051
-38.6047
-38.6043
-38.6038
-38.6034
-38.603
-38.6025
-38.6021
-38.6017
-38.6012
-38.6008
-38.6004
-38.5999
-38.5995
-38.5991
-38.5986
-38.5982
-38.5977
-38.5973
-38.5969
-38.5964
-38.596
-38.5955
-38.5951
-38.5946
-38.5942
-38.5937
-38.5933
-38.5928
-38.5924
-38.5919
-38.5915
-38.591
-38.5906
-38.5901
-38.5897
-38.5892
-38.5888
-38.5883
-38.5879
-38.5874
-38.5869
-38.5865
-38.586
-38.5856
-38.5851
-38.5846
-38.5842
-38.5837
-38.5833
-38.5828
-38.5823
-38.5819
-38.5814
-38.5809
-38.5805
-38.58
-38.5795
-38.5791
-38.5786
-38.5781
-38.5776
-38.5772
-38.5767
-38.5762
-38.5758
-38.5753
-38.5748
-38.5743
-38.5738
-38.5734
-38.5729
-38.5724
-38.5719
-38.5715
-38.571
-38.5705
-38.57
-38.5695
-38.569
-38.5686
-38.5681
-38.5676
-38.5671
-38.5666
-38.5661
-38.5656
-38.5651
-38.5646
-38.5642
-38.5637
-38.5632
-38.5627
-38.5622
-38.5617
-38.5612
-38.5607
-38.5602
-38.5597
-38.5592
-38.5587
-38.5582
-38.5577
-38.5572
-38.5567
-38.5562
-38.5557
-38.5552
-38.5547
-38.5542
-38.5537
-38.5532
-38.5526
-38.5521
-38.5516
-38.5511
-38.5506
-38.5501
-38.5496
-38.5491
-38.5486
-38.548
-38.5475
-38.547
-38.5465
-38.546
-38.5455
-38.5449
-38.5444
-38.5439
-38.5434
-38.5429
-38.5423
-38.5418
-38.5413
-38.5408
-38.5402
-38.5397
-38.5392
-38.5387
-38.5381
-38.5376
-38.5371
-38.5365
-38.536
-38.5355
-38.5349
-38.5344
-38.5339
-38.5333
-38.5328
-38.5323
-38.5317
-38.5312
-38.5307
-38.5301
-38.5296
-38.529
-38.5285
-38.528
-38.5274
-38.5269
-38.5263
-38.5258
-38.5252
-38.5247
-38.5241
-38.5236
-38.523
-38.5225
-38.5219
-38.5214
-38.5208
-38.5203
-38.5197
-38.5192
-38.5186
-38.5181
-38.5175
-38.5169
-38.5164
-38.5158
-38.5153
-38.5147
-38.5141
-38.5136
-38.513
-38.5125
-38.5119
-38.5113
-38.5108
-38.5102
-38.5096
-38.5091
-38.5085
-38.5079
-38.5074
-38.5068
-38.5062
-38.5056
-38.5051
-38.5045
-38.5039
-38.5033
-38.5028
-38.5022
-38.5016
-38.501
-38.5005
-38.4999
-38.4993
-38.4987
-38.4981
-38.4976
-38.497
-38.4964
-38.4958
-38.4952
-38.4946
-38.494
-38.4935
-38.4929
-38.4923
-38.4917
-38.4911
-38.4905
-38.4899
-38.4893
-38.4887
-38.4881
-38.4875
-38.4869
-38.4863
-38.4857
-38.4851
-38.4845
-38.4839
-38.4833
-38.4827
-38.4821
-38.4815
-38.4809
-38.4803
-38.4797
-38.4791
-38.4785
-38.4779
-38.4773
-38.4767
-38.4761
-38.4755
-38.4749
-38.4742
-38.4736
-38.473
-38.4724
-38.4718
-38.4712
-38.4706
-38.4699
-38.4693
-38.4687
-38.4681
-38.4675
-38.4668
-38.4662
-38.4656
-38.465
-38.4643
-38.4637
-38.4631
-38.4625
-38.4618
-38.4612
-38.4606
-38.46
-38.4593
-38.4587
-38.4581
-38.4574
-38.4568
-38.4562
-38.4555
-38.4549
-38.4543
-38.4536
-38.453
-38.4524
-38.4517
-38.4511
-38.4504
-38.4498
-38.4491
-38.4485
-38.4479
-38.4472
-38.4466
-38.4459
-38.4453
-38.4446
-38.444
-38.4433
-38.4427
-38.442
-38.4414
-38.4407
-38.4401
-38.4394
-38.4388
-38.4381
-38.4375
-38.4368
-38.4361
-38.4355
-38.4348
-38.4342
-38.4335
-38.4329
-38.4322
-38.4315
-38.4309
-38.4302
-38.4295
-38.4289
-38.4282
-38.4275
-38.4269
-38.4262
-38.4255
-38.4249
-38.4242
-38.4235
-38.4228
-38.4222
-38.4215
-38.4208
-38.4202
-38.4195
-38.4188
-38.4181
-38.4174
-38.4168
-38.4161
-38.4154
-38.4147
-38.414
-38.4134
-38.4127
-38.412
-38.4113
-38.4106
-38.4099
-38.4093
-38.4086
-38.4079
-38.4072
-38.4065
-38.4058
-38.4051
-38.4044
-38.4037
-38.403
-38.4023
-38.4016
-38.4009
-38.4002
-38.3996
-38.3989
-38.3982
-38.3975
-38.3968
-38.3961
-38.3953
-38.3946
-38.3939
-38.3932
-38.3925
-38.3918
-38.3911
-38.3904
-38.3897
-38.389
-38.3883
-38.3876
-38.3869
-38.3861
-38.3854
-38.3847
-38.384
-38.3833
-38.3826
-38.3819
-38.3811
-38.3804
-38.3797
-38.379
-38.3783
-38.3775
-38.3768
-38.3761
-38.3754
-38.3747
-38.3739
-38.3732
-38.3725
-38.3717
-38.371
-38.3703
-38.3696
-38.3688
-38.3681
-38.3674
-38.3666
-38.3659
-38.3652
-38.3644
-38.3637
-38.363
-38.3622
-38.3615
-38.3607
-38.36
-38.3593
-38.3585
-38.3578
-38.357
-38.3563
-38.3556
-38.3548
-38.3541
-38.3533
-38.3526
-38.3518
-38.3511
-38.3503
-38.3496
-38.3488
-38.3481
-38.3473
-38.3466
-38.3458
-38.3451
-38.3443
-38.3435
-38.3428
-38.342
-38.3413
-38.3405
-38.3398
-38.339
-38.3382
-38.3375
-38.3367
-38.3359
-38.3352
-38.3344
-38.3336
-38.3329
-38.3321
-38.3313
-38.3306
-38.3298
-38.329
-38.3283
-38.3275
-38.3267
-38.3259
-38.3252
-38.3244
-38.3236
-38.3228
-38.3221
-38.3213
-38.3205
-38.3197
-38.3189
-38.3182
-38.3174
-38.3166
-38.3158
-38.315
-38.3143
-38.3135
-38.3127
-38.3119
-38.3111
-38.3103
-38.3095
-38.3087
-38.3079
-38.3072
-38.3064
-38.3056
-38.3048
-38.304
-38.3032
-38.3024
-38.3016
-38.3008
-38.3
-38.2992
-38.2984
-38.2976
-38.2968
-38.296
-38.2952
-38.2944
-38.2936
-38.2928
-38.292
-38.2912
-38.2903
-38.2895
-38.2887
-38.2879
-38.2871
-38.2863
-38.2855
-38.2847
-38.2839
-38.283
-38.2822
-38.2814
-38.2806
-38.2798
-38.279
-38.2781
-38.2773
-38.2765
-38.2757
-38.2749
-38.274
-38.2732
-38.2724
-38.2716
-38.2707
-38.2699
-38.2691
-38.2682
-38.2674
-38.2666
-38.2658
-38.2649
-38.2641
-38.2633
-38.2624
-38.2616
-38.2608
-38.2599
-38.2591
-38.2582
-38.2574
-38.2566
-38.2557
-38.2549
-38.254
-38.2532
-38.2524
-38.2515
-38.2507
-38.2498
-38.249
-38.2481
-38.2473
-38.2464
-38.2456
-38.2447
-38.2439
-38.243
-38.2422
-38.2413
-38.2405
-38.2396
-38.2388
-38.2379
-38.2371
-38.2362
-38.2353
-38.2345
-38.2336
-38.2328
-38.2319
-38.231
-38.2302
-38.2293
-38.2285
-38.2276
-38.2267
-38.2259
-38.225
-38.2241
-38.2233
-38.2224
-38.2215
-38.2206
-38.2198
-38.2189
-38.218
-38.2172
-38.2163
-38.2154
-38.2145
-38.2136
-38.2128
-38.2119
-38.211
-38.2101
-38.2093
-38.2084
-38.2075
-38.2066
-38.2057
-38.2048
-38.204
-38.2031
-38.2022
-38.2013
-38.2004
-38.1995
-38.1986
-38.1977
-38.1968
-38.1959
-38.1951
-38.1942
-38.1933
-38.1924
-38.1915
-38.1906
-38.1897
-38.1888
-38.1879
-38.187
-38.1861
-38.1852
-38.1843
-38.1834
-38.1825
-38.1816
-38.1807
-38.1798
-38.1789
-38.1779
-38.177
-38.1761
-38.1752
-38.1743
-38.1734
-38.1725
-38.1716
-38.1707
-38.1697
-38.1688
-38.1679
-38.167
-38.1661
-38.1652
-38.1642
-38.1633
-38.1624
-38.1615
-38.1606
-38.1596
-38.1587
-38.1578
-38.1569
-38.1559
-38.155
-38.1541
-38.1532
-38.1522
-38.1513
-38.1504
-38.1494
-38.1485
-38.1476
-38.1466
-38.1457
-38.1448
-38.1438
-38.1429
-38.142
-38.141
-38.1401
-38.1392
-38.1382
-38.1373
-38.1363
-38.1354
-38.1344
-38.1335
-38.1326
-38.1316
-38.1307
-38.1297
-38.1288
-38.1278
-38.1269
-38.1259
-38.125
-38.124
-38.1231
-38.1221
-38.1212
-38.1202
-38.1192
-38.1183
-38.1173
-38.1164
-38.1154
-38.1145
-38.1135
-38.1125
-38.1116
-38.1106
-38.1097
-38.1087
-38.1077
-38.1068
-38.1058
-38.1048
-38.1039
-38.1029
-38.1019
-38.101
-38.1
-38.099
-38.098
-38.0971
-38.0961
-38.0951
-38.0941
-38.0932
-38.0922
-38.0912
-38.0902
-38.0893
-38.0883
-38.0873
-38.0863
-38.0853
-38.0843
-38.0834
-38.0824
-38.0814
-38.0804
-38.0794
-38.0784
-38.0774
-38.0765
-38.0755
-38.0745
-38.0735
-38.0725
-38.0715
-38.0705
-38.0695
-38.0685
-38.0675
-38.0665
-38.0655
-38.0645
-38.0635
-38.0625
-38.0615
-38.0605
-38.0595
-38.0585
-38.0575
-38.0565
-38.0555
-38.0545
-38.0535
-38.0525
-38.0515
-38.0505
-38.0495
-38.0484
-38.0474
-38.0464
-38.0454
-38.0444
-38.0434
-38.0424
-38.0414
-38.0403
-38.0393
-38.0383
-38.0373
-38.0363
-38.0352
-38.0342
-38.0332
-38.0322
-38.0311
-38.0301
-38.0291
-38.0281
-38.027
-38.026
-38.025
-38.024
-38.0229
-38.0219
-38.0209
-38.0198
-38.0188
-38.0178
-38.0167
-38.0157
-38.0147
-38.0136
-38.0126
-38.0115
-38.0105
-38.0095
-38.0084
-38.0074
-38.0063
-38.0053
-38.0043
-38.0032
-38.0022
-38.0011
-38.0001
-37.999
-37.998
-37.9969
-37.9959
-37.9948
-37.9938
-37.9927
-37.9917
-37.9906
-37.9896
-37.9885
-37.9874
-37.9864
-37.9853
-37.9843
-37.9832
-37.9821
-37.9811
-37.98
-37.979
-37.9779
-37.9768
-37.9758
-37.9747
-37.9736
-37.9726
-37.9715
-37.9704
-37.9694
-37.9683
-37.9672
-37.9662
-37.9651
-37.964
-37.9629
-37.9619
-37.9608
-37.9597
-37.9586
-37.9575
-37.9565
-37.9554
-37.9543
-37.9532
-37.9521
-37.9511
-37.95
-37.9489
-37.9478
-37.9467
-37.9456
-37.9445
-37.9435
-37.9424
-37.9413
-37.9402
-37.9391
-37.938
-37.9369
-37.9358
-37.9347
-37.9336
-37.9325
-37.9314
-37.9303
-37.9292
-37.9281
-37.927
-37.9259
-37.9248
-37.9237
-37.9226
-37.9215
-37.9204
-37.9193
-37.9182
-37.9171
-37.916
-37.9149
-37.9138
-37.9127
-37.9115
-37.9104
-37.9093
-37.9082
-37.9071
-37.906
-37.9049
-37.9037
-37.9026
-37.9015
-37.9004
-37.8993
-37.8981
-37.897
-37.8959
-37.8948
-37.8936
-37.8925
-37.8914
-37.8903
-37.8891
-37.888
-37.8869
-37.8858
-37.8846
-37.8835
-37.8824
-37.8812
-37.8801
-37.879
-37.8778
-37.8767
-37.8756
-37.8744
-37.8733
-37.8721
-37.871
-37.8699
-37.8687
-37.8676
-37.8664
-37.8653
-37.8641
-37.863
-37.8618
-37.8607
-37.8596
-37.8584
-37.8573
-37.8561
-37.855
-37.8538
-37.8526
-37.8515
-37.8503
-37.8492
-37.848
-37.8469
-37.8457
-37.8446
-37.8434
-37.8422
-37.8411
-37.8399
-37.8388
-37.8376
-37.8364
-37.8353
-37.8341
-37.8329
-37.8318
-37.8306
-37.8294
-37.8283
-37.8271
-37.8259
-37.8247
-37.8236
-37.8224
-37.8212
-37.8201
-37.8189
-37.8177
-37.8165
-37.8154
-37.8142
-37.813
-37.8118
-37.8107
-37.8095
-37.8083
-37.8071
-37.8059
-37.8048
-37.8036
-37.8024
-37.8012
-37.8
-37.7989
-37.7977
-37.7965
-37.7953
-37.7941
-37.7929
-37.7917
-37.7906
-37.7894
-37.7882
-37.787
-37.7858
-37.7846
-37.7834
-37.7822
-37.781
-37.7798
-37.7785
-37.7773
-37.7761
-37.7749
-37.7737
-37.7724
-37.7712
-37.77
-37.7688
-37.7675
-37.7663
-37.765
-37.7638
-37.7626
-37.7613
-37.7601
-37.7589
-37.7576
-37.7564
-37.7551
-37.7539
-37.7527
-37.7514
-37.7502
-37.749
-37.7478
-37.7465
-37.7453
-37.7441
-37.7429
-37.7417
-37.7405
-37.7392
-37.738
-37.7368
-37.7356
-37.7344
-37.7332
-37.732
-37.7307
-37.7295
-37.7283
-37.7271
-37.7259
-37.7246
-37.7234
-37.7222
-37.721
-37.7197
-37.7185
-37.7173
-37.716
-37.7148
-37.7135
-37.7123
-37.711
-37.7098
-37.7085
-37.7073
-37.706
-37.7048
-37.7035
-37.7023
-37.701
-37.6997
-37.6985
-37.6972
-37.696
-37.6947
-37.6935
-37.6922
-37.6909
-37.6897
-37.6884
-37.6871
-37.6859
-37.6846
-37.6834
-37.6821
-37.6808
-37.6796
-37.6783
-37.677
-37.6757
-37.6745
-37.6732
-37.672
-37.6706
-37.6694
-37.668
-37.6669
-37.6654
-37.6644
-37.6628
-37.662
-37.6601
-37.6596
-37.6573
-37.6573
-37.6544
-37.6551
-37.6514
-37.6531
-37.6482
-37.6513
-37.6448
-37.6496
-37.6412
-37.648
-37.6376
-37.6463
-37.6344
-37.6441
-37.6319
-37.6408
-37.6307
-37.6359
-37.6315
-37.6294
-37.6304
-37.6288
-37.6264
-37.6256
-37.6246
-37.6228
-37.6214
-37.6201
-37.6194
-37.6178
-37.6165
-37.615
-37.614
-37.6124
-37.6111
-37.6097
-37.6087
-37.607
-37.6071
-37.6023
-37.6077
-37.5954
-37.6098
-37.5875
-37.612
-37.5809
-37.6121
-37.5777
-37.6075
-37.5798
-37.5973
-37.5871
-37.5831
-37.5952
-37.5716
-37.6006
-37.5626
-37.6011
-37.5605
-37.5943
-37.565
-37.5814
-37.5745
-37.5664
-37.5833
-37.5535
-37.5887
-37.5469
-37.5855
-37.5483
-37.5755
-37.5557
-37.5607
-37.5663
-37.5448
-37.5756
-37.5328
-37.5778
-37.5308
-37.5678
-37.5418
-37.5464
-37.5604
-37.5235
-37.5728
-37.5141
-37.5667
-37.5246
-37.5434
-37.5456
-37.5185
-37.5598
-37.5067
-37.5576
-37.5114
-37.541
-37.5269
-37.5181
-37.5437
-37.4992
-37.551
-37.4951
-37.5394
-37.511
-37.5109
-37.5362
-37.4842
-37.5474
-37.4821
-37.5286
-37.5077
-37.4922
-37.5351
-37.4707
-37.5349
-37.4812
-37.5076
-37.5075
-37.4781
-37.5245
-37.465
-37.5211
-37.4747
-37.4946
-37.5035
-37.4595
-37.5245
-37.4501
-37.5073
-37.4798
-37.4633
-37.5138
-37.4396
-37.5108
-37.4574
-37.4739
-37.4913
-37.442
-37.5039
-37.4387
-37.4879
-37.4611
-37.4514
-37.4937
-37.422
-37.4979
-37.4372
-37.4553
-37.483
-37.4138
-37.4946
-37.4243
-37.4581
-37.4628
-37.4181
-37.484
-37.41
-37.466
-37.4398
-37.4215
-37.4754
-37.3964
-37.4699
-37.421
-37.4229
-37.4659
-37.3855
-37.4701
-37.4074
-37.4199
-37.4556
-37.3814
-37.4617
-37.397
-37.4211
-37.4391
-37.3792
-37.4575
-37.381
-37.4226
-37.4288
-37.3685
-37.4567
-37.3701
-37.4141
-37.4258
-37.3594
-37.4464
-37.368
-37.4058
-37.4136
-37.3588
-37.438
-37.3551
-37.4049
-37.4068
-37.3435
-37.4389
-37.3486
-37.3869
-37.4116
-37.3338
-37.423
-37.3521
-37.3764
-37.4003
-37.3292
-37.4194
-37.3404
-37.365
-37.4066
-37.3097
-37.4102
-37.3499
-37.3393
-37.4048
-37.3118
-37.3895
-37.3497
-37.331
-37.3989
-37.301
-37.3806
-37.3553
-37.3046
-37.4016
-37.3033
-37.3493
-37.3687
-37.2929
-37.3836
-37.3113
-37.3293
-37.3703
-37.2806
-37.3722
-37.3202
-37.2993
-37.3777
-37.2777
-37.3426
-37.3387
-37.2771
-37.3674
-37.2878
-37.312
-37.3494
-37.2652
-37.3487
-37.302
-37.2825
-37.3538
-37.2631
-37.3194
-37.3216
-37.259
-37.3418
-37.2771
-37.2871
-37.3295
-37.2506
-37.3215
-37.2918
-37.2564
-37.3328
-37.2547
-37.2848
-37.3116
-37.2417
-37.3103
-37.2711
-37.258
-37.3137
-37.2356
-37.2867
-37.2926
-37.2254
-37.3042
-37.2596
-37.2435
-37.2968
-37.2318
-37.275
-37.2699
-37.2214
-37.295
-37.2398
-37.2331
-37.2886
-37.2188
-37.2574
-37.2613
-37.214
-37.2756
-37.228
-37.2251
-37.2753
-37.2048
-37.2431
-37.2543
-37.2003
-37.2581
-37.2229
-37.2099
-37.2602
-37.1979
-37.2264
-37.2443
-37.1881
-37.242
-37.2177
-37.1919
-37.2468
-37.1936
-37.2051
-37.2354
-37.1794
-37.2217
-37.2129
-37.1759
-37.2316
-37.19
-37.1826
-37.227
-37.1735
-37.1966
-37.2091
-37.1644
-37.211
-37.1877
-37.1625
-37.2148
-37.1701
-37.1705
-37.2046
-37.1564
-37.1849
-37.1873
-37.1475
-37.1947
-37.1699
-37.1478
-37.1938
-37.1533
-37.1567
-37.1846
-37.1391
-37.1677
-37.1706
-37.1311
-37.1746
-37.1548
-37.1307
-37.1733
-37.1396
-37.1386
-37.1653
-37.1232
-37.1481
-37.1573
-37.1132
-37.1502
-37.144
-37.1149
-37.1505
-37.1245
-37.1189
-37.1509
-37.1093
-37.1202
-37.1441
-37.1028
-37.1246
-37.1287
-37.0973
-37.1308
-37.1149
-37.0934
-37.1305
-37.1033
-37.0951
-37.1246
-37.0909
-37.1
-37.1176
-37.0805
-37.1025
-37.1076
-37.0754
-37.1047
-37.0951
-37.0716
-37.1042
-37.0844
-37.0722
-37.0997
-37.071
-37.0744
-37.0966
-37.0611
-37.073
-37.0879
-37.057
-37.0758
-37.0752
-37.0492
-37.0782
-37.0679
-37.0446
-37.0734
-37.0581
-37.0465
-37.0698
-37.0446
-37.0458
-37.0683
-37.0367
-37.0417
-37.0596
-37.033
-37.0452
-37.0483
-37.0218
-37.0462
-37.0456
-37.0178
-37.0388
-37.0338
-37.0187
-37.0407
-37.022
-37.0109
-37.0378
-37.0184
-37.0101
-37.0287
-37.0077
-37.0113
-37.0268
-36.9993
-37.0059
-37.0196
-36.9951
-37.0057
-37.0114
-36.9879
-37.0037
-37.0051
-36.983
-37.001
-36.9975
-36.978
-36.9974
-36.9904
-36.9752
-36.9937
-36.9811
-36.9705
-36.9913
-36.976
-36.966
-36.9836
-36.9686
-36.9662
-36.9809
-36.9591
-36.9586
-36.976
-36.9579
-36.9578
-36.9666
-36.9467
-36.9554
-36.9664
-36.9434
-36.9478
-36.9555
-36.939
-36.9493
-36.9517
-36.9299
-36.9412
-36.9462
-36.9288
-36.939
-36.9374
-36.9207
-36.9351
-36.9343
-36.9173
-36.9293
-36.9264
-36.9122
-36.926
-36.9207
-36.9071
-36.921
-36.9155
-36.9025
-36.9154
-36.9089
-36.8981
-36.9119
-36.9035
-36.8924
-36.9056
-36.898
-36.8886
-36.9009
-36.8918
-36.8829
-36.8962
-36.887
-36.8783
-36.8901
-36.881
-36.8739
-36.8858
-36.8759
-36.8677
-36.8799
-36.8711
-36.8642
-36.8748
-36.8646
-36.8579
-36.8697
-36.8611
-36.8535
-36.8634
-36.854
-36.848
-36.8596
-36.8508
-36.8429
-36.852
-36.844
-36.8378
-36.8488
-36.8406
-36.8321
-36.8412
-36.834
-36.8273
-36.8371
-36.8302
-36.8214
-36.8305
-36.8246
-36.8166
-36.8257
-36.8198
-36.8109
-36.8194
-36.8152
-36.806
-36.814
-36.81
-36.8003
-36.8082
-36.8054
-36.7955
-36.8022
-36.8002
-36.7898
-36.7965
-36.7956
-36.7848
-36.7904
-36.7901
-36.7797
-36.7844
-36.7857
-36.7747
-36.7783
-36.7803
-36.7695
-36.7724
-36.7752
-36.7648
-36.7661
-36.7701
-36.7599
-36.7603
-36.7647
-36.7549
-36.7541
-36.7593
-36.7508
-36.7483
-36.7539
-36.7454
-36.7416
-36.7477
-36.7411
-36.7367
-36.7426
-36.7367
-36.7301
-36.7358
-36.7314
-36.7248
-36.7304
-36.7274
-36.7195
-36.7238
-36.7224
-36.7139
-36.7179
-36.7177
-36.7088
-36.7109
-36.712
-36.7035
-36.7048
-36.7077
-36.6992
-36.6987
-36.7017
-36.6938
-36.6918
-36.6962
-36.6898
-36.6863
-36.6908
-36.6848
-36.6798
-36.684
-36.6802
-36.6743
-36.6786
-36.6762
-36.6689
-36.6718
-36.6703
-36.6628
-36.6647
-36.6657
-36.6584
-36.6593
-36.6612
-36.6536
-36.6524
-36.6546
-36.648
-36.6452
-36.649
-36.644
-36.6402
-36.6438
-36.6395
-36.6338
-36.6363
-36.6339
-36.6276
-36.6304
-36.63
-36.6235
-36.6245
-36.6248
-36.6176
-36.6165
-36.6184
-36.6122
-36.6108
-36.6138
-36.6089
-36.6052
-36.6076
-36.6032
-36.5976
-36.5999
-36.5976
-36.5923
-36.5943
-36.5941
-36.5879
-36.5881
-36.5885
-36.5819
-36.5806
-36.5822
-36.5772
-36.5747
-36.5774
-36.5733
-36.5691
-36.571
-36.5678
-36.5623
-36.5633
-36.5622
-36.5564
-36.557
-36.5575
-36.5521
-36.551
-36.5523
-36.5472
-36.5442
-36.5459
-36.5418
-36.5376
-36.539
-36.5368
-36.5317
-36.5327
-36.532
-36.5267
-36.5265
-36.527
-36.5221
-36.52
-36.5213
-36.5167
-36.5133
-36.5144
-36.5112
-36.5068
-36.5076
-36.5064
-36.5014
-36.5016
-36.5015
-36.4967
-36.4951
-36.4958
-36.4913
-36.488
-36.4888
-36.4853
-36.4812
-36.4817
-36.4801
-36.4754
-36.4754
-36.4751
-36.4705
-36.4691
-36.4695
-36.4654
-36.4621
-36.4628
-36.4594
-36.4553
-36.4553
-36.4536
-36.4489
-36.4483
-36.448
-36.4435
-36.4418
-36.4421
-36.4387
-36.4354
-36.436
-36.4335
-36.4294
-36.4294
-36.4281
-36.4238
-36.4226
-36.4226
-36.4185
-36.4163
-36.4167
-36.4138
-36.4105
-36.4108
-36.4091
-36.405
-36.4046
-36.4039
-36.3999
-36.398
-36.3981
-36.3946
-36.3916
-36.3916
-36.3892
-36.3853
-36.3846
-36.3835
-36.3792
-36.3777
-36.3772
-36.3736
-36.3708
-36.3707
-36.3681
-36.3643
-36.3639
-36.3623
-36.3584
-36.3569
-36.3564
-36.3527
-36.3502
-36.35
-36.3472
-36.3438
-36.3432
-36.3417
-36.3377
-36.3364
-36.3356
-36.3322
-36.3296
-36.3293
-36.3266
-36.3232
-36.3226
-36.3209
-36.3173
-36.3157
-36.315
-36.3115
-36.309
-36.3085
-36.3059
-36.3026
-36.3017
-36.3002
-36.2965
-36.2949
-36.294
-36.2908
-36.2881
-36.2875
-36.2851
-36.2817
-36.2807
-36.2792
-36.2758
-36.2738
-36.273
-36.2699
-36.2672
-36.2663
-36.2642
-36.2608
-36.2595
-36.2582
-36.2548
-36.2526
-36.2517
-36.2491
-36.2459
-36.2451
-36.2431
-36.2398
-36.2381
-36.2369
-36.2338
-36.2312
-36.2304
-36.2279
-36.2248
-36.2234
-36.2219
-36.2186
-36.2166
-36.2155
-36.2127
-36.2098
-36.2087
-36.2067
-36.2034
-36.2018
-36.2004
-36.1974
-36.1948
-36.1938
-36.1914
-36.1883
-36.1869
-36.1852
-36.1821
-36.1798
-36.1787
-36.1759
-36.1732
-36.1718
-36.1699
-36.1667
-36.1648
-36.1635
-36.1605
-36.158
-36.1566
-36.1545
-36.1513
-36.1497
-36.148
-36.1451
-36.1427
-36.1414
-36.1389
-36.1359
-36.1344
-36.1325
-36.1296
-36.1273
-36.126
-36.1232
-36.1205
-36.119
-36.117
-36.1139
-36.1119
-36.1104
-36.1076
-36.105
-36.1034
-36.1014
-36.0983
-36.0964
-36.0947
-36.0919
-36.0894
-36.0879
-36.0856
-36.0826
-36.0808
-36.079
-36.0761
-36.0736
-36.0722
-36.0697
-36.0668
-36.065
-36.0631
-36.0602
-36.0578
-36.0563
-36.0537
-36.051
-36.0491
-36.0472
-36.0442
-36.042
-36.0403
-36.0378
-36.035
-36.0331
-36.0312
-36.0282
-36.026
-36.0242
-36.0217
-36.0188
-36.0171
-36.015
-36.0121
-36.0098
-36.008
-36.0055
-36.0026
-36.0009
-35.9987
-35.9959
-35.9935
-35.9918
-35.9891
-35.9864
-35.9845
-35.9824
-35.9795
-35.9771
-35.9754
-35.9727
-35.97
-35.968
-35.966
-35.963
-35.9607
-35.9588
-35.9563
-35.9535
-35.9514
-35.9494
-35.9465
-35.9441
-35.9421
-35.9397
-35.9368
-35.9348
-35.9326
-35.9298
-35.9273
-35.9254
-35.9229
-35.92
-35.9179
-35.9158
-35.9131
-35.9104
-35.9085
-35.906
-35.9032
-35.9009
-35.8989
-35.8961
-35.8934
-35.8915
-35.889
-35.8862
-35.8838
-35.8818
-35.879
-35.8764
-35.8742
-35.8719
-35.8691
-35.8666
-35.8646
-35.8619
-35.8591
-35.8569
-35.8547
-35.8518
-35.8493
-35.8471
-35.8446
-35.8417
-35.8394
-35.8372
-35.8344
-35.8318
-35.8296
-35.8271
-35.8242
-35.8219
-35.8196
-35.8169
-35.8141
-35.8119
-35.8095
-35.8066
-35.8041
-35.8018
-35.7992
-35.7963
-35.794
-35.7916
-35.7888
-35.7861
-35.7839
-35.7813
-35.7784
-35.776
-35.7736
-35.7708
-35.768
-35.7658
-35.7632
-35.7604
-35.7577
-35.7554
-35.7527
-35.7498
-35.7474
-35.745
-35.7421
-35.7394
-35.737
-35.7343
-35.7315
-35.7289
-35.7265
-35.7237
-35.7209
-35.7184
-35.7158
-35.7129
-35.7102
-35.7078
-35.705
-35.7022
-35.6996
-35.6971
-35.6942
-35.6914
-35.6889
-35.6863
-35.6833
-35.6806
-35.6781
-35.6753
-35.6724
-35.6698
-35.6672
-35.6642
-35.6615
-35.6589
-35.6562
-35.6532
-35.6505
-35.6479
-35.645
-35.6421
-35.6394
-35.6368
-35.6338
-35.631
-35.6283
-35.6256
-35.6225
-35.6198
-35.6171
-35.6142
-35.6112
-35.6085
-35.6058
-35.6027
-35.5999
-35.5972
-35.5944
-35.5913
-35.5885
-35.5858
-35.5828
-35.5798
-35.577
-35.5742
-35.5711
-35.5682
-35.5655
-35.5626
-35.5594
-35.5566
-35.5538
-35.5508
-35.5477
-35.5449
-35.542
-35.5389
-35.5359
-35.5331
-35.5301
-35.5269
-35.524
-35.5211
-35.5181
-35.5149
-35.5121
-35.5091
-35.506
-35.5029
-35.5
-35.497
-35.4938
-35.4908
-35.4878
-35.4848
-35.4815
-35.4786
-35.4755
-35.4724
-35.4692
-35.4662
-35.4632
-35.4599
-35.4568
-35.4538
-35.4507
-35.4473
-35.4443
-35.4412
-35.438
-35.4347
-35.4317
-35.4285
-35.4253
-35.422
-35.4189
-35.4158
-35.4124
-35.4092
-35.4061
-35.4029
-35.3994
-35.3963
-35.3931
-35.3898
-35.3864
-35.3833
-35.38
-35.3766
-35.3733
-35.3701
-35.3668
-35.3634
-35.3601
-35.3568
-35.3535
-35.35
-35.3467
-35.3434
-35.34
-35.3366
-35.3333
-35.3299
-35.3264
-35.323
-35.3196
-35.3163
-35.3127
-35.3093
-35.3059
-35.3025
-35.2989
-35.2955
-35.2921
-35.2885
-35.285
-35.2815
-35.2781
-35.2744
-35.2709
-35.2674
-35.2639
-35.2602
-35.2567
-35.2532
-35.2496
-35.2459
-35.2424
-35.2388
-35.2351
-35.2315
-35.2279
-35.2243
-35.2206
-35.2169
-35.2133
-35.2096
-35.2059
-35.2022
-35.1985
-35.1948
-35.191
-35.1873
-35.1836
-35.1798
-35.176
-35.1722
-35.1686
-35.1647
-35.1608
-35.1571
-35.1533
-35.1494
-35.1455
-35.1417
-35.1379
-35.134
-35.13
-35.1262
-35.1223
-35.1183
-35.1144
-35.1105
-35.1065
-35.1025
-35.0986
-35.0947
-35.0906
-35.0865
-35.0826
-35.0786
-35.0745
-35.0704
-35.0664
-35.0623
-35.0582
-35.0541
-35.05
-35.0459
-35.0417
-35.0376
-35.0335
-35.0293
-35.025
-35.0209
-35.0167
-35.0125
-35.0081
-35.0039
-34.9997
-34.9954
-34.9911
-34.9868
-34.9825
-34.9781
-34.9738
-34.9694
-34.9651
-34.9606
-34.9562
-34.9518
-34.9474
-34.9429
-34.9384
-34.9339
-34.9294
-34.9249
-34.9203
-34.9158
-34.9112
-34.9066
-34.902
-34.8974
-34.8927
-34.8881
-34.8834
-34.8787
-34.874
-34.8692
-34.8645
-34.8597
-34.8549
-34.8501
-34.8453
-34.8404
-34.8355
-34.8306
-34.8257
-34.8208
-34.8158
-34.8108
-34.8058
-34.8008
-34.7957
-34.7906
-34.7855
-34.7804
-34.7751
-34.77
-34.7648
-34.7596
-34.7542
-34.749
-34.7437
-34.7383
-34.7329
-34.7275
-34.7221
-34.7166
-34.7111
-34.7055
-34.7
-34.6944
-34.6888
-34.6831
-34.6774
-34.6716
-34.6659
-34.6601
-34.6542
-34.6483
-34.6424
-34.6365
-34.6304
-34.6244
-34.6182
-34.6122
-34.606
-34.5997
-34.5934
-34.5872
-34.5808
-34.5744
-34.5679
-34.5614
-34.5548
-34.5482
-34.5415
-34.5348
-34.528
-34.5211
-34.5143
-34.5073
-34.5003
-34.4931
-34.486
-34.4788
-34.4715
-34.4641
-34.4567
-34.4492
-34.4416
-34.434
-34.4262
-34.4185
-34.4105
-34.4026
-34.3945
-34.3864
-34.3781
-34.3698
-34.3614
-34.3529
-34.3443
-34.3355
-34.3267
-34.3178
-34.3087
-34.2995
-34.2903
-34.2809
-34.2714
-34.2618
-34.2521
-34.2422
-34.2321
-34.222
-34.2117
-34.2013
-34.1906
-34.1799
-34.169
-34.158
-34.1467
-34.1353
-34.1237
-34.112
-34.1
-34.0879
-34.0756
-34.063
-34.0503
-34.0373
-34.0242
-34.0108
-33.9971
-33.9832
-33.9691
-33.9547
-33.9401
-33.9252
-33.91
-33.8945
-33.8787
-33.8626
-33.8463
-33.8296
-33.8125
-33.7951
-33.7773
-33.7592
-33.7406
-33.7217
-33.7024
-33.6827
-33.6625
-33.6419
-33.6208
-33.5992
-33.5771
-33.5545
-33.5314
-33.5077
-33.4834
-33.4586
-33.4331
-33.407
-33.3803
-33.3528
-33.3247
-33.2958
-33.2661
-33.2357
-33.2044
-33.1723
-33.1393
-33.1054
-33.0706
-33.0348
-32.9979
-32.96
-32.921
-32.8809
-32.8396
-32.797
-32.7533
-32.7082
-32.6617
-32.6138
-32.5645
-32.5136
-32.4612
-32.4072
-32.3515
-32.294
-32.2347
-32.1736
-32.1105
-32.0455
-31.9784
-31.9091
-31.8377
-31.764
-31.6879
-31.6094
-31.5284
-31.445
-31.3587
-31.2699
-31.1781
-31.0836
-30.986
-30.8854
-30.7817
-30.6749
-30.5647
-30.4511
-30.3342
-30.2137
-30.0897
-29.9619
-29.8305
-29.6952
-29.5561
-29.4129
-29.2659
-29.1147
-28.9594
-28.7999
-28.6361
-28.4681
-28.2958
-28.1191
-27.938
-27.7525
-27.5625
-27.3681
-27.1691
-26.9658
-26.7579
-26.5456
-26.3288
-26.1077
-25.8821
-25.6523
-25.4181
-25.1797
-24.9371
-24.6904
-24.4398
-24.1852
-23.9269
-23.6648
-23.3992
-23.1301
-22.8577
-22.5821
-22.3036
-22.0222
-21.7382
-21.4516
-21.1628
-20.8719
-20.5791
-20.2846
-19.9885
-19.6913
-19.393
-19.094
-18.7943
-18.4943
-18.1942
-17.8943
-17.5948
-17.2959
-16.9979
-16.701
-16.4055
-16.1115
-15.8195
-15.5295
-15.2419
-14.9567
-14.6744
-14.395
-14.1188
-13.8459
-13.5767
-13.3112
-13.0497
-12.7923
-12.5391
-12.2904
-12.0462
-11.8068
-11.5721
-11.3424
-11.1176
-10.898
-10.6835
-10.4743
-10.2704
-10.0718
-9.87851
-9.69066
-9.50822
-9.33113
-9.15948
-8.99315
-8.83221
-8.67651
-8.52612
-8.38089
-8.24085
-8.10583
-7.97584
-7.85076
-7.73052
-7.615
-7.50411
-7.39779
-7.29588
-7.19832
-7.10492
-7.01568
-6.93038
-6.84898
-6.77128
-6.69726
-6.6267
-6.55956
-6.49565
-6.43491
-6.37719
-6.32237
-6.27036
-6.221
-6.17424
-6.1299
-6.08794
-6.04817
-6.0106
-5.97501
-5.9414
-5.90959
-5.87957
-5.85118
-5.82437
-5.79905
-5.77514
-5.75258
-5.73124
-5.71112
-5.69209
-5.67415
-5.65715
-5.64113
-5.62594
-5.61161
-5.59802
-5.58516
-5.57296
-5.56141
-5.55044
-5.54
-5.5301
-5.52065
-5.51167
-5.50307
-5.49489
-5.48702
-5.47953
-5.4723
-5.46539
-5.45871