/*--------------------------------*- C++ -*----------------------------------*\
  =========                 |
  \\      /  F ield         | OpenFOAM: The Open Source CFD Toolbox
   \\    /   O peration     | Website:  https://openfoam.org
    \\  /    A nd           | Version:  9
     \\/     M anipulation  |
\*---------------------------------------------------------------------------*/
FoamFile
{
    format      ascii;
    class       volScalarField;
    location    "0.02";
    object      ddt0(rho,e);
}
// * * * * * * * * * * * * * * * * * * * * * * * * * * * * * * * * * * * * * //

dimensions      [1 -1 -3 0 0 0 0];

internalField   nonuniform List<scalar> 
10000
(
1.04605e+06
1.04537e+06
1.04456e+06
1.04508e+06
1.04513e+06
1.0434e+06
1.04081e+06
1.03919e+06
1.03957e+06
1.04173e+06
1.04484e+06
1.04799e+06
1.05061e+06
1.05248e+06
1.0536e+06
1.05408e+06
1.05422e+06
1.05464e+06
1.05554e+06
1.05552e+06
1.05545e+06
1.05543e+06
1.05542e+06
1.05543e+06
1.05544e+06
1.05546e+06
1.05547e+06
1.05549e+06
1.05551e+06
1.05553e+06
1.05554e+06
1.05556e+06
1.05558e+06
1.0556e+06
1.05562e+06
1.05564e+06
1.05565e+06
1.05567e+06
1.05569e+06
1.05571e+06
1.05573e+06
1.05575e+06
1.05576e+06
1.05578e+06
1.0558e+06
1.05582e+06
1.05584e+06
1.05585e+06
1.05587e+06
1.05589e+06
1.05591e+06
1.05593e+06
1.05595e+06
1.05596e+06
1.05598e+06
1.056e+06
1.05602e+06
1.05604e+06
1.05606e+06
1.05607e+06
1.05609e+06
1.05611e+06
1.05613e+06
1.05615e+06
1.05617e+06
1.05618e+06
1.0562e+06
1.05622e+06
1.05624e+06
1.05626e+06
1.05628e+06
1.05629e+06
1.05631e+06
1.05633e+06
1.05635e+06
1.05637e+06
1.05639e+06
1.0564e+06
1.05642e+06
1.05644e+06
1.05646e+06
1.05648e+06
1.0565e+06
1.05652e+06
1.05653e+06
1.05655e+06
1.05657e+06
1.05659e+06
1.05661e+06
1.05663e+06
1.05664e+06
1.05666e+06
1.05668e+06
1.0567e+06
1.05672e+06
1.05674e+06
1.05676e+06
1.05677e+06
1.05679e+06
1.05681e+06
1.05683e+06
1.05685e+06
1.05687e+06
1.05688e+06
1.0569e+06
1.05692e+06
1.05694e+06
1.05696e+06
1.05698e+06
1.057e+06
1.05701e+06
1.05703e+06
1.05705e+06
1.05707e+06
1.05709e+06
1.05711e+06
1.05713e+06
1.05714e+06
1.05716e+06
1.05718e+06
1.0572e+06
1.05722e+06
1.05724e+06
1.05726e+06
1.05728e+06
1.05729e+06
1.05731e+06
1.05733e+06
1.05735e+06
1.05737e+06
1.05739e+06
1.05741e+06
1.05742e+06
1.05744e+06
1.05746e+06
1.05748e+06
1.0575e+06
1.05752e+06
1.05754e+06
1.05756e+06
1.05757e+06
1.05759e+06
1.05761e+06
1.05763e+06
1.05765e+06
1.05767e+06
1.05769e+06
1.05771e+06
1.05772e+06
1.05774e+06
1.05776e+06
1.05778e+06
1.0578e+06
1.05782e+06
1.05784e+06
1.05786e+06
1.05787e+06
1.05789e+06
1.05791e+06
1.05793e+06
1.05795e+06
1.05797e+06
1.05799e+06
1.05801e+06
1.05803e+06
1.05804e+06
1.05806e+06
1.05808e+06
1.0581e+06
1.05812e+06
1.05814e+06
1.05816e+06
1.05818e+06
1.0582e+06
1.05821e+06
1.05823e+06
1.05825e+06
1.05827e+06
1.05829e+06
1.05831e+06
1.05833e+06
1.05835e+06
1.05837e+06
1.05838e+06
1.0584e+06
1.05842e+06
1.05844e+06
1.05846e+06
1.05848e+06
1.0585e+06
1.05852e+06
1.05854e+06
1.05856e+06
1.05857e+06
1.05859e+06
1.05861e+06
1.05863e+06
1.05865e+06
1.05867e+06
1.05869e+06
1.05871e+06
1.05873e+06
1.05875e+06
1.05876e+06
1.05878e+06
1.0588e+06
1.05882e+06
1.05884e+06
1.05886e+06
1.05888e+06
1.0589e+06
1.05892e+06
1.05894e+06
1.05895e+06
1.05897e+06
1.05899e+06
1.05901e+06
1.05903e+06
1.05905e+06
1.05907e+06
1.05909e+06
1.05911e+06
1.05913e+06
1.05915e+06
1.05917e+06
1.05918e+06
1.0592e+06
1.05922e+06
1.05924e+06
1.05926e+06
1.05928e+06
1.0593e+06
1.05932e+06
1.05934e+06
1.05936e+06
1.05938e+06
1.0594e+06
1.05941e+06
1.05943e+06
1.05945e+06
1.05947e+06
1.05949e+06
1.05951e+06
1.05953e+06
1.05955e+06
1.05957e+06
1.05959e+06
1.05961e+06
1.05963e+06
1.05965e+06
1.05966e+06
1.05968e+06
1.0597e+06
1.05972e+06
1.05974e+06
1.05976e+06
1.05978e+06
1.0598e+06
1.05982e+06
1.05984e+06
1.05986e+06
1.05988e+06
1.0599e+06
1.05992e+06
1.05994e+06
1.05995e+06
1.05997e+06
1.05999e+06
1.06001e+06
1.06003e+06
1.06005e+06
1.06007e+06
1.06009e+06
1.06011e+06
1.06013e+06
1.06015e+06
1.06017e+06
1.06019e+06
1.06021e+06
1.06023e+06
1.06025e+06
1.06027e+06
1.06028e+06
1.0603e+06
1.06032e+06
1.06034e+06
1.06036e+06
1.06038e+06
1.0604e+06
1.06042e+06
1.06044e+06
1.06046e+06
1.06048e+06
1.0605e+06
1.06052e+06
1.06054e+06
1.06056e+06
1.06058e+06
1.0606e+06
1.06062e+06
1.06064e+06
1.06065e+06
1.06067e+06
1.06069e+06
1.06071e+06
1.06073e+06
1.06075e+06
1.06077e+06
1.06079e+06
1.06081e+06
1.06083e+06
1.06085e+06
1.06087e+06
1.06089e+06
1.06091e+06
1.06093e+06
1.06095e+06
1.06097e+06
1.06099e+06
1.06101e+06
1.06103e+06
1.06105e+06
1.06107e+06
1.06109e+06
1.06111e+06
1.06113e+06
1.06115e+06
1.06116e+06
1.06118e+06
1.0612e+06
1.06122e+06
1.06124e+06
1.06126e+06
1.06128e+06
1.0613e+06
1.06132e+06
1.06134e+06
1.06136e+06
1.06138e+06
1.0614e+06
1.06142e+06
1.06144e+06
1.06146e+06
1.06148e+06
1.0615e+06
1.06152e+06
1.06154e+06
1.06156e+06
1.06158e+06
1.0616e+06
1.06162e+06
1.06164e+06
1.06166e+06
1.06168e+06
1.0617e+06
1.06172e+06
1.06174e+06
1.06176e+06
1.06178e+06
1.0618e+06
1.06182e+06
1.06184e+06
1.06186e+06
1.06188e+06
1.0619e+06
1.06192e+06
1.06194e+06
1.06196e+06
1.06198e+06
1.062e+06
1.06202e+06
1.06204e+06
1.06206e+06
1.06208e+06
1.06209e+06
1.06211e+06
1.06213e+06
1.06215e+06
1.06217e+06
1.06219e+06
1.06221e+06
1.06223e+06
1.06225e+06
1.06227e+06
1.06229e+06
1.06231e+06
1.06233e+06
1.06235e+06
1.06237e+06
1.06239e+06
1.06241e+06
1.06243e+06
1.06245e+06
1.06247e+06
1.06249e+06
1.06251e+06
1.06253e+06
1.06255e+06
1.06257e+06
1.06259e+06
1.06261e+06
1.06263e+06
1.06265e+06
1.06267e+06
1.06269e+06
1.06271e+06
1.06273e+06
1.06275e+06
1.06278e+06
1.0628e+06
1.06282e+06
1.06284e+06
1.06286e+06
1.06288e+06
1.0629e+06
1.06292e+06
1.06294e+06
1.06296e+06
1.06298e+06
1.063e+06
1.06302e+06
1.06304e+06
1.06306e+06
1.06308e+06
1.0631e+06
1.06312e+06
1.06314e+06
1.06316e+06
1.06318e+06
1.0632e+06
1.06322e+06
1.06324e+06
1.06326e+06
1.06328e+06
1.0633e+06
1.06332e+06
1.06334e+06
1.06336e+06
1.06338e+06
1.0634e+06
1.06342e+06
1.06344e+06
1.06346e+06
1.06348e+06
1.0635e+06
1.06352e+06
1.06354e+06
1.06356e+06
1.06358e+06
1.0636e+06
1.06362e+06
1.06364e+06
1.06366e+06
1.06368e+06
1.0637e+06
1.06372e+06
1.06375e+06
1.06377e+06
1.06379e+06
1.06381e+06
1.06383e+06
1.06385e+06
1.06387e+06
1.06389e+06
1.06391e+06
1.06393e+06
1.06395e+06
1.06397e+06
1.06399e+06
1.06401e+06
1.06403e+06
1.06405e+06
1.06407e+06
1.06409e+06
1.06411e+06
1.06413e+06
1.06415e+06
1.06417e+06
1.06419e+06
1.06421e+06
1.06423e+06
1.06426e+06
1.06428e+06
1.0643e+06
1.06432e+06
1.06434e+06
1.06436e+06
1.06438e+06
1.0644e+06
1.06442e+06
1.06444e+06
1.06446e+06
1.06448e+06
1.0645e+06
1.06452e+06
1.06454e+06
1.06456e+06
1.06458e+06
1.0646e+06
1.06462e+06
1.06465e+06
1.06467e+06
1.06469e+06
1.06471e+06
1.06473e+06
1.06475e+06
1.06477e+06
1.06479e+06
1.06481e+06
1.06483e+06
1.06485e+06
1.06487e+06
1.06489e+06
1.06491e+06
1.06493e+06
1.06495e+06
1.06497e+06
1.065e+06
1.06502e+06
1.06504e+06
1.06506e+06
1.06508e+06
1.0651e+06
1.06512e+06
1.06514e+06
1.06516e+06
1.06518e+06
1.0652e+06
1.06522e+06
1.06524e+06
1.06526e+06
1.06529e+06
1.06531e+06
1.06533e+06
1.06535e+06
1.06537e+06
1.06539e+06
1.06541e+06
1.06543e+06
1.06545e+06
1.06547e+06
1.06549e+06
1.06551e+06
1.06553e+06
1.06556e+06
1.06558e+06
1.0656e+06
1.06562e+06
1.06564e+06
1.06566e+06
1.06568e+06
1.0657e+06
1.06572e+06
1.06574e+06
1.06576e+06
1.06578e+06
1.06581e+06
1.06583e+06
1.06585e+06
1.06587e+06
1.06589e+06
1.06591e+06
1.06593e+06
1.06595e+06
1.06597e+06
1.06599e+06
1.06601e+06
1.06603e+06
1.06606e+06
1.06608e+06
1.0661e+06
1.06612e+06
1.06614e+06
1.06616e+06
1.06618e+06
1.0662e+06
1.06622e+06
1.06624e+06
1.06627e+06
1.06629e+06
1.06631e+06
1.06633e+06
1.06635e+06
1.06637e+06
1.06639e+06
1.06641e+06
1.06643e+06
1.06645e+06
1.06648e+06
1.0665e+06
1.06652e+06
1.06654e+06
1.06656e+06
1.06658e+06
1.0666e+06
1.06662e+06
1.06664e+06
1.06666e+06
1.06669e+06
1.06671e+06
1.06673e+06
1.06675e+06
1.06677e+06
1.06679e+06
1.06681e+06
1.06683e+06
1.06685e+06
1.06688e+06
1.0669e+06
1.06692e+06
1.06694e+06
1.06696e+06
1.06698e+06
1.067e+06
1.06702e+06
1.06704e+06
1.06707e+06
1.06709e+06
1.06711e+06
1.06713e+06
1.06715e+06
1.06717e+06
1.06719e+06
1.06721e+06
1.06723e+06
1.06726e+06
1.06728e+06
1.0673e+06
1.06732e+06
1.06734e+06
1.06736e+06
1.06738e+06
1.0674e+06
1.06743e+06
1.06745e+06
1.06747e+06
1.06749e+06
1.06751e+06
1.06753e+06
1.06755e+06
1.06757e+06
1.0676e+06
1.06762e+06
1.06764e+06
1.06766e+06
1.06768e+06
1.0677e+06
1.06772e+06
1.06774e+06
1.06777e+06
1.06779e+06
1.06781e+06
1.06783e+06
1.06785e+06
1.06787e+06
1.06789e+06
1.06791e+06
1.06794e+06
1.06796e+06
1.06798e+06
1.068e+06
1.06802e+06
1.06804e+06
1.06806e+06
1.06809e+06
1.06811e+06
1.06813e+06
1.06815e+06
1.06817e+06
1.06819e+06
1.06821e+06
1.06823e+06
1.06826e+06
1.06828e+06
1.0683e+06
1.06832e+06
1.06834e+06
1.06836e+06
1.06838e+06
1.06841e+06
1.06843e+06
1.06845e+06
1.06847e+06
1.06849e+06
1.06851e+06
1.06853e+06
1.06856e+06
1.06858e+06
1.0686e+06
1.06862e+06
1.06864e+06
1.06866e+06
1.06868e+06
1.06871e+06
1.06873e+06
1.06875e+06
1.06877e+06
1.06879e+06
1.06881e+06
1.06884e+06
1.06886e+06
1.06888e+06
1.0689e+06
1.06892e+06
1.06894e+06
1.06896e+06
1.06899e+06
1.06901e+06
1.06903e+06
1.06905e+06
1.06907e+06
1.06909e+06
1.06911e+06
1.06914e+06
1.06916e+06
1.06918e+06
1.0692e+06
1.06922e+06
1.06924e+06
1.06927e+06
1.06929e+06
1.06931e+06
1.06933e+06
1.06935e+06
1.06937e+06
1.06939e+06
1.06942e+06
1.06944e+06
1.06946e+06
1.06948e+06
1.0695e+06
1.06952e+06
1.06955e+06
1.06957e+06
1.06959e+06
1.06961e+06
1.06963e+06
1.06965e+06
1.06968e+06
1.0697e+06
1.06972e+06
1.06974e+06
1.06976e+06
1.06978e+06
1.06981e+06
1.06983e+06
1.06985e+06
1.06987e+06
1.06989e+06
1.06991e+06
1.06994e+06
1.06996e+06
1.06998e+06
1.07e+06
1.07002e+06
1.07004e+06
1.07007e+06
1.07009e+06
1.07011e+06
1.07013e+06
1.07015e+06
1.07017e+06
1.0702e+06
1.07022e+06
1.07024e+06
1.07026e+06
1.07028e+06
1.0703e+06
1.07033e+06
1.07035e+06
1.07037e+06
1.07039e+06
1.07041e+06
1.07044e+06
1.07046e+06
1.07048e+06
1.0705e+06
1.07052e+06
1.07054e+06
1.07057e+06
1.07059e+06
1.07061e+06
1.07063e+06
1.07065e+06
1.07067e+06
1.0707e+06
1.07072e+06
1.07074e+06
1.07076e+06
1.07078e+06
1.07081e+06
1.07083e+06
1.07085e+06
1.07087e+06
1.07089e+06
1.07091e+06
1.07094e+06
1.07096e+06
1.07098e+06
1.071e+06
1.07102e+06
1.07105e+06
1.07107e+06
1.07109e+06
1.07111e+06
1.07113e+06
1.07116e+06
1.07118e+06
1.0712e+06
1.07122e+06
1.07124e+06
1.07126e+06
1.07129e+06
1.07131e+06
1.07133e+06
1.07135e+06
1.07137e+06
1.0714e+06
1.07142e+06
1.07144e+06
1.07146e+06
1.07148e+06
1.07151e+06
1.07153e+06
1.07155e+06
1.07157e+06
1.07159e+06
1.07162e+06
1.07164e+06
1.07166e+06
1.07168e+06
1.0717e+06
1.07173e+06
1.07175e+06
1.07177e+06
1.07179e+06
1.07181e+06
1.07184e+06
1.07186e+06
1.07188e+06
1.0719e+06
1.07192e+06
1.07195e+06
1.07197e+06
1.07199e+06
1.07201e+06
1.07203e+06
1.07206e+06
1.07208e+06
1.0721e+06
1.07212e+06
1.07214e+06
1.07217e+06
1.07219e+06
1.07221e+06
1.07223e+06
1.07225e+06
1.07228e+06
1.0723e+06
1.07232e+06
1.07234e+06
1.07236e+06
1.07239e+06
1.07241e+06
1.07243e+06
1.07245e+06
1.07247e+06
1.0725e+06
1.07252e+06
1.07254e+06
1.07256e+06
1.07259e+06
1.07261e+06
1.07263e+06
1.07265e+06
1.07267e+06
1.0727e+06
1.07272e+06
1.07274e+06
1.07276e+06
1.07278e+06
1.07281e+06
1.07283e+06
1.07285e+06
1.07287e+06
1.0729e+06
1.07292e+06
1.07294e+06
1.07296e+06
1.07298e+06
1.07301e+06
1.07303e+06
1.07305e+06
1.07307e+06
1.07309e+06
1.07312e+06
1.07314e+06
1.07316e+06
1.07318e+06
1.07321e+06
1.07323e+06
1.07325e+06
1.07327e+06
1.07329e+06
1.07332e+06
1.07334e+06
1.07336e+06
1.07338e+06
1.07341e+06
1.07343e+06
1.07345e+06
1.07347e+06
1.07349e+06
1.07352e+06
1.07354e+06
1.07356e+06
1.07358e+06
1.07361e+06
1.07363e+06
1.07365e+06
1.07367e+06
1.0737e+06
1.07372e+06
1.07374e+06
1.07376e+06
1.07378e+06
1.07381e+06
1.07383e+06
1.07385e+06
1.07387e+06
1.0739e+06
1.07392e+06
1.07394e+06
1.07396e+06
1.07399e+06
1.07401e+06
1.07403e+06
1.07405e+06
1.07407e+06
1.0741e+06
1.07412e+06
1.07414e+06
1.07416e+06
1.07419e+06
1.07421e+06
1.07423e+06
1.07425e+06
1.07428e+06
1.0743e+06
1.07432e+06
1.07434e+06
1.07437e+06
1.07439e+06
1.07441e+06
1.07443e+06
1.07445e+06
1.07448e+06
1.0745e+06
1.07452e+06
1.07454e+06
1.07457e+06
1.07459e+06
1.07461e+06
1.07463e+06
1.07466e+06
1.07468e+06
1.0747e+06
1.07472e+06
1.07475e+06
1.07477e+06
1.07479e+06
1.07481e+06
1.07484e+06
1.07486e+06
1.07488e+06
1.0749e+06
1.07493e+06
1.07495e+06
1.07497e+06
1.07499e+06
1.07502e+06
1.07504e+06
1.07506e+06
1.07508e+06
1.07511e+06
1.07513e+06
1.07515e+06
1.07517e+06
1.0752e+06
1.07522e+06
1.07524e+06
1.07526e+06
1.07529e+06
1.07531e+06
1.07533e+06
1.07535e+06
1.07538e+06
1.0754e+06
1.07542e+06
1.07544e+06
1.07547e+06
1.07549e+06
1.07551e+06
1.07553e+06
1.07556e+06
1.07558e+06
1.0756e+06
1.07562e+06
1.07565e+06
1.07567e+06
1.07569e+06
1.07571e+06
1.07574e+06
1.07576e+06
1.07578e+06
1.0758e+06
1.07583e+06
1.07585e+06
1.07587e+06
1.07589e+06
1.07592e+06
1.07594e+06
1.07596e+06
1.07598e+06
1.07601e+06
1.07603e+06
1.07605e+06
1.07608e+06
1.0761e+06
1.07612e+06
1.07614e+06
1.07617e+06
1.07619e+06
1.07621e+06
1.07623e+06
1.07626e+06
1.07628e+06
1.0763e+06
1.07632e+06
1.07635e+06
1.07637e+06
1.07639e+06
1.07641e+06
1.07644e+06
1.07646e+06
1.07648e+06
1.07651e+06
1.07653e+06
1.07655e+06
1.07657e+06
1.0766e+06
1.07662e+06
1.07664e+06
1.07666e+06
1.07669e+06
1.07671e+06
1.07673e+06
1.07676e+06
1.07678e+06
1.0768e+06
1.07682e+06
1.07685e+06
1.07687e+06
1.07689e+06
1.07691e+06
1.07694e+06
1.07696e+06
1.07698e+06
1.07701e+06
1.07703e+06
1.07705e+06
1.07707e+06
1.0771e+06
1.07712e+06
1.07714e+06
1.07716e+06
1.07719e+06
1.07721e+06
1.07723e+06
1.07726e+06
1.07728e+06
1.0773e+06
1.07732e+06
1.07735e+06
1.07737e+06
1.07739e+06
1.07741e+06
1.07744e+06
1.07746e+06
1.07748e+06
1.07751e+06
1.07753e+06
1.07755e+06
1.07757e+06
1.0776e+06
1.07762e+06
1.07764e+06
1.07767e+06
1.07769e+06
1.07771e+06
1.07773e+06
1.07776e+06
1.07778e+06
1.0778e+06
1.07783e+06
1.07785e+06
1.07787e+06
1.07789e+06
1.07792e+06
1.07794e+06
1.07796e+06
1.07799e+06
1.07801e+06
1.07803e+06
1.07805e+06
1.07808e+06
1.0781e+06
1.07812e+06
1.07815e+06
1.07817e+06
1.07819e+06
1.07821e+06
1.07824e+06
1.07826e+06
1.07828e+06
1.07831e+06
1.07833e+06
1.07835e+06
1.07838e+06
1.0784e+06
1.07842e+06
1.07844e+06
1.07847e+06
1.07849e+06
1.07851e+06
1.07854e+06
1.07856e+06
1.07858e+06
1.0786e+06
1.07863e+06
1.07865e+06
1.07867e+06
1.0787e+06
1.07872e+06
1.07874e+06
1.07877e+06
1.07879e+06
1.07881e+06
1.07883e+06
1.07886e+06
1.07888e+06
1.0789e+06
1.07893e+06
1.07895e+06
1.07897e+06
1.079e+06
1.07902e+06
1.07904e+06
1.07906e+06
1.07909e+06
1.07911e+06
1.07913e+06
1.07916e+06
1.07918e+06
1.0792e+06
1.07923e+06
1.07925e+06
1.07927e+06
1.07929e+06
1.07932e+06
1.07934e+06
1.07936e+06
1.07939e+06
1.07941e+06
1.07943e+06
1.07946e+06
1.07948e+06
1.0795e+06
1.07952e+06
1.07955e+06
1.07957e+06
1.07959e+06
1.07962e+06
1.07964e+06
1.07966e+06
1.07969e+06
1.07971e+06
1.07973e+06
1.07976e+06
1.07978e+06
1.0798e+06
1.07983e+06
1.07985e+06
1.07987e+06
1.07989e+06
1.07992e+06
1.07994e+06
1.07996e+06
1.07999e+06
1.08001e+06
1.08003e+06
1.08006e+06
1.08008e+06
1.0801e+06
1.08013e+06
1.08015e+06
1.08017e+06
1.0802e+06
1.08022e+06
1.08024e+06
1.08026e+06
1.08029e+06
1.08031e+06
1.08033e+06
1.08036e+06
1.08038e+06
1.0804e+06
1.08043e+06
1.08045e+06
1.08047e+06
1.0805e+06
1.08052e+06
1.08054e+06
1.08057e+06
1.08059e+06
1.08061e+06
1.08064e+06
1.08066e+06
1.08068e+06
1.0807e+06
1.08073e+06
1.08075e+06
1.08077e+06
1.0808e+06
1.08082e+06
1.08084e+06
1.08087e+06
1.08089e+06
1.08091e+06
1.08094e+06
1.08096e+06
1.08098e+06
1.08101e+06
1.08103e+06
1.08105e+06
1.08108e+06
1.0811e+06
1.08112e+06
1.08115e+06
1.08117e+06
1.08119e+06
1.08122e+06
1.08124e+06
1.08126e+06
1.08129e+06
1.08131e+06
1.08133e+06
1.08136e+06
1.08138e+06
1.0814e+06
1.08143e+06
1.08145e+06
1.08147e+06
1.0815e+06
1.08152e+06
1.08154e+06
1.08156e+06
1.08159e+06
1.08161e+06
1.08163e+06
1.08166e+06
1.08168e+06
1.0817e+06
1.08173e+06
1.08175e+06
1.08177e+06
1.0818e+06
1.08182e+06
1.08184e+06
1.08187e+06
1.08189e+06
1.08191e+06
1.08194e+06
1.08196e+06
1.08198e+06
1.08201e+06
1.08203e+06
1.08205e+06
1.08208e+06
1.0821e+06
1.08212e+06
1.08215e+06
1.08217e+06
1.08219e+06
1.08222e+06
1.08224e+06
1.08226e+06
1.08229e+06
1.08231e+06
1.08233e+06
1.08236e+06
1.08238e+06
1.0824e+06
1.08243e+06
1.08245e+06
1.08247e+06
1.0825e+06
1.08252e+06
1.08254e+06
1.08257e+06
1.08259e+06
1.08262e+06
1.08264e+06
1.08266e+06
1.08269e+06
1.08271e+06
1.08273e+06
1.08276e+06
1.08278e+06
1.0828e+06
1.08283e+06
1.08285e+06
1.08287e+06
1.0829e+06
1.08292e+06
1.08294e+06
1.08297e+06
1.08299e+06
1.08301e+06
1.08304e+06
1.08306e+06
1.08308e+06
1.08311e+06
1.08313e+06
1.08315e+06
1.08318e+06
1.0832e+06
1.08322e+06
1.08325e+06
1.08327e+06
1.08329e+06
1.08332e+06
1.08334e+06
1.08336e+06
1.08339e+06
1.08341e+06
1.08343e+06
1.08346e+06
1.08348e+06
1.0835e+06
1.08353e+06
1.08355e+06
1.08358e+06
1.0836e+06
1.08362e+06
1.08365e+06
1.08367e+06
1.08369e+06
1.08372e+06
1.08374e+06
1.08376e+06
1.08379e+06
1.08381e+06
1.08383e+06
1.08386e+06
1.08388e+06
1.0839e+06
1.08393e+06
1.08395e+06
1.08397e+06
1.084e+06
1.08402e+06
1.08404e+06
1.08407e+06
1.08409e+06
1.08412e+06
1.08414e+06
1.08416e+06
1.08419e+06
1.08421e+06
1.08423e+06
1.08426e+06
1.08428e+06
1.0843e+06
1.08433e+06
1.08435e+06
1.08437e+06
1.0844e+06
1.08442e+06
1.08444e+06
1.08447e+06
1.08449e+06
1.08451e+06
1.08454e+06
1.08456e+06
1.08459e+06
1.08461e+06
1.08463e+06
1.08466e+06
1.08468e+06
1.0847e+06
1.08473e+06
1.08475e+06
1.08477e+06
1.0848e+06
1.08482e+06
1.08484e+06
1.08487e+06
1.08489e+06
1.08491e+06
1.08494e+06
1.08496e+06
1.08499e+06
1.08501e+06
1.08503e+06
1.08506e+06
1.08508e+06
1.0851e+06
1.08513e+06
1.08515e+06
1.08517e+06
1.0852e+06
1.08522e+06
1.08524e+06
1.08527e+06
1.08529e+06
1.08532e+06
1.08534e+06
1.08536e+06
1.08539e+06
1.08541e+06
1.08543e+06
1.08546e+06
1.08548e+06
1.0855e+06
1.08553e+06
1.08555e+06
1.08557e+06
1.0856e+06
1.08562e+06
1.08565e+06
1.08567e+06
1.08569e+06
1.08572e+06
1.08574e+06
1.08576e+06
1.08579e+06
1.08581e+06
1.08583e+06
1.08586e+06
1.08588e+06
1.0859e+06
1.08593e+06
1.08595e+06
1.08598e+06
1.086e+06
1.08602e+06
1.08605e+06
1.08607e+06
1.08609e+06
1.08612e+06
1.08614e+06
1.08616e+06
1.08619e+06
1.08621e+06
1.08623e+06
1.08626e+06
1.08628e+06
1.08631e+06
1.08633e+06
1.08635e+06
1.08638e+06
1.0864e+06
1.08642e+06
1.08645e+06
1.08647e+06
1.08649e+06
1.08652e+06
1.08654e+06
1.08657e+06
1.08659e+06
1.08661e+06
1.08664e+06
1.08666e+06
1.08668e+06
1.08671e+06
1.08673e+06
1.08675e+06
1.08678e+06
1.0868e+06
1.08683e+06
1.08685e+06
1.08687e+06
1.0869e+06
1.08692e+06
1.08694e+06
1.08697e+06
1.08699e+06
1.08702e+06
1.08704e+06
1.08706e+06
1.08709e+06
1.08711e+06
1.08713e+06
1.08716e+06
1.08718e+06
1.08721e+06
1.08723e+06
1.08725e+06
1.08728e+06
1.0873e+06
1.08732e+06
1.08735e+06
1.08737e+06
1.0874e+06
1.08742e+06
1.08744e+06
1.08747e+06
1.08749e+06
1.08752e+06
1.08754e+06
1.08756e+06
1.08759e+06
1.08761e+06
1.08763e+06
1.08766e+06
1.08768e+06
1.0877e+06
1.08773e+06
1.08775e+06
1.08777e+06
1.0878e+06
1.08782e+06
1.08784e+06
1.08787e+06
1.08789e+06
1.08791e+06
1.08793e+06
1.08796e+06
1.08798e+06
1.088e+06
1.08803e+06
1.08805e+06
1.08807e+06
1.0881e+06
1.08812e+06
1.08814e+06
1.08816e+06
1.08819e+06
1.08821e+06
1.08823e+06
1.08826e+06
1.08828e+06
1.08831e+06
1.08833e+06
1.08835e+06
1.08838e+06
1.0884e+06
1.08843e+06
1.08845e+06
1.08847e+06
1.0885e+06
1.08852e+06
1.08855e+06
1.08857e+06
1.08859e+06
1.08862e+06
1.08864e+06
1.08867e+06
1.08869e+06
1.08872e+06
1.08874e+06
1.08876e+06
1.08879e+06
1.08881e+06
1.08884e+06
1.08886e+06
1.08888e+06
1.08891e+06
1.08893e+06
1.08895e+06
1.08898e+06
1.089e+06
1.08903e+06
1.08905e+06
1.08907e+06
1.0891e+06
1.08912e+06
1.08914e+06
1.08917e+06
1.08919e+06
1.08921e+06
1.08924e+06
1.08926e+06
1.08928e+06
1.08931e+06
1.08933e+06
1.08936e+06
1.08938e+06
1.0894e+06
1.08943e+06
1.08945e+06
1.08947e+06
1.0895e+06
1.08952e+06
1.08954e+06
1.08957e+06
1.08959e+06
1.08962e+06
1.08964e+06
1.08967e+06
1.08968e+06
1.08972e+06
1.08972e+06
1.08977e+06
1.08976e+06
1.08983e+06
1.0898e+06
1.0899e+06
1.08982e+06
1.08998e+06
1.08982e+06
1.09007e+06
1.08981e+06
1.0902e+06
1.08976e+06
1.09037e+06
1.08966e+06
1.09058e+06
1.08952e+06
1.09085e+06
1.08931e+06
1.09118e+06
1.08907e+06
1.09152e+06
1.08882e+06
1.09183e+06
1.08866e+06
1.09199e+06
1.08874e+06
1.09183e+06
1.08922e+06
1.09116e+06
1.0903e+06
1.09012e+06
1.09073e+06
1.09061e+06
1.09039e+06
1.09056e+06
1.09071e+06
1.09058e+06
1.09058e+06
1.09062e+06
1.09076e+06
1.0907e+06
1.09072e+06
1.09071e+06
1.09083e+06
1.09079e+06
1.09083e+06
1.0908e+06
1.09092e+06
1.0908e+06
1.09123e+06
1.09022e+06
1.09226e+06
1.089e+06
1.09377e+06
1.0875e+06
1.09528e+06
1.08635e+06
1.0961e+06
1.08623e+06
1.09557e+06
1.08769e+06
1.09336e+06
1.09074e+06
1.09003e+06
1.09398e+06
1.08727e+06
1.09644e+06
1.08551e+06
1.09742e+06
1.08566e+06
1.09627e+06
1.08794e+06
1.09321e+06
1.09166e+06
1.08949e+06
1.09517e+06
1.08654e+06
1.09749e+06
1.08543e+06
1.09745e+06
1.0867e+06
1.09529e+06
1.08978e+06
1.09169e+06
1.0938e+06
1.08777e+06
1.09744e+06
1.08505e+06
1.09896e+06
1.08532e+06
1.09683e+06
1.08947e+06
1.09125e+06
1.09589e+06
1.08526e+06
1.10047e+06
1.08329e+06
1.09948e+06
1.08731e+06
1.09338e+06
1.09446e+06
1.08675e+06
1.09958e+06
1.08407e+06
1.09978e+06
1.08635e+06
1.09566e+06
1.09186e+06
1.08966e+06
1.09778e+06
1.08485e+06
1.10083e+06
1.0845e+06
1.09822e+06
1.09013e+06
1.09055e+06
1.09857e+06
1.0834e+06
1.10278e+06
1.08363e+06
1.09801e+06
1.09217e+06
1.08796e+06
1.10127e+06
1.0824e+06
1.10209e+06
1.08644e+06
1.09477e+06
1.09516e+06
1.08681e+06
1.10115e+06
1.08376e+06
1.101e+06
1.08755e+06
1.09394e+06
1.09705e+06
1.08429e+06
1.10421e+06
1.08235e+06
1.09994e+06
1.09217e+06
1.08763e+06
1.10324e+06
1.08136e+06
1.10318e+06
1.08764e+06
1.09304e+06
1.09865e+06
1.08434e+06
1.10337e+06
1.08425e+06
1.09941e+06
1.09184e+06
1.08937e+06
1.10249e+06
1.08145e+06
1.10465e+06
1.08691e+06
1.09261e+06
1.10163e+06
1.08121e+06
1.10589e+06
1.08521e+06
1.09582e+06
1.09772e+06
1.08473e+06
1.10492e+06
1.08322e+06
1.10045e+06
1.09299e+06
1.08797e+06
1.10461e+06
1.08138e+06
1.10385e+06
1.08964e+06
1.09065e+06
1.10397e+06
1.08033e+06
1.10615e+06
1.0878e+06
1.09201e+06
1.10316e+06
1.08137e+06
1.10588e+06
1.08692e+06
1.09461e+06
1.10045e+06
1.08295e+06
1.10687e+06
1.08441e+06
1.09733e+06
1.09963e+06
1.08201e+06
1.10891e+06
1.08338e+06
1.09704e+06
1.101e+06
1.08156e+06
1.10809e+06
1.08503e+06
1.09682e+06
1.0996e+06
1.08365e+06
1.10785e+06
1.08346e+06
1.09883e+06
1.09987e+06
1.08136e+06
1.11038e+06
1.0838e+06
1.09573e+06
1.10357e+06
1.08071e+06
1.10792e+06
1.08714e+06
1.09487e+06
1.10249e+06
1.08163e+06
1.10915e+06
1.0859e+06
1.09376e+06
1.10669e+06
1.0781e+06
1.10868e+06
1.09107e+06
1.08836e+06
1.10844e+06
1.08103e+06
1.10479e+06
1.09331e+06
1.08819e+06
1.10898e+06
1.08011e+06
1.10442e+06
1.09731e+06
1.08259e+06
1.11211e+06
1.08312e+06
1.09738e+06
1.10365e+06
1.08138e+06
1.10906e+06
1.08784e+06
1.09371e+06
1.10647e+06
1.08004e+06
1.10796e+06
1.09285e+06
1.08705e+06
1.11101e+06
1.08152e+06
1.10143e+06
1.10074e+06
1.08272e+06
1.11028e+06
1.08687e+06
1.09459e+06
1.10628e+06
1.08151e+06
1.10701e+06
1.09348e+06
1.08811e+06
1.10994e+06
1.08324e+06
1.10059e+06
1.1017e+06
1.08341e+06
1.1087e+06
1.08978e+06
1.09327e+06
1.10644e+06
1.08326e+06
1.105e+06
1.09656e+06
1.08644e+06
1.1098e+06
1.08686e+06
1.09636e+06
1.10488e+06
1.0844e+06
1.10543e+06
1.09415e+06
1.0907e+06
1.10786e+06
1.08494e+06
1.10073e+06
1.10299e+06
1.08331e+06
1.1074e+06
1.09453e+06
1.09016e+06
1.10663e+06
1.08763e+06
1.10104e+06
1.1e+06
1.08595e+06
1.10847e+06
1.09242e+06
1.09088e+06
1.10799e+06
1.08755e+06
1.09963e+06
1.10126e+06
1.08755e+06
1.10653e+06
1.09273e+06
1.09235e+06
1.10788e+06
1.08724e+06
1.09919e+06
1.10304e+06
1.08732e+06
1.10513e+06
1.09506e+06
1.09165e+06
1.10722e+06
1.08904e+06
1.09805e+06
1.1039e+06
1.08753e+06
1.10417e+06
1.09737e+06
1.09014e+06
1.10709e+06
1.09161e+06
1.09555e+06
1.10513e+06
1.08883e+06
1.10199e+06
1.09986e+06
1.08924e+06
1.10642e+06
1.09444e+06
1.09271e+06
1.10652e+06
1.09097e+06
1.0984e+06
1.10262e+06
1.0897e+06
1.10418e+06
1.09767e+06
1.09062e+06
1.10679e+06
1.09387e+06
1.0945e+06
1.10519e+06
1.09124e+06
1.10028e+06
1.10151e+06
1.09006e+06
1.10469e+06
1.09777e+06
1.09162e+06
1.10591e+06
1.09427e+06
1.09578e+06
1.10464e+06
1.0915e+06
1.10056e+06
1.10193e+06
1.09059e+06
1.10412e+06
1.09869e+06
1.09195e+06
1.10522e+06
1.09562e+06
1.09583e+06
1.10433e+06
1.09221e+06
1.10016e+06
1.10341e+06
1.0907e+06
1.10228e+06
1.10092e+06
1.09272e+06
1.10387e+06
1.09659e+06
1.09542e+06
1.1055e+06
1.09353e+06
1.0973e+06
1.10496e+06
1.09309e+06
1.10011e+06
1.10185e+06
1.09296e+06
1.1035e+06
1.09923e+06
1.09328e+06
1.10491e+06
1.09726e+06
1.09532e+06
1.10467e+06
1.09507e+06
1.09828e+06
1.10407e+06
1.09345e+06
1.10055e+06
1.1026e+06
1.09345e+06
1.10275e+06
1.10037e+06
1.09382e+06
1.1041e+06
1.09867e+06
1.09554e+06
1.10429e+06
1.09621e+06
1.09771e+06
1.10487e+06
1.09475e+06
1.09884e+06
1.10381e+06
1.09507e+06
1.10122e+06
1.10153e+06
1.09425e+06
1.10347e+06
1.10088e+06
1.09442e+06
1.10357e+06
1.09947e+06
1.09653e+06
1.104e+06
1.09697e+06
1.09785e+06
1.1051e+06
1.09613e+06
1.09816e+06
1.10402e+06
1.09658e+06
1.10074e+06
1.1022e+06
1.09477e+06
1.10259e+06
1.10293e+06
1.09511e+06
1.10194e+06
1.10093e+06
1.09693e+06
1.10405e+06
1.09898e+06
1.09616e+06
1.10474e+06
1.09945e+06
1.09747e+06
1.10356e+06
1.09778e+06
1.09938e+06
1.10455e+06
1.09683e+06
1.09934e+06
1.10396e+06
1.09714e+06
1.10084e+06
1.10308e+06
1.09653e+06
1.10181e+06
1.10273e+06
1.09665e+06
1.10256e+06
1.10203e+06
1.09671e+06
1.10305e+06
1.10146e+06
1.09746e+06
1.10351e+06
1.10026e+06
1.09762e+06
1.10437e+06
1.10032e+06
1.09782e+06
1.10364e+06
1.09967e+06
1.09949e+06
1.10441e+06
1.09841e+06
1.09879e+06
1.10454e+06
1.09962e+06
1.10011e+06
1.10328e+06
1.09787e+06
1.101e+06
1.10481e+06
1.09846e+06
1.10032e+06
1.10314e+06
1.09872e+06
1.10235e+06
1.10359e+06
1.09758e+06
1.10152e+06
1.10355e+06
1.09887e+06
1.10246e+06
1.10249e+06
1.09804e+06
1.10287e+06
1.10318e+06
1.0986e+06
1.10276e+06
1.10241e+06
1.0987e+06
1.10335e+06
1.10231e+06
1.09876e+06
1.10348e+06
1.10237e+06
1.09901e+06
1.10341e+06
1.102e+06
1.09929e+06
1.10398e+06
1.102e+06
1.0992e+06
1.10369e+06
1.10195e+06
1.09968e+06
1.10391e+06
1.10173e+06
1.09959e+06
1.10412e+06
1.10191e+06
1.09981e+06
1.10389e+06
1.10173e+06
1.10014e+06
1.10424e+06
1.1018e+06
1.09992e+06
1.10409e+06
1.102e+06
1.10048e+06
1.10421e+06
1.10168e+06
1.10022e+06
1.1043e+06
1.10229e+06
1.10055e+06
1.10405e+06
1.10179e+06
1.10053e+06
1.10454e+06
1.10246e+06
1.10062e+06
1.1039e+06
1.10207e+06
1.10075e+06
1.1046e+06
1.10268e+06
1.10069e+06
1.10397e+06
1.10237e+06
1.1009e+06
1.10439e+06
1.10288e+06
1.10078e+06
1.10406e+06
1.10285e+06
1.10099e+06
1.10426e+06
1.10307e+06
1.10095e+06
1.10403e+06
1.10333e+06
1.10112e+06
1.10409e+06
1.10344e+06
1.10108e+06
1.104e+06
1.1037e+06
1.1013e+06
1.10385e+06
1.10383e+06
1.10127e+06
1.10382e+06
1.10411e+06
1.10144e+06
1.10365e+06
1.10414e+06
1.10156e+06
1.10355e+06
1.10449e+06
1.10174e+06
1.1034e+06
1.10453e+06
1.10187e+06
1.1033e+06
1.1047e+06
1.10213e+06
1.10309e+06
1.10485e+06
1.10235e+06
1.10302e+06
1.10492e+06
1.10253e+06
1.10284e+06
1.10497e+06
1.10298e+06
1.10281e+06
1.10504e+06
1.10305e+06
1.10248e+06
1.10487e+06
1.10346e+06
1.10272e+06
1.10504e+06
1.10385e+06
1.10243e+06
1.1047e+06
1.10395e+06
1.10252e+06
1.10477e+06
1.10446e+06
1.10265e+06
1.1045e+06
1.10466e+06
1.10269e+06
1.10443e+06
1.10495e+06
1.10285e+06
1.10406e+06
1.10496e+06
1.10298e+06
1.10392e+06
1.10538e+06
1.1034e+06
1.10382e+06
1.10528e+06
1.10349e+06
1.10347e+06
1.10535e+06
1.10401e+06
1.10354e+06
1.10546e+06
1.10424e+06
1.10331e+06
1.10514e+06
1.10457e+06
1.1034e+06
1.10524e+06
1.1051e+06
1.10348e+06
1.10493e+06
1.10507e+06
1.10338e+06
1.10453e+06
1.10541e+06
1.1038e+06
1.10464e+06
1.10581e+06
1.10411e+06
1.10431e+06
1.10556e+06
1.10415e+06
1.10391e+06
1.10563e+06
1.1047e+06
1.10415e+06
1.10581e+06
1.10511e+06
1.10397e+06
1.10531e+06
1.10517e+06
1.10385e+06
1.10527e+06
1.10574e+06
1.10439e+06
1.10528e+06
1.10594e+06
1.10436e+06
1.10463e+06
1.10577e+06
1.10451e+06
1.10466e+06
1.10614e+06
1.10529e+06
1.10476e+06
1.10605e+06
1.10533e+06
1.10424e+06
1.10552e+06
1.10541e+06
1.10441e+06
1.1056e+06
1.10613e+06
1.10487e+06
1.10552e+06
1.10622e+06
1.10485e+06
1.10504e+06
1.1061e+06
1.10521e+06
1.10504e+06
1.10644e+06
1.10582e+06
1.10516e+06
1.1063e+06
1.10595e+06
1.10489e+06
1.10578e+06
1.10606e+06
1.10491e+06
1.10569e+06
1.10642e+06
1.10541e+06
1.10567e+06
1.10665e+06
1.10574e+06
1.10543e+06
1.10653e+06
1.10589e+06
1.10525e+06
1.10626e+06
1.10619e+06
1.10527e+06
1.10615e+06
1.10655e+06
1.10556e+06
1.10612e+06
1.10685e+06
1.10598e+06
1.10598e+06
1.10695e+06
1.10619e+06
1.10576e+06
1.10669e+06
1.10636e+06
1.10562e+06
1.10648e+06
1.10671e+06
1.10582e+06
1.1065e+06
1.10707e+06
1.10624e+06
1.10637e+06
1.10717e+06
1.10642e+06
1.10604e+06
1.1069e+06
1.10647e+06
1.10583e+06
1.10659e+06
1.10673e+06
1.10593e+06
1.10654e+06
1.10706e+06
1.10629e+06
1.10647e+06
1.1072e+06
1.10658e+06
1.10622e+06
1.10702e+06
1.10664e+06
1.106e+06
1.10663e+06
1.10673e+06
1.10594e+06
1.10636e+06
1.10689e+06
1.10616e+06
1.10627e+06
1.10698e+06
1.10655e+06
1.10621e+06
1.107e+06
1.10686e+06
1.10625e+06
1.10686e+06
1.10709e+06
1.10642e+06
1.10667e+06
1.1073e+06
1.1067e+06
1.10667e+06
1.1074e+06
1.10716e+06
1.10677e+06
1.10748e+06
1.10761e+06
1.10701e+06
1.1075e+06
1.1079e+06
1.10735e+06
1.1074e+06
1.10806e+06
1.10763e+06
1.10734e+06
1.10798e+06
1.10788e+06
1.10734e+06
1.10776e+06
1.10805e+06
1.1074e+06
1.10757e+06
1.10805e+06
1.10761e+06
1.10738e+06
1.10798e+06
1.10782e+06
1.10733e+06
1.10783e+06
1.10798e+06
1.10746e+06
1.10762e+06
1.10811e+06
1.10764e+06
1.10752e+06
1.10808e+06
1.10789e+06
1.1075e+06
1.10795e+06
1.10813e+06
1.10758e+06
1.10783e+06
1.10822e+06
1.10783e+06
1.10769e+06
1.10824e+06
1.10806e+06
1.10769e+06
1.10814e+06
1.10826e+06
1.10782e+06
1.10798e+06
1.10841e+06
1.108e+06
1.1079e+06
1.10838e+06
1.10826e+06
1.10789e+06
1.10828e+06
1.10847e+06
1.108e+06
1.10817e+06
1.10854e+06
1.10824e+06
1.10806e+06
1.10854e+06
1.10845e+06
1.1081e+06
1.10843e+06
1.10863e+06
1.10824e+06
1.10829e+06
1.10872e+06
1.10843e+06
1.10826e+06
1.10865e+06
1.10868e+06
1.10829e+06
1.10855e+06