/*--------------------------------*- C++ -*----------------------------------*\
  =========                 |
  \\      /  F ield         | OpenFOAM: The Open Source CFD Toolbox
   \\    /   O peration     | Website:  https://openfoam.org
    \\  /    A nd           | Version:  9
     \\/     M anipulation  |
\*---------------------------------------------------------------------------*/
FoamFile
{
    format      ascii;
    class       surfaceScalarField;
    location    "0.02";
    object      ddtCorrDdt0(phi);
}
// * * * * * * * * * * * * * * * * * * * * * * * * * * * * * * * * * * * * * //

dimensions      [1 0 -2 0 0 0 0];

internalField   nonuniform List<scalar> 
9999
(
323.039
301.869
280.673
259.462
238.296
217.182
196.068
174.896
153.65
132.347
111.022
89.7074
68.4182
47.1634
25.9398
4.74199
-16.4585
-37.678
-58.8888
-80.0731
-101.257
-122.441
-143.628
-164.815
-186.002
-207.188
-228.376
-249.564
-270.751
-291.938
-313.124
-334.313
-355.501
-376.688
-397.875
-419.06
-440.248
-461.436
-482.626
-503.815
-525.003
-546.191
-567.378
-588.564
-609.751
-630.937
-652.124
-673.312
-694.499
-715.686
-736.874
-758.061
-779.248
-800.436
-821.624
-842.811
-863.998
-885.186
-906.374
-927.561
-948.748
-969.936
-991.124
-1012.31
-1033.5
-1054.68
-1075.87
-1097.06
-1118.25
-1139.43
-1160.62
-1181.81
-1203
-1224.19
-1245.37
-1266.56
-1287.74
-1308.93
-1330.12
-1351.3
-1372.49
-1393.68
-1414.87
-1436.05
-1457.24
-1478.43
-1499.62
-1520.8
-1541.99
-1563.18
-1584.36
-1605.55
-1626.74
-1647.92
-1669.11
-1690.3
-1711.48
-1732.67
-1753.86
-1775.04
-1796.23
-1817.42
-1838.6
-1859.79
-1880.98
-1902.16
-1923.35
-1944.53
-1965.72
-1986.91
-2008.09
-2029.28
-2050.46
-2071.65
-2092.84
-2114.02
-2135.21
-2156.39
-2177.58
-2198.77
-2219.95
-2241.14
-2262.32
-2283.51
-2304.69
-2325.88
-2347.06
-2368.25
-2389.43
-2410.62
-2431.8
-2452.99
-2474.18
-2495.36
-2516.55
-2537.73
-2558.92
-2580.1
-2601.28
-2622.47
-2643.65
-2664.84
-2686.02
-2707.2
-2728.39
-2749.57
-2770.76
-2791.94
-2813.12
-2834.31
-2855.49
-2876.67
-2897.86
-2919.04
-2940.23
-2961.41
-2982.59
-3003.77
-3024.96
-3046.14
-3067.32
-3088.51
-3109.69
-3130.87
-3152.06
-3173.24
-3194.42
-3215.6
-3236.78
-3257.96
-3279.15
-3300.33
-3321.51
-3342.69
-3363.87
-3385.06
-3406.24
-3427.42
-3448.6
-3469.78
-3490.96
-3512.14
-3533.32
-3554.51
-3575.69
-3596.87
-3618.05
-3639.23
-3660.41
-3681.59
-3702.77
-3723.95
-3745.13
-3766.31
-3787.49
-3808.67
-3829.85
-3851.03
-3872.2
-3893.38
-3914.56
-3935.74
-3956.92
-3978.1
-3999.28
-4020.46
-4041.63
-4062.81
-4083.99
-4105.17
-4126.35
-4147.52
-4168.7
-4189.88
-4211.06
-4232.23
-4253.41
-4274.59
-4295.76
-4316.94
-4338.12
-4359.29
-4380.47
-4401.65
-4422.82
-4444
-4465.17
-4486.35
-4507.53
-4528.7
-4549.88
-4571.05
-4592.23
-4613.4
-4634.58
-4655.75
-4676.93
-4698.1
-4719.27
-4740.45
-4761.62
-4782.8
-4803.97
-4825.14
-4846.32
-4867.49
-4888.66
-4909.83
-4931.01
-4952.18
-4973.35
-4994.53
-5015.7
-5036.87
-5058.04
-5079.21
-5100.38
-5121.56
-5142.73
-5163.9
-5185.07
-5206.24
-5227.41
-5248.58
-5269.75
-5290.92
-5312.09
-5333.26
-5354.43
-5375.6
-5396.77
-5417.94
-5439.11
-5460.27
-5481.44
-5502.61
-5523.78
-5544.95
-5566.12
-5587.28
-5608.45
-5629.62
-5650.79
-5671.95
-5693.12
-5714.29
-5735.45
-5756.62
-5777.79
-5798.95
-5820.12
-5841.29
-5862.45
-5883.62
-5904.78
-5925.95
-5947.11
-5968.28
-5989.44
-6010.6
-6031.77
-6052.93
-6074.1
-6095.26
-6116.42
-6137.59
-6158.75
-6179.91
-6201.07
-6222.24
-6243.4
-6264.56
-6285.72
-6306.89
-6328.05
-6349.21
-6370.37
-6391.53
-6412.69
-6433.85
-6455.01
-6476.17
-6497.33
-6518.49
-6539.65
-6560.81
-6581.97
-6603.13
-6624.29
-6645.44
-6666.6
-6687.76
-6708.92
-6730.08
-6751.23
-6772.39
-6793.55
-6814.71
-6835.86
-6857.02
-6878.18
-6899.33
-6920.49
-6941.64
-6962.8
-6983.95
-7005.11
-7026.26
-7047.42
-7068.57
-7089.73
-7110.88
-7132.03
-7153.19
-7174.34
-7195.49
-7216.64
-7237.8
-7258.95
-7280.1
-7301.25
-7322.4
-7343.56
-7364.71
-7385.86
-7407.01
-7428.16
-7449.31
-7470.46
-7491.61
-7512.76
-7533.91
-7555.06
-7576.2
-7597.35
-7618.5
-7639.65
-7660.8
-7681.95
-7703.09
-7724.24
-7745.39
-7766.53
-7787.68
-7808.83
-7829.97
-7851.12
-7872.27
-7893.41
-7914.56
-7935.7
-7956.85
-7977.99
-7999.13
-8020.28
-8041.42
-8062.56
-8083.71
-8104.85
-8125.99
-8147.14
-8168.28
-8189.42
-8210.56
-8231.7
-8252.84
-8273.98
-8295.12
-8316.26
-8337.4
-8358.54
-8379.68
-8400.82
-8421.96
-8443.1
-8464.24
-8485.38
-8506.52
-8527.65
-8548.79
-8569.93
-8591.07
-8612.2
-8633.34
-8654.47
-8675.61
-8696.75
-8717.88
-8739.02
-8760.15
-8781.29
-8802.42
-8823.55
-8844.69
-8865.82
-8886.95
-8908.09
-8929.22
-8950.35
-8971.48
-8992.62
-9013.75
-9034.88
-9056.01
-9077.14
-9098.27
-9119.4
-9140.53
-9161.66
-9182.79
-9203.92
-9225.05
-9246.18
-9267.31
-9288.43
-9309.56
-9330.69
-9351.82
-9372.94
-9394.07
-9415.19
-9436.32
-9457.45
-9478.57
-9499.7
-9520.82
-9541.94
-9563.07
-9584.19
-9605.32
-9626.44
-9647.56
-9668.69
-9689.81
-9710.93
-9732.05
-9753.17
-9774.29
-9795.41
-9816.53
-9837.66
-9858.77
-9879.89
-9901.01
-9922.13
-9943.25
-9964.37
-9985.49
-10006.6
-10027.7
-10048.8
-10070
-10091.1
-10112.2
-10133.3
-10154.4
-10175.5
-10196.7
-10217.8
-10238.9
-10260
-10281.1
-10302.2
-10323.3
-10344.4
-10365.6
-10386.7
-10407.8
-10428.9
-10450
-10471.1
-10492.2
-10513.3
-10534.4
-10555.6
-10576.7
-10597.8
-10618.9
-10640
-10661.1
-10682.2
-10703.3
-10724.4
-10745.5
-10766.6
-10787.7
-10808.8
-10830
-10851.1
-10872.2
-10893.3
-10914.4
-10935.5
-10956.6
-10977.7
-10998.8
-11019.9
-11041
-11062.1
-11083.2
-11104.3
-11125.4
-11146.5
-11167.6
-11188.7
-11209.8
-11230.9
-11252
-11273.1
-11294.2
-11315.3
-11336.4
-11357.5
-11378.6
-11399.7
-11420.8
-11441.9
-11462.9
-11484
-11505.1
-11526.2
-11547.3
-11568.4
-11589.5
-11610.6
-11631.7
-11652.8
-11673.9
-11695
-11716.1
-11737.1
-11758.2
-11779.3
-11800.4
-11821.5
-11842.6
-11863.7
-11884.8
-11905.9
-11926.9
-11948
-11969.1
-11990.2
-12011.3
-12032.4
-12053.5
-12074.5
-12095.6
-12116.7
-12137.8
-12158.9
-12179.9
-12201
-12222.1
-12243.2
-12264.3
-12285.3
-12306.4
-12327.5
-12348.6
-12369.7
-12390.7
-12411.8
-12432.9
-12454
-12475
-12496.1
-12517.2
-12538.3
-12559.3
-12580.4
-12601.5
-12622.6
-12643.6
-12664.7
-12685.8
-12706.9
-12727.9
-12749
-12770.1
-12791.1
-12812.2
-12833.3
-12854.3
-12875.4
-12896.5
-12917.5
-12938.6
-12959.7
-12980.7
-13001.8
-13022.9
-13043.9
-13065
-13086.1
-13107.1
-13128.2
-13149.3
-13170.3
-13191.4
-13212.4
-13233.5
-13254.6
-13275.6
-13296.7
-13317.7
-13338.8
-13359.9
-13380.9
-13402
-13423
-13444.1
-13465.1
-13486.2
-13507.2
-13528.3
-13549.3
-13570.4
-13591.5
-13612.5
-13633.6
-13654.6
-13675.7
-13696.7
-13717.8
-13738.8
-13759.9
-13780.9
-13801.9
-13823
-13844
-13865.1
-13886.1
-13907.2
-13928.2
-13949.3
-13970.3
-13991.4
-14012.4
-14033.4
-14054.5
-14075.5
-14096.6
-14117.6
-14138.6
-14159.7
-14180.7
-14201.8
-14222.8
-14243.8
-14264.9
-14285.9
-14306.9
-14328
-14349
-14370
-14391.1
-14412.1
-14433.1
-14454.2
-14475.2
-14496.2
-14517.3
-14538.3
-14559.3
-14580.3
-14601.4
-14622.4
-14643.4
-14664.4
-14685.5
-14706.5
-14727.5
-14748.5
-14769.6
-14790.6
-14811.6
-14832.6
-14853.7
-14874.7
-14895.7
-14916.7
-14937.7
-14958.7
-14979.8
-15000.8
-15021.8
-15042.8
-15063.8
-15084.8
-15105.9
-15126.9
-15147.9
-15168.9
-15189.9
-15210.9
-15231.9
-15252.9
-15274
-15295
-15316
-15337
-15358
-15379
-15400
-15421
-15442
-15463
-15484
-15505
-15526
-15547
-15568
-15589
-15610
-15631
-15652
-15673
-15694
-15715
-15736
-15757
-15778
-15799
-15820
-15841
-15862
-15883
-15904
-15925
-15946
-15967
-15988
-16008.9
-16029.9
-16050.9
-16071.9
-16092.9
-16113.9
-16134.9
-16155.9
-16176.8
-16197.8
-16218.8
-16239.8
-16260.8
-16281.8
-16302.7
-16323.7
-16344.7
-16365.7
-16386.7
-16407.6
-16428.6
-16449.6
-16470.6
-16491.5
-16512.5
-16533.5
-16554.5
-16575.4
-16596.4
-16617.4
-16638.4
-16659.3
-16680.3
-16701.3
-16722.2
-16743.2
-16764.2
-16785.1
-16806.1
-16827.1
-16848
-16869
-16890
-16910.9
-16931.9
-16952.9
-16973.8
-16994.8
-17015.7
-17036.7
-17057.7
-17078.6
-17099.6
-17120.5
-17141.5
-17162.4
-17183.4
-17204.3
-17225.3
-17246.3
-17267.2
-17288.2
-17309.1
-17330.1
-17351
-17372
-17392.9
-17413.9
-17434.8
-17455.8
-17476.7
-17497.6
-17518.6
-17539.5
-17560.5
-17581.4
-17602.4
-17623.3
-17644.2
-17665.2
-17686.1
-17707.1
-17728
-17748.9
-17769.9
-17790.8
-17811.8
-17832.7
-17853.6
-17874.6
-17895.5
-17916.4
-17937.4
-17958.3
-17979.2
-18000.1
-18021.1
-18042
-18062.9
-18083.9
-18104.8
-18125.7
-18146.6
-18167.6
-18188.5
-18209.4
-18230.3
-18251.3
-18272.2
-18293.1
-18314
-18334.9
-18355.9
-18376.8
-18397.7
-18418.6
-18439.5
-18460.4
-18481.3
-18502.3
-18523.2
-18544.1
-18565
-18585.9
-18606.8
-18627.7
-18648.6
-18669.5
-18690.4
-18711.4
-18732.3
-18753.2
-18774.1
-18795
-18815.9
-18836.8
-18857.7
-18878.6
-18899.5
-18920.4
-18941.3
-18962.2
-18983.1
-19004
-19024.9
-19045.8
-19066.7
-19087.6
-19108.4
-19129.3
-19150.2
-19171.1
-19192
-19212.9
-19233.8
-19254.7
-19275.6
-19296.5
-19317.3
-19338.2
-19359.1
-19380
-19400.9
-19421.8
-19442.6
-19463.5
-19484.4
-19505.3
-19526.2
-19547
-19567.9
-19588.8
-19609.7
-19630.5
-19651.4
-19672.3
-19693.2
-19714
-19734.9
-19755.8
-19776.6
-19797.5
-19818.4
-19839.3
-19860.1
-19881
-19901.8
-19922.7
-19943.6
-19964.4
-19985.3
-20006.2
-20027
-20047.9
-20068.7
-20089.6
-20110.5
-20131.3
-20152.2
-20173
-20193.9
-20214.7
-20235.6
-20256.4
-20277.3
-20298.1
-20319
-20339.8
-20360.7
-20381.5
-20402.4
-20423.2
-20444.1
-20464.9
-20485.8
-20506.6
-20527.5
-20548.3
-20569.1
-20590
-20610.8
-20631.7
-20652.5
-20673.3
-20694.2
-20715
-20735.8
-20756.7
-20777.5
-20798.3
-20819.2
-20840
-20860.8
-20881.7
-20902.5
-20923.3
-20944.2
-20965
-20985.8
-21006.6
-21027.5
-21048.3
-21069.1
-21089.9
-21110.7
-21131.6
-21152.4
-21173.2
-21194
-21214.8
-21235.6
-21256.5
-21277.3
-21298.1
-21318.9
-21339.7
-21360.5
-21381.3
-21402.1
-21423
-21443.8
-21464.6
-21485.4
-21506.2
-21527
-21547.8
-21568.6
-21589.4
-21610.2
-21631
-21651.8
-21672.6
-21693.4
-21714.2
-21735
-21755.8
-21776.6
-21797.4
-21818.2
-21839
-21859.8
-21880.5
-21901.3
-21922.1
-21942.9
-21963.7
-21984.5
-22005.3
-22026.1
-22046.8
-22067.6
-22088.4
-22109.2
-22130
-22150.8
-22171.5
-22192.3
-22213.1
-22233.9
-22254.6
-22275.4
-22296.2
-22317
-22337.7
-22358.5
-22379.3
-22400.1
-22420.8
-22441.6
-22462.4
-22483.1
-22503.9
-22524.7
-22545.4
-22566.2
-22587
-22607.7
-22628.5
-22649.2
-22670
-22690.8
-22711.5
-22732.3
-22753
-22773.8
-22794.5
-22815.3
-22836
-22856.8
-22877.5
-22898.3
-22919
-22939.8
-22960.5
-22981.3
-23002
-23022.8
-23043.5
-23064.3
-23085
-23105.7
-23126.5
-23147.2
-23168
-23188.7
-23209.4
-23230.2
-23250.9
-23271.6
-23292.4
-23313.1
-23333.8
-23354.6
-23375.3
-23396
-23416.8
-23437.5
-23458.2
-23478.9
-23499.7
-23520.4
-23541.1
-23561.8
-23582.6
-23603.3
-23624
-23644.7
-23665.4
-23686.1
-23706.9
-23727.6
-23748.3
-23769
-23789.7
-23810.4
-23831.1
-23851.9
-23872.6
-23893.3
-23914
-23934.7
-23955.4
-23976.1
-23996.8
-24017.5
-24038.2
-24058.9
-24079.6
-24100.3
-24121
-24141.7
-24162.4
-24183.1
-24203.8
-24224.5
-24245.2
-24265.9
-24286.6
-24307.2
-24327.9
-24348.6
-24369.3
-24390
-24410.7
-24431.4
-24452.1
-24472.7
-24493.4
-24514.1
-24534.8
-24555.5
-24576.1
-24596.8
-24617.5
-24638.2
-24658.8
-24679.5
-24700.2
-24720.9
-24741.5
-24762.2
-24782.9
-24803.5
-24824.2
-24844.9
-24865.5
-24886.2
-24906.9
-24927.5
-24948.2
-24968.9
-24989.5
-25010.2
-25030.8
-25051.5
-25072.1
-25092.8
-25113.5
-25134.1
-25154.8
-25175.4
-25196.1
-25216.7
-25237.4
-25258
-25278.7
-25299.3
-25319.9
-25340.6
-25361.2
-25381.9
-25402.5
-25423.2
-25443.8
-25464.4
-25485.1
-25505.7
-25526.3
-25547
-25567.6
-25588.2
-25608.9
-25629.5
-25650.1
-25670.8
-25691.4
-25712
-25732.6
-25753.3
-25773.9
-25794.5
-25815.1
-25835.7
-25856.4
-25877
-25897.6
-25918.2
-25938.8
-25959.4
-25980.1
-26000.7
-26021.3
-26041.9
-26062.5
-26083.1
-26103.7
-26124.3
-26144.9
-26165.5
-26186.1
-26206.7
-26227.3
-26247.9
-26268.5
-26289.1
-26309.7
-26330.3
-26350.9
-26371.5
-26392.1
-26412.7
-26433.3
-26453.9
-26474.5
-26495.1
-26515.7
-26536.3
-26556.8
-26577.4
-26598
-26618.6
-26639.2
-26659.8
-26680.3
-26700.9
-26721.5
-26742.1
-26762.6
-26783.2
-26803.8
-26824.4
-26844.9
-26865.5
-26886.1
-26906.6
-26927.2
-26947.8
-26968.3
-26988.9
-27009.5
-27030
-27050.6
-27071.1
-27091.7
-27112.3
-27132.8
-27153.4
-27173.9
-27194.5
-27215
-27235.6
-27256.1
-27276.7
-27297.2
-27317.8
-27338.3
-27358.9
-27379.4
-27400
-27420.5
-27441
-27461.6
-27482.1
-27502.7
-27523.2
-27543.7
-27564.3
-27584.8
-27605.3
-27625.9
-27646.4
-27666.9
-27687.5
-27708
-27728.5
-27749
-27769.6
-27790.1
-27810.6
-27831.1
-27851.7
-27872.2
-27892.7
-27913.2
-27933.7
-27954.2
-27974.7
-27995.3
-28015.8
-28036.3
-28056.8
-28077.3
-28097.8
-28118.3
-28138.8
-28159.3
-28179.8
-28200.3
-28220.8
-28241.3
-28261.8
-28282.3
-28302.8
-28323.3
-28343.8
-28364.3
-28384.8
-28405.3
-28425.8
-28446.3
-28466.7
-28487.2
-28507.7
-28528.2
-28548.7
-28569.2
-28589.6
-28610.1
-28630.6
-28651.1
-28671.6
-28692
-28712.5
-28733
-28753.4
-28773.9
-28794.4
-28814.9
-28835.3
-28855.8
-28876.3
-28896.7
-28917.2
-28937.6
-28958.1
-28978.6
-28999
-29019.5
-29039.9
-29060.4
-29080.8
-29101.3
-29121.7
-29142.2
-29162.6
-29183.1
-29203.5
-29224
-29244.4
-29264.9
-29285.3
-29305.8
-29326.2
-29346.6
-29367.1
-29387.5
-29407.9
-29428.4
-29448.8
-29469.2
-29489.7
-29510.1
-29530.5
-29551
-29571.4
-29591.8
-29612.2
-29632.7
-29653.1
-29673.5
-29693.9
-29714.3
-29734.7
-29755.2
-29775.6
-29796
-29816.4
-29836.8
-29857.2
-29877.6
-29898
-29918.4
-29938.8
-29959.3
-29979.7
-30000.1
-30020.5
-30040.9
-30061.3
-30081.6
-30102
-30122.4
-30142.8
-30163.2
-30183.6
-30204
-30224.4
-30244.8
-30265.2
-30285.5
-30305.9
-30326.3
-30346.7
-30367.1
-30387.5
-30407.8
-30428.2
-30448.6
-30469
-30489.3
-30509.7
-30530.1
-30550.4
-30570.8
-30591.2
-30611.5
-30631.9
-30652.3
-30672.6
-30693
-30713.3
-30733.7
-30754.1
-30774.4
-30794.8
-30815.1
-30835.5
-30855.8
-30876.2
-30896.5
-30916.9
-30937.2
-30957.5
-30977.9
-30998.2
-31018.6
-31038.9
-31059.2
-31079.6
-31099.9
-31120.2
-31140.5
-31160.9
-31181.2
-31201.5
-31221.8
-31242.2
-31262.5
-31282.8
-31303.1
-31323.4
-31343.7
-31364.1
-31384.4
-31404.7
-31425
-31445.3
-31465.6
-31485.9
-31506.3
-31526.6
-31546.9
-31567.2
-31587.5
-31607.8
-31628.1
-31648.5
-31668.8
-31689.1
-31709.4
-31729.7
-31750
-31770.4
-31790.7
-31811
-31831.3
-31851.6
-31871.9
-31892.2
-31912.5
-31932.8
-31953.1
-31973.4
-31993.7
-32014
-32034.3
-32054.6
-32074.9
-32095.1
-32115.4
-32135.7
-32155.9
-32176.2
-32196.4
-32216.7
-32236.9
-32257.2
-32277.4
-32297.7
-32317.9
-32338.2
-32358.4
-32378.6
-32398.9
-32419.1
-32439.4
-32459.6
-32479.8
-32500.1
-32520.3
-32540.6
-32560.8
-32581
-32601.3
-32621.5
-32641.7
-32662
-32682.2
-32702.5
-32722.7
-32742.9
-32763.2
-32783.4
-32803.6
-32823.8
-32844.1
-32864.3
-32884.5
-32904.7
-32925
-32945.2
-32965.4
-32985.6
-33005.8
-33026.1
-33046.3
-33066.5
-33086.7
-33106.9
-33127.1
-33147.3
-33167.5
-33187.7
-33207.9
-33228.1
-33248.3
-33268.5
-33288.7
-33308.9
-33329.1
-33349.3
-33369.5
-33389.7
-33409.8
-33430.1
-33450.2
-33470.4
-33490.6
-33510.8
-33530.9
-33551.2
-33571.3
-33591.5
-33611.6
-33631.9
-33651.9
-33672.3
-33692.2
-33712.6
-33732.6
-33753
-33772.9
-33793.3
-33813.3
-33833.5
-33853.7
-33873.7
-33894.2
-33913.8
-33934.7
-33954.4
-33973.9
-33995.4
-34015.1
-34034.8
-34055.5
-34075.2
-34095.1
-34115.3
-34135.8
-34156
-34176.1
-34196.2
-34216.4
-34236.4
-34256.4
-34276.5
-34296.7
-34316.8
-34337.3
-34356.9
-34377.9
-34396.9
-34418.1
-34436.9
-34458.2
-34477.4
-34498.2
-34518.2
-34537.9
-34559.2
-34577.4
-34599.8
-34617.7
-34638.9
-34658.1
-34680.2
-34698.4
-34719.2
-34739.7
-34758.6
-34780.3
-34797.9
-34821.4
-34838.3
-34861.1
-34878.4
-34901
-34920.1
-34939.7
-34960.8
-34979.1
-35001.7
-35018.7
-35042.2
-35059
-35082.1
-35099.8
-35121.1
-35141.3
-35159.5
-35183.1
-35198.4
-35223.9
-35238.9
-35262.8
-35281.1
-35300.2
-35323.6
-35338.4
-35364.6
-35379
-35403.3
-35421.1
-35441.2
-35463.2
-35479.6
-35504.3
-35519.2
-35544.3
-35560.2
-35582.8
-35602.5
-35620.2
-35645.1
-35658.4
-35685.7
-35699.5
-35723.1
-35743.3
-35759.2
-35786.6
-35797.8
-35825.7
-35840.8
-35861.5
-35885
-35898.6
-35926.2
-35939.2
-35964.4
-35981.7
-36001.5
-36024.8
-36038.6
-36066.8
-36078.4
-36104.6
-36122.9
-36139.1
-36167.5
-36177.2
-36205.8
-36221
-36241
-36266.2
-36277.1
-36306.9
-36319.2
-36343.1
-36363
-36379.6
-36406.2
-36417.3
-36446.6
-36459.6
-36481.4
-36506.1
-36515.5
-36548.3
-36558.1
-36581.6
-36605.5
-36616.5
-36647.1
-36657.2
-36683.8
-36702.3
-36718.1
-36746.8
-36755.7
-36785.8
-36799.8
-36819
-36846.3
-36854.5
-36887.2
-36897.9
-36919.7
-36946.2
-36953.5
-36987
-36997.4
-37019.8
-37044.7
-37054.5
-37086.5
-37095.9
-37121.5
-37142.6
-37153.9
-37187.5
-37193.6
-37221.9
-37243
-37252.2
-37287.9
-37293.8
-37320
-37343
-37352.7
-37385.7
-37393.7
-37421
-37440.7
-37452.4
-37487
-37491.1
-37520.4
-37542.5
-37549
-37586.8
-37593
-37616.8
-37642.5
-37650.5
-37684.3
-37692
-37717.9
-37741.6
-37747.4
-37786.2
-37791.8
-37813.4
-37845.1
-37846.3
-37882
-37895.1
-37911.6
-37942.7
-37947.2
-37981.4
-37993.8
-38009.4
-38045
-38044.8
-38078.2
-38098.4
-38104.7
-38143.4
-38148.5
-38173.2
-38198.9
-38204.6
-38241.5
-38248.7
-38269.9
-38301.5
-38302
-38338.6
-38353.2
-38364.1
-38401.6
-38404.1
-38432.7
-38456.3
-38461.5
-38499.3
-38506.9
-38527.4
-38558.3
-38560.4
-38595.5
-38610.7
-38621.8
-38658.7
-38662.4
-38688.7
-38714.4
-38719.8
-38755.1
-38765.5
-38783.8
-38816
-38818.4
-38850.5
-38870.7
-38877.8
-38914.4
-38922.9
-38943.2
-38972.1
-38977.9
-39010.5
-39024.8
-39037.8
-39074.6
-39077.8
-39101.7
-39132
-39135.4
-39166.6
-39183.9
-39198.3
-39229.7
-39235.1
-39262.9
-39288.7
-39291.7
-39326.2
-39342.7
-39354.4
-39387.2
-39395.3
-39420.1
-39444.7
-39450.8
-39485
-39499.7
-39511.1
-39545.9
-39554.2
-39575.9
-39603
-39609.7
-39641.1
-39658.2
-39669.1
-39703
-39712.5
-39732.5
-39761.6
-39767.7
-39796.7
-39817.8
-39826.3
-39859
-39872.2
-39888.8
-39919.1
-39926.4
-39952.4
-39977
-39983.4
-40014.7
-40032.7
-40044.4
-40075.3
-40086.5
-40107.7
-40135
-40141.5
-40170
-40192.7
-40200.4
-40231
-40247.5
-40262.3
-40291.9
-40301.5
-40324.2
-40351.4
-40358.2
-40385.8
-40407.9
-40417.6
-40447.4
-40462.8
-40478.4
-40508.2
-40518
-40539.7
-40567.2
-40574.9
-40600.9
-40624
-40634.4
-40662.5
-40678.5
-40694
-40724.6
-40734.8
-40753.3
-40782.9
-40793
-40815.5
-40838.9
-40850.1
-40878.5
-40896.1
-40907.6
-40938.4
-40953.8
-40968.5
-40996.8
-41009.2
-41030.4
-41056.1
-41065.5
-41090.7
-41114.2
-41124.2
-41151.1
-41170.3
-41183.5
-41212
-41226.7
-41242.7
-41271.3
-41283.8
-41303.4
-41329.8
-41340.4
-41363.7
-41388
-41398.9
-41424.1
-41444.2
-41457.1
-41485.3
-41501.8
-41515.3
-41543.9
-41559.6
-41576.4
-41602.4
-41614.9
-41636.3
-41662.5
-41672.8
-41695
-41719.6
-41731.9
-41756
-41775.9
-41789.1
-41816.8
-41834.5
-41847
-41874.4
-41892.3
-41908.4
-41933.5
-41946.9
-41966.8
-41994.5
-42006.3
-42024.8
-42050.1
-42064.5
-42087.1
-42108.6
-42120
-42145.3
-42168.1
-42180.1
-42203.7
-42223.4
-42238.6
-42264.9
-42281.7
-42295.8
-42322.5
-42339.7
-42355.9
-42381.4
-42396.3
-42414.5
-42440.2
-42454.3
-42473.5
-42498.5
-42511.8
-42532.3
-42556.5
-42570.2
-42591.7
-42613.9
-42627.2
-42650.9
-42673
-42685.6
-42708.4
-42729.7
-42744.8
-42769
-42787.3
-42800.8
-42826.5
-42846.8
-42861.5
-42884.7
-42901.7
-42918.7
-42945.2
-42961.9
-42976.6
-43000.8
-43018.5
-43037
-43061.4
-43075.8
-43092.9
-43118.5
-43135
-43153.2
-43176.3
-43191
-43210.7
-43235.5
-43250.3
-43269.2
-43292.5
-43307.5
-43327.8
-43350.9
-43365.4
-43385.9
-43409
-43423.6
-43444
-43466.4
-43481.4
-43502.7
-43524.9
-43539.1
-43560.2
-43582.4
-43597.4
-43618.7
-43640.2
-43654.9
-43676.7
-43698.4
-43713.1
-43734.5
-43755.8
-43771
-43792.9
-43814
-43828.6
-43850.3
-43871.8
-43887.2
-43908.8
-43929.3
-43944.3
-43966.3
-43987.7
-44003
-44024.1
-44044.6
-44060.1
-44082.2
-44103.5
-44118.6
-44139.3
-44160.1
-44175.9
-44197.8
-44219.1
-44234.1
-44254.7
-44275.7
-44291.6
-44313
-44334.3
-44349.6
-44370.1
-44391.5
-44407.4
-44428.1
-44449.5
-44465.1
-44485.3
-44507.1
-44523.1
-44543.1
-44564.8
-44580.6
-44600.4
-44622.4
-44638.7
-44658
-44679.9
-44696.2
-44715.4
-44737.6
-44754.2
-44772.8
-44794.9
-44811.8
-44830.2
-44852.6
-44869.7
-44887.7
-44909.8
-44927.3
-44945.1
-44967.3
-44985.1
-45002.5
-45024.6
-45042.9
-45060
-45081.9
-45100.5
-45117.3
-45139.1
-45158.3
-45175
-45196.4
-45215.7
-45232
-45253.1
-45273.3
-45290
-45310.8
-45331.1
-45347.3
-45367.3
-45388.1
-45404.7
-45424.7
-45445.9
-45462.6
-45481.7
-45503
-45520.1
-45538.9
-45560.4
-45577.7
-45595.8
-45617.1
-45635
-45652.9
-45674.6
-45693
-45710.3
-45731.4
-45750.1
-45767.1
-45788.2
-45807.8
-45824.8
-45845.4
-45865.2
-45881.8
-45901.8
-45922.2
-45939.3
-45959
-45979.9
-45997
-46015.8
-46036.5
-46053.8
-46072.2
-46093.4
-46111.6
-46129.7
-46150.9
-46169.3
-46186.6
-46207.2
-46226
-46243.1
-46263.7
-46283.5
-46300.8
-46321
-46341.1
-46357.9
-46377.1
-46397.4
-46414.7
-46433.7
-46454.8
-46472.7
-46491.2
-46511.8
-46529.7
-46547.2
-46567.7
-46586.4
-46604.1
-46624.9
-46644.5
-46661.8
-46681.6
-46701.2
-46718
-46737.1
-46757.3
-46775
-46794
-46814.9
-46833
-46851.1
-46871.5
-46889.7
-46907.2
-46927.5
-46946.6
-46964.2
-46984.5
-47004.2
-47021.6
-47041
-47060.8
-47078
-47096.7
-47116.8
-47134.7
-47153.1
-47173.7
-47192.2
-47210.1
-47230.4
-47249.3
-47266.7
-47286.4
-47305.8
-47323.1
-47342.4
-47362.3
-47379.9
-47398.7
-47419
-47437.1
-47455.4
-47475.7
-47494.3
-47512.1
-47532
-47551
-47568.4
-47587.8
-47607.2
-47624.8
-47643.7
-47663.7
-47681.7
-47700.2
-47720.4
-47738.9
-47756.8
-47776.6
-47795.4
-47812.9
-47832.2
-47851.4
-47868.9
-47887.8
-47907.5
-47925.5
-47944
-47964
-47982.5
-48000.5
-48020.3
-48039.1
-48056.7
-48075.9
-48095.1
-48112.6
-48131.3
-48150.8
-48168.7
-48186.9
-48206.7
-48225.2
-48243.1
-48262.8
-48281.8
-48299.5
-48318.7
-48338.1
-48355.9
-48374.6
-48394.2
-48412.3
-48430.5
-48450.2
-48468.8
-48486.7
-48506.2
-48525.4
-48543.3
-48562.3
-48581.9
-48600
-48618.5
-48638.1
-48656.6
-48674.6
-48694
-48712.9
-48730.7
-48749.7
-48768.9
-48786.7
-48805.2
-48824.6
-48842.8
-48860.8
-48880.1
-48898.7
-48916.5
-48935.5
-48954.6
-48972.4
-48990.9
-49010.3
-49028.4
-49046.5
-49065.8
-49084.4
-49102.2
-49121.3
-49140.2
-49158.1
-49176.7
-49195.9
-49214
-49232.2
-49251.4
-49269.9
-49287.8
-49306.8
-49325.7
-49343.6
-49362.2
-49381.3
-49399.4
-49417.6
-49436.7
-49455.2
-49473.1
-49492
-49510.9
-49528.8
-49547.3
-49566.4
-49584.5
-49602.6
-49621.7
-49640.2
-49658.1
-49676.9
-49695.8
-49713.7
-49732.1
-49751.1
-49769.3
-49787.3
-49806.3
-49824.9
-49842.7
-49861.4
-49880.3
-49898.3
-49916.5
-49935.5
-49953.8
-49971.7
-49990.6
-50009.2
-50027.1
-50045.5
-50064.5
-50082.5
-50100.6
-50119.5
-50137.9
-50155.7
-50174.4
-50193.1
-50211
-50229.3
-50248.2
-50266.4
-50284.3
-50303.1
-50321.6
-50339.4
-50357.9
-50376.7
-50394.6
-50412.7
-50431.5
-50449.8
-50467.7
-50486.3
-50504.9
-50522.8
-50541
-50559.7
-50577.9
-50595.8
-50614.4
-50632.9
-50650.7
-50669.1
-50687.7
-50705.7
-50723.7
-50742.4
-50760.7
-50778.5
-50796.9
-50815.5
-50833.4
-50851.5
-50870.1
-50888.3
-50906.1
-50924.6
-50943.1
-50960.9
-50979
-50997.6
-51015.7
-51033.5
-51052.1
-51070.4
-51088.2
-51106.4
-51124.9
-51142.9
-51160.8
-51179.3
-51197.5
-51215.3
-51233.5
-51252
-51269.8
-51287.8
-51306.3
-51324.4
-51342.2
-51360.4
-51378.8
-51396.6
-51414.6
-51433
-51451.1
-51468.8
-51487.1
-51505.4
-51523.2
-51541.2
-51559.5
-51577.5
-51595.3
-51613.6
-51631.8
-51649.5
-51667.5
-51685.8
-51703.7
-51721.5
-51739.7
-51757.9
-51775.6
-51793.6
-51811.9
-51829.7
-51847.5
-51865.7
-51883.8
-51901.5
-51919.4
-51937.7
-51955.5
-51973.2
-51991.4
-52009.4
-52027.1
-52045
-52063.2
-52081
-52098.7
-52116.8
-52134.8
-52152.4
-52170.3
-52188.5
-52206.2
-52223.9
-52242
-52259.9
-52277.5
-52295.4
-52313.5
-52331.2
-52348.8
-52366.8
-52384.8
-52402.4
-52420.1
-52438.2
-52455.9
-52473.5
-52491.4
-52509.3
-52526.9
-52544.6
-52562.6
-52580.3
-52597.9
-52615.7
-52633.6
-52651.2
-52668.8
-52686.8
-52704.4
-52721.9
-52739.7
-52757.6
-52775.1
-52792.7
-52810.6
-52828.3
-52845.7
-52863.4
-52881.3
-52898.8
-52916.3
-52934.1
-52951.8
-52969.2
-52986.8
-53004.6
-53022.1
-53039.5
-53057.3
-53074.9
-53092.3
-53109.9
-53127.6
-53145.1
-53162.5
-53180.1
-53197.8
-53215.1
-53232.6
-53250.3
-53267.7
-53285.1
-53302.6
-53320.2
-53337.6
-53354.9
-53372.6
-53390
-53407.3
-53424.8
-53442.3
-53459.7
-53476.9
-53494.5
-53511.9
-53529.2
-53546.5
-53564.1
-53581.4
-53598.6
-53616
-53633.5
-53650.6
-53667.9
-53685.4
-53702.7
-53719.8
-53737.1
-53754.6
-53771.7
-53788.9
-53806.3
-53823.6
-53840.7
-53857.9
-53875.2
-53892.4
-53909.5
-53926.8
-53944
-53961.1
-53978.2
-53995.5
-54012.7
-54029.7
-54046.8
-54064
-54081.1
-54098.1
-54115.3
-54132.4
-54149.4
-54166.4
-54183.6
-54200.6
-54217.5
-54234.6
-54251.7
-54268.7
-54285.6
-54302.7
-54319.7
-54336.5
-54353.5
-54370.5
-54387.4
-54404.2
-54421.2
-54438.2
-54455
-54471.8
-54488.8
-54505.7
-54522.4
-54539.3
-54556.2
-54573
-54589.7
-54606.6
-54623.4
-54640.1
-54656.8
-54673.7
-54690.4
-54707.1
-54723.8
-54740.6
-54757.2
-54773.8
-54790.6
-54807.3
-54823.9
-54840.4
-54857.2
-54873.8
-54890.3
-54906.9
-54923.6
-54940.1
-54956.5
-54973.1
-54989.7
-55006.2
-55022.6
-55039.2
-55055.7
-55072.1
-55088.5
-55105
-55121.4
-55137.8
-55154.2
-55170.7
-55187
-55203.3
-55219.7
-55236.1
-55252.3
-55268.6
-55285
-55301.2
-55317.4
-55333.7
-55350
-55366.2
-55382.3
-55398.6
-55414.8
-55430.9
-55447
-55463.2
-55479.3
-55495.4
-55511.5
-55527.6
-55543.7
-55559.6
-55575.7
-55591.8
-55607.7
-55623.7
-55639.7
-55655.7
-55671.6
-55687.5
-55703.5
-55719.3
-55735.2
-55751
-55767
-55782.7
-55798.5
-55814.4
-55830.2
-55845.9
-55861.6
-55877.4
-55893.1
-55908.8
-55924.4
-55940.2
-55955.8
-55971.4
-55987
-56002.7
-56018.2
-56033.7
-56049.3
-56064.9
-56080.4
-56095.8
-56111.4
-56126.8
-56142.2
-56157.6
-56173.1
-56188.5
-56203.8
-56219.2
-56234.5
-56249.8
-56265.1
-56280.4
-56295.7
-56310.9
-56326.1
-56341.3
-56356.5
-56371.6
-56386.8
-56401.9
-56417
-56432
-56447.1
-56462.2
-56477.2
-56492.2
-56507.2
-56522.2
-56537.1
-56552
-56566.9
-56581.8
-56596.6
-56611.5
-56626.3
-56641.1
-56655.8
-56670.6
-56685.4
-56700.1
-56714.7
-56729.4
-56744.1
-56758.7
-56773.3
-56787.9
-56802.5
-56816.9
-56831.4
-56846
-56860.4
-56874.8
-56889.3
-56903.7
-56918
-56932.3
-56946.7
-56961
-56975.3
-56989.5
-57003.7
-57018
-57032.1
-57046.2
-57060.4
-57074.5
-57088.5
-57102.5
-57116.6
-57130.6
-57144.5
-57158.4
-57172.4
-57186.3
-57200.1
-57213.9
-57227.8
-57241.5
-57255.2
-57268.9
-57282.7
-57296.3
-57309.9
-57323.5
-57337.1
-57350.6
-57364.1
-57377.6
-57391.1
-57404.5
-57417.9
-57431.2
-57444.6
-57457.8
-57471.1
-57484.3
-57497.5
-57510.7
-57523.8
-57536.9
-57549.9
-57562.9
-57575.9
-57588.9
-57601.8
-57614.6
-57627.5
-57640.3
-57653.1
-57665.8
-57678.5
-57691.1
-57703.7
-57716.2
-57728.8
-57741.3
-57753.7
-57766.1
-57778.4
-57790.8
-57803
-57815.2
-57827.4
-57839.5
-57851.6
-57863.6
-57875.6
-57887.6
-57899.4
-57911.3
-57923.1
-57934.8
-57946.5
-57958.1
-57969.7
-57981.2
-57992.6
-58004.1
-58015.4
-58026.7
-58037.9
-58049.1
-58060.2
-58071.3
-58082.2
-58093.2
-58104
-58114.8
-58125.5
-58136.2
-58146.8
-58157.3
-58167.7
-58178.1
-58188.4
-58198.6
-58208.7
-58218.8
-58228.7
-58238.6
-58248.4
-58258.2
-58267.8
-58277.3
-58286.8
-58296.2
-58305.4
-58314.6
-58323.7
-58332.7
-58341.5
-58350.3
-58358.9
-58367.5
-58375.9
-58384.3
-58392.5
-58400.6
-58408.6
-58416.4
-58424.2
-58431.8
-58439.2
-58446.6
-58453.8
-58460.8
-58467.8
-58474.5
-58481.2
-58487.6
-58493.9
-58500.1
-58506.1
-58511.9
-58517.6
-58523.1
-58528.4
-58533.5
-58538.4
-58543.2
-58547.7
-58552.1
-58556.2
-58560.1
-58563.9
-58567.4
-58570.6
-58573.6
-58576.5
-58579
-58581.3
-58583.3
-58585.2
-58586.7
-58587.9
-58588.8
-58589.5
-58589.9
-58589.9
-58589.7
-58589.1
-58588.2
-58586.9
-58585.3
-58583.4
-58581
-58578.3
-58575.2
-58571.7
-58567.7
-58563.4
-58558.6
-58553.4
-58547.7
-58541.5
-58534.8
-58527.7
-58520
-58511.7
-58502.9
-58493.6
-58483.7
-58473.1
-58462
-58450.2
-58437.8
-58424.6
-58410.8
-58396.2
-58380.9
-58364.9
-58348
-58330.3
-58311.8
-58292.3
-58272
-58250.8
-58228.6
-58205.3
-58181.1
-58155.8
-58129.3
-58101.7
-58073
-58043
-58011.7
-57979.1
-57945.2
-57909.9
-57873.1
-57834.7
-57794.9
-57753.4
-57710.2
-57665.2
-57618.4
-57569.8
-57519.2
-57466.6
-57411.9
-57355.1
-57296
-57234.5
-57170.6
-57104.3
-57035.3
-56963.6
-56889.1
-56811.7
-56731.3
-56647.7
-56561
-56470.8
-56377.3
-56280
-56179.1
-56074.3
-55965.6
-55852.6
-55735.5
-55613.8
-55487.6
-55356.7
-55220.9
-55080.1
-54934
-54782.6
-54625.6
-54462.9
-54294.3
-54119.7
-53938.8
-53751.5
-53557.6
-53356.9
-53149.3
-52934.5
-52712.4
-52482.8
-52245.5
-52000.3
-51747.1
-51485.7
-51215.9
-50937.5
-50650.5
-50354.6
-50049.6
-49735.5
-49412.1
-49079.2
-48736.7
-48384.6
-48022.7
-47651
-47269.2
-46877.5
-46475.6
-46063.6
-45641.4
-45209
-44766.4
-44313.7
-43850.7
-43377.7
-42894.6
-42401.6
-41898.6
-41385.9
-40863.6
-40331.9
-39790.8
-39240.7
-38681.7
-38114.1
-37538.1
-36954
-36362.1
-35762.8
-35156.3
-34543
-33923.3
-33297.6
-32666.3
-32029.8
-31388.7
-30743.2
-30094
-29441.4
-28786.1
-28128.5
-27469.1
-26808.5
-26147.2
-25485.7
-24824.7
-24164.5
-23505.9
-22849.4
-22195.4
-21544.6
-20897.5
-20254.6
-19616.5
-18983.7
-18356.7
-17735.9
-17121.9
-16515.2
-15916.1
-15325.2
-14742.8
-14169.4
-13605.2
-13050.8
-12506.3
-11972.1
-11448.5
-10935.8
-10434.2
-9943.83
-9464.99
-8997.8
-8542.41
-8098.91
-7667.4
-7247.96
-6840.62
-6445.38
-6062.25
-5691.22
-5332.22
-4985.18
-4650.01
-4326.62
-4014.88
-3714.63
-3425.73
-3148
-2881.26
-2625.31
-2379.92
-2144.9
-1920.01
-1704.99
-1499.61
-1303.62
-1116.77
-938.774
-769.375
-608.308
-455.311
-310.102
-172.412
-41.9667
81.4844
198.224
308.512
412.614
510.771
603.244
690.284
772.136
849.024
921.182
988.844
1052.23
1111.54
1166.97
1218.75
1267.06
1312.08
1353.99
1392.96
1429.16
1462.75
1493.87
1522.67
1549.3
1573.88
1596.54
1617.39
1636.56
1654.15
1670.26
1684.98
1698.42
1710.66
1721.78
1731.85
1740.96
1749.16
1756.53
1763.11
1768.98
1774.18
1778.76
1782.77
1786.24
1789.24
1791.78
1793.91
1795.65
1797.04
1798.11
1798.88
1799.38
1799.62
1799.64
1799.45
1799.06
1798.5
1797.78
1796.91
1795.9
1794.77
1793.54
1792.2
1790.76
1789.24
1787.65
1786
1784.27
1782.49
1780.66
1778.78
1776.86
1774.91
1772.91