/*--------------------------------*- C++ -*----------------------------------*\
  =========                 |
  \\      /  F ield         | OpenFOAM: The Open Source CFD Toolbox
   \\    /   O peration     | Website:  https://openfoam.org
    \\  /    A nd           | Version:  9
     \\/     M anipulation  |
\*---------------------------------------------------------------------------*/
FoamFile
{
    format      ascii;
    class       volVectorField;
    location    "0.02";
    object      ddtCorrDdt0(rho,U);
}
// * * * * * * * * * * * * * * * * * * * * * * * * * * * * * * * * * * * * * //

dimensions      [1 -2 -2 0 0 0 0];

internalField   nonuniform List<vector> 
10000
(
(86.046 0 0)
(76.1623 0 0)
(72.7875 0 0)
(67.9049 0 0)
(62.3846 0 0)
(56.9825 0 0)
(51.7022 0 0)
(46.3862 0 0)
(41.0267 0 0)
(35.6688 0 0)
(30.3338 0 0)
(25.0202 0 0)
(19.719 0 0)
(14.4234 0 0)
(9.12898 0 0)
(3.8315 0 0)
(-1.47176 0 0)
(-6.77537 0 0)
(-12.0738 0 0)
(-17.3633 0 0)
(-22.6604 0 0)
(-27.9581 0 0)
(-33.255 0 0)
(-38.5519 0 0)
(-43.8488 0 0)
(-49.1455 0 0)
(-54.4424 0 0)
(-59.7394 0 0)
(-65.0364 0 0)
(-70.3332 0 0)
(-75.6299 0 0)
(-80.9268 0 0)
(-86.224 0 0)
(-91.521 0 0)
(-96.8178 0 0)
(-102.114 0 0)
(-107.411 0 0)
(-112.708 0 0)
(-118.005 0 0)
(-123.303 0 0)
(-128.6 0 0)
(-133.897 0 0)
(-139.194 0 0)
(-144.491 0 0)
(-149.787 0 0)
(-155.084 0 0)
(-160.381 0 0)
(-165.678 0 0)
(-170.975 0 0)
(-176.271 0 0)
(-181.568 0 0)
(-186.865 0 0)
(-192.162 0 0)
(-197.459 0 0)
(-202.756 0 0)
(-208.053 0 0)
(-213.349 0 0)
(-218.646 0 0)
(-223.943 0 0)
(-229.24 0 0)
(-234.537 0 0)
(-239.834 0 0)
(-245.131 0 0)
(-250.428 0 0)
(-255.725 0 0)
(-261.021 0 0)
(-266.318 0 0)
(-271.615 0 0)
(-276.912 0 0)
(-282.209 0 0)
(-287.505 0 0)
(-292.802 0 0)
(-298.099 0 0)
(-303.397 0 0)
(-308.694 0 0)
(-313.99 0 0)
(-319.286 0 0)
(-324.583 0 0)
(-329.879 0 0)
(-335.176 0 0)
(-340.473 0 0)
(-345.77 0 0)
(-351.067 0 0)
(-356.364 0 0)
(-361.661 0 0)
(-366.958 0 0)
(-372.254 0 0)
(-377.551 0 0)
(-382.848 0 0)
(-388.145 0 0)
(-393.441 0 0)
(-398.738 0 0)
(-404.035 0 0)
(-409.332 0 0)
(-414.628 0 0)
(-419.925 0 0)
(-425.222 0 0)
(-430.518 0 0)
(-435.815 0 0)
(-441.112 0 0)
(-446.408 0 0)
(-451.705 0 0)
(-457.001 0 0)
(-462.298 0 0)
(-467.595 0 0)
(-472.891 0 0)
(-478.188 0 0)
(-483.484 0 0)
(-488.781 0 0)
(-494.077 0 0)
(-499.374 0 0)
(-504.671 0 0)
(-509.967 0 0)
(-515.263 0 0)
(-520.56 0 0)
(-525.857 0 0)
(-531.153 0 0)
(-536.449 0 0)
(-541.746 0 0)
(-547.042 0 0)
(-552.339 0 0)
(-557.635 0 0)
(-562.932 0 0)
(-568.228 0 0)
(-573.524 0 0)
(-578.82 0 0)
(-584.117 0 0)
(-589.413 0 0)
(-594.709 0 0)
(-600.006 0 0)
(-605.302 0 0)
(-610.599 0 0)
(-615.895 0 0)
(-621.191 0 0)
(-626.488 0 0)
(-631.784 0 0)
(-637.08 0 0)
(-642.376 0 0)
(-647.672 0 0)
(-652.968 0 0)
(-658.264 0 0)
(-663.56 0 0)
(-668.856 0 0)
(-674.152 0 0)
(-679.448 0 0)
(-684.744 0 0)
(-690.04 0 0)
(-695.336 0 0)
(-700.632 0 0)
(-705.928 0 0)
(-711.224 0 0)
(-716.52 0 0)
(-721.816 0 0)
(-727.112 0 0)
(-732.408 0 0)
(-737.704 0 0)
(-742.999 0 0)
(-748.295 0 0)
(-753.591 0 0)
(-758.887 0 0)
(-764.182 0 0)
(-769.478 0 0)
(-774.774 0 0)
(-780.07 0 0)
(-785.365 0 0)
(-790.661 0 0)
(-795.956 0 0)
(-801.252 0 0)
(-806.547 0 0)
(-811.843 0 0)
(-817.138 0 0)
(-822.433 0 0)
(-827.729 0 0)
(-833.024 0 0)
(-838.32 0 0)
(-843.615 0 0)
(-848.911 0 0)
(-854.206 0 0)
(-859.502 0 0)
(-864.797 0 0)
(-870.092 0 0)
(-875.388 0 0)
(-880.683 0 0)
(-885.978 0 0)
(-891.273 0 0)
(-896.568 0 0)
(-901.864 0 0)
(-907.159 0 0)
(-912.454 0 0)
(-917.749 0 0)
(-923.044 0 0)
(-928.339 0 0)
(-933.634 0 0)
(-938.929 0 0)
(-944.224 0 0)
(-949.519 0 0)
(-954.814 0 0)
(-960.108 0 0)
(-965.403 0 0)
(-970.698 0 0)
(-975.993 0 0)
(-981.287 0 0)
(-986.582 0 0)
(-991.877 0 0)
(-997.171 0 0)
(-1002.47 0 0)
(-1007.76 0 0)
(-1013.06 0 0)
(-1018.35 0 0)
(-1023.64 0 0)
(-1028.94 0 0)
(-1034.23 0 0)
(-1039.53 0 0)
(-1044.82 0 0)
(-1050.12 0 0)
(-1055.41 0 0)
(-1060.7 0 0)
(-1066 0 0)
(-1071.29 0 0)
(-1076.59 0 0)
(-1081.88 0 0)
(-1087.18 0 0)
(-1092.47 0 0)
(-1097.76 0 0)
(-1103.06 0 0)
(-1108.35 0 0)
(-1113.65 0 0)
(-1118.94 0 0)
(-1124.23 0 0)
(-1129.53 0 0)
(-1134.82 0 0)
(-1140.12 0 0)
(-1145.41 0 0)
(-1150.7 0 0)
(-1156 0 0)
(-1161.29 0 0)
(-1166.58 0 0)
(-1171.88 0 0)
(-1177.17 0 0)
(-1182.46 0 0)
(-1187.76 0 0)
(-1193.05 0 0)
(-1198.35 0 0)
(-1203.64 0 0)
(-1208.93 0 0)
(-1214.23 0 0)
(-1219.52 0 0)
(-1224.81 0 0)
(-1230.1 0 0)
(-1235.4 0 0)
(-1240.69 0 0)
(-1245.98 0 0)
(-1251.28 0 0)
(-1256.57 0 0)
(-1261.86 0 0)
(-1267.16 0 0)
(-1272.45 0 0)
(-1277.74 0 0)
(-1283.03 0 0)
(-1288.33 0 0)
(-1293.62 0 0)
(-1298.91 0 0)
(-1304.21 0 0)
(-1309.5 0 0)
(-1314.79 0 0)
(-1320.08 0 0)
(-1325.38 0 0)
(-1330.67 0 0)
(-1335.96 0 0)
(-1341.25 0 0)
(-1346.55 0 0)
(-1351.84 0 0)
(-1357.13 0 0)
(-1362.42 0 0)
(-1367.71 0 0)
(-1373.01 0 0)
(-1378.3 0 0)
(-1383.59 0 0)
(-1388.88 0 0)
(-1394.17 0 0)
(-1399.47 0 0)
(-1404.76 0 0)
(-1410.05 0 0)
(-1415.34 0 0)
(-1420.63 0 0)
(-1425.93 0 0)
(-1431.22 0 0)
(-1436.51 0 0)
(-1441.8 0 0)
(-1447.09 0 0)
(-1452.38 0 0)
(-1457.68 0 0)
(-1462.97 0 0)
(-1468.26 0 0)
(-1473.55 0 0)
(-1478.84 0 0)
(-1484.13 0 0)
(-1489.42 0 0)
(-1494.71 0 0)
(-1500.01 0 0)
(-1505.3 0 0)
(-1510.59 0 0)
(-1515.88 0 0)
(-1521.17 0 0)
(-1526.46 0 0)
(-1531.75 0 0)
(-1537.04 0 0)
(-1542.33 0 0)
(-1547.62 0 0)
(-1552.91 0 0)
(-1558.2 0 0)
(-1563.49 0 0)
(-1568.79 0 0)
(-1574.08 0 0)
(-1579.37 0 0)
(-1584.66 0 0)
(-1589.95 0 0)
(-1595.24 0 0)
(-1600.53 0 0)
(-1605.82 0 0)
(-1611.11 0 0)
(-1616.4 0 0)
(-1621.69 0 0)
(-1626.98 0 0)
(-1632.27 0 0)
(-1637.56 0 0)
(-1642.85 0 0)
(-1648.14 0 0)
(-1653.43 0 0)
(-1658.72 0 0)
(-1664.01 0 0)
(-1669.29 0 0)
(-1674.58 0 0)
(-1679.87 0 0)
(-1685.16 0 0)
(-1690.45 0 0)
(-1695.74 0 0)
(-1701.03 0 0)
(-1706.32 0 0)
(-1711.61 0 0)
(-1716.9 0 0)
(-1722.19 0 0)
(-1727.48 0 0)
(-1732.77 0 0)
(-1738.05 0 0)
(-1743.34 0 0)
(-1748.63 0 0)
(-1753.92 0 0)
(-1759.21 0 0)
(-1764.5 0 0)
(-1769.79 0 0)
(-1775.08 0 0)
(-1780.36 0 0)
(-1785.65 0 0)
(-1790.94 0 0)
(-1796.23 0 0)
(-1801.52 0 0)
(-1806.8 0 0)
(-1812.09 0 0)
(-1817.38 0 0)
(-1822.67 0 0)
(-1827.96 0 0)
(-1833.24 0 0)
(-1838.53 0 0)
(-1843.82 0 0)
(-1849.11 0 0)
(-1854.4 0 0)
(-1859.68 0 0)
(-1864.97 0 0)
(-1870.26 0 0)
(-1875.55 0 0)
(-1880.83 0 0)
(-1886.12 0 0)
(-1891.41 0 0)
(-1896.69 0 0)
(-1901.98 0 0)
(-1907.27 0 0)
(-1912.56 0 0)
(-1917.84 0 0)
(-1923.13 0 0)
(-1928.42 0 0)
(-1933.7 0 0)
(-1938.99 0 0)
(-1944.28 0 0)
(-1949.56 0 0)
(-1954.85 0 0)
(-1960.14 0 0)
(-1965.42 0 0)
(-1970.71 0 0)
(-1976 0 0)
(-1981.28 0 0)
(-1986.57 0 0)
(-1991.85 0 0)
(-1997.14 0 0)
(-2002.43 0 0)
(-2007.71 0 0)
(-2013 0 0)
(-2018.28 0 0)
(-2023.57 0 0)
(-2028.85 0 0)
(-2034.14 0 0)
(-2039.43 0 0)
(-2044.71 0 0)
(-2050 0 0)
(-2055.28 0 0)
(-2060.57 0 0)
(-2065.85 0 0)
(-2071.14 0 0)
(-2076.42 0 0)
(-2081.71 0 0)
(-2086.99 0 0)
(-2092.28 0 0)
(-2097.56 0 0)
(-2102.85 0 0)
(-2108.13 0 0)
(-2113.42 0 0)
(-2118.7 0 0)
(-2123.99 0 0)
(-2129.27 0 0)
(-2134.56 0 0)
(-2139.84 0 0)
(-2145.12 0 0)
(-2150.41 0 0)
(-2155.69 0 0)
(-2160.98 0 0)
(-2166.26 0 0)
(-2171.54 0 0)
(-2176.83 0 0)
(-2182.11 0 0)
(-2187.4 0 0)
(-2192.68 0 0)
(-2197.96 0 0)
(-2203.25 0 0)
(-2208.53 0 0)
(-2213.81 0 0)
(-2219.1 0 0)
(-2224.38 0 0)
(-2229.66 0 0)
(-2234.95 0 0)
(-2240.23 0 0)
(-2245.51 0 0)
(-2250.8 0 0)
(-2256.08 0 0)
(-2261.36 0 0)
(-2266.64 0 0)
(-2271.93 0 0)
(-2277.21 0 0)
(-2282.49 0 0)
(-2287.77 0 0)
(-2293.06 0 0)
(-2298.34 0 0)
(-2303.62 0 0)
(-2308.9 0 0)
(-2314.18 0 0)
(-2319.47 0 0)
(-2324.75 0 0)
(-2330.03 0 0)
(-2335.31 0 0)
(-2340.59 0 0)
(-2345.88 0 0)
(-2351.16 0 0)
(-2356.44 0 0)
(-2361.72 0 0)
(-2367 0 0)
(-2372.28 0 0)
(-2377.56 0 0)
(-2382.85 0 0)
(-2388.13 0 0)
(-2393.41 0 0)
(-2398.69 0 0)
(-2403.97 0 0)
(-2409.25 0 0)
(-2414.53 0 0)
(-2419.81 0 0)
(-2425.09 0 0)
(-2430.37 0 0)
(-2435.65 0 0)
(-2440.93 0 0)
(-2446.21 0 0)
(-2451.49 0 0)
(-2456.77 0 0)
(-2462.05 0 0)
(-2467.33 0 0)
(-2472.61 0 0)
(-2477.89 0 0)
(-2483.17 0 0)
(-2488.45 0 0)
(-2493.73 0 0)
(-2499.01 0 0)
(-2504.29 0 0)
(-2509.57 0 0)
(-2514.85 0 0)
(-2520.13 0 0)
(-2525.41 0 0)
(-2530.69 0 0)
(-2535.97 0 0)
(-2541.24 0 0)
(-2546.52 0 0)
(-2551.8 0 0)
(-2557.08 0 0)
(-2562.36 0 0)
(-2567.64 0 0)
(-2572.92 0 0)
(-2578.19 0 0)
(-2583.47 0 0)
(-2588.75 0 0)
(-2594.03 0 0)
(-2599.31 0 0)
(-2604.58 0 0)
(-2609.86 0 0)
(-2615.14 0 0)
(-2620.42 0 0)
(-2625.7 0 0)
(-2630.97 0 0)
(-2636.25 0 0)
(-2641.53 0 0)
(-2646.81 0 0)
(-2652.08 0 0)
(-2657.36 0 0)
(-2662.64 0 0)
(-2667.91 0 0)
(-2673.19 0 0)
(-2678.47 0 0)
(-2683.74 0 0)
(-2689.02 0 0)
(-2694.3 0 0)
(-2699.57 0 0)
(-2704.85 0 0)
(-2710.13 0 0)
(-2715.4 0 0)
(-2720.68 0 0)
(-2725.95 0 0)
(-2731.23 0 0)
(-2736.51 0 0)
(-2741.78 0 0)
(-2747.06 0 0)
(-2752.33 0 0)
(-2757.61 0 0)
(-2762.88 0 0)
(-2768.16 0 0)
(-2773.43 0 0)
(-2778.71 0 0)
(-2783.98 0 0)
(-2789.26 0 0)
(-2794.53 0 0)
(-2799.81 0 0)
(-2805.08 0 0)
(-2810.36 0 0)
(-2815.63 0 0)
(-2820.91 0 0)
(-2826.18 0 0)
(-2831.46 0 0)
(-2836.73 0 0)
(-2842 0 0)
(-2847.28 0 0)
(-2852.55 0 0)
(-2857.83 0 0)
(-2863.1 0 0)
(-2868.37 0 0)
(-2873.65 0 0)
(-2878.92 0 0)
(-2884.19 0 0)
(-2889.47 0 0)
(-2894.74 0 0)
(-2900.01 0 0)
(-2905.29 0 0)
(-2910.56 0 0)
(-2915.83 0 0)
(-2921.1 0 0)
(-2926.38 0 0)
(-2931.65 0 0)
(-2936.92 0 0)
(-2942.19 0 0)
(-2947.47 0 0)
(-2952.74 0 0)
(-2958.01 0 0)
(-2963.28 0 0)
(-2968.56 0 0)
(-2973.83 0 0)
(-2979.1 0 0)
(-2984.37 0 0)
(-2989.64 0 0)
(-2994.91 0 0)
(-3000.18 0 0)
(-3005.46 0 0)
(-3010.73 0 0)
(-3016 0 0)
(-3021.27 0 0)
(-3026.54 0 0)
(-3031.81 0 0)
(-3037.08 0 0)
(-3042.35 0 0)
(-3047.62 0 0)
(-3052.89 0 0)
(-3058.16 0 0)
(-3063.43 0 0)
(-3068.7 0 0)
(-3073.97 0 0)
(-3079.24 0 0)
(-3084.51 0 0)
(-3089.78 0 0)
(-3095.05 0 0)
(-3100.32 0 0)
(-3105.59 0 0)
(-3110.86 0 0)
(-3116.13 0 0)
(-3121.4 0 0)
(-3126.66 0 0)
(-3131.93 0 0)
(-3137.2 0 0)
(-3142.47 0 0)
(-3147.74 0 0)
(-3153.01 0 0)
(-3158.28 0 0)
(-3163.54 0 0)
(-3168.81 0 0)
(-3174.08 0 0)
(-3179.35 0 0)
(-3184.62 0 0)
(-3189.88 0 0)
(-3195.15 0 0)
(-3200.42 0 0)
(-3205.69 0 0)
(-3210.95 0 0)
(-3216.22 0 0)
(-3221.49 0 0)
(-3226.75 0 0)
(-3232.02 0 0)
(-3237.29 0 0)
(-3242.55 0 0)
(-3247.82 0 0)
(-3253.09 0 0)
(-3258.35 0 0)
(-3263.62 0 0)
(-3268.88 0 0)
(-3274.15 0 0)
(-3279.42 0 0)
(-3284.68 0 0)
(-3289.95 0 0)
(-3295.21 0 0)
(-3300.48 0 0)
(-3305.74 0 0)
(-3311.01 0 0)
(-3316.27 0 0)
(-3321.54 0 0)
(-3326.8 0 0)
(-3332.07 0 0)
(-3337.33 0 0)
(-3342.59 0 0)
(-3347.86 0 0)
(-3353.12 0 0)
(-3358.39 0 0)
(-3363.65 0 0)
(-3368.91 0 0)
(-3374.18 0 0)
(-3379.44 0 0)
(-3384.71 0 0)
(-3389.97 0 0)
(-3395.23 0 0)
(-3400.49 0 0)
(-3405.76 0 0)
(-3411.02 0 0)
(-3416.28 0 0)
(-3421.55 0 0)
(-3426.81 0 0)
(-3432.07 0 0)
(-3437.33 0 0)
(-3442.59 0 0)
(-3447.86 0 0)
(-3453.12 0 0)
(-3458.38 0 0)
(-3463.64 0 0)
(-3468.9 0 0)
(-3474.16 0 0)
(-3479.42 0 0)
(-3484.69 0 0)
(-3489.95 0 0)
(-3495.21 0 0)
(-3500.47 0 0)
(-3505.73 0 0)
(-3510.99 0 0)
(-3516.25 0 0)
(-3521.51 0 0)
(-3526.77 0 0)
(-3532.03 0 0)
(-3537.29 0 0)
(-3542.55 0 0)
(-3547.81 0 0)
(-3553.07 0 0)
(-3558.33 0 0)
(-3563.59 0 0)
(-3568.84 0 0)
(-3574.1 0 0)
(-3579.36 0 0)
(-3584.62 0 0)
(-3589.88 0 0)
(-3595.14 0 0)
(-3600.39 0 0)
(-3605.65 0 0)
(-3610.91 0 0)
(-3616.17 0 0)
(-3621.43 0 0)
(-3626.68 0 0)
(-3631.94 0 0)
(-3637.2 0 0)
(-3642.46 0 0)
(-3647.71 0 0)
(-3652.97 0 0)
(-3658.23 0 0)
(-3663.48 0 0)
(-3668.74 0 0)
(-3674 0 0)
(-3679.25 0 0)
(-3684.51 0 0)
(-3689.76 0 0)
(-3695.02 0 0)
(-3700.27 0 0)
(-3705.53 0 0)
(-3710.79 0 0)
(-3716.04 0 0)
(-3721.3 0 0)
(-3726.55 0 0)
(-3731.81 0 0)
(-3737.06 0 0)
(-3742.31 0 0)
(-3747.57 0 0)
(-3752.82 0 0)
(-3758.08 0 0)
(-3763.33 0 0)
(-3768.58 0 0)
(-3773.84 0 0)
(-3779.09 0 0)
(-3784.35 0 0)
(-3789.6 0 0)
(-3794.85 0 0)
(-3800.1 0 0)
(-3805.36 0 0)
(-3810.61 0 0)
(-3815.86 0 0)
(-3821.11 0 0)
(-3826.37 0 0)
(-3831.62 0 0)
(-3836.87 0 0)
(-3842.12 0 0)
(-3847.37 0 0)
(-3852.63 0 0)
(-3857.88 0 0)
(-3863.13 0 0)
(-3868.38 0 0)
(-3873.63 0 0)
(-3878.88 0 0)
(-3884.13 0 0)
(-3889.38 0 0)
(-3894.63 0 0)
(-3899.88 0 0)
(-3905.13 0 0)
(-3910.38 0 0)
(-3915.63 0 0)
(-3920.88 0 0)
(-3926.13 0 0)
(-3931.38 0 0)
(-3936.63 0 0)
(-3941.88 0 0)
(-3947.13 0 0)
(-3952.38 0 0)
(-3957.63 0 0)
(-3962.88 0 0)
(-3968.12 0 0)
(-3973.37 0 0)
(-3978.62 0 0)
(-3983.87 0 0)
(-3989.12 0 0)
(-3994.36 0 0)
(-3999.61 0 0)
(-4004.86 0 0)
(-4010.11 0 0)
(-4015.35 0 0)
(-4020.6 0 0)
(-4025.85 0 0)
(-4031.09 0 0)
(-4036.34 0 0)
(-4041.59 0 0)
(-4046.83 0 0)
(-4052.08 0 0)
(-4057.32 0 0)
(-4062.57 0 0)
(-4067.81 0 0)
(-4073.06 0 0)
(-4078.31 0 0)
(-4083.55 0 0)
(-4088.8 0 0)
(-4094.04 0 0)
(-4099.29 0 0)
(-4104.53 0 0)
(-4109.77 0 0)
(-4115.02 0 0)
(-4120.26 0 0)
(-4125.51 0 0)
(-4130.75 0 0)
(-4135.99 0 0)
(-4141.24 0 0)
(-4146.48 0 0)
(-4151.72 0 0)
(-4156.97 0 0)
(-4162.21 0 0)
(-4167.45 0 0)
(-4172.69 0 0)
(-4177.94 0 0)
(-4183.18 0 0)
(-4188.42 0 0)
(-4193.66 0 0)
(-4198.9 0 0)
(-4204.15 0 0)
(-4209.39 0 0)
(-4214.63 0 0)
(-4219.87 0 0)
(-4225.11 0 0)
(-4230.35 0 0)
(-4235.59 0 0)
(-4240.83 0 0)
(-4246.07 0 0)
(-4251.31 0 0)
(-4256.55 0 0)
(-4261.79 0 0)
(-4267.03 0 0)
(-4272.27 0 0)
(-4277.51 0 0)
(-4282.75 0 0)
(-4287.99 0 0)
(-4293.23 0 0)
(-4298.47 0 0)
(-4303.71 0 0)
(-4308.94 0 0)
(-4314.18 0 0)
(-4319.42 0 0)
(-4324.66 0 0)
(-4329.9 0 0)
(-4335.13 0 0)
(-4340.37 0 0)
(-4345.61 0 0)
(-4350.85 0 0)
(-4356.08 0 0)
(-4361.32 0 0)
(-4366.56 0 0)
(-4371.79 0 0)
(-4377.03 0 0)
(-4382.27 0 0)
(-4387.5 0 0)
(-4392.74 0 0)
(-4397.97 0 0)
(-4403.21 0 0)
(-4408.44 0 0)
(-4413.68 0 0)
(-4418.91 0 0)
(-4424.15 0 0)
(-4429.38 0 0)
(-4434.62 0 0)
(-4439.85 0 0)
(-4445.09 0 0)
(-4450.32 0 0)
(-4455.55 0 0)
(-4460.79 0 0)
(-4466.02 0 0)
(-4471.26 0 0)
(-4476.49 0 0)
(-4481.72 0 0)
(-4486.95 0 0)
(-4492.19 0 0)
(-4497.42 0 0)
(-4502.65 0 0)
(-4507.88 0 0)
(-4513.12 0 0)
(-4518.35 0 0)
(-4523.58 0 0)
(-4528.81 0 0)
(-4534.04 0 0)
(-4539.27 0 0)
(-4544.51 0 0)
(-4549.74 0 0)
(-4554.97 0 0)
(-4560.2 0 0)
(-4565.43 0 0)
(-4570.66 0 0)
(-4575.89 0 0)
(-4581.12 0 0)
(-4586.35 0 0)
(-4591.58 0 0)
(-4596.81 0 0)
(-4602.04 0 0)
(-4607.26 0 0)
(-4612.49 0 0)
(-4617.72 0 0)
(-4622.95 0 0)
(-4628.18 0 0)
(-4633.41 0 0)
(-4638.63 0 0)
(-4643.86 0 0)
(-4649.09 0 0)
(-4654.32 0 0)
(-4659.54 0 0)
(-4664.77 0 0)
(-4670 0 0)
(-4675.23 0 0)
(-4680.45 0 0)
(-4685.68 0 0)
(-4690.9 0 0)
(-4696.13 0 0)
(-4701.36 0 0)
(-4706.58 0 0)
(-4711.81 0 0)
(-4717.03 0 0)
(-4722.26 0 0)
(-4727.48 0 0)
(-4732.71 0 0)
(-4737.93 0 0)
(-4743.16 0 0)
(-4748.38 0 0)
(-4753.61 0 0)
(-4758.83 0 0)
(-4764.05 0 0)
(-4769.28 0 0)
(-4774.5 0 0)
(-4779.72 0 0)
(-4784.95 0 0)
(-4790.17 0 0)
(-4795.39 0 0)
(-4800.61 0 0)
(-4805.84 0 0)
(-4811.06 0 0)
(-4816.28 0 0)
(-4821.5 0 0)
(-4826.72 0 0)
(-4831.95 0 0)
(-4837.17 0 0)
(-4842.39 0 0)
(-4847.61 0 0)
(-4852.83 0 0)
(-4858.05 0 0)
(-4863.27 0 0)
(-4868.49 0 0)
(-4873.71 0 0)
(-4878.93 0 0)
(-4884.15 0 0)
(-4889.37 0 0)
(-4894.59 0 0)
(-4899.81 0 0)
(-4905.03 0 0)
(-4910.24 0 0)
(-4915.46 0 0)
(-4920.68 0 0)
(-4925.9 0 0)
(-4931.12 0 0)
(-4936.33 0 0)
(-4941.55 0 0)
(-4946.77 0 0)
(-4951.99 0 0)
(-4957.2 0 0)
(-4962.42 0 0)
(-4967.64 0 0)
(-4972.85 0 0)
(-4978.07 0 0)
(-4983.29 0 0)
(-4988.5 0 0)
(-4993.72 0 0)
(-4998.93 0 0)
(-5004.15 0 0)
(-5009.36 0 0)
(-5014.58 0 0)
(-5019.79 0 0)
(-5025.01 0 0)
(-5030.22 0 0)
(-5035.44 0 0)
(-5040.65 0 0)
(-5045.86 0 0)
(-5051.08 0 0)
(-5056.29 0 0)
(-5061.5 0 0)
(-5066.72 0 0)
(-5071.93 0 0)
(-5077.14 0 0)
(-5082.36 0 0)
(-5087.57 0 0)
(-5092.78 0 0)
(-5097.99 0 0)
(-5103.2 0 0)
(-5108.42 0 0)
(-5113.63 0 0)
(-5118.84 0 0)
(-5124.05 0 0)
(-5129.26 0 0)
(-5134.47 0 0)
(-5139.68 0 0)
(-5144.89 0 0)
(-5150.1 0 0)
(-5155.31 0 0)
(-5160.52 0 0)
(-5165.73 0 0)
(-5170.94 0 0)
(-5176.15 0 0)
(-5181.36 0 0)
(-5186.56 0 0)
(-5191.77 0 0)
(-5196.98 0 0)
(-5202.19 0 0)
(-5207.4 0 0)
(-5212.61 0 0)
(-5217.81 0 0)
(-5223.02 0 0)
(-5228.23 0 0)
(-5233.43 0 0)
(-5238.64 0 0)
(-5243.85 0 0)
(-5249.05 0 0)
(-5254.26 0 0)
(-5259.47 0 0)
(-5264.67 0 0)
(-5269.88 0 0)
(-5275.08 0 0)
(-5280.29 0 0)
(-5285.49 0 0)
(-5290.7 0 0)
(-5295.9 0 0)
(-5301.11 0 0)
(-5306.31 0 0)
(-5311.51 0 0)
(-5316.72 0 0)
(-5321.92 0 0)
(-5327.12 0 0)
(-5332.33 0 0)
(-5337.53 0 0)
(-5342.73 0 0)
(-5347.94 0 0)
(-5353.14 0 0)
(-5358.34 0 0)
(-5363.54 0 0)
(-5368.74 0 0)
(-5373.95 0 0)
(-5379.15 0 0)
(-5384.35 0 0)
(-5389.55 0 0)
(-5394.75 0 0)
(-5399.95 0 0)
(-5405.15 0 0)
(-5410.35 0 0)
(-5415.55 0 0)
(-5420.75 0 0)
(-5425.95 0 0)
(-5431.15 0 0)
(-5436.35 0 0)
(-5441.55 0 0)
(-5446.74 0 0)
(-5451.94 0 0)
(-5457.14 0 0)
(-5462.34 0 0)
(-5467.54 0 0)
(-5472.74 0 0)
(-5477.93 0 0)
(-5483.13 0 0)
(-5488.33 0 0)
(-5493.52 0 0)
(-5498.72 0 0)
(-5503.92 0 0)
(-5509.11 0 0)
(-5514.31 0 0)
(-5519.51 0 0)
(-5524.7 0 0)
(-5529.9 0 0)
(-5535.09 0 0)
(-5540.29 0 0)
(-5545.48 0 0)
(-5550.68 0 0)
(-5555.87 0 0)
(-5561.06 0 0)
(-5566.26 0 0)
(-5571.45 0 0)
(-5576.65 0 0)
(-5581.84 0 0)
(-5587.03 0 0)
(-5592.22 0 0)
(-5597.42 0 0)
(-5602.61 0 0)
(-5607.8 0 0)
(-5612.99 0 0)
(-5618.19 0 0)
(-5623.38 0 0)
(-5628.57 0 0)
(-5633.76 0 0)
(-5638.95 0 0)
(-5644.14 0 0)
(-5649.33 0 0)
(-5654.52 0 0)
(-5659.71 0 0)
(-5664.9 0 0)
(-5670.09 0 0)
(-5675.28 0 0)
(-5680.47 0 0)
(-5685.66 0 0)
(-5690.85 0 0)
(-5696.04 0 0)
(-5701.23 0 0)
(-5706.42 0 0)
(-5711.6 0 0)
(-5716.79 0 0)
(-5721.98 0 0)
(-5727.17 0 0)
(-5732.35 0 0)
(-5737.54 0 0)
(-5742.73 0 0)
(-5747.91 0 0)
(-5753.1 0 0)
(-5758.29 0 0)
(-5763.47 0 0)
(-5768.66 0 0)
(-5773.84 0 0)
(-5779.03 0 0)
(-5784.21 0 0)
(-5789.4 0 0)
(-5794.58 0 0)
(-5799.77 0 0)
(-5804.95 0 0)
(-5810.13 0 0)
(-5815.32 0 0)
(-5820.5 0 0)
(-5825.69 0 0)
(-5830.87 0 0)
(-5836.05 0 0)
(-5841.23 0 0)
(-5846.42 0 0)
(-5851.6 0 0)
(-5856.78 0 0)
(-5861.96 0 0)
(-5867.14 0 0)
(-5872.33 0 0)
(-5877.51 0 0)
(-5882.69 0 0)
(-5887.87 0 0)
(-5893.05 0 0)
(-5898.23 0 0)
(-5903.41 0 0)
(-5908.59 0 0)
(-5913.77 0 0)
(-5918.95 0 0)
(-5924.13 0 0)
(-5929.31 0 0)
(-5934.48 0 0)
(-5939.66 0 0)
(-5944.84 0 0)
(-5950.02 0 0)
(-5955.2 0 0)
(-5960.37 0 0)
(-5965.55 0 0)
(-5970.73 0 0)
(-5975.91 0 0)
(-5981.08 0 0)
(-5986.26 0 0)
(-5991.44 0 0)
(-5996.61 0 0)
(-6001.79 0 0)
(-6006.96 0 0)
(-6012.14 0 0)
(-6017.31 0 0)
(-6022.49 0 0)
(-6027.66 0 0)
(-6032.84 0 0)
(-6038.01 0 0)
(-6043.19 0 0)
(-6048.36 0 0)
(-6053.53 0 0)
(-6058.71 0 0)
(-6063.88 0 0)
(-6069.05 0 0)
(-6074.23 0 0)
(-6079.4 0 0)
(-6084.57 0 0)
(-6089.74 0 0)
(-6094.91 0 0)
(-6100.09 0 0)
(-6105.26 0 0)
(-6110.43 0 0)
(-6115.6 0 0)
(-6120.77 0 0)
(-6125.94 0 0)
(-6131.11 0 0)
(-6136.28 0 0)
(-6141.45 0 0)
(-6146.62 0 0)
(-6151.79 0 0)
(-6156.96 0 0)
(-6162.13 0 0)
(-6167.3 0 0)
(-6172.46 0 0)
(-6177.63 0 0)
(-6182.8 0 0)
(-6187.97 0 0)
(-6193.13 0 0)
(-6198.3 0 0)
(-6203.47 0 0)
(-6208.64 0 0)
(-6213.8 0 0)
(-6218.97 0 0)
(-6224.13 0 0)
(-6229.3 0 0)
(-6234.47 0 0)
(-6239.63 0 0)
(-6244.8 0 0)
(-6249.96 0 0)
(-6255.13 0 0)
(-6260.29 0 0)
(-6265.45 0 0)
(-6270.62 0 0)
(-6275.78 0 0)
(-6280.94 0 0)
(-6286.11 0 0)
(-6291.27 0 0)
(-6296.43 0 0)
(-6301.6 0 0)
(-6306.76 0 0)
(-6311.92 0 0)
(-6317.08 0 0)
(-6322.24 0 0)
(-6327.4 0 0)
(-6332.57 0 0)
(-6337.73 0 0)
(-6342.89 0 0)
(-6348.05 0 0)
(-6353.21 0 0)
(-6358.37 0 0)
(-6363.53 0 0)
(-6368.69 0 0)
(-6373.85 0 0)
(-6379 0 0)
(-6384.16 0 0)
(-6389.32 0 0)
(-6394.48 0 0)
(-6399.64 0 0)
(-6404.79 0 0)
(-6409.95 0 0)
(-6415.11 0 0)
(-6420.27 0 0)
(-6425.42 0 0)
(-6430.58 0 0)
(-6435.74 0 0)
(-6440.89 0 0)
(-6446.05 0 0)
(-6451.2 0 0)
(-6456.36 0 0)
(-6461.51 0 0)
(-6466.67 0 0)
(-6471.82 0 0)
(-6476.98 0 0)
(-6482.13 0 0)
(-6487.28 0 0)
(-6492.44 0 0)
(-6497.59 0 0)
(-6502.74 0 0)
(-6507.9 0 0)
(-6513.05 0 0)
(-6518.2 0 0)
(-6523.35 0 0)
(-6528.51 0 0)
(-6533.66 0 0)
(-6538.81 0 0)
(-6543.96 0 0)
(-6549.11 0 0)
(-6554.26 0 0)
(-6559.41 0 0)
(-6564.56 0 0)
(-6569.71 0 0)
(-6574.86 0 0)
(-6580.01 0 0)
(-6585.16 0 0)
(-6590.31 0 0)
(-6595.46 0 0)
(-6600.6 0 0)
(-6605.75 0 0)
(-6610.9 0 0)
(-6616.05 0 0)
(-6621.2 0 0)
(-6626.34 0 0)
(-6631.49 0 0)
(-6636.64 0 0)
(-6641.78 0 0)
(-6646.93 0 0)
(-6652.07 0 0)
(-6657.22 0 0)
(-6662.36 0 0)
(-6667.51 0 0)
(-6672.65 0 0)
(-6677.8 0 0)
(-6682.94 0 0)
(-6688.09 0 0)
(-6693.23 0 0)
(-6698.37 0 0)
(-6703.52 0 0)
(-6708.66 0 0)
(-6713.8 0 0)
(-6718.95 0 0)
(-6724.09 0 0)
(-6729.23 0 0)
(-6734.37 0 0)
(-6739.51 0 0)
(-6744.65 0 0)
(-6749.8 0 0)
(-6754.94 0 0)
(-6760.08 0 0)
(-6765.22 0 0)
(-6770.36 0 0)
(-6775.5 0 0)
(-6780.64 0 0)
(-6785.77 0 0)
(-6790.91 0 0)
(-6796.05 0 0)
(-6801.19 0 0)
(-6806.33 0 0)
(-6811.47 0 0)
(-6816.6 0 0)
(-6821.74 0 0)
(-6826.88 0 0)
(-6832.01 0 0)
(-6837.15 0 0)
(-6842.29 0 0)
(-6847.42 0 0)
(-6852.56 0 0)
(-6857.69 0 0)
(-6862.83 0 0)
(-6867.96 0 0)
(-6873.1 0 0)
(-6878.23 0 0)
(-6883.37 0 0)
(-6888.5 0 0)
(-6893.64 0 0)
(-6898.77 0 0)
(-6903.9 0 0)
(-6909.03 0 0)
(-6914.17 0 0)
(-6919.3 0 0)
(-6924.43 0 0)
(-6929.56 0 0)
(-6934.69 0 0)
(-6939.83 0 0)
(-6944.96 0 0)
(-6950.09 0 0)
(-6955.22 0 0)
(-6960.35 0 0)
(-6965.48 0 0)
(-6970.61 0 0)
(-6975.74 0 0)
(-6980.87 0 0)
(-6985.99 0 0)
(-6991.12 0 0)
(-6996.25 0 0)
(-7001.38 0 0)
(-7006.51 0 0)
(-7011.63 0 0)
(-7016.76 0 0)
(-7021.89 0 0)
(-7027.01 0 0)
(-7032.14 0 0)
(-7037.27 0 0)
(-7042.39 0 0)
(-7047.52 0 0)
(-7052.64 0 0)
(-7057.77 0 0)
(-7062.89 0 0)
(-7068.02 0 0)
(-7073.14 0 0)
(-7078.27 0 0)
(-7083.39 0 0)
(-7088.51 0 0)
(-7093.64 0 0)
(-7098.76 0 0)
(-7103.88 0 0)
(-7109 0 0)
(-7114.12 0 0)
(-7119.25 0 0)
(-7124.37 0 0)
(-7129.49 0 0)
(-7134.61 0 0)
(-7139.73 0 0)
(-7144.85 0 0)
(-7149.97 0 0)
(-7155.09 0 0)
(-7160.21 0 0)
(-7165.33 0 0)
(-7170.45 0 0)
(-7175.57 0 0)
(-7180.68 0 0)
(-7185.8 0 0)
(-7190.92 0 0)
(-7196.04 0 0)
(-7201.16 0 0)
(-7206.27 0 0)
(-7211.39 0 0)
(-7216.51 0 0)
(-7221.62 0 0)
(-7226.74 0 0)
(-7231.85 0 0)
(-7236.97 0 0)
(-7242.08 0 0)
(-7247.2 0 0)
(-7252.31 0 0)
(-7257.43 0 0)
(-7262.54 0 0)
(-7267.65 0 0)
(-7272.77 0 0)
(-7277.88 0 0)
(-7282.99 0 0)
(-7288.1 0 0)
(-7293.22 0 0)
(-7298.33 0 0)
(-7303.44 0 0)
(-7308.55 0 0)
(-7313.66 0 0)
(-7318.77 0 0)
(-7323.88 0 0)
(-7328.99 0 0)
(-7334.1 0 0)
(-7339.21 0 0)
(-7344.32 0 0)
(-7349.43 0 0)
(-7354.54 0 0)
(-7359.65 0 0)
(-7364.76 0 0)
(-7369.86 0 0)
(-7374.97 0 0)
(-7380.08 0 0)
(-7385.19 0 0)
(-7390.29 0 0)
(-7395.4 0 0)
(-7400.5 0 0)
(-7405.61 0 0)
(-7410.72 0 0)
(-7415.82 0 0)
(-7420.93 0 0)
(-7426.03 0 0)
(-7431.13 0 0)
(-7436.24 0 0)
(-7441.34 0 0)
(-7446.45 0 0)
(-7451.55 0 0)
(-7456.65 0 0)
(-7461.75 0 0)
(-7466.86 0 0)
(-7471.96 0 0)
(-7477.06 0 0)
(-7482.16 0 0)
(-7487.26 0 0)
(-7492.36 0 0)
(-7497.46 0 0)
(-7502.56 0 0)
(-7507.66 0 0)
(-7512.76 0 0)
(-7517.86 0 0)
(-7522.96 0 0)
(-7528.06 0 0)
(-7533.16 0 0)
(-7538.26 0 0)
(-7543.35 0 0)
(-7548.45 0 0)
(-7553.55 0 0)
(-7558.65 0 0)
(-7563.74 0 0)
(-7568.84 0 0)
(-7573.93 0 0)
(-7579.03 0 0)
(-7584.13 0 0)
(-7589.22 0 0)
(-7594.32 0 0)
(-7599.41 0 0)
(-7604.5 0 0)
(-7609.6 0 0)
(-7614.69 0 0)
(-7619.79 0 0)
(-7624.88 0 0)
(-7629.97 0 0)
(-7635.06 0 0)
(-7640.16 0 0)
(-7645.25 0 0)
(-7650.34 0 0)
(-7655.43 0 0)
(-7660.52 0 0)
(-7665.61 0 0)
(-7670.7 0 0)
(-7675.79 0 0)
(-7680.88 0 0)
(-7685.97 0 0)
(-7691.06 0 0)
(-7696.15 0 0)
(-7701.24 0 0)
(-7706.32 0 0)
(-7711.41 0 0)
(-7716.5 0 0)
(-7721.58 0 0)
(-7726.67 0 0)
(-7731.76 0 0)
(-7736.84 0 0)
(-7741.93 0 0)
(-7747.01 0 0)
(-7752.1 0 0)
(-7757.18 0 0)
(-7762.26 0 0)
(-7767.35 0 0)
(-7772.43 0 0)
(-7777.51 0 0)
(-7782.6 0 0)
(-7787.68 0 0)
(-7792.76 0 0)
(-7797.84 0 0)
(-7802.92 0 0)
(-7808 0 0)
(-7813.08 0 0)
(-7818.16 0 0)
(-7823.24 0 0)
(-7828.32 0 0)
(-7833.4 0 0)
(-7838.48 0 0)
(-7843.55 0 0)
(-7848.63 0 0)
(-7853.71 0 0)
(-7858.79 0 0)
(-7863.87 0 0)
(-7868.95 0 0)
(-7874.03 0 0)
(-7879.1 0 0)
(-7884.18 0 0)
(-7889.26 0 0)
(-7894.34 0 0)
(-7899.42 0 0)
(-7904.5 0 0)
(-7909.58 0 0)
(-7914.66 0 0)
(-7919.73 0 0)
(-7924.81 0 0)
(-7929.89 0 0)
(-7934.97 0 0)
(-7940.05 0 0)
(-7945.13 0 0)
(-7950.21 0 0)
(-7955.29 0 0)
(-7960.36 0 0)
(-7965.44 0 0)
(-7970.52 0 0)
(-7975.59 0 0)
(-7980.67 0 0)
(-7985.75 0 0)
(-7990.82 0 0)
(-7995.89 0 0)
(-8000.97 0 0)
(-8006.04 0 0)
(-8011.11 0 0)
(-8016.18 0 0)
(-8021.25 0 0)
(-8026.31 0 0)
(-8031.38 0 0)
(-8036.45 0 0)
(-8041.51 0 0)
(-8046.58 0 0)
(-8051.64 0 0)
(-8056.7 0 0)
(-8061.77 0 0)
(-8066.83 0 0)
(-8071.89 0 0)
(-8076.95 0 0)
(-8082.01 0 0)
(-8087.07 0 0)
(-8092.13 0 0)
(-8097.19 0 0)
(-8102.25 0 0)
(-8107.31 0 0)
(-8112.37 0 0)
(-8117.43 0 0)
(-8122.49 0 0)
(-8127.55 0 0)
(-8132.61 0 0)
(-8137.67 0 0)
(-8142.73 0 0)
(-8147.79 0 0)
(-8152.85 0 0)
(-8157.91 0 0)
(-8162.96 0 0)
(-8168.02 0 0)
(-8173.08 0 0)
(-8178.14 0 0)
(-8183.2 0 0)
(-8188.26 0 0)
(-8193.32 0 0)
(-8198.37 0 0)
(-8203.43 0 0)
(-8208.49 0 0)
(-8213.55 0 0)
(-8218.6 0 0)
(-8223.66 0 0)
(-8228.71 0 0)
(-8233.77 0 0)
(-8238.82 0 0)
(-8243.88 0 0)
(-8248.93 0 0)
(-8253.99 0 0)
(-8259.04 0 0)
(-8264.09 0 0)
(-8269.14 0 0)
(-8274.2 0 0)
(-8279.25 0 0)
(-8284.3 0 0)
(-8289.35 0 0)
(-8294.4 0 0)
(-8299.45 0 0)
(-8304.5 0 0)
(-8309.55 0 0)
(-8314.6 0 0)
(-8319.65 0 0)
(-8324.7 0 0)
(-8329.75 0 0)
(-8334.79 0 0)
(-8339.85 0 0)
(-8344.88 0 0)
(-8349.95 0 0)
(-8354.97 0 0)
(-8360.05 0 0)
(-8365.06 0 0)
(-8370.16 0 0)
(-8375.13 0 0)
(-8380.27 0 0)
(-8385.2 0 0)
(-8390.39 0 0)
(-8395.25 0 0)
(-8400.53 0 0)
(-8405.28 0 0)
(-8410.68 0 0)
(-8415.28 0 0)
(-8420.86 0 0)
(-8425.27 0 0)
(-8431.05 0 0)
(-8435.23 0 0)
(-8441.26 0 0)
(-8445.19 0 0)
(-8451.44 0 0)
(-8455.19 0 0)
(-8461.57 0 0)
(-8465.28 0 0)
(-8471.57 0 0)
(-8475.53 0 0)
(-8481.34 0 0)
(-8486.07 0 0)
(-8490.93 0 0)
(-8496.24 0 0)
(-8501.33 0 0)
(-8506.18 0 0)
(-8511.27 0 0)
(-8516.36 0 0)
(-8521.28 0 0)
(-8526.3 0 0)
(-8531.36 0 0)
(-8536.51 0 0)
(-8541.51 0 0)
(-8546.55 0 0)
(-8551.56 0 0)
(-8556.62 0 0)
(-8561.59 0 0)
(-8566.61 0 0)
(-8571.62 0 0)
(-8576.71 0 0)
(-8581.71 0 0)
(-8586.94 0 0)
(-8591.53 0 0)
(-8597.4 0 0)
(-8601.04 0 0)
(-8608.03 0 0)
(-8610.43 0 0)
(-8618.68 0 0)
(-8620 0 0)
(-8629.09 0 0)
(-8630.02 0 0)
(-8638.93 0 0)
(-8640.66 0 0)
(-8648.01 0 0)
(-8651.99 0 0)
(-8656.57 0 0)
(-8663.25 0 0)
(-8665.64 0 0)
(-8674.43 0 0)
(-8674.8 0 0)
(-8684.84 0 0)
(-8684.96 0 0)
(-8694.35 0 0)
(-8695.85 0 0)
(-8703.13 0 0)
(-8707.49 0 0)
(-8711.63 0 0)
(-8718.91 0 0)
(-8720.38 0 0)
(-8730.08 0 0)
(-8729.93 0 0)
(-8739.95 0 0)
(-8740.46 0 0)
(-8749.09 0 0)
(-8751.77 0 0)
(-8757.59 0 0)
(-8763.53 0 0)
(-8765.98 0 0)
(-8775.08 0 0)
(-8774.83 0 0)
(-8785.71 0 0)
(-8784.94 0 0)
(-8794.82 0 0)
(-8796.72 0 0)
(-8802.49 0 0)
(-8809.47 0 0)
(-8809.95 0 0)
(-8821.42 0 0)
(-8819.11 0 0)
(-8831 0 0)
(-8830.82 0 0)
(-8838.4 0 0)
(-8843.88 0 0)
(-8845.59 0 0)
(-8856.08 0 0)
(-8854.45 0 0)
(-8866.16 0 0)
(-8865.42 0 0)
(-8874.4 0 0)
(-8877.77 0 0)
(-8881.83 0 0)
(-8890.32 0 0)
(-8889.77 0 0)
(-8901.63 0 0)
(-8899.62 0 0)
(-8910.5 0 0)
(-8912.02 0 0)
(-8917.2 0 0)
(-8925.64 0 0)
(-8924.11 0 0)
(-8937.46 0 0)
(-8934.2 0 0)
(-8945.4 0 0)
(-8947.88 0 0)
(-8951.05 0 0)
(-8961.79 0 0)
(-8958.62 0 0)
(-8972.13 0 0)
(-8970.35 0 0)
(-8978.96 0 0)
(-8984.12 0 0)
(-8985.49 0 0)
(-8996.71 0 0)
(-8994.15 0 0)
(-9006.62 0 0)
(-9005.77 0 0)
(-9013.53 0 0)
(-9019.88 0 0)
(-9019.32 0 0)
(-9032.98 0 0)
(-9028.45 0 0)
(-9041.1 0 0)
(-9042.73 0 0)
(-9045.69 0 0)
(-9057.43 0 0)
(-9052.99 0 0)
(-9067.5 0 0)
(-9065.62 0 0)
(-9072.98 0 0)
(-9080.46 0 0)
(-9079.14 0 0)
(-9092.44 0 0)
(-9089.06 0 0)
(-9100.72 0 0)
(-9102.38 0 0)
(-9106.27 0 0)
(-9117.03 0 0)
(-9112.76 0 0)
(-9127.94 0 0)
(-9125.09 0 0)
(-9132.66 0 0)
(-9141.51 0 0)
(-9137.51 0 0)
(-9153.38 0 0)
(-9149.3 0 0)
(-9158.91 0 0)
(-9164.68 0 0)
(-9163.96 0 0)
(-9177.91 0 0)
(-9173.24 0 0)
(-9185.84 0 0)
(-9187.55 0 0)
(-9190.29 0 0)
(-9202.62 0 0)
(-9197.27 0 0)
(-9212.25 0 0)
(-9210.91 0 0)
(-9216.33 0 0)
(-9227.25 0 0)
(-9221.7 0 0)
(-9238.17 0 0)
(-9234.95 0 0)
(-9241.78 0 0)
(-9251.73 0 0)
(-9246.98 0 0)
(-9262.91 0 0)
(-9259.42 0 0)
(-9267.83 0 0)
(-9275.41 0 0)
(-9272.54 0 0)
(-9288.21 0 0)
(-9283.11 0 0)
(-9293.87 0 0)
(-9299.87 0 0)
(-9296.94 0 0)
(-9313.99 0 0)
(-9307.49 0 0)
(-9318.6 0 0)
(-9325.34 0 0)
(-9321.55 0 0)
(-9338.46 0 0)
(-9333.03 0 0)
(-9343.31 0 0)
(-9349.54 0 0)
(-9347.3 0 0)
(-9363.2 0 0)
(-9357.14 0 0)
(-9369.04 0 0)
(-9374.48 0 0)
(-9371.06 0 0)
(-9389.16 0 0)
(-9382.08 0 0)
(-9392.45 0 0)
(-9400.96 0 0)
(-9395.55 0 0)
(-9412.86 0 0)
(-9408.38 0 0)
(-9416.85 0 0)
(-9425.28 0 0)
(-9420.74 0 0)
(-9438.23 0 0)
(-9432.59 0 0)
(-9441.13 0 0)
(-9451.98 0 0)
(-9443.89 0 0)
(-9462.81 0 0)
(-9459.72 0 0)
(-9463.43 0 0)
(-9477.57 0 0)
(-9469.98 0 0)
(-9485.81 0 0)
(-9485.51 0 0)
(-9488.11 0 0)
(-9502.6 0 0)
(-9494.31 0 0)
(-9510.41 0 0)
(-9512.09 0 0)
(-9510.29 0 0)
(-9528.8 0 0)
(-9520.41 0 0)
(-9531.93 0 0)
(-9539.77 0 0)
(-9534.46 0 0)
(-9552.15 0 0)
(-9547.31 0 0)
(-9554.97 0 0)
(-9565.81 0 0)
(-9558.55 0 0)
(-9576.4 0 0)
(-9574.36 0 0)
(-9576.63 0 0)
(-9592.66 0 0)
(-9583.93 0 0)
(-9598.1 0 0)
(-9602.72 0 0)
(-9599.31 0 0)
(-9617.05 0 0)
(-9611.12 0 0)
(-9619.65 0 0)
(-9630.02 0 0)
(-9623.44 0 0)
(-9640.25 0 0)
(-9638.88 0 0)
(-9641.32 0 0)
(-9656.44 0 0)
(-9648.92 0 0)
(-9661.96 0 0)
(-9667.41 0 0)
(-9663.81 0 0)
(-9680.56 0 0)
(-9676.65 0 0)
(-9683.22 0 0)
(-9694.32 0 0)
(-9688.4 0 0)
(-9703.52 0 0)
(-9704.5 0 0)
(-9704.69 0 0)
(-9720.58 0 0)
(-9714.74 0 0)
(-9724.14 0 0)
(-9733.07 0 0)
(-9728.38 0 0)
(-9743.2 0 0)
(-9742.82 0 0)
(-9746.13 0 0)
(-9759.14 0 0)
(-9753.27 0 0)
(-9765.64 0 0)
(-9771.64 0 0)
(-9767.27 0 0)
(-9783.59 0 0)
(-9782.42 0 0)
(-9785.29 0 0)
(-9798.01 0 0)
(-9793.94 0 0)
(-9805.22 0 0)
(-9809.65 0 0)
(-9807.91 0 0)
(-9823.52 0 0)
(-9820.82 0 0)
(-9825.02 0 0)
(-9838.07 0 0)
(-9833.27 0 0)
(-9843.94 0 0)
(-9849.64 0 0)
(-9848.04 0 0)
(-9862 0 0)
(-9860.34 0 0)
(-9865.08 0 0)
(-9877.4 0 0)
(-9872.47 0 0)
(-9883.1 0 0)
(-9889.85 0 0)
(-9887.25 0 0)
(-9900.69 0 0)
(-9900.79 0 0)
(-9904.08 0 0)
(-9916.45 0 0)
(-9912.65 0 0)
(-9921.89 0 0)
(-9929.6 0 0)
(-9926.66 0 0)
(-9939.57 0 0)
(-9941.22 0 0)
(-9942.65 0 0)
(-9955.72 0 0)
(-9953.18 0 0)
(-9959.99 0 0)
(-9969.52 0 0)
(-9966.57 0 0)
(-9977.83 0 0)
(-9981.71 0 0)
(-9981.49 0 0)
(-9994.7 0 0)
(-9993.82 0 0)
(-9997.89 0 0)
(-10009.5 0 0)
(-10006.9 0 0)
(-10015.4 0 0)
(-10022.3 0 0)
(-10021 0 0)
(-10032.9 0 0)
(-10034.6 0 0)
(-10036.1 0 0)
(-10048.9 0 0)
(-10047.5 0 0)
(-10052.7 0 0)
(-10062.8 0 0)
(-10060.9 0 0)
(-10070.2 0 0)
(-10075.7 0 0)
(-10075 0 0)
(-10087.1 0 0)
(-10088.6 0 0)
(-10090.5 0 0)
(-10102.4 0 0)
(-10101.6 0 0)