/*--------------------------------*- C++ -*----------------------------------*\
  =========                 |
  \\      /  F ield         | OpenFOAM: The Open Source CFD Toolbox
   \\    /   O peration     | Website:  https://openfoam.org
    \\  /    A nd           | Version:  9
     \\/     M anipulation  |
\*---------------------------------------------------------------------------*/
FoamFile
{
    format      ascii;
    class       volScalarField;
    location    "0.02";
    object      p;
}
// * * * * * * * * * * * * * * * * * * * * * * * * * * * * * * * * * * * * * //

dimensions      [1 -1 -2 0 0 0 0];

internalField   nonuniform List<scalar> 
10000
(
41585
41584.7
41584.4
41584.1
41583.8
41583.6
41583.3
41583
41582.7
41582.5
41582.2
41581.9
41581.6
41581.3
41581.1
41580.8
41580.5
41580.2
41579.9
41579.6
41579.4
41579.1
41578.8
41578.5
41578.2
41577.9
41577.7
41577.4
41577.1
41576.8
41576.5
41576.2
41575.9
41575.7
41575.4
41575.1
41574.8
41574.5
41574.2
41573.9
41573.6
41573.4
41573.1
41572.8
41572.5
41572.2
41571.9
41571.6
41571.3
41571
41570.7
41570.4
41570.1
41569.9
41569.6
41569.3
41569
41568.7
41568.4
41568.1
41567.8
41567.5
41567.2
41566.9
41566.6
41566.3
41566
41565.7
41565.4
41565.1
41564.8
41564.5
41564.2
41563.9
41563.6
41563.3
41563
41562.7
41562.4
41562.1
41561.8
41561.5
41561.2
41560.9
41560.6
41560.3
41560
41559.7
41559.4
41559.1
41558.8
41558.5
41558.2
41557.8
41557.5
41557.2
41556.9
41556.6
41556.3
41556
41555.7
41555.4
41555.1
41554.8
41554.4
41554.1
41553.8
41553.5
41553.2
41552.9
41552.6
41552.3
41552
41551.6
41551.3
41551
41550.7
41550.4
41550.1
41549.8
41549.4
41549.1
41548.8
41548.5
41548.2
41547.9
41547.5
41547.2
41546.9
41546.6
41546.3
41545.9
41545.6
41545.3
41545
41544.7
41544.3
41544
41543.7
41543.4
41543
41542.7
41542.4
41542.1
41541.8
41541.4
41541.1
41540.8
41540.5
41540.1
41539.8
41539.5
41539.2
41538.8
41538.5
41538.2
41537.8
41537.5
41537.2
41536.9
41536.5
41536.2
41535.9
41535.5
41535.2
41534.9
41534.5
41534.2
41533.9
41533.6
41533.2
41532.9
41532.6
41532.2
41531.9
41531.6
41531.2
41530.9
41530.5
41530.2
41529.9
41529.5
41529.2
41528.9
41528.5
41528.2
41527.9
41527.5
41527.2
41526.8
41526.5
41526.2
41525.8
41525.5
41525.1
41524.8
41524.5
41524.1
41523.8
41523.4
41523.1
41522.7
41522.4
41522.1
41521.7
41521.4
41521
41520.7
41520.3
41520
41519.6
41519.3
41518.9
41518.6
41518.3
41517.9
41517.6
41517.2
41516.9
41516.5
41516.2
41515.8
41515.5
41515.1
41514.8
41514.4
41514.1
41513.7
41513.4
41513
41512.6
41512.3
41511.9
41511.6
41511.2
41510.9
41510.5
41510.2
41509.8
41509.5
41509.1
41508.7
41508.4
41508
41507.7
41507.3
41507
41506.6
41506.2
41505.9
41505.5
41505.2
41504.8
41504.4
41504.1
41503.7
41503.4
41503
41502.6
41502.3
41501.9
41501.5
41501.2
41500.8
41500.5
41500.1
41499.7
41499.4
41499
41498.6
41498.3
41497.9
41497.5
41497.2
41496.8
41496.4
41496.1
41495.7
41495.3
41494.9
41494.6
41494.2
41493.8
41493.5
41493.1
41492.7
41492.4
41492
41491.6
41491.2
41490.9
41490.5
41490.1
41489.7
41489.4
41489
41488.6
41488.2
41487.9
41487.5
41487.1
41486.7
41486.4
41486
41485.6
41485.2
41484.8
41484.5
41484.1
41483.7
41483.3
41482.9
41482.6
41482.2
41481.8
41481.4
41481
41480.7
41480.3
41479.9
41479.5
41479.1
41478.7
41478.4
41478
41477.6
41477.2
41476.8
41476.4
41476
41475.7
41475.3
41474.9
41474.5
41474.1
41473.7
41473.3
41472.9
41472.5
41472.2
41471.8
41471.4
41471
41470.6
41470.2
41469.8
41469.4
41469
41468.6
41468.2
41467.8
41467.5
41467.1
41466.7
41466.3
41465.9
41465.5
41465.1
41464.7
41464.3
41463.9
41463.5
41463.1
41462.7
41462.3
41461.9
41461.5
41461.1
41460.7
41460.3
41459.9
41459.5
41459.1
41458.7
41458.3
41457.9
41457.5
41457.1
41456.7
41456.3
41455.9
41455.5
41455.1
41454.7
41454.3
41453.9
41453.4
41453
41452.6
41452.2
41451.8
41451.4
41451
41450.6
41450.2
41449.8
41449.4
41449
41448.5
41448.1
41447.7
41447.3
41446.9
41446.5
41446.1
41445.7
41445.3
41444.8
41444.4
41444
41443.6
41443.2
41442.8
41442.4
41441.9
41441.5
41441.1
41440.7
41440.3
41439.9
41439.4
41439
41438.6
41438.2
41437.8
41437.3
41436.9
41436.5
41436.1
41435.7
41435.2
41434.8
41434.4
41434
41433.6
41433.1
41432.7
41432.3
41431.9
41431.4
41431
41430.6
41430.2
41429.7
41429.3
41428.9
41428.5
41428
41427.6
41427.2
41426.7
41426.3
41425.9
41425.5
41425
41424.6
41424.2
41423.7
41423.3
41422.9
41422.4
41422
41421.6
41421.2
41420.7
41420.3
41419.9
41419.4
41419
41418.5
41418.1
41417.7
41417.2
41416.8
41416.4
41415.9
41415.5
41415.1
41414.6
41414.2
41413.7
41413.3
41412.9
41412.4
41412
41411.5
41411.1
41410.7
41410.2
41409.8
41409.3
41408.9
41408.5
41408
41407.6
41407.1
41406.7
41406.2
41405.8
41405.4
41404.9
41404.5
41404
41403.6
41403.1
41402.7
41402.2
41401.8
41401.3
41400.9
41400.4
41400
41399.5
41399.1
41398.6
41398.2
41397.7
41397.3
41396.8
41396.4
41395.9
41395.5
41395
41394.6
41394.1
41393.7
41393.2
41392.8
41392.3
41391.8
41391.4
41390.9
41390.5
41390
41389.6
41389.1
41388.6
41388.2
41387.7
41387.3
41386.8
41386.4
41385.9
41385.4
41385
41384.5
41384
41383.6
41383.1
41382.7
41382.2
41381.7
41381.3
41380.8
41380.3
41379.9
41379.4
41379
41378.5
41378
41377.6
41377.1
41376.6
41376.2
41375.7
41375.2
41374.7
41374.3
41373.8
41373.3
41372.9
41372.4
41371.9
41371.5
41371
41370.5
41370
41369.6
41369.1
41368.6
41368.2
41367.7
41367.2
41366.7
41366.3
41365.8
41365.3
41364.8
41364.4
41363.9
41363.4
41362.9
41362.5
41362
41361.5
41361
41360.5
41360.1
41359.6
41359.1
41358.6
41358.1
41357.7
41357.2
41356.7
41356.2
41355.7
41355.3
41354.8
41354.3
41353.8
41353.3
41352.8
41352.4
41351.9
41351.4
41350.9
41350.4
41349.9
41349.4
41349
41348.5
41348
41347.5
41347
41346.5
41346
41345.5
41345
41344.6
41344.1
41343.6
41343.1
41342.6
41342.1
41341.6
41341.1
41340.6
41340.1
41339.6
41339.1
41338.6
41338.1
41337.7
41337.2
41336.7
41336.2
41335.7
41335.2
41334.7
41334.2
41333.7
41333.2
41332.7
41332.2
41331.7
41331.2
41330.7
41330.2
41329.7
41329.2
41328.7
41328.2
41327.7
41327.2
41326.7
41326.2
41325.7
41325.2
41324.7
41324.2
41323.7
41323.1
41322.6
41322.1
41321.6
41321.1
41320.6
41320.1
41319.6
41319.1
41318.6
41318.1
41317.6
41317.1
41316.5
41316
41315.5
41315
41314.5
41314
41313.5
41313
41312.5
41311.9
41311.4
41310.9
41310.4
41309.9
41309.4
41308.9
41308.3
41307.8
41307.3
41306.8
41306.3
41305.8
41305.2
41304.7
41304.2
41303.7
41303.2
41302.7
41302.1
41301.6
41301.1
41300.6
41300.1
41299.5
41299
41298.5
41298
41297.4
41296.9
41296.4
41295.9
41295.3
41294.8
41294.3
41293.8
41293.2
41292.7
41292.2
41291.7
41291.1
41290.6
41290.1
41289.6
41289
41288.5
41288
41287.4
41286.9
41286.4
41285.9
41285.3
41284.8
41284.3
41283.7
41283.2
41282.7
41282.1
41281.6
41281.1
41280.5
41280
41279.5
41278.9
41278.4
41277.9
41277.3
41276.8
41276.2
41275.7
41275.2
41274.6
41274.1
41273.6
41273
41272.5
41271.9
41271.4
41270.9
41270.3
41269.8
41269.2
41268.7
41268.1
41267.6
41267.1
41266.5
41266
41265.4
41264.9
41264.3
41263.8
41263.3
41262.7
41262.2
41261.6
41261.1
41260.5
41260
41259.4
41258.9
41258.3
41257.8
41257.2
41256.7
41256.1
41255.6
41255
41254.5
41253.9
41253.4
41252.8
41252.3
41251.7
41251.2
41250.6
41250.1
41249.5
41249
41248.4
41247.8
41247.3
41246.7
41246.2
41245.6
41245.1
41244.5
41243.9
41243.4
41242.8
41242.3
41241.7
41241.1
41240.6
41240
41239.5
41238.9
41238.3
41237.8
41237.2
41236.7
41236.1
41235.5
41235
41234.4
41233.8
41233.3
41232.7
41232.1
41231.6
41231
41230.5
41229.9
41229.3
41228.8
41228.2
41227.6
41227
41226.5
41225.9
41225.3
41224.8
41224.2
41223.6
41223.1
41222.5
41221.9
41221.3
41220.8
41220.2
41219.6
41219.1
41218.5
41217.9
41217.3
41216.8
41216.2
41215.6
41215
41214.5
41213.9
41213.3
41212.7
41212.1
41211.6
41211
41210.4
41209.8
41209.3
41208.7
41208.1
41207.5
41206.9
41206.3
41205.8
41205.2
41204.6
41204
41203.4
41202.9
41202.3
41201.7
41201.1
41200.5
41199.9
41199.3
41198.8
41198.2
41197.6
41197
41196.4
41195.8
41195.2
41194.6
41194.1
41193.5
41192.9
41192.3
41191.7
41191.1
41190.5
41189.9
41189.3
41188.7
41188.2
41187.6
41187
41186.4
41185.8
41185.2
41184.6
41184
41183.4
41182.8
41182.2
41181.6
41181
41180.4
41179.8
41179.2
41178.6
41178
41177.4
41176.8
41176.2
41175.6
41175
41174.4
41173.8
41173.2
41172.6
41172
41171.4
41170.8
41170.2
41169.6
41169
41168.4
41167.8
41167.2
41166.6
41166
41165.4
41164.8
41164.2
41163.6
41163
41162.3
41161.7
41161.1
41160.5
41159.9
41159.3
41158.7
41158.1
41157.5
41156.9
41156.2
41155.6
41155
41154.4
41153.8
41153.2
41152.6
41152
41151.3
41150.7
41150.1
41149.5
41148.9
41148.3
41147.7
41147
41146.4
41145.8
41145.2
41144.6
41143.9
41143.3
41142.7
41142.1
41141.5
41140.8
41140.2
41139.6
41139
41138.4
41137.7
41137.1
41136.5
41135.9
41135.3
41134.6
41134
41133.4
41132.8
41132.1
41131.5
41130.9
41130.3
41129.6
41129
41128.4
41127.7
41127.1
41126.5
41125.9
41125.2
41124.6
41124
41123.3
41122.7
41122.1
41121.4
41120.8
41120.2
41119.5
41118.9
41118.3
41117.6
41117
41116.4
41115.7
41115.1
41114.5
41113.8
41113.2
41112.6
41111.9
41111.3
41110.7
41110
41109.4
41108.7
41108.1
41107.5
41106.8
41106.2
41105.5
41104.9
41104.3
41103.6
41103
41102.3
41101.7
41101
41100.4
41099.8
41099.1
41098.5
41097.8
41097.2
41096.5
41095.9
41095.2
41094.6
41093.9
41093.3
41092.7
41092
41091.4
41090.7
41090.1
41089.4
41088.8
41088.1
41087.5
41086.8
41086.2
41085.5
41084.9
41084.2
41083.5
41082.9
41082.2
41081.6
41080.9
41080.3
41079.6
41079
41078.3
41077.7
41077
41076.3
41075.7
41075
41074.4
41073.7
41073.1
41072.4
41071.7
41071.1
41070.4
41069.8
41069.1
41068.4
41067.8
41067.1
41066.4
41065.8
41065.1
41064.5
41063.8
41063.1
41062.5
41061.8
41061.1
41060.5
41059.8
41059.1
41058.5
41057.8
41057.1
41056.5
41055.8
41055.1
41054.5
41053.8
41053.1
41052.5
41051.8
41051.1
41050.4
41049.8
41049.1
41048.4
41047.8
41047.1
41046.4
41045.7
41045.1
41044.4
41043.7
41043
41042.4
41041.7
41041
41040.3
41039.7
41039
41038.3
41037.6
41037
41036.3
41035.6
41034.9
41034.2
41033.6
41032.9
41032.2
41031.5
41030.8
41030.2
41029.5
41028.8
41028.1
41027.4
41026.7
41026.1
41025.4
41024.7
41024
41023.3
41022.6
41021.9
41021.3
41020.6
41019.9
41019.2
41018.5
41017.8
41017.1
41016.4
41015.8
41015.1
41014.4
41013.7
41013
41012.3
41011.6
41010.9
41010.2
41009.5
41008.8
41008.1
41007.4
41006.8
41006.1
41005.4
41004.7
41004
41003.3
41002.6
41001.9
41001.2
41000.5
40999.8
40999.1
40998.4
40997.7
40997
40996.3
40995.6
40994.9
40994.2
40993.5
40992.8
40992.1
40991.4
40990.7
40990
40989.3
40988.6
40987.9
40987.2
40986.5
40985.8
40985.1
40984.3
40983.6
40982.9
40982.2
40981.5
40980.8
40980.1
40979.4
40978.7
40978
40977.3
40976.6
40975.9
40975.1
40974.4
40973.7
40973
40972.3
40971.6
40970.9
40970.2
40969.4
40968.7
40968
40967.3
40966.6
40965.9
40965.2
40964.4
40963.7
40963
40962.3
40961.6
40960.9
40960.1
40959.4
40958.7
40958
40957.3
40956.5
40955.8
40955.1
40954.4
40953.7
40952.9
40952.2
40951.5
40950.8
40950
40949.3
40948.6
40947.9
40947.1
40946.4
40945.7
40945
40944.2
40943.5
40942.8
40942.1
40941.3
40940.6
40939.9
40939.1
40938.4
40937.7
40937
40936.2
40935.5
40934.8
40934
40933.3
40932.6
40931.8
40931.1
40930.4
40929.6
40928.9
40928.2
40927.4
40926.7
40926
40925.2
40924.5
40923.8
40923
40922.3
40921.5
40920.8
40920.1
40919.3
40918.6
40917.8
40917.1
40916.4
40915.6
40914.9
40914.1
40913.4
40912.7
40911.9
40911.2
40910.4
40909.7
40908.9
40908.2
40907.5
40906.7
40906
40905.2
40904.5
40903.7
40903
40902.2
40901.5
40900.7
40900
40899.2
40898.5
40897.7
40897
40896.2
40895.5
40894.7
40894
40893.2
40892.5
40891.7
40891
40890.2
40889.5
40888.7
40888
40887.2
40886.5
40885.7
40884.9
40884.2
40883.4
40882.7
40881.9
40881.2
40880.4
40879.6
40878.9
40878.1
40877.4
40876.6
40875.8
40875.1
40874.3
40873.6
40872.8
40872
40871.3
40870.5
40869.8
40869
40868.2
40867.5
40866.7
40865.9
40865.2
40864.4
40863.6
40862.9
40862.1
40861.3
40860.6
40859.8
40859
40858.3
40857.5
40856.7
40856
40855.2
40854.4
40853.6
40852.9
40852.1
40851.3
40850.6
40849.8
40849
40848.2
40847.5
40846.7
40845.9
40845.1
40844.4
40843.6
40842.8
40842
40841.3
40840.5
40839.7
40838.9
40838.1
40837.4
40836.6
40835.8
40835
40834.3
40833.5
40832.7
40831.9
40831.1
40830.3
40829.6
40828.8
40828
40827.2
40826.4
40825.6
40824.9
40824.1
40823.3
40822.5
40821.7
40820.9
40820.1
40819.4
40818.6
40817.8
40817
40816.2
40815.4
40814.6
40813.8
40813.1
40812.3
40811.5
40810.7
40809.9
40809.1
40808.3
40807.5
40806.7
40805.9
40805.1
40804.3
40803.5
40802.7
40802
40801.2
40800.4
40799.6
40798.8
40798
40797.2
40796.4
40795.6
40794.8
40794
40793.2
40792.4
40791.6
40790.8
40790
40789.2
40788.4
40787.6
40786.8
40786
40785.2
40784.4
40783.6
40782.8
40782
40781.1
40780.3
40779.5
40778.7
40777.9
40777.1
40776.3
40775.5
40774.7
40773.9
40773.1
40772.3
40771.5
40770.7
40769.8
40769
40768.2
40767.4
40766.6
40765.8
40765
40764.2
40763.3
40762.5
40761.7
40760.9
40760.1
40759.3
40758.5
40757.6
40756.8
40756
40755.2
40754.4
40753.6
40752.7
40751.9
40751.1
40750.3
40749.5
40748.6
40747.8
40747
40746.2
40745.4
40744.5
40743.7
40742.9
40742.1
40741.3
40740.4
40739.6
40738.8
40738
40737.1
40736.3
40735.5
40734.7
40733.8
40733
40732.2
40731.4
40730.5
40729.7
40728.9
40728
40727.2
40726.4
40725.5
40724.7
40723.9
40723.1
40722.2
40721.4
40720.6
40719.7
40718.9
40718.1
40717.2
40716.4
40715.6
40714.7
40713.9
40713.1
40712.2
40711.4
40710.5
40709.7
40708.9
40708
40707.2
40706.4
40705.5
40704.7
40703.8
40703
40702.2
40701.3
40700.5
40699.6
40698.8
40697.9
40697.1
40696.3
40695.4
40694.6
40693.7
40692.9
40692
40691.2
40690.3
40689.5
40688.7
40687.8
40687
40686.1
40685.3
40684.4
40683.6
40682.7
40681.9
40681
40680.2
40679.3
40678.5
40677.6
40676.8
40675.9
40675.1
40674.2
40673.4
40672.5
40671.6
40670.8
40669.9
40669.1
40668.2
40667.4
40666.5
40665.7
40664.8
40663.9
40663.1
40662.2
40661.4
40660.5
40659.6
40658.8
40657.9
40657.1
40656.2
40655.3
40654.5
40653.6
40652.8
40651.9
40651
40650.2
40649.3
40648.4
40647.6
40646.7
40645.9
40645
40644.1
40643.3
40642.4
40641.5
40640.7
40639.8
40638.9
40638
40637.2
40636.3
40635.4
40634.6
40633.7
40632.8
40632
40631.1
40630.2
40629.3
40628.5
40627.6
40626.7
40625.8
40625
40624.1
40623.2
40622.3
40621.5
40620.6
40619.7
40618.8
40618
40617.1
40616.2
40615.3
40614.5
40613.6
40612.7
40611.8
40610.9
40610.1
40609.2
40608.3
40607.4
40606.5
40605.6
40604.8
40603.9
40603
40602.1
40601.2
40600.3
40599.5
40598.6
40597.7
40596.8
40595.9
40595
40594.1
40593.2
40592.4
40591.5
40590.6
40589.7
40588.8
40587.9
40587
40586.1
40585.2
40584.4
40583.5
40582.6
40581.7
40580.8
40579.9
40579
40578.1
40577.2
40576.3
40575.4
40574.5
40573.6
40572.7
40571.8
40570.9
40570
40569.1
40568.2
40567.3
40566.4
40565.5
40564.6
40563.7
40562.8
40561.9
40561
40560.1
40559.2
40558.3
40557.4
40556.5
40555.6
40554.7
40553.8
40552.9
40552
40551.1
40550.2
40549.3
40548.4
40547.5
40546.6
40545.7
40544.8
40543.8
40542.9
40542
40541.1
40540.2
40539.3
40538.4
40537.5
40536.6
40535.6
40534.7
40533.8
40532.9
40532
40531.1
40530.2
40529.3
40528.3
40527.4
40526.5
40525.6
40524.7
40523.8
40522.8
40521.9
40521
40520.1
40519.2
40518.3
40517.3
40516.4
40515.5
40514.6
40513.7
40512.7
40511.8
40510.9
40510
40509
40508.1
40507.2
40506.3
40505.3
40504.4
40503.5
40502.6
40501.6
40500.7
40499.8
40498.9
40497.9
40497
40496.1
40495.2
40494.2
40493.3
40492.4
40491.4
40490.5
40489.6
40488.6
40487.7
40486.8
40485.8
40484.9
40484
40483
40482.1
40481.2
40480.2
40479.3
40478.4
40477.4
40476.5
40475.6
40474.6
40473.7
40472.8
40471.8
40470.9
40469.9
40469
40468.1
40467.1
40466.2
40465.2
40464.3
40463.4
40462.4
40461.5
40460.5
40459.6
40458.6
40457.7
40456.8
40455.8
40454.9
40453.9
40453
40452
40451.1
40450.1
40449.2
40448.2
40447.3
40446.3
40445.4
40444.5
40443.5
40442.6
40441.6
40440.7
40439.7
40438.7
40437.8
40436.8
40435.9
40434.9
40434
40433
40432.1
40431.1
40430.2
40429.2
40428.3
40427.3
40426.3
40425.4
40424.4
40423.5
40422.5
40421.6
40420.6
40419.6
40418.7
40417.7
40416.8
40415.8
40414.8
40413.9
40412.9
40412
40411
40410
40409.1
40408.1
40407.1
40406.2
40405.2
40404.3
40403.3
40402.3
40401.4
40400.4
40399.4
40398.5
40397.5
40396.5
40395.5
40394.6
40393.6
40392.6
40391.7
40390.7
40389.7
40388.8
40387.8
40386.8
40385.8
40384.9
40383.9
40382.9
40382
40381
40380
40379
40378.1
40377.1
40376.1
40375.1
40374.1
40373.2
40372.2
40371.2
40370.2
40369.3
40368.3
40367.3
40366.3
40365.3
40364.4
40363.4
40362.4
40361.4
40360.4
40359.4
40358.5
40357.5
40356.5
40355.5
40354.5
40353.5
40352.6
40351.6
40350.6
40349.6
40348.6
40347.6
40346.6
40345.7
40344.7
40343.7
40342.7
40341.7
40340.7
40339.7
40338.7
40337.7
40336.7
40335.8
40334.8
40333.8
40332.8
40331.8
40330.8
40329.8
40328.8
40327.8
40326.8
40325.8
40324.8
40323.8
40322.8
40321.8
40320.8
40319.8
40318.8
40317.8
40316.8
40315.8
40314.8
40313.8
40312.8
40311.8
40310.8
40309.8
40308.8
40307.8
40306.8
40305.8
40304.8
40303.8
40302.8
40301.8
40300.8
40299.8
40298.8
40297.8
40296.8
40295.8
40294.8
40293.8
40292.7
40291.7
40290.7
40289.7
40288.7
40287.7
40286.7
40285.7
40284.7
40283.7
40282.6
40281.6
40280.6
40279.6
40278.6
40277.6
40276.6
40275.6
40274.5
40273.5
40272.5
40271.5
40270.5
40269.5
40268.4
40267.4
40266.4
40265.4
40264.4
40263.3
40262.3
40261.3
40260.3
40259.3
40258.2
40257.2
40256.2
40255.2
40254.2
40253.1
40252.1
40251.1
40250.1
40249
40248
40247
40246
40244.9
40243.9
40242.9
40241.8
40240.8
40239.8
40238.8
40237.7
40236.7
40235.7
40234.6
40233.6
40232.6
40231.6
40230.5
40229.5
40228.5
40227.4
40226.4
40225.4
40224.3
40223.3
40222.3
40221.2
40220.2
40219.1
40218.1
40217.1
40216
40215
40214
40212.9
40211.9
40210.8
40209.8
40208.8
40207.7
40206.7
40205.6
40204.6
40203.6
40202.5
40201.5
40200.4
40199.4
40198.3
40197.3
40196.3
40195.2
40194.2
40193.1
40192.1
40191
40190
40188.9
40187.9
40186.8
40185.8
40184.7
40183.7
40182.6
40181.6
40180.5
40179.5
40178.4
40177.4
40176.3
40175.3
40174.2
40173.2
40172.1
40171.1
40170
40169
40167.9
40166.9
40165.8
40164.7
40163.7
40162.6
40161.6
40160.5
40159.5
40158.4
40157.3
40156.3
40155.2
40154.2
40153.1
40152
40151
40149.9
40148.9
40147.8
40146.7
40145.7
40144.6
40143.5
40142.5
40141.4
40140.3
40139.3
40138.2
40137.1
40136.1
40135
40133.9
40132.9
40131.8
40130.7
40129.7
40128.6
40127.5
40126.5
40125.4
40124.3
40123.3
40122.2
40121.1
40120
40119
40117.9
40116.8
40115.7
40114.7
40113.6
40112.5
40111.4
40110.4
40109.3
40108.2
40107.1
40106.1
40105
40103.9
40102.8
40101.7
40100.7
40099.6
40098.5
40097.4
40096.3
40095.3
40094.2
40093.1
40092
40090.9
40089.8
40088.8
40087.7
40086.6
40085.5
40084.4
40083.3
40082.3
40081.2
40080.1
40079
40077.9
40076.8
40075.7
40074.6
40073.5
40072.5
40071.4
40070.3
40069.2
40068.1
40067
40065.9
40064.8
40063.7
40062.6
40061.5
40060.4
40059.3
40058.3
40057.2
40056.1
40055
40053.9
40052.8
40051.7
40050.6
40049.5
40048.4
40047.3
40046.2
40045.1
40044
40042.9
40041.8
40040.7
40039.6
40038.5
40037.4
40036.3
40035.2
40034.1
40033
40031.9
40030.8
40029.7
40028.5
40027.4
40026.3
40025.2
40024.1
40023
40021.9
40020.8
40019.7
40018.6
40017.5
40016.4
40015.2
40014.1
40013
40011.9
40010.8
40009.7
40008.6
40007.5
40006.4
40005.2
40004.1
40003
40001.9
40000.8
39999.7
39998.5
39997.4
39996.3
39995.2
39994.1
39993
39991.8
39990.7
39989.6
39988.5
39987.4
39986.2
39985.1
39984
39982.9
39981.8
39980.6
39979.5
39978.4
39977.3
39976.1
39975
39973.9
39972.8
39971.6
39970.5
39969.4
39968.3
39967.1
39966
39964.9
39963.7
39962.6
39961.5
39960.4
39959.2
39958.1
39957
39955.8
39954.7
39953.6
39952.4
39951.3
39950.2
39949
39947.9
39946.8
39945.6
39944.5
39943.4
39942.2
39941.1
39940
39938.8
39937.7
39936.5
39935.4
39934.3
39933.1
39932
39930.8
39929.7
39928.6
39927.4
39926.3
39925.1
39924
39922.9
39921.7
39920.6
39919.4
39918.3
39917.1
39916
39914.8
39913.7
39912.6
39911.4
39910.3
39909.1
39908
39906.8
39905.7
39904.5
39903.4
39902.2
39901.1
39899.9
39898.8
39897.6
39896.5
39895.3
39894.2
39893
39891.8
39890.7
39889.5
39888.4
39887.2
39886.1
39884.9
39883.8
39882.6
39881.4
39880.3
39879.1
39878
39876.8
39875.6
39874.5
39873.3
39872.2
39871
39869.8
39868.7
39867.5
39866.4
39865.2
39864
39862.9
39861.7
39860.5
39859.4
39858.2
39857
39855.9
39854.7
39853.5
39852.4
39851.2
39850
39848.9
39847.7
39846.5
39845.4
39844.2
39843
39841.8
39840.7
39839.5
39838.3
39837.2
39836
39834.8
39833.6
39832.5
39831.3
39830.1
39828.9
39827.8
39826.6
39825.4
39824.2
39823
39821.9
39820.7
39819.5
39818.3
39817.2
39816
39814.8
39813.6
39812.4
39811.2
39810.1
39808.9
39807.7
39806.5
39805.3
39804.1
39803
39801.8
39800.6
39799.4
39798.2
39797
39795.8
39794.7
39793.5
39792.3
39791.1
39789.9
39788.7
39787.5
39786.3
39785.1
39783.9
39782.8
39781.6
39780.4
39779.2
39778
39776.8
39775.6
39774.4
39773.2
39772
39770.8
39769.6
39768.4
39767.2
39766
39764.8
39763.6
39762.4
39761.2
39760
39758.8
39757.6
39756.4
39755.2
39754
39752.8
39751.6
39750.4
39749.2
39748
39746.8
39745.6
39744.4
39743.2
39742
39740.8
39739.6
39738.4
39737.1
39735.9
39734.7
39733.5
39732.3
39731.1
39729.9
39728.7
39727.5
39726.3
39725
39723.8
39722.6
39721.4
39720.2
39719
39717.8
39716.6
39715.3
39714.1
39712.9
39711.7
39710.5
39709.3
39708
39706.8
39705.6
39704.4
39703.2
39701.9
39700.7
39699.5
39698.3
39697
39695.8
39694.6
39693.4
39692.2
39690.9
39689.7
39688.5
39687.3
39686
39684.8
39683.6
39682.4
39681.1
39679.9
39678.7
39677.4
39676.2
39675
39673.7
39672.5
39671.3
39670.1
39668.8
39667.6
39666.4
39665.1
39663.9
39662.7
39661.4
39660.2
39659
39657.7
39656.5
39655.2
39654
39652.8
39651.5
39650.3
39649.1
39647.8
39646.6
39645.3
39644.1
39642.9
39641.6
39640.4
39639.1
39637.9
39636.6
39635.4
39634.1
39632.9
39631.7
39630.4
39629.2
39627.9
39626.7
39625.4
39624.2
39622.9
39621.7
39620.4
39619.2
39617.9
39616.7
39615.4
39614.2
39612.9
39611.7
39610.4
39609.2
39607.9
39606.7
39605.4
39604.2
39602.9
39601.6
39600.4
39599.1
39597.9
39596.6
39595.4
39594.1
39592.8
39591.6
39590.3
39589.1
39587.8
39586.5
39585.3
39584
39582.7
39581.5
39580.2
39579
39577.7
39576.4
39575.2
39573.9
39572.6
39571.4
39570.1
39568.8
39567.6
39566.3
39565
39563.7
39562.5
39561.2
39559.9
39558.7
39557.4
39556.1
39554.8
39553.6
39552.3
39551
39549.7
39548.5
39547.2
39545.9
39544.6
39543.4
39542.1
39540.8
39539.5
39538.2
39537
39535.7
39534.4
39533.1
39531.8
39530.6
39529.3
39528
39526.7
39525.4
39524.1
39522.9
39521.6
39520.3
39519
39517.7
39516.4
39515.1
39513.8
39512.6
39511.3
39510
39508.7
39507.4
39506.1
39504.8
39503.5
39502.2
39500.9
39499.6
39498.3
39497
39495.8
39494.5
39493.2
39491.9
39490.6
39489.3
39488
39486.7
39485.4
39484.1
39482.8
39481.5
39480.2
39478.9
39477.6
39476.3
39475
39473.6
39472.3
39471
39469.7
39468.4
39467.1
39465.8
39464.5
39463.2
39461.9
39460.6
39459.3
39458
39456.6
39455.3
39454
39452.7
39451.4
39450.1
39448.8
39447.5
39446.1
39444.8
39443.5
39442.2
39440.9
39439.6
39438.2
39436.9
39435.6
39434.3
39433
39431.6
39430.3
39429
39427.7
39426.3
39425
39423.7
39422.4
39421
39419.7
39418.4
39417.1
39415.7
39414.4
39413.1
39411.8
39410.4
39409.1
39407.8
39406.4
39405.1
39403.8
39402.4
39401.1
39399.8
39398.4
39397.1
39395.8
39394.4
39393.1
39391.7
39390.4
39389.1
39387.7
39386.4
39385
39383.7
39382.4
39381
39379.7
39378.3
39377
39375.6
39374.3
39372.9
39371.6
39370.3
39368.9
39367.6
39366.2
39364.9
39363.5
39362.2
39360.8
39359.4
39358.1
39356.7
39355.4
39354
39352.7
39351.3
39350
39348.6
39347.3
39345.9
39344.5
39343.2
39341.8
39340.5
39339.1
39337.7
39336.4
39335
39333.6
39332.3
39330.9
39329.5
39328.2
39326.8
39325.4
39324.1
39322.7
39321.3
39320
39318.6
39317.2
39315.8
39314.5
39313.1
39311.7
39310.4
39309
39307.6
39306.2
39304.8
39303.5
39302.1
39300.7
39299.3
39297.9
39296.6
39295.2
39293.8
39292.4
39291
39289.6
39288.3
39286.9
39285.5
39284.1
39282.7
39281.3
39279.9
39278.5
39277.1
39275.8
39274.4
39273
39271.6
39270.2
39268.8
39267.4
39266
39264.6
39263.2
39261.8
39260.4
39259
39257.6
39256.2
39254.8
39253.4
39252
39250.6
39249.2
39247.8
39246.4
39244.9
39243.5
39242.1
39240.7
39239.3
39237.9
39236.5
39235.1
39233.7
39232.2
39230.8
39229.4
39228
39226.6
39225.2
39223.7
39222.3
39220.9
39219.5
39218
39216.6
39215.2
39213.8
39212.3
39210.9
39209.5
39208.1
39206.6
39205.2
39203.8
39202.3
39200.9
39199.5
39198
39196.6
39195.2
39193.7
39192.3
39190.9
39189.4
39188
39186.5
39185.1
39183.6
39182.2
39180.8
39179.3
39177.9
39176.4
39175
39173.5
39172.1
39170.6
39169.2
39167.7
39166.2
39164.8
39163.3
39161.9
39160.4
39159
39157.5
39156
39154.6
39153.1
39151.6
39150.2
39148.7
39147.2
39145.8
39144.3
39142.8
39141.4
39139.9
39138.4
39136.9
39135.5
39134
39132.5
39131
39129.5
39128.1
39126.6
39125.1
39123.6
39122.1
39120.6
39119.1
39117.7
39116.2
39114.7
39113.2
39111.7
39110.2
39108.7
39107.2
39105.7
39104.2
39102.7
39101.2
39099.7
39098.2
39096.6
39095.1
39093.6
39092.1
39090.6
39089.1
39087.6
39086
39084.5
39083
39081.5
39079.9
39078.4
39076.9
39075.4
39073.8
39072.3
39070.8
39069.2
39067.7
39066.1
39064.6
39063
39061.5
39059.9
39058.4
39056.8
39055.3
39053.7
39052.2
39050.6
39049
39047.5
39045.9
39044.3
39042.8
39041.2
39039.6
39038
39036.4
39034.9
39033.3
39031.7
39030.1
39028.5
39026.9
39025.3
39023.7
39022.1
39020.5
39018.8
39017.2
39015.6
39014
39012.3
39010.7
39009.1
39007.4
39005.8
39004.2
39002.5
39000.9
38999.2
38997.5
38995.9
38994.2
38992.5
38990.8
38989.2
38987.5
38985.8
38984.1
38982.4
38980.7
38978.9
38977.2
38975.5
38973.8
38972
38970.3
38968.5
38966.8
38965
38963.2
38961.4
38959.7
38957.9
38956.1
38954.2
38952.4
38950.6
38948.8
38946.9
38945.1
38943.2
38941.3
38939.4
38937.5
38935.6
38933.7
38931.8
38929.8
38927.9
38925.9
38923.9
38921.9
38919.9
38917.9
38915.8
38913.8
38911.7
38909.6
38907.5
38905.4
38903.2
38901.1
38898.9
38896.7
38894.5
38892.2
38890
38887.7
38885.4
38883
38880.7
38878.3
38875.9
38873.4
38870.9
38868.5
38865.9
38863.4
38860.8
38858.2
38855.5
38852.8
38850.1
38847.4
38844.6
38841.7
38838.9
38836
38833
38830.1
38827
38824
38820.9
38817.7
38814.5
38811.3
38808
38804.7
38801.3
38797.9
38794.4
38790.9
38787.3
38783.7
38780
38776.3
38772.5
38768.7
38764.8
38760.9
38756.9
38752.8
38748.7
38744.6
38740.4
38736.1
38731.8
38727.4
38723
38718.5
38713.9
38709.3
38704.7
38700
38695.2
38690.4
38685.5
38680.6
38675.6
38670.5
38665.4
38660.3
38655.1
38649.8
38644.5
38639.2
38633.8
38628.3
38622.9
38617.3
38611.7
38606.1
38600.4
38594.7
38588.9
38583.1
38577.2
38571.4
38565.4
38559.5
38553.5
38547.4
38541.3
38535.2
38529.1
38522.9
38516.7
38510.5
38504.2
38497.9
38491.6
38485.3
38478.9
38472.5
38466.1
38459.7
38453.2
38446.7
38440.2
38433.7
38427.2
38420.6
38414.1
38407.5
38400.9
38394.3
38387.7
38381
38374.4
38367.7
38361.1
38354.4
38347.7
38341
38334.3
38327.6
38320.9
38314.2
38307.5
38300.7
38294
38287.2
38280.5
38273.7
38267
38260.2
38253.5
38246.7
38239.9
38233.2
38226.4
38219.6
38212.8
38206.1
38199.3
38192.5
38185.7
38178.9
38172.1
38165.4
38158.6
38151.8
38145
38138.2
38131.4
38124.6
38117.9
38111.1
38104.3
38097.5
38090.7
38083.9
38077.2
38070.4
38063.6
38056.8
38050
38043.2
38036.5
38029.7
38022.9
38016.1
38009.4
38002.6
37995.8
37989
37982.3
37975.5
37968.7
37961.9
37955.2
37948.4
37941.6
37934.9
37928.1
37921.3
37914.6
37907.8
37901
37894.3
37887.5
37880.8
37874
37867.3
37860.5
37853.7
37847
37840.2
37833.5
37826.7
37820
37813.2
37806.5
37799.7
37793
37786.3
37779.5
37772.8
37766
37759.3
37752.6
37745.8
37739.1
37732.3
37725.6
37718.9
37712.1
37705.4
37698.7
37692
37685.2
37678.5
37671.8
37665
37658.3
37651.6
37644.9
37638.2
37631.4
37624.7
37618
37611.3
37604.6
37597.9
37591.1
37584.4
37577.7
37571
37564.3
37557.6
37550.9
37544.2
37537.5
37530.8
37524.1
37517.4
37510.7
37504
37497.3
37490.6
37483.9
37477.2
37470.5
37463.8
37457.1
37450.4
37443.7
37437
37430.3
37423.6
37417
37410.3
37403.6
37396.9
37390.2
37383.5
37376.9
37370.2
37363.5
37356.8
37350.2
37343.5
37336.8
37330.1
37323.5
37316.8
37310.1
37303.5
37296.8
37290.1
37283.5
37276.8
37270.1
37263.5
37256.8
37250.2
37243.5
37236.8
37230.2
37223.5
37216.9
37210.2
37203.6
37196.9
37190.3
37183.6
37177
37170.3
37163.7
37157
37150.4
37143.7
37137.1
37130.5
37123.8
37117.2
37110.5
37103.9
37097.3
37090.6
37084
37077.4
37070.7
37064.1
37057.5
37050.9
37044.2
37037.6
37031
37024.4
37017.7
37011.1
37004.5
36997.9
36991.3
36984.6
36978
36971.4
36964.8
36958.2
36951.6
36945
36938.3
36931.7
36925.1
36918.5
36911.9
36905.3
36898.7
36892.1
36885.5
36878.9
36872.3
36865.7
36859.1
36852.5
36845.9
36839.3
36832.7
36826.1
36819.5
36812.9
36806.4
36799.8
36793.2
36786.6
36780
36773.4
36766.8
36760.3
36753.7
36747.1
36740.5
36734
36727.4
36720.8
36714.2
36707.7
36701.1
36694.5
36687.9
36681.4
36674.8
36668.2
36661.7
36655.1
36648.5
36642
36635.4
36628.9
36622.3
36615.7
36609.2
36602.6
36596.1
36589.5
36583
36576.4
36569.9
36563.3
36556.8
36550.2
36543.7
36537.1
36530.6
36524
36517.5
36510.9
36504.4
36497.9
36491.3
36484.8
36478.2
36471.7
36465.2
36458.6
36452.1
36445.6
36439.1
36432.5
36426
36419.5
36412.9
36406.4
36399.9
36393.4
36386.8
36380.3
36373.8
36367.3
36360.8
36354.3
36347.7
36341.2
36334.7
36328.2
36321.7
36315.2
36308.7
36302.2
36295.7
36289.1
36282.6
36276.1
36269.6
36263.1
36256.6
36250.1
36243.6
36237.1
36230.6
36224.1
36217.7
36211.2
36204.7
36198.2
36191.7
36185.2
36178.7
36172.2
36165.7
36159.2
36152.8
36146.3
36139.8
36133.3
36126.8
36120.4
36113.9
36107.4
36100.9
36094.5
36088
36081.5
36075
36068.6
36062.1
36055.6
36049.2
36042.7
36036.2
36029.8
36023.3
36016.8
36010.4
36003.9
35997.5
35991
35984.5
35978.1
35971.6
35965.2
35958.7
35952.3
35945.8
35939.4
35932.9
35926.5
35920
35913.6
35907.2
35900.7
35894.3
35887.8
35881.4
35874.9
35868.5
35862.1
35855.6
35849.2
35842.8
35836.3
35829.9
35823.5
35817
35810.6
35804.2
35797.8
35791.3
35784.9
35778.5
35772.1
35765.7
35759.2
35752.8
35746.4
35740
35733.6
35727.1
35720.7
35714.3
35707.9
35701.5
35695.1
35688.7
35682.3
35675.9
35669.5
35663.1
35656.7
35650.3
35643.9
35637.5
35631.1
35624.7
35618.3
35611.9
35605.5
35599.1
35592.7
35586.3
35579.9
35573.5
35567.1
35560.7
35554.4
35548
35541.6
35535.2
35528.8
35522.4
35516.1
35509.7
35503.3
35496.9
35490.6
35484.2
35477.8
35471.4
35465.1
35458.7
35452.3
35446
35439.6
35433.2
35426.9
35420.5
35414.1
35407.8
35401.4
35395
35388.7
35382.3
35376
35369.6
35363.3
35356.9
35350.6
35344.2
35337.9
35331.5
35325.2
35318.8
35312.5
35306.1
35299.8
35293.4
35287.1
35280.8
35274.4
35268.1
35261.7
35255.4
35249.1
35242.7
35236.4
35230.1
35223.7
35217.4
35211.1
35204.8
35198.4
35192.1
35185.8
35179.5
35173.1
35166.8
35160.5
35154.2
35147.9
35141.5
35135.2
35128.9
35122.6
35116.3
35110
35103.7
35097.3