/*--------------------------------*- C++ -*----------------------------------*\
  =========                 |
  \\      /  F ield         | OpenFOAM: The Open Source CFD Toolbox
   \\    /   O peration     | Website:  https://openfoam.org
    \\  /    A nd           | Version:  9
     \\/     M anipulation  |
\*---------------------------------------------------------------------------*/
FoamFile
{
    format      ascii;
    class       volScalarField;
    location    "0.02";
    object      p_0;
}
// * * * * * * * * * * * * * * * * * * * * * * * * * * * * * * * * * * * * * //

dimensions      [1 -1 -2 0 0 0 0];

internalField   nonuniform List<scalar> 
10000
(
41589.3
41588.9
41588.6
41588.3
41588.1
41587.8
41587.5
41587.2
41587
41586.7
41586.4
41586.1
41585.8
41585.6
41585.3
41585
41584.7
41584.4
41584.2
41583.9
41583.6
41583.3
41583
41582.7
41582.5
41582.2
41581.9
41581.6
41581.3
41581
41580.7
41580.5
41580.2
41579.9
41579.6
41579.3
41579
41578.7
41578.5
41578.2
41577.9
41577.6
41577.3
41577
41576.7
41576.4
41576.1
41575.8
41575.5
41575.3
41575
41574.7
41574.4
41574.1
41573.8
41573.5
41573.2
41572.9
41572.6
41572.3
41572
41571.7
41571.4
41571.1
41570.8
41570.5
41570.2
41569.9
41569.6
41569.3
41569
41568.7
41568.4
41568.1
41567.8
41567.5
41567.2
41566.9
41566.6
41566.3
41566
41565.7
41565.4
41565.1
41564.8
41564.5
41564.2
41563.9
41563.6
41563.3
41563
41562.7
41562.4
41562.1
41561.8
41561.5
41561.2
41560.8
41560.5
41560.2
41559.9
41559.6
41559.3
41559
41558.7
41558.4
41558.1
41557.7
41557.4
41557.1
41556.8
41556.5
41556.2
41555.9
41555.6
41555.2
41554.9
41554.6
41554.3
41554
41553.7
41553.3
41553
41552.7
41552.4
41552.1
41551.8
41551.4
41551.1
41550.8
41550.5
41550.2
41549.8
41549.5
41549.2
41548.9
41548.6
41548.2
41547.9
41547.6
41547.3
41547
41546.6
41546.3
41546
41545.7
41545.3
41545
41544.7
41544.4
41544
41543.7
41543.4
41543.1
41542.7
41542.4
41542.1
41541.7
41541.4
41541.1
41540.8
41540.4
41540.1
41539.8
41539.4
41539.1
41538.8
41538.4
41538.1
41537.8
41537.4
41537.1
41536.8
41536.4
41536.1
41535.8
41535.4
41535.1
41534.8
41534.4
41534.1
41533.8
41533.4
41533.1
41532.8
41532.4
41532.1
41531.7
41531.4
41531.1
41530.7
41530.4
41530
41529.7
41529.4
41529
41528.7
41528.3
41528
41527.7
41527.3
41527
41526.6
41526.3
41525.9
41525.6
41525.2
41524.9
41524.6
41524.2
41523.9
41523.5
41523.2
41522.8
41522.5
41522.1
41521.8
41521.4
41521.1
41520.7
41520.4
41520
41519.7
41519.3
41519
41518.6
41518.3
41517.9
41517.6
41517.2
41516.9
41516.5
41516.2
41515.8
41515.5
41515.1
41514.7
41514.4
41514
41513.7
41513.3
41513
41512.6
41512.3
41511.9
41511.5
41511.2
41510.8
41510.5
41510.1
41509.7
41509.4
41509
41508.7
41508.3
41507.9
41507.6
41507.2
41506.9
41506.5
41506.1
41505.8
41505.4
41505
41504.7
41504.3
41503.9
41503.6
41503.2
41502.8
41502.5
41502.1
41501.7
41501.4
41501
41500.6
41500.3
41499.9
41499.5
41499.2
41498.8
41498.4
41498.1
41497.7
41497.3
41496.9
41496.6
41496.2
41495.8
41495.5
41495.1
41494.7
41494.3
41494
41493.6
41493.2
41492.8
41492.5
41492.1
41491.7
41491.3
41491
41490.6
41490.2
41489.8
41489.4
41489.1
41488.7
41488.3
41487.9
41487.5
41487.2
41486.8
41486.4
41486
41485.6
41485.3
41484.9
41484.5
41484.1
41483.7
41483.3
41483
41482.6
41482.2
41481.8
41481.4
41481
41480.6
41480.3
41479.9
41479.5
41479.1
41478.7
41478.3
41477.9
41477.5
41477.2
41476.8
41476.4
41476
41475.6
41475.2
41474.8
41474.4
41474
41473.6
41473.2
41472.9
41472.5
41472.1
41471.7
41471.3
41470.9
41470.5
41470.1
41469.7
41469.3
41468.9
41468.5
41468.1
41467.7
41467.3
41466.9
41466.5
41466.1
41465.7
41465.3
41464.9
41464.5
41464.1
41463.7
41463.3
41462.9
41462.5
41462.1
41461.7
41461.3
41460.9
41460.5
41460.1
41459.7
41459.3
41458.9
41458.5
41458.1
41457.7
41457.3
41456.9
41456.4
41456
41455.6
41455.2
41454.8
41454.4
41454
41453.6
41453.2
41452.8
41452.4
41451.9
41451.5
41451.1
41450.7
41450.3
41449.9
41449.5
41449.1
41448.6
41448.2
41447.8
41447.4
41447
41446.6
41446.2
41445.7
41445.3
41444.9
41444.5
41444.1
41443.7
41443.2
41442.8
41442.4
41442
41441.6
41441.1
41440.7
41440.3
41439.9
41439.5
41439
41438.6
41438.2
41437.8
41437.3
41436.9
41436.5
41436.1
41435.7
41435.2
41434.8
41434.4
41434
41433.5
41433.1
41432.7
41432.2
41431.8
41431.4
41431
41430.5
41430.1
41429.7
41429.2
41428.8
41428.4
41428
41427.5
41427.1
41426.7
41426.2
41425.8
41425.4
41424.9
41424.5
41424.1
41423.6
41423.2
41422.8
41422.3
41421.9
41421.5
41421
41420.6
41420.1
41419.7
41419.3
41418.8
41418.4
41418
41417.5
41417.1
41416.6
41416.2
41415.8
41415.3
41414.9
41414.4
41414
41413.6
41413.1
41412.7
41412.2
41411.8
41411.3
41410.9
41410.5
41410
41409.6
41409.1
41408.7
41408.2
41407.8
41407.3
41406.9
41406.4
41406
41405.5
41405.1
41404.6
41404.2
41403.7
41403.3
41402.8
41402.4
41401.9
41401.5
41401
41400.6
41400.1
41399.7
41399.2
41398.8
41398.3
41397.9
41397.4
41397
41396.5
41396.1
41395.6
41395.1
41394.7
41394.2
41393.8
41393.3
41392.9
41392.4
41391.9
41391.5
41391
41390.6
41390.1
41389.6
41389.2
41388.7
41388.3
41387.8
41387.3
41386.9
41386.4
41385.9
41385.5
41385
41384.6
41384.1
41383.6
41383.2
41382.7
41382.2
41381.8
41381.3
41380.8
41380.4
41379.9
41379.4
41379
41378.5
41378
41377.6
41377.1
41376.6
41376.1
41375.7
41375.2
41374.7
41374.3
41373.8
41373.3
41372.8
41372.4
41371.9
41371.4
41370.9
41370.5
41370
41369.5
41369
41368.6
41368.1
41367.6
41367.1
41366.7
41366.2
41365.7
41365.2
41364.7
41364.3
41363.8
41363.3
41362.8
41362.4
41361.9
41361.4
41360.9
41360.4
41359.9
41359.5
41359
41358.5
41358
41357.5
41357
41356.6
41356.1
41355.6
41355.1
41354.6
41354.1
41353.6
41353.2
41352.7
41352.2
41351.7
41351.2
41350.7
41350.2
41349.7
41349.2
41348.8
41348.3
41347.8
41347.3
41346.8
41346.3
41345.8
41345.3
41344.8
41344.3
41343.8
41343.3
41342.8
41342.4
41341.9
41341.4
41340.9
41340.4
41339.9
41339.4
41338.9
41338.4
41337.9
41337.4
41336.9
41336.4
41335.9
41335.4
41334.9
41334.4
41333.9
41333.4
41332.9
41332.4
41331.9
41331.4
41330.9
41330.4
41329.9
41329.4
41328.9
41328.4
41327.9
41327.3
41326.8
41326.3
41325.8
41325.3
41324.8
41324.3
41323.8
41323.3
41322.8
41322.3
41321.8
41321.3
41320.7
41320.2
41319.7
41319.2
41318.7
41318.2
41317.7
41317.2
41316.7
41316.1
41315.6
41315.1
41314.6
41314.1
41313.6
41313.1
41312.5
41312
41311.5
41311
41310.5
41310
41309.4
41308.9
41308.4
41307.9
41307.4
41306.9
41306.3
41305.8
41305.3
41304.8
41304.2
41303.7
41303.2
41302.7
41302.2
41301.6
41301.1
41300.6
41300.1
41299.5
41299
41298.5
41298
41297.4
41296.9
41296.4
41295.9
41295.3
41294.8
41294.3
41293.8
41293.2
41292.7
41292.2
41291.6
41291.1
41290.6
41290
41289.5
41289
41288.5
41287.9
41287.4
41286.9
41286.3
41285.8
41285.3
41284.7
41284.2
41283.7
41283.1
41282.6
41282
41281.5
41281
41280.4
41279.9
41279.4
41278.8
41278.3
41277.7
41277.2
41276.7
41276.1
41275.6
41275
41274.5
41274
41273.4
41272.9
41272.3
41271.8
41271.3
41270.7
41270.2
41269.6
41269.1
41268.5
41268
41267.4
41266.9
41266.4
41265.8
41265.3
41264.7
41264.2
41263.6
41263.1
41262.5
41262
41261.4
41260.9
41260.3
41259.8
41259.2
41258.7
41258.1
41257.6
41257
41256.5
41255.9
41255.4
41254.8
41254.2
41253.7
41253.1
41252.6
41252
41251.5
41250.9
41250.4
41249.8
41249.2
41248.7
41248.1
41247.6
41247
41246.5
41245.9
41245.3
41244.8
41244.2
41243.7
41243.1
41242.5
41242
41241.4
41240.8
41240.3
41239.7
41239.2
41238.6
41238
41237.5
41236.9
41236.3
41235.8
41235.2
41234.6
41234.1
41233.5
41232.9
41232.4
41231.8
41231.2
41230.7
41230.1
41229.5
41229
41228.4
41227.8
41227.2
41226.7
41226.1
41225.5
41225
41224.4
41223.8
41223.2
41222.7
41222.1
41221.5
41220.9
41220.4
41219.8
41219.2
41218.6
41218.1
41217.5
41216.9
41216.3
41215.7
41215.2
41214.6
41214
41213.4
41212.9
41212.3
41211.7
41211.1
41210.5
41209.9
41209.4
41208.8
41208.2
41207.6
41207
41206.5
41205.9
41205.3
41204.7
41204.1
41203.5
41202.9
41202.4
41201.8
41201.2
41200.6
41200
41199.4
41198.8
41198.2
41197.7
41197.1
41196.5
41195.9
41195.3
41194.7
41194.1
41193.5
41192.9
41192.3
41191.7
41191.1
41190.6
41190
41189.4
41188.8
41188.2
41187.6
41187
41186.4
41185.8
41185.2
41184.6
41184
41183.4
41182.8
41182.2
41181.6
41181
41180.4
41179.8
41179.2
41178.6
41178
41177.4
41176.8
41176.2
41175.6
41175
41174.4
41173.8
41173.2
41172.6
41172
41171.4
41170.8
41170.2
41169.6
41169
41168.3
41167.7
41167.1
41166.5
41165.9
41165.3
41164.7
41164.1
41163.5
41162.9
41162.3
41161.6
41161
41160.4
41159.8
41159.2
41158.6
41158
41157.4
41156.7
41156.1
41155.5
41154.9
41154.3
41153.7
41153.1
41152.4
41151.8
41151.2
41150.6
41150
41149.4
41148.7
41148.1
41147.5
41146.9
41146.3
41145.6
41145
41144.4
41143.8
41143.2
41142.5
41141.9
41141.3
41140.7
41140
41139.4
41138.8
41138.2
41137.5
41136.9
41136.3
41135.7
41135
41134.4
41133.8
41133.2
41132.5
41131.9
41131.3
41130.7
41130
41129.4
41128.8
41128.1
41127.5
41126.9
41126.2
41125.6
41125
41124.3
41123.7
41123.1
41122.4
41121.8
41121.2
41120.5
41119.9
41119.3
41118.6
41118
41117.4
41116.7
41116.1
41115.5
41114.8
41114.2
41113.5
41112.9
41112.3
41111.6
41111
41110.3
41109.7
41109.1
41108.4
41107.8
41107.1
41106.5
41105.9
41105.2
41104.6
41103.9
41103.3
41102.6
41102
41101.3
41100.7
41100.1
41099.4
41098.8
41098.1
41097.5
41096.8
41096.2
41095.5
41094.9
41094.2
41093.6
41092.9
41092.3
41091.6
41091
41090.3
41089.7
41089
41088.4
41087.7
41087.1
41086.4
41085.7
41085.1
41084.4
41083.8
41083.1
41082.5
41081.8
41081.2
41080.5
41079.8
41079.2
41078.5
41077.9
41077.2
41076.6
41075.9
41075.2
41074.6
41073.9
41073.3
41072.6
41071.9
41071.3
41070.6
41069.9
41069.3
41068.6
41068
41067.3
41066.6
41066
41065.3
41064.6
41064
41063.3
41062.6
41062
41061.3
41060.6
41060
41059.3
41058.6
41058
41057.3
41056.6
41055.9
41055.3
41054.6
41053.9
41053.3
41052.6
41051.9
41051.2
41050.6
41049.9
41049.2
41048.5
41047.9
41047.2
41046.5
41045.8
41045.2
41044.5
41043.8
41043.1
41042.5
41041.8
41041.1
41040.4
41039.8
41039.1
41038.4
41037.7
41037
41036.4
41035.7
41035
41034.3
41033.6
41032.9
41032.3
41031.6
41030.9
41030.2
41029.5
41028.8
41028.2
41027.5
41026.8
41026.1
41025.4
41024.7
41024
41023.3
41022.7
41022
41021.3
41020.6
41019.9
41019.2
41018.5
41017.8
41017.1
41016.4
41015.8
41015.1
41014.4
41013.7
41013
41012.3
41011.6
41010.9
41010.2
41009.5
41008.8
41008.1
41007.4
41006.7
41006
41005.3
41004.6
41003.9
41003.2
41002.5
41001.8
41001.1
41000.4
40999.7
40999
40998.3
40997.6
40996.9
40996.2
40995.5
40994.8
40994.1
40993.4
40992.7
40992
40991.3
40990.6
40989.9
40989.2
40988.5
40987.8
40987.1
40986.4
40985.7
40985
40984.3
40983.5
40982.8
40982.1
40981.4
40980.7
40980
40979.3
40978.6
40977.9
40977.1
40976.4
40975.7
40975
40974.3
40973.6
40972.9
40972.2
40971.4
40970.7
40970
40969.3
40968.6
40967.9
40967.1
40966.4
40965.7
40965
40964.3
40963.6
40962.8
40962.1
40961.4
40960.7
40960
40959.2
40958.5
40957.8
40957.1
40956.3
40955.6
40954.9
40954.2
40953.5
40952.7
40952
40951.3
40950.6
40949.8
40949.1
40948.4
40947.6
40946.9
40946.2
40945.5
40944.7
40944
40943.3
40942.6
40941.8
40941.1
40940.4
40939.6
40938.9
40938.2
40937.4
40936.7
40936
40935.2
40934.5
40933.8
40933
40932.3
40931.6
40930.8
40930.1
40929.4
40928.6
40927.9
40927.1
40926.4
40925.7
40924.9
40924.2
40923.5
40922.7
40922
40921.2
40920.5
40919.8
40919
40918.3
40917.5
40916.8
40916
40915.3
40914.6
40913.8
40913.1
40912.3
40911.6
40910.8
40910.1
40909.3
40908.6
40907.9
40907.1
40906.4
40905.6
40904.9
40904.1
40903.4
40902.6
40901.9
40901.1
40900.4
40899.6
40898.9
40898.1
40897.4
40896.6
40895.9
40895.1
40894.4
40893.6
40892.8
40892.1
40891.3
40890.6
40889.8
40889.1
40888.3
40887.6
40886.8
40886
40885.3
40884.5
40883.8
40883
40882.3
40881.5
40880.7
40880
40879.2
40878.5
40877.7
40876.9
40876.2
40875.4
40874.6
40873.9
40873.1
40872.3
40871.6
40870.8
40870.1
40869.3
40868.5
40867.8
40867
40866.2
40865.5
40864.7
40863.9
40863.2
40862.4
40861.6
40860.8
40860.1
40859.3
40858.5
40857.8
40857
40856.2
40855.4
40854.7
40853.9
40853.1
40852.4
40851.6
40850.8
40850
40849.3
40848.5
40847.7
40846.9
40846.2
40845.4
40844.6
40843.8
40843
40842.3
40841.5
40840.7
40839.9
40839.2
40838.4
40837.6
40836.8
40836
40835.2
40834.5
40833.7
40832.9
40832.1
40831.3
40830.5
40829.8
40829
40828.2
40827.4
40826.6
40825.8
40825.1
40824.3
40823.5
40822.7
40821.9
40821.1
40820.3
40819.5
40818.7
40818
40817.2
40816.4
40815.6
40814.8
40814
40813.2
40812.4
40811.6
40810.8
40810
40809.2
40808.4
40807.7
40806.9
40806.1
40805.3
40804.5
40803.7
40802.9
40802.1
40801.3
40800.5
40799.7
40798.9
40798.1
40797.3
40796.5
40795.7
40794.9
40794.1
40793.3
40792.5
40791.7
40790.9
40790.1
40789.3
40788.5
40787.7
40786.9
40786.1
40785.3
40784.4
40783.6
40782.8
40782
40781.2
40780.4
40779.6
40778.8
40778
40777.2
40776.4
40775.6
40774.8
40773.9
40773.1
40772.3
40771.5
40770.7
40769.9
40769.1
40768.3
40767.5
40766.6
40765.8
40765
40764.2
40763.4
40762.6
40761.7
40760.9
40760.1
40759.3
40758.5
40757.7
40756.8
40756
40755.2
40754.4
40753.6
40752.7
40751.9
40751.1
40750.3
40749.5
40748.6
40747.8
40747
40746.2
40745.4
40744.5
40743.7
40742.9
40742.1
40741.2
40740.4
40739.6
40738.8
40737.9
40737.1
40736.3
40735.4
40734.6
40733.8
40733
40732.1
40731.3
40730.5
40729.6
40728.8
40728
40727.2
40726.3
40725.5
40724.7
40723.8
40723
40722.2
40721.3
40720.5
40719.7
40718.8
40718
40717.1
40716.3
40715.5
40714.6
40713.8
40713
40712.1
40711.3
40710.4
40709.6
40708.8
40707.9
40707.1
40706.2
40705.4
40704.6
40703.7
40702.9
40702
40701.2
40700.4
40699.5
40698.7
40697.8
40697
40696.1
40695.3
40694.4
40693.6
40692.7
40691.9
40691
40690.2
40689.4
40688.5
40687.7
40686.8
40686
40685.1
40684.3
40683.4
40682.6
40681.7
40680.9
40680
40679.1
40678.3
40677.4
40676.6
40675.7
40674.9
40674
40673.2
40672.3
40671.5
40670.6
40669.7
40668.9
40668
40667.2
40666.3
40665.5
40664.6
40663.7
40662.9
40662
40661.2
40660.3
40659.4
40658.6
40657.7
40656.8
40656
40655.1
40654.3
40653.4
40652.5
40651.7
40650.8
40649.9
40649.1
40648.2
40647.3
40646.5
40645.6
40644.7
40643.9
40643
40642.1
40641.3
40640.4
40639.5
40638.6
40637.8
40636.9
40636
40635.2
40634.3
40633.4
40632.5
40631.7
40630.8
40629.9
40629
40628.2
40627.3
40626.4
40625.5
40624.7
40623.8
40622.9
40622
40621.2
40620.3
40619.4
40618.5
40617.6
40616.8
40615.9
40615
40614.1
40613.2
40612.4
40611.5
40610.6
40609.7
40608.8
40608
40607.1
40606.2
40605.3
40604.4
40603.5
40602.6
40601.8
40600.9
40600
40599.1
40598.2
40597.3
40596.4
40595.5
40594.7
40593.8
40592.9
40592
40591.1
40590.2
40589.3
40588.4
40587.5
40586.6
40585.7
40584.9
40584
40583.1
40582.2
40581.3
40580.4
40579.5
40578.6
40577.7
40576.8
40575.9
40575
40574.1
40573.2
40572.3
40571.4
40570.5
40569.6
40568.7
40567.8
40566.9
40566
40565.1
40564.2
40563.3
40562.4
40561.5
40560.6
40559.7
40558.8
40557.9
40557
40556.1
40555.2
40554.3
40553.4
40552.4
40551.5
40550.6
40549.7
40548.8
40547.9
40547
40546.1
40545.2
40544.3
40543.4
40542.4
40541.5
40540.6
40539.7
40538.8
40537.9
40537
40536.1
40535.1
40534.2
40533.3
40532.4
40531.5
40530.6
40529.7
40528.7
40527.8
40526.9
40526
40525.1
40524.1
40523.2
40522.3
40521.4
40520.5
40519.5
40518.6
40517.7
40516.8
40515.9
40514.9
40514
40513.1
40512.2
40511.2
40510.3
40509.4
40508.5
40507.5
40506.6
40505.7
40504.8
40503.8
40502.9
40502
40501.1
40500.1
40499.2
40498.3
40497.3
40496.4
40495.5
40494.6
40493.6
40492.7
40491.8
40490.8
40489.9
40489
40488
40487.1
40486.2
40485.2
40484.3
40483.4
40482.4
40481.5
40480.6
40479.6
40478.7
40477.7
40476.8
40475.9
40474.9
40474
40473
40472.1
40471.2
40470.2
40469.3
40468.3
40467.4
40466.5
40465.5
40464.6
40463.6
40462.7
40461.7
40460.8
40459.9
40458.9
40458
40457
40456.1
40455.1
40454.2
40453.2
40452.3
40451.3
40450.4
40449.4
40448.5
40447.5
40446.6
40445.6
40444.7
40443.7
40442.8
40441.8
40440.9
40439.9
40439
40438
40437.1
40436.1
40435.2
40434.2
40433.3
40432.3
40431.3
40430.4
40429.4
40428.5
40427.5
40426.6
40425.6
40424.6
40423.7
40422.7
40421.8
40420.8
40419.8
40418.9
40417.9
40417
40416
40415
40414.1
40413.1
40412.1
40411.2
40410.2
40409.2
40408.3
40407.3
40406.4
40405.4
40404.4
40403.5
40402.5
40401.5
40400.5
40399.6
40398.6
40397.6
40396.7
40395.7
40394.7
40393.8
40392.8
40391.8
40390.8
40389.9
40388.9
40387.9
40387
40386
40385
40384
40383.1
40382.1
40381.1
40380.1
40379.2
40378.2
40377.2
40376.2
40375.2
40374.3
40373.3
40372.3
40371.3
40370.3
40369.4
40368.4
40367.4
40366.4
40365.4
40364.5
40363.5
40362.5
40361.5
40360.5
40359.5
40358.6
40357.6
40356.6
40355.6
40354.6
40353.6
40352.6
40351.7
40350.7
40349.7
40348.7
40347.7
40346.7
40345.7
40344.7
40343.7
40342.7
40341.8
40340.8
40339.8
40338.8
40337.8
40336.8
40335.8
40334.8
40333.8
40332.8
40331.8
40330.8
40329.8
40328.8
40327.8
40326.8
40325.8
40324.8
40323.9
40322.9
40321.9
40320.9
40319.9
40318.9
40317.9
40316.9
40315.9
40314.9
40313.9
40312.8
40311.8
40310.8
40309.8
40308.8
40307.8
40306.8
40305.8
40304.8
40303.8
40302.8
40301.8
40300.8
40299.8
40298.8
40297.8
40296.8
40295.8
40294.7
40293.7
40292.7
40291.7
40290.7
40289.7
40288.7
40287.7
40286.7
40285.6
40284.6
40283.6
40282.6
40281.6
40280.6
40279.6
40278.5
40277.5
40276.5
40275.5
40274.5
40273.5
40272.4
40271.4
40270.4
40269.4
40268.4
40267.3
40266.3
40265.3
40264.3
40263.3
40262.2
40261.2
40260.2
40259.2
40258.2
40257.1
40256.1
40255.1
40254.1
40253
40252
40251
40250
40248.9
40247.9
40246.9
40245.8
40244.8
40243.8
40242.8
40241.7
40240.7
40239.7
40238.6
40237.6
40236.6
40235.6
40234.5
40233.5
40232.5
40231.4
40230.4
40229.4
40228.3
40227.3
40226.2
40225.2
40224.2
40223.1
40222.1
40221.1
40220
40219
40218
40216.9
40215.9
40214.8
40213.8
40212.8
40211.7
40210.7
40209.6
40208.6
40207.6
40206.5
40205.5
40204.4
40203.4
40202.3
40201.3
40200.2
40199.2
40198.2
40197.1
40196.1
40195
40194
40192.9
40191.9
40190.8
40189.8
40188.7
40187.7
40186.6
40185.6
40184.5
40183.5
40182.4
40181.4
40180.3
40179.3
40178.2
40177.2
40176.1
40175.1
40174
40173
40171.9
40170.8
40169.8
40168.7
40167.7
40166.6
40165.6
40164.5
40163.4
40162.4
40161.3
40160.3
40159.2
40158.1
40157.1
40156
40155
40153.9
40152.8
40151.8
40150.7
40149.6
40148.6
40147.5
40146.5
40145.4
40144.3
40143.3
40142.2
40141.1
40140.1
40139
40137.9
40136.9
40135.8
40134.7
40133.6
40132.6
40131.5
40130.4
40129.4
40128.3
40127.2
40126.2
40125.1
40124
40122.9
40121.9
40120.8
40119.7
40118.6
40117.6
40116.5
40115.4
40114.3
40113.3
40112.2
40111.1
40110
40109
40107.9
40106.8
40105.7
40104.6
40103.6
40102.5
40101.4
40100.3
40099.2
40098.1
40097.1
40096
40094.9
40093.8
40092.7
40091.6
40090.6
40089.5
40088.4
40087.3
40086.2
40085.1
40084
40083
40081.9
40080.8
40079.7
40078.6
40077.5
40076.4
40075.3
40074.2
40073.2
40072.1
40071
40069.9
40068.8
40067.7
40066.6
40065.5
40064.4
40063.3
40062.2
40061.1
40060
40058.9
40057.8
40056.7
40055.6
40054.5
40053.4
40052.3
40051.2
40050.1
40049
40047.9
40046.8
40045.7
40044.6
40043.5
40042.4
40041.3
40040.2
40039.1
40038
40036.9
40035.8
40034.7
40033.6
40032.5
40031.4
40030.3
40029.2
40028.1
40027
40025.9
40024.8
40023.6
40022.5
40021.4
40020.3
40019.2
40018.1
40017
40015.9
40014.8
40013.6
40012.5
40011.4
40010.3
40009.2
40008.1
40007
40005.8
40004.7
40003.6
40002.5
40001.4
40000.3
39999.1
39998
39996.9
39995.8
39994.7
39993.6
39992.4
39991.3
39990.2
39989.1
39987.9
39986.8
39985.7
39984.6
39983.5
39982.3
39981.2
39980.1
39979
39977.8
39976.7
39975.6
39974.5
39973.3
39972.2
39971.1
39969.9
39968.8
39967.7
39966.6
39965.4
39964.3
39963.2
39962
39960.9
39959.8
39958.6
39957.5
39956.4
39955.2
39954.1
39953
39951.8
39950.7
39949.6
39948.4
39947.3
39946.2
39945
39943.9
39942.8
39941.6
39940.5
39939.3
39938.2
39937.1
39935.9
39934.8
39933.6
39932.5
39931.4
39930.2
39929.1
39927.9
39926.8
39925.6
39924.5
39923.4
39922.2
39921.1
39919.9
39918.8
39917.6
39916.5
39915.3
39914.2
39913
39911.9
39910.7
39909.6
39908.4
39907.3
39906.1
39905
39903.8
39902.7
39901.5
39900.4
39899.2
39898.1
39896.9
39895.8
39894.6
39893.5
39892.3
39891.2
39890
39888.8
39887.7
39886.5
39885.4
39884.2
39883.1
39881.9
39880.7
39879.6
39878.4
39877.3
39876.1
39874.9
39873.8
39872.6
39871.4
39870.3
39869.1
39868
39866.8
39865.6
39864.5
39863.3
39862.1
39861
39859.8
39858.6
39857.5
39856.3
39855.1
39854
39852.8
39851.6
39850.4
39849.3
39848.1
39846.9
39845.8
39844.6
39843.4
39842.2
39841.1
39839.9
39838.7
39837.5
39836.4
39835.2
39834
39832.8
39831.7
39830.5
39829.3
39828.1
39827
39825.8
39824.6
39823.4
39822.2
39821.1
39819.9
39818.7
39817.5
39816.3
39815.2
39814
39812.8
39811.6
39810.4
39809.2
39808.1
39806.9
39805.7
39804.5
39803.3
39802.1
39800.9
39799.7
39798.6
39797.4
39796.2
39795
39793.8
39792.6
39791.4
39790.2
39789
39787.8
39786.7
39785.5
39784.3
39783.1
39781.9
39780.7
39779.5
39778.3
39777.1
39775.9
39774.7
39773.5
39772.3
39771.1
39769.9
39768.7
39767.5
39766.3
39765.1
39763.9
39762.7
39761.5
39760.3
39759.1
39757.9
39756.7
39755.5
39754.3
39753.1
39751.9
39750.7
39749.5
39748.3
39747.1
39745.9
39744.7
39743.5
39742.3
39741
39739.8
39738.6
39737.4
39736.2
39735
39733.8
39732.6
39731.4
39730.1
39728.9
39727.7
39726.5
39725.3
39724.1
39722.9
39721.7
39720.4
39719.2
39718
39716.8
39715.6
39714.4
39713.1
39711.9
39710.7
39709.5
39708.3
39707
39705.8
39704.6
39703.4
39702.2
39700.9
39699.7
39698.5
39697.3
39696
39694.8
39693.6
39692.4
39691.1
39689.9
39688.7
39687.5
39686.2
39685
39683.8
39682.5
39681.3
39680.1
39678.9
39677.6
39676.4
39675.2
39673.9
39672.7
39671.5
39670.2
39669
39667.8
39666.5
39665.3
39664.1
39662.8
39661.6
39660.4
39659.1
39657.9
39656.6
39655.4
39654.2
39652.9
39651.7
39650.4
39649.2
39648
39646.7
39645.5
39644.2
39643
39641.8
39640.5
39639.3
39638
39636.8
39635.5
39634.3
39633
39631.8
39630.5
39629.3
39628
39626.8
39625.5
39624.3
39623
39621.8
39620.5
39619.3
39618
39616.8
39615.5
39614.3
39613
39611.8
39610.5
39609.3
39608
39606.8
39605.5
39604.2
39603
39601.7
39600.5
39599.2
39598
39596.7
39595.4
39594.2
39592.9
39591.6
39590.4
39589.1
39587.9
39586.6
39585.3
39584.1
39582.8
39581.5
39580.3
39579
39577.7
39576.5
39575.2
39573.9
39572.7
39571.4
39570.1
39568.9
39567.6
39566.3
39565.1
39563.8
39562.5
39561.2
39560
39558.7
39557.4
39556.1
39554.9
39553.6
39552.3
39551
39549.8
39548.5
39547.2
39545.9
39544.7
39543.4
39542.1
39540.8
39539.5
39538.2
39537
39535.7
39534.4
39533.1
39531.8
39530.6
39529.3
39528
39526.7
39525.4
39524.1
39522.8
39521.5
39520.3
39519
39517.7
39516.4
39515.1
39513.8
39512.5
39511.2
39509.9
39508.6
39507.4
39506.1
39504.8
39503.5
39502.2
39500.9
39499.6
39498.3
39497
39495.7
39494.4
39493.1
39491.8
39490.5
39489.2
39487.9
39486.6
39485.3
39484
39482.7
39481.4
39480.1
39478.8
39477.5
39476.2
39474.9
39473.6
39472.3
39470.9
39469.6
39468.3
39467
39465.7
39464.4
39463.1
39461.8
39460.5
39459.2
39457.8
39456.5
39455.2
39453.9
39452.6
39451.3
39450
39448.6
39447.3
39446
39444.7
39443.4
39442.1
39440.7
39439.4
39438.1
39436.8
39435.5
39434.1
39432.8
39431.5
39430.2
39428.8
39427.5
39426.2
39424.9
39423.5
39422.2
39420.9
39419.5
39418.2
39416.9
39415.6
39414.2
39412.9
39411.6
39410.2
39408.9
39407.6
39406.2
39404.9
39403.6
39402.2
39400.9
39399.6
39398.2
39396.9
39395.5
39394.2
39392.9
39391.5
39390.2
39388.8
39387.5
39386.2
39384.8
39383.5
39382.1
39380.8
39379.4
39378.1
39376.7
39375.4
39374
39372.7
39371.4
39370
39368.7
39367.3
39366
39364.6
39363.2
39361.9
39360.5
39359.2
39357.8
39356.5
39355.1
39353.8
39352.4
39351
39349.7
39348.3
39347
39345.6
39344.2
39342.9
39341.5
39340.2
39338.8
39337.4
39336.1
39334.7
39333.3
39332
39330.6
39329.2
39327.9
39326.5
39325.1
39323.7
39322.4
39321
39319.6
39318.3
39316.9
39315.5
39314.1
39312.8
39311.4
39310
39308.6
39307.2
39305.9
39304.5
39303.1
39301.7
39300.3
39299
39297.6
39296.2
39294.8
39293.4
39292
39290.6
39289.3
39287.9
39286.5
39285.1
39283.7
39282.3
39280.9
39279.5
39278.1
39276.7
39275.3
39273.9
39272.6
39271.2
39269.8
39268.4
39267
39265.6
39264.2
39262.8
39261.4
39260
39258.6
39257.1
39255.7
39254.3
39252.9
39251.5
39250.1
39248.7
39247.3
39245.9
39244.5
39243.1
39241.7
39240.2
39238.8
39237.4
39236
39234.6
39233.2
39231.7
39230.3
39228.9
39227.5
39226.1
39224.6
39223.2
39221.8
39220.4
39218.9
39217.5
39216.1
39214.7
39213.2
39211.8
39210.4
39208.9
39207.5
39206.1
39204.6
39203.2
39201.8
39200.3
39198.9
39197.5
39196
39194.6
39193.1
39191.7
39190.3
39188.8
39187.4
39185.9
39184.5
39183
39181.6
39180.1
39178.7
39177.2
39175.8
39174.3
39172.9
39171.4
39170
39168.5
39167.1
39165.6
39164.1
39162.7
39161.2
39159.8
39158.3
39156.8
39155.4
39153.9
39152.4
39151
39149.5
39148
39146.6
39145.1
39143.6
39142.1
39140.7
39139.2
39137.7
39136.2
39134.7
39133.3
39131.8
39130.3
39128.8
39127.3
39125.8
39124.3
39122.9
39121.4
39119.9
39118.4
39116.9
39115.4
39113.9
39112.4
39110.9
39109.4
39107.9
39106.4
39104.9
39103.4
39101.9
39100.3
39098.8
39097.3
39095.8
39094.3
39092.8
39091.2
39089.7
39088.2
39086.7
39085.2
39083.6
39082.1
39080.6
39079
39077.5
39076
39074.4
39072.9
39071.3
39069.8
39068.3
39066.7
39065.2
39063.6
39062.1
39060.5
39058.9
39057.4
39055.8
39054.3
39052.7
39051.1
39049.6
39048
39046.4
39044.8
39043.3
39041.7
39040.1
39038.5
39036.9
39035.3
39033.7
39032.1
39030.5
39028.9
39027.3
39025.7
39024.1
39022.5
39020.8
39019.2
39017.6
39016
39014.3
39012.7
39011.1
39009.4
39007.8
39006.1
39004.5
39002.8
39001.1
38999.5
38997.8
38996.1
38994.4
38992.7
38991
38989.3
38987.6
38985.9
38984.2
38982.5
38980.8
38979.1
38977.3
38975.6
38973.8
38972.1
38970.3
38968.5
38966.8
38965
38963.2
38961.4
38959.6
38957.8
38955.9
38954.1
38952.3
38950.4
38948.5
38946.7
38944.8
38942.9
38941
38939.1
38937.1
38935.2
38933.3
38931.3
38929.3
38927.3
38925.3
38923.3
38921.3
38919.2
38917.1
38915.1
38913
38910.8
38908.7
38906.6
38904.4
38902.2
38900
38897.7
38895.5
38893.2
38890.9
38888.6
38886.2
38883.8
38881.4
38879
38876.6
38874.1
38871.6
38869
38866.4
38863.8
38861.2
38858.5
38855.8
38853.1
38850.3
38847.5
38844.7
38841.8
38838.8
38835.9
38832.9
38829.8
38826.7
38823.6
38820.4
38817.2
38814
38810.7
38807.3
38803.9
38800.4
38796.9
38793.4
38789.8
38786.1
38782.4
38778.7
38774.9
38771
38767.1
38763.1
38759.1
38755
38750.9
38746.7
38742.5
38738.2
38733.8
38729.4
38724.9
38720.4
38715.8
38711.2
38706.5
38701.8
38697
38692.1
38687.2
38682.3
38677.2
38672.2
38667
38661.9
38656.6
38651.4
38646
38640.7
38635.2
38629.8
38624.2
38618.7
38613
38607.4
38601.7
38595.9
38590.1
38584.3
38578.4
38572.5
38566.6
38560.6
38554.5
38548.5
38542.4
38536.3
38530.1
38523.9
38517.7
38511.4
38505.1
38498.8
38492.5
38486.1
38479.8
38473.4
38466.9
38460.5
38454
38447.5
38441
38434.5
38428
38421.4
38414.8
38408.2
38401.6
38395
38388.4
38381.7
38375.1
38368.4
38361.8
38355.1
38348.4
38341.7
38335
38328.3
38321.6
38314.8
38308.1
38301.4
38294.6
38287.9
38281.1
38274.4
38267.6
38260.8
38254.1
38247.3
38240.5
38233.8
38227
38220.2
38213.4
38206.7
38199.9
38193.1
38186.3
38179.5
38172.7
38166
38159.2
38152.4
38145.6
38138.8
38132
38125.2
38118.4
38111.7
38104.9
38098.1
38091.3
38084.5
38077.7
38071
38064.2
38057.4
38050.6
38043.8
38037
38030.3
38023.5
38016.7
38009.9
38003.2
37996.4
37989.6
37982.8
37976.1
37969.3
37962.5
37955.7
37949
37942.2
37935.4
37928.7
37921.9
37915.1
37908.4
37901.6
37894.9
37888.1
37881.3
37874.6
37867.8
37861.1
37854.3
37847.6
37840.8
37834.1
37827.3
37820.6
37813.8
37807.1
37800.3
37793.6
37786.8
37780.1
37773.3
37766.6
37759.8
37753.1
37746.4
37739.6
37732.9
37726.2
37719.4
37712.7
37706
37699.2
37692.5
37685.8
37679
37672.3
37665.6
37658.9
37652.1
37645.4
37638.7
37632
37625.3
37618.5
37611.8
37605.1
37598.4
37591.7
37585
37578.3
37571.6
37564.8
37558.1
37551.4
37544.7
37538
37531.3
37524.6
37517.9
37511.2
37504.5
37497.8
37491.1
37484.4
37477.7
37471
37464.3
37457.6
37450.9
37444.2
37437.6
37430.9
37424.2
37417.5
37410.8
37404.1
37397.4
37390.8
37384.1
37377.4
37370.7
37364
37357.4
37350.7
37344
37337.3
37330.7
37324
37317.3
37310.7
37304
37297.3
37290.7
37284
37277.3
37270.7
37264
37257.3
37250.7
37244
37237.4
37230.7
37224.1
37217.4
37210.7
37204.1
37197.4
37190.8
37184.1
37177.5
37170.8
37164.2
37157.6
37150.9
37144.3
37137.6
37131
37124.3
37117.7
37111.1
37104.4
37097.8
37091.2
37084.5
37077.9
37071.3
37064.6
37058
37051.4
37044.7
37038.1
37031.5
37024.9
37018.2
37011.6
37005
36998.4
36991.8
36985.1
36978.5
36971.9
36965.3
36958.7
36952.1
36945.5
36938.8
36932.2
36925.6
36919
36912.4
36905.8
36899.2
36892.6
36886
36879.4
36872.8
36866.2
36859.6
36853
36846.4
36839.8
36833.2
36826.6
36820
36813.4
36806.9
36800.3
36793.7
36787.1
36780.5
36773.9
36767.3
36760.8
36754.2
36747.6
36741
36734.4
36727.9
36721.3
36714.7
36708.1
36701.6
36695
36688.4
36681.9
36675.3
36668.7
36662.2
36655.6
36649
36642.5
36635.9
36629.3
36622.8
36616.2
36609.7
36603.1
36596.6
36590
36583.4
36576.9
36570.3
36563.8
36557.2
36550.7
36544.1
36537.6
36531.1
36524.5
36518
36511.4
36504.9
36498.3
36491.8
36485.3
36478.7
36472.2
36465.7
36459.1
36452.6
36446.1
36439.5
36433
36426.5
36419.9
36413.4
36406.9
36400.4
36393.8
36387.3
36380.8
36374.3
36367.8
36361.2
36354.7
36348.2
36341.7
36335.2
36328.7
36322.2
36315.6
36309.1
36302.6
36296.1
36289.6
36283.1
36276.6
36270.1
36263.6
36257.1
36250.6
36244.1
36237.6
36231.1
36224.6
36218.1
36211.6
36205.1
36198.6
36192.1
36185.7
36179.2
36172.7
36166.2
36159.7
36153.2
36146.7
36140.3
36133.8
36127.3
36120.8
36114.3
36107.9
36101.4
36094.9
36088.4
36082
36075.5
36069
36062.6
36056.1
36049.6
36043.1
36036.7
36030.2
36023.8
36017.3
36010.8
36004.4
35997.9
35991.5
35985
35978.5
35972.1
35965.6
35959.2
35952.7
35946.3
35939.8
35933.4
35926.9
35920.5
35914
35907.6
35901.2
35894.7
35888.3
35881.8
35875.4
35869
35862.5
35856.1
35849.6
35843.2
35836.8
35830.3
35823.9
35817.5
35811.1
35804.6
35798.2
35791.8
35785.4
35778.9
35772.5
35766.1
35759.7
35753.2
35746.8
35740.4
35734
35727.6
35721.2
35714.8
35708.3
35701.9
35695.5
35689.1
35682.7
35676.3
35669.9
35663.5
35657.1
35650.7
35644.3
35637.9
35631.5
35625.1
35618.7
35612.3
35605.9
35599.5
35593.1
35586.7
35580.3
35573.9
35567.6
35561.2
35554.8
35548.4
35542
35535.6
35529.2
35522.9
35516.5
35510.1
35503.7
35497.3
35491
35484.6
35478.2
35471.9
35465.5
35459.1
35452.7
35446.4
35440
35433.6
35427.3
35420.9
35414.5
35408.2
35401.8
35395.5
35389.1
35382.7
35376.4
35370
35363.7
35357.3
35351
35344.6
35338.3
35331.9
35325.6
35319.2
35312.9
35306.5
35300.2
35293.8
35287.5
35281.2
35274.8
35268.5
35262.1
35255.8
35249.5
35243.1
35236.8
35230.5
35224.1
35217.8
35211.5
35205.2
35198.8
35192.5
35186.2
35179.9
35173.5
35167.2
35160.9
35154.6
35148.2
35141.9
35135.6
35129.3
35123
35116.7
35110.4
35104