/*--------------------------------*- C++ -*----------------------------------*\
  =========                 |
  \\      /  F ield         | OpenFOAM: The Open Source CFD Toolbox
   \\    /   O peration     | Website:  https://openfoam.org
    \\  /    A nd           | Version:  9
     \\/     M anipulation  |
\*---------------------------------------------------------------------------*/
FoamFile
{
    format      ascii;
    class       surfaceScalarField;
    location    "0.02";
    object      phi_0;
}
// * * * * * * * * * * * * * * * * * * * * * * * * * * * * * * * * * * * * * //

dimensions      [1 0 -1 0 0 0 0];

internalField   nonuniform List<scalar> 
9999
(
5.42617
5.58097
5.73576
5.89055
6.04535
6.20012
6.35486
6.50957
6.66429
6.81904
6.97383
7.12866
7.28352
7.43841
7.59331
7.74822
7.90313
8.05805
8.21298
8.3679
8.52283
8.67775
8.83267
8.98759
9.14252
9.29744
9.45236
9.60728
9.7622
9.91712
10.072
10.227
10.3819
10.5368
10.6917
10.8466
11.0015
11.1565
11.3114
11.4663
11.6212
11.7761
11.931
12.086
12.2409
12.3958
12.5507
12.7056
12.8605
13.0154
13.1703
13.3253
13.4802
13.6351
13.79
13.9449
14.0998
14.2547
14.4096
14.5645
14.7194
14.8743
15.0292
15.1841
15.3391
15.494
15.6489
15.8038
15.9587
16.1136
16.2685
16.4234
16.5783
16.7332
16.8881
17.043
17.1979
17.3528
17.5077
17.6626
17.8175
17.9724
18.1273
18.2821
18.437
18.5919
18.7468
18.9017
19.0566
19.2115
19.3664
19.5213
19.6762
19.8311
19.986
20.1408
20.2957
20.4506
20.6055
20.7604
20.9153
21.0702
21.2251
21.3799
21.5348
21.6897
21.8446
21.9995
22.1543
22.3092
22.4641
22.619
22.7739
22.9287
23.0836
23.2385
23.3934
23.5482
23.7031
23.858
24.0129
24.1677
24.3226
24.4775
24.6324
24.7872
24.9421
25.097
25.2518
25.4067
25.5616
25.7164
25.8713
26.0262
26.181
26.3359
26.4908
26.6456
26.8005
26.9553
27.1102
27.2651
27.4199
27.5748
27.7296
27.8845
28.0394
28.1942
28.3491
28.5039
28.6588
28.8136
28.9685
29.1233
29.2782
29.433
29.5879
29.7427
29.8976
30.0524
30.2073
30.3621
30.5169
30.6718
30.8266
30.9815
31.1363
31.2912
31.446
31.6008
31.7557
31.9105
32.0654
32.2202
32.375
32.5299
32.6847
32.8395
32.9944
33.1492
33.304
33.4588
33.6137
33.7685
33.9233
34.0782
34.233
34.3878
34.5426
34.6975
34.8523
35.0071
35.1619
35.3167
35.4716
35.6264
35.7812
35.936
36.0908
36.2456
36.4004
36.5553
36.7101
36.8649
37.0197
37.1745
37.3293
37.4841
37.6389
37.7937
37.9485
38.1033
38.2581
38.4129
38.5677
38.7225
38.8773
39.0321
39.1869
39.3417
39.4965
39.6513
39.8061
39.9609
40.1157
40.2705
40.4253
40.5801
40.7349
40.8897
41.0444
41.1992
41.354
41.5088
41.6636
41.8184
41.9731
42.1279
42.2827
42.4375
42.5923
42.747
42.9018
43.0566
43.2114
43.3661
43.5209
43.6757
43.8304
43.9852
44.14
44.2947
44.4495
44.6043
44.759
44.9138
45.0686
45.2233
45.3781
45.5328
45.6876
45.8423
45.9971
46.1519
46.3066
46.4614
46.6161
46.7709
46.9256
47.0804
47.2351
47.3898
47.5446
47.6993
47.8541
48.0088
48.1636
48.3183
48.473
48.6278
48.7825
48.9372
49.092
49.2467
49.4014
49.5562
49.7109
49.8656
50.0204
50.1751
50.3298
50.4845
50.6393
50.794
50.9487
51.1034
51.2581
51.4129
51.5676
51.7223
51.877
52.0317
52.1864
52.3411
52.4958
52.6505
52.8053
52.96
53.1147
53.2694
53.4241
53.5788
53.7335
53.8882
54.0429
54.1976
54.3523
54.507
54.6616
54.8163
54.971
55.1257
55.2804
55.4351
55.5898
55.7445
55.8991
56.0538
56.2085
56.3632
56.5179
56.6725
56.8272
56.9819
57.1366
57.2912
57.4459
57.6006
57.7552
57.9099
58.0646
58.2192
58.3739
58.5286
58.6832
58.8379
58.9925
59.1472
59.3019
59.4565
59.6112
59.7658
59.9205
60.0751
60.2298
60.3844
60.5391
60.6937
60.8483
61.003
61.1576
61.3123
61.4669
61.6215
61.7762
61.9308
62.0854
62.2401
62.3947
62.5493
62.7039
62.8586
63.0132
63.1678
63.3224
63.4771
63.6317
63.7863
63.9409
64.0955
64.2501
64.4048
64.5594
64.714
64.8686
65.0232
65.1778
65.3324
65.487
65.6416
65.7962
65.9508
66.1054
66.26
66.4146
66.5692
66.7238
66.8784
67.0329
67.1875
67.3421
67.4967
67.6513
67.8059
67.9604
68.115
68.2696
68.4242
68.5787
68.7333
68.8879
69.0425
69.197
69.3516
69.5062
69.6607
69.8153
69.9698
70.1244
70.279
70.4335
70.5881
70.7426
70.8972
71.0517
71.2063
71.3608
71.5154
71.6699
71.8245
71.979
72.1335
72.2881
72.4426
72.5972
72.7517
72.9062
73.0607
73.2153
73.3698
73.5243
73.6789
73.8334
73.9879
74.1424
74.2969
74.4515
74.606
74.7605
74.915
75.0695
75.224
75.3785
75.533
75.6875
75.842
75.9965
76.151
76.3055
76.46
76.6145
76.769
76.9235
77.078
77.2325
77.387
77.5415
77.6959
77.8504
78.0049
78.1594
78.3139
78.4683
78.6228
78.7773
78.9318
79.0862
79.2407
79.3952
79.5496
79.7041
79.8586
80.013
80.1675
80.3219
80.4764
80.6308
80.7853
80.9397
81.0942
81.2486
81.4031
81.5575
81.712
81.8664
82.0208
82.1753
82.3297
82.4841
82.6386
82.793
82.9474
83.1018
83.2563
83.4107
83.5651
83.7195
83.8739
84.0284
84.1828
84.3372
84.4916
84.646
84.8004
84.9548
85.1092
85.2636
85.418
85.5724
85.7268
85.8812
86.0356
86.19
86.3444
86.4988
86.6532
86.8075
86.9619
87.1163
87.2707
87.4251
87.5794
87.7338
87.8882
88.0425
88.1969
88.3513
88.5056
88.66
88.8144
88.9687
89.1231
89.2774
89.4318
89.5861
89.7405
89.8948
90.0492
90.2035
90.3579
90.5122
90.6666
90.8209
90.9752
91.1296
91.2839
91.4382
91.5925
91.7469
91.9012
92.0555
92.2098
92.3642
92.5185
92.6728
92.8271
92.9814
93.1357
93.29
93.4443
93.5986
93.7529
93.9072
94.0615
94.2158
94.3701
94.5244
94.6787
94.833
94.9873
95.1416
95.2958
95.4501
95.6044
95.7587
95.9129
96.0672
96.2215
96.3758
96.53
96.6843
96.8386
96.9928
97.1471
97.3013
97.4556
97.6098
97.7641
97.9183
98.0726
98.2268
98.3811
98.5353
98.6895
98.8438
98.998
99.1523
99.3065
99.4607
99.6149
99.7692
99.9234
100.078
100.232
100.386
100.54
100.694
100.849
101.003
101.157
101.311
101.466
101.62
101.774
101.928
102.082
102.236
102.391
102.545
102.699
102.853
103.007
103.162
103.316
103.47
103.624
103.778
103.932
104.087
104.241
104.395
104.549
104.703
104.857
105.012
105.166
105.32
105.474
105.628
105.782
105.936
106.091
106.245
106.399
106.553
106.707
106.861
107.015
107.17
107.324
107.478
107.632
107.786
107.94
108.094
108.248
108.402
108.557
108.711
108.865
109.019
109.173
109.327
109.481
109.635
109.789
109.943
110.097
110.252
110.406
110.56
110.714
110.868
111.022
111.176
111.33
111.484
111.638
111.792
111.946
112.1
112.254
112.408
112.563
112.717
112.871
113.025
113.179
113.333
113.487
113.641
113.795
113.949
114.103
114.257
114.411
114.565
114.719
114.873
115.027
115.181
115.335
115.489
115.643
115.797
115.951
116.105
116.259
116.413
116.567
116.721
116.875
117.029
117.183
117.337
117.491
117.645
117.799
117.953
118.107
118.261
118.415
118.569
118.723
118.876
119.03
119.184
119.338
119.492
119.646
119.8
119.954
120.108
120.262
120.416
120.57
120.724
120.878
121.032
121.185
121.339
121.493
121.647
121.801
121.955
122.109
122.263
122.417
122.571
122.725
122.878
123.032
123.186
123.34
123.494
123.648
123.802
123.956
124.109
124.263
124.417
124.571
124.725
124.879
125.033
125.186
125.34
125.494
125.648
125.802
125.956
126.11
126.263
126.417
126.571
126.725
126.879
127.032
127.186
127.34
127.494
127.648
127.802
127.955
128.109
128.263
128.417
128.571
128.724
128.878
129.032
129.186
129.34
129.493
129.647
129.801
129.955
130.108
130.262
130.416
130.57
130.723
130.877
131.031
131.185
131.338
131.492
131.646
131.8
131.953
132.107
132.261
132.415
132.568
132.722
132.876
133.03
133.183
133.337
133.491
133.644
133.798
133.952
134.106
134.259
134.413
134.567
134.72
134.874
135.028
135.181
135.335
135.489
135.642
135.796
135.95
136.103
136.257
136.411
136.564
136.718
136.872
137.025
137.179
137.333
137.486
137.64
137.794
137.947
138.101
138.254
138.408
138.562
138.715
138.869
139.023
139.176
139.33
139.483
139.637
139.791
139.944
140.098
140.251
140.405
140.559
140.712
140.866
141.019
141.173
141.326
141.48
141.634
141.787
141.941
142.094
142.248
142.401
142.555
142.708
142.862
143.016
143.169
143.323
143.476
143.63
143.783
143.937
144.09
144.244
144.397
144.551
144.704
144.858
145.011
145.165
145.318
145.472
145.625
145.779
145.932
146.086
146.239
146.393
146.546
146.7
146.853
147.007
147.16
147.314
147.467
147.62
147.774
147.927
148.081
148.234
148.388
148.541
148.695
148.848
149.001
149.155
149.308
149.462
149.615
149.769
149.922
150.075
150.229
150.382
150.536
150.689
150.842
150.996
151.149
151.302
151.456
151.609
151.763
151.916
152.069
152.223
152.376
152.529
152.683
152.836
152.99
153.143
153.296
153.45
153.603
153.756
153.91
154.063
154.216
154.37
154.523
154.676
154.829
154.983
155.136
155.289
155.443
155.596
155.749
155.903
156.056
156.209
156.362
156.516
156.669
156.822
156.976
157.129
157.282
157.435
157.589
157.742
157.895
158.048
158.202
158.355
158.508
158.661
158.815
158.968
159.121
159.274
159.427
159.581
159.734
159.887
160.04
160.193
160.347
160.5
160.653
160.806
160.959
161.113
161.266
161.419
161.572
161.725
161.878
162.032
162.185
162.338
162.491
162.644
162.797
162.951
163.104
163.257
163.41
163.563
163.716
163.869
164.022
164.176
164.329
164.482
164.635
164.788
164.941
165.094
165.247
165.4
165.554
165.707
165.86
166.013
166.166
166.319
166.472
166.625
166.778
166.931
167.084
167.237
167.39
167.543
167.696
167.849
168.003
168.156
168.309
168.462
168.615
168.768
168.921
169.074
169.227
169.38
169.533
169.686
169.839
169.992
170.145
170.298
170.451
170.604
170.757
170.91
171.063
171.215
171.368
171.521
171.674
171.827
171.98
172.133
172.286
172.439
172.592
172.745
172.898
173.051
173.204
173.357
173.51
173.662
173.815
173.968
174.121
174.274
174.427
174.58
174.733
174.886
175.039
175.191
175.344
175.497
175.65
175.803
175.956
176.109
176.261
176.414
176.567
176.72
176.873
177.026
177.178
177.331
177.484
177.637
177.79
177.943
178.095
178.248
178.401
178.554
178.707
178.859
179.012
179.165
179.318
179.47
179.623
179.776
179.929
180.082
180.234
180.387
180.54
180.693
180.845
180.998
181.151
181.304
181.456
181.609
181.762
181.914
182.067
182.22
182.373
182.525
182.678
182.831
182.983
183.136
183.289
183.441
183.594
183.747
183.899
184.052
184.205
184.357
184.51
184.663
184.815
184.968
185.121
185.273
185.426
185.579
185.731
185.884
186.036
186.189
186.342
186.494
186.647
186.799
186.952
187.105
187.257
187.41
187.562
187.715
187.868
188.02
188.173
188.325
188.478
188.63
188.783
188.936
189.088
189.241
189.393
189.546
189.698
189.851
190.003
190.156
190.308
190.461
190.613
190.766
190.918
191.071
191.223
191.376
191.528
191.681
191.833
191.986
192.138
192.291
192.443
192.596
192.748
192.9
193.053
193.205
193.358
193.51
193.663
193.815
193.968
194.12
194.272
194.425
194.577
194.73
194.882
195.034
195.187
195.339
195.492
195.644
195.796
195.949
196.101
196.253
196.406
196.558
196.71
196.863
197.015
197.167
197.32
197.472
197.624
197.777
197.929
198.081
198.234
198.386
198.538
198.691
198.843
198.995
199.148
199.3
199.452
199.604
199.757
199.909
200.061
200.213
200.366
200.518
200.67
200.823
200.975
201.127
201.279
201.431
201.584
201.736
201.888
202.04
202.193
202.345
202.497
202.649
202.801
202.954
203.106
203.258
203.41
203.562
203.714
203.867
204.019
204.171
204.323
204.475
204.627
204.779
204.932
205.084
205.236
205.388
205.54
205.692
205.844
205.996
206.149
206.301
206.453
206.605
206.757
206.909
207.061
207.213
207.365
207.517
207.669
207.821
207.973
208.126
208.278
208.43
208.582
208.734
208.886
209.038
209.19
209.342
209.494
209.646
209.798
209.95
210.102
210.254
210.406
210.558
210.71
210.862
211.014
211.166
211.318
211.47
211.622
211.774
211.925
212.077
212.229
212.381
212.533
212.685
212.837
212.989
213.141
213.293
213.445
213.597
213.748
213.9
214.052
214.204
214.356
214.508
214.66
214.812
214.963
215.115
215.267
215.419
215.571
215.723
215.875
216.026
216.178
216.33
216.482
216.634
216.785
216.937
217.089
217.241
217.393
217.544
217.696
217.848
218
218.152
218.303
218.455
218.607
218.759
218.91
219.062
219.214
219.366
219.517
219.669
219.821
219.972
220.124
220.276
220.428
220.579
220.731
220.883
221.034
221.186
221.338
221.489
221.641
221.793
221.944
222.096
222.248
222.399
222.551
222.703
222.854
223.006
223.157
223.309
223.461
223.612
223.764
223.916
224.067
224.219
224.37
224.522
224.673
224.825
224.977
225.128
225.28
225.431
225.583
225.734
225.886
226.037
226.189
226.341
226.492
226.644
226.795
226.947
227.098
227.25
227.401
227.553
227.704
227.856
228.007
228.159
228.31
228.461
228.613
228.764
228.916
229.067
229.219
229.37
229.522
229.673
229.824
229.976
230.127
230.279
230.43
230.582
230.733
230.884
231.036
231.187
231.338
231.49
231.641
231.793
231.944
232.095
232.247
232.398
232.549
232.701
232.852
233.003
233.155
233.306
233.457
233.609
233.76
233.911
234.062
234.214
234.365
234.516
234.668
234.819
234.97
235.121
235.273
235.424
235.575
235.726
235.878
236.029
236.18
236.331
236.483
236.634
236.785
236.936
237.087
237.239
237.39
237.541
237.692
237.843
237.994
238.146
238.297
238.448
238.599
238.75
238.901
239.053
239.204
239.355
239.506
239.657
239.808
239.959
240.11
240.261
240.413
240.564
240.715
240.866
241.017
241.168
241.319
241.47
241.621
241.772
241.923
242.074
242.225
242.376
242.527
242.678
242.829
242.98
243.131
243.282
243.433
243.584
243.735
243.886
244.037
244.188
244.339
244.49
244.641
244.792
244.943
245.094
245.245
245.396
245.547
245.698
245.849
246
246.15
246.301
246.452
246.603
246.754
246.905
247.056
247.207
247.358
247.508
247.659
247.81
247.961
248.112
248.263
248.414
248.564
248.715
248.866
249.017
249.168
249.318
249.469
249.62
249.771
249.922
250.072
250.223
250.374
250.525
250.675
250.826
250.977
251.128
251.278
251.429
251.58
251.731
251.881
252.032
252.183
252.333
252.484
252.635
252.786
252.936
253.087
253.238
253.388
253.539
253.69
253.84
253.991
254.141
254.292
254.443
254.593
254.744
254.895
255.045
255.196
255.346
255.497
255.648
255.798
255.949
256.099
256.25
256.401
256.551
256.702
256.852
257.003
257.153
257.304
257.454
257.605
257.755
257.906
258.056
258.207
258.357
258.508
258.658
258.809
258.959
259.11
259.26
259.411
259.561
259.712
259.862
260.012
260.163
260.313
260.464
260.614
260.765
260.915
261.065
261.216
261.366
261.517
261.667
261.817
261.968
262.118
262.268
262.419
262.569
262.72
262.87
263.02
263.17
263.321
263.471
263.621
263.772
263.922
264.072
264.223
264.373
264.523
264.674
264.824
264.974
265.124
265.275
265.425
265.575
265.725
265.875
266.026
266.176
266.326
266.476
266.627
266.777
266.927
267.077
267.227
267.378
267.528
267.678
267.828
267.978
268.128
268.278
268.429
268.579
268.729
268.879
269.029
269.179
269.329
269.48
269.63
269.78
269.93
270.08
270.23
270.38
270.53
270.68
270.83
270.98
271.13
271.28
271.43
271.58
271.73
271.88
272.03
272.18
272.33
272.48
272.63
272.78
272.93
273.08
273.23
273.38
273.53
273.68
273.83
273.98
274.13
274.28
274.43
274.58
274.73
274.879
275.029
275.179
275.329
275.479
275.629
275.779
275.929
276.078
276.228
276.378
276.528
276.678
276.828
276.978
277.127
277.277
277.427
277.577
277.727
277.876
278.026
278.176
278.326
278.476
278.625
278.775
278.925
279.075
279.224
279.374
279.524
279.673
279.823
279.973
280.123
280.272
280.422
280.572
280.721
280.871
281.021
281.17
281.32
281.47
281.619
281.769
281.919
282.068
282.218
282.367
282.517
282.667
282.816
282.966
283.115
283.265
283.415
283.564
283.714
283.863
284.013
284.162
284.312
284.462
284.611
284.761
284.91
285.06
285.209
285.359
285.508
285.658
285.807
285.957
286.106
286.256
286.405
286.555
286.704
286.853
287.003
287.152
287.302
287.451
287.6
287.75
287.899
288.049
288.198
288.347
288.497
288.646
288.796
288.945
289.094
289.244
289.393
289.542
289.692
289.841
289.991
290.14
290.289
290.438
290.588
290.737
290.886
291.035
291.185
291.334
291.483
291.633
291.782
291.931
292.08
292.229
292.379
292.528
292.677
292.827
292.976
293.125
293.274
293.423
293.573
293.722
293.871
294.02
294.169
294.318
294.467
294.616
294.766
294.915
295.064
295.213
295.362
295.511
295.66
295.809
295.959
296.107
296.257
296.406
296.555
296.704
296.853
297.002
297.151
297.3
297.449
297.598
297.747
297.896
298.045
298.194
298.343
298.492
298.641
298.79
298.939
299.088
299.237
299.386
299.535
299.684
299.833
299.981
300.13
300.279
300.428
300.577
300.726
300.875
301.024
301.173
301.321
301.47
301.619
301.768
301.917
302.066
302.214
302.363
302.512
302.661
302.81
302.958
303.107
303.256
303.405
303.554
303.702
303.851
304
304.149
304.297
304.446
304.595
304.744
304.892
305.041
305.19
305.338
305.487
305.636
305.784
305.933
306.082
306.23
306.379
306.528
306.676
306.825
306.974
307.122
307.271
307.419
307.568
307.717
307.865
308.014
308.162
308.311
308.46
308.608
308.757
308.905
309.054
309.202
309.351
309.499
309.648
309.796
309.945
310.093
310.242
310.39
310.539
310.687
310.836
310.984
311.133
311.281
311.429
311.578
311.726
311.875
312.023
312.172
312.32
312.468
312.617
312.765
312.913
313.062
313.21
313.359
313.507
313.655
313.804
313.952
314.1
314.249
314.397
314.545
314.693
314.842
314.99
315.138
315.286
315.435
315.583
315.731
315.88
316.028
316.176
316.324
316.472
316.621
316.769
316.917
317.065
317.213
317.362
317.51
317.658
317.806
317.954
318.102
318.25
318.399
318.547
318.695
318.843
318.991
319.139
319.287
319.435
319.583
319.731
319.879
320.028
320.176
320.324
320.472
320.62
320.768
320.916
321.064
321.212
321.36
321.508
321.656
321.804
321.952
322.1
322.248
322.396
322.543
322.691
322.839
322.987
323.135
323.283
323.431
323.579
323.727
323.875
324.023
324.17
324.318
324.466
324.614
324.762
324.91
325.057
325.205
325.353
325.501
325.649
325.797
325.944
326.092
326.24
326.388
326.535
326.683
326.831
326.979
327.126
327.274
327.422
327.57
327.717
327.865
328.013
328.16
328.308
328.456
328.603
328.751
328.899
329.046
329.194
329.342
329.489
329.637
329.784
329.932
330.08
330.227
330.375
330.522
330.67
330.817
330.965
331.113
331.26
331.408
331.555
331.703
331.85
331.998
332.145
332.293
332.44
332.588
332.735
332.883
333.03
333.178
333.325
333.472
333.62
333.767
333.915
334.062
334.209
334.357
334.504
334.652
334.799
334.946
335.094
335.241
335.388
335.536
335.683
335.83
335.978
336.125
336.272
336.42
336.567
336.714
336.862
337.009
337.156
337.303
337.451
337.598
337.745
337.892
338.039
338.187
338.334
338.481
338.628
338.775
338.923
339.07
339.217
339.364
339.511
339.658
339.806
339.953
340.1
340.247
340.394
340.541
340.688
340.835
340.982
341.129
341.276
341.424
341.571
341.718
341.865
342.012
342.159
342.306
342.453
342.6
342.747
342.894
343.041
343.188
343.335
343.482
343.628
343.775
343.922
344.069
344.216
344.363
344.51
344.657
344.804
344.951
345.097
345.244
345.391
345.538
345.685
345.832
345.979
346.125
346.272
346.419
346.566
346.713
346.859
347.006
347.153
347.3
347.446
347.593
347.74
347.887
348.033
348.18
348.327
348.474
348.62
348.767
348.914
349.06
349.207
349.354
349.5
349.647
349.794
349.94
350.087
350.233
350.38
350.527
350.673
350.82
350.966
351.113
351.26
351.406
351.553
351.699
351.846
351.992
352.139
352.285
352.432
352.578
352.725
352.871
353.018
353.164
353.311
353.457
353.603
353.75
353.896
354.043
354.189
354.336
354.482
354.628
354.775
354.921
355.067
355.214
355.36
355.507
355.653
355.799
355.946
356.092
356.238
356.384
356.531
356.677
356.823
356.97
357.116
357.262
357.408
357.555
357.701
357.847
357.993
358.139
358.286
358.432
358.578
358.724
358.87
359.016
359.163
359.309
359.455
359.601
359.747
359.893
360.039
360.185
360.332
360.478
360.624
360.77
360.916
361.062
361.208
361.354
361.5
361.646
361.792
361.938
362.084
362.23
362.376
362.522
362.668
362.814
362.96
363.106
363.252
363.398
363.544
363.69
363.835
363.981
364.127
364.273
364.419
364.565
364.711
364.857
365.002
365.148
365.294
365.44
365.586
365.731
365.877
366.023
366.169
366.314
366.46
366.606
366.752
366.897
367.043
367.189
367.335
367.48
367.626
367.772
367.917
368.063
368.209
368.354
368.5
368.646
368.791
368.937
369.083
369.228
369.374
369.519
369.665
369.81
369.956
370.102
370.247
370.393
370.538
370.684
370.829
370.975
371.12
371.266
371.411
371.557
371.702
371.848
371.993
372.139
372.284
372.429
372.575
372.72
372.866
373.011
373.157
373.302
373.447
373.593
373.738
373.883
374.029
374.174
374.319
374.465
374.61
374.755
374.901
375.046
375.191
375.336
375.482
375.627
375.772
375.917
376.063
376.208
376.353
376.498
376.643
376.789
376.934
377.079
377.224
377.369
377.514
377.659
377.805
377.95
378.095
378.24
378.385
378.53
378.675
378.82
378.965
379.11
379.255
379.4
379.545
379.69
379.835
379.98
380.125
380.27
380.415
380.56
380.705
380.85
380.995
381.14
381.285
381.43
381.575
381.72
381.865
382.009
382.154
382.299
382.444
382.589
382.734
382.879
383.023
383.168
383.313
383.458
383.602
383.747
383.892
384.037
384.182
384.326
384.471
384.616
384.76
384.905
385.05
385.195
385.339
385.484
385.629
385.773
385.918
386.062
386.207
386.352
386.496
386.641
386.785
386.93
387.075
387.219
387.364
387.508
387.653
387.797
387.942
388.086
388.231
388.375
388.52
388.664
388.809
388.953
389.098
389.242
389.387
389.531
389.675
389.82
389.964
390.109
390.253
390.397
390.542
390.686
390.83
390.975
391.119
391.263
391.408
391.552
391.696
391.841
391.985
392.129
392.273
392.418
392.562
392.706
392.85
392.994
393.139
393.283
393.427
393.571
393.715
393.859
394.004
394.148
394.292
394.436
394.58
394.724
394.868
395.012
395.156
395.3
395.445
395.589
395.733
395.877
396.021
396.165
396.309
396.453
396.597
396.741
396.885
397.028
397.172
397.316
397.46
397.604
397.748
397.892
398.036
398.18
398.324
398.467
398.611
398.755
398.899
399.043
399.187
399.33
399.474
399.618
399.762
399.905
400.049
400.193
400.337
400.48
400.624
400.768
400.911
401.055
401.199
401.342
401.486
401.63
401.773
401.917
402.061
402.204
402.348
402.491
402.635
402.779
402.922
403.066
403.209
403.353
403.496
403.64
403.783
403.927
404.07
404.214
404.357
404.501
404.644
404.787
404.931
405.074
405.218
405.361
405.504
405.648
405.791
405.935
406.078
406.221
406.365
406.508
406.651
406.794
406.938
407.081
407.224
407.367
407.511
407.654
407.797
407.94
408.084
408.227
408.37
408.513
408.656
408.799
408.942
409.086
409.229
409.372
409.515
409.658
409.801
409.944
410.087
410.23
410.373
410.516
410.659
410.802
410.945
411.088
411.231
411.374
411.517
411.66
411.803
411.946
412.089
412.232
412.375
412.517
412.66
412.803
412.946
413.089
413.232
413.375
413.517
413.66
413.803
413.946
414.088
414.231
414.374
414.517
414.659
414.802
414.945
415.087
415.23
415.373
415.515
415.658
415.801
415.943
416.086
416.228
416.371
416.514
416.656
416.799
416.941
417.084
417.226
417.369
417.511
417.654
417.796
417.939
418.081
418.224
418.366
418.508
418.651
418.793
418.936
419.078
419.22
419.363
419.505
419.647
419.79
419.932
420.074
420.216
420.359
420.501
420.643
420.785
420.928
421.07
421.212
421.354
421.496
421.638
421.781
421.923
422.065
422.207
422.349
422.491
422.633
422.775
422.917
423.059
423.201
423.343
423.485
423.627
423.769
423.911
424.053
424.195
424.337
424.479
424.621
424.763
424.905
425.047
425.188
425.33
425.472
425.614
425.756
425.898
426.039
426.181
426.323
426.465
426.606
426.748
426.89
427.031
427.173
427.315
427.456
427.598
427.74
427.881
428.023
428.164
428.306
428.448
428.589
428.731
428.872
429.014
429.155
429.297
429.438
429.58
429.721
429.862
430.004
430.145
430.287
430.428
430.569
430.711
430.852
430.993
431.135
431.276
431.417
431.559
431.7
431.841
431.982
432.123
432.265
432.406
432.547
432.688
432.829
432.97
433.112
433.253
433.394
433.535
433.676
433.817
433.958
434.099
434.24
434.381
434.522
434.663
434.804
434.945
435.086
435.226
435.367
435.508
435.649
435.79
435.931
436.072
436.212
436.353
436.494
436.635
436.775
436.916
437.057
437.197
437.338
437.479
437.619
437.76
437.901
438.041
438.182
438.322
438.463
438.604
438.744
438.885
439.025
439.166
439.306
439.446
439.587
439.727
439.868
440.008
440.148
440.289
440.429
440.569
440.71
440.85
440.99
441.13
441.271
441.411
441.551
441.691
441.831
441.972
442.112
442.252
442.392
442.532
442.672
442.812
442.952
443.092
443.232
443.372
443.512
443.652
443.792
443.932
444.072
444.212
444.352
444.491
444.631
444.771
444.911
445.051
445.19
445.33
445.47
445.61
445.749
445.889
446.029
446.168
446.308
446.447
446.587
446.726
446.866
447.006
447.145
447.285
447.424
447.563
447.703
447.842
447.982
448.121
448.26
448.4
448.539
448.678
448.817
448.957
449.096
449.235
449.374
449.513
449.653
449.792
449.931
450.07
450.209
450.348
450.487
450.626
450.765
450.904
451.043
451.182
451.321
451.46
451.598
451.737
451.876
452.015
452.154
452.292
452.431
452.57
452.708
452.847
452.986
453.124
453.263
453.401
453.54
453.678
453.817
453.955
454.094
454.232
454.37
454.509
454.647
454.785
454.924
455.062
455.2
455.338
455.477
455.615
455.753
455.891
456.029
456.167
456.305
456.443
456.581
456.719
456.857
456.995
457.132
457.27
457.408
457.546
457.683
457.821
457.959
458.096
458.234
458.371
458.509
458.646
458.784
458.921
459.059
459.196
459.333
459.471
459.608
459.745
459.882
460.019
460.156
460.293
460.43
460.567
460.704
460.841
460.978
461.115
461.252
461.388
461.525
461.662
461.798
461.935
462.071
462.208
462.344
462.48
462.617
462.753
462.889
463.025
463.161
463.298
463.433
463.569
463.705
463.841
463.977
464.113
464.248
464.384
464.519
464.655
464.79
464.925
465.061
465.196
465.331
465.466
465.601
465.736
465.871
466.005
466.14
466.275
466.409
466.544
466.678
466.812
466.946
467.08
467.214
467.348
467.482
467.615
467.749
467.882
468.016
468.149
468.282
468.415
468.548
468.68
468.813
468.945
469.078
469.21
469.342
469.474
469.605
469.737
469.868
469.999
470.13
470.261
470.392
470.522
470.652
470.783
470.912
471.042
471.171
471.301
471.43
471.558
471.687
471.815
471.943
472.07
472.198
472.325
472.452
472.578
472.704
472.83
472.955
473.08
473.205
473.329
473.453
473.577
473.7
473.823
473.945
474.067
474.188
474.309
474.429
474.549
474.669
474.787
474.906
475.023
475.14
475.257
475.373
475.488
475.602
475.716
475.829
475.942
476.054
476.165
476.275
476.384
476.493
476.601
476.708
476.814
476.919
477.024
477.127
477.23
477.332
477.432
477.532
477.631
477.729
477.825
477.921
478.016
478.109
478.202
478.293
478.384
478.473
478.561
478.648
478.734
478.818
478.902
478.984
479.065
479.145
479.224
479.302
479.378
479.453
479.527
479.6
479.671
479.742
479.811
479.879
479.946
480.011
480.076
480.139
480.201
480.262
480.322
480.381
480.438
480.495
480.55
480.604
480.658
480.71
480.761
480.811
480.86
480.909
480.956
481.002
481.047
481.092
481.136
481.178
481.22
481.261
481.302
481.341
481.38
481.418
481.455
481.492
481.528
481.563
481.598
481.632
481.665
481.698
481.731
481.763
481.794
481.825
481.856
481.886
481.915
481.944
481.973
482.002
482.03
482.057
482.085
482.112
482.139
482.165
482.191
482.217
482.243
482.269
482.294
482.319
482.344
482.369
482.393
482.417
482.442
482.466
482.49
482.513
482.537
482.56
482.584
482.607
482.63
482.653
482.676
482.699
482.722
482.745
482.768
482.79
482.813
482.835
482.858
482.88
482.903
482.925
482.947
482.969
482.991
483.014
483.036
483.058
483.08
483.102
483.124
483.146
483.167
483.189
483.211
483.233
483.255
483.277
483.298
483.32
483.342
483.363
483.385
483.407
483.428
483.45
483.471
483.493
483.514
483.536
483.557
483.579
483.6
483.622
483.643
483.665
483.686
483.708
483.729
483.75
483.772
483.793
483.814
483.835
483.857
483.878
483.899
483.92
483.942
483.963
483.984
484.005
484.026
484.048
484.069
484.09
484.111
484.132
484.153
484.174
484.195
484.216
484.237
484.258
484.279
484.3
484.321
484.342
484.363
484.384
484.404
484.425
484.446
484.467
484.488
484.509
484.529
484.55
484.571
484.592
484.612
484.633
484.654
484.675
484.695
484.716
484.737
484.757
484.778
484.798
484.819
484.84
484.86
484.881
484.901
484.922
484.942
484.963
484.983
485.004
485.024
485.044
485.065
485.085
485.106
485.126
485.146
485.167
485.187
485.207
485.228
485.248
485.268
485.288
485.309
485.329
485.349
485.369
485.389
485.409
485.43
485.45
485.47
485.49
485.51
485.53
485.55
485.57
485.59
485.61
485.63
485.65
485.67
485.69
485.71
485.73
485.75
485.77
485.79
485.809
485.829
485.849
485.869
485.889
485.909
485.928
485.948
485.968
485.988
486.007
486.027
486.047
486.066
486.086
486.106
486.125
486.145
486.164
486.184
486.204
486.223
486.243
486.262
486.282
486.301
486.321
486.34
486.36
486.379
486.398
486.418
486.437
486.457
486.476
486.495
486.515
486.534
486.553
486.573
486.592
486.611
486.63
486.65
486.669
486.688
486.707
486.726
486.746
486.765
486.784
486.803
486.822
486.841
486.86
486.879
486.898
486.917
486.936
486.955
486.974
486.993
487.012
487.031
487.05
487.069
487.088
487.107
487.126
487.145
487.163
487.182
487.201
487.22
487.239
487.257
487.276
487.295
487.314
487.332
487.351
487.37
487.388
487.407
487.426
487.444
487.463
487.482
487.5
487.519
487.537
487.556
487.574
487.593
487.611
487.63
487.648
487.667
487.685
487.704
487.722
487.74
487.759
487.777
487.795
487.814
487.832
487.85
487.869
487.887
487.905
487.923
487.942
487.96
487.978
487.996
488.014
488.033
488.051
488.069
488.087
488.105
488.123
488.141
488.159
488.177
488.195
488.213
488.231
488.249
488.267
488.285
488.303
488.321
488.339
488.357
488.375
488.393
488.411
488.429
488.446
488.464
488.482
488.5
488.518
488.535
488.553
488.571
488.589
488.606
488.624
488.642
488.659
488.677
488.695
488.712
488.73
488.747
488.765
488.783
488.8
488.818
488.835
488.853
488.87
488.888
488.905
488.923
488.94
488.957
488.975
488.992
489.01
489.027
489.044
489.062
489.079
489.096
489.114
489.131
489.148
489.165
489.183
489.2
489.217
489.234
489.251
489.269
489.286
489.303
489.32
489.337
489.354
489.371
489.388
489.405
489.422
489.439
489.456
489.473
489.49
489.507
489.524
489.541
489.558
489.575
489.592
489.609
489.626
489.643
489.659
489.676
489.693
489.71
489.727
489.743
489.76
489.777
489.794
489.81
489.827
489.844
489.86
489.877
489.894
489.91
489.927
489.943
489.96
489.977
489.993
490.01
490.026
490.043
490.059
490.076
490.092
490.109
490.125
490.142
490.158
490.174
490.191
490.207
490.223
490.24
490.256
490.272
490.289
490.305
490.321
490.338
490.354
490.37
490.386
490.403
490.419
490.435
490.451
490.467
490.483
490.499
490.516
490.532
490.548
490.564
490.58
490.596
490.612
490.628
490.644
490.66
490.676
490.692
490.708
490.724
490.74
490.755
490.771
490.787
490.803
490.819
490.835
490.851
490.866
490.882
490.898
490.914
490.929
490.945
490.961
490.977
490.992
491.008
491.024
491.039
491.055
491.07
491.086
491.102
491.117
491.133