/*--------------------------------*- C++ -*----------------------------------*\
  =========                 |
  \\      /  F ield         | OpenFOAM: The Open Source CFD Toolbox
   \\    /   O peration     | Website:  https://openfoam.org
    \\  /    A nd           | Version:  9
     \\/     M anipulation  |
\*---------------------------------------------------------------------------*/
FoamFile
{
    format      ascii;
    class       volScalarField;
    location    "0.02";
    object      rho;
}
// * * * * * * * * * * * * * * * * * * * * * * * * * * * * * * * * * * * * * //

dimensions      [1 -3 0 0 0 0 0];

internalField   nonuniform List<scalar> 
10000
(
0.533481
0.533467
0.533446
0.533427
0.53341
0.533392
0.533372
0.53335
0.533328
0.533308
0.533293
0.533281
0.533272
0.533266
0.533262
0.533258
0.533254
0.533251
0.533248
0.533246
0.533243
0.533241
0.533238
0.533236
0.533233
0.53323
0.533228
0.533225
0.533223
0.53322
0.533217
0.533215
0.533212
0.533209
0.533207
0.533204
0.533202
0.533199
0.533196
0.533194
0.533191
0.533188
0.533186
0.533183
0.53318
0.533178
0.533175
0.533172
0.53317
0.533167
0.533164
0.533162
0.533159
0.533156
0.533154
0.533151
0.533148
0.533146
0.533143
0.53314
0.533138
0.533135
0.533132
0.533129
0.533127
0.533124
0.533121
0.533119
0.533116
0.533113
0.53311
0.533108
0.533105
0.533102
0.533099
0.533097
0.533094
0.533091
0.533088
0.533086
0.533083
0.53308
0.533077
0.533074
0.533072
0.533069
0.533066
0.533063
0.533061
0.533058
0.533055
0.533052
0.533049
0.533047
0.533044
0.533041
0.533038
0.533035
0.533033
0.53303
0.533027
0.533024
0.533021
0.533018
0.533016
0.533013
0.53301
0.533007
0.533004
0.533001
0.532998
0.532996
0.532993
0.53299
0.532987
0.532984
0.532981
0.532978
0.532975
0.532973
0.53297
0.532967
0.532964
0.532961
0.532958
0.532955
0.532952
0.532949
0.532946
0.532944
0.532941
0.532938
0.532935
0.532932
0.532929
0.532926
0.532923
0.53292
0.532917
0.532914
0.532911
0.532908
0.532905
0.532902
0.532899
0.532896
0.532894
0.532891
0.532888
0.532885
0.532882
0.532879
0.532876
0.532873
0.53287
0.532867
0.532864
0.532861
0.532858
0.532855
0.532852
0.532849
0.532846
0.532843
0.53284
0.532837
0.532834
0.53283
0.532827
0.532824
0.532821
0.532818
0.532815
0.532812
0.532809
0.532806
0.532803
0.5328
0.532797
0.532794
0.532791
0.532788
0.532785
0.532782
0.532778
0.532775
0.532772
0.532769
0.532766
0.532763
0.53276
0.532757
0.532754
0.532751
0.532747
0.532744
0.532741
0.532738
0.532735
0.532732
0.532729
0.532726
0.532722
0.532719
0.532716
0.532713
0.53271
0.532707
0.532703
0.5327
0.532697
0.532694
0.532691
0.532688
0.532684
0.532681
0.532678
0.532675
0.532672
0.532669
0.532665
0.532662
0.532659
0.532656
0.532653
0.532649
0.532646
0.532643
0.53264
0.532636
0.532633
0.53263
0.532627
0.532623
0.53262
0.532617
0.532614
0.532611
0.532607
0.532604
0.532601
0.532597
0.532594
0.532591
0.532588
0.532584
0.532581
0.532578
0.532575
0.532571
0.532568
0.532565
0.532561
0.532558
0.532555
0.532551
0.532548
0.532545
0.532542
0.532538
0.532535
0.532532
0.532528
0.532525
0.532522
0.532518
0.532515
0.532512
0.532508
0.532505
0.532502
0.532498
0.532495
0.532491
0.532488
0.532485
0.532481
0.532478
0.532475
0.532471
0.532468
0.532464
0.532461
0.532458
0.532454
0.532451
0.532447
0.532444
0.532441
0.532437
0.532434
0.53243
0.532427
0.532424
0.53242
0.532417
0.532413
0.53241
0.532406
0.532403
0.532399
0.532396
0.532393
0.532389
0.532386
0.532382
0.532379
0.532375
0.532372
0.532368
0.532365
0.532361
0.532358
0.532354
0.532351
0.532347
0.532344
0.53234
0.532337
0.532333
0.53233
0.532326
0.532323
0.532319
0.532316
0.532312
0.532309
0.532305
0.532302
0.532298
0.532295
0.532291
0.532288
0.532284
0.53228
0.532277
0.532273
0.53227
0.532266
0.532263
0.532259
0.532255
0.532252
0.532248
0.532245
0.532241
0.532238
0.532234
0.53223
0.532227
0.532223
0.53222
0.532216
0.532212
0.532209
0.532205
0.532201
0.532198
0.532194
0.532191
0.532187
0.532183
0.53218
0.532176
0.532172
0.532169
0.532165
0.532161
0.532158
0.532154
0.53215
0.532147
0.532143
0.532139
0.532136
0.532132
0.532128
0.532125
0.532121
0.532117
0.532114
0.53211
0.532106
0.532102
0.532099
0.532095
0.532091
0.532088
0.532084
0.53208
0.532076
0.532073
0.532069
0.532065
0.532061
0.532058
0.532054
0.53205
0.532046
0.532043
0.532039
0.532035
0.532031
0.532028
0.532024
0.53202
0.532016
0.532013
0.532009
0.532005
0.532001
0.531997
0.531994
0.53199
0.531986
0.531982
0.531978
0.531975
0.531971
0.531967
0.531963
0.531959
0.531955
0.531952
0.531948
0.531944
0.53194
0.531936
0.531932
0.531929
0.531925
0.531921
0.531917
0.531913
0.531909
0.531905
0.531901
0.531898
0.531894
0.53189
0.531886
0.531882
0.531878
0.531874
0.53187
0.531866
0.531863
0.531859
0.531855
0.531851
0.531847
0.531843
0.531839
0.531835
0.531831
0.531827
0.531823
0.531819
0.531815
0.531811
0.531808
0.531804
0.5318
0.531796
0.531792
0.531788
0.531784
0.53178
0.531776
0.531772
0.531768
0.531764
0.53176
0.531756
0.531752
0.531748
0.531744
0.53174
0.531736
0.531732
0.531728
0.531724
0.53172
0.531716
0.531712
0.531708
0.531704
0.5317
0.531696
0.531692
0.531687
0.531683
0.531679
0.531675
0.531671
0.531667
0.531663
0.531659
0.531655
0.531651
0.531647
0.531643
0.531639
0.531635
0.531631
0.531626
0.531622
0.531618
0.531614
0.53161
0.531606
0.531602
0.531598
0.531594
0.531589
0.531585
0.531581
0.531577
0.531573
0.531569
0.531565
0.53156
0.531556
0.531552
0.531548
0.531544
0.53154
0.531536
0.531531
0.531527
0.531523
0.531519
0.531515
0.53151
0.531506
0.531502
0.531498
0.531494
0.53149
0.531485
0.531481
0.531477
0.531473
0.531468
0.531464
0.53146
0.531456
0.531452
0.531447
0.531443
0.531439
0.531435
0.53143
0.531426
0.531422
0.531418
0.531413
0.531409
0.531405
0.531401
0.531396
0.531392
0.531388
0.531383
0.531379
0.531375
0.531371
0.531366
0.531362
0.531358
0.531353
0.531349
0.531345
0.53134
0.531336
0.531332
0.531328
0.531323
0.531319
0.531315
0.53131
0.531306
0.531302
0.531297
0.531293
0.531288
0.531284
0.53128
0.531275
0.531271
0.531267
0.531262
0.531258
0.531254
0.531249
0.531245
0.53124
0.531236
0.531232
0.531227
0.531223
0.531218
0.531214
0.53121
0.531205
0.531201
0.531196
0.531192
0.531188
0.531183
0.531179
0.531174
0.53117
0.531165
0.531161
0.531156
0.531152
0.531148
0.531143
0.531139
0.531134
0.53113
0.531125
0.531121
0.531116
0.531112
0.531107
0.531103
0.531098
0.531094
0.531089
0.531085
0.53108
0.531076
0.531071
0.531067
0.531062
0.531058
0.531053
0.531049
0.531044
0.53104
0.531035
0.531031
0.531026
0.531022
0.531017
0.531013
0.531008
0.531003
0.530999
0.530994
0.53099
0.530985
0.530981
0.530976
0.530971
0.530967
0.530962
0.530958
0.530953
0.530948
0.530944
0.530939
0.530935
0.53093
0.530925
0.530921
0.530916
0.530912
0.530907
0.530902
0.530898
0.530893
0.530888
0.530884
0.530879
0.530875
0.53087
0.530865
0.530861
0.530856
0.530851
0.530847
0.530842
0.530837
0.530833
0.530828
0.530823
0.530818
0.530814
0.530809
0.530804
0.5308
0.530795
0.53079
0.530786
0.530781
0.530776
0.530771
0.530767
0.530762
0.530757
0.530753
0.530748
0.530743
0.530738
0.530734
0.530729
0.530724
0.530719
0.530715
0.53071
0.530705
0.5307
0.530696
0.530691
0.530686
0.530681
0.530676
0.530672
0.530667
0.530662
0.530657
0.530652
0.530648
0.530643
0.530638
0.530633
0.530628
0.530624
0.530619
0.530614
0.530609
0.530604
0.530599
0.530595
0.53059
0.530585
0.53058
0.530575
0.53057
0.530566
0.530561
0.530556
0.530551
0.530546
0.530541
0.530536
0.530531
0.530527
0.530522
0.530517
0.530512
0.530507
0.530502
0.530497
0.530492
0.530487
0.530482
0.530478
0.530473
0.530468
0.530463
0.530458
0.530453
0.530448
0.530443
0.530438
0.530433
0.530428
0.530423
0.530418
0.530413
0.530408
0.530403
0.530398
0.530393
0.530388
0.530384
0.530379
0.530374
0.530369
0.530364
0.530359
0.530354
0.530349
0.530344
0.530339
0.530334
0.530329
0.530324
0.530318
0.530313
0.530308
0.530303
0.530298
0.530293
0.530288
0.530283
0.530278
0.530273
0.530268
0.530263
0.530258
0.530253
0.530248
0.530243
0.530238
0.530233
0.530228
0.530222
0.530217
0.530212
0.530207
0.530202
0.530197
0.530192
0.530187
0.530182
0.530177
0.530171
0.530166
0.530161
0.530156
0.530151
0.530146
0.530141
0.530136
0.53013
0.530125
0.53012
0.530115
0.53011
0.530105
0.5301
0.530094
0.530089
0.530084
0.530079
0.530074
0.530068
0.530063
0.530058
0.530053
0.530048
0.530043
0.530037
0.530032
0.530027
0.530022
0.530016
0.530011
0.530006
0.530001
0.529996
0.52999
0.529985
0.52998
0.529975
0.529969
0.529964
0.529959
0.529954
0.529948
0.529943
0.529938
0.529933
0.529927
0.529922
0.529917
0.529912
0.529906
0.529901
0.529896
0.52989
0.529885
0.52988
0.529874
0.529869
0.529864
0.529859
0.529853
0.529848
0.529843
0.529837
0.529832
0.529827
0.529821
0.529816
0.529811
0.529805
0.5298
0.529795
0.529789
0.529784
0.529778
0.529773
0.529768
0.529762
0.529757
0.529752
0.529746
0.529741
0.529735
0.52973
0.529725
0.529719
0.529714
0.529708
0.529703
0.529698
0.529692
0.529687
0.529681
0.529676
0.52967
0.529665
0.52966
0.529654
0.529649
0.529643
0.529638
0.529632
0.529627
0.529621
0.529616
0.529611
0.529605
0.5296
0.529594
0.529589
0.529583
0.529578
0.529572
0.529567
0.529561
0.529556
0.52955
0.529545
0.529539
0.529534
0.529528
0.529523
0.529517
0.529512
0.529506
0.529501
0.529495
0.529489
0.529484
0.529478
0.529473
0.529467
0.529462
0.529456
0.529451
0.529445
0.52944
0.529434
0.529428
0.529423
0.529417
0.529412
0.529406
0.5294
0.529395
0.529389
0.529384
0.529378
0.529372
0.529367
0.529361
0.529356
0.52935
0.529344
0.529339
0.529333
0.529327
0.529322
0.529316
0.529311
0.529305
0.529299
0.529294
0.529288
0.529282
0.529277
0.529271
0.529265
0.52926
0.529254
0.529248
0.529243
0.529237
0.529231
0.529225
0.52922
0.529214
0.529208
0.529203
0.529197
0.529191
0.529186
0.52918
0.529174
0.529168
0.529163
0.529157
0.529151
0.529145
0.52914
0.529134
0.529128
0.529122
0.529117
0.529111
0.529105
0.529099
0.529094
0.529088
0.529082
0.529076
0.52907
0.529065
0.529059
0.529053
0.529047
0.529042
0.529036
0.52903
0.529024
0.529018
0.529012
0.529007
0.529001
0.528995
0.528989
0.528983
0.528977
0.528972
0.528966
0.52896
0.528954
0.528948
0.528942
0.528937
0.528931
0.528925
0.528919
0.528913
0.528907
0.528901
0.528895
0.52889
0.528884
0.528878
0.528872
0.528866
0.52886
0.528854
0.528848
0.528842
0.528836
0.52883
0.528825
0.528819
0.528813
0.528807
0.528801
0.528795
0.528789
0.528783
0.528777
0.528771
0.528765
0.528759
0.528753
0.528747
0.528741
0.528735
0.528729
0.528723
0.528717
0.528711
0.528705
0.528699
0.528693
0.528687
0.528681
0.528675
0.528669
0.528663
0.528657
0.528651
0.528645
0.528639
0.528633
0.528627
0.528621
0.528615
0.528609
0.528603
0.528597
0.528591
0.528585
0.528579
0.528573
0.528567
0.528561
0.528554
0.528548
0.528542
0.528536
0.52853
0.528524
0.528518
0.528512
0.528506
0.5285
0.528494
0.528487
0.528481
0.528475
0.528469
0.528463
0.528457
0.528451
0.528445
0.528438
0.528432
0.528426
0.52842
0.528414
0.528408
0.528401
0.528395
0.528389
0.528383
0.528377
0.528371
0.528364
0.528358
0.528352
0.528346
0.52834
0.528333
0.528327
0.528321
0.528315
0.528309
0.528302
0.528296
0.52829
0.528284
0.528278
0.528271
0.528265
0.528259
0.528253
0.528246
0.52824
0.528234
0.528228
0.528221
0.528215
0.528209
0.528203
0.528196
0.52819
0.528184
0.528177
0.528171
0.528165
0.528159
0.528152
0.528146
0.52814
0.528133
0.528127
0.528121
0.528114
0.528108
0.528102
0.528096
0.528089
0.528083
0.528077
0.52807
0.528064
0.528057
0.528051
0.528045
0.528038
0.528032
0.528026
0.528019
0.528013
0.528007
0.528
0.527994
0.527987
0.527981
0.527975
0.527968
0.527962
0.527956
0.527949
0.527943
0.527936
0.52793
0.527923
0.527917
0.527911
0.527904
0.527898
0.527891
0.527885
0.527878
0.527872
0.527866
0.527859
0.527853
0.527846
0.52784
0.527833
0.527827
0.52782
0.527814
0.527807
0.527801
0.527794
0.527788
0.527781
0.527775
0.527768
0.527762
0.527755
0.527749
0.527742
0.527736
0.527729
0.527723
0.527716
0.52771
0.527703
0.527697
0.52769
0.527684
0.527677
0.527671
0.527664
0.527657
0.527651
0.527644
0.527638
0.527631
0.527625
0.527618
0.527611
0.527605
0.527598
0.527592
0.527585
0.527579
0.527572
0.527565
0.527559
0.527552
0.527546
0.527539
0.527532
0.527526
0.527519
0.527512
0.527506
0.527499
0.527492
0.527486
0.527479
0.527473
0.527466
0.527459
0.527453
0.527446
0.527439
0.527433
0.527426
0.527419
0.527413
0.527406
0.527399
0.527392
0.527386
0.527379
0.527372
0.527366
0.527359
0.527352
0.527346
0.527339
0.527332
0.527325
0.527319
0.527312
0.527305
0.527298
0.527292
0.527285
0.527278
0.527271
0.527265
0.527258
0.527251
0.527244
0.527238
0.527231
0.527224
0.527217
0.527211
0.527204
0.527197
0.52719
0.527183
0.527177
0.52717
0.527163
0.527156
0.527149
0.527142
0.527136
0.527129
0.527122
0.527115
0.527108
0.527102
0.527095
0.527088
0.527081
0.527074
0.527067
0.52706
0.527054
0.527047
0.52704
0.527033
0.527026
0.527019
0.527012
0.527005
0.526999
0.526992
0.526985
0.526978
0.526971
0.526964
0.526957
0.52695
0.526943
0.526936
0.526929
0.526923
0.526916
0.526909
0.526902
0.526895
0.526888
0.526881
0.526874
0.526867
0.52686
0.526853
0.526846
0.526839
0.526832
0.526825
0.526818
0.526811
0.526804
0.526797
0.52679
0.526783
0.526776
0.526769
0.526762
0.526755
0.526748
0.526741
0.526734
0.526727
0.52672
0.526713
0.526706
0.526699
0.526692
0.526685
0.526678
0.526671
0.526664
0.526657
0.52665
0.526643
0.526636
0.526629
0.526621
0.526614
0.526607
0.5266
0.526593
0.526586
0.526579
0.526572
0.526565
0.526558
0.526551
0.526543
0.526536
0.526529
0.526522
0.526515
0.526508
0.526501
0.526494
0.526486
0.526479
0.526472
0.526465
0.526458
0.526451
0.526443
0.526436
0.526429
0.526422
0.526415
0.526408
0.5264
0.526393
0.526386
0.526379
0.526372
0.526364
0.526357
0.52635
0.526343
0.526336
0.526328
0.526321
0.526314
0.526307
0.5263
0.526292
0.526285
0.526278
0.526271
0.526263
0.526256
0.526249
0.526242
0.526234
0.526227
0.52622
0.526213
0.526205
0.526198
0.526191
0.526183
0.526176
0.526169
0.526162
0.526154
0.526147
0.52614
0.526132
0.526125
0.526118
0.52611
0.526103
0.526096
0.526088
0.526081
0.526074
0.526066
0.526059
0.526052
0.526044
0.526037
0.52603
0.526022
0.526015
0.526008
0.526
0.525993
0.525985
0.525978
0.525971
0.525963
0.525956
0.525948
0.525941
0.525934
0.525926
0.525919
0.525911
0.525904
0.525897
0.525889
0.525882
0.525874
0.525867
0.525859
0.525852
0.525845
0.525837
0.52583
0.525822
0.525815
0.525807
0.5258
0.525792
0.525785
0.525777
0.52577
0.525762
0.525755
0.525747
0.52574
0.525732
0.525725
0.525717
0.52571
0.525702
0.525695
0.525687
0.52568
0.525672
0.525665
0.525657
0.52565
0.525642
0.525635
0.525627
0.52562
0.525612
0.525605
0.525597
0.525589
0.525582
0.525574
0.525567
0.525559
0.525552
0.525544
0.525536
0.525529
0.525521
0.525514
0.525506
0.525498
0.525491
0.525483
0.525476
0.525468
0.52546
0.525453
0.525445
0.525438
0.52543
0.525422
0.525415
0.525407
0.525399
0.525392
0.525384
0.525376
0.525369
0.525361
0.525353
0.525346
0.525338
0.52533
0.525323
0.525315
0.525307
0.5253
0.525292
0.525284
0.525276
0.525269
0.525261
0.525253
0.525246
0.525238
0.52523
0.525222
0.525215
0.525207
0.525199
0.525191
0.525184
0.525176
0.525168
0.52516
0.525153
0.525145
0.525137
0.525129
0.525122
0.525114
0.525106
0.525098
0.525091
0.525083
0.525075
0.525067
0.525059
0.525052
0.525044
0.525036
0.525028
0.52502
0.525012
0.525005
0.524997
0.524989
0.524981
0.524973
0.524965
0.524958
0.52495
0.524942
0.524934
0.524926
0.524918
0.524911
0.524902
0.524895
0.524887
0.524879
0.524871
0.524864
0.524855
0.524848
0.524839
0.524832
0.524823
0.524816
0.524807
0.5248
0.524791
0.524785
0.524776
0.524769
0.52476
0.524753
0.524744
0.524737
0.524728
0.524721
0.524712
0.524705
0.524696
0.524689
0.52468
0.524673
0.524664
0.524657
0.524648
0.524641
0.524633
0.524625
0.524617
0.524609
0.524601
0.524593
0.524585
0.524576
0.524569
0.52456
0.524553
0.524544
0.524537
0.524529
0.524521
0.524513
0.524504
0.524497
0.524488
0.524481
0.524472
0.524465
0.524456
0.524448
0.52444
0.524432
0.524424
0.524415
0.524408
0.524399
0.524392
0.524383
0.524376
0.524367
0.524359
0.524351
0.524342
0.524335
0.524326
0.524319
0.52431
0.524302
0.524294
0.524286
0.524278
0.524269
0.524262
0.524253
0.524245
0.524237
0.524229
0.524221
0.524212
0.524205
0.524196
0.524188
0.52418
0.524172
0.524164
0.524155
0.524148
0.524138
0.524131
0.524122
0.524114
0.524106
0.524097
0.52409
0.524081
0.524073
0.524065
0.524056
0.524049
0.52404
0.524032
0.524023
0.524016
0.524007
0.523999
0.523991
0.523982
0.523974
0.523965
0.523957
0.523949
0.52394
0.523933
0.523924
0.523916
0.523908
0.523899
0.523892
0.523882
0.523875
0.523866
0.523858
0.52385
0.523841
0.523833
0.523824
0.523816
0.523808
0.523799
0.523792
0.523782
0.523775
0.523766
0.523757
0.52375
0.52374
0.523733
0.523724
0.523716
0.523708
0.523698
0.523691
0.523682
0.523674
0.523665
0.523657
0.523649
0.52364
0.523632
0.523623
0.523615
0.523607
0.523597
0.52359
0.523581
0.523572
0.523565
0.523555
0.523548
0.523539
0.52353
0.523522
0.523513
0.523505
0.523496
0.523488
0.52348
0.52347
0.523463
0.523454
0.523445
0.523437
0.523428
0.523421
0.523411
0.523403
0.523395
0.523385
0.523378
0.523369
0.52336
0.523352
0.523343
0.523335
0.523326
0.523317
0.52331
0.5233
0.523292
0.523283
0.523275
0.523267
0.523257
0.52325
0.523241
0.523232
0.523224
0.523214
0.523206
0.523198
0.523189
0.523181
0.523171
0.523163
0.523155
0.523145
0.523138
0.523128
0.52312
0.523112
0.523102
0.523095
0.523085
0.523077
0.523069
0.523059
0.523051
0.523042
0.523033
0.523025
0.523016
0.523008
0.522999
0.52299
0.522982
0.522972
0.522964
0.522956
0.522946
0.522938
0.522929
0.52292
0.522912
0.522903
0.522894
0.522886
0.522876
0.522869
0.522859
0.52285
0.522842
0.522833
0.522825
0.522816
0.522806
0.522799
0.522789
0.522781
0.522772
0.522763
0.522755
0.522745
0.522736
0.522728
0.522719
0.52271
0.522702
0.522692
0.522684
0.522675
0.522666
0.522658
0.522648
0.52264
0.522631
0.522622
0.522614
0.522604
0.522595
0.522587
0.522577
0.522569
0.52256
0.522551
0.522543
0.522533
0.522524
0.522516
0.522507
0.522498
0.522489
0.52248
0.522472
0.522462
0.522453
0.522445
0.522435
0.522427
0.522418
0.522409
0.5224
0.522391
0.522382
0.522374
0.522364
0.522355
0.522347
0.522337
0.522329
0.52232
0.52231
0.522302
0.522293
0.522284
0.522275
0.522265
0.522257
0.522248
0.522238
0.52223
0.522221
0.522212
0.522203
0.522194
0.522185
0.522176
0.522166
0.522158
0.522149
0.522139
0.522131
0.522122
0.522112
0.522104
0.522094
0.522085
0.522077
0.522067
0.522058
0.522049
0.52204
0.522031
0.522022
0.522013
0.522004
0.521995
0.521985
0.521977
0.521967
0.521958
0.521949
0.52194
0.521931
0.521922
0.521913
0.521904
0.521894
0.521885
0.521876
0.521867
0.521858
0.521849
0.521839
0.521831
0.521821
0.521812
0.521803
0.521794
0.521785
0.521776
0.521766
0.521757
0.521748
0.521739
0.52173
0.521721
0.521711
0.521702
0.521693
0.521683
0.521674
0.521665
0.521656
0.521647
0.521637
0.521628
0.521619
0.52161
0.5216
0.521591
0.521582
0.521573
0.521564
0.521554
0.521545
0.521536
0.521526
0.521517
0.521508
0.521498
0.521489
0.52148
0.521471
0.521462
0.521452
0.521443
0.521434
0.521424
0.521415
0.521406
0.521396
0.521387
0.521378
0.521368
0.521359
0.52135
0.52134
0.521331
0.521322
0.521312
0.521303
0.521293
0.521284
0.521275
0.521265
0.521256
0.521247
0.521237
0.521228
0.521219
0.521209
0.5212
0.52119
0.521181
0.521172
0.521162
0.521153
0.521143
0.521134
0.521124
0.521115
0.521106
0.521096
0.521087
0.521077
0.521068
0.521058
0.521049
0.521039
0.52103
0.52102
0.521011
0.521002
0.520992
0.520983
0.520973
0.520964
0.520954
0.520945
0.520935
0.520926
0.520916
0.520907
0.520897
0.520888
0.520878
0.520869
0.520859
0.520849
0.52084
0.52083
0.520821
0.520811
0.520802
0.520792
0.520783
0.520773
0.520763
0.520754
0.520744
0.520735
0.520725
0.520716
0.520706
0.520696
0.520687
0.520677
0.520668
0.520658
0.520648
0.520639
0.520629
0.52062
0.52061
0.5206
0.520591
0.520581
0.520571
0.520562
0.520552
0.520542
0.520533
0.520523
0.520513
0.520504
0.520494
0.520484
0.520475
0.520465
0.520455
0.520446
0.520436
0.520426
0.520417
0.520407
0.520397
0.520388
0.520378
0.520368
0.520358
0.520349
0.520339
0.520329
0.52032
0.52031
0.5203
0.52029
0.520281
0.520271
0.520261
0.520251
0.520242
0.520232
0.520222
0.520212
0.520203
0.520193
0.520183
0.520173
0.520163
0.520153
0.520144
0.520134
0.520124
0.520114
0.520104
0.520095
0.520085
0.520075
0.520065
0.520055
0.520046
0.520036
0.520026
0.520016
0.520006
0.519996
0.519986
0.519977
0.519967
0.519957
0.519947
0.519937
0.519927
0.519917
0.519907
0.519898
0.519888
0.519878
0.519868
0.519858
0.519848
0.519838
0.519828
0.519818
0.519808
0.519798
0.519789
0.519779
0.519769
0.519759
0.519749
0.519739
0.519729
0.519719
0.519709
0.519699
0.519689
0.519679
0.519669
0.519659
0.519649
0.519639
0.519629
0.519619
0.519609
0.519599
0.519589
0.519579
0.519569
0.519559
0.519549
0.519539
0.519529
0.519519
0.519509
0.519499
0.519489
0.519479
0.519469
0.519459
0.519449
0.519439
0.519428
0.519418
0.519408
0.519398
0.519388
0.519378
0.519368
0.519358
0.519348
0.519338
0.519328
0.519318
0.519307
0.519297
0.519287
0.519277
0.519267
0.519257
0.519247
0.519237
0.519226
0.519216
0.519206
0.519196
0.519186
0.519176
0.519165
0.519155
0.519145
0.519135
0.519125
0.519115
0.519104
0.519094
0.519084
0.519074
0.519064
0.519053
0.519043
0.519033
0.519023
0.519013
0.519002
0.518992
0.518982
0.518972
0.518962
0.518951
0.518941
0.518931
0.518921
0.51891
0.5189
0.51889
0.518879
0.518869
0.518859
0.518849
0.518838
0.518828
0.518818
0.518807
0.518797
0.518787
0.518777
0.518766
0.518756
0.518746
0.518735
0.518725
0.518715
0.518704
0.518694
0.518684
0.518673
0.518663
0.518653
0.518642
0.518632
0.518622
0.518611
0.518601
0.518591
0.51858
0.51857
0.518559
0.518549
0.518539
0.518528
0.518518
0.518507
0.518497
0.518487
0.518476
0.518466
0.518455
0.518445
0.518435
0.518424
0.518414
0.518403
0.518393
0.518382
0.518372
0.518361
0.518351
0.51834
0.51833
0.51832
0.518309
0.518299
0.518288
0.518278
0.518267
0.518257
0.518246
0.518236
0.518225
0.518215
0.518204
0.518194
0.518183
0.518173
0.518162
0.518152
0.518141
0.51813
0.51812
0.518109
0.518099
0.518088
0.518078
0.518067
0.518057
0.518046
0.518035
0.518025
0.518014
0.518004
0.517993
0.517982
0.517972
0.517961
0.517951
0.51794
0.517929
0.517919
0.517908
0.517897
0.517887
0.517876
0.517866
0.517855
0.517844
0.517834
0.517823
0.517812
0.517802
0.517791
0.51778
0.51777
0.517759
0.517748
0.517738
0.517727
0.517716
0.517706
0.517695
0.517684
0.517674
0.517663
0.517652
0.517642
0.517631
0.51762
0.517609
0.517599
0.517588
0.517577
0.517566
0.517556
0.517545
0.517534
0.517523
0.517513
0.517502
0.517491
0.51748
0.51747
0.517459
0.517448
0.517437
0.517426
0.517416
0.517405
0.517394
0.517383
0.517372
0.517362
0.517351
0.51734
0.517329
0.517318
0.517307
0.517297
0.517286
0.517275
0.517264
0.517253
0.517242
0.517232
0.517221
0.51721
0.517199
0.517188
0.517177
0.517166
0.517155
0.517145
0.517134
0.517123
0.517112
0.517101
0.51709
0.517079
0.517068
0.517057
0.517046
0.517035
0.517024
0.517014
0.517003
0.516992
0.516981
0.51697
0.516959
0.516948
0.516937
0.516926
0.516915
0.516904
0.516893
0.516882
0.516871
0.51686
0.516849
0.516838
0.516827
0.516816
0.516805
0.516794
0.516783
0.516772
0.516761
0.51675
0.516739
0.516728
0.516717
0.516706
0.516695
0.516684
0.516672
0.516661
0.51665
0.516639
0.516628
0.516617
0.516606
0.516595
0.516584
0.516573
0.516562
0.516551
0.516539
0.516528
0.516517
0.516506
0.516495
0.516484
0.516473
0.516462
0.51645
0.516439
0.516428
0.516417
0.516406
0.516395
0.516383
0.516372
0.516361
0.51635
0.516339
0.516328
0.516316
0.516305
0.516294
0.516283
0.516272
0.51626
0.516249
0.516238
0.516227
0.516216
0.516204
0.516193
0.516182
0.516171
0.516159
0.516148
0.516137
0.516126
0.516114
0.516103
0.516092
0.51608
0.516069
0.516058
0.516047
0.516035
0.516024
0.516013
0.516001
0.51599
0.515979
0.515968
0.515956
0.515945
0.515934
0.515922
0.515911
0.5159
0.515888
0.515877
0.515866
0.515854
0.515843
0.515831
0.51582
0.515809
0.515797
0.515786
0.515775
0.515763
0.515752
0.51574
0.515729
0.515718
0.515706
0.515695
0.515683
0.515672
0.51566
0.515649
0.515638
0.515626
0.515615
0.515603
0.515592
0.51558
0.515569
0.515557
0.515546
0.515535
0.515523
0.515512
0.5155
0.515489
0.515477
0.515466
0.515454
0.515443
0.515431
0.51542
0.515408
0.515397
0.515385
0.515374
0.515362
0.51535
0.515339
0.515327
0.515316
0.515304
0.515293
0.515281
0.51527
0.515258
0.515246
0.515235
0.515223
0.515212
0.5152
0.515188
0.515177
0.515165
0.515154
0.515142
0.51513
0.515119
0.515107
0.515096
0.515084
0.515072
0.515061
0.515049
0.515037
0.515026
0.515014
0.515002
0.514991
0.514979
0.514967
0.514956
0.514944
0.514932
0.514921
0.514909
0.514897
0.514885
0.514874
0.514862
0.51485
0.514838
0.514827
0.514815
0.514803
0.514792
0.51478
0.514768
0.514756
0.514745
0.514733
0.514721
0.514709
0.514697
0.514686
0.514674
0.514662
0.51465
0.514638
0.514627
0.514615
0.514603
0.514591
0.514579
0.514568
0.514556
0.514544
0.514532
0.51452
0.514508
0.514496
0.514485
0.514473
0.514461
0.514449
0.514437
0.514425
0.514413
0.514401
0.51439
0.514378
0.514366
0.514354
0.514342
0.51433
0.514318
0.514306
0.514294
0.514282
0.51427
0.514258
0.514246
0.514234
0.514222
0.51421
0.514199
0.514187
0.514175
0.514163
0.514151
0.514139
0.514127
0.514115
0.514103
0.514091
0.514079
0.514066
0.514054
0.514042
0.51403
0.514018
0.514006
0.513994
0.513982
0.51397
0.513958
0.513946
0.513934
0.513922
0.51391
0.513898
0.513886
0.513873
0.513861
0.513849
0.513837
0.513825
0.513813
0.513801
0.513789
0.513776
0.513764
0.513752
0.51374
0.513728
0.513716
0.513703
0.513691
0.513679
0.513667
0.513655
0.513643
0.51363
0.513618
0.513606
0.513594
0.513581
0.513569
0.513557
0.513545
0.513533
0.51352
0.513508
0.513496
0.513484
0.513471
0.513459
0.513447
0.513434
0.513422
0.51341
0.513398
0.513385
0.513373
0.513361
0.513348
0.513336
0.513324
0.513311
0.513299
0.513287
0.513274
0.513262
0.51325
0.513237
0.513225
0.513212
0.5132
0.513188
0.513175
0.513163
0.51315
0.513138
0.513126
0.513113
0.513101
0.513088
0.513076
0.513063
0.513051
0.513039
0.513026
0.513014
0.513001
0.512989
0.512976
0.512964
0.512951
0.512939
0.512926
0.512914
0.512901
0.512889
0.512876
0.512864
0.512851
0.512839
0.512826
0.512813
0.512801
0.512788
0.512776
0.512763
0.512751
0.512738
0.512725
0.512713
0.5127
0.512688
0.512675
0.512662
0.51265
0.512637
0.512624
0.512612
0.512599
0.512586
0.512574
0.512561
0.512548
0.512536
0.512523
0.51251
0.512498
0.512485
0.512472
0.51246
0.512447
0.512434
0.512421
0.512409
0.512396
0.512383
0.51237
0.512358
0.512345
0.512332
0.512319
0.512306
0.512294
0.512281
0.512268
0.512255
0.512242
0.51223
0.512217
0.512204
0.512191
0.512178
0.512165
0.512152
0.512139
0.512127
0.512114
0.512101
0.512088
0.512075
0.512062
0.512049
0.512036
0.512023
0.51201
0.511997
0.511984
0.511971
0.511959
0.511946
0.511933
0.51192
0.511907
0.511894
0.511881
0.511868
0.511855
0.511841
0.511828
0.511815
0.511802
0.511789
0.511776
0.511763
0.51175
0.511737
0.511724
0.511711
0.511698
0.511685
0.511671
0.511658
0.511645
0.511632
0.511619
0.511606
0.511593
0.511579
0.511566
0.511553
0.51154
0.511527
0.511513
0.5115
0.511487
0.511474
0.51146
0.511447
0.511434
0.511421
0.511407
0.511394
0.511381
0.511368
0.511354
0.511341
0.511328
0.511314
0.511301
0.511288
0.511274
0.511261
0.511248
0.511234
0.511221
0.511207
0.511194
0.511181
0.511167
0.511154
0.51114
0.511127
0.511113
0.5111
0.511086
0.511073
0.511059
0.511046
0.511032
0.511019
0.511005
0.510992
0.510978
0.510965
0.510951
0.510938
0.510924
0.510911
0.510897
0.510883
0.51087
0.510856
0.510842
0.510829
0.510815
0.510801
0.510788
0.510774
0.51076
0.510747
0.510733
0.510719
0.510706
0.510692
0.510678
0.510664
0.510651
0.510637
0.510623
0.510609
0.510595
0.510581
0.510568
0.510554
0.51054
0.510526
0.510512
0.510498
0.510484
0.51047
0.510456
0.510442
0.510429
0.510415
0.510401
0.510387
0.510373
0.510359
0.510344
0.51033
0.510316
0.510302
0.510288
0.510274
0.51026
0.510246
0.510232
0.510218
0.510203
0.510189
0.510175
0.510161
0.510146
0.510132
0.510118
0.510104
0.510089
0.510075
0.510061
0.510046
0.510032
0.510018
0.510003
0.509989
0.509974
0.50996
0.509945
0.509931
0.509916
0.509902
0.509887
0.509873
0.509858
0.509843
0.509829
0.509814
0.509799
0.509785
0.50977
0.509755
0.50974
0.509726
0.509711
0.509696
0.509681
0.509666
0.509651
0.509636
0.509621
0.509606
0.509591
0.509576
0.509561
0.509546
0.509531
0.509515
0.5095
0.509485
0.50947
0.509454
0.509439
0.509423
0.509408
0.509392
0.509377
0.509361
0.509346
0.50933
0.509314
0.509299
0.509283
0.509267
0.509251
0.509235
0.509219
0.509203
0.509187
0.509171
0.509155
0.509138
0.509122
0.509106
0.509089
0.509073
0.509056
0.509039
0.509023
0.509006
0.508989
0.508972
0.508955
0.508938
0.50892
0.508903
0.508886
0.508868
0.508851
0.508833
0.508815
0.508797
0.508779
0.508761
0.508743
0.508725
0.508706
0.508687
0.508669
0.50865
0.508631
0.508612
0.508592
0.508573
0.508553
0.508533
0.508513
0.508493
0.508473
0.508452
0.508431
0.508411
0.508389
0.508368
0.508346
0.508325
0.508303
0.50828
0.508258
0.508235
0.508212
0.508189
0.508165
0.508142
0.508117
0.508093
0.508068
0.508043
0.508018
0.507992
0.507966
0.50794
0.507913
0.507886
0.507859
0.507831
0.507803
0.507774
0.507745
0.507716
0.507686
0.507656
0.507625
0.507594
0.507563
0.507531
0.507499
0.507466
0.507432
0.507399
0.507364
0.50733
0.507294
0.507259
0.507222
0.507186
0.507149
0.507111
0.507073
0.507034
0.506995
0.506955
0.506914
0.506874
0.506832
0.50679
0.506748
0.506705
0.506662
0.506618
0.506573
0.506528
0.506483
0.506437
0.50639
0.506343
0.506295
0.506247
0.506199
0.50615
0.5061
0.50605
0.506
0.505949
0.505898
0.505846
0.505794
0.505741
0.505688
0.505634
0.505581
0.505526
0.505472
0.505417
0.505361
0.505305
0.505249
0.505193
0.505136
0.505079
0.505021
0.504964
0.504906
0.504847
0.504789
0.50473
0.504671
0.504612
0.504552
0.504492
0.504432
0.504372
0.504312
0.504251
0.50419
0.504129
0.504068
0.504007
0.503945
0.503884
0.503822
0.50376
0.503698
0.503636
0.503574
0.503512
0.503449
0.503387
0.503324
0.503261
0.503199
0.503136
0.503073
0.50301
0.502947
0.502884
0.502821
0.502757
0.502694
0.502631
0.502568
0.502504
0.502441
0.502377
0.502314
0.502251
0.502187
0.502124
0.50206
0.501996
0.501933
0.501869
0.501806
0.501742
0.501678
0.501615
0.501551
0.501487
0.501424
0.50136
0.501296
0.501233
0.501169
0.501105
0.501042
0.500978