/*--------------------------------*- C++ -*----------------------------------*\
  =========                 |
  \\      /  F ield         | OpenFOAM: The Open Source CFD Toolbox
   \\    /   O peration     | Website:  https://openfoam.org
    \\  /    A nd           | Version:  9
     \\/     M anipulation  |
\*---------------------------------------------------------------------------*/
FoamFile
{
    format      ascii;
    class       volVectorField;
    location    "0.02";
    object      U;
}
// * * * * * * * * * * * * * * * * * * * * * * * * * * * * * * * * * * * * * //

dimensions      [0 1 -1 0 0 0 0];

internalField   nonuniform List<vector> 
10000
(
(2.47061 0 0)
(2.58229 0 0)
(2.65704 0 0)
(2.72474 0 0)
(2.796 0 0)
(2.86908 0 0)
(2.94205 0 0)
(3.01472 0 0)
(3.08736 0 0)
(3.16006 0 0)
(3.23278 0 0)
(3.30549 0 0)
(3.37817 0 0)
(3.45083 0 0)
(3.52348 0 0)
(3.59613 0 0)
(3.66877 0 0)
(3.74142 0 0)
(3.81407 0 0)
(3.88671 0 0)
(3.95935 0 0)
(4.03199 0 0)
(4.10463 0 0)
(4.17728 0 0)
(4.24992 0 0)
(4.32257 0 0)
(4.39521 0 0)
(4.46786 0 0)
(4.54051 0 0)
(4.61315 0 0)
(4.6858 0 0)
(4.75845 0 0)
(4.8311 0 0)
(4.90375 0 0)
(4.9764 0 0)
(5.04905 0 0)
(5.1217 0 0)
(5.19435 0 0)
(5.267 0 0)
(5.33965 0 0)
(5.41231 0 0)
(5.48496 0 0)
(5.55761 0 0)
(5.63027 0 0)
(5.70292 0 0)
(5.77558 0 0)
(5.84824 0 0)
(5.92089 0 0)
(5.99355 0 0)
(6.06621 0 0)
(6.13887 0 0)
(6.21153 0 0)
(6.28419 0 0)
(6.35685 0 0)
(6.42951 0 0)
(6.50217 0 0)
(6.57483 0 0)
(6.64749 0 0)
(6.72015 0 0)
(6.79282 0 0)
(6.86548 0 0)
(6.93815 0 0)
(7.01081 0 0)
(7.08348 0 0)
(7.15614 0 0)
(7.22881 0 0)
(7.30148 0 0)
(7.37415 0 0)
(7.44681 0 0)
(7.51948 0 0)
(7.59215 0 0)
(7.66482 0 0)
(7.73749 0 0)
(7.81017 0 0)
(7.88284 0 0)
(7.95551 0 0)
(8.02818 0 0)
(8.10086 0 0)
(8.17353 0 0)
(8.2462 0 0)
(8.31888 0 0)
(8.39155 0 0)
(8.46423 0 0)
(8.53691 0 0)
(8.60959 0 0)
(8.68226 0 0)
(8.75494 0 0)
(8.82762 0 0)
(8.9003 0 0)
(8.97298 0 0)
(9.04566 0 0)
(9.11834 0 0)
(9.19102 0 0)
(9.26371 0 0)
(9.33639 0 0)
(9.40907 0 0)
(9.48176 0 0)
(9.55444 0 0)
(9.62713 0 0)
(9.69981 0 0)
(9.7725 0 0)
(9.84518 0 0)
(9.91787 0 0)
(9.99056 0 0)
(10.0632 0 0)
(10.1359 0 0)
(10.2086 0 0)
(10.2813 0 0)
(10.354 0 0)
(10.4267 0 0)
(10.4994 0 0)
(10.5721 0 0)
(10.6448 0 0)
(10.7175 0 0)
(10.7902 0 0)
(10.8629 0 0)
(10.9356 0 0)
(11.0082 0 0)
(11.0809 0 0)
(11.1536 0 0)
(11.2263 0 0)
(11.299 0 0)
(11.3717 0 0)
(11.4444 0 0)
(11.5171 0 0)
(11.5898 0 0)
(11.6625 0 0)
(11.7352 0 0)
(11.8079 0 0)
(11.8806 0 0)
(11.9533 0 0)
(12.026 0 0)
(12.0987 0 0)
(12.1715 0 0)
(12.2442 0 0)
(12.3169 0 0)
(12.3896 0 0)
(12.4623 0 0)
(12.535 0 0)
(12.6077 0 0)
(12.6804 0 0)
(12.7531 0 0)
(12.8258 0 0)
(12.8985 0 0)
(12.9712 0 0)
(13.0439 0 0)
(13.1167 0 0)
(13.1894 0 0)
(13.2621 0 0)
(13.3348 0 0)
(13.4075 0 0)
(13.4802 0 0)
(13.5529 0 0)
(13.6257 0 0)
(13.6984 0 0)
(13.7711 0 0)
(13.8438 0 0)
(13.9165 0 0)
(13.9892 0 0)
(14.062 0 0)
(14.1347 0 0)
(14.2074 0 0)
(14.2801 0 0)
(14.3528 0 0)
(14.4256 0 0)
(14.4983 0 0)
(14.571 0 0)
(14.6437 0 0)
(14.7165 0 0)
(14.7892 0 0)
(14.8619 0 0)
(14.9346 0 0)
(15.0074 0 0)
(15.0801 0 0)
(15.1528 0 0)
(15.2255 0 0)
(15.2983 0 0)
(15.371 0 0)
(15.4437 0 0)
(15.5165 0 0)
(15.5892 0 0)
(15.6619 0 0)
(15.7346 0 0)
(15.8074 0 0)
(15.8801 0 0)
(15.9528 0 0)
(16.0256 0 0)
(16.0983 0 0)
(16.171 0 0)
(16.2438 0 0)
(16.3165 0 0)
(16.3893 0 0)
(16.462 0 0)
(16.5347 0 0)
(16.6075 0 0)
(16.6802 0 0)
(16.7529 0 0)
(16.8257 0 0)
(16.8984 0 0)
(16.9712 0 0)
(17.0439 0 0)
(17.1166 0 0)
(17.1894 0 0)
(17.2621 0 0)
(17.3349 0 0)
(17.4076 0 0)
(17.4804 0 0)
(17.5531 0 0)
(17.6259 0 0)
(17.6986 0 0)
(17.7714 0 0)
(17.8441 0 0)
(17.9168 0 0)
(17.9896 0 0)
(18.0623 0 0)
(18.1351 0 0)
(18.2078 0 0)
(18.2806 0 0)
(18.3533 0 0)
(18.4261 0 0)
(18.4989 0 0)
(18.5716 0 0)
(18.6444 0 0)
(18.7171 0 0)
(18.7899 0 0)
(18.8626 0 0)
(18.9354 0 0)
(19.0081 0 0)
(19.0809 0 0)
(19.1536 0 0)
(19.2264 0 0)
(19.2992 0 0)
(19.3719 0 0)
(19.4447 0 0)
(19.5174 0 0)
(19.5902 0 0)
(19.663 0 0)
(19.7357 0 0)
(19.8085 0 0)
(19.8813 0 0)
(19.954 0 0)
(20.0268 0 0)
(20.0995 0 0)
(20.1723 0 0)
(20.2451 0 0)
(20.3178 0 0)
(20.3906 0 0)
(20.4634 0 0)
(20.5361 0 0)
(20.6089 0 0)
(20.6817 0 0)
(20.7545 0 0)
(20.8272 0 0)
(20.9 0 0)
(20.9728 0 0)
(21.0455 0 0)
(21.1183 0 0)
(21.1911 0 0)
(21.2639 0 0)
(21.3366 0 0)
(21.4094 0 0)
(21.4822 0 0)
(21.555 0 0)
(21.6277 0 0)
(21.7005 0 0)
(21.7733 0 0)
(21.8461 0 0)
(21.9188 0 0)
(21.9916 0 0)
(22.0644 0 0)
(22.1372 0 0)
(22.21 0 0)
(22.2827 0 0)
(22.3555 0 0)
(22.4283 0 0)
(22.5011 0 0)
(22.5739 0 0)
(22.6467 0 0)
(22.7194 0 0)
(22.7922 0 0)
(22.865 0 0)
(22.9378 0 0)
(23.0106 0 0)
(23.0834 0 0)
(23.1562 0 0)
(23.2289 0 0)
(23.3017 0 0)
(23.3745 0 0)
(23.4473 0 0)
(23.5201 0 0)
(23.5929 0 0)
(23.6657 0 0)
(23.7385 0 0)
(23.8113 0 0)
(23.8841 0 0)
(23.9569 0 0)
(24.0297 0 0)
(24.1024 0 0)
(24.1752 0 0)
(24.248 0 0)
(24.3208 0 0)
(24.3936 0 0)
(24.4664 0 0)
(24.5392 0 0)
(24.612 0 0)
(24.6848 0 0)
(24.7576 0 0)
(24.8304 0 0)
(24.9032 0 0)
(24.976 0 0)
(25.0488 0 0)
(25.1216 0 0)
(25.1944 0 0)
(25.2672 0 0)
(25.34 0 0)
(25.4128 0 0)
(25.4857 0 0)
(25.5585 0 0)
(25.6313 0 0)
(25.7041 0 0)
(25.7769 0 0)
(25.8497 0 0)
(25.9225 0 0)
(25.9953 0 0)
(26.0681 0 0)
(26.1409 0 0)
(26.2137 0 0)
(26.2865 0 0)
(26.3594 0 0)
(26.4322 0 0)
(26.505 0 0)
(26.5778 0 0)
(26.6506 0 0)
(26.7234 0 0)
(26.7962 0 0)
(26.8691 0 0)
(26.9419 0 0)
(27.0147 0 0)
(27.0875 0 0)
(27.1603 0 0)
(27.2331 0 0)
(27.306 0 0)
(27.3788 0 0)
(27.4516 0 0)
(27.5244 0 0)
(27.5972 0 0)
(27.6701 0 0)
(27.7429 0 0)
(27.8157 0 0)
(27.8885 0 0)
(27.9614 0 0)
(28.0342 0 0)
(28.107 0 0)
(28.1798 0 0)
(28.2527 0 0)
(28.3255 0 0)
(28.3983 0 0)
(28.4711 0 0)
(28.544 0 0)
(28.6168 0 0)
(28.6896 0 0)
(28.7625 0 0)
(28.8353 0 0)
(28.9081 0 0)
(28.981 0 0)
(29.0538 0 0)
(29.1266 0 0)
(29.1995 0 0)
(29.2723 0 0)
(29.3451 0 0)
(29.418 0 0)
(29.4908 0 0)
(29.5636 0 0)
(29.6365 0 0)
(29.7093 0 0)
(29.7821 0 0)
(29.855 0 0)
(29.9278 0 0)
(30.0007 0 0)
(30.0735 0 0)
(30.1463 0 0)
(30.2192 0 0)
(30.292 0 0)
(30.3649 0 0)
(30.4377 0 0)
(30.5105 0 0)
(30.5834 0 0)
(30.6562 0 0)
(30.7291 0 0)
(30.8019 0 0)
(30.8748 0 0)
(30.9476 0 0)
(31.0205 0 0)
(31.0933 0 0)
(31.1662 0 0)
(31.239 0 0)
(31.3119 0 0)
(31.3847 0 0)
(31.4576 0 0)
(31.5304 0 0)
(31.6033 0 0)
(31.6761 0 0)
(31.749 0 0)
(31.8218 0 0)
(31.8947 0 0)
(31.9675 0 0)
(32.0404 0 0)
(32.1132 0 0)
(32.1861 0 0)
(32.259 0 0)
(32.3318 0 0)
(32.4047 0 0)
(32.4775 0 0)
(32.5504 0 0)
(32.6232 0 0)
(32.6961 0 0)
(32.769 0 0)
(32.8418 0 0)
(32.9147 0 0)
(32.9875 0 0)
(33.0604 0 0)
(33.1333 0 0)
(33.2061 0 0)
(33.279 0 0)
(33.3519 0 0)
(33.4247 0 0)
(33.4976 0 0)
(33.5705 0 0)
(33.6433 0 0)
(33.7162 0 0)
(33.7891 0 0)
(33.8619 0 0)
(33.9348 0 0)
(34.0077 0 0)
(34.0805 0 0)
(34.1534 0 0)
(34.2263 0 0)
(34.2992 0 0)
(34.372 0 0)
(34.4449 0 0)
(34.5178 0 0)
(34.5906 0 0)
(34.6635 0 0)
(34.7364 0 0)
(34.8093 0 0)
(34.8821 0 0)
(34.955 0 0)
(35.0279 0 0)
(35.1008 0 0)
(35.1737 0 0)
(35.2465 0 0)
(35.3194 0 0)
(35.3923 0 0)
(35.4652 0 0)
(35.5381 0 0)
(35.6109 0 0)
(35.6838 0 0)
(35.7567 0 0)
(35.8296 0 0)
(35.9025 0 0)
(35.9754 0 0)
(36.0482 0 0)
(36.1211 0 0)
(36.194 0 0)
(36.2669 0 0)
(36.3398 0 0)
(36.4127 0 0)
(36.4856 0 0)
(36.5585 0 0)
(36.6313 0 0)
(36.7042 0 0)
(36.7771 0 0)
(36.85 0 0)
(36.9229 0 0)
(36.9958 0 0)
(37.0687 0 0)
(37.1416 0 0)
(37.2145 0 0)
(37.2874 0 0)
(37.3603 0 0)
(37.4332 0 0)
(37.5061 0 0)
(37.579 0 0)
(37.6519 0 0)
(37.7248 0 0)
(37.7976 0 0)
(37.8705 0 0)
(37.9434 0 0)
(38.0163 0 0)
(38.0892 0 0)
(38.1621 0 0)
(38.2351 0 0)
(38.308 0 0)
(38.3809 0 0)
(38.4538 0 0)
(38.5267 0 0)
(38.5996 0 0)
(38.6725 0 0)
(38.7454 0 0)
(38.8183 0 0)
(38.8912 0 0)
(38.9641 0 0)
(39.037 0 0)
(39.1099 0 0)
(39.1828 0 0)
(39.2557 0 0)
(39.3286 0 0)
(39.4016 0 0)
(39.4745 0 0)
(39.5474 0 0)
(39.6203 0 0)
(39.6932 0 0)
(39.7661 0 0)
(39.839 0 0)
(39.9119 0 0)
(39.9849 0 0)
(40.0578 0 0)
(40.1307 0 0)
(40.2036 0 0)
(40.2765 0 0)
(40.3494 0 0)
(40.4224 0 0)
(40.4953 0 0)
(40.5682 0 0)
(40.6411 0 0)
(40.714 0 0)
(40.787 0 0)
(40.8599 0 0)
(40.9328 0 0)
(41.0057 0 0)
(41.0786 0 0)
(41.1516 0 0)
(41.2245 0 0)
(41.2974 0 0)
(41.3703 0 0)
(41.4433 0 0)
(41.5162 0 0)
(41.5891 0 0)
(41.662 0 0)
(41.735 0 0)
(41.8079 0 0)
(41.8808 0 0)
(41.9538 0 0)
(42.0267 0 0)
(42.0996 0 0)
(42.1726 0 0)
(42.2455 0 0)
(42.3184 0 0)
(42.3914 0 0)
(42.4643 0 0)
(42.5372 0 0)
(42.6102 0 0)
(42.6831 0 0)
(42.756 0 0)
(42.829 0 0)
(42.9019 0 0)
(42.9748 0 0)
(43.0478 0 0)
(43.1207 0 0)
(43.1937 0 0)
(43.2666 0 0)
(43.3395 0 0)
(43.4125 0 0)
(43.4854 0 0)
(43.5584 0 0)
(43.6313 0 0)
(43.7042 0 0)
(43.7772 0 0)
(43.8501 0 0)
(43.9231 0 0)
(43.996 0 0)
(44.069 0 0)
(44.1419 0 0)
(44.2149 0 0)
(44.2878 0 0)
(44.3608 0 0)
(44.4337 0 0)
(44.5067 0 0)
(44.5796 0 0)
(44.6526 0 0)
(44.7255 0 0)
(44.7985 0 0)
(44.8714 0 0)
(44.9444 0 0)
(45.0173 0 0)
(45.0903 0 0)
(45.1632 0 0)
(45.2362 0 0)
(45.3091 0 0)
(45.3821 0 0)
(45.455 0 0)
(45.528 0 0)
(45.601 0 0)
(45.6739 0 0)
(45.7469 0 0)
(45.8198 0 0)
(45.8928 0 0)
(45.9658 0 0)
(46.0387 0 0)
(46.1117 0 0)
(46.1846 0 0)
(46.2576 0 0)
(46.3306 0 0)
(46.4035 0 0)
(46.4765 0 0)
(46.5495 0 0)
(46.6224 0 0)
(46.6954 0 0)
(46.7683 0 0)
(46.8413 0 0)
(46.9143 0 0)
(46.9873 0 0)
(47.0602 0 0)
(47.1332 0 0)
(47.2062 0 0)
(47.2791 0 0)
(47.3521 0 0)
(47.4251 0 0)
(47.498 0 0)
(47.571 0 0)
(47.644 0 0)
(47.717 0 0)
(47.7899 0 0)
(47.8629 0 0)
(47.9359 0 0)
(48.0089 0 0)
(48.0818 0 0)
(48.1548 0 0)
(48.2278 0 0)
(48.3008 0 0)
(48.3737 0 0)
(48.4467 0 0)
(48.5197 0 0)
(48.5927 0 0)
(48.6657 0 0)
(48.7386 0 0)
(48.8116 0 0)
(48.8846 0 0)
(48.9576 0 0)
(49.0306 0 0)
(49.1036 0 0)
(49.1765 0 0)
(49.2495 0 0)
(49.3225 0 0)
(49.3955 0 0)
(49.4685 0 0)
(49.5415 0 0)
(49.6145 0 0)
(49.6875 0 0)
(49.7604 0 0)
(49.8334 0 0)
(49.9064 0 0)
(49.9794 0 0)
(50.0524 0 0)
(50.1254 0 0)
(50.1984 0 0)
(50.2714 0 0)
(50.3444 0 0)
(50.4174 0 0)
(50.4904 0 0)
(50.5634 0 0)
(50.6364 0 0)
(50.7093 0 0)
(50.7823 0 0)
(50.8553 0 0)
(50.9283 0 0)
(51.0013 0 0)
(51.0743 0 0)
(51.1473 0 0)
(51.2203 0 0)
(51.2933 0 0)
(51.3663 0 0)
(51.4393 0 0)
(51.5123 0 0)
(51.5853 0 0)
(51.6584 0 0)
(51.7314 0 0)
(51.8044 0 0)
(51.8774 0 0)
(51.9504 0 0)
(52.0234 0 0)
(52.0964 0 0)
(52.1694 0 0)
(52.2424 0 0)
(52.3154 0 0)
(52.3884 0 0)
(52.4614 0 0)
(52.5344 0 0)
(52.6074 0 0)
(52.6805 0 0)
(52.7535 0 0)
(52.8265 0 0)
(52.8995 0 0)
(52.9725 0 0)
(53.0455 0 0)
(53.1185 0 0)
(53.1915 0 0)
(53.2646 0 0)
(53.3376 0 0)
(53.4106 0 0)
(53.4836 0 0)
(53.5566 0 0)
(53.6297 0 0)
(53.7027 0 0)
(53.7757 0 0)
(53.8487 0 0)
(53.9217 0 0)
(53.9948 0 0)
(54.0678 0 0)
(54.1408 0 0)
(54.2138 0 0)
(54.2868 0 0)
(54.3599 0 0)
(54.4329 0 0)
(54.5059 0 0)
(54.5789 0 0)
(54.652 0 0)
(54.725 0 0)
(54.798 0 0)
(54.871 0 0)
(54.9441 0 0)
(55.0171 0 0)
(55.0901 0 0)
(55.1632 0 0)
(55.2362 0 0)
(55.3092 0 0)
(55.3823 0 0)
(55.4553 0 0)
(55.5283 0 0)
(55.6014 0 0)
(55.6744 0 0)
(55.7474 0 0)
(55.8205 0 0)
(55.8935 0 0)
(55.9665 0 0)
(56.0396 0 0)
(56.1126 0 0)
(56.1856 0 0)
(56.2587 0 0)
(56.3317 0 0)
(56.4048 0 0)
(56.4778 0 0)
(56.5508 0 0)
(56.6239 0 0)
(56.6969 0 0)
(56.77 0 0)
(56.843 0 0)
(56.916 0 0)
(56.9891 0 0)
(57.0621 0 0)
(57.1352 0 0)
(57.2082 0 0)
(57.2813 0 0)
(57.3543 0 0)
(57.4274 0 0)
(57.5004 0 0)
(57.5735 0 0)
(57.6465 0 0)
(57.7196 0 0)
(57.7926 0 0)
(57.8657 0 0)
(57.9387 0 0)
(58.0118 0 0)
(58.0848 0 0)
(58.1579 0 0)
(58.2309 0 0)
(58.304 0 0)
(58.377 0 0)
(58.4501 0 0)
(58.5231 0 0)
(58.5962 0 0)
(58.6692 0 0)
(58.7423 0 0)
(58.8154 0 0)
(58.8884 0 0)
(58.9615 0 0)
(59.0345 0 0)
(59.1076 0 0)
(59.1807 0 0)
(59.2537 0 0)
(59.3268 0 0)
(59.3998 0 0)
(59.4729 0 0)
(59.546 0 0)
(59.619 0 0)
(59.6921 0 0)
(59.7652 0 0)
(59.8382 0 0)
(59.9113 0 0)
(59.9844 0 0)
(60.0574 0 0)
(60.1305 0 0)
(60.2036 0 0)
(60.2766 0 0)
(60.3497 0 0)
(60.4228 0 0)
(60.4958 0 0)
(60.5689 0 0)
(60.642 0 0)
(60.7151 0 0)
(60.7881 0 0)
(60.8612 0 0)
(60.9343 0 0)
(61.0073 0 0)
(61.0804 0 0)
(61.1535 0 0)
(61.2266 0 0)
(61.2996 0 0)
(61.3727 0 0)
(61.4458 0 0)
(61.5189 0 0)
(61.592 0 0)
(61.665 0 0)
(61.7381 0 0)
(61.8112 0 0)
(61.8843 0 0)
(61.9574 0 0)
(62.0304 0 0)
(62.1035 0 0)
(62.1766 0 0)
(62.2497 0 0)
(62.3228 0 0)
(62.3959 0 0)
(62.4689 0 0)
(62.542 0 0)
(62.6151 0 0)
(62.6882 0 0)
(62.7613 0 0)
(62.8344 0 0)
(62.9075 0 0)
(62.9806 0 0)
(63.0536 0 0)
(63.1267 0 0)
(63.1998 0 0)
(63.2729 0 0)
(63.346 0 0)
(63.4191 0 0)
(63.4922 0 0)
(63.5653 0 0)
(63.6384 0 0)
(63.7115 0 0)
(63.7846 0 0)
(63.8577 0 0)
(63.9308 0 0)
(64.0039 0 0)
(64.077 0 0)
(64.1501 0 0)
(64.2232 0 0)
(64.2963 0 0)
(64.3694 0 0)
(64.4425 0 0)
(64.5156 0 0)
(64.5887 0 0)
(64.6618 0 0)
(64.7349 0 0)
(64.808 0 0)
(64.8811 0 0)
(64.9542 0 0)
(65.0273 0 0)
(65.1004 0 0)
(65.1735 0 0)
(65.2466 0 0)
(65.3197 0 0)
(65.3928 0 0)
(65.4659 0 0)
(65.539 0 0)
(65.6121 0 0)
(65.6852 0 0)
(65.7583 0 0)
(65.8315 0 0)
(65.9046 0 0)
(65.9777 0 0)
(66.0508 0 0)
(66.1239 0 0)
(66.197 0 0)
(66.2701 0 0)
(66.3432 0 0)
(66.4164 0 0)
(66.4895 0 0)
(66.5626 0 0)
(66.6357 0 0)
(66.7088 0 0)
(66.7819 0 0)
(66.8551 0 0)
(66.9282 0 0)
(67.0013 0 0)
(67.0744 0 0)
(67.1475 0 0)
(67.2207 0 0)
(67.2938 0 0)
(67.3669 0 0)
(67.44 0 0)
(67.5131 0 0)
(67.5863 0 0)
(67.6594 0 0)
(67.7325 0 0)
(67.8056 0 0)
(67.8788 0 0)
(67.9519 0 0)
(68.025 0 0)
(68.0982 0 0)
(68.1713 0 0)
(68.2444 0 0)
(68.3175 0 0)
(68.3907 0 0)
(68.4638 0 0)
(68.5369 0 0)
(68.6101 0 0)
(68.6832 0 0)
(68.7563 0 0)
(68.8295 0 0)
(68.9026 0 0)
(68.9757 0 0)
(69.0489 0 0)
(69.122 0 0)
(69.1951 0 0)
(69.2683 0 0)
(69.3414 0 0)
(69.4145 0 0)
(69.4877 0 0)
(69.5608 0 0)
(69.634 0 0)
(69.7071 0 0)
(69.7802 0 0)
(69.8534 0 0)
(69.9265 0 0)
(69.9997 0 0)
(70.0728 0 0)
(70.1459 0 0)
(70.2191 0 0)
(70.2922 0 0)
(70.3654 0 0)
(70.4385 0 0)
(70.5117 0 0)
(70.5848 0 0)
(70.658 0 0)
(70.7311 0 0)
(70.8043 0 0)
(70.8774 0 0)
(70.9506 0 0)
(71.0237 0 0)
(71.0969 0 0)
(71.17 0 0)
(71.2432 0 0)
(71.3163 0 0)
(71.3895 0 0)
(71.4626 0 0)
(71.5358 0 0)
(71.6089 0 0)
(71.6821 0 0)
(71.7552 0 0)
(71.8284 0 0)
(71.9015 0 0)
(71.9747 0 0)
(72.0479 0 0)
(72.121 0 0)
(72.1942 0 0)
(72.2673 0 0)
(72.3405 0 0)
(72.4136 0 0)
(72.4868 0 0)
(72.56 0 0)
(72.6331 0 0)
(72.7063 0 0)
(72.7795 0 0)
(72.8526 0 0)
(72.9258 0 0)
(72.9989 0 0)
(73.0721 0 0)
(73.1453 0 0)
(73.2184 0 0)
(73.2916 0 0)
(73.3648 0 0)
(73.4379 0 0)
(73.5111 0 0)
(73.5843 0 0)
(73.6574 0 0)
(73.7306 0 0)
(73.8038 0 0)
(73.877 0 0)
(73.9501 0 0)
(74.0233 0 0)
(74.0965 0 0)
(74.1696 0 0)
(74.2428 0 0)
(74.316 0 0)
(74.3892 0 0)
(74.4623 0 0)
(74.5355 0 0)
(74.6087 0 0)
(74.6819 0 0)
(74.7551 0 0)
(74.8282 0 0)
(74.9014 0 0)
(74.9746 0 0)
(75.0478 0 0)
(75.121 0 0)
(75.1941 0 0)
(75.2673 0 0)
(75.3405 0 0)
(75.4137 0 0)
(75.4869 0 0)
(75.56 0 0)
(75.6332 0 0)
(75.7064 0 0)
(75.7796 0 0)
(75.8528 0 0)
(75.926 0 0)
(75.9992 0 0)
(76.0723 0 0)
(76.1455 0 0)
(76.2187 0 0)
(76.2919 0 0)
(76.3651 0 0)
(76.4383 0 0)
(76.5115 0 0)
(76.5847 0 0)
(76.6579 0 0)
(76.7311 0 0)
(76.8042 0 0)
(76.8774 0 0)
(76.9506 0 0)
(77.0238 0 0)
(77.097 0 0)
(77.1702 0 0)
(77.2434 0 0)
(77.3166 0 0)
(77.3898 0 0)
(77.463 0 0)
(77.5362 0 0)
(77.6094 0 0)
(77.6826 0 0)
(77.7558 0 0)
(77.829 0 0)
(77.9022 0 0)
(77.9754 0 0)
(78.0486 0 0)
(78.1218 0 0)
(78.195 0 0)
(78.2682 0 0)
(78.3414 0 0)
(78.4146 0 0)
(78.4878 0 0)
(78.561 0 0)
(78.6343 0 0)
(78.7075 0 0)
(78.7807 0 0)
(78.8539 0 0)
(78.9271 0 0)
(79.0003 0 0)
(79.0735 0 0)
(79.1467 0 0)
(79.2199 0 0)
(79.2931 0 0)
(79.3663 0 0)
(79.4396 0 0)
(79.5128 0 0)
(79.586 0 0)
(79.6592 0 0)
(79.7324 0 0)
(79.8056 0 0)
(79.8788 0 0)
(79.9521 0 0)
(80.0253 0 0)
(80.0985 0 0)
(80.1717 0 0)
(80.2449 0 0)
(80.3182 0 0)
(80.3914 0 0)
(80.4646 0 0)
(80.5378 0 0)
(80.611 0 0)
(80.6843 0 0)
(80.7575 0 0)
(80.8307 0 0)
(80.9039 0 0)
(80.9772 0 0)
(81.0504 0 0)
(81.1236 0 0)
(81.1968 0 0)
(81.2701 0 0)
(81.3433 0 0)
(81.4165 0 0)
(81.4897 0 0)
(81.563 0 0)
(81.6362 0 0)
(81.7094 0 0)
(81.7827 0 0)
(81.8559 0 0)
(81.9291 0 0)
(82.0024 0 0)
(82.0756 0 0)
(82.1488 0 0)
(82.2221 0 0)
(82.2953 0 0)
(82.3685 0 0)
(82.4418 0 0)
(82.515 0 0)
(82.5882 0 0)
(82.6615 0 0)
(82.7347 0 0)
(82.8079 0 0)
(82.8812 0 0)
(82.9544 0 0)
(83.0277 0 0)
(83.1009 0 0)
(83.1741 0 0)
(83.2474 0 0)
(83.3206 0 0)
(83.3939 0 0)
(83.4671 0 0)
(83.5404 0 0)
(83.6136 0 0)
(83.6868 0 0)
(83.7601 0 0)
(83.8333 0 0)
(83.9066 0 0)
(83.9798 0 0)
(84.0531 0 0)
(84.1263 0 0)
(84.1996 0 0)
(84.2728 0 0)
(84.3461 0 0)
(84.4193 0 0)
(84.4926 0 0)
(84.5658 0 0)
(84.6391 0 0)
(84.7123 0 0)
(84.7856 0 0)
(84.8588 0 0)
(84.9321 0 0)
(85.0053 0 0)
(85.0786 0 0)
(85.1519 0 0)
(85.2251 0 0)
(85.2984 0 0)
(85.3716 0 0)
(85.4449 0 0)
(85.5181 0 0)
(85.5914 0 0)
(85.6647 0 0)
(85.7379 0 0)
(85.8112 0 0)
(85.8844 0 0)
(85.9577 0 0)
(86.031 0 0)
(86.1042 0 0)
(86.1775 0 0)
(86.2508 0 0)
(86.324 0 0)
(86.3973 0 0)
(86.4705 0 0)
(86.5438 0 0)
(86.6171 0 0)
(86.6903 0 0)
(86.7636 0 0)
(86.8369 0 0)
(86.9102 0 0)
(86.9834 0 0)
(87.0567 0 0)
(87.13 0 0)
(87.2032 0 0)
(87.2765 0 0)
(87.3498 0 0)
(87.4231 0 0)
(87.4963 0 0)
(87.5696 0 0)
(87.6429 0 0)
(87.7162 0 0)
(87.7894 0 0)
(87.8627 0 0)
(87.936 0 0)
(88.0093 0 0)
(88.0825 0 0)
(88.1558 0 0)
(88.2291 0 0)
(88.3024 0 0)
(88.3757 0 0)
(88.4489 0 0)
(88.5222 0 0)
(88.5955 0 0)
(88.6688 0 0)
(88.7421 0 0)
(88.8153 0 0)
(88.8886 0 0)
(88.9619 0 0)
(89.0352 0 0)
(89.1085 0 0)
(89.1818 0 0)
(89.2551 0 0)
(89.3283 0 0)
(89.4016 0 0)
(89.4749 0 0)
(89.5482 0 0)
(89.6215 0 0)
(89.6948 0 0)
(89.7681 0 0)
(89.8414 0 0)
(89.9147 0 0)
(89.988 0 0)
(90.0612 0 0)
(90.1345 0 0)
(90.2078 0 0)
(90.2811 0 0)
(90.3544 0 0)
(90.4277 0 0)
(90.501 0 0)
(90.5743 0 0)
(90.6476 0 0)
(90.7209 0 0)
(90.7942 0 0)
(90.8675 0 0)
(90.9408 0 0)
(91.0141 0 0)
(91.0874 0 0)
(91.1607 0 0)
(91.234 0 0)
(91.3073 0 0)
(91.3806 0 0)
(91.4539 0 0)
(91.5272 0 0)
(91.6005 0 0)
(91.6738 0 0)
(91.7471 0 0)
(91.8204 0 0)
(91.8937 0 0)
(91.967 0 0)
(92.0404 0 0)
(92.1137 0 0)
(92.187 0 0)
(92.2603 0 0)
(92.3336 0 0)
(92.4069 0 0)
(92.4802 0 0)
(92.5535 0 0)
(92.6268 0 0)
(92.7002 0 0)
(92.7735 0 0)
(92.8468 0 0)
(92.9201 0 0)
(92.9934 0 0)
(93.0667 0 0)
(93.14 0 0)
(93.2134 0 0)
(93.2867 0 0)
(93.36 0 0)
(93.4333 0 0)
(93.5066 0 0)
(93.5799 0 0)
(93.6533 0 0)
(93.7266 0 0)
(93.7999 0 0)
(93.8732 0 0)
(93.9466 0 0)
(94.0199 0 0)
(94.0932 0 0)
(94.1665 0 0)
(94.2398 0 0)
(94.3132 0 0)
(94.3865 0 0)
(94.4598 0 0)
(94.5331 0 0)
(94.6065 0 0)
(94.6798 0 0)
(94.7531 0 0)
(94.8265 0 0)
(94.8998 0 0)
(94.9731 0 0)
(95.0464 0 0)
(95.1198 0 0)
(95.1931 0 0)
(95.2664 0 0)
(95.3398 0 0)
(95.4131 0 0)
(95.4864 0 0)
(95.5598 0 0)
(95.6331 0 0)
(95.7064 0 0)
(95.7798 0 0)
(95.8531 0 0)
(95.9265 0 0)
(95.9998 0 0)
(96.0731 0 0)
(96.1465 0 0)
(96.2198 0 0)
(96.2932 0 0)
(96.3665 0 0)
(96.4398 0 0)
(96.5132 0 0)
(96.5865 0 0)
(96.6599 0 0)
(96.7332 0 0)
(96.8065 0 0)
(96.8799 0 0)
(96.9532 0 0)
(97.0266 0 0)
(97.0999 0 0)
(97.1733 0 0)
(97.2466 0 0)
(97.32 0 0)
(97.3933 0 0)
(97.4667 0 0)
(97.54 0 0)
(97.6134 0 0)
(97.6867 0 0)
(97.7601 0 0)
(97.8334 0 0)
(97.9068 0 0)
(97.9801 0 0)
(98.0535 0 0)
(98.1268 0 0)
(98.2002 0 0)
(98.2735 0 0)
(98.3469 0 0)
(98.4202 0 0)
(98.4936 0 0)
(98.567 0 0)
(98.6403 0 0)
(98.7137 0 0)
(98.787 0 0)
(98.8604 0 0)
(98.9338 0 0)
(99.0071 0 0)
(99.0805 0 0)
(99.1538 0 0)
(99.2272 0 0)
(99.3006 0 0)
(99.3739 0 0)
(99.4473 0 0)
(99.5207 0 0)
(99.594 0 0)
(99.6674 0 0)
(99.7408 0 0)
(99.8141 0 0)
(99.8875 0 0)
(99.9609 0 0)
(100.034 0 0)
(100.108 0 0)
(100.181 0 0)
(100.254 0 0)
(100.328 0 0)
(100.401 0 0)
(100.474 0 0)
(100.548 0 0)
(100.621 0 0)
(100.695 0 0)
(100.768 0 0)
(100.841 0 0)
(100.915 0 0)
(100.988 0 0)
(101.061 0 0)
(101.135 0 0)
(101.208 0 0)
(101.282 0 0)
(101.355 0 0)
(101.428 0 0)
(101.502 0 0)
(101.575 0 0)
(101.648 0 0)
(101.722 0 0)
(101.795 0 0)
(101.869 0 0)
(101.942 0 0)
(102.015 0 0)
(102.089 0 0)
(102.162 0 0)
(102.236 0 0)
(102.309 0 0)
(102.382 0 0)
(102.456 0 0)
(102.529 0 0)
(102.602 0 0)
(102.676 0 0)
(102.749 0 0)
(102.823 0 0)
(102.896 0 0)
(102.969 0 0)
(103.043 0 0)
(103.116 0 0)
(103.19 0 0)
(103.263 0 0)
(103.336 0 0)
(103.41 0 0)
(103.483 0 0)
(103.557 0 0)
(103.63 0 0)
(103.703 0 0)
(103.777 0 0)
(103.85 0 0)
(103.924 0 0)
(103.997 0 0)
(104.07 0 0)
(104.144 0 0)
(104.217 0 0)
(104.291 0 0)
(104.364 0 0)
(104.437 0 0)
(104.511 0 0)
(104.584 0 0)
(104.658 0 0)
(104.731 0 0)
(104.804 0 0)
(104.878 0 0)
(104.951 0 0)
(105.025 0 0)
(105.098 0 0)
(105.171 0 0)
(105.245 0 0)
(105.318 0 0)
(105.392 0 0)
(105.465 0 0)
(105.538 0 0)
(105.612 0 0)
(105.685 0 0)
(105.759 0 0)
(105.832 0 0)
(105.905 0 0)
(105.979 0 0)
(106.052 0 0)
(106.126 0 0)
(106.199 0 0)
(106.273 0 0)
(106.346 0 0)
(106.419 0 0)
(106.493 0 0)
(106.566 0 0)
(106.64 0 0)
(106.713 0 0)
(106.786 0 0)
(106.86 0 0)
(106.933 0 0)
(107.007 0 0)
(107.08 0 0)
(107.154 0 0)
(107.227 0 0)
(107.3 0 0)
(107.374 0 0)
(107.447 0 0)
(107.521 0 0)
(107.594 0 0)
(107.668 0 0)
(107.741 0 0)
(107.814 0 0)
(107.888 0 0)
(107.961 0 0)
(108.035 0 0)
(108.108 0 0)
(108.182 0 0)
(108.255 0 0)
(108.328 0 0)
(108.402 0 0)
(108.475 0 0)
(108.549 0 0)
(108.622 0 0)
(108.696 0 0)
(108.769 0 0)
(108.842 0 0)
(108.916 0 0)
(108.989 0 0)
(109.063 0 0)
(109.136 0 0)
(109.21 0 0)
(109.283 0 0)
(109.357 0 0)
(109.43 0 0)
(109.503 0 0)
(109.577 0 0)
(109.65 0 0)
(109.724 0 0)
(109.797 0 0)
(109.871 0 0)
(109.944 0 0)
(110.017 0 0)
(110.091 0 0)
(110.164 0 0)
(110.238 0 0)
(110.311 0 0)
(110.385 0 0)
(110.458 0 0)
(110.532 0 0)
(110.605 0 0)
(110.679 0 0)
(110.752 0 0)
(110.825 0 0)
(110.899 0 0)
(110.972 0 0)
(111.046 0 0)
(111.119 0 0)
(111.193 0 0)
(111.266 0 0)
(111.34 0 0)
(111.413 0 0)
(111.486 0 0)
(111.56 0 0)
(111.633 0 0)
(111.707 0 0)
(111.78 0 0)
(111.854 0 0)
(111.927 0 0)
(112.001 0 0)
(112.074 0 0)
(112.148 0 0)
(112.221 0 0)
(112.295 0 0)
(112.368 0 0)
(112.441 0 0)
(112.515 0 0)
(112.588 0 0)
(112.662 0 0)
(112.735 0 0)
(112.809 0 0)
(112.882 0 0)
(112.956 0 0)
(113.029 0 0)
(113.103 0 0)
(113.176 0 0)
(113.25 0 0)
(113.323 0 0)
(113.397 0 0)
(113.47 0 0)
(113.543 0 0)
(113.617 0 0)
(113.69 0 0)
(113.764 0 0)
(113.837 0 0)
(113.911 0 0)
(113.984 0 0)
(114.058 0 0)
(114.131 0 0)
(114.205 0 0)
(114.278 0 0)
(114.352 0 0)
(114.425 0 0)
(114.499 0 0)
(114.572 0 0)
(114.646 0 0)
(114.719 0 0)
(114.793 0 0)
(114.866 0 0)
(114.94 0 0)
(115.013 0 0)
(115.086 0 0)
(115.16 0 0)
(115.233 0 0)
(115.307 0 0)
(115.38 0 0)
(115.454 0 0)
(115.527 0 0)
(115.601 0 0)
(115.674 0 0)
(115.748 0 0)
(115.821 0 0)
(115.895 0 0)
(115.968 0 0)
(116.042 0 0)
(116.115 0 0)
(116.189 0 0)
(116.262 0 0)
(116.336 0 0)
(116.409 0 0)
(116.483 0 0)
(116.556 0 0)
(116.63 0 0)
(116.703 0 0)
(116.777 0 0)
(116.85 0 0)
(116.924 0 0)
(116.997 0 0)
(117.071 0 0)
(117.144 0 0)
(117.218 0 0)
(117.291 0 0)
(117.365 0 0)
(117.438 0 0)
(117.512 0 0)
(117.585 0 0)
(117.659 0 0)
(117.732 0 0)
(117.806 0 0)
(117.879 0 0)
(117.953 0 0)
(118.026 0 0)
(118.1 0 0)
(118.173 0 0)
(118.247 0 0)
(118.32 0 0)
(118.394 0 0)
(118.467 0 0)
(118.541 0 0)
(118.614 0 0)
(118.688 0 0)
(118.761 0 0)
(118.835 0 0)
(118.908 0 0)
(118.982 0 0)
(119.055 0 0)
(119.129 0 0)
(119.202 0 0)
(119.276 0 0)
(119.349 0 0)
(119.423 0 0)
(119.496 0 0)
(119.57 0 0)
(119.643 0 0)
(119.717 0 0)
(119.791 0 0)
(119.864 0 0)
(119.938 0 0)
(120.011 0 0)
(120.085 0 0)
(120.158 0 0)
(120.232 0 0)
(120.305 0 0)
(120.379 0 0)
(120.452 0 0)
(120.526 0 0)
(120.599 0 0)
(120.673 0 0)
(120.746 0 0)
(120.82 0 0)
(120.893 0 0)
(120.967 0 0)
(121.04 0 0)
(121.114 0 0)
(121.187 0 0)
(121.261 0 0)
(121.335 0 0)
(121.408 0 0)
(121.482 0 0)
(121.555 0 0)
(121.629 0 0)
(121.702 0 0)
(121.776 0 0)
(121.849 0 0)
(121.923 0 0)
(121.996 0 0)
(122.07 0 0)
(122.143 0 0)
(122.217 0 0)
(122.29 0 0)
(122.364 0 0)
(122.438 0 0)
(122.511 0 0)
(122.585 0 0)
(122.658 0 0)
(122.732 0 0)
(122.805 0 0)
(122.879 0 0)
(122.952 0 0)
(123.026 0 0)
(123.099 0 0)
(123.173 0 0)
(123.246 0 0)
(123.32 0 0)
(123.394 0 0)
(123.467 0 0)
(123.541 0 0)
(123.614 0 0)
(123.688 0 0)
(123.761 0 0)
(123.835 0 0)
(123.908 0 0)
(123.982 0 0)
(124.056 0 0)
(124.129 0 0)
(124.203 0 0)
(124.276 0 0)
(124.35 0 0)
(124.423 0 0)
(124.497 0 0)
(124.57 0 0)
(124.644 0 0)
(124.717 0 0)
(124.791 0 0)
(124.865 0 0)
(124.938 0 0)
(125.012 0 0)
(125.085 0 0)
(125.159 0 0)
(125.232 0 0)
(125.306 0 0)
(125.38 0 0)
(125.453 0 0)
(125.527 0 0)
(125.6 0 0)
(125.674 0 0)
(125.747 0 0)
(125.821 0 0)
(125.894 0 0)
(125.968 0 0)
(126.042 0 0)
(126.115 0 0)
(126.189 0 0)
(126.262 0 0)
(126.336 0 0)
(126.409 0 0)
(126.483 0 0)
(126.557 0 0)
(126.63 0 0)
(126.704 0 0)
(126.777 0 0)
(126.851 0 0)
(126.924 0 0)
(126.998 0 0)
(127.072 0 0)
(127.145 0 0)
(127.219 0 0)
(127.292 0 0)
(127.366 0 0)
(127.439 0 0)
(127.513 0 0)
(127.587 0 0)
(127.66 0 0)
(127.734 0 0)
(127.807 0 0)
(127.881 0 0)
(127.955 0 0)
(128.028 0 0)
(128.102 0 0)
(128.175 0 0)
(128.249 0 0)
(128.322 0 0)
(128.396 0 0)
(128.47 0 0)
(128.543 0 0)
(128.617 0 0)
(128.69 0 0)
(128.764 0 0)
(128.838 0 0)
(128.911 0 0)
(128.985 0 0)
(129.058 0 0)
(129.132 0 0)
(129.205 0 0)
(129.279 0 0)
(129.353 0 0)
(129.426 0 0)
(129.5 0 0)
(129.573 0 0)
(129.647 0 0)
(129.721 0 0)
(129.794 0 0)
(129.868 0 0)
(129.941 0 0)
(130.015 0 0)
(130.089 0 0)
(130.162 0 0)
(130.236 0 0)
(130.309 0 0)
(130.383 0 0)
(130.457 0 0)
(130.53 0 0)
(130.604 0 0)
(130.677 0 0)
(130.751 0 0)
(130.825 0 0)
(130.898 0 0)
(130.972 0 0)
(131.045 0 0)
(131.119 0 0)
(131.193 0 0)
(131.266 0 0)
(131.34 0 0)
(131.413 0 0)
(131.487 0 0)
(131.561 0 0)
(131.634 0 0)
(131.708 0 0)
(131.781 0 0)
(131.855 0 0)
(131.929 0 0)
(132.002 0 0)
(132.076 0 0)
(132.15 0 0)
(132.223 0 0)
(132.297 0 0)
(132.37 0 0)
(132.444 0 0)
(132.518 0 0)
(132.591 0 0)
(132.665 0 0)
(132.738 0 0)
(132.812 0 0)
(132.886 0 0)
(132.959 0 0)
(133.033 0 0)
(133.107 0 0)
(133.18 0 0)
(133.254 0 0)
(133.327 0 0)
(133.401 0 0)
(133.475 0 0)
(133.548 0 0)
(133.622 0 0)
(133.695 0 0)
(133.769 0 0)
(133.843 0 0)
(133.916 0 0)
(133.99 0 0)
(134.064 0 0)
(134.137 0 0)
(134.211 0 0)
(134.284 0 0)
(134.358 0 0)
(134.432 0 0)
(134.505 0 0)
(134.579 0 0)
(134.653 0 0)
(134.726 0 0)
(134.8 0 0)
(134.874 0 0)
(134.947 0 0)
(135.021 0 0)
(135.094 0 0)
(135.168 0 0)
(135.242 0 0)
(135.315 0 0)
(135.389 0 0)
(135.463 0 0)
(135.536 0 0)
(135.61 0 0)
(135.684 0 0)
(135.757 0 0)
(135.831 0 0)
(135.904 0 0)
(135.978 0 0)
(136.052 0 0)
(136.125 0 0)
(136.199 0 0)
(136.273 0 0)
(136.346 0 0)
(136.42 0 0)
(136.494 0 0)
(136.567 0 0)
(136.641 0 0)
(136.715 0 0)
(136.788 0 0)
(136.862 0 0)
(136.935 0 0)
(137.009 0 0)
(137.083 0 0)
(137.156 0 0)
(137.23 0 0)
(137.304 0 0)
(137.377 0 0)
(137.451 0 0)
(137.525 0 0)
(137.598 0 0)
(137.672 0 0)
(137.746 0 0)
(137.819 0 0)
(137.893 0 0)
(137.967 0 0)
(138.04 0 0)
(138.114 0 0)
(138.188 0 0)
(138.261 0 0)
(138.335 0 0)
(138.409 0 0)
(138.482 0 0)
(138.556 0 0)
(138.63 0 0)
(138.703 0 0)
(138.777 0 0)
(138.851 0 0)
(138.924 0 0)
(138.998 0 0)
(139.072 0 0)
(139.145 0 0)
(139.219 0 0)
(139.293 0 0)
(139.366 0 0)
(139.44 0 0)
(139.514 0 0)
(139.587 0 0)
(139.661 0 0)
(139.735 0 0)
(139.808 0 0)
(139.882 0 0)
(139.956 0 0)
(140.029 0 0)
(140.103 0 0)
(140.177 0 0)
(140.25 0 0)
(140.324 0 0)
(140.398 0 0)
(140.471 0 0)
(140.545 0 0)
(140.619 0 0)
(140.692 0 0)
(140.766 0 0)
(140.84 0 0)
(140.913 0 0)
(140.987 0 0)
(141.061 0 0)
(141.134 0 0)
(141.208 0 0)
(141.282 0 0)
(141.355 0 0)
(141.429 0 0)
(141.503 0 0)
(141.576 0 0)
(141.65 0 0)
(141.724 0 0)
(141.798 0 0)
(141.871 0 0)
(141.945 0 0)
(142.019 0 0)
(142.092 0 0)
(142.166 0 0)
(142.24 0 0)
(142.313 0 0)
(142.387 0 0)
(142.461 0 0)
(142.534 0 0)
(142.608 0 0)
(142.682 0 0)
(142.755 0 0)
(142.829 0 0)
(142.903 0 0)
(142.977 0 0)
(143.05 0 0)
(143.124 0 0)
(143.198 0 0)
(143.271 0 0)
(143.345 0 0)
(143.419 0 0)
(143.492 0 0)
(143.566 0 0)
(143.64 0 0)
(143.714 0 0)
(143.787 0 0)
(143.861 0 0)
(143.935 0 0)
(144.008 0 0)
(144.082 0 0)
(144.156 0 0)
(144.229 0 0)
(144.303 0 0)
(144.377 0 0)
(144.451 0 0)
(144.524 0 0)
(144.598 0 0)
(144.672 0 0)
(144.745 0 0)
(144.819 0 0)
(144.893 0 0)
(144.967 0 0)
(145.04 0 0)
(145.114 0 0)
(145.188 0 0)
(145.261 0 0)
(145.335 0 0)
(145.409 0 0)
(145.482 0 0)
(145.556 0 0)
(145.63 0 0)
(145.704 0 0)
(145.777 0 0)
(145.851 0 0)
(145.925 0 0)
(145.998 0 0)
(146.072 0 0)
(146.146 0 0)
(146.22 0 0)
(146.293 0 0)
(146.367 0 0)
(146.441 0 0)
(146.515 0 0)
(146.588 0 0)
(146.662 0 0)
(146.736 0 0)
(146.809 0 0)
(146.883 0 0)
(146.957 0 0)
(147.031 0 0)
(147.104 0 0)
(147.178 0 0)
(147.252 0 0)
(147.325 0 0)
(147.399 0 0)
(147.473 0 0)
(147.547 0 0)
(147.62 0 0)
(147.694 0 0)
(147.768 0 0)
(147.842 0 0)
(147.915 0 0)
(147.989 0 0)
(148.063 0 0)
(148.137 0 0)
(148.21 0 0)
(148.284 0 0)
(148.358 0 0)
(148.431 0 0)
(148.505 0 0)
(148.579 0 0)
(148.653 0 0)
(148.726 0 0)
(148.8 0 0)
(148.874 0 0)
(148.948 0 0)
(149.021 0 0)
(149.095 0 0)
(149.169 0 0)
(149.243 0 0)
(149.316 0 0)
(149.39 0 0)
(149.464 0 0)
(149.538 0 0)
(149.611 0 0)
(149.685 0 0)
(149.759 0 0)
(149.833 0 0)
(149.906 0 0)
(149.98 0 0)
(150.054 0 0)
(150.128 0 0)
(150.201 0 0)
(150.275 0 0)
(150.349 0 0)
(150.422 0 0)
(150.496 0 0)
(150.57 0 0)
(150.644 0 0)
(150.718 0 0)
(150.791 0 0)
(150.865 0 0)
(150.939 0 0)
(151.013 0 0)
(151.086 0 0)
(151.16 0 0)
(151.234 0 0)
(151.308 0 0)
(151.381 0 0)
(151.455 0 0)
(151.529 0 0)
(151.603 0 0)
(151.676 0 0)
(151.75 0 0)
(151.824 0 0)
(151.898 0 0)
(151.971 0 0)
(152.045 0 0)
(152.119 0 0)
(152.193 0 0)
(152.266 0 0)
(152.34 0 0)
(152.414 0 0)
(152.488 0 0)
(152.561 0 0)
(152.635 0 0)
(152.709 0 0)
(152.783 0 0)
(152.857 0 0)
(152.93 0 0)
(153.004 0 0)
(153.078 0 0)
(153.152 0 0)
(153.225 0 0)
(153.299 0 0)
(153.373 0 0)
(153.447 0 0)
(153.52 0 0)
(153.594 0 0)
(153.668 0 0)
(153.742 0 0)
(153.816 0 0)
(153.889 0 0)
(153.963 0 0)
(154.037 0 0)
(154.111 0 0)
(154.184 0 0)
(154.258 0 0)
(154.332 0 0)
(154.406 0 0)
(154.48 0 0)
(154.553 0 0)
(154.627 0 0)
(154.701 0 0)
(154.775 0 0)
(154.848 0 0)
(154.922 0 0)
(154.996 0 0)
(155.07 0 0)
(155.144 0 0)
(155.217 0 0)
(155.291 0 0)
(155.365 0 0)
(155.439 0 0)
(155.513 0 0)
(155.586 0 0)
(155.66 0 0)
(155.734 0 0)
(155.808 0 0)
(155.881 0 0)
(155.955 0 0)
(156.029 0 0)
(156.103 0 0)
(156.177 0 0)
(156.25 0 0)
(156.324 0 0)
(156.398 0 0)
(156.472 0 0)
(156.546 0 0)
(156.619 0 0)
(156.693 0 0)
(156.767 0 0)
(156.841 0 0)
(156.915 0 0)
(156.988 0 0)