/*--------------------------------*- C++ -*----------------------------------*\
  =========                 |
  \\      /  F ield         | OpenFOAM: The Open Source CFD Toolbox
   \\    /   O peration     | Website:  https://openfoam.org
    \\  /    A nd           | Version:  9
     \\/     M anipulation  |
\*---------------------------------------------------------------------------*/
FoamFile
{
    format      ascii;
    class       volVectorField;
    location    "0.02";
    object      U_0;
}
// * * * * * * * * * * * * * * * * * * * * * * * * * * * * * * * * * * * * * //

dimensions      [0 1 -1 0 0 0 0];

internalField   nonuniform List<vector> 
10000
(
(2.47027 0 0)
(2.58196 0 0)
(2.65671 0 0)
(2.72441 0 0)
(2.79568 0 0)
(2.86877 0 0)
(2.94174 0 0)
(3.01442 0 0)
(3.08706 0 0)
(3.15976 0 0)
(3.23249 0 0)
(3.3052 0 0)
(3.37789 0 0)
(3.45055 0 0)
(3.52321 0 0)
(3.59586 0 0)
(3.66851 0 0)
(3.74116 0 0)
(3.81381 0 0)
(3.88646 0 0)
(3.9591 0 0)
(4.03175 0 0)
(4.1044 0 0)
(4.17705 0 0)
(4.2497 0 0)
(4.32235 0 0)
(4.395 0 0)
(4.46765 0 0)
(4.5403 0 0)
(4.61295 0 0)
(4.6856 0 0)
(4.75825 0 0)
(4.83091 0 0)
(4.90356 0 0)
(4.97622 0 0)
(5.04887 0 0)
(5.12153 0 0)
(5.19418 0 0)
(5.26684 0 0)
(5.3395 0 0)
(5.41215 0 0)
(5.48481 0 0)
(5.55747 0 0)
(5.63013 0 0)
(5.70279 0 0)
(5.77545 0 0)
(5.84811 0 0)
(5.92077 0 0)
(5.99344 0 0)
(6.0661 0 0)
(6.13876 0 0)
(6.21142 0 0)
(6.28409 0 0)
(6.35675 0 0)
(6.42942 0 0)
(6.50209 0 0)
(6.57475 0 0)
(6.64742 0 0)
(6.72009 0 0)
(6.79275 0 0)
(6.86542 0 0)
(6.93809 0 0)
(7.01076 0 0)
(7.08343 0 0)
(7.1561 0 0)
(7.22878 0 0)
(7.30145 0 0)
(7.37412 0 0)
(7.44679 0 0)
(7.51947 0 0)
(7.59214 0 0)
(7.66482 0 0)
(7.73749 0 0)
(7.81017 0 0)
(7.88284 0 0)
(7.95552 0 0)
(8.0282 0 0)
(8.10088 0 0)
(8.17355 0 0)
(8.24623 0 0)
(8.31891 0 0)
(8.39159 0 0)
(8.46427 0 0)
(8.53696 0 0)
(8.60964 0 0)
(8.68232 0 0)
(8.755 0 0)
(8.82769 0 0)
(8.90037 0 0)
(8.97306 0 0)
(9.04574 0 0)
(9.11843 0 0)
(9.19111 0 0)
(9.2638 0 0)
(9.33649 0 0)
(9.40918 0 0)
(9.48186 0 0)
(9.55455 0 0)
(9.62724 0 0)
(9.69993 0 0)
(9.77262 0 0)
(9.84532 0 0)
(9.91801 0 0)
(9.9907 0 0)
(10.0634 0 0)
(10.1361 0 0)
(10.2088 0 0)
(10.2815 0 0)
(10.3542 0 0)
(10.4269 0 0)
(10.4996 0 0)
(10.5723 0 0)
(10.645 0 0)
(10.7177 0 0)
(10.7904 0 0)
(10.8631 0 0)
(10.9358 0 0)
(11.0085 0 0)
(11.0812 0 0)
(11.1539 0 0)
(11.2266 0 0)
(11.2993 0 0)
(11.372 0 0)
(11.4447 0 0)
(11.5174 0 0)
(11.5901 0 0)
(11.6628 0 0)
(11.7355 0 0)
(11.8082 0 0)
(11.8809 0 0)
(11.9536 0 0)
(12.0263 0 0)
(12.099 0 0)
(12.1717 0 0)
(12.2444 0 0)
(12.3172 0 0)
(12.3899 0 0)
(12.4626 0 0)
(12.5353 0 0)
(12.608 0 0)
(12.6807 0 0)
(12.7534 0 0)
(12.8261 0 0)
(12.8989 0 0)
(12.9716 0 0)
(13.0443 0 0)
(13.117 0 0)
(13.1897 0 0)
(13.2624 0 0)
(13.3352 0 0)
(13.4079 0 0)
(13.4806 0 0)
(13.5533 0 0)
(13.626 0 0)
(13.6988 0 0)
(13.7715 0 0)
(13.8442 0 0)
(13.9169 0 0)
(13.9896 0 0)
(14.0624 0 0)
(14.1351 0 0)
(14.2078 0 0)
(14.2805 0 0)
(14.3533 0 0)
(14.426 0 0)
(14.4987 0 0)
(14.5714 0 0)
(14.6442 0 0)
(14.7169 0 0)
(14.7896 0 0)
(14.8624 0 0)
(14.9351 0 0)
(15.0078 0 0)
(15.0805 0 0)
(15.1533 0 0)
(15.226 0 0)
(15.2987 0 0)
(15.3715 0 0)
(15.4442 0 0)
(15.5169 0 0)
(15.5897 0 0)
(15.6624 0 0)
(15.7352 0 0)
(15.8079 0 0)
(15.8806 0 0)
(15.9534 0 0)
(16.0261 0 0)
(16.0988 0 0)
(16.1716 0 0)
(16.2443 0 0)
(16.3171 0 0)
(16.3898 0 0)
(16.4625 0 0)
(16.5353 0 0)
(16.608 0 0)
(16.6808 0 0)
(16.7535 0 0)
(16.8263 0 0)
(16.899 0 0)
(16.9718 0 0)
(17.0445 0 0)
(17.1172 0 0)
(17.19 0 0)
(17.2627 0 0)
(17.3355 0 0)
(17.4082 0 0)
(17.481 0 0)
(17.5537 0 0)
(17.6265 0 0)
(17.6992 0 0)
(17.772 0 0)
(17.8447 0 0)
(17.9175 0 0)
(17.9903 0 0)
(18.063 0 0)
(18.1358 0 0)
(18.2085 0 0)
(18.2813 0 0)
(18.354 0 0)
(18.4268 0 0)
(18.4995 0 0)
(18.5723 0 0)
(18.6451 0 0)
(18.7178 0 0)
(18.7906 0 0)
(18.8633 0 0)
(18.9361 0 0)
(19.0089 0 0)
(19.0816 0 0)
(19.1544 0 0)
(19.2271 0 0)
(19.2999 0 0)
(19.3727 0 0)
(19.4454 0 0)
(19.5182 0 0)
(19.591 0 0)
(19.6637 0 0)
(19.7365 0 0)
(19.8093 0 0)
(19.882 0 0)
(19.9548 0 0)
(20.0276 0 0)
(20.1003 0 0)
(20.1731 0 0)
(20.2459 0 0)
(20.3186 0 0)
(20.3914 0 0)
(20.4642 0 0)
(20.537 0 0)
(20.6097 0 0)
(20.6825 0 0)
(20.7553 0 0)
(20.8281 0 0)
(20.9008 0 0)
(20.9736 0 0)
(21.0464 0 0)
(21.1192 0 0)
(21.1919 0 0)
(21.2647 0 0)
(21.3375 0 0)
(21.4103 0 0)
(21.4831 0 0)
(21.5558 0 0)
(21.6286 0 0)
(21.7014 0 0)
(21.7742 0 0)
(21.847 0 0)
(21.9197 0 0)
(21.9925 0 0)
(22.0653 0 0)
(22.1381 0 0)
(22.2109 0 0)
(22.2837 0 0)
(22.3565 0 0)
(22.4292 0 0)
(22.502 0 0)
(22.5748 0 0)
(22.6476 0 0)
(22.7204 0 0)
(22.7932 0 0)
(22.866 0 0)
(22.9388 0 0)
(23.0116 0 0)
(23.0843 0 0)
(23.1571 0 0)
(23.2299 0 0)
(23.3027 0 0)
(23.3755 0 0)
(23.4483 0 0)
(23.5211 0 0)
(23.5939 0 0)
(23.6667 0 0)
(23.7395 0 0)
(23.8123 0 0)
(23.8851 0 0)
(23.9579 0 0)
(24.0307 0 0)
(24.1035 0 0)
(24.1763 0 0)
(24.2491 0 0)
(24.3219 0 0)
(24.3947 0 0)
(24.4675 0 0)
(24.5403 0 0)
(24.6131 0 0)
(24.6859 0 0)
(24.7587 0 0)
(24.8315 0 0)
(24.9043 0 0)
(24.9771 0 0)
(25.0499 0 0)
(25.1227 0 0)
(25.1956 0 0)
(25.2684 0 0)
(25.3412 0 0)
(25.414 0 0)
(25.4868 0 0)
(25.5596 0 0)
(25.6324 0 0)
(25.7052 0 0)
(25.778 0 0)
(25.8508 0 0)
(25.9237 0 0)
(25.9965 0 0)
(26.0693 0 0)
(26.1421 0 0)
(26.2149 0 0)
(26.2877 0 0)
(26.3606 0 0)
(26.4334 0 0)
(26.5062 0 0)
(26.579 0 0)
(26.6518 0 0)
(26.7246 0 0)
(26.7975 0 0)
(26.8703 0 0)
(26.9431 0 0)
(27.0159 0 0)
(27.0887 0 0)
(27.1616 0 0)
(27.2344 0 0)
(27.3072 0 0)
(27.38 0 0)
(27.4529 0 0)
(27.5257 0 0)
(27.5985 0 0)
(27.6713 0 0)
(27.7442 0 0)
(27.817 0 0)
(27.8898 0 0)
(27.9627 0 0)
(28.0355 0 0)
(28.1083 0 0)
(28.1811 0 0)
(28.254 0 0)
(28.3268 0 0)
(28.3996 0 0)
(28.4725 0 0)
(28.5453 0 0)
(28.6181 0 0)
(28.691 0 0)
(28.7638 0 0)
(28.8366 0 0)
(28.9095 0 0)
(28.9823 0 0)
(29.0552 0 0)
(29.128 0 0)
(29.2008 0 0)
(29.2737 0 0)
(29.3465 0 0)
(29.4193 0 0)
(29.4922 0 0)
(29.565 0 0)
(29.6379 0 0)
(29.7107 0 0)
(29.7836 0 0)
(29.8564 0 0)
(29.9292 0 0)
(30.0021 0 0)
(30.0749 0 0)
(30.1478 0 0)
(30.2206 0 0)
(30.2935 0 0)
(30.3663 0 0)
(30.4392 0 0)
(30.512 0 0)
(30.5849 0 0)
(30.6577 0 0)
(30.7306 0 0)
(30.8034 0 0)
(30.8763 0 0)
(30.9491 0 0)
(31.022 0 0)
(31.0948 0 0)
(31.1677 0 0)
(31.2405 0 0)
(31.3134 0 0)
(31.3862 0 0)
(31.4591 0 0)
(31.5319 0 0)
(31.6048 0 0)
(31.6776 0 0)
(31.7505 0 0)
(31.8234 0 0)
(31.8962 0 0)
(31.9691 0 0)
(32.0419 0 0)
(32.1148 0 0)
(32.1877 0 0)
(32.2605 0 0)
(32.3334 0 0)
(32.4062 0 0)
(32.4791 0 0)
(32.552 0 0)
(32.6248 0 0)
(32.6977 0 0)
(32.7706 0 0)
(32.8434 0 0)
(32.9163 0 0)
(32.9892 0 0)
(33.062 0 0)
(33.1349 0 0)
(33.2078 0 0)
(33.2806 0 0)
(33.3535 0 0)
(33.4264 0 0)
(33.4992 0 0)
(33.5721 0 0)
(33.645 0 0)
(33.7179 0 0)
(33.7907 0 0)
(33.8636 0 0)
(33.9365 0 0)
(34.0094 0 0)
(34.0822 0 0)
(34.1551 0 0)
(34.228 0 0)
(34.3009 0 0)
(34.3737 0 0)
(34.4466 0 0)
(34.5195 0 0)
(34.5924 0 0)
(34.6652 0 0)
(34.7381 0 0)
(34.811 0 0)
(34.8839 0 0)
(34.9568 0 0)
(35.0297 0 0)
(35.1025 0 0)
(35.1754 0 0)
(35.2483 0 0)
(35.3212 0 0)
(35.3941 0 0)
(35.467 0 0)
(35.5398 0 0)
(35.6127 0 0)
(35.6856 0 0)
(35.7585 0 0)
(35.8314 0 0)
(35.9043 0 0)
(35.9772 0 0)
(36.0501 0 0)
(36.1229 0 0)
(36.1958 0 0)
(36.2687 0 0)
(36.3416 0 0)
(36.4145 0 0)
(36.4874 0 0)
(36.5603 0 0)
(36.6332 0 0)
(36.7061 0 0)
(36.779 0 0)
(36.8519 0 0)
(36.9248 0 0)
(36.9977 0 0)
(37.0706 0 0)
(37.1435 0 0)
(37.2164 0 0)
(37.2893 0 0)
(37.3622 0 0)
(37.4351 0 0)
(37.508 0 0)
(37.5809 0 0)
(37.6538 0 0)
(37.7267 0 0)
(37.7996 0 0)
(37.8725 0 0)
(37.9454 0 0)
(38.0183 0 0)
(38.0912 0 0)
(38.1641 0 0)
(38.237 0 0)
(38.3099 0 0)
(38.3828 0 0)
(38.4557 0 0)
(38.5286 0 0)
(38.6015 0 0)
(38.6745 0 0)
(38.7474 0 0)
(38.8203 0 0)
(38.8932 0 0)
(38.9661 0 0)
(39.039 0 0)
(39.1119 0 0)
(39.1848 0 0)
(39.2577 0 0)
(39.3307 0 0)
(39.4036 0 0)
(39.4765 0 0)
(39.5494 0 0)
(39.6223 0 0)
(39.6952 0 0)
(39.7682 0 0)
(39.8411 0 0)
(39.914 0 0)
(39.9869 0 0)
(40.0598 0 0)
(40.1328 0 0)
(40.2057 0 0)
(40.2786 0 0)
(40.3515 0 0)
(40.4244 0 0)
(40.4974 0 0)
(40.5703 0 0)
(40.6432 0 0)
(40.7161 0 0)
(40.7891 0 0)
(40.862 0 0)
(40.9349 0 0)
(41.0079 0 0)
(41.0808 0 0)
(41.1537 0 0)
(41.2266 0 0)
(41.2996 0 0)
(41.3725 0 0)
(41.4454 0 0)
(41.5184 0 0)
(41.5913 0 0)
(41.6642 0 0)
(41.7372 0 0)
(41.8101 0 0)
(41.883 0 0)
(41.956 0 0)
(42.0289 0 0)
(42.1018 0 0)
(42.1748 0 0)
(42.2477 0 0)
(42.3206 0 0)
(42.3936 0 0)
(42.4665 0 0)
(42.5395 0 0)
(42.6124 0 0)
(42.6853 0 0)
(42.7583 0 0)
(42.8312 0 0)
(42.9042 0 0)
(42.9771 0 0)
(43.05 0 0)
(43.123 0 0)
(43.1959 0 0)
(43.2689 0 0)
(43.3418 0 0)
(43.4148 0 0)
(43.4877 0 0)
(43.5607 0 0)
(43.6336 0 0)
(43.7065 0 0)
(43.7795 0 0)
(43.8524 0 0)
(43.9254 0 0)
(43.9983 0 0)
(44.0713 0 0)
(44.1442 0 0)
(44.2172 0 0)
(44.2901 0 0)
(44.3631 0 0)
(44.4361 0 0)
(44.509 0 0)
(44.582 0 0)
(44.6549 0 0)
(44.7279 0 0)
(44.8008 0 0)
(44.8738 0 0)
(44.9467 0 0)
(45.0197 0 0)
(45.0927 0 0)
(45.1656 0 0)
(45.2386 0 0)
(45.3115 0 0)
(45.3845 0 0)
(45.4575 0 0)
(45.5304 0 0)
(45.6034 0 0)
(45.6763 0 0)
(45.7493 0 0)
(45.8223 0 0)
(45.8952 0 0)
(45.9682 0 0)
(46.0412 0 0)
(46.1141 0 0)
(46.1871 0 0)
(46.2601 0 0)
(46.333 0 0)
(46.406 0 0)
(46.479 0 0)
(46.5519 0 0)
(46.6249 0 0)
(46.6979 0 0)
(46.7708 0 0)
(46.8438 0 0)
(46.9168 0 0)
(46.9898 0 0)
(47.0627 0 0)
(47.1357 0 0)
(47.2087 0 0)
(47.2817 0 0)
(47.3546 0 0)
(47.4276 0 0)
(47.5006 0 0)
(47.5736 0 0)
(47.6465 0 0)
(47.7195 0 0)
(47.7925 0 0)
(47.8655 0 0)
(47.9385 0 0)
(48.0114 0 0)
(48.0844 0 0)
(48.1574 0 0)
(48.2304 0 0)
(48.3034 0 0)
(48.3764 0 0)
(48.4493 0 0)
(48.5223 0 0)
(48.5953 0 0)
(48.6683 0 0)
(48.7413 0 0)
(48.8143 0 0)
(48.8872 0 0)
(48.9602 0 0)
(49.0332 0 0)
(49.1062 0 0)
(49.1792 0 0)
(49.2522 0 0)
(49.3252 0 0)
(49.3982 0 0)
(49.4712 0 0)
(49.5442 0 0)
(49.6171 0 0)
(49.6901 0 0)
(49.7631 0 0)
(49.8361 0 0)
(49.9091 0 0)
(49.9821 0 0)
(50.0551 0 0)
(50.1281 0 0)
(50.2011 0 0)
(50.2741 0 0)
(50.3471 0 0)
(50.4201 0 0)
(50.4931 0 0)
(50.5661 0 0)
(50.6391 0 0)
(50.7121 0 0)
(50.7851 0 0)
(50.8581 0 0)
(50.9311 0 0)
(51.0041 0 0)
(51.0771 0 0)
(51.1501 0 0)
(51.2231 0 0)
(51.2961 0 0)
(51.3691 0 0)
(51.4421 0 0)
(51.5151 0 0)
(51.5882 0 0)
(51.6612 0 0)
(51.7342 0 0)
(51.8072 0 0)
(51.8802 0 0)
(51.9532 0 0)
(52.0262 0 0)
(52.0992 0 0)
(52.1722 0 0)
(52.2452 0 0)
(52.3183 0 0)
(52.3913 0 0)
(52.4643 0 0)
(52.5373 0 0)
(52.6103 0 0)
(52.6833 0 0)
(52.7564 0 0)
(52.8294 0 0)
(52.9024 0 0)
(52.9754 0 0)
(53.0484 0 0)
(53.1214 0 0)
(53.1945 0 0)
(53.2675 0 0)
(53.3405 0 0)
(53.4135 0 0)
(53.4865 0 0)
(53.5596 0 0)
(53.6326 0 0)
(53.7056 0 0)
(53.7786 0 0)
(53.8517 0 0)
(53.9247 0 0)
(53.9977 0 0)
(54.0707 0 0)
(54.1438 0 0)
(54.2168 0 0)
(54.2898 0 0)
(54.3629 0 0)
(54.4359 0 0)
(54.5089 0 0)
(54.5819 0 0)
(54.655 0 0)
(54.728 0 0)
(54.801 0 0)
(54.8741 0 0)
(54.9471 0 0)
(55.0201 0 0)
(55.0932 0 0)
(55.1662 0 0)
(55.2392 0 0)
(55.3123 0 0)
(55.3853 0 0)
(55.4583 0 0)
(55.5314 0 0)
(55.6044 0 0)
(55.6775 0 0)
(55.7505 0 0)
(55.8235 0 0)
(55.8966 0 0)
(55.9696 0 0)
(56.0427 0 0)
(56.1157 0 0)
(56.1887 0 0)
(56.2618 0 0)
(56.3348 0 0)
(56.4079 0 0)
(56.4809 0 0)
(56.554 0 0)
(56.627 0 0)
(56.7001 0 0)
(56.7731 0 0)
(56.8462 0 0)
(56.9192 0 0)
(56.9922 0 0)
(57.0653 0 0)
(57.1383 0 0)
(57.2114 0 0)
(57.2844 0 0)
(57.3575 0 0)
(57.4306 0 0)
(57.5036 0 0)
(57.5767 0 0)
(57.6497 0 0)
(57.7228 0 0)
(57.7958 0 0)
(57.8689 0 0)
(57.9419 0 0)
(58.015 0 0)
(58.088 0 0)
(58.1611 0 0)
(58.2342 0 0)
(58.3072 0 0)
(58.3803 0 0)
(58.4533 0 0)
(58.5264 0 0)
(58.5995 0 0)
(58.6725 0 0)
(58.7456 0 0)
(58.8186 0 0)
(58.8917 0 0)
(58.9648 0 0)
(59.0378 0 0)
(59.1109 0 0)
(59.184 0 0)
(59.257 0 0)
(59.3301 0 0)
(59.4032 0 0)
(59.4762 0 0)
(59.5493 0 0)
(59.6224 0 0)
(59.6954 0 0)
(59.7685 0 0)
(59.8416 0 0)
(59.9146 0 0)
(59.9877 0 0)
(60.0608 0 0)
(60.1339 0 0)
(60.2069 0 0)
(60.28 0 0)
(60.3531 0 0)
(60.4261 0 0)
(60.4992 0 0)
(60.5723 0 0)
(60.6454 0 0)
(60.7185 0 0)
(60.7915 0 0)
(60.8646 0 0)
(60.9377 0 0)
(61.0108 0 0)
(61.0838 0 0)
(61.1569 0 0)
(61.23 0 0)
(61.3031 0 0)
(61.3762 0 0)
(61.4492 0 0)
(61.5223 0 0)
(61.5954 0 0)
(61.6685 0 0)
(61.7416 0 0)
(61.8147 0 0)
(61.8878 0 0)
(61.9608 0 0)
(62.0339 0 0)
(62.107 0 0)
(62.1801 0 0)
(62.2532 0 0)
(62.3263 0 0)
(62.3994 0 0)
(62.4725 0 0)
(62.5455 0 0)
(62.6186 0 0)
(62.6917 0 0)
(62.7648 0 0)
(62.8379 0 0)
(62.911 0 0)
(62.9841 0 0)
(63.0572 0 0)
(63.1303 0 0)
(63.2034 0 0)
(63.2765 0 0)
(63.3496 0 0)
(63.4227 0 0)
(63.4958 0 0)
(63.5689 0 0)
(63.642 0 0)
(63.7151 0 0)
(63.7882 0 0)
(63.8613 0 0)
(63.9344 0 0)
(64.0075 0 0)
(64.0806 0 0)
(64.1537 0 0)
(64.2268 0 0)
(64.2999 0 0)
(64.373 0 0)
(64.4461 0 0)
(64.5192 0 0)
(64.5923 0 0)
(64.6654 0 0)
(64.7385 0 0)
(64.8116 0 0)
(64.8847 0 0)
(64.9578 0 0)
(65.0309 0 0)
(65.1041 0 0)
(65.1772 0 0)
(65.2503 0 0)
(65.3234 0 0)
(65.3965 0 0)
(65.4696 0 0)
(65.5427 0 0)
(65.6158 0 0)
(65.689 0 0)
(65.7621 0 0)
(65.8352 0 0)
(65.9083 0 0)
(65.9814 0 0)
(66.0545 0 0)
(66.1276 0 0)
(66.2008 0 0)
(66.2739 0 0)
(66.347 0 0)
(66.4201 0 0)
(66.4932 0 0)
(66.5664 0 0)
(66.6395 0 0)
(66.7126 0 0)
(66.7857 0 0)
(66.8588 0 0)
(66.932 0 0)
(67.0051 0 0)
(67.0782 0 0)
(67.1513 0 0)
(67.2245 0 0)
(67.2976 0 0)
(67.3707 0 0)
(67.4439 0 0)
(67.517 0 0)
(67.5901 0 0)
(67.6632 0 0)
(67.7364 0 0)
(67.8095 0 0)
(67.8826 0 0)
(67.9558 0 0)
(68.0289 0 0)
(68.102 0 0)
(68.1752 0 0)
(68.2483 0 0)
(68.3214 0 0)
(68.3946 0 0)
(68.4677 0 0)
(68.5408 0 0)
(68.614 0 0)
(68.6871 0 0)
(68.7602 0 0)
(68.8334 0 0)
(68.9065 0 0)
(68.9797 0 0)
(69.0528 0 0)
(69.1259 0 0)
(69.1991 0 0)
(69.2722 0 0)
(69.3454 0 0)
(69.4185 0 0)
(69.4916 0 0)
(69.5648 0 0)
(69.6379 0 0)
(69.7111 0 0)
(69.7842 0 0)
(69.8574 0 0)
(69.9305 0 0)
(70.0037 0 0)
(70.0768 0 0)
(70.1499 0 0)
(70.2231 0 0)
(70.2962 0 0)
(70.3694 0 0)
(70.4425 0 0)
(70.5157 0 0)
(70.5888 0 0)
(70.662 0 0)
(70.7351 0 0)
(70.8083 0 0)
(70.8815 0 0)
(70.9546 0 0)
(71.0278 0 0)
(71.1009 0 0)
(71.1741 0 0)
(71.2472 0 0)
(71.3204 0 0)
(71.3935 0 0)
(71.4667 0 0)
(71.5399 0 0)
(71.613 0 0)
(71.6862 0 0)
(71.7593 0 0)
(71.8325 0 0)
(71.9057 0 0)
(71.9788 0 0)
(72.052 0 0)
(72.1251 0 0)
(72.1983 0 0)
(72.2715 0 0)
(72.3446 0 0)
(72.4178 0 0)
(72.491 0 0)
(72.5641 0 0)
(72.6373 0 0)
(72.7105 0 0)
(72.7836 0 0)
(72.8568 0 0)
(72.93 0 0)
(73.0031 0 0)
(73.0763 0 0)
(73.1495 0 0)
(73.2226 0 0)
(73.2958 0 0)
(73.369 0 0)
(73.4422 0 0)
(73.5153 0 0)
(73.5885 0 0)
(73.6617 0 0)
(73.7349 0 0)
(73.808 0 0)
(73.8812 0 0)
(73.9544 0 0)
(74.0276 0 0)
(74.1007 0 0)
(74.1739 0 0)
(74.2471 0 0)
(74.3203 0 0)
(74.3934 0 0)
(74.4666 0 0)
(74.5398 0 0)
(74.613 0 0)
(74.6862 0 0)
(74.7594 0 0)
(74.8325 0 0)
(74.9057 0 0)
(74.9789 0 0)
(75.0521 0 0)
(75.1253 0 0)
(75.1985 0 0)
(75.2716 0 0)
(75.3448 0 0)
(75.418 0 0)
(75.4912 0 0)
(75.5644 0 0)
(75.6376 0 0)
(75.7108 0 0)
(75.784 0 0)
(75.8572 0 0)
(75.9303 0 0)
(76.0035 0 0)
(76.0767 0 0)
(76.1499 0 0)
(76.2231 0 0)
(76.2963 0 0)
(76.3695 0 0)
(76.4427 0 0)
(76.5159 0 0)
(76.5891 0 0)
(76.6623 0 0)
(76.7355 0 0)
(76.8087 0 0)
(76.8819 0 0)
(76.9551 0 0)
(77.0283 0 0)
(77.1015 0 0)
(77.1747 0 0)
(77.2479 0 0)
(77.3211 0 0)
(77.3943 0 0)
(77.4675 0 0)
(77.5407 0 0)
(77.6139 0 0)
(77.6871 0 0)
(77.7603 0 0)
(77.8335 0 0)
(77.9067 0 0)
(77.9799 0 0)
(78.0531 0 0)
(78.1263 0 0)
(78.1995 0 0)
(78.2727 0 0)
(78.346 0 0)
(78.4192 0 0)
(78.4924 0 0)
(78.5656 0 0)
(78.6388 0 0)
(78.712 0 0)
(78.7852 0 0)
(78.8584 0 0)
(78.9317 0 0)
(79.0049 0 0)
(79.0781 0 0)
(79.1513 0 0)
(79.2245 0 0)
(79.2977 0 0)
(79.3709 0 0)
(79.4442 0 0)
(79.5174 0 0)
(79.5906 0 0)
(79.6638 0 0)
(79.737 0 0)
(79.8103 0 0)
(79.8835 0 0)
(79.9567 0 0)
(80.0299 0 0)
(80.1031 0 0)
(80.1764 0 0)
(80.2496 0 0)
(80.3228 0 0)
(80.396 0 0)
(80.4693 0 0)
(80.5425 0 0)
(80.6157 0 0)
(80.6889 0 0)
(80.7622 0 0)
(80.8354 0 0)
(80.9086 0 0)
(80.9819 0 0)
(81.0551 0 0)
(81.1283 0 0)
(81.2015 0 0)
(81.2748 0 0)
(81.348 0 0)
(81.4212 0 0)
(81.4945 0 0)
(81.5677 0 0)
(81.6409 0 0)
(81.7142 0 0)
(81.7874 0 0)
(81.8606 0 0)
(81.9339 0 0)
(82.0071 0 0)
(82.0804 0 0)
(82.1536 0 0)
(82.2268 0 0)
(82.3001 0 0)
(82.3733 0 0)
(82.4466 0 0)
(82.5198 0 0)
(82.593 0 0)
(82.6663 0 0)
(82.7395 0 0)
(82.8128 0 0)
(82.886 0 0)
(82.9592 0 0)
(83.0325 0 0)
(83.1057 0 0)
(83.179 0 0)
(83.2522 0 0)
(83.3255 0 0)
(83.3987 0 0)
(83.472 0 0)
(83.5452 0 0)
(83.6185 0 0)
(83.6917 0 0)
(83.765 0 0)
(83.8382 0 0)
(83.9115 0 0)
(83.9847 0 0)
(84.058 0 0)
(84.1312 0 0)
(84.2045 0 0)
(84.2777 0 0)
(84.351 0 0)
(84.4242 0 0)
(84.4975 0 0)
(84.5708 0 0)
(84.644 0 0)
(84.7173 0 0)
(84.7905 0 0)
(84.8638 0 0)
(84.937 0 0)
(85.0103 0 0)
(85.0836 0 0)
(85.1568 0 0)
(85.2301 0 0)
(85.3033 0 0)
(85.3766 0 0)
(85.4499 0 0)
(85.5231 0 0)
(85.5964 0 0)
(85.6697 0 0)
(85.7429 0 0)
(85.8162 0 0)
(85.8895 0 0)
(85.9627 0 0)
(86.036 0 0)
(86.1093 0 0)
(86.1825 0 0)
(86.2558 0 0)
(86.3291 0 0)
(86.4023 0 0)
(86.4756 0 0)
(86.5489 0 0)
(86.6221 0 0)
(86.6954 0 0)
(86.7687 0 0)
(86.842 0 0)
(86.9152 0 0)
(86.9885 0 0)
(87.0618 0 0)
(87.1351 0 0)
(87.2083 0 0)
(87.2816 0 0)
(87.3549 0 0)
(87.4282 0 0)
(87.5014 0 0)
(87.5747 0 0)
(87.648 0 0)
(87.7213 0 0)
(87.7946 0 0)
(87.8678 0 0)
(87.9411 0 0)
(88.0144 0 0)
(88.0877 0 0)
(88.161 0 0)
(88.2343 0 0)
(88.3075 0 0)
(88.3808 0 0)
(88.4541 0 0)
(88.5274 0 0)
(88.6007 0 0)
(88.674 0 0)
(88.7473 0 0)
(88.8205 0 0)
(88.8938 0 0)
(88.9671 0 0)
(89.0404 0 0)
(89.1137 0 0)
(89.187 0 0)
(89.2603 0 0)
(89.3336 0 0)
(89.4069 0 0)
(89.4802 0 0)
(89.5535 0 0)
(89.6268 0 0)
(89.7 0 0)
(89.7733 0 0)
(89.8466 0 0)
(89.9199 0 0)
(89.9932 0 0)
(90.0665 0 0)
(90.1398 0 0)
(90.2131 0 0)
(90.2864 0 0)
(90.3597 0 0)
(90.433 0 0)
(90.5063 0 0)
(90.5796 0 0)
(90.6529 0 0)
(90.7262 0 0)
(90.7995 0 0)
(90.8728 0 0)
(90.9461 0 0)
(91.0194 0 0)
(91.0927 0 0)
(91.1661 0 0)
(91.2394 0 0)
(91.3127 0 0)
(91.386 0 0)
(91.4593 0 0)
(91.5326 0 0)
(91.6059 0 0)
(91.6792 0 0)
(91.7525 0 0)
(91.8258 0 0)
(91.8991 0 0)
(91.9725 0 0)
(92.0458 0 0)
(92.1191 0 0)
(92.1924 0 0)
(92.2657 0 0)
(92.339 0 0)
(92.4123 0 0)
(92.4857 0 0)
(92.559 0 0)
(92.6323 0 0)
(92.7056 0 0)
(92.7789 0 0)
(92.8522 0 0)
(92.9256 0 0)
(92.9989 0 0)
(93.0722 0 0)
(93.1455 0 0)
(93.2188 0 0)
(93.2922 0 0)
(93.3655 0 0)
(93.4388 0 0)
(93.5121 0 0)
(93.5855 0 0)
(93.6588 0 0)
(93.7321 0 0)
(93.8054 0 0)
(93.8788 0 0)
(93.9521 0 0)
(94.0254 0 0)
(94.0987 0 0)
(94.1721 0 0)
(94.2454 0 0)
(94.3187 0 0)
(94.3921 0 0)
(94.4654 0 0)
(94.5387 0 0)
(94.6121 0 0)
(94.6854 0 0)
(94.7587 0 0)
(94.832 0 0)
(94.9054 0 0)
(94.9787 0 0)
(95.0521 0 0)
(95.1254 0 0)
(95.1987 0 0)
(95.2721 0 0)
(95.3454 0 0)
(95.4187 0 0)
(95.4921 0 0)
(95.5654 0 0)
(95.6388 0 0)
(95.7121 0 0)
(95.7854 0 0)
(95.8588 0 0)
(95.9321 0 0)
(96.0055 0 0)
(96.0788 0 0)
(96.1521 0 0)
(96.2255 0 0)
(96.2988 0 0)
(96.3722 0 0)
(96.4455 0 0)
(96.5189 0 0)
(96.5922 0 0)
(96.6656 0 0)
(96.7389 0 0)
(96.8123 0 0)
(96.8856 0 0)
(96.959 0 0)
(97.0323 0 0)
(97.1057 0 0)
(97.179 0 0)
(97.2524 0 0)
(97.3257 0 0)
(97.3991 0 0)
(97.4724 0 0)
(97.5458 0 0)
(97.6191 0 0)
(97.6925 0 0)
(97.7658 0 0)
(97.8392 0 0)
(97.9126 0 0)
(97.9859 0 0)
(98.0593 0 0)
(98.1326 0 0)
(98.206 0 0)
(98.2793 0 0)
(98.3527 0 0)
(98.4261 0 0)
(98.4994 0 0)
(98.5728 0 0)
(98.6462 0 0)
(98.7195 0 0)
(98.7929 0 0)
(98.8662 0 0)
(98.9396 0 0)
(99.013 0 0)
(99.0863 0 0)
(99.1597 0 0)
(99.2331 0 0)
(99.3064 0 0)
(99.3798 0 0)
(99.4532 0 0)
(99.5265 0 0)
(99.5999 0 0)
(99.6733 0 0)
(99.7467 0 0)
(99.82 0 0)
(99.8934 0 0)
(99.9668 0 0)
(100.04 0 0)
(100.114 0 0)
(100.187 0 0)
(100.26 0 0)
(100.334 0 0)
(100.407 0 0)
(100.48 0 0)
(100.554 0 0)
(100.627 0 0)
(100.701 0 0)
(100.774 0 0)
(100.847 0 0)
(100.921 0 0)
(100.994 0 0)
(101.067 0 0)
(101.141 0 0)
(101.214 0 0)
(101.288 0 0)
(101.361 0 0)
(101.434 0 0)
(101.508 0 0)
(101.581 0 0)
(101.654 0 0)
(101.728 0 0)
(101.801 0 0)
(101.875 0 0)
(101.948 0 0)
(102.021 0 0)
(102.095 0 0)
(102.168 0 0)
(102.242 0 0)
(102.315 0 0)
(102.388 0 0)
(102.462 0 0)
(102.535 0 0)
(102.609 0 0)
(102.682 0 0)
(102.755 0 0)
(102.829 0 0)
(102.902 0 0)
(102.976 0 0)
(103.049 0 0)
(103.122 0 0)
(103.196 0 0)
(103.269 0 0)
(103.343 0 0)
(103.416 0 0)
(103.489 0 0)
(103.563 0 0)
(103.636 0 0)
(103.71 0 0)
(103.783 0 0)
(103.856 0 0)
(103.93 0 0)
(104.003 0 0)
(104.077 0 0)
(104.15 0 0)
(104.223 0 0)
(104.297 0 0)
(104.37 0 0)
(104.444 0 0)
(104.517 0 0)
(104.59 0 0)
(104.664 0 0)
(104.737 0 0)
(104.811 0 0)
(104.884 0 0)
(104.957 0 0)
(105.031 0 0)
(105.104 0 0)
(105.178 0 0)
(105.251 0 0)
(105.324 0 0)
(105.398 0 0)
(105.471 0 0)
(105.545 0 0)
(105.618 0 0)
(105.692 0 0)
(105.765 0 0)
(105.838 0 0)
(105.912 0 0)
(105.985 0 0)
(106.059 0 0)
(106.132 0 0)
(106.205 0 0)
(106.279 0 0)
(106.352 0 0)
(106.426 0 0)
(106.499 0 0)
(106.573 0 0)
(106.646 0 0)
(106.719 0 0)
(106.793 0 0)
(106.866 0 0)
(106.94 0 0)
(107.013 0 0)
(107.087 0 0)
(107.16 0 0)
(107.233 0 0)
(107.307 0 0)
(107.38 0 0)
(107.454 0 0)
(107.527 0 0)
(107.601 0 0)
(107.674 0 0)
(107.747 0 0)
(107.821 0 0)
(107.894 0 0)
(107.968 0 0)
(108.041 0 0)
(108.115 0 0)
(108.188 0 0)
(108.261 0 0)
(108.335 0 0)
(108.408 0 0)
(108.482 0 0)
(108.555 0 0)
(108.629 0 0)
(108.702 0 0)
(108.776 0 0)
(108.849 0 0)
(108.922 0 0)
(108.996 0 0)
(109.069 0 0)
(109.143 0 0)
(109.216 0 0)
(109.29 0 0)
(109.363 0 0)
(109.436 0 0)
(109.51 0 0)
(109.583 0 0)
(109.657 0 0)
(109.73 0 0)
(109.804 0 0)
(109.877 0 0)
(109.951 0 0)
(110.024 0 0)
(110.098 0 0)
(110.171 0 0)
(110.244 0 0)
(110.318 0 0)
(110.391 0 0)
(110.465 0 0)
(110.538 0 0)
(110.612 0 0)
(110.685 0 0)
(110.759 0 0)
(110.832 0 0)
(110.905 0 0)
(110.979 0 0)
(111.052 0 0)
(111.126 0 0)
(111.199 0 0)
(111.273 0 0)
(111.346 0 0)
(111.42 0 0)
(111.493 0 0)
(111.567 0 0)
(111.64 0 0)
(111.714 0 0)
(111.787 0 0)
(111.86 0 0)
(111.934 0 0)
(112.007 0 0)
(112.081 0 0)
(112.154 0 0)
(112.228 0 0)
(112.301 0 0)
(112.375 0 0)
(112.448 0 0)
(112.522 0 0)
(112.595 0 0)
(112.669 0 0)
(112.742 0 0)
(112.816 0 0)
(112.889 0 0)
(112.962 0 0)
(113.036 0 0)
(113.109 0 0)
(113.183 0 0)
(113.256 0 0)
(113.33 0 0)
(113.403 0 0)
(113.477 0 0)
(113.55 0 0)
(113.624 0 0)
(113.697 0 0)
(113.771 0 0)
(113.844 0 0)
(113.918 0 0)
(113.991 0 0)
(114.065 0 0)
(114.138 0 0)
(114.212 0 0)
(114.285 0 0)
(114.359 0 0)
(114.432 0 0)
(114.505 0 0)
(114.579 0 0)
(114.652 0 0)
(114.726 0 0)
(114.799 0 0)
(114.873 0 0)
(114.946 0 0)
(115.02 0 0)
(115.093 0 0)
(115.167 0 0)
(115.24 0 0)
(115.314 0 0)
(115.387 0 0)
(115.461 0 0)
(115.534 0 0)
(115.608 0 0)
(115.681 0 0)
(115.755 0 0)
(115.828 0 0)
(115.902 0 0)
(115.975 0 0)
(116.049 0 0)
(116.122 0 0)
(116.196 0 0)
(116.269 0 0)
(116.343 0 0)
(116.416 0 0)
(116.49 0 0)
(116.563 0 0)
(116.637 0 0)
(116.71 0 0)
(116.784 0 0)
(116.857 0 0)
(116.931 0 0)
(117.004 0 0)
(117.078 0 0)
(117.151 0 0)
(117.225 0 0)
(117.298 0 0)
(117.372 0 0)
(117.445 0 0)
(117.519 0 0)
(117.592 0 0)
(117.666 0 0)
(117.739 0 0)
(117.813 0 0)
(117.886 0 0)
(117.96 0 0)
(118.033 0 0)
(118.107 0 0)
(118.18 0 0)
(118.254 0 0)
(118.327 0 0)
(118.401 0 0)
(118.474 0 0)
(118.548 0 0)
(118.621 0 0)
(118.695 0 0)
(118.768 0 0)
(118.842 0 0)
(118.915 0 0)
(118.989 0 0)
(119.062 0 0)
(119.136 0 0)
(119.21 0 0)
(119.283 0 0)
(119.357 0 0)
(119.43 0 0)
(119.504 0 0)
(119.577 0 0)
(119.651 0 0)
(119.724 0 0)
(119.798 0 0)
(119.871 0 0)
(119.945 0 0)
(120.018 0 0)
(120.092 0 0)
(120.165 0 0)
(120.239 0 0)
(120.312 0 0)
(120.386 0 0)
(120.459 0 0)
(120.533 0 0)
(120.606 0 0)
(120.68 0 0)
(120.754 0 0)
(120.827 0 0)
(120.901 0 0)
(120.974 0 0)
(121.048 0 0)
(121.121 0 0)
(121.195 0 0)
(121.268 0 0)
(121.342 0 0)
(121.415 0 0)
(121.489 0 0)
(121.562 0 0)
(121.636 0 0)
(121.709 0 0)
(121.783 0 0)
(121.857 0 0)
(121.93 0 0)
(122.004 0 0)
(122.077 0 0)
(122.151 0 0)
(122.224 0 0)
(122.298 0 0)
(122.371 0 0)
(122.445 0 0)
(122.518 0 0)
(122.592 0 0)
(122.666 0 0)
(122.739 0 0)
(122.813 0 0)
(122.886 0 0)
(122.96 0 0)
(123.033 0 0)
(123.107 0 0)
(123.18 0 0)
(123.254 0 0)
(123.327 0 0)
(123.401 0 0)
(123.475 0 0)
(123.548 0 0)
(123.622 0 0)
(123.695 0 0)
(123.769 0 0)
(123.842 0 0)
(123.916 0 0)
(123.989 0 0)
(124.063 0 0)
(124.137 0 0)
(124.21 0 0)
(124.284 0 0)
(124.357 0 0)
(124.431 0 0)
(124.504 0 0)
(124.578 0 0)
(124.651 0 0)
(124.725 0 0)
(124.799 0 0)
(124.872 0 0)
(124.946 0 0)
(125.019 0 0)
(125.093 0 0)
(125.166 0 0)
(125.24 0 0)
(125.314 0 0)
(125.387 0 0)
(125.461 0 0)
(125.534 0 0)
(125.608 0 0)
(125.681 0 0)
(125.755 0 0)
(125.828 0 0)
(125.902 0 0)
(125.976 0 0)
(126.049 0 0)
(126.123 0 0)
(126.196 0 0)
(126.27 0 0)
(126.343 0 0)
(126.417 0 0)
(126.491 0 0)
(126.564 0 0)
(126.638 0 0)
(126.711 0 0)
(126.785 0 0)
(126.859 0 0)
(126.932 0 0)
(127.006 0 0)
(127.079 0 0)
(127.153 0 0)
(127.226 0 0)
(127.3 0 0)
(127.374 0 0)
(127.447 0 0)
(127.521 0 0)
(127.594 0 0)
(127.668 0 0)
(127.741 0 0)
(127.815 0 0)
(127.889 0 0)
(127.962 0 0)
(128.036 0 0)
(128.109 0 0)
(128.183 0 0)
(128.257 0 0)
(128.33 0 0)
(128.404 0 0)
(128.477 0 0)
(128.551 0 0)
(128.625 0 0)
(128.698 0 0)
(128.772 0 0)
(128.845 0 0)
(128.919 0 0)
(128.992 0 0)
(129.066 0 0)
(129.14 0 0)
(129.213 0 0)
(129.287 0 0)
(129.36 0 0)
(129.434 0 0)
(129.508 0 0)
(129.581 0 0)
(129.655 0 0)
(129.728 0 0)
(129.802 0 0)
(129.876 0 0)
(129.949 0 0)
(130.023 0 0)
(130.096 0 0)
(130.17 0 0)
(130.244 0 0)
(130.317 0 0)
(130.391 0 0)
(130.464 0 0)
(130.538 0 0)
(130.612 0 0)
(130.685 0 0)
(130.759 0 0)
(130.832 0 0)
(130.906 0 0)
(130.98 0 0)
(131.053 0 0)
(131.127 0 0)
(131.201 0 0)
(131.274 0 0)
(131.348 0 0)
(131.421 0 0)
(131.495 0 0)
(131.569 0 0)
(131.642 0 0)
(131.716 0 0)
(131.789 0 0)
(131.863 0 0)
(131.937 0 0)
(132.01 0 0)
(132.084 0 0)
(132.157 0 0)
(132.231 0 0)
(132.305 0 0)
(132.378 0 0)
(132.452 0 0)
(132.526 0 0)
(132.599 0 0)
(132.673 0 0)
(132.746 0 0)
(132.82 0 0)
(132.894 0 0)
(132.967 0 0)
(133.041 0 0)
(133.115 0 0)
(133.188 0 0)
(133.262 0 0)
(133.335 0 0)
(133.409 0 0)
(133.483 0 0)
(133.556 0 0)
(133.63 0 0)
(133.704 0 0)
(133.777 0 0)
(133.851 0 0)
(133.924 0 0)
(133.998 0 0)
(134.072 0 0)
(134.145 0 0)
(134.219 0 0)
(134.293 0 0)
(134.366 0 0)
(134.44 0 0)
(134.514 0 0)
(134.587 0 0)
(134.661 0 0)
(134.734 0 0)
(134.808 0 0)
(134.882 0 0)
(134.955 0 0)
(135.029 0 0)
(135.103 0 0)
(135.176 0 0)
(135.25 0 0)
(135.324 0 0)
(135.397 0 0)
(135.471 0 0)
(135.544 0 0)
(135.618 0 0)
(135.692 0 0)
(135.765 0 0)
(135.839 0 0)
(135.913 0 0)
(135.986 0 0)
(136.06 0 0)
(136.134 0 0)
(136.207 0 0)
(136.281 0 0)
(136.355 0 0)
(136.428 0 0)
(136.502 0 0)
(136.576 0 0)
(136.649 0 0)
(136.723 0 0)
(136.796 0 0)
(136.87 0 0)
(136.944 0 0)
(137.017 0 0)
(137.091 0 0)
(137.165 0 0)
(137.238 0 0)
(137.312 0 0)
(137.386 0 0)
(137.459 0 0)
(137.533 0 0)
(137.607 0 0)
(137.68 0 0)
(137.754 0 0)
(137.828 0 0)
(137.901 0 0)
(137.975 0 0)
(138.049 0 0)
(138.122 0 0)
(138.196 0 0)
(138.27 0 0)
(138.343 0 0)
(138.417 0 0)
(138.491 0 0)
(138.564 0 0)
(138.638 0 0)
(138.712 0 0)
(138.785 0 0)
(138.859 0 0)
(138.933 0 0)
(139.006 0 0)
(139.08 0 0)
(139.154 0 0)
(139.227 0 0)
(139.301 0 0)
(139.375 0 0)
(139.448 0 0)
(139.522 0 0)
(139.596 0 0)
(139.669 0 0)
(139.743 0 0)
(139.817 0 0)
(139.89 0 0)
(139.964 0 0)
(140.038 0 0)
(140.111 0 0)
(140.185 0 0)
(140.259 0 0)
(140.332 0 0)
(140.406 0 0)
(140.48 0 0)
(140.553 0 0)
(140.627 0 0)
(140.701 0 0)
(140.775 0 0)
(140.848 0 0)
(140.922 0 0)
(140.996 0 0)
(141.069 0 0)
(141.143 0 0)
(141.217 0 0)
(141.29 0 0)
(141.364 0 0)
(141.438 0 0)
(141.511 0 0)
(141.585 0 0)
(141.659 0 0)
(141.732 0 0)
(141.806 0 0)
(141.88 0 0)
(141.954 0 0)
(142.027 0 0)
(142.101 0 0)
(142.175 0 0)
(142.248 0 0)
(142.322 0 0)
(142.396 0 0)
(142.469 0 0)
(142.543 0 0)
(142.617 0 0)
(142.69 0 0)
(142.764 0 0)
(142.838 0 0)
(142.912 0 0)
(142.985 0 0)
(143.059 0 0)
(143.133 0 0)
(143.206 0 0)
(143.28 0 0)
(143.354 0 0)
(143.427 0 0)
(143.501 0 0)
(143.575 0 0)
(143.649 0 0)
(143.722 0 0)
(143.796 0 0)
(143.87 0 0)
(143.943 0 0)
(144.017 0 0)
(144.091 0 0)
(144.165 0 0)
(144.238 0 0)
(144.312 0 0)
(144.386 0 0)
(144.459 0 0)
(144.533 0 0)
(144.607 0 0)
(144.68 0 0)
(144.754 0 0)
(144.828 0 0)
(144.902 0 0)
(144.975 0 0)
(145.049 0 0)
(145.123 0 0)
(145.196 0 0)
(145.27 0 0)
(145.344 0 0)
(145.418 0 0)
(145.491 0 0)
(145.565 0 0)
(145.639 0 0)
(145.712 0 0)
(145.786 0 0)
(145.86 0 0)
(145.934 0 0)
(146.007 0 0)
(146.081 0 0)
(146.155 0 0)
(146.229 0 0)
(146.302 0 0)
(146.376 0 0)
(146.45 0 0)
(146.523 0 0)
(146.597 0 0)
(146.671 0 0)
(146.745 0 0)
(146.818 0 0)
(146.892 0 0)
(146.966 0 0)
(147.04 0 0)
(147.113 0 0)
(147.187 0 0)
(147.261 0 0)
(147.334 0 0)
(147.408 0 0)
(147.482 0 0)
(147.556 0 0)
(147.629 0 0)
(147.703 0 0)
(147.777 0 0)
(147.851 0 0)
(147.924 0 0)
(147.998 0 0)
(148.072 0 0)
(148.146 0 0)
(148.219 0 0)
(148.293 0 0)
(148.367 0 0)
(148.44 0 0)
(148.514 0 0)
(148.588 0 0)
(148.662 0 0)
(148.735 0 0)
(148.809 0 0)
(148.883 0 0)
(148.957 0 0)
(149.03 0 0)
(149.104 0 0)
(149.178 0 0)
(149.252 0 0)
(149.325 0 0)
(149.399 0 0)
(149.473 0 0)
(149.547 0 0)
(149.62 0 0)
(149.694 0 0)
(149.768 0 0)
(149.842 0 0)
(149.915 0 0)
(149.989 0 0)
(150.063 0 0)
(150.137 0 0)
(150.21 0 0)
(150.284 0 0)
(150.358 0 0)
(150.432 0 0)
(150.505 0 0)
(150.579 0 0)
(150.653 0 0)
(150.727 0 0)
(150.8 0 0)
(150.874 0 0)
(150.948 0 0)
(151.022 0 0)
(151.095 0 0)
(151.169 0 0)
(151.243 0 0)
(151.317 0 0)
(151.391 0 0)
(151.464 0 0)
(151.538 0 0)
(151.612 0 0)
(151.686 0 0)
(151.759 0 0)
(151.833 0 0)
(151.907 0 0)
(151.981 0 0)
(152.054 0 0)
(152.128 0 0)
(152.202 0 0)
(152.276 0 0)
(152.349 0 0)
(152.423 0 0)
(152.497 0 0)
(152.571 0 0)
(152.645 0 0)
(152.718 0 0)
(152.792 0 0)
(152.866 0 0)
(152.94 0 0)
(153.013 0 0)
(153.087 0 0)
(153.161 0 0)
(153.235 0 0)
(153.309 0 0)
(153.382 0 0)
(153.456 0 0)
(153.53 0 0)
(153.604 0 0)
(153.677 0 0)
(153.751 0 0)
(153.825 0 0)
(153.899 0 0)
(153.973 0 0)
(154.046 0 0)
(154.12 0 0)
(154.194 0 0)
(154.268 0 0)
(154.341 0 0)
(154.415 0 0)
(154.489 0 0)
(154.563 0 0)
(154.637 0 0)
(154.71 0 0)
(154.784 0 0)
(154.858 0 0)
(154.932 0 0)
(155.006 0 0)
(155.079 0 0)
(155.153 0 0)
(155.227 0 0)
(155.301 0 0)
(155.374 0 0)
(155.448 0 0)
(155.522 0 0)
(155.596 0 0)
(155.67 0 0)
(155.743 0 0)
(155.817 0 0)
(155.891 0 0)
(155.965 0 0)
(156.039 0 0)
(156.112 0 0)
(156.186 0 0)
(156.26 0 0)
(156.334 0 0)
(156.408 0 0)
(156.481 0 0)
(156.555 0 0)
(156.629 0 0)
(156.703 0 0)
(156.777 0 0)
(156.85 0 0)
(156.924 0 0)