/*--------------------------------*- C++ -*----------------------------------*\
  =========                 |
  \\      /  F ield         | OpenFOAM: The Open Source CFD Toolbox
   \\    /   O peration     | Website:  https://openfoam.org
    \\  /    A nd           | Version:  9
     \\/     M anipulation  |
\*---------------------------------------------------------------------------*/
FoamFile
{
    format      ascii;
    class       volVectorField;
    location    "0.029";
    object      ddt0(rho,U);
}
// * * * * * * * * * * * * * * * * * * * * * * * * * * * * * * * * * * * * * //

dimensions      [1 -2 -2 0 0 0 0];

internalField   nonuniform List<vector> 
100
(
(-301.79 0 0)
(-474.93 0 0)
(-613.767 0 0)
(-699.881 0 0)
(-814.546 0 0)
(-931.96 0 0)
(-1049.98 0 0)
(-1166.48 0 0)
(-1278.03 0 0)
(-1389.04 0 0)
(-1494.38 0 0)
(-1610.17 0 0)
(-1715.52 0 0)
(-1820.74 0 0)
(-1938.77 0 0)
(-2040.9 0 0)
(-2136.53 0 0)
(-2252.8 0 0)
(-2367.12 0 0)
(-2455.56 0 0)
(-2544.74 0 0)
(-2659.69 0 0)
(-2782.05 0 0)
(-2874.89 0 0)
(-2947.99 0 0)
(-3042.94 0 0)
(-3160.57 0 0)
(-3287.44 0 0)
(-3364.71 0 0)
(-3431.48 0 0)
(-3527.37 0 0)
(-3643.67 0 0)
(-3768.74 0 0)
(-3843.33 0 0)
(-3910.12 0 0)
(-4011.59 0 0)
(-4109.03 0 0)
(-4266.55 0 0)
(-4327.45 0 0)
(-4398.35 0 0)
(-4468.96 0 0)
(-4537.08 0 0)
(-4640.15 0 0)
(-4719.81 0 0)
(-4854.98 0 0)
(-4946.38 0 0)
(-5081.42 0 0)
(-5123.79 0 0)
(-5130.61 0 0)
(-5272.8 0 0)
(-5392.01 0 0)
(-5463.4 0 0)
(-5580.65 0 0)
(-5748.73 0 0)
(-5962.38 0 0)
(-6192.33 0 0)
(-6417.87 0 0)
(-6599.64 0 0)
(-6686.82 0 0)
(-6714.42 0 0)
(-6745.82 0 0)
(-6823.73 0 0)
(-6896.88 0 0)
(-6925.57 0 0)
(-6925.04 0 0)
(-6951.49 0 0)
(-7015.84 0 0)
(-7066.35 0 0)
(-7058.26 0 0)
(-6951.51 0 0)
(-6779.63 0 0)
(-6600.38 0 0)
(-6352.93 0 0)
(-5979.23 0 0)
(-5362.09 0 0)
(-4261.13 0 0)
(-1863.83 0 0)
(3902.28 0 0)
(-17006.9 0 0)
(-14275.3 0 0)
(-5529.05 0 0)
(-4469 0 0)
(-3884.11 0 0)
(-3388.15 0 0)
(-2762.83 0 0)
(-2161.89 0 0)
(-1086.4 0 0)
(4227.81 0 0)
(1422.33 0 0)
(-17818.3 0 0)
(-3021.87 0 0)
(-1517.38 0 0)
(-781.721 0 0)
(-2210.3 0 0)
(-2522.89 0 0)
(2876.85 0 0)
(6991 0 0)
(-10714.6 0 0)
(-5521.48 0 0)
(2122.85 0 0)
)
;

boundaryField
{
    sides
    {
        type            calculated;
        value           nonuniform List<vector> 2((2122.85 0 0) (-301.79 0 0));
    }
    empty
    {
        type            empty;
    }
}


// ************************************************************************* //
