/*--------------------------------*- C++ -*----------------------------------*\
  =========                 |
  \\      /  F ield         | OpenFOAM: The Open Source CFD Toolbox
   \\    /   O peration     | Website:  https://openfoam.org
    \\  /    A nd           | Version:  9
     \\/     M anipulation  |
\*---------------------------------------------------------------------------*/
FoamFile
{
    format      ascii;
    class       volScalarField;
    location    "0.029";
    object      ddt0(p);
}
// * * * * * * * * * * * * * * * * * * * * * * * * * * * * * * * * * * * * * //

dimensions      [1 -1 -3 0 0 0 0];

internalField   nonuniform List<scalar> 
100
(
-1.37117e+06
-1.36456e+06
-1.35314e+06
-1.34892e+06
-1.34242e+06
-1.33517e+06
-1.32834e+06
-1.32083e+06
-1.31338e+06
-1.30466e+06
-1.29749e+06
-1.28944e+06
-1.28167e+06
-1.27511e+06
-1.26684e+06
-1.25894e+06
-1.25254e+06
-1.24462e+06
-1.23544e+06
-1.22801e+06
-1.2216e+06
-1.21337e+06
-1.20479e+06
-1.19567e+06
-1.1901e+06
-1.18473e+06
-1.17347e+06
-1.16548e+06
-1.15851e+06
-1.15089e+06
-1.14691e+06
-1.13608e+06
-1.12571e+06
-1.11933e+06
-1.10661e+06
-1.09903e+06
-1.08076e+06
-1.07675e+06
-1.06684e+06
-1.0657e+06
-1.06551e+06
-1.06534e+06
-1.06243e+06
-1.05267e+06
-1.06585e+06
-1.05372e+06
-1.05587e+06
-1.03073e+06
-1.01309e+06
-1.02737e+06
-1.02993e+06
-1.03971e+06
-1.06638e+06
-1.08947e+06
-1.10944e+06
-1.13008e+06
-1.15524e+06
-1.18359e+06
-1.19731e+06
-1.19405e+06
-1.18288e+06
-1.17768e+06
-1.17983e+06
-1.18545e+06
-1.18827e+06
-1.18708e+06
-1.18115e+06
-1.17128e+06
-1.15706e+06
-1.13189e+06
-1.09908e+06
-1.05832e+06
-990035
-885041
-722902
-439234
184395
2.01446e+06
-4.3587e+06
-3.38904e+06
-820763
-673717
-563501
-470777
-341630
-225759
29693.8
1.5291e+06
1.16328e+06
-5.35755e+06
-410328
-254513
-14678.4
-489265
-625387
897056
2.3965e+06
-3.39824e+06
-1.50815e+06
948135
)
;

boundaryField
{
    sides
    {
        type            calculated;
        value           nonuniform List<scalar> 2(948135 -1.37117e+06);
    }
    empty
    {
        type            empty;
    }
}


// ************************************************************************* //
