/*--------------------------------*- C++ -*----------------------------------*\
  =========                 |
  \\      /  F ield         | OpenFOAM: The Open Source CFD Toolbox
   \\    /   O peration     | Website:  https://openfoam.org
    \\  /    A nd           | Version:  9
     \\/     M anipulation  |
\*---------------------------------------------------------------------------*/
FoamFile
{
    format      ascii;
    class       volScalarField;
    location    "0.029";
    object      mag(U);
}
// * * * * * * * * * * * * * * * * * * * * * * * * * * * * * * * * * * * * * //

dimensions      [0 1 -1 0 0 0 0];

internalField   nonuniform List<scalar> 
100
(
42.9986
47.3018
52.4043
56.2143
60.0005
63.8822
67.7852
71.6752
75.5703
79.4704
83.3351
87.2246
91.1017
94.9569
98.8448
102.715
106.552
110.418
114.296
118.127
121.935
125.774
129.626
133.433
137.196
140.968
144.763
148.541
152.269
155.958
159.656
163.357
167.02
170.626
174.179
177.702
181.169
184.561
187.877
191.153
194.439
197.734
201.024
204.284
207.472
210.52
213.374
216.076
218.677
221.217
223.725
226.182
228.624
231.095
233.588
236.077
238.537
240.96
243.345
245.681
247.951
250.144
252.26
254.309
256.311
258.279
260.215
262.107
263.951
265.742
267.478
269.172
270.829
272.425
273.947
275.381
276.693
277.81
278.971
280.409
281.736
282.759
283.639
284.41
285.103
285.693
286.203
286.573
286.749
287.245
287.886
288.225
288.476
288.742
289.017
289.211
289.287
289.569
290.01
290.297
)
;

boundaryField
{
    sides
    {
        type            calculated;
        value           nonuniform List<scalar> 2(290.297 42.9986);
    }
    empty
    {
        type            empty;
    }
}


// ************************************************************************* //
