/*--------------------------------*- C++ -*----------------------------------*\
  =========                 |
  \\      /  F ield         | OpenFOAM: The Open Source CFD Toolbox
   \\    /   O peration     | Website:  https://openfoam.org
    \\  /    A nd           | Version:  9
     \\/     M anipulation  |
\*---------------------------------------------------------------------------*/
FoamFile
{
    format      ascii;
    class       surfaceScalarField;
    location    "0.029";
    object      phi_0;
}
// * * * * * * * * * * * * * * * * * * * * * * * * * * * * * * * * * * * * * //

dimensions      [1 0 -1 0 0 0 0];

internalField   nonuniform List<scalar> 
99
(
71.6391
77.3472
83.0004
88.6237
94.2118
99.7692
105.307
110.85
116.373
121.892
127.368
132.834
138.278
143.668
149.056
154.429
159.73
165.006
170.306
175.566
180.733
185.872
191.056
196.229
201.308
206.308
211.294
216.362
221.389
226.296
231.147
236.001
240.919
245.775
250.498
255.158
259.761
264.468
269.098
273.69
278.245
282.759
287.301
291.826
296.417
300.956
305.468
309.86
314.165
318.559
323.015
327.471
331.935
336.449
341.098
345.914
350.872
355.885
360.837
365.708
370.567
375.499
380.479
385.418
390.263
395.06
399.898
404.785
409.652
414.374
418.874
423.154
427.165
430.792
433.8
435.67
435.002
426.884
445.319
458.314
461.728
464.52
466.864
468.81
470.226
471.152
471.048
464.765
460.898
481.673
483.372
484.399
484.404
486.319
488.815
485.002
475.672
489.156
494.977
)
;

boundaryField
{
    sides
    {
        type            calculated;
        value           nonuniform List<scalar> 2(491.129 -65.9059);
    }
    empty
    {
        type            empty;
        value           nonuniform List<scalar> 0();
    }
}


// ************************************************************************* //
