/*--------------------------------*- C++ -*----------------------------------*\
  =========                 |
  \\      /  F ield         | OpenFOAM: The Open Source CFD Toolbox
   \\    /   O peration     | Website:  https://openfoam.org
    \\  /    A nd           | Version:  9
     \\/     M anipulation  |
\*---------------------------------------------------------------------------*/
FoamFile
{
    format      ascii;
    class       volScalarField;
    location    "0.046";
    object      mag(U);
}
// * * * * * * * * * * * * * * * * * * * * * * * * * * * * * * * * * * * * * //

dimensions      [0 1 -1 0 0 0 0];

internalField   nonuniform List<scalar> 
100
(
44.3088
45.8955
48.7736
51.3074
53.0762
55.0373
57.024
58.975
60.9331
62.8693
64.8106
66.7423
68.6777
70.6072
72.5307
74.4588
76.3935
78.3256
80.2422
82.1473
84.0528
85.9955
87.9116
89.7734
91.6462
93.5488
95.4859
97.4498
99.3948
101.285
103.089
104.771
106.162
107.048
107.478
107.755
108.349
109.237
110.268
111.282
112.286
113.036
113.824
114.739
115.721
116.809
118.08
119.342
120.294
121.266
122.229
123.004
123.782
124.685
125.681
126.528
127.433
128.549
129.843
131.069
132.142
132.722
131.966
128.549
118.852
94.4286
42.3377
7.18113
5.76418
54.2575
76.1964
79.837
81.1651
82.4879
84.2132
86.3247
88.5265
90.7995
93.1626
95.6828
98.2293
100.639
103.022
105.415
107.837
110.292
112.747
115.16
117.556
119.951
122.355
124.775
127.219
129.694
132.194
134.706
137.205
139.704
142.175
145.937
)
;

boundaryField
{
    sides
    {
        type            calculated;
        value           nonuniform List<scalar> 2(145.937 44.3088);
    }
    empty
    {
        type            empty;
    }
}


// ************************************************************************* //
