/*--------------------------------*- C++ -*----------------------------------*\
  =========                 |
  \\      /  F ield         | OpenFOAM: The Open Source CFD Toolbox
   \\    /   O peration     | Website:  https://openfoam.org
    \\  /    A nd           | Version:  9
     \\/     M anipulation  |
\*---------------------------------------------------------------------------*/
FoamFile
{
    format      ascii;
    class       surfaceScalarField;
    location    "0.02";
    object      phi;
}
// * * * * * * * * * * * * * * * * * * * * * * * * * * * * * * * * * * * * * //

dimensions      [1 0 -1 0 0 0 0];

internalField   nonuniform List<scalar> 
999
(
16.0958
17.624
19.1517
20.6808
22.2112
23.7423
25.2734
26.8049
28.337
29.8689
31.4006
32.9322
34.4636
35.9949
37.5261
39.0571
40.588
42.1188
43.6494
45.1799
46.7102
48.2404
49.7704
51.3003
52.83
54.3596
55.889
57.4182
58.9473
60.4761
62.0048
63.5334
65.0617
66.5899
68.1178
69.6456
71.1732
72.7005
74.2277
75.7547
77.2814
78.808
80.3343
81.8604
83.3863
84.912
86.4374
87.9626
89.4875
91.0123
92.5367
94.061
95.5849
97.1087
98.6321
100.155
101.678
103.201
104.723
106.246
107.767
109.289
110.81
112.331
113.852
115.372
116.893
118.412
119.932
121.451
122.97
124.488
126.007
127.525
129.042
130.559
132.076
133.593
135.109
136.625
138.141
139.656
141.171
142.685
144.199
145.713
147.226
148.739
150.252
151.764
153.276
154.787
156.298
157.809
159.319
160.829
162.338
163.847
165.356
166.864
168.371
169.878
171.385
172.891
174.397
175.903
177.408
178.912
180.416
181.92
183.423
184.925
186.427
187.929
189.43
190.93
192.43
193.93
195.429
196.927
198.425
199.923
201.419
202.916
204.411
205.907
207.401
208.895
210.389
211.882
213.374
214.866
216.357
217.847
219.337
220.826
222.315
223.803
225.29
226.777
228.263
229.748
231.233
232.717
234.201
235.684
237.166
238.647
240.128
241.608
243.087
244.565
246.043
247.52
248.996
250.471
251.946
253.419
254.893
256.365
257.836
259.307
260.777
262.246
263.714
265.182
266.648
268.114
269.579
271.043
272.506
273.968
275.429
276.89
278.349
279.809
281.265
282.723
284.177
285.632
287.086
288.537
289.99
291.44
292.889
294.339
295.785
297.232
298.677
300.121
301.564
303.006
304.447
305.886
307.324
308.762
310.198
311.632
313.066
314.498
315.929
317.358
318.787
320.214
321.64
323.064
324.487
325.908
327.329
328.747
330.165
331.58
332.995
334.408
335.819
337.229
338.637
340.043
341.448
342.852
344.253
345.653
347.051
348.448
349.842
351.235
352.626
354.015
355.403
356.788
358.171
359.553
360.932
362.309
363.684
365.058
366.428
367.797
369.164
370.528
371.89
373.249
374.606
375.961
377.313
378.663
380.01
381.354
382.696
384.034
385.371
386.704
388.034
389.361
390.686
392.007
393.325
394.639
395.951
397.258
398.563
399.864
401.161
402.454
403.744
405.03
406.311
407.589
408.862
410.131
411.396
412.656
413.912
415.162
416.408
417.649
418.885
420.115
421.34
422.56
423.774
424.982
426.184
427.38
428.569
429.752
430.929
432.099
433.261
434.417
435.565
436.706
437.839
438.964
440.081
441.189
442.289
443.38
444.463
445.536
446.6
447.654
448.698
449.732
450.756
451.769
452.771
453.763
454.743
455.712
456.669
457.614
458.547
459.468
460.376
461.272
462.154
463.024
463.88
464.722
465.551
466.366
467.167
467.954
468.726
469.484
470.228
470.957
471.671
472.371
473.055
473.725
474.38
475.02
475.646
476.256
476.852
477.433
478
478.552
479.089
479.613
480.122
480.617
481.099
481.567
482.021
482.463
482.892
483.308
483.712
484.104
484.483
484.852
485.209
485.556
485.891
486.217
486.533
486.839
487.135
487.423
487.702
487.973
488.235
488.49
488.738
488.978
489.211
489.438
489.659
489.874
490.083
490.286
490.485
490.678
490.867
491.051
491.23
491.406
491.578
491.746
491.91
492.071
492.228
492.383
492.534
492.683
492.829
492.972
493.113
493.251
493.387
493.52
493.652
493.781
493.909
494.034
494.157
494.279
494.399
494.517
494.633
494.747
494.86
494.971
495.081
495.189
495.295
495.4
495.503
495.605
495.706
495.804
495.902
495.998
496.092
496.185
496.277
496.367
496.455
496.543
496.629
496.713
496.796
496.878
496.958
497.037
497.114
497.19
497.265
497.338
497.41
497.481
497.55
497.617
497.684
497.749
497.812
497.874
497.935
497.994
498.052
498.109
498.164
498.218
498.271
498.322
498.371
498.42
498.467
498.512
498.556
498.599
498.641
498.681
498.72
498.757
498.794
498.828
498.862
498.894
498.925
498.955
498.984
499.011
499.037
499.062
499.086
499.108
499.13
499.15
499.17
499.188
499.205
499.221
499.236
499.251
499.264
499.276
499.288
499.299
499.309
499.318
499.327
499.334
499.342
499.348
499.354
499.36
499.365
499.369
499.373
499.377
499.38
499.383
499.386
499.388
499.39
499.392
499.393
499.395
499.396
499.397
499.398
499.398
499.399
499.399
499.4
499.4
499.4
499.4
499.4
499.4
499.4
499.4
499.4
499.4
499.4
499.4
499.4
499.4
499.399
499.399
499.399
499.399
499.399
499.398
499.398
499.398
499.398
499.397
499.397
499.397
499.397
499.396
499.396
499.396
499.396
499.395
499.395
499.395
499.395
499.394
499.394
499.394
499.394
499.393
499.393
499.393
499.393
499.392
499.392
499.392
499.391
499.391
499.391
499.391
499.39
499.39
499.39
499.389
499.389
499.389
499.389
499.388
499.388
499.388
499.387
499.387
499.387
499.386
499.386
499.386
499.386
499.385
499.385
499.385
499.384
499.384
499.384
499.383
499.383
499.383
499.382
499.382
499.382
499.381
499.381
499.381
499.38
499.38
499.38
499.379
499.379
499.379
499.378
499.378
499.378
499.377
499.377
499.377
499.376
499.376
499.376
499.375
499.375
499.375
499.374
499.374
499.374
499.373
499.373
499.372
499.372
499.372
499.371
499.371
499.371
499.37
499.37
499.37
499.369
499.369
499.368
499.368
499.368
499.367
499.367
499.367
499.366
499.366
499.365
499.365
499.365
499.364
499.364
499.363
499.363
499.363
499.362
499.362
499.361
499.361
499.361
499.36
499.36
499.359
499.359
499.358
499.358
499.358
499.357
499.357
499.356
499.356
499.356
499.355
499.355
499.354
499.354
499.353
499.353
499.352
499.352
499.352
499.351
499.351
499.35
499.35
499.349
499.349
499.348
499.348
499.347
499.347
499.346
499.346
499.345
499.345
499.344
499.344
499.344
499.343
499.343
499.342
499.342
499.341
499.341
499.34
499.34
499.339
499.338
499.338
499.337
499.337
499.336
499.336
499.335
499.335
499.334
499.334
499.333
499.333
499.332
499.332
499.331
499.33
499.33
499.329
499.329
499.328
499.328
499.327
499.326
499.326
499.325
499.325
499.324
499.324
499.323
499.322
499.322
499.321
499.321
499.32
499.319
499.319
499.318
499.317
499.317
499.316
499.316
499.315
499.314
499.314
499.313
499.312
499.312
499.311
499.31
499.31
499.309
499.308
499.308
499.307
499.306
499.306
499.305
499.304
499.303
499.303
499.302
499.301
499.301
499.3
499.299
499.298
499.298
499.297
499.296
499.295
499.295
499.294
499.293
499.292
499.292
499.291
499.29
499.289
499.288
499.288
499.287
499.286
499.285
499.284
499.284
499.283
499.282
499.281
499.28
499.279
499.279
499.278
499.277
499.276
499.275
499.274
499.273
499.272
499.271
499.271
499.27
499.269
499.268
499.267
499.266
499.265
499.264
499.263
499.262
499.261
499.26
499.259
499.258
499.257
499.256
499.255
499.254
499.253
499.252
499.251
499.25
499.249
499.248
499.247
499.246
499.245
499.244
499.242
499.241
499.24
499.239
499.238
499.237
499.236
499.234
499.233
499.232
499.231
499.23
499.229
499.227
499.226
499.225
499.224
499.222
499.221
499.22
499.218
499.217
499.216
499.215
499.213
499.212
499.211
499.209
499.208
499.206
499.205
499.204
499.202
499.201
499.199
499.198
499.196
499.195
499.193
499.192
499.19
499.189
499.187
499.186
499.184
499.182
499.181
499.179
499.178
499.176
499.174
499.173
499.171
499.169
499.167
499.166
499.164
499.162
499.16
499.158
499.156
499.155
499.153
499.151
499.149
499.147
499.145
499.142
499.14
499.138
499.136
499.133
499.131
499.128
499.126
499.123
499.12
499.116
499.113
499.109
499.105
499.101
499.096
499.092
499.086
499.081
499.075
499.069
499.062
499.055
499.047
499.039
499.031
499.022
499.013
499.003
498.993
498.983
498.973
498.962
498.951
498.94
498.928
498.917
498.906
498.895
498.884
498.873
498.863
498.853
498.843
498.833
498.825
498.814
498.807
498.799
498.791
498.785
498.778
498.771
498.764
498.759
498.753
498.747
498.741
498.737
498.731
498.726
498.721
498.716
498.711
498.707
498.701
498.696
498.691
498.687
498.682
498.677
498.672
498.666
498.661
498.655
498.65
498.645
498.639
498.633
498.627
498.621
498.615
498.609
498.602
498.595
498.588
498.581
498.573
498.566
498.559
498.552
498.544
498.537
498.53
498.523
498.515
498.509
498.501
498.494
498.486
498.478
498.47
498.462
498.453
498.445
498.436
498.427
498.418
498.408
498.399
498.389
498.379
498.369
)
;

boundaryField
{
    sides
    {
        type            calculated;
        value           nonuniform List<scalar> 2(498.358 -14.5663);
    }
    empty
    {
        type            empty;
        value           nonuniform List<scalar> 0();
    }
}


// ************************************************************************* //
