/*--------------------------------*- C++ -*----------------------------------*\
  =========                 |
  \\      /  F ield         | OpenFOAM: The Open Source CFD Toolbox
   \\    /   O peration     | Website:  https://openfoam.org
    \\  /    A nd           | Version:  9
     \\/     M anipulation  |
\*---------------------------------------------------------------------------*/
FoamFile
{
    format      ascii;
    class       volVectorField;
    location    "0.02";
    object      U;
}
// * * * * * * * * * * * * * * * * * * * * * * * * * * * * * * * * * * * * * //

dimensions      [0 1 -1 0 0 0 0];

internalField   nonuniform List<vector> 
1000
(
(6.71278 0 0)
(7.7485 0 0)
(8.51934 0 0)
(9.18649 0 0)
(9.87568 0 0)
(10.5868 0 0)
(11.2993 0 0)
(12.008 0 0)
(12.7155 0 0)
(13.4234 0 0)
(14.1317 0 0)
(14.8401 0 0)
(15.5486 0 0)
(16.2571 0 0)
(16.9658 0 0)
(17.6746 0 0)
(18.3835 0 0)
(19.0925 0 0)
(19.8016 0 0)
(20.5108 0 0)
(21.2201 0 0)
(21.9295 0 0)
(22.639 0 0)
(23.3486 0 0)
(24.0584 0 0)
(24.7682 0 0)
(25.4782 0 0)
(26.1882 0 0)
(26.8983 0 0)
(27.6086 0 0)
(28.3189 0 0)
(29.0294 0 0)
(29.74 0 0)
(30.4506 0 0)
(31.1614 0 0)
(31.8722 0 0)
(32.5832 0 0)
(33.2942 0 0)
(34.0054 0 0)
(34.7167 0 0)
(35.428 0 0)
(36.1395 0 0)
(36.851 0 0)
(37.5627 0 0)
(38.2744 0 0)
(38.9862 0 0)
(39.6982 0 0)
(40.4102 0 0)
(41.1223 0 0)
(41.8345 0 0)
(42.5469 0 0)
(43.2593 0 0)
(43.9718 0 0)
(44.6843 0 0)
(45.397 0 0)
(46.1098 0 0)
(46.8227 0 0)
(47.5356 0 0)
(48.2486 0 0)
(48.9618 0 0)
(49.675 0 0)
(50.3883 0 0)
(51.1017 0 0)
(51.8152 0 0)
(52.5288 0 0)
(53.2424 0 0)
(53.9561 0 0)
(54.67 0 0)
(55.3839 0 0)
(56.0979 0 0)
(56.812 0 0)
(57.5261 0 0)
(58.2404 0 0)
(58.9547 0 0)
(59.6691 0 0)
(60.3836 0 0)
(61.0981 0 0)
(61.8128 0 0)
(62.5275 0 0)
(63.2423 0 0)
(63.9572 0 0)
(64.6722 0 0)
(65.3872 0 0)
(66.1023 0 0)
(66.8175 0 0)
(67.5327 0 0)
(68.2481 0 0)
(68.9635 0 0)
(69.679 0 0)
(70.3945 0 0)
(71.1101 0 0)
(71.8258 0 0)
(72.5416 0 0)
(73.2574 0 0)
(73.9733 0 0)
(74.6893 0 0)
(75.4054 0 0)
(76.1215 0 0)
(76.8376 0 0)
(77.5539 0 0)
(78.2702 0 0)
(78.9866 0 0)
(79.703 0 0)
(80.4195 0 0)
(81.136 0 0)
(81.8527 0 0)
(82.5693 0 0)
(83.2861 0 0)
(84.0029 0 0)
(84.7197 0 0)
(85.4366 0 0)
(86.1536 0 0)
(86.8706 0 0)
(87.5877 0 0)
(88.3049 0 0)
(89.022 0 0)
(89.7393 0 0)
(90.4566 0 0)
(91.1739 0 0)
(91.8913 0 0)
(92.6087 0 0)
(93.3262 0 0)
(94.0438 0 0)
(94.7614 0 0)
(95.479 0 0)
(96.1967 0 0)
(96.9144 0 0)
(97.6321 0 0)
(98.3499 0 0)
(99.0678 0 0)
(99.7856 0 0)
(100.504 0 0)
(101.221 0 0)
(101.939 0 0)
(102.658 0 0)
(103.376 0 0)
(104.094 0 0)
(104.812 0 0)
(105.53 0 0)
(106.248 0 0)
(106.966 0 0)
(107.685 0 0)
(108.403 0 0)
(109.121 0 0)
(109.839 0 0)
(110.558 0 0)
(111.276 0 0)
(111.995 0 0)
(112.713 0 0)
(113.431 0 0)
(114.15 0 0)
(114.868 0 0)
(115.587 0 0)
(116.305 0 0)
(117.024 0 0)
(117.742 0 0)
(118.46 0 0)
(119.179 0 0)
(119.897 0 0)
(120.615 0 0)
(121.334 0 0)
(122.052 0 0)
(122.771 0 0)
(123.489 0 0)
(124.207 0 0)
(124.926 0 0)
(125.644 0 0)
(126.363 0 0)
(127.081 0 0)
(127.799 0 0)
(128.518 0 0)
(129.236 0 0)
(129.954 0 0)
(130.673 0 0)
(131.391 0 0)
(132.109 0 0)
(132.827 0 0)
(133.546 0 0)
(134.264 0 0)
(134.982 0 0)
(135.7 0 0)
(136.418 0 0)
(137.136 0 0)
(137.853 0 0)
(138.571 0 0)
(139.289 0 0)
(140.007 0 0)
(140.724 0 0)
(141.442 0 0)
(142.159 0 0)
(142.876 0 0)
(143.594 0 0)
(144.311 0 0)
(145.028 0 0)
(145.745 0 0)
(146.462 0 0)
(147.179 0 0)
(147.896 0 0)
(148.613 0 0)
(149.329 0 0)
(150.046 0 0)
(150.762 0 0)
(151.478 0 0)
(152.194 0 0)
(152.91 0 0)
(153.626 0 0)
(154.342 0 0)
(155.057 0 0)
(155.773 0 0)
(156.488 0 0)
(157.203 0 0)
(157.918 0 0)
(158.633 0 0)
(159.348 0 0)
(160.062 0 0)
(160.776 0 0)
(161.49 0 0)
(162.204 0 0)
(162.918 0 0)
(163.632 0 0)
(164.345 0 0)
(165.058 0 0)
(165.771 0 0)
(166.483 0 0)
(167.196 0 0)
(167.908 0 0)
(168.62 0 0)
(169.332 0 0)
(170.043 0 0)
(170.754 0 0)
(171.465 0 0)
(172.175 0 0)
(172.886 0 0)
(173.596 0 0)
(174.305 0 0)
(175.014 0 0)
(175.723 0 0)
(176.432 0 0)
(177.14 0 0)
(177.848 0 0)
(178.556 0 0)
(179.263 0 0)
(179.969 0 0)
(180.676 0 0)
(181.382 0 0)
(182.087 0 0)
(182.792 0 0)
(183.496 0 0)
(184.201 0 0)
(184.904 0 0)
(185.607 0 0)
(186.31 0 0)
(187.012 0 0)
(187.713 0 0)
(188.414 0 0)
(189.114 0 0)
(189.814 0 0)
(190.513 0 0)
(191.211 0 0)
(191.909 0 0)
(192.606 0 0)
(193.302 0 0)
(193.997 0 0)
(194.692 0 0)
(195.386 0 0)
(196.079 0 0)
(196.772 0 0)
(197.463 0 0)
(198.154 0 0)
(198.844 0 0)
(199.532 0 0)
(200.22 0 0)
(200.907 0 0)
(201.593 0 0)
(202.277 0 0)
(202.961 0 0)
(203.643 0 0)
(204.324 0 0)
(205.005 0 0)
(205.683 0 0)
(206.361 0 0)
(207.037 0 0)
(207.712 0 0)
(208.385 0 0)
(209.057 0 0)
(209.727 0 0)
(210.396 0 0)
(211.063 0 0)
(211.729 0 0)
(212.393 0 0)
(213.055 0 0)
(213.715 0 0)
(214.374 0 0)
(215.031 0 0)
(215.685 0 0)
(216.338 0 0)
(216.988 0 0)
(217.637 0 0)
(218.283 0 0)
(218.927 0 0)
(219.568 0 0)
(220.207 0 0)
(220.844 0 0)
(221.478 0 0)
(222.11 0 0)
(222.739 0 0)
(223.365 0 0)
(223.989 0 0)
(224.61 0 0)
(225.227 0 0)
(225.842 0 0)
(226.454 0 0)
(227.063 0 0)
(227.669 0 0)
(228.271 0 0)
(228.87 0 0)
(229.466 0 0)
(230.058 0 0)
(230.647 0 0)
(231.233 0 0)
(231.815 0 0)
(232.393 0 0)
(232.968 0 0)
(233.539 0 0)
(234.106 0 0)
(234.67 0 0)
(235.23 0 0)
(235.785 0 0)
(236.338 0 0)
(236.886 0 0)
(237.43 0 0)
(237.971 0 0)
(238.507 0 0)
(239.04 0 0)
(239.568 0 0)
(240.093 0 0)
(240.614 0 0)
(241.131 0 0)
(241.644 0 0)
(242.153 0 0)
(242.659 0 0)
(243.16 0 0)
(243.658 0 0)
(244.152 0 0)
(244.643 0 0)
(245.13 0 0)
(245.613 0 0)
(246.093 0 0)
(246.569 0 0)
(247.042 0 0)
(247.511 0 0)
(247.978 0 0)
(248.441 0 0)
(248.901 0 0)
(249.358 0 0)
(249.812 0 0)
(250.263 0 0)
(250.712 0 0)
(251.157 0 0)
(251.6 0 0)
(252.041 0 0)
(252.479 0 0)
(252.915 0 0)
(253.348 0 0)
(253.779 0 0)
(254.209 0 0)
(254.636 0 0)
(255.061 0 0)
(255.484 0 0)
(255.905 0 0)
(256.325 0 0)
(256.743 0 0)
(257.159 0 0)
(257.574 0 0)
(257.988 0 0)
(258.399 0 0)
(258.81 0 0)
(259.219 0 0)
(259.627 0 0)
(260.034 0 0)
(260.44 0 0)
(260.844 0 0)
(261.247 0 0)
(261.65 0 0)
(262.051 0 0)
(262.451 0 0)
(262.851 0 0)
(263.249 0 0)
(263.646 0 0)
(264.043 0 0)
(264.438 0 0)
(264.833 0 0)
(265.227 0 0)
(265.62 0 0)
(266.012 0 0)
(266.403 0 0)
(266.793 0 0)
(267.183 0 0)
(267.571 0 0)
(267.959 0 0)
(268.346 0 0)
(268.732 0 0)
(269.117 0 0)
(269.501 0 0)
(269.884 0 0)
(270.266 0 0)
(270.647 0 0)
(271.027 0 0)
(271.406 0 0)
(271.784 0 0)
(272.16 0 0)
(272.536 0 0)
(272.911 0 0)
(273.284 0 0)
(273.656 0 0)
(274.027 0 0)
(274.396 0 0)
(274.764 0 0)
(275.131 0 0)
(275.496 0 0)
(275.859 0 0)
(276.221 0 0)
(276.582 0 0)
(276.941 0 0)
(277.298 0 0)
(277.653 0 0)
(278.006 0 0)
(278.358 0 0)
(278.707 0 0)
(279.054 0 0)
(279.4 0 0)
(279.743 0 0)
(280.084 0 0)
(280.422 0 0)
(280.758 0 0)
(281.091 0 0)
(281.422 0 0)
(281.75 0 0)
(282.075 0 0)
(282.398 0 0)
(282.717 0 0)
(283.033 0 0)
(283.346 0 0)
(283.656 0 0)
(283.962 0 0)
(284.265 0 0)
(284.564 0 0)
(284.859 0 0)
(285.151 0 0)
(285.438 0 0)
(285.721 0 0)
(286 0 0)
(286.275 0 0)
(286.545 0 0)
(286.811 0 0)
(287.071 0 0)
(287.327 0 0)
(287.578 0 0)
(287.824 0 0)
(288.064 0 0)
(288.3 0 0)
(288.529 0 0)
(288.754 0 0)
(288.972 0 0)
(289.185 0 0)
(289.392 0 0)
(289.593 0 0)
(289.788 0 0)
(289.977 0 0)
(290.159 0 0)
(290.336 0 0)
(290.506 0 0)
(290.67 0 0)
(290.828 0 0)
(290.98 0 0)
(291.125 0 0)
(291.264 0 0)
(291.397 0 0)
(291.523 0 0)
(291.644 0 0)
(291.758 0 0)
(291.867 0 0)
(291.969 0 0)
(292.066 0 0)
(292.157 0 0)
(292.243 0 0)
(292.324 0 0)
(292.399 0 0)
(292.47 0 0)
(292.535 0 0)
(292.596 0 0)
(292.652 0 0)
(292.705 0 0)
(292.753 0 0)
(292.797 0 0)
(292.838 0 0)
(292.875 0 0)
(292.909 0 0)
(292.94 0 0)
(292.968 0 0)
(292.994 0 0)
(293.017 0 0)
(293.038 0 0)
(293.056 0 0)
(293.073 0 0)
(293.088 0 0)
(293.101 0 0)
(293.113 0 0)
(293.124 0 0)
(293.133 0 0)
(293.141 0 0)
(293.149 0 0)
(293.155 0 0)
(293.16 0 0)
(293.165 0 0)
(293.17 0 0)
(293.173 0 0)
(293.177 0 0)
(293.179 0 0)
(293.182 0 0)
(293.184 0 0)
(293.186 0 0)
(293.187 0 0)
(293.189 0 0)
(293.19 0 0)
(293.191 0 0)
(293.192 0 0)
(293.193 0 0)
(293.193 0 0)
(293.194 0 0)
(293.195 0 0)
(293.195 0 0)
(293.195 0 0)
(293.196 0 0)
(293.196 0 0)
(293.196 0 0)
(293.197 0 0)
(293.197 0 0)
(293.197 0 0)
(293.198 0 0)
(293.198 0 0)
(293.198 0 0)
(293.198 0 0)
(293.198 0 0)
(293.199 0 0)
(293.199 0 0)
(293.199 0 0)
(293.199 0 0)
(293.199 0 0)
(293.199 0 0)
(293.2 0 0)
(293.2 0 0)
(293.2 0 0)
(293.2 0 0)
(293.2 0 0)
(293.2 0 0)
(293.2 0 0)
(293.2 0 0)
(293.2 0 0)
(293.2 0 0)
(293.201 0 0)
(293.201 0 0)
(293.201 0 0)
(293.201 0 0)
(293.201 0 0)
(293.201 0 0)
(293.201 0 0)
(293.201 0 0)
(293.201 0 0)
(293.201 0 0)
(293.201 0 0)
(293.201 0 0)
(293.201 0 0)
(293.201 0 0)
(293.201 0 0)
(293.201 0 0)
(293.201 0 0)
(293.201 0 0)
(293.201 0 0)
(293.201 0 0)
(293.201 0 0)
(293.201 0 0)
(293.201 0 0)
(293.201 0 0)
(293.201 0 0)
(293.2 0 0)
(293.2 0 0)
(293.2 0 0)
(293.2 0 0)
(293.2 0 0)
(293.2 0 0)
(293.2 0 0)
(293.2 0 0)
(293.2 0 0)
(293.2 0 0)
(293.2 0 0)
(293.2 0 0)
(293.2 0 0)
(293.2 0 0)
(293.2 0 0)
(293.2 0 0)
(293.2 0 0)
(293.2 0 0)
(293.2 0 0)
(293.2 0 0)
(293.2 0 0)
(293.2 0 0)
(293.2 0 0)
(293.2 0 0)
(293.2 0 0)
(293.2 0 0)
(293.2 0 0)
(293.2 0 0)
(293.2 0 0)
(293.2 0 0)
(293.2 0 0)
(293.2 0 0)
(293.2 0 0)
(293.2 0 0)
(293.2 0 0)
(293.2 0 0)
(293.2 0 0)
(293.2 0 0)
(293.201 0 0)
(293.201 0 0)
(293.201 0 0)
(293.201 0 0)
(293.201 0 0)
(293.201 0 0)
(293.201 0 0)
(293.201 0 0)
(293.201 0 0)
(293.201 0 0)
(293.201 0 0)
(293.201 0 0)
(293.201 0 0)
(293.201 0 0)
(293.201 0 0)
(293.201 0 0)
(293.201 0 0)
(293.201 0 0)
(293.201 0 0)
(293.201 0 0)
(293.201 0 0)
(293.201 0 0)
(293.201 0 0)
(293.201 0 0)
(293.201 0 0)
(293.201 0 0)
(293.201 0 0)
(293.201 0 0)
(293.201 0 0)
(293.201 0 0)
(293.201 0 0)
(293.201 0 0)
(293.201 0 0)
(293.201 0 0)
(293.201 0 0)
(293.201 0 0)
(293.201 0 0)
(293.201 0 0)
(293.201 0 0)
(293.201 0 0)
(293.201 0 0)
(293.201 0 0)
(293.201 0 0)
(293.201 0 0)
(293.201 0 0)
(293.201 0 0)
(293.202 0 0)
(293.202 0 0)
(293.202 0 0)
(293.202 0 0)
(293.202 0 0)
(293.202 0 0)
(293.202 0 0)
(293.202 0 0)
(293.202 0 0)
(293.202 0 0)
(293.202 0 0)
(293.202 0 0)
(293.202 0 0)
(293.202 0 0)
(293.202 0 0)
(293.202 0 0)
(293.202 0 0)
(293.202 0 0)
(293.202 0 0)
(293.202 0 0)
(293.202 0 0)
(293.202 0 0)
(293.202 0 0)
(293.202 0 0)
(293.202 0 0)
(293.202 0 0)
(293.202 0 0)
(293.202 0 0)
(293.202 0 0)
(293.202 0 0)
(293.202 0 0)
(293.202 0 0)
(293.202 0 0)
(293.202 0 0)
(293.202 0 0)
(293.202 0 0)
(293.202 0 0)
(293.202 0 0)
(293.202 0 0)
(293.202 0 0)
(293.202 0 0)
(293.202 0 0)
(293.202 0 0)
(293.202 0 0)
(293.202 0 0)
(293.202 0 0)
(293.202 0 0)
(293.202 0 0)
(293.202 0 0)
(293.202 0 0)
(293.202 0 0)
(293.202 0 0)
(293.202 0 0)
(293.202 0 0)
(293.202 0 0)
(293.202 0 0)
(293.202 0 0)
(293.202 0 0)
(293.202 0 0)
(293.202 0 0)
(293.202 0 0)
(293.202 0 0)
(293.202 0 0)
(293.202 0 0)
(293.202 0 0)
(293.202 0 0)
(293.202 0 0)
(293.202 0 0)
(293.202 0 0)
(293.202 0 0)
(293.202 0 0)
(293.202 0 0)
(293.202 0 0)
(293.202 0 0)
(293.202 0 0)
(293.202 0 0)
(293.202 0 0)
(293.202 0 0)
(293.202 0 0)
(293.202 0 0)
(293.202 0 0)
(293.202 0 0)
(293.202 0 0)
(293.202 0 0)
(293.202 0 0)
(293.202 0 0)
(293.202 0 0)
(293.202 0 0)
(293.202 0 0)
(293.202 0 0)
(293.202 0 0)
(293.202 0 0)
(293.202 0 0)
(293.202 0 0)
(293.202 0 0)
(293.202 0 0)
(293.202 0 0)
(293.202 0 0)
(293.203 0 0)
(293.203 0 0)
(293.203 0 0)
(293.203 0 0)
(293.203 0 0)
(293.203 0 0)
(293.203 0 0)
(293.203 0 0)
(293.203 0 0)
(293.203 0 0)
(293.203 0 0)
(293.203 0 0)
(293.203 0 0)
(293.203 0 0)
(293.203 0 0)
(293.203 0 0)
(293.203 0 0)
(293.203 0 0)
(293.203 0 0)
(293.203 0 0)
(293.203 0 0)
(293.203 0 0)
(293.203 0 0)
(293.203 0 0)
(293.203 0 0)
(293.203 0 0)
(293.203 0 0)
(293.203 0 0)
(293.203 0 0)
(293.203 0 0)
(293.203 0 0)
(293.203 0 0)
(293.203 0 0)
(293.203 0 0)
(293.203 0 0)
(293.203 0 0)
(293.203 0 0)
(293.203 0 0)
(293.203 0 0)
(293.203 0 0)
(293.203 0 0)
(293.203 0 0)
(293.203 0 0)
(293.203 0 0)
(293.203 0 0)
(293.203 0 0)
(293.203 0 0)
(293.203 0 0)
(293.203 0 0)
(293.203 0 0)
(293.203 0 0)
(293.203 0 0)
(293.203 0 0)
(293.203 0 0)
(293.203 0 0)
(293.203 0 0)
(293.203 0 0)
(293.203 0 0)
(293.203 0 0)
(293.203 0 0)
(293.203 0 0)
(293.203 0 0)
(293.203 0 0)
(293.203 0 0)
(293.203 0 0)
(293.203 0 0)
(293.203 0 0)
(293.203 0 0)
(293.203 0 0)
(293.203 0 0)
(293.203 0 0)
(293.203 0 0)
(293.203 0 0)
(293.203 0 0)
(293.203 0 0)
(293.203 0 0)
(293.203 0 0)
(293.203 0 0)
(293.203 0 0)
(293.203 0 0)
(293.203 0 0)
(293.203 0 0)
(293.203 0 0)
(293.203 0 0)
(293.203 0 0)
(293.203 0 0)
(293.203 0 0)
(293.203 0 0)
(293.203 0 0)
(293.203 0 0)
(293.203 0 0)
(293.203 0 0)
(293.203 0 0)
(293.203 0 0)
(293.203 0 0)
(293.203 0 0)
(293.203 0 0)
(293.203 0 0)
(293.203 0 0)
(293.203 0 0)
(293.203 0 0)
(293.203 0 0)
(293.203 0 0)
(293.203 0 0)
(293.203 0 0)
(293.203 0 0)
(293.203 0 0)
(293.203 0 0)
(293.203 0 0)
(293.202 0 0)
(293.202 0 0)
(293.202 0 0)
(293.202 0 0)
(293.202 0 0)
(293.202 0 0)
(293.202 0 0)
(293.202 0 0)
(293.201 0 0)
(293.2 0 0)
(293.2 0 0)
(293.199 0 0)
(293.198 0 0)
(293.197 0 0)
(293.195 0 0)
(293.193 0 0)
(293.191 0 0)
(293.188 0 0)
(293.185 0 0)
(293.18 0 0)
(293.175 0 0)
(293.17 0 0)
(293.163 0 0)
(293.155 0 0)
(293.146 0 0)
(293.135 0 0)
(293.123 0 0)
(293.109 0 0)
(293.093 0 0)
(293.075 0 0)
(293.054 0 0)
(293.032 0 0)
(293.007 0 0)
(292.979 0 0)
(292.948 0 0)
(292.915 0 0)
(292.878 0 0)
(292.839 0 0)
(292.797 0 0)
(292.752 0 0)
(292.704 0 0)
(292.654 0 0)
(292.601 0 0)
(292.545 0 0)
(292.488 0 0)
(292.43 0 0)
(292.369 0 0)
(292.309 0 0)
(292.247 0 0)
(292.185 0 0)
(292.124 0 0)
(292.063 0 0)
(292.003 0 0)
(291.945 0 0)
(291.888 0 0)
(291.833 0 0)
(291.78 0 0)
(291.73 0 0)
(291.683 0 0)
(291.638 0 0)
(291.597 0 0)
(291.558 0 0)
(291.522 0 0)
(291.49 0 0)
(291.46 0 0)
(291.433 0 0)
(291.409 0 0)
(291.387 0 0)
(291.368 0 0)
(291.35 0 0)
(291.335 0 0)
(291.321 0 0)
(291.309 0 0)
(291.299 0 0)
(291.29 0 0)
(291.282 0 0)
(291.275 0 0)
(291.269 0 0)
(291.264 0 0)
(291.259 0 0)
(291.255 0 0)
(291.252 0 0)
(291.249 0 0)
(291.249 0 0)
(291.248 0 0)
(291.247 0 0)
(291.246 0 0)
(291.246 0 0)
(291.243 0 0)
(291.239 0 0)
(291.234 0 0)
(291.229 0 0)
(291.224 0 0)
(291.218 0 0)
(291.212 0 0)
(291.205 0 0)
(291.198 0 0)
(291.19 0 0)
(291.182 0 0)
(291.175 0 0)
(291.167 0 0)
(291.16 0 0)
(291.153 0 0)
(291.147 0 0)
(291.142 0 0)
(291.138 0 0)
(291.134 0 0)
(291.132 0 0)
(291.131 0 0)
(291.131 0 0)
(291.13 0 0)
(291.13 0 0)
(291.13 0 0)
(291.129 0 0)
(291.129 0 0)
(291.129 0 0)
(291.129 0 0)
(291.129 0 0)
(291.129 0 0)
(291.129 0 0)
(291.129 0 0)
(291.129 0 0)
(291.129 0 0)
(291.129 0 0)
)
;

boundaryField
{
    sides
    {
        type            zeroGradient;
    }
    empty
    {
        type            empty;
    }
}


// ************************************************************************* //
