/*--------------------------------*- C++ -*----------------------------------*\
  =========                 |
  \\      /  F ield         | OpenFOAM: The Open Source CFD Toolbox
   \\    /   O peration     | Website:  https://openfoam.org
    \\  /    A nd           | Version:  9
     \\/     M anipulation  |
\*---------------------------------------------------------------------------*/
FoamFile
{
    format      ascii;
    class       volVectorField;
    location    "0.04";
    object      U;
}
// * * * * * * * * * * * * * * * * * * * * * * * * * * * * * * * * * * * * * //

dimensions      [0 1 -1 0 0 0 0];

internalField   nonuniform List<vector> 
100
(
(48.6419 0 0)
(50.9197 0 0)
(54.4028 0 0)
(57.3963 0 0)
(59.91 0 0)
(62.3834 0 0)
(64.9028 0 0)
(67.4277 0 0)
(69.9495 0 0)
(72.4677 0 0)
(74.9746 0 0)
(77.4737 0 0)
(79.9715 0 0)
(82.4624 0 0)
(84.9379 0 0)
(87.4043 0 0)
(89.8643 0 0)
(92.307 0 0)
(94.721 0 0)
(97.1145 0 0)
(99.5039 0 0)
(101.882 0 0)
(104.232 0 0)
(106.549 0 0)
(108.849 0 0)
(111.138 0 0)
(113.409 0 0)
(115.658 0 0)
(117.881 0 0)
(120.079 0 0)
(122.265 0 0)
(124.455 0 0)
(126.651 0 0)
(128.844 0 0)
(131.016 0 0)
(133.132 0 0)
(135.128 0 0)
(136.974 0 0)
(138.729 0 0)
(140.442 0 0)
(142.125 0 0)
(143.779 0 0)
(145.398 0 0)
(146.983 0 0)
(148.529 0 0)
(150.033 0 0)
(151.501 0 0)
(152.929 0 0)
(154.313 0 0)
(155.661 0 0)
(156.979 0 0)
(158.268 0 0)
(159.532 0 0)
(160.776 0 0)
(162.003 0 0)
(163.211 0 0)
(164.402 0 0)
(165.584 0 0)
(166.761 0 0)
(167.931 0 0)
(169.096 0 0)
(170.254 0 0)
(171.402 0 0)
(172.542 0 0)
(173.678 0 0)
(174.814 0 0)
(175.948 0 0)
(177.075 0 0)
(178.193 0 0)
(179.307 0 0)
(180.423 0 0)
(181.544 0 0)
(182.672 0 0)
(183.808 0 0)
(184.943 0 0)
(186.079 0 0)
(187.221 0 0)
(188.378 0 0)
(189.556 0 0)
(190.747 0 0)
(191.947 0 0)
(193.154 0 0)
(194.371 0 0)
(195.592 0 0)
(196.816 0 0)
(198.04 0 0)
(199.262 0 0)
(200.463 0 0)
(201.628 0 0)
(202.746 0 0)
(203.808 0 0)
(204.798 0 0)
(205.713 0 0)
(206.561 0 0)
(207.358 0 0)
(208.134 0 0)
(208.926 0 0)
(209.759 0 0)
(210.653 0 0)
(212.797 0 0)
)
;

boundaryField
{
    sides
    {
        type            zeroGradient;
    }
    empty
    {
        type            empty;
    }
}


// ************************************************************************* //
