/*--------------------------------*- C++ -*----------------------------------*\
  =========                 |
  \\      /  F ield         | OpenFOAM: The Open Source CFD Toolbox
   \\    /   O peration     | Website:  https://openfoam.org
    \\  /    A nd           | Version:  9
     \\/     M anipulation  |
\*---------------------------------------------------------------------------*/
FoamFile
{
    format      ascii;
    class       volScalarField;
    location    "0.046";
    object      ddt0(rho,e);
}
// * * * * * * * * * * * * * * * * * * * * * * * * * * * * * * * * * * * * * //

dimensions      [1 -1 -3 0 0 0 0];

internalField   nonuniform List<scalar> 
1000
(
534588
534257
533713
533204
532679
532171
531717
531250
530699
530121
529640
529264
528850
528277
527599
527002
526604
526319
525932
525301
524500
523757
523269
523035
522855
522469
521747
520777
519810
519107
518784
518742
518724
518447
517744
516644
515355
514171
513346
513000
513065
513320
513476
513276
512570
511366
509811
508137
506612
505453
504792
504667
504986
505576
506219
506655
506677
506171
505079
503443
501404
499126
496776
494560
492656
491191
490286
490020
490377
491290
492683
494381
496141
497864
499455
500677
501474
502001
502188
502014
501727
501472
501141
500815
501096
501820
502559
503160
503394
504313
508089
504273
502862
503913
502851
500404
499386
500187
499506
497137
495820
495237
496450
494567
492871
491195
490276
488007
486818
485680
485329
484131
482428
481607
481003
480072
478227
476781
476058
475175
473440
471637
470793
469892
468222
466179
464911
464115
462641
460488
458679
457756
456570
454584
452326
450937
449930
448195
445805
443849
442756
441337
439125
436656
434992
433830
432116
429530
427191
425796
424519
422270
419541
417427
416153
414586
412086
409356
407414
406127
404381
401797
399052
397202
395895
394101
391402
388728
386948
385734
383943
381272
378586
376899
375760
374165
371546
368893
367196
366248
364937
362565
359904
358143
357316
356390
354412
351894
350000
349258
348724
347271
345034
343018
342230
341971
341169
339326
337411
336350
336305
336005
334870
333108
331805
331797
331848
331473
330001
328703
328404
328752
328889
327973
326798
326156
326523
327073
326847
325845
325031
325092
325875
326287
325751
324863
324436
325104
326051
326181
325543
324769
324775
325801
326732
326643
325981
325319
325667
326883
327760
327669
326800
326308
326830
328161
329118
328871
327969
327508
328236
329661
330520
330224
329361
329011
329774
331166
331948
331641
330906
330615
331380
332706
333438
333133
332459
332300
333054
334224
334902
334758
334110
333875
334627
335827
336570
336437
335798
335440
335958
337270
338382
338404
337582
336923
337286
338568
339913
340409
339700
338684
338633
339790
341271
342030
341766
340857
340328
340989
342421
343510
343542
342870
342342
342587
343636
344797
345244
344821
344183
344107
344892
346126
347039
346970
346088
345462
345997
347413
348704
349076
348374
347288
347021
348168
349896
350874
350650
349790
349051
349112
350303
351882
352586
352215
351457
351042
351354
352514
353862
354201
353533
352837
352960
353861
355097
355989
355752
354698
354143
354790
356148
357401
358010
357611
356479
355765
356375
357917
359348
359919
359447
358400
357769
358383
359861
361020
361257
360835
360282
360019
360619
361916
362985
362986
362140
361531
361717
362795
364193
365205
365149
364112
363101
363118
364340
365941
367056
367178
366390
365359
365022
365883
367413
368594
368804
368157
367430
367298
368019
369275
370280
370434
369671
368867
368842
369855
371365
372497
372701
371966
370884
370343
370986
372551
374152
374787
374339
373386
372769
372970
373938
375284
376173
376167
375408
374698
374894
375991
377399
378232
378076
377152
376189
376116
377174
378823
380161
380543
380016
379010
378272
378404
379576
381201
382151
382033
381172
380636
380912
381848
382987
383685
383770
383128
382349
382108
382862
384408
385845
386448
385972
384914
384085
384185
385198
386609
387636
387856
387362
386708
386606
387280
388517
389566
389879
389314
388429
387939
388335
389541
391094
392227
392399
391611
390570
390084
390515
391779
392894
393685
393518
393089
392556
392680
393581
394773
395885
395971
395435
394513
394042
394364
395546
396864
398105
398252
397890
396970
396524
397026
397823
399337
399557
399649
398848
398173
398736
399053
401225
401609
402664
401981
401021
400986
400027
402075
401871
404021
403715
403614
403827
401966
404322
402786
406206
405712
406176
406764
403089
406494
402306
408055
405867
408860
408879
406304
409577
404256
410504
406132
411366
409568
409627
411161
406360
411658
406443
412783
410607
412410
413895
409527
414151
408365
413921
411461
413940
415079
412579
415722
410889
415265
411993
416111
415312
416501
417185
414585
417327
412745
418484
413877
420095
416628
418752
418212
415378
419250
414842
421148
417653
421737
419629
419416
419977
417230
421403
418000
423047
420392
421665
422213
418112
423296
417294
423798
421361
422232
425787
419062
425343
419318
421802
424292
420356
427308
421060
425060
421495
421918
423479
420437
427038
420598
426361
422779
421416
424757
419449
425004
421626
424101
424072
421073
424809
418300
423009
420417
420234
424210
419419
422948
419900
418533
419278
418011
418175
420222
418490
418370
418606
414022
416311
413893
413917
416275
413462
414615
412237
410257
409211
408551
408398
408255
409128
406305
405805
403847
400903
402189
400778
400420
401575
398611
396721
396349
392810
392358
393754
391282
391265
390700
387310
385465
384174
383812
381804
382108
383134
378128
377573
378254
371634
373567
374904
370214
371068
372806
365049
367053
366194
363247
362328
367502
359134
362974
360149
359134
354084
362365
353693
358845
356700
358666
350510
358113
352825
353037
355702
357151
353923
355185
355976
354205
353607
356508
358001
358134
358923
359576
360233
358533
360449
362325
364516
365651
367454
367987
369485
368686
370728
372454
375246
376802
379264
380214
382193
381701
383972
385736
388791
390407
393205
394268
396672
396824
399178
399973
403081
404725
407617
408821
411344
411870
414233
414803
417459
418818
421581
422830
425230
425803
427952
428346
430607
431519
433942
435128
437367
438105
440046
440413
442309
442900
444905
445812
447741
448451
450121
450439
451987
452334
453957
454617
456250
456936
458389
458758
460028
460229
461485
461860
463151
463659
464846
465176
466179
466294
467217
467392
468324
468654
469507
469758
470406
470424
470880
470802
471132
471092
471257
471145
471025
470672
470213
469658
468902
468307
467258
466627
465183
464339
462395
461242
458793
457427
454522
453045
449680
448035
444172
442260
437931
435815
431156
429027
424185
422145
417207
415173
410218
408151
403330
401347
396886
395173
391257
389867
386593
385459
382904
382020
380293
379767
378954
378860
378954
379228
380137
380654
382268
382975
385213
386119
388893
389998
393180
394403
397843
399087
402664
403888
407532
408764
412425
413685
417307
418554
422074
423246
426624
427700
430931
431935
435034
436003
438981
439926
442785
443694
446431
447292
449910
450716
453223
453981
456397
457137
459472
460191
462442
463124
465301
465961
468068
468686
470719
471303
473283
473868
475802
476380
478262
478816
480642
481162
482937
483435
485168
485651
487347
487828
489496
489982
491617
492092
493689
494143
495702
496133
497658
498073
499568
499976
501445
501852
503300
503710
505134
505533
506928
507308
508678
509051
510403
510778
512112
512487
513800
514167
515458
515811
517079
517420
518669
519006
520240
520576
521794
522125
523324
523646
524827
525138
526302
526606
527756
528058
529196
529498
530623
530921
532031
532319
533411
533684
534756
535012
536069
536315
537361
537609
538648
538903
539937
540083
541322
541045
)
;

boundaryField
{
    sides
    {
        type            calculated;
        value           nonuniform List<scalar> 2(541045 534588);
    }
    empty
    {
        type            empty;
    }
}


// ************************************************************************* //
