/*--------------------------------*- C++ -*----------------------------------*\
  =========                 |
  \\      /  F ield         | OpenFOAM: The Open Source CFD Toolbox
   \\    /   O peration     | Website:  https://openfoam.org
    \\  /    A nd           | Version:  9
     \\/     M anipulation  |
\*---------------------------------------------------------------------------*/
FoamFile
{
    format      ascii;
    class       volScalarField;
    location    "0.046";
    object      ddt0(p);
}
// * * * * * * * * * * * * * * * * * * * * * * * * * * * * * * * * * * * * * //

dimensions      [1 -1 -3 0 0 0 0];

internalField   nonuniform List<scalar> 
1000
(
-329670
-329590
-329466
-329358
-329259
-329156
-329047
-328933
-328819
-328704
-328589
-328472
-328351
-328227
-328097
-327963
-327828
-327692
-327555
-327419
-327279
-327134
-326984
-326829
-326671
-326511
-326352
-326193
-326032
-325867
-325696
-325522
-325343
-325160
-324974
-324783
-324589
-324391
-324192
-323994
-323794
-323590
-323378
-323156
-322929
-322701
-322475
-322250
-322022
-321784
-321534
-321276
-321014
-320756
-320504
-320249
-319983
-319708
-319421
-319127
-318834
-318549
-318259
-317960
-317657
-317347
-317026
-316703
-316384
-316062
-315734
-315403
-315062
-314708
-314367
-314023
-313650
-313277
-312906
-312545
-312186
-311790
-311373
-310946
-310579
-310180
-309804
-309387
-308870
-308389
-308038
-307590
-307039
-306548
-306079
-305566
-305084
-304578
-303887
-303375
-302815
-302156
-301991
-301508
-301074
-299551
-298719
-297546
-297124
-296347
-295782
-295149
-294481
-293948
-293231
-292606
-291906
-291112
-290350
-289632
-288883
-288090
-287293
-286465
-285624
-284791
-283933
-283068
-282170
-281251
-280340
-279416
-278493
-277548
-276562
-275561
-274567
-273575
-272567
-271539
-270487
-269413
-268333
-267253
-266166
-265074
-263966
-262840
-261703
-260564
-259422
-258266
-257092
-255907
-254719
-253531
-252344
-251155
-249958
-248752
-247541
-246330
-245120
-243911
-242702
-241491
-240283
-239082
-237891
-236708
-235532
-234361
-233195
-232038
-230894
-229766
-228656
-227562
-226482
-225418
-224370
-223342
-222334
-221347
-220381
-219440
-218525
-217636
-216773
-215936
-215126
-214342
-213585
-212857
-212157
-211486
-210845
-210233
-209651
-209098
-208575
-208082
-207618
-207183
-206777
-206401
-206055
-205737
-205447
-205181
-204939
-204722
-204530
-204363
-204220
-204101
-204002
-203924
-203866
-203827
-203806
-203803
-203816
-203845
-203890
-203951
-204027
-204117
-204220
-204334
-204458
-204591
-204734
-204885
-205046
-205217
-205395
-205580
-205771
-205968
-206171
-206378
-206588
-206803
-207021
-207244
-207471
-207702
-207937
-208175
-208415
-208657
-208902
-209148
-209396
-209646
-209897
-210149
-210404
-210660
-210916
-211174
-211431
-211690
-211949
-212209
-212470
-212732
-212996
-213260
-213526
-213792
-214058
-214325
-214591
-214858
-215125
-215392
-215659
-215927
-216195
-216464
-216733
-217004
-217274
-217544
-217815
-218086
-218358
-218630
-218903
-219177
-219450
-219723
-219996
-220268
-220541
-220814
-221086
-221360
-221634
-221909
-222184
-222460
-222736
-223011
-223286
-223561
-223836
-224111
-224386
-224662
-224938
-225215
-225493
-225772
-226050
-226328
-226606
-226884
-227161
-227439
-227716
-227994
-228272
-228550
-228829
-229109
-229388
-229668
-229948
-230227
-230507
-230786
-231066
-231347
-231627
-231907
-232188
-232469
-232750
-233032
-233314
-233596
-233877
-234159
-234441
-234723
-235006
-235289
-235572
-235855
-236138
-236421
-236705
-236988
-237272
-237556
-237840
-238124
-238409
-238695
-238981
-239267
-239552
-239838
-240124
-240410
-240697
-240983
-241270
-241557
-241844
-242132
-242420
-242708
-242997
-243286
-243575
-243865
-244154
-244445
-244735
-245026
-245317
-245608
-245899
-246190
-246481
-246772
-247064
-247355
-247647
-247939
-248231
-248525
-248819
-249114
-249408
-249703
-249998
-250293
-250588
-250884
-251179
-251475
-251771
-252067
-252364
-252662
-252960
-253258
-253556
-253855
-254154
-254452
-254752
-255052
-255352
-255652
-255953
-256254
-256555
-256856
-257159
-257461
-257764
-258066
-258369
-258672
-258976
-259280
-259584
-259889
-260194
-260499
-260804
-261110
-261416
-261723
-262030
-262337
-262645
-262952
-263260
-263568
-263877
-264186
-264495
-264805
-265115
-265425
-265735
-266046
-266357
-266668
-266980
-267292
-267604
-267916
-268230
-268543
-268857
-269172
-269486
-269801
-270116
-270431
-270747
-271064
-271380
-271697
-272014
-272332
-272650
-272968
-273287
-273606
-273925
-274244
-274564
-274884
-275204
-275525
-275846
-276168
-276490
-276812
-277134
-277457
-277781
-278104
-278429
-278753
-279078
-279404
-279729
-280055
-280382
-280709
-281037
-281364
-281692
-282019
-282347
-282675
-283004
-283333
-283663
-283993
-284323
-284653
-284984
-285315
-285647
-285980
-286313
-286645
-286978
-287312
-287645
-287980
-288314
-288650
-288985
-289320
-289656
-289992
-290329
-290666
-291004
-291342
-291679
-292018
-292356
-292696
-293034
-293375
-293715
-294055
-294397
-294736
-295079
-295419
-295762
-296104
-296446
-296789
-297131
-297475
-297817
-298161
-298503
-298848
-299192
-299535
-299880
-300223
-300569
-300911
-301257
-301601
-301946
-302292
-302635
-302982
-303325
-303671
-304015
-304360
-304705
-305048
-305393
-305735
-306080
-306421
-306764
-307106
-307447
-307788
-308126
-308466
-308802
-309141
-309475
-309811
-310144
-310477
-310809
-311137
-311466
-311791
-312117
-312439
-312761
-313080
-313396
-313712
-314023
-314334
-314639
-314944
-315245
-315543
-315838
-316127
-316415
-316696
-316976
-317250
-317519
-317786
-318044
-318301
-318549
-318792
-319031
-319260
-319487
-319703
-319915
-320117
-320313
-320501
-320678
-320851
-321011
-321164
-321307
-321438
-321561
-321671
-321772
-321860
-321938
-322004
-322055
-322096
-322121
-322135
-322133
-322117
-322089
-322042
-321983
-321907
-321813
-321705
-321579
-321435
-321276
-321097
-320901
-320687
-320452
-320200
-319928
-319637
-319327
-318997
-318647
-318278
-317888
-317478
-317048
-316599
-316129
-315641
-315132
-314605
-314058
-313492
-312908
-312307
-311687
-311052
-310400
-309732
-309050
-308353
-307642
-306921
-306187
-305443
-304691
-303930
-303163
-302390
-301615
-300836
-300058
-299282
-298507
-297737
-296977
-296222
-295480
-294752
-294038
-293342
-292668
-292012
-291383
-290781
-290207
-289664
-289159
-288686
-288254
-287862
-287514
-287209
-286956
-286750
-286598
-286501
-286463
-286473
-286543
-286679
-286886
-287122
-287408
-287876
-288213
-288795
-289263
-289969
-290681
-291399
-292199
-293063
-294103
-295016
-296178
-297313
-298435
-299628
-300878
-302204
-303650
-305039
-306516
-308039
-309562
-311136
-312726
-314384
-316059
-317721
-319418
-321167
-322933
-324702
-326483
-328261
-330046
-331811
-333619
-335424
-337232
-339027
-340824
-342608
-344381
-346138
-347882
-349611
-351327
-353045
-354736
-356409
-358063
-359688
-361299
-362884
-364448
-365995
-367512
-369013
-370490
-371943
-373378
-374783
-376165
-377524
-378853
-380162
-381444
-382702
-383939
-385151
-386345
-387516
-388662
-389789
-390888
-391965
-393020
-394052
-395066
-396057
-397029
-397980
-398907
-399813
-400693
-401548
-402380
-403184
-403965
-404718
-405441
-406134
-406790
-407408
-407985
-408515
-408998
-409429
-409804
-410118
-410364
-410538
-410631
-410637
-410552
-410367
-410078
-409677
-409159
-408518
-407746
-406837
-405789
-404594
-403253
-401761
-400121
-398332
-396397
-394319
-392106
-389762
-387302
-384733
-382072
-379336
-376541
-373708
-370858
-368016
-365203
-362444
-359767
-357194
-354753
-352468
-350361
-348456
-346770
-345321
-344124
-343188
-342522
-342131
-342015
-342174
-342600
-343289
-344225
-345397
-346788
-348382
-350159
-352102
-354188
-356401
-358719
-361126
-363601
-366131
-368697
-371287
-373888
-376490
-379081
-381657
-384207
-386729
-389216
-391667
-394078
-396447
-398773
-401058
-403299
-405498
-407656
-409774
-411851
-413891
-415893
-417861
-419792
-421692
-423559
-425397
-427205
-428986
-430739
-432468
-434171
-435851
-437508
-439144
-440758
-442352
-443927
-445483
-447020
-448540
-450042
-451529
-452998
-454453
-455892
-457317
-458727
-460125
-461508
-462879
-464236
-465582
-466916
-468238
-469549
-470850
-472138
-473417
-474685
-475944
-477192
-478431
-479660
-480880
-482090
-483292
-484484
-485669
-486845
-488014
-489175
-490328
-491474
-492612
-493743
-494868
-495984
-497094
-498197
-499293
-500382
-501466
-502543
-503615
-504680
-505739
-506793
-507841
-508883
-509920
-510951
-511977
-512998
-514014
-515025
-516031
-517032
-518028
-519020
-520007
-520989
-521967
-522940
-523909
-524874
-525835
-526792
-527745
-528693
-529638
-530579
-531516
-532449
-533378
-534304
-535219
-536141
-537025
)
;

boundaryField
{
    sides
    {
        type            calculated;
        value           nonuniform List<scalar> 2(-537025 -329670);
    }
    empty
    {
        type            empty;
    }
}


// ************************************************************************* //
