/*--------------------------------*- C++ -*----------------------------------*\
  =========                 |
  \\      /  F ield         | OpenFOAM: The Open Source CFD Toolbox
   \\    /   O peration     | Website:  https://openfoam.org
    \\  /    A nd           | Version:  9
     \\/     M anipulation  |
\*---------------------------------------------------------------------------*/
FoamFile
{
    format      ascii;
    class       volScalarField;
    location    "0.046";
    object      p_0;
}
// * * * * * * * * * * * * * * * * * * * * * * * * * * * * * * * * * * * * * //

dimensions      [1 -1 -2 0 0 0 0];

internalField   nonuniform List<scalar> 
1000
(
10025.7
10024.7
10022.6
10020.8
10019.3
10017.9
10016.4
10014.9
10013.5
10012
10010.5
10009.1
10007.7
10006.2
10004.8
10003.4
10002
10000.6
9999.25
9997.88
9996.52
9995.17
9993.83
9992.5
9991.18
9989.86
9988.56
9987.27
9985.99
9984.72
9983.46
9982.21
9980.97
9979.75
9978.53
9977.32
9976.13
9974.95
9973.77
9972.61
9971.47
9970.33
9969.2
9968.09
9966.99
9965.91
9964.83
9963.77
9962.72
9961.68
9960.66
9959.65
9958.66
9957.68
9956.71
9955.76
9954.82
9953.89
9952.98
9952.09
9951.21
9950.35
9949.5
9948.67
9947.85
9947.05
9946.27
9945.5
9944.75
9944.02
9943.3
9942.6
9941.92
9941.26
9940.62
9939.99
9939.38
9938.8
9938.23
9937.68
9937.15
9936.64
9936.15
9935.68
9935.23
9934.8
9934.39
9934.01
9933.65
9933.31
9932.99
9932.7
9932.43
9932.19
9931.97
9931.78
9931.62
9931.48
9931.37
9931.29
9931.24
9931.22
9931.22
9931.24
9931.28
9931.37
9931.51
9931.72
9931.96
9932.24
9932.54
9932.88
9933.25
9933.66
9934.1
9934.58
9935.09
9935.64
9936.22
9936.85
9937.51
9938.22
9938.97
9939.76
9940.59
9941.47
9942.4
9943.37
9944.38
9945.45
9946.56
9947.72
9948.93
9950.19
9951.5
9952.87
9954.28
9955.75
9957.28
9958.86
9960.49
9962.18
9963.93
9965.74
9967.6
9969.52
9971.51
9973.55
9975.66
9977.83
9980.06
9982.35
9984.71
9987.13
9989.62
9992.17
9994.78
9997.47
10000.2
10003
10005.9
10008.9
10011.9
10015
10018.1
10021.4
10024.7
10028
10031.4
10034.9
10038.5
10042.1
10045.8
10049.6
10053.5
10057.4
10061.3
10065.4
10069.5
10073.6
10077.9
10082.1
10086.5
10090.9
10095.4
10099.9
10104.5
10109.2
10113.9
10118.6
10123.5
10128.3
10133.3
10138.2
10143.3
10148.3
10153.4
10158.6
10163.8
10169.1
10174.4
10179.7
10185.1
10190.5
10195.9
10201.4
10206.9
10212.5
10218.1
10223.7
10229.3
10235
10240.7
10246.4
10252.1
10257.9
10263.7
10269.5
10275.3
10281.1
10287
10292.9
10298.8
10304.7
10310.6
10316.6
10322.5
10328.5
10334.5
10340.5
10346.5
10352.5
10358.5
10364.6
10370.6
10376.7
10382.8
10388.8
10394.9
10401
10407.1
10413.2
10419.3
10425.4
10431.6
10437.7
10443.8
10450
10456.1
10462.3
10468.5
10474.6
10480.8
10487
10493.2
10499.4
10505.6
10511.8
10518
10524.2
10530.4
10536.6
10542.9
10549.1
10555.3
10561.6
10567.8
10574.1
10580.4
10586.6
10592.9
10599.2
10605.4
10611.7
10618
10624.3
10630.6
10636.9
10643.2
10649.5
10655.8
10662.2
10668.5
10674.8
10681.2
10687.5
10693.8
10700.2
10706.6
10712.9
10719.3
10725.6
10732
10738.4
10744.8
10751.2
10757.6
10764
10770.4
10776.8
10783.2
10789.6
10796
10802.5
10808.9
10815.3
10821.8
10828.2
10834.7
10841.1
10847.6
10854.1
10860.5
10867
10873.5
10880
10886.5
10893
10899.5
10906
10912.5
10919
10925.5
10932
10938.6
10945.1
10951.6
10958.2
10964.7
10971.3
10977.8
10984.4
10991
10997.6
11004.1
11010.7
11017.3
11023.9
11030.5
11037.1
11043.7
11050.3
11057
11063.6
11070.2
11076.9
11083.5
11090.1
11096.8
11103.4
11110.1
11116.8
11123.4
11130.1
11136.8
11143.5
11150.2
11156.9
11163.6
11170.3
11177
11183.7
11190.5
11197.2
11203.9
11210.7
11217.4
11224.2
11230.9
11237.7
11244.4
11251.2
11258
11264.8
11271.6
11278.3
11285.1
11291.9
11298.8
11305.6
11312.4
11319.2
11326
11332.9
11339.7
11346.6
11353.4
11360.3
11367.1
11374
11380.9
11387.8
11394.6
11401.5
11408.4
11415.3
11422.2
11429.1
11436.1
11443
11449.9
11456.8
11463.8
11470.7
11477.7
11484.6
11491.6
11498.6
11505.5
11512.5
11519.5
11526.5
11533.5
11540.5
11547.5
11554.5
11561.5
11568.5
11575.5
11582.6
11589.6
11596.6
11603.7
11610.7
11617.8
11624.9
11631.9
11639
11646.1
11653.2
11660.3
11667.4
11674.5
11681.6
11688.7
11695.8
11702.9
11710.1
11717.2
11724.4
11731.5
11738.7
11745.8
11753
11760.2
11767.3
11774.5
11781.7
11788.9
11796.1
11803.3
11810.5
11817.7
11824.9
11832.2
11839.4
11846.6
11853.9
11861.1
11868.4
11875.6
11882.9
11890.2
11897.5
11904.7
11912
11919.3
11926.6
11933.9
11941.3
11948.6
11955.9
11963.2
11970.6
11977.9
11985.2
11992.6
12000
12007.3
12014.7
12022.1
12029.4
12036.8
12044.2
12051.6
12059
12066.4
12073.8
12081.3
12088.7
12096.1
12103.6
12111
12118.5
12125.9
12133.4
12140.8
12148.3
12155.8
12163.3
12170.8
12178.3
12185.8
12193.3
12200.8
12208.3
12215.8
12223.4
12230.9
12238.4
12246
12253.5
12261.1
12268.7
12276.2
12283.8
12291.4
12299
12306.6
12314.2
12321.8
12329.4
12337
12344.6
12352.3
12359.9
12367.5
12375.2
12382.8
12390.5
12398.2
12405.8
12413.5
12421.2
12428.9
12436.6
12444.3
12452
12459.7
12467.4
12475.1
12482.9
12490.6
12498.4
12506.1
12513.9
12521.6
12529.4
12537.2
12544.9
12552.7
12560.5
12568.3
12576.1
12583.9
12591.7
12599.5
12607.4
12615.2
12623
12630.9
12638.7
12646.6
12654.5
12662.3
12670.2
12678.1
12686
12693.9
12701.8
12709.7
12717.6
12725.5
12733.5
12741.4
12749.3
12757.3
12765.2
12773.2
12781.2
12789.1
12797.1
12805.1
12813.1
12821.1
12829.1
12837.1
12845.2
12853.2
12861.2
12869.3
12877.4
12885.4
12893.5
12901.6
12909.7
12917.8
12925.9
12934
12942.1
12950.3
12958.4
12966.6
12974.7
12982.9
12991.1
12999.3
13007.5
13015.7
13024
13032.2
13040.5
13048.7
13057
13065.3
13073.6
13081.9
13090.3
13098.6
13107
13115.4
13123.8
13132.2
13140.6
13149.1
13157.6
13166.1
13174.6
13183.1
13191.6
13200.2
13208.8
13217.4
13226.1
13234.7
13243.4
13252.2
13260.9
13269.7
13278.5
13287.3
13296.2
13305.1
13314
13322.9
13331.9
13341
13350
13359.2
13368.3
13377.5
13386.7
13396
13405.3
13414.7
13424.1
13433.5
13443
13452.6
13462.2
13471.8
13481.5
13491.3
13501.1
13511
13521
13531
13541
13551.2
13561.4
13571.6
13582
13592.4
13602.9
13613.4
13624
13634.7
13645.5
13656.3
13667.3
13678.3
13689.3
13700.5
13711.8
13723.1
13734.5
13746
13757.6
13769.3
13781
13792.9
13804.8
13816.8
13828.9
13841.1
13853.4
13865.7
13878.2
13890.7
13903.3
13916
13928.8
13941.6
13954.6
13967.6
13980.7
13993.8
14007
14020.4
14033.7
14047.2
14060.7
14074.2
14087.8
14101.5
14115.2
14129
14142.8
14156.6
14170.5
14184.5
14198.4
14212.4
14226.4
14240.4
14254.4
14268.5
14282.5
14296.6
14310.6
14324.7
14338.7
14352.7
14366.8
14380.7
14394.7
14408.6
14422.6
14436.4
14450.3
14464.1
14477.8
14491.5
14505.2
14518.8
14532.3
14545.8
14559.3
14572.6
14586
14599.2
14612.4
14625.5
14638.6
14651.6
14664.5
14677.4
14690.1
14702.9
14715.5
14728.1
14740.6
14753
14765.3
14777.6
14789.9
14802
14814.1
14826.1
14838
14849.9
14861.7
14873.5
14885.2
14896.8
14908.4
14919.9
14931.3
14942.7
14954.1
14965.3
14976.6
14987.8
14998.9
15010
15021
15032
15042.9
15053.8
15064.7
15075.5
15086.3
15097
15107.7
15118.4
15129
15139.6
15150.2
15160.7
15171.2
15181.7
15192.2
15202.6
15213
15223.4
15233.8
15244.2
15254.5
15264.8
15275.1
15285.4
15295.7
15306
15316.2
15326.5
15336.7
15347
15357.3
15367.5
15377.8
15388.1
15398.4
15408.7
15419
15429.4
15439.8
15450.3
15460.8
15471.3
15481.9
15492.6
15503.3
15514.2
15525.1
15536.1
15547.3
15558.5
15569.9
15581.5
15593.2
15605
15617.1
15629.3
15641.7
15654.3
15667.1
15680.1
15693.3
15706.8
15720.5
15734.5
15748.6
15763
15777.7
15792.6
15807.7
15823
15838.5
15854.2
15870.2
15886.3
15902.5
15918.9
15935.4
15952.1
15968.8
15985.6
16002.5
16019.4
16036.3
16053.2
16070.2
16087.1
16103.9
16120.7
16137.5
16154.1
16170.7
16187.2
16203.6
16219.9
16236
16252.1
16268
16283.8
16299.6
16315.1
16330.6
16346
16361.2
16376.3
16391.3
16406.3
16421.1
16435.7
16450.3
16464.8
16479.2
16493.5
16507.8
16521.9
16535.9
16549.9
16563.8
16577.6
16591.3
16604.9
16618.5
16632
16645.4
16658.8
16672.1
16685.3
16698.5
16711.6
16724.7
16737.7
16750.6
16763.5
16776.3
16789
16801.7
16814.4
16827
16839.5
16852.1
16864.5
16876.9
16889.3
16901.6
16913.8
16926.1
16938.2
16950.4
16962.5
16974.5
16986.5
16998.5
17010.4
17022.3
17034.2
17046
17057.7
17069.5
17081.2
17092.8
17104.5
17116.1
17127.6
17139.1
17150.6
17162.1
17173.5
17184.9
17196.3
17207.6
17218.9
17230.1
17241.4
17252.6
17263.8
17274.9
17286
17297.1
17308.2
17319.2
17330.2
17341.2
17352.1
17363.1
17374
17384.8
17395.7
17406.5
17417.3
17428.1
17438.8
17449.5
17460.2
17470.9
17481.5
17492.2
17502.8
17513.3
17523.9
17534.4
17544.9
17555.4
17565.9
17576.3
17586.8
17597.2
17607.6
17617.9
17628.3
17638.6
17648.9
17659.1
17669.4
17679.4
)
;

boundaryField
{
    sides
    {
        type            zeroGradient;
    }
    empty
    {
        type            empty;
    }
}


// ************************************************************************* //
