/*--------------------------------*- C++ -*----------------------------------*\
  =========                 |
  \\      /  F ield         | OpenFOAM: The Open Source CFD Toolbox
   \\    /   O peration     | Website:  https://openfoam.org
    \\  /    A nd           | Version:  9
     \\/     M anipulation  |
\*---------------------------------------------------------------------------*/
FoamFile
{
    format      ascii;
    class       surfaceScalarField;
    location    "0.046";
    object      phi_0;
}
// * * * * * * * * * * * * * * * * * * * * * * * * * * * * * * * * * * * * * //

dimensions      [1 0 -1 0 0 0 0];

internalField   nonuniform List<scalar> 
999
(
17.516
17.697
17.8779
18.0587
18.2394
18.42
18.6005
18.7809
18.9612
19.1413
19.3214
19.5014
19.6813
19.861
20.0407
20.2202
20.3996
20.5789
20.7581
20.9372
21.1162
21.295
21.4737
21.6523
21.8308
22.0092
22.1875
22.3656
22.5435
22.7212
22.8989
23.0765
23.254
23.4314
23.6087
23.7858
23.9626
24.1392
24.3157
24.492
24.6682
24.8445
25.0206
25.1967
25.3726
25.5483
25.7237
25.8988
26.0736
26.2481
26.4225
26.5968
26.7711
26.9453
27.1196
27.2938
27.468
27.6419
27.8157
27.9891
28.1622
28.3348
28.507
28.6789
28.8504
29.0216
29.1925
29.3634
29.5341
29.7049
29.8758
30.0467
30.2178
30.389
30.5603
30.7317
30.903
31.0743
31.2455
31.4165
31.5874
31.7581
31.9287
32.099
32.2693
32.4395
32.6097
32.7799
32.9499
33.1198
33.2902
33.4599
33.6292
33.7985
33.9675
34.136
34.3042
34.4723
34.6402
34.8075
34.9745
35.1412
35.3079
35.4743
35.6403
35.8056
35.9705
36.1346
36.2985
36.462
36.6252
36.7881
36.9505
37.1126
37.2744
37.4359
37.5969
37.7574
37.9176
38.0775
38.2368
38.3956
38.5541
38.7122
38.8698
39.0268
39.1833
39.3395
39.4952
39.6503
39.8048
39.9589
40.1125
40.2656
40.418
40.57
40.7214
40.8723
41.0225
41.1721
41.3213
41.4699
41.6178
41.765
41.9117
42.0578
42.2034
42.3482
42.4923
42.6359
42.7789
42.9212
43.0628
43.2037
43.344
43.4838
43.6228
43.761
43.8986
44.0356
44.172
44.3076
44.4424
44.5766
44.7103
44.8433
44.9755
45.1069
45.2378
45.3681
45.4977
45.6266
45.7547
45.8823
46.0093
46.1357
46.2614
46.3864
46.5108
46.6347
46.7581
46.8809
47.0029
47.1244
47.2454
47.366
47.4861
47.6055
47.7244
47.8429
47.961
48.0787
48.1959
48.3125
48.4288
48.5448
48.6606
48.7758
48.8906
49.0051
49.1195
49.2336
49.3474
49.4608
49.5739
49.6869
49.7998
49.9125
50.0249
50.1371
50.2492
50.3612
50.4732
50.585
50.6966
50.808
50.9195
51.0311
51.1425
51.2539
51.3651
51.4763
51.5877
51.6991
51.8104
51.9217
52.0329
52.1442
52.2557
52.3673
52.4788
52.5902
52.7017
52.8134
52.9253
53.0372
53.149
53.2609
53.3729
53.4851
53.5974
53.7099
53.8222
53.9346
54.0472
54.1599
54.2729
54.386
54.499
54.612
54.7251
54.8386
54.9523
55.0659
55.1796
55.2933
55.4072
55.5213
55.6357
55.7501
55.8644
55.9789
56.0935
56.2083
56.3234
56.4385
56.5536
56.6688
56.7841
56.8997
57.0155
57.1313
57.2472
57.3631
57.4792
57.5955
57.712
57.8286
57.9453
58.0619
58.1787
58.2958
58.4131
58.5305
58.6479
58.7652
58.8828
59.0005
59.1186
59.2368
59.355
59.4732
59.5914
59.7099
59.8287
59.9477
60.0667
60.1857
60.3047
60.4239
60.5434
60.6631
60.7829
60.9027
61.0225
61.1425
61.2627
61.3831
61.5037
61.6243
61.745
61.8657
61.9866
62.1077
62.2291
62.3506
62.472
62.5935
62.7151
62.837
62.9591
63.0814
63.2037
63.326
63.4483
63.5708
63.6937
63.8168
63.9399
64.0631
64.1862
64.3094
64.4329
64.5567
64.6807
64.8047
64.9287
65.0528
65.1769
65.3014
65.4261
65.5509
65.6758
65.8006
65.9256
66.0507
66.1762
66.3018
66.4275
66.5532
66.6789
66.8047
66.9309
67.0573
67.1838
67.3105
67.437
67.5636
67.6903
67.8173
67.9447
68.0722
68.1997
68.3272
68.4547
68.5823
68.7103
68.8385
68.9668
69.0952
69.2236
69.3521
69.4807
69.6096
69.7387
69.868
69.9972
70.1264
70.2558
70.3854
70.5153
70.6454
70.7756
70.9057
71.0359
71.1661
71.2966
71.4273
71.5584
71.6895
71.8207
71.9518
72.0829
72.2143
72.346
72.4779
72.6099
72.742
72.874
73.0062
73.1385
73.2711
73.404
73.5369
73.6699
73.8028
73.9358
74.0691
74.2027
74.3365
74.4704
74.6044
74.7383
74.8722
75.0063
75.1408
75.2755
75.4104
75.5454
75.6803
75.8153
75.9503
76.0856
76.2212
76.357
76.4929
76.6288
76.7648
76.9008
77.0371
77.1737
77.3104
77.4473
77.5842
77.721
77.8579
77.995
78.1325
78.2703
78.4082
78.5461
78.684
78.822
78.96
79.0983
79.2369
79.3757
79.5147
79.6536
79.7925
79.9316
80.0709
80.2105
80.3503
80.4901
80.6301
80.77
80.9099
81.0501
81.1906
81.3314
81.4723
81.6133
81.7543
81.8953
82.0364
82.1777
82.3193
82.4612
82.6032
82.7452
82.8873
83.0294
83.1717
83.3143
83.4572
83.6002
83.7432
83.8863
84.0293
84.1726
84.316
84.4599
84.6039
84.7481
84.8923
85.0365
85.1807
85.325
85.4697
85.6146
85.7597
85.9049
86.0502
86.1954
86.3409
86.4865
86.6324
86.7786
86.9249
87.0712
87.2175
87.3639
87.5104
87.6572
87.8042
87.9516
88.099
88.2465
88.3941
88.5416
88.6894
88.8373
88.9856
89.134
89.2825
89.4311
89.5796
89.7284
89.8773
90.0266
90.176
90.3258
90.4755
90.6252
90.775
90.9248
91.075
91.2253
91.376
91.5267
91.6776
91.8286
91.9794
92.1307
92.2819
92.4336
92.5854
92.7374
92.8896
93.0414
93.1938
93.3457
93.4985
93.6511
93.8042
93.9575
94.1105
94.2641
94.417
94.571
94.7244
94.8787
95.0328
95.1871
95.3417
95.4957
95.6506
95.8049
95.9601
96.1152
96.2707
96.4264
96.5817
96.7377
96.8931
97.0493
97.2053
97.3617
97.5184
97.6749
97.8319
97.9884
98.1456
98.3025
98.46
98.6176
98.7754
98.9334
99.0912
99.2495
99.4072
99.5659
99.724
99.8831
100.042
100.201
100.36
100.519
100.679
100.838
100.998
101.157
101.318
101.478
101.638
101.798
101.958
102.119
102.279
102.441
102.602
102.763
102.924
103.085
103.247
103.408
103.57
103.732
103.894
104.056
104.218
104.38
104.542
104.705
104.867
105.03
105.193
105.356
105.519
105.681
105.844
106.007
106.17
106.334
106.497
106.661
106.824
106.987
107.151
107.314
107.478
107.641
107.805
107.969
108.132
108.296
108.459
108.623
108.786
108.949
109.113
109.276
109.44
109.603
109.766
109.929
110.092
110.255
110.418
110.581
110.744
110.906
111.068
111.231
111.392
111.554
111.716
111.878
112.039
112.2
112.361
112.521
112.681
112.842
113.001
113.161
113.321
113.48
113.638
113.796
113.954
114.112
114.269
114.427
114.583
114.74
114.896
115.051
115.206
115.361
115.515
115.669
115.823
115.976
116.129
116.281
116.433
116.584
116.736
116.887
117.037
117.186
117.336
117.484
117.633
117.781
117.929
118.076
118.224
118.37
118.516
118.662
118.807
118.952
119.098
119.242
119.386
119.53
119.674
119.817
119.961
120.104
120.247
120.39
120.533
120.675
120.819
120.961
121.104
121.247
121.39
121.533
121.676
121.819
121.963
122.106
122.25
122.395
122.54
122.685
122.83
122.976
123.122
123.269
123.416
123.564
123.713
123.862
124.012
124.162
124.313
124.465
124.617
124.77
124.924
125.078
125.234
125.39
125.547
125.704
125.863
126.022
126.182
126.343
126.505
126.668
126.832
126.996
127.161
127.327
127.494
127.662
127.83
128
128.17
128.341
128.513
128.685
128.859
129.033
129.208
129.384
129.561
129.738
129.916
130.095
130.274
130.455
130.635
130.817
130.999
131.182
131.366
131.55
131.735
131.921
132.107
132.293
132.481
132.668
132.857
133.046
133.235
133.425
133.615
133.806
133.998
134.19
134.382
134.575
134.768
134.962
135.156
135.351
135.546
135.741
135.937
136.133
136.33
136.526
136.724
136.921
137.119
137.317
137.515
137.714
137.912
138.111
138.311
138.51
138.709
138.909
139.108
139.308
139.507
139.707
139.906
140.105
140.304
140.503
140.701
140.899
141.096
141.293
141.489
141.684
141.879
142.073
142.266
142.458
142.649
142.839
143.028
143.215
143.401
143.586
143.77
143.952
144.132
144.311
144.489
144.666
144.841
145.014
145.187
145.358
145.528
145.697
145.865
146.032
146.198
146.364
146.529
146.694
146.858
147.023
147.187
147.352
147.517
147.682
147.848
148.014
148.181
148.349
148.518
148.688
148.859
149.03
149.203
149.377
149.553
149.729
149.906
150.085
150.265
150.446
150.629
150.812
150.997
151.183
151.37
151.558
151.747
151.937
152.128
152.32
152.514
152.708
152.903
153.099
153.296
153.494
153.693
153.893
154.093
154.295
154.497
154.7
154.904
155.109
155.314
155.52
155.727
155.935
156.143
156.352
156.562
156.773
156.984
157.196
157.408
157.622
157.836
158.05
158.265
158.481
158.698
158.915
159.133
159.351
159.57
159.789
160.009
160.23
160.452
160.673
160.896
161.119
161.342
161.567
161.791
162.016
162.242
162.469
162.695
162.923
163.151
163.379
163.608
163.837
164.067
164.298
164.529
164.76
164.992
165.225
165.457
165.691
165.925
166.159
166.394
166.629
166.865
167.101
167.338
167.575
167.813
168.051
168.29
168.529
168.768
169.008
169.248
169.489
169.73
169.972
170.214
170.456
170.699
170.943
171.186
171.431
171.675
171.92
172.166
172.412
172.658
172.905
173.152
173.399
173.647
173.896
174.144
174.393
174.643
174.893
175.143
175.394
)
;

boundaryField
{
    sides
    {
        type            calculated;
        value           nonuniform List<scalar> 2(175.645 -17.3349);
    }
    empty
    {
        type            empty;
        value           nonuniform List<scalar> 0();
    }
}


// ************************************************************************* //
