/*--------------------------------*- C++ -*----------------------------------*\
  =========                 |
  \\      /  F ield         | OpenFOAM: The Open Source CFD Toolbox
   \\    /   O peration     | Website:  https://openfoam.org
    \\  /    A nd           | Version:  9
     \\/     M anipulation  |
\*---------------------------------------------------------------------------*/
FoamFile
{
    format      ascii;
    class       surfaceScalarField;
    location    "0.022";
    object      phi;
}
// * * * * * * * * * * * * * * * * * * * * * * * * * * * * * * * * * * * * * //

dimensions      [1 0 -1 0 0 0 0];

internalField   nonuniform List<scalar> 
99
(
80.907
91.7919
102.645
113.487
124.296
135.057
145.764
156.414
167.006
177.529
188
198.39
208.747
219.029
229.241
239.416
249.498
259.563
269.493
279.362
289.264
298.976
308.552
318.175
327.757
337.055
346.264
355.591
364.627
373.411
382.098
390.963
399.401
407.492
415.384
423.526
431.223
438.31
444.956
451.704
458.237
464.021
468.988
473.534
477.983
482.118
485.477
487.916
489.857
491.845
493.841
495.295
496.003
496.238
496.529
497.241
497.903
498.101
498.045
497.84
497.549
497.69
497.927
498.008
498.032
497.87
497.696
497.635
497.628
497.649
497.65
497.629
497.537
497.363
497.333
497.314
497.293
497.223
497.184
497.008
496.858
496.783
496.746
496.619
496.473
496.471
496.332
496.17
496.072
496.011
495.972
495.843
495.583
495.348
495.186
495.184
495.176
495.082
494.888
)
;

boundaryField
{
    sides
    {
        type            calculated;
        value           nonuniform List<scalar> 2(494.466 -69.8903);
    }
    empty
    {
        type            empty;
        value           nonuniform List<scalar> 0();
    }
}


// ************************************************************************* //
