/*--------------------------------*- C++ -*----------------------------------*\
  =========                 |
  \\      /  F ield         | OpenFOAM: The Open Source CFD Toolbox
   \\    /   O peration     | Website:  https://openfoam.org
    \\  /    A nd           | Version:  9
     \\/     M anipulation  |
\*---------------------------------------------------------------------------*/
FoamFile
{
    format      ascii;
    class       volVectorField;
    location    "0.022";
    object      U;
}
// * * * * * * * * * * * * * * * * * * * * * * * * * * * * * * * * * * * * * //

dimensions      [0 1 -1 0 0 0 0];

internalField   nonuniform List<vector> 
100
(
(33.5327 0 0)
(40.415 0 0)
(46.8581 0 0)
(52.1513 0 0)
(57.5248 0 0)
(62.9816 0 0)
(68.4436 0 0)
(73.9077 0 0)
(79.3799 0 0)
(84.8568 0 0)
(90.3428 0 0)
(95.8235 0 0)
(101.323 0 0)
(106.814 0 0)
(112.314 0 0)
(117.825 0 0)
(123.326 0 0)
(128.844 0 0)
(134.339 0 0)
(139.853 0 0)
(145.371 0 0)
(150.844 0 0)
(156.33 0 0)
(161.834 0 0)
(167.292 0 0)
(172.726 0 0)
(178.174 0 0)
(183.603 0 0)
(188.965 0 0)
(194.308 0 0)
(199.644 0 0)
(204.926 0 0)
(210.129 0 0)
(215.289 0 0)
(220.404 0 0)
(225.436 0 0)
(230.365 0 0)
(235.185 0 0)
(239.906 0 0)
(244.508 0 0)
(248.959 0 0)
(253.219 0 0)
(257.3 0 0)
(261.195 0 0)
(264.879 0 0)
(268.328 0 0)
(271.533 0 0)
(274.499 0 0)
(277.224 0 0)
(279.705 0 0)
(281.942 0 0)
(283.937 0 0)
(285.704 0 0)
(287.248 0 0)
(288.559 0 0)
(289.672 0 0)
(290.623 0 0)
(291.387 0 0)
(291.994 0 0)
(292.484 0 0)
(292.814 0 0)
(293.038 0 0)
(293.243 0 0)
(293.385 0 0)
(293.475 0 0)
(293.525 0 0)
(293.531 0 0)
(293.529 0 0)
(293.527 0 0)
(293.525 0 0)
(293.523 0 0)
(293.516 0 0)
(293.5 0 0)
(293.47 0 0)
(293.424 0 0)
(293.375 0 0)
(293.321 0 0)
(293.234 0 0)
(293.115 0 0)
(292.968 0 0)
(292.797 0 0)
(292.634 0 0)
(292.487 0 0)
(292.327 0 0)
(292.117 0 0)
(291.917 0 0)
(291.789 0 0)
(291.702 0 0)
(291.633 0 0)
(291.578 0 0)
(291.54 0 0)
(291.524 0 0)
(291.512 0 0)
(291.502 0 0)
(291.503 0 0)
(291.515 0 0)
(291.529 0 0)
(291.542 0 0)
(291.565 0 0)
(291.594 0 0)
)
;

boundaryField
{
    sides
    {
        type            zeroGradient;
    }
    empty
    {
        type            empty;
    }
}


// ************************************************************************* //
