/*--------------------------------*- C++ -*----------------------------------*\
  =========                 |
  \\      /  F ield         | OpenFOAM: The Open Source CFD Toolbox
   \\    /   O peration     | Website:  https://openfoam.org
    \\  /    A nd           | Version:  9
     \\/     M anipulation  |
\*---------------------------------------------------------------------------*/
FoamFile
{
    format      ascii;
    class       volScalarField;
    location    "0.005";
    object      T;
}
// * * * * * * * * * * * * * * * * * * * * * * * * * * * * * * * * * * * * * //

dimensions      [0 0 0 1 0 0 0];

internalField   nonuniform List<scalar> 
1000
(
348.432
348.432
348.432
348.432
348.432
348.432
348.432
348.432
348.432
348.432
348.432
348.432
348.432
348.432
348.432
348.432
348.432
348.432
348.432
348.432
348.432
348.432
348.432
348.432
348.432
348.432
348.432
348.432
348.432
348.432
348.432
348.432
348.432
348.432
348.432
348.432
348.432
348.432
348.432
348.432
348.432
348.432
348.432
348.432
348.432
348.432
348.432
348.432
348.432
348.432
348.432
348.432
348.432
348.432
348.432
348.432
348.432
348.432
348.432
348.432
348.432
348.432
348.432
348.432
348.432
348.432
348.432
348.432
348.432
348.432
348.432
348.432
348.432
348.432
348.432
348.432
348.432
348.432
348.432
348.432
348.432
348.432
348.432
348.432
348.432
348.432
348.432
348.432
348.432
348.432
348.432
348.432
348.432
348.432
348.432
348.432
348.432
348.432
348.432
348.432
348.432
348.432
348.432
348.432
348.432
348.432
348.432
348.432
348.432
348.432
348.432
348.432
348.432
348.432
348.432
348.432
348.432
348.432
348.432
348.432
348.432
348.432
348.432
348.432
348.432
348.432
348.432
348.432
348.432
348.432
348.432
348.432
348.432
348.432
348.432
348.432
348.432
348.432
348.432
348.432
348.432
348.432
348.432
348.432
348.432
348.432
348.432
348.432
348.432
348.432
348.432
348.432
348.432
348.432
348.432
348.432
348.432
348.432
348.432
348.432
348.432
348.432
348.432
348.432
348.432
348.432
348.432
348.432
348.432
348.432
348.432
348.432
348.432
348.432
348.432
348.432
348.432
348.432
348.432
348.432
348.432
348.432
348.432
348.432
348.432
348.432
348.432
348.432
348.432
348.432
348.432
348.432
348.432
348.432
348.432
348.432
348.432
348.432
348.432
348.432
348.432
348.432
348.432
348.432
348.432
348.432
348.432
348.432
348.432
348.432
348.432
348.432
348.432
348.432
348.432
348.432
348.432
348.432
348.432
348.432
348.432
348.432
348.432
348.432
348.432
348.432
348.432
348.432
348.432
348.432
348.432
348.432
348.432
348.432
348.432
348.432
348.432
348.432
348.432
348.432
348.432
348.432
348.432
348.432
348.432
348.432
348.432
348.432
348.432
348.432
348.432
348.432
348.432
348.432
348.432
348.432
348.432
348.432
348.432
348.432
348.432
348.432
348.432
348.432
348.432
348.432
348.432
348.432
348.432
348.432
348.432
348.432
348.432
348.432
348.432
348.432
348.432
348.432
348.432
348.432
348.432
348.432
348.432
348.432
348.432
348.432
348.432
348.432
348.432
348.432
348.432
348.432
348.432
348.432
348.432
348.432
348.432
348.432
348.432
348.432
348.432
348.432
348.432
348.432
348.432
348.432
348.432
348.432
348.432
348.432
348.432
348.432
348.432
348.431
348.429
348.424
348.41
348.375
348.279
348.02
347.301
345.512
343.32
341.78
340.719
339.907
339.223
338.603
338.011
337.428
336.843
336.254
335.658
335.059
334.456
333.851
333.247
332.642
332.038
331.435
330.832
330.23
329.63
329.03
328.43
327.832
327.235
326.638
326.042
325.447
324.853
324.26
323.667
323.075
322.484
321.893
321.303
320.714
320.126
319.538
318.951
318.364
317.778
317.193
316.609
316.025
315.442
314.859
314.277
313.695
313.115
312.534
311.955
311.376
310.797
310.22
309.642
309.066
308.49
307.914
307.339
306.765
306.191
305.618
305.045
304.473
303.901
303.33
302.76
302.19
301.62
301.051
300.483
299.915
299.348
298.781
298.215
297.649
297.084
296.519
295.955
295.392
294.829
294.266
293.704
293.142
292.582
292.021
291.461
290.902
290.343
289.784
289.226
288.669
288.112
287.556
287
286.444
285.89
285.335
284.781
284.228
283.675
283.123
282.571
282.02
281.469
280.919
280.369
279.82
279.271
278.722
278.175
277.627
277.081
276.534
275.989
275.444
274.899
274.355
273.811
273.268
272.725
272.183
271.641
271.1
270.56
270.02
269.48
268.941
268.403
267.865
267.328
266.791
266.255
265.719
265.184
264.649
264.115
263.582
263.049
262.517
261.985
261.454
260.924
260.394
259.864
259.336
258.808
258.281
257.754
257.228
256.703
256.178
255.654
255.131
254.608
254.087
253.566
253.046
252.527
252.01
251.494
250.982
250.474
249.975
249.492
249.039
248.633
248.295
248.04
247.867
247.755
247.681
247.628
247.587
247.559
247.543
247.536
247.534
247.536
247.537
247.537
247.535
247.533
247.533
247.538
247.559
247.582
247.594
247.599
247.598
247.597
247.596
247.598
247.611
247.63
247.644
247.648
247.648
247.648
247.649
247.65
247.658
247.679
247.701
247.71
247.715
247.716
247.711
247.695
247.679
247.665
247.654
247.64
247.621
247.604
247.597
247.59
247.587
247.592
247.597
247.599
247.597
247.586
247.579
247.573
247.576
247.59
247.604
247.607
247.607
247.602
247.597
247.597
247.603
247.621
247.634
247.636
247.636
247.634
247.631
247.635
247.651
247.668
247.667
247.665
247.645
247.614
247.593
247.588
247.585
247.59
247.592
247.591
247.582
247.564
247.557
247.55
247.552
247.564
247.568
247.567
247.56
247.547
247.542
247.537
247.546
247.564
247.572
247.571
247.566
247.556
247.55
247.547
247.557
247.573
247.581
247.58
247.577
247.572
247.568
247.565
247.571
247.569
247.565
247.544
247.52
247.496
247.485
247.474
247.483
247.492
247.488
247.48
247.464
247.446
247.432
247.424
247.439
247.443
247.439
247.428
247.414
247.4
247.385
247.391
247.415
247.413
247.403
247.388
247.373
247.348
247.347
247.365
247.406
247.464
247.549
247.716
248.035
248.649
249.846
252.16
256.484
264.463
279.005
304.473
339.622
371.105
389.909
398.02
400.807
400.364
399.438
399.575
399.745
399.739
399.754
400.53
401.08
400.597
399.565
398.104
396.143
395.355
395.104
395.033
395.447
397.208
398.101
398.448
398.703
398.46
397.25
397.092
397.349
397.683
398.26
399.481
399.766
399.572
399.068
398.06
396.44
395.872
395.737
395.748
396.367
397.916
398.501
398.797
398.986
398.691
397.575
397.369
397.394
397.473
397.877
398.793
398.9
398.648
398.227
397.479
396.344
396.075
396.079
396.258
397.012
398.32
398.795
399.015
399.094
398.701
397.701
397.477
397.391
397.338
397.606
398.34
398.397
398.199
397.917
397.361
396.578
396.459
396.547
396.824
397.518
398.531
398.868
398.985
398.995
398.562
397.701
397.453
397.307
397.223
397.443
398.055
398.106
397.984
397.814
397.43
396.87
396.82
396.975
397.262
397.803
398.551
398.747
398.772
398.717
398.289
397.521
397.275
397.146
397.073
397.246
397.797
397.885
397.869
397.844
397.676
397.235
397.198
397.346
397.54
397.87
398.411
398.533
398.524
398.444
398.187
397.71
397.195
396.092
386.708
334.042
283.075
279.019
278.764
278.747
278.746
278.746
278.746
278.746
278.746
278.746
278.746
278.746
278.746
278.746
278.746
278.746
278.746
278.746
278.746
278.746
278.746
278.746
278.746
278.746
278.746
278.746
278.746
278.746
278.746
278.746
278.746
278.746
278.746
278.746
278.746
278.746
278.746
278.746
278.746
278.746
278.746
278.746
278.746
278.746
278.746
278.746
278.746
278.746
278.746
278.746
278.746
278.746
278.746
278.746
278.746
278.746
278.746
278.746
278.746
278.746
278.746
278.746
278.746
278.746
278.746
278.746
278.746
278.746
278.746
278.746
278.746
278.746
278.746
278.746
278.746
278.746
278.746
278.746
278.746
278.746
278.746
278.746
278.746
278.746
278.746
278.746
278.746
278.746
278.746
278.746
278.746
278.746
278.746
278.746
278.746
278.746
278.746
278.746
278.746
278.746
278.746
278.746
278.746
278.746
278.746
278.746
278.746
278.746
278.746
278.746
278.746
278.746
278.746
278.746
278.746
278.746
278.746
278.746
278.746
278.746
278.746
278.746
278.746
278.746
278.746
278.746
278.746
278.746
278.746
278.746
278.746
278.746
278.746
278.746
278.746
278.746
278.746
278.746
278.746
278.746
278.746
278.746
278.746
278.746
278.746
278.746
278.746
278.746
278.746
278.746
278.746
278.746
278.746
278.746
278.746
278.746
278.746
278.746
278.746
278.746
278.746
278.746
278.746
278.746
278.746
278.746
278.746
278.746
278.746
278.746
278.746
278.746
278.746
278.746
278.746
278.746
278.746
278.746
278.746
278.746
278.746
278.746
278.746
278.746
278.746
278.746
278.746
278.746
278.746
278.746
278.746
278.746
278.746
278.746
278.746
278.746
278.746
278.746
278.746
278.746
278.746
278.746
278.746
278.746
278.746
278.746
278.746
278.746
278.746
278.746
278.746
278.746
278.746
278.746
278.746
278.746
278.746
278.746
278.746
278.746
278.746
278.746
)
;

boundaryField
{
    sides
    {
        type            zeroGradient;
    }
    empty
    {
        type            empty;
    }
}


// ************************************************************************* //
