/*--------------------------------*- C++ -*----------------------------------*\
  =========                 |
  \\      /  F ield         | OpenFOAM: The Open Source CFD Toolbox
   \\    /   O peration     | Website:  https://openfoam.org
    \\  /    A nd           | Version:  9
     \\/     M anipulation  |
\*---------------------------------------------------------------------------*/
FoamFile
{
    format      ascii;
    class       volVectorField;
    location    "0.005";
    object      U;
}
// * * * * * * * * * * * * * * * * * * * * * * * * * * * * * * * * * * * * * //

dimensions      [0 1 -1 0 0 0 0];

internalField   nonuniform List<vector> 
1000
(
(-3.54157e-13 0 0)
(-4.35974e-13 0 0)
(-4.58184e-13 0 0)
(-5.15038e-13 0 0)
(-5.57144e-13 0 0)
(-5.09631e-13 0 0)
(-6.12275e-13 0 0)
(-6.68127e-13 0 0)
(-7.25217e-13 0 0)
(-6.7281e-13 0 0)
(-5.57209e-13 0 0)
(-6.15429e-13 0 0)
(-7.02345e-13 0 0)
(-7.10928e-13 0 0)
(-6.72518e-13 0 0)
(-6.46767e-13 0 0)
(-6.87919e-13 0 0)
(-7.08681e-13 0 0)
(-6.23214e-13 0 0)
(-5.29232e-13 0 0)
(-4.98809e-13 0 0)
(-4.16825e-13 0 0)
(-4.59081e-13 0 0)
(-3.75923e-13 0 0)
(-3.18715e-13 0 0)
(-3.59054e-13 0 0)
(-4.08807e-13 0 0)
(-4.03962e-13 0 0)
(-3.63876e-13 0 0)
(-3.88689e-13 0 0)
(-4.24718e-13 0 0)
(-3.67167e-13 0 0)
(-3.4716e-13 0 0)
(-3.78586e-13 0 0)
(-4.00029e-13 0 0)
(-4.36034e-13 0 0)
(-4.60807e-13 0 0)
(-3.7283e-13 0 0)
(-2.98536e-13 0 0)
(-2.43191e-13 0 0)
(-1.5925e-13 0 0)
(-1.19431e-13 0 0)
(-1.49906e-13 0 0)
(-1.81492e-13 0 0)
(-1.11424e-13 0 0)
(-4.81513e-14 0 0)
(-7.48364e-14 0 0)
(-1.32415e-13 0 0)
(-1.48961e-13 0 0)
(-1.14375e-13 0 0)
(-1.27797e-13 0 0)
(-1.1098e-13 0 0)
(-1.63943e-13 0 0)
(-2.56477e-13 0 0)
(-2.24088e-13 0 0)
(-1.77004e-13 0 0)
(-1.77369e-13 0 0)
(-1.81437e-13 0 0)
(-2.13436e-13 0 0)
(-2.92578e-13 0 0)
(-3.76238e-13 0 0)
(-3.2735e-13 0 0)
(-2.90158e-13 0 0)
(-2.49444e-13 0 0)
(-1.94226e-13 0 0)
(-2.18818e-13 0 0)
(-2.19903e-13 0 0)
(-2.32516e-13 0 0)
(-1.97554e-13 0 0)
(-2.43939e-13 0 0)
(-2.79855e-13 0 0)
(-3.22301e-13 0 0)
(-2.40104e-13 0 0)
(-2.31995e-13 0 0)
(-2.88821e-13 0 0)
(-3.10631e-13 0 0)
(-3.76078e-13 0 0)
(-3.22639e-13 0 0)
(-1.99105e-13 0 0)
(-1.81641e-13 0 0)
(-3.08003e-13 0 0)
(-3.42273e-13 0 0)
(-4.38985e-13 0 0)
(-4.53799e-13 0 0)
(-4.49465e-13 0 0)
(-3.17565e-13 0 0)
(-3.94348e-13 0 0)
(-4.29477e-13 0 0)
(-3.56015e-13 0 0)
(-3.02872e-13 0 0)
(-3.0886e-13 0 0)
(-3.43126e-13 0 0)
(-2.17387e-13 0 0)
(-2.71257e-13 0 0)
(-2.20702e-13 0 0)
(-2.73938e-13 0 0)
(-3.22347e-13 0 0)
(-2.20438e-13 0 0)
(-1.62879e-13 0 0)
(-1.24121e-13 0 0)
(-1.20622e-13 0 0)
(-1.52417e-13 0 0)
(-1.85905e-13 0 0)
(-2.29441e-13 0 0)
(-2.58806e-13 0 0)
(-3.13196e-13 0 0)
(-2.92805e-13 0 0)
(-2.98452e-13 0 0)
(-3.79285e-13 0 0)
(-3.26745e-13 0 0)
(-3.40785e-13 0 0)
(-2.98222e-13 0 0)
(-2.21334e-13 0 0)
(-1.76559e-13 0 0)
(-1.7781e-13 0 0)
(-1.50327e-13 0 0)
(-1.86436e-13 0 0)
(-1.99559e-13 0 0)
(-2.83777e-13 0 0)
(-3.10212e-13 0 0)
(-3.89567e-13 0 0)
(-3.87003e-13 0 0)
(-3.80921e-13 0 0)
(-4.05472e-13 0 0)
(-3.91364e-13 0 0)
(-3.77843e-13 0 0)
(-3.75962e-13 0 0)
(-3.7999e-13 0 0)
(-3.34158e-13 0 0)
(-2.52875e-13 0 0)
(-1.63451e-13 0 0)
(-5.18657e-14 0 0)
(-2.99954e-14 0 0)
(2.23683e-14 0 0)
(4.93215e-14 0 0)
(8.39376e-14 0 0)
(5.19169e-14 0 0)
(5.5999e-14 0 0)
(4.80835e-14 0 0)
(6.32118e-14 0 0)
(5.74361e-14 0 0)
(-1.34359e-14 0 0)
(1.39842e-14 0 0)
(1.79538e-13 0 0)
(2.84261e-13 0 0)
(2.96386e-13 0 0)
(3.13988e-13 0 0)
(2.23168e-13 0 0)
(1.5845e-13 0 0)
(1.73077e-13 0 0)
(1.71459e-13 0 0)
(2.22502e-13 0 0)
(2.45481e-13 0 0)
(2.25563e-13 0 0)
(2.73052e-13 0 0)
(2.39061e-13 0 0)
(2.08502e-13 0 0)
(2.11126e-13 0 0)
(1.12844e-13 0 0)
(1.30433e-13 0 0)
(1.6438e-13 0 0)
(1.23193e-13 0 0)
(7.0144e-14 0 0)
(1.60776e-13 0 0)
(2.33863e-13 0 0)
(1.87934e-13 0 0)
(1.59541e-13 0 0)
(1.21767e-13 0 0)
(1.79219e-13 0 0)
(1.53531e-13 0 0)
(1.3809e-13 0 0)
(1.29261e-13 0 0)
(4.87468e-14 0 0)
(1.94728e-14 0 0)
(-3.97736e-14 0 0)
(-6.84131e-14 0 0)
(-1.15576e-13 0 0)
(-7.9201e-14 0 0)
(-4.70374e-14 0 0)
(1.58779e-14 0 0)
(4.80819e-14 0 0)
(9.16586e-14 0 0)
(1.34338e-13 0 0)
(1.14107e-13 0 0)
(1.315e-13 0 0)
(1.24688e-13 0 0)
(9.98322e-14 0 0)
(1.38303e-13 0 0)
(2.00529e-13 0 0)
(2.15857e-13 0 0)
(2.3714e-13 0 0)
(1.58158e-13 0 0)
(8.88899e-14 0 0)
(2.9033e-14 0 0)
(4.39615e-14 0 0)
(1.45159e-13 0 0)
(2.40605e-13 0 0)
(2.0456e-13 0 0)
(1.22114e-13 0 0)
(9.25411e-14 0 0)
(8.38524e-14 0 0)
(8.912e-14 0 0)
(1.44961e-13 0 0)
(1.6528e-13 0 0)
(2.41073e-13 0 0)
(2.82057e-13 0 0)
(2.86753e-13 0 0)
(2.80313e-13 0 0)
(3.04303e-13 0 0)
(2.63649e-13 0 0)
(2.61351e-13 0 0)
(2.54305e-13 0 0)
(2.61708e-13 0 0)
(1.90835e-13 0 0)
(1.40216e-13 0 0)
(1.5079e-13 0 0)
(9.73605e-14 0 0)
(4.31163e-15 0 0)
(-1.36024e-13 0 0)
(-1.7073e-13 0 0)
(-2.10116e-13 0 0)
(-1.71868e-13 0 0)
(-2.24639e-13 0 0)
(-2.79468e-13 0 0)
(-2.26564e-13 0 0)
(-2.13269e-13 0 0)
(-2.26145e-13 0 0)
(-2.35262e-13 0 0)
(-1.74492e-13 0 0)
(-7.34703e-14 0 0)
(-1.0129e-14 0 0)
(9.45551e-14 0 0)
(1.26401e-13 0 0)
(6.29913e-14 0 0)
(2.82104e-15 0 0)
(5.86061e-14 0 0)
(1.01822e-14 0 0)
(-6.05759e-15 0 0)
(1.65015e-14 0 0)
(-4.59473e-14 0 0)
(-8.27196e-14 0 0)
(-5.33509e-14 0 0)
(-9.71602e-14 0 0)
(-7.30893e-14 0 0)
(-1.13977e-14 0 0)
(-2.40762e-15 0 0)
(-1.59171e-14 0 0)
(-6.61607e-14 0 0)
(-1.20197e-13 0 0)
(-1.64941e-13 0 0)
(-2.3608e-13 0 0)
(-2.17869e-13 0 0)
(-1.92008e-13 0 0)
(-1.08502e-13 0 0)
(-5.5694e-14 0 0)
(-7.50377e-14 0 0)
(-1.27527e-13 0 0)
(-1.31345e-13 0 0)
(-1.83164e-13 0 0)
(-1.68914e-13 0 0)
(-1.84316e-13 0 0)
(-1.75614e-13 0 0)
(-2.0116e-13 0 0)
(-1.64865e-13 0 0)
(-1.59834e-13 0 0)
(-2.40193e-13 0 0)
(-3.24632e-13 0 0)
(-3.57218e-13 0 0)
(-2.90773e-13 0 0)
(-1.73748e-13 0 0)
(-5.62255e-14 0 0)
(-1.00483e-14 0 0)
(-2.79347e-14 0 0)
(-4.70573e-14 0 0)
(-8.95027e-14 0 0)
(-7.7183e-14 0 0)
(-1.34674e-13 0 0)
(-1.59776e-13 0 0)
(-1.57101e-13 0 0)
(-2.10963e-13 0 0)
(-2.62601e-13 0 0)
(-2.22134e-13 0 0)
(-1.9491e-13 0 0)
(-2.06128e-13 0 0)
(-2.0046e-13 0 0)
(-1.77243e-13 0 0)
(-2.08688e-13 0 0)
(-1.67519e-13 0 0)
(-1.54737e-13 0 0)
(-1.10958e-13 0 0)
(7.72222e-14 0 0)
(5.69928e-13 0 0)
(2.4981e-12 0 0)
(8.80911e-12 0 0)
(2.65788e-11 0 0)
(7.55836e-11 0 0)
(2.14786e-10 0 0)
(6.00758e-10 0 0)
(1.66224e-09 0 0)
(4.55442e-09 0 0)
(1.23847e-08 0 0)
(3.34326e-08 0 0)
(8.96315e-08 0 0)
(2.38662e-07 0 0)
(6.3131e-07 0 0)
(1.65951e-06 0 0)
(4.33714e-06 0 0)
(1.12764e-05 0 0)
(2.91892e-05 0 0)
(7.52947e-05 0 0)
(0.000193772 0 0)
(0.000498168 0 0)
(0.00128136 0 0)
(0.00330281 0 0)
(0.00854535 0 0)
(0.0222286 0 0)
(0.0582198 0 0)
(0.153737 0 0)
(0.409843 0 0)
(1.10503 0 0)
(3.03652 0 0)
(7.84853 0 0)
(13.7586 0 0)
(17.9248 0 0)
(20.7984 0 0)
(23.0006 0 0)
(24.8589 0 0)
(26.5458 0 0)
(28.157 0 0)
(29.7455 0 0)
(31.3385 0 0)
(32.9473 0 0)
(34.5731 0 0)
(36.2129 0 0)
(37.8623 0 0)
(39.5172 0 0)
(41.175 0 0)
(42.8338 0 0)
(44.4926 0 0)
(46.1509 0 0)
(47.8085 0 0)
(49.4654 0 0)
(51.1213 0 0)
(52.7764 0 0)
(54.4306 0 0)
(56.0841 0 0)
(57.7367 0 0)
(59.3886 0 0)
(61.0397 0 0)
(62.6902 0 0)
(64.34 0 0)
(65.9892 0 0)
(67.6378 0 0)
(69.2859 0 0)
(70.9334 0 0)
(72.5805 0 0)
(74.2271 0 0)
(75.8733 0 0)
(77.5191 0 0)
(79.1645 0 0)
(80.8096 0 0)
(82.4544 0 0)
(84.0988 0 0)
(85.7429 0 0)
(87.3868 0 0)
(89.0304 0 0)
(90.6737 0 0)
(92.3168 0 0)
(93.9597 0 0)
(95.6024 0 0)
(97.2449 0 0)
(98.8872 0 0)
(100.529 0 0)
(102.171 0 0)
(103.813 0 0)
(105.455 0 0)
(107.097 0 0)
(108.738 0 0)
(110.379 0 0)
(112.021 0 0)
(113.662 0 0)
(115.303 0 0)
(116.944 0 0)
(118.585 0 0)
(120.226 0 0)
(121.867 0 0)
(123.508 0 0)
(125.149 0 0)
(126.789 0 0)
(128.43 0 0)
(130.071 0 0)
(131.712 0 0)
(133.352 0 0)
(134.993 0 0)
(136.634 0 0)
(138.275 0 0)
(139.916 0 0)
(141.556 0 0)
(143.197 0 0)
(144.838 0 0)
(146.479 0 0)
(148.12 0 0)
(149.761 0 0)
(151.402 0 0)
(153.043 0 0)
(154.685 0 0)
(156.326 0 0)
(157.967 0 0)
(159.608 0 0)
(161.25 0 0)
(162.891 0 0)
(164.533 0 0)
(166.175 0 0)
(167.817 0 0)
(169.458 0 0)
(171.1 0 0)
(172.742 0 0)
(174.384 0 0)
(176.027 0 0)
(177.669 0 0)
(179.311 0 0)
(180.954 0 0)
(182.596 0 0)
(184.239 0 0)
(185.882 0 0)
(187.525 0 0)
(189.168 0 0)
(190.811 0 0)
(192.454 0 0)
(194.097 0 0)
(195.74 0 0)
(197.384 0 0)
(199.027 0 0)
(200.671 0 0)
(202.315 0 0)
(203.959 0 0)
(205.603 0 0)
(207.247 0 0)
(208.891 0 0)
(210.535 0 0)
(212.179 0 0)
(213.823 0 0)
(215.468 0 0)
(217.112 0 0)
(218.756 0 0)
(220.401 0 0)
(222.046 0 0)
(223.69 0 0)
(225.335 0 0)
(226.979 0 0)
(228.624 0 0)
(230.269 0 0)
(231.913 0 0)
(233.558 0 0)
(235.202 0 0)
(236.847 0 0)
(238.491 0 0)
(240.135 0 0)
(241.78 0 0)
(243.424 0 0)
(245.068 0 0)
(246.712 0 0)
(248.355 0 0)
(249.999 0 0)
(251.642 0 0)
(253.285 0 0)
(254.928 0 0)
(256.57 0 0)
(258.212 0 0)
(259.854 0 0)
(261.496 0 0)
(263.137 0 0)
(264.777 0 0)
(266.418 0 0)
(268.058 0 0)
(269.697 0 0)
(271.335 0 0)
(272.973 0 0)
(274.61 0 0)
(276.245 0 0)
(277.879 0 0)
(279.509 0 0)
(281.136 0 0)
(282.755 0 0)
(284.36 0 0)
(285.939 0 0)
(287.468 0 0)
(288.907 0 0)
(290.196 0 0)
(291.267 0 0)
(292.075 0 0)
(292.631 0 0)
(292.984 0 0)
(293.213 0 0)
(293.381 0 0)
(293.516 0 0)
(293.608 0 0)
(293.654 0 0)
(293.67 0 0)
(293.672 0 0)
(293.669 0 0)
(293.666 0 0)
(293.666 0 0)
(293.67 0 0)
(293.673 0 0)
(293.672 0 0)
(293.655 0 0)
(293.589 0 0)
(293.512 0 0)
(293.47 0 0)
(293.457 0 0)
(293.455 0 0)
(293.459 0 0)
(293.46 0 0)
(293.451 0 0)
(293.407 0 0)
(293.342 0 0)
(293.305 0 0)
(293.288 0 0)
(293.281 0 0)
(293.279 0 0)
(293.277 0 0)
(293.271 0 0)
(293.245 0 0)
(293.177 0 0)
(293.107 0 0)
(293.066 0 0)
(293.052 0 0)
(293.05 0 0)
(293.065 0 0)
(293.116 0 0)
(293.166 0 0)
(293.202 0 0)
(293.234 0 0)
(293.276 0 0)
(293.335 0 0)
(293.389 0 0)
(293.422 0 0)
(293.432 0 0)
(293.431 0 0)
(293.412 0 0)
(293.394 0 0)
(293.391 0 0)
(293.4 0 0)
(293.433 0 0)
(293.454 0 0)
(293.458 0 0)
(293.448 0 0)
(293.4 0 0)
(293.36 0 0)
(293.344 0 0)
(293.342 0 0)
(293.352 0 0)
(293.361 0 0)
(293.363 0 0)
(293.34 0 0)
(293.282 0 0)
(293.243 0 0)
(293.228 0 0)
(293.226 0 0)
(293.229 0 0)
(293.229 0 0)
(293.214 0 0)
(293.158 0 0)
(293.113 0 0)
(293.098 0 0)
(293.103 0 0)
(293.164 0 0)
(293.262 0 0)
(293.32 0 0)
(293.342 0 0)
(293.344 0 0)
(293.327 0 0)
(293.312 0 0)
(293.312 0 0)
(293.337 0 0)
(293.383 0 0)
(293.411 0 0)
(293.417 0 0)
(293.406 0 0)
(293.368 0 0)
(293.349 0 0)
(293.348 0 0)
(293.366 0 0)
(293.399 0 0)
(293.414 0 0)
(293.415 0 0)
(293.381 0 0)
(293.319 0 0)
(293.29 0 0)
(293.285 0 0)
(293.293 0 0)
(293.317 0 0)
(293.331 0 0)
(293.332 0 0)
(293.293 0 0)
(293.231 0 0)
(293.201 0 0)
(293.19 0 0)
(293.19 0 0)
(293.195 0 0)
(293.202 0 0)
(293.203 0 0)
(293.184 0 0)
(293.173 0 0)
(293.181 0 0)
(293.234 0 0)
(293.3 0 0)
(293.351 0 0)
(293.384 0 0)
(293.39 0 0)
(293.353 0 0)
(293.312 0 0)
(293.308 0 0)
(293.328 0 0)
(293.371 0 0)
(293.411 0 0)
(293.437 0 0)
(293.432 0 0)
(293.37 0 0)
(293.326 0 0)
(293.323 0 0)
(293.338 0 0)
(293.361 0 0)
(293.397 0 0)
(293.423 0 0)
(293.407 0 0)
(293.323 0 0)
(293.275 0 0)
(293.269 0 0)
(293.279 0 0)
(293.295 0 0)
(293.321 0 0)
(293.35 0 0)
(293.308 0 0)
(293.208 0 0)
(293.173 0 0)
(293.171 0 0)
(293.169 0 0)
(293.185 0 0)
(293.242 0 0)
(293.294 0 0)
(293.26 0 0)
(293.25 0 0)
(293.329 0 0)
(293.565 0 0)
(294.335 0 0)
(290.918 0 0)
(288.769 0 0)
(295.067 0 0)
(298.778 0 0)
(299.02 0 0)
(294.004 0 0)
(290.129 0 0)
(289.758 0 0)
(289.868 0 0)
(290.112 0 0)
(291.052 0 0)
(294.392 0 0)
(297.182 0 0)
(297.562 0 0)
(297.055 0 0)
(295.248 0 0)
(291.228 0 0)
(289.98 0 0)
(289.79 0 0)
(289.938 0 0)
(291.219 0 0)
(295.241 0 0)
(296.778 0 0)
(296.99 0 0)
(296.788 0 0)
(294.952 0 0)
(290.924 0 0)
(289.869 0 0)
(289.874 0 0)
(290.207 0 0)
(291.663 0 0)
(295.186 0 0)
(296.338 0 0)
(296.463 0 0)
(296.168 0 0)
(294.736 0 0)
(291.235 0 0)
(290.204 0 0)
(290.088 0 0)
(290.306 0 0)
(291.83 0 0)
(295.125 0 0)
(295.995 0 0)
(296.175 0 0)
(296.002 0 0)
(294.443 0 0)
(291.243 0 0)
(290.545 0 0)
(290.534 0 0)
(290.803 0 0)
(292.262 0 0)
(295.16 0 0)
(295.943 0 0)
(295.97 0 0)
(295.681 0 0)
(294.356 0 0)
(291.578 0 0)
(290.933 0 0)
(290.905 0 0)
(291.102 0 0)
(292.428 0 0)
(295.017 0 0)
(295.65 0 0)
(295.764 0 0)
(295.556 0 0)
(294.121 0 0)
(291.607 0 0)
(291.135 0 0)
(291.09 0 0)
(291.3 0 0)
(292.557 0 0)
(294.904 0 0)
(295.455 0 0)
(295.428 0 0)
(295.157 0 0)
(293.911 0 0)
(291.774 0 0)
(291.332 0 0)
(291.302 0 0)
(291.485 0 0)
(292.569 0 0)
(294.635 0 0)
(295.117 0 0)
(295.161 0 0)
(294.955 0 0)
(293.714 0 0)
(291.77 0 0)
(291.408 0 0)
(291.359 0 0)
(291.561 0 0)
(292.676 0 0)
(294.613 0 0)
(295.045 0 0)
(295.038 0 0)
(294.827 0 0)
(293.772 0 0)
(292.07 0 0)
(291.687 0 0)
(291.681 0 0)
(291.877 0 0)
(292.773 0 0)
(294.507 0 0)
(294.9 0 0)
(294.924 0 0)
(294.789 0 0)
(293.866 0 0)
(292.245 0 0)
(291.906 0 0)
(291.846 0 0)
(291.975 0 0)
(292.819 0 0)
(294.432 0 0)
(294.774 0 0)
(294.778 0 0)
(294.634 0 0)
(293.869 0 0)
(292.343 0 0)
(291.927 0 0)
(291.932 0 0)
(292.086 0 0)
(292.782 0 0)
(294.201 0 0)
(294.53 0 0)
(294.544 0 0)
(294.464 0 0)
(294.039 0 0)
(293.072 0 0)
(292.012 0 0)
(289.392 0 0)
(267.603 0 0)
(129.155 0 0)
(11.4386 0 0)
(0.783323 0 0)
(0.0523413 0 0)
(0.00348589 0 0)
(0.000231857 0 0)
(1.54016e-05 0 0)
(1.02171e-06 0 0)
(6.76896e-08 0 0)
(4.47967e-09 0 0)
(2.97048e-10 0 0)
(2.05864e-11 0 0)
(2.12218e-12 0 0)
(8.73678e-13 0 0)
(7.33002e-13 0 0)
(5.64996e-13 0 0)
(2.72475e-13 0 0)
(-5.54911e-14 0 0)
(-2.90354e-13 0 0)
(-3.28847e-13 0 0)
(-4.34903e-13 0 0)
(-4.06047e-13 0 0)
(-3.24784e-13 0 0)
(-2.92503e-13 0 0)
(-2.54981e-13 0 0)
(-2.04323e-13 0 0)
(-2.60979e-13 0 0)
(-3.21826e-13 0 0)
(-3.30127e-13 0 0)
(-4.42814e-13 0 0)
(-4.85337e-13 0 0)
(-4.71139e-13 0 0)
(-5.02436e-13 0 0)
(-4.33167e-13 0 0)
(-4.03284e-13 0 0)
(-4.19762e-13 0 0)
(-3.52417e-13 0 0)
(-2.46952e-13 0 0)
(-1.51536e-13 0 0)
(-8.54383e-14 0 0)
(-8.94679e-14 0 0)
(-4.24383e-14 0 0)
(1.15791e-14 0 0)
(1.31332e-13 0 0)
(1.23513e-13 0 0)
(-8.90719e-15 0 0)
(2.46624e-14 0 0)
(-2.12193e-14 0 0)
(-1.15069e-13 0 0)
(-1.86542e-13 0 0)
(-2.15459e-13 0 0)
(-2.4176e-13 0 0)
(-1.99959e-13 0 0)
(-2.02541e-13 0 0)
(-2.24825e-13 0 0)
(-2.72211e-13 0 0)
(-3.48684e-13 0 0)
(-4.12493e-13 0 0)
(-4.24691e-13 0 0)
(-3.89001e-13 0 0)
(-4.36502e-13 0 0)
(-4.28557e-13 0 0)
(-4.29078e-13 0 0)
(-3.17164e-13 0 0)
(-2.70361e-13 0 0)
(-2.0633e-13 0 0)
(-2.6556e-13 0 0)
(-2.10009e-13 0 0)
(-1.54582e-13 0 0)
(-1.30396e-13 0 0)
(-1.66345e-13 0 0)
(-1.919e-13 0 0)
(-2.37642e-13 0 0)
(-3.15417e-13 0 0)
(-2.96568e-13 0 0)
(-2.10393e-13 0 0)
(-1.11405e-13 0 0)
(-1.75802e-13 0 0)
(-1.44467e-13 0 0)
(-1.57251e-13 0 0)
(-2.39024e-13 0 0)
(-3.06302e-13 0 0)
(-2.4614e-13 0 0)
(-2.17758e-13 0 0)
(-3.22076e-13 0 0)
(-4.20383e-13 0 0)
(-3.54268e-13 0 0)
(-2.63051e-13 0 0)
(-1.98413e-13 0 0)
(-2.00453e-13 0 0)
(-1.39194e-13 0 0)
(-1.33568e-13 0 0)
(-7.08248e-14 0 0)
(-3.18671e-14 0 0)
(-6.63366e-14 0 0)
(-8.29117e-14 0 0)
(-2.23203e-13 0 0)
(-2.11369e-13 0 0)
(-2.48368e-13 0 0)
(-2.21124e-13 0 0)
(-2.74159e-13 0 0)
(-3.27266e-13 0 0)
(-2.86688e-13 0 0)
(-1.81776e-13 0 0)
(-2.09615e-13 0 0)
(-2.06675e-13 0 0)
(-1.73513e-13 0 0)
(-5.33956e-14 0 0)
(-2.42672e-14 0 0)
(-8.89647e-14 0 0)
(-1.3705e-13 0 0)
(-1.21764e-13 0 0)
(-1.40851e-13 0 0)
(-1.16934e-13 0 0)
(-3.32555e-14 0 0)
(-4.42542e-15 0 0)
(7.07816e-15 0 0)
(4.65123e-14 0 0)
(5.20476e-14 0 0)
(9.39211e-14 0 0)
(1.33622e-13 0 0)
(1.3374e-13 0 0)
(1.10679e-13 0 0)
(1.10064e-13 0 0)
(3.51109e-14 0 0)
(7.37301e-15 0 0)
(-3.30659e-14 0 0)
(-1.28188e-13 0 0)
(-1.70084e-13 0 0)
(-3.02357e-14 0 0)
(-5.23807e-14 0 0)
(5.05709e-14 0 0)
(4.70419e-14 0 0)
(1.29946e-13 0 0)
(1.80191e-13 0 0)
(1.59774e-13 0 0)
(2.31622e-13 0 0)
(2.57643e-13 0 0)
(1.76259e-13 0 0)
(1.07154e-13 0 0)
(1.09796e-13 0 0)
(6.64254e-14 0 0)
(4.84965e-14 0 0)
(6.60861e-14 0 0)
(2.51072e-14 0 0)
(-7.36362e-15 0 0)
(3.02279e-14 0 0)
(-3.98253e-16 0 0)
(-2.36596e-14 0 0)
(-4.64472e-14 0 0)
(-9.54268e-14 0 0)
(3.24201e-14 0 0)
(9.29912e-14 0 0)
(5.36827e-14 0 0)
(1.27775e-13 0 0)
(1.50844e-13 0 0)
(1.15294e-13 0 0)
(8.78865e-14 0 0)
(1.47504e-13 0 0)
(8.15664e-14 0 0)
(1.95152e-14 0 0)
(4.94651e-14 0 0)
(6.6563e-14 0 0)
(1.41906e-13 0 0)
(2.05259e-13 0 0)
(2.73773e-13 0 0)
(3.2974e-13 0 0)
(2.63827e-13 0 0)
(2.89449e-13 0 0)
(2.05304e-13 0 0)
(1.407e-13 0 0)
(2.53746e-13 0 0)
(3.38205e-13 0 0)
(4.23073e-13 0 0)
(5.248e-13 0 0)
(5.50355e-13 0 0)
(4.53283e-13 0 0)
(3.72908e-13 0 0)
(4.17568e-13 0 0)
(4.66539e-13 0 0)
(4.15236e-13 0 0)
(4.23052e-13 0 0)
(4.79165e-13 0 0)
(5.69143e-13 0 0)
(5.76192e-13 0 0)
(5.80029e-13 0 0)
(5.37338e-13 0 0)
(4.71998e-13 0 0)
(5.38232e-13 0 0)
(5.4327e-13 0 0)
(5.38077e-13 0 0)
(5.4492e-13 0 0)
(3.87284e-13 0 0)
(2.97166e-13 0 0)
(3.62665e-13 0 0)
(3.88566e-13 0 0)
(3.53843e-13 0 0)
(3.41621e-13 0 0)
(3.33729e-13 0 0)
(2.94066e-13 0 0)
(2.77348e-13 0 0)
(3.19094e-13 0 0)
(2.80813e-13 0 0)
(2.17309e-13 0 0)
(3.48764e-13 0 0)
(3.38577e-13 0 0)
(3.03712e-13 0 0)
(3.00902e-13 0 0)
(3.4198e-13 0 0)
(2.51037e-13 0 0)
(2.21534e-13 0 0)
(2.78383e-13 0 0)
(2.82672e-13 0 0)
(3.34465e-13 0 0)
(3.7953e-13 0 0)
(4.6399e-13 0 0)
(4.37345e-13 0 0)
(3.13861e-13 0 0)
(2.65071e-13 0 0)
(2.53586e-13 0 0)
(1.89069e-13 0 0)
(1.79317e-13 0 0)
(1.22969e-13 0 0)
)
;

boundaryField
{
    sides
    {
        type            zeroGradient;
    }
    empty
    {
        type            empty;
    }
}


// ************************************************************************* //
