/*--------------------------------*- C++ -*----------------------------------*\
  =========                 |
  \\      /  F ield         | OpenFOAM: The Open Source CFD Toolbox
   \\    /   O peration     | Website:  https://openfoam.org
    \\  /    A nd           | Version:  9
     \\/     M anipulation  |
\*---------------------------------------------------------------------------*/
FoamFile
{
    format      ascii;
    class       volScalarField;
    location    "0.033";
    object      p;
}
// * * * * * * * * * * * * * * * * * * * * * * * * * * * * * * * * * * * * * //

dimensions      [1 -1 -2 0 0 0 0];

internalField   nonuniform List<scalar> 
100
(
21317.5
21273.8
21178.8
21102.8
21038.5
20974.4
20910.1
20846.3
20783.7
20722.6
20662
20602.5
20544.6
20487
20430.6
20376
20322.2
20268.9
20217.2
20167.5
20118.8
20071
20024.9
19981.2
19939.4
19898.9
19860.2
19823.9
19791
19760.4
19732.7
19708.5
19687.4
19670.3
19657.1
19647.8
19640.5
19639.3
19639.4
19639.8
19641
19643.9
19650.4
19663.4
19689.2
19732.9
19784.7
19843.5
19908
19977.6
20053.4
20135.9
20225.6
20322.6
20425.8
20535.1
20650.5
20771.8
20898.5
21030.2
21166.2
21305.6
21448
21593.9
21743
21895
22049.7
22206.5
22365.5
22527.1
22691.5
22859
23029.3
23201.7
23376.5
23554.1
23734.1
23916.5
24101.1
24287.4
24474.5
24662.6
24851.2
25040.5
25229.6
25419.1
25608
25797.5
25985.5
26174.6
26361.5
26550.6
26736.8
26927.1
27116
27314
27518.7
27743.9
27990.7
28276.3
)
;

boundaryField
{
    sides
    {
        type            zeroGradient;
    }
    empty
    {
        type            empty;
    }
}


// ************************************************************************* //
