/*--------------------------------*- C++ -*----------------------------------*\
  =========                 |
  \\      /  F ield         | OpenFOAM: The Open Source CFD Toolbox
   \\    /   O peration     | Website:  https://openfoam.org
    \\  /    A nd           | Version:  9
     \\/     M anipulation  |
\*---------------------------------------------------------------------------*/
FoamFile
{
    format      ascii;
    class       volVectorField;
    location    "0.033";
    object      U;
}
// * * * * * * * * * * * * * * * * * * * * * * * * * * * * * * * * * * * * * //

dimensions      [0 1 -1 0 0 0 0];

internalField   nonuniform List<vector> 
100
(
(44.9083 0 0)
(48.3141 0 0)
(52.7797 0 0)
(56.2768 0 0)
(59.4744 0 0)
(62.7355 0 0)
(66.0465 0 0)
(69.3648 0 0)
(72.6724 0 0)
(75.9891 0 0)
(79.304 0 0)
(82.601 0 0)
(85.9074 0 0)
(89.2117 0 0)
(92.4898 0 0)
(95.7697 0 0)
(99.0617 0 0)
(102.333 0 0)
(105.578 0 0)
(108.828 0 0)
(112.087 0 0)
(115.327 0 0)
(118.534 0 0)
(121.728 0 0)
(124.928 0 0)
(128.122 0 0)
(131.286 0 0)
(134.413 0 0)
(137.516 0 0)
(140.61 0 0)
(143.682 0 0)
(146.718 0 0)
(149.713 0 0)
(152.665 0 0)
(155.589 0 0)
(158.485 0 0)
(161.337 0 0)
(164.155 0 0)
(166.969 0 0)
(169.786 0 0)
(172.599 0 0)
(175.395 0 0)
(178.147 0 0)
(180.801 0 0)
(183.291 0 0)
(185.64 0 0)
(187.905 0 0)
(190.109 0 0)
(192.265 0 0)
(194.365 0 0)
(196.41 0 0)
(198.397 0 0)
(200.32 0 0)
(202.186 0 0)
(203.998 0 0)
(205.755 0 0)
(207.458 0 0)
(209.115 0 0)
(210.733 0 0)
(212.32 0 0)
(213.888 0 0)
(215.437 0 0)
(216.961 0 0)
(218.462 0 0)
(219.953 0 0)
(221.442 0 0)
(222.934 0 0)
(224.425 0 0)
(225.905 0 0)
(227.371 0 0)
(228.824 0 0)
(230.274 0 0)
(231.727 0 0)
(233.179 0 0)
(234.622 0 0)
(236.053 0 0)
(237.478 0 0)
(238.899 0 0)
(240.323 0 0)
(241.757 0 0)
(243.201 0 0)
(244.652 0 0)
(246.111 0 0)
(247.581 0 0)
(249.062 0 0)
(250.556 0 0)
(252.062 0 0)
(253.581 0 0)
(255.109 0 0)
(256.645 0 0)
(258.181 0 0)
(259.716 0 0)
(261.242 0 0)
(262.753 0 0)
(264.234 0 0)
(265.654 0 0)
(266.975 0 0)
(268.124 0 0)
(269.019 0 0)
(270.997 0 0)
)
;

boundaryField
{
    sides
    {
        type            zeroGradient;
    }
    empty
    {
        type            empty;
    }
}


// ************************************************************************* //
